/*--------------------------------*- C++ -*----------------------------------*\
| =========                 |                                                 |
| \\      /  F ield         | OpenFOAM: The Open Source CFD Toolbox           |
|  \\    /   O peration     | Version:  2.4.0                                 |
|   \\  /    A nd           | Web:      www.OpenFOAM.org                      |
|    \\/     M anipulation  |                                                 |
\*---------------------------------------------------------------------------*/
FoamFile
{
    version     2.0;
    format      ascii;
    class       volScalarField;
    location    "500";
    object      k;
}
// * * * * * * * * * * * * * * * * * * * * * * * * * * * * * * * * * * * * * //

dimensions      [0 2 -2 0 0 0 0];

internalField   nonuniform List<scalar> 
78300
(
8.3397401e-07
8.6761309e-07
1.1270671e-06
1.0323701e-06
8.5706959e-07
3.9238452e-07
8.7750376e-08
8.4786596e-09
1.0887336e-07
1.7969868e-07
1.4587392e-07
8.2235929e-08
4.3417529e-08
3.0946106e-08
2.1280281e-08
3.0470186e-08
2.4380549e-08
2.4359355e-08
2.5774933e-08
2.2155832e-08
1.9977544e-08
1.8036054e-08
1.6123469e-08
1.4657866e-08
1.3689436e-08
1.3426663e-08
1.3300413e-08
1.3246218e-08
1.3616538e-08
1.4090245e-08
1.5019492e-08
1.6138475e-08
1.7734208e-08
1.9670742e-08
2.1954462e-08
2.448479e-08
2.7017703e-08
2.9343491e-08
3.1860074e-08
3.2937868e-08
3.2751936e-08
3.6533786e-08
3.8156941e-08
3.9838149e-08
4.0649497e-08
4.0880594e-08
4.0651042e-08
3.9791375e-08
3.8878675e-08
3.7952838e-08
3.6907247e-08
3.5342574e-08
3.3886382e-08
3.1986035e-08
2.9960466e-08
2.742161e-08
2.5064911e-08
2.220103e-08
2.02209e-08
1.7738441e-08
1.7310168e-08
1.6607182e-08
2.2888874e-08
3.9604443e-08
5.3942115e-08
6.9518313e-08
8.4604644e-08
9.9645817e-08
1.1402886e-07
1.2825973e-07
1.4142971e-07
1.5427348e-07
1.6631162e-07
1.7777035e-07
1.886936e-07
1.9919357e-07
2.0924439e-07
2.1888008e-07
2.2815938e-07
2.3710075e-07
2.4571855e-07
2.5405949e-07
2.6211159e-07
2.6987743e-07
2.7736976e-07
2.8461928e-07
2.916004e-07
2.9831873e-07
3.0476402e-07
3.1092917e-07
3.1685796e-07
3.2248948e-07
3.2783738e-07
3.3289475e-07
3.3765206e-07
3.4209631e-07
3.4622985e-07
3.5004146e-07
3.5352769e-07
3.5667708e-07
3.5947893e-07
3.6193739e-07
3.6404119e-07
3.6581021e-07
3.672311e-07
3.6830018e-07
3.6901185e-07
3.69359e-07
3.693486e-07
3.6897754e-07
3.68255e-07
3.6717907e-07
3.6576334e-07
3.6399563e-07
3.6189991e-07
3.5946021e-07
3.5668272e-07
3.5356713e-07
3.5015773e-07
3.4654728e-07
3.4268018e-07
3.3849862e-07
3.3404574e-07
3.2937499e-07
3.244905e-07
3.1937794e-07
3.1405324e-07
3.0856095e-07
3.0290835e-07
2.9709453e-07
2.9113844e-07
2.8505806e-07
2.7886747e-07
2.7258461e-07
2.6622137e-07
2.5979174e-07
2.5331177e-07
2.4679157e-07
2.4024696e-07
2.3368858e-07
2.271308e-07
2.2058313e-07
2.1405819e-07
2.0756524e-07
2.0110422e-07
1.947058e-07
1.8835285e-07
1.8206414e-07
1.7588698e-07
1.6977035e-07
1.6374821e-07
1.5782103e-07
1.5199947e-07
1.4627354e-07
1.4068932e-07
1.3517715e-07
1.2987399e-07
1.245928e-07
1.1951076e-07
1.1426705e-07
1.0915482e-07
1.0383575e-07
9.852034e-08
9.4404781e-08
9.0563996e-08
8.6676494e-08
8.2742264e-08
7.8922155e-08
7.5163502e-08
7.1554013e-08
6.8026198e-08
6.4635679e-08
6.1350402e-08
5.8206449e-08
5.5170023e-08
5.2265668e-08
4.9476265e-08
4.6798726e-08
4.4231032e-08
4.1787225e-08
3.9440326e-08
3.7212649e-08
3.5078612e-08
3.3054e-08
3.1113484e-08
2.9294419e-08
2.7531666e-08
2.5894593e-08
2.4320104e-08
2.2853967e-08
2.1478229e-08
2.0178792e-08
1.8973615e-08
1.7810408e-08
1.675119e-08
1.5741975e-08
1.4824399e-08
1.4022412e-08
1.3248104e-08
1.2586198e-08
1.1951539e-08
1.1489572e-08
1.101604e-08
1.0730683e-08
1.0472824e-08
1.0445223e-08
1.0269612e-08
1.0176098e-08
1.0198797e-08
1.0171509e-08
1.055343e-08
1.048427e-08
1.0331654e-08
1.0212326e-08
9.8471991e-09
9.5880319e-09
8.9805452e-09
7.6900786e-09
8.2481564e-09
6.5345316e-09
4.2842276e-09
4.6234199e-09
2.2255054e-08
4.4431145e-08
1.5719717e-08
1.02276e-08
2.7360966e-08
2.4026332e-07
1.7038143e-06
3.4235683e-08
2.0237451e-08
5.8053208e-07
1.2786421e-06
3.0859095e-06
5.6017944e-07
1.4176801e-07
1.0889537e-06
7.262382e-07
5.930819e-07
6.4146027e-07
2.3072784e-06
1.5060093e-06
1.3998272e-06
4.5103935e-07
9.2441965e-07
3.7340769e-07
1.4649404e-05
1.1346511e-05
5.5578874e-06
9.4613833e-06
6.6411461e-07
3.9729093e-07
7.5330286e-05
0.00036408072
1.3664913e-05
3.3856907e-06
9.9296047e-06
5.5942203e-06
1.0649899e-05
1.1966377e-05
7.6294441e-06
1.1352278e-05
9.8036505e-06
6.5254587e-06
4.5878862e-06
2.8900665e-06
1.8345006e-06
1.0485167e-06
8.4196087e-07
5.178219e-07
2.9868254e-07
3.030166e-07
3.3276569e-07
3.0032621e-07
2.4555098e-07
1.4395687e-07
6.7537992e-08
3.0607508e-08
2.9344575e-08
3.2013433e-08
2.4765987e-08
1.3824008e-08
7.2096554e-09
5.2042325e-09
3.5928951e-09
5.0395743e-09
4.0072968e-09
3.9901411e-09
4.1886311e-09
3.6605996e-09
3.3337233e-09
3.0444861e-09
2.7629147e-09
2.551217e-09
2.4193787e-09
2.3972118e-09
2.4005081e-09
2.4197578e-09
2.5091185e-09
2.6203597e-09
2.8073412e-09
3.0317099e-09
3.3371513e-09
3.7054529e-09
4.1392759e-09
4.6240147e-09
5.1223174e-09
5.603106e-09
6.1265034e-09
6.4437896e-09
6.5832757e-09
7.3313451e-09
7.7851323e-09
8.2675892e-09
8.6371334e-09
8.9316844e-09
9.1684013e-09
9.3206484e-09
9.4787467e-09
9.6529578e-09
9.8219903e-09
9.9267204e-09
1.0044688e-08
1.0085317e-08
1.0088006e-08
9.9821368e-09
9.8592887e-09
9.5931796e-09
9.3898877e-09
9.0488924e-09
9.0016414e-09
8.9648922e-09
1.0268047e-08
1.3885762e-08
1.7498373e-08
2.1234604e-08
2.4884338e-08
2.8501545e-08
3.1996724e-08
3.5440029e-08
3.8706254e-08
4.1897321e-08
4.494877e-08
4.7894027e-08
5.0745128e-08
5.3519814e-08
5.6216389e-08
5.8841914e-08
6.1406184e-08
6.3913647e-08
6.6367329e-08
6.8774385e-08
7.1133783e-08
7.344567e-08
7.5711379e-08
7.7935452e-08
8.0113967e-08
8.2247095e-08
8.4331714e-08
8.6365921e-08
8.8355474e-08
9.0290451e-08
9.2171555e-08
9.3996434e-08
9.5763185e-08
9.7468431e-08
9.9111388e-08
1.0068991e-07
1.0220238e-07
1.03646e-07
1.050179e-07
1.0631719e-07
1.0754071e-07
1.0869138e-07
1.0976722e-07
1.1076713e-07
1.1168917e-07
1.1253036e-07
1.1329102e-07
1.1396991e-07
1.1456791e-07
1.1508511e-07
1.1552312e-07
1.1588001e-07
1.16159e-07
1.1635683e-07
1.1647421e-07
1.1650648e-07
1.164545e-07
1.1634461e-07
1.1617606e-07
1.1592991e-07
1.1560775e-07
1.152208e-07
1.1477365e-07
1.1426318e-07
1.1368972e-07
1.1306148e-07
1.1238128e-07
1.1164893e-07
1.1086698e-07
1.1003913e-07
1.0916748e-07
1.0825564e-07
1.0730576e-07
1.0632106e-07
1.0530412e-07
1.0425759e-07
1.0318422e-07
1.0208684e-07
1.0096834e-07
9.983151e-08
9.8678397e-08
9.7511897e-08
9.6332119e-08
9.5144111e-08
9.3945883e-08
9.2737609e-08
9.1531974e-08
9.0323708e-08
8.9113975e-08
8.7905735e-08
8.6700598e-08
8.5497517e-08
8.430356e-08
8.3108428e-08
8.1941074e-08
8.0787216e-08
7.9682846e-08
7.8572425e-08
7.7458729e-08
7.6152907e-08
7.4616915e-08
7.3328358e-08
7.230107e-08
7.1315899e-08
7.0305609e-08
6.9291654e-08
6.827191e-08
6.726199e-08
6.6258084e-08
6.5262422e-08
6.4269346e-08
6.3288128e-08
6.2318695e-08
6.1364617e-08
6.0425676e-08
5.9498372e-08
5.8576483e-08
5.7667708e-08
5.6767031e-08
5.5878584e-08
5.4998228e-08
5.4126586e-08
5.3256094e-08
5.2392058e-08
5.1521639e-08
5.0662341e-08
4.9800218e-08
4.8932365e-08
4.8065908e-08
4.7192122e-08
4.6307839e-08
4.5404627e-08
4.4483499e-08
4.3534837e-08
4.2558995e-08
4.1569943e-08
4.0539959e-08
3.9474028e-08
3.8345776e-08
3.7180312e-08
3.5937867e-08
3.4674577e-08
3.3346437e-08
3.2005816e-08
3.0487203e-08
2.8913825e-08
2.8242802e-08
2.8314198e-08
2.8846628e-08
2.9495665e-08
3.0251364e-08
3.109971e-08
3.1961262e-08
3.312857e-08
3.4217953e-08
3.4992907e-08
3.564287e-08
3.6877685e-08
3.7015236e-08
3.5921231e-08
3.935699e-08
5.1790077e-08
3.6545292e-08
2.9546106e-08
3.3791501e-08
9.9330388e-08
4.0152656e-07
1.3379539e-07
1.0664943e-07
1.7959503e-07
2.5810057e-07
5.1309698e-07
9.250469e-08
1.2476478e-07
3.468308e-07
1.9949715e-07
1.5007387e-07
1.6379874e-07
4.4096783e-07
2.8478698e-07
2.7100786e-07
9.9029939e-08
1.5692455e-07
1.2918979e-07
2.3979709e-06
2.1082783e-06
1.2985675e-06
1.6075667e-06
2.7732088e-07
2.0338372e-07
1.0858784e-05
5.6925298e-05
1.0805462e-06
8.8376475e-07
1.8540383e-06
1.4861578e-06
2.2920252e-06
2.6436542e-06
1.7807987e-06
2.1415631e-06
1.7523991e-06
1.1838734e-06
8.783341e-07
6.2215102e-07
4.6098683e-07
3.3823497e-07
2.9739543e-07
2.4711013e-07
1.3222523e-06
1.319529e-06
1.2689475e-06
1.1299247e-06
9.1016813e-07
6.4721052e-07
4.0323756e-07
2.1527393e-07
1.0246122e-07
4.8817151e-08
2.602098e-08
1.3329016e-08
7.0600983e-09
5.3450517e-09
4.3348892e-09
4.6433104e-09
4.1247573e-09
4.0419841e-09
4.055652e-09
3.8674546e-09
3.741861e-09
3.6374396e-09
3.553806e-09
3.5232579e-09
3.5561429e-09
3.6634126e-09
3.8214937e-09
4.02004e-09
4.2893633e-09
4.6162716e-09
5.0245662e-09
5.5095842e-09
6.0953774e-09
6.7912053e-09
7.6061379e-09
8.538024e-09
9.5669358e-09
1.0682326e-08
1.1901956e-08
1.3109473e-08
1.4326956e-08
1.5884591e-08
1.7539174e-08
1.9328034e-08
2.118899e-08
2.3106464e-08
2.5073078e-08
2.7074293e-08
2.9173032e-08
3.1402872e-08
3.372654e-08
3.6096478e-08
3.846563e-08
4.072801e-08
4.2842383e-08
4.4692695e-08
4.6223797e-08
4.7234664e-08
4.7792168e-08
4.7864056e-08
4.7960757e-08
4.8416571e-08
5.1460614e-08
6.0656337e-08
7.2267711e-08
8.3504445e-08
9.461668e-08
1.0553469e-07
1.1623601e-07
1.2674291e-07
1.3702043e-07
1.4709348e-07
1.5697768e-07
1.6668348e-07
1.762534e-07
1.8570107e-07
1.9504174e-07
2.0429172e-07
2.1346101e-07
2.2256402e-07
2.3160809e-07
2.4059688e-07
2.4953511e-07
2.5842164e-07
2.6725329e-07
2.7603032e-07
2.8475161e-07
2.9341214e-07
3.0200028e-07
3.1050998e-07
3.189356e-07
3.2726998e-07
3.3550313e-07
3.4362497e-07
3.516314e-07
3.5951111e-07
3.6725684e-07
3.7486378e-07
3.8232376e-07
3.8962818e-07
3.9676681e-07
4.0372946e-07
4.105034e-07
4.1709067e-07
4.2349051e-07
4.2969807e-07
4.3570535e-07
4.4149764e-07
4.4707086e-07
4.5241834e-07
4.5753694e-07
4.6242964e-07
4.6709445e-07
4.7152935e-07
4.7573355e-07
4.7969983e-07
4.8342566e-07
4.8687977e-07
4.9001959e-07
4.9294291e-07
4.9570401e-07
4.982219e-07
5.0046359e-07
5.0245622e-07
5.0423042e-07
5.0577689e-07
5.0708152e-07
5.0815856e-07
5.0902166e-07
5.0966969e-07
5.101019e-07
5.1032681e-07
5.1034518e-07
5.1016503e-07
5.097897e-07
5.0922816e-07
5.0848295e-07
5.0756279e-07
5.0647134e-07
5.0521859e-07
5.038106e-07
5.0225802e-07
5.0056304e-07
4.9873725e-07
4.967811e-07
4.94701e-07
4.9249885e-07
4.9015624e-07
4.8771837e-07
4.8519843e-07
4.8257041e-07
4.7985526e-07
4.7705387e-07
4.7416834e-07
4.7120346e-07
4.681558e-07
4.6509433e-07
4.6210962e-07
4.5928193e-07
4.5657613e-07
4.5369382e-07
4.496487e-07
4.4391819e-07
4.3873544e-07
4.3519719e-07
4.3200206e-07
4.2867515e-07
4.2520566e-07
4.2162993e-07
4.179712e-07
4.142724e-07
4.1049192e-07
4.0662185e-07
4.0269385e-07
3.987411e-07
3.9476412e-07
3.9077874e-07
3.8676302e-07
3.8267339e-07
3.785517e-07
3.74389e-07
3.7019262e-07
3.6595859e-07
3.6167513e-07
3.5731324e-07
3.5287307e-07
3.4832815e-07
3.4373437e-07
3.390552e-07
3.3422235e-07
3.2930626e-07
3.2425798e-07
3.1903565e-07
3.1363223e-07
3.0799006e-07
3.0209493e-07
2.9590578e-07
2.8950094e-07
2.8276834e-07
2.7565727e-07
2.6806269e-07
2.6001876e-07
2.5142316e-07
2.4248159e-07
2.3303702e-07
2.2326314e-07
2.1234432e-07
2.0094973e-07
1.9602538e-07
1.9657668e-07
2.0007258e-07
2.0489133e-07
2.1057587e-07
2.1690056e-07
2.2357706e-07
2.323835e-07
2.409886e-07
2.4796514e-07
2.5193484e-07
2.6308127e-07
2.6623594e-07
2.5785788e-07
2.6825312e-07
3.0793235e-07
2.5217753e-07
2.0704996e-07
2.2197576e-07
4.7634207e-07
1.0386538e-06
9.5253607e-07
7.4382414e-07
6.8266838e-07
4.7929416e-07
3.7466113e-07
9.9389959e-08
7.425459e-07
1.4172282e-06
7.3682021e-07
4.5841054e-07
4.6682922e-07
4.9156758e-07
5.6501213e-07
5.1003546e-07
2.5231209e-07
2.1617556e-07
5.3899711e-07
2.1878594e-06
1.1498824e-06
7.9082661e-07
1.7690508e-06
1.3556175e-06
9.1223913e-07
3.579817e-06
1.9099073e-05
2.7154237e-06
2.8447239e-06
3.0578948e-06
5.02614e-06
5.6819972e-06
6.5778657e-06
5.2000512e-06
3.893066e-06
2.619708e-06
1.9327577e-06
1.6855458e-06
1.5679872e-06
1.4771249e-06
1.3917769e-06
1.3049794e-06
1.2719345e-06
4.8401848e-06
4.8249668e-06
4.5969363e-06
4.0890469e-06
3.2899054e-06
2.3714248e-06
1.5009697e-06
8.0760657e-07
3.6953677e-07
1.576436e-07
7.4871796e-08
3.7123054e-08
1.9931485e-08
1.5313011e-08
1.3184425e-08
1.2759967e-08
1.1927733e-08
1.1619753e-08
1.1471292e-08
1.1276612e-08
1.112609e-08
1.1019992e-08
1.0985551e-08
1.1085576e-08
1.1349107e-08
1.1789059e-08
1.2400152e-08
1.315303e-08
1.4108259e-08
1.5265987e-08
1.6661415e-08
1.8317303e-08
2.0281657e-08
2.2609306e-08
2.5332731e-08
2.8458912e-08
3.1949199e-08
3.579452e-08
4.0000343e-08
4.4374344e-08
4.8969877e-08
5.425797e-08
6.0235184e-08
6.6702206e-08
7.3565987e-08
8.0730257e-08
8.8145743e-08
9.5783915e-08
1.0379562e-07
1.1230125e-07
1.2117938e-07
1.3030189e-07
1.3941277e-07
1.4818745e-07
1.5642584e-07
1.6374843e-07
1.6984462e-07
1.7406347e-07
1.7644946e-07
1.7708594e-07
1.7751438e-07
1.7932912e-07
1.8982681e-07
2.2187778e-07
2.6334997e-07
3.0324173e-07
3.4274007e-07
3.8151258e-07
4.1956698e-07
4.5692663e-07
4.9356725e-07
5.2949082e-07
5.6482406e-07
5.9957235e-07
6.3388862e-07
6.678076e-07
7.0139073e-07
7.3469414e-07
7.6774637e-07
8.0059924e-07
8.332782e-07
8.6578995e-07
8.98154e-07
9.3036579e-07
9.6241166e-07
9.9428773e-07
1.0259938e-06
1.05751e-06
1.0887945e-06
1.1198258e-06
1.1505756e-06
1.1810267e-06
1.2111393e-06
1.2408767e-06
1.2702248e-06
1.2991431e-06
1.3276043e-06
1.3555916e-06
1.3830749e-06
1.4100236e-06
1.4364009e-06
1.4621682e-06
1.4872787e-06
1.5117378e-06
1.5355447e-06
1.5586814e-06
1.5811189e-06
1.6028025e-06
1.6237156e-06
1.6438343e-06
1.6631453e-06
1.6816602e-06
1.6993699e-06
1.7162683e-06
1.7323489e-06
1.7475868e-06
1.7619711e-06
1.7753859e-06
1.7876642e-06
1.7991594e-06
1.8100841e-06
1.8201417e-06
1.8292022e-06
1.83736e-06
1.84473e-06
1.8512786e-06
1.8569506e-06
1.861793e-06
1.8658565e-06
1.8691363e-06
1.8716271e-06
1.8733581e-06
1.8743302e-06
1.874571e-06
1.8740912e-06
1.8729223e-06
1.8710716e-06
1.8685704e-06
1.86543e-06
1.8616863e-06
1.85736e-06
1.8524897e-06
1.8470818e-06
1.8411782e-06
1.8347807e-06
1.8279094e-06
1.8205733e-06
1.8127007e-06
1.8044549e-06
1.7958918e-06
1.7869095e-06
1.7775864e-06
1.7679242e-06
1.7579322e-06
1.7476219e-06
1.7369907e-06
1.7262772e-06
1.7158492e-06
1.7059816e-06
1.6965916e-06
1.6865105e-06
1.6721101e-06
1.6513896e-06
1.6325441e-06
1.6198329e-06
1.6084087e-06
1.5964981e-06
1.5840364e-06
1.5711675e-06
1.557965e-06
1.5446003e-06
1.5309091e-06
1.5168666e-06
1.5025865e-06
1.4881978e-06
1.4736987e-06
1.4591513e-06
1.4444735e-06
1.4295025e-06
1.4143932e-06
1.3991159e-06
1.3836946e-06
1.3681185e-06
1.3523409e-06
1.3362567e-06
1.3198612e-06
1.3030648e-06
1.2860662e-06
1.2687382e-06
1.250818e-06
1.2325722e-06
1.2138193e-06
1.1943996e-06
1.1742948e-06
1.1532789e-06
1.131307e-06
1.108218e-06
1.0843032e-06
1.0591546e-06
1.0325701e-06
1.0041676e-06
9.7405437e-07
9.4187214e-07
9.0836528e-07
8.7296684e-07
8.362996e-07
7.953967e-07
7.5277707e-07
7.3437489e-07
7.3645491e-07
7.4953099e-07
7.6764244e-07
7.8901759e-07
8.1279123e-07
8.3792667e-07
8.7104652e-07
9.0343071e-07
9.2976986e-07
9.4460248e-07
9.8675851e-07
9.9880203e-07
9.6733351e-07
1.0053148e-06
1.1423892e-06
9.438165e-07
7.7602927e-07
8.3360104e-07
1.7565993e-06
3.5943415e-06
3.5546149e-06
2.782156e-06
2.4609422e-06
1.5638106e-06
8.6800297e-07
2.9638788e-07
2.7722139e-06
5.1521322e-06
2.690354e-06
1.625085e-06
1.6380213e-06
1.3709379e-06
1.9010806e-06
1.6771568e-06
8.82433e-07
6.860074e-07
1.9861744e-06
5.8687157e-06
2.3228859e-06
1.4889109e-06
5.1542423e-06
4.9942068e-06
3.3098705e-06
3.1701706e-06
1.1347751e-05
9.1860489e-06
1.0303602e-05
9.9013979e-06
1.7911936e-05
1.9591163e-05
2.2309392e-05
1.8396113e-05
1.2886314e-05
8.3682331e-06
6.3057125e-06
5.6511403e-06
5.4584615e-06
5.2711603e-06
5.06776e-06
4.7733918e-06
4.6980748e-06
1.2900595e-05
1.2857625e-05
1.2236666e-05
1.0883056e-05
8.7550664e-06
6.3212055e-06
4.0091769e-06
2.1605548e-06
9.8547223e-07
4.1557264e-07
1.9324594e-07
9.5333742e-08
5.1470712e-08
3.9480152e-08
3.4398998e-08
3.2724451e-08
3.0898949e-08
3.0077252e-08
2.9624995e-08
2.92468e-08
2.8934279e-08
2.8730156e-08
2.8714334e-08
2.9038271e-08
2.9778375e-08
3.0962132e-08
3.2596333e-08
3.4607712e-08
3.7141736e-08
4.0212944e-08
4.3899871e-08
4.82751e-08
5.345448e-08
5.9589947e-08
6.6768577e-08
7.5014063e-08
8.4233875e-08
9.4411952e-08
1.0554578e-07
1.1719215e-07
1.2947825e-07
1.4344684e-07
1.5935362e-07
1.7656733e-07
1.948789e-07
2.140211e-07
2.3385532e-07
2.5431097e-07
2.7576427e-07
2.9853682e-07
3.2231266e-07
3.4676288e-07
3.7118462e-07
3.9472718e-07
4.1684355e-07
4.3653454e-07
4.5294083e-07
4.6435048e-07
4.7082209e-07
4.726364e-07
4.7381085e-07
4.7869866e-07
5.0647488e-07
5.9138166e-07
7.0158565e-07
8.0754008e-07
9.1246454e-07
1.015447e-06
1.1165369e-06
1.2157825e-06
1.3131428e-06
1.4086008e-06
1.5025151e-06
1.5948899e-06
1.6861311e-06
1.7763273e-06
1.8656444e-06
1.9542306e-06
2.04216e-06
2.1295702e-06
2.2165285e-06
2.303051e-06
2.3891904e-06
2.4749343e-06
2.5602459e-06
2.6451135e-06
2.7295375e-06
2.8134645e-06
2.8967835e-06
2.9794374e-06
3.0613483e-06
3.1424734e-06
3.2227059e-06
3.3019476e-06
3.3801617e-06
3.45724e-06
3.5331099e-06
3.6077269e-06
3.6810108e-06
3.7528802e-06
3.8232369e-06
3.891978e-06
3.9589785e-06
4.0242529e-06
4.0877994e-06
4.14957e-06
4.2094869e-06
4.2674039e-06
4.3232734e-06
4.3770355e-06
4.4286543e-06
4.478161e-06
4.5255305e-06
4.570747e-06
4.6137914e-06
4.6545988e-06
4.6931387e-06
4.7291019e-06
4.7620421e-06
4.7929003e-06
4.8222439e-06
4.8492833e-06
4.8736695e-06
4.895654e-06
4.9155435e-06
4.9332474e-06
4.9486179e-06
4.961779e-06
4.9728661e-06
4.981866e-06
4.9887641e-06
4.9936371e-06
4.9964876e-06
4.9973879e-06
4.9963665e-06
4.9935069e-06
4.9888281e-06
4.9824129e-06
4.9742912e-06
4.9645582e-06
4.9532689e-06
4.9405255e-06
4.926345e-06
4.9108387e-06
4.8940112e-06
4.8759158e-06
4.8565758e-06
4.8358006e-06
4.8140245e-06
4.7913973e-06
4.7676463e-06
4.7429806e-06
4.7174047e-06
4.6909432e-06
4.6636259e-06
4.6354487e-06
4.6070448e-06
4.5794045e-06
4.5532535e-06
4.5283767e-06
4.5016364e-06
4.4633661e-06
4.4082346e-06
4.3580733e-06
4.3242711e-06
4.293903e-06
4.2622405e-06
4.2291014e-06
4.1948722e-06
4.1597456e-06
4.1241819e-06
4.0877403e-06
4.0503568e-06
4.0123333e-06
3.9740145e-06
3.9353953e-06
3.8966419e-06
3.8575353e-06
3.8176411e-06
3.7773727e-06
3.7366514e-06
3.6955404e-06
3.6540119e-06
3.6119402e-06
3.569046e-06
3.5253159e-06
3.4805131e-06
3.4351642e-06
3.3889324e-06
3.3411156e-06
3.2924246e-06
3.2423751e-06
3.1905413e-06
3.1368756e-06
3.0807724e-06
3.0221142e-06
2.9604669e-06
2.896609e-06
2.8294535e-06
2.7584593e-06
2.6826079e-06
2.6021787e-06
2.5162207e-06
2.4267185e-06
2.3321618e-06
2.2342059e-06
2.125055e-06
2.0115581e-06
1.9626317e-06
1.9682111e-06
2.0031756e-06
2.0516251e-06
2.1088081e-06
2.1724107e-06
2.2396745e-06
2.3282837e-06
2.4148436e-06
2.4852373e-06
2.5250522e-06
2.6377153e-06
2.6697482e-06
2.5857136e-06
2.6881933e-06
3.0484216e-06
2.518978e-06
2.0738723e-06
2.2382186e-06
4.7054143e-06
9.4295957e-06
9.467661e-06
7.4223839e-06
6.5291252e-06
4.0702733e-06
2.1352588e-06
7.8555768e-07
7.4309277e-06
1.3679124e-05
7.145887e-06
4.3020293e-06
4.3360591e-06
3.4792125e-06
5.0081793e-06
4.3711747e-06
2.3269402e-06
1.8161001e-06
5.3552309e-06
1.4778992e-05
5.6132173e-06
3.6378328e-06
1.3298247e-05
1.3279335e-05
8.7514139e-06
5.5838281e-06
1.2399108e-05
2.3663771e-05
2.7423843e-05
2.5833849e-05
4.7399175e-05
5.161118e-05
5.8159915e-05
4.878056e-05
3.3916253e-05
2.1925062e-05
1.6572649e-05
1.4891053e-05
1.4446099e-05
1.3993221e-05
1.3489793e-05
1.2718553e-05
1.2535932e-05
2.8202088e-05
2.8105059e-05
2.6739667e-05
2.3780763e-05
1.9131243e-05
1.3820471e-05
8.7725228e-06
4.7325224e-06
2.1593157e-06
9.0923717e-07
4.1986441e-07
2.0691408e-07
1.1209858e-07
8.5619297e-08
7.493946e-08
7.0932636e-08
6.7210437e-08
6.5415797e-08
6.4403835e-08
6.3636183e-08
6.2989183e-08
6.2574336e-08
6.2567692e-08
6.3293462e-08
6.4920638e-08
6.750534e-08
7.1075924e-08
7.5469315e-08
8.0997699e-08
8.7699004e-08
9.5738295e-08
1.0527915e-07
1.1656925e-07
1.2994291e-07
1.4559184e-07
1.6357155e-07
1.8368584e-07
2.0590236e-07
2.3020839e-07
2.5566554e-07
2.8253736e-07
3.130131e-07
3.4777055e-07
3.8539453e-07
4.2544064e-07
4.673203e-07
5.1072672e-07
5.5550417e-07
6.024575e-07
6.5229293e-07
7.0433088e-07
7.5785642e-07
8.1132762e-07
8.6288793e-07
9.1133458e-07
9.5448808e-07
9.904554e-07
1.0155026e-06
1.0297282e-06
1.0337747e-06
1.0363899e-06
1.0471293e-06
1.1077537e-06
1.2930391e-06
1.5337416e-06
1.7651879e-06
1.9943882e-06
2.2193339e-06
2.4401495e-06
2.6569351e-06
2.8696096e-06
3.0781271e-06
3.2832834e-06
3.485082e-06
3.6844073e-06
3.8814526e-06
4.0765824e-06
4.2701198e-06
4.4622257e-06
4.6532014e-06
4.8431927e-06
5.0322346e-06
5.2204431e-06
5.4077904e-06
5.5941959e-06
5.7796345e-06
5.9641068e-06
6.1474952e-06
6.3295584e-06
6.5101711e-06
6.689163e-06
6.8664417e-06
7.0417732e-06
7.2149438e-06
7.3858723e-06
7.5543231e-06
7.7201375e-06
7.883218e-06
8.0433894e-06
8.2004742e-06
8.3542578e-06
8.5045147e-06
8.6509723e-06
8.7936628e-06
8.9325824e-06
9.067626e-06
9.198623e-06
9.3252491e-06
9.4473976e-06
9.5649453e-06
9.677814e-06
9.7860719e-06
9.889664e-06
9.988555e-06
1.0082703e-05
1.0171966e-05
1.0256276e-05
1.0334957e-05
1.0407038e-05
1.0474577e-05
1.0538805e-05
1.0598e-05
1.0651399e-05
1.0699554e-05
1.0743133e-05
1.0781938e-05
1.0815645e-05
1.0844525e-05
1.0868874e-05
1.0888663e-05
1.0903859e-05
1.091463e-05
1.0920982e-05
1.0923071e-05
1.092096e-05
1.0914832e-05
1.0904728e-05
1.0890827e-05
1.0873197e-05
1.0852043e-05
1.0827487e-05
1.0799751e-05
1.0768872e-05
1.0735093e-05
1.0698425e-05
1.0658982e-05
1.0616816e-05
1.0571513e-05
1.052402e-05
1.0474662e-05
1.0422846e-05
1.0369027e-05
1.0313216e-05
1.0255465e-05
1.019584e-05
1.0134336e-05
1.0072337e-05
1.0012011e-05
9.9549382e-06
9.9006317e-06
9.8422211e-06
9.7585915e-06
9.6381717e-06
9.5286336e-06
9.4547927e-06
9.3884477e-06
9.3192844e-06
9.2468895e-06
9.1721116e-06
9.095369e-06
9.0176667e-06
8.9380427e-06
8.85636e-06
8.7732765e-06
8.6895439e-06
8.6051509e-06
8.5204614e-06
8.4349956e-06
8.3478069e-06
8.2597987e-06
8.1707982e-06
8.0809422e-06
7.9901715e-06
7.89821e-06
7.8044488e-06
7.7088592e-06
7.6109252e-06
7.5117917e-06
7.4107262e-06
7.306197e-06
7.1997534e-06
7.0903358e-06
6.9770177e-06
6.8596932e-06
6.7370392e-06
6.6088009e-06
6.4740231e-06
6.33441e-06
6.1875853e-06
6.03237e-06
5.8665365e-06
5.6906892e-06
5.5027483e-06
5.3070604e-06
5.1003211e-06
4.8861413e-06
4.6477401e-06
4.4003892e-06
4.2939468e-06
4.3061953e-06
4.3827422e-06
4.4888128e-06
4.614007e-06
4.7532806e-06
4.9005799e-06
5.094584e-06
5.2838807e-06
5.4377864e-06
5.525373e-06
5.7715768e-06
5.8412696e-06
5.6576248e-06
5.8842048e-06
6.6650014e-06
5.503113e-06
4.5377698e-06
4.9218994e-06
1.033502e-05
2.0415201e-05
2.0672638e-05
1.6205809e-05
1.4214904e-05
8.7801069e-06
4.5668803e-06
1.7458168e-06
1.6303181e-05
2.9756459e-05
1.548432e-05
9.3557164e-06
9.4438836e-06
7.496944e-06
1.0919018e-05
9.4465927e-06
5.0392004e-06
3.9901579e-06
1.1814596e-05
3.1275993e-05
1.1806076e-05
7.8383057e-06
2.8923226e-05
2.8902067e-05
1.8999294e-05
1.0919367e-05
1.9727528e-05
5.1307295e-05
5.9601977e-05
5.5755997e-05
0.00010266322
0.00011186022
0.00012547735
0.00010631251
7.4034539e-05
4.7762799e-05
3.6101867e-05
3.2424272e-05
3.1478851e-05
3.0523582e-05
2.945914e-05
2.7796309e-05
2.7417695e-05
5.4110725e-05
5.391897e-05
5.1289012e-05
4.5614529e-05
3.670015e-05
2.652549e-05
1.6848722e-05
9.0992353e-06
4.1556663e-06
1.7497385e-06
8.0520908e-07
3.9663988e-07
2.1536517e-07
1.6379674e-07
1.4372666e-07
1.3565388e-07
1.2882753e-07
1.2538941e-07
1.2343483e-07
1.2199765e-07
1.2077627e-07
1.1999676e-07
1.1999452e-07
1.2138756e-07
1.2450468e-07
1.2945042e-07
1.3629319e-07
1.4471215e-07
1.5530342e-07
1.6814427e-07
1.8354693e-07
2.0182776e-07
2.2345812e-07
2.4908051e-07
2.7906525e-07
3.135238e-07
3.5208637e-07
3.9469161e-07
4.413097e-07
4.9015885e-07
5.4172913e-07
6.0016268e-07
6.6683638e-07
7.3903401e-07
8.1590127e-07
8.9630642e-07
9.7965732e-07
1.065649e-06
1.1558023e-06
1.251479e-06
1.3513963e-06
1.4541817e-06
1.5568769e-06
1.6559197e-06
1.7489937e-06
1.8319213e-06
1.9010585e-06
1.9492487e-06
1.9766535e-06
1.9845395e-06
1.9896698e-06
2.0103993e-06
2.1267112e-06
2.481872e-06
2.9434778e-06
3.38743e-06
3.8270651e-06
4.2585156e-06
4.6820387e-06
5.0978217e-06
5.5057173e-06
5.9056309e-06
6.2991029e-06
6.6861346e-06
7.0684178e-06
7.4463239e-06
7.8205569e-06
8.1917341e-06
8.5601658e-06
8.9264292e-06
9.2908025e-06
9.6533534e-06
1.0014306e-05
1.0373605e-05
1.0731098e-05
1.1086736e-05
1.144052e-05
1.1792224e-05
1.2141386e-05
1.2487766e-05
1.2831039e-05
1.3171027e-05
1.3507282e-05
1.3839396e-05
1.4167212e-05
1.4490279e-05
1.4808293e-05
1.5121066e-05
1.5428264e-05
1.5729546e-05
1.60245e-05
1.6312694e-05
1.6593605e-05
1.6867298e-05
1.7133765e-05
1.7392803e-05
1.7644085e-05
1.788697e-05
1.8121261e-05
1.8346733e-05
1.8563239e-05
1.8770907e-05
1.8969634e-05
1.915935e-05
1.9339971e-05
1.9511231e-05
1.9672994e-05
1.9823956e-05
1.9962282e-05
2.009191e-05
2.0215185e-05
2.0328804e-05
2.0431313e-05
2.0523776e-05
2.060747e-05
2.0682006e-05
2.0746769e-05
2.0802279e-05
2.0849103e-05
2.0887181e-05
2.0916453e-05
2.093724e-05
2.0949553e-05
2.0953692e-05
2.0949777e-05
2.0938157e-05
2.0918912e-05
2.0892386e-05
2.0858705e-05
2.0818267e-05
2.0771302e-05
2.0718235e-05
2.0659139e-05
2.0594476e-05
2.0524269e-05
2.044874e-05
2.0367977e-05
2.0281204e-05
2.0190228e-05
2.0095668e-05
1.999639e-05
1.9893267e-05
1.9786316e-05
1.9675642e-05
1.9561369e-05
1.9443493e-05
1.9324674e-05
1.9209074e-05
1.9099707e-05
1.8995597e-05
1.8883546e-05
1.872309e-05
1.8492258e-05
1.8282365e-05
1.8140771e-05
1.8013522e-05
1.7880894e-05
1.7742065e-05
1.7598667e-05
1.7451498e-05
1.730248e-05
1.7149774e-05
1.6993122e-05
1.6833785e-05
1.6673195e-05
1.6511334e-05
1.6348898e-05
1.6184967e-05
1.6017731e-05
1.5848923e-05
1.5678209e-05
1.5505847e-05
1.5331729e-05
1.5155322e-05
1.4975461e-05
1.4792093e-05
1.4604232e-05
1.4414061e-05
1.4220179e-05
1.4019662e-05
1.3815465e-05
1.3605556e-05
1.3388169e-05
1.3163094e-05
1.2927798e-05
1.2681795e-05
1.2423241e-05
1.2155408e-05
1.1873736e-05
1.1575976e-05
1.1257853e-05
1.0920512e-05
1.0559958e-05
1.0184551e-05
9.7879446e-06
9.3770438e-06
8.9201555e-06
8.4471797e-06
8.244008e-06
8.2676021e-06
8.414648e-06
8.6183933e-06
8.8588907e-06
9.1264995e-06
9.4095086e-06
9.7821891e-06
1.0145366e-05
1.0440587e-05
1.0609743e-05
1.1081697e-05
1.1214834e-05
1.0862764e-05
1.1301958e-05
1.2788564e-05
1.0549422e-05
8.7149744e-06
9.5010839e-06
1.9922269e-05
3.890692e-05
3.9577444e-05
3.1036252e-05
2.7149189e-05
1.665681e-05
8.6765262e-06
3.4202526e-06
3.1360781e-05
5.6723145e-05
2.9398016e-05
1.7848711e-05
1.8052468e-05
1.4308694e-05
2.0927774e-05
1.796e-05
9.580031e-06
7.6858246e-06
2.2834285e-05
5.8326669e-05
2.1948037e-05
1.4881428e-05
5.5603231e-05
5.5150858e-05
3.6197401e-05
2.0160127e-05
3.4139446e-05
9.8518078e-05
0.00011327965
0.00010558143
0.00019411844
0.00021206598
0.00023807476
0.00020320289
0.00014203429
9.155911e-05
6.9136105e-05
6.2009999e-05
6.0211058e-05
5.8435195e-05
5.6458246e-05
5.33187e-05
5.2631415e-05
9.472035e-05
9.4374367e-05
8.9751639e-05
7.9829616e-05
6.4243273e-05
4.6463419e-05
2.9537288e-05
1.5971386e-05
7.3028003e-06
3.0751021e-06
1.4120771e-06
6.9529684e-07
3.7795206e-07
2.8645625e-07
2.5173473e-07
2.3705914e-07
2.255584e-07
2.1955023e-07
2.1611881e-07
2.1363326e-07
2.1151048e-07
2.1015738e-07
2.1015484e-07
2.1258162e-07
2.1802217e-07
2.2665878e-07
2.386203e-07
2.5334193e-07
2.71861e-07
2.9431844e-07
3.212561e-07
3.5322969e-07
3.9106038e-07
4.3587368e-07
4.883222e-07
5.4860909e-07
6.1609685e-07
6.9067774e-07
7.7229144e-07
8.5783529e-07
9.481511e-07
1.0504294e-06
1.1671491e-06
1.2935884e-06
1.4282342e-06
1.5691049e-06
1.7151583e-06
1.865848e-06
2.0238001e-06
2.1914109e-06
2.3664698e-06
2.5465693e-06
2.7265322e-06
2.9001235e-06
3.0632713e-06
3.2086698e-06
3.3299224e-06
3.4145197e-06
3.4627021e-06
3.4767572e-06
3.4859938e-06
3.5225995e-06
3.7264319e-06
4.3477986e-06
5.155651e-06
5.932806e-06
6.7023632e-06
7.4575382e-06
8.1988098e-06
8.9265001e-06
9.640369e-06
1.034024e-05
1.1028833e-05
1.1706147e-05
1.2375129e-05
1.3036436e-05
1.3691306e-05
1.4340818e-05
1.4985518e-05
1.5626415e-05
1.6263993e-05
1.6898373e-05
1.752995e-05
1.8158624e-05
1.878413e-05
1.9406387e-05
2.0025392e-05
2.0640749e-05
2.1251654e-05
2.1857687e-05
2.2458281e-05
2.3053125e-05
2.3641437e-05
2.4222506e-05
2.4796056e-05
2.5361298e-05
2.5917705e-05
2.6464947e-05
2.7002439e-05
2.7529584e-05
2.8045666e-05
2.8549924e-05
2.9041448e-05
2.9520355e-05
2.9986629e-05
3.0439919e-05
3.0879646e-05
3.1304636e-05
3.1714588e-05
3.2109123e-05
3.2487983e-05
3.2851396e-05
3.3199179e-05
3.3531207e-05
3.3847331e-05
3.4147089e-05
3.4430237e-05
3.4694487e-05
3.4936667e-05
3.5163663e-05
3.5379533e-05
3.5578508e-05
3.5758059e-05
3.5920058e-05
3.6066727e-05
3.6197377e-05
3.6310935e-05
3.6408314e-05
3.6490505e-05
3.6557398e-05
3.6608889e-05
3.6645537e-05
3.6667366e-05
3.6674893e-05
3.6668333e-05
3.6648291e-05
3.6614913e-05
3.6568791e-05
3.6510153e-05
3.6439689e-05
3.6357804e-05
3.6265234e-05
3.6162112e-05
3.604924e-05
3.5926666e-05
3.5794768e-05
3.5653697e-05
3.5502124e-05
3.5343189e-05
3.5177961e-05
3.5004477e-05
3.4824252e-05
3.463732e-05
3.4443861e-05
3.4244095e-05
3.4038029e-05
3.3830325e-05
3.3628268e-05
3.3437099e-05
3.3255021e-05
3.30589e-05
3.2778022e-05
3.2374432e-05
3.2007611e-05
3.175991e-05
3.1537236e-05
3.1305211e-05
3.106233e-05
3.0811456e-05
3.055398e-05
3.029325e-05
3.0026061e-05
2.9751976e-05
2.9473191e-05
2.9192199e-05
2.8908972e-05
2.8624727e-05
2.8337848e-05
2.8045187e-05
2.7749773e-05
2.7451018e-05
2.7149366e-05
2.6844634e-05
2.6535886e-05
2.6221088e-05
2.5900155e-05
2.5571366e-05
2.5238513e-05
2.4899155e-05
2.4548203e-05
2.4190796e-05
2.3823379e-05
2.3442875e-05
2.3048914e-05
2.2637069e-05
2.2206494e-05
2.1753943e-05
2.1285137e-05
2.07921e-05
2.0270922e-05
1.9714114e-05
1.9123655e-05
1.8492536e-05
1.7835439e-05
1.714123e-05
1.6421948e-05
1.562298e-05
1.4797754e-05
1.4443906e-05
1.4485376e-05