/*--------------------------------*- C++ -*----------------------------------*\
| =========                 |                                                 |
| \\      /  F ield         | OpenFOAM: The Open Source CFD Toolbox           |
|  \\    /   O peration     | Version:  2.4.0                                 |
|   \\  /    A nd           | Web:      www.OpenFOAM.org                      |
|    \\/     M anipulation  |                                                 |
\*---------------------------------------------------------------------------*/
FoamFile
{
    version     2.0;
    format      ascii;
    class       volScalarField;
    location    "500";
    object      kMean;
}
// * * * * * * * * * * * * * * * * * * * * * * * * * * * * * * * * * * * * * //

dimensions      [0 2 -2 0 0 0 0];

internalField   nonuniform List<scalar> 
78300
(
8.2845533e-07
8.6537644e-07
1.1306498e-06
1.0335508e-06
8.5259989e-07
3.9304545e-07
8.6986844e-08
9.2896047e-09
1.1202733e-07
1.6279283e-07
1.3818715e-07
9.8082464e-08
6.4773562e-08
4.7595121e-08
3.6378071e-08
3.1903323e-08
2.7302304e-08
2.4440997e-08
2.218256e-08
1.9757583e-08
1.7684628e-08
1.5764365e-08
1.4083383e-08
1.2862889e-08
1.2047523e-08
1.1478051e-08
1.1208824e-08
1.1180236e-08
1.1391687e-08
1.1842696e-08
1.25859e-08
1.3626399e-08
1.4989744e-08
1.6698093e-08
1.8758826e-08
2.1083656e-08
2.3433302e-08
2.5745077e-08
2.7911985e-08
2.9617126e-08
3.1436278e-08
3.3580137e-08
3.555411e-08
3.709441e-08
3.8116684e-08
3.8550776e-08
3.8466424e-08
3.7822767e-08
3.7142053e-08
3.6404396e-08
3.5452718e-08
3.4324192e-08
3.2928794e-08
3.1063366e-08
2.9100429e-08
2.66867e-08
2.4388698e-08
2.1658919e-08
1.965918e-08
1.7211937e-08
1.6856852e-08
1.6004555e-08
2.2615717e-08
3.9836716e-08
5.4746864e-08
7.1190034e-08
8.710858e-08
1.0335553e-07
1.1892531e-07
1.3427685e-07
1.4876911e-07
1.6285233e-07
1.761459e-07
1.88994e-07
2.0123326e-07
2.1302447e-07
2.2426946e-07
2.3507266e-07
2.4541846e-07
2.553457e-07
2.6482818e-07
2.739025e-07
2.8257027e-07
2.9083829e-07
2.986949e-07
3.0615405e-07
3.1321207e-07
3.1986471e-07
3.2610841e-07
3.3194508e-07
3.3737186e-07
3.4238304e-07
3.469825e-07
3.5116541e-07
3.5493655e-07
3.5829665e-07
3.6125098e-07
3.6380173e-07
3.6595067e-07
3.6770229e-07
3.6905882e-07
3.7002133e-07
3.7059693e-07
3.7079673e-07
3.7062474e-07
3.7008432e-07
3.6918684e-07
3.6794382e-07
3.6636593e-07
3.6445906e-07
3.6223262e-07
3.5970627e-07
3.5688927e-07
3.5379038e-07
3.5042132e-07
3.467978e-07
3.429307e-07
3.3881194e-07
3.3445946e-07
3.2993488e-07
3.2522963e-07
3.2032739e-07
3.1524779e-07
3.1002721e-07
3.0467493e-07
2.9918466e-07
2.9357351e-07
2.8786758e-07
2.8207989e-07
2.7620861e-07
2.702682e-07
2.6427676e-07
2.5824604e-07
2.5217716e-07
2.4608081e-07
2.3997671e-07
2.3387349e-07
2.2777407e-07
2.216894e-07
2.1563249e-07
2.096074e-07
2.0362185e-07
1.9767968e-07
1.9179321e-07
1.8596232e-07
1.8018185e-07
1.7446938e-07
1.6883775e-07
1.6329299e-07
1.5782829e-07
1.5244447e-07
1.4716346e-07
1.4198116e-07
1.3689753e-07
1.3191182e-07
1.2704428e-07
1.2228121e-07
1.1762987e-07
1.1306628e-07
1.0858912e-07
1.0408989e-07
9.9434327e-08
9.472391e-08
9.0848428e-08
8.7111298e-08
8.3603192e-08
8.0033147e-08
7.6595208e-08
7.3180879e-08
6.9902892e-08
6.6688631e-08
6.3590942e-08
6.0576812e-08
5.7674112e-08
5.4860686e-08
5.2158272e-08
4.9555854e-08
4.7054723e-08
4.4641799e-08
4.2325858e-08
4.0106343e-08
3.7982018e-08
3.5941154e-08
3.3993667e-08
3.2132273e-08
3.0357961e-08
2.8662187e-08
2.7052682e-08
2.5518424e-08
2.4061613e-08
2.267684e-08
2.1381479e-08
2.0152186e-08
1.9007066e-08
1.7921053e-08
1.6928446e-08
1.5988756e-08
1.514681e-08
1.4358713e-08
1.3687379e-08
1.3047787e-08
1.2557411e-08
1.2084201e-08
1.1808411e-08
1.1516129e-08
1.1470206e-08
1.1282781e-08
1.107366e-08
1.1033475e-08
1.1142949e-08
1.142592e-08
1.1439062e-08
1.1496171e-08
1.1246689e-08
1.1069344e-08
1.0697694e-08
1.0350826e-08
1.0303547e-08
1.3488582e-08
2.5644195e-08
3.3716784e-08
6.9956052e-08
1.2893832e-07
1.9289681e-07
3.9066392e-07
5.1598808e-07
7.9451372e-07
8.1045254e-07
1.1935834e-06
1.3963448e-06
2.604821e-06
2.2495191e-06
2.4627109e-06
2.98043e-06
2.7218799e-06
3.8606608e-06
4.937617e-06
6.07491e-06
6.6303201e-06
7.1194139e-06
7.9360757e-06
1.0314094e-05
1.3110466e-05
2.0130047e-05
2.1152018e-05
2.7412192e-05
4.7517401e-05
7.1434107e-05
0.00021172064
0.00027787288
0.00033961412
0.00045924217
0.00057565526
0.00071923763
0.00056625642
0.00036015166
0.00033696052
0.00017408109
4.3210418e-05
4.8136056e-05
1.5813282e-05
1.0456231e-05
8.8291969e-06
6.185187e-06
4.3140818e-06
2.703732e-06
1.8105914e-06
1.0587048e-06
9.3953191e-07
5.3980801e-07
2.8504157e-07
2.9996719e-07
3.3652914e-07
3.0611799e-07
2.5020687e-07
1.4725317e-07
6.847059e-08
3.0614917e-08
2.939559e-08
2.9130987e-08
2.2938502e-08
1.6036636e-08
1.0455716e-08
7.675051e-09
5.8840662e-09
5.179452e-09
4.4550962e-09
4.0111072e-09
3.6683532e-09
3.3037879e-09
2.99302e-09
2.7070592e-09
2.4577515e-09
2.2816631e-09
2.1718538e-09
2.1034303e-09
2.0845366e-09
2.10709e-09
2.1714931e-09
2.2784955e-09
2.4369561e-09
2.648996e-09
2.9197755e-09
3.2540491e-09
3.6542741e-09
4.1079636e-09
4.5782124e-09
5.054877e-09
5.523541e-09
5.9350204e-09
6.3756623e-09
6.885528e-09
7.3935256e-09
7.8561462e-09
8.2572412e-09
8.5840115e-09
8.8447149e-09
9.0315696e-09
9.2260347e-09
9.432819e-09
9.6225426e-09
9.794163e-09
9.9289041e-09
9.9848146e-09
1.0007061e-08
9.9300879e-09
9.8245894e-09
9.5917127e-09
9.4011312e-09
9.0738875e-09
9.0406136e-09
8.9764668e-09
1.0330955e-08
1.4047508e-08
1.7774571e-08
2.1665312e-08
2.5463328e-08
2.9282966e-08
3.2981217e-08
3.6622647e-08
4.0112817e-08
4.3517323e-08
4.678283e-08
4.9961096e-08
5.303259e-08
5.6022266e-08
5.8917462e-08
6.1733879e-08
6.4470842e-08
6.7134661e-08
6.9721604e-08
7.2236897e-08
7.4681054e-08
7.705493e-08
7.935623e-08
8.1586446e-08
8.3744568e-08
8.5829219e-08
8.783905e-08
8.9773577e-08
9.1631519e-08
9.3411093e-08
9.5111997e-08
9.6732727e-08
9.8273173e-08
9.9732919e-08
1.0111214e-07
1.024107e-07
1.036282e-07
1.0476485e-07
1.0582042e-07
1.0679441e-07
1.0768712e-07
1.0849986e-07
1.0923274e-07
1.0988551e-07
1.1045927e-07
1.1095568e-07
1.113762e-07
1.117215e-07
1.1199235e-07
1.1219188e-07
1.1232167e-07
1.1238303e-07
1.1237747e-07
1.1230764e-07
1.1217537e-07
1.1197853e-07
1.1171864e-07
1.1140726e-07
1.110455e-07
1.1062904e-07
1.1015935e-07
1.0964336e-07
1.0908413e-07
1.0848019e-07
1.0783324e-07
1.0714829e-07
1.0642862e-07
1.0567418e-07
1.0488664e-07
1.0406959e-07
1.0322577e-07
1.0235565e-07
1.014603e-07
1.0054353e-07
9.96078e-08
9.8654009e-08
9.7683742e-08
9.6699949e-08
9.5703998e-08
9.4697562e-08
9.3681519e-08
9.2658488e-08
9.1629276e-08
9.0592036e-08
8.9549007e-08
8.8503693e-08
8.7458882e-08
8.6413835e-08
8.5367416e-08
8.4324496e-08
8.3286438e-08
8.2253785e-08
8.1226467e-08
8.0210211e-08
7.9206142e-08
7.8216979e-08
7.7239618e-08
7.6269017e-08
7.5265203e-08
7.4140421e-08
7.2878595e-08
7.1770779e-08
7.0797004e-08
6.9897989e-08
6.8994367e-08
6.8094962e-08
6.7186168e-08
6.6284828e-08
6.5384156e-08
6.4490123e-08
6.3599088e-08
6.2715061e-08
6.1834778e-08
6.0961718e-08
6.0096811e-08
5.9240857e-08
5.8389198e-08
5.7541673e-08
5.6699379e-08
5.5863939e-08
5.5030311e-08
5.4199308e-08
5.3370691e-08
5.2544011e-08
5.1715521e-08
5.0886066e-08
5.0052734e-08
4.9211974e-08
4.8359012e-08
4.7497597e-08
4.6621581e-08
4.5730675e-08
4.4814814e-08
4.3878698e-08
4.2909985e-08
4.1910179e-08
4.0867901e-08
3.9795569e-08
3.8662718e-08
3.7494161e-08
3.6254882e-08
3.499148e-08
3.3660468e-08
3.2323113e-08
3.0847874e-08
2.9274689e-08
2.8524501e-08
2.8556749e-08
2.904548e-08
2.9702234e-08
3.0491647e-08
3.1304694e-08
3.21904e-08
3.3147175e-08
3.4045093e-08
3.4931676e-08
3.6672863e-08
3.9790078e-08
4.190178e-08
4.8250077e-08
6.0202666e-08
7.2618776e-08
1.0409621e-07
1.262902e-07
1.734079e-07
1.7774438e-07
2.4200448e-07
2.764052e-07
4.6595856e-07
4.1805358e-07
4.5550163e-07
5.2774244e-07
4.7542343e-07
6.6657677e-07
8.3714823e-07
1.011875e-06
1.0882644e-06
1.1698244e-06
1.3058951e-06
1.6692873e-06
2.1014715e-06
3.1629415e-06
3.3277637e-06
4.2920004e-06
7.391451e-06
1.1068633e-05
3.2707973e-05
4.2785155e-05
5.2451942e-05
7.0832017e-05
8.8823687e-05
0.00011093859
8.7642959e-05
5.5965874e-05
5.2435816e-05
2.7236711e-05
7.0816051e-06
7.7879668e-06
2.7950991e-06
1.9167774e-06
1.6173463e-06
1.1741707e-06
8.6043647e-07
5.86862e-07
4.3212959e-07
3.0789466e-07
2.8224843e-07
2.2693549e-07
1.2288981e-06
1.2998414e-06
1.2933613e-06
1.1711983e-06
9.4912097e-07
6.7068858e-07
4.1088254e-07
2.1452036e-07
9.9580589e-08
4.4692024e-08
2.3244963e-08
1.3796072e-08
8.4302941e-09
6.2732615e-09
5.1262729e-09
4.6282568e-09
4.2460494e-09
4.0169199e-09
3.8702559e-09
3.7304189e-09
3.6101289e-09
3.5054377e-09
3.4243823e-09
3.4005906e-09
3.4404456e-09
3.5292766e-09
3.670025e-09
3.8649183e-09
4.118062e-09
4.4352623e-09
4.8270955e-09
5.3038341e-09
5.8768597e-09
6.5579869e-09
7.3572192e-09
8.2738827e-09
9.2859037e-09
1.0384107e-08
1.1572873e-08
1.2821569e-08
1.4166139e-08
1.5680741e-08
1.7355945e-08
1.9147661e-08
2.1024857e-08
2.2966265e-08
2.4959975e-08
2.6991393e-08
2.9116565e-08
3.1389495e-08
3.3758312e-08
3.6178675e-08
3.8605778e-08
4.0940625e-08
4.3129903e-08
4.5059052e-08
4.6661022e-08
4.7776943e-08
4.8449213e-08
4.8583096e-08
4.8706573e-08
4.9117386e-08
5.2194695e-08
6.1587103e-08
7.3442985e-08
8.491592e-08
9.6252064e-08
1.0740779e-07
1.1837501e-07
1.2915227e-07
1.3971054e-07
1.5006474e-07
1.6021764e-07
1.7019243e-07
1.8001502e-07
1.8970192e-07
1.9926187e-07
2.0870192e-07
2.1803324e-07
2.2726188e-07
2.3638759e-07
2.4541078e-07
2.543336e-07
2.6315524e-07
2.7187097e-07
2.804773e-07
2.8897063e-07
2.9734528e-07
3.0559506e-07
3.1371447e-07
3.2169708e-07
3.2953575e-07
3.3722428e-07
3.4475666e-07
3.5212713e-07
3.5933191e-07
3.6636681e-07
3.7322855e-07
3.799124e-07
3.8641533e-07
3.9273321e-07
3.9886141e-07
4.0479476e-07
4.1053137e-07
4.1606795e-07
4.2139909e-07
4.265211e-07
4.3143428e-07
4.3613835e-07
4.4063194e-07
4.4491122e-07
4.4897855e-07
4.5283611e-07
4.5648422e-07
4.5992206e-07
4.6315262e-07
4.6617808e-07
4.6899129e-07
4.7158473e-07
4.7397942e-07
4.7619225e-07
4.782084e-07
4.8001857e-07
4.8163568e-07
4.8307259e-07
4.8432507e-07
4.8538787e-07
4.8627058e-07
4.8698401e-07
4.8752938e-07
4.8790404e-07
4.8811574e-07
4.8817218e-07
4.8807573e-07
4.8782311e-07
4.8742191e-07
4.8688121e-07
4.8620448e-07
4.8539202e-07
4.8445205e-07
4.833903e-07
4.8221108e-07
4.8091677e-07
4.7951392e-07
4.7800844e-07
4.7639223e-07
4.7466347e-07
4.7283459e-07
4.709196e-07
4.689203e-07
4.6682746e-07
4.64654e-07
4.6241426e-07
4.6011207e-07
4.5774789e-07
4.5534256e-07
4.5291841e-07
4.5048798e-07
4.4805319e-07
4.455785e-07
4.4288373e-07
4.3946593e-07
4.3510295e-07
4.3100415e-07
4.2774229e-07
4.2479057e-07
4.2186909e-07
4.1884214e-07
4.15722e-07
4.1251559e-07
4.0924825e-07
4.0590899e-07
4.0250534e-07
3.9903795e-07
3.9550582e-07
3.9191198e-07
3.8827456e-07
3.8459809e-07
3.8086192e-07
3.7705594e-07
3.7318856e-07
3.6927307e-07
3.6528468e-07
3.6121907e-07
3.5708206e-07
3.5286927e-07
3.485622e-07
3.4415898e-07
3.3964978e-07
3.350063e-07
3.3019923e-07
3.2523808e-07
3.2010193e-07
3.1477002e-07
3.0919464e-07
3.0337477e-07
2.972619e-07
2.9082082e-07
2.8401357e-07
2.7686609e-07
2.6924333e-07
2.6120548e-07
2.5263276e-07
2.4367987e-07
2.3424954e-07
2.2451851e-07
2.1392981e-07
2.0265565e-07
1.9721918e-07
1.9734272e-07
2.0062747e-07
2.054209e-07
2.1114004e-07
2.1734923e-07
2.2401613e-07
2.3140272e-07
2.3833053e-07
2.4486508e-07
2.5425548e-07
2.641435e-07
2.7119394e-07
2.7913599e-07
3.0388996e-07
3.2701226e-07
3.4666514e-07
3.764215e-07
4.2419999e-07
4.3973119e-07
5.0159321e-07
5.36632e-07
6.3385492e-07
6.6838858e-07
7.1270551e-07
6.8036556e-07
5.7606341e-07
7.6076019e-07
8.6135527e-07
9.3276193e-07
9.0388479e-07
9.7077464e-07
1.0992582e-06
1.2119889e-06
1.3778092e-06
1.6536522e-06
1.7517455e-06
2.1008767e-06
3.2402505e-06
4.4407587e-06
1.1898098e-05
1.5381886e-05
1.962261e-05
2.5955727e-05
3.2076783e-05
3.9348015e-05
3.2964523e-05
2.2908769e-05
2.1367855e-05
1.2790318e-05
5.7407974e-06
5.7238116e-06
3.7832794e-06
3.1345803e-06
2.6528898e-06
2.1778448e-06
1.8051997e-06
1.4946527e-06
1.28541e-06
1.1581924e-06
1.0937908e-06
1.1020299e-06
4.4900962e-06
4.750575e-06
4.6876321e-06
4.2435199e-06
3.4369066e-06
2.4596214e-06
1.5299489e-06
8.0475998e-07
3.58284e-07
1.4428878e-07
6.6574025e-08
3.6820288e-08
2.1876578e-08
1.6400892e-08
1.3836021e-08
1.2622809e-08
1.1912096e-08
1.1487338e-08
1.1274263e-08
1.1109962e-08
1.096424e-08
1.0852441e-08
1.0795788e-08
1.0885114e-08
1.1153213e-08
1.1569327e-08
1.2136399e-08
1.2871286e-08
1.3789692e-08
1.4913393e-08
1.6274398e-08
1.791048e-08
1.986064e-08
2.2165961e-08
2.4862861e-08
2.7961768e-08
3.1415225e-08
3.5197857e-08
3.934132e-08
4.3777663e-08
4.8557011e-08
5.3926379e-08
5.9923107e-08
6.6421383e-08
7.331708e-08
8.0540636e-08
8.8037149e-08
9.5757474e-08
1.0383436e-07
1.124735e-07
1.2150493e-07
1.3075674e-07
1.4007393e-07
1.4911477e-07
1.5762449e-07
1.6522427e-07
1.715797e-07
1.7617333e-07
1.7899422e-07
1.7985779e-07
1.8037615e-07
1.8204402e-07
1.9261756e-07
2.2533109e-07
2.6763649e-07
3.0828859e-07
3.4850449e-07
3.8799545e-07
4.2687794e-07
4.6507938e-07
5.0258442e-07
5.3938335e-07
5.7554206e-07
6.1109736e-07
6.4617035e-07
6.8079947e-07
7.1503187e-07
7.4887877e-07
7.8238435e-07
8.1556567e-07
8.4842558e-07
8.8096032e-07
9.1317768e-07
9.4507368e-07
9.7663221e-07
1.0078382e-06
1.0386786e-06
1.0691328e-06
1.0991781e-06
1.1287935e-06
1.1579553e-06
1.1866377e-06
1.2148166e-06
1.2424704e-06
1.2695767e-06
1.2961212e-06
1.3220874e-06
1.3474627e-06
1.372229e-06
1.3963744e-06
1.4198829e-06
1.4427371e-06
1.4649165e-06
1.4864123e-06
1.5072116e-06
1.5272936e-06
1.5466427e-06
1.5652587e-06
1.5831388e-06
1.600277e-06
1.6166577e-06
1.6322868e-06
1.6471712e-06
1.6613109e-06
1.6747009e-06
1.6873503e-06
1.6992657e-06
1.7104213e-06
1.7207865e-06
1.730431e-06
1.7394195e-06
1.7476987e-06
1.755231e-06
1.7620595e-06
1.768231e-06
1.7737306e-06
1.7785362e-06
1.7826799e-06
1.7862004e-06
1.7891025e-06
1.7913742e-06
1.7930418e-06
1.7941327e-06
1.7946554e-06
1.7945963e-06
1.7939808e-06
1.7928417e-06
1.7911917e-06
1.7890303e-06
1.7863864e-06
1.7832809e-06
1.7797289e-06
1.7757388e-06
1.7713333e-06
1.7665346e-06
1.761313e-06
1.7556594e-06
1.7496182e-06
1.7432413e-06
1.7365363e-06
1.7294687e-06
1.7220836e-06
1.7144352e-06
1.7065383e-06
1.6983944e-06
1.690079e-06
1.6816776e-06
1.6732363e-06
1.6647658e-06
1.6561327e-06
1.6466767e-06
1.6345312e-06
1.6188491e-06
1.6040367e-06
1.5923425e-06
1.581778e-06
1.5713363e-06
1.5604795e-06
1.5492701e-06
1.5377169e-06
1.5259258e-06
1.5138479e-06
1.5015163e-06
1.4889292e-06
1.4760862e-06
1.4629955e-06
1.4497268e-06
1.4362966e-06
1.4226296e-06
1.4086866e-06
1.3944992e-06
1.3801173e-06
1.3654497e-06
1.3504788e-06
1.3352274e-06
1.319679e-06
1.3037655e-06
1.2874786e-06
1.270783e-06
1.2535724e-06
1.2357375e-06
1.2173116e-06
1.1982193e-06
1.1783804e-06
1.1576194e-06
1.1359275e-06
1.1131285e-06
1.0890841e-06
1.0636578e-06
1.0369381e-06
1.0084305e-06
9.7834395e-07
9.4624775e-07
9.1269641e-07
8.7735542e-07
8.408505e-07
8.0118842e-07
7.5903873e-07
7.3872388e-07
7.3917715e-07
7.5147742e-07
7.6948316e-07
7.9095869e-07
8.1431994e-07
8.393917e-07
8.6718896e-07
8.9325206e-07
9.1781796e-07
9.526036e-07
9.8778991e-07
1.0129743e-06
1.0372125e-06
1.1209667e-06
1.1974971e-06
1.2400519e-06
1.3324797e-06
1.4679228e-06
1.5238521e-06
1.6962025e-06
1.7950337e-06
1.970747e-06
2.1569096e-06
2.2876344e-06
2.0849314e-06
1.7366365e-06
2.2509594e-06
2.4582305e-06
2.549522e-06
2.3569946e-06
2.5305139e-06
2.8827691e-06
2.9348911e-06
3.1172932e-06
3.0516015e-06
3.2660022e-06
3.5838144e-06
4.6708088e-06
5.398589e-06
1.0220525e-05
1.3918876e-05
2.0083089e-05
2.4620278e-05
2.9152565e-05
3.3198613e-05
3.2805145e-05
2.8891406e-05
2.6418272e-05
1.9861435e-05
1.4483558e-05
1.3709688e-05
1.1675943e-05
1.0162311e-05
8.6268434e-06
7.2526066e-06
6.1226297e-06
5.2093395e-06
4.5548804e-06
4.1913492e-06
3.9673369e-06
4.0567878e-06
1.1961255e-05
1.2654628e-05
1.2475985e-05
1.1294281e-05
9.1479678e-06
6.5573168e-06
4.0872055e-06
2.1532802e-06
9.5542145e-07
3.8022058e-07
1.7229077e-07
9.4102846e-08
5.5706735e-08
4.1801095e-08
3.5454502e-08
3.2385149e-08
3.0708804e-08
2.9700682e-08
2.9227891e-08
2.8892544e-08
2.8589973e-08
2.8369602e-08
2.8287318e-08
2.857336e-08
2.9319776e-08
3.0452073e-08
3.197557e-08
3.3937422e-08
3.6379735e-08
3.9360499e-08
4.2963035e-08
4.7288001e-08
5.2438539e-08
5.8523511e-08
6.5640173e-08
7.3821031e-08
8.2949999e-08
9.2961144e-08
1.0394318e-07
1.1572754e-07
1.284221e-07
1.426787e-07
1.5862023e-07
1.7592313e-07
1.9431218e-07
2.1360404e-07
2.3364911e-07
2.5431596e-07
2.7593406e-07
2.9905532e-07
3.2323682e-07
3.4801743e-07
3.7298625e-07
3.9723881e-07
4.2007838e-07
4.4050582e-07
4.5760391e-07
4.7000991e-07
4.776455e-07
4.800651e-07
4.8147638e-07
4.8597813e-07
5.139435e-07
6.005994e-07
7.130056e-07
8.2095656e-07
9.2776407e-07
1.0326204e-06
1.1358781e-06
1.2373242e-06
1.336944e-06
1.4346934e-06
1.5307641e-06
1.6252405e-06
1.7184527e-06
1.8104969e-06
1.9015031e-06
1.9914969e-06
2.0805972e-06
2.1688479e-06
2.2562576e-06
2.3428149e-06
2.4285404e-06
2.5134234e-06
2.5974211e-06
2.6804929e-06
2.7626041e-06
2.8436996e-06
2.9237189e-06
3.0026061e-06
3.080298e-06
3.1567254e-06
3.2318245e-06
3.3055373e-06
3.3778039e-06
3.4485861e-06
3.5178395e-06
3.5855304e-06
3.6516105e-06
3.7160474e-06
3.7787988e-06
3.8398174e-06
3.8990484e-06
3.9564677e-06
4.0120406e-06
4.0657114e-06
4.1174385e-06
4.1672203e-06
4.2150496e-06
4.2609102e-06
4.3047597e-06
4.3466137e-06
4.3864899e-06
4.4243878e-06
4.4602942e-06
4.4942322e-06
4.5262189e-06
4.556186e-06
4.5840515e-06
4.6099991e-06
4.6342009e-06
4.6565157e-06
4.6768425e-06
4.6952951e-06
4.7119979e-06
4.7269111e-06
4.7399755e-06
4.7512756e-06
4.7609141e-06
4.7689037e-06
4.7752126e-06
4.7799095e-06
4.7830673e-06
4.7847089e-06
4.7847971e-06
4.7833996e-06
4.7806032e-06
4.7764417e-06
4.7709137e-06
4.7640954e-06
4.7560429e-06
4.7467958e-06
4.7363765e-06
4.7248453e-06
4.7122611e-06
4.6985454e-06
4.6836727e-06
4.6677617e-06
4.6509501e-06
4.6332587e-06
4.6145953e-06
4.5950795e-06
4.5748567e-06
4.5539655e-06
4.5324106e-06
4.5103927e-06
4.4881406e-06
4.4657769e-06
4.4433313e-06
4.420447e-06
4.3953627e-06
4.3631023e-06
4.3214052e-06
4.2819989e-06
4.2509084e-06
4.222824e-06
4.1950707e-06
4.1662041e-06
4.1363948e-06
4.1056619e-06
4.0742908e-06
4.0421487e-06
4.0093256e-06
3.9758153e-06
3.9416181e-06
3.9067546e-06
3.8714111e-06
3.8356322e-06
3.7992171e-06
3.7620607e-06
3.7242474e-06
3.6859105e-06
3.6468072e-06
3.6068897e-06
3.5662195e-06
3.5247521e-06
3.4823059e-06
3.4388589e-06
3.394317e-06
3.3483963e-06
3.3008053e-06
3.2516315e-06
3.2006749e-06
3.1477203e-06
3.0923002e-06
3.0343898e-06
2.9735197e-06
2.909319e-06
2.8414245e-06
2.7700703e-06
2.6939384e-06
2.613583e-06
2.5278573e-06
2.4382362e-06
2.3438325e-06
2.246309e-06
2.1404756e-06
2.0282442e-06
1.9742097e-06
1.9754334e-06
2.0083307e-06
2.0564968e-06
2.1139374e-06
2.1764343e-06
2.243511e-06
2.3178654e-06
2.3875645e-06
2.4533219e-06
2.5462172e-06
2.6395945e-06
2.7063636e-06
2.7697158e-06
2.9907622e-06
3.1914161e-06
3.2949806e-06
3.5365145e-06
3.8841508e-06
4.0323463e-06
4.4753502e-06
4.7276131e-06
5.1407187e-06
5.6524333e-06
5.9866095e-06
5.4197815e-06
4.5094522e-06
5.832482e-06
6.3293989e-06
6.519322e-06
5.9818052e-06
6.4253214e-06
7.3234066e-06
7.3566151e-06
7.7140305e-06
7.2210737e-06
7.7567757e-06
8.3138476e-06
1.0311204e-05
1.1116223e-05
1.7400853e-05
2.4432282e-05
3.7988584e-05
4.4311692e-05
5.0556465e-05
5.4640412e-05
5.8873844e-05
5.9959091e-05
5.4092343e-05
4.393085e-05
3.5832984e-05
3.3687709e-05
3.0084669e-05
2.6494786e-05
2.258012e-05
1.908108e-05
1.614835e-05
1.3799594e-05
1.2090101e-05
1.1155701e-05
1.0562625e-05
1.0818465e-05
2.6135197e-05
2.7647929e-05
2.7253886e-05
2.4675452e-05
1.9990043e-05
1.4338046e-05
8.9447054e-06
4.7176215e-06
2.0939808e-06
8.3196361e-07
3.7520546e-07
2.0416458e-07
1.2079629e-07
9.0610917e-08
7.6938078e-08
7.0274583e-08
6.6718302e-08
6.4569524e-08
6.3576854e-08
6.2889597e-08
6.2265551e-08
6.1815664e-08
6.166324e-08
6.2303115e-08
6.3941757e-08
6.6421064e-08
6.9751023e-08
7.4035238e-08
7.9365847e-08
8.5869322e-08
9.3726751e-08
1.0315804e-07
1.1438828e-07
1.276552e-07
1.4317195e-07
1.6101346e-07
1.8093233e-07
2.0278384e-07
2.2676326e-07
2.5250716e-07
2.8023589e-07
3.1137231e-07
3.4620093e-07
3.8402216e-07
4.2423455e-07
4.6643764e-07
5.1030294e-07
5.5553954e-07
6.0285006e-07
6.5344506e-07
7.0636997e-07
7.6061464e-07
8.1527991e-07
8.6839339e-07
9.1842312e-07
9.6318764e-07
1.0006697e-06
1.0278946e-06
1.0446667e-06
1.0500358e-06
1.0531656e-06
1.0630645e-06
1.1240989e-06
1.3132012e-06
1.5587084e-06
1.794506e-06
2.0278114e-06
2.2568405e-06
2.4823828e-06
2.7039633e-06
2.9215629e-06
3.1350771e-06
3.3449325e-06
3.5513079e-06
3.7549283e-06
3.9560007e-06
4.1548113e-06
4.3514148e-06
4.5460711e-06
4.7388753e-06
4.9298472e-06
5.1189611e-06
5.3062623e-06
5.4917267e-06
5.6752616e-06
5.8567777e-06
6.0361993e-06
6.2134061e-06
6.3882661e-06
6.5606569e-06
6.7304403e-06
6.8974656e-06
7.061593e-06
7.2226959e-06
7.3806432e-06
7.5353516e-06
7.6867237e-06
7.8346855e-06
7.9791319e-06
8.1199915e-06
8.2571716e-06
8.3905688e-06
8.5200625e-06
8.6456e-06
8.767105e-06
8.8844557e-06
8.9975618e-06
9.1064199e-06
9.2110142e-06
9.3113095e-06
9.4072138e-06
9.4987604e-06
9.5859879e-06
9.6688952e-06
9.7474533e-06
9.8217126e-06
9.8917095e-06
9.9572955e-06
1.0018292e-05
1.0075099e-05
1.0128092e-05
1.0176962e-05
1.022149e-05
1.0261924e-05
1.0298534e-05
1.0331234e-05
1.0359895e-05
1.03847e-05
1.0405874e-05
1.0423444e-05
1.0437342e-05
1.0447717e-05
1.0454727e-05
1.0458423e-05
1.0458723e-05
1.0455776e-05
1.044977e-05
1.044078e-05
1.0428802e-05
1.0414002e-05
1.0396504e-05
1.0376393e-05
1.0353718e-05
1.0328611e-05
1.0301201e-05
1.0271316e-05
1.02389e-05
1.0204214e-05
1.0167556e-05
1.0128973e-05
1.0088263e-05
1.0045689e-05
1.0001566e-05
9.9559798e-06
9.9089412e-06
9.8608875e-06
9.8123188e-06
9.7635034e-06
9.7145054e-06
9.6645437e-06
9.6097652e-06
9.5393067e-06
9.4482479e-06
9.362187e-06
9.294277e-06
9.232926e-06
9.1723009e-06
9.1092415e-06
9.0441228e-06
8.9769826e-06
8.9084459e-06
8.8382214e-06
8.7665067e-06
8.6932873e-06
8.6185648e-06
8.5423838e-06
8.4651511e-06
8.3869633e-06
8.3073834e-06
8.2261814e-06
8.1435413e-06
8.0597537e-06
7.9742893e-06
7.887043e-06
7.7981491e-06
7.7075102e-06
7.6147301e-06
7.5197601e-06
7.4223946e-06
7.3220131e-06
7.2179797e-06
7.110484e-06
6.9990885e-06
6.8833237e-06
6.7621675e-06
6.6355658e-06
6.5024914e-06
6.3621357e-06
6.213702e-06
6.0577032e-06
5.8912573e-06
5.7155765e-06
5.5281516e-06
5.3322059e-06
5.1257971e-06
4.9125591e-06
4.6814165e-06
4.4368486e-06
4.3192385e-06
4.3219516e-06
4.3939826e-06
4.4994394e-06
4.6251868e-06
4.7620129e-06
4.9088847e-06
5.0716376e-06
5.2241688e-06
5.3682431e-06
5.5715117e-06
5.7752789e-06
5.9207248e-06
6.0591831e-06
6.5411017e-06
6.9763721e-06
7.1964376e-06
7.7224145e-06
8.4730596e-06
8.7950122e-06
9.7557848e-06
1.02971e-05
1.1172955e-05
1.2291655e-05
1.3006429e-05
1.175314e-05
9.7895384e-06
1.2657105e-05
1.3704047e-05
1.4089224e-05
1.2907876e-05
1.3872117e-05
1.5808008e-05
1.5832372e-05
1.6555688e-05
1.5342637e-05
1.6512673e-05
1.7612336e-05
2.1572993e-05
2.2820647e-05
3.395848e-05
4.7891608e-05
7.579757e-05
8.7300951e-05
9.7304393e-05
0.00010409101
0.00011497196
0.00012239767
0.00010995306
9.0558659e-05
7.5921893e-05
7.1412035e-05
6.4625158e-05
5.7206287e-05
4.8925176e-05
4.1485032e-05
3.5164369e-05
3.0109551e-05
2.6397814e-05
2.4378478e-05
2.3084739e-05
2.3652205e-05
5.0114276e-05
5.3009204e-05
5.2253053e-05
4.7319807e-05
3.8346652e-05
2.7521468e-05
1.718271e-05
9.0730498e-06
4.031282e-06
1.6016173e-06
7.2067684e-07
3.913619e-07
2.3150504e-07
1.7353533e-07
1.4737756e-07
1.345806e-07
1.278301e-07
1.237392e-07
1.2185786e-07
1.2056904e-07
1.1939544e-07
1.1855012e-07
1.1827096e-07
1.1949817e-07
1.2263592e-07
1.2738628e-07
1.3376648e-07
1.4197499e-07
1.5218854e-07
1.6464927e-07
1.7970362e-07
1.977732e-07
2.1928964e-07
2.4470902e-07
2.7444136e-07
3.0863595e-07
3.4682538e-07
3.8872947e-07
4.3472261e-07
4.8411043e-07
5.3729925e-07
5.9701805e-07
6.6383204e-07
7.3640887e-07
8.135936e-07
8.946168e-07
9.788472e-07
1.0657195e-06
1.1565579e-06
1.2536915e-06
1.3553134e-06
1.4594823e-06
1.5644674e-06
1.6664924e-06
1.7626096e-06
1.8486329e-06
1.9206824e-06
1.9730523e-06
2.0053431e-06
2.0157644e-06
2.0218751e-06
2.0409988e-06
2.1581018e-06
2.5205834e-06
2.9913988e-06
3.4436906e-06
3.8911971e-06
4.3304817e-06
4.763073e-06
5.1880521e-06
5.605395e-06
6.0148964e-06
6.4173808e-06
6.813189e-06
7.203713e-06
7.5893484e-06
7.9706456e-06
8.3477095e-06
8.7210385e-06
9.0908145e-06
9.4570764e-06
9.8197749e-06
1.0178997e-05
1.0534696e-05
1.0886695e-05
1.1234824e-05
1.1578935e-05
1.19188e-05
1.2254166e-05
1.2584797e-05
1.2910429e-05
1.3230774e-05
1.3545563e-05
1.3854553e-05
1.4157495e-05
1.4454227e-05
1.4744563e-05
1.5028361e-05
1.530542e-05
1.5575601e-05
1.5838727e-05
1.6094599e-05
1.6342985e-05
1.6583784e-05
1.6816847e-05
1.7041943e-05
1.72589e-05
1.7467712e-05
1.766835e-05
1.7860745e-05
1.8044724e-05
1.8220349e-05
1.8387694e-05
1.8546757e-05
1.8697484e-05
1.8839969e-05
1.8974282e-05
1.9100139e-05
1.92172e-05
1.9326231e-05
1.9427946e-05
1.9521757e-05
1.9607244e-05
1.9684883e-05
1.9755189e-05
1.9817996e-05
1.987306e-05
1.9920733e-05
1.9961442e-05
1.9995239e-05
2.0021995e-05
2.0041995e-05
2.0055542e-05
2.0062731e-05
2.0063411e-05
2.0057861e-05
2.0046445e-05
2.0029304e-05
2.0006432e-05
1.9978148e-05
1.9944687e-05
1.9906212e-05
1.986282e-05
1.9814761e-05
1.9762281e-05
1.9705053e-05
1.9642973e-05
1.9576534e-05
1.9506312e-05
1.9432393e-05
1.9354396e-05
1.927282e-05
1.918827e-05
1.910091e-05
1.9010763e-05
1.8918666e-05
1.8825576e-05
1.8732007e-05
1.8638083e-05
1.8542299e-05
1.8437256e-05
1.8302158e-05
1.8127629e-05
1.7962683e-05
1.7832477e-05
1.7714823e-05
1.7598562e-05
1.7477637e-05
1.7352766e-05
1.7224017e-05
1.7092586e-05
1.6957916e-05
1.6820387e-05
1.6679969e-05
1.6536666e-05
1.6390564e-05
1.6242442e-05
1.6092483e-05
1.5939852e-05
1.5784109e-05
1.5625604e-05
1.5464895e-05
1.5300968e-05
1.5133621e-05
1.4963111e-05
1.4789251e-05
1.4611282e-05
1.442911e-05
1.424234e-05
1.4049785e-05
1.3850224e-05
1.364402e-05
1.3430333e-05
1.3208263e-05
1.297585e-05
1.2732991e-05
1.2477714e-05
1.2208472e-05
1.1923732e-05
1.1624478e-05
1.1305183e-05
1.0968173e-05
1.0608629e-05
1.0232734e-05
9.836751e-06
9.4276484e-06
8.9846942e-06
8.5170875e-06
8.2924981e-06
8.2977787e-06
8.4361655e-06
8.6387499e-06
8.8802897e-06
9.1431285e-06
9.4253003e-06
9.7378777e-06
1.0030769e-05
1.0307769e-05
1.0698043e-05
1.1088468e-05
1.1366529e-05
1.1633122e-05
1.2555979e-05
1.3385415e-05
1.3800127e-05
1.4807404e-05
1.6235323e-05
1.6847978e-05
1.8685429e-05
1.9706944e-05
2.1362748e-05
2.3495457e-05
2.4840294e-05
2.2424444e-05
1.8710572e-05
2.4180222e-05
2.6135397e-05
2.6842866e-05
2.4586507e-05
2.6426133e-05
3.0112764e-05
3.0134589e-05
3.1481281e-05
2.9057754e-05
3.1337234e-05
3.3382209e-05
4.0686807e-05
4.2785917e-05
6.2655964e-05
8.8268851e-05
0.00014005546
0.000160942
0.00017775283
0.00018985471
0.00021084242
0.00022719233
0.00020383509
0.0001688358
0.00014250008
0.00013432527
0.00012229598
0.00010859919
9.3144275e-05
7.9198653e-05
6.7248538e-05
5.7685212e-05
5.0610095e-05
4.6766997e-05
4.4288937e-05
4.538448e-05
8.7660972e-05
9.2711464e-05
9.1390281e-05
8.2789877e-05
6.7122462e-05
4.8212909e-05
3.0129585e-05
1.593061e-05
7.0870471e-06
2.8161615e-06
1.2650862e-06
6.8595298e-07
4.056594e-07
3.0382837e-07
2.5800412e-07
2.3553438e-07
2.2377103e-07
2.1662958e-07
2.1335169e-07
2.1112213e-07
2.0908886e-07
2.0762278e-07
2.0714075e-07
2.0927707e-07
2.1475203e-07
2.2305214e-07
2.3420468e-07
2.4855605e-07
2.6641558e-07
2.8820617e-07
3.1453319e-07
3.4613433e-07
3.8376495e-07
4.2822365e-07
4.8023023e-07
5.40055e-07
6.068907e-07
6.8024154e-07
7.6076141e-07
8.4723797e-07
9.4035783e-07
1.0448975e-06
1.1618773e-06
1.2889802e-06
1.4241814e-06
1.5661317e-06
1.7137248e-06
1.8659577e-06
2.0251119e-06
2.1952755e-06
2.373326e-06
2.55586e-06
2.7398326e-06
2.9186487e-06
3.0871368e-06
3.2379661e-06
3.3643307e-06
3.4562492e-06
3.5129827e-06
3.5314712e-06
3.5424146e-06
3.5762205e-06
3.7814573e-06
4.4156409e-06
5.2396031e-06
6.0313466e-06
6.8146821e-06
7.5835797e-06
8.3407334e-06
9.0845263e-06
9.8149362e-06
1.0531601e-05
1.1235973e-05
1.1928649e-05
1.2612066e-05
1.3286914e-05
1.3954161e-05
1.4613991e-05
1.5267277e-05
1.5914335e-05
1.6555237e-05
1.7189897e-05
1.7818467e-05
1.8440865e-05
1.9056785e-05
1.9665926e-05
2.0268036e-05
2.0862712e-05
2.1449512e-05
2.2028028e-05
2.2597796e-05
2.3158312e-05
2.3709109e-05
2.4249763e-05
2.4779836e-05
2.5299046e-05
2.5807068e-05
2.6303652e-05
2.6788449e-05
2.7261215e-05
2.7721638e-05
2.816937e-05
2.8604003e-05
2.9025358e-05
2.9433179e-05
2.9827058e-05
3.02067e-05
3.0572096e-05
3.0923197e-05
3.1259883e-05
3.1581853e-05
3.1889217e-05
3.2182105e-05
3.2460509e-05
3.2724338e-05
3.2973756e-05
3.3208882e-05
3.3429219e-05
3.3634185e-05
3.3825112e-05
3.4003237e-05
3.4167537e-05
3.4317287e-05
3.4453313e-05
3.4576511e-05
3.4686593e-05
3.4783137e-05
3.4866754e-05
3.4938188e-05
3.4997531e-05
3.5044557e-05
3.5079767e-05
3.5103687e-05
3.5116482e-05
3.5117892e-05
3.5108402e-05
3.5088648e-05
3.5058873e-05
3.5019073e-05
3.4969801e-05
3.4911467e-05
3.4844358e-05
3.4768641e-05
3.4684756e-05
3.4593127e-05
3.4493188e-05
3.4384759e-05
3.4268701e-05
3.4146015e-05
3.4016853e-05
3.3880555e-05
3.3737988e-05
3.3590211e-05
3.3437508e-05
3.3279924e-05
3.3118921e-05
3.2956168e-05
3.2792565e-05
3.2628325e-05
3.2460805e-05
3.227704e-05
3.2040726e-05
3.1735612e-05
3.1447257e-05
3.1219516e-05
3.1013674e-05
3.081027e-05
3.0598714e-05
3.0380262e-05
3.0155021e-05
2.9925083e-05
2.9689473e-05
2.9448856e-05
2.9203176e-05
2.8952447e-05
2.8696815e-05
2.8437639e-05
2.8175239e-05
2.7908159e-05
2.763563e-05
2.7358265e-05
2.707703e-05
2.6790161e-05
2.6497304e-05
2.6198904e-05
2.5894634e-05
2.5583171e-05
2.5264346e-05
2.4937467e-05
2.460046e-05
2.4251197e-05
2.3890301e-05
2.35163e-05
2.3127626e-05
2.2720851e-05
2.229579e-05
2.1848991e-05
2.1377754e-05
2.0879388e-05
2.0355617e-05
1.9796765e-05
1.9206909e-05
1.8577603e-05
1.7919662e-05
1.7226526e-05
1.6510375e-05
1.5735808e-05
1.4920038e-05