/*--------------------------------*- C++ -*----------------------------------*\
| =========                 |                                                 |
| \\      /  F ield         | OpenFOAM: The Open Source CFD Toolbox           |
|  \\    /   O peration     | Version:  2.4.0                                 |
|   \\  /    A nd           | Web:      www.OpenFOAM.org                      |
|    \\/     M anipulation  |                                                 |
\*---------------------------------------------------------------------------*/
FoamFile
{
    version     2.0;
    format      ascii;
    class       volScalarField;
    location    "500";
    object      kPrime2Mean;
}
// * * * * * * * * * * * * * * * * * * * * * * * * * * * * * * * * * * * * * //

dimensions      [0 4 -4 0 0 0 0];

internalField   nonuniform List<scalar> 
78300
(
2.0579422e-14
2.038397e-14
2.7820103e-14
2.201875e-14
1.4913564e-14
4.7924504e-15
7.1623989e-16
3.1071553e-17
5.9249042e-17
1.5932391e-16
2.5280144e-16
2.8627563e-16
7.1702441e-16
9.5670926e-16
2.8904465e-16
1.6229522e-16
9.8120706e-17
6.368503e-17
4.4945527e-17
3.3753611e-17
2.700833e-17
2.2287243e-17
1.8848693e-17
1.504311e-17
1.3435235e-17
1.1681618e-17
1.0476105e-17
9.9070058e-18
9.3969218e-18
9.2135662e-18
9.3073983e-18
9.5546333e-18
1.0039285e-17
1.0668257e-17
1.1504734e-17
1.2401824e-17
1.3238667e-17
1.3991523e-17
1.3934887e-17
1.2675875e-17
1.289106e-17
1.3365197e-17
1.3904447e-17
1.4158223e-17
1.4154626e-17
1.3911125e-17
1.347085e-17
1.2856121e-17
1.2353569e-17
1.1971456e-17
1.1500766e-17
1.1189017e-17
1.09674e-17
1.0539425e-17
1.023745e-17
9.6816122e-18
9.2943571e-18
8.756535e-18
8.337232e-18
7.7767485e-18
7.7407344e-18
7.6158383e-18
1.038103e-17
2.1216116e-17
3.297892e-17
4.5767902e-17
6.0670556e-17
7.6320306e-17
9.2007849e-17
1.0786924e-16
1.2296861e-16
1.3907977e-16
1.5596321e-16
1.7278254e-16
1.8992152e-16
2.0679482e-16
2.2363755e-16
2.4030173e-16
2.5660554e-16
2.7248795e-16
2.8797884e-16
3.0294391e-16
3.1725404e-16
3.3096498e-16
3.4413497e-16
3.5659927e-16
3.6833297e-16
3.7943556e-16
3.8986053e-16
3.9966152e-16
4.0883914e-16
4.1743693e-16
4.2559234e-16
4.3308551e-16
4.4010615e-16
4.4666808e-16
4.5266579e-16
4.5804562e-16
4.628998e-16
4.6717724e-16
4.7091077e-16
4.7401424e-16
4.7654391e-16
4.7848066e-16
4.7974769e-16
4.8039782e-16
4.803318e-16
4.7969287e-16
4.7835635e-16
4.763537e-16
4.7367162e-16
4.7038253e-16
4.6650091e-16
4.6201153e-16
4.569374e-16
4.5134323e-16
4.4523316e-16
4.3856262e-16
4.3138785e-16
4.2379641e-16
4.1586108e-16
4.0753773e-16
3.9881788e-16
3.897932e-16
3.8057893e-16
3.7113163e-16
3.614778e-16
3.5164032e-16
3.4176882e-16
3.3177714e-16
3.2177092e-16
3.1174922e-16
3.0172704e-16
2.9170632e-16
2.818013e-16
2.7197846e-16
2.6225401e-16
2.5264518e-16
2.4317559e-16
2.3387494e-16
2.2473672e-16
2.1579469e-16
2.0702961e-16
1.9847195e-16
1.9022303e-16
1.8210151e-16
1.7420302e-16
1.6645716e-16
1.5897487e-16
1.5165998e-16
1.4461897e-16
1.3785692e-16
1.3126475e-16
1.2489738e-16
1.1868948e-16
1.1276131e-16
1.0695966e-16
1.0144597e-16
9.5948806e-17
9.0844768e-17
8.5608662e-17
8.0361438e-17
7.5103923e-17
7.129967e-17
6.7598248e-17
6.410185e-17
6.0477109e-17
5.7042983e-17
5.3687394e-17
5.0488399e-17
4.7419643e-17
4.4486524e-17
4.1676708e-17
3.8942167e-17
3.6396926e-17
3.3971635e-17
3.167916e-17
2.9507197e-17
2.7411656e-17
2.5451232e-17
2.3610047e-17
2.1871364e-17
2.0235892e-17
1.8693157e-17
1.7252762e-17
1.5889703e-17
1.4618765e-17
1.3416627e-17
1.2326675e-17
1.1292394e-17
1.033914e-17
9.435125e-18
8.6215221e-18
7.8617368e-18
7.1761864e-18
6.5214238e-18
5.9523017e-18
5.4153564e-18
4.9514209e-18
4.5119072e-18
4.1437402e-18
3.8053239e-18
3.5360017e-18
3.2600665e-18
3.0629928e-18
2.8257017e-18
2.569821e-18
2.1060958e-18
1.8091674e-18
1.7502112e-18
1.8436074e-18
1.9037274e-18
2.1744312e-18
2.3085487e-18
3.1470047e-18
5.0088215e-18
1.8040379e-17
1.0051507e-16
1.6162071e-14
1.3661914e-13
4.5315921e-14
2.7038072e-13
7.9152842e-13
1.1018194e-12
5.644207e-12
6.5815925e-12
1.8038574e-11
1.2621255e-11
3.3776066e-11
7.0156505e-11
1.6791922e-10
7.5681568e-11
8.4208692e-11
3.4528959e-10
1.4650309e-10
4.119432e-10
8.681888e-10
1.2186244e-09
9.0444303e-10
1.2511246e-09
1.6176375e-09
4.344e-09
3.5537729e-09
2.7975329e-08
2.3020482e-08
2.6711367e-08
1.3529336e-07
2.1320144e-07
8.1050538e-06
2.6664929e-06
3.731251e-06
7.7916076e-06
9.4479942e-06
2.028286e-05
1.5882729e-05
6.3153389e-06
1.0289216e-05
4.8090013e-06
1.59798e-07
2.1158167e-07
3.0444721e-08
2.2633809e-10
1.6825227e-09
5.9392559e-12
1.3431273e-12
3.6345949e-13
1.1647548e-13
4.7996187e-14
2.7346808e-14
1.7337223e-14
3.4651404e-15
2.9870445e-15
2.6723644e-15
1.9128866e-15
1.1510837e-15
4.3735175e-16
1.078766e-16
1.3502251e-17
3.7205733e-18
4.8184146e-18
6.239738e-18
6.9052414e-18
1.6732858e-17
2.2193933e-17
6.7132166e-18
3.8080436e-18
2.2954216e-18
1.4744786e-18
1.0349175e-18
7.7267637e-19
6.1526166e-19
5.0680768e-19
4.2820941e-19
3.4135276e-19
3.0494653e-19
2.6480514e-19
2.3731957e-19
2.2411367e-19
2.1244831e-19
2.0817019e-19
2.1018173e-19
2.1577229e-19
2.2687525e-19
2.4147453e-19
2.6106402e-19
2.8241203e-19
3.0274508e-19
3.2154095e-19
3.2211208e-19
2.9421582e-19
2.970169e-19
3.079187e-19
3.2184728e-19
3.284254e-19
3.2905969e-19
3.2358431e-19
3.1319056e-19
2.9837679e-19
2.8552031e-19
2.7463025e-19
2.6152484e-19
2.5096186e-19
2.4187023e-19
2.282134e-19
2.1733992e-19
2.023812e-19
1.914229e-19
1.8025678e-19
1.7482292e-19
1.6911505e-19
1.790097e-19
1.8633425e-19
2.6720347e-19
5.4392244e-19
8.5796471e-19
1.214008e-18
1.627628e-18
2.077745e-18
2.5500209e-18
3.0406853e-18
3.5237186e-18
4.046447e-18
4.6082263e-18
5.192354e-18
5.803798e-18
6.4304978e-18
7.075341e-18
7.7363463e-18
8.4071228e-18
9.0841527e-18
9.7674009e-18
1.0452714e-17
1.1135425e-17
1.1815188e-17
1.2492706e-17
1.3162289e-17
1.3821537e-17
1.4472518e-17
1.5112589e-17
1.5742075e-17
1.6359926e-17
1.6966168e-17
1.7564768e-17
1.8147428e-17
1.8717698e-17
1.9275137e-17
1.9815618e-17
2.033549e-17
2.0836267e-17
2.1315462e-17
2.1773325e-17
2.2206215e-17
2.261377e-17
2.2994809e-17
2.3344883e-17
2.366406e-17
2.39473e-17
2.4197509e-17
2.4410497e-17
2.4585815e-17
2.4721813e-17
2.4820942e-17
2.4883081e-17
2.4907303e-17
2.4894006e-17
2.4844454e-17
2.4760519e-17
2.4639208e-17
2.4482723e-17
2.4294357e-17
2.4076749e-17
2.3829522e-17
2.3552132e-17
2.3247212e-17
2.2919984e-17
2.257061e-17
2.2200025e-17
2.1809196e-17
2.1403906e-17
2.0982949e-17
2.0550003e-17
2.0106742e-17
1.9653613e-17
1.9190762e-17
1.8723573e-17
1.8252536e-17
1.7778564e-17
1.7302283e-17
1.6825274e-17
1.6349385e-17
1.5875056e-17
1.5404116e-17
1.4936527e-17
1.4473213e-17
1.402192e-17
1.3575035e-17
1.3134926e-17
1.2699408e-17
1.2272787e-17
1.1851545e-17
1.144004e-17
1.1041909e-17
1.0651984e-17
1.0270189e-17
9.8942762e-18
9.5279469e-18
9.1663754e-18
8.8119409e-18
8.4521193e-18
8.0962544e-18
7.7244231e-18
7.3218425e-18
6.9259858e-18
6.6471286e-18
6.4079934e-18
6.1750294e-18
5.9264352e-18
5.6788145e-18
5.4335282e-18
5.1950315e-18
4.9633634e-18
4.740207e-18
4.5251135e-18
4.3117495e-18
4.1062403e-18
3.9097568e-18
3.7217939e-18
3.5418926e-18
3.3641104e-18
3.192077e-18
3.0287884e-18
2.8719421e-18
2.7219372e-18
2.5779096e-18
2.4404025e-18
2.3079464e-18
2.1809311e-18
2.0566209e-18
1.9405637e-18
1.8307615e-18
1.7264541e-18
1.6226652e-18
1.5249504e-18
1.4316511e-18
1.345593e-18
1.2591003e-18
1.1776948e-18
1.1005397e-18
1.0306858e-18
9.5971339e-19
8.96277e-19
8.3859708e-19
7.987555e-19
7.6289337e-19
7.5048135e-19
7.5106885e-19
7.6088668e-19
6.971245e-19
5.4385068e-19
4.5044019e-19
4.0431686e-19
3.7116791e-19
3.7760027e-19
3.7853018e-19
4.1493332e-19
4.6032974e-19
8.5405497e-19
3.1144299e-18
3.7933408e-16
3.1727292e-15
1.0760809e-15
6.3294806e-15
1.8503967e-14
2.5749073e-14
1.3084867e-13
1.5325192e-13
4.1908425e-13
2.9272579e-13
7.8256725e-13
1.6292044e-12
3.8957671e-12
1.7611888e-12
1.9574647e-12
7.912829e-12
3.3924267e-12
9.5498965e-12
2.0055729e-11
2.8092667e-11
2.0728945e-11
2.8852146e-11
3.750837e-11
1.0017331e-10
8.194786e-11
6.4671677e-10
5.3087125e-10
6.1893984e-10
3.1086848e-09
4.9572791e-09
1.923886e-07
6.2547534e-08
8.720383e-08
1.8304165e-07
2.2263619e-07
4.8409208e-07
3.8314412e-07
1.4927876e-07
2.4708045e-07
1.1812599e-07
6.3350071e-09
6.3742299e-09
9.7244718e-10
7.4368271e-11
5.6146261e-11
3.8135395e-12
8.1716476e-13
1.8903924e-13
5.039441e-14
1.6842715e-14
7.4818093e-15
4.2165489e-15
1.0794254e-13
7.9663016e-14
5.5597223e-14
3.5246232e-14
1.8962382e-14
8.338907e-15
2.8672888e-15
7.2296318e-16
1.3510921e-16
2.1076219e-17
4.1458487e-18
1.9220169e-18
2.0316573e-18
2.3597552e-18
8.2399966e-19
5.1379319e-19
3.41425e-19
2.3577143e-19
1.7874828e-19
1.4089491e-19
1.147484e-19
9.3984587e-20
7.918719e-20
6.5055545e-20
5.7684361e-20
5.0826729e-20
4.5888424e-20
4.339165e-20
4.20247e-20
4.2293443e-20
4.4273658e-20
4.7738072e-20
5.3377199e-20
6.1169228e-20
7.1749281e-20
8.4888245e-20
9.9510015e-20
1.1460848e-19
1.2490564e-19
1.2423757e-19
1.2575077e-19
1.3838326e-19
1.5876016e-19
1.7778014e-19
1.9623431e-19
2.1562146e-19
2.3637311e-19
2.6011399e-19
2.8930832e-19
3.2625753e-19
3.7406354e-19
4.3480114e-19
5.1043023e-19
6.0088389e-19
7.0186547e-19
8.1204469e-19
9.206912e-19
1.0068364e-18
1.0753541e-18
1.094981e-18
1.1088381e-18
1.1034333e-18
1.2413071e-18
1.8155689e-18
2.7091501e-18
3.7529634e-18
4.9645811e-18
6.3368101e-18
7.9322492e-18
9.7686278e-18
1.1788368e-17
1.4034592e-17
1.654795e-17
1.9328769e-17
2.2374644e-17
2.5678663e-17
2.9238916e-17
3.3056875e-17
3.7121086e-17
4.1409521e-17
4.5909513e-17
5.0610904e-17
5.5497413e-17
6.055565e-17
6.5780389e-17
7.1153825e-17
7.6653856e-17
8.2279074e-17
8.801914e-17
9.3859091e-17
9.9788509e-17
1.0579284e-16
1.1187344e-16
1.1800551e-16
1.2415802e-16
1.3032058e-16
1.3646965e-16
1.4257753e-16
1.4862967e-16
1.5461251e-16
1.6051536e-16
1.6632838e-16
1.7203012e-16
1.7760725e-16
1.8302654e-16
1.8826062e-16
1.9327222e-16
1.9803881e-16
2.0253955e-16
2.0675644e-16
2.1066837e-16
2.1427234e-16
2.1756802e-16
2.2054328e-16
2.2318798e-16
2.254993e-16
2.2748335e-16
2.2913351e-16
2.3043512e-16
2.3141125e-16
2.320678e-16
2.3241294e-16
2.3244143e-16
2.3215025e-16
2.3156399e-16
2.3070512e-16
2.2957633e-16
2.281816e-16
2.2654167e-16
2.2467387e-16
2.2258944e-16
2.2032076e-16
2.1786164e-16
2.1520819e-16
2.1239666e-16
2.0945852e-16
2.0639537e-16
2.0321353e-16
1.9991974e-16
1.9653288e-16
1.9306179e-16
1.8952749e-16
1.8593556e-16
1.8228684e-16
1.7866119e-16
1.7505101e-16
1.7140889e-16
1.6775104e-16
1.6409395e-16
1.6043929e-16
1.5678217e-16
1.5320171e-16
1.4968169e-16
1.4617285e-16
1.4267178e-16
1.3916816e-16
1.3566736e-16
1.3211886e-16
1.2842128e-16
1.2448945e-16
1.2021418e-16
1.1502784e-16
1.0984486e-16
1.0631939e-16
1.0392488e-16
1.0146984e-16
9.8731539e-17
9.5799375e-17
9.2844392e-17
8.9891932e-17
8.6992819e-17
8.4179106e-17
8.1456232e-17
7.8702123e-17
7.5955566e-17
7.3322455e-17
7.0782159e-17
6.8341371e-17
6.58719e-17
6.3394414e-17
6.1025388e-17
5.87211e-17
5.6494312e-17
5.432843e-17
5.2223499e-17
5.0169533e-17
4.8154064e-17
4.6129573e-17
4.4203097e-17
4.2395469e-17
4.062754e-17
3.8804626e-17
3.7034487e-17
3.5321579e-17
3.3721544e-17
3.2048744e-17
3.0379212e-17
2.880804e-17
2.7364872e-17
2.5816209e-17
2.4387729e-17
2.3123767e-17
2.2390522e-17
2.1871397e-17
2.2106091e-17
2.3061968e-17
2.4534998e-17
2.3649561e-17
1.8385009e-17
1.4802021e-17
1.2900594e-17
1.1661476e-17
1.18154e-17
1.2372859e-17
1.3622654e-17
1.4973211e-17
2.295925e-17
5.3968469e-17
2.1522039e-16
1.1362593e-15
1.5092866e-15
2.8413959e-15
1.0481362e-14
1.299455e-14
3.9880571e-14
5.1629654e-14
1.0718807e-13
1.2407761e-13
1.8553821e-13
2.914717e-13
6.1184945e-13
4.9699042e-13
5.1350935e-13
1.1188883e-12
5.5731358e-13
1.4631547e-12
2.4712359e-12
3.37935e-12
2.6220919e-12
3.7321437e-12
5.3253871e-12
1.0721926e-11
9.1491917e-12
6.4810684e-11
5.2164876e-11
6.2457192e-11
3.1294008e-10
5.2080311e-10
2.2370548e-08
6.3749266e-09
8.9206951e-09
1.9022606e-08
2.2832255e-08
5.0141887e-08
4.8413898e-08
1.8345665e-08
8.9976641e-08
1.4859215e-07
8.8839095e-08
5.8951112e-08
1.076393e-08
3.1997956e-09
8.1553159e-10
1.7304049e-10
3.7058305e-11
8.4455678e-12
2.1884181e-12
7.0438015e-13
2.8776406e-13
1.5542165e-13
1.4900976e-12
1.0905575e-12
7.5254733e-13
4.7352898e-13
2.5314697e-13
1.1228238e-13
3.9303914e-14
1.0225239e-14
1.9121359e-15
2.6534778e-16
3.6308269e-17
9.5825376e-18
2.7396185e-18
1.604478e-18
9.9355492e-19
7.5475784e-19
5.6501386e-19
4.7196314e-19
3.9702373e-19
3.4771153e-19
2.9466019e-19
2.4735183e-19
2.1264989e-19
1.873713e-19
1.6836422e-19
1.5502766e-19
1.4666431e-19
1.4508677e-19
1.510091e-19
1.6430641e-19
1.8784325e-19
2.2185695e-19
2.7030779e-19
3.3604217e-19
4.2227506e-19
5.3001356e-19
6.5162951e-19
7.7388781e-19
8.6977958e-19
9.109134e-19
9.7531072e-19
1.1294036e-18
1.3487345e-18
1.5886681e-18
1.837847e-18
2.1330697e-18
2.4724514e-18
2.8783053e-18
3.3733352e-18
3.9960068e-18
4.7896891e-18
5.7959669e-18
7.0288624e-18
8.4852448e-18
1.0091606e-17
1.1799952e-17
1.3472194e-17
1.4733865e-17
1.5644644e-17
1.5766244e-17
1.566807e-17
1.5308948e-17
1.6654415e-17
2.3557134e-17
3.4609752e-17
4.726797e-17
6.1982995e-17
7.8447695e-17
9.7567071e-17
1.1978771e-16
1.4445851e-16
1.7190865e-16
2.0260865e-16
2.3654535e-16
2.7376735e-16
3.1417229e-16
3.5778839e-16
4.0460658e-16
4.5453411e-16
5.0731303e-16
5.6277693e-16
6.2081634e-16
6.8124992e-16
7.4392459e-16
8.0877812e-16
8.756152e-16
9.4416635e-16
1.0144107e-15
1.0862447e-15
1.1594721e-15
1.2339703e-15
1.3095518e-15
1.3862047e-15
1.4636729e-15
1.5415138e-15
1.6195969e-15
1.6976349e-15
1.7752963e-15
1.8523793e-15
1.9287271e-15
2.0041962e-15
2.0786952e-15
2.1519503e-15
2.2237856e-15
2.2937954e-15
2.3616075e-15
2.4267619e-15
2.4889327e-15
2.5478629e-15
2.6033231e-15
2.6550441e-15
2.7029552e-15
2.7470627e-15
2.7872074e-15
2.8232428e-15
2.8551301e-15
2.8829079e-15
2.9065374e-15
2.9257771e-15
2.940921e-15
2.9520234e-15
2.9591877e-15
2.9623482e-15
2.9614407e-15
2.956743e-15
2.9485532e-15
2.9369005e-15
2.9218285e-15
2.9035646e-15
2.8823444e-15
2.8582915e-15
2.8318291e-15
2.8028642e-15
2.7713366e-15
2.7376906e-15
2.7023521e-15
2.6653277e-15
2.6267029e-15
2.586545e-15
2.5450946e-15
2.5024648e-15
2.4589304e-15
2.4145629e-15
2.3693667e-15
2.3243477e-15
2.2795035e-15
2.2341325e-15
2.1884916e-15
2.1427642e-15
2.0970179e-15
2.0511214e-15
2.0061288e-15
1.9618851e-15
1.9177069e-15
1.8735685e-15
1.8292859e-15
1.7849832e-15
1.7399504e-15
1.6929023e-15
1.6425521e-15
1.5875543e-15
1.5201184e-15
1.4525427e-15
1.406717e-15
1.3763396e-15
1.3450205e-15
1.3099329e-15
1.272098e-15
1.2339097e-15
1.1956577e-15
1.1580684e-15
1.1215653e-15
1.0862335e-15
1.0504426e-15
1.0146507e-15
9.8032968e-16
9.4720043e-16
9.1536606e-16
8.8309817e-16
8.5063043e-16
8.1956843e-16
7.8932976e-16
7.6008974e-16
7.316247e-16
7.0392522e-16
6.7687254e-16
6.5028242e-16
6.235243e-16
5.9802932e-16
5.7412566e-16
5.5069459e-16
5.264744e-16
5.0290624e-16
4.8007974e-16
4.5874058e-16
4.3636953e-16
4.1395261e-16
3.9286911e-16
3.7349284e-16
3.5262126e-16
3.3333397e-16
3.1630104e-16
3.0655614e-16
2.9982041e-16
3.0347867e-16
3.1728054e-16
3.3839736e-16
3.27117e-16
2.5436792e-16
2.0457072e-16
1.7811201e-16
1.6096169e-16
1.6317832e-16
1.7136853e-16
1.8903348e-16
2.0857556e-16
3.222578e-16
7.5873575e-16
2.4647502e-15
1.1378595e-14
1.9313836e-14
3.0058227e-14
1.1432902e-13
1.4277391e-13
3.5457374e-13
4.9633008e-13
8.9226487e-13
1.3045635e-12
1.4159503e-12
1.7643178e-12
2.8116371e-12
4.160765e-12
4.0717378e-12
4.766089e-12
2.694294e-12
6.3166212e-12
6.8375512e-12
8.8346668e-12
7.3432627e-12
1.173284e-11
1.7789433e-11
1.1970772e-11
1.3394157e-11
2.4419453e-11
2.6957638e-11
3.3249921e-11
1.4743605e-10
4.4719848e-10
5.7227833e-09
3.3384203e-09
4.804705e-09
7.3724869e-09
8.9368671e-09
1.3390518e-08
2.5513149e-08
3.0002684e-08
4.7371291e-07
8.1678763e-07
6.1453192e-07
4.6405084e-07
1.0177667e-07
3.6724191e-08
1.0263348e-08
2.3282258e-09
5.1063664e-10
1.1739119e-10
3.0533772e-11
9.831716e-12
4.0063875e-12
2.1607161e-12
1.0597385e-11
7.7509608e-12
5.3444519e-12
3.361656e-12
1.7967219e-12
7.9815199e-13
2.8021609e-13
7.3248159e-14
1.3727418e-14
1.8823334e-15
2.4606164e-16
6.0112807e-17
1.4243322e-17
6.6049251e-18
4.7385105e-18
3.7368029e-18
2.7515061e-18
2.4388389e-18
2.0792525e-18
1.8762526e-18
1.6062815e-18
1.3672398e-18
1.1844521e-18
1.0629934e-18
9.6218527e-19
8.967651e-19
8.6088595e-19
8.642409e-19
9.1590375e-19
1.0143275e-18
1.1803917e-18
1.416142e-18
1.7470134e-18
2.1940074e-18
2.7771253e-18
3.504508e-18
4.3256972e-18
5.1466484e-18
5.797093e-18
6.1073372e-18
6.6006781e-18
7.6879886e-18
9.2133259e-18
1.0910763e-17
1.2682151e-17
1.4801354e-17
1.7250404e-17
2.018824e-17
2.3773073e-17
2.8284082e-17
3.4027319e-17
4.1313702e-17
5.0231474e-17
6.0753871e-17
7.2353324e-17
8.4658471e-17
9.6701798e-17
1.0574699e-16
1.1221213e-16
1.1297091e-16
1.120645e-16
1.0930193e-16
1.1853635e-16
1.671381e-16
2.4512751e-16
3.3422303e-16
4.3781085e-16
5.5352716e-16
6.8783701e-16
8.4406656e-16
1.0176755e-15
1.210841e-15
1.42684e-15
1.6655498e-15
1.9273845e-15
2.2115987e-15
2.5184384e-15
2.8478132e-15
3.1991072e-15
3.5705165e-15
3.9608628e-15
4.3693864e-15
4.7948258e-15
5.2361159e-15
5.6928202e-15
6.1635837e-15
6.6465135e-15
7.1414615e-15
7.6477192e-15
8.1638967e-15
8.6891386e-15
9.2221197e-15
9.7627351e-15
1.0309221e-14
1.0858419e-14
1.1409428e-14
1.1960235e-14
1.2508525e-14
1.3052854e-14
1.3592126e-14
1.4125322e-14
1.465182e-14
1.5169674e-14
1.567761e-14
1.6172751e-14
1.6652439e-14
1.7113442e-14
1.7553445e-14
1.7970663e-14
1.8363494e-14
1.8730043e-14
1.9069779e-14
1.9382753e-14
1.9667839e-14
1.9923991e-14
2.0150934e-14
2.0348907e-14
2.0517667e-14
2.0655474e-14
2.0764407e-14
2.0844831e-14
2.0897469e-14
2.0921861e-14
2.091754e-14
2.0886437e-14
2.0830661e-14
2.0750416e-14
2.064601e-14
2.0519017e-14
2.0371109e-14
2.0203147e-14
2.0018123e-14
1.981537e-14
1.9594459e-14
1.9358511e-14
1.9110551e-14
1.8850616e-14
1.8579311e-14
1.8297104e-14
1.8005687e-14
1.7705862e-14
1.7399572e-14
1.7087325e-14
1.6769154e-14
1.6452139e-14
1.6136333e-14
1.5816719e-14
1.5495152e-14
1.5172896e-14
1.4850469e-14
1.4526903e-14
1.4209653e-14
1.3897669e-14
1.3586091e-14
1.3274747e-14
1.2962301e-14
1.2649663e-14
1.2331778e-14
1.1999574e-14
1.1643827e-14
1.1255003e-14
1.0777753e-14
1.0299467e-14
9.9752409e-15
9.760802e-15
9.539559e-15
9.2916038e-15
9.0240512e-15
8.7539572e-15
8.4833381e-15
8.2173852e-15
7.9590979e-15
7.7090859e-15
7.4557987e-15
7.2024317e-15
6.9594677e-15
6.7249236e-15
6.4995366e-15
6.2710427e-15
6.0410715e-15
5.8210356e-15
5.6068131e-15
5.3996487e-15
5.1979573e-15
5.0016619e-15
4.8099322e-15
4.6214487e-15
4.4317399e-15
4.2509559e-15
4.0814674e-15
3.9152935e-15
3.7434784e-15
3.5762532e-15
3.4142672e-15
3.2628204e-15
3.1040116e-15
2.9448139e-15
2.7950787e-15
2.6574686e-15
2.5091784e-15
2.3721214e-15
2.2510833e-15
2.1819224e-15
2.1342204e-15
2.1605457e-15
2.259251e-15
2.4103993e-15
2.331663e-15
1.813431e-15
1.4580469e-15
1.2691558e-15
1.146851e-15
1.1627309e-15
1.2215441e-15
1.3475525e-15
1.4879036e-15
2.3040338e-15
5.4180357e-15
1.7473853e-14
8.0608578e-14
1.3662271e-13
2.1292035e-13
8.0431466e-13
1.0087171e-12
2.4802345e-12
3.4861999e-12
6.2432039e-12
9.1800336e-12
9.8398149e-12
1.2149859e-11
1.895585e-11
2.881296e-11
2.8114093e-11
3.222507e-11
1.808423e-11
4.2243174e-11
4.4634577e-11
5.7373687e-11
4.7045263e-11
7.6873536e-11
1.1450572e-10
6.6019153e-11
7.7952149e-11
7.7184798e-11
1.1660535e-10
1.4027093e-10
5.9309154e-10
2.069573e-09
8.9226023e-09
1.1413803e-08
1.7513906e-08
2.2419084e-08
2.4670956e-08
1.7155346e-08
3.1125053e-08
9.5586721e-08
1.3658598e-06
2.155875e-06
1.8706855e-06
1.5119572e-06
3.6220476e-07
1.5872406e-07
5.373443e-08
1.4348397e-08
3.4097566e-09
8.1273976e-10
2.1514393e-10
6.9753117e-11
2.8491782e-11
1.5378358e-11
5.0419663e-11
3.6911816e-11
2.547168e-11
1.6035042e-11
8.5773694e-12
3.8153564e-12
1.3419629e-12
3.5168056e-13
6.6074512e-14
9.0428486e-15
1.1657581e-15
2.7931373e-16
6.4522481e-17
2.8970758e-17
2.098385e-17
1.6687766e-17
1.2171208e-17
1.0953198e-17
9.3555533e-18
8.5061405e-18
7.3042465e-18
6.2431598e-18
5.41181e-18
4.8724802e-18
4.4171022e-18
4.1260901e-18
3.9722884e-18
3.9993087e-18
4.2530108e-18
4.72565e-18
5.5172701e-18
6.6378079e-18
8.2064681e-18
1.0323981e-17
1.3084288e-17
1.652832e-17
2.0420138e-17
2.4311541e-17
2.7407202e-17
2.8909189e-17
3.1289093e-17
3.6465398e-17
4.3725957e-17
5.1834891e-17
6.0301969e-17
7.0444044e-17
8.2173869e-17
9.6249964e-17
1.1342617e-16
1.350415e-16
1.6255755e-16
1.9747708e-16
2.4020443e-16
2.9062054e-16
3.4620637e-16
4.0515694e-16
4.6286705e-16
5.0621013e-16
5.3714327e-16
5.4076458e-16
5.3632705e-16
5.2304009e-16
5.6705551e-16
7.9900157e-16
1.1712651e-15
1.596354e-15
2.0905631e-15
2.6424719e-15
3.2829773e-15
4.0280459e-15
4.8561104e-15
5.7774373e-15
6.8075999e-15
7.9459831e-15
9.1946173e-15
1.0549921e-14
1.2013105e-14
1.3583708e-14
1.5258813e-14
1.7029829e-14
1.889113e-14
2.0839098e-14
2.286773e-14
2.4971957e-14
2.7149688e-14
2.9394489e-14
3.169734e-14
3.4057531e-14
3.6471703e-14
3.8933226e-14
4.1438026e-14
4.3979796e-14
4.6558005e-14
4.9164285e-14
5.1783554e-14
5.4411624e-14
5.7038981e-14
5.9654633e-14
6.2251628e-14
6.4824755e-14
6.736913e-14
6.9881797e-14
7.2353358e-14
7.4777553e-14
7.714049e-14
7.9429421e-14
8.1628993e-14
8.3728235e-14
8.5718846e-14
8.7593254e-14
8.9342449e-14
9.0963849e-14
9.2457687e-14
9.3818582e-14
9.504157e-14
9.6125331e-14
9.7070961e-14
9.7877303e-14
9.8536077e-14
9.9057215e-14
9.9442415e-14
9.9695087e-14
9.9813071e-14
9.9794155e-14
9.9647502e-14
9.9383131e-14
9.9002058e-14
9.8505755e-14
9.7901691e-14
9.7197819e-14
9.6398271e-14
9.5517286e-14
9.4551687e-14
9.3499444e-14
9.2375406e-14
9.1194007e-14
8.9955437e-14
8.8662549e-14
8.7317605e-14
8.5928668e-14
8.4499538e-14
8.3039496e-14
8.1550972e-14
8.0034178e-14
7.8522775e-14
7.7017048e-14
7.549311e-14
7.3959837e-14
7.2423176e-14
7.0885668e-14
6.9342725e-14
6.7829792e-14
6.6341897e-14
6.4855897e-14
6.3370957e-14
6.1880687e-14
6.0389401e-14
5.8873004e-14
5.7288232e-14
5.559105e-14
5.3735583e-14
5.1458152e-14
4.9176421e-14
4.7629825e-14
4.6606784e-14
4.5550994e-14
4.4367831e-14
4.3091132e-14
4.1802284e-14
4.051087e-14
3.9241691e-14
3.8009049e-14
3.6815841e-14
3.5607058e-14
3.4397857e-14
3.3238267e-14
3.2118828e-14
3.1043015e-14
2.995239e-14
2.8854727e-14
2.7804403e-14
2.6781809e-14
2.579287e-14
2.4830047e-14
2.3892944e-14
2.2977619e-14
2.2077771e-14
2.1172061e-14
2.0308895e-14
1.9499648e-14
1.8706213e-14
1.7885806e-14
1.7087301e-14
1.6313742e-14
1.5590469e-14
1.4832052e-14
1.4071757e-14
1.3356549e-14
1.2699288e-14
1.1990969e-14
1.1336313e-14
1.0758042e-14
1.0427604e-14
1.0199675e-14
1.0325528e-14
1.0797275e-14
1.1520709e-14
1.115003e-14
8.6736233e-15
6.972789e-15
6.0684136e-15
5.4832141e-15
5.5591282e-15
5.84102e-15
6.4426253e-15
7.1161806e-15
1.1036983e-14
2.590476e-14
8.333966e-14
3.8561574e-13
6.4852733e-13
1.0189865e-12
3.824918e-12
4.8035385e-12
1.1792451e-11
1.6556416e-11
2.9636236e-11
4.3515293e-11
4.669448e-11
5.7424367e-11
8.9526236e-11
1.3574687e-10
1.3239873e-10
1.5188014e-10
8.5041248e-11
1.9868304e-10
2.0936885e-10
2.6874109e-10
2.1897251e-10
3.5978743e-10
5.3263421e-10
3.0288238e-10
3.5947163e-10
3.3721725e-10
5.3125822e-10
6.3206176e-10
2.514255e-09
7.4364911e-09
2.7707385e-08
3.6662113e-08
6.473175e-08
9.5483762e-08
9.2688361e-08
5.7324854e-08
8.7095404e-08
2.322305e-07
2.533537e-06
4.0750595e-06
3.7817989e-06
3.4016567e-06
7.7968414e-07
3.7684469e-07
1.5088623e-07
4.9709824e-08
1.3678065e-08
3.5629247e-09
9.8834835e-10
3.2731865e-10
1.3492266e-10
7.309442e-11
1.8359923e-10
1.3483068e-10
9.3249524e-11
5.8817582e-11
3.151717e-11
1.4047608e-11
4.9517633e-12
1.3010875e-12
2.4518017e-13
3.3549856e-14
4.2933203e-15
1.0192281e-15
2.3392987e-16
1.0402458e-16
7.539096e-17
6.0266016e-17
4.3792042e-17
3.9646605e-17
3.3889547e-17
3.0901265e-17
2.6575465e-17
2.2754462e-17
1.9712874e-17
1.7757129e-17
1.610194e-17
1.5047385e-17
1.449445e-17
1.4601216e-17
1.5539063e-17
1.7278317e-17
2.0187211e-17
2.4302827e-17
3.0061041e-17
3.7832889e-17
4.7964544e-17
6.0612697e-17
7.4920458e-17
8.9244019e-17
1.0067687e-16
1.0624716e-16
1.1499691e-16
1.3399357e-16
1.6069367e-16
1.9055887e-16
2.2173987e-16
2.5908423e-16
3.0227827e-16
3.541094e-16
4.1735014e-16
4.9693525e-16
5.9824968e-16
7.2685603e-16
8.8418519e-16
1.0698596e-15
1.2746342e-15
1.4918159e-15
1.7044855e-15
1.8643594e-15
1.9784408e-15
1.9921613e-15
1.9760674e-15
1.9275797e-15
2.0903896e-15
2.9443821e-15
4.3146229e-15
5.8791379e-15
7.6977794e-15
9.7285552e-15
1.2085037e-14
1.4825804e-14
1.7871884e-14
2.1260896e-14
2.5049936e-14
2.923669e-14
3.3828645e-14
3.8812571e-14
4.4192939e-14
4.9967966e-14
5.6126894e-14
6.2638157e-14
6.9481032e-14
7.6642211e-14
8.409962e-14
9.1834626e-14
9.9839497e-14
1.0809062e-13
1.1655489e-13
1.2522967e-13
1.3410263e-13
1.4314942e-13
1.5235509e-13
1.6169651e-13
1.7117165e-13
1.8074985e-13
1.9037575e-13
2.0003448e-13
2.0969144e-13
2.1930642e-13
2.2885357e-13
2.3831383e-13
2.4766911e-13
2.5690857e-13
2.6599696e-13
2.7491047e-13
2.8359725e-13
2.9201022e-13
3.0009343e-13
3.0780692e-13
3.1512131e-13
3.2200895e-13
3.284368e-13
3.3439522e-13
3.39885e-13
3.4488642e-13
3.493813e-13
3.5336478e-13
3.5684079e-13
3.5980495e-13
3.6222715e-13
3.6414381e-13
3.6556111e-13
3.6649138e-13
3.6692685e-13
3.6685949e-13
3.6632281e-13
3.6535349e-13
3.6395539e-13
3.6213399e-13
3.5991658e-13
3.5733233e-13
3.5439654e-13
3.5116132e-13
3.4761507e-13
3.4375044e-13
3.3962188e-13
3.3528236e-13
3.3073262e-13
3.2598311e-13
3.2104225e-13
3.1593956e-13
3.1068903e-13
3.0532468e-13
2.9985555e-13
2.9428268e-13
2.8872923e-13
2.8319623e-13
2.7759634e-13
2.719622e-13
2.6631524e-13
2.6066514e-13
2.5499529e-13
2.4943528e-13
2.4396691e-13
2.3850545e-13
2.3304771e-13
2.2757023e-13
2.2208861e-13
2.1651447e-13
2.106889e-13
2.0445029e-13
1.9762812e-13
1.8925626e-13
1.8087248e-13
1.7519027e-13
1.7142901e-13
1.6754628e-13
1.6319591e-13
1.5850218e-13
1.5376379e-13
1.4901589e-13
1.4434961e-13
1.3981748e-13
1.3543003e-13
1.3098569e-13
1.2653986e-13
1.2227625e-13
1.1816012e-13
1.1420397e-13
1.1019355e-13
1.0615756e-13
1.0229524e-13
9.8534824e-14
9.4898029e-14
9.1357246e-14
8.7910929e-14
8.4544659e-14
8.1235294e-14
7.7904426e-14
7.4729762e-14
7.1753302e-14
6.883501e-14
6.5817477e-14
6.2880554e-14
6.003508e-14
5.7374354e-14
5.4584564e-14
5.1787996e-14
4.9156745e-14
4.6738781e-14
4.4132986e-14
4.1724747e-14
3.9596886e-14
3.8380583e-14
3.7541278e-14
3.8003913e-14
3.9738672e-14
4.2402569e-14
4.1058593e-14
3.1947753e-14
2.5680584e-14
2.2346305e-14
2.0189866e-14
2.0468472e-14
2.1507738e-14
2.3717822e-14
2.6204515e-14
4.0697923e-14
9.5305641e-14
3.058517e-13
1.4198858e-12
2.3664807e-12
3.7552096e-12
1.3998758e-11
1.7597606e-11
4.3167176e-11
6.0476354e-11
1.0814969e-10
1.584167e-10
1.7061636e-10
2.0886958e-10
3.2617567e-10
4.9139631e-10
4.791168e-10
5.5062417e-10
3.0887697e-10
7.202626e-10
7.5512889e-10
9.6991612e-10
7.875797e-10
1.2959245e-09
1.9183569e-09
1.0879915e-09
1.2941409e-09
1.1929901e-09
1.9208472e-09
2.2516704e-09
8.1527636e-09
1.9570195e-08
7.3940891e-08
9.5205323e-08
1.9727217e-07
3.3923006e-07
3.0228697e-07
1.9124488e-07
2.7199728e-07
4.9681808e-07
4.0207481e-06
6.4838786e-06
5.6333661e-06
6.034726e-06
1.3130111e-06
6.5740111e-07
2.922575e-07
1.1413943e-07
3.6788657e-08
1.0919489e-08
3.3089895e-09
1.1483233e-09
4.8420988e-10
2.6502781e-10
5.5049931e-10
4.0713721e-10
2.8287243e-10
1.7907621e-10
9.6252905e-11
4.3039565e-11
1.5218512e-11
4.0117528e-12
7.5878166e-13
1.0384051e-13
1.3217502e-14
3.1169681e-15
7.1353816e-16
3.1558214e-16
2.2861898e-16
1.8348693e-16
1.3307791e-16
1.2085584e-16
1.0336699e-16
9.4393029e-17
8.1263914e-17
6.9649345e-17
6.0296522e-17
5.4309596e-17
4.9246677e-17
4.602052e-17
4.4329223e-17
4.465479e-17
4.7526632e-17
5.2850104e-17
6.175312e-17
7.4351617e-17
9.1975983e-17
1.1576414e-16
1.4678208e-16
1.855262e-16
2.2939976e-16
2.733844e-16
3.0860726e-16
3.257965e-16
3.5251178e-16
4.1058338e-16
4.9240324e-16
5.8402312e-16
6.7965362e-16
7.9413313e-16
9.2653456e-16
1.0853862e-15
1.2791834e-15
1.5230659e-15
1.8335584e-15
2.2277963e-15
2.7099447e-15
3.2790721e-15
3.9069656e-15
4.5729798e-15
5.2253219e-15
5.7163891e-15
6.0668541e-15
6.1107585e-15
6.0628849e-15
5.9167962e-15
6.4202037e-15
9.0398384e-15
1.3240707e-14
1.803686e-14
2.3610624e-14
2.9833954e-14
3.7054019e-14
4.5449219e-14
5.4779101e-14
6.5158513e-14
7.676155e-14
8.9580968e-14
1.0363955e-13
1.1889658e-13
1.3536564e-13
1.5304097e-13
1.7188937e-13
1.9181427e-13
2.127521e-13
2.3466202e-13
2.5747646e-13
2.8113838e-13
3.0562386e-13
3.3086088e-13
3.5674828e-13
3.8327792e-13
4.1041217e-13
4.3807659e-13
4.6622559e-13
4.9478872e-13
5.2375943e-13
5.5304432e-13
5.8247453e-13
6.1200671e-13
6.4153653e-13
6.7094136e-13
7.001413e-13
7.2907835e-13
7.5769663e-13
7.8596293e-13
8.1376678e-13
8.4103211e-13
8.6759762e-13
8.9331883e-13
9.1802725e-13
9.4160185e-13
9.6395737e-13
9.8500951e-13
1.0046573e-12
1.0228709e-12
1.0396525e-12
1.0549419e-12
1.0686839e-12
1.0808636e-12
1.0914927e-12
1.1005574e-12
1.1079665e-12
1.1138315e-12
1.1181708e-12
1.1210213e-12
1.12236e-12
1.1221627e-12
1.1205313e-12
1.1175771e-12
1.1133126e-12
1.1077547e-12
1.1009864e-12
1.0930964e-12
1.084132e-12
1.0742516e-12
1.0634202e-12
1.0516154e-12
1.0390036e-12
1.025746e-12
1.0118454e-12
9.9733335e-13
9.8223607e-13
9.6664344e-13
9.5059809e-13
9.3420396e-13
9.174889e-13
9.0045721e-13
8.8348323e-13
8.665701e-13
8.4945248e-13
8.3223022e-13
8.1496734e-13
7.9769448e-13
7.8036214e-13
7.6336364e-13
7.4664374e-13
7.2994456e-13
7.1325595e-13
6.965062e-13
6.79742e-13
6.626937e-13
6.4487578e-13
6.2579489e-13
6.0492267e-13
5.7931698e-13
5.5369082e-13
5.3632396e-13
5.2481727e-13
5.1293459e-13
4.9962366e-13
4.8526448e-13
4.7076856e-13
4.562432e-13
4.4196698e-13
4.2810037e-13
4.1467507e-13
4.0107712e-13
3.8747485e-13
3.7442919e-13
3.6183413e-13
3.4972676e-13
3.3745406e-13
3.2510428e-13
3.1328444e-13
3.0177599e-13
2.9064528e-13
2.7980828e-13
2.6925986e-13
2.5895622e-13
2.4882665e-13
2.3863149e-13
2.2891342e-13
2.1980157e-13
2.1086777e-13
2.0163004e-13
1.926393e-13
1.8392732e-13
1.7577995e-13
1.6723827e-13
1.5867645e-13
1.506187e-13
1.432143e-13
1.352349e-13
1.2786106e-13
1.2134356e-13
1.1761658e-13
1.1504384e-13
1.1645978e-13
1.2176903e-13
1.2993103e-13
1.2587729e-13