/*--------------------------------*- C++ -*----------------------------------*\
| =========                 |                                                 |
| \\      /  F ield         | OpenFOAM: The Open Source CFD Toolbox           |
|  \\    /   O peration     | Version:  2.4.0                                 |
|   \\  /    A nd           | Web:      www.OpenFOAM.org                      |
|    \\/     M anipulation  |                                                 |
\*---------------------------------------------------------------------------*/
FoamFile
{
    version     2.0;
    format      ascii;
    class       volVectorField;
    location    "500";
    object      U;
}
// * * * * * * * * * * * * * * * * * * * * * * * * * * * * * * * * * * * * * //

dimensions      [0 1 -1 0 0 0 0];

internalField   nonuniform List<vector> 
78300
(
(0.0053042699 2.3202365e-05 1.1264982e-21)
(0.0054598292 2.6336054e-05 -2.6146061e-22)
(0.0062153948 -3.9407194e-05 8.5592898e-22)
(0.0059738472 -0.00018242519 -2.6413694e-20)
(0.0054150222 -0.00036746975 -6.4790166e-21)
(0.0036467009 -0.00043225028 1.3359048e-20)
(0.0016855231 -0.0003066767 7.0149258e-21)
(-0.0004822078 0.00011315979 -2.4863122e-20)
(-0.00186255 0.00061342001 -7.3573487e-21)
(-0.0023182231 0.00097879607 7.3350801e-21)
(-0.0020563282 0.00098449785 8.4615538e-22)
(-0.0014672925 0.00085700273 -1.6406402e-22)
(-0.0010244417 0.00065742157 4.8597732e-24)
(-0.00085371732 0.00059404459 0)
(-0.00066122094 0.00058997025 0)
(-0.00080788518 0.00062435585 -8.3654538e-21)
(-0.00070762078 0.00058251379 -1.6718432e-21)
(-0.00070720822 0.00059288425 4.4808141e-23)
(-0.00069179714 0.00063628653 -7.0344123e-21)
(-0.00069362599 0.00054037131 0)
(-0.00063813479 0.00054035561 3.2517885e-21)
(-0.00060319258 0.00051789572 -9.3068094e-21)
(-0.00057334753 0.00048710324 -3.4820619e-21)
(-0.000551246 0.00045756155 1.6669305e-21)
(-0.00053841849 0.00043435174 0)
(-0.00053598717 0.00042540624 8.9367571e-22)
(-0.00053103519 0.00042808994 1.5508921e-22)
(-0.00053111859 0.00042625818 -4.0479527e-21)
(-0.00053952592 0.0004312821 -3.3188787e-21)
(-0.00055147739 0.0004358491 -2.0441408e-21)
(-0.00057027917 0.00044786628 1.8517531e-21)
(-0.00058919629 0.00046706846 3.4332877e-21)
(-0.00062295152 0.00048305793 1.1717048e-21)
(-0.00065568843 0.00050881915 1.369104e-21)
(-0.00069350692 0.00053631421 -1.1897268e-21)
(-0.00073301189 0.00056532337 5.9495279e-22)
(-0.00077078988 0.0005926594 -5.3847677e-22)
(-0.00080523984 0.00061464592 -1.1762006e-23)
(-0.0008400796 0.00063608511 0)
(-0.00086466007 0.00063843007 -1.8227723e-22)
(-0.00086419044 0.00063488879 -9.2283749e-25)
(-0.00091308931 0.00066043738 -7.2290913e-22)
(-0.00093969331 0.00067485842 -1.8415001e-21)
(-0.00097331681 0.00066913135 -2.6504491e-21)
(-0.00099302337 0.00065984276 5.0217982e-21)
(-0.0010071621 0.00064421204 6.3357968e-21)
(-0.0010164362 0.00062197013 -2.4651938e-21)
(-0.0010189475 0.00059236211 -7.3255771e-21)
(-0.0010208039 0.00056074492 7.6015781e-21)
(-0.0010237979 0.00052522733 -6.3209783e-21)
(-0.0010243652 0.00048826029 -1.454888e-20)
(-0.0010184946 0.00043817984 0)
(-0.0010069795 0.00040696826 -1.9565594e-21)
(-0.00099082797 0.00036161221 0)
(-0.00096903382 0.00031986337 -3.6603437e-21)
(-0.00093704674 0.00027190584 3.5510624e-22)
(-0.00090334627 0.00022767327 2.6026745e-21)
(-0.00085664028 0.00018303281 5.836421e-21)
(-0.0008222907 0.00014266396 9.4297401e-23)
(-0.0007740075 0.00010320094 -4.9129411e-21)
(-0.0007677569 7.1159814e-05 9.0554089e-22)
(-0.00075353749 3.8877085e-05 1.0613629e-22)
(-0.00088827366 1.0556048e-05 4.6096412e-23)
(-0.0011721662 1.7845006e-07 1.3002299e-26)
(-0.0013688457 3.2448129e-07 7.615128e-27)
(-0.0015544194 2.814033e-07 -3.2718334e-26)
(-0.001715658 4.2746132e-07 4.0409078e-26)
(-0.0018616564 2.7253734e-07 -4.954975e-26)
(-0.0019911263 1.6109339e-06 0)
(-0.00211376 2.9343214e-07 -2.4810119e-26)
(-0.002219108 2.8560668e-07 2.1140737e-26)
(-0.0023176063 3.1098554e-07 2.0871197e-27)
(-0.0024063416 2.9857685e-07 2.3420824e-26)
(-0.002487884 3.329952e-07 2.3924582e-19)
(-0.002563169 3.3544782e-07 4.083255e-19)
(-0.0026334714 3.324687e-07 -3.0662032e-25)
(-0.002699046 3.3476729e-07 1.0194352e-25)
(-0.0027604581 3.420117e-07 1.6242016e-25)
(-0.0028182761 3.4290611e-07 -2.5429776e-25)
(-0.0028728773 3.3682438e-07 2.142155e-25)
(-0.0029245431 3.3739033e-07 -1.6915141e-25)
(-0.002973671 3.4161062e-07 5.1511667e-25)
(-0.003020307 3.4179246e-07 -2.7208368e-25)
(-0.0030646079 3.3543386e-07 -5.2979483e-25)
(-0.0031067562 3.3585544e-07 5.565321e-25)
(-0.0031469571 3.3948679e-07 -7.7101667e-26)
(-0.003185184 3.4048367e-07 5.4908436e-25)
(-0.0032215167 3.3535089e-07 -7.4871719e-25)
(-0.0032559886 3.3674505e-07 -5.4300413e-25)
(-0.0032886495 3.3916668e-07 8.3727107e-25)
(-0.0033196692 3.3407986e-07 -6.7318798e-25)
(-0.0033488906 3.2943159e-07 5.3488387e-25)
(-0.0033764019 3.2344809e-07 -2.9020006e-25)
(-0.0034021931 3.1544798e-07 -5.5035844e-26)
(-0.0034262696 3.0404442e-07 2.6014545e-26)
(-0.0034485778 2.9525797e-07 4.1662136e-25)
(-0.0034692002 2.8646387e-07 -3.5681701e-26)
(-0.0034880855 2.7808185e-07 5.9914471e-25)
(-0.0035052414 2.7068682e-07 -8.5139842e-27)
(-0.0035206433 2.6374826e-07 -1.1671758e-24)
(-0.0035342482 2.497313e-07 5.5164412e-25)
(-0.0035461388 2.4252821e-07 -5.2394911e-26)
(-0.0035562042 2.3581529e-07 7.7314667e-25)
(-0.0035646157 2.3413674e-07 -2.2991287e-26)
(-0.0035713354 2.2064724e-07 -1.5022195e-24)
(-0.0035763277 2.1602071e-07 -1.0034158e-25)
(-0.0035795784 1.9954815e-07 5.4069805e-26)
(-0.0035810246 1.8932759e-07 7.6539807e-25)
(-0.0035807582 1.8607385e-07 -7.5997749e-26)
(-0.0035787342 1.8515678e-07 -9.5953419e-25)
(-0.0035749809 1.7584581e-07 1.7729422e-24)
(-0.0035694926 1.6639698e-07 -2.0264653e-24)
(-0.0035623537 1.6330219e-07 1.9081407e-24)
(-0.0035534788 1.6316031e-07 -3.6679799e-25)
(-0.003542956 1.5921922e-07 2.2412677e-25)
(-0.0035306939 1.5157426e-07 -9.4821715e-25)
(-0.0035166627 1.435475e-07 5.3747158e-25)
(-0.0035009992 1.3695179e-07 1.4509121e-25)
(-0.0034837484 1.2993056e-07 -1.0455887e-25)
(-0.0034653627 1.1712129e-07 -1.0258678e-25)
(-0.0034456667 1.0509373e-07 2.1786891e-17)
(-0.0034242563 9.4481305e-08 2.244426e-17)
(-0.003401283 8.4338751e-08 1.3156888e-24)
(-0.0033770097 7.1086433e-08 -1.0664022e-25)
(-0.0033515131 5.915378e-08 -1.2333799e-25)
(-0.0033246196 4.777034e-08 -8.9720457e-26)
(-0.0032963706 3.7841678e-08 -7.4032345e-27)
(-0.0032669752 2.4463382e-08 -3.046779e-25)
(-0.0032364903 1.3363143e-08 -1.4041271e-25)
(-0.0032048313 1.4367637e-09 4.8729167e-25)
(-0.00317207 -9.6489538e-09 2.6806806e-26)
(-0.0031382756 -2.3765599e-08 2.6833775e-25)
(-0.0031035056 -3.5459415e-08 -4.4427684e-25)
(-0.0030678302 -4.8746113e-08 6.222026e-26)
(-0.0030312731 -5.9066223e-08 1.4452404e-26)
(-0.0029938849 -7.244363e-08 2.8380533e-26)
(-0.0029557435 -8.315317e-08 2.8146759e-27)
(-0.0029168656 -9.6464397e-08 1.8272505e-25)
(-0.0028773148 -1.0624535e-07 -8.0621745e-26)
(-0.0028371321 -1.1905337e-07 -4.3804832e-25)
(-0.0027963792 -1.2894563e-07 8.4329165e-25)
(-0.0027551008 -1.4167411e-07 -1.2227948e-24)
(-0.0027133468 -1.515194e-07 1.9613291e-26)
(-0.0026711463 -1.6295399e-07 6.536862e-25)
(-0.0026284528 -1.7418504e-07 -1.8623006e-25)
(-0.0025855627 -1.8820635e-07 4.4618001e-25)
(-0.0025422588 -1.9669739e-07 -1.8819776e-25)
(-0.0024986326 -2.0133377e-07 -1.1978577e-26)
(-0.0024551012 -2.0995076e-07 -2.1458603e-25)
(-0.0024111858 -2.1937179e-07 -2.2126688e-25)
(-0.0023671582 -2.2701483e-07 -2.1052844e-25)
(-0.002323013 -2.3409644e-07 7.979817e-25)
(-0.002278847 -2.4079069e-07 5.2141458e-25)
(-0.0022345371 -2.527555e-07 8.5850198e-25)
(-0.0021904963 -2.5787508e-07 -3.3768797e-25)
(-0.0021461534 -2.658089e-07 -9.6273192e-25)
(-0.0021025286 -2.7097018e-07 -2.3401284e-24)
(-0.0020582991 -2.8450911e-07 4.6199444e-17)
(-0.0020147178 -2.8970315e-07 2.2161695e-20)
(-0.0019684507 -3.0452691e-07 -4.7400557e-17)
(-0.0019211157 -2.822e-07 -3.6191362e-24)
(-0.0018731113 -3.7502931e-07 5.2794055e-25)
(-0.0018240028 -4.0442806e-07 -6.3173696e-24)
(-0.0017838948 -3.2553878e-07 6.5440643e-24)
(-0.0017470795 -3.1960053e-07 6.1245139e-25)
(-0.0017078029 -3.2948825e-07 -5.9829147e-24)
(-0.0016669989 -3.363159e-07 3.3222255e-24)
(-0.0016265779 -3.523562e-07 -3.6665984e-24)
(-0.0015858799 -3.6082493e-07 5.4134236e-24)
(-0.0015457458 -3.5827588e-07 -1.3848317e-24)
(-0.0015055418 -3.5633249e-07 -2.7273084e-24)
(-0.0014659005 -3.5475602e-07 8.7582049e-25)
(-0.0014264764 -3.5218846e-07 3.5499814e-24)
(-0.00138774 -3.5305761e-07 -4.1211768e-24)
(-0.0013493015 -3.5429732e-07 3.6118775e-24)
(-0.0013114897 -3.5801871e-07 -3.9491913e-24)
(-0.0012741269 -3.604385e-07 2.0287902e-24)
(-0.0012372375 -3.7236402e-07 2.3242303e-24)
(-0.0012008286 -3.7459476e-07 3.7793653e-24)
(-0.0011651388 -3.7784725e-07 -4.3199494e-24)
(-0.0011298359 -3.8075671e-07 -2.9799544e-24)
(-0.0010953103 -3.9276752e-07 3.8452876e-24)
(-0.0010612167 -3.9734309e-07 -8.1976465e-24)
(-0.0010278514 -4.0370573e-07 7.6395886e-24)
(-0.00099486989 -4.1057772e-07 -4.5388156e-24)
(-0.00096296969 -4.2914027e-07 3.9605491e-24)
(-0.00093111026 -4.3737369e-07 -4.6143129e-24)
(-0.00090051286 -4.4745983e-07 -3.1887341e-24)
(-0.00087015814 -4.5803908e-07 2.5172011e-24)
(-0.0008409777 -4.7428362e-07 -3.2388532e-24)
(-0.00081270483 -4.7316534e-07 8.3323178e-24)
(-0.00078516803 -4.7867179e-07 -5.0748129e-24)
(-0.00075878327 -4.7871363e-07 4.449233e-24)
(-0.00073268052 -4.9731849e-07 -7.6387848e-24)
(-0.00070810346 -5.2265936e-07 7.0749195e-25)
(-0.00068406838 -5.3128142e-07 2.6472657e-24)
(-0.00066153655 -5.360894e-07 2.9800483e-24)
(-0.00064147518 -5.4124344e-07 -1.1395408e-23)
(-0.00062164336 -5.0756734e-07 6.6534507e-17)
(-0.00060452676 -5.104298e-07 6.701128e-17)
(-0.00058782195 -5.5549755e-07 -3.4032694e-24)
(-0.00057607845 -5.4193481e-07 -5.0769684e-24)
(-0.00056393977 -3.8091011e-07 4.43584e-24)
(-0.00055774004 -6.3843457e-07 8.0917101e-25)
(-0.00055224229 -6.1763706e-07 -1.467272e-24)
(-0.00055407758 -5.8742783e-07 -6.9009241e-17)
(-0.00055140637 -6.1398349e-07 -6.9419066e-17)
(-0.00055151883 -6.6795857e-06 -1.2428918e-20)
(-0.00055299592 -2.8509144e-05 1.2893501e-19)
(-0.00055116426 -5.0594155e-05 5.8549802e-20)
(-0.00055903966 -7.3598476e-05 -3.8048034e-19)
(-0.00055265037 -9.4848211e-05 -6.3525927e-20)
(-0.00054280348 -0.00011447429 -4.2712626e-19)
(-0.00053068256 -0.00013104679 2.8737649e-20)
(-0.00051139044 -0.00014522305 -4.5209032e-21)
(-0.00049107316 -0.00017275526 1.6253283e-19)
(-0.00047319645 -0.00016133587 -1.2997999e-19)
(-0.00041247397 -0.00015366099 4.3384182e-19)
(-0.00028069701 -0.00035565654 0)
(-0.00039222751 -5.0150493e-05 0)
(-0.00024656649 -0.00014494482 0)
(-0.00026404642 -0.00013237988 1.5975078e-19)
(-0.0029832031 0.0015844798 0)
(0.00044415705 -0.0002869959 0)
(0.00076545834 0.00016986827 -3.9969848e-19)
(0.00058441084 5.3944527e-05 -4.0616091e-20)
(-0.0015423315 8.794774e-05 0)
(0.00081426794 0.0026773121 1.1402624e-21)
(-0.0013146139 -0.006835461 0)
(0.00013662523 -0.00092795791 -1.8683879e-20)
(-0.00011668978 0.00043303017 -7.4629898e-19)
(0.0030709928 0.002552552 6.0635751e-21)
(0.0048601181 0.00049411073 2.1769087e-19)
(0.0035939398 -0.0078650546 0)
(0.0038223245 0.0018499371 -1.6995887e-19)
(0.0010153004 0.00092977036 -4.1818309e-20)
(0.0052964179 0.0031786836 1.5845826e-20)
(0.0047980156 0.0028510573 0)
(0.0028806118 0.0036182997 4.7037281e-19)
(0.0018165041 0.0036913632 -2.5082776e-18)
(0.0051618183 -0.0046242337 0)
(-0.0058921523 0.010160389 0)
(0.0015937626 0.0061679848 1.9195696e-19)
(0.0022368661 0.0019737993 1.7015109e-20)
(0.0055488586 0.0023376041 -3.2861403e-19)
(0.0029092255 0.0019939384 1.104925e-18)
(0.020790048 -0.014030227 -2.8876595e-20)
(-0.00043136366 0.014890046 0)
(0.0089134191 -0.0045892033 0)
(0.014614414 -0.0020310553 3.8257676e-19)
(0.0052210015 0.0016439368 -3.5043616e-19)
(0.0024111821 -0.00090590261 -1.8958309e-20)
(-0.021111201 0.045950073 -2.2478749e-20)
(-0.053332546 0.091299492 0)
(0.01788651 -0.0014456212 -4.0228922e-19)
(-0.0055024112 0.0037111057 -1.6755296e-20)
(0.012103398 0.012489164 -8.9365772e-20)
(0.012301407 0.0097450286 4.4320253e-19)
(0.0031881131 0.022910742 0)
(0.016424241 0.0099256628 -8.0353171e-20)
(0.014248858 0.0099032929 0)
(0.019124081 0.0061060792 0)
(0.018170748 0.0045202602 1.3716308e-19)
(0.015170641 0.0025871898 -3.1500691e-20)
(0.012817738 0.0014773765 0)
(0.010134744 0.00070320091 0)
(0.0080151883 0.00024995461 -2.2398542e-20)
(0.0061088381 4.6173433e-05 -1.0364858e-20)
(0.0053875904 -2.8297193e-05 -5.5313861e-21)
(0.0041955292 -1.8222373e-05 -5.1733182e-22)
(0.016405908 6.231118e-05 1.1513379e-21)
(0.016763991 7.2709343e-05 7.0067763e-22)
(0.018965378 -0.00012169374 -2.9241005e-21)
(0.018237054 -0.0005441099 2.8821223e-20)
(0.016582531 -0.0011047484 3.6236037e-22)
(0.011342346 -0.0013009101 4.5726914e-20)
(0.005486971 -0.00095282395 -1.717137e-20)
(-0.0010311112 0.00027953502 3.2846465e-20)
(-0.0053034846 0.0017914196 2.0807355e-20)
(-0.0068075343 0.0028974978 -1.6315873e-20)
(-0.0061005075 0.0029884369 -1.1585461e-21)
(-0.0044251768 0.0025721757 6.5177269e-24)
(-0.0031164706 0.0019962261 0)
(-0.0026173936 0.0017535182 1.938946e-21)
(-0.0021125912 0.0016437669 -1.8669077e-20)
(-0.002423569 0.001896365 7.493582e-21)
(-0.0021501209 0.0017612471 -2.5077284e-21)
(-0.0021568371 0.0017668672 -2.0678797e-22)
(-0.0021759936 0.0018091101 -7.6764079e-21)
(-0.0020656238 0.0016688568 1.3763212e-21)
(-0.0019234454 0.0016367185 -2.6948237e-21)
(-0.0018204453 0.0015603819 4.2471062e-21)
(-0.0017257809 0.0014721529 5.2947018e-21)
(-0.0016536383 0.0013934061 1.2694327e-20)
(-0.0016459206 0.0012928993 -8.6536225e-22)
(-0.0015983634 0.0013127878 -4.3681655e-21)
(-0.0015974772 0.0013023087 0)
(-0.0016035224 0.0012884182 3.350525e-21)
(-0.0016311654 0.0013028511 1.342867e-21)
(-0.0016646009 0.0013208576 6.2974699e-21)
(-0.0017233366 0.0013561966 -8.6750171e-21)
(-0.0017942233 0.0013954956 -4.7107032e-21)
(-0.0018782856 0.0014653254 -7.707604e-22)
(-0.0019813642 0.0015378538 -1.340041e-21)
(-0.0020949133 0.0016207728 -1.4080803e-23)
(-0.0022133954 0.0017082334 2.7117386e-21)
(-0.0023268801 0.0017906667 1.2484073e-21)
(-0.0024326347 0.0018553371 -3.3647877e-23)
(-0.0025426916 0.0019182849 -8.1267875e-22)
(-0.0026067596 0.0019372382 -1.7785381e-23)
(-0.0026262294 0.0019149815 1.330692e-25)
(-0.0027593228 0.0019969915 -3.7318057e-21)
(-0.0028507683 0.0020156079 -1.0718528e-21)
(-0.0029366512 0.0020184784 -9.7129612e-22)
(-0.0029955204 0.0019931481 2.3358708e-21)
(-0.0030382504 0.0019460734 -1.4599053e-20)
(-0.0030673404 0.0018789901 4.9440646e-21)
(-0.0030768945 0.0017893644 -3.7993619e-21)
(-0.0030857956 0.0016903872 -4.0411017e-22)
(-0.0030933712 0.0015870166 -3.668626e-21)
(-0.0030936179 0.0014772597 2.5965518e-21)
(-0.0030808369 0.0013342749 -2.3629797e-21)
(-0.0030467008 0.0012339264 -1.0160257e-21)
(-0.0029973945 0.0011024552 3.2769842e-21)
(-0.0029365955 0.00096807289 -9.0244304e-22)
(-0.0028426793 0.00082446946 5.7285775e-22)
(-0.0027461019 0.00069092217 -8.7698799e-21)
(-0.0026096661 0.00055627991 6.7585448e-21)
(-0.0025116023 0.00043417758 -1.774635e-21)
(-0.0023730064 0.00031504835 1.4448757e-22)
(-0.0023591006 0.00021773084 2.8735655e-22)
(-0.0023289014 0.00012146516 2.0200843e-21)
(-0.0027382669 3.8085689e-05 -6.155753e-23)
(-0.0035807865 6.9282359e-06 7.3861561e-26)
(-0.0041716667 5.7702221e-06 -3.838175e-27)
(-0.004727424 5.1002635e-06 -1.9442657e-26)
(-0.0052096454 5.0108181e-06 6.2321897e-26)
(-0.0056479202 4.1567411e-06 -4.1047672e-26)
(-0.0060372728 7.2538045e-06 6.8301179e-28)
(-0.0063994544 3.2883913e-06 5.6177963e-27)
(-0.0067159906 3.0731556e-06 -4.4012361e-27)
(-0.0070105808 2.791905e-06 -1.3670668e-26)
(-0.0072760929 2.5327413e-06 -9.4685405e-27)
(-0.0075201323 2.3599138e-06 -2.6052541e-26)
(-0.0077453691 2.1913836e-06 -4.6598845e-26)
(-0.0079556132 2.0228475e-06 1.969172e-25)
(-0.0081517724 1.8934678e-06 -1.6503368e-25)
(-0.0083354977 1.798073e-06 1.1411719e-25)
(-0.0085084594 1.6950631e-06 -6.2030905e-26)
(-0.008671714 1.5800572e-06 2.7057537e-25)
(-0.0088261595 1.4949187e-06 -5.9639029e-26)
(-0.0089730325 1.4328697e-06 -8.91556e-26)
(-0.0091124257 1.3593842e-06 -1.2084508e-25)
(-0.0092447327 1.2774314e-06 -1.5469332e-25)
(-0.0093705801 1.2166306e-06 -1.9065003e-25)
(-0.0094906199 1.1759641e-06 -2.2844596e-25)
(-0.0096046785 1.1209907e-06 5.7385899e-25)
(-0.0097129971 1.0566279e-06 1.1327825e-25)
(-0.0098157303 1.0067261e-06 8.9405816e-25)
(-0.0099130061 9.8382795e-07 -1.4177541e-24)
(-0.010005338 9.3854779e-07 1.0014776e-24)
(-0.010092184 8.8826354e-07 -2.7124094e-25)
(-0.010173789 8.335035e-07 -9.9887002e-25)
(-0.010250172 7.6776255e-07 -4.0975356e-25)
(-0.010321367 7.064495e-07 4.1437142e-25)
(-0.010387246 6.4086358e-07 2.5891504e-25)
(-0.010448008 5.8549337e-07 7.5444664e-25)
(-0.010503563 5.3496821e-07 6.0379309e-25)
(-0.010553917 4.8592327e-07 -1.8004408e-24)
(-0.010598984 4.4076336e-07 6.0374081e-25)
(-0.010638711 3.9876427e-07 3.8654874e-25)
(-0.010673257 3.7995127e-07 1.029783e-24)
(-0.010702348 3.3433965e-07 -2.2201704e-24)
(-0.01072641 2.856449e-07 1.0747841e-24)
(-0.010745267 2.3247923e-07 4.8581143e-25)
(-0.010758874 1.7583895e-07 8.9301675e-25)
(-0.010767239 1.2897848e-07 -2.2906006e-24)
(-0.010770208 1.2857733e-08 5.1391679e-25)
(-0.010768036 -5.9947691e-10 1.4786737e-25)
(-0.010760662 -4.9485817e-08 1.8773926e-24)
(-0.010748057 -1.0195186e-07 -1.6045758e-24)
(-0.01073019 -1.6400259e-07 6.496191e-25)
(-0.010707382 -2.082951e-07 -6.1794043e-27)
(-0.010679417 -2.4668937e-07 -2.0750356e-24)
(-0.010646511 -2.9470038e-07 3.959746e-25)
(-0.010608385 -3.4278709e-07 4.6418876e-25)
(-0.010565239 -3.908221e-07 2.9165114e-25)
(-0.010517234 -4.199736e-07 7.9128723e-25)
(-0.010464206 -4.5847801e-07 7.3577448e-26)
(-0.010407489 -5.1400008e-07 -4.3925087e-25)
(-0.010347005 -5.6607906e-07 2.5533699e-25)
(-0.010281684 -6.0750386e-07 -3.6942173e-25)
(-0.010211539 -6.5196466e-07 1.5889616e-25)
(-0.010137337 -7.0195175e-07 -2.4702314e-25)
(-0.010059558 -7.4708193e-07 5.5337025e-25)
(-0.0099777882 -7.8624021e-07 -1.0310321e-24)
(-0.0098918749 -8.2596791e-07 -2.2761552e-25)
(-0.0098024376 -8.6809171e-07 4.0740983e-25)
(-0.0097097823 -9.0584511e-07 7.7964135e-25)
(-0.0096137245 -9.4033728e-07 -1.0309569e-25)
(-0.0095143662 -9.7349606e-07 -2.2810929e-25)
(-0.0094119117 -1.0047947e-06 -4.3025321e-25)
(-0.0093065911 -1.0330301e-06 3.9729351e-25)
(-0.009198612 -1.0595494e-06 -9.6803514e-26)
(-0.0090879677 -1.0846074e-06 -7.8112343e-27)
(-0.0089748113 -1.1088773e-06 -4.9697206e-26)
(-0.0088594397 -1.1305698e-06 6.6035948e-27)
(-0.0087419304 -1.1519595e-06 2.3718846e-25)
(-0.0086224263 -1.1704233e-06 -4.3170528e-25)
(-0.0085010481 -1.1881932e-06 -7.1943757e-26)
(-0.0083780176 -1.2045652e-06 -2.9903172e-25)
(-0.0082534514 -1.2219791e-06 8.7978497e-25)
(-0.0081274694 -1.2366169e-06 7.4680339e-25)
(-0.0080001642 -1.2509519e-06 -1.3535531e-25)
(-0.007871579 -1.2677565e-06 -1.8778208e-24)
(-0.0077424168 -1.2942334e-06 -1.1222501e-24)
(-0.0076118075 -1.3059286e-06 1.6426918e-24)
(-0.0074800692 -1.2959671e-06 2.5507599e-24)
(-0.0073486309 -1.2979803e-06 -4.319467e-24)
(-0.0072162281 -1.3040466e-06 1.0660741e-24)
(-0.0070835082 -1.306092e-06 -9.8868179e-26)
(-0.0069504933 -1.3021338e-06 2.1472015e-24)
(-0.006817385 -1.3010402e-06 -1.5779159e-24)
(-0.0066839424 -1.3083845e-06 7.7757627e-25)
(-0.0065512183 -1.3042361e-06 1.0954139e-24)
(-0.0064177006 -1.2970115e-06 2.411146e-24)
(-0.0062863554 -1.2891465e-06 -6.0429082e-24)
(-0.006153159 -1.3051668e-06 2.4266154e-24)
(-0.0060218097 -1.3211946e-06 -9.0852287e-26)
(-0.0058831729 -1.3525565e-06 -3.7148721e-24)
(-0.005745195 -1.397386e-06 -1.3754409e-25)
(-0.0056025023 -1.9595867e-06 6.686804e-24)
(-0.0054534788 -1.8770245e-06 2.0240339e-24)
(-0.0053299399 -1.230661e-06 -4.7770598e-24)
(-0.0052159084 -1.1556904e-06 5.9989695e-24)
(-0.0050981457 -1.1983607e-06 8.1509216e-25)
(-0.0049757517 -1.2277841e-06 -5.3557361e-24)
(-0.0048542171 -1.2672495e-06 9.5134745e-24)
(-0.0047318028 -1.2773674e-06 -7.0228321e-24)
(-0.0046111751 -1.2555138e-06 9.3356138e-25)
(-0.0044902826 -1.2325211e-06 1.307711e-24)
(-0.0043710056 -1.2044228e-06 -6.7131798e-24)
(-0.0042523664 -1.1763897e-06 7.4910476e-24)
(-0.0041357115 -1.1462083e-06 1.4753688e-24)
(-0.004019978 -1.1251683e-06 -3.8321463e-24)
(-0.0039061576 -1.1010154e-06 -3.9031237e-24)
(-0.0037937685 -1.0904646e-06 -7.5700923e-24)
(-0.0036828104 -1.0963517e-06 1.3764407e-23)
(-0.003573274 -1.0820021e-06 9.6218446e-24)
(-0.0034658829 -1.0569394e-06 -2.0857049e-23)
(-0.0033597002 -1.0420649e-06 2.0821889e-23)
(-0.0032558723 -1.0426519e-06 -6.2015518e-24)
(-0.0031533417 -1.0310789e-06 -9.695538e-24)
(-0.0030529973 -1.0156471e-06 -8.0249641e-24)
(-0.0029538739 -1.0077204e-06 -3.3871621e-25)
(-0.0028579996 -1.0320424e-06 1.8187343e-23)
(-0.0027621929 -1.0287681e-06 -1.3503808e-23)
(-0.0026702219 -1.0153275e-06 8.5030828e-24)
(-0.0025790575 -1.0249429e-06 -1.3619019e-23)
(-0.0024914554 -1.0735906e-06 1.5164261e-23)
(-0.0024064238 -1.0604956e-06 -8.402428e-24)
(-0.0023235017 -9.9897867e-07 5.0140726e-24)
(-0.0022441684 -9.6882472e-07 1.6887282e-24)
(-0.0021655918 -9.7960723e-07 -8.5873426e-24)
(-0.0020916183 -9.653422e-07 8.9339317e-24)
(-0.0020192413 -9.3803238e-07 -1.2483201e-25)
(-0.0019515899 -9.3482249e-07 3.4880256e-24)
(-0.0018913556 -9.8840683e-07 -1.6320824e-23)
(-0.0018316592 -9.5993834e-07 1.1035248e-23)
(-0.001779848 -8.6565371e-07 3.5405248e-24)
(-0.0017294315 -7.9623988e-07 -1.6618065e-23)
(-0.0016932957 -7.8290245e-07 1.6376903e-23)
(-0.0016563922 -3.1676919e-07 1.1365005e-23)
(-0.0016370997 -5.5231609e-07 -1.6822224e-23)
(-0.0016198711 -5.0792135e-07 1.3267239e-23)
(-0.0016244204 -2.3217487e-07 -1.8826723e-23)
(-0.0016167736 -1.8765069e-07 -2.000423e-23)
(-0.0016177045 -1.9236887e-05 2.8366846e-20)
(-0.0016227488 -8.3559968e-05 1.2345427e-20)
(-0.0016177507 -0.00014932421 5.9766088e-21)
(-0.001640697 -0.00021843794 3.9775323e-19)
(-0.0016213924 -0.00028159706 1.9948021e-19)
(-0.0015940377 -0.00034091789 9.2316492e-19)
(-0.0015596295 -0.000392613 8.221294e-19)
(-0.0015036242 -0.00044014709 -2.1599472e-19)
(-0.0014605334 -0.00048165564 -2.7242471e-19)
(-0.0013780669 -0.00051119815 6.1182873e-20)
(-0.0012299767 -0.00048453384 -2.0378101e-19)
(-0.00097060157 -0.00089114272 3.8886566e-20)
(-0.0011147031 -0.00029150767 -2.2439603e-20)
(-0.00069420187 -0.00048476136 -2.4572127e-20)
(-0.0007182755 -0.00031519201 -1.1837918e-19)
(-0.0050800155 0.0021582503 2.4764274e-19)
(0.0018305252 -0.0011346659 4.0474368e-20)
(0.0015190767 0.00037926933 1.7437664e-20)
(0.00091043366 0.00022685475 -1.2034083e-19)
(-0.0032565505 0.00031940631 7.7877921e-22)
(0.0044082616 0.0057243119 -1.1363523e-21)
(-0.0081390785 -0.0157085 -3.9237567e-19)
(-0.00059311362 -0.0020213301 7.9607233e-20)
(0.00091132042 0.0009712798 -1.4984828e-19)
(0.01017486 0.0073490064 1.4912351e-20)
(0.011618591 0.0070974285 0)
(-0.002430613 -0.0047846186 -2.4014456e-19)
(0.0095462474 0.006788898 -3.4009061e-19)
(0.0036600252 -0.00020987764 9.9172961e-20)
(0.014370337 0.0099308953 1.0052356e-19)
(0.012912613 0.0088299545 1.1671116e-21)
(0.010511889 0.009125466 -3.894737e-19)
(0.0093355753 0.0095962185 1.0535338e-19)
(0.0091477737 -0.0084704046 4.3746793e-19)
(-0.0086955116 0.019342471 -4.3920516e-19)
(0.0104996 0.012413073 4.5586387e-20)
(0.0082978316 0.0065159002 -1.2419736e-19)
(0.011815917 0.0094747243 -6.1088106e-18)
(0.0070097891 0.0056247393 7.7348006e-19)
(0.017403692 0.010180526 2.0011562e-19)
(0.013793565 0.028540062 -1.8698911e-19)
(0.027419456 -0.014246789 -7.3062059e-19)
(0.032940972 0.002972655 -1.45729e-19)
(0.015536649 0.0047777775 2.6524643e-20)
(0.0048835126 -0.0018026561 3.9495233e-20)
(-0.035120977 0.094565805 1.4959095e-19)
(0.01911807 0.04387729 -1.2151359e-18)
(0.025643658 0.030012034 3.7254585e-19)
(-0.0064306499 -0.0018058683 -1.6045199e-20)
(0.038502558 0.035976196 1.8777265e-20)
(0.04041308 0.024710586 -4.7681191e-19)
(0.038655337 0.025052063 1.1619005e-18)
(0.050744128 0.029212284 3.6070794e-20)
(0.043339797 0.02759649 1.1463015e-19)
(0.056477462 0.018675468 -1.2700783e-20)
(0.053747446 0.013602063 2.6881985e-19)
(0.045549701 0.0077264637 -2.402001e-20)
(0.038582903 0.004517966 -1.2887263e-21)
(0.030766724 0.0021967933 -4.4110148e-22)
(0.02463856 0.00079598198 5.8500514e-21)
(0.018910772 0.00015795591 1.530016e-20)
(0.016755751 -8.4163634e-05 2.6877693e-21)
(0.013211834 -5.3855898e-05 1.7455973e-21)
(0.028167761 9.3083318e-05 1.064642e-21)
(0.028692912 0.00011796682 -2.3772177e-22)
(0.032230961 -0.00021295553 -3.0919606e-22)
(0.031003404 -0.00091740577 -1.4325822e-20)
(0.028255281 -0.0018515614 3.6351558e-20)
(0.01957365 -0.0021961658 -3.0123557e-20)
(0.0097958923 -0.0016365332 1.6835868e-20)
(-0.0011530546 0.00038746567 -6.9078072e-20)
(-0.0085149183 0.0029117333 2.8465226e-20)
(-0.011228083 0.0047944967 5.962202e-22)
(-0.010142557 0.0049932242 2.1330828e-21)
(-0.0074691051 0.0042971442 0)
(-0.0052782502 0.0033941245 -6.8249887e-22)
(-0.0043439635 0.0030761693 4.7933249e-21)
(-0.0036399191 0.0027101769 2.7443468e-20)
(-0.004092909 0.0031826732 -2.1184258e-21)
(-0.0036591706 0.0029693282 3.6810378e-22)
(-0.0036280259 0.0029898975 1.2305858e-21)
(-0.0036229631 0.0031039558 1.9585559e-20)
(-0.0034202084 0.0028929058 -9.9487274e-21)
(-0.0032319696 0.0027699854 -5.7748536e-21)
(-0.0030660132 0.0026316843 -2.4088146e-21)
(-0.0029104431 0.0024777729 6.1334008e-21)
(-0.0027910867 0.0023505903 -1.396231e-20)
(-0.0027486506 0.0022216282 1.4250201e-22)
(-0.0026915955 0.0022212971 -3.7709206e-21)
(-0.002690614 0.0022010255 1.2098809e-21)
(-0.002699176 0.002183236 3.2134455e-21)
(-0.0027500017 0.0022036849 1.3564476e-22)
(-0.0028086591 0.0022334973 3.0085418e-21)
(-0.0029069445 0.0022947513 -1.0513296e-21)
(-0.0030177042 0.0023739383 -8.1723013e-22)
(-0.0031719044 0.0024722569 -2.7909187e-21)
(-0.0033438957 0.0025967984 1.0870737e-22)
(-0.0035347919 0.0027361858 -4.3945209e-21)
(-0.0037335899 0.0028834136 -2.4194268e-21)
(-0.0039240152 0.0030223218 -2.3801757e-22)
(-0.004099793 0.0031348442 -2.4539332e-23)
(-0.0042807442 0.003246101 -1.0819591e-22)
(-0.0043846499 0.0032864836 1.2936232e-22)
(-0.0044251992 0.0032526112 9.6872839e-25)
(-0.0046567197 0.0033712943 5.8487612e-21)
(-0.004806923 0.0033973225 4.6579412e-21)
(-0.0049482415 0.0034040963 1.599828e-23)
(-0.0050484007 0.0033613682 -1.8639342e-20)
(-0.0051208035 0.0032816892 7.2547222e-21)
(-0.0051704031 0.0031692729 9.3960442e-21)
(-0.0051882757 0.0030192077 8.2918512e-21)
(-0.0052055235 0.0028531004 1.3455365e-21)
(-0.005219463 0.0026787023 -3.5485022e-21)
(-0.0052216544 0.0024944273 1.3380037e-20)
(-0.0052013608 0.0022664928 8.6227391e-22)
(-0.0051477943 0.0020859407 1.7530873e-21)
(-0.0050676795 0.0018636736 1.5696543e-20)
(-0.0049692499 0.0016349859 -7.9955403e-21)
(-0.0048144546 0.0013981688 -6.2839599e-22)
(-0.0046574116 0.0011725187 3.1258541e-21)
(-0.0044350642 0.00094387936 -3.8766016e-21)
(-0.0042765459 0.00073856049 3.5535608e-21)
(-0.0040533292 0.00053751199 6.9282091e-21)
(-0.004037121 0.00037267753 3.1691904e-22)
(-0.0040030132 0.00021081558 -1.2153172e-22)
(-0.0046968595 7.2280286e-05 8.70233e-23)
(-0.0060978095 2.005292e-05 -4.5363844e-26)
(-0.0070893774 1.6264751e-05 1.5579776e-26)
(-0.0080198136 1.4549393e-05 -5.8259826e-27)
(-0.0088263508 1.3447473e-05 4.4123272e-26)
(-0.009560871 1.1786932e-05 -1.6360843e-26)
(-0.010213227 1.5105239e-05 -1.3843731e-27)
(-0.01081564 9.4277921e-06 2.5763154e-26)
(-0.011346071 8.6579881e-06 -2.530651e-26)
(-0.011838753 7.8794731e-06 -1.3705777e-26)
(-0.0122829 7.1659774e-06 4.3196589e-27)
(-0.012691135 6.6078818e-06 -1.669907e-26)
(-0.013067909 6.1380188e-06 -2.2732254e-26)
(-0.013419523 5.7011291e-06 -5.8823441e-26)
(-0.013747613 5.3282863e-06 4.1326326e-26)
(-0.014054857 5.0153613e-06 -4.8105173e-26)
(-0.014344114 4.7311004e-06 2.3987086e-25)
(-0.014617116 4.4464786e-06 -2.5700341e-25)
(-0.014875299 4.2133279e-06 1.2973402e-25)
(-0.015120759 4.0094635e-06 4.8711507e-25)
(-0.015353703 3.8067046e-06 -3.6399131e-25)
(-0.015574723 3.6014131e-06 -1.549171e-25)
(-0.015784868 3.4284725e-06 6.9065682e-25)
(-0.015985225 3.2750299e-06 -5.28891e-25)
(-0.016175509 3.1155889e-06 3.1366645e-25)
(-0.016356149 2.9470551e-06 -2.2569421e-25)
(-0.016527369 2.7955901e-06 -1.1799782e-25)
(-0.016689322 2.6724582e-06 3.9607092e-25)
(-0.016842983 2.5359438e-06 4.5777425e-25)
(-0.016987384 2.3839265e-06 -1.7171138e-24)
(-0.0171229 2.2382069e-06 1.3033424e-24)
(-0.017249639 2.0750253e-06 -3.6311994e-25)
(-0.017367584 1.9231584e-06 -1.2001892e-24)
(-0.017476616 1.7616993e-06 5.198313e-25)
(-0.017576963 1.6151469e-06 1.7208705e-24)
(-0.017668544 1.4673782e-06 -3.2376747e-25)
(-0.017751368 1.3243646e-06 -4.9046975e-25)
(-0.017825285 1.1790622e-06 -4.20402e-25)
(-0.017890246 1.0373733e-06 -4.6757004e-25)
(-0.017946377 9.0617472e-07 9.6590424e-25)
(-0.017993454 7.6491915e-07 -4.9136664e-25)
(-0.018032035 6.220627e-07 -6.9865871e-25)
(-0.018061822 4.7998977e-07 1.1086698e-24)
(-0.018082803 3.2473973e-07 -5.7346185e-25)
(-0.01809493 1.9137467e-07 -6.25875e-25)
(-0.018098084 -4.0443444e-08 6.166725e-25)
(-0.01809253 -1.3271109e-07 1.0636147e-24)
(-0.018078226 -2.8311044e-07 1.3416048e-25)
(-0.018055184 -4.3018719e-07 -8.9983831e-25)
(-0.018023358 -5.8764154e-07 -7.5190087e-25)
(-0.017983183 -7.301784e-07 2.4716023e-24)
(-0.01793436 -8.6897125e-07 -3.9111485e-24)
(-0.017877288 -1.0066125e-06 3.3219468e-24)
(-0.017811499 -1.1477372e-06 -2.8391039e-24)
(-0.017737431 -1.2881841e-06 1.1206386e-24)
(-0.017654867 -1.4097154e-06 5.3044344e-25)
(-0.017564112 -1.5111457e-06 1.3637657e-25)
(-0.017467415 -1.6372154e-06 -9.8738905e-25)
(-0.017364145 -1.7703862e-06 6.1171215e-25)
(-0.017252721 -1.8981221e-06 -5.8149647e-25)
(-0.017133365 -2.011391e-06 9.2991431e-25)
(-0.017007365 -2.1311434e-06 4.1288775e-25)
(-0.016875215 -2.2449085e-06 -1.0563685e-24)
(-0.016736385 -2.3567335e-06 -6.4457358e-26)
(-0.01659071 -2.4563002e-06 1.2922776e-25)
(-0.016439222 -2.5598985e-06 -6.4979305e-26)
(-0.016282267 -2.6551464e-06 -6.7795929e-26)
(-0.016119657 -2.7492324e-06 2.6362507e-25)