/*--------------------------------*- C++ -*----------------------------------*\
| =========                 |                                                 |
| \\      /  F ield         | OpenFOAM: The Open Source CFD Toolbox           |
|  \\    /   O peration     | Version:  2.4.0                                 |
|   \\  /    A nd           | Web:      www.OpenFOAM.org                      |
|    \\/     M anipulation  |                                                 |
\*---------------------------------------------------------------------------*/
FoamFile
{
    version     2.0;
    format      ascii;
    class       volScalarField;
    location    "390";
    object      nut;
}
// * * * * * * * * * * * * * * * * * * * * * * * * * * * * * * * * * * * * * //

dimensions      [0 2 -1 0 0 0 0];

internalField   nonuniform List<scalar> 
78300
(
2.8996953e-12
1.5483959e-12
4.5081827e-12
2.7418494e-12
3.3920097e-12
1.1059238e-12
4.6558287e-13
4.6075683e-14
2.5088105e-13
5.5200527e-13
3.7980805e-13
3.0137039e-13
1.6773173e-13
1.3256898e-13
9.033465e-14
8.1467644e-14
6.4240281e-14
6.1203043e-14
5.232703e-14
4.9213949e-14
4.307925e-14
4.0024086e-14
3.5781494e-14
3.4328093e-14
3.2665808e-14
3.2484216e-14
3.2382363e-14
3.3467347e-14
3.495783e-14
3.7651023e-14
4.114376e-14
4.6037261e-14
5.2165604e-14
6.0000406e-14
6.9353945e-14
8.026943e-14
9.167171e-14
1.0373863e-13
1.1656761e-13
1.2993879e-13
1.4370787e-13
1.5742924e-13
1.7079791e-13
1.8312307e-13
1.9409899e-13
2.0279713e-13
2.0962471e-13
2.1493216e-13
2.1872949e-13
2.2433456e-13
2.2630698e-13
2.2818583e-13
2.273079e-13
2.1986055e-13
2.1368239e-13
2.0278501e-13
1.8965815e-13
1.6958524e-13
1.5770176e-13
1.3658731e-13
1.3601862e-13
1.2694978e-13
1.8276147e-13
3.2398103e-13
4.4257287e-13
5.844335e-13
7.1092086e-13
8.4291909e-13
9.6669791e-13
1.094486e-12
1.2113542e-12
1.3290194e-12
1.4378119e-12
1.5457703e-12
1.6466987e-12
1.745931e-12
1.839425e-12
1.9303703e-12
2.0157278e-12
2.1094436e-12
2.1883179e-12
2.2640871e-12
2.3358881e-12
2.4045667e-12
2.4694107e-12
2.5309665e-12
2.5887493e-12
2.6431147e-12
2.6937337e-12
2.7408988e-12
2.784248e-12
2.8225601e-12
2.8438555e-12
2.8776494e-12
2.9081837e-12
2.9351347e-12
2.9573993e-12
2.9947647e-12
3.0114631e-12
3.025037e-12
3.0364368e-12
3.0459978e-12
3.0548358e-12
3.06375e-12
3.0745613e-12
3.0852902e-12
3.0692048e-12
3.0587284e-12
3.0446355e-12
3.0255161e-12
3.0033582e-12
2.9782481e-12
2.9506188e-12
2.9205064e-12
2.8881564e-12
2.8536259e-12
2.8170999e-12
2.7786569e-12
2.7384566e-12
2.696592e-12
2.6532094e-12
2.6084081e-12
2.5623222e-12
2.5150562e-12
2.4667415e-12
2.4174839e-12
2.3674053e-12
2.316606e-12
2.2651982e-12
2.2132818e-12
2.1609624e-12
2.1083344e-12
2.055495e-12
2.0025365e-12
1.9495503e-12
1.8966183e-12
1.8438154e-12
1.7912166e-12
1.7388936e-12
1.6869168e-12
1.6353477e-12
1.5842487e-12
1.533679e-12
1.4836939e-12
1.4343446e-12
1.3856794e-12
1.3377437e-12
1.2905776e-12
1.2442189e-12
1.1986992e-12
1.1540486e-12
1.1102946e-12
1.067459e-12
1.0255666e-12
9.8462926e-13
9.4467023e-13
9.056903e-13
8.6771296e-13
8.3072976e-13
7.947628e-13
7.5979574e-13
7.2584772e-13
6.9289712e-13
6.6096383e-13
6.3002355e-13
6.0010308e-13
5.7116532e-13
5.432355e-13
5.162591e-13
4.9027225e-13
4.6520839e-13
4.4111972e-13
4.1791881e-13
3.9567742e-13
3.7427888e-13
3.5382018e-13
3.3415042e-13
3.1540375e-13
2.9738774e-13
2.8028318e-13
2.6384682e-13
2.4831438e-13
2.3337868e-13
2.1934661e-13
2.0583364e-13
1.9323598e-13
1.8107218e-13
1.6984585e-13
1.5895819e-13
1.4904875e-13
1.3937417e-13
1.3073612e-13
1.2221093e-13
1.1480218e-13
1.0736935e-13
1.0116571e-13
9.4784008e-14
8.9786755e-14
8.4442647e-14
8.0691886e-14
7.6407685e-14
7.3995046e-14
7.0855774e-14
6.9954483e-14
6.8144745e-14
6.9008551e-14
6.8398406e-14
7.0190021e-14
7.218474e-14
7.3172979e-14
7.4941074e-14
7.3469423e-14
7.2441585e-14
6.8514258e-14
6.4777992e-14
5.8908339e-14
5.3144306e-14
4.6107382e-14
3.9307532e-14
3.2077172e-14
2.5404165e-14
1.9076645e-14
1.3724773e-14
9.2797213e-15
1.2228212e-14
1.9370049e-14
3.0281172e-14
4.6427919e-14
6.8637177e-14
9.8390929e-14
1.3617826e-13
1.8331225e-13
2.3959905e-13
3.0561615e-13
3.7863976e-13
4.5440034e-13
5.3331779e-13
6.1561888e-13
6.9940194e-13
7.8603516e-13
8.6338335e-13
9.3973325e-13
1.0301057e-12
1.1369846e-12
1.264613e-12
1.4131706e-12
1.5979981e-12
1.832804e-12
2.1766976e-12
2.5909041e-12
3.1440939e-12
3.8005724e-12
4.7047638e-12
5.7845776e-12
7.3444238e-12
9.2599745e-12
1.2165537e-11
1.5753032e-11
2.1072598e-11
2.6558831e-11
3.2916038e-11
3.3361995e-11
2.9940197e-11
2.1901542e-11
1.5907268e-11
8.5750007e-12
6.006674e-12
2.2841561e-12
2.5507154e-12
6.0573599e-13
1.7142021e-11
4.7556304e-12
2.2177571e-11
5.4903612e-12
2.4767109e-12
2.291283e-12
1.4914111e-12
6.4138747e-13
1.798436e-13
6.2483556e-13
4.1402943e-13
3.1404573e-13
1.7491155e-13
1.3568405e-13
9.3813348e-14
8.427593e-14
6.7603244e-14
6.4425268e-14
5.6037456e-14
5.3069252e-14
4.7375304e-14
4.4591771e-14
4.0799153e-14
3.9734036e-14
3.863881e-14
3.9049007e-14
3.9679996e-14
4.1572013e-14
4.4032783e-14
4.7832207e-14
5.2642274e-14
5.906544e-14
6.7005031e-14
7.6955743e-14
8.8798631e-14
1.0260305e-13
1.1736473e-13
1.3330078e-13
1.5061979e-13
1.6920425e-13
1.889882e-13
2.0959984e-13
2.3074394e-13
2.5165452e-13
2.7169365e-13
2.8896831e-13
3.0377338e-13
5.9591758e-13
1.6612529e-13
6.8190747e-13
1.7985302e-13
7.8701182e-13
8.3310507e-13
1.9262209e-13
1.9547451e-13
1.0085419e-12
4.6177885e-13
4.5872154e-13
4.565655e-13
4.4009673e-13
4.3752744e-13
4.2401082e-13
4.6509757e-13
3.0646646e-13
4.0702507e-13
2.0414503e-12
2.3247029e-12
7.2193518e-13
8.2085252e-13
9.228678e-13
1.0173267e-12
1.1121353e-12
1.2008228e-12
1.288861e-12
1.3721571e-12
1.4544343e-12
1.5332205e-12
1.6115102e-12
1.701865e-12
6.1900081e-12
6.4444965e-12
6.687569e-12
6.924809e-12
7.1570078e-12
7.3832468e-12
7.6040067e-12
7.8186071e-12
8.0274277e-12
8.2305263e-12
8.4298827e-12
8.6203549e-12
8.5303933e-12
2.4265456e-12
2.4608703e-12
2.4960807e-12
2.5314942e-12
2.5937839e-12
9.8218347e-12
9.9878784e-12
1.0141912e-11
1.0300435e-11
1.0470348e-11
1.0666041e-11
1.0917079e-11
1.1293655e-11
1.1825919e-11
5.7289711e-12
5.7635731e-12
5.7893203e-12
5.80833e-12
5.822629e-12
5.8326533e-12
5.8388536e-12
5.8413184e-12
5.8402778e-12
5.8358024e-12
5.8280622e-12
5.8171392e-12
5.8031845e-12
5.7862921e-12
5.7666051e-12
5.7442249e-12
5.7192866e-12
5.6918989e-12
5.6621983e-12
5.630298e-12
5.5963294e-12
5.5604029e-12
5.5226422e-12
5.4831602e-12
5.4420764e-12
5.3995005e-12
5.3555461e-12
5.3103225e-12
5.2639403e-12
5.2165005e-12
5.1680976e-12
5.1188244e-12
5.0687718e-12
5.0180289e-12
4.966676e-12
4.9147934e-12
4.8624595e-12
4.8097469e-12
4.7567277e-12
4.703468e-12
4.6500359e-12
4.5964912e-12
4.5428963e-12
4.4893025e-12
4.4357648e-12
4.3823316e-12
4.3290468e-12
4.2759557e-12
4.2230904e-12
4.1704915e-12
4.1181787e-12
4.0661896e-12
4.014534e-12
3.9632463e-12
3.9123284e-12
3.8618115e-12
3.8116749e-12
3.761975e-12
3.7126825e-12
3.6638415e-12
3.6154306e-12
3.5674865e-12
3.5199629e-12
3.4729014e-12
3.426241e-12
3.3800394e-12
3.3342131e-12
3.2888407e-12
3.2438026e-12
3.1992011e-12
3.1548718e-12
3.1109539e-12
3.0672279e-12
3.0238794e-12
2.9806251e-12
2.93771e-12
2.8947588e-12
2.8520973e-12
2.8092317e-12
2.7665958e-12
2.7235478e-12
2.6806548e-12
2.6370722e-12
2.5935541e-12
2.5490104e-12
2.5044287e-12
2.458386e-12
2.4121667e-12
2.3639333e-12
2.3153582e-12
2.264085e-12
2.2122699e-12
2.1569469e-12
2.1008688e-12
2.0403824e-12
1.9789133e-12
1.9121795e-12
1.8442296e-12
1.7707453e-12
1.6959202e-12
1.6097444e-12
1.5272529e-12
1.503056e-12
1.5098283e-12
1.5330422e-12
1.5561006e-12
1.5796725e-12
1.5989542e-12
1.6150476e-12
1.6262599e-12
1.6335043e-12
1.6365851e-12
1.6363799e-12
1.6335221e-12
1.6291559e-12
1.6249158e-12
1.6247747e-12
1.6301341e-12
1.6451021e-12
1.6663657e-12
1.6930185e-12
1.7260822e-12
1.7659278e-12
1.8134793e-12
1.8685949e-12
1.9317335e-12
2.0017862e-12
2.0773754e-12
2.1511978e-12
2.2175975e-12
2.2795895e-12
2.3388823e-12
2.3984897e-12
2.4241063e-12
6.8811321e-13
7.2486213e-13
7.6603725e-13
8.2624027e-13
9.0327822e-13
9.9539744e-13
1.1120121e-12
1.2626691e-12
1.4861937e-12
1.7570112e-12
2.1199466e-12
2.5474279e-12
3.0546161e-12
3.7410923e-12
4.7362802e-12
6.0026517e-12
1.2603917e-11
1.778821e-11
2.4566992e-11
3.1435003e-11
3.8707571e-11
3.9648684e-11
3.6278256e-11
2.8069701e-11
1.1179417e-11
6.0593002e-12
4.228305e-12
1.709028e-12
1.8542238e-12
2.3821037e-12
3.3699097e-10
7.6726161e-11
4.143793e-10
7.0875388e-11
5.4492816e-12
3.0250487e-11
2.4380393e-11
1.3313683e-11
3.5890285e-13
2.7944786e-12
1.5565789e-12
9.2624136e-13
5.1567895e-13
3.5528521e-13
2.7071052e-13
2.3806869e-13
2.1201016e-13
2.0275968e-13
1.934517e-13
1.8980462e-13
1.8556772e-13
1.846869e-13
1.8491629e-13
1.9007482e-13
1.9846038e-13
2.1066916e-13
2.2601433e-13
2.4557497e-13
2.6948138e-13
2.9894566e-13
3.3464966e-13
3.7796508e-13
4.2997999e-13
4.9222599e-13
5.6571879e-13
6.5106008e-13
7.4738731e-13
8.5599491e-13
9.7941884e-13
1.1193319e-12
1.2770741e-12
1.4532375e-12
1.6473834e-12
1.8564732e-12
2.0729498e-12
2.2749321e-12
2.4655191e-12
8.3283041e-12
4.441177e-13
1.011958e-11
6.058949e-13
1.2534707e-11
1.3532734e-11
9.1214226e-13
1.0707439e-12
1.8347849e-11
6.7031827e-12
7.0157257e-12
7.1878125e-12
7.2135785e-12
7.1674878e-12
7.0356212e-12
6.9126581e-12
1.7981563e-12
2.2274525e-12
3.2346817e-11
3.5639791e-11
3.2217661e-12
3.5516522e-12
3.8956883e-12
4.2328103e-12
4.566552e-12
4.8950301e-12
5.2215991e-12
5.5460903e-12
5.8725225e-12
6.204641e-12
6.5599681e-12
7.2169526e-12
8.9150022e-11
9.3074504e-11
9.6764741e-11
1.0042345e-10
1.0404678e-10
1.0763208e-10
1.1117613e-10
1.1467583e-10
1.1813066e-10
1.2155069e-10
1.2497456e-10
1.2828947e-10
1.250007e-10
1.0691278e-11
1.0913644e-11
1.1205673e-11
1.1548544e-11
1.2482901e-11
1.5081881e-10
1.5433457e-10
1.5758698e-10
1.6100234e-10
1.6473365e-10
1.6908874e-10
1.7473975e-10
1.8328286e-10
1.9533226e-10
7.0067357e-11
7.1011919e-11
7.1841257e-11
7.2614406e-11
7.3339458e-11
7.4024462e-11
7.4671389e-11
7.5281524e-11
7.5855441e-11
7.6393633e-11
7.6896454e-11
7.7364269e-11
7.7797464e-11
7.8196413e-11
7.8561572e-11
7.8893354e-11
7.9192277e-11
7.9458804e-11
7.9693543e-11
7.9897037e-11
8.0069942e-11
8.0212852e-11
8.0326433e-11
8.0411334e-11
8.0468248e-11
8.0497865e-11
8.05009e-11
8.0478067e-11
8.0430124e-11
8.0357795e-11
8.026179e-11
8.0142771e-11
8.0001428e-11
7.9838433e-11
7.965443e-11
7.9450034e-11
7.9225893e-11
7.8982595e-11
7.8720782e-11
7.8441029e-11
7.8144003e-11
7.7830287e-11
7.7500559e-11
7.715538e-11
7.6795404e-11
7.6421189e-11
7.603332e-11
7.5632318e-11
7.5218691e-11
7.4792906e-11
7.4355377e-11
7.3906512e-11
7.3446673e-11
7.2976218e-11
7.2495491e-11
7.2004825e-11
7.150417e-11
7.0994394e-11
7.0475308e-11
6.9947385e-11
6.9410839e-11
6.8866023e-11
6.8312906e-11
6.7751751e-11
6.7182436e-11
6.660527e-11
6.6020022e-11
6.5427106e-11
6.4826032e-11
6.4217266e-11
6.3599963e-11
6.2974725e-11
6.2340248e-11
6.1697305e-11
6.1044107e-11
6.0381736e-11
5.9707555e-11
5.9023107e-11
5.8324568e-11
5.761422e-11
5.688675e-11
5.6145412e-11
5.5382579e-11
5.4603124e-11
5.379665e-11
5.2970222e-11
5.2109399e-11
5.1224078e-11
5.0294658e-11
4.9335013e-11
4.8318987e-11
4.7265443e-11
4.6140726e-11
4.4969926e-11
4.3711483e-11
4.2396791e-11
4.0979083e-11
3.9493202e-11
3.7901687e-11
3.6231207e-11
3.4338194e-11
3.2484573e-11
3.1915093e-11
3.2046927e-11
3.2528355e-11
3.3066202e-11
3.3607329e-11
3.4107089e-11
3.4532779e-11
3.4889806e-11
3.5157119e-11
3.5355807e-11
3.5477405e-11
3.5548291e-11
3.5575606e-11
3.5599514e-11
3.5695938e-11
3.5896485e-11
3.6172775e-11
3.6510968e-11
3.6898355e-11
3.7330796e-11
3.780114e-11
3.8302401e-11
3.8822401e-11
3.9347259e-11
3.9855873e-11
4.0306602e-11
4.0589284e-11
4.0658341e-11
4.0572152e-11
4.0364189e-11
4.0128772e-11
3.9444937e-11
2.5102884e-12
2.1377174e-12
1.883684e-12
1.7665098e-12
1.7094489e-12
1.6849693e-12
1.6901501e-12
1.7376239e-12
1.8522357e-12
2.0168101e-12
2.2567169e-12
2.5322264e-12
2.5270683e-12
2.9383315e-12
3.5516193e-12
4.6547581e-12
3.5600868e-11
7.7555195e-11
1.2015076e-10
1.6146389e-10
1.9500254e-10
2.0670827e-10
2.003684e-10
1.7932973e-10
1.8189083e-11
1.0316883e-11
6.9228055e-12
4.3823847e-12
3.9547562e-12
4.1413352e-11
2.9921697e-09
6.1834047e-10
3.6653493e-09
5.6335627e-10
2.8249497e-11
2.3927231e-10
1.958421e-10
1.0788692e-10
1.7373027e-12
1.9195062e-11
1.0160312e-11
5.5966561e-12
3.1146865e-12
2.0439171e-12
1.6197804e-12
1.4125042e-12
1.3070757e-12
1.2515702e-12
1.2300499e-12
1.2195958e-12
1.2222641e-12
1.2334593e-12
1.2604653e-12
1.3101557e-12
1.3867028e-12
1.4849417e-12
1.6076612e-12
1.7569064e-12
1.9383263e-12
2.1568553e-12
2.4202965e-12
2.7360102e-12
3.1136355e-12
3.5625711e-12
4.0920205e-12
4.7065511e-12
5.4057406e-12
6.1988285e-12
7.1053491e-12
8.1399742e-12
9.3142866e-12
1.0635715e-11
1.2102726e-11
1.3695483e-11
1.5356253e-11
1.6920786e-11
1.850639e-11
6.8940162e-11
2.6257514e-12
8.3933853e-11
3.8156141e-12
1.0461693e-10
1.1159283e-10
6.0582518e-12
7.4580226e-12
1.5247109e-10
5.3414071e-11
5.6167422e-11
5.7638099e-11
5.7968513e-11
5.7596862e-11
5.6572437e-11
5.5210772e-11
1.2630614e-11
1.5550653e-11
2.641819e-10
2.9010287e-10
2.1882303e-11
2.3963125e-11
2.6185837e-11
2.8388515e-11
3.0563529e-11
3.2724842e-11
3.4874314e-11
3.7028722e-11
3.920287e-11
4.1437219e-11
4.3864588e-11
4.8895992e-11
7.2266032e-10
7.5529519e-10
7.8536098e-10
8.1520592e-10
8.4478906e-10
8.74096e-10
9.0309381e-10
9.3176191e-10
9.6009189e-10
9.8817172e-10
1.0163207e-09
1.0435541e-09
1.0115363e-09
7.2484278e-11
7.3953918e-11
7.6070444e-11
7.8608614e-11
8.6313156e-11
1.2290663e-09
1.2591929e-09
1.2862789e-09
1.3147523e-09
1.3458907e-09
1.3822579e-09
1.4294687e-09
1.5008201e-09
1.5986522e-09
5.5317933e-10
5.6073825e-10
5.6756768e-10
5.7396895e-10
5.7999601e-10
5.8571385e-10
5.9113606e-10
5.9627288e-10
6.0112759e-10
6.0570387e-10
6.1000356e-10
6.1402919e-10
6.1778301e-10
6.2126749e-10
6.2448555e-10
6.2743999e-10
6.3013425e-10
6.3257154e-10
6.3475599e-10
6.3669149e-10
6.3838267e-10
6.3983377e-10
6.4104962e-10
6.4203488e-10
6.4279467e-10
6.4333398e-10
6.4365813e-10
6.437724e-10
6.4368245e-10
6.433937e-10
6.4291145e-10
6.4224077e-10
6.413868e-10
6.4035462e-10
6.3914913e-10
6.3777498e-10
6.362371e-10
6.3453997e-10
6.3268853e-10
6.3068717e-10
6.285411e-10
6.2625477e-10
6.2383355e-10
6.2128179e-10
6.1860467e-10
6.1580655e-10
6.1289204e-10
6.0986533e-10
6.0673041e-10
6.0349099e-10
6.0015041e-10
5.9671185e-10
5.9317834e-10
5.8955266e-10
5.8583767e-10
5.8203603e-10
5.7814738e-10
5.7417874e-10
5.7012868e-10
5.660009e-10
5.6179738e-10
5.5752075e-10
5.5317122e-10
5.4875062e-10
5.4425835e-10
5.3969665e-10
5.3506415e-10
5.3036375e-10
5.2559218e-10
5.2075267e-10
5.1583922e-10
5.1085591e-10
5.0579326e-10
5.0065653e-10
4.9543254e-10
4.9012876e-10
4.8472546e-10
4.7923348e-10
4.7362383e-10
4.6791289e-10
4.6206013e-10
4.5608919e-10
4.4994134e-10
4.4365266e-10
4.3714274e-10
4.3046455e-10
4.235057e-10
4.163412e-10
4.0881784e-10
4.0104158e-10
3.9280733e-10
3.8425996e-10
3.7513517e-10
3.6562637e-10
3.5540712e-10
3.4471956e-10
3.3319748e-10
3.2110794e-10
3.0816344e-10
2.9456109e-10
2.7916768e-10
2.6410274e-10
2.5947934e-10
2.6054995e-10
2.6446534e-10
2.688587e-10
2.7327718e-10
2.7737547e-10
2.8086924e-10
2.8381643e-10
2.8603217e-10
2.8769625e-10
2.8873111e-10
2.893556e-10
2.8962324e-10
2.8986298e-10
2.9068722e-10
2.9234904e-10
2.9458343e-10
2.9729805e-10
3.0038987e-10
3.0381818e-10
3.0751995e-10
3.1142884e-10
3.1544283e-10
3.194426e-10
3.2325558e-10
3.2653748e-10
3.284119e-10
3.2853715e-10
3.2738383e-10
3.2522187e-10
3.2277102e-10
3.1946625e-10
1.4787045e-11
1.1315951e-11
9.5704046e-12
8.6143668e-12
7.9772017e-12
7.5026586e-12
7.1489213e-12
6.9598426e-12
6.9706027e-12
7.1577793e-12
7.5452212e-12
8.0748681e-12
6.8328534e-12
7.4369937e-12
8.5405743e-12
1.109139e-11
2.0551522e-10
5.2399547e-10
8.3199398e-10
1.1277538e-09
1.3562317e-09
1.4463299e-09
1.4159548e-09
1.2984285e-09
8.7562986e-11
4.8640302e-11
3.1824617e-11
2.3295822e-11
1.9961117e-11
3.3207379e-10
1.5320304e-08
2.9920783e-09
1.8747418e-08
2.7203603e-09
1.1537207e-10
1.1414645e-09
9.4175681e-10
5.1799521e-10
6.6666978e-12
9.0564364e-11
4.7311542e-11
2.5792398e-11
1.4353076e-11
9.3441757e-12
7.4428782e-12
6.4804137e-12
6.028682e-12
5.7731911e-12
5.6969369e-12
5.6566044e-12
5.6875772e-12
5.7499861e-12
5.8908318e-12
6.1309842e-12
6.499339e-12
6.966551e-12
7.5499067e-12
8.2558243e-12
9.1134422e-12
1.0143832e-11
1.1385271e-11
1.2870957e-11
1.4647188e-11
1.6757262e-11
1.9245596e-11
2.2134118e-11
2.5424273e-11
2.9159177e-11
3.3431229e-11
3.8311072e-11
4.3854443e-11
5.0098343e-11
5.7037083e-11
6.4579498e-11
7.2454809e-11
7.9909229e-11
8.8063041e-11
3.3063374e-10
1.1851916e-11
4.0095667e-10
1.7529507e-11
5.0070909e-10
5.2506644e-10
2.7973597e-11
3.5415126e-11
7.1855947e-10
2.5627859e-10
2.7011753e-10
2.7724664e-10
2.7890409e-10
2.7711745e-10
2.7219506e-10
2.651173e-10
6.0106274e-11
7.4168348e-11
1.2324649e-09
1.3504689e-09
1.0392067e-10
1.1355265e-10
1.2404933e-10
1.344636e-10
1.447452e-10
1.5497172e-10
1.6514293e-10
1.7534609e-10
1.8564607e-10
1.9624395e-10
2.0784035e-10
2.3367331e-10
3.3675398e-09
3.5232404e-09
3.6635504e-09
3.8028489e-09
3.9409435e-09
4.0777721e-09
4.2131767e-09
4.3470646e-09
4.4793934e-09
4.6105764e-09
4.7420997e-09
4.8690336e-09
4.6901954e-09
3.4426514e-10
3.5081657e-10
3.6092591e-10
3.732374e-10
4.1403359e-10
5.7325026e-09
5.8780792e-09
6.0049026e-09
6.1382342e-09
6.2840602e-09
6.4543726e-09
6.6754326e-09
7.009178e-09
7.4502746e-09
2.6560968e-09
2.6915302e-09
2.7244525e-09
2.7553325e-09
2.7844202e-09
2.812028e-09
2.83822e-09
2.8630455e-09
2.8865193e-09
2.908659e-09
2.9294731e-09
2.9489734e-09
2.9671701e-09
2.9840751e-09
2.9997019e-09
3.0140636e-09
3.0271763e-09
3.0390554e-09
3.0497202e-09
3.0591891e-09
3.067484e-09
3.0746252e-09
3.0806352e-09
3.0855366e-09
3.0893534e-09
3.0921095e-09
3.0938301e-09
3.0945404e-09
3.0942673e-09
3.0930368e-09
3.0908741e-09
3.0878033e-09
3.0838491e-09
3.0790354e-09
3.073386e-09
3.0669229e-09
3.0596698e-09
3.0516478e-09
3.0428809e-09
3.0333898e-09
3.0231995e-09
3.0123315e-09
3.0008113e-09
2.9886599e-09
2.975902e-09
2.9625586e-09
2.948652e-09
2.9342021e-09
2.919228e-09
2.9037477e-09
2.8877772e-09
2.8713318e-09
2.8544259e-09
2.8370731e-09
2.8192871e-09
2.8010806e-09
2.7824521e-09
2.7634351e-09
2.7440229e-09
2.7242335e-09
2.704076e-09
2.6835636e-09
2.6626971e-09
2.6414852e-09
2.6199254e-09
2.5980282e-09
2.5757872e-09
2.5532165e-09
2.5303003e-09
2.5070541e-09
2.4834493e-09
2.4595054e-09
2.4351771e-09
2.4104891e-09
2.3853791e-09
2.359882e-09
2.3339037e-09
2.3074958e-09
2.2805194e-09
2.2530528e-09
2.2249016e-09
2.1961786e-09
2.1666025e-09
2.1363457e-09
2.1050222e-09
2.0728858e-09
2.0393971e-09
2.0049152e-09
1.9687048e-09
1.9312734e-09
1.8916365e-09
1.8504884e-09
1.80656e-09
1.7607784e-09
1.7115764e-09
1.6601147e-09
1.6046354e-09
1.5464176e-09
1.4840833e-09
1.4185729e-09
1.3445008e-09
1.2721085e-09
1.2499537e-09
1.2551214e-09
1.274006e-09
1.2952028e-09
1.3165222e-09
1.3363081e-09
1.3531823e-09
1.367429e-09
1.3781515e-09
1.3862208e-09
1.3912562e-09
1.3943181e-09
1.395664e-09
1.3968835e-09
1.4009109e-09
1.4089476e-09
1.4197131e-09
1.4327756e-09
1.4476356e-09
1.4641014e-09
1.4818607e-09
1.5005869e-09
1.5197868e-09
1.538882e-09
1.5570434e-09
1.5725922e-09
1.5813389e-09
1.5816837e-09
1.5758776e-09
1.5652114e-09
1.5528376e-09
1.5492364e-09
6.076329e-11
4.3580227e-11
3.6571771e-11
3.260862e-11
2.9856814e-11
2.7741572e-11
2.6106061e-11
2.5090442e-11
2.4801411e-11
2.5186378e-11
2.630473e-11
2.8139184e-11
2.2358458e-11
2.4008168e-11
2.7642577e-11
3.4894501e-11
9.0454096e-10
2.4418772e-09
3.89357e-09
5.2787413e-09
6.3392868e-09
6.7622767e-09
6.6265466e-09
6.1031894e-09
3.70583e-10
1.963303e-10
1.2666198e-10
9.3479511e-11
7.9533258e-11
1.5844447e-09
5.293325e-08
1.0595557e-08
6.4740993e-08
9.6238446e-09
3.8326777e-10
3.9678918e-09
3.3081353e-09
1.8150349e-09
2.0823175e-11
3.1756955e-10
1.6472695e-10
8.9655851e-11
4.9891515e-11
3.2408468e-11
2.5819871e-11
2.246731e-11
2.0918065e-11
2.0030151e-11
1.9779688e-11
1.9645072e-11
1.9764689e-11
1.9988157e-11
2.0486378e-11
2.132457e-11
2.2609835e-11
2.4237396e-11
2.626968e-11
2.8726901e-11
3.1711966e-11
3.5296773e-11
3.961542e-11
4.4782462e-11
5.0959559e-11
5.8296846e-11
6.6949885e-11
7.6996239e-11
8.8443994e-11
1.0144203e-10
1.1631149e-10
1.3329994e-10
1.5260283e-10
1.7435135e-10
1.9852854e-10
2.2482162e-10
2.522974e-10
2.7842758e-10
3.091769e-10
1.0771149e-09
4.2661229e-11
1.3015205e-09
6.3773858e-11
1.6300219e-09
1.6826129e-09
1.0178828e-10
1.3147996e-10
2.310293e-09
8.9901206e-10
9.4955116e-10
9.7467966e-10
9.8057129e-10
9.7429983e-10
9.5694636e-10
9.3034716e-10
2.2309908e-10
2.7611962e-10
3.9376362e-09
4.3041851e-09
3.8589941e-10
4.2111325e-10
4.6003654e-10
4.9866416e-10
5.3679901e-10
5.7473626e-10
6.1246886e-10
6.5032542e-10
6.8854322e-10
7.2788434e-10
7.7124185e-10
8.7334293e-10
1.0753348e-08
1.1259019e-08
1.170733e-08
1.2152401e-08
1.259364e-08
1.3030854e-08
1.3463536e-08
1.3891393e-08
1.4314287e-08
1.4733535e-08
1.5153859e-08
1.5558347e-08
1.4890274e-08
1.2785836e-09
1.3017596e-09
1.339343e-09
1.385861e-09
1.550401e-09
1.8309958e-08
1.8786115e-08
1.9191822e-08
1.9618333e-08
2.0084798e-08
2.062951e-08
2.133628e-08
2.2401994e-08
2.3771468e-08
9.3307385e-09
9.4522536e-09
9.5679702e-09
9.6765426e-09
9.7788298e-09
9.8759276e-09
9.9680596e-09
1.0055399e-08
1.0137996e-08
1.0215914e-08
1.0289181e-08
1.0357838e-08
1.0421921e-08
1.0481471e-08
1.0536535e-08
1.0587159e-08
1.0633399e-08
1.0675308e-08
1.0712954e-08
1.0746401e-08
1.0775725e-08
1.0800997e-08
1.0822297e-08
1.0839702e-08
1.0853297e-08
1.0863166e-08
1.0869396e-08
1.0872076e-08
1.0871299e-08
1.0867158e-08
1.085974e-08
1.0849129e-08
1.0835412e-08
1.0818673e-08
1.0798995e-08
1.0776455e-08
1.0751136e-08
1.0723113e-08
1.0692468e-08
1.0659275e-08
1.0623622e-08
1.0585583e-08
1.0545249e-08
1.0502693e-08
1.0458002e-08
1.0411249e-08
1.0362512e-08
1.0311862e-08
1.0259365e-08
1.0205086e-08
1.0149079e-08
1.0091399e-08
1.0032097e-08
9.9712196e-09
9.9088153e-09
9.8449292e-09
9.7795555e-09
9.7128127e-09
9.6446766e-09
9.5752106e-09
9.5044473e-09
9.432432e-09
9.3591685e-09
9.2846874e-09
9.2089795e-09
9.1320823e-09
9.0539733e-09
8.9747013e-09
8.8942122e-09
8.8125594e-09
8.7296431e-09
8.6455314e-09
8.560066e-09
8.4733334e-09
8.3851141e-09
8.2955317e-09
8.2042553e-09
8.1114659e-09
8.0166764e-09
7.9201607e-09
7.8212367e-09
7.7203007e-09
7.6163644e-09
7.5100322e-09
7.3999499e-09
7.2870077e-09
7.169311e-09
7.0481213e-09
6.9208543e-09
6.7892943e-09
6.6499807e-09
6.5053539e-09
6.3509531e-09
6.1900378e-09
6.0170979e-09
5.8362144e-09
5.6412075e-09
5.4365725e-09
5.2174606e-09
4.9871768e-09
4.7270109e-09
4.473106e-09
4.3956365e-09
4.4138485e-09
4.4803447e-09
4.5549782e-09
4.6300507e-09
4.6997423e-09
4.7591995e-09
4.8094165e-09
4.8472404e-09
4.8757417e-09
4.8935715e-09
4.9044711e-09
4.9093516e-09
4.9138191e-09
4.9281309e-09
4.9564595e-09
4.9943396e-09
5.0402715e-09
5.0924926e-09
5.1503321e-09
5.2126806e-09
5.2783841e-09
5.3457135e-09
5.412616e-09
5.4761683e-09
5.5304076e-09
5.5607019e-09
5.5615742e-09
5.5408973e-09
5.5031591e-09
5.4581275e-09
5.4846856e-09
1.9916871e-10
1.357582e-10
1.131799e-10
1.0015625e-10
9.0896923e-11
8.3678163e-11
7.8033831e-11
7.4341026e-11
7.2932989e-11
7.3689421e-11
7.6778631e-11
8.2381779e-11
6.3382548e-11
6.7972771e-11
7.9111527e-11
9.8596644e-11
2.9778107e-09
8.4549005e-09
1.3518481e-08
1.8309525e-08
2.1956502e-08
2.3408008e-08
2.2935251e-08
2.1169079e-08
1.2778032e-09
6.4848275e-10
4.1328427e-10
3.0415032e-10
2.5784058e-10
5.5021923e-09
1.3389421e-07
3.0505973e-08
1.637922e-07
2.7684159e-08
1.1266025e-09
1.1174834e-08
9.4410557e-09
5.1695467e-09
5.8169795e-11
9.0827759e-10
4.6885073e-10
2.5514667e-10
1.4198352e-10
9.2113756e-11
7.334027e-11
6.378791e-11
5.9391052e-11
5.6864206e-11
5.6161282e-11
5.5783464e-11
5.6132036e-11
5.677136e-11
5.8190062e-11
6.0567565e-11
6.4214505e-11
6.8832897e-11
7.4600677e-11
8.1573421e-11
9.0044103e-11
1.0021562e-10
1.1246914e-10
1.2712897e-10
1.4465436e-10
1.6547128e-10
1.9002291e-10
2.1853304e-10
2.510293e-10
2.8793073e-10
3.3014697e-10
3.78384e-10
4.332001e-10
4.9497242e-10
5.6365939e-10
6.3838486e-10
7.165299e-10
7.9122384e-10
8.8471935e-10
2.6513876e-09
1.327218e-10
3.2028728e-09
1.9963284e-10
4.0309026e-09
4.1229902e-09
3.1799289e-10
4.1619241e-10
5.6977269e-09
2.5642142e-09
2.7134192e-09
2.7853634e-09
2.8023147e-09
2.7844264e-09
2.7346118e-09
2.6536169e-09
7.0430266e-10
8.7400092e-10
9.7056553e-09
1.0587692e-08
1.218919e-09
1.3291533e-09
1.4520122e-09
1.5739487e-09
1.694324e-09
1.8140807e-09
1.933187e-09
2.0526874e-09
2.1733253e-09
2.297553e-09
2.4354592e-09
2.772734e-09
2.6488004e-08
2.7739701e-08
2.8843734e-08
2.9939735e-08
3.1026309e-08
3.2103003e-08
3.3168559e-08
3.422227e-08
3.5263784e-08
3.6296332e-08
3.7331484e-08
3.832531e-08
3.651674e-08
4.0380387e-09
4.1092254e-09
4.2279853e-09
4.3773846e-09
4.927824e-09
4.5101649e-08
4.6281267e-08
4.7281354e-08
4.8332635e-08
4.9482288e-08
5.0824434e-08
5.2564928e-08
5.5186523e-08
5.8546311e-08
2.6636942e-08
2.6978308e-08
2.7308771e-08
2.7618929e-08
2.7911184e-08
2.8188656e-08
2.845198e-08
2.8701649e-08
2.8937807e-08
2.916063e-08
2.9370197e-08
2.9566627e-08
2.9750019e-08
2.9920488e-08
3.0078167e-08
3.0223186e-08
3.0355703e-08
3.047587e-08
3.0583875e-08
3.0679903e-08
3.0764169e-08
3.0836874e-08
3.0898243e-08
3.0948496e-08
3.0987874e-08
3.1016614e-08
3.1034965e-08
3.104318e-08
3.1041524e-08
3.1030256e-08
3.1009627e-08
3.0979877e-08
3.0941252e-08
3.089399e-08
3.0838329e-08
3.0774486e-08
3.0702698e-08
3.0623178e-08
3.0536161e-08
3.0441857e-08
3.0340515e-08
3.0232349e-08
3.0117614e-08
2.9996521e-08
2.9869316e-08
2.9736211e-08
2.9597426e-08
2.9453164e-08
2.9303613e-08
2.9148957e-08
2.8989354e-08
2.8824957e-08
2.8655913e-08
2.8482356e-08
2.8304423e-08
2.8122246e-08
2.7935804e-08
2.774544e-08
2.7551083e-08
2.7352913e-08
2.7151025e-08
2.6945548e-08
2.6736494e-08
2.6523949e-08
2.6307887e-08
2.6088418e-08
2.5865475e-08
2.5639199e-08
2.5409436e-08
2.5176337e-08
2.4939621e-08
2.4699479e-08
2.445546e-08
2.4207813e-08
2.395591e-08
2.3700105e-08
2.3439453e-08
2.317447e-08
2.2903767e-08
2.2628126e-08
2.2345598e-08
2.2057317e-08
2.1760457e-08
2.145675e-08
2.1142323e-08
2.0819723e-08
2.0483535e-08
2.0137366e-08
1.977383e-08
1.9398031e-08
1.9000076e-08
1.8586944e-08
1.8145885e-08
1.7686219e-08
1.7192195e-08
1.6675484e-08
1.6118418e-08
1.553385e-08
1.4907895e-08
1.4250005e-08
1.3507351e-08
1.2783573e-08
1.2563425e-08
1.2615573e-08
1.2805871e-08
1.3019416e-08
1.3234249e-08
1.3433732e-08
1.3603971e-08
1.3747817e-08
1.3856238e-08
1.3938019e-08
1.3989305e-08
1.4020812e-08
1.4035155e-08
1.4048417e-08
1.4089719e-08
1.4170837e-08
1.4279165e-08
1.4410421e-08
1.4559597e-08
1.4724715e-08
1.4902614e-08
1.5090031e-08
1.5281953e-08
1.5472505e-08
1.5653308e-08
1.5807174e-08
1.5892538e-08
1.5894179e-08
1.5834476e-08
1.5726066e-08
1.5592599e-08
1.575971e-08
5.7589597e-10
3.7736883e-10
3.1253269e-10
2.7459049e-10
2.4714241e-10
2.2552516e-10
2.084776e-10
1.9691281e-10
1.9175465e-10
1.9273875e-10
2.0026843e-10
2.1505555e-10
1.6163188e-10
1.7290739e-10
2.0266388e-10
2.513434e-10
7.9652211e-09
2.3835819e-08
3.8244683e-08
5.1719924e-08
6.1903007e-08
6.5927471e-08
6.4568352e-08
5.9695759e-08
3.8370349e-09
1.8841161e-09
1.1905365e-09
8.768963e-10
7.4147122e-10
1.5474178e-08
2.6745524e-07
7.5791647e-08
3.2753127e-07
6.871863e-08
3.0565017e-09
2.7128725e-08
2.3266503e-08
1.2731048e-08
1.5261384e-10
2.2464813e-09
1.1558558e-09
6.2915095e-10
3.5010903e-10
2.268981e-10
1.8049968e-10
1.5692071e-10
1.4608156e-10
1.398505e-10
1.3812373e-10
1.3719924e-10
1.380643e-10
1.396404e-10
1.4312709e-10
1.4895959e-10
1.5791102e-10
1.6925177e-10
1.8341755e-10
2.0054283e-10
2.2134777e-10
2.4632932e-10
2.7642436e-10
3.1242875e-10
3.5547092e-10
4.0659782e-10
4.6690151e-10
5.3694123e-10
6.1679457e-10
7.0748162e-10
8.112321e-10
9.297882e-10
1.0645285e-09
1.2163915e-09
1.3852921e-09
1.5691058e-09
1.7614786e-09
1.9463333e-09
2.1883354e-09
5.3843592e-09
3.7232847e-10
6.5289461e-09
5.6125008e-10
8.2688731e-09
8.4509838e-09
8.9058774e-10
1.1738897e-09
1.1781749e-08
6.3225654e-09
6.7004298e-09
6.87841e-09
6.9205364e-09
6.8764484e-09
6.7526641e-09
6.5414849e-09
1.9766929e-09
2.4577837e-09
2.0169132e-08
2.19818e-08
3.4220721e-09
3.7304481e-09
4.0751759e-09
4.4173174e-09
4.7550439e-09
5.0910281e-09
5.4251577e-09
5.7603822e-09
6.0987725e-09
6.4473425e-09
6.8370192e-09
7.8099083e-09
5.4993887e-08
5.7574025e-08
5.9863794e-08
6.2136781e-08
6.4390232e-08
6.6623245e-08
6.8833216e-08
7.1018693e-08
7.3178929e-08
7.5320575e-08
7.7467563e-08
7.9526464e-08
7.5692263e-08
1.1330344e-08
1.1528513e-08
1.1861898e-08
1.2287844e-08
1.3885923e-08
9.3620574e-08
9.6040416e-08
9.8116728e-08
1.0029909e-07
1.0268523e-07
1.0546971e-07
1.0907782e-07
1.1450861e-07
1.2165264e-07
6.5665934e-08
6.6503714e-08
6.7319092e-08
6.8084664e-08
6.8806238e-08
6.949148e-08
7.0141949e-08
7.0758849e-08
7.1342534e-08
7.1893429e-08
7.2411727e-08
7.2897713e-08
7.3351624e-08
7.3773745e-08
7.416439e-08
7.4523879e-08
7.4852593e-08
7.5150899e-08
7.541926e-08
7.5658122e-08
7.5868009e-08
7.6049411e-08
7.6202879e-08
7.6328948e-08
7.6428207e-08
7.6501235e-08
7.6548641e-08
7.6571041e-08
7.6569088e-08
7.6543413e-08
7.6494632e-08
7.6423333e-08
7.6330118e-08
7.621557e-08
7.6080271e-08
7.5924758e-08
7.5749606e-08
7.5555341e-08
7.5342541e-08
7.511172e-08
7.4863489e-08
7.4598374e-08
7.4317004e-08
7.4019896e-08
7.3707661e-08
7.338081e-08
7.3039898e-08
7.2685412e-08
7.2317825e-08
7.1937586e-08
7.1545084e-08
7.1140701e-08
7.0724793e-08
7.0297697e-08
6.985975e-08
6.9411275e-08
6.8952219e-08
6.8483435e-08
6.8004744e-08
6.7516595e-08
6.7019219e-08
6.6512936e-08
6.5997776e-08
6.5473956e-08
6.4941411e-08
6.4400408e-08
6.3850792e-08
6.3292906e-08
6.272637e-08
6.2151564e-08
6.1567788e-08
6.0975521e-08
6.037365e-08
5.9762787e-08
5.9141387e-08
5.8510322e-08
5.7867262e-08
5.7213487e-08
5.6545559e-08
5.5865419e-08
5.5168253e-08
5.4456863e-08
5.3724275e-08
5.2974765e-08
5.2198769e-08
5.1402587e-08
5.0572838e-08
4.9718446e-08
4.8821162e-08
4.7893604e-08
4.6911331e-08
4.5891601e-08
4.4802907e-08
4.3668297e-08
4.2448846e-08
4.117341e-08
3.9798327e-08
3.8355364e-08
3.6810134e-08
3.5186013e-08