/*--------------------------------*- C++ -*----------------------------------*\
| =========                 |                                                 |
| \\      /  F ield         | OpenFOAM: The Open Source CFD Toolbox           |
|  \\    /   O peration     | Version:  2.4.0                                 |
|   \\  /    A nd           | Web:      www.OpenFOAM.org                      |
|    \\/     M anipulation  |                                                 |
\*---------------------------------------------------------------------------*/
FoamFile
{
    version     2.0;
    format      ascii;
    class       volVectorField;
    location    "390";
    object      U;
}
// * * * * * * * * * * * * * * * * * * * * * * * * * * * * * * * * * * * * * //

dimensions      [0 1 -1 0 0 0 0];

internalField   nonuniform List<vector> 
78300
(
(0.0053373181 2.2956525e-05 1.2950212e-21)
(0.0039153913 1.9708368e-05 -1.2688411e-21)
(0.0066746348 -4.2306769e-05 1.0864178e-21)
(0.0052358645 -0.00016137709 -2.9906463e-20)
(0.0058254252 -0.00039535627 -8.4264744e-21)
(0.0033157001 -0.00038866635 1.618242e-20)
(0.0021348743 -0.00038690699 9.4751589e-21)
(-0.00063156615 0.00015259791 -3.3425444e-20)
(-0.0015685034 0.00051424886 -1.2235566e-20)
(-0.0023251638 0.00098024196 1.3731717e-20)
(-0.0019167526 0.0009666738 8.4481472e-21)
(-0.0016932659 0.0009781284 -2.1576366e-20)
(-0.0012519126 0.00079970218 3.369155e-21)
(-0.0011010999 0.00076223581 -1.5569544e-20)
(-0.00089907351 0.00066119175 1.1695851e-20)
(-0.00084366746 0.00065119231 -1.6470502e-20)
(-0.00074030294 0.00059248569 -5.1083459e-21)
(-0.00071357983 0.00058766152 2.3197247e-21)
(-0.00065165761 0.00054740337 -8.3199811e-21)
(-0.00062399382 0.00053123788 5.7597527e-21)
(-0.00057653292 0.00049389386 7.1812844e-21)
(-0.00054878372 0.00047023176 -5.6952286e-21)
(-0.00051258638 0.00043631258 -2.0051068e-21)
(-0.0004961122 0.00041760003 8.6361485e-22)
(-0.00047837784 0.00039805058 2.025454e-21)
(-0.0004716754 0.00038829125 4.617296e-22)
(-0.00046576895 0.00037956042 5.9147398e-22)
(-0.00046843342 0.0003781916 -1.9315229e-21)
(-0.00047374058 0.0003791915 -1.6083271e-21)
(-0.00048662384 0.00038647967 -1.0882809e-21)
(-0.00050360662 0.00039716636 1.1692231e-21)
(-0.00052749729 0.00041344426 2.5111482e-21)
(-0.00055611386 0.00043354882 9.7617169e-22)
(-0.00059078038 0.00045852346 1.3407851e-21)
(-0.00062924924 0.00048662992 -1.4729689e-21)
(-0.00067072011 0.0005173334 9.8128985e-22)
(-0.00071024534 0.00054614403 -1.5599029e-21)
(-0.0007488092 0.00057242296 -4.9643572e-23)
(-0.00078686744 0.00059612365 -2.1975698e-21)
(-0.00082377525 0.00061647757 3.38757e-22)
(-0.00085930236 0.00063300294 -3.1043963e-24)
(-0.00089239179 0.00064472297 -2.6189245e-22)
(-0.00092258202 0.00065116065 -8.3816023e-22)
(-0.00094856261 0.0006511549 -1.4836052e-21)
(-0.0009701051 0.00064457254 3.2025745e-21)
(-0.00098550409 0.00063031154 4.3751564e-21)
(-0.0009963592 0.00060957711 -1.7963522e-21)
(-0.0010015098 0.00058182206 -5.5979367e-21)
(-0.0010082049 0.0005518673 5.9780941e-21)
(-0.0010137531 0.00051981066 -5.1205074e-21)
(-0.0010172828 0.00048578091 -1.1782255e-20)
(-0.0010144589 0.00044803136 1.601957e-21)
(-0.0010091834 0.00040889116 -2.2922285e-21)
(-0.00099346987 0.00036564506 -8.8984043e-21)
(-0.00097710213 0.00032279859 -2.8687613e-21)
(-0.00094446751 0.00027582208 2.4710384e-21)
(-0.00091615388 0.00023198505 1.7784561e-21)
(-0.00086478612 0.00018487576 3.5741955e-21)
(-0.0008331961 0.00014490889 4.802525e-23)
(-0.00077449351 0.00010339565 -1.7147626e-21)
(-0.00077369992 7.1759213e-05 2.5079314e-23)
(-0.00074805344 3.8622387e-05 -5.165746e-23)
(-0.00090304092 1.0816676e-05 -1.5287063e-22)
(-0.0012074139 3.673529e-07 5.6697135e-26)
(-0.0014123242 3.5905088e-07 -6.6698177e-26)
(-0.0016183749 3.2930924e-07 -3.1095199e-25)
(-0.0017861655 3.517811e-07 3.4473231e-25)
(-0.0019513601 3.3583493e-07 -3.4860684e-25)
(-0.0020900266 3.4949755e-07 2.245742e-25)
(-0.0022241908 3.4322686e-07 -2.7886055e-25)
(-0.0023401108 3.5490447e-07 1.82155e-25)
(-0.0024513014 3.5329256e-07 3.330346e-25)
(-0.0025497603 3.6284973e-07 -4.1579107e-25)
(-0.0026438421 3.6382222e-07 -1.4624205e-18)
(-0.0027288317 3.7155403e-07 -1.2364238e-18)
(-0.0028098743 3.734356e-07 4.5101078e-25)
(-0.0028841006 3.7836135e-07 -1.9112016e-25)
(-0.002954451 3.7767395e-07 -7.2600945e-26)
(-0.003019228 3.7888393e-07 -2.0526572e-26)
(-0.0030801094 3.8393597e-07 2.9983935e-26)
(-0.0031370765 3.9095296e-07 -8.676182e-26)
(-0.003190788 3.909788e-07 3.1443135e-25)
(-0.0032408669 3.9242724e-07 -1.6886641e-25)
(-0.0032880358 3.9179603e-07 -4.4336456e-25)
(-0.0033319279 3.9150665e-07 4.8131122e-25)
(-0.0033730425 3.8961255e-07 -6.9445896e-26)
(-0.003411154 3.8794375e-07 5.7545356e-25)
(-0.0034466008 3.8497781e-07 -7.9055931e-25)
(-0.0034792474 3.8208384e-07 -6.2333294e-25)
(-0.003509366 3.7899284e-07 9.5478199e-25)
(-0.0035368424 3.7710011e-07 -8.0709406e-25)
(-0.0035617941 3.7735985e-07 6.4414617e-25)
(-0.0035848402 3.6960655e-07 -3.658412e-25)
(-0.0036058682 3.5870088e-07 -7.7302044e-26)
(-0.0036247773 3.5239213e-07 2.6786637e-26)
(-0.0036412057 3.4160765e-07 5.4361127e-25)
(-0.0036550844 3.284507e-07 -4.6322677e-26)
(-0.0036659433 3.2492531e-07 8.0795614e-25)
(-0.0036757395 3.2448213e-07 -3.6196732e-27)
(-0.0036835141 3.1559067e-07 -1.592702e-24)
(-0.0036899706 3.0823308e-07 7.5622214e-25)
(-0.0036952397 3.0106709e-07 -7.2560188e-26)
(-0.0036999576 2.95307e-07 1.0794823e-24)
(-0.0037045115 2.9134252e-07 -2.703083e-26)
(-0.0037097914 2.8731314e-07 -2.1133358e-24)
(-0.0037142726 2.8037074e-07 -1.459681e-25)
(-0.0037172003 2.5743112e-07 7.337817e-26)
(-0.0037104674 2.3263444e-07 1.0856813e-24)
(-0.0037016231 2.1864287e-07 -1.0836781e-25)
(-0.0036896317 2.0517043e-07 -1.3684812e-24)
(-0.0036757305 1.9261133e-07 2.5290338e-24)
(-0.0036599518 1.8017203e-07 -2.8936671e-24)
(-0.0036425415 1.6768189e-07 2.725508e-24)
(-0.0036234996 1.5506627e-07 -5.2401147e-25)
(-0.0036029545 1.4239806e-07 3.201458e-25)
(-0.0035809172 1.2973224e-07 -1.3543168e-24)
(-0.0035574775 1.1694776e-07 7.675308e-25)
(-0.0035326587 1.0421256e-07 2.0701209e-25)
(-0.0035065344 9.1177109e-08 -1.492153e-25)
(-0.0034791365 7.8602985e-08 -1.462189e-25)
(-0.0034505305 6.5736287e-08 3.1024727e-17)
(-0.0034207523 5.3309756e-08 3.1925882e-17)
(-0.0033898608 4.0521988e-08 1.8698635e-24)
(-0.0033578961 2.8185875e-08 -1.5193e-25)
(-0.0033249167 1.5666215e-08 -1.7516428e-25)
(-0.0032909654 3.5512105e-09 -1.2710656e-25)
(-0.0032560965 -8.6985828e-09 -1.0534824e-26)
(-0.003220351 -2.0548257e-08 -4.2930308e-25)
(-0.0031837795 -3.2352333e-08 -1.9673934e-25)
(-0.003146425 -4.4063165e-08 6.8504303e-25)
(-0.0031083365 -5.538193e-08 3.7360577e-26)
(-0.0030695563 -6.6858671e-08 3.74914e-25)
(-0.0030301306 -7.784104e-08 -6.2096991e-25)
(-0.002990104 -8.8955995e-08 8.6863608e-26)
(-0.0029495222 -9.9340695e-08 2.0127984e-26)
(-0.0029084259 -1.1014615e-07 3.9369269e-26)
(-0.0028668518 -1.2021485e-07 3.8175664e-27)
(-0.0028248394 -1.3063716e-07 2.5237613e-25)
(-0.002782427 -1.4012989e-07 -1.1175483e-25)
(-0.0027396542 -1.50109e-07 -6.0321008e-25)
(-0.0026965555 -1.5914791e-07 1.1591211e-24)
(-0.0026531686 -1.6848059e-07 -1.6778088e-24)
(-0.0026095301 -1.770779e-07 2.8567103e-26)
(-0.0025656763 -1.8554691e-07 8.9456082e-25)
(-0.0025216418 -1.9377953e-07 -2.5390967e-25)
(-0.0024774609 -2.015514e-07 6.0782652e-25)
(-0.0024331683 -2.0941256e-07 -2.5632767e-25)
(-0.0023887953 -2.1663686e-07 -1.63914e-26)
(-0.0023443739 -2.2398259e-07 -2.9075564e-25)
(-0.0022999322 -2.3073006e-07 -2.9881476e-25)
(-0.0022554993 -2.3766263e-07 -2.8332466e-25)
(-0.0022111035 -2.4409798e-07 1.076768e-24)
(-0.0021667698 -2.5036945e-07 7.0113077e-25)
(-0.0021225285 -2.5640277e-07 1.1516974e-24)
(-0.0020783981 -2.6218364e-07 -4.5629856e-25)
(-0.0020344119 -2.6764113e-07 -1.2918033e-24)
(-0.0019905798 -2.729963e-07 -3.1294036e-24)
(-0.0019469397 -2.7798727e-07 6.1722343e-17)
(-0.0019034943 -2.8302644e-07 2.9563856e-20)
(-0.0018602844 -2.8750296e-07 -6.3140004e-17)
(-0.0018173059 -2.9219175e-07 -4.8128312e-24)
(-0.0017746001 -2.9617308e-07 7.0278094e-25)
(-0.001732159 -3.0036214e-07 -8.3948464e-24)
(-0.0016900287 -3.0405566e-07 8.68835e-24)
(-0.0016481996 -3.0714734e-07 8.0568831e-25)
(-0.0016067329 -3.0984212e-07 -7.9207771e-24)
(-0.0015656032 -3.129771e-07 4.3936701e-24)
(-0.0015248755 -3.1553983e-07 -4.838847e-24)
(-0.0014844994 -3.187643e-07 7.1371804e-24)
(-0.0014445612 -3.2103843e-07 -1.8265286e-24)
(-0.0014049905 -3.2373477e-07 -3.5851044e-24)
(-0.001365906 -3.2559086e-07 1.1518763e-24)
(-0.0013272011 -3.280608e-07 4.6521814e-24)
(-0.0012890363 -3.3005897e-07 -5.3969132e-24)
(-0.0012512496 -3.32459e-07 4.7209854e-24)
(-0.0012140575 -3.3450542e-07 -5.1562304e-24)
(-0.001177226 -3.3652695e-07 2.6457889e-24)
(-0.0011410565 -3.3824588e-07 3.0223096e-24)
(-0.0011052199 -3.3978647e-07 4.903179e-24)
(-0.0010701326 -3.4103518e-07 -5.6148944e-24)
(-0.0010353395 -3.4228795e-07 -3.8628997e-24)
(-0.0010014044 -3.4312109e-07 4.9730683e-24)
(-0.00096770026 -3.4389802e-07 -1.0588727e-23)
(-0.00093499502 -3.4381664e-07 9.8574479e-24)
(-0.00090243591 -3.4403677e-07 -5.8466763e-24)
(-0.00087106781 -3.4308318e-07 5.0939323e-24)
(-0.00083973236 -3.4275866e-07 -5.9253265e-24)
(-0.00080983777 -3.4057872e-07 -4.0813633e-24)
(-0.00077982339 -3.3989483e-07 3.2318493e-24)
(-0.0007515937 -3.3669246e-07 -4.1329221e-24)
(-0.00072305123 -3.3619067e-07 1.0644676e-23)
(-0.00069674794 -3.3262552e-07 -6.4700805e-24)
(-0.00066986272 -3.3307193e-07 5.667857e-24)
(-0.00064581597 -3.2872706e-07 -9.7099868e-24)
(-0.00062084101 -3.2922347e-07 9.0883966e-25)
(-0.00059951353 -3.2301881e-07 3.3651236e-24)
(-0.00057681889 -3.2322602e-07 3.7778222e-24)
(-0.00055885825 -3.1446613e-07 -1.4409454e-23)
(-0.00053900058 -3.1504688e-07 8.4085108e-17)
(-0.00052530778 -3.041048e-07 8.4592297e-17)
(-0.00050907894 -3.0546951e-07 -4.2992512e-24)
(-0.00050084318 -2.9133133e-07 -6.3996292e-24)
(-0.00048936082 -2.9312836e-07 5.5845243e-24)
(-0.00048808521 -2.7506187e-07 1.016027e-24)
(-0.00048282815 -2.7809163e-07 -1.8475402e-24)
(-0.00049004034 -2.5770393e-07 -8.6798074e-17)
(-0.00049092229 -2.7057286e-07 -8.7311425e-17)
(-0.0005023254 -5.9918185e-06 -1.5636942e-20)
(-0.00051132092 -2.633681e-05 1.6226962e-19)
(-0.0005146564 -4.7390675e-05 7.3628342e-20)
(-0.00052089311 -6.8979057e-05 -4.7745243e-19)
(-0.00051331489 -8.8446164e-05 -7.9487719e-20)
(-0.00050782379 -0.00010756184 -5.3212669e-19)
(-0.00048961242 -0.00012275342 3.5587228e-20)
(-0.00047197517 -0.00013646576 -5.5543225e-21)
(-0.00044344949 -0.00014493299 1.9735378e-19)
(-0.00041389544 -0.00015061563 -1.5518632e-19)
(-0.00037496483 -0.00015000937 5.0591103e-19)
(-0.00033351279 -0.00014520908 -3.4478367e-19)
(-0.00028351383 -0.00013309528 -9.3734038e-20)
(-0.00022944999 -0.00011519446 -1.7227179e-19)
(-0.00016665438 -8.8601298e-05 9.7920737e-19)
(-9.7617063e-05 -5.3971119e-05 2.1443085e-19)
(-1.7256998e-05 -7.7489456e-06 -8.3687275e-19)
(7.0109697e-05 4.7647582e-05 -9.1886151e-19)
(0.00016788606 0.00011428939 -1.4691539e-19)
(0.00027318773 0.0001901096 7.0819145e-20)
(0.00038873677 0.00027668169 -9.8865404e-19)
(0.00051227807 0.00037203767 -6.6047852e-20)
(0.00064598853 0.00047727919 -1.7978725e-19)
(0.00078760375 0.00059013039 -1.1787546e-18)
(0.00093856433 0.0007110033 1.7896932e-19)
(0.0010959663 0.00083689405 9.6874387e-19)
(0.0012599765 0.00096700461 7.0255393e-19)
(0.0014243198 0.0010957583 -2.6317699e-19)
(0.0015820547 0.0012196729 -1.3037795e-19)
(0.0017360763 0.0013426361 -1.2093761e-19)
(0.00188811 0.0014663016 2.468612e-19)
(0.0020364108 0.0015896244 8.6769806e-19)
(0.0021848535 0.0017157447 -9.4330162e-19)
(0.0023113153 0.001827582 2.5295055e-19)
(0.0024431704 0.0019467527 2.6234764e-20)
(0.0025892985 0.0020809581 2.3871334e-19)
(0.0027524159 0.0022329367 1.4129372e-19)
(0.0029369886 0.002407082 -6.6261438e-20)
(0.0031416493 0.0026030045 3.3414123e-19)
(0.0033812594 0.002834016 -3.9986928e-20)
(0.003666135 0.0031074178 -6.9791775e-19)
(0.0040463157 0.0034518506 -1.6704211e-20)
(0.0044720139 0.0038139284 -4.5405421e-19)
(0.0049906989 0.0042285209 4.2264534e-19)
(0.0055588788 0.0046472411 3.4812728e-20)
(0.0062625648 0.0051302369 5.1641632e-20)
(0.0070331567 0.0056003109 -1.2014215e-19)
(0.0080227713 0.0061573889 7.2932459e-20)
(0.0091158659 0.0066702993 4.9010674e-20)
(0.010569675 0.0072782534 -2.2660967e-20)
(0.012142954 0.0077302376 1.286337e-19)
(0.014164362 0.0081558972 -9.5979534e-20)
(0.016022674 0.0080813417 -3.5343525e-19)
(0.017947523 0.0075793044 -4.2457817e-19)
(0.018155496 0.0060467089 -8.3429741e-20)
(0.017261617 0.0043315835 1.2615224e-19)
(0.014798667 0.0026445184 -1.5839359e-19)
(0.012640564 0.0014888402 -9.7214148e-20)
(0.0092838561 0.00063644694 -2.0586872e-20)
(0.0077753116 0.00024437691 -3.0547623e-20)
(0.0047787528 3.416813e-05 -1.8524442e-20)
(0.0050564001 -2.7593556e-05 -1.0623591e-20)
(0.0024348625 -1.0756537e-05 -1.8173324e-21)
(0.016148761 5.9858302e-05 1.4253353e-21)
(0.012384511 5.0897262e-05 3.6531539e-21)
(0.020189601 -0.00013523634 -3.9965305e-21)
(0.016032969 -0.00048722058 3.5141812e-20)
(0.017698875 -0.0011836723 5.0719954e-22)
(0.010342537 -0.0011771105 5.9606416e-20)
(0.0067690082 -0.0011768834 -2.4935764e-20)
(-0.0014985314 0.00041649168 4.7428741e-20)
(-0.0044711344 0.0015112136 3.700913e-20)
(-0.0068566981 0.0029206586 -3.248004e-20)
(-0.0057152123 0.002897964 -1.0150978e-20)
(-0.0050698534 0.0029380064 3.2683508e-21)
(-0.0037652982 0.0024106754 7.6257461e-20)
(-0.0033130032 0.0022981934 1.1709185e-20)
(-0.0027103737 0.0019972127 -3.185596e-20)
(-0.0025419931 0.0019661469 1.4664148e-20)
(-0.0022331244 0.0017909446 -8.2790536e-21)
(-0.0021514236 0.0017755689 -3.159212e-21)
(-0.0019664543 0.0016551675 -8.6772884e-21)
(-0.0018829235 0.0016060926 2.3967325e-21)
(-0.0017412519 0.0014941529 -3.3159003e-21)
(-0.0016580884 0.0014227576 2.7602856e-21)
(-0.0015501942 0.0013210091 3.2344391e-21)
(-0.0015008999 0.0012645485 6.8947728e-21)
(-0.0014482754 0.0012059052 -1.8323487e-21)
(-0.0014285548 0.0011765699 -2.420929e-21)
(-0.0014114777 0.0011505541 -3.3491402e-21)
(-0.0014200068 0.0011466217 1.6292615e-21)
(-0.0014366336 0.0011499635 7.0659123e-22)
(-0.0014759116 0.0011721929 3.6002523e-21)
(-0.0015275733 0.0012047376 -5.8805447e-21)
(-0.0015998715 0.00125408 -3.696697e-21)
(-0.0016863358 0.001314968 -7.0694864e-22)
(-0.0017908013 0.0013904506 -1.4315349e-21)
(-0.0019065506 0.0014753217 -4.2292771e-23)
(-0.0020311794 0.0015679132 4.6894255e-21)
(-0.0021500548 0.0016548453 3.6954032e-21)
(-0.0022660056 0.0017341258 1.5001989e-22)
(-0.002380407 0.0018055852 2.1650063e-21)
(-0.0024913655 0.0018669035 1.69375e-22)
(-0.0025981009 0.0019166485 6.3515119e-25)
(-0.0026975952 0.0019519236 -1.4723925e-21)
(-0.0027885406 0.0019711874 -5.3440172e-22)
(-0.0028668952 0.0019710661 -5.9671301e-22)
(-0.0029320992 0.0019511144 1.6684347e-21)
(-0.0029791177 0.0019080818 -1.1173932e-20)
(-0.0030126733 0.0018455257 3.9961974e-21)
(-0.0030294132 0.0017619261 -3.2501855e-21)
(-0.0030508929 0.0016716407 -3.6366112e-22)
(-0.0030690662 0.001574967 -3.3242018e-21)
(-0.0030813128 0.0014722452 2.361622e-21)
(-0.0030748099 0.0013583664 -1.2680803e-20)
(-0.0030610413 0.001240141 -8.9445115e-22)
(-0.0030165247 0.0011096659 2.8755935e-21)
(-0.0029700628 0.00098015039 -7.7421091e-22)
(-0.0028758575 0.00083841348 7.5724608e-21)
(-0.0027944983 0.00070574843 -6.8262783e-21)
(-0.0026454049 0.00056352996 4.7234358e-21)
(-0.0025547183 0.00044226232 -1.0372625e-21)
(-0.0023857696 0.00031694657 5.7048057e-23)
(-0.0023887947 0.00022074516 9.2177847e-24)
(-0.0023238816 0.00012134569 -1.1202775e-21)
(-0.0027926481 3.8899008e-05 2.330823e-22)
(-0.0036983869 7.0562272e-06 -5.1161103e-25)
(-0.0043128225 5.861897e-06 -8.6106603e-27)
(-0.0049288008 5.2430796e-06 -1.7254466e-25)
(-0.0054313225 4.755502e-06 5.7638636e-25)
(-0.0059246894 4.2817887e-06 -3.5465461e-25)
(-0.0063394678 3.9021164e-06 1.2295325e-25)
(-0.0067399321 3.5461499e-06 1.1787638e-25)
(-0.0070863729 3.2595192e-06 1.0444075e-25)
(-0.0074181724 2.9929037e-06 -4.0009771e-25)
(-0.0077122363 2.7755878e-06 1.526762e-25)
(-0.0079929007 2.5739448e-06 7.0772861e-26)
(-0.0082465824 2.40577e-06 3.8477734e-26)
(-0.0084882647 2.2474244e-06 -3.5954039e-25)
(-0.0087097006 2.1067415e-06 1.872643e-25)
(-0.0089194708 1.9679352e-06 -4.338296e-26)
(-0.009112545 1.8457689e-06 1.1910523e-26)
(-0.0092936231 1.7381263e-06 1.0937767e-25)
(-0.0094631834 1.6401202e-06 1.7097361e-26)
(-0.0096230289 1.5425802e-06 -3.4000599e-26)
(-0.0097719763 1.4526383e-06 -8.9804811e-26)
(-0.0099121543 1.3648654e-06 -1.5016452e-25)
(-0.010042521 1.2811081e-06 -2.1488916e-25)
(-0.010164532 1.1991042e-06 -2.837908e-25)
(-0.010277545 1.1198706e-06 6.5007014e-25)
(-0.010382544 1.0422079e-06 1.4184996e-25)
(-0.010479145 9.6731423e-07 1.1664708e-24)
(-0.010568134 8.9407656e-07 -1.8581299e-24)
(-0.010649173 8.2273034e-07 1.3653819e-24)
(-0.010722729 7.550932e-07 -3.6319999e-25)
(-0.010790698 6.9607207e-07 -1.4299962e-24)
(-0.010852452 6.3931956e-07 -6.1806737e-25)
(-0.010907837 5.7409317e-07 5.9254275e-25)
(-0.010955949 5.0024073e-07 3.7743735e-25)
(-0.010996296 4.269712e-07 1.1440554e-24)
(-0.01102722 3.7153397e-07 9.3622916e-25)
(-0.011055266 3.2302041e-07 -2.7876386e-24)
(-0.011077426 2.7491212e-07 9.3616579e-25)
(-0.011095575 2.3694818e-07 6.0759474e-25)
(-0.01111017 2.1025137e-07 1.6375006e-24)
(-0.011123101 1.9879767e-07 -3.5369486e-24)
(-0.011135555 2.0519583e-07 1.7174723e-24)
(-0.011150175 2.0590033e-07 7.8376803e-25)
(-0.011162894 1.6457593e-07 1.448631e-24)
(-0.01117157 3.3389488e-09 -3.7120156e-24)
(-0.011150336 -1.6141247e-07 8.3292678e-25)
(-0.011122439 -2.4172045e-07 2.3988141e-25)
(-0.01108528 -3.1388283e-07 3.0623634e-24)
(-0.011042418 -3.6963638e-07 -2.6177165e-24)
(-0.01099396 -4.2108236e-07 1.061589e-24)
(-0.010940625 -4.6980698e-07 -9.7569344e-27)
(-0.010882422 -5.1631724e-07 -3.3920319e-24)
(-0.010819727 -5.6121286e-07 6.4753053e-25)
(-0.010752577 -6.0457953e-07 7.5904407e-25)
(-0.010681238 -6.4654944e-07 4.7671515e-25)
(-0.010605783 -6.8699302e-07 1.2919023e-24)
(-0.01052643 -7.2609253e-07 1.1958385e-25)
(-0.010443277 -7.6374028e-07 -7.1697091e-25)
(-0.010356516 -8.0017794e-07 4.1545158e-25)
(-0.010266259 -8.3510663e-07 -6.0169678e-25)
(-0.010172681 -8.6884862e-07 2.5800705e-25)
(-0.010075906 -9.0115224e-07 -4.013016e-25)
(-0.009976102 -9.3193785e-07 8.9642664e-25)
(-0.0098733985 -9.6124734e-07 -1.6689219e-24)
(-0.0097679553 -9.8922826e-07 -3.6624625e-25)
(-0.009659899 -1.0158557e-06 6.587467e-25)
(-0.009549381 -1.0412399e-06 1.2553189e-24)
(-0.0094365308 -1.0652652e-06 -1.6697042e-25)
(-0.0093214939 -1.0880468e-06 -3.6675375e-25)
(-0.0092043988 -1.1093213e-06 -6.8873769e-25)
(-0.0090853839 -1.1294848e-06 6.3525101e-25)
(-0.0089645816 -1.148184e-06 -1.5458377e-25)
(-0.0088421223 -1.1657782e-06 -1.2447319e-26)
(-0.0087181307 -1.1820185e-06 -7.8879732e-26)
(-0.0085927216 -1.1973818e-06 1.0618689e-26)
(-0.0084660164 -1.2115246e-06 3.7510002e-25)
(-0.0083381273 -1.2245581e-06 -6.8172929e-25)
(-0.0082091721 -1.2362819e-06 -1.125512e-25)
(-0.0080792576 -1.2472245e-06 -4.6902292e-25)
(-0.0079484947 -1.2568383e-06 1.3818859e-24)
(-0.0078169919 -1.2654658e-06 1.1685407e-24)
(-0.0076848534 -1.2728964e-06 -2.1444648e-25)
(-0.0075521851 -1.279374e-06 -2.9321772e-24)
(-0.0074190852 -1.2847453e-06 -1.7454067e-24)
(-0.0072856577 -1.2891853e-06 2.5598617e-24)
(-0.0071519942 -1.2927049e-06 3.9610003e-24)
(-0.0070181916 -1.2954962e-06 -6.6995879e-24)
(-0.0068843356 -1.2972582e-06 1.6552189e-24)
(-0.0067505139 -1.2982787e-06 -1.4967688e-25)
(-0.0066168126 -1.2983397e-06 3.3143568e-24)
(-0.0064833056 -1.2977284e-06 -2.4314802e-24)
(-0.006350084 -1.29623e-06 1.1969504e-24)
(-0.0062172021 -1.2940696e-06 1.6808754e-24)
(-0.0060847599 -1.2912686e-06 3.6916024e-24)
(-0.0059527874 -1.2877583e-06 -9.2532598e-24)
(-0.0058213967 -1.2835764e-06 3.7124804e-24)
(-0.0056905976 -1.2788782e-06 -1.3848931e-25)
(-0.0055605108 -1.2735128e-06 -5.6572629e-24)
(-0.0054311272 -1.2676139e-06 -2.0337315e-25)
(-0.0053025728 -1.2610361e-06 1.0172502e-23)
(-0.0051748279 -1.2536892e-06 3.0793487e-24)
(-0.0050480316 -1.2454396e-06 -7.2496618e-24)
(-0.0049221499 -1.2366739e-06 9.1047112e-24)
(-0.0047973534 -1.2273887e-06 1.232787e-24)
(-0.0046735686 -1.2177168e-06 -8.0991749e-24)
(-0.0045509874 -1.2078837e-06 1.4370105e-23)
(-0.0044294732 -1.1976393e-06 -1.059844e-23)
(-0.0043092782 -1.1866107e-06 1.4085059e-24)
(-0.0041901963 -1.1754905e-06 1.9670159e-24)
(-0.0040725743 -1.1636937e-06 -1.0079202e-23)
(-0.0039560981 -1.1519413e-06 1.1242277e-23)
(-0.0038412373 -1.1394506e-06 2.205452e-24)
(-0.00372752 -1.1275279e-06 -5.7349244e-24)
(-0.0036155855 -1.1145447e-06 -5.8243304e-24)
(-0.0035047531 -1.1021003e-06 -1.1272942e-23)
(-0.0033959078 -1.0880018e-06 2.0512874e-23)
(-0.0032880868 -1.0748396e-06 1.4295935e-23)
(-0.0031825121 -1.0594988e-06 -3.0974026e-23)
(-0.0030778486 -1.0455238e-06 3.0872384e-23)
(-0.0029757549 -1.0286735e-06 -9.1992204e-24)
(-0.0028743942 -1.013616e-06 -1.4332821e-23)
(-0.0027760261 -9.9473177e-07 -1.1825677e-23)
(-0.0026781423 -9.7817669e-07 -4.7054731e-25)
(-0.002583818 -9.5698792e-07 2.6775029e-23)
(-0.0024896466 -9.3895662e-07 -1.9840608e-23)
(-0.0023997759 -9.1494775e-07 1.2486675e-23)
(-0.0023096119 -8.9489178e-07 -1.9942029e-23)
(-0.0022247617 -8.6743425e-07 2.220175e-23)
(-0.0021390433 -8.4575688e-07 -1.2272362e-23)
(-0.002059981 -8.1466151e-07 7.3254315e-24)
(-0.0019792677 -7.9099225e-07 2.4628582e-24)
(-0.0019070006 -7.5406756e-07 -1.2487744e-23)
(-0.0018320762 -7.2648703e-07 1.2991879e-23)
(-0.0017680079 -6.8085215e-07 -1.8134516e-25)
(-0.0017000013 -6.4730426e-07 5.0530436e-24)
(-0.001646081 -5.891782e-07 -2.3621692e-23)
(-0.0015866624 -5.471991e-07 1.597053e-23)
(-0.0015455819 -4.7248853e-07 5.1144363e-24)
(-0.0014971356 -4.1960753e-07 -2.3973645e-23)
(-0.0014724752 -3.2219669e-07 2.3621817e-23)
(-0.0014383694 -2.5504129e-07 1.636988e-23)
(-0.0014346313 -1.2820072e-07 -2.4229904e-23)
(-0.0014193 -4.8332229e-08 1.9099128e-23)
(-0.0014410582 8.8090526e-08 -2.7097907e-23)
(-0.0014444676 9.9851173e-08 -2.8791082e-23)
(-0.0014795052 -1.6801804e-05 4.0841099e-20)
(-0.0015068041 -7.7410833e-05 1.7782143e-20)
(-0.0015164758 -0.0001400603 8.5994482e-21)
(-0.001534289 -0.00020433243 5.7073675e-19)
(-0.0015109138 -0.00026224132 2.8513614e-19)
(-0.0014934159 -0.00031898315 1.3121415e-18)
(-0.0014379943 -0.00036396254 1.1598686e-18)
(-0.0013840252 -0.00040436846 -3.0156863e-19)
(-0.0012975514 -0.00042904418 -3.7522995e-19)
(-0.0012078026 -0.00044523556 8.2864566e-20)
(-0.0010900141 -0.00044255017 -2.6825903e-19)
(-0.00096453701 -0.00042716139 2.1519703e-19)
(-0.0008135035 -0.00038980189 -2.3962634e-19)
(-0.00065025284 -0.00033496779 -1.0648033e-19)
(-0.00046094048 -0.00025400583 -7.7924664e-19)
(-0.00025289983 -0.00014882991 1.8256273e-18)
(-1.1205356e-05 -8.8705446e-06 6.9319158e-19)
(0.00025136112 0.00015862662 4.5028402e-20)
(0.00054487009 0.00035984846 -4.7643422e-19)
(0.00086078688 0.0005886043 -5.5984038e-19)
(0.0012071311 0.00084958399 1.190104e-18)
(0.0015772235 0.0011369037 -2.1550957e-18)
(0.0019774989 0.001453818 4.8058917e-19)
(0.0024012466 0.0017935443 -2.3835303e-19)
(0.0028527257 0.0021572478 3.9047452e-19)
(0.0033234249 0.002535989 -8.898002e-19)
(0.003813753 0.0029272792 -2.5302245e-19)
(0.0043051503 0.0033145687 -5.7345494e-19)
(0.0047773387 0.0036876713 3.648485e-19)
(0.0052387544 0.0040580808 -7.9102309e-19)
(0.0056942825 0.0044306826 -4.3282111e-19)
(0.0061388564 0.0048024074 -7.759364e-19)
(0.0065822669 0.0051821054 3.8722147e-20)
(0.0069574402 0.0055172433 9.335554e-19)
(0.0073505036 0.0058754166 -3.6027233e-19)
(0.0077870983 0.0062793414 4.2053851e-19)
(0.008274704 0.0067368135 -2.6812035e-19)
(0.0088259402 0.0072607065 -1.308113e-18)
(0.0094369727 0.0078500811 2.4346362e-19)
(0.01015145 0.0085444007 1.4747556e-19)
(0.011000162 0.0093658048 1.2408113e-18)
(0.012128688 0.010397456 -2.1645524e-19)
(0.013393306 0.011482979 2.2260355e-19)
(0.014932712 0.012723553 -3.7424791e-20)
(0.016621269 0.013977905 -1.3330173e-19)
(0.018707847 0.015420304 -3.6080249e-19)
(0.020996226 0.016826248 5.0567259e-20)
(0.023927283 0.018485149 -6.5931853e-20)
(0.027170468 0.02001557 7.6398813e-20)
(0.031472149 0.021818135 7.9023246e-21)
(0.036141114 0.023162602 -1.5664896e-19)
(0.04211424 0.024409289 2.4583733e-19)
(0.047626956 0.024177632 9.498139e-20)
(0.053315795 0.022658703 5.1279324e-19)
(0.054073305 0.018122574 -2.6365342e-19)
(0.051617424 0.013029885 2.6507006e-19)
(0.044564281 0.008013218 -1.2389783e-19)
(0.038256271 0.0045424412 -3.5943585e-19)
(0.028422761 0.0019756295 -9.112966e-20)
(0.023850663 0.00077536618 8.5822286e-21)
(0.014998417 0.00012471075 2.9421197e-20)
(0.015641082 -7.0277155e-05 5.5534219e-21)
(0.0081276092 -3.5341286e-05 6.5990918e-21)
(0.027363416 8.5314339e-05 1.3346288e-21)
(0.021574055 7.135824e-05 -1.2513898e-21)
(0.034046204 -0.00023970474 -4.2789287e-22)
(0.027378558 -0.00082399463 -1.7689566e-20)
(0.029962199 -0.0019776969 5.1534542e-20)
(0.017922922 -0.0019977894 -3.9754718e-20)
(0.011850438 -0.0020069235 2.4747773e-20)
(-0.0019423109 0.00060529069 -1.008334e-19)
(-0.0071792843 0.0024593456 5.1130591e-20)
(-0.011338126 0.004839298 1.3272791e-21)
(-0.0095469248 0.0048376666 1.4266586e-20)
(-0.0084951159 0.0049151047 -1.7658217e-20)
(-0.0063350682 0.0040497143 -7.5819634e-20)
(-0.0055739944 0.0038617282 2.2881805e-20)
(-0.0045680736 0.00336334 3.4192868e-20)
(-0.0042816028 0.0033093606 -3.9187635e-21)
(-0.0037653672 0.0030184873 3.4376125e-21)
(-0.0036256988 0.0029910499 6.73639e-21)
(-0.0033165332 0.002790561 1.8551886e-20)
(-0.0031753267 0.0027073958 -9.8258826e-21)
(-0.0029384916 0.0025205117 -9.3993867e-21)
(-0.002798698 0.0024004221 -1.5744586e-21)
(-0.002618408 0.0022304838 3.7545311e-21)
(-0.0025355489 0.0021356155 -7.628316e-21)
(-0.0024478584 0.002037732 2.0024402e-22)
(-0.0024150624 0.0019886972 -2.8862642e-21)
(-0.0023871384 0.0019456526 2.5357228e-21)
(-0.0024020031 0.0019394941 1.5458441e-21)
(-0.0024307387 0.0019458188 7.82176e-23)
(-0.002497365 0.0019837439 1.7101611e-21)
(-0.0025849279 0.0020391404 -6.6727613e-22)
(-0.0027070063 0.0021226438 -6.1924469e-22)
(-0.0028528804 0.0022255683 -2.4952425e-21)
(-0.0030287833 0.0023528411 1.0285705e-22)
(-0.003223514 0.002495776 -5.7464077e-21)
(-0.0034329888 0.002651436 -4.2199942e-21)
(-0.0036329502 0.0027976352 -8.4325286e-22)
(-0.0038279454 0.0029309192 2.2341933e-22)
(-0.00402028 0.0030509498 3.0369267e-22)
(-0.0042068181 0.0031538677 -7.539726e-22)
(-0.0043862066 0.0032372368 5.1850359e-24)
(-0.0045535281 0.0032962325 2.3412505e-21)
(-0.0047065686 0.0033282805 2.3691913e-21)
(-0.0048385893 0.003327764 1.363977e-23)
(-0.0049487018 0.0032939083 -1.3416673e-20)
(-0.0050286127 0.0032214019 5.6571943e-21)
(-0.0050861009 0.0031160794 7.7675585e-21)
(-0.0051157788 0.0029756473 7.1757446e-21)
(-0.0051535093 0.0028239345 1.1972794e-21)
(-0.0051859235 0.0026614068 -3.281236e-21)
(-0.0052085612 0.0024885405 1.2411181e-20)
(-0.0052002765 0.0022970376 3.3417863e-21)
(-0.0051798524 0.0020979478 1.561237e-21)
(-0.0051088344 0.0018785191 1.4126101e-20)
(-0.0050344277 0.0016602203 -8.2539551e-21)
(-0.0048817887 0.0014218199 -9.0496735e-21)
(-0.0047501924 0.0011978998 2.4860266e-21)
(-0.004507627 0.00095846172 -2.7680599e-21)
(-0.0043609681 0.000753096 2.1217325e-21)
(-0.0040885272 0.00054196198 2.8289988e-21)
(-0.0041004586 0.00037846762 1.0513222e-23)
(-0.0040099925 0.00021176132 6.924032e-23)
(-0.0048015393 7.5040089e-05 -3.3597282e-22)
(-0.0063084334 2.1166237e-05 4.985853e-25)
(-0.0073394935 1.7397284e-05 -2.8827768e-27)
(-0.0083687872 1.564688e-05 -1.3777094e-25)
(-0.0092105526 1.4064736e-05 3.7754542e-25)
(-0.010034394 1.2710752e-05 -1.6309083e-25)
(-0.010728373 1.1492398e-05 -1.769767e-25)
(-0.011396837 1.0458678e-05 3.7624145e-25)
(-0.011976018 9.5472608e-06 -1.8855651e-25)
(-0.012529764 8.7656413e-06 -1.7609002e-25)
(-0.013021074 8.0796147e-06 -1.5180002e-25)
(-0.013489385 7.4833007e-06 9.8527881e-26)
(-0.013912985 6.9553874e-06 2.623392e-26)
(-0.014316145 6.4837687e-06 3.7270484e-26)
(-0.014685709 6.0469882e-06 -9.5520933e-26)
(-0.015035589 5.6329321e-06 -1.7005454e-26)
(-0.015357598 5.2415416e-06 3.0087802e-27)
(-0.01565898 4.9085063e-06 -7.0636642e-26)
(-0.015941423 4.613244e-06 5.5350246e-26)
(-0.016207586 4.319893e-06 3.7345068e-25)
(-0.016455506 4.045446e-06 -2.6094488e-25)
(-0.016688656 3.7807398e-06 -1.4011456e-25)
(-0.016905394 3.5265584e-06 7.4568656e-25)
(-0.017108076 3.2800208e-06 -5.6194347e-25)
(-0.017295694 3.0414533e-06 3.924001e-25)
(-0.01746984 2.8089956e-06 -2.6302997e-25)
(-0.017629918 2.5842785e-06 -1.4540793e-25)
(-0.017777197 2.3651894e-06 5.4760151e-25)
(-0.017911145 2.1520396e-06 6.6465162e-25)
(-0.018032622 1.9651485e-06 -2.4453019e-24)
(-0.018144968 1.7956396e-06 1.8972441e-24)
(-0.018246621 1.6185854e-06 -5.2992292e-25)
(-0.018337623 1.4264386e-06 -1.822129e-24)
(-0.018416617 1.2100359e-06 7.8119586e-25)
(-0.018482475 9.7461963e-07 2.6749928e-24)
(-0.018531918 8.0599646e-07 -4.9034857e-25)
(-0.018577048 6.8057792e-07 -7.6685347e-25)
(-0.018612496 5.4308748e-07 -6.6853228e-25)
(-0.018641162 4.3601039e-07 -7.5461834e-25)
(-0.018663891 3.6160591e-07 1.5637041e-24)
(-0.018683816 3.3200182e-07 -7.979169e-25)
(-0.018702978 3.5556281e-07 -1.1467033e-24)
(-0.018725764 3.6516173e-07 1.822645e-24)
(-0.01874605 2.7318582e-07 -9.463803e-25)
(-0.01876057 -2.023335e-07 -1.0390335e-24)
(-0.018723468 -7.0771958e-07 1.0224595e-24)
(-0.018674763 -9.3788064e-07 1.7706093e-24)
(-0.018610785 -1.1458271e-06 2.2572065e-25)
(-0.01853727 -1.3045165e-06 -1.5002088e-24)
(-0.018454426 -1.450402e-06 -1.2556544e-24)
(-0.018363428 -1.5868293e-06 4.12888e-24)
(-0.018264304 -1.7173742e-06 -6.5344579e-24)
(-0.018157672 -1.8426823e-06 5.5499884e-24)
(-0.0180436 -1.9631811e-06 -4.7419252e-24)
(-0.017922531 -2.0793708e-06 1.8717789e-24)
(-0.017794589 -2.1908641e-06 8.8534358e-25)
(-0.017660139 -2.2986345e-06 2.2736682e-25)
(-0.017519344 -2.401748e-06 -1.6454296e-24)
(-0.017372525 -2.5010156e-06 1.01951e-24)
(-0.017219871 -2.5956786e-06 -9.6643636e-25)