/*--------------------------------*- C++ -*----------------------------------*\
  =========                 |
  \\      /  F ield         | OpenFOAM: The Open Source CFD Toolbox
   \\    /   O peration     | Website:  https://openfoam.org
    \\  /    A nd           | Version:  7
     \\/     M anipulation  |
\*---------------------------------------------------------------------------*/
FoamFile
{
    version     2.0;
    format      ascii;
    class       volSymmTensorField;
    location    "20000";
    object      bij;
}
// * * * * * * * * * * * * * * * * * * * * * * * * * * * * * * * * * * * * * //

dimensions      [0 0 0 0 0 0 0];

internalField   nonuniform List<symmTensor> 
32000
(
(2.0680304e-06 -0.00023648791 -6.4207266e-22 -2.0433691e-06 5.7220256e-24 -2.4661351e-08)
(-1.6067286e-07 -0.00016631209 -1.0149588e-19 2.6463765e-07 -1.569726e-19 -1.0396479e-07)
(-1.4721617e-05 -0.00026664832 -1.7666842e-19 1.4632416e-05 -3.0537909e-19 8.9201128e-08)
(-2.8783355e-05 -0.00018725489 -9.3373258e-20 2.8837307e-05 -4.3406939e-19 -5.395193e-08)
(-4.1384839e-05 -0.00013690406 -5.1920503e-20 4.1354829e-05 -5.0109767e-20 3.0010761e-08)
(-7.9678909e-06 -1.7556385e-05 -2.2574353e-20 8.0762721e-06 -7.0351457e-20 -1.0838126e-07)
(3.9065476e-05 4.6524583e-05 -1.5012844e-20 -3.8919652e-05 -8.9523726e-20 -1.4582398e-07)
(6.8879334e-05 5.5620696e-05 1.6122261e-22 -6.8761705e-05 -6.4198002e-25 -1.176288e-07)
(5.957852e-05 3.4511926e-05 -2.3884471e-20 -5.9514359e-05 -8.0532062e-20 -6.4161483e-08)
(4.8782509e-05 2.1044554e-05 -3.9301267e-20 -4.8731862e-05 -8.1089371e-20 -5.0646292e-08)
(3.8717845e-05 1.2798341e-05 -4.2450898e-21 -3.8693948e-05 -3.1763723e-21 -2.3896954e-08)
(3.4157312e-05 8.8851508e-06 1.2061142e-21 -3.4136961e-05 1.494669e-21 -2.0351115e-08)
(3.1444288e-05 6.6419241e-06 -3.4616793e-21 -3.1426795e-05 -4.645999e-21 -1.7493345e-08)
(2.9470685e-05 5.2714456e-06 4.2744432e-19 -2.9455578e-05 5.1005739e-19 -1.5106974e-08)
(2.7679837e-05 4.4318041e-06 4.389754e-19 -2.7665957e-05 5.1419934e-19 -1.3879243e-08)
(2.5836333e-05 3.9746721e-06 1.5442107e-21 -2.5823775e-05 -3.1718435e-21 -1.2557911e-08)
(2.4014733e-05 3.8305646e-06 -9.1325481e-20 -2.4008303e-05 -1.3048024e-19 -6.4300777e-09)
(2.2859587e-05 3.9863339e-06 -1.0253914e-19 -2.2854805e-05 -1.3653209e-19 -4.7823404e-09)
(2.2333915e-05 4.243728e-06 -4.9069823e-20 -2.2330834e-05 -6.4678378e-20 -3.0811775e-09)
(2.219303e-05 4.5337543e-06 -5.5578126e-20 -2.2191579e-05 -7.3248134e-20 -1.4514735e-09)
(2.2609585e-05 4.9112753e-06 -1.1163925e-21 -2.2609585e-05 2.0592629e-21 -5.1904446e-17)
(2.3496896e-05 5.374478e-06 -3.0269044e-24 -2.3496896e-05 3.3592697e-25 0)
(2.4926463e-05 5.9490964e-06 1.4777255e-21 -2.4937207e-05 2.2464768e-21 1.0744165e-08)
(2.694221e-05 6.6569347e-06 1.506866e-21 -2.694221e-05 2.3330069e-21 0)
(2.9464615e-05 7.4753973e-06 -7.5093895e-21 -2.9464615e-05 -9.3431092e-21 0)
(3.2496867e-05 8.4096543e-06 -3.5923528e-21 -3.249001e-05 -4.8888461e-21 -6.8573258e-09)
(3.5726794e-05 9.375716e-06 -5.4751438e-21 -3.5726794e-05 -7.6151688e-21 0)
(3.8843482e-05 1.0421646e-05 1.0322673e-22 -3.8838564e-05 -4.8132462e-24 -4.9181416e-09)
(4.1798921e-05 1.170058e-05 -1.8709653e-21 -4.1798921e-05 -2.7774684e-21 0)
(4.4590016e-05 1.32792e-05 1.5766133e-21 -4.4579323e-05 2.9204075e-21 -1.0693049e-08)
(4.7068031e-05 1.5182818e-05 2.0680117e-21 -4.7055677e-05 3.04241e-21 -1.2354625e-08)
(4.9097482e-05 1.7434889e-05 -1.8735707e-21 -4.9083953e-05 -3.2208711e-21 -1.3529204e-08)
(5.052319e-05 2.0038844e-05 -4.6361046e-21 -5.0508892e-05 -6.6263632e-21 -1.4298342e-08)
(5.1164571e-05 2.2970014e-05 7.5294805e-21 -5.1154024e-05 -4.3423935e-22 -1.0546787e-08)
(5.0872718e-05 2.6196347e-05 -9.3562162e-20 -5.0859564e-05 -2.0346342e-19 -1.3154631e-08)
(4.9676489e-05 2.9712493e-05 -1.0735188e-19 -4.9666374e-05 -2.2847084e-19 -1.0115351e-08)
(4.7889399e-05 3.3521653e-05 -9.2791003e-20 -4.7880285e-05 -2.1755095e-19 -9.1139782e-09)
(4.5405363e-05 3.726364e-05 -7.5162819e-19 -4.5398498e-05 -1.6143005e-18 -6.8650383e-09)
(4.2013524e-05 4.0622338e-05 -6.4927058e-19 -4.2008523e-05 -1.5080508e-18 -5.0004194e-09)
(3.7696502e-05 4.333728e-05 6.2415885e-19 -3.7695352e-05 1.6678975e-18 -1.1505113e-09)
(3.2656979e-05 4.5280339e-05 5.7815172e-19 -3.2656979e-05 1.7878706e-18 0)
(2.6838875e-05 4.5916127e-05 -9.7840639e-22 -2.6838875e-05 -2.9515786e-21 0)
(2.095083e-05 4.5874014e-05 4.2744861e-19 -2.0960647e-05 1.9563052e-18 9.8176333e-09)
(1.4867069e-05 4.411603e-05 3.3449368e-19 -1.4867069e-05 2.0341174e-18 0)
(9.7818371e-06 4.4132583e-05 2.4866945e-20 -9.7818371e-06 1.6823614e-21 0)
(4.7884403e-06 4.2849183e-05 1.7466638e-20 -4.7884403e-06 -6.949381e-19 0)
(1.0686902e-06 5.7241854e-05 1.1651456e-20 -1.0866514e-06 -6.7100898e-19 1.796118e-08)
(3.3478031e-07 7.8653856e-05 -2.448467e-20 -3.3478031e-07 1.301953e-21 4.0724085e-17)
(2.634019e-07 9.1880823e-05 -2.9129608e-27 -2.6877745e-07 -9.2873759e-25 5.375549e-09)
(2.3207196e-07 0.00010549365 9.4901664e-27 -2.3207196e-07 9.2831883e-25 0)
(1.9401678e-07 0.00011605095 -1.1688416e-26 -1.9797631e-07 -3.7268015e-25 3.9595262e-09)
(1.7590562e-07 0.00012604292 1.165327e-26 -1.8294185e-07 -1.0176903e-18 7.0362248e-09)
(1.5181101e-07 0.00013450206 -1.3362834e-26 -1.612992e-07 -1.0206225e-18 9.488188e-09)
(1.4406107e-07 0.00014234315 1.9935712e-26 -1.4982352e-07 3.7330434e-25 5.7624429e-09)
(1.2951446e-07 0.00014931412 -6.5564383e-27 -1.4008707e-07 3.0258675e-28 1.0572609e-08)
(1.2223352e-07 0.00015577863 2.4498515e-20 -1.2712286e-07 -1.0814776e-21 4.8893409e-09)
(1.1135684e-07 0.0001616846 1.3954922e-19 -1.2044719e-07 -6.7909488e-19 9.0903543e-09)
(1.0407687e-07 0.00016718476 8.1954573e-20 -1.1257294e-07 -6.7495128e-19 8.4960712e-09)
(1.0164716e-07 0.00017227638 -9.8378065e-20 -1.0762641e-07 3.4477286e-19 5.9792449e-09)
(9.1999892e-08 0.00017702521 -7.5722522e-20 -9.9510087e-08 -1.7696903e-18 7.5101952e-09)
(8.6953966e-08 0.00018143654 -1.4186971e-19 -9.4052249e-08 -3.5674226e-18 7.0982829e-09)
(8.2441848e-08 0.00018553846 -1.0667378e-19 -8.9171795e-08 -1.4561041e-18 6.7299468e-09)
(7.5186103e-08 0.00018933457 2.5495897e-20 -8.3184625e-08 -9.7143909e-22 7.9985216e-09)
(7.1678606e-08 0.00019283599 -3.4137878e-27 -7.9303989e-08 2.253907e-27 7.6253835e-09)
(6.413333e-08 0.00019604382 -2.2384222e-27 -7.1421209e-08 -2.0228987e-25 7.2878785e-09)
(6.0045044e-08 0.00019896127 1.5783052e-26 -6.563063e-08 4.1346706e-25 5.5855855e-09)
(5.4974104e-08 0.00020158779 1.359737e-20 -6.1678263e-08 -4.5029085e-22 6.7041591e-09)
(4.903097e-08 0.00020392522 9.9977681e-20 -5.5482413e-08 -3.7637671e-19 6.4514435e-09)
(4.3548559e-08 0.00020597538 1.4676096e-19 -4.9769781e-08 -4.2489169e-18 6.2212227e-09)
(3.8471986e-08 0.00020774168 4.6301618e-20 -4.4483234e-08 -3.9225531e-18 6.0112479e-09)
(3.1425549e-08 0.00020922746 -1.3977873e-20 -3.8409004e-08 4.2093094e-22 6.9834553e-09)
(2.7093189e-08 0.00021043671 1.5946615e-28 -3.3866487e-08 -6.5268235e-31 6.7732973e-09)
(1.0968739e-08 0.00021137363 6.3500378e-27 -2.1937478e-08 2.2654473e-25 1.0968739e-08)
(1.0676141e-08 0.00021204314 -1.4297168e-26 -2.1352282e-08 -2.2632555e-25 1.0676141e-08)
(2.0817231e-08 0.00021245097 3.9736111e-27 -1.0408616e-08 3.4526016e-25 -1.0408616e-08)
(5.0444588e-17 0.00021260325 -1.5377736e-20 5.0444588e-17 3.6993197e-22 5.0444588e-17)
(-4.9335215e-17 0.00021250031 -9.1073898e-20 -4.9335215e-17 4.2449785e-19 -4.9335215e-17)
(-4.8323102e-17 0.00021214556 -5.9988284e-20 -4.8323102e-17 4.2802481e-19 -4.8323102e-17)
(-1.9101308e-08 0.00021154531 1.5613698e-20 9.5506539e-09 -3.4475043e-22 9.5506539e-09)
(-1.8763121e-08 0.00021070704 -1.0140845e-26 9.3815604e-09 4.8662528e-25 9.3815604e-09)
(-9.2280582e-09 0.00020963809 1.652602e-20 1.8456116e-08 -3.1515448e-22 -9.2280582e-09)
(-2.7267159e-08 0.00020834574 9.0762434e-20 2.7267159e-08 -4.5588934e-19 0)
(-2.6890913e-08 0.00020683948 5.6950526e-20 2.6890912e-08 -4.6023942e-19 0)
(-2.6552702e-08 0.00020512707 -1.6775287e-20 2.6552702e-08 2.8578644e-22 0)
(-4.3750765e-08 0.00020321609 7.3148059e-27 3.5000612e-08 -4.3710663e-18 8.750153e-09)
(-3.4642557e-08 0.00020111764 9.8748724e-29 4.3303196e-08 -4.4348512e-18 -8.6606392e-09)
(-4.290843e-08 0.00019883924 2.4104372e-27 3.4326744e-08 -6.3868737e-26 8.5816861e-09)
(-4.2563777e-08 0.00019638977 -7.2556789e-27 3.4051022e-08 6.9482032e-26 8.5127554e-09)
(-5.0719579e-08 0.00019378083 2.4228556e-27 5.0719579e-08 -3.0780138e-18 0)
(-5.0416343e-08 0.00019102072 1.2772046e-27 5.0416343e-08 -3.120271e-18 -4.1703422e-17)
(-5.0164175e-08 0.00018812033 1.8954217e-20 5.0164175e-08 -1.710708e-22 -4.1494833e-17)
(-5.8287039e-08 0.00018508928 8.4990639e-20 6.6613759e-08 -5.223133e-19 -8.3267199e-09)
(-4.9802793e-08 0.00018193593 4.5727202e-20 4.9802793e-08 -5.2782295e-19 0)
(-5.7970407e-08 0.00017867234 -1.919787e-20 6.6251893e-08 1.3473668e-22 -8.2814867e-09)
(-6.6154328e-08 0.00017530712 1.3097181e-27 5.7885037e-08 -7.8839728e-30 8.2692909e-09)
(-6.6115436e-08 0.00017184835 2.0134512e-20 5.7851006e-08 -8.0786468e-23 8.2644295e-09)
(-6.6127093e-08 0.00016830735 8.0195637e-20 5.7861206e-08 -5.5467014e-19 8.2658866e-09)
(-5.7917147e-08 0.00016469194 3.8412608e-20 6.6191025e-08 -5.6060301e-19 -8.2738781e-09)
(-5.8019151e-08 0.00016100996 -2.0366573e-20 6.6307601e-08 4.0892926e-23 -8.2884501e-09)
(-7.4772199e-08 0.0001572745 3.9159332e-41 7.4772199e-08 -1.4830889e-26 0)
(-5.831966e-08 0.00015349271 -9.6661898e-45 6.665104e-08 -3.6608945e-30 -8.33138e-09)
(-5.852869e-08 0.00014966847 -2.1475957e-20 6.6889932e-08 -4.3110635e-23 -8.3612415e-09)
(-6.7174181e-08 0.00014581229 -7.3522119e-20 8.3967726e-08 5.9140415e-19 -1.6793545e-08)
(-7.5933531e-08 0.00014193125 -2.8977101e-20 7.5933531e-08 -1.2342074e-18 0)
(-7.6341317e-08 0.00013803093 2.1686593e-20 7.6341317e-08 -1.8494164e-18 0)
(-6.82596e-08 0.00013411997 2.229251e-20 8.53245e-08 1.3407185e-22 -1.70649e-08)
(-6.8697502e-08 0.00013020366 4.6225029e-20 8.5871878e-08 -6.1386881e-19 -1.7174376e-08)
(-6.9172589e-08 0.00012628677 -4.5035895e-20 8.6465736e-08 -7.0559628e-22 -1.7293147e-08)
(-6.968426e-08 0.00012237632 -4.3472978e-20 8.7105325e-08 6.2633159e-19 -1.7421065e-08)
(-7.901138e-08 0.00011847655 2.2701732e-20 7.901138e-08 2.0490681e-22 0)
(-7.9669442e-08 0.00011459199 -5.9812593e-27 7.9669442e-08 8.807967e-26 0)
(-8.0369068e-08 0.00011072795 -7.4770652e-29 8.0369068e-08 -2.6581381e-25 4.4319823e-17)
(-6.3086101e-08 0.00010688832 3.8280831e-27 7.2098402e-08 -1.8184555e-25 -9.0123002e-09)
(-6.3695539e-08 0.00010307867 5.0465776e-27 7.2794902e-08 3.6526851e-25 -9.0993627e-09)
(-6.4337381e-08 9.9303204e-05 -8.9000905e-27 7.3528436e-08 -4.5746062e-25 -9.1910545e-09)
(-6.5011587e-08 9.5565478e-05 6.5032767e-27 7.4298956e-08 2.7412323e-25 -9.2873695e-09)
(-8.4494223e-08 9.1870278e-05 -1.0687398e-27 8.4494223e-08 1.8721536e-25 0)
(-6.6455766e-08 8.8220728e-05 -8.8345045e-27 7.5949447e-08 3.7224273e-25 -9.4936809e-09)
(-6.7225952e-08 8.4619309e-05 4.5742719e-27 7.6829659e-08 -1.8595763e-25 -9.6037074e-09)
(-7.7746789e-08 8.1069582e-05 -2.4780911e-20 6.8028441e-08 -4.9762512e-22 9.7183487e-09)
(-6.8863865e-08 7.7573606e-05 -5.247211e-20 7.870156e-08 6.8165487e-19 -9.837695e-09)
(-6.9733907e-08 7.4132778e-05 2.3534772e-20 7.9695893e-08 6.9027823e-19 -9.9619866e-09)
(-7.0640147e-08 7.0749818e-05 7.5252464e-20 8.0731596e-08 -6.8931016e-19 -1.009145e-08)
(-6.135761e-08 6.7427285e-05 -1.1372143e-21 6.135761e-08 -6.9817091e-19 0)
(-7.2567142e-08 6.4166323e-05 -5.0715753e-20 8.2933877e-08 -1.2463897e-21 -1.0366735e-08)
(-6.3077518e-08 6.0970678e-05 -4.7283428e-20 6.3077518e-08 7.0151441e-19 0)
(-5.332559e-08 5.7840529e-05 5.6555589e-20 7.4655825e-08 7.1160034e-19 -2.1330236e-08)
(-5.4118454e-08 5.4778878e-05 1.1635594e-19 7.5765836e-08 -1.4176369e-18 -2.1647382e-08)
(-4.3955382e-08 5.1786704e-05 -1.4793734e-20 5.4944228e-08 -1.4362546e-18 -1.0988846e-08)
(-5.9153312e-08 4.8866851e-05 -7.7985308e-20 6.4733813e-08 -2.2958743e-21 -5.5805012e-09)
(-5.6703453e-08 4.6018587e-05 -4.264568e-20 6.2373798e-08 5.1475377e-18 -5.6703453e-09)
(-5.648925e-08 4.32468e-05 1.0820525e-20 6.1100617e-08 5.172459e-18 -4.6113674e-09)
(-5.3935801e-08 4.0548277e-05 2.6282818e-20 5.8625871e-08 8.4321162e-22 -4.6900696e-09)
(-5.2498256e-08 3.7933445e-05 5.3789979e-27 5.8463967e-08 -4.1073125e-25 -5.9657109e-09)
(-5.102345e-08 3.5393103e-05 -5.0755825e-23 5.8312515e-08 -1.3713772e-24 -7.2890643e-09)
(-5.0745539e-08 3.2945062e-05 -1.1700297e-20 5.6934019e-08 2.2598691e-18 -6.1884803e-09)
(-4.7951641e-08 3.0572869e-05 -1.0810037e-20 5.4261067e-08 2.2763506e-18 -6.3094264e-09)
(-4.7636491e-08 2.8307102e-05 -2.7068873e-20 5.2786382e-08 -1.031986e-21 -5.1498909e-09)
(-4.4701857e-08 2.6117293e-05 -2.7187697e-20 4.9960899e-08 -1.5424729e-18 -5.259042e-09)
(-4.3001251e-08 2.4055759e-05 2.7046366e-20 4.9720196e-08 -1.5484012e-18 -6.7189454e-09)
(-3.8502326e-08 2.2066152e-05 2.719091e-20 4.4002658e-08 1.0912211e-21 -5.5003322e-09)
(-3.9441794e-08 2.0242269e-05 -2.0303174e-27 4.5076336e-08 -8.4807e-25 -5.634542e-09)
(-3.6134343e-08 1.8477935e-05 2.9978341e-26 4.1915838e-08 -1.6922479e-27 -5.781495e-09)
(-3.2674348e-08 1.6941625e-05 1.690458e-26 3.8615139e-08 4.6676034e-18 -5.9407905e-09)
(-2.9066321e-08 1.5438327e-05 -2.8432651e-26 3.5185546e-08 4.6756882e-18 -6.1192255e-09)
(-2.6840345e-08 1.4269475e-05 -1.6572831e-26 2.9998032e-08 -2.1340368e-24 -3.1576876e-09)
(-2.126089e-08 1.3080363e-05 -1.4569369e-28 2.7802702e-08 1.2765891e-24 -6.5418122e-09)
(-1.8687329e-08 1.240848e-05 1.3922183e-26 2.2085025e-08 2.3647795e-18 -3.3976962e-09)
(-1.0649708e-08 1.1615113e-05 1.1640802e-27 1.5974562e-08 2.368043e-18 -5.3248541e-09)
(-7.4501183e-09 1.1648349e-05 -1.1152307e-27 9.312648e-09 -8.7441758e-25 -1.8625296e-09)
(1.9728946e-09 1.139066e-05 1.6484937e-26 1.9728946e-09 2.1638951e-24 -3.9457893e-09)
(1.0534387e-08 1.247205e-05 -3.068948e-26 -8.42751e-09 1.2989257e-24 -2.1068775e-09)
(2.2966209e-08 1.3002e-05 -3.9374939e-24 -1.8372967e-08 -4.8036987e-18 -4.5932417e-09)
(-1.5389628e-07 1.5548388e-05 3.0902461e-20 1.5389628e-07 -4.8087733e-18 0)
(-1.9387532e-06 1.791994e-05 2.7972048e-22 1.9387532e-06 -7.1321123e-21 0)
(-3.9380809e-06 1.7775203e-05 7.2667832e-22 3.9330255e-06 -7.1893528e-21 5.0553028e-09)
(-5.9264731e-06 1.755267e-05 -1.6002411e-21 5.9167616e-06 1.0505116e-20 9.7115496e-09)
(-7.242084e-06 1.5779638e-05 -2.4402374e-22 7.2258617e-06 -1.5409858e-23 1.6222268e-08)
(-8.1378604e-06 1.3863944e-05 2.1672901e-20 8.1179635e-06 7.828763e-21 1.9896969e-08)
(-8.0953065e-06 1.1190088e-05 -3.5457551e-19 8.0742195e-06 1.2422465e-18 2.1087019e-08)
(-7.4344027e-06 8.5083027e-06 5.5941308e-19 7.4082465e-06 -1.4955934e-18 2.6156221e-08)
(-5.775521e-06 5.5474961e-06 1.027577e-18 5.7486582e-06 -2.5273391e-18 2.6862889e-08)
(-3.3855294e-06 2.7371078e-06 -3.5461795e-20 3.3526069e-06 -1.8705322e-20 3.292249e-08)
(-1.5670469e-08 -3.2485101e-08 5.2600843e-19 -1.5670469e-08 -1.0884806e-18 3.1340938e-08)
(4.1708892e-06 -2.5509013e-06 1.1619829e-18 -4.2039259e-06 -2.044527e-18 3.3036746e-08)
(9.4850625e-06 -4.9504093e-06 2.1392417e-18 -9.513111e-06 -3.4423077e-18 2.8048485e-08)
(1.5785921e-05 -7.1651295e-06 1.5272745e-18 -1.5809416e-05 -2.330483e-18 2.3495324e-08)
(2.2841174e-05 -9.155978e-06 5.2216694e-21 -2.2859188e-05 -7.7002923e-21 1.8014637e-08)
(3.0590991e-05 -1.0981177e-05 -5.9251719e-22 -3.0602784e-05 -3.3220251e-23 1.179298e-08)
(3.8880479e-05 -1.26845e-05 1.0414667e-20 -3.8882962e-05 -1.4297913e-20 2.4838201e-09)
(4.7687008e-05 -1.4369569e-05 -1.5105903e-20 -4.7679926e-05 2.0284016e-20 -7.0820536e-09)
(5.6779637e-05 -1.6088729e-05 -1.4220642e-20 -5.6761631e-05 6.1080949e-21 -1.8005276e-08)
(6.6161138e-05 -1.7976376e-05 -1.7517103e-19 -6.6128896e-05 2.441034e-19 -3.224227e-08)
(7.5254236e-05 -2.0007699e-05 -1.5137812e-19 -7.5223126e-05 2.4042115e-19 -3.1109647e-08)
(8.3729859e-05 -2.1967704e-05 -1.3569108e-20 -8.3689405e-05 2.9666024e-20 -4.0454093e-08)
(9.1382203e-05 -2.355893e-05 -9.0390781e-21 -9.1332436e-05 1.1344982e-20 -4.9767021e-08)
(9.8898177e-05 -2.4732006e-05 -7.832123e-21 -9.8839692e-05 -2.9203664e-22 -5.8485025e-08)
(0.00010670023 -2.5757813e-05 -1.3813109e-19 -0.00010663351 2.0889826e-19 -6.6717429e-08)
(0.00011450504 -2.6471571e-05 -1.055804e-19 -0.00011443992 1.8761621e-19 -6.5123115e-08)
(0.00012280092 -2.69399e-05 6.7922085e-21 -0.00012271041 2.1843449e-22 -9.0507752e-08)
(0.00013158935 -2.7119898e-05 1.548205e-22 -0.00013149292 4.1228985e-24 -9.643457e-08)
(0.00014148976 -2.7105712e-05 -6.8810054e-21 -0.00014136345 8.3025854e-21 -1.2630759e-07)
(0.00015259493 -2.6824023e-05 4.820164e-21 -0.00015245801 9.814601e-23 -1.3692145e-07)
(0.00016726555 -2.6901102e-05 -2.294462e-19 -0.00016709423 2.8070387e-19 -1.7131758e-07)
(0.0001867857 -2.8993401e-05 -4.2698335e-19 -0.00018657824 5.0075771e-19 -2.0745787e-07)
(0.00020987314 -3.3930044e-05 -3.856994e-19 -0.00020962288 4.4577615e-19 -2.5025329e-07)
(0.00023741276 -4.2867161e-05 -1.8798892e-19 -0.00023711789 2.1724543e-19 -2.9487036e-07)
(0.00026989452 -5.7482849e-05 -6.4230932e-21 -0.0002695352 -3.1851276e-23 -3.5931962e-07)
(0.00030955475 -8.098746e-05 1.3814726e-19 -0.00030912586 -1.8127692e-19 -4.2888939e-07)
(0.00035526145 -0.00011758566 2.2872782e-19 -0.00035475418 -3.1676332e-19 -5.072778e-07)
(0.00040852849 -0.00017608311 1.7458508e-19 -0.00040791584 -2.5354361e-19 -6.1265175e-07)
(0.00045442816 -0.00026299723 5.1601018e-20 -0.00045375625 -8.2567211e-20 -6.7191008e-07)
(0.00047740277 -0.00038671093 1.5445138e-19 -0.00047667404 7.9880498e-20 -7.2872433e-07)
(0.00041811919 -0.00050616541 1.9939453e-19 -0.00041759946 1.8203808e-20 -5.1973539e-07)
(0.00028847747 -0.0005480477 -1.4262463e-19 -0.00028822348 5.6526877e-19 -2.5398717e-07)
(0.00015104363 -0.00048182739 -1.1824927e-19 -0.00015106392 7.7541388e-19 2.0287021e-08)
(6.3474594e-05 -0.00039243255 -3.5624826e-23 -6.3483375e-05 6.1444114e-22 8.7817645e-09)
(1.5380966e-05 -0.00025840521 3.2384078e-21 -1.5501913e-05 1.3932205e-22 1.2094671e-07)
(6.7055902e-07 -0.0002272141 1.456847e-19 -5.9318683e-07 -1.375787e-19 -7.7372195e-08)
(-1.1041412e-06 -0.00010571527 6.1398523e-20 1.0070739e-06 -1.839455e-19 9.706736e-08)
(8.3987895e-06 -0.0014157723 6.0777795e-21 -8.3987895e-06 -5.4008829e-23 0)
(-3.1586248e-06 -0.001074881 5.5159663e-19 3.948281e-06 -2.0055199e-18 -7.896562e-07)
(-8.7850099e-05 -0.0015675508 2.8585599e-18 8.7074057e-05 2.7255e-19 7.7604242e-07)
(-0.00017006721 -0.0011623256 1.8512241e-18 0.00017050143 1.2190323e-18 -4.342165e-07)
(-0.00024709043 -0.00085987209 1.6824928e-19 0.00024681544 -7.4165147e-19 2.7498796e-07)
(-7.1641917e-05 -0.00018494526 -5.3197624e-19 7.1180373e-05 -2.2640743e-18 4.6154421e-07)
(0.00020132393 0.00022394721 -9.7175794e-19 -0.00020205685 -2.4439522e-18 7.3291883e-07)
(0.00038814403 0.0003104207 6.922448e-19 -0.00038868678 1.4502644e-18 5.4275348e-07)
(0.0003442229 0.00020080207 1.5787454e-19 -0.00034457592 5.1969824e-19 3.5302538e-07)
(0.00028479552 0.00012412402 2.2634731e-19 -0.00028501097 4.6082721e-19 2.154448e-07)
(0.00022807592 7.618692e-05 8.501112e-19 -0.00022820577 1.1466823e-18 1.2984464e-07)
(0.00020168779 5.2769032e-05 -4.9888446e-21 -0.00020179256 -1.0044629e-20 1.0476608e-07)
(0.00018589692 3.9413531e-05 5.2106184e-20 -0.00018598642 -1.1664797e-21 8.9502609e-08)
(0.00017438794 3.129852e-05 -2.1759141e-18 -0.00017447112 -3.0493647e-18 8.3177009e-08)
(0.00016399234 2.6378362e-05 3.0801255e-19 -0.00016406236 7.2009728e-20 7.0013809e-08)
(0.00015333184 2.3756087e-05 1.7893224e-18 -0.00015339299 2.2025726e-18 6.1149289e-08)
(0.000142926 2.2973184e-05 -2.3606278e-18 -0.00014297304 -2.6103223e-18 4.7040922e-08)
(0.00013637494 2.3911836e-05 -1.4131503e-18 -0.00013640085 -1.6078986e-18 2.5909062e-08)
(0.00013349728 2.5454591e-05 -7.2657552e-19 -0.00013352228 -8.6038935e-19 2.4992003e-08)
(0.00013294271 2.7206465e-05 -7.2717203e-19 -0.0001329474 -8.7324018e-19 4.6936416e-09)
(0.0001356439 2.9459276e-05 1.7895926e-20 -0.0001356439 -1.3034428e-20 0)
(0.00014114107 3.2219044e-05 2.9110534e-23 -0.00014114107 -2.4818618e-24 0)
(0.00014982859 3.5617329e-05 -8.0457489e-21 -0.00014982517 -1.2734926e-20 -3.4248101e-09)
(0.00016189421 3.9782758e-05 2.2065362e-20 -0.00016189123 2.7642902e-20 -2.9726631e-09)
(0.00017690185 4.4580615e-05 7.2655777e-20 -0.00017689677 9.6507512e-20 -5.0885775e-09)
(0.00019479689 5.003444e-05 2.0474542e-20 -0.0001948012 2.7681743e-20 4.3074739e-09)
(0.00021383237 5.5689552e-05 -1.3307267e-18 -0.00021384506 -1.7252967e-18 1.2694976e-08)
(0.00023210591 6.1851756e-05 -1.3678632e-18 -0.0002321289 -1.7854458e-18 2.2996721e-08)
(0.000249472 6.9402114e-05 -2.5441005e-20 -0.00024950706 -3.23797e-20 3.5061182e-08)
(0.00026580814 7.8737397e-05 6.674464e-20 -0.00026585235 8.386432e-20 4.4205578e-08)
(0.00028027674 9.0025348e-05 2.5797412e-20 -0.00028033409 3.5570209e-20 5.7345625e-08)
(0.00029216046 0.00010341146 -2.9885028e-20 -0.00029221898 -3.7406429e-20 5.8519035e-08)
(0.00030052681 0.00011893823 2.6717107e-20 -0.00030059298 3.7498113e-20 6.6175897e-08)
(0.00030435392 0.0001364955 -2.924427e-20 -0.00030442543 6.7057586e-20 7.1510201e-08)
(0.0003028074 0.00015593155 -1.656845e-18 -0.00030287683 -2.3783706e-18 6.9431332e-08)
(0.0002961119 0.00017720921 -1.5630823e-18 -0.00029616895 -2.5254879e-18 5.7049319e-08)
(0.00028584115 0.00020027174 -1.6251423e-18 -0.00028589252 -2.5847677e-18 5.1364928e-08)
(0.00027141897 0.00022307885 1.7598793e-18 -0.00027145694 5.1835586e-18 3.7962465e-08)
(0.00025163321 0.00024385112 3.6315211e-18 -0.00025165624 8.6155406e-18 2.3029626e-08)
(0.00022641889 0.00026110021 -2.713317e-18 -0.00022642949 -9.5968063e-18 1.0592201e-08)
(0.00019677204 0.00027405197 -3.0191551e-18 -0.00019677204 -1.0167587e-17 0)
(0.00016263934 0.00027981396 1.5673355e-18 -0.00016261752 5.750942e-18 -2.1822834e-08)
(0.00012778481 0.00028170488 -4.9261122e-19 -0.00012776976 -5.236058e-18 -1.5049796e-08)
(9.1740136e-05 0.00027453933 -1.7290523e-18 -9.170446e-05 -1.1533404e-17 -3.5675728e-08)
(6.1019469e-05 0.00027724327 -1.8294754e-18 -6.1022444e-05 -1.2412746e-17 2.9748181e-09)
(3.2130495e-05 0.00027572472 -1.5641497e-18 -3.2064856e-05 -2.1206699e-17 -6.5639418e-08)
(1.0522461e-05 0.00035989182 -5.0571813e-20 -1.0549985e-05 -8.6170295e-18 2.7524094e-08)
(5.6390853e-06 0.00048139435 2.3082933e-19 -5.5727431e-06 -1.2277509e-20 -6.634218e-08)
(4.4171014e-06 0.00055895784 -1.0323535e-25 -4.4105186e-06 6.1372305e-18 -6.5828635e-09)
(3.9413894e-06 0.0006369128 2.2711483e-25 -3.9010007e-06 1.8361015e-17 -4.0388796e-08)
(3.3646773e-06 0.0006980963 -1.1365679e-19 -3.3416565e-06 1.2230535e-17 -2.3020839e-08)
(3.0031234e-06 0.00075540716 -6.3550348e-19 -2.9708318e-06 5.7735116e-18 -3.229165e-08)
(2.6510589e-06 0.00080418486 -4.4293799e-19 -2.6317081e-06 1.1873259e-17 -1.9350795e-08)
(2.4060493e-06 0.00084917738 1.1398464e-19 -2.3796092e-06 6.139005e-18 -2.6440103e-08)
(2.182809e-06 0.00088925274 0 -2.1585556e-06 3.3323592e-24 -2.4253433e-08)
(2.0038049e-06 0.00092631203 -2.3163125e-19 -1.9664205e-06 -1.2329737e-17 -3.738442e-08)
(1.841795e-06 0.00096016848 -8.843094e-19 -1.8070442e-06 -1.4836511e-17 -3.475085e-08)
(1.7148042e-06 0.00099162848 -3.2317915e-19 -1.6758314e-06 -2.4503073e-18 -3.8972823e-08)
(1.5846426e-06 0.0010207172 4.6165571e-19 -1.5419791e-06 4.3561624e-18 -4.2663454e-08)
(1.4755028e-06 0.0010477853 -1.455211e-18 -1.435314e-06 2.2704766e-17 -4.0188793e-08)
(1.3673956e-06 0.0010728789 -2.1353488e-18 -1.3348386e-06 3.2967031e-17 -3.2557039e-08)
(1.2603883e-06 0.0010961498 -5.4212412e-19 -1.2243772e-06 1.4641575e-17 -3.6011095e-08)
(1.164102e-06 0.0011176257 2.5437755e-22 -1.1249726e-06 -9.4980117e-24 -3.9129481e-08)
(1.0631386e-06 0.0011373681 -6.5561575e-26 -1.0211726e-06 6.5623192e-18 -4.1965997e-08)
(9.6703957e-07 0.0011553875 3.5080509e-32 -9.3138834e-07 6.6432347e-18 -3.5651228e-08)
(8.7093006e-07 0.0011717035 3.4640612e-26 -8.3250668e-07 1.3307676e-24 -3.8423385e-08)
(7.7476928e-07 0.001186317 -1.2847086e-19 -7.3787551e-07 4.2522427e-21 -3.6893775e-08)
(6.7849121e-07 0.0011992412 -1.0605959e-18 -6.4693348e-07 -4.7585742e-18 -3.155773e-08)
(5.8960296e-07 0.0012104897 -3.7594668e-18 -5.5156406e-07 1.0078128e-17 -3.8038901e-08)
(4.9618601e-07 0.001220084 -2.3228013e-18 -4.6310694e-07 1.5051818e-17 -3.3079067e-08)
(4.0563418e-07 0.0012280461 5.2713724e-19 -3.7361043e-07 1.4297852e-17 -3.2023751e-08)
(3.1059677e-07 0.0012344007 -1.9790549e-34 -2.795371e-07 1.6849361e-20 -3.1059677e-08)
(2.2801665e-07 0.0012391748 8.3105765e-36 -1.9448479e-07 -2.9437412e-17 -3.3531861e-08)
(1.4360308e-07 0.0012423991 3.8571297e-26 -1.1096601e-07 -1.4933741e-17 -3.2637063e-08)
(5.4092225e-08 0.0012441097 1.3825212e-25 -2.2273269e-08 -7.5780126e-18 -3.1818956e-08)
(-2.796372e-08 0.001244344 1.4523638e-19 5.5927441e-08 -7.6981073e-18 -2.796372e-08)
(-1.0939423e-07 0.0012431005 5.7498292e-19 1.3674278e-07 5.4017446e-18 -2.7348557e-08)
(-1.9346412e-07 0.0012404029 2.8124526e-19 2.1727508e-07 2.1286215e-17 -2.3810968e-08)
(-2.6275871e-07 0.0012362905 -1.4721258e-19 2.8903458e-07 1.6042649e-17 -2.6275871e-08)
(-3.4127259e-07 0.0012308075 3.4979616e-25 3.6421528e-07 3.8598943e-24 -2.2942695e-08)
(-4.146724e-07 0.0012239972 -1.560569e-19 4.400605e-07 -8.2302719e-18 -2.5388106e-08)
(-4.8621958e-07 0.0012159037 -5.7753561e-19 5.0566836e-07 -1.4164707e-17 -1.9448783e-08)
(-5.5349011e-07 0.0012065813 -2.5980982e-19 5.7267047e-07 -5.8982762e-18 -1.9180351e-08)
(-6.1687216e-07 0.0011960764 -3.2996818e-19 6.3310564e-07 5.1413597e-21 -1.6233478e-08)
(-6.7939292e-07 0.0011844344 -2.9832182e-18 6.9276679e-07 2.4729612e-17 -1.3373876e-08)
(-7.4127368e-07 0.0011717179 -1.9745831e-18 7.5186331e-07 2.5044432e-17 -1.0589624e-08)
(-7.9484958e-07 0.0011579724 4.9532422e-19 8.0271937e-07 -6.9593555e-21 -7.8697978e-09)
(-8.4571186e-07 0.0011432505 -3.4376076e-19 8.5612062e-07 4.1417208e-21 -1.0408761e-08)
(-8.9664832e-07 0.0011276169 -1.9288869e-18 9.0181632e-07 8.172659e-18 -5.1680018e-09)
(-9.4008883e-07 0.0011111221 -1.2143153e-18 9.4779448e-07 8.2608611e-18 -7.7056462e-09)
(-9.8905551e-07 0.0010938274 1.6953562e-19 9.8905551e-07 1.8935118e-17 -4.0589273e-17)
(-1.0232151e-06 0.0010757888 -5.5390947e-19 1.0232151e-06 1.2527892e-17 0)
(-1.0605849e-06 0.0010570559 -1.8728765e-19 1.0631222e-06 -6.7490969e-18 -2.5372845e-09)
(-1.0986633e-06 0.0010376957 1.8114865e-19 1.0961318e-06 -1.2709683e-21 2.5314821e-09)
(-1.1273782e-06 0.0010177592 7.1356083e-39 1.1248505e-06 -1.3512156e-24 2.5277539e-09)
(-1.1545045e-06 0.00099729384 -1.9008484e-19 1.1494519e-06 7.633642e-22 5.052536e-09)
(-1.1774488e-06 0.0009763623 -5.3114342e-19 1.1723954e-06 3.1324366e-18 5.0534283e-09)
(-1.198821e-06 0.00095501098 -1.4148224e-19 1.1912335e-06 3.1682459e-18 7.5874745e-09)
(-1.2161348e-06 0.00093328572 1.9223847e-19 1.208534e-06 -3.8584005e-22 7.6008426e-09)
(-1.2317055e-06 0.000911259 -5.7868549e-27 1.2215471e-06 -5.0411719e-27 1.0158396e-08)
(-1.2428097e-06 0.00088897343 1.6554866e-27 1.2326228e-06 -1.2445609e-30 1.0186965e-08)
(-1.2549332e-06 0.00086645227 2.027401e-19 1.2447097e-06 4.0697857e-22 1.0223488e-08)
(-1.2654011e-06 0.00084375346 2.9372209e-19 1.2525674e-06 -3.3447412e-18 1.2833683e-08)
(-1.2740532e-06 0.00082091885 -7.0064647e-19 1.2559998e-06 6.979667e-18 1.8053385e-08)
(-1.2757114e-06 0.00079798105 -5.6124697e-19 1.2601539e-06 1.0461887e-17 1.5557456e-08)
(-1.2754209e-06 0.00077498787 -3.8840005e-21 1.2597716e-06 -2.3052336e-22 1.5649336e-08)
(-1.2757306e-06 0.00075197079 -2.6177552e-19 1.2599808e-06 -7.8352395e-18 1.574976e-08)
(-1.2766262e-06 0.00072895752 4.2496276e-19 1.2528382e-06 1.1743729e-20 2.3788067e-08)
(-1.2674335e-06 0.00070598704 2.4632378e-19 1.2487948e-06 7.9794829e-18 1.8638728e-08)
(-1.2666705e-06 0.00068308483 -2.144405e-19 1.2452015e-06 -1.9390165e-21 2.1468991e-08)
(-1.2582814e-06 0.00066027702 4.6253866e-26 1.2339276e-06 -1.1718932e-17 2.4353834e-08)
(-1.2474964e-06 0.0006375934 -7.642969e-26 1.2256584e-06 -1.1808863e-17 2.1838012e-08)
(-1.2397269e-06 0.00061505753 2.9686875e-26 1.2149324e-06 2.6374741e-24 2.4794538e-08)
(-1.2322359e-06 0.0005927002 -3.0608517e-26 1.2044202e-06 -1.2000042e-17 2.7815708e-08)
(-1.2137508e-06 0.00057054629 -9.8065032e-27 1.1884644e-06 -2.4173308e-17 2.5286476e-08)
(-1.2009223e-06 0.00054861643 7.1010643e-26 1.1753708e-06 -1.2170978e-17 2.5551539e-08)
(-1.1881414e-06 0.00052693725 3.1902147e-26 1.1623122e-06 2.448886e-17 2.5829161e-08)
(-1.1724675e-06 0.00050552725 7.2063788e-26 1.143446e-06 2.4640935e-17 2.9021472e-08)
(-1.1596379e-06 0.00048440111 -1.2839461e-25 1.13028e-06 1.0736484e-24 2.9357922e-08)
(-1.137835e-06 0.00046357858 2.3391147e-19 1.1081265e-06 4.6957826e-21 2.9708486e-08)
(-1.118732e-06 0.00044307213 3.915084e-19 1.0916659e-06 8.7147881e-18 2.7066097e-08)
(-1.0963268e-06 0.00042289026 -3.2140554e-19 1.0689186e-06 -1.6555836e-17 2.7408169e-08)
(-1.0828147e-06 0.00040304842 -6.1609725e-19 1.0550502e-06 -3.4259651e-17 2.7764479e-08)
(-1.0597716e-06 0.00038356161 1.0099984e-19 1.0316361e-06 -8.855431e-18 2.8135529e-08)
(-1.0394731e-06 0.00036443711 4.7911349e-19 1.0141201e-06 1.2910232e-17 2.5353003e-08)
(-1.0187841e-06 0.00034569564 3.6488619e-19 9.8664582e-07 2.1929847e-17 3.21383e-08)
(-9.9441414e-07 0.00032733949 -6.1120796e-19 9.618104e-07 3.5025117e-17 3.2603742e-08)
(-9.7280724e-07 0.00030938563 -9.5252877e-19 9.4302742e-07 3.4168056e-17 2.9779813e-08)
(-9.4734389e-07 0.00029184013 2.7827614e-19 9.1710951e-07 8.0842994e-18 3.0234379e-08)
(-9.2465876e-07 0.00027471936 1.2315861e-18 8.9736256e-07 3.6580572e-20 2.7296199e-08)
(-8.9794737e-07 0.0002580204 1.2060576e-18 8.7021155e-07 -2.9110929e-17 2.7735826e-08)
(-8.7052456e-07 0.00024177031 -3.0894538e-19 8.4232943e-07 -2.9322705e-17 2.8195127e-08)
(-8.4595746e-07 0.00022595351 -7.4489233e-19 8.208655e-07 -2.3907866e-20 2.5091958e-08)
(-8.2436744e-07 0.00021062707 6.7548135e-26 7.951863e-07 -1.2286058e-23 2.9181148e-08)
(-7.9479959e-07 0.00019574311 2.5272345e-19 7.6508746e-07 8.8794101e-21 2.9712134e-08)
(-7.6434959e-07 0.00018139939 3.2038765e-19 7.3407832e-07 7.9483918e-19 3.0271271e-08)
(-7.4457305e-07 0.00016750889 -1.9109727e-19 7.1370992e-07 7.5822152e-19 3.0863132e-08)