/*--------------------------------*- C++ -*----------------------------------*\
  =========                 |
  \\      /  F ield         | OpenFOAM: The Open Source CFD Toolbox
   \\    /   O peration     | Website:  https://openfoam.org
    \\  /    A nd           | Version:  7
     \\/     M anipulation  |
\*---------------------------------------------------------------------------*/
FoamFile
{
    version     2.0;
    format      ascii;
    class       volVectorField;
    location    "20000";
    object      DUDt;
}
// * * * * * * * * * * * * * * * * * * * * * * * * * * * * * * * * * * * * * //

dimensions      [0 1 -2 0 0 0 0];

internalField   nonuniform List<vector> 
32000
(
(-0.0022983051 0.51895947 0)
(4.0285438e-05 0.24667918 1.5336821e-16)
(0.01854289 0.66785747 4.1499715e-16)
(0.025038424 0.32824775 1.0200315e-16)
(0.027836366 0.1882188 5.8733522e-17)
(0.00050488964 0.0023676884 7.3807891e-19)
(0.014694715 0.040204143 1.2595912e-17)
(0.04136542 0.086403333 0)
(0.031330626 0.05428718 1.6366555e-17)
(0.021916818 0.033288545 1.0215522e-17)
(0.014383919 0.019887019 0)
(0.011526456 0.014896824 5.4642029e-26)
(0.0098935893 0.012192526 9.925123e-20)
(0.0086440334 0.010319771 -8.4829866e-26)
(0.0074517525 0.0087334194 0)
(0.0062273968 0.0072540583 -6.0431169e-20)
(0.0050733968 0.005943722 3.7240298e-18)
(0.0042833708 0.0050930761 3.1822246e-18)
(0.0038155909 0.004607664 1.3963819e-18)
(0.0035297122 0.0043230615 1.3071075e-18)
(0.0034449994 0.0042734939 3.9989862e-25)
(0.0035121086 0.0044062776 -2.6858856e-25)
(0.0037456605 0.0047450651 -3.8189299e-20)
(0.004159236 0.0053124365 -4.2618954e-20)
(0.0047451314 0.0060998369 -4.8814928e-20)
(0.0055238623 0.007135495 0)
(0.006410028 0.0083082198 6.6282396e-20)
(0.0072538151 0.0094551079 -5.9387467e-25)
(0.0080031418 0.010548612 8.3644685e-20)
(0.0086315027 0.011573598 -9.1214214e-20)
(0.0090739519 0.012457881 -9.7361139e-20)
(0.0092834497 0.013143821 1.0166619e-19)
(0.009219581 0.013570191 2.2807863e-26)
(0.008857452 0.013680616 -1.5715093e-24)
(0.0082104372 0.013458547 5.2021463e-18)
(0.0073763079 0.013003162 4.9854959e-18)
(0.0065282185 0.012535416 4.3775626e-18)
(0.0056789811 0.012005251 4.1998921e-18)
(0.0047986968 0.011313724 3.8831183e-20)
(0.0039081027 0.010447098 -3.5246351e-20)
(0.0030604492 0.0094770394 9.8085042e-25)
(0.002246897 0.0082975627 -2.716542e-20)
(0.0015759403 0.0072412895 1.406774e-24)
(0.0009843359 0.0060079353 9.6183198e-21)
(0.00060925097 0.0055705645 -8.8536924e-21)
(0.00027799055 0.004982459 3.5431897e-18)
(8.3008433e-05 0.0089310463 6.3538257e-18)
(3.4749713e-05 0.017111928 -3.8416836e-34)
(3.1414675e-05 0.023422092 -2.4144847e-24)
(3.2702126e-05 0.030992953 2.7826477e-24)
(3.0616062e-05 0.037573649 -3.778307e-24)
(2.9950967e-05 0.044402359 4.1109837e-24)
(2.8260861e-05 0.050620783 -5.0353718e-24)
(2.7227921e-05 0.05675593 5.3346017e-24)
(2.5932235e-05 0.062502192 0)
(2.4945849e-05 0.068082262 0)
(2.3899925e-05 0.073388715 5.2134846e-17)
(2.2979839e-05 0.078512271 5.5818233e-17)
(2.2028553e-05 0.083410678 -2.9615027e-17)
(2.1101823e-05 0.088115352 -3.1308764e-17)
(2.0130595e-05 0.092603401 -6.5787003e-17)
(1.912966e-05 0.096879296 -6.8873617e-17)
(1.8068855e-05 0.10092497 9.6460565e-26)
(1.6952755e-05 0.10473284 9.0502262e-26)
(1.5768872e-05 0.10828634 -5.2224518e-24)
(1.4520256e-05 0.1115729 1.0930178e-23)
(1.3209779e-05 0.1145772 -1.1078134e-23)
(1.1850701e-05 0.11728813 4.1646442e-17)
(1.0454225e-05 0.11969608 8.5064466e-17)
(9.0313864e-06 0.12179481 4.3308544e-17)
(7.5905672e-06 0.1235795 5.9997195e-24)
(6.1407951e-06 0.12504761 0)
(4.6909106e-06 0.12619823 6.1636178e-24)
(3.2512213e-06 0.12703268 -6.1846845e-24)
(1.8309685e-06 0.12755459 0)
(4.2156992e-07 0.12776927 -2.8681568e-33)
(-9.7920986e-07 0.12767642 -4.5338715e-17)
(-2.3505728e-06 0.12728035 -4.5217146e-17)
(-3.6764126e-06 0.12658998 6.1893025e-24)
(-4.9495514e-06 0.12561658 -6.1201694e-24)
(-6.1668385e-06 0.12437215 6.0906064e-24)
(-7.318801e-06 0.12286929 4.3633646e-17)
(-8.4018742e-06 0.12112403 4.3028084e-17)
(-9.4187504e-06 0.11915073 -2.8988768e-24)
(-1.0358039e-05 0.11696402 2.8721029e-24)
(-1.1219908e-05 0.11458304 0)
(-1.2008686e-05 0.11202281 2.7229092e-24)
(-1.27128e-05 0.10930017 -2.6895559e-24)
(-1.3335255e-05 0.10643503 0)
(-1.3877924e-05 0.10344339 0)
(-1.4338687e-05 0.100344 1.2180861e-24)
(-1.4724955e-05 0.097153878 3.4534174e-17)
(-1.5032062e-05 0.093888354 3.3378334e-17)
(-1.5263149e-05 0.090566328 -1.1188425e-24)
(-1.5428798e-05 0.087202444 0)
(-1.5524401e-05 0.083810412 0)
(-1.5555169e-05 0.080406657 2.8582555e-17)
(-1.5530442e-05 0.077003426 2.7374308e-17)
(-1.5440985e-05 0.073612461 0)
(-1.5293757e-05 0.070249753 0)
(-1.5109825e-05 0.066924928 0)
(-1.4883861e-05 0.063644241 0)
(-1.4614268e-05 0.060419286 -2.1478745e-17)
(-1.431252e-05 0.057257858 -2.0353754e-17)
(-1.3977865e-05 0.054165989 3.368999e-25)
(-1.3615203e-05 0.051151617 0)
(-1.3232795e-05 0.048219379 1.7127745e-17)
(-1.2829493e-05 0.045373049 -1.6004051e-20)
(-1.2409982e-05 0.042617635 -1.5148828e-17)
(-1.1979364e-05 0.039955544 9.6570103e-25)
(-1.1537501e-05 0.037389056 -9.342235e-25)
(-1.1088e-05 0.034920535 0)
(-1.063198e-05 0.032551002 -7.8622529e-25)
(-1.0171318e-05 0.030282166 1.4899399e-24)
(-9.7098802e-06 0.028114485 -7.0486465e-25)
(-9.2481621e-06 0.026047701 0)
(-8.7891371e-06 0.024081957 5.8140502e-25)
(-8.3360748e-06 0.022216156 -5.5855414e-25)
(-7.8892139e-06 0.020448675 -4.9352131e-25)
(-7.4507861e-06 0.018778235 4.7310469e-25)
(-7.0231549e-06 0.017202632 -6.1112682e-18)
(-6.605936e-06 0.015719266 -5.5821291e-18)
(-6.199219e-06 0.014326028 5.0894497e-18)
(-5.8045425e-06 0.013020582 4.6237032e-18)
(-5.421082e-06 0.011799941 5.9832019e-25)
(-5.0508192e-06 0.010662019 -3.7878889e-18)
(-4.6940298e-06 0.0096033211 -3.4101171e-18)
(-4.3503616e-06 0.0086213257 6.1285266e-18)
(-4.0205405e-06 0.0077127599 5.4798069e-18)
(-3.7056139e-06 0.0068749032 0)
(-3.4040538e-06 0.0061039693 -2.1705163e-18)
(-3.1180338e-06 0.005397729 -1.9182715e-18)
(-2.8437634e-06 0.0047518187 0)
(-2.5854027e-06 0.0041651895 -2.0131229e-25)
(-2.3384354e-06 0.0036322191 1.8815838e-25)
(-2.1075974e-06 0.0031531215 -1.1216474e-18)
(-1.886062e-06 0.0027211132 -9.6665666e-19)
(-1.6818879e-06 0.0023381992 0)
(-1.4847262e-06 0.0019956177 2.5242311e-22)
(-1.3072959e-06 0.0016979096 -2.3317012e-22)
(-1.1326838e-06 0.0014332728 0)
(-9.8160764e-07 0.001210406 -1.1828195e-25)
(-8.2767815e-07 0.0010125822 8.8371177e-27)
(-7.023388e-07 0.00085476721 9.1667787e-26)
(-5.6543488e-07 0.0007130841 7.1015847e-26)
(-4.6394653e-07 0.00061189909 -6.5930109e-26)
(-3.3750645e-07 0.00051663595 0)
(-2.5400614e-07 0.00046651176 -4.7319044e-26)
(-1.244815e-07 0.00041022355 4.4451478e-26)
(-3.9030441e-08 0.00041253867 -4.2826593e-26)
(1.2847816e-07 0.00039453144 4.1882851e-26)
(2.7382395e-07 0.00047032644 0)
(5.4335169e-07 0.00050872062 -5.7700896e-26)
(-3.55566e-06 0.00071934192 -3.5437604e-23)
(-5.1593587e-05 0.0009574901 7.5747467e-22)
(-0.00010746373 0.00097978426 0)
(-0.00016895576 0.001026892 1.0369713e-25)
(-0.00020195112 0.00092216575 -5.3786575e-27)
(-0.00022206324 0.00081514981 -8.9742602e-26)
(-0.0002035769 0.00062672652 -1.1367333e-22)
(-0.00016645575 0.00044168404 1.5054743e-23)
(-0.000102176 0.00023836704 8.8127094e-22)
(-3.8471236e-05 7.9732802e-05 0)
(-9.3056886e-08 -1.13949e-07 -7.9886802e-25)
(-4.3176665e-05 7.7710851e-05 5.8361591e-22)
(-0.00026518383 0.00043916291 -6.5460119e-23)
(-0.00081001374 0.0012597041 0)
(-0.0018396217 0.0027221548 3.6720735e-25)
(-0.0035519588 0.0050512081 -1.1868391e-24)
(-0.0061396506 0.0084618775 8.9063458e-25)
(-0.0098315402 0.013228055 0)
(-0.01475394 0.019507515 -1.5467515e-19)
(-0.021077698 0.027554353 -8.4546802e-18)
(-0.028545801 0.037101895 -1.1384818e-17)
(-0.036897929 0.047790439 2.7652711e-24)
(-0.04593616 0.059234388 0)
(-0.056498989 0.072307629 4.6729324e-24)
(-0.069233714 0.087855992 -2.7099652e-17)
(-0.084159428 0.1057352 -3.2654534e-17)
(-0.10252747 0.12733076 -7.6287679e-24)
(-0.1251428 0.15340238 0)
(-0.15436782 0.18653573 0)
(-0.19236951 0.22885208 0)
(-0.24803106 0.29070579 -2.4310823e-18)
(-0.32806177 0.38232357 1.8611593e-21)
(-0.43189524 0.50647809 3.0485356e-21)
(-0.56613656 0.67630975 -5.5586946e-18)
(-0.73625243 0.90789991 6.6986459e-24)
(-0.95746065 1.2378188 -9.8953251e-18)
(-1.2258835 1.6937899 -1.3116574e-20)
(-1.5541827 2.3576908 -1.7872037e-17)
(-1.8361794 3.1783388 3.6348543e-20)
(-1.9810099 4.1466178 -1.2836238e-15)
(-1.6047507 4.4562822 -1.3963719e-15)
(-0.93124092 3.7649555 1.2255817e-17)
(-0.3687303 2.409231 3.8501114e-18)
(-0.11755009 1.4632494 -3.5965022e-24)
(-0.017770325 0.60220832 2.3793079e-19)
(-0.00077223914 0.46845602 -2.9124289e-16)
(0.00052471851 0.092331084 -5.7399709e-17)
(-0.0046722903 1.5798648 5.8981097e-24)
(0.00094365419 0.85556262 -4.6602562e-16)
(0.055750887 1.9738901 -3.5911144e-15)
(0.077079374 1.0618801 -1.5649055e-15)
(0.087198464 0.61845812 -1.7640519e-16)
(0.004031272 0.021424868 -3.5652175e-18)
(0.034495905 0.090343196 -3.3125796e-17)
(0.11386511 0.23726023 0)
(0.090116962 0.15709926 -4.8487891e-17)
(0.06412888 0.097999259 -3.0509876e-17)
(0.042682896 0.059305423 -7.3434472e-25)
(0.034331701 0.044500694 6.962071e-19)
(0.029527687 0.036468743 -2.8393675e-19)
(0.025837266 0.030907492 5.6086904e-17)
(0.022314567 0.026207238 4.772658e-17)
(0.018703386 0.021836651 -1.8189491e-19)
(0.015305832 0.017970412 -1.0707104e-17)
(0.012972331 0.015449929 -9.1468344e-18)
(0.011592553 0.014014866 -3.8016756e-18)
(0.010761552 0.013188431 -3.7644713e-18)
(0.010530222 0.013063177 2.0609211e-19)
(0.010756932 0.013488857 2.4532374e-24)
(0.011483285 0.01453218 1.1027385e-19)
(0.012747244 0.016257761 1.23029e-19)
(0.014524149 0.018637616 -1.4914893e-19)
(0.016864134 0.021743382 -3.9960383e-24)
(0.019511447 0.025245838 -1.9080362e-19)
(0.022026488 0.028668863 1.0412511e-23)
(0.024251139 0.03192493 -2.404184e-19)
(0.026104812 0.034967484 2.619872e-19)
(0.027398662 0.037588166 2.7949459e-19)
(0.027995519 0.039618733 -2.917469e-19)
(0.027781013 0.040885363 1.3723003e-23)
(0.026688925 0.041232308 0)
(0.024765857 0.040621281 -1.4973694e-17)
(0.022298765 0.039341588 -1.4849777e-17)
(0.019779489 0.038016986 -1.2623958e-17)
(0.017250026 0.036512147 -6.1480434e-17)
(0.014626825 0.034546188 -4.7168079e-17)
(0.011971706 0.032080181 4.4721453e-17)
(0.0094333913 0.029312444 4.0812084e-17)
(0.0069962397 0.025956365 7.9120776e-20)
(0.0049613811 0.022945626 3.1258107e-17)
(0.0031695614 0.019478343 2.642607e-17)
(0.0019967387 0.018363603 8.1852498e-20)
(0.00099701259 0.017133649 -1.0779544e-17)
(0.00043067247 0.02953506 -1.8895297e-17)
(0.00032058795 0.054080025 1.1235149e-33)
(0.00029012471 0.073278089 -2.1653693e-23)
(0.00029925133 0.095742026 2.4829003e-23)
(0.00027978264 0.11536723 -2.011437e-32)
(0.00027254649 0.1355005 -9.3547239e-17)
(0.00025685204 0.15386761 -1.0649555e-16)
(0.00024685021 0.17188251 0)
(0.00023479531 0.18875414 0)
(0.00022543141 0.20507868 0)
(0.00021565241 0.22058417 -1.4970204e-16)
(0.00020696795 0.23551285 -1.5962412e-16)
(0.00019805171 0.24975839 8.4904127e-17)
(0.00018934377 0.26340351 -2.765324e-16)
(0.00018026006 0.27638864 -5.8043178e-16)
(0.00017091246 0.28872399 -2.0546028e-16)
(0.00016104594 0.30036066 8.3941306e-23)
(0.00015069524 0.31127651 0)
(0.00013975825 0.32142604 0)
(0.00012826356 0.3307743 0)
(0.0001162412 0.3392797 4.8283681e-23)
(0.0001038098 0.34691231 -1.1878212e-16)
(9.1069234e-05 0.35364692 -9.8186622e-16)
(7.8117463e-05 0.35946763 -8.7585776e-16)
(6.503088e-05 0.36436299 0)
(5.1890108e-05 0.36832791 -3.2503343e-32)
(3.8776057e-05 0.37136223 0)
(2.578195e-05 0.3734724 -8.1040983e-33)
(1.2989529e-05 0.37467148 5.3251478e-23)
(3.1142193e-07 0.37497729 -5.3284417e-23)
(-1.227469e-05 0.37438892 1.2883326e-16)
(-2.4573105e-05 0.37292166 1.2822005e-16)
(-3.6442366e-05 0.37060352 -5.2639522e-23)
(-4.7822281e-05 0.36746873 1.0461281e-22)
(-5.8682364e-05 0.36355351 -5.1918714e-23)
(-6.8944364e-05 0.35889623 -1.2377777e-16)
(-7.8577417e-05 0.35354375 -1.2185732e-16)
(-8.7600333e-05 0.34753922 -2.4663026e-23)
(-9.5921559e-05 0.34092631 -7.1612223e-16)
(-0.00010354116 0.33376027 -7.0151655e-16)
(-0.00011049295 0.32608609 -2.3408042e-23)
(-0.00011668438 0.31795326 2.2546914e-23)
(-0.00012213968 0.30941888 -4.3366469e-16)
(-0.00012687605 0.30053046 -4.2142211e-16)
(-0.00013087886 0.29134177 -3.2956586e-25)
(-0.00013420958 0.28190239 -9.7676268e-17)
(-0.00013683399 0.27225713 -9.4326361e-17)
(-0.00013878009 0.26245964 0)
(-0.00014013633 0.25255272 0)
(-0.00014087068 0.2425762 0)
(-0.00014102847 0.23257643 -8.0729604e-17)
(-0.00014068679 0.22258913 -7.7280014e-17)
(-0.00013977308 0.21264829 9.4113148e-25)
(-0.00013834801 0.20279875 -9.1913439e-25)
(-0.00013659177 0.1930686 -2.1385185e-28)
(-0.0001344651 0.18347605 0)
(-0.000131954 0.17405338 6.0556855e-17)
(-0.0001291551 0.16482322 -5.8493675e-17)
(-0.00012606718 0.15580287 -1.0954715e-16)
(-0.00012273365 0.14701434 -5.3582211e-24)
(-0.00011922377 0.13847105 -4.8224102e-17)
(-0.00011553174 0.13018377 1.8924952e-20)
(-0.00011169864 0.12216618 4.2647827e-17)
(-0.00010776726 0.11442531 -8.3719161e-24)
(-0.0001037395 0.10696744 7.5722601e-24)
(-9.9645756e-05 0.099798939 -7.3167995e-24)
(-9.5497003e-05 0.092922752 0)
(-9.1310869e-05 0.086343217 0)
(-8.7119733e-05 0.080061502 -5.6703364e-24)
(-8.2930021e-05 0.074076641 5.4554858e-24)
(-7.8767961e-05 0.06838855 0)
(-7.4661168e-05 0.06299391 8.9283386e-24)
(-7.0613177e-05 0.057887844 -3.5562186e-25)
(-6.6643536e-05 0.053066247 -7.8610734e-24)
(-6.2772025e-05 0.048522628 1.708044e-17)
(-5.8996281e-05 0.044249327 1.5614809e-17)
(-5.5317361e-05 0.040239942 -1.4200938e-17)
(-5.1748101e-05 0.036487516 -1.2912769e-17)
(-4.8282366e-05 0.03298328 2.431595e-25)
(-4.4937102e-05 0.029720792 1.0537662e-17)
(-4.1714536e-05 0.026689929 9.4950245e-18)
(-3.861221e-05 0.023883064 -1.7007954e-17)
(-3.5636328e-05 0.021290573 -1.5220121e-17)
(-3.2795607e-05 0.01890431 -2.8633011e-24)
(-3.0077386e-05 0.016713283 2.9873686e-17)
(-2.749982e-05 0.014710603 2.6331037e-17)
(-2.5031027e-05 0.012883802 -1.9724717e-24)
(-2.270608e-05 0.011229093 0)
(-2.048687e-05 0.009730681 2.2371319e-34)
(-1.8413341e-05 0.0083881099 3.0643201e-18)
(-1.6428057e-05 0.0071825489 2.6424094e-18)
(-1.4599044e-05 0.0061182014 1.4704732e-25)
(-1.2839238e-05 0.0051710774 1.6360699e-24)
(-1.1255719e-05 0.0043519276 4.0119795e-34)
(-9.7069892e-06 0.0036289244 0)
(-8.3662101e-06 0.0030233828 0)
(-7.014054e-06 0.0024910326 6.0469795e-35)
(-5.9114304e-06 0.0020687963 3.0777601e-18)
(-4.726869e-06 0.0016947573 2.5336166e-18)
(-3.8467491e-06 0.001428812 -4.396389e-25)
(-2.7772995e-06 0.0011832389 4.0227103e-25)
(-2.0687197e-06 0.0010536959 8.0279161e-19)
(-1.0014265e-06 0.00091302737 6.9821177e-19)
(-2.9079148e-07 0.00091851797 2.9289662e-27)
(1.0738821e-06 0.00087795714 2.931798e-25)
(2.3043917e-06 0.0010712664 3.5679048e-25)
(4.5768414e-06 0.0011807391 -1.7820579e-18)
(-2.2749427e-06 0.0017372286 -2.5821115e-18)
(-0.00012342072 0.0023637464 -5.9052637e-21)
(-0.00026471398 0.0024228299 -7.6746733e-25)
(-0.00041760125 0.002533091 8.4352585e-21)
(-0.00049473664 0.0022452754 -7.4225816e-25)
(-0.0005349221 0.0019473124 1.34055e-20)
(-0.00047490263 0.0014448169 -1.0212571e-20)
(-0.00036791563 0.00096008248 -1.5392623e-18)
(-0.00020024658 0.00045373799 -7.6831932e-19)
(-5.1256678e-05 9.7640627e-05 -9.4738301e-22)
(-3.4392609e-06 7.6831052e-06 2.8131332e-23)
(-0.00022325156 0.00041241349 -2.0837466e-21)
(-0.0010063875 0.0016961656 -2.1588904e-18)
(-0.0027713663 0.00436594 -5.755634e-18)
(-0.00598521 0.0089469078 -1.3006998e-19)
(-0.011218537 0.016087218 0)
(-0.019024474 0.026405707 0)
(-0.030056103 0.04068574 6.2205132e-19)
(-0.044675533 0.059383171 4.4553308e-19)
(-0.063359536 0.083210047 2.4226234e-17)
(-0.085378659 0.11140601 3.2679299e-17)
(-0.11001141 0.14296385 2.2337443e-18)
(-0.13674083 0.1768485 0)
(-0.16794747 0.2155391 -4.041819e-23)
(-0.20544778 0.26139903 7.7252914e-17)
(-0.24941318 0.3141543 8.8326705e-17)
(-0.30336096 0.37769573 0)
(-0.36969385 0.45432232 0)
(-0.4550892 0.55134447 -5.3217026e-23)
(-0.5659644 0.67518313 5.9750256e-23)
(-0.72714109 0.85491682 6.8659968e-18)
(-0.95691463 1.1188666 1.8354669e-17)
(-1.2541545 1.475659 -2.4176768e-17)
(-1.6364252 1.9615502 1.5763316e-17)
(-2.1185495 2.6217198 -5.6598202e-23)
(-2.7397234 3.5550299 -2.8416947e-17)
(-3.4879501 4.8381261 0)
(-4.3866474 6.6809917 1.5064782e-16)
(-5.1490567 8.9471891 0)
(-5.5118219 11.567975 3.4945727e-15)
(-4.4970488 12.481909 3.8935408e-15)
(-2.6843333 10.778249 -1.3283879e-14)
(-1.1239174 7.2136258 -8.7951723e-15)
(-0.38070453 4.5310092 8.9306835e-23)
(-0.067696321 2.0398193 -7.1603364e-19)
(-0.0084588105 1.5372903 8.6479206e-16)
(0.0023298511 0.40119345 1.9276333e-16)
(-0.0045905284 2.7001911 0)
(0.0029530534 1.639444 -2.6804833e-20)
(0.093748891 3.2772298 3.8508257e-15)
(0.13267658 1.9145648 2.081467e-15)
(0.15244187 1.1324706 3.116214e-18)
(0.012693882 0.071433671 -4.5221301e-17)
(0.043940052 0.106996 -1.1940725e-16)
(0.17512959 0.3632161 3.4224468e-16)
(0.14502715 0.25434954 2.395889e-16)
(0.10502513 0.16152795 1.4622828e-16)
(0.070908336 0.099038282 8.8815579e-17)
(0.057263256 0.074457697 -1.1162549e-18)
(0.049353373 0.061097488 -2.1736548e-24)
(0.043250317 0.051847065 -9.003726e-17)
(0.03742098 0.044045919 4.2075838e-17)
(0.031456032 0.036813636 6.6706183e-17)
(0.025856039 0.030425939 -2.6496632e-17)
(0.021998979 0.026245314 -4.0219393e-24)
(0.019722326 0.023871003 -3.6112529e-19)
(0.018372516 0.022529506 0)
(0.018023803 0.022359569 -3.3301574e-19)
(0.018448859 0.023121675 0)
(0.019713946 0.024920921 -5.6798449e-19)
(0.021878008 0.027860449 0)
(0.024896917 0.031889359 4.6852383e-19)
(0.02883565 0.037106138 -2.2065636e-23)
(0.033264705 0.042964333 -3.7502241e-17)
(0.03746183 0.048684843 -4.2582147e-17)
(0.041158837 0.054113065 1.698112e-24)
(0.044218763 0.059169028 1.3315236e-18)
(0.046334282 0.063516257 0)
(0.047281708 0.06688001 0)
(0.04688053 0.068984717 3.8159388e-23)
(0.045033837 0.069591083 1.4980142e-18)
(0.041831037 0.068654021 0)
(0.037744223 0.066647075 8.9741653e-19)
(0.033554136 0.064554258 -6.5920644e-23)
(0.029336299 0.06217178 7.9912116e-17)
(0.024959986 0.059053588 7.5812754e-17)
(0.020528941 0.055139904 -7.2384523e-17)
(0.016274853 0.050737355 -6.5567817e-17)
(0.012189239 0.045418264 4.5657922e-17)
(0.0087374573 0.040645367 -1.0667499e-17)
(0.0057028795 0.035243344 -4.3340443e-17)
(0.0036577064 0.033739539 -6.5146741e-17)
(0.0019766764 0.032649288 -6.1562224e-17)
(0.0010578773 0.05437716 2.0374069e-23)
(0.00092886842 0.09555245 -4.5363635e-23)
(0.00084138045 0.12822306 1.2752438e-16)
(0.00086102733 0.16552162 4.9722355e-16)
(0.00080408855 0.19827372 3.9872085e-16)
(0.00078043153 0.23149533 1.5138704e-16)
(0.00073471348 0.26185702 4.3635302e-16)
(0.00070458146 0.29146242 2.9597898e-16)
(0.00066940227 0.31918579 1.4190228e-22)
(0.00064162347 0.34591245 -7.0257694e-16)
(0.00061296854 0.3712664 -3.7929612e-16)
(0.00058732217 0.39560645 4.0268656e-16)
(0.00056113899 0.4187866 1.944159e-22)
(0.00053551674 0.44092744 1.0370174e-15)
(0.00050889086 0.46194362 1.2313175e-15)
(0.00048152498 0.48184713 1.4885673e-16)
(0.0004527384 0.50056455 0)
(0.00042261491 0.51805979 5.2967089e-16)
(0.00039088769 0.53426343 5.4734134e-16)
(0.00035764082 0.54912116 2.5524161e-22)
(0.00032297278 0.56257041 -2.5847308e-22)
(0.00028721459 0.5745665 -2.6717036e-22)
(0.0002506486 0.58507286 1.1830027e-15)
(0.00021355073 0.5940676 1.2004982e-15)
(0.00017613671 0.60153619 1.2385293e-15)
(0.00013863535 0.60747425 1.2057599e-18)
(0.00010127931 0.61188579 -2.5240504e-15)
(6.4334439e-05 0.61478541 -1.269322e-15)
(2.802968e-05 0.6161989 -6.3701165e-16)
(-7.9331957e-06 0.61615876 -6.3786211e-16)
(-4.3596764e-05 0.61466039 1.4311926e-22)
(-7.8364448e-05 0.61173707 1.2647595e-15)
(-0.00011186695 0.60743752 1.2574528e-15)
(-0.00014394265 0.60181986 1.4086258e-22)
(-0.00017450327 0.59494542 -6.1492691e-16)
(-0.00020333983 0.58687916 -6.0727019e-16)
(-0.00023037035 0.57769811 -1.3460568e-22)
(-0.00025563723 0.5674746 1.3344807e-22)
(-0.00027890242 0.55628166 1.1393287e-15)
(-0.00030016671 0.54420856 1.1144892e-15)
(-0.00031951209 0.53133061 -6.1920662e-23)
(-0.00033670409 0.51772921 1.2146637e-22)
(-0.0003518063 0.50349606 1.6508167e-16)
(-0.00036486684 0.48871004 1.598771e-16)
(-0.0003758572 0.4734574 9.8489308e-16)
(-0.00038493623 0.4578189 9.5304588e-16)
(-0.00039202631 0.44186797 0)
(-0.00039720904 0.42568973 2.4818942e-23)
(-0.00040071634 0.40935411 -4.8213448e-23)
(-0.00040247922 0.39292587 2.3388297e-23)
(-0.00040262551 0.37647815 3.9326446e-16)
(-0.00040135677 0.3600692 3.7632293e-16)
(-0.00039849041 0.34375404 0)
(-0.00039419432 0.32760296 0)
(-0.00038895838 0.31166188 0)
(-0.00038269231 0.29596025 0)
(-0.00037535483 0.28054839 -2.9388168e-16)
(-0.00036720509 0.265463 -9.4763101e-17)
(-0.00035825467 0.25073187 1.7341864e-16)
(-0.00034862222 0.23638898 -2.0682646e-32)
(-0.00033849392 0.22245612 -1.2998883e-23)
(-0.00032786479 0.20895037 1.2601342e-23)
(-0.00031684611 0.19589264 0)
(-0.00030555375 0.18329433 -2.1443006e-23)
(-0.00029399969 0.1711651 -1.8015881e-16)
(-0.00028226578 0.15951451 -1.6795426e-16)
(-0.00027038516 0.14834721 1.8018169e-23)
(-0.00025840897 0.13766929 -1.4524254e-16)
(-0.00024642427 0.12748234 -2.6915969e-16)
(-0.00023445367 0.11778442 -1.2442289e-16)
(-0.00022256983 0.10857454 2.2934512e-16)
(-0.00021084656 0.099847132 2.1100827e-16)
(-0.00019929773 0.09159393 0)
(-0.00018797739 0.083807644 1.9735684e-23)
(-0.00017693807 0.07647755 -1.886908e-23)
(-0.00016617549 0.069591001 -1.4790574e-16)
(-0.00015569335 0.063137136 -1.3429113e-16)
(-0.00014552569 0.057104337 2.7716439e-23)
(-0.00013565807 0.051478189 5.5071737e-17)
(-0.00012613658 0.046247587 4.952957e-17)
(-0.00011696683 0.041396089 8.8782338e-17)
(-0.0001081435 0.036910808 1.5862e-16)
(-9.9683554e-05 0.032775882 7.0569739e-17)
(-9.16099e-05 0.028977659 7.3756412e-24)
(-8.3889298e-05 0.025498254 -6.4795879e-17)
(-7.6569827e-05 0.022325788 -5.7008435e-17)
(-6.9566487e-05 0.019440295 9.4041309e-24)
(-6.2973087e-05 0.016834418 -1.6952094e-23)
(-5.6687566e-05 0.0144833 7.6079619e-24)
(-5.0816915e-05 0.012384471 2.3538824e-33)
(-4.5207843e-05 0.010508651 -5.0377686e-34)
(-4.004252e-05 0.0088600912 0)
(-3.5088596e-05 0.0074020473 8.3848966e-18)
(-3.0632072e-05 0.0061481142 7.0167915e-18)
(-2.629745e-05 0.0050503714 0)
(-2.2543969e-05 0.0041371884 2.1470698e-24)
(-1.8793241e-05 0.0033433499 -7.9005278e-18)
(-1.5732398e-05 0.0027184873 -4.5675902e-18)
(-1.2493194e-05 0.0021736131 1.5356622e-18)
(-1.0084253e-05 0.0017888466 0)
(-7.2239506e-06 0.0014415577 8.4434114e-25)
(-5.3274241e-06 0.0012583324 -1.1645141e-18)
(-2.5479172e-06 0.0010668391 -1.0113027e-18)
(-6.8629428e-07 0.0010739523 6.5211865e-27)
(2.8261244e-06 0.0010255249 6.4932539e-25)
(6.1081133e-06 0.001294948 0)
(1.2148031e-05 0.0014653467 2.6088972e-18)
(8.8866565e-06 0.0022745484 3.8509866e-18)
(-0.0001589557 0.0031837214 7.5040721e-18)
(-0.00035549897 0.0032694199 7.6676367e-18)
(-0.00056370925 0.0034080411 -1.2649233e-20)
(-0.00066044886 0.0029700349 -1.6124467e-20)
(-0.00069882039 0.0025121409 -1.987687e-20)
(-0.00059434327 0.001774657 1.4949902e-20)
(-0.00042643096 0.0010809744 2.2013148e-18)
(-0.0001905991 0.00040478307 1.0493982e-18)
(-1.4434988e-05 8.301503e-06 1.097096e-21)
(-4.9129915e-05 0.00010693327 3.795396e-22)
(-0.00057121711 0.001072022 8.4602148e-25)
(-0.0020811709 0.0035576093 3.7537029e-18)
(-0.0052598196 0.0083831171 9.7167155e-18)
(-0.010860766 0.016392991 2.1532476e-19)
(-0.019804108 0.028633211 0)
(-0.032978693 0.046100812 0)
(-0.051426999 0.070049097 -1.0071657e-18)
(-0.075730869 0.10121643 -6.2447842e-23)
(-0.10663473 0.14071855 7.461241e-23)
(-0.14298412 0.18734642 0)
(-0.18366403 0.23952594 -3.5829655e-18)
(-0.22792545 0.29571022 -6.803285e-18)
(-0.27954425 0.35982729 1.0993582e-22)
(-0.34137174 0.43557004 1.0104638e-17)
(-0.41387435 0.52272858 7.9618415e-18)
(-0.50257478 0.6274065 -1.7842173e-22)
(-0.61147907 0.75348755 -2.3534605e-22)
(-0.75113374 0.9125257 2.6263961e-22)
(-0.93213407 1.1153471 2.6695422e-17)
(-1.1932004 1.4075621 -2.2969215e-22)
(-1.5621602 1.8329931 -3.3363863e-15)
(-2.0379907 2.4065684 -4.3668755e-15)
(-2.6465678 3.1840588 0)
(-3.4101742 4.2362726 -8.6723805e-23)
(-4.3844658 5.7119791 -4.56555e-17)
(-5.5485819 7.7290406 1.5382671e-22)
(-6.9201909 10.585204 -1.5844258e-16)
(-8.0683092 14.078564 5.2158989e-22)
(-8.5707521 18.0412 1.2685148e-16)
(-7.0489608 19.560075 6.0631539e-22)
(-4.3273101 17.262167 2.1108487e-14)
(-1.9121993 12.069084 1.4089394e-14)
(-0.68566464 7.8353287 -1.7492629e-17)
(-0.13963119 3.8244238 -7.7330316e-23)
(-0.025474089 2.8121943 4.7212663e-20)
(0.0049729224 0.91294405 -6.3503864e-20)
(-0.0027813121 3.8966212 -7.0649292e-19)
(0.0059967729 2.6252952 3.7919117e-20)
(0.13218511 4.5872485 0)
(0.19228786 2.8963227 9.3010743e-23)
(0.22437108 1.7427736 -3.7470375e-15)
(0.029345763 0.17074418 -1.8247921e-16)
(0.043729245 0.092772705 -3.0632422e-17)
(0.22422854 0.46140236 -1.0373238e-15)
(0.1953069 0.34453862 -3.1459877e-16)
(0.14417576 0.22323698 -1.9297495e-16)
(0.098858743 0.13883779 -1.1967943e-16)
(0.080194401 0.10462476 -2.4887402e-24)
(0.069276625 0.085975886 -2.6270938e-18)
(0.060809739 0.073060628 -2.2582355e-18)
(0.052715724 0.062193052 -1.6035238e-16)
(0.044449418 0.052150523 -8.9294571e-17)
(0.036708013 0.043297516 3.7182671e-17)
(0.031361056 0.037480605 0)
(0.028211771 0.034186575 -1.036144e-18)
(0.026377628 0.032365314 9.7253709e-19)
(0.025946931 0.032188054 1.2642621e-23)
(0.026614562 0.033335743 0)
(0.028468583 0.035946431 -2.8930207e-19)
(0.031584713 0.040157259 -1.1832066e-18)
(0.035896364 0.045890428 0)
(0.041466521 0.053252291 -4.3101657e-23)
(0.047689343 0.061481156 5.2798757e-17)
(0.053569742 0.069508581 5.7595265e-17)
(0.058725812 0.077105907 -6.1502967e-23)
(0.062962283 0.084157851 6.6338597e-19)
(0.065860277 0.09020972 -6.7991743e-23)
(0.067114409 0.094885818 0)
(0.066487485 0.097821872 0)
(0.063864112 0.098713508 -2.0260882e-18)
(0.059386641 0.097525737 2.6869623e-18)
(0.053705957 0.094908978 -6.8047165e-23)
(0.047857284 0.092158683 0)
(0.04195425 0.089020829 -1.1497716e-18)
(0.035826046 0.084903827 2.1847281e-16)
(0.02961891 0.079733463 2.038101e-16)
(0.023633788 0.073905731 -1.5401864e-18)
(0.0178836 0.066898159 -6.3490131e-17)
(0.012966269 0.060621674 -1.3313711e-16)
(0.0086495379 0.053680199 -6.7639485e-17)
(0.005655728 0.052172589 9.0899878e-17)
(0.0032813249 0.052201922 8.694031e-17)
(0.0020124018 0.084121302 4.2256426e-23)
(0.0019021789 0.14203965 -9.0706739e-23)
(0.0017246703 0.18870089 -1.7510567e-16)
(0.0017508761 0.24063822 -6.7880521e-16)
(0.0016331502 0.28648263 -5.4164871e-16)
(0.0015791863 0.33244018 2.1076798e-22)
(0.0014850305 0.37451485 -3.6008006e-16)
(0.0014209567 0.41528959 -4.0020479e-16)
(0.0013483748 0.45346302 5.9788977e-16)
(0.001290145 0.49012077 1.60074e-15)
(0.0012307787 0.52484537 -1.8548653e-16)
(0.0011772469 0.55807596 -1.2845638e-15)
(0.0011228897 0.58965194 -7.2865877e-32)
(0.0010695982 0.61971826 -1.4348563e-15)
(0.0010144243 0.64817492 -8.6527752e-16)
(0.00095779109 0.67503231 6.6455558e-16)
(0.00089841919 0.70019916 4.387142e-22)
(0.00083644638 0.72362672 -7.1395449e-16)
(0.00077138786 0.74522714 -7.3519097e-16)
(0.00070341925 0.76493072 -1.1297526e-31)
(0.00063276206 0.78265975 0)
(0.00056006844 0.79835946 0)
(0.00048590407 0.81198675 -5.1085146e-32)
(0.00041081348 0.8235178 0)
(0.00033522918 0.8329389 -1.6641947e-15)
(0.00025961245 0.8402502 2.4382315e-18)
(0.00018443136 0.84546325 3.3849486e-15)
(0.00011022436 0.84860437 1.6997882e-15)
(3.7434968e-05 0.8497153 8.5464904e-16)
(-3.4676828e-05 0.84884289 -1.4537933e-15)
(-0.00010608946 0.84597658 -2.3038134e-15)
(-0.0001754931 0.84117727 -1.6951108e-15)
(-0.00024226986 0.83451566 -1.6816955e-15)
(-0.0003061048 0.82607457 -2.6607844e-22)
(-0.00036681873 0.81594115 8.2336704e-16)
(-0.00042402348 0.80420781 8.1159e-16)
(-0.00047756039 0.79098047 0)
(-0.00052749196 0.77636103 2.5047198e-22)
(-0.00057339206 0.76045182 -2.4797235e-22)
(-0.00061525825 0.74337353 0)
(-0.00065323004 0.72523207 1.1711629e-22)
(-0.000686894 0.70613923 -1.1559934e-22)
(-0.00071636493 0.68621861 7.0016228e-16)
(-0.00074174265 0.66557964 6.7934754e-16)
(-0.0007629914 0.64433819 -1.3149561e-15)
(-0.00078040166 0.62260448 -1.2711753e-15)
(-0.00079385819 0.600479 -9.716176e-23)
(-0.00080352518 0.57807477 4.8591783e-23)
(-0.00080983314 0.55548746 4.5886507e-23)
(-0.00081268816 0.53280497 -4.3152982e-23)
(-0.00081234071 0.51012383 -5.2420361e-16)
(-0.00080916185 0.48752348 -5.0137579e-16)
(-0.00080283436 0.46507834 9.4282527e-24)
(-0.00079368523 0.44288042 -9.2068116e-24)
(-0.00078265329 0.42099249 1.0696436e-27)
(-0.00076959899 0.39945436 0)
(-0.00075443925 0.37833142 3.9104928e-16)
(-0.0007376607 0.35767337 3.7016163e-16)
(-0.00071931586 0.33751753 0)
(-0.00069963815 0.31790758 0)
(-0.0006789755 0.29887301 0)
(-0.00065733999 0.2804365 -4.5707673e-23)
(-0.000634949 0.26262452 4.4265079e-23)
(-0.00061202003 0.24545249 0)
(-0.00058859007 0.22893278 2.3903647e-16)
(-0.00056481652 0.21307715 -3.745855e-16)
(-0.00054076889 0.19789179 -5.5541617e-16)
(-0.00051655128 0.1833835 1.9244449e-16)
(-0.00049232834 0.16955399 3.566701e-16)
(-0.00046815535 0.15640005 1.6490212e-16)
(-0.00044417315 0.14391911 -3.0338663e-16)
(-0.00042052188 0.13210323 -6.5258931e-16)
(-0.0003972366 0.12094069 -3.4209158e-16)
(-0.0003744217 0.11042063 3.8191125e-23)
(-0.00035217584 0.10052821 0)
(-0.00033049567 0.091245882 1.9497307e-16)
(-0.0003093899 0.082558172 1.7721147e-16)
(-0.0002889218 0.074448809 2.1329015e-16)
(-0.00026906861 0.066897894 1.1967061e-16)
(-0.00024991846 0.059889388 -6.518015e-17)
(-0.00023148102 0.05340089 -1.1644745e-16)
(-0.00021374932 0.047414116 -2.0802357e-16)
(-0.00019675587 0.04190715 -9.2535855e-17)
(-0.00018054305 0.036860774 -2.6760882e-23)
(-0.00016504967 0.03225058 3.6101935e-17)
(-0.00015036516 0.028059418 3.1710693e-17)
(-0.00013633014 0.024260461 -1.6844639e-23)
(-0.00012312112 0.020841983 1.5683221e-23)
(-0.00011054595 0.01777123 0)
(-9.880634e-05 0.01504237 0)