/*--------------------------------*- C++ -*----------------------------------*\
| =========                 |                                                 |
| \\      /  F ield         | OpenFOAM: The Open Source CFD Toolbox           |
|  \\    /   O peration     | Version:  2.4.0                                 |
|   \\  /    A nd           | Web:      www.OpenFOAM.org                      |
|    \\/     M anipulation  |                                                 |
\*---------------------------------------------------------------------------*/
FoamFile
{
    version     2.0;
    format      ascii;
    class       volScalarField;
    location    "340";
    object      nut;
}
// * * * * * * * * * * * * * * * * * * * * * * * * * * * * * * * * * * * * * //

dimensions      [0 2 -1 0 0 0 0];

internalField   nonuniform List<scalar> 
19698
(
1.4942903e-13
1.6364146e-13
1.7749183e-13
1.902655e-13
2.0164862e-13
2.1068285e-13
2.1778843e-13
2.2333309e-13
2.2733134e-13
2.3323616e-13
2.3538785e-13
2.3747687e-13
2.3671535e-13
2.2916973e-13
2.2293803e-13
2.1183742e-13
1.98382e-13
1.7769175e-13
1.6538478e-13
1.434513e-13
1.4270234e-13
1.330891e-13
1.90631e-13
3.3619312e-13
4.5791043e-13
6.0296941e-13
7.3176272e-13
8.6575281e-13
9.9103598e-13
1.1201451e-12
1.2378718e-12
1.356241e-12
1.4654205e-12
1.5736572e-12
1.674664e-12
1.7739176e-12
1.8673282e-12
1.9581834e-12
2.0434183e-12
2.1373184e-12
2.2161672e-12
2.2920045e-12
2.3639728e-12
2.4329565e-12
2.4982504e-12
2.5604319e-12
2.6190247e-12
2.6744087e-12
2.7262605e-12
2.7748858e-12
2.8199165e-12
2.8601031e-12
2.8830756e-12
2.9192067e-12
2.9523051e-12
2.9820283e-12
3.0072443e-12
3.0483094e-12
3.0683923e-12
3.0855363e-12
3.1007028e-12
3.1142288e-12
3.1272588e-12
3.1406151e-12
3.15615e-12
3.1717885e-12
3.1597474e-12
3.1536345e-12
3.143827e-12
3.1288749e-12
3.1107921e-12
3.0896406e-12
3.0658394e-12
3.0393979e-12
3.0105421e-12
2.9793032e-12
2.9458475e-12
2.9102296e-12
2.8725933e-12
2.8330141e-12
2.7916279e-12
2.748523e-12
2.7038268e-12
2.6576366e-12
2.6100795e-12
2.5612572e-12
2.5112904e-12
2.4602796e-12
2.4083412e-12
2.3555786e-12
2.3021043e-12
2.2480186e-12
2.1934303e-12
2.1384402e-12
2.0831528e-12
2.0276602e-12
1.9720546e-12
1.9164239e-12
1.8608586e-12
1.8054425e-12
1.7502569e-12
1.6953795e-12
1.6408887e-12
1.5868547e-12
1.533347e-12
1.4804283e-12
1.4281607e-12
1.3765978e-12
1.3257929e-12
1.2757904e-12
1.2266357e-12
1.1783709e-12
1.1310329e-12
1.0846623e-12
1.0392849e-12
9.949408e-13
9.5164355e-13
9.0943171e-13
8.6830719e-13
8.2830544e-13
7.894172e-13
7.5167573e-13
1.9692283e-13
2.1835494e-13
2.403494e-13
2.6211314e-13
2.8298608e-13
3.0100852e-13
3.1656816e-13
6.1991844e-13
1.7318142e-13
7.0946479e-13
1.8774599e-13
8.1892864e-13
8.6693826e-13
2.0164661e-13
2.0491726e-13
1.0491956e-12
4.8273333e-13
4.7981936e-13
4.7775494e-13
4.6074782e-13
4.5797339e-13
4.4372797e-13
4.8605978e-13
3.200003e-13
4.2375008e-13
2.1134127e-12
2.4034948e-12
7.459767e-13
8.4663386e-13
9.5026418e-13
1.046001e-12
1.1419632e-12
1.2315745e-12
1.3204531e-12
1.4044497e-12
1.4873908e-12
1.5667816e-12
1.6457134e-12
1.7372617e-12
6.3300011e-12
6.588698e-12
6.8361913e-12
7.0781752e-12
7.3155052e-12
7.5472934e-12
7.774077e-12
7.9952084e-12
8.2111212e-12
8.4219156e-12
8.6296482e-12
8.8291806e-12
8.7437314e-12
2.4799786e-12
2.5168031e-12
2.5548169e-12
2.5933118e-12
2.6601708e-12
1.0107421e-11
1.0287143e-11
1.0455282e-11
1.0628657e-11
1.0814388e-11
1.1027365e-11
1.1298154e-11
1.1698989e-11
1.2258707e-11
5.9547151e-12
5.9982934e-12
6.0327942e-12
6.0604358e-12
6.083269e-12
6.1017123e-12
6.1161938e-12
6.126768e-12
6.1336344e-12
6.1368277e-12
6.1364868e-12
6.1326591e-12
6.1254669e-12
6.1149762e-12
6.101307e-12
6.0845404e-12
6.064793e-12
6.0421577e-12
6.0167565e-12
5.98869e-12
5.958079e-12
5.9250267e-12
5.8896519e-12
5.852065e-12
5.8123846e-12
5.7707208e-12
5.7271926e-12
5.6819133e-12
5.6350018e-12
5.5865663e-12
5.5367151e-12
5.4855526e-12
5.4331872e-12
5.3797222e-12
5.3252585e-12
5.269894e-12
5.2137294e-12
5.1568561e-12
5.0993675e-12
5.0413473e-12
4.9828828e-12
4.9240478e-12
4.8649211e-12
4.8055648e-12
4.7460491e-12
4.6864351e-12
4.6267841e-12
4.5671589e-12
4.5076117e-12
4.448205e-12
4.3889822e-12
4.330003e-12
4.2712998e-12
4.2129293e-12
4.1549135e-12
4.0973116e-12
1.3366092e-12
1.5208353e-12
1.7238595e-12
1.9425286e-12
2.1689846e-12
2.3805337e-12
2.5818918e-12
8.6680964e-12
4.70831e-13
1.0529375e-11
6.4255098e-13
1.3036946e-11
1.4071972e-11
9.6723189e-13
1.135855e-12
1.9055156e-11
7.0052388e-12
7.3327352e-12
7.5146803e-12
7.5436688e-12
7.4963792e-12
7.3584313e-12
7.2309665e-12
1.9042633e-12
2.3551878e-12
3.3528844e-11
3.6920152e-11
3.3945263e-12
3.7383155e-12
4.0963982e-12
4.447e-12
4.7937738e-12
5.1349318e-12
5.4739534e-12
5.8107796e-12
6.1495764e-12
6.4942875e-12
6.8630728e-12
7.5455044e-12
9.1661438e-11
9.5685103e-11
9.947579e-11
1.0323987e-10
1.0697398e-10
1.10676e-10
1.1434322e-10
1.1797308e-10
1.2156568e-10
1.2513194e-10
1.2871192e-10
1.3219306e-10
1.2895651e-10
1.1220637e-11
1.1461078e-11
1.177477e-11
1.2142157e-11
1.3129874e-11
1.5603471e-10
1.5978163e-10
1.6326826e-10
1.6693006e-10
1.7092497e-10
1.7557169e-10
1.8156479e-10
1.9054655e-10
2.0309635e-10
7.338871e-11
7.4450607e-11
7.5394421e-11
7.6281539e-11
7.7120104e-11
7.791822e-11
7.8677626e-11
7.9399345e-11
8.0083629e-11
8.073066e-11
8.1340445e-11
8.1913032e-11
8.2448456e-11
8.2946798e-11
8.3408198e-11
8.3832817e-11
8.4220892e-11
8.4572671e-11
8.4888512e-11
8.5168765e-11
8.5413871e-11
8.5624255e-11
8.5800404e-11
8.5942842e-11
8.6052118e-11
8.6128823e-11
8.6173572e-11
8.6187017e-11
8.6169856e-11
8.6122779e-11
8.6046486e-11
8.5941657e-11
8.5809022e-11
8.564932e-11
8.5463281e-11
8.5251637e-11
8.5015165e-11
8.4754593e-11
8.4470705e-11
8.4164193e-11
8.3835842e-11
8.3486297e-11
8.3116307e-11
8.2726441e-11
8.2317404e-11
8.1889767e-11
8.1444221e-11
8.0981382e-11
8.0501946e-11
8.0006553e-11
7.9495902e-11
7.8970617e-11
7.8431363e-11
7.7878753e-11
7.7313437e-11
7.6736109e-11
9.754302e-12
1.1137027e-11
1.2671903e-11
1.4338337e-11
1.6076288e-11
1.7715453e-11
1.9390353e-11
7.1694769e-11
2.7999466e-12
8.7257627e-11
4.0649911e-12
1.0870882e-10
1.1593382e-10
6.4458965e-12
7.9321893e-12
1.5819206e-10
5.582036e-11
5.8702678e-11
6.0256113e-11
6.0617465e-11
6.0237109e-11
5.916617e-11
5.775565e-11
1.341353e-11
1.6493065e-11
2.7363229e-10
3.0031717e-10
2.3148937e-11
2.5330856e-11
2.7658307e-11
2.9962838e-11
3.223673e-11
3.4495221e-11
3.6740457e-11
3.8990376e-11
4.1260459e-11
4.3592905e-11
4.6125532e-11
5.1367503e-11
7.4273832e-10
7.7618924e-10
8.0706887e-10
8.377678e-10
8.6824886e-10
8.9850198e-10
9.2849819e-10
9.5822137e-10
9.8766804e-10
1.0169331e-09
1.0463472e-09
1.0749277e-09
1.0432423e-09
7.6461236e-11
7.8058537e-11
8.0334229e-11
8.3054211e-11
9.1195318e-11
1.2710339e-09
1.3030537e-09
1.3320354e-09
1.3625032e-09
1.3957748e-09
1.4345023e-09
1.4844827e-09
1.5593834e-09
1.6611312e-09
5.7970437e-10
5.8818638e-10
5.9592318e-10
6.0322838e-10
6.101562e-10
6.1677221e-10
6.2308819e-10
6.2911241e-10
6.3484561e-10
6.402891e-10
6.4544201e-10
6.5030442e-10
6.5487583e-10
6.5915641e-10
6.6314655e-10
6.6684707e-10
6.7025919e-10
6.7338438e-10
6.7622477e-10
6.787827e-10
6.8106105e-10
6.830627e-10
6.8479099e-10
6.8624952e-10
6.8744224e-10
6.8837326e-10
6.8904706e-10
6.8946833e-10
6.8964217e-10
6.8957371e-10
6.8926801e-10
6.8873025e-10
6.8796577e-10
6.8698012e-10
6.857788e-10
6.8436732e-10
6.8275154e-10
6.8093701e-10
6.789297e-10
6.7673489e-10
6.7435864e-10
6.7180583e-10
6.6908233e-10
6.6619248e-10
6.6314178e-10
6.5993462e-10
6.5657638e-10
6.5307193e-10
6.4942672e-10
6.4564577e-10
6.4173467e-10
6.3769825e-10
6.3354198e-10
6.2927062e-10
6.2488949e-10
6.2040409e-10
4.5929306e-11
5.2463272e-11
5.9723407e-11
6.7615089e-11
7.5856728e-11
8.366715e-11
9.2272346e-11
3.4345525e-10
1.2666479e-11
4.1636873e-10
1.871153e-11
5.1970889e-10
5.4492675e-10
2.9818389e-11
3.7719432e-11
7.4476024e-10
2.6782602e-10
2.8230712e-10
2.8983654e-10
2.9164572e-10
2.8981784e-10
2.846724e-10
2.773369e-10
6.3920529e-11
7.8772912e-11
1.2753671e-09
1.3967206e-09
1.1009904e-10
1.2021832e-10
1.3122832e-10
1.4214257e-10
1.5290988e-10
1.636143e-10
1.7425667e-10
1.8493006e-10
1.957025e-10
2.0678377e-10
2.1890127e-10
2.4583612e-10
3.4580591e-09
3.6174853e-09
3.7614695e-09
3.9046301e-09
4.0467923e-09
4.1879146e-09
4.3278572e-09
4.4665483e-09
4.6039684e-09
4.7405629e-09
4.8778699e-09
5.0109656e-09
4.8331903e-09
3.6372004e-10
3.708733e-10
3.817557e-10
3.9495841e-10
4.3805784e-10
5.9229611e-09
6.0773296e-09
6.2128766e-09
6.355386e-09
6.5110258e-09
6.6921895e-09
6.9259647e-09
7.2759508e-09
7.7342863e-09
2.7835504e-09
2.8233812e-09
2.8606587e-09
2.8958778e-09
2.92929e-09
2.9612102e-09
2.9916939e-09
3.0207809e-09
3.0484741e-09
3.0747797e-09
3.099693e-09
3.1232142e-09
3.1453403e-09
3.1660722e-09
3.1854112e-09
3.2033611e-09
3.2199271e-09
3.2351162e-09
3.2489383e-09
3.2614043e-09
3.2725275e-09
3.2823216e-09
3.2908024e-09
3.2979868e-09
3.3038935e-09
3.308542e-09
3.3119534e-09
3.3141501e-09
3.3151562e-09
3.3149962e-09
3.3136942e-09
3.3112748e-09
3.3077635e-09
3.3031865e-09
3.2975703e-09
3.2909411e-09
3.2833269e-09
3.2747541e-09
3.2652514e-09
3.2548438e-09
3.2435605e-09
3.2314247e-09
3.2184645e-09
3.2047006e-09
3.1901594e-09
3.174862e-09
3.1588341e-09
3.142099e-09
3.1246828e-09
3.1066098e-09
3.0879065e-09
3.0685965e-09
3.0487058e-09
3.0282572e-09
3.0072765e-09
2.98579e-09
1.5982456e-10
1.8258363e-10
2.0788085e-10
2.3539161e-10
2.6414559e-10
2.9152392e-10
3.2393356e-10
1.1178387e-09
4.566125e-11
1.3503716e-09
6.8162285e-11
1.6904186e-09
1.745034e-09
1.0863712e-10
1.4016074e-10
2.3930139e-09
9.3953196e-10
9.9239247e-10
1.0189309e-09
1.025359e-09
1.0189437e-09
1.0008045e-09
9.7322432e-10
2.3745709e-10
2.9350451e-10
4.0724473e-09
4.449161e-09
4.0919306e-10
4.4622935e-10
4.8709321e-10
5.2761186e-10
5.6758427e-10
6.0733002e-10
6.4684586e-10
6.8648238e-10
7.2648865e-10
7.676602e-10
8.1300078e-10
9.1948007e-10
1.1036318e-08
1.1553671e-08
1.2013463e-08
1.2470618e-08
1.2924598e-08
1.3375277e-08
1.3822205e-08
1.4265158e-08
1.470407e-08
1.514036e-08
1.5578914e-08
1.600282e-08
1.5336928e-08
1.3519856e-09
1.377379e-09
1.4178666e-09
1.4677653e-09
1.6415241e-09
1.8907699e-08
1.9411792e-08
1.9845127e-08
2.0300704e-08
2.0798247e-08
2.1377308e-08
2.2124292e-08
2.3241259e-08
2.4663982e-08
9.778201e-09
9.9150634e-09
1.0046064e-08
1.0169867e-08
1.0287333e-08
1.0399568e-08
1.0506767e-08
1.0609067e-08
1.070648e-08
1.0799026e-08
1.0886688e-08
1.0969468e-08
1.1047353e-08
1.1120347e-08
1.1188454e-08
1.1251686e-08
1.1310062e-08
1.1363606e-08
1.1412352e-08
1.1456337e-08
1.1495609e-08
1.1530215e-08
1.1560209e-08
1.1585651e-08
1.1606605e-08
1.1623141e-08
1.1635331e-08
1.1643254e-08
1.1646994e-08
1.1646637e-08
1.1642266e-08
1.1633969e-08
1.1621833e-08
1.1605952e-08
1.1586417e-08
1.156332e-08
1.153676e-08
1.1506828e-08
1.1473625e-08
1.143724e-08
1.1397773e-08
1.1355307e-08
1.130994e-08
1.1261745e-08
1.1210814e-08
1.115722e-08
1.1101055e-08
1.10424e-08
1.0981346e-08
1.0917979e-08
1.0852392e-08
1.0784668e-08
1.0714897e-08
1.0643161e-08
1.0569549e-08
1.0494155e-08
4.5370059e-10
5.1834297e-10
5.9021159e-10
6.6839732e-10
7.5017728e-10
8.2843785e-10
9.2683124e-10
2.7509342e-09
1.4217985e-10
3.3225369e-09
2.1352199e-10
4.1795991e-09
4.2760444e-09
3.3961706e-10
4.4384243e-10
5.9023401e-09
2.6798255e-09
2.8358069e-09
2.9117854e-09
2.930276e-09
2.9119797e-09
2.8599105e-09
2.7759136e-09
7.4987262e-10
9.2931138e-10
1.003945e-08
1.094619e-08
1.2929304e-09
1.4089312e-09
1.537962e-09
1.6659136e-09
1.7921341e-09
1.9176438e-09
2.0424225e-09
2.1675849e-09
2.2939116e-09
2.4239624e-09
2.5682094e-09
2.9198658e-09
2.7188878e-08
2.8469394e-08
2.9601845e-08
3.0727741e-08
3.1845827e-08
3.2955813e-08
3.4056583e-08
3.5147595e-08
3.6228678e-08
3.7303313e-08
3.838348e-08
3.9425178e-08
3.762059e-08
4.2712023e-09
4.349357e-09
4.4773217e-09
4.6375395e-09
5.2184243e-09
4.6579966e-08
4.7828333e-08
4.8896584e-08
5.0019585e-08
5.1245926e-08
5.2672848e-08
5.4512626e-08
5.7260815e-08
6.0753401e-08
2.7912761e-08
2.8297779e-08
2.8671816e-08
2.9025398e-08
2.9360937e-08
2.968158e-08
2.9987876e-08
3.0280223e-08
3.0558646e-08
3.0823207e-08
3.1073854e-08
3.1310589e-08
3.153338e-08
3.1742231e-08
3.1937154e-08
3.2118183e-08
3.228537e-08
3.2438781e-08
3.2578511e-08
3.2704668e-08
3.281738e-08
3.2916786e-08
3.3003036e-08
3.3076299e-08
3.3136759e-08
3.3184609e-08
3.3220056e-08
3.3243324e-08
3.325465e-08
3.3254278e-08
3.3242446e-08
3.3219398e-08
3.3185388e-08
3.3140677e-08
3.3085527e-08
3.3020198e-08
3.2944972e-08
3.2860108e-08
3.2765894e-08
3.2662578e-08
3.2550452e-08
3.2429746e-08
3.2300743e-08
3.2163648e-08
3.2018724e-08
3.1866182e-08
3.170628e-08
3.153925e-08
3.1365352e-08
3.1184831e-08
3.0997952e-08
3.080495e-08
3.0606087e-08
3.0401592e-08
3.0191722e-08
2.9976744e-08
1.1149004e-09
1.2738178e-09
1.4505402e-09
1.6428633e-09
1.8441819e-09
2.0378555e-09
2.2921183e-09
5.5895844e-09
3.989829e-10
6.7771303e-09
6.0039987e-10
8.5792357e-09
8.7714252e-09
9.5127517e-10
1.2517649e-09
1.2214925e-08
6.6077036e-09
7.0025302e-09
7.190484e-09
7.2364266e-09
7.191337e-09
7.0619528e-09
6.8429763e-09
2.1042785e-09
2.6128822e-09
2.0879889e-08
2.2745429e-08
3.6293819e-09
3.9538967e-09
4.3159001e-09
4.6748761e-09
5.0289585e-09
5.3810388e-09
5.731037e-09
6.0820987e-09
6.4363988e-09
6.801256e-09
7.208753e-09
8.2224671e-09
5.649462e-08
5.9135994e-08
6.1486549e-08
6.3823369e-08
6.6143985e-08
6.8447832e-08
7.07326e-08
7.2997179e-08
7.5241195e-08
7.7471826e-08
7.9713875e-08
8.1873599e-08
7.8048378e-08
1.1982672e-08
1.2200352e-08
1.2559474e-08
1.3015942e-08
1.4700755e-08
9.6764984e-08
9.9328196e-08
1.0154756e-07
1.0388045e-07
1.0642757e-07
1.0939014e-07
1.1320707e-07
1.189049e-07
1.2633981e-07
6.8805144e-08
6.9750469e-08
7.0673073e-08
7.1545525e-08
7.2373652e-08
7.3165188e-08
7.3921477e-08
7.4643495e-08
7.5331299e-08
7.5985035e-08
7.6604576e-08
7.718992e-08
7.7740978e-08
7.8257764e-08
7.8740295e-08
7.9188653e-08
7.9602955e-08
7.9983363e-08
8.03301e-08
8.0643428e-08
8.092366e-08
8.1171121e-08
8.1386185e-08
8.1569258e-08
8.1720782e-08
8.1841234e-08
8.1931114e-08
8.1990967e-08
8.2021374e-08
8.2022925e-08
8.1996206e-08
8.1941811e-08
8.1860361e-08
8.1752492e-08
8.1618849e-08
8.1460069e-08
8.1276834e-08
8.106979e-08
8.0839635e-08
8.0586982e-08
8.0312544e-08
8.0016889e-08
7.9700706e-08
7.9364502e-08
7.9008925e-08
7.8634487e-08
7.824183e-08
7.7831517e-08
7.7404195e-08
7.6960462e-08
7.6500973e-08
7.6026309e-08
7.553711e-08
7.5033949e-08
7.4517452e-08
7.3988285e-08
2.4616046e-09
2.8126139e-09
3.2030377e-09
3.6280799e-09
4.0733628e-09
4.5040167e-09
5.0828771e-09
1.0065728e-08
1.0314974e-09
1.2287989e-08
1.5501077e-09
1.5658474e-08
1.6107728e-08
2.4428587e-09
3.220282e-09
2.2645271e-08
1.4630349e-08
1.551998e-08
1.5937314e-08
1.6039779e-08
1.5940009e-08
1.5650805e-08
1.5145737e-08
5.3765535e-09
6.6833807e-09
3.9037477e-08
4.2544193e-08
9.2733227e-09
1.0103176e-08
1.1027519e-08
1.1944067e-08
1.2847972e-08
1.3746697e-08
1.463998e-08
1.5535903e-08
1.6439976e-08
1.7371253e-08
1.8418103e-08
2.1033251e-08
1.0549449e-07
1.1034944e-07
1.1473105e-07
1.1908685e-07
1.2341247e-07
1.2770691e-07
1.3196588e-07
1.3618736e-07
1.403706e-07
1.4452888e-07
1.4870839e-07
1.5273516e-07
1.4594433e-07
3.0583066e-08
3.1143408e-08
3.2060215e-08
3.3241737e-08
3.7592418e-08
1.8062022e-07
1.8529375e-07
1.8943502e-07
1.9378754e-07
1.9853847e-07
2.0406108e-07
2.1116933e-07
2.2177741e-07
2.3627442e-07
1.520784e-07
1.5418283e-07
1.5622483e-07
1.5815668e-07
1.5999103e-07
1.6174492e-07
1.6342129e-07
1.6502228e-07
1.6654799e-07
1.6799875e-07
1.6937425e-07
1.7067447e-07
1.718992e-07
1.7304845e-07
1.7412223e-07
1.7512072e-07
1.7604415e-07
1.7689285e-07
1.7766729e-07
1.7836804e-07
1.7899576e-07
1.7955114e-07
1.8003499e-07
1.8044819e-07
1.8079169e-07
1.8106652e-07
1.8127376e-07
1.814146e-07
1.814903e-07
1.8150215e-07
1.8145141e-07
1.813394e-07
1.8116744e-07
1.8093695e-07
1.8064933e-07
1.8030597e-07
1.7990836e-07
1.7945792e-07
1.7895618e-07
1.7840448e-07
1.778044e-07
1.7715716e-07
1.764643e-07
1.7572692e-07
1.7494644e-07
1.74124e-07
1.7326101e-07
1.723587e-07
1.7141851e-07
1.7044176e-07
1.6942989e-07
1.6838419e-07
1.6730606e-07
1.6619678e-07
1.6505775e-07
1.6389042e-07
5.0052854e-09
5.7192448e-09
6.5135546e-09
7.3786222e-09
8.2856622e-09
9.1673957e-09
1.0356425e-08
1.687923e-08
2.4875846e-09
2.0777376e-08
3.7228321e-09
2.6636263e-08
2.7686369e-08
5.8289227e-09
7.6656566e-09
3.926854e-08
2.9824963e-08
3.1654688e-08
3.2507448e-08
3.2717713e-08
3.2514095e-08
3.1917724e-08
3.0863434e-08
1.2693478e-08
1.5781393e-08
6.8360028e-08
7.4622381e-08
2.1885486e-08
2.3851911e-08
2.6031372e-08
2.8192132e-08
3.0322603e-08
3.2440583e-08
3.4545322e-08
3.6655995e-08
3.8785498e-08
4.0979664e-08
4.3460361e-08
4.9589866e-08
1.8444828e-07
1.9276498e-07
2.0040834e-07
2.0800646e-07
2.1555195e-07
2.2304325e-07
2.3047289e-07
2.3783742e-07
2.4513549e-07
2.5238996e-07
2.5968148e-07
2.6671694e-07
2.5613639e-07
7.2054942e-08
7.3402684e-08
7.5562946e-08
7.8380579e-08
8.8539357e-08
3.156227e-07
3.2355167e-07
3.3078425e-07
3.3838446e-07
3.4667706e-07
3.5630908e-07
3.686911e-07
3.8717041e-07
4.1384133e-07
3.0894325e-07
3.1329015e-07
3.1744797e-07
3.2138371e-07
3.2512276e-07
3.2869954e-07
3.3211994e-07
3.3538829e-07
3.3850474e-07
3.414699e-07
3.442831e-07
3.4694427e-07
3.4945291e-07
3.5180899e-07
3.5401249e-07
3.5606369e-07
3.5796299e-07
3.5971102e-07
3.6130868e-07
3.6275702e-07
3.6405733e-07
3.6521097e-07
3.6621949e-07
3.6708461e-07
3.6780821e-07
3.683923e-07
3.6883903e-07
3.6915074e-07
3.6932991e-07
3.6937913e-07
3.6930091e-07
3.6909783e-07
3.687726e-07
3.6832797e-07
3.6776677e-07
3.6709179e-07
3.6630601e-07
3.6541227e-07
3.6441365e-07
3.6331284e-07
3.6211299e-07
3.6081661e-07
3.5942674e-07
3.5794564e-07
3.5637617e-07
3.5472062e-07
3.5298182e-07
3.511623e-07
3.4926494e-07
3.4729243e-07
3.452477e-07
3.4313335e-07
3.4095226e-07
3.3870702e-07
3.3640044e-07
3.3403557e-07
9.534424e-09
1.0894794e-08
1.2408618e-08
1.4057942e-08
1.5788861e-08
1.7479393e-08
1.9722691e-08
2.7173196e-08
5.64001e-09
3.3736448e-08
8.3870258e-09
4.3466028e-08
4.5745878e-08
1.3036087e-08
1.7044424e-08
6.5367974e-08
5.6951321e-08
6.0449123e-08
6.2080368e-08
6.2483979e-08
6.2093222e-08
6.0938342e-08
5.8912314e-08
2.7962651e-08
3.4736627e-08
1.1488856e-07
1.2572894e-07
4.817504e-08
5.2530817e-08
5.7321525e-08
6.2069999e-08
6.6750517e-08
7.1402658e-08
7.6024529e-08
8.0658527e-08
8.5332823e-08
9.015029e-08
9.5622832e-08
1.0880196e-07
3.0938465e-07
3.2302959e-07
3.3581487e-07
3.4852432e-07
3.6114586e-07
3.7367714e-07
3.8610577e-07
3.9842617e-07
4.106359e-07
4.2277272e-07
4.3497175e-07
4.4677412e-07
4.3195296e-07
1.5822368e-07
1.6127101e-07
1.6601418e-07
1.7226016e-07
1.9391674e-07
5.2903512e-07
5.4191715e-07
5.5403254e-07
5.6676098e-07
5.8064171e-07
5.9674833e-07
6.1742234e-07
6.4828557e-07
6.953152e-07
5.8671017e-07
5.9515981e-07
6.0308292e-07
6.1058819e-07
6.1772348e-07
6.2455369e-07
6.3108985e-07
6.3734004e-07
6.4330445e-07
6.489841e-07
6.5437763e-07
6.5948472e-07
6.6430434e-07
6.6883627e-07
6.730803e-07
6.7703682e-07
6.8070642e-07
6.8409014e-07
6.8718948e-07
6.900063e-07
6.9254284e-07
6.9480153e-07
6.9678513e-07
6.9849671e-07
6.9993969e-07
7.0111771e-07
7.0203466e-07
7.0269486e-07
7.0310284e-07
7.0326334e-07
7.03181e-07
7.0286057e-07
7.0230705e-07
7.0152556e-07
7.0052134e-07
6.9929954e-07
6.9786577e-07
6.9622526e-07
6.9438381e-07
6.9234642e-07
6.9011899e-07
6.8770623e-07
6.8511386e-07
6.8234608e-07
6.794083e-07
6.7630479e-07
6.7304093e-07
6.6962149e-07
6.660519e-07
6.6233726e-07
6.5848312e-07
6.5449443e-07
6.5037667e-07
6.4613474e-07
6.4177403e-07
6.3730042e-07
1.722499e-08
1.9683114e-08
2.2419181e-08
2.5401367e-08
2.8534059e-08
3.1606173e-08
3.5549223e-08
4.2727766e-08
1.2087955e-08
5.3479388e-08
1.7829328e-08
6.9167457e-08
7.3749125e-08
2.7495441e-08
3.5640819e-08
1.0599444e-07
1.0312481e-07
1.0942488e-07
1.1238171e-07
1.1311457e-07
1.1239918e-07
1.1027118e-07
1.0663739e-07
5.788578e-08
7.1776814e-08
1.8785265e-07
2.062082e-07
9.9605786e-08
1.086801e-07
1.1856412e-07
1.2835766e-07
1.3800738e-07
1.475959e-07
1.5711894e-07
1.6666446e-07
1.7629035e-07
1.8621351e-07
1.9752442e-07
2.2369162e-07
5.0462541e-07
5.2639971e-07
5.4718585e-07
5.6784883e-07
5.8836922e-07
6.0874372e-07
6.2895248e-07
6.4898666e-07
6.688421e-07
6.8857928e-07
7.0841846e-07
7.2768515e-07
7.0895865e-07
3.2604897e-07
3.3255002e-07
3.4232025e-07
3.5526806e-07
3.9768828e-07
8.6213944e-07
8.8251562e-07
9.0224785e-07
9.2297295e-07
9.4555936e-07
9.7173566e-07
1.0052765e-06
1.0553681e-06
1.1355049e-06
1.0542251e-06
1.069819e-06
1.0841224e-06
1.0976836e-06
1.1105884e-06
1.1229524e-06
1.1347951e-06
1.1461305e-06
1.1569589e-06
1.1672818e-06
1.1770963e-06
1.1864018e-06
1.1951958e-06
1.2034778e-06
1.211247e-06
1.2185037e-06
1.2252485e-06
1.231483e-06
1.2372094e-06
1.2424307e-06
1.2471504e-06
1.2513725e-06
1.2551015e-06
1.2583426e-06
1.2611015e-06
1.2633842e-06
1.2651974e-06
1.2665484e-06
1.2674451e-06
1.2678955e-06
1.2679076e-06
1.2674896e-06
1.2666502e-06
1.2653983e-06
1.2637429e-06
1.2616932e-06
1.2592587e-06
1.2564488e-06
1.2532737e-06
1.249742e-06
1.2458642e-06
1.2416486e-06
1.2371053e-06
1.2322418e-06
1.2270676e-06
1.2215902e-06
1.2158194e-06
1.2097635e-06
1.2034322e-06
1.1968348e-06
1.1899811e-06
1.18288e-06
1.1755414e-06
1.1679741e-06
1.1601879e-06
1.1521933e-06
2.9784141e-08
3.4034878e-08
3.8767395e-08
4.3927827e-08
4.9354042e-08
5.4693158e-08
6.1227429e-08
6.6227267e-08
2.4593426e-08
8.3493203e-08
3.5928194e-08
1.0827962e-07
1.1691556e-07
5.4955143e-08
7.0464603e-08
1.687265e-07
1.7868072e-07
1.8948471e-07
1.94608e-07
1.9587614e-07
1.9461203e-07
1.908439e-07
1.8469128e-07
1.1323534e-07
1.4001105e-07
3.0098914e-07
3.3149203e-07
1.9450762e-07
2.1236905e-07
2.3161009e-07
2.5066605e-07
2.6943339e-07
2.8807466e-07
3.0658124e-07
3.2512517e-07
3.4381921e-07
3.6309487e-07
3.8510231e-07
4.3333455e-07
8.0603144e-07
8.4010483e-07
8.731803e-07
9.0606042e-07
9.3871454e-07
9.7113831e-07
1.0033007e-06
1.0351883e-06
1.066794e-06
1.0982126e-06
1.1297954e-06
1.1606089e-06
1.1397294e-06
6.3388415e-07
6.4700204e-07
6.6598117e-07
6.9119119e-07
7.6791752e-07
1.3756226e-06
1.4072826e-06
1.4387514e-06
1.4717928e-06
1.5077728e-06
1.5494114e-06
1.602661e-06
1.6822135e-06
1.814686e-06
1.8080659e-06
1.8355503e-06
1.8602295e-06
1.8836535e-06
1.9059705e-06
1.9273761e-06
1.9479028e-06
1.9675743e-06
1.9863903e-06
2.0043527e-06
2.0214563e-06
2.0376989e-06
2.0530759e-06
2.0675854e-06
2.0812254e-06
2.0939955e-06
2.1058962e-06
2.1169289e-06
2.1270968e-06
2.1364039e-06
2.1448556e-06
2.1524577e-06
2.1592171e-06
2.1651415e-06
2.17024e-06
2.174522e-06
2.1779982e-06
2.1806802e-06
2.1825805e-06
2.1837122e-06
2.1840883e-06
2.183722e-06
2.1826275e-06
2.1808194e-06
2.1783125e-06
2.1751218e-06
2.1712633e-06
2.1667524e-06
2.1616059e-06
2.1558385e-06
2.1494676e-06
2.142507e-06
2.1349737e-06
2.1268801e-06
2.1182423e-06
2.1090732e-06
2.0993889e-06
2.0892038e-06
2.0785344e-06
2.0673963e-06
2.0558064e-06
2.04378e-06
2.031334e-06
2.0184837e-06
2.0052456e-06
1.9916383e-06
4.9634674e-08
5.6717973e-08
6.4606e-08
7.3211027e-08
8.2268377e-08
9.1203169e-08
1.015184e-07
1.0163888e-07
4.7663693e-08
1.2892808e-07
6.8891317e-08
1.6749125e-07
1.8295217e-07
1.0450435e-07
1.3232674e-07
2.6469918e-07
2.9825845e-07
3.1604292e-07
3.2458263e-07
3.2668336e-07
3.2450657e-07
3.1804578e-07
3.0811634e-07
2.1031883e-07
2.5907646e-07
4.7425421e-07
5.2402556e-07
3.6042737e-07
3.9377137e-07
4.2926916e-07
4.6440403e-07
4.9898706e-07
5.3332107e-07
5.6739061e-07
6.0151438e-07
6.3590173e-07
6.7136529e-07
7.1183485e-07
7.9479925e-07
1.2650449e-06
1.3175339e-06
1.3692113e-06
1.420585e-06
1.4716075e-06
1.5222736e-06
1.5725362e-06
1.6223749e-06
1.6717787e-06
1.7208931e-06
1.7702668e-06
1.8186819e-06
1.7996666e-06
1.1679201e-06
1.1930056e-06
1.2279256e-06
1.2741978e-06
1.4029782e-06
2.1561677e-06
2.204701e-06
2.2540031e-06
2.3057488e-06
2.3620433e-06
2.4270831e-06
2.5100816e-06
2.6340767e-06
2.8468223e-06
2.9790969e-06
3.0255573e-06
3.0665175e-06
3.1054447e-06
3.1425859e-06
3.1782579e-06
3.2125131e-06
3.2453892e-06
3.2768843e-06
3.3070005e-06
3.3357279e-06
3.3630617e-06
3.3889928e-06
3.4135167e-06
3.4366285e-06
3.4583259e-06
3.4786079e-06
3.4974756e-06
3.5149319e-06
3.5309822e-06
3.5456331e-06
3.5588926e-06
3.5707701e-06
3.5812767e-06
3.5904253e-06
3.5982301e-06
3.6047064e-06
3.6098717e-06
3.6137452e-06
3.6163467e-06
3.6176959e-06
3.6178133e-06
3.6167206e-06
3.6144404e-06
3.610996e-06
3.6064106e-06
3.6007096e-06
3.593917e-06
3.5860597e-06
3.5771606e-06
3.5672478e-06
3.5563429e-06
3.5444734e-06
3.531659e-06
3.5179256e-06
3.5032938e-06
3.4877898e-06
3.4714368e-06
3.4542618e-06
3.4362901e-06
3.4175496e-06
3.3980653e-06
3.3778649e-06
3.3569736e-06
3.3354189e-06
3.3132311e-06
8.0148552e-08
9.1583581e-08
1.0432071e-07
1.1822176e-07
1.3286832e-07
1.4734242e-07
1.6299837e-07
1.5473174e-07
8.8268654e-08
1.9726286e-07
1.2613066e-07
2.564907e-07
2.8302403e-07
1.8976612e-07
2.3704302e-07
4.0994828e-07
4.8212637e-07
5.1040293e-07
5.2415886e-07
5.2749723e-07
5.2381559e-07
5.1302802e-07
4.9763121e-07
3.7252932e-07
4.5682502e-07
7.3593897e-07
8.1562016e-07
6.365002e-07
6.9574027e-07
7.5805715e-07
8.1968948e-07
8.8031296e-07
9.4046336e-07
1.0001169e-06
1.0598345e-06
1.1199891e-06
1.182032e-06
1.2526298e-06
1.3866009e-06
1.9533803e-06
2.0330881e-06
2.1124525e-06
2.1913529e-06
2.2697176e-06
2.3475412e-06
2.4247539e-06
2.5013263e-06
2.577241e-06
2.6527174e-06
2.7285921e-06
2.8033615e-06
2.7934829e-06
2.0478378e-06
2.0933929e-06
2.1544886e-06
2.2348394e-06
2.4366065e-06
3.3238773e-06
3.397393e-06
3.473354e-06
3.5530424e-06
3.6396414e-06
3.7395072e-06
3.8666487e-06
4.0564472e-06
4.3883329e-06
4.7386707e-06
4.8142464e-06
4.8799428e-06
4.9424708e-06
5.00223e-06
5.0597134e-06
5.1150024e-06
5.1681539e-06
5.2191633e-06
5.2680316e-06
5.3147406e-06
5.3592804e-06
5.4016344e-06
5.4417923e-06
5.4797436e-06
5.515482e-06
5.5490027e-06
5.5803041e-06
5.6093884e-06
5.63626e-06
5.6609267e-06
5.6833977e-06
5.7036849e-06
5.7218024e-06
5.7377675e-06
5.7515993e-06
5.7633192e-06
5.7729517e-06
5.7805241e-06
5.7860649e-06
5.7896027e-06
5.7911668e-06
5.7907894e-06
5.7885034e-06
5.7843437e-06
5.7783445e-06
5.770544e-06
5.7609782e-06
5.7496878e-06
5.7367074e-06
5.7220798e-06
5.7058379e-06
5.6880238e-06
5.6686674e-06
5.6478089e-06
5.6254797e-06
5.6017205e-06
5.5765674e-06
5.5500626e-06
5.5222458e-06
5.4931609e-06
5.4628473e-06
5.4313489e-06
5.3987058e-06
5.3649618e-06
5.3301638e-06
1.2593864e-07
1.4389794e-07
1.6390665e-07
1.857534e-07
2.0879471e-07
2.3158882e-07
2.5462417e-07
2.3376294e-07
1.5666377e-07
2.9917538e-07
2.2123737e-07
3.8906992e-07
4.3299334e-07
3.302069e-07
4.06738e-07
6.2709195e-07
7.5774981e-07
8.0137847e-07
8.2285969e-07
8.2794826e-07
8.2179593e-07
8.0418404e-07
7.8109954e-07
6.3190788e-07
7.7098454e-07
1.1251216e-06
1.2501353e-06
1.0756653e-06
1.1761692e-06
1.2806743e-06
1.3839348e-06
1.485426e-06
1.5860515e-06
1.6857815e-06
1.7855584e-06
1.8860217e-06
1.9896334e-06
2.1069102e-06
2.3114437e-06
2.9679617e-06
3.0872727e-06
3.2070679e-06
3.3261656e-06
3.4444605e-06
3.561949e-06
3.6785307e-06
3.7941639e-06
3.9088224e-06
4.0228295e-06
4.1374229e-06
4.2508183e-06
4.2615919e-06
3.4308776e-06
3.5096249e-06
3.6116524e-06
3.7441663e-06
4.0414225e-06
5.0396594e-06
5.1496737e-06
5.2647426e-06
5.3853909e-06
5.5163396e-06
5.667039e-06
5.8584002e-06
6.1434934e-06
6.6459597e-06
7.3034368e-06
7.4220578e-06
7.5242146e-06
7.6216031e-06
7.714851e-06
7.804699e-06
7.8912685e-06
7.9746427e-06
8.0548113e-06
8.1317719e-06
8.2054933e-06
8.2759559e-06
8.34313e-06
8.4069957e-06
8.4675318e-06
8.5247242e-06
8.5785602e-06
8.6290327e-06
8.676139e-06
8.7198812e-06
8.7602656e-06
8.7973008e-06
8.8309994e-06
8.861378e-06
8.8884573e-06
8.9122612e-06
8.9328174e-06
8.9501581e-06
8.9643198e-06
8.9753414e-06
8.9832618e-06
8.9881212e-06
8.9899644e-06
8.9888373e-06
8.9847895e-06
8.9778691e-06
8.9681313e-06
8.9556273e-06
8.9404163e-06
8.9225482e-06
8.9020856e-06
8.8790763e-06
8.853582e-06
8.8256468e-06
8.7953297e-06
8.7626772e-06
8.7277499e-06
8.6906019e-06
8.6512965e-06
8.6098936e-06
8.5664599e-06
8.5210552e-06
8.4737469e-06
8.4245959e-06
8.3736695e-06
8.3210387e-06
1.9321788e-07
2.2075002e-07
2.5142995e-07
2.8494244e-07
3.2032118e-07
3.5533578e-07
3.8843587e-07
3.5035193e-07
2.672905e-07
4.4963926e-07
3.7303715e-07
5.8450292e-07
6.5492911e-07
5.5253764e-07
6.7127522e-07
9.4733184e-07
1.1615719e-06
1.2271149e-06
1.2597005e-06
1.2671212e-06
1.2569247e-06
1.2287381e-06
1.1951242e-06
1.0306996e-06
1.2508058e-06
1.6942905e-06
1.8862794e-06
1.7466483e-06
1.9100372e-06
2.0780992e-06
2.2439771e-06
2.4068695e-06
2.568234e-06
2.7280477e-06
2.8878268e-06
3.0486305e-06
3.2144312e-06
3.4006944e-06
3.6982969e-06
4.4354311e-06
4.6113184e-06
4.7889205e-06
4.9654894e-06
5.1408762e-06
5.3150827e-06
5.4879686e-06
5.6594766e-06
5.8295683e-06
5.9987065e-06
6.1686514e-06
6.337293e-06
6.3852834e-06
5.5139539e-06
5.6438967e-06
5.8071167e-06
6.0155535e-06
6.4309634e-06
7.5112243e-06
7.6736638e-06
7.8448887e-06
8.0242979e-06
8.218756e-06
8.4420437e-06
8.7247487e-06
9.1443296e-06
9.8817109e-06
1.0937497e-05
1.1117549e-05
1.1271884e-05
1.1419266e-05
1.1560656e-05
1.169713e-05
1.1828864e-05
1.1955974e-05
1.2078441e-05
1.2196255e-05
1.2309363e-05
1.2417732e-05
1.252131e-05
1.2620061e-05
1.2713947e-05
1.2802938e-05
1.2887009e-05
1.2966142e-05
1.3040323e-05
1.3109549e-05
1.317382e-05
1.3233141e-05
1.3287522e-05
1.333698e-05
1.3381536e-05
1.3421218e-05
1.3456058e-05
1.3486098e-05
1.3511382e-05
1.353196e-05
1.3547883e-05
1.3559203e-05
1.356598e-05
1.3568275e-05
1.3566154e-05
1.3559682e-05
1.3548936e-05
1.3533987e-05
1.3514915e-05
1.3491791e-05
1.3464701e-05
1.3433714e-05
1.3398916e-05
1.3360368e-05
1.3318155e-05
1.3272342e-05
1.3223018e-05
1.3170257e-05
1.3114155e-05
1.3054796e-05
1.2992278e-05
1.292669e-05
1.2858131e-05
1.278669e-05
1.2712467e-05
1.2635567e-05
2.9023459e-07
3.3154398e-07
3.7758367e-07
4.2789367e-07
4.8105257e-07
5.3366103e-07
5.804079e-07
5.2055404e-07
4.3975243e-07
6.6925204e-07
6.0674875e-07
8.69193e-07
9.7888111e-07
8.922289e-07
1.0698776e-06
1.4126942e-06
1.7409244e-06
1.8370072e-06
1.885074e-06
1.8953696e-06
1.878585e-06
1.8343133e-06
1.7866666e-06
1.6229098e-06
1.9587186e-06