/*--------------------------------*- C++ -*----------------------------------*\
| =========                 |                                                 |
| \\      /  F ield         | OpenFOAM: The Open Source CFD Toolbox           |
|  \\    /   O peration     | Version:  2.4.0                                 |
|   \\  /    A nd           | Web:      www.OpenFOAM.org                      |
|    \\/     M anipulation  |                                                 |
\*---------------------------------------------------------------------------*/
FoamFile
{
    version     2.0;
    format      ascii;
    class       volScalarField;
    location    "340";
    object      omega;
}
// * * * * * * * * * * * * * * * * * * * * * * * * * * * * * * * * * * * * * //

dimensions      [0 0 -1 0 0 0 0];

internalField   nonuniform List<scalar> 
19698
(
227134.93
220644.17
214005.21
207254.37
200428.97
193566.99
186709.47
179903.22
173262.16
167044.3
161298.04
156019.07
151204.62
146855.25
142973.85
139564.67
136634.53
134192.24
132247.52
130811.23
129895.27
129511.99
129657.27
129783.85
129783.85
129783.85
129783.85
129783.85
129783.85
129783.85
129783.85
129783.85
129783.85
129783.85
129783.85
129783.85
129783.85
129783.85
129783.85
129783.85
129783.85
129783.85
129783.85
129783.85
129783.85
129783.85
129783.85
129783.85
129783.85
129783.85
129783.85
129783.85
129783.85
129783.85
129783.85
129783.85
129783.85
129783.85
129783.85
129783.85
129783.85
129783.85
129783.85
129783.85
129783.85
129783.85
129783.85
129783.85
129783.85
129783.85
129783.85
129783.85
129783.85
129783.85
129783.85
129783.85
129783.85
129783.85
129783.85
129783.85
129783.85
129783.85
129783.84
129783.85
129783.85
129783.85
129783.85
129783.84
129783.85
129783.85
129783.85
129783.85
129783.85
129783.85
129783.85
129783.85
129783.84
129783.85
129783.85
129783.84
129783.85
129783.85
129783.85
129783.85
129783.85
129783.84
129783.85
129783.85
129783.85
129783.85
129783.85
129783.85
129783.85
129783.85
129783.84
129783.85
129783.85
129783.85
129783.84
129783.85
129783.85
129783.84
36888.781
35835.567
34758.501
33663.648
32557.277
31445.67
30309.349
25271.486
33803.78
23505.139
31417.513
21981.999
21322.372
28547.249
27765.883
19732.533
23123.462
22711.29
22382.079
22138.961
21983.941
21919.102
21945.824
25141.638
25136.077
18364.662
18370.549
25147.834
25150.496
25150.702
25150.802
25150.889
25150.927
25150.958
25150.961
25150.957
25150.926
25150.721
25133.853
18362.365
18360.761
18360.793
18360.832
18360.875
18360.923
18360.975
18361.032
18361.095
18361.163
18361.244
18361.486
18375.244
25147.699
25149.956
25149.8
25149.38
25129.369
18363.794
18362.293
18362.477
18362.69
18362.945
18363.272
18363.746
18364.679
18374.593
21960.635
21961.609
21961.608
21961.606
21961.605
21961.604
21961.603
21961.602
21961.601
21961.599
21961.598
21961.597
21961.595
21961.595
21961.593
21961.592
21961.591
21961.59
21961.588
21961.587
21961.586
21961.584
21961.584
21961.582
21961.581
21961.58
21961.578
21961.577
21961.576
21961.575
21961.574
21961.573
21961.572
21961.571
21961.57
21961.569
21961.568
21961.567
21961.566
21961.565
21961.564
21961.563
21961.562
21961.562
21961.561
21961.56
21961.56
21961.559
21961.558
21961.558
21961.557
21961.557
21961.556
21961.556
21961.555
21961.555
12375.726
12022.453
11661.132
11293.79
10922.496
10549.183
10140.951
6840.0345
13707.098
6392.5742
12671.483
5994.2003
5852.0417
11458.223
11083.865
5441.6847
7649.3805
7510.7835
7401.8787
7321.4746
7270.2187
7248.8608
7261.1695
9978.7119
9968.7129
5091.9868
5098.3415
9982.4943
9988.8467
9989.0111
9989.0793
9989.1396
9989.1579
9989.1727
9989.164
9989.1496
9989.1078
9988.7105
9958.7111
5090.4873
5087.5052
5087.5242
5087.5478
5087.5732
5087.6015
5087.6319
5087.6651
5087.7007
5087.7397
5087.7883
5088.056
5106.1784
9982.9868
9988.1414
9987.9923
9987.3204
9951.1517
5090.9627
5088.3642
5088.4634
5088.5794
5088.7183
5088.8961
5089.1561
5089.7381
5100.5761
7260.2784
7262.0389
7262.0369
7262.0337
7262.0311
7262.0284
7262.0257
7262.023
7262.0202
7262.0173
7262.0144
7262.0116
7262.0086
7262.0056
7262.0025
7261.9994
7261.9962
7261.9933
7261.99
7261.9869
7261.9837
7261.9805
7261.9775
7261.9743
7261.9712
7261.9681
7261.965
7261.962
7261.9589
7261.956
7261.9529
7261.9501
7261.9473
7261.9444
7261.9416
7261.939
7261.9363
7261.9337
7261.9312
7261.9286
7261.9264
7261.9239
7261.9216
7261.9194
7261.9173
7261.9152
7261.9132
7261.9114
7261.9093
7261.9078
7261.906
7261.9044
7261.9028
7261.9014
7261.8999
7261.8986
5748.6974
5584.6429
5416.8391
5246.2215
5073.7427
4900.1128
4687.3876
2527.9037
7736.8719
2382.5245
7092.5719
2242.7413
2219.6258
6370.2946
6104.1132
2078.2161
3529.2276
3462.5611
3412.3442
3375.2886
3351.6805
3341.9392
3351.256
5452.7106
5438.3711
1965.0856
1971.6099
5454.1523
5462.3726
5462.4808
5462.5095
5462.5372
5462.533
5462.5296
5462.5085
5462.485
5462.4338
5461.8242
5422.1584
1964.1017
1961.0598
1961.0734
1961.0905
1961.1084
1961.1277
1961.1481
1961.1698
1961.1927
1961.2174
1961.25
1961.5247
1980.2991
5454.9253
5461.5463
5461.4133
5460.4703
5412.6258
1964.1946
1961.587
1961.6429
1961.7091
1961.7881
1961.8893
1962.0387
1962.4342
1972.5681
3345.686
3347.7111
3347.7077
3347.7024
3347.6978
3347.6931
3347.6883
3347.6833
3347.6783
3347.673
3347.6677
3347.6623
3347.6567
3347.6511
3347.6453
3347.6395
3347.6336
3347.6277
3347.6217
3347.6157
3347.6096
3347.6036
3347.5975
3347.5914
3347.5854
3347.5794
3347.5733
3347.5674
3347.5615
3347.5556
3347.5498
3347.5441
3347.5384
3347.5328
3347.5273
3347.5219
3347.5167
3347.5114
3347.5064
3347.5014
3347.4966
3347.4918
3347.4872
3347.4827
3347.4784
3347.4741
3347.4701
3347.4661
3347.4622
3347.4586
3347.455
3347.4517
3347.4484
3347.4454
3347.4423
3347.4395
3203.8089
3112.4087
3018.9125
2923.8408
2827.7217
2730.7366
2594.3713
1176.6409
5042.789
1121.0451
4578.6732
1059.4079
1068.7468
4083.4927
3868.2099
1007.5434
1960.4719
1921.104
1893.2385
1872.6946
1859.6218
1854.3311
1862.8024
3428.06
3410.8488
965.42318
971.95156
3427.8714
3436.4753
3436.5321
3436.5255
3436.5244
3436.5008
3436.482
3436.451
3436.4204
3436.361
3435.5477
3391.0623
964.80593
962.13513
962.14694
962.16175
962.17675
962.19229
962.20814
962.22446
962.24121
962.25877
962.28307
962.5549
980.56358
3428.6606
3435.5662
3435.4473
3434.2429
3380.7406
964.76287
962.49039
962.522
962.56047
962.60617
962.66466
962.75228
963.03598
971.87728
1855.5071
1857.4779
1857.4724
1857.4644
1857.4571
1857.4497
1857.442
1857.4341
1857.4259
1857.4175
1857.4089
1857.4001
1857.391
1857.3818
1857.3725
1857.363
1857.3533
1857.3436
1857.3338
1857.3239
1857.3139
1857.3039
1857.2939
1857.2839
1857.2739
1857.2639
1857.2539
1857.244
1857.2342
1857.2245
1857.2148
1857.2052
1857.1958
1857.1865
1857.1773
1857.1683
1857.1594
1857.1507
1857.1422
1857.1339
1857.1257
1857.1177
1857.11
1857.1024
1857.0951
1857.0879
1857.081
1857.0743
1857.0678
1857.0616
1857.0556
1857.0498
1857.0443
1857.039
1857.0339
1857.029
1999.0394
1942.0281
1883.7054
1824.3957
1764.4251
1703.6894
1605.845
670.92502
3499.4942
645.89115
3147.1592
611.83193
629.29571
2788.8099
2610.5424
595.80392
1221.4813
1195.211
1177.8741
1165.1104
1157.0058
1153.835
1161.8768
2297.4898
2279.1647
577.69569
584.13541
2296.3575
2304.3703
2304.3865
2304.3532
2304.3308
2304.2934
2304.2641
2304.227
2304.1925
2304.1269
2303.1439
2258.3286
577.34762
575.12976
575.14203
575.15694
575.17161
575.18617
575.20054
575.2148
575.22891
575.24317
575.26322
575.53086
592.34
2297.0161
2303.4308
2303.3216
2301.8998
2248.2186
577.27889
575.39893
575.41663
575.43908
575.46562
575.4996
575.55158
575.7634
583.22778
1154.1391
1155.8868
1155.8781
1155.8668
1155.8562
1155.8451
1155.8338
1155.8221
1155.81
1155.7975
1155.7847
1155.7716
1155.7582
1155.7445
1155.7305
1155.7164
1155.702
1155.6875
1155.6729
1155.6581
1155.6433
1155.6284
1155.6134
1155.5984
1155.5835
1155.5686
1155.5537
1155.5389
1155.5242
1155.5096
1155.4952
1155.4809
1155.4668
1155.4528
1155.4391
1155.4256
1155.4123
1155.3993
1155.3866
1155.374
1155.3618
1155.3499
1155.3382
1155.3269
1155.3159
1155.3052
1155.2948
1155.2847
1155.275
1155.2656
1155.2566
1155.2479
1155.2396
1155.2316
1155.2239
1155.2166
1345.5573
1307.1959
1267.9491
1228.0349
1187.6697
1146.5795
1072.1885
454.37755
2498.2086
440.50004
2226.7807
417.27797
435.2169
1962.5713
1816.3963
412.22175
821.72827
802.87169
791.22761
782.67352
777.26135
775.25815
782.86381
1589.9491
1572.0215
402.51514
408.75868
1588.3952
1595.3135
1595.3017
1595.2518
1595.2166
1595.1723
1595.138
1595.0994
1595.0646
1594.9954
1593.8936
1552.0534
402.37564
400.58612
400.60015
400.61649
400.6322
400.64732
400.66184
400.67577
400.6891
400.70201
400.71983
400.98396
416.40889
1588.8791
1594.4044
1594.3006
1592.7285
1542.8408
402.32889
400.81388
400.82303
400.83564
400.85047
400.86957
400.89958
401.05861
407.19795
775.37871
776.8324
776.81968
776.80429
776.78941
776.77406
776.75824
776.74185
776.72496
776.70754
776.68965
776.67133
776.65259
776.63349
776.61405
776.59432
776.57432
776.55411
776.5337
776.51316
776.49249
776.47173
776.45094
776.43013
776.40934
776.3886
776.36794
776.3474
776.32699
776.30675
776.2867
776.26687
776.24729
776.22796
776.20892
776.19019
776.17179
776.15373
776.13603
776.11871
776.10178
776.08525
776.06912
776.05342
776.03816
776.02334
776.00898
775.99507
775.98162
775.96867
775.95617
775.94416
775.93261
775.92156
775.91097
775.90082
955.95662
928.71258
900.83694
872.48464
843.80603
814.42937
756.31986
349.20021
1808.2966
339.42391
1599.1889
320.90245
336.79361
1403.4674
1285.8122
318.07149
583.68569
569.55307
561.29648
555.25035
551.44652
550.15824
557.23479
1121.4349
1104.9685
311.11978
317.02571
1119.805
1125.4667
1125.4388
1125.3822
1125.3423
1125.2974
1125.2636
1125.2277
1125.1962
1125.1263
1123.963
1087.0799
311.15102
309.74164
309.75813
309.77651
309.7939
309.81028
309.82566
309.84003
309.85339
309.86582
309.88207
310.14128
324.01239
1120.1368
1124.646
1124.5441
1122.8985
1079.1378
311.14332
309.94837
309.95164
309.95742
309.96428
309.97336
309.98806
310.10021
314.97565
550.39142
551.54009
551.52231
551.502
551.48208
551.46154
551.44036
551.41845
551.39588
551.37265
551.34881
551.32442
551.2995
551.27412
551.24832
551.22216
551.19566
551.1689
551.14191
551.11474
551.08744
551.06004
551.03261
551.00517
550.97777
550.95046
550.92327
550.89624
550.86941
550.84281
550.81648
550.79044
550.76474
550.73939
550.71444
550.6899
550.66579
550.64215
550.61899
550.59634
550.5742
550.5526
550.53154
550.51106
550.49114
550.47182
550.4531
550.43499
550.41748
550.40062
550.38437
550.36876
550.35377
550.33943
550.3257
550.31255
707.06732
686.92458
666.31232
645.3451
624.13083
602.25134
556.40197
290.64504
1319.6515
282.22935
1159.3918
266.03414
279.076
1014.4303
921.55001
262.28389
431.65252
420.78494
414.69031
410.24821
407.47722
406.6646
413.13578
802.35993
787.96071
256.01365
261.43015
800.85544
805.30638
805.27269
805.21743
805.17965
805.13948
805.11064
805.08094
805.05551
804.98754
803.81819
772.74905
256.18946
255.10983
255.129
255.1495
255.16865
255.18638
255.20272
255.21764
255.23114
255.24316
255.25761
255.50693
267.65932
801.08727
804.61932
804.51693
802.87223
766.20027
256.22075
255.30052
255.29899
255.29921
255.29971
255.30092
255.30283
255.36589
259.03415
407.12506
407.99136
407.96753
407.94144
407.91566
407.88908
407.86171
407.83345
407.80438
407.77452
407.74393
407.71267
407.68079
407.64836
407.61544
407.58209
407.54836
407.51433
407.48005
407.44557
407.41095
407.37626
407.34154
407.30684
407.27223
407.23775
407.20346
407.16939
407.1356
407.10212
407.069
407.03628
407.004
406.97218
406.94088
406.91012
406.87993
406.85033
406.82136
406.79304
406.76538
406.73841
406.71214
406.6866
406.66179
406.63774
406.61445
406.59193
406.57021
406.54927
406.52913
406.5098
406.49125
406.47352
406.45657
406.44034
539.50166
524.13954
508.41691
492.42102
476.23124
459.42105
423.21609
252.79868
969.39262
244.66857
847.36133
229.88353
239.92522
740.10441
668.06915
224.21917
329.26677
320.77714
316.13825
312.77979
310.71171
310.23715
316.07101
581.80594
569.70336
217.96233
222.76098
580.52573
583.91785
583.88606
583.83824
583.80747
583.77585
583.75504
583.73398
583.71638
583.65223
582.5244
557.31094
218.26102
217.46171
217.48329
217.50554
217.52605
217.54472
217.56163
217.57669
217.58992
217.60105
217.61276
217.84425
228.16798
580.71319
583.39072
583.28627
581.70574
552.10552
218.31971
217.63053
217.62434
217.61918
217.61369
217.60753
217.59667
217.60396
220.13617
310.94534
311.56793
311.53713
311.50447
311.472
311.4386
311.40426
311.3689
311.3326
311.29539
311.25735
311.21854
311.17905
311.13893
311.09827
311.05714
311.01561
310.97375
310.93164
310.88934
310.84693
310.80446
310.76201
310.71963
310.6774
310.63538
310.59361
310.55216
310.51108
310.47042
310.43023
310.39055
310.35144
310.31293
310.27507
310.23789
310.20142
310.16571
310.13078
310.09666
310.06337
310.03093
309.99936
309.9687
309.93894
309.91011
309.88222
309.8553
309.82933
309.80435
309.78033
309.75731
309.73525
309.71418
309.69408
309.67486
421.95243
409.94394
397.65118
385.14247
372.47711
359.24811
330.77606
224.58444
717.08699
216.37137
624.71022
202.67656
209.86542
545.34022
490.31539
195.00948
257.4117
250.70977
247.09369
244.50028
242.93416
242.71385
247.92203
427.94056
418.09626
188.68251
192.78329
426.91701
429.44007
429.41541
429.3788
429.35805
429.33718
429.32607
429.31479
429.30567
429.24645
428.1962
408.36994
189.08245
188.51493
188.53822
188.56139
188.58244
188.60124
188.61787
188.63224
188.64433
188.65366
188.66124
188.8657
197.34609
427.10284
429.07793
428.97042
427.50145
404.35463
189.14825
188.64788
188.63652
188.62551
188.61358
188.59951
188.57428
188.51779
190.01585
243.63707
244.05956
244.02097
243.98097
243.9411
243.90018
243.85821
243.81512
243.77099
243.72586
243.67983
243.63297
243.58537
243.53712
243.4883
243.439
243.3893
243.33929
243.28904
243.23864
243.18817
243.1377
243.08732
243.03708
242.98708
242.93736
242.88801
242.83908
242.79064
242.74275
242.69545
242.6488
242.60286
242.55767
242.51328
242.46972
242.42705
242.3853
242.34449
242.30467
242.26585
242.22807
242.19133
242.15568
242.12112
242.08768
242.05536
242.02419
241.99418
241.96533
241.93764
241.91112
241.88576
241.86158
241.83854
241.81654
336.72271
327.14592
317.33998
307.3595
297.24969
286.64225
264.39793
201.1048
534.9367
192.76249
465.31177
180.07967
184.72738
406.4397
364.92926
170.72549
205.29869
199.96578
197.09398
195.061
193.86842
193.84908
198.47579
319.7958
312.0069
164.48137
167.86219
319.02193
320.86355
320.84884
320.82516
320.8156
320.80611
320.80499
320.8034
320.80233
320.74827
319.79912
304.62895
164.95843
164.57573
164.59957
164.62246
164.64284
164.66056
164.67571
164.68818
164.69794
164.70419
164.70595
164.87503
171.60248
319.22807
320.65054
320.53926
319.21204
301.60082
165.00438
164.65246
164.63504
164.61728
164.59797
164.57474
164.53254
164.40544
165.00542
194.92261
195.18703
195.13998
195.09204
195.04418
194.99522
194.94513
194.89386
194.84149
194.78808
194.73374
194.67855
194.62261
194.56602
194.50887
194.45126
194.39329
194.33506
194.27664
194.21814
194.15964
194.10123
194.04299
193.98501
193.92735
193.87011
193.81335
193.75714
193.70156
193.64666
193.5925
193.53915
193.48665
193.43507
193.38446
193.33485
193.28629
193.23883
193.19248
193.14731
193.10331
193.06054
193.019
192.97872
192.93973
192.90204
192.86567
192.83063
192.79693
192.76459
192.73359
192.70396
192.67567
192.64873
192.62312
192.59873
273.23269
265.4676
257.51424
249.4171
241.21141
232.57967
215.33176
180.21412
403.19814
171.84396
350.83968
160.17979
162.69011
306.94657
275.93065
149.62128
166.48131
162.20824
159.89447
158.28539
157.38127
157.52762
161.63633
243.1954
237.17698
143.68537
146.37739
242.64327
243.96866
243.96466
243.95377
243.95497
243.95609
243.964
243.9709
243.97643
243.92689
243.09056
231.75946
144.21147
143.96974
143.99256
144.01363
144.0318
144.04692
144.05906
144.06816
144.07409
144.07574
144.06993
144.19788
149.35061
242.86849
243.87009
243.75442
242.58314
229.50243
144.20605
143.96535
143.94076
143.91511
143.88717
143.85312
143.79094
143.58937
143.4533
158.66659
158.81005
158.75409
158.69779
158.64158
158.58428
158.52582
158.46618
158.40543
158.34365
158.28096
158.21744
158.15321
158.08837
158.02303
157.9573
157.89129
157.82508
157.75879
157.69252
157.62635
157.56038
157.4947
157.42939
157.36456
157.30026
157.2366
157.17363
157.11144
157.05008
156.98963
156.93014
156.87168
156.81429
156.75804
156.70298
156.64913
156.59656
156.54529
156.49536
156.44679
156.39962
156.35387
156.30956
156.26672
156.22536
156.18551
156.14717
156.11035
156.07506
156.0413
156.00908
155.97838
155.9492
155.92153
155.89523
224.86005
218.47554
211.93378
205.27164
198.51744
191.41037
178.13797
161.04088
307.66565
152.80098
268.28405
142.17532
142.98943
235.2904
212.26854
130.93228
136.92259
133.47595
131.59174
130.31263
129.63894
129.9266
133.58817
188.44163
183.88486
125.52044
127.5944
188.07358
189.01806
189.02374
189.02396
189.03416
189.04393
189.05885
189.07207
189.08188
189.03543
188.31367
180.0305
126.06292
125.92302
125.94294
125.96039
125.97455
125.9853
125.99273
125.99676
125.99722
125.99262
125.97762
126.0622
129.87413
188.29486
188.9835
188.86285
187.84857
178.33787
125.97232
125.81012
125.7772
125.7425
125.7046
125.65792
125.57286
125.297
124.59837
131.03362
131.08705
131.022
130.95722
130.89261
130.82696
130.76021
130.69233
130.62339
130.55349
130.48275
130.41126
130.33914
130.26652
130.1935
130.12019
130.04671
129.97317
129.89966
129.8263
129.75318
129.68039
129.60805
129.53622
129.46502
129.39451
129.32478
129.25592
129.18798
129.12104
129.05518
128.99044
128.9269
128.8646
128.8036
128.74396
128.68571
128.6289
128.57356
128.51973
128.46743
128.4167
128.36756
128.32003
128.27412
128.22988
128.18729
128.14639
128.10717
128.06965
128.03381
127.99967
127.96721
127.93643
127.9073
127.87971
187.29766
181.98545
176.53996
170.99226
165.36611
159.45856
149.3165
143.29942
238.09099
135.35286
208.38463
125.76799
125.31963
183.30692
166.27727
114.32097
113.99354
111.19538
109.64987
108.63442
108.1506
108.56174
111.84544
148.86994
145.4788
109.60073
111.14997
148.64507
149.31372
149.32662
149.33504
149.35138
149.36686
149.38591
149.40248
149.41361
149.36814
148.75513
142.81573
110.12226
110.05098
110.06592
110.07774
110.08597
110.09049
110.09139
110.0886
110.08189
110.06942
110.04395
110.08654
112.81234
148.82127
149.28112
149.15492
148.28902
141.50262
109.91306
109.80214
109.75987
109.7151
109.66604
109.60509
109.49488
109.14939
108.05773
109.53315
109.52127
109.44738
109.37437
109.30167
109.22808
109.1535
109.07789
109.00137
108.924
108.84591
108.76721
108.68803
108.60848
108.52868
108.44874
108.36878
108.28892
108.20924
108.12988
108.05091
107.97244
107.89457
107.81739
107.74098
107.66544
107.59085
107.51728
107.4448
107.37348
107.30339
107.2346
107.16715
107.10111
107.03653
106.97346
106.91193
106.852
106.79368
106.73703
106.68206
106.6288
106.57727
106.5275
106.4795
106.43329
106.38889
106.34631
106.30555
106.26661
106.2295
106.19421
106.16073
106.12905
106.09914
106.07093
157.65175
153.18604
148.60587
143.93787
139.20305
134.25402
126.54907
126.95069
187.0971
119.43643
164.56167
110.86745
109.54948
145.23863
132.64177
99.615979
95.924663
93.638957
92.366473
91.566877
91.243883
91.764492
94.732088
119.89391
117.40497
95.692714
96.81736
119.77127
120.24221
120.25878
120.27155
120.29035
120.30789
120.32754
120.34394
120.35293
120.30588
119.79064
115.60357
96.151902
96.122415
96.130222
96.134428
96.134792
96.131238
96.123849
96.112568
96.097116
96.075349
96.038631
96.043606
97.929397
119.84849
120.14287
120.01066
119.2784
114.51311
95.79405
95.713091
95.660796
95.605305
95.544272
95.467884
95.331398
94.92512
93.593542
92.496601
92.438706
92.356688
92.276162
92.196158
92.115461
92.033961
91.951624
91.86854
91.784798
91.700518
91.615814
91.530809
91.44562
91.360365
91.275159
91.190113
91.105339
91.020942
90.937026
90.853686
90.771021
90.689125
90.608086
90.527991
90.448923
90.37096
90.294175
90.218639
90.144414
90.071565
90.000152
89.930232
89.861855
89.79507
89.729923
89.666453
89.604698
89.544687
89.486455
89.430018
89.375411
89.32264
89.271739
89.222714
89.175589
89.130371
89.08707
89.045689
89.006231
88.968688
88.93306
88.899331
88.867492
88.837518
88.809331
133.92314
130.13505
126.2475
122.28376
118.26342
114.09003
108.26105
112.03208
149.39598
105.05113
132.1562
97.44727
95.591492
117.03424
107.68264
86.693061
81.491005
79.613845
78.566078
77.947115
77.763597
78.381608
81.0843
98.355722
96.546437
83.610884
84.40574
98.295703
98.624851
98.640732
98.653344
98.670405
98.68589
98.702248
98.714648
98.717853
98.666409
98.235073
95.325011
83.963551
83.955259
83.953907
83.948636
83.939393
83.926133
83.908943
83.88778
83.862316
83.830202
83.782077
83.755816
85.019304
98.213943
98.389262
98.250926
97.634515
94.330987
83.433617
83.367065
83.304597
83.238269
83.16505
83.07284
82.910529
82.455898
81.01305
78.777762
78.688703
78.599799
78.51299
78.426961
78.340503
78.253483
78.165863
78.077727
77.989162
77.900283
77.811203
77.722038
77.632905
77.543914
77.455178
77.366802
77.278894
77.191552
77.104875
77.018953
76.93388
76.849741
76.766622
76.684602
76.603759
76.524164
76.445886
76.368987
76.293526
76.219562
76.147149
76.076339
76.007178
75.939709
75.873974
75.810005
75.747839
75.687496
75.629012
75.572397
75.517682
75.464871
75.413994
75.365055
75.318075
75.273058
75.230013
75.18894
75.149839
75.112702
75.077525
75.044292
75.012991
74.983597
74.956044
114.6969
111.45779
108.13136
104.73835
101.29797
97.758696
93.358229
98.576124
121.21462
92.18822
107.88142
85.47921
83.347646
95.849857
88.856369
75.426736
69.823804
68.275946
67.416737
66.951883
66.891571
67.595607
70.073093
82.079313
80.768789
73.177108
73.724074
82.044164
82.270038
82.280426
82.288086
82.298981
82.308158
82.31725
82.321812
82.315698
82.257128
81.89483
79.893351
73.378474
73.376434
73.364226
73.347982
73.327777
73.3036
73.275539
73.243571
73.207336
73.164401
73.10542
73.055231
73.875719
81.744837
81.834647
81.69058
81.171742
78.901255
72.662994
72.600503
72.528407
72.451851
72.367028
72.25965
72.073791
71.585816
70.132445
67.573809
67.465041
67.371041
67.279691
67.18941
67.099004
67.008315
66.917301
66.826034
66.734596
66.643093
66.55163
66.460317
66.36926
66.278563
66.18833
66.098658
66.009645
65.92138
65.833954
65.747448
65.661947
65.577527
65.494266
65.412235
65.331501
65.252129
65.17418
65.097707
65.022762
64.949396
64.877657
64.807589
64.739233
64.672624
64.607799
64.544785
64.483612
64.424296
64.366868
64.311333
64.257718
64.206024
64.156278
64.10848
64.062649
64.018786
63.976898
63.936982
63.899036
63.863052
63.829022
63.796931
63.766765
63.738498
63.712073
98.950103
96.160421
93.293366
90.367802
87.40342
84.386926
81.063555
86.577694
99.871934
80.804789
89.425503
74.908591
72.694739
79.692502
74.405146
65.676585
60.293793
59.014815
58.316622
57.985338
58.035229
58.813757
61.094827
69.561932
68.607564
64.210109
64.574791
69.516066
69.664241
69.66426
69.662225
69.662665
69.661488
69.65961
69.652843
69.634326
69.566304
69.2587
67.889186
64.217927
64.212067
64.187874
64.159741
64.127829
64.092152
64.052804
64.009778
63.962707
63.909218
63.840671
63.773871
64.290338
68.949948
68.978486
68.8298
68.391573
66.836205
63.316374
63.252014
63.171609
63.086236
62.991286
62.870559
62.665282
62.160338
60.769504
58.314023
58.194464
58.097617
58.003896
57.911536
57.819365
57.727208
57.635011
57.542835
57.450749
57.358848
57.267227
57.175983
57.085211
56.995003
56.905451
56.81664
56.728657
56.64158
56.555486
56.470447
56.386536
56.303819
56.222362
56.142225
56.063467
55.986142
55.910301
55.835988
55.763247
55.692119
55.622647
55.554864
55.488805
55.424498
55.361974
55.301252
55.242358
55.185302
55.130109
55.076782
55.025341
54.975786
54.928138
54.882396
54.838575
54.796674
54.756698
54.718641
54.682502
54.64827
54.615936
54.585484
54.556901
54.53016
54.505212
85.929257
83.510791
81.023247
78.484154
75.914241
73.331776
70.813557
75.987464
83.468526
70.820876
75.165233
65.650909
63.487377
67.166072
63.112418
57.289173
52.436629
51.380329
50.821731
50.607528
50.756578
51.597393
53.701456
59.76165
59.053784
56.527686
56.759227
59.672113
59.759011
59.744126
59.728115
59.714337
59.699348
59.68344
59.662562
59.629363
59.550317
59.284693
58.345487
56.306192
56.29049
56.253961
56.213812
56.170245
56.123294
56.073054
56.019537
55.962393
55.899449
55.82333
55.746599
56.061212
58.806772
58.791825
58.640427
58.268274
57.199385
55.232835
55.164165
55.077515
54.985499
54.88275
54.751605
54.532609
54.02708
52.746802
50.587453
50.464098
50.36694
50.273269
50.181221
50.08966
49.998395
49.907362
49.816604
49.726178
49.636166
49.546645
49.457699
49.36941
49.281856
49.195114
49.109255
49.024352
48.940471
48.857675
48.776024
48.695578
48.616392
48.538518
48.462008
48.386907
48.31326
48.241107
48.170485
48.101425
48.033963
47.96813
47.903955
47.841463
47.780676
47.721618
47.664303
47.608749
47.554964
47.502966
47.452754
47.404345
47.357736
47.312943
47.269964
47.228811
47.18948
47.151976
47.116292
47.082424
47.05036
47.020093
46.991606
46.964885
46.939907
46.916627
75.069924
72.960445
70.788908
68.571959
66.33178
64.111806
62.191143
66.718414
70.660814
62.127278
63.960846
57.598101
55.567542
57.291255
54.133018
50.105548
45.903948
45.034719
44.598622
44.487859
44.725829
45.61582
47.554894
51.951513
51.407608
49.953019
50.086043
51.788842
51.824834
51.791286
51.757895
51.727054
51.695757
51.663752
51.627034
51.577994
51.487391
51.25336
50.601612
49.477193
49.448898
49.400611
49.349228
49.294963
49.237856
49.178003
49.115425
49.049819
48.979331
48.898206
48.817227
49.001686
50.614291
50.569296
50.417806
50.100047
49.357898
48.26102
48.188127
48.097865
48.001952
47.894379
47.756838
47.5308
47.03958
45.897012
44.093828
43.972118
43.877213
43.786021
43.696655
43.608031
43.519943
43.432317
43.345181
43.258575
43.172565
43.087214
43.002589
42.918758
42.835781
42.753721
42.672637
42.592586
42.513619
42.435789
42.359139
42.283719
42.209572
42.136739
42.065258
41.995167
41.926498
41.859283
41.793548
41.729319
41.66662
41.605476
41.545909
41.487937
41.431575
41.376842
41.323745
41.272299
41.222507
41.174382
41.127921
41.083136
41.040023
40.998594
40.958846
40.920788
40.884415
40.849731
40.816727
40.7854
40.755738
40.727733
40.70137
40.676635
40.653507
40.631946
65.94289
64.092288
62.185678
60.239199
58.276736
56.361042
54.881351
58.65743
60.497965
54.596822
55.010258
50.628049
48.774934
49.37891
46.875914
43.969311
40.430503
39.720521
39.39283
39.374354
39.69046
40.615623
42.396442
45.619956
45.179114
44.320981
44.378627
45.359414
45.351278
45.296499
45.243572
45.194075
45.145243
45.096344
45.043351
44.978624
44.877131
44.666936
44.204341
43.580297
43.539195
43.480675
43.419751
43.356621
43.29132
43.223935
43.154497
43.082768
43.007295
42.92407
42.843389
42.946052
43.890712
43.826132
43.677627
43.405321
42.88127
42.262498
42.187046
42.096073
41.999266
41.890501
41.750763
41.524644
41.060275
40.065824
38.609182
38.493196
38.402863
38.316326
38.231739
38.148082
38.065143
37.982836
37.901175
37.820186
37.739917
37.660415
37.581734
37.503923
37.427031
37.351105
37.276189
37.202328
37.12956
37.057924
36.987453
36.918185
36.850151
36.783383
36.717909
36.653755
36.590947
36.529507
36.469453
36.410804
36.353577
36.297792
36.243461
36.190599
36.139216
36.089324
36.040928
35.994037
35.948653
35.904783
35.862423
35.821582
35.782254
35.744449
35.708164
35.673404
35.640166
35.60845
35.57825
35.54956
35.522372
35.496676
35.472459
35.449708
35.428404
35.408512
58.217299
56.584787
54.901589
53.183648
51.456667
49.797486
48.641827
51.67746
52.305262
48.095285
47.746297
44.6139
42.955477
42.941273
40.9238
38.733084
35.811662
35.238735
35.007369
35.070889
35.454264
36.399918
38.025928
40.403176
40.021466
39.482818
39.480058
40.026202
39.978967
39.901893
39.828785
39.760503
39.694345
39.629146
39.560819
39.481901
39.371357
39.179792
38.840685
38.483538
38.431255
38.364832
38.296807
38.227339
38.156444
38.084195
38.010626
37.935576
37.858032
37.775657
37.698676
37.751118
38.302187
38.226312
38.083941
37.8504
37.472265
37.112743
37.037124
36.948251
36.853675
36.746982
36.609122
36.389306
35.960962
35.112847
33.961672
33.854235
33.770322
33.69015
33.611966
33.534825
33.458514
33.38294
33.308102
33.234014
33.160707
33.088217
33.016581
32.945836
32.876017
32.807158
32.739292
32.67245
32.606661
32.541952
32.478347
32.415873
32.354552
32.294408
32.235459
32.177726
32.121225
32.065972
32.01198
31.959259
31.907824
31.857687
31.808857
31.761344
31.715154
31.670295
31.62677
31.584583
31.543735
31.50423
31.466064
31.429243
31.39376
31.359623
31.326828
31.295382
31.265278
31.236517
31.209094
31.183004
31.158237
31.134787
31.112642
31.091789
31.072211
31.053881
51.634949
50.187026
48.693197
47.169465
45.643344
44.201175
43.282882
45.647922
45.601377
42.490226
41.764835
39.4316
37.967168
37.629614
35.978319
34.262785
31.887757
31.433709
31.287872
31.423494
31.862939
32.814132
34.287224
36.039439
35.686127
35.308802
35.255483
35.534993
35.45321
35.354429
35.262087
35.176375
35.094507
35.014922
34.93346
34.843
34.726197
34.55024
34.292059
34.074068
34.013385
33.941918
33.869685
33.796791
33.723223
33.649031
33.57425
33.498801
33.422101
33.343253
33.272311
33.294645
33.613301
33.532646
33.399222
33.19937
32.92003
32.700346
32.627008
32.542625
32.453021
32.351091
32.218609
32.010278
31.623508
30.911858
30.015017
29.917828
29.84158
29.768901
29.698169
29.628519
29.559743
29.491745
29.424512
29.358047
29.292369
29.227501
29.163469
29.100298
29.038012
28.976635
28.91619
28.856699
28.798181
28.740654
28.684136
28.628644
28.574195
28.520805
28.468486
28.417252
28.367115
28.318085
28.270169
28.223376
28.177715
28.133194
28.089819
28.047597
28.00653
27.966626
27.927883
27.890306
27.853892
27.818646
27.784561
27.751643
27.719884
27.689293
27.659863
27.631602
27.604503
27.578567
27.55379
27.530167
27.507689
27.486352
27.466145
27.447057
27.429073
27.41217
45.992103
44.701028
43.368448
42.01061
40.656724
39.398672
38.653867
40.44253
40.040194
37.6572
36.774935
34.965225
33.683377
33.19213
31.822935
30.439809
28.533016