/*--------------------------------*- C++ -*----------------------------------*\
| =========                 |                                                 |
| \\      /  F ield         | OpenFOAM: The Open Source CFD Toolbox           |
|  \\    /   O peration     | Version:  2.4.0                                 |
|   \\  /    A nd           | Web:      www.OpenFOAM.org                      |
|    \\/     M anipulation  |                                                 |
\*---------------------------------------------------------------------------*/
FoamFile
{
    version     2.0;
    format      ascii;
    class       surfaceScalarField;
    location    "340";
    object      phi;
}
// * * * * * * * * * * * * * * * * * * * * * * * * * * * * * * * * * * * * * //

dimensions      [0 3 -1 0 0 0 0];

internalField   nonuniform List<scalar> 
39105
(
-7.2527683e-08
3.3928502e-09
-7.5703757e-08
3.1760883e-09
-7.8605195e-08
2.9014404e-09
-8.1141496e-08
2.5362994e-09
-8.3227147e-08
2.0856515e-09
-8.4831872e-08
1.6047246e-09
-8.59799e-08
1.1480278e-09
-8.6891584e-08
9.1168337e-10
-8.7809588e-08
9.1800466e-10
-8.8537423e-08
7.2783489e-10
-8.8893401e-08
3.5597743e-10
-8.8797425e-08
-9.5976022e-11
-8.8141123e-08
-6.563017e-10
-8.6902302e-08
-1.2388215e-09
-8.4958426e-08
-1.9438753e-09
-8.2340826e-08
-2.6176006e-09
-7.8991544e-08
-3.3492823e-09
-7.5267443e-08
-3.7241004e-09
-7.1423265e-08
-3.8441784e-09
-6.8535361e-08
-2.8879046e-09
-6.751848e-08
-1.016881e-09
-7.2503821e-08
4.9853408e-09
-9.2887395e-08
2.0383574e-08
-1.1480361e-07
2.1916219e-08
-1.3275791e-07
1.79543e-08
-1.4881867e-07
1.6060759e-08
-1.6328869e-07
1.4470018e-08
-1.7630936e-07
1.3020665e-08
-1.8810532e-07
1.1795965e-08
-1.9880153e-07
1.0696206e-08
-2.085785e-07
9.7769707e-09
-2.1753132e-07
8.9528259e-09
-2.2579289e-07
8.2615696e-09
-2.3343126e-07
7.6383694e-09
-2.4053919e-07
7.1079272e-09
-2.4715906e-07
6.6198698e-09
-2.5334142e-07
6.1823631e-09
-2.5909968e-07
5.7582562e-09
-2.6447419e-07
5.3745067e-09
-2.6950899e-07
5.0347988e-09
-2.7424362e-07
4.7346309e-09
-2.7868782e-07
4.4442074e-09
-2.8286378e-07
4.175956e-09
-2.8677906e-07
3.9152849e-09
-2.9044718e-07
3.6681148e-09
-2.9387493e-07
3.4277499e-09
-2.9707234e-07
3.1974118e-09
-3.0004493e-07
2.9725895e-09
-3.0280166e-07
2.7567351e-09
-3.0534735e-07
2.5456876e-09
-3.0768707e-07
2.3397169e-09
-3.0984036e-07
2.1532946e-09
-3.118392e-07
1.998841e-09
-3.1367692e-07
1.8377147e-09
-3.153251e-07
1.6481819e-09
-3.1675932e-07
1.43422e-09
-3.1797504e-07
1.2157235e-09
-3.1902554e-07
1.0505002e-09
-3.1994514e-07
9.1960028e-10
-3.2073747e-07
7.9232593e-10
-3.2143264e-07
6.9517029e-10
-3.2206258e-07
6.2994114e-10
-3.2267488e-07
6.1229376e-10
-3.2332179e-07
6.4691659e-10
-3.2398643e-07
6.6463706e-10
-3.2453581e-07
5.4938228e-10
-3.2459837e-07
6.2561897e-11
-3.2416713e-07
-4.3124026e-10
-3.2349624e-07
-6.7089417e-10
-3.2260992e-07
-8.8632304e-10
-3.2155874e-07
-1.0511782e-09
-3.203556e-07
-1.2031347e-09
-3.1900863e-07
-1.3469712e-09
-3.1752337e-07
-1.4852634e-09
-3.1590391e-07
-1.6194581e-09
-3.1415418e-07
-1.7497302e-09
-3.1227734e-07
-1.8768453e-09
-3.1027703e-07
-2.0003047e-09
-3.0815623e-07
-2.1208006e-09
-3.0591893e-07
-2.2373055e-09
-3.0356819e-07
-2.3507412e-09
-3.011079e-07
-2.4602857e-09
-2.9854113e-07
-2.5667702e-09
-2.95872e-07
-2.6691338e-09
-2.9310387e-07
-2.7681268e-09
-2.9024076e-07
-2.8631097e-09
-2.872859e-07
-2.9548566e-09
-2.842431e-07
-3.0427987e-09
-2.8111589e-07
-3.1272133e-09
-2.7790805e-07
-3.207841e-09
-2.7462328e-07
-3.2847716e-09
-2.7126506e-07
-3.3582134e-09
-2.6783737e-07
-3.4276964e-09
-2.6434386e-07
-3.4935098e-09
-2.6078861e-07
-3.5552464e-09
-2.5717451e-07
-3.6141025e-09
-2.535054e-07
-3.6691111e-09
-2.4978436e-07
-3.7210344e-09
-2.4601567e-07
-3.7686928e-09
-2.4220211e-07
-3.8135596e-09
-2.383476e-07
-3.8545138e-09
-2.3445535e-07
-3.8922468e-09
-2.3052906e-07
-3.9262879e-09
-2.265722e-07
-3.9568623e-09
-2.2258765e-07
-3.9845529e-09
-2.1857941e-07
-4.0082382e-09
-2.1454973e-07
-4.0296821e-09
-2.1050272e-07
-4.0470036e-09
-2.0644017e-07
-4.0625502e-09
-2.0236593e-07
-4.074239e-09
-1.9828197e-07
-4.0839638e-09
-1.9419197e-07
-4.0900025e-09
-1.9009821e-07
-4.0937571e-09
-1.8600406e-07
-4.0941527e-09
-1.8191192e-07
-4.0921338e-09
-1.7782508e-07
-4.0868393e-09
-1.7374576e-07
-4.0793269e-09
-1.6967722e-07
-4.0685427e-09
-1.6562129e-07
-4.0559285e-09
-1.6158126e-07
-4.0400288e-09
-1.5755849e-07
-4.0227695e-09
-4.0030179e-09
-2.2639851e-07
1.3907556e-08
-2.362848e-07
1.3062406e-08
-2.4531192e-07
1.1928569e-08
-2.5322535e-07
1.044972e-08
-2.5975356e-07
8.6138668e-09
-2.648184e-07
6.6695613e-09
-2.6847283e-07
4.8024624e-09
-2.714398e-07
3.8786475e-09
-2.7440311e-07
3.8813129e-09
-2.7681878e-07
3.1435103e-09
-2.7806741e-07
1.6046099e-09
-2.7797757e-07
-1.8581575e-10
-2.7612486e-07
-2.5090203e-09
-2.7257104e-07
-4.7926359e-09
-2.6677539e-07
-7.7395246e-09
-2.5907973e-07
-1.0313261e-08
-2.4898932e-07
-1.343969e-08
-2.3801216e-07
-1.4701262e-08
-2.2641119e-07
-1.5445154e-08
-2.1831729e-07
-1.0981806e-08
-2.1556924e-07
-3.7649298e-09
-2.3245383e-07
2.1869932e-08
-2.947241e-07
8.2653842e-08
-3.6255108e-07
8.9743199e-08
-4.1785586e-07
7.325908e-08
-4.6762782e-07
6.583272e-08
-5.1217092e-07
5.901312e-08
-5.5245388e-07
5.3303626e-08
-5.8875859e-07
4.8100677e-08
-6.2180694e-07
4.3744554e-08
-6.5190114e-07
3.9871171e-08
-6.7953791e-07
3.6589593e-08
-7.0496855e-07
3.3692214e-08
-7.2852965e-07
3.1199464e-08
-7.5040744e-07
2.8985716e-08
-7.7081311e-07
2.7025539e-08
-7.8984115e-07
2.5210403e-08
-8.0758569e-07
2.3502804e-08
-8.2410002e-07
2.1888832e-08
-8.3957275e-07
2.0507529e-08
-8.5412738e-07
1.9289264e-08
-8.6778766e-07
1.8104481e-08
-8.8060871e-07
1.6997009e-08
-8.926273e-07
1.5933879e-08
-9.0387549e-07
1.4916298e-08
-9.1438216e-07
1.3934424e-08
-9.2417176e-07
1.2987016e-08
-9.3326639e-07
1.2067214e-08
-9.4168925e-07
1.1179598e-08
-9.4945705e-07
1.0313491e-08
-9.5658321e-07
9.4658693e-09
-9.6315327e-07
8.7233627e-09
-9.6923908e-07
8.0846497e-09
-9.7480928e-07
7.4079155e-09
-9.7980338e-07
6.6422771e-09
-9.8414836e-07
5.7791995e-09
-9.8777652e-07
4.8438841e-09
-9.9089074e-07
4.1647246e-09
-9.9363586e-07
3.6647155e-09
-9.9598228e-07
3.1387527e-09
-9.980245e-07
2.737384e-09
-9.9986562e-07
2.4710599e-09
-1.0016491e-06
2.3957873e-09
-1.0035411e-06
2.5388671e-09
-1.005493e-06
2.6166177e-09
-1.007164e-06
2.2203556e-09
-1.0073125e-06
2.1100932e-10
-1.0058495e-06
-1.8941907e-09
-1.0036561e-06
-2.8643281e-09
-1.0007998e-06
-3.7425954e-09
-9.9743636e-07
-4.4146313e-09
-9.9360264e-07
-5.0368487e-09
-9.8932557e-07
-5.6240441e-09
-9.8462075e-07
-6.1900891e-09
-9.7950192e-07
-6.738284e-09
-9.7398041e-07
-7.2712417e-09
-9.6806702e-07
-7.7902321e-09
-9.6177248e-07
-8.2948479e-09
-9.5510696e-07
-8.7863225e-09
-9.4808178e-07
-9.2624781e-09
-9.4070722e-07
-9.7253059e-09
-9.3299464e-07
-1.0172862e-08
-9.2495439e-07
-1.0607021e-08
-9.1659834e-07
-1.1025182e-08
-9.0793732e-07
-1.1429155e-08
-8.9898309e-07
-1.1817332e-08
-8.8974635e-07
-1.2191598e-08
-8.8023863e-07
-1.2550521e-08
-8.7047109e-07
-1.2894753e-08
-8.6045526e-07
-1.3223664e-08
-8.5020262e-07
-1.3537414e-08
-8.3972428e-07
-1.383656e-08
-8.2903214e-07
-1.4119827e-08
-8.1813751e-07
-1.4388147e-08
-8.070523e-07
-1.4640449e-08
-7.9578656e-07
-1.4879844e-08
-7.8435185e-07
-1.5103824e-08
-7.7275841e-07
-1.5314469e-08
-7.6101829e-07
-1.550882e-08
-7.4914124e-07
-1.5690605e-08
-7.3713872e-07
-1.5857031e-08
-7.2502103e-07
-1.6009944e-08
-7.1279906e-07
-1.6148253e-08
-7.0048338e-07
-1.6272548e-08
-6.8808343e-07
-1.6384503e-08
-6.7561042e-07
-1.6481245e-08
-6.6307256e-07
-1.656754e-08
-6.5048099e-07
-1.6638581e-08
-6.3784299e-07
-1.6700546e-08
-6.2516912e-07
-1.6748105e-08
-6.1246695e-07
-1.6786137e-08
-5.997466e-07
-1.6810353e-08
-5.8701616e-07
-1.6824198e-08
-5.7428511e-07
-1.6825201e-08
-5.615617e-07
-1.6815541e-08
-5.4885513e-07
-1.679341e-08
-5.3617311e-07
-1.6761345e-08
-5.235247e-07
-1.671696e-08
-5.1091675e-07
-1.6663878e-08
-4.9835805e-07
-1.6598727e-08
-4.858546e-07
-1.6526227e-08
-1.6444985e-08
-3.9460827e-07
3.2167556e-08
-4.1179626e-07
3.0250403e-08
-4.2749337e-07
2.7625686e-08
-4.4127587e-07
2.4232222e-08
-4.5267362e-07
2.0011609e-08
-4.6156449e-07
1.5560437e-08
-4.6802502e-07
1.1262991e-08
-4.7333747e-07
9.1911002e-09
-4.7863259e-07
9.1764264e-09
-4.8302111e-07
7.5320304e-09
-4.8539403e-07
3.9775306e-09
-4.85506e-07
-7.3846057e-11
-4.8257281e-07
-5.4422081e-09
-4.7678837e-07
-1.0577078e-08
-4.6712393e-07
-1.7403966e-08
-4.5433632e-07
-2.310087e-08
-4.3736626e-07
-3.0409751e-08
-4.190672e-07
-3.300032e-08
-3.9959792e-07
-3.4914433e-08
-3.8661409e-07
-2.3965641e-08
-3.8275964e-07
-7.6193755e-09
-4.1362653e-07
5.2736826e-08
-5.2063274e-07
1.8966005e-07
-6.377378e-07
2.0684826e-07
-7.3320601e-07
1.6872729e-07
-8.1927709e-07
1.519038e-07
-8.9609063e-07
1.3582666e-07
-9.6567465e-07
1.2288765e-07
-1.0282537e-06
1.1067973e-07
-1.0852964e-06
1.0078723e-07
-1.137161e-06
9.1735755e-08
-1.1848375e-06
8.4266108e-08
-1.2286574e-06
7.7512153e-08
-1.269284e-06
7.1825996e-08
-1.3069739e-06
6.6675657e-08
-1.3421442e-06
6.219583e-08
-1.3749194e-06
5.7985607e-08
-1.4054949e-06
5.4078324e-08
-1.4339029e-06
5.0296812e-08
-1.4605119e-06
4.7116507e-08
-1.4855488e-06
4.432624e-08
-1.5090419e-06
4.1597572e-08
-1.5310761e-06
3.9031165e-08
-1.551724e-06
3.6581836e-08
-1.5710348e-06
3.4227078e-08
-1.5890635e-06
3.1963127e-08
-1.6058481e-06
2.9771539e-08
-1.6214299e-06
2.7649079e-08
-1.6358462e-06
2.5595926e-08
-1.6491273e-06
2.3594561e-08
-1.6612963e-06
2.1634828e-08
-1.6725248e-06
1.9951933e-08
-1.6829098e-06
1.8469642e-08
-1.6923844e-06
1.6882494e-08
-1.7008737e-06
1.5131612e-08
-1.70825e-06
1.3155413e-08
-1.7143379e-06
1.0931782e-08
-1.7195308e-06
9.3576398e-09
-1.7241267e-06
8.2606535e-09
-1.7280311e-06
7.0431858e-09
-1.7314058e-06
6.112086e-09
-1.7344329e-06
5.4980985e-09
-1.7373584e-06
5.3212511e-09
-1.7404731e-06
5.6535704e-09
-1.743711e-06
5.8546072e-09
-1.7465596e-06
5.0688628e-09
-1.7467497e-06
4.0110752e-10
-1.7440427e-06
-4.6010965e-09
-1.7400755e-06
-6.8315399e-09
-1.7349698e-06
-8.8483017e-09
-1.7289895e-06
-1.0394911e-08
-1.7221966e-06
-1.1829794e-08
-1.7146384e-06
-1.3182297e-08
-1.7063408e-06
-1.4487655e-08
-1.6973284e-06
-1.5750698e-08
-1.6876201e-06
-1.6979471e-08
-1.6772355e-06
-1.8174848e-08
-1.6661927e-06
-1.9337678e-08
-1.65451e-06
-2.0469031e-08
-1.6422063e-06
-2.1566141e-08
-1.6293e-06
-2.2631636e-08
-1.6158103e-06
-2.3662583e-08
-1.6017556e-06
-2.4661648e-08
-1.5871561e-06
-2.5624743e-08
-1.5720306e-06
-2.6554619e-08
-1.5563992e-06
-2.7448742e-08
-1.5402808e-06
-2.8309993e-08
-1.5236952e-06
-2.9136107e-08
-1.506662e-06
-2.9928016e-08
-1.4892009e-06
-3.0684776e-08
-1.4713318e-06
-3.1406512e-08
-1.4530742e-06
-3.2094167e-08
-1.4344484e-06
-3.2745569e-08
-1.415474e-06
-3.3362539e-08
-1.3961712e-06
-3.3943308e-08
-1.376558e-06
-3.4493013e-08
-1.3566542e-06
-3.5007565e-08
-1.3364782e-06
-3.5490563e-08
-1.3160497e-06
-3.5937234e-08
-1.2953867e-06
-3.6353639e-08
-1.2745084e-06
-3.673538e-08
-1.2534328e-06
-3.7085552e-08
-1.2321784e-06
-3.7402595e-08
-1.2107634e-06
-3.7687513e-08
-1.1892046e-06
-3.7943345e-08
-1.1675204e-06
-3.8165428e-08
-1.145726e-06
-3.8361944e-08
-1.1238395e-06
-3.8525117e-08
-1.1018747e-06
-3.8665296e-08
-1.079849e-06
-3.8773803e-08
-1.0577765e-06
-3.8858656e-08
-1.0356738e-06
-3.8913048e-08
-1.0135556e-06
-3.8942397e-08
-9.9143772e-07
-3.89431e-08
-9.693349e-07
-3.8918356e-08
-9.4726242e-07
-3.8865898e-08
-9.2523422e-07
-3.8789538e-08
-9.0326521e-07
-3.868598e-08
-8.8136808e-07
-3.8561006e-08
-8.5955707e-07
-3.8409736e-08
-8.3784378e-07
-3.8239521e-08
-3.8050734e-08
-5.781343e-07
5.8828036e-08
-6.0324408e-07
5.5360213e-08
-6.2618747e-07
5.0569076e-08
-6.4636285e-07
4.44076e-08
-6.630925e-07
3.6741254e-08
-6.7620416e-07
2.8672099e-08
-6.8580998e-07
2.0868812e-08
-6.9378902e-07
1.7170141e-08
-7.0175052e-07
1.7137929e-08
-7.0842954e-07
1.4211047e-08
-7.1220721e-07
7.7551974e-09
-7.1275064e-07
4.6959024e-10
-7.0890787e-07
-9.2849865e-09
-7.01004e-07
-1.8480941e-08
-6.8752609e-07
-3.0881878e-08
-6.696557e-07
-4.0971262e-08
-6.4576683e-07
-5.4298621e-08
-6.2008725e-07
-5.8679899e-08
-5.9279495e-07
-6.2206737e-08
-5.7523888e-07
-4.1521705e-08
-5.7120944e-07
-1.1648819e-08
-6.1813325e-07
9.9660632e-08
-7.7303462e-07
3.4456142e-07
-9.4277461e-07
3.7658825e-07
-1.0814231e-06
3.0737573e-07
-1.2064212e-06
2.769019e-07
-1.3178383e-06
2.4724376e-07
-1.4187975e-06
2.2384687e-07
-1.5095123e-06
2.0139452e-07
-1.5922245e-06
1.8349943e-07
-1.6673823e-06
1.668936e-07
-1.7364847e-06
1.5336848e-07
-1.7999668e-06
1.4099426e-07
-1.8588289e-06
1.3068808e-07
-1.9134142e-06
1.2126096e-07
-1.9643523e-06
1.1313391e-07
-2.0118085e-06
1.0544189e-07
-2.0560792e-06
9.8349008e-08
-2.0971558e-06
9.1373372e-08
-2.1356117e-06
8.557246e-08
-2.1718089e-06
8.0523438e-08
-2.2057634e-06
7.5552022e-08
-2.237591e-06
7.0858759e-08
-2.2674025e-06
6.6393389e-08
-2.2952662e-06
6.2090707e-08
-2.3212644e-06
5.7961329e-08
-2.34545e-06
5.3957217e-08
-2.3678852e-06
5.0084237e-08
-2.3886222e-06
4.6332961e-08
-2.4077063e-06
4.2678659e-08
-2.4251739e-06
3.9102363e-08
-2.441303e-06
3.6081065e-08
-2.4561991e-06
3.3365791e-08
-2.4697453e-06
3.0428629e-08
-2.4818726e-06
2.7258894e-08
-2.4923879e-06
2.3670782e-08
-2.5009627e-06
1.9506505e-08
-2.508226e-06
1.6620989e-08
-2.5146787e-06
1.4713314e-08
-2.5201271e-06
1.2491587e-08
-2.5248016e-06
1.0786597e-08
-2.52897e-06
9.6665207e-09
-2.5329898e-06
9.3410319e-09
-2.537287e-06
9.9508194e-09
-2.5418021e-06
1.0369693e-08
-2.5458875e-06
9.1541916e-09
-2.5460697e-06
5.8335895e-10
-2.5418832e-06
-8.7875975e-09
-2.5358593e-06
-1.2855488e-08
-2.5281938e-06
-1.6513766e-08
-2.5192596e-06
-1.9329139e-08
-2.5091456e-06
-2.1943715e-08
-2.4979207e-06
-2.440721e-08
-2.4856221e-06
-2.6786296e-08
-2.4722855e-06
-2.9087238e-08
-2.4579386e-06
-3.1326436e-08
-2.4426099e-06
-3.3503577e-08
-2.4263257e-06
-3.5621866e-08
-2.4091131e-06
-3.7681589e-08
-2.3909994e-06
-3.9679894e-08
-2.3720114e-06
-4.1619588e-08
-2.3521771e-06
-4.3496925e-08
-2.3315236e-06
-4.5315081e-08
-2.3100798e-06
-4.7068554e-08
-2.2878735e-06
-4.8760891e-08
-2.2649336e-06
-5.0388673e-08
-2.2412879e-06
-5.1955686e-08
-2.2169652e-06
-5.3458855e-08
-2.1919939e-06
-5.4899312e-08
-2.1664029e-06
-5.6275801e-08
-2.140221e-06
-5.7588387e-08
-2.1134768e-06
-5.883838e-08
-2.0861997e-06
-6.0022657e-08
-2.0584181e-06
-6.1144128e-08
-2.030161e-06
-6.2200345e-08
-2.0014555e-06
-6.3198602e-08
-1.9723299e-06
-6.4133169e-08
-1.9428111e-06
-6.5009361e-08
-1.9129277e-06
-6.5820604e-08
-1.882706e-06
-6.6575326e-08
-1.8521737e-06
-6.7267649e-08
-1.8213573e-06
-6.790197e-08
-1.7902835e-06
-6.8476441e-08
-1.7589784e-06
-6.8992541e-08
-1.7274668e-06
-6.9454951e-08
-1.6957751e-06
-6.9857187e-08
-1.6639257e-06
-7.0211312e-08
-1.6319443e-06
-7.050649e-08
-1.599852e-06
-7.0757629e-08
-1.5676732e-06
-7.0952608e-08
-1.5354291e-06
-7.1102756e-08
-1.5031434e-06
-7.1198782e-08
-1.4708378e-06
-7.1247991e-08
-1.4385349e-06
-7.124594e-08
-1.4062566e-06
-7.1196672e-08
-1.3740246e-06
-7.1097894e-08
-1.3418596e-06
-7.0954566e-08
-1.3097827e-06
-7.0762854e-08
-1.277813e-06
-7.0530732e-08
-1.2459705e-06
-7.0252227e-08
-1.2142728e-06
-6.99372e-08
-6.9589822e-08
-7.7804926e-07
9.4578734e-08
-8.1174099e-07
8.9051947e-08
-8.4254586e-07
8.1373946e-08
-8.6967316e-07
7.1534905e-08
-8.922286e-07
5.9296694e-08
-9.0999367e-07
4.6437169e-08
-9.2311264e-07
3.3987778e-08
-9.3411577e-07
2.8173273e-08
-9.4511578e-07
2.8137939e-08
-9.5444389e-07
2.3539154e-08
-9.5994871e-07
1.3260019e-08
-9.6119443e-07
1.7153086e-09
-9.5665777e-07
-1.3821643e-08
-9.4679493e-07
-2.8343781e-08
-9.2961416e-07
-4.8062646e-08
-9.0673422e-07
-6.3851207e-08
-8.759606e-07
-8.5072241e-08
-8.4291724e-07
-9.1723257e-08
-8.0794714e-07
-9.7176836e-08
-7.8625769e-07
-6.3211159e-08
-7.8317023e-07
-1.4736279e-08
-8.4844118e-07
1.6493159e-07
-1.054501e-06
5.5062119e-07
-1.2803304e-06
6.0241772e-07
-1.4653009e-06
4.9234623e-07
-1.6319502e-06
4.4355113e-07
-1.7803906e-06
3.956842e-07
-1.9148706e-06
3.5832689e-07
-2.0356453e-06
3.2216921e-07
-2.1457555e-06
2.9360962e-07
-2.2457779e-06
2.6691596e-07
-2.3377341e-06
2.4532469e-07
-2.4221895e-06
2.2544968e-07
-2.5004908e-06
2.0898943e-07
-2.5730854e-06
1.9385552e-07
-2.6408217e-06
1.808702e-07
-2.7039179e-06
1.6853809e-07
-2.7627694e-06
1.5720055e-07
-2.8173001e-06
1.4590408e-07
-2.8683207e-06
1.36593e-07
-2.9163676e-06
1.2857034e-07
-2.9614213e-06
1.2060578e-07
-3.0036299e-06
1.1306738e-07
-3.0431443e-06
1.0590772e-07
-3.0800538e-06
9.9000241e-08
-3.1144696e-06
9.2377147e-08
-3.1464613e-06
8.5948875e-08
-3.1761123e-06
7.9735297e-08
-3.203492e-06
7.3712622e-08
-3.2286623e-06
6.784891e-08
-3.2516773e-06
6.211745e-08
-3.2729493e-06
5.7353033e-08
-3.292566e-06
5.2982525e-08
-3.3103389e-06
4.8201486e-08
-3.3262343e-06
4.3154305e-08
-3.3399817e-06
3.7418162e-08
-3.3510389e-06
3.0563672e-08
-3.3603308e-06
2.5912973e-08
-3.3686247e-06
2.3007186e-08
-3.3755809e-06
1.9447808e-08
-3.3814996e-06
1.6705253e-08
-3.3867409e-06
1.4907875e-08
-3.391783e-06
1.438306e-08
-3.397199e-06
1.5366827e-08
-3.4029651e-06
1.6135815e-08
-3.4083544e-06
1.4543479e-08
-3.4084778e-06
7.0680377e-10
-3.4025434e-06
-1.4722019e-08
-3.3941448e-06
-2.1254075e-08
-3.3835741e-06
-2.7084512e-08
-3.3713127e-06
-3.1590526e-08
-3.3574791e-06
-3.5777316e-08
-3.3421642e-06
-3.9722129e-08
-3.3254174e-06
-4.3533071e-08
-3.3072866e-06
-4.7217989e-08
-3.2878086e-06
-5.0804483e-08
-3.2670218e-06
-5.4290402e-08
-3.2449613e-06
-5.7682348e-08
-3.2216637e-06
-6.0979199e-08
-3.1971651e-06
-6.4178502e-08
-3.1715018e-06
-6.7282824e-08
-3.144711e-06
-7.0287768e-08
-3.1168294e-06
-7.3196712e-08
-3.0878951e-06
-7.6002814e-08
-3.0579457e-06
-7.8710287e-08
-3.0270195e-06
-8.1314871e-08
-2.9951541e-06
-8.3821141e-08
-2.9623876e-06
-8.622528e-08
-2.9287585e-06
-8.8528486e-08
-2.894305e-06
-9.0729254e-08
-2.8590659e-06
-9.2827538e-08
-2.8230792e-06
-9.482499e-08
-2.7863844e-06
-9.6717495e-08
-2.7490193e-06
-9.8509229e-08
-2.7110225e-06
-1.0019714e-07
-2.6724303e-06
-1.0179078e-07
-2.6332807e-06
-1.0328278e-07
-2.5936098e-06
-1.0468032e-07
-2.5534553e-06
-1.059751e-07
-2.5128527e-06
-1.0717787e-07
-2.4718389e-06
-1.0828147e-07
-2.4304493e-06
-1.0929162e-07
-2.3887193e-06
-1.1020643e-07
-2.3466839e-06
-1.1102786e-07
-2.3043763e-06
-1.1176258e-07
-2.2618313e-06
-1.1240223e-07
-2.2190794e-06
-1.1296321e-07
-2.1761543e-06
-1.1343159e-07
-2.1330847e-06
-1.1382723e-07
-2.0899028e-06
-1.1413448e-07
-2.0466374e-06
-1.1436814e-07
-2.0033197e-06
-1.1451645e-07
-1.9599791e-06
-1.145886e-07
-1.9166455e-06
-1.1457954e-07
-1.8733482e-06
-1.1449399e-07
-1.830116e-06
-1.143301e-07
-1.7869767e-06
-1.1409386e-07
-1.7439583e-06
-1.1378127e-07
-1.7010865e-06
-1.1340255e-07
-1.6583876e-06
-1.1295108e-07
-1.6158857e-06
-1.1243911e-07
-1.1187666e-07
-9.9549273e-07
1.4015712e-07
-1.0384655e-06
1.3202474e-07
-1.0777818e-06
1.2069026e-07
-1.1124562e-06
1.0620926e-07
-1.1413724e-06
8.8212903e-08
-1.1642526e-06
6.9317353e-08
-1.1812946e-06
5.1029808e-08
-1.1957196e-06
4.2598305e-08
-1.2101692e-06
4.2587494e-08
-1.2225515e-06
3.5921517e-08
-1.2301546e-06
2.0863041e-08
-1.2324241e-06
3.9848776e-09
-1.2274646e-06
-1.8781222e-08
-1.2158615e-06
-3.9946886e-08
-1.1951523e-06
-6.8771752e-08
-1.1674095e-06
-9.1594066e-08
-1.1298702e-06
-1.226115e-07
-1.0895703e-06
-1.3202318e-07
-1.0471838e-06
-1.3956336e-07
-1.0219385e-06
-8.8456448e-08
-1.0211143e-06
-1.5560469e-08
-1.1072467e-06
2.5106393e-07
-1.3678239e-06
8.1119841e-07
-1.6532867e-06
8.8788059e-07
-1.8878426e-06
7.2690214e-07
-2.0989593e-06
6.5466782e-07
-2.2869247e-06
5.8364962e-07
-2.4571375e-06
5.2853967e-07
-2.6099546e-06
4.7498631e-07
-2.7492402e-06
4.3289522e-07
-2.8757425e-06
3.9341826e-07
-2.9920184e-06
3.6160059e-07
-3.0987926e-06
3.3222382e-07
-3.1977666e-06
3.0796346e-07
-3.2895112e-06
2.8560011e-07
-3.3750996e-06
2.664586e-07
-3.4548159e-06
2.4825443e-07
-3.5291523e-06
2.315369e-07
-3.5979316e-06
2.1468339e-07
-3.6622393e-06
2.0090068e-07
-3.7228335e-06
1.8916456e-07
-3.7796305e-06
1.7740277e-07
-3.8328115e-06
1.6624841e-07
-3.8825693e-06
1.5566546e-07
-3.929017e-06
1.4544802e-07
-3.9722957e-06
1.356558e-07
-4.0124932e-06
1.2614637e-07
-4.0497157e-06
1.1695784e-07
-4.084051e-06
1.0804792e-07
-4.1155803e-06
9.9378226e-08
-4.1443822e-06
9.0919322e-08
-4.1710321e-06
8.4002882e-08
-4.195568e-06
7.7518419e-08
-4.2177067e-06
7.0340198e-08
-4.2374841e-06
6.2931747e-08
-4.2545382e-06
5.4472248e-08
-4.2680423e-06
4.4067737e-08
-4.2792872e-06
3.7157895e-08
-4.2893815e-06
3.3101496e-08
-4.2977834e-06
2.7849723e-08
-4.3048635e-06
2.3785322e-08
-4.3110811e-06
2.1125486e-08
-4.3170443e-06
2.0346259e-08
-4.323487e-06
2.1809505e-08
-4.330457e-06
2.3105869e-08
-4.3372254e-06
2.131183e-08
-4.3372371e-06
7.1849729e-10
-4.3292496e-06
-2.2709505e-08
-4.3181197e-06
-3.2383922e-08
-4.3042593e-06
-4.0944898e-08
-4.288258e-06
-4.7591898e-08
-4.2702656e-06
-5.3769693e-08
-4.2503961e-06
-5.9591665e-08
-4.228712e-06
-6.5217088e-08
-4.2052742e-06
-7.065586e-08
-4.1801291e-06
-7.5949565e-08
-4.1533259e-06
-8.1093624e-08
-4.1249092e-06
-8.6099037e-08
-4.0949257e-06
-9.0962691e-08
-4.0634212e-06
-9.5682975e-08
-4.0304422e-06
-1.0026182e-07
-3.9960357e-06
-1.0469432e-07
-3.9602486e-06
-1.0898376e-07
-3.9231294e-06
-1.1312203e-07
-3.8847258e-06
-1.1711387e-07
-3.8450865e-06
-1.2095421e-07
-3.8042593e-06
-1.2464832e-07
-3.7622929e-06
-1.2819171e-07
-3.7192358e-06
-1.3158556e-07
-3.6751369e-06
-1.3482808e-07
-3.6300454e-06
-1.379191e-07
-3.5840097e-06
-1.4086064e-07
-3.5370797e-06
-1.4364753e-07
-3.4893035e-06
-1.462854e-07
-3.44073e-06
-1.4877062e-07
-3.3914057e-06
-1.5111514e-07
-3.3413783e-06
-1.5331011e-07
-3.2906942e-06
-1.553645e-07
-3.2394008e-06
-1.5726843e-07
-3.1875436e-06
-1.5903507e-07
-3.135169e-06
-1.6065607e-07
-3.0823221e-06
-1.6213851e-07
-3.0290479e-06
-1.634807e-07
-2.9753906e-06
-1.646851e-07
-2.9213925e-06
-1.6576077e-07
-2.8670973e-06
-1.666974e-07
-2.8125443e-06
-1.6751621e-07
-2.7577758e-06
-1.6820009e-07
-2.7028286e-06
-1.6877443e-07
-2.6477433e-06
-1.6921975e-07
-2.5925568e-06
-1.6955465e-07
-2.5373084e-06
-1.6976485e-07
-2.4820355e-06
-1.6986149e-07
-2.426776e-06
-1.6983901e-07
-2.3715672e-06
-1.6970283e-07
-2.3164454e-06
-1.6945187e-07
-2.2614461e-06
-1.6909315e-07
-2.2066045e-06
-1.6862286e-07
-2.1519536e-06
-1.6805352e-07
-2.0975264e-06
-1.6737829e-07
-2.0433536e-06
-1.6661183e-07
-1.6577194e-07
-1.2316673e-06
1.9633645e-07
-1.28466e-06
1.8501742e-07
-1.3331817e-06
1.6921197e-07
-1.3760398e-06
1.4906741e-07
-1.4118848e-06
1.2405785e-07
-1.4403898e-06
9.7822383e-08
-1.4617987e-06
7.243869e-08
-1.4800836e-06
6.088318e-08
-1.4984513e-06
6.0955253e-08
-1.5143417e-06
5.1811861e-08
-1.5244664e-06
3.0987761e-08
-1.528137e-06
7.6554948e-09
-1.523086e-06
-2.383223e-08
-1.5100247e-06
-5.3008192e-08
-1.48604e-06
-9.275643e-08
-1.4536669e-06
-1.2396716e-07
-1.4095858e-06
-1.666926e-07
-1.3622399e-06
-1.793691e-07
-1.3128334e-06
-1.8896985e-07
-1.2847683e-06
-1.165216e-07
-1.2877528e-06
-1.2575964e-08
-1.3974916e-06
3.608028e-07
-1.7160298e-06
1.1297365e-06
-2.0647492e-06
1.2366e-06
-2.3522703e-06
1.0144233e-06
-2.6107579e-06
9.1315546e-07
-2.8408248e-06
8.137165e-07
-3.0490414e-06
7.367563e-07
-3.2359358e-06
6.6188064e-07
-3.4062174e-06
6.0317687e-07
-3.5608537e-06
5.4805453e-07
-3.7029476e-06
5.0369446e-07
-3.8334149e-06
4.6269118e-07
-3.9543197e-06
4.2886824e-07
-4.066377e-06
3.9765738e-07
-4.17089e-06
3.7097164e-07
-4.2682233e-06
3.4558777e-07
-4.3589626e-06
3.2227618e-07
-4.4427936e-06
2.9851436e-07
-4.5211152e-06
2.7922232e-07
-4.5949583e-06
2.630076e-07
-4.6641442e-06
2.4658871e-07
-4.7288886e-06
2.309928e-07
-4.7894276e-06
2.1620448e-07
-4.845901e-06
2.0192145e-07
-4.8984806e-06
1.8823535e-07
-4.9472745e-06
1.7494031e-07
-4.9924128e-06
1.6209612e-07
-5.0340035e-06
1.4963864e-07
-5.0721504e-06
1.3752506e-07
-5.106965e-06
1.2573396e-07
-5.139208e-06
1.1624589e-07
-5.1688371e-06
1.0714752e-07
-5.1954598e-06
9.6962887e-08
-5.2192122e-06
8.6684138e-08
-5.2396263e-06
7.488635e-08
-5.2555152e-06
5.99566e-08
-5.2686068e-06
5.0249492e-08
-5.280431e-06
4.4925738e-08
-5.290186e-06
3.7604691e-08
-5.2983129e-06
3.1912249e-08
-5.3053768e-06
2.8189364e-08
-5.3121255e-06
2.7094988e-08
-5.3194686e-06
2.9152563e-08
-5.327569e-06
3.1206289e-08
-5.3357931e-06
2.953594e-08
-5.3356314e-06
5.5682452e-10
-5.3252439e-06
-3.3096993e-08
-5.3109831e-06
-4.664471e-08
-5.2934059e-06
-5.8522165e-08
-5.2732082e-06
-6.778962e-08
-5.2505736e-06
-7.6404214e-08
-5.2256399e-06
-8.4525381e-08
-5.1984839e-06
-9.2373152e-08
-5.1691795e-06
-9.9960192e-08
-5.1377844e-06
-1.073447e-07
-5.1043587e-06
-1.1451926e-07
-5.0689577e-06
-1.2150011e-07
-5.0316386e-06
-1.2828175e-07
-4.9924579e-06
-1.348637e-07
-4.9514728e-06
-1.4124693e-07
-4.908741e-06
-1.474261e-07
-4.8643206e-06
-1.5340419e-07
-4.8182707e-06
-1.5917186e-07
-4.7706505e-06
-1.6473416e-07
-4.7215193e-06
-1.7008535e-07
-4.6709364e-06
-1.7523126e-07
-4.6189612e-06
-1.8016684e-07
-4.5656537e-06
-1.8489307e-07
-4.5110739e-06
-1.8940795e-07
-4.4552818e-06
-1.9371114e-07
-4.3983374e-06
-1.9780507e-07
-4.3403015e-06
-2.0168342e-07
-4.2812335e-06
-2.0535344e-07
-4.2211931e-06
-2.0881104e-07
-4.1602375e-06
-2.1207074e-07
-4.0984254e-06
-2.1512221e-07
-4.0358136e-06
-2.1797629e-07
-3.9724602e-06
-2.2062179e-07
-3.9084213e-06
-2.23074e-07
-3.8437535e-06
-2.253239e-07
-3.7785123e-06
-2.2737973e-07
-3.7127526e-06
-2.2924039e-07
-3.6465289e-06
-2.3090878e-07
-3.5798929e-06
-2.3239679e-07
-3.5128982e-06
-2.3369207e-07
-3.4455932e-06
-2.3482124e-07
-3.3780294e-06
-2.357639e-07
-3.3102524e-06
-2.3655141e-07
-3.2423117e-06
-2.3716045e-07
-3.1742528e-06
-2.3761354e-07
-3.1061237e-06
-2.3789391e-07
-3.0379706e-06
-2.3801462e-07
-2.9698397e-06
-2.3796994e-07
-2.9017767e-06
-2.3776583e-07
-2.8338262e-06
-2.3740232e-07
-2.7660318e-06
-2.3688759e-07
-2.6984365e-06
-2.3621818e-07
-2.6310808e-06
-2.3540924e-07
-2.564005e-06
-2.3445403e-07
-2.4972473e-06
-2.333696e-07
-2.321836e-07
-1.487849e-06
2.639352e-07
-1.5516468e-06
2.4881526e-07
-1.6101086e-06
2.2767382e-07
-1.6618249e-06
2.0078372e-07
-1.7052178e-06
1.6745072e-07
-1.7398917e-06
1.3249627e-07
-1.7661606e-06
9.8707537e-08
-1.7887915e-06
8.3514081e-08
-1.8115888e-06
8.3752601e-08
-1.8315022e-06
7.1725214e-08
-1.8446329e-06
4.4118519e-08
-1.8501453e-06
1.3167843e-08
-1.8454057e-06
-2.8571748e-08
-1.8312448e-06
-6.71691e-08
-1.8043276e-06
-1.1967367e-07
-1.7676593e-06
-1.6063542e-07
-1.7173737e-06
-2.1697825e-07
-1.6633169e-06
-2.3342586e-07
-1.6074407e-06
-2.448461e-07
-1.5774723e-06
-1.4648996e-07
-1.586054e-06
-3.9942885e-09
-1.7223781e-06
4.9712691e-07
-2.1023925e-06
1.509751e-06
-2.5180585e-06
1.6522659e-06
-2.8620343e-06
1.3583991e-06
-3.1708767e-06
1.2219979e-06
-3.4456873e-06
1.0885271e-06
-3.6942283e-06
9.8529731e-07
-3.9172794e-06
8.8493175e-07
-4.1204136e-06
8.0631103e-07
-4.3048693e-06
7.3251032e-07
-4.4743051e-06
6.7313019e-07
-4.6298625e-06
6.1824856e-07
-4.7739742e-06
5.7297994e-07
-4.9075222e-06
5.3120537e-07
-5.0320448e-06
4.9549429e-07
-5.1480026e-06
4.6154553e-07
-5.2560719e-06
4.3034548e-07
-5.3557658e-06
3.9820831e-07
-5.4488318e-06
3.7228827e-07
-5.5366237e-06
3.5079954e-07
-5.6188408e-06
3.2880584e-07
-5.6957338e-06
3.0788576e-07
-5.7675839e-06
2.8805461e-07
-5.8345602e-06
2.6889771e-07
-5.8968663e-06
2.5054145e-07
-5.9546328e-06
2.3270679e-07
-6.0080145e-06
2.1547784e-07
-6.057142e-06
1.9876613e-07
-6.1021452e-06
1.8252826e-07
-6.1431807e-06
1.6676949e-07
-6.1811971e-06
1.542623e-07
-6.2160527e-06
1.4200312e-07
-6.2472505e-06
1.2816065e-07
-6.275044e-06
1.144777e-07
-6.2988463e-06
9.8688574e-08
-6.3170371e-06
7.8147422e-08
-6.3318428e-06
6.505518e-08
-6.3452915e-06
5.8374438e-08
-6.356271e-06
4.8584175e-08
-6.3652926e-06
4.0933923e-08
-6.3730333e-06
3.5930041e-08
-6.3803906e-06
3.4452259e-08
-6.388466e-06
3.7227978e-08
-6.3975885e-06
4.032881e-08
-6.4073276e-06
3.9275025e-08
-6.406904e-06
1.3322934e-10
-6.3937216e-06
-4.627935e-08
-6.3758822e-06
-6.4484206e-08
-6.3541132e-06
-8.0291158e-08
-6.3292147e-06
-9.2688077e-08
-6.3014062e-06
-1.0421272e-07
-6.2708496e-06
-1.1508202e-07
-6.2376369e-06
-1.2558577e-07
-6.2018565e-06
-1.3574058e-07
-6.1635776e-06
-1.4562369e-07
-6.1228723e-06
-1.5522455e-07
-6.0798069e-06
-1.6456553e-07
-6.0344504e-06
-1.7363819e-07
-5.9868705e-06
-1.8244358e-07
-5.9371361e-06
-1.9098132e-07
-5.8853164e-06
-1.9924581e-07
-5.8314812e-06
-2.0723943e-07
-5.7757014e-06
-2.1495163e-07
-5.718048e-06
-2.2238759e-07
-5.6585923e-06
-2.2954102e-07
-5.5974053e-06
-2.364183e-07
-5.5345584e-06
-2.4301372e-07
-5.4701234e-06
-2.4932809e-07
-5.4041722e-06
-2.5535916e-07
-5.3367769e-06
-2.6110641e-07
-5.2680093e-06
-2.6657267e-07
-5.1979422e-06
-2.7175054e-07
-5.1266468e-06
-2.766488e-07
-5.0541945e-06
-2.8126335e-07
-4.9806541e-06
-2.8561113e-07
-4.9060956e-06
-2.8968071e-07
-4.8305873e-06
-2.9348462e-07
-4.7541985e-06
-2.970106e-07
-4.6769965e-06
-3.0027599e-07
-4.5990489e-06
-3.032715e-07
-4.5204223e-06
-3.0600634e-07
-4.4411823e-06
-3.0848032e-07
-4.3613942e-06
-3.1069694e-07
-4.2811198e-06
-3.1267122e-07
-4.2004231e-06
-3.1438876e-07
-4.1193623e-06
-3.1588204e-07
-4.0379987e-06
-3.1712745e-07
-3.9563874e-06
-3.1816271e-07
-3.8745873e-06
-3.1896056e-07
-3.7926531e-06
-3.1954779e-07
-3.7106421e-06
-3.1990485e-07
-3.6286096e-06
-3.2004714e-07
-3.546611e-06
-3.1996855e-07
-3.4647009e-06
-3.1967592e-07
-3.3829327e-06
-3.1917048e-07
-3.3013586e-06
-3.1846176e-07
-3.2200297e-06
-3.17547e-07
-3.138995e-06
-3.1644397e-07
-3.0583024e-06
-3.1514666e-07
-2.9779975e-06
-3.1367449e-07
-3.1206683e-07
-1.765394e-06
3.4382494e-07
-1.8408204e-06
3.242416e-07
-1.9100003e-06
2.9685369e-07
-1.9712999e-06
2.6208332e-07
-2.0228933e-06
2.1904415e-07
-2.0643331e-06
1.7393607e-07
-2.0959977e-06
1.3037216e-07
-2.1235188e-06
1.1103518e-07
-2.1513239e-06
1.1155769e-07
-2.1758295e-06
9.623078e-08
-2.1925209e-06
6.0809972e-08
-2.2003923e-06
2.1039264e-08
-2.1964427e-06
-3.2521382e-08
-2.1816299e-06
-8.1981871e-08
-2.1522211e-06
-1.4908253e-07
-2.111712e-06
-2.0114449e-07
-2.055695e-06
-2.7299522e-07
-1.9954038e-06
-2.9371711e-07
-1.9337847e-06
-3.0646517e-07
-1.9030316e-06
-1.7724306e-07
-1.9192617e-06
1.2235792e-08
-2.0853829e-06
6.632481e-07
-2.530445e-06
1.9548131e-06