/*--------------------------------*- C++ -*----------------------------------*\
| =========                 |                                                 |
| \\      /  F ield         | OpenFOAM: The Open Source CFD Toolbox           |
|  \\    /   O peration     | Version:  2.4.0                                 |
|   \\  /    A nd           | Web:      www.OpenFOAM.org                      |
|    \\/     M anipulation  |                                                 |
\*---------------------------------------------------------------------------*/
FoamFile
{
    version     2.0;
    format      ascii;
    class       volScalarField;
    location    "10";
    object      omega;
}
// * * * * * * * * * * * * * * * * * * * * * * * * * * * * * * * * * * * * * //

dimensions      [0 0 -1 0 0 0 0];

internalField   nonuniform List<scalar> 
19650
(
0.28452357
0.26544941
0.24805749
0.23242134
0.21851114
0.20622689
0.19543023
0.18596979
0.1776898
0.17044053
0.16407913
0.15847303
0.15350067
0.14905461
0.14504152
0.14138943
0.1380311
0.1349329
0.13203754
0.12934349
0.12679565
0.12440979
0.12214633
0.12001533
0.11800355
0.11611524
0.11434804
0.11269711
0.11116745
0.10975758
0.10846618
0.10729233
0.10623811
0.10530146
0.10447929
0.10376341
0.10314954
0.10263118
0.1022063
0.10186916
0.10161648
0.10143818
0.10132928
0.10127708
0.10126803
0.1012787
0.10133616
0.10140675
0.1015575
0.10169476
0.10196746
0.1021956
0.10255062
0.10284889
0.10326708
0.10360309
0.10407937
0.10446122
0.10498732
0.10543304
0.10601109
0.10649432
0.10710719
0.10761347
0.10821858
0.26646507
0.24900744
0.23307973
0.21876739
0.20605432
0.1948511
0.18502847
0.17644312
0.16894874
0.16240392
0.1566775
0.15164436
0.14719754
0.14323262
0.13967401
0.13644255
0.13349408
0.13077445
0.12825671
0.12590844
0.12370786
0.12163955
0.1196906
0.11784867
0.11611335
0.11448314
0.11294713
0.11150574
0.11016339
0.10892014
0.10777604
0.10672979
0.10578331
0.10493389
0.10418282
0.10352316
0.10295264
0.10246755
0.10206457
0.10173948
0.10148979
0.1013068
0.10118738
0.10112227
0.10110143
0.10110433
0.10112978
0.10120546
0.10132665
0.10145548
0.10164911
0.10185983
0.10212516
0.10240271
0.10272482
0.10303966
0.10341326
0.1037916
0.10422028
0.10464858
0.10511923
0.10558275
0.10608066
0.10656421
0.10707268
0.24821856
0.23273609
0.21853588
0.20572425
0.19431179
0.18423778
0.17539984
0.16767825
0.16094654
0.15508017
0.14996164
0.14547853
0.14153345
0.13803145
0.13490382
0.13207596
0.12951014
0.12715028
0.1249768
0.12295342
0.12106143
0.11928692
0.11761229
0.11603022
0.11454073
0.11312733
0.11179049
0.11053066
0.10935154
0.10825307
0.1072354
0.10629818
0.10544423
0.10467319
0.10398541
0.1033779
0.10284823
0.10239338
0.10201219
0.10169957
0.10145469
0.10126984
0.10114201
0.10106419
0.10103044
0.10102731
0.10104486
0.10108899
0.10120132
0.10128551
0.10146088
0.10160333
0.10185412
0.10205336
0.10235865
0.10258866
0.10296186
0.10324352
0.10366679
0.10399092
0.10445077
0.10480461
0.10528673
0.10564063
0.10614672
0.22887043
0.21575937
0.20364006
0.19262778
0.18275496
0.17399311
0.16627101
0.15950386
0.15358902
0.14843327
0.14393099
0.13999918
0.13653954
0.13348682
0.13076024
0.12831356
0.12609313
0.12406325
0.12219648
0.12046092
0.11884337
0.1173226
0.11588913
0.11453465
0.11324691
0.11201954
0.11085372
0.10974856
0.108708
0.10773151
0.10682237
0.10597982
0.10520753
0.10450567
0.10387495
0.10331341
0.10281798
0.10238428
0.10201366
0.10170546
0.1014606
0.10127424
0.10114335
0.10106102
0.1010192
0.10100888
0.10101548
0.10104425
0.10113406
0.10122593
0.1013683
0.10149035
0.10167224
0.10184873
0.10208429
0.10230049
0.10260174
0.10286401
0.10321174
0.10350959
0.10389158
0.10421246
0.10461615
0.10493116
0.10536338
0.20867171
0.19808113
0.1882286
0.17921319
0.17107384
0.16379776
0.15734511
0.15165271
0.1466566
0.14227672
0.13844667
0.13508566
0.13213256
0.12951786
0.12718993
0.12509866
0.12320485
0.12147545
0.11988304
0.1184054
0.1170225
0.11572417
0.11449539
0.11332808
0.11220974
0.1111385
0.1101151
0.1091386
0.10821381
0.10734162
0.10652542
0.10576484
0.10506235
0.10441984
0.10383664
0.10330906
0.10283582
0.10241878
0.10205987
0.10175691
0.10150994
0.10131782
0.10117777
0.10108494
0.10103554
0.10101953
0.10102379
0.1010472
0.1011284
0.10119484
0.1013416
0.10143119
0.10161548
0.10172584
0.10194878
0.10210902
0.10238463
0.10258737
0.1029035
0.10314009
0.10348549
0.10374338
0.1040965
0.10437404
0.10475464
0.18938319
0.1810715
0.1733296
0.16622491
0.15978532
0.15399959
0.14883911
0.14425737
0.14020932
0.13663849
0.1334975
0.1307277
0.12828194
0.12610647
0.12415979
0.12240275
0.12080465
0.11933906
0.11798799
0.11672697
0.11555078
0.11443551
0.11338357
0.11236894
0.11139113
0.11044891
0.10954249
0.10867391
0.10784734
0.10706394
0.10632716
0.10563596
0.10499436
0.10439931
0.10385221
0.1033564
0.10291599
0.10252548
0.10218506
0.10189266
0.10164812
0.10144951
0.10129679
0.10118406
0.10111339
0.10107909
0.10107625
0.10108702
0.1011396
0.10121042
0.10132963
0.10143881
0.10158653
0.10171908
0.1018865
0.10203239
0.10224736
0.10243171
0.10268267
0.1028959
0.10317633
0.10340652
0.10369581
0.10394266
0.10425958
0.2046335
0.19585313
0.18760812
0.17991513
0.17278954
0.16621833
0.16018823
0.15469339
0.14971479
0.14523801
0.14122907
0.13766087
0.13448857
0.13167654
0.12918177
0.12696523
0.12499149
0.12322185
0.12162774
0.12017846
0.11885043
0.11762571
0.11648337
0.11541762
0.11440444
0.11345238
0.11253207
0.11163798
0.11077139
0.1099317
0.10912115
0.10834168
0.10759635
0.10688715
0.10621604
0.10558315
0.10498885
0.10443396
0.10392928
0.10346941
0.10305532
0.10268399
0.10235702
0.1020728
0.10183239
0.10163435
0.10147775
0.10135944
0.10127881
0.10122933
0.10120821
0.10120682
0.10122201
0.10126956
0.10137095
0.10146843
0.10160667
0.10173051
0.10189151
0.10202983
0.10220473
0.10235945
0.10256924
0.10275072
0.10297828
0.10317843
0.10340816
0.10364567
0.10388978
0.21867025
0.20746913
0.19731199
0.18816076
0.17992728
0.17251975
0.16585231
0.15985325
0.15445643
0.14961149
0.14526581
0.14138179
0.13791256
0.13482573
0.13207777
0.12963592
0.12746223
0.12552406
0.12379059
0.12223315
0.12082447
0.11954367
0.11836485
0.11727726
0.11625564
0.11530304
0.11438912
0.11353105
0.11269645
0.11188193
0.11108599
0.11031017
0.10955561
0.10882469
0.10811871
0.10744073
0.10679216
0.1061757
0.10558962
0.10504052
0.10453112
0.10406055
0.10362914
0.10323701
0.10288402
0.10256998
0.10229415
0.10205772
0.10185871
0.10169846
0.10157299
0.1014823
0.1014209
0.1013913
0.10138503
0.10139468
0.10141999
0.10149623
0.10155641
0.10169066
0.1017794
0.10194606
0.10205361
0.10223684
0.10235718
0.10254915
0.1026769
0.10289525
0.10303694
0.10327405
0.10342849
0.1036823
0.22148969
0.20861128
0.19694731
0.18652993
0.17731836
0.16922191
0.16213027
0.15592965
0.15051359
0.14578328
0.14165258
0.13804204
0.13488425
0.13211614
0.12968635
0.12754587
0.12565569
0.12397851
0.12248278
0.12114138
0.11992691
0.11882134
0.11780034
0.11685535
0.1159631
0.11512599
0.11431975
0.11355759
0.11281142
0.11207767
0.11135578
0.11064577
0.10994993
0.10926988
0.10860845
0.10796688
0.10734826
0.10675424
0.10618616
0.10564812
0.10514272
0.10466866
0.10422894
0.10382333
0.10345318
0.10311741
0.10281666
0.10254982
0.10231799
0.10212015
0.10195631
0.10182485
0.10172567
0.10165309
0.10161229
0.10159868
0.10160204
0.10161853
0.10167583
0.10172329
0.10183568
0.1019052
0.10205541
0.10214071
0.10231774
0.10241586
0.10260497
0.10271234
0.10290808
0.10301983
0.10321963
0.10335085
0.10358059
0.2116536
0.19930378
0.18803014
0.17792603
0.16899885
0.1611958
0.15442781
0.14859487
0.14358809
0.13930671
0.13564978
0.13252953
0.12986208
0.12757555
0.12560709
0.12390161
0.12241589
0.12110895
0.11995162
0.11891231
0.11797209
0.11710583
0.11630351
0.11554518
0.11482958
0.11413561
0.11347849
0.11282786
0.11218198
0.11153949
0.11090282
0.11027175
0.10965057
0.10903985
0.10844372
0.10786242
0.10730002
0.10675587
0.1062358
0.10574024
0.10527165
0.10483048
0.10441905
0.10403745
0.10368758
0.10336767
0.10307954
0.10282111
0.10259411
0.10239678
0.10223122
0.10209358
0.10198764
0.101905
0.10185375
0.10182945
0.10182717
0.10183449
0.10187315
0.10190983
0.10200112
0.10206058
0.10219186
0.10226715
0.10242568
0.1025114
0.10268732
0.10278031
0.10296878
0.10306806
0.10326202
0.10336345
0.10355863
0.19839646
0.18729627
0.17715104
0.1680487
0.16000702
0.15298846
0.14692482
0.14173033
0.13731306
0.13357853
0.13043564
0.12779716
0.12558307
0.12372034
0.1221468
0.12080642
0.1196568
0.11865651
0.11777813
0.11699111
0.11627805
0.11561745
0.11499734
0.11440977
0.11383611
0.11329029
0.11274561
0.11219552
0.1116414
0.11108415
0.11052663
0.10997007
0.10941793
0.10887194
0.10833533
0.1078095
0.10729627
0.10679855
0.10632125
0.10586401
0.1054297
0.10501839
0.10463303
0.10427313
0.1039411
0.10363551
0.10335814
0.10310699
0.10288394
0.10268694
0.10251884
0.10237553
0.10226134
0.10216988
0.10210666
0.1020706
0.10205951
0.1020604
0.10208244
0.10210882
0.10217931
0.10222813
0.10233903
0.10240444
0.10254414
0.10262104
0.10278067
0.10286566
0.10303927
0.10313009
0.10331291
0.10340814
0.10359373
0.18465632
0.17456525
0.16546674
0.1574014
0.15035689
0.14427574
0.13908197
0.13468531
0.13099611
0.12792222
0.12537743
0.12328005
0.12155335
0.12013264
0.11895429
0.11797472
0.11714352
0.11643633
0.11581416
0.11526303
0.11475875
0.11428559
0.11384021
0.11339844
0.11297631
0.1125491
0.11210857
0.11165335
0.11118716
0.11071055
0.11022818
0.10974083
0.10925309
0.10876599
0.10828372
0.10780599
0.10733834
0.10688441
0.10644567
0.106023
0.10561955
0.10523513
0.10487293
0.10453246
0.10421619
0.10392312
0.10365514
0.10341033
0.10319074
0.10299394
0.10282342
0.10267475
0.1025528
0.10245209
0.1023778
0.10232896
0.10230604
0.10230103
0.10231034
0.10232729
0.10237878
0.10241742
0.10250855
0.10256427
0.10268551
0.10275364
0.10289683
0.10297413
0.10313353
0.10321725
0.10338724
0.10347476
0.10365078
0.17341106
0.16388874
0.15545135
0.1481026
0.14179649
0.13645326
0.13197645
0.12826473
0.12521864
0.12274115
0.12074542
0.11914628
0.11787506
0.11686007
0.11605449
0.11540054
0.11487227
0.11442633
0.11404707
0.11370978
0.11339593
0.11310297
0.11280697
0.11251763
0.11222391
0.11190495
0.11156231
0.11119706
0.11081321
0.1104132
0.11000091
0.10957873
0.10915026
0.1087177
0.10828257
0.10784986
0.10742537
0.10700883
0.10660382
0.10621124
0.10583449
0.10547341
0.10513114
0.10480741
0.10450472
0.10422228
0.10396227
0.10372282
0.10350631
0.10330975
0.10313729
0.10298421
0.10285545
0.10274647
0.10266255
0.10260188
0.10256633
0.10255209
0.10255294
0.10256168
0.10259636
0.10262573
0.10269851
0.10274518
0.10284912
0.10290894
0.1030361
0.10310553
0.10324954
0.1033259
0.10348175
0.10356285
0.10372625
0.16422095
0.15518425
0.1472925
0.14052377
0.13481013
0.13005583
0.12615189
0.12298756
0.12045768
0.11846034
0.11690746
0.11571414
0.1148102
0.11413226
0.11362474
0.11324848
0.11296139
0.11274002
0.11256185
0.11240189
0.1122603
0.11211294
0.11195821
0.1118004
0.1116103
0.11138533
0.11112956
0.1108447
0.11053601
0.11020527
0.10985712
0.10949315
0.10911626
0.1087265
0.10833393
0.10794248
0.10755355
0.10716902
0.10679259
0.10642528
0.10607066
0.10572881
0.10540277
0.10509251
0.10480058
0.10452635
0.10427229
0.10403656
0.10382194
0.10362511
0.10345037
0.10329337
0.10315837
0.10304181
0.10294936
0.10287849
0.10283097
0.1028043
0.10279801
0.10279989
0.10281992
0.10284091
0.10289653
0.10293447
0.10302127
0.10307286
0.10318405
0.10324588
0.10337511
0.10344447
0.10358664
0.10366131
0.10381198
0.16605961
0.15632301
0.1478091
0.14049587
0.13432038
0.12918362
0.12497676
0.12158144
0.1188892
0.11678789
0.11518407
0.11398309
0.11310881
0.11249051
0.1120666
0.11179278
0.11162193
0.11152546
0.11147602
0.11144639
0.11143165
0.11141484
0.11137825
0.11133856
0.11127093
0.1111638
0.11101914
0.11084015
0.11062748
0.11038426
0.11011221
0.10981355
0.10948948
0.10914796
0.10879837
0.10844414
0.10808506
0.10772534
0.10736666
0.10701317
0.10666583
0.1063284
0.10600128
0.1056874
0.10538693
0.10510257
0.1048337
0.10458312
0.10434895
0.10413463
0.10393619
0.10375856
0.10359699
0.10345603
0.10333189
0.10323101
0.10315073
0.10309247
0.10305334
0.10303596
0.10303232
0.10304035
0.10305355
0.10309337
0.10312305
0.10319329
0.1032368
0.10333212
0.10338639
0.10350085
0.1035632
0.10369169
0.10375995
0.10389714
0.16864854
0.15813351
0.14897409
0.14112578
0.13450567
0.12900323
0.12449481
0.12086133
0.11798063
0.11574266
0.1140429
0.11278619
0.11188813
0.11127705
0.11088579
0.11066597
0.11056955
0.11055075
0.11056268
0.11062335
0.11071096
0.11079813
0.11087176
0.11093387
0.11097315
0.11097533
0.11095605
0.11088119
0.11074705
0.11057525
0.11036641
0.11012242
0.1098515
0.10956156
0.10925899
0.10894327
0.10861673
0.10828246
0.10794452
0.10760521
0.10726832
0.10693531
0.1066098
0.10629249
0.10598648
0.10569184
0.10541158
0.10514488
0.10489518
0.10466002
0.10444382
0.1042422
0.10406009
0.10389327
0.10374557
0.10361372
0.10350397
0.10341468
0.10334578
0.10329551
0.10326526
0.10325237
0.10325233
0.10325833
0.10328349
0.10330538
0.1033599
0.10339559
0.10347551
0.10352246
0.10362255
0.10367824
0.10379394
0.10385675
0.10398627
0.17413126
0.16201909
0.15161063
0.14280468
0.13546379
0.12942176
0.12451807
0.12059247
0.11750183
0.1151153
0.11331415
0.11199245
0.11106259
0.11043914
0.11006069
0.10986775
0.10980733
0.10981125
0.10986809
0.11000781
0.11016489
0.11033003
0.11048597
0.11063017
0.110769
0.11086586
0.11090404
0.11090508
0.11087722
0.11077615
0.11062136
0.1104364
0.11022483
0.10999101
0.10973497
0.10945795
0.10916334
0.1088555
0.10853793
0.10821441
0.10788761
0.10756116
0.1072367
0.1069179
0.10660556
0.10630294
0.10601022
0.10573038
0.10546287
0.10521096
0.1049727
0.10475209
0.10454562
0.10435754
0.104184
0.10402907
0.1038887
0.10376977
0.10367071
0.10359142
0.10353032
0.10348754
0.10346212
0.10345359
0.10345355
0.10346558
0.10348018
0.1035199
0.10354814
0.10361322
0.10365325
0.10373893
0.103792
0.10390603
0.1039774
0.10412656
0.2454517
0.22416253
0.20481227
0.18756132
0.17250506
0.15960281
0.14873107
0.1397233
0.13237485
0.12647007
0.12179395
0.11815129
0.11536627
0.11328242
0.11176591
0.11070405
0.11000135
0.10957218
0.10936077
0.10929802
0.10930589
0.10938096
0.10956014
0.10976774
0.10998938
0.1102102
0.11041442
0.11060854
0.11077864
0.11089391
0.11095416
0.11096829
0.11095965
0.11091183
0.11079015
0.11063573
0.11045003
0.11023485
0.10999353
0.10973019
0.10944828
0.10915176
0.10884398
0.10852867
0.10820847
0.1078871
0.1075662
0.10724948
0.1069379
0.10663474
0.10634036
0.10605775
0.10578645
0.10552984
0.10528605
0.10505917
0.10484583
0.10465049
0.10446891
0.10430581
0.10415646
0.10402806
0.10391855
0.10382917
0.10375682
0.10370279
0.10366445
0.10364381
0.10363696
0.10363913
0.10364674
0.10367277
0.1036942
0.10374748
0.10378923
0.10388355
0.1039466
0.1040826
0.10416674
0.10434281
0.25259112
0.22958161
0.20861953
0.19010038
0.17409447
0.16049737
0.14911843
0.13971684
0.13206261
0.1259393
0.12113195
0.11742719
0.11464072
0.11259894
0.1111485
0.11016538
0.10954428
0.10919642
0.10905084
0.10903557
0.10906916
0.10922069
0.10944913
0.10969875
0.10995883
0.11020753
0.11043887
0.11067023
0.1108724
0.1110222
0.11111778
0.11116275
0.11116816
0.11115256
0.11107899
0.11093555
0.11075944
0.11055408
0.11032218
0.11006721
0.10979265
0.10950196
0.10919862
0.10888634
0.10856764
0.10824655
0.10792456
0.10760562
0.10729064
0.10698318
0.10668353
0.10639496
0.10611689
0.10585286
0.10560121
0.10536571
0.10514378
0.10493918
0.10474849
0.10457573
0.10441676
0.10427828
0.10415818
0.10405801
0.10397499
0.10390939
0.10386005
0.10382652
0.10380792
0.10380329
0.1038077
0.10383192
0.10386111
0.10393243
0.10398468
0.10410189
0.10417782
0.10434115
0.10444078
0.10464895
0.26009382
0.23637259
0.21450115
0.19490056
0.17777623
0.16314643
0.15090703
0.14087541
0.13279151
0.12637663
0.12137121
0.11753165
0.11464193
0.11251928
0.11102109
0.11000897
0.10937896
0.10903774
0.10890367
0.10889373
0.10894145
0.10912406
0.10937924
0.10966079
0.10995379
0.110237
0.11051688
0.11079605
0.11103485
0.11122284
0.11135249
0.11142551
0.11144961
0.11144616
0.11141149
0.1112982
0.11113318
0.11093686
0.11071216
0.11046271
0.11019172
0.10990325
0.10960016
0.10928677
0.10896546
0.1086403
0.10831332
0.10798797
0.10766605
0.10735039
0.10704232
0.10674432
0.10645682
0.10618242
0.10592064
0.10567408
0.10544176
0.10522562
0.10502476
0.10484032
0.10467212
0.10452056
0.10439301
0.10427779
0.10418597
0.10410797
0.10404758
0.10400879
0.10399906
0.10400281
0.10401827
0.10406439
0.10410437
0.10419931
0.10426436
0.10440864
0.10449959
0.10469133
0.10481487
0.10505352
0.26607519
0.24207479
0.21976648
0.1996295
0.18191554
0.16666712
0.15379845
0.14313756
0.13447073
0.1275593
0.12215288
0.11801138
0.11490897
0.11264659
0.11103695
0.10993996
0.10925185
0.10887396
0.10872175
0.10870885
0.10875717
0.10895448
0.10924657
0.10957288
0.10990901
0.1102354
0.11056569
0.11089639
0.11118665
0.11142182
0.11159934
0.11171384
0.1117705
0.11178224
0.1117704
0.1117103
0.11156248
0.11137655
0.1111583
0.11091262
0.11064282
0.11035344
0.11004746
0.10972942
0.10940175
0.10906922
0.10873298
0.10839838
0.10806508
0.10773874
0.107418
0.10710834
0.1068076
0.10652118
0.10624602
0.10598772
0.1057416
0.1055138
0.10529856
0.10510154
0.10491752
0.1047565
0.10461829
0.10450281
0.10441269
0.10434171
0.10428977
0.10426892
0.1042687
0.1042867
0.10431313
0.10438432
0.1044374
0.10456015
0.10464034
0.10481137
0.10493247
0.10515207
0.10531567
0.1055808
0.2712273
0.24704753
0.22445629
0.20394512
0.18578227
0.17004291
0.15667014
0.14552147
0.13639328
0.1290612
0.12327806
0.11880948
0.11543174
0.11294723
0.11117952
0.10997165
0.10919203
0.10874409
0.10855645
0.10852658
0.10856819
0.10876138
0.10908531
0.10945357
0.10983833
0.11021939
0.11060465
0.11099531
0.11134875
0.11164537
0.11187769
0.11204337
0.11214433
0.11218316
0.11218458
0.11215867
0.11205657
0.11187958
0.11166674
0.11142256
0.11115109
0.11085757
0.11054485
0.11021849
0.10988063
0.10953597
0.10918804
0.1088382
0.10849253
0.10815008
0.10781582
0.10748926
0.10717292
0.10686889
0.10657534
0.1063024
0.10604677
0.10581235
0.10559524
0.10539887
0.10521993
0.10506365
0.10492993
0.10482304
0.10473957
0.10467442
0.10463723
0.10463129
0.10463884
0.10467808
0.10471661
0.10481437
0.10488214
0.10503149
0.1051403
0.10533915
0.10549704
0.10574552
0.10595052
0.1062478
0.27677498
0.25224578
0.22931245
0.20843627
0.1898697
0.17369685
0.15986756
0.14825652
0.13867664
0.13091176
0.12473069
0.11990642
0.11622332
0.11347986
0.11150843
0.11014793
0.10927141
0.10876276
0.10852547
0.1084754
0.10850609
0.10867338
0.10901499
0.10941121
0.10983294
0.11025953
0.1106979
0.11115136
0.11157798
0.11194174
0.11223746
0.11245818
0.11260369
0.11267996
0.11269837
0.11268784
0.11262741
0.11246487
0.11225363
0.11200816
0.11173003
0.11142728
0.11110335
0.1107627
0.11041243
0.11005008
0.10968475
0.10931697
0.10894534
0.1085838
0.10823489
0.10790089
0.10758039
0.10727727
0.10698863
0.10671894
0.10646479
0.10623164
0.10601388
0.10581834
0.10563883
0.1054836
0.10535462
0.10525489
0.10517559
0.10512088
0.10510211
0.10510643
0.10512488
0.10518878
0.10524033
0.10536361
0.10545453
0.10563338
0.10577647
0.10600802
0.10620256
0.10648756
0.10673342
0.10707149
0.30898829
0.2824824
0.25729403
0.2339283
0.21272094
0.19384338
0.17733933
0.16316008
0.15118012
0.14123077
0.13310218
0.1265726
0.1214196
0.11742864
0.1144042
0.11218248
0.11061916
0.10958381
0.10895555
0.10864967
0.1085628
0.10857977
0.10871159
0.10905511
0.10947357
0.10993479
0.11041622
0.11091408
0.11143178
0.11193434
0.11237183
0.11272895
0.11300498
0.11319465
0.11330395
0.11334277
0.11334043
0.11329862
0.11315436
0.11293992
0.11268599
0.11239547
0.11207999
0.11173781
0.11136884
0.11099388
0.11061877
0.11024655
0.10987859
0.10951623
0.10916215
0.10881684
0.10848509
0.10816413
0.10786069
0.10756993
0.1072988
0.10704243
0.10680711
0.1065868
0.10638991
0.10620727
0.10605209
0.10592659
0.10583165
0.10575586
0.10571525
0.1057083
0.10572812
0.10575729
0.10584141
0.1059137
0.10606198
0.10618747
0.10639363
0.10657145
0.10683781
0.10706985
0.10739791
0.10768612
0.10807397
0.34135778
0.31317185
0.28607364
0.26058965
0.23709698
0.21582609
0.19688376
0.18029146
0.16598497
0.15384143
0.14369503
0.13534491
0.12858028
0.12319093
0.11897366
0.1157386
0.113312
0.11155254
0.11032726
0.10954361
0.1091125
0.10894338
0.10893333
0.10900998
0.10930533
0.10975253
0.1102533
0.11078187
0.11132393
0.11189033
0.11245683
0.11296276
0.11338204
0.1137059
0.11393649
0.11407433
0.11413284
0.11413638
0.11410432
0.11397707
0.11374541
0.11346226
0.11315326
0.11282829
0.11248942
0.11213859
0.11177911
0.11141467
0.11104794
0.11068245
0.11031976
0.10996389
0.10961457
0.1092776
0.10894964
0.10863898
0.10833938
0.10806017
0.10779443
0.10755108
0.10732175
0.10711817
0.10692706
0.10676819
0.10664342
0.10654881
0.10647713
0.10645206
0.10645222
0.10648719
0.10653157
0.10663784
0.1067413
0.10691145
0.10707245
0.10730839
0.10752728
0.1078316
0.10811069
0.10848435
0.10882554
0.1092659
0.36963058
0.34095094
0.31302196
0.28639275
0.26145516
0.23847545
0.21764253
0.1990473
0.18270006
0.16854013
0.15645241
0.14627768
0.13783268
0.1309192
0.12534735
0.12092087
0.11747201
0.11484163
0.11288903
0.11149584
0.11056212
0.10999883
0.10972477
0.10966153
0.10969033
0.10987007
0.11028879
0.1107841
0.11132664
0.11189656
0.11250028
0.1131205
0.113697
0.11418089
0.11455968
0.11483051
0.1149962
0.11506072
0.11506352
0.11502581
0.11488779
0.11467986
0.11443537
0.1141604
0.11386074
0.11354112
0.11320537
0.11285716
0.11249978
0.11213653
0.11177067
0.11140468
0.11104265
0.11068482
0.11033772
0.10999767
0.10967446
0.10936078
0.1090681
0.10878748
0.10853092
0.1082868
0.10807171
0.10786625
0.10769991
0.10757165
0.10747371
0.10740854
0.10739413
0.10740113
0.107452
0.10751643
0.10764716
0.10777767
0.1079785
0.10817396
0.10844635
0.10870827
0.10905411
0.10938527
0.10980441
0.11020634
0.11069498
0.36457322
0.33724046
0.31065226
0.28527834
0.26146504
0.23946145
0.21943219
0.20147551
0.18559564
0.17174071
0.15980285
0.1496452
0.1411091
0.13402143
0.12821286
0.1235174
0.11978202
0.11686458
0.11463991
0.11299908
0.11184717
0.11109064
0.1106729
0.11051034
0.11050248
0.11058568
0.1109101
0.11140528
0.11196747
0.11257369
0.11322338
0.11390301
0.1145608
0.11511274
0.11553651
0.11583644
0.1160457
0.11617763
0.11624191
0.11624882
0.1162181
0.11608989
0.11589203
0.11565683
0.11538803
0.11508957
0.11476599
0.11442156
0.11406091
0.11368787
0.11330736
0.11292204
0.11253787
0.11215491
0.11178152
0.11141363
0.11106275
0.11072087
0.11040125
0.11009407
0.10981208
0.10954496
0.10930705
0.10908102
0.1088998
0.10876024
0.10865536
0.10859161
0.10858258
0.1085937
0.10865776
0.10873938
0.10889147
0.10904625
0.10927419
0.10950156
0.10980704
0.11010821
0.11049291
0.11086998
0.11133255
0.11178663
0.11232098
0.36068763
0.3349529
0.30994068
0.28599927
0.26347852
0.24259285
0.22346389
0.20615315
0.19068939
0.17703269
0.16509888
0.15478423
0.14596258
0.13850117
0.13225866
0.12710857
0.122912
0.11955588
0.11692766
0.11492406
0.11345739
0.11244786
0.11182108
0.11150596
0.11143045
0.1114618
0.11165702
0.11214556
0.11273228
0.11338602
0.11408435
0.11482063
0.11555889
0.11623892
0.11681173
0.11727498
0.1176296
0.11788754
0.11805197
0.11813494
0.1181459
0.11811607
0.11797968
0.11776072
0.11749802
0.11719574
0.11685906
0.11649308
0.11610421
0.11569661
0.11527762
0.11484978
0.11442114
0.11399196
0.11357201
0.11315777
0.11276139
0.11237552
0.11201394
0.1116671
0.1113482
0.11104697
0.11077842
0.11052391
0.11032053
0.11016347
0.11004583
0.10997581
0.10996535
0.10997803
0.11004824
0.11014417
0.11030594
0.11048366
0.1107263
0.11098553
0.11131058
0.11165132
0.11206078
0.11248257
0.11297598
0.11347694
0.11404917
0.3675332
0.3419875
0.31742764
0.29412248
0.27224015
0.25187898
0.23311655
0.21596296
0.2003949
0.18639489
0.17393128
0.16294793
0.15337347
0.14510846
0.13806294
0.13212752
0.127198
0.12317428
0.11995369
0.1174402
0.11554699
0.11419392
0.11329157
0.11278415
0.11258289
0.11257318
0.11268311
0.11309873
0.11372552
0.11443391
0.1152038
0.1160001
0.11679988
0.11758243
0.11832966
0.11900793
0.11955909
0.11997995
0.12027397
0.12045785
0.12053694
0.12054161
0.12048656
0.12029048
0.12001826
0.1196943
0.11932605
0.11891955
0.1184829
0.11802208
0.11754491
0.11705667
0.11656527
0.11607299
0.11558999
0.11511394
0.11465807
0.11421469
0.11379924
0.11340161
0.11303629
0.11269284
0.11238601
0.11209818
0.11186644
0.11168687
0.11154985
0.11146986
0.11144967
0.11146004
0.11153171
0.11163368
0.11180128
0.11199094
0.1122472
0.11252589
0.11286982
0.11323808
0.11366953
0.1141261
0.11464401
0.11518575
0.11578508
0.42185586
0.39383142
0.36687564
0.34119091
0.31689209
0.2940195
0.27257931
0.25256958
0.23401627
0.21696112
0.20143485
0.18743197
0.17492563
0.16387271
0.15421174
0.14585901
0.13874194
0.13275419
0.12780553
0.12379616
0.12062223
0.11818764
0.11640752
0.1151756
0.11442823
0.11407003
0.11399467
0.11405548
0.11438094
0.11503618
0.11580632
0.11664574
0.11752518
0.11841028
0.11928251
0.12011139
0.12087557
0.12157318
0.12217983
0.12265199
0.12296804
0.12314836
0.12320284
0.12318753
0.12306181
0.12277883
0.1224291
0.12202156
0.121566
0.12107037
0.12054451
0.11999606
0.11943392
0.11886529
0.11829666
0.11773609
0.11718537
0.11665626
0.11614398
0.11566303
0.11520429
0.11478274
0.1143893
0.11403724
0.11371051
0.1134446
0.11323661
0.11307662
0.11297609
0.11294634
0.11295128
0.11301033
0.11311624
0.11327881
0.11347838
0.11373836
0.11403136
0.11438822
0.11477369
0.11522645
0.11570212
0.11624879
0.11681236
0.11744298
0.50108046
0.47044838
0.44016498
0.41063122
0.3821133
0.35479354
0.32878438
0.30419318
0.2811001
0.25958465
0.23970129
0.22149501
0.20496857
0.19012419
0.17691923
0.1653083
0.15522414
0.14657313
0.13927016
0.13319637
0.1282482
0.12430749
0.1212564
0.11898972
0.1174047
0.11638554
0.11585819
0.11569602
0.11572553
0.1159814
0.11666374
0.11749921
0.11842311
0.11939419
0.12037803
0.12134386
0.12226403
0.12311315
0.12388637
0.12455169
0.12510642
0.12554414
0.12585456
0.12599507
0.12601012
0.1259443
0.12568649
0.12531101
0.12486306
0.12435327
0.12379215
0.12319104
0.12256069
0.12191117
0.12125238
0.12059221
0.11993992
0.11930002
0.1186827
0.11808803
0.11752749
0.11699672
0.11650632
0.11605219
0.11564602
0.11527378
0.11496599
0.11472181
0.1145315
0.11440246
0.11435229
0.11435117
0.11438922
0.11448547
0.11463758
0.11483734
0.11509292
0.11539531
0.11575724
0.11616023
0.11662387
0.11712322
0.11768361
0.11827538
0.11891085
0.58717508
0.55702619
0.52573299
0.49392903
0.46212323
0.43072524
0.40006131
0.37041852
0.3420426
0.31514576
0.28989483
0.26643182
0.24483569
0.22516971
0.20744777
0.19164636
0.17773099
0.1656142
0.15521587
0.1464152
0.1390892
0.13310737
0.12832839
0.12460984
0.12183959
0.11986086
0.11858018
0.1178717
0.11762194
0.11762864
0.11784902
0.11856337
0.11948244
0.12050863
0.12158963
0.12268906
0.12376034
0.12478486
0.12572937
0.12657343
0.12730348
0.12790745
0.12837487
0.12870085
0.12888445
0.12893644
0.12889573
0.12866667
0.12827333
0.1277877
0.12722123
0.12658775
0.12590153
0.12517668
0.1244255
0.12366065
0.12289198
0.12213073
0.12138294
0.12066073
0.11996453
0.11930823
0.11868765
0.11811413
0.11758512
0.11710924
0.11668118
0.11632121
0.11602977
0.11579783
0.11562912
0.11554268
0.11552823
0.11554574
0.11561317
0.11574614
0.11593493
0.11617521
0.1164677
0.11680693
0.1171933
0.11762584
0.11809754
0.11862107
0.11917376
0.11975033
0.6621494
0.63689651
0.60882843
0.578572
0.54674824
0.5139094
0.48059887
0.44730574
0.41449908
0.38260656
0.35198564
0.32295457
0.29574909
0.27055029
0.24748577
0.22661448
0.20796638
0.19150128
0.17715283
0.16481837
0.15436864
0.14565863
0.13853785
0.13282348
0.1283853
0.12503962
0.12264842
0.12107534
0.12017005
0.1198278
0.1198129
0.12002089
0.12076233
0.12179237
0.12293873
0.12414769
0.12537515
0.12657331
0.12771024
0.12875187
0.12968546
0.13047385
0.13111981
0.13161173
0.1319392
0.13210345
0.13212468
0.13204359
0.13173217
0.13128897
0.13074238
0.13010348
0.12938616
0.1286018
0.1277668
0.12689681
0.12600672
0.12510946
0.12421799
0.1233413
0.12249098
0.12167289
0.12089761
0.12016715
0.11949006
0.11886643
0.11830542
0.11780136
0.11737346
0.11701974
0.11673105
0.11650865
0.1163598
0.11629714
0.11629316
0.11631628
0.11639226
0.11654146
0.11673817
0.11699271
0.11729048
0.11764085
0.11803282
0.11846998
0.11894711
0.11946468
0.12001445
0.23933578
0.2422043
0.2451685
0.24824321
0.25143106
0.25476253
0.25825851
0.26195216
0.26586062
0.27002436
0.27445352
0.27918961
0.28429203
0.28989848
0.29626464
0.30372496
0.31267831
0.32345578
0.33623552
0.35093342
0.36721818
0.38448667
0.40202391
0.41906768
0.43501232
0.44956034
0.46279069
0.4751903
0.48754724
0.5007708
0.51572387
0.53298261
0.55274993
0.57477965
0.59840022
0.62266646
0.64648855
0.66881913
0.68881113
0.7059133
0.71990121
0.7308712
0.73913704
0.7451261
0.74926789
0.75192668
0.75338193
0.75390634
0.75390741
0.75353773
0.75224905
0.74898074
0.7416815
0.73103091
0.71680237
0.69891345
0.67741865
0.65253538
0.62464034
0.59419904
0.56176397
0.5279219
0.49327568
0.45841281
0.4239059
0.39024972
0.35791508
0.3272609
0.29859536
0.27214791
0.24804686
0.22639738
0.20718861
0.19039242
0.17590811
0.1635898
0.1533086
0.14486391
0.1380951
0.13280653
0.12881057
0.12595236
0.12403476
0.12293517
0.12246953
0.12243109
0.1226308
0.12341541
0.12456104
0.12583509
0.12718596
0.12854388
0.12987271
0.13112486
0.13226489
0.13327088
0.13412046
0.13479849
0.13528951
0.13561111
0.13573033
0.1357219
0.13554674
0.13511906
0.13456416
0.13389387
0.13312128
0.13226175
0.13133189
0.13034813
0.12932725
0.12828501
0.12723622
0.12619489
0.12517233
0.12418134
0.12322858
0.12232584
0.12147597
0.12068769
0.11996187
0.11930533
0.11871586
0.11820883
0.11778295
0.11743253
0.11715173
0.11694448
0.11682366
0.11678695
0.11679159
0.11682945
0.11694279
0.11711453
0.11735346
0.11763326
0.11797514
0.11835712
0.11879198
0.11926739
0.11978823
0.12034287
0.24297809
0.24585031
0.24881895
0.25191874
0.2551367
0.25852268
0.26208849
0.26588118
0.26991493
0.27423939
0.2788626
0.28384374
0.2892237
0.29515519
0.30188649
0.30978628
0.31928617
0.33083342
0.34472496
0.36096826
0.37924458
0.39896373