/*--------------------------------*- C++ -*----------------------------------*\
| =========                 |                                                 |
| \\      /  F ield         | OpenFOAM: The Open Source CFD Toolbox           |
|  \\    /   O peration     | Version:  2.4.0                                 |
|   \\  /    A nd           | Web:      www.OpenFOAM.org                      |
|    \\/     M anipulation  |                                                 |
\*---------------------------------------------------------------------------*/
FoamFile
{
    version     2.0;
    format      ascii;
    class       surfaceScalarField;
    location    "10";
    object      phi;
}
// * * * * * * * * * * * * * * * * * * * * * * * * * * * * * * * * * * * * * //

dimensions      [0 3 -1 0 0 0 0];

internalField   nonuniform List<scalar> 
39004
(
0.0041543828
0.00029243383
0.0041527925
0.00030671148
0.0041516654
0.0003205592
0.00415105
0.00033400812
0.0041509892
0.00034708793
0.0041515198
0.00035982553
0.0041526716
0.00037224461
0.0041544668
0.00038436521
0.0041569189
0.0003962036
0.0041600326
0.00040777256
0.0041638034
0.0004190829
0.0041682174
0.00043014138
0.0041732521
0.0004409547
0.0041788762
0.00045152811
0.0041850511
0.00046186835
0.004191732
0.00047198328
0.0041988684
0.0004818824
0.0042064061
0.00049157919
0.0042142887
0.00050109149
0.0042224589
0.00051043926
0.0042308596
0.00051964851
0.0042394359
0.00052874858
0.0042481357
0.00053777402
0.0042569111
0.00054676286
0.0042657192
0.00055575683
0.0042745226
0.00056480076
0.0042832903
0.00057394199
0.0042919974
0.00058322962
0.0043006261
0.00059271572
0.0043091648
0.0006024509
0.004317609
0.00061248755
0.0043259603
0.00062287657
0.0043342265
0.00063366988
0.0043424215
0.00064491748
0.0043505644
0.00065666719
0.0043586797
0.00066896613
0.0043667969
0.00068186052
0.0043749496
0.00069539244
0.0043831761
0.00070960283
0.0043915181
0.0007245308
0.0044000216
0.00074021273
0.0044087357
0.00075668292
0.0044177131
0.00077397359
0.0044270093
0.00079211475
0.0044366834
0.00081113292
0.0044463662
0.0008011603
0.0044550849
0.00071801709
0.0044629075
0.00063197972
0.0044699547
0.00054694749
0.0044763454
0.0004633589
0.0044821944
0.00038157115
0.0044876082
0.0003018533
0.0044926828
0.00022438219
0.0044975001
0.00014928397
0.0045021298
7.6574208e-05
0.0045066478
6.1182186e-06
0.0045110664
-6.203907e-05
0.0045154213
-0.00012815962
0.0045197196
-0.00019245451
0.0045239529
-0.00025492508
0.0045281193
-0.00031519183
0.0045322619
-0.00036991231
0.0045364263
-0.00041875811
0.0045406505
-0.00046278354
-0.00050237205
0.0042858437
0.00029310072
0.0042855372
0.00030701796
0.0042856391
0.00032045727
0.004286194
0.00033345328
0.0042872416
0.00034604033
0.0042888163
0.00035825084
0.0042909461
0.00037011475
0.0042936522
0.00038165917
0.0042969479
0.00039290784
0.004300839
0.00040388147
0.004305323
0.00041459886
0.0043103896
0.00042507486
0.0043160204
0.00043532391
0.0043221901
0.00044535837
0.0043288666
0.00045519179
0.0043360124
0.0004648375
0.0043435851
0.00047430974
0.004351539
0.00048362523
0.0043598262
0.00049280432
0.0043683976
0.00050186787
0.0043772047
0.00051084147
0.0043861998
0.00051975346
0.0043953382
0.0005286356
0.0044045783
0.00053752277
0.0044138827
0.00054645243
0.0044232186
0.00055546481
0.0044325591
0.00056460156
0.0044418821
0.00057390656
0.0044511722
0.00058342566
0.0044604194
0.00059320364
0.0044696201
0.00060328693
0.0044787761
0.00061372056
0.0044878952
0.00062455075
0.0044969907
0.00063582196
0.0045060811
0.00064757683
0.0045151897
0.00065985751
0.0045243446
0.0006727056
0.0045335786
0.00068615844
0.0045429281
0.00070025332
0.004552434
0.00071502491
0.0045621405
0.00073050631
0.0045720952
0.00074672813
0.0045823498
0.00076371899
0.0045929587
0.00078150585
0.0046039792
0.00080011243
0.0046150158
0.00079012368
0.0046250272
0.00070800577
0.00463407
0.00062293687
0.0046422563
0.0005387612
0.0046496975
0.0004559177
0.0046565013
0.00037476738
0.004662768
0.0002955866
0.0046685883
0.00021856189
0.0046740383
0.00014383392
0.0046791792
7.1433381e-05
0.0046841234
1.1739933e-06
0.0046888209
-6.6736545e-05
0.0046933386
-0.00013267738
0.0046976787
-0.00019679465
0.0047018337
-0.00025908004
0.0047058025
-0.00031916062
0.0047096334
-0.00037374317
0.0047133778
-0.00042250255
0.0047170777
-0.00046648343
-0.00050605694
0.0044205816
0.00029234347
0.0044216534
0.00030594613
0.0044230807
0.00031902994
0.0044249024
0.00033163164
0.0044271539
0.00034378883
0.0044298666
0.00035553809
0.0044330668
0.0003669146
0.0044367745
0.00037795144
0.0044410037
0.00038867857
0.0044457616
0.00039912362
0.0044510481
0.00040931237
0.0044568565
0.00041926646
0.0044631733
0.0004290071
0.0044699785
0.00043855316
0.0044772466
0.00044792372
0.0044849469
0.00045713714
0.004493045
0.00046621166
0.0045015028
0.00047516744
0.0045102805
0.00048402664
0.0045193371
0.00049281123
0.0045286315
0.00050154707
0.0045381238
0.00051026117
0.0045477758
0.00051898367
0.004557552
0.00052774655
0.0045674205
0.00053658393
0.0045773534
0.00054553186
0.0045873275
0.0005546275
0.0045973241
0.00056390992
0.0046073301
0.00057341972
0.0046173374
0.00058319628
0.0046273435
0.00059328087
0.0046373509
0.00060371319
0.0046473676
0.00061453402
0.0046574066
0.00062578295
0.0046674858
0.00063749765
0.0046776277
0.00064971564
0.0046878596
0.0006624737
0.0046982125
0.00067580546
0.0047087223
0.0006897436
0.0047194278
0.00070431934
0.0047303724
0.00071956173
0.0047416024
0.00073549813
0.0047531677
0.0007521537
0.0047651213
0.00076955222
0.0047775199
0.00078771382
0.0047899387
0.00077770495
0.004801265
0.00069667945
0.0048115436
0.00061265823
0.0048208781
0.00052942676
0.0048293722
0.00044742353
0.0048371266
0.00036701306
0.0048442358
0.00028847739
0.0048507865
0.00021201119
0.0048568543
0.00013776608
0.0048625117
6.5776e-05
0.0048677573
-4.0716361e-06
0.0048727135
-7.1692729e-05
0.004877347
-0.00013731086
0.0048816743
-0.00020112192
0.0048856891
-0.00026309485
0.0048893927
-0.00032286424
0.0048928388
-0.00037718931
0.0048960849
-0.00042574858
0.0048991779
-0.00046957647
-0.00050903088
0.0045587726
0.00029014126
0.0045612623
0.00030345642
0.0045640692
0.00031622305
0.0045672231
0.00032847778
0.0045707525
0.00034025944
0.0045746835
0.00035160705
0.0045790389
0.00036255922
0.0045838369
0.00037315342
0.004589091
0.00038342453
0.0045948089
0.00039340568
0.0046009931
0.00040312819
0.0046076398
0.00041261979
0.0046147398
0.00042190712
0.0046222784
0.00043101453
0.0046302361
0.00043996604
0.0046385889
0.00044878428
0.0046473092
0.00045749135
0.0046563667
0.00046610996
0.0046657289
0.00047466444
0.0046753623
0.00048317781
0.0046852332
0.00049167617
0.0046953086
0.00050018584
0.0047055565
0.00050873569
0.0047159479
0.00051735523
0.0047264558
0.00052607598
0.0047370572
0.00053493047
0.0047477326
0.00054395211
0.0047584669
0.0005531756
0.0047692494
0.00056263722
0.004780074
0.00057237163
0.0047909398
0.00058241513
0.00480185
0.00059280299
0.004812813
0.000603571
0.0048238418
0.00061475412
0.004834954
0.00062638545
0.0048461716
0.00063849808
0.0048575207
0.00065112457
0.0048690318
0.0006642944
0.004880739
0.00067803637
0.0048926804
0.00069237792
0.0049048976
0.00070734452
0.0049174358
0.00072296001
0.0049303433
0.00073924619
0.0049436718
0.00075622364
0.0049574763
0.0007739094
0.0049713024
0.00076387882
0.0049839621
0.00068401974
0.0049954878
0.00060113251
0.0050059748
0.0005189398
0.0050155189
0.00043787937
0.0050242135
0.00035831852
0.0050321478
0.00028054304
0.0050394028
0.00020475626
0.0050460484
0.00013112045
0.0050521457
5.9678687e-05
0.0050577366
-9.6625263e-06
0.0050628712
-7.6827368e-05
0.0050675598
-0.0001419994
0.0050718108
-0.00020537295
0.0050756182
-0.00026690226
0.0050789839
-0.00032622992
0.0050819674
-0.0003801728
0.0050846327
-0.00042841393
0.0050870326
-0.00047197638
-0.00051120467
0.004700982
0.00028657653
0.004704838
0.00029960042
0.0047089999
0.00031206119
0.0047134847
0.00032399302
0.0047183104
0.00033543366
0.004723495
0.00034642252
0.0047290546
0.00035699958
0.0047350035
0.00036720451
0.0047413524
0.00037707567
0.0047481083
0.0003866498
0.0047552739
0.00039596252
0.0047628479
0.00040504579
0.004770824
0.00041393105
0.0047791917
0.00042264681
0.0047879367
0.00043122106
0.0047970406
0.00043968035
0.0048064824
0.0004480496
0.004816238
0.00045635433
0.0048262822
0.00046462028
0.004836588
0.00047287197
0.0048471287
0.00048113543
0.0048578776
0.00048943702
0.0048688091
0.00049780412
0.0048798994
0.00050626495
0.0048911271
0.00051484824
0.0049024734
0.00052358418
0.0049139229
0.00053250265
0.0049254637
0.00054163484
0.0049370877
0.00055101315
0.0049487914
0.00056066798
0.0049605748
0.00057063174
0.0049724426
0.00058093518
0.0049844037
0.00059160987
0.0049964714
0.00060268644
0.005008663
0.00061419383
0.0050210001
0.00062616101
0.0050335081
0.00063861654
0.0050462166
0.00065158587
0.0050591589
0.00066509416
0.0050723715
0.00067916531
0.0050858948
0.00069382116
0.0050997726
0.00070908222
0.0051140518
0.00072496699
0.0051287826
0.00074149282
0.0051440184
0.00075867365
0.0051592733
0.00074862391
0.0051732805
0.00067001257
0.00518606
0.00058835295
0.0051976986
0.00050730122
0.0052082839
0.00042729401
0.0052179036
0.00034869885
0.0052266395
0.00027180719
0.0052345682
0.00019682749
0.0052417551
0.00012393362
0.0052482583
5.31754e-05
0.0052541258
-1.5530018e-05
0.0052593918
-8.2093308e-05
0.0052640748
-0.00014668237
0.0052681828
-0.00020948102
0.0052717103
-0.00027042977
0.0052746607
-0.00032918025
0.0052771001
-0.00038261221
0.0052790997
-0.0004304136
0.0052807183
-0.00047359494
-0.00051248747
0.0048481736
0.00028184363
0.0048532384
0.0002945356
0.0048586324
0.00030666724
0.004864357
0.00031826842
0.0048704168
0.0003293738
0.0048768184
0.00034002097
0.0048835688
0.00035024916
0.0048906749
0.0003600984
0.0048981424
0.00036960824
0.0049059748
0.0003788174
0.0049141734
0.0003877639
0.0049227364
0.00039648278
0.0049316592
0.00040500829
0.0049409337
0.00041337228
0.0049505489
0.00042160581
0.0049604913
0.000429738
0.0049707444
0.00043779651
0.00498129
0.0004458087
0.0049921084
0.00045380184
0.005003179
0.00046180142
0.0050144806
0.00046983381
0.0050259925
0.00047792513
0.0050376947
0.00048610194
0.0050495685
0.0004943911
0.0050615973
0.00050281951
0.0050737665
0.0005114149
0.0050860645
0.00052020469
0.0050984827
0.00052921668
0.0051110158
0.00053848003
0.005123662
0.0005480218
0.0051364232
0.00055787048
0.0051493055
0.0005680529
0.0051623183
0.00057859704
0.0051754753
0.00058952949
0.0051887938
0.00060087533
0.0052022951
0.00061265973
0.0052160041
0.00062490752
0.0052299495
0.00063764045
0.0052441635
0.00065088017
0.0052586817
0.00066464711
0.0052735431
0.00067895972
0.0052887902
0.00069383515
0.0053044681
0.00070928911
0.0053206256
0.00072533529
0.0053373139
0.00074198533
0.0053540153
0.00073192259
0.0053693794
0.00065464838
0.0053834145
0.00057431785
0.0053961984
0.00049451738
0.0054078118
0.00041568062
0.0054183343
0.00033817629
0.0054278434
0.00026229815
0.00543641
0.00018826082
0.0054440966
0.00011624703
0.0054509596
4.6312418e-05
0.0054570453
-2.1615664e-05
0.0054623848
-8.7432872e-05
0.0054669974
-0.00015129498
0.0054708919
-0.00021337552
0.0054740636
-0.00027360142
0.0054765187
-0.00033163541
0.0054783305
-0.00038442392
0.0054795773
-0.00043166044
0.0054803246
-0.00047434222
-0.0005127869
0.0049817976
0.00022145631
0.0049860163
0.00023598994
0.0049907398
0.00024996769
0.0049959287
0.00026337846
0.0050015502
0.00027622217
0.0050075782
0.0002885076
0.0050139926
0.00030025275
0.0050207791
0.00031148201
0.0050279271
0.00032222574
0.0050354302
0.00033251792
0.005043284
0.00034239532
0.0050514859
0.00035189649
0.0050600339
0.00036106029
0.0050689257
0.00036992551
0.0050781587
0.00037853091
0.0050877287
0.00038691278
0.00509763
0.000395107
0.005107855
0.00040314726
0.0051183945
0.00041106637
0.0051292371
0.00041889542
0.00514037
0.0004266636
0.005151779
0.00043439969
0.0051634487
0.00044213211
0.0051753633
0.00044988685
0.0051875064
0.00045769068
0.0051998622
0.00046556932
0.0052124154
0.00047354881
0.0052251518
0.00048165468
0.0052380588
0.00048991246
0.005251126
0.00049834776
0.005264345
0.0005069857
0.00527771
0.00051585166
0.0052912184
0.00052497166
0.0053048705
0.0005343697
0.0053186698
0.00054407116
0.0053326232
0.00055409943
0.0053467413
0.00056447895
0.0053610381
0.0005752327
0.0053755309
0.00058638256
0.0053902408
0.00059794982
0.0054051922
0.00060995611
0.0054204131
0.00062241955
0.0054359346
0.00063535867
0.0054517914
0.00064879038
0.0054680211
0.00066273001
0.0054846644
0.00067719178
0.0055017655
0.00069218806
0.0055193709
0.00070772989
0.0055375304
0.00072382578
0.0055556911
0.00071376189
0.0055724176
0.00063792192
0.0055877047
0.0005590307
0.0056016222
0.00048059991
0.0056142432
0.00040305961
0.0056256414
0.00032677816
0.005635888
0.00025205155
0.0056450507
0.0001790981
0.0056531883
0.00010810936
0.0056603553
3.9145448e-05
0.0056665972
-2.7857565e-05
0.005671944
-9.2779615e-05
0.005676415
-0.00015576599
0.00568002
-0.00021698052
0.0056827559
-0.00027633739
0.005684632
-0.0003335115
0.0056857281
-0.00038552001
0.0056861316
-0.00043206387
0.0056859143
-0.00047412494
-0.00051200773
0.0051319435
0.00017346517
0.0051341427
0.00018862732
0.0051371416
0.00020339127
0.0051408853
0.00021771264
0.0051453189
0.00023155635
0.0051503896
0.00024489699
0.0051560482
0.00025771991
0.0051622498
0.00027002052
0.005168955
0.0002818024
0.0051761296
0.00029307812
0.0051837447
0.00030386696
0.0051917762
0.00031419421
0.0052002044
0.00032408971
0.0052090132
0.00033358657
0.0052181893
0.00034272039
0.0052277216
0.0003515279
0.0052376007
0.00036004645
0.0052478176
0.00036831402
0.0052583639
0.00037636647
0.0052692309
0.00038424
0.0052804095
0.00039196863
0.00529189
0.00039958588
0.0053036617
0.00040712371
0.0053157134
0.0004146119
0.005328033
0.00042208011
0.0053406081
0.00042955704
0.0053534259
0.00043706898
0.0053664739
0.00044464278
0.0053797396
0.0004523036
0.0053932114
0.00046007697
0.0054068789
0.0004679872
0.0054207327
0.0004760586
0.0054347656
0.0004843149
0.0054489719
0.0004927794
0.0054633486
0.000501475
0.005477895
0.00051042523
0.0054926131
0.00051965157
0.0055075081
0.00052917622
0.0055225877
0.00053901983
0.0055378632
0.00054920345
0.0055533487
0.00055974715
0.005569062
0.0005706693
0.0055850235
0.00058198829
0.0056012574
0.00059372219
0.0056177908
0.00060588621
0.0056346538
0.0006184956
0.0056518801
0.00063156412
0.0056695058
0.00064510434
0.0056875703
0.00065912723
0.0057061158
0.0006736426
0.0057251871
0.00068865853
0.005744832
0.00070418089
0.0057644614
0.00069413251
0.0057825502
0.00061983311
0.0057990807
0.00054250023
0.0058141149
0.00046556574
0.0058277184
0.00038945605
0.0058399589
0.00031453769
0.0058509032
0.00024110726
0.0058606146
0.0001693867
0.0058691502
9.9573762e-05
0.005876564
3.1731588e-05
0.0058829002
-3.4193729e-05
0.0058881865
-9.8065864e-05
0.0058924429
-0.0001600224
0.0058956787
-0.00022021641
0.0058978938
-0.00027855245
0.0058990997
-0.00033471739
0.0058993847
-0.00038580502
0.005898845
-0.00043152417
0.005897561
-0.00047284097
-0.00051004665
0.0052998153
0.00015793475
0.0053007815
0.00017249902
0.0053026676
0.00018674117
0.0053054402
0.0002006187
0.0053090579
0.00021409499
0.0053134742
0.00022714006
0.0053186399
0.00023973127
0.0053245053
0.00025185454
0.0053310218
0.00026350394
0.0053381434
0.00027468079
0.0053458275
0.00028539409
0.0053540351
0.00029565929
0.0053627319
0.00030549749
0.0053718872
0.00031493436
0.0053814746
0.00032399914
0.0053914711
0.00033272398
0.0054018565
0.0003411425
0.0054126133
0.0003492896
0.0054237262
0.00035720117
0.0054351809
0.00036491172
0.0054469647
0.00037245622
0.0054590652
0.00037986813
0.0054714707
0.00038718042
0.0054841696
0.00039442476
0.0054971504
0.00040163111
0.0055104018
0.00040882871
0.0055239126
0.0004160462
0.0055376718
0.00042330977
0.005551669
0.00043064566
0.0055658939
0.0004380787
0.0055803376
0.00044563324
0.005594992
0.00045333283
0.0056098503
0.00046120027
0.0056249073
0.00046925785
0.0056401599
0.00047752688
0.0056556064
0.00048602844
0.0056712481
0.00049478357
0.0056870881
0.00050381152
0.0057031326
0.00051313175
0.0057193902
0.0005227622
0.0057358724
0.00053272125
0.0057525937
0.0005430259
0.0057695714
0.00055369159
0.0057868258
0.00056473389
0.0058043804
0.00057616761
0.0058222613
0.00058800532
0.0058404979
0.00060025895
0.0058591223
0.00061293978
0.0058781694
0.0006260572
0.005897677
0.00063961962
0.0059176855
0.00065363409
0.0059382378
0.00066810629
0.0059593789
0.00068303974
0.0059804813
0.00067303011
0.0059999268
0.00060038759
0.0060176856
0.00052474148
0.0060338115
0.0004494398
0.0060483643
0.00037490326
0.0060614059
0.00030149613
0.006072998
0.00022951517
0.0060832015
0.00015918319
0.0060920711
9.0704102e-05
0.0060996602
2.4142479e-05
0.0061060089
-4.0542366e-05
0.006111144
-0.00010320102
0.0061150866
-0.00016396498
0.0061178488
-0.00022297862
0.0061194339
-0.00028013752
0.0061198586
-0.00033514209
0.0061192218
-0.00038516817
0.0061176306
-0.00042993299
0.0061151746
-0.00047038505
-0.00050680291
0.0053046333
0.00015802119
0.0053054213
0.00017171097
0.0053070897
0.00018507278
0.005309631
0.00019807746
0.0053130263
0.00021069963
0.0053172478
0.00022291855
0.0053222607
0.00023471842
0.0053280255
0.00024608967
0.0053345003
0.00025702919
0.005341642
0.00026753906
0.0053494082
0.00027762789
0.0053577581
0.00028730941
0.0053666533
0.00029660232
0.0053760581
0.00030552949
0.0053859403
0.00031411699
0.0053962705
0.00032239379
0.0054070225
0.00033039046
0.0054181729
0.00033813921
0.0054297008
0.00034567328
0.0054415874
0.00035302508
0.0054538159
0.00036022776
0.0054663709
0.00036731316
0.005479238
0.00037431326
0.0054924043
0.00038125849
0.0055058574
0.000388178
0.0055195858
0.00039510033
0.0055335785
0.00040205349
0.0055478254
0.00040906287
0.0055623171
0.00041615396
0.005577045
0.00042335085
0.0055920013
0.0004306769
0.0056071797
0.00043815444
0.005622575
0.00044580495
0.0056381835
0.0004536494
0.005654003
0.00046170732
0.0056700336
0.0004699979
0.0056862768
0.00047854037
0.0057027367
0.0004873516
0.0057194196
0.0004964488
0.0057363342
0.00050584767
0.0057534916
0.00051556381
0.0057709057
0.00052561182
0.0057885928
0.00053600446
0.0058065722
0.00054675452
0.0058248657
0.00055787415
0.0058434978
0.00056937315
0.0058624958
0.00058126097
0.0058818897
0.0005935459
0.0059017119
0.00060623504
0.0059219973
0.00061933417
0.0059427836
0.00063284783
0.0059641104
0.00064677946
0.0059860195
0.00066113064
0.0060078657
0.00065118394
0.0060279875
0.00058026571
0.0060463454
0.00050638363
0.0060629846
0.00043280063
0.0060779562
0.00035993159
0.0060913154
0.00028813692
0.0061031185
0.00021771211
0.0061134204
0.00014888124
0.006122273
8.1851548e-05
0.0061297269
1.668863e-05
0.0061358177
-4.6633195e-05
0.0061405741
-0.00010795741
0.006144019
-0.00016740988
0.0061461685
-0.00022512813
0.0061470301
-0.00028099913
0.0061466262
-0.00033473823
0.0061450623
-0.00038360425
0.0061424528
-0.00042732353
0.0061388943
-0.00046682646
-0.00050237872
0.0051418434
0.00015774408
0.0051428474
0.00017070697
0.0051446063
0.00018331384
0.0051471358
0.00019554795
0.0051504397
0.00020739581
0.0051545112
0.00021884703
0.0051593347
0.00022989493
0.0051648872
0.00024053715
0.0051711404
0.00025077599
0.0051780621
0.00026061732
0.005185618
0.00027007203
0.0051937727
0.00027915464
0.0052024913
0.00028788375
0.0052117398
0.00029628105
0.0052214858
0.00030437098
0.0052316991
0.00031218047
0.0052423517
0.00031973782
0.0052534182
0.00032707278
0.0052648751
0.00033421629
0.0052767015
0.00034119867
0.0052888783
0.00034805105
0.005301388
0.0003548034
0.0053142152
0.0003614861
0.0053273454
0.00036812826
0.0053407657
0.00037475771
0.0053544641
0.00038140194
0.0053684297
0.00038808784
0.0053826528
0.00039483982
0.0053971242
0.00040168252
0.0054118362
0.00040863884
0.0054267819
0.00041573125
0.0054419556
0.00042298076
0.0054573528
0.00043040774
0.0054729706
0.0004380316
0.0054888074
0.0004458705
0.0055048633
0.00045394199
0.0055211403
0.00046226334
0.0055376423
0.00047084964
0.005554375
0.00047971614
0.0055713464
0.00048887623
0.0055885667
0.0004983435
0.0056060484
0.00050813007
0.0056238065
0.00051824642
0.0056418579
0.00052870307
0.0056602226
0.0005395095
0.0056789224
0.00055067333
0.0056979819
0.00056220147
0.005717428
0.00057409977
0.0057372899
0.00058637312
0.0057575993
0.00059902481
0.0057783899
0.00061205726
0.0057996976
0.00062547171
0.0058215607
0.00063926757
0.0058433387
0.0006294059
0.0058633858
0.00056021868
0.0058816532
0.00048811623
0.0058981779
0.00041627588
0.0059130026
0.00034510687
0.0059261744
0.00027496511
0.0059377429
0.00020614365
0.0059477574
0.00013886674
0.0059562642
7.3344753e-05
0.0059633135
9.6392902e-06
0.0059689355
-5.2255143e-05
0.0059731616
-0.00011218353
0.0059760163
-0.00017026457
0.0059775167
-0.0002266285
0.0059776741
-0.00028115655
0.0059765145
-0.00033357864
0.0059741459
-0.00038123566
0.0059706861
-0.00042386368
0.0059662333
-0.00046237374
-0.00049701985
0.0049817128
0.00015674274
0.0049832989
0.00016912087
0.0049855061
0.00018110659
0.0049883617
0.00019269236
0.0049918833
0.00020387419
0.0049960794
0.00021465099
0.0050009496
0.00022502467
0.0050064862
0.00023500056
0.0050126747
0.00024458749
0.0050194955
0.00025379654
0.0050269252
0.00026264236
0.0050349375
0.00027114229
0.0050435048
0.00027931644
0.0050525988
0.00028718705
0.0050621914
0.00029477842
0.0050722553
0.00030211659
0.0050827644
0.00030922874
0.0050936942
0.00031614296
0.0051050219
0.00032288861
0.0051167263
0.00032949418
0.0051287884
0.00033598901
0.0051411902
0.00034240158
0.0051539158
0.00034876051
0.0051669505
0.00035509353
0.005180281
0.00036142719
0.0051938952
0.00036778777
0.0052077823
0.00037420076
0.0052219323
0.00038068986
0.0052363364
0.00038727838
0.005250987
0.00039398824
0.0052658775
0.00040084074
0.0052810024
0.00040785588
0.0052963573
0.0004150528
0.0053119394
0.00042244952
0.005327747
0.00043006287
0.0053437802
0.00043790881
0.0053600403
0.00044600321
0.0053765308
0.00045435916
0.0053932566
0.00046299038
0.0054102247
0.0004719081
0.0054274441
0.00048112414
0.0054449258
0.00049064835
0.0054626829
0.0005004893
0.0054807308
0.00051065516
0.0054990869
0.00052115338
0.005517771
0.0005319893
0.0055368049
0.00054316753
0.0055562127
0.000554692
0.0055760207
0.00056656512
0.0055962572
0.00057878831
0.0056169527
0.00059136175
0.0056381399
0.00060428453
0.0056598534
0.00061755409
0.0056814591
0.00060780014
0.0057013309
0.00054034689
0.0057194136
0.0004700335
0.0057357362
0.00039995328
0.005750335
0.00033050816
0.0057632503
0.00026204973
0.0057745259
0.0001948681
0.005784206
0.00012918666
0.0057923316
6.5219093e-05
0.0057989635
3.0074422e-06
0.0058041146
-5.740628e-05
0.0058078221
-0.00011589103
0.0058101101
-0.00017255261
0.0058109995
-0.00022751786
0.0058105063
-0.00028066339
0.0058086598
-0.00033173206
0.0058055705
-0.00037814635
0.0058013583
-0.0004196515
0.0057961233
-0.00045713878
-0.00049085167
0.0048238961
0.00015492414
0.0048262084
0.00016680862
0.0048290449
0.0001782701
0.0048324311
0.00018930611
0.0048363868
0.00019991846
0.0048409253
0.00021011251
0.0048460533
0.0002198967
0.0048517713
0.00022928254
0.0048580743
0.00023828446
0.0048649523
0.00024691858
0.004872391
0.00025520368
0.004880373
0.00026316027
0.0048888787
0.00027081079
0.0048978867
0.00027817901
0.0049073751
0.00028529002
0.0049173217
0.00029217001
0.0049277046
0.00029884581
0.0049385027
0.00030534484
0.0049496959
0.00031169542
0.0049612652
0.0003179249
0.0049731928
0.00032406135
0.0049854624
0.00033013196
0.0049980588
0.00033616418
0.0050109679
0.00034218436
0.0050241771
0.00034821797
0.0050376749
0.00035429006
0.0050514504
0.00036042527
0.0050654942
0.000366646
0.0050797978
0.00037297483
0.0050943535
0.00037943253
0.0051091548
0.00038603941
0.0051241961
0.00039281454
0.0051394732
0.00039977573
0.0051549828
0.00040693991
0.0051707229
0.00041432276
0.0051866929
0.00042193883
0.0052028938
0.00042980229
0.0052193279
0.00043792512
0.0052359993
0.00044631894
0.0052529137
0.00045499368
0.0052700789
0.00046395894
0.0052875042
0.00047322305
0.0053052011
0.00048279241
0.005323183
0.00049267331
0.0053414652
0.00050287119
0.0053600652
0.00051338926
0.0053790025
0.00052423025
0.0053982985
0.00053539597
0.0054179767
0.00054688688
0.0054380627
0.00055870239
0.0054585837
0.00057084071
0.005479569
0.0005832992
0.0055010498
0.00059607333
0.0055224003
0.00058644966
0.0055420167
0.00052073042
0.0055598391
0.00045221117
0.0055758904
0.000383902
0.0055902008
0.00031619776
0.0056028063
0.00024944423
0.0056137463
0.00018392806
0.0056230621
0.00011987086
0.005630795
5.7486205e-05
0.0056369879
-3.1854978e-06
0.0056416716
-6.208998e-05
0.005644874
-0.00011909336
0.0056466249
-0.00017430359
0.005646948
-0.00022784093
0.0056458625
-0.00027957788
0.0056434012
-0.00032927079
0.0056396759
-0.00037442102
0.0056348073
-0.0004147829
0.0056288971
-0.00045122863
-0.00048399033
0.004669183
0.00015244421
0.0046721312
0.00016386044
0.0046755637
0.00017483762
0.0046794949
0.00018537487
0.0046839369
0.00019547651
0.0046888982
0.00020515122
0.0046943839
0.00021441097
0.0047003952
0.00022327125
0.0047069294
0.00023175019
0.0047139806
0.00023986743
0.0047215394
0.00024764491
0.0047295939
0.00025510573
0.0047381303
0.00026227441
0.004747133
0.00026917624
0.0047565857
0.00027583736
0.0047664713
0.00028228445
0.0047767726
0.00028854446
0.0047874728
0.00029464469
0.0047985554
0.00030061278
0.0048100048
0.00030647553
0.0048218059
0.00031226028
0.0048339446
0.00031799328
0.0048464078
0.00032370096
0.0048591831
0.00032940901
0.0048722592
0.00033514187
0.0048856255
0.00034092378
0.0048992723
0.0003467785
0.0049131906
0.00035272769
0.0049273725
0.00035879296
0.0049418105
0.00036499449
0.0049564983
0.00037135164
0.0049714304
0.00037788242
0.0049866021
0.00038460397
0.00500201
0.00039153209
0.0050176516
0.00039868115
0.0050335256
0.00040606485
0.005049632
0.00041369584
0.0050659725
0.00042158463
0.0050825499
0.00042974158
0.0050993686
0.00043817492
0.005116435
0.00044689258
0.0051337569
0.00045590114
0.005151344
0.00046520529
0.0051692079
0.00047480943
0.005187362
0.00048471713
0.0052058216
0.00049492965
0.0052246038
0.00050544799
0.0052437278
0.00051627196
0.0052632145
0.0005274002
0.0052830866
0.00053883027
0.0053033688
0.00055055857
0.0053240872
0.00056258076
0.00534527
0.00057489059
0.0053662998
0.00056541978
0.005385599
0.00050143128
0.0054031034
0.0004347068
0.0054188312
0.00036817413
0.0054328084
0.00030222063
0.0054450664
0.00023718617
0.0054556418
0.00017335271
0.0054645731
0.00011093953
0.0054718993
5.0160031e-05
0.0054776588
-8.9450691e-06
0.0054818833
-6.6314488e-05
0.0054846057
-0.00012181572
0.005485857
-0.00017555486
0.0054856622
-0.0002276462
0.0054840436
-0.0002779592
0.0054810361
-0.0003262633
0.0054767526
-0.00037013756
0.0054713147
-0.00040934501
0.0054648245
-0.00044473842
-0.00047654031
0.0045158143
0.00013823018
0.0045186784
0.00014958009
0.0045220388
0.00016050003
0.0045258943
0.00017098206
0.0045302444
0.00018102481
0.0045350881
0.00019063277
0.004540424
0.00019981535
0.0045462493
0.00020858569
0.0045525598
0.00021696071
0.0045593499
0.00022496014
0.0045666121
0.00023260527
0.0045743374
0.00023991957
0.0045825156
0.00024692753
0.0045911353
0.00025365475
0.0046001841
0.00026012744
0.0046096492
0.00026637226
0.0046195173
0.00027241631
0.0046297753
0.00027828646
0.00464041
0.00028400997
0.0046514086
0.00028961417
0.0046627587
0.00029512542
0.0046744484
0.00030057056
0.0046864665
0.00030597526
0.004698802
0.00031136543
0.0047114449
0.00031676608
0.0047243856
0.00032220118
0.0047376151
0.00032769432
0.0047511248
0.00033326876
0.0047649069
0.00033894561
0.0047789539
0.00034474592
0.0047932592
0.00035068925
0.0048078164
0.00035679438
0.0048226202
0.00036307864
0.0048376658
0.00036955838
0.0048529493
0.00037624857
0.0048684677
0.0003831628
0.004884219
0.00039031346
0.0049002026
0.00039771225
0.0049164188
0.00040536842
0.0049328695
0.00041329093
0.0049495578
0.0004214866
0.0049664886
0.00042996183
0.0049836681
0.00043872158
0.0050011045
0.00044776888
0.0050188076
0.00045710636
0.0050367888
0.0004667359
0.0050550616
0.00047665691
0.0050736409
0.0004868687
0.0050925436
0.00049736923
0.0051117884
0.0005081554
0.0051313956
0.00051922309
0.0051513871
0.000530567
0.0051717867
0.00054218118
0.0051926194
0.0005540579
0.0052132777
0.00054476151
0.0052322114
0.00048249752
0.0052493538
0.0004175644
0.0052647191
0.00035280886
0.0052783294
0.00028861031
0.0052902139
0.00022530172
0.0053004056
0.00016316095
0.0053089408
0.00010240433
0.0053158576
4.3243271e-05
0.0053211908
-1.4278232e-05
0.0053249763
-7.0100041e-05
0.0053272478
-0.00012408716
0.0053280369
-0.00017634403
0.0053273704
-0.0002269797
0.0053252736
-0.00027586232
0.0053217836
-0.00032277337
0.0053170139
-0.00036536789
0.0053110868
-0.00040341781
0.0053041044
-0.00043775608
-0.0004685961
0.0043679424
0.00012466768
0.0043703333
0.0001358393
0.0043732978
0.00014661558
0.0043768177
0.00015698016
0.004380876
0.00016692374
0.0043854572
0.00017644361
0.0043905467
0.00018554322
0.0043961311
0.00019423102
0.0044021972
0.00020251956
0.0044087327
0.00021042524
0.0044157253
0.00021796754
0.004423163
0.00022516757
0.0044310338
0.00023204871
0.004439326
0.00023863537
0.0044480277
0.00024495307
0.0044571273
0.00025102785
0.0044666133
0.00025688619
0.0044764748
0.00026255486
0.0044867008
0.00026806045
0.0044972809
0.00027342985
0.0045082052
0.00027868986
0.0045194641
0.00028386657
0.0045310484
0.00028898619
0.0045429495
0.00029407424
0.0045551588
0.00029915607
0.0045676685
0.00030425636
0.0045804709
0.00030939878
0.0045935586
0.0003146067
0.0046069244
0.00031990294
0.0046205615
0.00032530849
0.0046344633
0.00033084407
0.0046486237
0.00033652888
0.0046630368
0.00034238134
0.004677697
0.00034841841
0.0046925996
0.00035465579
0.0047077403
0.00036110788
0.0047231155
0.00036778758
0.0047387225
0.00037470641
0.0047545598
0.00038187498
0.0047706267
0.00038930153
0.0047869238
0.00039699384
0.004803453
0.00040495735
0.0048202178
0.0004131971
0.0048372229
0.00042171639
0.004854475
0.00043051683
0.0048719819
0.00043959942
0.0048897537
0.00044896415
0.0049078015