-1.5969174e-09 	0 	0 	0 	0 	0 	0
0.0010637143 	0.0017217331 	0.00017134752 	1.2866395e-24 	0.0017183393 	-1.3291593e-23 	0.0017200263
0.0022067917 	0.0024328931 	0.00045509195 	-1.0186562e-23 	0.0024216964 	1.4717544e-22 	0.0024272881
0.0034351516 	0.0031126236 	0.00075483198 	-2.3774158e-23 	0.0030894571 	1.5381054e-22 	0.0031010483
0.0047551568 	0.0037361995 	0.0010020766 	1.5429943e-23 	0.0036982179 	-2.1423212e-22 	0.0037172008
0.0061736447 	0.0043081716 	0.001180939 	-1.9375116e-22 	0.0042534709 	1.7722061e-23 	0.0042808114
0.0076979629 	0.0048438586 	0.0012855537 	5.6100747e-23 	0.0047715304 	6.2854451e-22 	0.004807724
0.0093360072 	0.0053490524 	0.0013881296 	2.9797719e-22 	0.0052535416 	-5.3483825e-23 	0.0053013324
0.011096262 	0.0058110612 	0.0014844022 	-2.2253213e-23 	0.0056857764 	-4.5042381e-22 	0.0057484062
0.012987846 	0.0062259177 	0.0015109947 	-4.3423374e-23 	0.0060695562 	4.039854e-24 	0.0061477132
0.015020557 	0.0066058554 	0.0014992077 	-6.117774e-24 	0.0064183899 	-3.676902e-22 	0.0065121237
0.017204925 	0.006960837 	0.0014634259 	-1.2454258e-21 	0.0067427724 	4.2074541e-23 	0.0068518145
0.019552263 	0.0072976831 	0.0014101412 	2.8172469e-22 	0.0070500129 	1.3138023e-21 	0.0071738582
0.022074731 	0.0076212479 	0.0013431438 	3.3186044e-21 	0.007345451 	-1.1363715e-22 	0.0074833616
0.024785394 	0.0079350598 	0.001264693 	-2.5017712e-22 	0.0076331397 	-1.4923591e-21 	0.0077841139
0.027698295 	0.0082417503 	0.0011761494 	-2.023819e-21 	0.0079162618 	5.1510497e-22 	0.0080790224
0.03082852 	0.0085433367 	0.001078325 	2.3100887e-21 	0.008197427 	1.4963241e-23 	0.0083704004
0.034192285 	0.0088413934 	0.00097167696 	-2.7523263e-21 	0.0084788564 	-4.1402649e-22 	0.0086601457
0.037807013 	0.0091371603 	0.00085642318 	5.6183056e-22 	0.0087624997 	4.871026e-22 	0.0089498533
0.041691429 	0.0094316318 	0.00073261647 	-2.1271306e-22 	0.0090501294 	5.3896177e-23 	0.0092409066
0.045865651 	0.0097256153 	0.00060018458 	3.528868e-22 	0.0093434036 	-2.3308599e-23 	0.0095345382
0.050351304 	0.010019784 	0.00045895312 	-2.1510823e-22 	0.0096439215 	-1.0033877e-21 	0.0098318847
0.055171622 	0.01031473 	0.0003086664 	-6.7305378e-21 	0.009953272 	1.3332638e-21 	0.010134036
0.060351572 	0.010610977 	0.00014899084 	6.9966839e-21 	0.010273055 	8.0423704e-22 	0.010442055
0.065917988 	0.010908991 	-2.0486557e-05 	-9.3464706e-23 	0.010604888 	-1.6998541e-21 	0.010756983
0.071899702 	0.011209194 	-0.00020025019 	-4.2090181e-21 	0.010950432 	6.7609592e-22 	0.011079861
0.078327699 	0.011511982 	-0.00039086526 	3.1362672e-21 	0.011311406 	4.6584507e-22 	0.011411747
0.085235274 	0.011817738 	-0.00059297839 	2.030354e-22 	0.01168961 	-5.867251e-22 	0.011753731
0.092658209 	0.012126845 	-0.00080729954 	-9.9603088e-23 	0.012086934 	-5.2073788e-23 	0.012106953
0.10063495 	0.01243971 	-0.0010346377 	-2.6397678e-22 	0.012505374 	6.0392892e-23 	0.012472612
0.10920682 	0.01275677 	-0.0012759554 	1.5885907e-22 	0.012947048 	4.8985847e-23 	0.012851986
0.11841822 	0.013078499 	-0.0015323528 	-2.2176248e-22 	0.013414223 	8.5450489e-24 	0.013246445
0.12831687 	0.01340543 	-0.001805058 	1.5746243e-23 	0.013909321 	1.030791e-23 	0.013657467
0.13895403 	0.013738174 	-0.0020954584 	2.9931706e-22 	0.014434937 	-3.8069506e-23 	0.014086655
0.1503848 	0.014077436 	-0.0024051246 	2.8978551e-23 	0.014993862 	-7.1110523e-22 	0.014535758
0.1626684 	0.014424054 	-0.0027358336 	-2.6706808e-21 	0.015589085 	-5.7997395e-22 	0.015006687
0.17586845 	0.014779033 	-0.0030896049 	-3.7011127e-21 	0.016223809 	2.0125589e-21 	0.015501546
0.19005333 	0.015143604 	-0.003468746 	4.7352498e-21 	0.016901441 	4.2561525e-22 	0.016022653
0.20529651 	0.01551932 	-0.0038759149 	3.7604903e-22 	0.017625556 	-2.389119e-21 	0.016572582
0.22167695 	0.015908152 	-0.0043141628 	-4.8969385e-21 	0.018399893 	1.1232947e-21 	0.017154166
0.23927951 	0.016312683 	-0.0047856225 	2.7473721e-21 	0.019228199 	1.7295756e-21 	0.017770553
0.25819535 	0.016736186 	-0.0052923879 	2.1061539e-21 	0.020114194 	-1.2220201e-21 	0.018425284
0.27852246 	0.017183039 	-0.0058390614 	4.0779219e-22 	0.021061308 	-3.4520088e-22 	0.019122237
0.30036613 	0.017659553 	-0.0064310251 	2.9594043e-22 	0.02207174 	8.1949451e-22 	0.019865682
0.32383951 	0.018174726 	-0.0070719488 	3.6048429e-22 	0.023145573 	-2.1503809e-21 	0.020660076
0.34906419 	0.018739549 	-0.0077645394 	-1.5451233e-21 	0.024280702 	-2.6414932e-21 	0.021510068
0.37617083 	0.019366956 	-0.0085115142 	-1.6191461e-21 	0.025472543 	3.6672276e-21 	0.022419147
0.40529983 	0.020079244 	-0.0093075779 	-1.1862185e-21 	0.026702806 	4.6881268e-21 	0.023389924
0.43660209 	0.020903978 	-0.010143146 	1.5871595e-21 	0.027940781 	-3.8497433e-22 	0.024421721
0.47023974 	0.021857737 	-0.011012328 	-3.3326107e-21 	0.029156231 	-7.4461982e-22 	0.025506019
0.50638702 	0.02294593 	-0.011899254 	-4.6180254e-21 	0.030307546 	-1.1807013e-21 	0.026624937
0.54523117 	0.024158012 	-0.01276901 	2.9340081e-21 	0.031335326 	-8.8376291e-22 	0.027744141
0.5869734 	0.025450489 	-0.013569547 	5.9063843e-21 	0.032169271 	3.2636553e-22 	0.028806381
0.63182992 	0.026737421 	-0.014237961 	1.6208024e-21 	0.032735305 	6.5050386e-22 	0.029731365
0.6800331 	0.027888919 	-0.014704809 	-3.6776622e-21 	0.03295997 	1.5792497e-21 	0.030417797
0.73183261 	0.028776436 	-0.014921111 	-8.1308758e-21 	0.032801438 	1.7678723e-21 	0.030781088
0.78749677 	0.029325119 	-0.01487833 	-8.5410506e-21 	0.032272421 	1.0939736e-21 	0.030789646
0.8473139 	0.029510927 	-0.014586276 	-1.0383412e-20 	0.031412654 	2.4858848e-22 	0.030451509
0.91159387 	0.02936668 	-0.014076249 	3.7521659e-21 	0.030294353 	-2.6946782e-21 	0.029819473
0.98066963 	0.028978451 	-0.013407301 	1.8842011e-20 	0.029023724 	-2.9654311e-21 	0.028989301
1.054899 	0.028434904 	-0.012643372 	2.7183005e-21 	0.027696588 	7.0775474e-22 	0.028053339
1.1346664 	0.02779094 	-0.01184169 	2.8523223e-22 	0.026366283 	1.2590561e-21 	0.02706608
1.166856 	0.027514048 	-0.011540323 	-1.8200989e-20 	0.025864362 	2.5982189e-21 	0.026676543
1.2204494 	0.027053322 	-0.011039662 	-4.5488285e-20 	0.025029612 	4.6798288e-21 	0.026029667
1.3126654 	0.026189222 	-0.010247593 	-5.9873116e-20 	0.023641239 	2.0178818e-21 	0.024905153
1.4117494 	0.025143468 	-0.0094601925 	6.5062671e-20 	0.022143578 	-8.650923e-21 	0.02363503
1.5182117 	0.023862828 	-0.008677801 	1.9831016e-19 	0.020528086 	-1.4043664e-20 	0.022188203
1.6246594 	0.02239293 	-0.0079369572 	1.9603389e-19 	0.018887903 	-8.8220618e-21 	0.020635167
1.7237033 	0.02087166 	-0.0072672361 	7.3993962e-20 	0.017312032 	-9.3564856e-22 	0.019087821
1.8158592 	0.019384531 	-0.0066483232 	2.0117144e-20 	0.015823121 	-1.7003223e-21 	0.017600591
1.9016069 	0.017966225 	-0.0060568922 	1.2145636e-19 	0.014437175 	-7.887303e-21 	0.016199321
1.9813925 	0.016640305 	-0.0054861959 	2.072269e-19 	0.013166731 	-6.0929476e-21 	0.014901714
2.0556311 	0.015422191 	-0.0049353928 	2.7319232e-20 	0.012017216 	3.3811647e-21 	0.013718377
2.1247088 	0.014318838 	-0.0044053176 	-6.1821649e-20 	0.010989318 	2.9334431e-21 	0.012653105
2.1889848 	0.013330282 	-0.0038970837 	-1.5113288e-20 	0.010079711 	-1.086251e-21 	0.011704294
2.2487932 	0.012451267 	-0.0034115256 	1.7793752e-20 	0.009282261 	-8.9343235e-23 	0.010866264
2.3044449 	0.01167305 	-0.0029490974 	-4.0700834e-20 	0.0085889432 	2.943033e-21 	0.010130644
2.356229 	0.010985003 	-0.0025099512 	-9.9241512e-20 	0.0079906993 	-5.5077276e-23 	0.0094876021
2.4044145 	0.01037593 	-0.0020940366 	8.4835016e-20 	0.0074780861 	-4.2608735e-21 	0.0089268335
2.4492518 	0.0098350215 	-0.0017011284 	3.0395584e-20 	0.0070417308 	1.5222642e-21 	0.0084382537
2.4909736 	0.0093524777 	-0.001330844 	-2.8453212e-20 	0.0066726543 	-1.6847815e-22 	0.0080124739
2.5297965 	0.0089198226 	-0.00098268655 	6.68134e-20 	0.0063624853 	-2.8408179e-21 	0.0076410809
2.5659222 	0.0085300369 	-0.0006560885 	5.2776199e-20 	0.0061035664 	1.1414099e-22 	0.0073167428
2.5828761 	0.0083522496 	-0.00050191926 	3.5183024e-20 	0.005995359 	7.923939e-22 	0.0071737486
2.5995508 	0.0081773795 	-0.00035023164 	1.7678211e-20 	0.0058889473 	1.4804037e-21 	0.0070331107
2.6308527 	0.007857558 	-6.4452951e-05 	-3.110248e-20 	0.0057125624 	7.4130085e-22 	0.0067850127
2.659977 	0.007567458 	0.00020185187 	2.5711134e-21 	0.0055691246 	-1.217255e-21 	0.0065682479
2.6870756 	0.0073046857 	0.00044950275 	2.5307457e-20 	0.0054540305 	7.5528923e-22 	0.0063793174
2.7122895 	0.0070675735 	0.00067937922 	-3.9448417e-20 	0.0053634253 	6.1282694e-22 	0.0062154626
2.7357501 	0.0068549923 	0.00089241123 	1.1380056e-20 	0.0052941346 	-1.3364974e-21 	0.0060745261
2.7575795 	0.006666206 	0.0010895314 	1.2099549e-20 	0.0052436415 	1.1923136e-21 	0.0059548852
2.7778912 	0.0065008324 	0.0012717241 	-3.3154239e-20 	0.0052100711 	9.1631883e-22 	0.0058554151
2.7967909 	0.0063587568 	0.0014400095 	-9.0352271e-21 	0.00519213 	-1.0800547e-21 	0.0057754087
2.8143769 	0.0062400757 	0.0015953762 	7.0816405e-21 	0.0051890722 	-9.3832932e-22 	0.0057145412
2.8307405 	0.0061450751 	0.0017387493 	1.7426154e-20 	0.0052006752 	-1.3274494e-22 	0.0056728463
2.8459669 	0.0060742408 	0.0018711255 	5.944394e-21 	0.0052271784 	1.0324623e-21 	0.0056506818
2.8601351 	0.0060281946 	0.0019936245 	-1.1693085e-20 	0.0052692213 	8.1338962e-22 	0.0056486811
2.8733187 	0.0060077393 	0.0021073123 	-1.2591501e-20 	0.0053278639 	-3.5517564e-22 	0.0056677776
2.8855863 	0.0060138942 	0.0022131611 	1.5838555e-22 	0.005404532 	1.9424087e-22 	0.0057091908
2.8970015 	0.0060477928 	0.0023120908 	-1.199165e-20 	0.005500896 	-9.9303827e-23 	0.0057743239
2.9076235 	0.006110634 	0.0024049401 	1.7638483e-21 	0.0056187965 	-1.5158864e-21 	0.0058646967
2.9175076 	0.0062036556 	0.0024924425 	1.644225e-20 	0.0057601843 	3.8581518e-23 	0.0059819033
2.9267051 	0.0063280288 	0.0025751732 	4.6881466e-22 	0.005926984 	1.3697186e-21 	0.006127491
2.9352636 	0.0064847155 	0.002653506 	-8.0619918e-21 	0.0061209265 	-7.3605739e-23 	0.0063028071
2.9432275 	0.0066743133 	0.0027275985 	1.0848026e-21 	0.0063433616 	-4.2761753e-22 	0.0065088252
2.9506383 	0.0068967638 	0.0027973202 	-3.6127257e-23 	0.0065949546 	3.4885584e-22 	0.0067458481
2.9575343 	0.0071511027 	0.0028622245 	-3.1126363e-21 	0.0068754199 	-6.7473965e-22 	0.0070132512
2.9639513 	0.0074352542 	0.0029215541 	6.3128408e-21 	0.0071832929 	-5.3235399e-22 	0.0073092645
2.9699226 	0.0077457679 	0.0029742304 	3.1577324e-21 	0.0075156531 	7.2146612e-22 	0.0076307024
2.9754792 	0.0080776008 	0.0030188702 	-1.7059311e-21 	0.0078678984 	3.0082819e-22 	0.0079727424
2.9806499 	0.0084239674 	0.0030538132 	-3.7251969e-22 	0.0082335926 	-1.4888406e-22 	0.0083287737
2.9854614 	0.0087762627 	0.0030771588 	-7.6913896e-23 	0.0086043883 	4.1827375e-23 	0.00869032
2.9899388 	0.0091240474 	0.003086804 	-5.1480969e-22 	0.0089700146 	-1.6155588e-22 	0.0090470261
2.9941053 	0.0094550774 	0.0030804745 	8.0955841e-22 	0.0093183125 	-1.4236866e-22 	0.0093866907
2.9979824 	0.0097553477 	0.0030557417 	5.4990113e-22 	0.0096352885 	2.4522076e-22 	0.0096953144
3.0015902 	0.010009121 	0.0030100228 	-6.4542746e-22 	0.0099051555 	5.4856352e-23 	0.009957135
3.0049475 	0.010198905 	0.0029405418 	3.3189621e-23 	0.010110325 	-3.8643684e-23 	0.010154612
3.0080717 	0.010305469 	0.0028442622 	-2.0400353e-22 	0.010231432 	-5.3242386e-23 	0.010268448
3.0109789 	0.010308147 	0.0027179302 	1.5722492e-22 	0.01024766 	-9.6060401e-23 	0.010277901
3.0136843 	0.010185126 	0.0025580021 	2.0081197e-22 	0.010137038 	4.5520708e-23 	0.01016108
3.0162017 	0.0099146313 	0.0023607619 	-4.4112353e-23 	0.0098776412 	5.7586316e-23 	0.0098961352
3.0185444 	0.0094780291 	0.0021229403 	-1.484799e-23 	0.0094507038 	5.4743201e-23 	0.0094643652
3.0207244 	0.0088654872 	0.0018429998 	-1.2113059e-22 	0.008846293 	-3.1883751e-23 	0.0088558872
3.022753 	0.0080860886 	0.0015201 	3.5132395e-23 	0.008073427 	-4.772601e-23 	0.0080797586
3.0246408 	0.0071916736 	0.0012048586 	1.245201e-23 	0.0071836918 	3.3062294e-24 	0.0071876868
3.0263975 	0.0062582566 	0.00094661579 	7.1224548e-24 	0.0062532384 	1.6065081e-23 	0.0062557472
3.0280322 	0.0053362142 	0.00071782308 	-7.9805535e-24 	0.0053331609 	1.329864e-23 	0.0053346859
3.0295534 	0.004462097 	0.000503264 	-6.31881e-24 	0.004460407 	-7.8243845e-24 	0.004461252
3.030969 	0.0036805424 	0.00032119427 	1.8558881e-24 	0.0036797152 	-4.1431462e-24 	0.0036801288
3.0322862 	0.00303312 	0.00018292373 	3.5341602e-26 	0.0030327752 	1.2514596e-24 	0.0030329473
3.0335121 	0.0025465336 	8.8984851e-05 	8.0280967e-27 	0.0025464196 	1.0454828e-25 	0.0025464767
3.0346528 	0.002229888 	3.0314391e-05 	-1.3364042e-26 	0.0022298639 	3.3551329e-27 	0.0022298762
3.0357143 	0 	0 	0 	0 	0 	0
