0 	0 	0 	0
0.0010637159 	-0.016215092 	-1.1654129e-05 	7.0086007e-24
0.0022067933 	-0.029335116 	-4.8894819e-05 	0
0.0034351532 	-0.039475112 	-0.00010965692 	-5.5924279e-24
0.0047551584 	-0.047347374 	-0.00019418214 	-1.1892709e-23
0.0061736463 	-0.053479076 	-0.00030311265 	-6.3087777e-24
0.0076979646 	-0.058106406 	-0.0004350344 	2.0402473e-24
0.0093360089 	-0.06153557 	-0.00058854248 	3.5637292e-24
0.011096264 	-0.064130523 	-0.00076397367 	-3.8905855e-24
0.012987848 	-0.066145572 	-0.00096135785 	-5.4177637e-24
0.015020559 	-0.067731639 	-0.0011810172 	4.3125791e-24
0.017204926 	-0.068983029 	-0.001423856 	6.1951629e-24
0.019552264 	-0.069961086 	-0.0016910399 	1.7724987e-24
0.022074732 	-0.070706811 	-0.0019839583 	1.6182187e-24
0.024785396 	-0.071247956 	-0.0023042041 	1.0957041e-23
0.027698296 	-0.071603213 	-0.0026535604 	1.8157755e-23
0.030828522 	-0.071784768 	-0.0030339948 	6.0120361e-24
0.034192287 	-0.071799921 	-0.003447659 	1.8766239e-23
0.037807015 	-0.071652117 	-0.0038968916 	1.6566731e-23
0.04169143 	-0.071341609 	-0.0043842232 	-5.0926201e-24
0.045865653 	-0.07086588 	-0.0049123829 	-5.0303948e-24
0.050351306 	-0.070219879 	-0.005484306 	-1.0225291e-25
0.055171623 	-0.069396148 	-0.0061031423 	-9.3878846e-24
0.060351574 	-0.068384836 	-0.006772264 	-6.3872073e-25
0.06591799 	-0.067173641 	-0.0074952743 	-2.3633165e-23
0.071899704 	-0.06574768 	-0.0082760146 	-4.5176699e-23
0.078327701 	-0.064089295 	-0.0091185709 	6.3931657e-25
0.085235276 	-0.062177792 	-0.010027277 	8.5007831e-24
0.092658211 	-0.059989121 	-0.011006719 	-9.7317323e-23
0.10063495 	-0.057495493 	-0.012061725 	-9.7886159e-23
0.10920683 	-0.05466492 	-0.013197367 	5.8407719e-23
0.11841823 	-0.051460689 	-0.014418936 	5.8505879e-23
0.12831687 	-0.047840762 	-0.015731923 	5.9726389e-23
0.13895403 	-0.043757086 	-0.017141975 	5.9971912e-23
0.1503848 	-0.03915483 	-0.018654842 	0
0.1626684 	-0.033971536 	-0.020276302 	1.2868933e-22
0.17586845 	-0.028136189 	-0.022012053 	1.29341e-22
0.19005333 	-0.021568223 	-0.023867572 	-3.3757911e-23
0.20529651 	-0.014176548 	-0.025847897 	-1.2982442e-22
0.22167696 	-0.0058590306 	-0.02795709 	-9.4809365e-23
0.23927951 	0.0034949155 	-0.03019732 	-6.1158959e-23
0.25819535 	0.01400463 	-0.032568475 	-6.5501474e-23
0.27852246 	0.025806902 	-0.035068953 	-7.1645351e-24
0.30036613 	0.039059332 	-0.037695858 	-6.9403855e-22
0.32383951 	0.05393686 	-0.040443533 	2.36429e-23
0.34906419 	0.0706303 	-0.043302103 	1.5970013e-21
0.37617083 	0.089345079 	-0.046256399 	8.7437915e-22
0.40529983 	0.11029852 	-0.049284559 	1.0008479e-22
0.43660209 	0.13371495 	-0.052356412 	-1.7607423e-21
0.47023974 	0.1598176 	-0.055431732 	-1.8598407e-21
0.50638702 	0.1888161 	-0.058458364 	-2.283242e-22
0.54523117 	0.22089112 	-0.061370709 	-8.2131569e-23
0.5869734 	0.25616854 	-0.064089239 	7.0875132e-23
0.63182993 	0.29467307 	-0.066521152 	7.7415806e-21
0.67506132 	0.33199164 	-0.068353864 	1.5088666e-20
0.6800331 	0.33628522 	-0.068564348 	1.5877796e-20
0.73183261 	0.38071211 	-0.070113514 	7.6654775e-21
0.78749677 	0.42745635 	-0.071079895 	-1.9818251e-22
0.84731391 	0.47580226 	-0.071396295 	0
0.91159388 	0.52485983 	-0.071033561 	-6.7504289e-21
0.98066963 	0.57366287 	-0.070006746 	-6.0699277e-21
1.054899 	0.6213057 	-0.068370315 	1.8743343e-24
1.1346664 	0.66707569 	-0.066203482 	2.2932167e-21
1.2203851 	0.71053483 	-0.06359246 	3.2372481e-21
1.3124991 	0.75152936 	-0.060614985 	-9.1749796e-21
1.4114856 	0.79014015 	-0.05733372 	-6.6954581e-21
1.5178571 	0.82622586 	-0.053842274 	5.667201e-21
1.6242287 	0.85850329 	-0.050371616 	-5.3264648e-21
1.7232152 	0.88613065 	-0.047124126 	-1.7023947e-20
1.8153292 	0.90967538 	-0.04412122 	-2.3017177e-21
1.9010479 	0.92985913 	-0.041332552 	6.6519024e-21
1.9808153 	0.9471906 	-0.038732498 	-2.2227963e-21
2.0550447 	0.96204629 	-0.036300741 	7.738936e-22
2.1241204 	0.97472323 	-0.034021884 	2.9552092e-21
2.1884004 	0.98547075 	-0.031884171 	0
2.2482175 	0.99450815 	-0.029878372 	0
2.3038817 	1.0020332 	-0.027996837 	1.8386072e-23
2.3556812 	1.008225 	-0.026232829 	3.1369746e-24
2.4038844 	1.0132451 	-0.024580091 	-1.2089027e-21
2.4487409 	1.0172362 	-0.023032605 	-1.8632994e-21
2.4904831 	1.0203229 	-0.021584474 	-4.0169152e-22
2.5293273 	1.0226111 	-0.020229894 	3.4684669e-22
2.5654745 	1.0241891 	-0.01896316 	2.900733e-21
2.5991122 	1.0251291 	-0.017778699 	4.2663347e-21
2.6304145 	1.0254877 	-0.016671091 	1.2100063e-21
2.6595435 	1.0253083 	-0.015635102 	6.1826469e-22
2.6866501 	1.0246213 	-0.014665692 	7.6413155e-22
2.7118748 	1.0234464 	-0.013758025 	-1.5357854e-22
2.7353482 	1.0217924 	-0.012907472 	7.3109886e-22
2.7571918 	1.0196586 	-0.012109602 	8.7875118e-22
2.7775189 	1.0170351 	-0.01136018 	-5.1439034e-22
2.7964348 	1.013903 	-0.010655156 	-5.7332711e-22
2.8140373 	1.0102344 	-0.0099906616 	-6.2756813e-23
2.8304178 	1.0059933 	-0.0093630094 	3.1465755e-23
2.845661 	1.0011347 	-0.0087686948 	2.9181173e-23
2.8598458 	0.99560523 	-0.0082043955 	0
2.8730459 	0.9893438 	-0.0076670023 	0
2.8853295 	0.98228229 	-0.0071536515 	0
2.8967603 	0.97434712 	-0.0066617568 	-2.2497085e-22
2.9073974 	0.96546134 	-0.0061890655 	-4.4964684e-22
2.9172961 	0.95554746 	-0.0057337117 	-2.1048699e-22
2.9265075 	0.94453075 	-0.0052942675 	1.3567083e-23
2.9350793 	0.93234305 	-0.0048697825 	5.8217222e-22
2.9430561 	0.91892633 	-0.0044597995 	4.3033375e-22
2.950479 	0.90423574 	-0.0040643411 	-5.0209034e-22
2.9573866 	0.88824155 	-0.00368386 	-3.4395709e-22
2.9638146 	0.87092951 	-0.0033191555 	-1.9600384e-22
2.9697963 	0.85229953 	-0.0029712649 	-3.9787177e-22
2.9753627 	0.83236274 	-0.00264134 	-3.0488902e-22
2.9805427 	0.81113707 	-0.0023305255 	-1.0636483e-22
2.985363 	0.78864194 	-0.0020398508 	-2.7428848e-24
2.9898486 	0.76489241 	-0.0017701446 	-2.5000859e-24
2.9940229 	0.73989322 	-0.0015219777 	0
2.9979073 	0.71363297 	-0.0012956339 	-1.3880649e-22
3.001522 	0.6860786 	-0.001091105 	-2.1125254e-22
3.0048858 	0.65716983 	-0.00090810532 	-7.2459617e-23
3.008016 	0.62681453 	-0.00074609928 	0
3.0109289 	0.59488486 	-0.00060433724 	4.2481211e-23
3.0136396 	0.56121343 	-0.00048188137 	-4.8211981e-24
3.016162 	0.52559195 	-0.00037763207 	-4.7574849e-23
3.0185094 	0.48777682 	-0.0002903487 	-5.487126e-23
3.0206937 	0.44750826 	-0.00021867191 	-1.1285353e-22
3.0227264 	0.40455907 	-0.00016117396 	-5.8476837e-23
3.024618 	0.35895113 	-0.00011597141 	-3.2495261e-25
3.0263783 	0.31148251 	-8.1047968e-05 	-3.4707079e-23
3.0280163 	0.26346205 	-5.4518877e-05 	-3.3965212e-23
3.0295406 	0.21574434 	-3.468464e-05 	3.5872723e-23
3.0309591 	0.16884943 	-2.0355062e-05 	3.5265294e-23
3.0322791 	0.12339306 	-1.0536401e-05 	-1.6900491e-23
3.0335075 	0.079961447 	-4.4380254e-06 	-1.6890292e-23
3.0346506 	0.038975675 	-6.3575739e-07 	1.0348329e-23
3.0357143 	0 	0 	0
