-1.5971834e-09 	0 	0 	0 	0 	0 	0
0.0010637143 	0.001286723 	-0.00012701398 	6.9440875e-25 	0.0012837794 	3.6675434e-26 	0.0012852542
0.0022067917 	0.0020340427 	-0.00034674288 	7.9516371e-24 	0.0020237303 	-2.1433933e-22 	0.0020288906
0.0034351516 	0.0027230062 	-0.00058102191 	1.0776217e-26 	0.0027005175 	6.7460452e-23 	0.0027117534
0.0047551568 	0.0033481769 	-0.00077949984 	-7.1244064e-23 	0.0033092082 	8.5118016e-22 	0.0033286658
0.0061736447 	0.0039242301 	-0.00093003624 	1.0926732e-23 	0.0038648857 	-4.2695633e-22 	0.0038945773
0.0076979629 	0.0044610696 	-0.0010749789 	2.5864973e-22 	0.0043724823 	-5.7023379e-22 	0.0044168468
0.0093360072 	0.0049518944 	-0.001232882 	-1.9392262e-22 	0.0048207262 	1.769384e-21 	0.0048863043
0.011096262 	0.0053921168 	-0.0013605282 	-8.2389103e-22 	0.0052082495 	-2.0721847e-24 	0.0053001224
0.012987846 	0.0057920671 	-0.0014569877 	1.708512e-22 	0.0055483159 	-2.1972544e-21 	0.0056701707
0.015020557 	0.0061640074 	-0.0015399012 	6.1201138e-22 	0.0058538635 	-6.4861905e-22 	0.006008933
0.017204925 	0.0065164322 	-0.0016150852 	8.8437985e-22 	0.006133721 	8.4624016e-22 	0.0063250719
0.019552263 	0.0068553507 	-0.0016861017 	-1.1880124e-22 	0.0063940891 	8.18965e-22 	0.0066247157
0.022074731 	0.0071851197 	-0.0017552815 	9.7065487e-23 	0.0066395145 	2.8504166e-23 	0.0069123134
0.024785394 	0.0075090056 	-0.0018242557 	-1.3862264e-22 	0.0068734241 	1.3870489e-21 	0.0071912112
0.027698295 	0.0078295275 	-0.0018942443 	-2.6737849e-21 	0.0070984917 	-8.1527845e-22 	0.0074640057
0.03082852 	0.0081486774 	-0.0019662223 	1.9282208e-21 	0.0073168752 	-2.3994735e-21 	0.0077327718
0.034192285 	0.0084680664 	-0.0020410116 	1.5566051e-21 	0.0075303752 	1.675565e-21 	0.0079992157
0.037807013 	0.0087890243 	-0.0021193468 	-1.5881895e-21 	0.0077405443 	9.1336438e-23 	0.0082647782
0.041691429 	0.0091126677 	-0.0022019127 	2.1485562e-21 	0.0079487642 	-4.1829001e-24 	0.0085307086
0.045865651 	0.0094399498 	-0.0022893627 	-2.5654627e-21 	0.0081563029 	1.5199658e-21 	0.0087981176
0.050351304 	0.0097716876 	-0.002382344 	-2.0493421e-21 	0.0083643506 	-1.8100678e-21 	0.0090680085
0.055171622 	0.010108585 	-0.0024815095 	2.2639056e-21 	0.0085740492 	5.2719672e-23 	0.0093413041
0.060351572 	0.010451259 	-0.0025875232 	-2.8813717e-21 	0.0087865243 	7.755048e-22 	0.0096188762
0.065917988 	0.010800267 	-0.0027010707 	2.8752316e-22 	0.0090029095 	-1.7916465e-21 	0.00990157
0.071899702 	0.011156118 	-0.0028228603 	2.7406959e-21 	0.0092243625 	-6.6118179e-22 	0.010190219
0.078327699 	0.011519284 	-0.0029536311 	3.1842189e-21 	0.0094520786 	4.2501607e-22 	0.010485656
0.085235274 	0.011890209 	-0.0030941592 	3.4436806e-21 	0.0096873016 	2.9448267e-21 	0.010788726
0.092658209 	0.012269322 	-0.0032452485 	-6.5894029e-21 	0.0099313307 	1.250217e-21 	0.011100293
0.10063495 	0.012657044 	-0.0034077349 	-3.5369405e-21 	0.01018553 	-3.058597e-21 	0.011421249
0.10920682 	0.013053799 	-0.0035824982 	2.7831342e-21 	0.010451332 	-6.379751e-22 	0.011752522
0.11841822 	0.013460022 	-0.0037704522 	-5.657514e-22 	0.010730243 	8.8026527e-22 	0.012095085
0.12831687 	0.013876173 	-0.0039725391 	6.6065628e-22 	0.011023843 	8.219068e-22 	0.012449956
0.13895403 	0.014302745 	-0.00418974 	-4.4231919e-21 	0.011333784 	6.1804166e-22 	0.012818208
0.1503848 	0.014740274 	-0.0044230639 	-6.1232271e-21 	0.011661792 	-2.7510949e-21 	0.013200974
0.1626684 	0.01518935 	-0.0046735385 	4.9393631e-21 	0.012009655 	-1.9793969e-21 	0.013599443
0.17586845 	0.015650621 	-0.0049422102 	7.3807253e-21 	0.012379216 	1.7801225e-21 	0.014014861
0.19005333 	0.016124802 	-0.0052301293 	1.6287684e-21 	0.012772358 	5.0174058e-22 	0.014448529
0.20529651 	0.016612671 	-0.0055383299 	4.2914777e-21 	0.013190984 	1.833289e-21 	0.014901788
0.22167695 	0.017115062 	-0.0058678153 	-6.2863427e-21 	0.01363699 	1.2577728e-21 	0.015376007
0.23927951 	0.01763286 	-0.0062195252 	-3.4980281e-21 	0.014112222 	-2.7001434e-21 	0.015872551
0.25819535 	0.018166956 	-0.0065942953 	3.86059e-21 	0.014618429 	-1.1198829e-21 	0.016392745
0.27852246 	0.018718209 	-0.0069928118 	2.8679002e-21 	0.015157196 	6.6901479e-22 	0.016937816
0.30036613 	0.019287375 	-0.0074155452 	7.7179036e-21 	0.015729853 	3.1315167e-21 	0.01750881
0.32383951 	0.019875002 	-0.0078626699 	-7.1944747e-21 	0.016337364 	1.4701806e-21 	0.018106488
0.34906419 	0.020481285 	-0.0083339595 	-9.3082087e-21 	0.016980172 	-2.7441754e-21 	0.018731177
0.37617083 	0.021105873 	-0.0088286571 	-1.8897687e-21 	0.017658017 	-2.9731869e-21 	0.019382576
0.40529983 	0.021747618 	-0.0093452939 	7.4432558e-21 	0.018369677 	1.3825271e-21 	0.020059509
0.43660209 	0.02240427 	-0.0098815103 	-4.5440254e-21 	0.019112645 	7.0953019e-22 	0.020759605
0.47023974 	0.023072068 	-0.010433889 	8.3571826e-21 	0.019882747 	1.3146416e-21 	0.021478906
0.50638702 	0.023745132 	-0.010997637 	-6.1397316e-21 	0.020673669 	8.6489845e-22 	0.022211325
0.54523117 	0.024414877 	-0.011566275 	-2.098306e-20 	0.02147644 	-4.9969351e-21 	0.022948091
0.5869734 	0.025069334 	-0.012131321 	6.4197511e-21 	0.022278863 	3.8812169e-22 	0.023677129
0.63182992 	0.025692272 	-0.012681905 	-9.9221136e-21 	0.023064847 	-3.068272e-22 	0.024382271
0.6800331 	0.026262314 	-0.013204359 	8.7503515e-21 	0.023813742 	-3.5820337e-21 	0.025042511
0.73183261 	0.026752927 	-0.013682396 	3.1183693e-20 	0.024500209 	4.7855989e-21 	0.025631928
0.78749677 	0.027132231 	-0.014097067 	4.6036946e-21 	0.025093991 	6.6301227e-21 	0.026119394
0.8473139 	0.027362063 	-0.014426004 	-3.6229281e-20 	0.025559466 	-3.1668828e-21 	0.026468012
0.91159387 	0.0273991 	-0.014643109 	-6.854599e-21 	0.025857158 	-4.4258649e-21 	0.026636353
0.98066963 	0.027202968 	-0.014725388 	1.9409237e-20 	0.025950779 	-6.437847e-22 	0.026586048
1.054899 	0.026729668 	-0.014646375 	2.5523465e-20 	0.02580049 	-4.5574327e-22 	0.026275181
1.1346664 	0.025940033 	-0.01438024 	6.6185494e-20 	0.025370331 	6.2420205e-21 	0.025666047
1.1668532 	0.025519264 	-0.01420594 	4.0037654e-20 	0.025098024 	2.9550791e-21 	0.025319714
1.2204494 	0.024819129 	-0.013915915 	-2.3566315e-21 	0.024646898 	-2.4249248e-21 	0.024743462
1.3126654 	0.02337457 	-0.013250775 	1.6423649e-19 	0.023633868 	5.7231281e-21 	0.023513612
1.4117494 	0.021642295 	-0.012394891 	1.3265394e-19 	0.022353943 	1.6862736e-20 	0.022006353
1.5182117 	0.019710399 	-0.011395253 	-8.5426039e-20 	0.020875832 	-1.6789867e-21 	0.020300126
1.6246594 	0.017767061 	-0.010359462 	7.5811998e-20 	0.01935374 	2.3483513e-22 	0.018566382
1.7237033 	0.015983252 	-0.0093764178 	6.4330746e-20 	0.017924296 	5.0790548e-21 	0.016958502
1.8158592 	0.014401027 	-0.0084608205 	9.453204e-21 	0.016622784 	2.782433e-21 	0.015515486
1.9016069 	0.01301008 	-0.0076084281 	-2.1449179e-20 	0.015447597 	-3.8323031e-22 	0.014231644
1.9813925 	0.011793303 	-0.0068158665 	7.0329758e-21 	0.014389729 	-1.2438178e-21 	0.013093631
2.0556311 	0.010731946 	-0.0060772143 	5.3153272e-20 	0.013438162 	3.07643e-21 	0.012086644
2.1247088 	0.0098080811 	-0.0053862565 	-2.9792116e-20 	0.012582513 	-1.4773926e-21 	0.011196471
2.1889848 	0.0090058195 	-0.004737729 	5.3096539e-20 	0.011813113 	-9.032283e-22 	0.010410322
2.2487932 	0.0083112136 	-0.0041274702 	5.7613442e-20 	0.011120866 	1.9970481e-21 	0.0097166509
2.3044449 	0.0077120995 	-0.0035524602 	5.519971e-20 	0.010497312 	4.6724673e-22 	0.0091051342
2.356229 	0.0071978952 	-0.0030106926 	9.8710083e-20 	0.0099348728 	5.0303468e-21 	0.0085666802
2.4044145 	0.006759142 	-0.0025006968 	-4.2116117e-20 	0.009426617 	3.1732289e-21 	0.0080930809
2.4492518 	0.0063873024 	-0.002021322 	-6.953709e-20 	0.0089663606 	-2.6432525e-21 	0.0076769654
2.4909736 	0.0060746977 	-0.0015716077 	-1.5446648e-20 	0.0085488465 	-1.2952527e-21 	0.0073118594
2.5297965 	0.005814428 	-0.0011506289 	-3.1636141e-20 	0.0081697532 	-1.0876684e-21 	0.0069921468
2.5659222 	0.0056003228 	-0.00075741534 	1.9483568e-22 	0.0078256706 	-1.2936947e-21 	0.0067130334
2.5828744 	0.0055128449 	-0.00057260223 	8.5681459e-21 	0.0076685692 	-3.0989058e-22 	0.0065907374
2.5995508 	0.0054268689 	-0.0003907737 	1.6403484e-20 	0.0075139666 	6.0516715e-22 	0.0064704416
2.6308527 	0.0052893561 	-4.9608158e-05 	-6.5771001e-21 	0.0072328779 	2.3508922e-21 	0.0062611321
2.659977 	0.0051837717 	0.00026716252 	-6.2005944e-20 	0.0069813601 	-6.7660413e-22 	0.0060825758
2.6870756 	0.0051067189 	0.00056081926 	-1.7106598e-20 	0.0067588388 	-3.1171504e-21 	0.0059327862
2.7122895 	0.0050554706 	0.00083265578 	2.6555096e-20 	0.0065651662 	7.1939153e-22 	0.0058103252
2.7357501 	0.0050279306 	0.0010839239 	-1.8899736e-20 	0.0064004904 	2.4345427e-21 	0.0057142164
2.7575795 	0.0050226178 	0.0013157403 	-4.2469092e-20 	0.0062652032 	-1.346138e-21 	0.0056439139
2.7778912 	0.0050385632 	0.0015291419 	4.078747e-22 	0.0061598458 	-2.5885932e-21 	0.0055992086
2.7967909 	0.0050752065 	0.001725153 	2.2985752e-20 	0.0060849184 	1.0961472e-21 	0.0055800679
2.8143769 	0.005132278 	0.0019046223 	-1.3844065e-20 	0.0060407071 	8.0914364e-22 	0.0055864966
2.8307405 	0.0052097321 	0.0020682484 	-1.9801504e-21 	0.0060273308 	-2.5292494e-22 	0.0056185355
2.8459669 	0.0053075446 	0.0022166391 	-5.5044878e-21 	0.0060445712 	6.1964996e-22 	0.0056760627
2.8601351 	0.0054254115 	0.0023502748 	-1.2791845e-20 	0.0060915927 	2.6189173e-22 	0.005758507
2.8733187 	0.0055626724 	0.0024695881 	-1.0806801e-20 	0.0061669783 	-1.4086982e-21 	0.0058648303
2.8855863 	0.0057182261 	0.0025749886 	8.4470523e-21 	0.0062687189 	-4.3777909e-22 	0.0059934774
2.8970015 	0.0058904653 	0.0026668864 	2.2471122e-22 	0.0063942068 	6.1464753e-22 	0.0061423409
2.9076235 	0.0060772965 	0.0027457287 	-1.5975453e-21 	0.0065403182 	-1.045974e-21 	0.006308812
2.9175076 	0.006276227 	0.0028120211 	1.1872763e-20 	0.0067035516 	-3.1698019e-22 	0.0064898938
2.9267051 	0.0064844989 	0.0028663421 	4.4488304e-21 	0.0068802033 	1.2430874e-21 	0.0066823554
2.9352636 	0.006699246 	0.0029093446 	-3.5034979e-21 	0.007066554 	4.0869042e-22 	0.006882904
2.9432275 	0.0069176466 	0.0029417446 	-1.3539921e-21 	0.0072590384 	-4.8066505e-22 	0.0070883461
2.9506383 	0.007137045 	0.0029642976 	1.5935704e-21 	0.0074543755 	8.5472652e-23 	0.0072957135
2.9575343 	0.0073550247 	0.0029777662 	-1.4678013e-21 	0.0076496421 	7.9073053e-23 	0.0075023363
2.9639513 	0.0075694287 	0.0029828801 	3.6890142e-22 	0.0078422885 	2.8059579e-23 	0.0077058612
2.9699226 	0.0077783248 	0.0029802917 	-1.2563765e-21 	0.008030095 	2.8218017e-23 	0.0079042122
2.9754792 	0.007979919 	0.0029705282 	-9.3134184e-23 	0.0082110747 	-2.1419829e-22 	0.0080954988
2.9806499 	0.0081724233 	0.00295394 	5.8932207e-22 	0.0083833291 	-8.5471147e-23 	0.008277878
2.9854614 	0.0083538775 	0.0029306435 	4.7908196e-22 	0.0085448574 	-1.5885725e-23 	0.008449369
2.9899388 	0.0085219232 	0.0029004556 	5.7733529e-22 	0.0086933184 	2.4199313e-22 	0.0086076222
2.9941053 	0.00867352 	0.0028628154 	-9.3635811e-22 	0.0088257358 	1.2631494e-22 	0.0087496291
2.9979824 	0.008804589 	0.0028166885 	-3.1363071e-22 	0.0089381304 	-3.9436976e-23 	0.0088713608
3.0015902 	0.0089095628 	0.0027604427 	-4.3623048e-22 	0.0090250619 	-9.9985527e-23 	0.0089673134
3.0049475 	0.0089808252 	0.0026916888 	1.4373292e-22 	0.0090790602 	-7.775442e-23 	0.0090299437
3.0080717 	0.0090080431 	0.0026070845 	6.4642887e-23 	0.0090899511 	2.9486158e-23 	0.0090489981
3.0109789 	0.0089774625 	0.0025021458 	-2.3795921e-23 	0.0090441473 	-3.1936947e-23 	0.0090108059
3.0136843 	0.0088711264 	0.0023709932 	1.3093616e-22 	0.008923862 	7.6011551e-24 	0.0088974951
3.0162017 	0.0086668673 	0.0022063626 	-2.3655127e-23 	0.0087071 	-1.4882877e-23 	0.0086869842
3.0185444 	0.0083400342 	0.0020002586 	8.1999078e-23 	0.0083693755 	-3.3782501e-23 	0.0083547063
3.0207244 	0.0078687241 	0.0017459785 	4.2015692e-23 	0.007888937 	1.4084913e-23 	0.0078788346
3.022753 	0.0072461507 	0.0014371107 	1.4883022e-23 	0.0072591195 	6.3385001e-23 	0.0072526329
3.0246408 	0.0065137766 	0.0011477539 	-4.3684009e-23 	0.0065218192 	1.8156891e-23 	0.0065177915
3.0263975 	0.0057324978 	0.00091437299 	-1.3475285e-23 	0.0057375708 	-4.8617317e-23 	0.0057350349
3.0280322 	0.0049419602 	0.0006915954 	1.8710711e-23 	0.0049450222 	-6.7614103e-24 	0.0049434931
3.0295534 	0.0041845766 	0.00048515273 	-3.8245175e-25 	0.0041862678 	1.2216055e-23 	0.0041854221
3.030969 	0.0035112876 	0.000311923 	-7.4272828e-26 	0.0035121212 	-5.2931311e-26 	0.0035117042
3.0322862 	0.0029686247 	0.000181106 	-1.1423583e-25 	0.0029689807 	-1.1792118e-24 	0.0029688023
3.0335121 	0.0025878285 	9.1140704e-05 	2.0273896e-25 	0.0025879485 	-1.5570539e-25 	0.0025878892
3.0346528 	0.0023839471 	3.233583e-05 	-4.4049195e-27 	0.0023839717 	2.5835151e-25 	0.0023839602
3.0357143 	0 	0 	0 	0 	0 	0
