/*--------------------------------*- C++ -*----------------------------------*\
| =========                 |                                                 |
| \\      /  F ield         | OpenFOAM: The Open Source CFD Toolbox           |
|  \\    /   O peration     | Version:  2.4.0                                 |
|   \\  /    A nd           | Web:      www.OpenFOAM.org                      |
|    \\/     M anipulation  |                                                 |
\*---------------------------------------------------------------------------*/
FoamFile
{
    version     2.0;
    format      ascii;
    class       volScalarField;
    location    "30";
    object      k;
}
// * * * * * * * * * * * * * * * * * * * * * * * * * * * * * * * * * * * * * //

dimensions      [0 2 -2 0 0 0 0];

internalField   nonuniform List<scalar> 
19650
(
0.014418774
0.013043848
0.011661202
0.010274764
0.0089017987
0.0075509427
0.0062276481
0.004971634
0.0037934714
0.0027198392
0.0018382243
0.0012157478
0.00079999103
0.00052837445
0.00035175541
0.00023634637
0.00016048482
0.00010987717
7.5418171e-05
5.1788965e-05
3.5730503e-05
2.4808543e-05
1.7444415e-05
1.2445318e-05
8.9614669e-06
6.4708267e-06
4.6806382e-06
3.4172439e-06
2.5205535e-06
1.8790913e-06
1.4224509e-06
1.090884e-06
8.4427549e-07
6.5571517e-07
5.0833453e-07
3.9283297e-07
3.0322297e-07
2.3440687e-07
1.8207633e-07
1.4266359e-07
1.1288827e-07
9.0285219e-08
7.2839572e-08
5.9344258e-08
4.8678973e-08
4.0356276e-08
3.3384138e-08
2.7561451e-08
2.2737958e-08
1.8774573e-08
1.5549522e-08
1.2951119e-08
1.0875676e-08
9.2220146e-09
7.9054374e-09
6.8596825e-09
6.0285094e-09
5.3719956e-09
4.8515181e-09
4.4432524e-09
4.1213933e-09
3.8711197e-09
3.677829e-09
3.5307475e-09
3.4175848e-09
0.011513749
0.010150974
0.0087983126
0.0074540972
0.0061490244
0.004904638
0.0037124868
0.0026411188
0.0017947584
0.0012033051
0.00080062534
0.00053279249
0.00035611235
0.0002396038
0.00016235303
0.00011072813
7.595388e-05
5.2244956e-05
3.6069239e-05
2.5056682e-05
1.7543225e-05
1.239845e-05
8.8555725e-06
6.3917907e-06
4.6568884e-06
3.4198149e-06
2.5424046e-06
1.9140669e-06
1.4571174e-06
1.1180785e-06
8.6045047e-07
6.6174986e-07
5.0778033e-07
3.8977065e-07
3.0074091e-07
2.3353369e-07
1.8227716e-07
1.4322598e-07
1.1333615e-07
9.0197816e-08
7.206631e-08
5.7808965e-08
4.6531406e-08
3.7679552e-08
3.0684985e-08
2.5260202e-08
2.0807611e-08
1.7172654e-08
1.4229011e-08
1.1861014e-08
9.9660441e-09
8.4546771e-09
7.2530145e-09
6.3003268e-09
5.5476713e-09
4.9551307e-09
4.4907506e-09
4.1283591e-09
3.847536e-09
3.6306564e-09
3.4649025e-09
3.337625e-09
3.2468529e-09
3.1771699e-09
3.129721e-09
0.0083093085
0.0070021235
0.0057369234
0.0044963247
0.0033396307
0.0023461649
0.0016163699
0.0010968651
0.00073882131
0.00049645445
0.00033415199
0.00022570497
0.00015310796
0.0001043585
7.1506567e-05
4.9258938e-05
3.4073929e-05
2.3710079e-05
1.6629807e-05
1.1775546e-05
8.4275688e-06
6.0998021e-06
4.4668993e-06
3.3062082e-06
2.4713731e-06
1.8681711e-06
1.4249515e-06
1.0937236e-06
8.4275681e-07
6.5110919e-07
5.0490566e-07
3.9347955e-07
3.086388e-07
2.4345489e-07
1.9270239e-07
1.5281046e-07
1.212494e-07
9.6170113e-08
7.6219546e-08
6.0421248e-08
4.7969852e-08
3.823682e-08
3.0642448e-08
2.4763255e-08
2.0181237e-08
1.6649731e-08
1.3787935e-08
1.1476366e-08
9.6199625e-09
8.1372769e-09
6.9591896e-09
6.0275909e-09
5.2950396e-09
4.7217237e-09
4.2760334e-09
3.9311097e-09
3.666752e-09
3.4645899e-09
3.3130936e-09
3.2003612e-09
3.1164771e-09
3.0578471e-09
3.018046e-09
2.9920913e-09
2.9775151e-09
0.0049098335
0.0037389602
0.0026995523
0.0019116158
0.001330186
0.00091369279
0.00062287355
0.00042313783
0.00028727802
0.00019522387
0.00013293449
9.0780309e-05
6.2236837e-05
4.2892386e-05
2.975647e-05
2.0790718e-05
1.4647332e-05
1.0424541e-05
7.5049327e-06
5.47088e-06
4.0393772e-06
3.0199519e-06
2.2842251e-06
1.7444728e-06
1.343261e-06
1.0432399e-06
8.1591762e-07
6.4189219e-07
5.0758818e-07
4.0312598e-07
3.2106662e-07
2.55917e-07
2.0375815e-07
1.6188104e-07
1.2831884e-07
1.0153928e-07
8.0288991e-08
6.3530541e-08
5.0374608e-08
4.0085234e-08
3.203963e-08
2.5758159e-08
2.0838134e-08
1.6997729e-08
1.3980733e-08
1.1634137e-08
9.7357963e-09
8.2085865e-09
6.9896735e-09
6.0238823e-09
5.2640841e-09
4.6700031e-09
4.2089932e-09
3.8534591e-09
3.5818875e-09
3.3762814e-09
3.2224344e-09
3.1089165e-09
3.0266268e-09
2.969508e-09
2.9306173e-09
2.9062583e-09
2.8931944e-09
2.89196e-09
2.8938898e-09
0.0019811437
0.0014119165
0.00099116148
0.00068857542
0.00047491914
0.00032619469
0.00022350037
0.00015300446
0.00010478226
7.1876296e-05
4.9460077e-05
3.4200701e-05
2.3808546e-05
1.6717025e-05
1.1858189e-05
8.5105198e-06
6.1876881e-06
4.5618802e-06
3.4113466e-06
2.5863125e-06
1.9867923e-06
1.5435087e-06
1.2108814e-06
9.5616609e-07
7.6128156e-07
6.1027334e-07
4.9161234e-07
3.9720898e-07
3.2130307e-07
2.5978308e-07
2.097203e-07
1.6897297e-07
1.3588457e-07
1.0909886e-07
8.7481159e-08
7.0082938e-08
5.611442e-08
4.4928191e-08
3.5992081e-08
2.8879488e-08
2.3235175e-08
1.8779258e-08
1.5268712e-08
1.252119e-08
1.0367492e-08
8.6958019e-09
7.3585345e-09
6.294521e-09
5.4549611e-09
4.7974252e-09
4.286266e-09
3.8921037e-09
3.5908163e-09
3.3627523e-09
3.1920847e-09
3.0663285e-09
2.9756321e-09
2.9118003e-09
2.8687826e-09
2.8417561e-09
2.827502e-09
2.8238239e-09
2.8252796e-09
2.8317608e-09
2.844961e-09
0.00065988244
0.00046314509
0.00032293436
0.00022404342
0.00015492397
0.00010692869
7.3773518e-05
5.0966444e-05
3.5324095e-05
2.4612633e-05
1.7277625e-05
1.2245895e-05
8.7810906e-06
6.3812168e-06
4.7057489e-06
3.5242232e-06
2.6804495e-06
2.0695183e-06
1.6203167e-06
1.2838792e-06
1.0281413e-06
8.3028721e-07
6.7494904e-07
5.5342877e-07
4.5633233e-07
3.7732558e-07
3.1219642e-07
2.5802083e-07
2.1274012e-07
1.7484944e-07
1.4318744e-07
1.1680981e-07
9.4926433e-08
7.6863469e-08
6.2041125e-08
4.9954775e-08
4.0163294e-08
3.2282279e-08
2.5975639e-08
2.0957304e-08
1.698027e-08
1.3843653e-08
1.1374504e-08
9.4411555e-09
7.9259045e-09
6.7481962e-09
5.8090452e-09
5.0648965e-09
4.481595e-09
4.0283831e-09
3.6796129e-09
3.4142193e-09
3.214599e-09
3.0665764e-09
2.9587829e-09
2.8823724e-09
2.8299718e-09
2.795996e-09
2.7760295e-09
2.7687064e-09
2.7688539e-09
2.7726152e-09
2.784984e-09
2.8018567e-09
2.821333e-09
0.00074705542
0.00053840844
0.00038438133
0.00027226197
0.00019160029
0.00013419352
9.3672275e-05
6.527321e-05
4.5489616e-05
3.1771218e-05
2.2288833e-05
1.5743212e-05
1.1222121e-05
8.0909672e-06
5.9124146e-06
4.3860063e-06
3.3062052e-06
2.5332178e-06
1.972111e-06
1.5585183e-06
1.2482465e-06
1.0112053e-06
8.2756667e-07
6.8282901e-07
5.670672e-07
4.7499423e-07
4.0112643e-07
3.4028654e-07
2.8887284e-07
2.4453681e-07
2.0604047e-07
1.7261993e-07
1.4374213e-07
1.189508e-07
9.7843187e-08
8.0039475e-08
6.5168679e-08
5.2865292e-08
4.2776453e-08
3.4568794e-08
2.7937481e-08
2.2611454e-08
1.8354102e-08
1.4966892e-08
1.2280077e-08
1.0158605e-08
8.4856691e-09
7.1742077e-09
6.1449232e-09
5.344443e-09
4.7052068e-09
4.1993206e-09
3.8044401e-09
3.4996254e-09
3.2673449e-09
3.0932639e-09
2.9646067e-09
2.8718501e-09
2.8070938e-09
2.7640178e-09
2.7368581e-09
2.7226498e-09
2.7207731e-09
2.7227851e-09
2.7318137e-09
2.7466338e-09
2.766255e-09
2.7859147e-09
2.8092442e-09
0.00049625427
0.00036307681
0.00026317449
0.00018920284
0.00013512032
9.5996576e-05
6.7944283e-05
4.7994109e-05
3.3902363e-05
2.4001618e-05
1.7070386e-05
1.2226639e-05
8.8405956e-06
6.4688632e-06
4.7989865e-06
3.6148055e-06
2.7669998e-06
2.1526825e-06
1.7019641e-06
1.3650774e-06
1.1093614e-06
9.1134474e-07
7.5643254e-07
6.3283139e-07
5.3290671e-07
4.5185939e-07
3.8662488e-07
3.3346873e-07
2.8890746e-07
2.5029558e-07
2.1600169e-07
1.8508719e-07
1.5710954e-07
1.3207829e-07
1.0997074e-07
9.0870065e-08
7.4405497e-08
6.0478627e-08
4.8913575e-08
3.9450624e-08
3.1797189e-08
2.5662051e-08
2.0776089e-08
1.690351e-08
1.3843329e-08
1.1429842e-08
9.5286468e-09
8.0305277e-09
6.8516046e-09
5.9214512e-09
5.1904807e-09
4.6127564e-09
4.1609329e-09
3.7930379e-09
3.4982985e-09
3.2662623e-09
3.0873864e-09
2.9515963e-09
2.8514686e-09
2.7793006e-09
2.7305898e-09
2.6992335e-09
2.6812175e-09
2.6763054e-09
2.6775521e-09
2.6840319e-09
2.6977152e-09
2.7152434e-09
2.7340676e-09
2.7559996e-09
2.7771112e-09
2.8012579e-09
0.00014025415
0.00010235924
7.4276471e-05
5.3666394e-05
3.8675299e-05
2.785526e-05
2.0093853e-05
1.4551332e-05
1.0604411e-05
7.7952861e-06
5.7934177e-06
4.3610828e-06
3.3300127e-06
2.5816444e-06
2.0322502e-06
1.623699e-06
1.3150676e-06
1.0787187e-06
8.941348e-07
7.4830558e-07
6.3098903e-07
5.3535142e-07
4.5690887e-07
3.9184675e-07
3.3906755e-07
2.9554217e-07
2.5907159e-07
2.2678581e-07
1.9837995e-07
1.7185551e-07
1.4665284e-07
1.2326108e-07
1.0208971e-07
8.3426375e-08
6.7417048e-08
5.4077056e-08
4.3069025e-08
3.4352959e-08
2.7512554e-08
2.2150631e-08
1.7949683e-08
1.4657348e-08
1.2075329e-08
1.004831e-08
8.4550543e-09
7.2013183e-09
6.2132524e-09
5.4343803e-09
4.8189006e-09
4.3336117e-09
3.9494607e-09
3.6470429e-09
3.4075699e-09
3.2205206e-09
3.0662752e-09
2.9412861e-09
2.8425402e-09
2.7670245e-09
2.7120158e-09
2.674014e-09
2.6484044e-09
2.6352588e-09
2.6320607e-09
2.6335085e-09
2.6396661e-09
2.6522217e-09
2.6681996e-09
2.6861069e-09
2.7053783e-09
2.7255163e-09
2.7458453e-09
2.7656157e-09
2.7836761e-09
2.230292e-05
1.6582487e-05
1.2367594e-05
9.2723212e-06
7.0026564e-06
5.3369749e-06
4.1113397e-06
3.2048815e-06
2.5297696e-06
2.0223192e-06
1.6367144e-06
1.3401865e-06
1.1090297e-06
9.2712354e-07
7.8070156e-07
6.6196602e-07
5.6480142e-07
4.8396486e-07
4.1642994e-07
3.5860743e-07
3.1075666e-07
2.7069448e-07
2.3825881e-07
2.0955484e-07
1.8309244e-07
1.5850266e-07
1.350907e-07
1.1402043e-07
9.4178737e-08
7.6946515e-08
6.2774707e-08
5.1155014e-08
4.1648097e-08
3.3901052e-08
2.7630096e-08
2.2576192e-08
1.8520768e-08
1.5272819e-08
1.2676314e-08
1.0602733e-08
8.9480562e-09
7.6279142e-09
6.5749631e-09
5.735284e-09
5.0654972e-09
4.5315962e-09
4.1058327e-09
3.767082e-09
3.4974054e-09
3.2836206e-09
3.1143574e-09
2.9812029e-09
2.8767986e-09
2.7962345e-09
2.7316801e-09
2.6811661e-09
2.6432993e-09
2.6167694e-09
2.5993515e-09
2.5906296e-09
2.5897274e-09
2.5912867e-09
2.5973119e-09
2.609798e-09
2.623461e-09
2.639898e-09
2.6554005e-09
2.6711608e-09
2.685436e-09
2.6986153e-09
2.7098086e-09
2.7190608e-09
2.72574e-09
3.8136593e-06
3.0886686e-06
2.5215202e-06
2.0747974e-06
1.7202444e-06
1.436277e-06
1.2069676e-06
1.020203e-06
8.666115e-07
7.3954275e-07
6.3323139e-07
5.4401032e-07
4.687033e-07
4.048477e-07
3.503165e-07
3.0332847e-07
2.6339671e-07
2.2953275e-07
2.0084396e-07
1.7547433e-07
1.5251665e-07
1.3207283e-07
1.1204404e-07
9.4161086e-08
7.8919787e-08
6.5980878e-08
5.5087009e-08
4.594788e-08
3.8295159e-08
3.1927922e-08
2.6637178e-08
2.2245525e-08
1.8605806e-08
1.5595129e-08
1.3115458e-08
1.1082662e-08
9.4224446e-09
8.0708754e-09
6.9731416e-09
6.0833035e-09
5.3633567e-09
4.7816242e-09
4.3125333e-09
3.9347206e-09
3.6308688e-09
3.3870791e-09
3.1918367e-09
3.036284e-09
2.9128333e-09
2.8153642e-09
2.7393777e-09
2.6807154e-09
2.636395e-09
2.6039527e-09
2.5796483e-09
2.5627655e-09
2.5521308e-09
2.5481023e-09
2.5479744e-09
2.5498957e-09
2.5565514e-09
2.5660134e-09
2.5759794e-09
2.586492e-09
2.5961736e-09
2.6055326e-09
2.6129893e-09
2.6195922e-09
2.6236065e-09
2.6261762e-09
2.6260435e-09
2.62371e-09
2.6196173e-09
1.1643046e-06
1.0086886e-06
8.7456488e-07
7.5872187e-07
6.585091e-07
5.7164823e-07
4.9634294e-07
4.3102979e-07
3.7426921e-07
3.2507105e-07
2.8218675e-07
2.449611e-07
2.1276885e-07
1.8455034e-07
1.603543e-07
1.3924128e-07
1.2062204e-07
1.0413218e-07
8.9583796e-08
7.6748989e-08
6.5582159e-08
5.5877332e-08
4.7499702e-08
4.0346936e-08
3.4265556e-08
2.911073e-08
2.4750657e-08
2.1066956e-08
1.7958071e-08
1.5336999e-08
1.3128892e-08
1.1271692e-08
9.7125735e-09
8.4068576e-09
7.3161503e-09
6.4098512e-09
5.6606179e-09
5.0443832e-09
4.5387152e-09
4.1256788e-09
3.7889885e-09
3.5156671e-09
3.2942685e-09
3.1152759e-09
2.9715546e-09
2.8564815e-09
2.764824e-09
2.6924644e-09
2.6359662e-09
2.5924038e-09
2.5597423e-09
2.5360285e-09
2.5200454e-09
2.510571e-09
2.5047321e-09
2.5017579e-09
2.5012325e-09
2.5019547e-09
2.5049808e-09
2.5097048e-09
2.5145835e-09
2.5192393e-09
2.5234108e-09
2.5263396e-09
2.5285666e-09
2.5286353e-09
2.5276827e-09
2.5242824e-09
2.5197193e-09
2.5121155e-09
2.5031868e-09
2.4915017e-09
2.4786804e-09
4.7513325e-07
4.1822011e-07
3.6757821e-07
3.2262546e-07
2.8280933e-07
2.4760606e-07
2.1656536e-07
1.8922844e-07
1.6520057e-07
1.4411261e-07
1.2558544e-07
1.0938081e-07
9.516809e-08
8.2713003e-08
7.1843877e-08
6.2299654e-08
5.3914764e-08
4.6582874e-08
4.0200097e-08
3.467253e-08
2.990498e-08
2.5802658e-08
2.228174e-08
1.9263933e-08
1.6679581e-08
1.446816e-08
1.2576981e-08
1.0961154e-08
9.581841e-09
8.4063822e-09
7.4058485e-09
6.5565685e-09
5.8374795e-09
5.2304127e-09
4.7199111e-09
4.2927364e-09
3.9374717e-09
3.6436774e-09
3.4018239e-09
3.2042904e-09
3.0425634e-09
2.9116892e-09
2.8051167e-09
2.7195978e-09
2.6507985e-09
2.5960425e-09
2.5526425e-09
2.5188586e-09
2.4929575e-09
2.4735337e-09
2.4597587e-09
2.4499668e-09
2.4439038e-09
2.4409392e-09
2.4391217e-09
2.4386099e-09
2.4387684e-09
2.4393948e-09
2.4405032e-09
2.4410324e-09
2.4409905e-09
2.4400182e-09
2.4380121e-09
2.4343702e-09
2.4292352e-09
2.4225675e-09
2.4137237e-09
2.4041148e-09
2.3909613e-09
2.3750009e-09
2.3573992e-09
2.3384697e-09
2.31899e-09
1.9578282e-07
1.7356934e-07
1.5363095e-07
1.3578747e-07
1.1985773e-07
1.0567088e-07
9.3064013e-08
8.1880821e-08
7.1980729e-08
6.3224759e-08
5.549289e-08
4.8673667e-08
4.2661646e-08
3.7373248e-08
3.272648e-08
2.8650062e-08
2.5083841e-08
2.1972024e-08
1.9262258e-08
1.6906285e-08
1.4859992e-08
1.3083755e-08
1.1543105e-08
1.0207447e-08
9.0504559e-09
8.0491877e-09
7.1837061e-09
6.4369321e-09
5.793518e-09
5.2407241e-09
4.7667904e-09
4.3622521e-09
4.0179782e-09
3.7273226e-09
3.4827712e-09
3.2780428e-09
3.1071213e-09
2.9652486e-09
2.8477423e-09
2.7508717e-09
2.6711759e-09
2.6059258e-09
2.5526502e-09
2.5094268e-09
2.4745783e-09
2.446627e-09
2.424628e-09
2.4073363e-09
2.3940474e-09
2.3838489e-09
2.3763183e-09
2.370878e-09
2.367356e-09
2.3658425e-09
2.3643475e-09
2.3627975e-09
2.361102e-09
2.3586147e-09
2.3559115e-09
2.351414e-09
2.3469785e-09
2.3402715e-09
2.331414e-09
2.3202836e-09
2.3082948e-09
2.2943882e-09
2.2810355e-09
2.2652554e-09
2.2521559e-09
2.2406265e-09
2.2313064e-09
2.2229059e-09
2.215984e-09
8.8695478e-08
7.9529818e-08
7.121002e-08
6.3678777e-08
5.6879721e-08
5.075613e-08
4.5253281e-08
4.0318011e-08
3.5900311e-08
3.195284e-08
2.8431116e-08
2.5294504e-08
2.2504963e-08
2.002835e-08
1.783349e-08
1.5891491e-08
1.4176082e-08
1.2662832e-08
1.1329098e-08
1.0154677e-08
9.1210172e-09
8.2119347e-09
7.4125785e-09
6.7108661e-09
6.0950082e-09
5.5555764e-09
5.0836997e-09
4.6719699e-09
4.3135463e-09
4.0024101e-09
3.733581e-09
3.5027011e-09
3.3055643e-09
3.1376431e-09
2.9953909e-09
2.8749564e-09
2.7734729e-09
2.6880327e-09
2.6163361e-09
2.556255e-09
2.5060876e-09
2.4642383e-09
2.4294638e-09
2.4006665e-09
2.3768837e-09
2.3572293e-09
2.341046e-09
2.3275834e-09
2.3165626e-09
2.3070646e-09
2.2995414e-09
2.292618e-09
2.2877117e-09
2.2831281e-09
2.2802896e-09
2.2765964e-09
2.2721165e-09
2.2661208e-09
2.2598129e-09
2.2518377e-09
2.2441979e-09
2.2347985e-09
2.2255387e-09
2.2183171e-09
2.2126441e-09
2.20822e-09
2.2047927e-09
2.2025694e-09
2.2011231e-09
2.2009864e-09
2.2002789e-09
2.200078e-09
2.1998003e-09
2.2003344e-09
3.9860617e-08
3.6306215e-08
3.3032992e-08
3.0026732e-08
2.7272632e-08
2.4755488e-08
2.2459886e-08
2.0370581e-08
1.847277e-08
1.675196e-08
1.5194723e-08
1.3787662e-08
1.2518827e-08
1.1376169e-08
1.0349032e-08
9.4268705e-09
8.6001988e-09
7.859637e-09
7.19692e-09
6.6041424e-09
6.0746814e-09
5.6017705e-09
5.1799162e-09
4.8039666e-09
4.4698051e-09
4.1728545e-09
3.9099743e-09
3.6777023e-09
3.4734136e-09
3.2944761e-09
3.1388797e-09
3.0037608e-09
2.8872355e-09
2.7866378e-09
2.7003031e-09
2.6260592e-09
2.5625124e-09
2.5080529e-09
2.4614312e-09
2.4216159e-09
2.3875026e-09
2.3584459e-09
2.333285e-09
2.3118989e-09
2.2932453e-09
2.2771032e-09
2.2625472e-09
2.2496874e-09
2.2381719e-09
2.2278217e-09
2.217822e-09
2.2085321e-09
2.2001102e-09
2.19288e-09
2.1863795e-09
2.1819698e-09
2.1778939e-09
2.1746895e-09
2.1724781e-09
2.1711601e-09
2.171102e-09
2.1715731e-09
2.1726275e-09
2.1750441e-09
2.1780994e-09
2.1811339e-09
2.184257e-09
2.1880654e-09
2.1927128e-09
2.1985659e-09
2.2066324e-09
2.2169527e-09
2.2315636e-09
2.2496394e-09
2.2730119e-09
1.8615532e-08
1.7307717e-08
1.6079573e-08
1.4929279e-08
1.3854339e-08
1.2852236e-08
1.1919923e-08
1.1054455e-08
1.0252607e-08
9.5112339e-09
8.8271282e-09
8.197265e-09
7.61816e-09
7.0870652e-09
6.6003337e-09
6.1555562e-09
5.7492609e-09
5.3788799e-09
5.0412102e-09
4.7340891e-09
4.4549562e-09
4.2017258e-09
3.9719864e-09
3.7640626e-09
3.5765256e-09
3.4074824e-09
3.2559069e-09
3.1206366e-09
3.0001926e-09
2.8933606e-09
2.7988725e-09
2.7154776e-09
2.6420035e-09
2.5772671e-09
2.5203547e-09
2.4702294e-09
2.4261933e-09
2.3874012e-09
2.3533873e-09
2.3231697e-09
2.2966444e-09
2.2729048e-09
2.251865e-09
2.2324127e-09
2.2150074e-09
2.1987148e-09
2.1836654e-09
2.1684224e-09
2.1546637e-09
2.1415427e-09
2.1297301e-09
2.1211697e-09
2.1165377e-09
2.1159699e-09
2.1163484e-09
2.1184825e-09
2.1225174e-09
2.1276726e-09
2.1328313e-09
2.1382074e-09
2.143536e-09
2.1497876e-09
2.1563184e-09
2.1648248e-09
2.1739735e-09
2.1863274e-09
2.2014675e-09
2.2210858e-09
2.2457416e-09
2.2761087e-09
2.3144302e-09
2.3603696e-09
2.4170842e-09
2.4840674e-09
2.5635432e-09
2.6559028e-09
1.1158243e-08
1.0647038e-08
1.0149622e-08
9.6671795e-09
9.2003901e-09
8.7500702e-09
8.3166937e-09
7.9007459e-09
7.5024664e-09
7.1221263e-09
6.7597427e-09
6.4154796e-09
6.0891572e-09
5.7808084e-09
5.4902185e-09
5.2168496e-09
4.960415e-09
4.7204249e-09
4.49631e-09
4.2877677e-09
4.0936579e-09
3.913452e-09
3.7464018e-09
3.59203e-09
3.4495803e-09
3.3181628e-09
3.1977417e-09
3.0874554e-09
2.9866318e-09
2.8945409e-09
2.8105963e-09
2.7341253e-09
2.664607e-09
2.6014384e-09
2.5440639e-09
2.4920547e-09
2.4448626e-09
2.4021045e-09
2.3633717e-09
2.3283934e-09
2.2965561e-09
2.2675971e-09
2.2414096e-09
2.2169858e-09
2.1944616e-09
2.1734872e-09
2.1538501e-09
2.1342997e-09
2.1154279e-09
2.0979713e-09
2.0817469e-09
2.0706773e-09
2.0654013e-09
2.0651895e-09
2.0663983e-09
2.0715798e-09
2.0773738e-09
2.0852105e-09
2.0923064e-09
2.1017902e-09
2.1104605e-09
2.1218629e-09
2.133693e-09
2.1501406e-09
2.1683894e-09
2.1929107e-09
2.2210646e-09
2.2576494e-09
2.3003087e-09
2.3541182e-09
2.4171213e-09
2.4941558e-09
2.5848861e-09
2.6924003e-09
2.8198908e-09
2.9676063e-09
3.1422027e-09
3.3411941e-09
3.5710421e-09
3.8298924e-09
6.2780763e-09
6.1100884e-09
5.9405571e-09
5.7705036e-09
5.6002366e-09
5.4306446e-09
5.2621553e-09
5.095441e-09
4.9311443e-09
4.7697692e-09
4.6120741e-09
4.4584352e-09
4.309498e-09
4.1656917e-09
4.027132e-09
3.8939755e-09
3.7668145e-09
3.6455625e-09
3.5305636e-09
3.4214825e-09
3.3185387e-09
3.2217118e-09
3.1308982e-09
3.0454984e-09
2.9654543e-09
2.8899841e-09
2.8194065e-09
2.7525364e-09
2.6900752e-09
2.6309107e-09
2.5756998e-09
2.5235298e-09
2.4750375e-09
2.4294742e-09
2.3870622e-09
2.3476211e-09
2.3110812e-09
2.2768302e-09
2.2452011e-09
2.2158167e-09
2.1879826e-09
2.1613759e-09
2.1370559e-09
2.113193e-09
2.0891729e-09
2.06696e-09
2.0456882e-09
2.0290372e-09
2.0189652e-09
2.0179493e-09
2.0187446e-09
2.0247849e-09
2.0300826e-09
2.0410414e-09
2.0497421e-09
2.0654755e-09
2.0801463e-09
2.1036137e-09
2.1267054e-09
2.1585168e-09
2.189302e-09
2.2293985e-09
2.2742065e-09
2.3317669e-09
2.3970997e-09
2.4791008e-09
2.5729318e-09
2.6886356e-09
2.8213457e-09
2.9824081e-09
3.1668507e-09
3.3869935e-09
3.6390123e-09
3.9340199e-09
4.2734439e-09
4.6634605e-09
5.1131431e-09
5.6198513e-09
6.1955278e-09
6.8338011e-09
4.4180908e-09
4.3520274e-09
4.2826109e-09
4.2105845e-09
4.1359569e-09
4.0592697e-09
3.9807453e-09
3.9010511e-09
3.8206669e-09
3.7399206e-09
3.6595977e-09
3.5796128e-09
3.5010081e-09
3.4232669e-09
3.3476585e-09
3.2740726e-09
3.2028732e-09
3.1340111e-09
3.0674867e-09
3.0033217e-09
2.9413488e-09
2.8814444e-09
2.8234586e-09
2.7671597e-09
2.7125759e-09
2.6592961e-09
2.6080413e-09
2.5576581e-09
2.5097607e-09
2.4628131e-09
2.4186475e-09
2.3753431e-09
2.335295e-09
2.2963717e-09
2.2597081e-09
2.2250057e-09
2.1924538e-09
2.1604077e-09
2.130127e-09
2.1021505e-09
2.0733896e-09
2.0447811e-09
2.0188143e-09
1.9958572e-09
1.9783768e-09
1.9714092e-09
1.97093e-09
1.9748185e-09
1.9801964e-09
1.9923677e-09
2.0015146e-09
2.0214987e-09
2.03795e-09
2.0732249e-09
2.107408e-09
2.1626399e-09
2.2179327e-09
2.2939539e-09
2.3707547e-09
2.4665574e-09
2.5611483e-09
2.6768615e-09
2.8087888e-09
2.970562e-09
3.155023e-09
3.3793398e-09
3.6345647e-09
3.942306e-09
4.2922032e-09
4.7091943e-09
5.1828983e-09
5.7392583e-09
6.3700503e-09
7.1002448e-09
7.9286792e-09
8.8744098e-09
9.9469133e-09
1.1148805e-08
1.2492383e-08
1.3971501e-08
3.6311793e-09
3.5973057e-09
3.5608451e-09
3.5222149e-09
3.4812427e-09
3.4387632e-09
3.3946535e-09
3.3494038e-09
3.3031285e-09
3.2559848e-09
3.2084406e-09
3.1602297e-09
3.112166e-09
3.0635597e-09
3.0155231e-09
2.9670108e-09
2.9191322e-09
2.8709688e-09
2.8231396e-09
2.7752696e-09
2.7274622e-09
2.6797032e-09
2.6319199e-09
2.5845621e-09
2.5371138e-09
2.4905835e-09
2.4446158e-09
2.3995991e-09
2.3558486e-09
2.3136331e-09
2.2730609e-09
2.2332456e-09
2.196757e-09
2.1605016e-09
2.125444e-09
2.0924344e-09
2.0612661e-09
2.0275889e-09
1.9957159e-09
1.9674774e-09
1.9435696e-09
1.9289157e-09
1.9231491e-09
1.9240545e-09
1.9281647e-09
1.9388397e-09
1.9473569e-09
1.9668289e-09
1.9835292e-09
2.0234762e-09
2.0561747e-09
2.1283346e-09
2.1902524e-09
2.3067344e-09
2.4145651e-09
2.5760614e-09
2.7353296e-09
2.9450622e-09
3.1552334e-09
3.4091617e-09
3.6602565e-09
3.9592621e-09
4.3034408e-09
4.7133536e-09
5.1859652e-09
5.7446339e-09
6.3856778e-09
7.1406961e-09
8.0019726e-09
9.0102366e-09
1.0153851e-08
1.1477868e-08
1.2971623e-08
1.468132e-08
1.6603588e-08
1.878003e-08
2.1217465e-08
2.3929907e-08
2.6919198e-08
3.0183906e-08
3.259757e-09
3.2382484e-09
3.2148255e-09
3.1895529e-09
3.1624316e-09
3.1336671e-09
3.1031718e-09
3.0711871e-09
3.0376836e-09
3.002752e-09
2.9665957e-09
2.9289876e-09
2.8904883e-09
2.8504187e-09
2.8098605e-09
2.7675293e-09
2.7250381e-09
2.680843e-09
2.63647e-09
2.5908867e-09
2.5451798e-09
2.4987294e-09
2.4525937e-09
2.4065326e-09
2.3608906e-09
2.3164618e-09
2.2730279e-09
2.2309653e-09
2.1902675e-09
2.152194e-09
2.1142444e-09
2.0779663e-09
2.0445126e-09
2.0098074e-09
1.9745985e-09
1.9412996e-09
1.9131139e-09
1.8914819e-09
1.8789469e-09
1.8761723e-09
1.8771493e-09
1.8843023e-09
1.8917074e-09
1.9071127e-09
1.9208881e-09
1.9535465e-09
1.9835373e-09
2.0548762e-09
2.1134766e-09
2.2478602e-09
2.3489707e-09
2.5642961e-09
2.7484138e-09
3.0627798e-09
3.3533911e-09
3.7740073e-09
4.185188e-09
4.7180652e-09
5.2461837e-09
5.8793281e-09
6.4987492e-09
7.2342215e-09
8.0736803e-09
9.0675538e-09
1.0207809e-08
1.1540982e-08
1.307009e-08
1.4843788e-08
1.6870656e-08
1.9203217e-08
2.1851397e-08
2.4866518e-08
2.8262881e-08
3.2093214e-08
3.6374987e-08
4.1166366e-08
4.6479162e-08
5.2330636e-08
5.8697051e-08
6.5579032e-08
3.0381368e-09
3.0192829e-09
2.9983421e-09
2.9756984e-09
2.9509136e-09
2.9245534e-09
2.8959946e-09
2.8660269e-09
2.8338646e-09
2.8004349e-09
2.7649016e-09
2.7282355e-09
2.6896356e-09
2.6499763e-09
2.6088125e-09
2.566444e-09
2.5233302e-09
2.4789872e-09
2.4344993e-09
2.3894172e-09
2.3445953e-09
2.2999435e-09
2.2563071e-09
2.2135302e-09
2.1719257e-09
2.1325579e-09
2.0939171e-09
2.0571679e-09
2.0223379e-09
1.9876063e-09
1.9532125e-09
1.9189271e-09
1.8866016e-09
1.8622425e-09
1.8445825e-09
1.8330425e-09
1.8319995e-09
1.8335894e-09
1.840162e-09
1.8509305e-09
1.8604833e-09
1.8840785e-09
1.906324e-09
1.9585818e-09
2.0077143e-09
2.1245449e-09
2.2191593e-09
2.4390654e-09
2.6058198e-09
2.975211e-09
3.2527444e-09
3.8223545e-09
4.3091101e-09
5.0896253e-09
5.823442e-09
6.8577581e-09
7.8659213e-09
9.158951e-09
1.0429832e-08
1.1945485e-08
1.3416089e-08
1.5157018e-08
1.7127989e-08
1.9453583e-08
2.2096937e-08
2.5174938e-08
2.8674145e-08
3.2707258e-08
3.7281208e-08
4.2498147e-08
4.8376229e-08
5.4999611e-08
6.2397473e-08
7.0651142e-08
7.9785032e-08
8.9900016e-08
1.0098235e-07
1.1304531e-07
1.2600714e-07
1.3982091e-07
2.83164e-09
2.8140988e-09
2.7950029e-09
2.7736637e-09
2.750719e-09
2.7256149e-09
2.6989353e-09
2.6701655e-09
2.6399398e-09
2.6077341e-09
2.5742182e-09
2.5389091e-09
2.5025349e-09
2.4645145e-09
2.4258901e-09
2.3858511e-09
2.3456157e-09
2.3047083e-09
2.2637554e-09
2.2231585e-09
2.1829813e-09
2.1436869e-09
2.1055237e-09
2.0689117e-09
2.0328199e-09
1.999886e-09
1.9666017e-09
1.9335926e-09
1.9025246e-09
1.8702404e-09
1.8431242e-09
1.8231189e-09
1.8082095e-09
1.7983181e-09
1.7957923e-09
1.7972833e-09
1.8016994e-09
1.8112928e-09
1.8217588e-09
1.8417448e-09
1.8714734e-09
1.9048256e-09
1.9926148e-09
2.0646986e-09
2.2374843e-09
2.3859974e-09
2.7157717e-09
2.9750239e-09
3.5634528e-09
3.9920849e-09
4.9353204e-09
5.6778447e-09
7.0520677e-09
8.2710794e-09
1.0141747e-08
1.192115e-08
1.437653e-08
1.676446e-08
1.9797623e-08
2.2758046e-08
2.6268474e-08
2.9649215e-08
3.363278e-08
3.8112985e-08
4.3365463e-08
4.9290338e-08
5.6143654e-08
6.3868109e-08
7.2706499e-08
8.2640033e-08
9.3869368e-08
1.0639449e-07
1.2036674e-07
1.3580055e-07
1.5284063e-07
1.7146604e-07
1.9187655e-07
2.1391609e-07
2.3762142e-07
2.6271564e-07
2.8903452e-07
2.6068219e-09
2.5917633e-09
2.5748208e-09
2.5563623e-09
2.5360647e-09
2.5142229e-09
2.4906199e-09
2.4655419e-09
2.4387658e-09
2.4107289e-09
2.3810775e-09
2.3504238e-09
2.3184053e-09
2.2855984e-09
2.2518109e-09
2.2177376e-09
2.1829337e-09
2.1487208e-09
2.1140542e-09
2.0805584e-09
2.047482e-09
2.0153654e-09
1.9841739e-09
1.9535923e-09
1.9236933e-09
1.8955842e-09
1.8671017e-09
1.8415029e-09
1.8194237e-09
1.8013545e-09
1.7878917e-09
1.7785091e-09
1.7733931e-09
1.77328e-09
1.774984e-09
1.7795129e-09
1.7899242e-09
1.8041366e-09
1.8343125e-09
1.8732826e-09
1.9394821e-09
2.0438738e-09
2.1595863e-09
2.4067143e-09
2.6038299e-09
3.1035334e-09
3.4801833e-09
4.348203e-09
5.0166383e-09
6.4713616e-09
7.5547837e-09
9.8584433e-09
1.1709184e-08
1.4935174e-08
1.7869476e-08
2.221592e-08
2.6404677e-08
3.2031217e-08
3.7536266e-08
4.4397617e-08
5.1097829e-08
5.8944434e-08
6.6467721e-08
7.5271486e-08
8.5106292e-08
9.6536015e-08
1.093535e-07
1.2400571e-07
1.4045101e-07
1.5900242e-07
1.7976723e-07
2.0285399e-07
2.2847522e-07
2.5656578e-07
2.8739245e-07
3.2085264e-07
3.5710735e-07
3.9619279e-07
4.3785932e-07
4.8201201e-07
5.2792495e-07
5.7540744e-07
2.4111951e-09
2.3994139e-09
2.3861856e-09
2.3712774e-09
2.3549403e-09
2.3369628e-09
2.3176011e-09
2.2967215e-09
2.2745259e-09
2.2510032e-09
2.2263538e-09
2.2006217e-09
2.1739311e-09
2.1459585e-09
2.1175046e-09
2.088583e-09
2.0595816e-09
2.0311178e-09
2.0027776e-09
1.9754099e-09
1.9487455e-09
1.9229889e-09
1.8982167e-09
1.8748907e-09
1.8532164e-09
1.8329455e-09
1.8145364e-09
1.7988147e-09
1.7855427e-09
1.7749843e-09
1.7681031e-09
1.7640564e-09
1.7633791e-09
1.7641766e-09
1.7688073e-09
1.7790351e-09
1.8070115e-09
1.8376024e-09
1.9097348e-09
1.9814991e-09
2.1406066e-09
2.2988465e-09
2.6189383e-09
2.9413024e-09
3.5608322e-09
4.1563652e-09
5.3336659e-09
6.3410575e-09
8.4632755e-09
1.0123523e-08
1.3619055e-08
1.638318e-08
2.16253e-08
2.6130626e-08
3.3461916e-08
4.0303403e-08
5.0101169e-08
5.9602081e-08
7.2111395e-08
8.4316469e-08
9.9356737e-08
1.1392979e-07
1.3088284e-07
1.4697386e-07
1.657234e-07
1.864705e-07
2.1035529e-07
2.3697928e-07
2.6696964e-07
3.0053205e-07
3.3772525e-07
3.7922927e-07
4.2444362e-07
4.7444495e-07
5.2807387e-07
5.866744e-07
6.4886382e-07
7.1590297e-07
7.8644545e-07
8.6113648e-07
9.3832042e-07
1.0176646e-06
1.0977992e-06
2.2376121e-09
2.2281051e-09
2.2171964e-09
2.2045392e-09
2.1906961e-09
2.1750624e-09
2.1584687e-09
2.1402562e-09
2.1212993e-09
2.1010812e-09
2.080434e-09
2.0589667e-09
2.0376708e-09
2.016569e-09
1.995893e-09
1.9755327e-09
1.955677e-09
1.9360501e-09
1.9169874e-09
1.898458e-09
1.8803719e-09
1.8630584e-09
1.8465616e-09
1.830379e-09
1.815977e-09
1.8023737e-09
1.7905555e-09
1.7808311e-09
1.7724715e-09
1.766459e-09
1.7646562e-09
1.766188e-09
1.7719758e-09
1.7870855e-09
1.8239859e-09
1.8683395e-09
1.9680458e-09
2.0674898e-09
2.2847565e-09
2.4869614e-09
2.9089434e-09
3.3428568e-09
4.1609215e-09
5.026096e-09
6.5275985e-09
8.138187e-09
1.0829095e-08
1.3589857e-08
1.8255941e-08
2.2710713e-08
3.0317352e-08
3.7301139e-08
4.8755297e-08
5.9423234e-08
7.5446345e-08
9.0931402e-08
1.1209968e-07
1.3301317e-07
1.5958249e-07
1.8582925e-07
2.1727306e-07
2.4793666e-07
2.8286284e-07
3.1603122e-07
3.5415652e-07
3.9609592e-07
4.437942e-07
4.9652452e-07
5.5521042e-07
6.2026061e-07
6.9150175e-07
7.6996726e-07
8.5439912e-07
9.4640533e-07
1.0437663e-06
1.1484948e-06
1.2581201e-06
1.3743431e-06
1.4945027e-06
1.6198696e-06
1.7462463e-06
1.8744321e-06
2.0000522e-06
2.1082994e-09
2.1019577e-09
2.0942426e-09
2.0859348e-09
2.0765528e-09
2.066417e-09
2.0556207e-09
2.0439689e-09
2.0318909e-09
2.0192119e-09
2.0062793e-09
1.992893e-09
1.9791867e-09
1.9653627e-09
1.950887e-09
1.9367689e-09
1.922085e-09
1.9075079e-09
1.8930771e-09
1.8786051e-09
1.8638632e-09
1.8496507e-09
1.8360551e-09
1.8223267e-09
1.8104521e-09
1.8003645e-09
1.7903674e-09
1.7857487e-09
1.785982e-09
1.7901982e-09
1.8008784e-09
1.8312528e-09
1.8670027e-09
1.9517666e-09
2.0396506e-09
2.2153673e-09
2.4342633e-09
2.7878428e-09
3.2286345e-09
3.9311807e-09
4.8417864e-09
6.1579824e-09
7.9809827e-09
1.0336886e-08
1.3792618e-08
1.7863446e-08
2.4049578e-08
3.0766997e-08
4.1258514e-08
5.1845166e-08
6.8531714e-08
8.4679518e-08
1.0929062e-07
1.3318445e-07
1.669464e-07
2.0062523e-07
2.4431362e-07
2.8865811e-07
3.4238779e-07
3.9673356e-07
4.5915557e-07
5.2124374e-07
5.8944631e-07
6.5508812e-07
7.2864389e-07
8.0953871e-07
9.0008077e-07
9.9915848e-07
1.1083984e-06
1.227543e-06
1.3570829e-06
1.4968227e-06
1.6460289e-06
1.8050756e-06
1.9716867e-06
2.147027e-06
2.3286958e-06
2.5163322e-06
2.7084256e-06
2.9030211e-06
3.0962387e-06
3.2867696e-06
3.4682593e-06
2.0536494e-09
2.0513688e-09
2.0474104e-09
2.0432404e-09
2.0375955e-09
2.0315592e-09
2.0244885e-09
2.0167776e-09
2.0084153e-09
1.9992016e-09
1.9892771e-09
1.9787501e-09
1.967425e-09
1.956119e-09