y,k
0,1e-10
0.00048240845,2.8658333e-07
0.00098049384,3.9810371e-07
0.0014947656,1.341308e-06
0.0020257498,3.4736993e-06
0.0025739895,7.3684494e-06
0.0031400454,1.378701e-05
0.0037244966,2.3749886e-05
0.0043279408,3.8585424e-05
0.0049509953,5.9955032e-05
0.0055942973,8.9858242e-05
0.0062585048,0.00013061612
0.0069442972,0.00018482601
0.007652376,0.00025527583
0.0083834654,0.00034480433
0.0091383131,0.00045609669
0.0099176913,0.00059141779
0.010722397,0.00075230948
0.011553254,0.00093930838
0.012411111,0.0011517632
0.013296846,0.0013878235
0.014211364,0.0016446285
0.015155603,0.001918655
0.016130526,0.0022061296
0.017137132,0.0025034035
0.018176449,0.0028072188
0.019249542,0.0031148484
0.020357507,0.0034241303
0.021501477,0.003733433
0.022682624,0.0040415844
0.023902154,0.0043477896
0.025161316,0.004651551
0.026461397,0.0049525983
0.027803728,0.0052508295
0.02918968,0.0055462648
0.030620672,0.0058390097
0.032098167,0.0061292282
0.033623676,0.0064171222
0.03519876,0.0067029165
0.03682503,0.0069868489
0.03850415,0.0072691618
0.040237836,0.0075500983
0.042027862,0.0078298976
0.043876059,0.0081087938
0.045784317,0.0083870141
0.047754588,0.0086647786
0.049788888,0.0089422995
0.051889297,0.0092197817
0.054057963,0.0094974228
0.056297104,0.0097754137
0.058609012,0.010053939
0.06099605,0.010333177
0.06346066,0.010613302
0.066005363,0.010894482
0.068632762,0.011176882
0.071345544,0.011460664
0.074146484,0.011745984
0.077038447,0.012033
0.08002439,0.012321863
0.083107369,0.012612726
0.086290535,0.01290574
0.089577146,0.013201054
0.092970562,0.013498818
0.096474255,0.013799181
0.10009181,0.014102293
0.10382692,0.014408304
0.10768342,0.014717366
0.11166524,0.015029633
0.11577645,0.015345258
0.12002127,0.015664397
0.12440404,0.015987211
0.12892923,0.01631386
0.13360148,0.016644509
0.13842557,0.016979325
0.14340642,0.017318479
0.14854914,0.017662144
0.15385898,0.018010499
0.15934138,0.018363725
0.16500194,0.018722008
0.17084645,0.019085538
0.17688089,0.01945451
0.18311143,0.019829122
0.18954445,0.020209578
0.19618653,0.020596086
0.20304445,0.020988859
0.21012524,0.021388115
0.21743614,0.021794074
0.22498461,0.022206964
0.23277839,0.022627015
0.24082545,0.023054461
0.24913402,0.023489541
0.25771259,0.023932497
0.26656994,0.024383573
0.27571513,0.024843018
0.28515751,0.025311081
0.29490674,0.025788015
0.3049728,0.026274071
0.31536597,0.026769501
0.3260969,0.027274559
0.33717655,0.027789496
0.34861625,0.028314562
0.36042772,0.028850008
0.37262303,0.029396079
0.38521464,0.029953022
0.39821546,0.03052108
0.41163876,0.031100495
0.42549828,0.031691509
0.4398082,0.032294364
0.45458315,0.032909308
0.46983824,0.033536589
0.48558908,0.034176466
0.50185179,0.034829207
0.51864298,0.035495088
0.53597984,0.036174396
0.5538801,0.03686745
0.57236207,0.037578275
0.59144465,0.038317047
0.61114736,0.039087112
0.63149036,0.039872626
0.65249445,0.040642361
0.67418111,0.041358708
0.69657252,0.041985325
0.7196916,0.042491215
0.74356198,0.042849943
0.76820808,0.043041015
0.79365511,0.043054376
0.8199291,0.042883059
0.84705692,0.042523566
0.87506632,0.041982541
0.90398595,0.041273319
0.93384539,0.040414735
0.94954685,0.039913226
0.96467517,0.039430285
0.99650683,0.038348428
1.0293729,0.037203446
1.0633071,0.036035718
1.098344,0.034889556
1.1345196,0.033806673
1.1718707,0.032816128
1.2104356,0.031922352
1.2502538,0.031115541
1.291366,0.030386959
1.3338142,0.029723904
1.3776419,0.029106643
1.4228938,0.028510407
1.4696163,0.027908832
1.5178571,0.027280593
1.566098,0.026617987
1.6128205,0.025923222
1.6580724,0.02519972
1.7019001,0.024453165
1.7443483,0.023691833
1.7854605,0.022924026
1.8252786,0.022156849
1.8638436,0.021396107
1.9011947,0.020646567
1.9373703,0.019912161
1.9724072,0.01919608
2.0063413,0.01850082
2.0163366,0.018296293
2.0392075,0.017828237
2.0710391,0.017179628
2.1018689,0.016555801
2.1317283,0.01595716
2.160648,0.015383781
2.1886574,0.014835484
2.2157852,0.014311892
2.2420592,0.01381248
2.2675062,0.013336623
2.2921523,0.012883627
2.3160227,0.012452758
2.3391418,0.012043261
2.3615332,0.011654379
2.3832198,0.011285376
2.4042239,0.01093554
2.4245669,0.010604187
2.4442696,0.010290666
2.4633522,0.0099943696
2.4818342,0.0097147286
2.4997344,0.0094512173
2.5170713,0.0092033521
2.5338625,0.0089706897
2.5501252,0.0087528253
2.565876,0.008549389
2.5811311,0.0083600422
2.5959061,0.0081844727
2.610216,0.0080223892
2.6240755,0.0078735158
2.6374988,0.007737585
2.6504996,0.0076143314
2.6630913,0.0075034847
2.6752866,0.0074047631
2.687098,0.0073178672
2.6985377,0.0072424743
2.7096174,0.0071782341
2.7203483,0.0071247658
2.7307415,0.0070816562
2.7408075,0.0070484603
2.7505568,0.0070247027
2.7599992,0.00700991
2.7691443,0.0070035415
2.7780017,0.0070050189
2.7865803,0.0070138122
2.7948888,0.0070293845
2.8029359,0.0070511935
2.8107297,0.0070787102
2.8182781,0.0071114256
2.825589,0.0071488557
2.8326698,0.0071905457
2.8395278,0.0072360734
2.8461698,0.0072850507
2.8526028,0.0073371242
2.8588334,0.0073919727
2.8648678,0.0074493152
2.8707123,0.0075088982
2.8763729,0.0075704894
2.8818553,0.0076338869
2.8871651,0.0076989099
2.8923079,0.007765395
2.8972887,0.0078331931
2.9021128,0.007902166
2.9067851,0.0079721835
2.9113102,0.0080431207
2.915693,0.0081148561
2.9199378,0.00818727
2.924049,0.0082602435
2.9280309,0.0083336589
2.9318874,0.0084073994
2.9356225,0.0084813514
2.93924,0.0085554064
2.9427437,0.0086294827
2.9461371,0.0087035362
2.9494237,0.00877743
2.9526069,0.0088508427
2.9556899,0.0089233336
2.9586758,0.008994392
2.9615678,0.0090634644
2.9643687,0.0091299709
2.9670815,0.009193315
2.9697089,0.0092528912
2.9722536,0.0093080906
2.9747182,0.0093583051
2.9771053,0.0094029305
2.9794172,0.0094413689
2.9816563,0.0094730296
2.983825,0.0094973282
2.9859254,0.0095136765
2.9879597,0.0095214989
2.98993,0.0095202282
2.9918382,0.0095092726
2.9936864,0.0094880221
2.9954764,0.0094558505
2.9972101,0.0094121047
2.9988893,0.0093560952
3.0005155,0.0092870866
3.0020906,0.0092042877
3.0036161,0.0091068438
3.0050936,0.0089938295
3.0065246,0.0088642444
3.0079106,0.0087170026
3.0092529,0.0085509362
3.010553,0.0083648053
3.0118121,0.0081572998
3.0130317,0.007927058
3.0142128,0.0076727086
3.0153568,0.0073929305
3.0164647,0.0070865255
3.0175378,0.0067525174
3.0185772,0.0063902804
3.0195838,0.0059996868
3.0205587,0.0055811838
3.0215029,0.0051352687
3.0224174,0.0046632832
3.0233032,0.0041691875
3.024161,0.0036599767
3.0249919,0.003145646
3.0257966,0.0026389327
3.026576,0.0021543753
3.0273308,0.0017065918
3.0280619,0.0013081069
3.02877,0.00096741056
3.0294558,0.00068793887
3.03012,0.00046824756
3.0307633,0.00030309713
3.0313863,0.00018487879
3.0319898,0.00010490593
3.0325742,5.4383218e-05
3.0331403,2.5093989e-05
3.0336885,9.909816e-06
3.0342195,3.1640666e-06
3.0347338,8.7556563e-07
3.0352319,1.351601e-06
3.0357134,2.6804405e-09
