/*--------------------------------*- C++ -*----------------------------------*\
| =========                 |                                                 |
| \\      /  F ield         | OpenFOAM: The Open Source CFD Toolbox           |
|  \\    /   O peration     | Version:  2.4.0                                 |
|   \\  /    A nd           | Web:      www.OpenFOAM.org                      |
|    \\/     M anipulation  |                                                 |
\*---------------------------------------------------------------------------*/
FoamFile
{
    version     2.0;
    format      ascii;
    class       volScalarField;
    location    "330";
    object      nut;
}
// * * * * * * * * * * * * * * * * * * * * * * * * * * * * * * * * * * * * * //

dimensions      [0 2 -1 0 0 0 0];

internalField   nonuniform List<scalar> 
19698
(
1.5009098e-13
1.6515797e-13
1.7995622e-13
1.9373752e-13
2.0617498e-13
2.1626037e-13
2.2437783e-13
2.2977874e-13
2.3714906e-13
2.4161676e-13
2.4765536e-13
2.47758e-13
2.4787213e-13
2.4474733e-13
2.3948801e-13
2.2452349e-13
2.1380632e-13
1.9295318e-13
1.8090066e-13
1.5823345e-13
1.5828264e-13
1.4834945e-13
2.1214274e-13
3.7591164e-13
5.1173625e-13
6.6451791e-13
8.0731491e-13
9.6635114e-13
1.1065743e-12
1.2508341e-12
1.3827082e-12
1.5149721e-12
1.6369265e-12
1.7572786e-12
1.8691448e-12
1.9782644e-12
2.0801403e-12
2.1782015e-12
2.2684098e-12
2.3437696e-12
2.4237127e-12
2.4990412e-12
2.5686404e-12
2.6334908e-12
2.6928525e-12
2.7473439e-12
2.7965086e-12
2.8407999e-12
2.8799696e-12
2.9144282e-12
2.9439144e-12
2.9684234e-12
3.0062581e-12
3.0247608e-12
3.0393555e-12
3.0501697e-12
3.0549413e-12
3.0395522e-12
3.038036e-12
3.0333937e-12
3.0263015e-12
3.0172783e-12
3.0074307e-12
2.9975438e-12
2.989268e-12
2.9812372e-12
2.9716452e-12
2.9461658e-12
2.9178136e-12
2.8855505e-12
2.8511887e-12
2.8148601e-12
2.7769907e-12
2.7376504e-12
2.6970802e-12
2.6553565e-12
2.6126532e-12
2.5690537e-12
2.5246974e-12
2.4796684e-12
2.434081e-12
2.388012e-12
2.3415572e-12
2.2947909e-12
2.2477986e-12
2.2006481e-12
2.1534114e-12
2.1061509e-12
2.0589273e-12
2.0117967e-12
1.9648074e-12
1.918008e-12
1.8714397e-12
1.8251462e-12
1.7791625e-12
1.7335253e-12
1.6882623e-12
1.6434064e-12
1.5989834e-12
1.5550232e-12
1.5115448e-12
1.4685704e-12
1.4261177e-12
1.384203e-12
1.3428397e-12
1.3020407e-12
1.2618195e-12
1.2221918e-12
1.1831719e-12
1.1447747e-12
1.1070094e-12
1.0698908e-12
1.0334271e-12
9.9763067e-13
9.6250253e-13
9.2805242e-13
8.9428205e-13
8.6120451e-13
8.2881525e-13
7.9712676e-13
7.6612879e-13
7.3582964e-13
1.98278e-13
2.2059549e-13
2.4358008e-13
2.6641799e-13
2.8845565e-13
3.0767073e-13
3.1715435e-13
1.7200176e-13
6.6935769e-13
1.8869617e-13
7.7142454e-13
2.0382083e-13
2.0929951e-13
9.3618445e-13
9.9527722e-13
2.2006286e-13
5.0087917e-13
4.988437e-13
4.9793331e-13
4.8131809e-13
4.8029572e-13
4.6689935e-13
5.2437469e-13
1.4890006e-12
1.8231529e-12
5.8717299e-13
7.072842e-13
2.9470351e-12
3.3014867e-12
3.6551319e-12
3.9921206e-12
4.3269965e-12
4.6482146e-12
4.9662015e-12
5.2741731e-12
5.580125e-12
5.8816412e-12
6.1822829e-12
6.3116616e-12
1.9654466e-12
2.0335719e-12
2.0997166e-12
2.161756e-12
2.2203303e-12
2.2749254e-12
2.3259413e-12
2.3730504e-12
2.4165455e-12
2.4562834e-12
2.492743e-12
2.5270516e-12
2.5851501e-12
9.2985716e-12
9.4728007e-12
9.6439284e-12
9.81825e-12
9.6867777e-12
2.6797643e-12
2.6881752e-12
2.6970964e-12
2.7049296e-12
2.712594e-12
2.7219947e-12
2.7362339e-12
2.7637517e-12
2.8459083e-12
5.6978037e-12
5.7294777e-12
5.7403375e-12
5.7457298e-12
5.7475688e-12
5.7463358e-12
5.7424926e-12
5.7361717e-12
5.7276143e-12
5.716919e-12
5.7042568e-12
5.6897215e-12
5.6734522e-12
5.6555388e-12
5.6360976e-12
5.6152093e-12
5.5929713e-12
5.5694612e-12
5.5447667e-12
5.5189589e-12
5.4921126e-12
5.4642936e-12
5.4355652e-12
5.4059881e-12
5.3756129e-12
5.3444922e-12
5.3126686e-12
5.2801896e-12
5.2470916e-12
5.2134154e-12
5.179188e-12
5.1444456e-12
5.1092125e-12
5.0735239e-12
5.0373965e-12
5.0008569e-12
4.9639201e-12
4.9266067e-12
4.8889265e-12
4.8508953e-12
4.8125223e-12
4.7738266e-12
4.7348203e-12
4.6955227e-12
4.6559427e-12
4.6161001e-12
4.5760031e-12
4.5356705e-12
4.4951041e-12
4.4543165e-12
4.4133103e-12
4.3721016e-12
4.330688e-12
4.2890851e-12
4.2472832e-12
4.2052916e-12
1.35283e-12
1.5396e-12
1.745608e-12
1.9678904e-12
2.1989528e-12
2.4152436e-12
2.4523719e-12
4.245482e-13
9.4758784e-12
5.8440864e-13
1.158695e-11
7.7793616e-13
9.0769867e-13
1.5565029e-11
1.6974321e-11
1.3880703e-12
7.1440305e-12
7.4717938e-12
7.6745644e-12
7.725776e-12
7.7025268e-12
7.5892802e-12
7.6820038e-12
2.4905531e-11
2.9133494e-11
2.8865596e-12
3.3808874e-12
4.339895e-11
4.8014894e-11
5.2477977e-11
5.6878723e-11
6.1219733e-11
6.5513688e-11
6.9774395e-11
7.4025082e-11
7.8301141e-11
8.2664931e-11
8.7108299e-11
8.7670803e-11
8.130795e-12
8.4190869e-12
8.7380203e-12
9.0506944e-12
9.3569516e-12
9.6562937e-12
9.948554e-12
1.0233223e-11
1.0510174e-11
1.077981e-11
1.1046229e-11
1.1335542e-11
1.2156327e-11
1.3809671e-10
1.4174871e-10
1.4536885e-10
1.4916157e-10
1.457559e-10
1.3085424e-11
1.3256259e-11
1.3488762e-11
1.3731509e-11
1.3995667e-11
1.4304024e-11
1.4706748e-11
1.5347259e-11
1.7060914e-11
7.1146701e-11
7.2336115e-11
7.3099334e-11
7.3813822e-11
7.4488465e-11
7.5131465e-11
7.5745178e-11
7.6331234e-11
7.6890532e-11
7.7423834e-11
7.7931717e-11
7.8414717e-11
7.8873333e-11
7.9308012e-11
7.9719207e-11
8.0107289e-11
8.047265e-11
8.0815623e-11
8.1136583e-11
8.1435843e-11
8.1713731e-11
8.1970551e-11
8.2206585e-11
8.2422138e-11
8.2617436e-11
8.279275e-11
8.2948261e-11
8.3084209e-11
8.3200759e-11
8.3298129e-11
8.3376416e-11
8.3435801e-11
8.3476353e-11
8.3498298e-11
8.3501652e-11
8.3486594e-11
8.345313e-11
8.3401416e-11
8.3331418e-11
8.3243252e-11
8.3136867e-11
8.3012402e-11
8.2869854e-11
8.2709379e-11
8.2531003e-11
8.2334885e-11
8.212107e-11
8.1889724e-11
8.1640885e-11
8.137465e-11
8.1091031e-11
8.0790163e-11
8.0472059e-11
8.0136843e-11
7.9784485e-11
7.9415037e-11
9.8795443e-12
1.1277452e-11
1.2830448e-11
1.4519631e-11
1.6287843e-11
1.7953164e-11
1.8084178e-11
2.4808552e-12
7.8323611e-11
3.6150732e-12
9.5654537e-11
4.96467e-12
6.1303942e-12
1.2918596e-10
1.3956084e-10
9.7444251e-12
5.7052257e-11
5.9748864e-11
6.1470564e-11
6.2017115e-11
6.1828115e-11
6.0960877e-11
6.137867e-11
2.0379567e-10
2.3737824e-10
1.9947955e-11
2.3318956e-11
3.5153603e-10
3.888973e-10
4.2459009e-10
4.5989745e-10
4.9470133e-10
5.2922505e-10
5.6348838e-10
5.9776085e-10
6.3227496e-10
6.6760044e-10
7.0360975e-10
7.04973e-10
5.4802636e-11
5.6657603e-11
5.8853696e-11
6.1019444e-11
6.315054e-11
6.5245379e-11
6.7300874e-11
6.9314487e-11
7.1283935e-11
7.3213022e-11
7.5132632e-11
7.726368e-11
8.4051794e-11
1.1195376e-09
1.150662e-09
1.1807327e-09
1.2122318e-09
1.178975e-09
9.0343303e-11
9.1521955e-11
9.3297734e-11
9.5158622e-11
9.7187524e-11
9.9554048e-11
1.0263705e-10
1.0753605e-10
1.2109129e-10
5.6212459e-10
5.7216022e-10
5.785325e-10
5.8453033e-10
5.9021576e-10
5.956548e-10
6.0086419e-10
6.058568e-10
6.1063857e-10
6.1521527e-10
6.1959061e-10
6.2376849e-10
6.2775221e-10
6.3154488e-10
6.3514957e-10
6.3856887e-10
6.4180542e-10
6.4486154e-10
6.4773974e-10
6.5044224e-10
6.5297128e-10
6.5532897e-10
6.575173e-10
6.5953839e-10
6.6139387e-10
6.6308559e-10
6.6461486e-10
6.6598334e-10
6.671922e-10
6.6824303e-10
6.6913637e-10
6.6987363e-10
6.7045514e-10
6.7088259e-10
6.7115603e-10
6.7127676e-10
6.7124474e-10
6.7106114e-10
6.7072561e-10
6.7023902e-10
6.6960091e-10
6.6881225e-10
6.67873e-10
6.6678432e-10
6.6554639e-10
6.641604e-10
6.6262662e-10
6.6094644e-10
6.5912007e-10
6.571483e-10
6.5503118e-10
6.5276973e-10
6.5036411e-10
6.4781525e-10
6.4512295e-10
6.4228761e-10
4.6522696e-11
5.3126301e-11
6.0469736e-11
6.8466477e-11
7.6848176e-11
8.4748084e-11
8.4782672e-11
1.1287663e-11
3.7420546e-10
1.6572518e-11
4.5372642e-10
2.2695966e-11
2.9016539e-11
6.1192781e-10
6.5214421e-10
4.606858e-11
2.7462632e-10
2.8730599e-10
2.9564683e-10
2.9835077e-10
2.974431e-10
2.9328617e-10
2.9529641e-10
9.4918831e-10
1.1030829e-09
9.5223832e-11
1.1161967e-10
1.6339102e-09
1.8092607e-09
1.9749725e-09
2.1389692e-09
2.3006064e-09
2.4610083e-09
2.6202017e-09
2.7794975e-09
2.9399383e-09
3.1042162e-09
3.2715537e-09
3.2606539e-09
2.6108176e-10
2.6952429e-10
2.7999847e-10
2.9033423e-10
3.0050873e-10
3.105151e-10
3.2033771e-10
3.2996485e-10
3.3938499e-10
3.4861691e-10
3.5781503e-10
3.6818891e-10
4.043163e-10
5.2044883e-09
5.3540282e-09
5.494402e-09
5.6410887e-09
5.4528727e-09
4.3128078e-10
4.3645689e-10
4.4499485e-10
4.5394512e-10
4.6370419e-10
4.750857e-10
4.8991227e-10
5.1356608e-10
5.8160033e-10
2.6975078e-09
2.746908e-09
2.7776729e-09
2.8066464e-09
2.8341224e-09
2.8604179e-09
2.8856122e-09
2.9097672e-09
2.9329106e-09
2.9550699e-09
2.9762628e-09
2.9965076e-09
3.0158196e-09
3.034214e-09
3.0517048e-09
3.0683045e-09
3.0840254e-09
3.0988786e-09
3.1128758e-09
3.1260275e-09
3.1383444e-09
3.1498364e-09
3.1605129e-09
3.170384e-09
3.1794573e-09
3.1877416e-09
3.1952431e-09
3.2019698e-09
3.207927e-09
3.2131224e-09
3.2175584e-09
3.2212418e-09
3.2241741e-09
3.2263632e-09
3.2278094e-09
3.2285189e-09
3.2284915e-09
3.2277326e-09
3.2262406e-09
3.2240196e-09
3.2210673e-09
3.2173885e-09
3.2129828e-09
3.2078557e-09
3.2020082e-09
3.1954458e-09
3.18817e-09
3.1801872e-09
3.1714984e-09
3.1621076e-09
3.1520149e-09
3.1412251e-09
3.129739e-09
3.1175612e-09
3.1046905e-09
3.0911289e-09
1.6189117e-10
1.848914e-10
2.1047716e-10
2.38352e-10
2.6758955e-10
2.9514386e-10
2.9351138e-10
4.099209e-11
1.2151765e-09
6.0259126e-11
1.464809e-09
8.2131363e-11
1.0768209e-10
1.9763659e-09
2.0810973e-09
1.7017991e-10
9.6625974e-10
1.0099502e-09
1.0393501e-09
1.0489278e-09
1.0457489e-09
1.0311172e-09
1.0387071e-09
3.0297481e-09
3.5129819e-09
3.5465212e-10
4.1700749e-10
5.2098402e-09
5.7733757e-09
6.3017063e-09
6.8246126e-09
7.3399556e-09
7.851408e-09
8.3589895e-09
8.8669389e-09
9.3785386e-09
9.9024097e-09
1.043551e-08
1.0344881e-08
9.7217809e-10
1.0025993e-09
1.0415889e-09
1.0800694e-09
1.1179516e-09
1.1552108e-09
1.1917878e-09
1.2276394e-09
1.2627221e-09
1.2971066e-09
1.3313956e-09
1.3707144e-09
1.516904e-09
1.6593255e-08
1.7080483e-08
1.7528682e-08
1.7995692e-08
1.7287271e-08
1.6062834e-09
1.6243247e-09
1.6561246e-09
1.6894614e-09
1.7258054e-09
1.7681819e-09
1.823381e-09
1.9118237e-09
2.1743239e-09
9.4710545e-09
9.6474318e-09
9.7556145e-09
9.8575132e-09
9.9541592e-09
1.0046664e-08
1.0135305e-08
1.0220298e-08
1.0301741e-08
1.0379731e-08
1.0454328e-08
1.0525597e-08
1.0593591e-08
1.0658363e-08
1.0719963e-08
1.0778433e-08
1.0833817e-08
1.0886154e-08
1.0935485e-08
1.0981846e-08
1.1025273e-08
1.1065803e-08
1.1103468e-08
1.1138303e-08
1.1170335e-08
1.1199595e-08
1.1226103e-08
1.1249889e-08
1.127097e-08
1.1289374e-08
1.1305109e-08
1.1318198e-08
1.1328647e-08
1.1336483e-08
1.1341707e-08
1.1344342e-08
1.1344385e-08
1.1341857e-08
1.1336751e-08
1.1329081e-08
1.131884e-08
1.1306044e-08
1.1290693e-08
1.1272804e-08
1.1252381e-08
1.1229444e-08
1.1203998e-08
1.1176066e-08
1.114565e-08
1.1112765e-08
1.107741e-08
1.1039604e-08
1.0999348e-08
1.0956659e-08
1.0911532e-08
1.0863974e-08
4.5956592e-10
5.24892e-10
5.9757859e-10
6.7679614e-10
7.5993863e-10
8.3826108e-10
8.2988873e-10
1.2854544e-10
2.9904182e-09
1.8861503e-10
3.6016312e-09
2.5584769e-10
3.4111658e-10
4.8818973e-09
5.1080823e-09
5.3598118e-10
2.7624662e-09
2.8859818e-09
2.9701706e-09
2.997668e-09
2.9886254e-09
2.9466896e-09
2.9694958e-09
7.4745914e-09
8.65211e-09
1.1218086e-09
1.3225162e-09
1.2843866e-08
1.4236121e-08
1.5537833e-08
1.6826172e-08
1.8095762e-08
1.9355789e-08
2.0606203e-08
2.1857534e-08
2.31178e-08
2.4408297e-08
2.5720575e-08
2.5405403e-08
3.0744435e-09
3.1688673e-09
3.2921118e-09
3.4137568e-09
3.5335123e-09
3.6513007e-09
3.7669349e-09
3.8802782e-09
3.9911917e-09
4.0999019e-09
4.208405e-09
4.3349059e-09
4.8244508e-09
4.0890058e-08
4.2096865e-08
4.3201932e-08
4.4350837e-08
4.2430781e-08
5.0793885e-09
5.1343759e-09
5.234867e-09
5.3402079e-09
5.4550239e-09
5.5888478e-09
5.7631125e-09
6.0434223e-09
6.8927562e-09
2.7029834e-08
2.7537484e-08
2.7846551e-08
2.8137708e-08
2.8413899e-08
2.8678287e-08
2.8931661e-08
2.9174639e-08
2.9407495e-08
2.9630506e-08
2.9843842e-08
3.0047689e-08
3.0242197e-08
3.0427516e-08
3.0603786e-08
3.077113e-08
3.092967e-08
3.1079517e-08
3.1220785e-08
3.135358e-08
3.1478005e-08
3.159416e-08
3.1702139e-08
3.180204e-08
3.1893939e-08
3.1977925e-08
3.2054057e-08
3.2122415e-08
3.218305e-08
3.223604e-08
3.2281409e-08
3.2319221e-08
3.2349494e-08
3.2372304e-08
3.2387653e-08
3.2395604e-08
3.2396152e-08
3.2389353e-08
3.237519e-08
3.2353701e-08
3.2324866e-08
3.2288729e-08
3.2245288e-08
3.2194597e-08
3.2136664e-08
3.2071546e-08
3.1999255e-08
3.1919857e-08
3.183336e-08
3.1739804e-08
3.1639189e-08
3.1531563e-08
3.1416934e-08
3.1295347e-08
3.1166789e-08
3.1031282e-08
1.1293043e-09
1.2899006e-09
1.4686313e-09
1.6634869e-09
1.8681243e-09
2.060798e-09
2.035002e-09
3.6304718e-10
6.0926873e-09
5.304089e-10
7.3729385e-09
7.1606825e-10
9.6372463e-10
1.0077408e-08
1.0548643e-08
1.5041256e-09
6.821477e-09
7.1264542e-09
7.3347758e-09
7.4029714e-09
7.3807474e-09
7.2766756e-09
7.3329632e-09
1.5573742e-08
1.8017488e-08
3.1497531e-09
3.7200865e-09
2.6748271e-08
2.9636585e-08
3.2343829e-08
3.5023133e-08
3.766314e-08
4.0283213e-08
4.288307e-08
4.5484771e-08
4.8104852e-08
5.0787756e-08
5.3515482e-08
5.2823436e-08
8.6276487e-09
8.8910746e-09
9.2367335e-09
9.5779227e-09
9.9138139e-09
1.0244194e-08
1.0568537e-08
1.0886463e-08
1.1197577e-08
1.150252e-08
1.1807158e-08
1.2167955e-08
1.3587477e-08
8.5090517e-08
8.7574858e-08
8.9874324e-08
9.2263157e-08
8.8209427e-08
1.4251202e-08
1.4404345e-08
1.4686129e-08
1.4981474e-08
1.5303281e-08
1.5678167e-08
1.616606e-08
1.6953365e-08
1.9361988e-08
6.6638675e-08
6.7889666e-08
6.8652629e-08
6.9371556e-08
7.0053682e-08
7.0706781e-08
7.1332792e-08
7.1933228e-08
7.2508764e-08
7.3060073e-08
7.3587577e-08
7.4091725e-08
7.4572885e-08
7.5031424e-08
7.5467683e-08
7.5881963e-08
7.627456e-08
7.6645743e-08
7.6995793e-08
7.7324967e-08
7.7633518e-08
7.7921688e-08
7.8189705e-08
7.8437809e-08
7.8666187e-08
7.8875054e-08
7.9064551e-08
7.9234876e-08
7.9386154e-08
7.9518571e-08
7.9632186e-08
7.9727156e-08
7.9803521e-08
7.9861465e-08
7.9900998e-08
7.9922266e-08
7.9925258e-08
7.9910111e-08
7.9876779e-08
7.9825357e-08
7.9755793e-08
7.9668194e-08
7.9562552e-08
7.9439002e-08
7.9297562e-08
7.9138366e-08
7.8961451e-08
7.876697e-08
7.8554946e-08
7.8325476e-08
7.8078557e-08
7.7814311e-08
7.7532749e-08
7.7233987e-08
7.691799e-08
7.6584815e-08
2.493376e-09
2.8480886e-09
3.2429424e-09
3.6735684e-09
4.1261004e-09
4.5520172e-09
4.4933907e-09
9.4398716e-10
1.1023585e-08
1.3705741e-09
1.3457113e-08
1.8416535e-09
2.4864787e-09
1.8581626e-08
1.9562919e-08
3.8521648e-09
1.5112144e-08
1.5794675e-08
1.6257358e-08
1.6409158e-08
1.6359986e-08
1.6127579e-08
1.6243747e-08
2.9187979e-08
3.3793299e-08
8.0442322e-09
9.5091323e-09
5.0114249e-08
5.5481662e-08
6.0543626e-08
6.5552951e-08
7.0488097e-08
7.5385734e-08
8.0245037e-08
8.5107531e-08
9.00039e-08
9.5017645e-08
1.0011771e-07
9.9044692e-08
2.2013474e-08
2.268876e-08
2.3570049e-08
2.4439963e-08
2.5296375e-08
2.6138756e-08
2.6965765e-08
2.7776441e-08
2.8569771e-08
2.9347396e-08
3.0124965e-08
3.1059022e-08
3.4716796e-08
1.5924354e-07
1.6379255e-07
1.6809408e-07
1.7256722e-07
1.6543366e-07
3.635073e-08
3.6748263e-08
3.7466745e-08
3.8219656e-08
3.9039701e-08
3.9994326e-08
4.1235623e-08
4.3243306e-08
4.9381564e-08
1.4737112e-07
1.5011316e-07
1.5180378e-07
1.5339744e-07
1.5491003e-07
1.5635869e-07
1.5774766e-07
1.5908029e-07
1.6035803e-07
1.6158237e-07
1.6275423e-07
1.6387458e-07
1.6494422e-07
1.6596396e-07
1.6693453e-07
1.6785659e-07
1.6873078e-07
1.6955769e-07
1.7033792e-07
1.7107204e-07
1.7176059e-07
1.724041e-07
1.7300306e-07
1.73558e-07
1.7406931e-07
1.7453747e-07
1.7496278e-07
1.7534567e-07
1.756864e-07
1.7598539e-07
1.7624275e-07
1.7645883e-07
1.7663369e-07
1.7676776e-07
1.7686103e-07
1.7691383e-07
1.7692613e-07
1.7689822e-07
1.7683e-07
1.7672166e-07
1.765731e-07
1.7638454e-07
1.7615596e-07
1.7588765e-07
1.7557964e-07
1.7523224e-07
1.7484551e-07
1.744198e-07
1.7395514e-07
1.7345175e-07
1.7290961e-07
1.72329e-07
1.7170994e-07
1.7105267e-07
1.7035712e-07
1.6962342e-07
5.069799e-09
5.7912779e-09
6.5945819e-09
7.4709814e-09
8.3925755e-09
9.2599862e-09
9.157712e-09
2.2881337e-09
1.859058e-08
3.2966563e-09
2.2938436e-08
4.409436e-09
5.9417575e-09
3.2001329e-08
3.3996576e-08
9.1333649e-09
3.0798491e-08
3.2214898e-08
3.3160512e-08
3.3471389e-08
3.3370623e-08
3.2891303e-08
3.3091466e-08
5.1247007e-08
5.9442308e-08
1.8966474e-08
2.2416402e-08
8.795987e-08
9.7281737e-08
1.0614376e-07
1.1491266e-07
1.2355018e-07
1.3212134e-07
1.4062425e-07
1.4913207e-07
1.5769813e-07
1.6646967e-07
1.7540291e-07
1.7431353e-07
5.1827613e-08
5.3437965e-08
5.5510665e-08
5.7556629e-08
5.9570859e-08
6.1552162e-08
6.3497391e-08
6.5404308e-08
6.7270516e-08
6.9099885e-08
7.0930866e-08
7.3156719e-08
8.1662825e-08
2.7909356e-07
2.8684996e-07
2.9438466e-07
3.022424e-07
2.9130393e-07
8.5545556e-08
8.6515837e-08
8.8206417e-08
8.9977551e-08
9.190564e-08
9.414812e-08
9.7060463e-08
1.017769e-07
1.1605247e-07
2.9966083e-07
3.0514823e-07
3.0859616e-07
3.1184816e-07
3.149363e-07
3.1789517e-07
3.2073336e-07
3.2345759e-07
3.2607078e-07
3.2857591e-07
3.3097478e-07
3.3326937e-07
3.3546124e-07
3.37552e-07
3.3954311e-07
3.4143587e-07
3.4323153e-07
3.4493128e-07
3.465363e-07
3.480477e-07
3.4946655e-07
3.5079392e-07
3.5203076e-07
3.5317811e-07
3.5423677e-07
3.5520765e-07
3.5609136e-07
3.5688874e-07
3.5760031e-07
3.5822687e-07
3.5876864e-07
3.5922631e-07
3.5959999e-07
3.598905e-07
3.6009784e-07
3.6022263e-07
3.602648e-07
3.6022491e-07
3.6010276e-07
3.5989873e-07
3.5961256e-07
3.592447e-07
3.587951e-07
3.5826434e-07
3.5765248e-07
3.5696009e-07
3.5618731e-07
3.5533482e-07
3.5440269e-07
3.5339137e-07
3.5230077e-07
3.5113147e-07
3.4988347e-07
3.485573e-07
3.4715276e-07
3.4567017e-07
9.6570885e-09
1.103175e-08
1.2562667e-08
1.4233518e-08
1.5991762e-08
1.7647712e-08
1.7521123e-08
5.2112014e-09
3.0102098e-08
7.4424474e-09
3.7556656e-08
9.9104817e-09
1.3272538e-08
5.288595e-08
5.6777732e-08
2.0237858e-08
5.8753013e-08
6.1518304e-08
6.3327323e-08
6.392291e-08
6.3727624e-08
6.2797506e-08
6.3074228e-08
8.6348447e-08
1.0042027e-07
4.1693765e-08
4.9213635e-08
1.4814204e-07
1.6366176e-07
1.7854169e-07
1.9326303e-07
2.0776073e-07
2.2214534e-07
2.3641304e-07
2.5068741e-07
2.6505755e-07
2.7977308e-07
2.947885e-07
2.9474356e-07
1.1369748e-07
1.1729657e-07
1.2183686e-07
1.2631856e-07
1.3073085e-07
1.3507124e-07
1.3933288e-07
1.4351093e-07
1.4760012e-07
1.5160892e-07
1.5562509e-07
1.6055081e-07
1.7857247e-07
4.6918257e-07
4.8184857e-07
4.9450875e-07
5.0777438e-07
4.9287932e-07
1.8755816e-07
1.8979339e-07
1.9350035e-07
1.9738265e-07
2.0160638e-07
2.0651324e-07
2.1287583e-07
2.2318084e-07
2.5378853e-07
5.6981011e-07
5.800282e-07
5.8661286e-07
5.9282817e-07
5.9873432e-07
6.0439668e-07
6.0983129e-07
6.1505081e-07
6.200607e-07
6.2486645e-07
6.2947143e-07
6.3387925e-07
6.3809282e-07
6.4211506e-07
6.4594863e-07
6.4959596e-07
6.5305932e-07
6.5634085e-07
6.5944272e-07
6.6236698e-07
6.6511557e-07
6.676904e-07
6.7009326e-07
6.7232602e-07
6.7439013e-07
6.7628727e-07
6.7801849e-07
6.7958537e-07
6.8098879e-07
6.8223024e-07
6.8331007e-07
6.8422951e-07
6.8498876e-07
6.8558927e-07
6.8603101e-07
6.863151e-07
6.8644135e-07
6.864108e-07
6.86223e-07
6.8587863e-07
6.8537716e-07
6.8471941e-07
6.8390524e-07
6.8293569e-07
6.8181085e-07
6.8053177e-07
6.790987e-07
6.7751288e-07
6.757744e-07
6.7388407e-07
6.7184175e-07
6.6964847e-07
6.673042e-07
6.6480993e-07
6.6216528e-07
6.5937088e-07
1.7446059e-08
1.9929912e-08
2.2696752e-08
2.5717677e-08
2.889896e-08
3.18995e-08
3.1849391e-08
1.1213526e-08
4.7589276e-08
1.5861985e-08
6.0004952e-08
2.1032651e-08
2.7898209e-08
8.5161012e-08
9.2421478e-08
4.219507e-08
1.0622992e-07
1.1135765e-07
1.1463651e-07
1.1571624e-07
1.1535223e-07
1.1363058e-07
1.1388705e-07
1.4151951e-07
1.6509004e-07
8.606817e-08
1.0134177e-07
2.4263002e-07
2.6775345e-07
2.9203666e-07
3.1605624e-07
3.397049e-07
3.6316527e-07
3.8643037e-07
4.0970304e-07
4.3312835e-07
4.5711904e-07
4.8166256e-07
4.8492408e-07
2.3404629e-07
2.4162179e-07
2.5094868e-07
2.6015506e-07
2.6921927e-07
2.7813647e-07
2.8689272e-07
2.9547827e-07
3.0388222e-07
3.1212193e-07
3.2038433e-07
3.3056681e-07
3.6556649e-07
7.6666912e-07
7.8679936e-07
8.07481e-07
8.2929315e-07
8.1143521e-07
3.8580055e-07
3.906689e-07
3.9829692e-07
4.0628247e-07
4.1496379e-07
4.2503514e-07
4.38069e-07
4.5915301e-07
5.200908e-07
1.0254691e-06
1.0434281e-06
1.0553489e-06
1.0666122e-06
1.077325e-06
1.0876036e-06
1.0974765e-06
1.1069662e-06
1.1160821e-06
1.1248338e-06
1.1332273e-06
1.1412686e-06
1.1489628e-06
1.156315e-06
1.1633296e-06
1.1700109e-06
1.1763626e-06
1.1823884e-06
1.188092e-06
1.1934769e-06
1.1985464e-06
1.2033037e-06
1.2077519e-06
1.2118941e-06
1.2157328e-06
1.2192708e-06
1.22251e-06
1.2254528e-06
1.2281008e-06
1.2304565e-06
1.2325204e-06
1.2342946e-06
1.2357792e-06
1.2369768e-06
1.2378871e-06
1.2385121e-06
1.2388512e-06
1.2389063e-06
1.2386764e-06
1.2381626e-06
1.2373639e-06
1.2362817e-06
1.2349155e-06
1.2332672e-06
1.2313368e-06
1.2291262e-06
1.2266356e-06
1.2238673e-06
1.2208213e-06
1.217499e-06
1.2139001e-06
1.2100263e-06
1.2058776e-06
1.2014557e-06
1.1967598e-06
1.1917911e-06
3.0165182e-08
3.4460185e-08
3.9245644e-08
4.4472697e-08
4.9981545e-08
5.5189481e-08
5.548511e-08
2.2894377e-08
7.4111138e-08
3.2057666e-08
9.4339486e-08
4.2338369e-08
5.5465205e-08
1.3471852e-07
1.477185e-07
8.3221327e-08
1.8373157e-07
1.9282292e-07
1.985029e-07
2.0036966e-07
1.9970796e-07
1.9663666e-07
1.9659252e-07
2.2723052e-07
2.6593641e-07
1.6778011e-07
1.9684702e-07
3.891757e-07
4.2901678e-07
4.6780144e-07
5.0615488e-07
5.439045e-07
5.8134552e-07
6.184662e-07
6.5559234e-07
6.9295602e-07
7.3122772e-07
7.7050845e-07
7.8127872e-07
4.5455514e-07
4.6962388e-07
4.8768719e-07
5.0551688e-07
5.2307252e-07
5.4034535e-07
5.5730881e-07
5.7394442e-07
5.9023095e-07
6.0620191e-07
6.2222921e-07
6.4197653e-07
7.0457358e-07
1.2261985e-06
1.2576089e-06
1.290688e-06
1.3258551e-06
1.3080395e-06
7.4858572e-07
7.5861968e-07
7.734313e-07
7.8892943e-07
8.057627e-07
8.2525883e-07
8.504315e-07
8.9103897e-07
1.0043326e-06
1.7619515e-06
1.7920705e-06
1.8127115e-06
1.8322379e-06
1.8508309e-06
1.8686879e-06
1.885857e-06
1.9023757e-06
1.91826e-06
1.9335257e-06
1.9481822e-06
1.9622398e-06
1.9757063e-06
1.98859e-06
2.0008982e-06
2.0126375e-06
2.023814e-06
2.0344336e-06
2.0445021e-06
2.0540251e-06
2.0630077e-06
2.0714552e-06
2.0793724e-06
2.0867643e-06
2.0936348e-06
2.0999883e-06
2.1058275e-06
2.1111567e-06
2.1159779e-06
2.1202952e-06
2.1241092e-06
2.1274229e-06
2.1302365e-06
2.1325541e-06
2.1343748e-06
2.1357017e-06
2.1365337e-06
2.1368736e-06
2.1367196e-06
2.1360732e-06
2.1349325e-06
2.1332996e-06
2.1311736e-06
2.1285575e-06
2.125451e-06
2.1218571e-06
2.1177762e-06
2.1132118e-06
2.1081639e-06
2.1026348e-06
2.0966235e-06
2.0901332e-06
2.0831633e-06
2.0757168e-06
2.0677922e-06
2.0593915e-06
5.0267056e-08
5.7423598e-08
6.5399231e-08
7.4114458e-08
8.3307212e-08
9.2025524e-08
9.3236033e-08
4.4503814e-08
1.1418403e-07
6.1664202e-08
1.4654805e-07
8.1138425e-08
1.0475686e-07
2.1022552e-07
2.3266738e-07
1.5597193e-07
3.0609897e-07
3.2158661e-07
3.3105053e-07
3.3414425e-07
3.3295822e-07
3.2763726e-07
3.2669589e-07
3.5871923e-07
4.2114078e-07
3.1034642e-07
3.624473e-07
6.1345168e-07
6.7556515e-07
7.3639028e-07
7.9651814e-07
8.5567776e-07
9.1433737e-07
9.7247902e-07
1.0306164e-06
1.089116e-06
1.1490512e-06
1.2107954e-06
1.2362098e-06
8.367996e-07
8.6520489e-07
8.9833457e-07
9.3103572e-07
9.6323789e-07
9.9492623e-07
1.0260531e-06
1.0565854e-06
1.0864841e-06
1.1158101e-06
1.145254e-06
1.1813129e-06
1.2848915e-06
1.9258854e-06
1.9742102e-06
2.0261825e-06
2.0819314e-06
2.0703343e-06
1.3765142e-06
1.3961015e-06
1.4233665e-06
1.4518786e-06
1.482814e-06
1.5185739e-06
1.5646226e-06
1.6385699e-06
1.8362398e-06
2.9090236e-06
2.9576225e-06
2.992026e-06
3.0246185e-06
3.0556952e-06
3.0855765e-06
3.1143404e-06
3.1420472e-06
3.1687219e-06
3.1943896e-06
3.2190647e-06
3.242763e-06
3.2654966e-06
3.2872779e-06
3.3081182e-06
3.3280271e-06
3.3470141e-06
3.3650878e-06
3.3822569e-06
3.3985298e-06
3.4139142e-06
3.4284178e-06
3.4420478e-06
3.4548117e-06
3.4667151e-06
3.4777647e-06
3.4879642e-06
3.4973198e-06
3.5058345e-06
3.5135141e-06
3.5203589e-06
3.5263735e-06
3.5315575e-06
3.5359168e-06
3.5394497e-06
3.5421607e-06
3.5440473e-06
3.5451136e-06
3.545356e-06
3.5447768e-06
3.5433722e-06
3.5411451e-06
3.5380937e-06
3.5342224e-06
3.5295304e-06
3.5240222e-06
3.517698e-06
3.5105633e-06
3.5026176e-06
3.4938643e-06
3.4843017e-06
3.4739343e-06
3.4627612e-06
3.4507868e-06
3.4380084e-06
3.4244286e-06
8.1164291e-08
9.2716445e-08
1.0559366e-07
1.1967091e-07
1.345325e-07
1.4868265e-07
1.5185876e-07
8.2616208e-08
1.7436702e-07
1.1326185e-07
2.2531506e-07
1.4852711e-07
1.887152e-07
3.2419748e-07
3.6169328e-07
2.7892903e-07
4.9384815e-07
5.1929572e-07
5.3453209e-07
5.3946106e-07
5.3734909e-07
5.2834797e-07
5.25433e-07
5.5764543e-07
6.5652126e-07
5.4710552e-07
6.3554516e-07
9.5164446e-07
1.0469735e-06
1.1407517e-06
1.2334129e-06
1.3245422e-06
1.4148691e-06
1.5043693e-06
1.5938385e-06
1.6838499e-06
1.7760971e-06
1.8715009e-06
1.9228352e-06
1.4664231e-06
1.5173011e-06
1.5750836e-06
1.63212e-06
1.688295e-06
1.7435852e-06
1.7979097e-06
1.8512122e-06
1.9034251e-06
1.9546518e-06
2.0060871e-06
2.0683118e-06
2.2277777e-06
2.974117e-06
3.0475404e-06
3.1278406e-06
3.2147652e-06
3.2201002e-06
2.4089372e-06
2.445199e-06
2.492979e-06
2.5429105e-06
2.597019e-06
2.6594298e-06
2.7395545e-06
2.8673847e-06
3.192618e-06
4.6374912e-06
4.7133918e-06
4.7688424e-06
4.8214582e-06
4.871705e-06
4.9200833e-06
4.9667142e-06
5.0116911e-06
5.0550518e-06
5.0968339e-06
5.1370584e-06
5.1757486e-06
5.212922e-06
5.2485964e-06
5.282788e-06
5.3155106e-06
5.3467774e-06
5.3766004e-06
5.4049921e-06
5.4319641e-06
5.4575271e-06
5.4816922e-06
5.504469e-06
5.5258683e-06
5.5458975e-06
5.5645661e-06
5.5818787e-06
5.5978438e-06
5.6124648e-06
5.6257502e-06
5.6376988e-06
5.6483173e-06
5.6576034e-06
5.6655656e-06
5.6722002e-06
5.677513e-06
5.6814993e-06
5.6841646e-06
5.6855022e-06
5.6855147e-06
5.6841953e-06
5.6815477e-06
5.6775682e-06
5.6722628e-06
5.6656295e-06
5.6576749e-06
5.6483982e-06
5.6378076e-06
5.6259015e-06
5.6126846e-06
5.5981535e-06
5.5823148e-06
5.5651664e-06
5.5467148e-06
5.5269551e-06
5.5058894e-06
1.2752389e-07
1.4566484e-07
1.6589083e-07
1.8801087e-07
2.1138456e-07
2.3373969e-07
2.4064811e-07
1.468875e-07
2.6403205e-07
1.9927493e-07
3.4301355e-07
2.6052145e-07
3.2553677e-07
4.9436957e-07
5.5517631e-07
4.7787059e-07
7.7475324e-07
8.1520353e-07
8.3898074e-07
8.4653802e-07
8.42788e-07
8.2786958e-07
8.2125351e-07
8.540453e-07
1.0077754e-06
9.2309626e-07
1.0661009e-06
1.4533881e-06
1.5974326e-06
1.7395863e-06
1.8799653e-06
2.0179528e-06
2.1546638e-06
2.2900718e-06
2.4253886e-06
2.5615012e-06
2.7010384e-06
2.8458922e-06
2.9398688e-06
2.4563547e-06
2.5431925e-06
2.6394171e-06
2.7344044e-06
2.827977e-06
2.9200995e-06
3.0106422e-06
3.099514e-06
3.1866022e-06
3.2720717e-06
3.3578412e-06
3.4597385e-06
3.6898374e-06
4.5164803e-06
4.626644e-06
4.7486302e-06
4.8817953e-06
4.9206781e-06
4.0286038e-06
4.0923939e-06
4.1724183e-06
4.2559814e-06
4.3464088e-06
4.4504611e-06
4.5835941e-06
4.7941499e-06
5.3012616e-06
7.1645501e-06
7.2797559e-06
7.3664476e-06
7.4488484e-06
7.5276728e-06
7.6036748e-06
7.6770366e-06
7.7478974e-06
7.8163119e-06
7.8823344e-06
7.9459947e-06
8.0073249e-06
8.0663491e-06
8.123092e-06
8.1775753e-06
8.2298177e-06
8.2798366e-06
8.327648e-06
8.3732683e-06
8.4167129e-06
8.4579959e-06
8.4971318e-06
8.534133e-06
8.569014e-06
8.6017839e-06
8.632455e-06
8.6610325e-06
8.6875272e-06
8.7119426e-06
8.7342893e-06
8.754564e-06
8.7727747e-06
8.7889164e-06
8.8029999e-06
8.8150178e-06
8.8249774e-06
8.8328697e-06
8.8387011e-06
8.8424601e-06
8.8441489e-06
8.8437556e-06
8.8412843e-06
8.8367278e-06
8.8300939e-06
8.8213782e-06
8.8105893e-06
8.7977246e-06
8.7827956e-06
8.7657981e-06
8.7467388e-06
8.7256105e-06
8.7024225e-06
8.6771704e-06
8.649863e-06
8.6204915e-06
8.5890569e-06
1.9562916e-07
2.2343526e-07
2.5444289e-07
2.883677e-07
3.2424814e-07
3.5873116e-07
3.7214097e-07
2.5085678e-07
3.9634232e-07
3.3692357e-07
5.1694361e-07
4.3925812e-07
5.3985325e-07
7.4537663e-07
8.4128257e-07
7.8741603e-07
1.1856412e-06
1.2479928e-06
1.2840342e-06
1.2951768e-06
1.2885385e-06
1.2642739e-06
1.2514428e-06
1.2884873e-06
1.5228769e-06
1.4967746e-06
1.7183938e-06
2.1847989e-06
2.398974e-06
2.6107376e-06
2.8197062e-06
3.0249917e-06
3.2282657e-06
3.4295136e-06
3.6305463e-06
3.8327227e-06
4.0400434e-06
4.2559489e-06
4.4159576e-06
3.9488756e-06
4.0905611e-06
4.2441698e-06
4.3958164e-06
4.5452428e-06
4.6923987e-06
4.8370857e-06
4.9791621e-06
5.1184485e-06
5.2551864e-06
5.3922272e-06
5.5513224e-06
5.8653405e-06
6.7417053e-06
6.9047535e-06
7.0867896e-06
7.2868697e-06
7.3828999e-06
6.4640155e-06
6.5709283e-06
6.6994912e-06
6.8336217e-06
6.9785462e-06
7.1448766e-06
7.3568889e-06
7.6885166e-06
8.4415193e-06
1.0756571e-05
1.0926941e-05
1.1058659e-05
1.1184077e-05
1.1304262e-05
1.1420314e-05
1.1532498e-05
1.1641015e-05
1.1745942e-05
1.1847354e-05
1.1945291e-05
1.2039797e-05
1.2130903e-05
1.2218641e-05
1.230304e-05
1.2384123e-05
1.2461912e-05
1.2536427e-05
1.2607689e-05
1.2675717e-05
1.2740529e-05
1.2802142e-05
1.2860571e-05
1.2915835e-05
1.2967943e-05
1.3016912e-05
1.3062745e-05
1.3105457e-05
1.3145047e-05
1.3181531e-05
1.32149e-05
1.3245162e-05
1.3272308e-05
1.3296351e-05
1.3317277e-05
1.3335094e-05
1.3349786e-05
1.336136e-05
1.3369797e-05
1.3375096e-05
1.3377239e-05
1.3376229e-05
1.3372052e-05
1.3364718e-05
1.3354218e-05
1.3340563e-05
1.3323747e-05
1.3303784e-05
1.3280667e-05
1.3254403e-05
1.3224978e-05
1.3192407e-05
1.3156678e-05
1.3117804e-05
1.307577e-05
1.3030573e-05
2.9381763e-07
3.3552948e-07
3.8205066e-07
4.3296693e-07
4.8686679e-07
5.389218e-07
5.6294159e-07
4.1278252e-07
5.8944973e-07
5.4923812e-07
7.7081607e-07
7.1424725e-07
8.6405842e-07
1.1107147e-06
1.2580442e-06
1.2526831e-06
1.7743075e-06
1.8676801e-06
1.9208033e-06
1.93656e-06
1.924882e-06
1.8861484e-06
1.8637742e-06
1.9142495e-06
2.264384e-06