/*--------------------------------*- C++ -*----------------------------------*\
| =========                 |                                                 |
| \\      /  F ield         | OpenFOAM: The Open Source CFD Toolbox           |
|  \\    /   O peration     | Version:  2.4.0                                 |
|   \\  /    A nd           | Web:      www.OpenFOAM.org                      |
|    \\/     M anipulation  |                                                 |
\*---------------------------------------------------------------------------*/
FoamFile
{
    version     2.0;
    format      ascii;
    class       surfaceScalarField;
    location    "330";
    object      phi;
}
// * * * * * * * * * * * * * * * * * * * * * * * * * * * * * * * * * * * * * //

dimensions      [0 3 -1 0 0 0 0];

internalField   nonuniform List<scalar> 
39105
(
-7.2733292e-08
3.5772907e-09
-7.6096136e-08
3.3628782e-09
-7.9190372e-08
3.0942364e-09
-8.1917215e-08
2.7268419e-09
-8.4194234e-08
2.2770186e-09
-8.5980572e-08
1.7863375e-09
-8.7306921e-08
1.3263488e-09
-8.839076e-08
1.0838391e-09
-8.9492087e-08
1.1013267e-09
-9.0408605e-08
9.1651769e-10
-9.0955415e-08
5.4680958e-10
-9.1048317e-08
9.2902259e-11
-9.0578805e-08
-4.6951262e-10
-8.9521568e-08
-1.0572374e-09
-8.7750064e-08
-1.7715037e-09
-8.5301142e-08
-2.4489222e-09
-8.2110495e-08
-3.190647e-09
-7.8531208e-08
-3.5792871e-09
-7.4809437e-08
-3.721771e-09
-7.2042498e-08
-2.7669398e-09
-7.1154051e-08
-8.8844621e-10
-7.6462002e-08
5.3079503e-09
-9.7829054e-08
2.1367053e-08
-1.2086854e-07
2.3039488e-08
-1.3978348e-07
1.8914942e-08
-1.5671077e-07
1.6927287e-08
-1.7198023e-07
1.5269455e-08
-1.8573431e-07
1.3754081e-08
-1.9820611e-07
1.2471799e-08
-2.0952327e-07
1.1317161e-08
-2.198672e-07
1.0343931e-08
-2.2932794e-07
9.4607401e-09
-2.3803684e-07
8.7088936e-09
-2.4605772e-07
8.0208883e-09
-2.5348113e-07
7.4234021e-09
-2.6034661e-07
6.8654803e-09
-2.6670577e-07
6.359159e-09
-2.7256991e-07
5.8641408e-09
-2.7797471e-07
5.4047938e-09
-2.8295524e-07
4.9805298e-09
-2.8754636e-07
4.5911231e-09
-2.9175806e-07
4.2117024e-09
-2.9561489e-07
3.856822e-09
-2.991294e-07
3.514511e-09
-3.0231708e-07
3.1876811e-09
-3.0518697e-07
2.8698878e-09
-3.0775214e-07
2.5651694e-09
-3.1002201e-07
2.2698718e-09
-3.1200909e-07
1.9870776e-09
-3.1371918e-07
1.7100907e-09
-3.1516178e-07
1.4426061e-09
-3.1636075e-07
1.1989729e-09
-3.1736799e-07
1.0072322e-09
-3.1819647e-07
8.2847808e-10
-3.1882584e-07
6.2936915e-10
-3.1923856e-07
4.1272724e-10
-3.1942693e-07
1.8836788e-10
-3.1942007e-07
-6.8612734e-12
-3.192408e-07
-1.7926759e-10
-3.1890612e-07
-3.3467846e-10
-3.1845024e-07
-4.5587539e-10
-3.1791443e-07
-5.3581552e-10
-3.1734699e-07
-5.6743657e-10
-3.1680046e-07
-5.4652588e-10
-3.162683e-07
-5.3215766e-10
-3.1564113e-07
-6.2717062e-10
-3.1458762e-07
-1.0535077e-09
-3.1310554e-07
-1.4820855e-09
-3.1142936e-07
-1.6761698e-09
-3.0958426e-07
-1.8451051e-09
-3.0761577e-07
-1.9684889e-09
-3.0553876e-07
-2.0770073e-09
-3.033632e-07
-2.1755668e-09
-3.0109691e-07
-2.2662882e-09
-2.9874595e-07
-2.3509623e-09
-2.9631638e-07
-2.4295648e-09
-2.9381293e-07
-2.5034546e-09
-2.9124105e-07
-2.5718797e-09
-2.8860472e-07
-2.6363283e-09
-2.85909e-07
-2.6957256e-09
-2.8315716e-07
-2.7518385e-09
-2.8035343e-07
-2.8037308e-09
-2.7750094e-07
-2.8524904e-09
-2.7460365e-07
-2.8972891e-09
-2.7166462e-07
-2.9390275e-09
-2.6868719e-07
-2.9774293e-09
-2.6567413e-07
-3.0130601e-09
-2.6262847e-07
-3.0456537e-09
-2.5955278e-07
-3.0756947e-09
-2.5644947e-07
-3.1033058e-09
-2.5332081e-07
-3.1286668e-09
-2.501688e-07
-3.1520033e-09
-2.4699564e-07
-3.1731641e-09
-2.4380301e-07
-3.1926249e-09
-2.4059301e-07
-3.2100041e-09
-2.3736676e-07
-3.2262513e-09
-2.3412629e-07
-3.2404687e-09
-2.3087248e-07
-3.2538057e-09
-2.2760765e-07
-3.2648295e-09
-2.2433229e-07
-3.2753636e-09
-2.2104833e-07
-3.2839568e-09
-2.1775603e-07
-3.292308e-09
-2.1445717e-07
-3.2988524e-09
-2.1115187e-07
-3.3053007e-09
-2.0784147e-07
-3.3104015e-09
-2.0452616e-07
-3.3153146e-09
-2.0120736e-07
-3.3187942e-09
-1.978858e-07
-3.3215617e-09
-1.9456288e-07
-3.3229238e-09
-1.9123933e-07
-3.3235466e-09
-1.879161e-07
-3.3232374e-09
-1.8459428e-07
-3.3218119e-09
-1.8127492e-07
-3.3193687e-09
-1.7795873e-07
-3.3161836e-09
-1.7464604e-07
-3.3126975e-09
-1.7133783e-07
-3.3082033e-09
-1.6803492e-07
-3.3029159e-09
-1.6473822e-07
-3.2966946e-09
-1.6144812e-07
-3.2900988e-09
-1.5816544e-07
-3.2826805e-09
-1.5489037e-07
-3.2750727e-09
-3.2672875e-09
-2.2707726e-07
1.4659677e-08
-2.3754269e-07
1.3828333e-08
-2.4716306e-07
1.2714607e-08
-2.556667e-07
1.1230484e-08
-2.6278396e-07
9.394278e-09
-2.684151e-07
7.4174727e-09
-2.7262316e-07
5.5344146e-09
-2.7612765e-07
4.5883244e-09
-2.7966036e-07
4.6340408e-09
-2.8266345e-07
3.9196016e-09
-2.8450475e-07
2.3881095e-09
-2.850087e-07
5.9685012e-10
-2.8372975e-07
-1.748457e-09
-2.8073671e-07
-4.050279e-09
-2.7548377e-07
-7.0244413e-09
-2.6831843e-07
-9.6142684e-09
-2.5871931e-07
-1.2789764e-08
-2.4820821e-07
-1.4090391e-08
-2.3699789e-07
-1.4932089e-08
-2.2931379e-07
-1.0451037e-08
-2.2698622e-07
-3.2160185e-09
-2.4494068e-07
2.3262408e-08
-3.1019089e-07
8.6617267e-08
-3.8144336e-07
9.429196e-08
-4.3968209e-07
7.7153673e-08
-4.9211081e-07
6.9356001e-08
-5.3906452e-07
6.2223168e-08
-5.8156286e-07
5.6252422e-08
-6.1991503e-07
5.0823966e-08
-6.548423e-07
4.6244434e-08
-6.8664465e-07
4.2146279e-08
-7.1580924e-07
3.862533e-08
-7.4257842e-07
3.5478077e-08
-7.6727911e-07
3.2721574e-08
-7.9008825e-07
3.0232539e-08
-8.1120943e-07
2.7986661e-08
-8.3073758e-07
2.5887313e-08
-8.4875968e-07
2.3886239e-08
-8.6535951e-07
2.2004619e-08
-8.8065506e-07
2.0276079e-08
-8.9471829e-07
1.8654352e-08
-9.0762289e-07
1.7116306e-08
-9.1942512e-07
1.5659048e-08
-9.3017607e-07
1.4265458e-08
-9.3991339e-07
1.2924997e-08
-9.4867316e-07
1.1629665e-08
-9.5648941e-07
1.0381416e-08
-9.6339637e-07
9.1768297e-09
-9.6942951e-07
8.0202232e-09
-9.7461058e-07
6.8911625e-09
-9.7896831e-07
5.8003315e-09
-9.8253641e-07
4.7670717e-09
-9.8551451e-07
3.9853329e-09
-9.8798085e-07
3.2948202e-09
-9.8982552e-07
2.4740315e-09
-9.9100289e-07
1.5901066e-09
-9.9151154e-07
6.9700783e-10
-9.91409e-07
-1.0938994e-10
-9.9074849e-07
-8.3978383e-10
-9.8961976e-07
-1.4634071e-09
-9.8812032e-07
-1.9553119e-09
-9.8637766e-07
-2.278466e-09
-9.8453849e-07
-2.4066089e-09
-9.8277077e-07
-2.3142414e-09
-9.8106323e-07
-2.2396986e-09
-9.7909592e-07
-2.5944755e-09
-9.757908e-07
-4.3586263e-09
-9.7111458e-07
-6.1583083e-09
-9.6584183e-07
-6.9489199e-09
-9.6004822e-07
-7.6387123e-09
-9.5387613e-07
-8.1405792e-09
-9.4736869e-07
-8.5844443e-09
-9.405587e-07
-8.9855653e-09
-9.3346872e-07
-9.356264e-09
-9.261186e-07
-9.7010835e-09
-9.1852584e-07
-1.0022322e-08
-9.107061e-07
-1.03232e-08
-9.0267499e-07
-1.0602988e-08
-8.9444586e-07
-1.0865463e-08
-8.8603293e-07
-1.1108651e-08
-8.7744763e-07
-1.1337139e-08
-8.6870236e-07
-1.1549002e-08
-8.5980766e-07
-1.1747194e-08
-8.5077493e-07
-1.1930017e-08
-8.4161398e-07
-1.2099971e-08
-8.3233475e-07
-1.2256658e-08
-8.2294609e-07
-1.2401725e-08
-8.1345688e-07
-1.2534864e-08
-8.038751e-07
-1.2657476e-08
-7.9420821e-07
-1.2770195e-08
-7.8446323e-07
-1.2873641e-08
-7.7464651e-07
-1.2968728e-08
-7.6476454e-07
-1.3055134e-08
-7.5482276e-07
-1.3134397e-08
-7.4482713e-07
-1.3205641e-08
-7.347818e-07
-1.327158e-08
-7.2469235e-07
-1.3329918e-08
-7.1456233e-07
-1.3383827e-08
-7.0439745e-07
-1.3429706e-08
-6.9420039e-07
-1.3472423e-08
-6.8397604e-07
-1.3508311e-08
-6.7372647e-07
-1.354188e-08
-6.6345613e-07
-1.3569192e-08
-6.5316668e-07
-1.3594752e-08
-6.4286172e-07
-1.3615356e-08
-6.3254301e-07
-1.3634031e-08
-6.2221428e-07
-1.3647527e-08
-6.1187799e-07
-1.3657846e-08
-6.015378e-07
-1.3663122e-08
-5.9119615e-07
-1.3665196e-08
-5.8085591e-07
-1.3663469e-08
-5.7052003e-07
-1.3657694e-08
-5.6019133e-07
-1.3648071e-08
-5.4987208e-07
-1.3635429e-08
-5.3956406e-07
-1.3620724e-08
-5.2926984e-07
-1.3602419e-08
-5.1899193e-07
-1.358083e-08
-5.0873281e-07
-1.3555812e-08
-4.9849435e-07
-1.3528558e-08
-4.8827875e-07
-1.3498283e-08
-4.7808737e-07
-1.3466444e-08
-1.343265e-08
-3.9588275e-07
3.3905048e-08
-4.1407656e-07
3.2022184e-08
-4.3080044e-07
2.943849e-08
-4.4560732e-07
2.603736e-08
-4.5802488e-07
2.1811838e-08
-4.6790212e-07
1.7294718e-08
-4.753261e-07
1.2958391e-08
-4.8157569e-07
1.083791e-08
-4.8786137e-07
1.0919725e-08
-4.9327265e-07
9.3308827e-09
-4.9667717e-07
5.7926285e-09
-4.9782864e-07
1.7483219e-09
-4.9588888e-07
-3.6882197e-09
-4.9107835e-07
-8.8608101e-09
-4.8236819e-07
-1.5734603e-08
-4.7051217e-07
-2.1470286e-08
-4.5440181e-07
-2.8900124e-08
-4.3693423e-07
-3.1557971e-08
-4.1816778e-07
-3.369854e-08
-4.0593891e-07
-2.2679911e-08
-4.0286184e-07
-6.2930877e-09
-4.3566199e-07
5.6062563e-08
-5.4775424e-07
1.9870951e-07
-6.7070704e-07
2.1724476e-07
-7.7119474e-07
1.7764138e-07
-8.6181191e-07
1.5997317e-07
-9.4270814e-07
1.4311939e-07
-1.0160408e-06
1.2958509e-07
-1.0820895e-06
1.1687267e-07
-1.1423096e-06
1.0646453e-07
-1.1970522e-06
9.6888865e-08
-1.2472951e-06
8.8868224e-08
-1.2933519e-06
8.1534924e-08
-1.3358715e-06
7.5241134e-08
-1.3750933e-06
6.9454346e-08
-1.411422e-06
6.4315355e-08
-1.4449806e-06
5.9445883e-08
-1.4759545e-06
5.4860143e-08
-1.5044747e-06
5.0524817e-08
-1.5307412e-06
4.6542636e-08
-1.5548516e-06
4.2764747e-08
-1.57697e-06
3.9234666e-08
-1.5971807e-06
3.5869716e-08
-1.6155796e-06
3.2664421e-08
-1.6322255e-06
2.9570889e-08
-1.6471863e-06
2.6590453e-08
-1.6605167e-06
2.3711852e-08
-1.6722796e-06
2.0939683e-08
-1.6825343e-06
1.8274912e-08
-1.6913223e-06
1.567913e-08
-1.6986899e-06
1.3168005e-08
-1.7046523e-06
1.0729395e-08
-1.7096002e-06
8.9332358e-09
-1.7137129e-06
7.4075329e-09
-1.7167526e-06
5.51373e-09
-1.7186462e-06
3.4837885e-09
-1.7194136e-06
1.4644029e-09
-1.7191158e-06
-4.0719889e-10
-1.7178262e-06
-2.1293945e-09
-1.7157394e-06
-3.5502605e-09
-1.7130181e-06
-4.6765599e-09
-1.7098818e-06
-5.4148131e-09
-1.7065825e-06
-5.7058456e-09
-1.703416e-06
-5.480755e-09
-1.7003802e-06
-5.2755477e-09
-1.6969425e-06
-6.032144e-09
-1.6911677e-06
-1.013337e-08
-1.6829633e-06
-1.4362766e-08
-1.6737282e-06
-1.6184004e-08
-1.663599e-06
-1.7767933e-08
-1.6528195e-06
-1.8920105e-08
-1.6414622e-06
-1.9941701e-08
-1.6295848e-06
-2.0862989e-08
-1.617225e-06
-2.1716036e-08
-1.6044177e-06
-2.2508358e-08
-1.5911922e-06
-2.3247822e-08
-1.5775762e-06
-2.3939273e-08
-1.5635955e-06
-2.4583612e-08
-1.549274e-06
-2.5186965e-08
-1.5346352e-06
-2.5747486e-08
-1.5196995e-06
-2.6272816e-08
-1.5044879e-06
-2.6760609e-08
-1.4890191e-06
-2.7216041e-08
-1.473312e-06
-2.7637046e-08
-1.457384e-06
-2.8028051e-08
-1.4412516e-06
-2.8388987e-08
-1.4249305e-06
-2.8722871e-08
-1.4084355e-06
-2.9029893e-08
-1.3917803e-06
-2.9312593e-08
-1.3749779e-06
-2.9572607e-08
-1.3580404e-06
-2.9811209e-08
-1.3409786e-06
-3.0030484e-08
-1.3238037e-06
-3.0230047e-08
-1.3065251e-06
-3.0412956e-08
-1.2891528e-06
-3.0577966e-08
-1.2716944e-06
-3.0729991e-08
-1.254159e-06
-3.0865324e-08
-1.2365533e-06
-3.0989542e-08
-1.2188861e-06
-3.1096828e-08
-1.201163e-06
-3.1195535e-08
-1.1833916e-06
-3.1279773e-08
-1.1655763e-06
-3.1357155e-08
-1.1477241e-06
-3.1421376e-08
-1.1298388e-06
-3.1480036e-08
-1.1119263e-06
-3.1527881e-08
-1.0939904e-06
-3.1569969e-08
-1.076037e-06
-3.160086e-08
-1.0580708e-06
-3.1624115e-08
-1.0400974e-06
-3.1636514e-08
-1.0221213e-06
-3.1641294e-08
-1.0041475e-06
-3.1637299e-08
-9.8618064e-07
-3.1624507e-08
-9.6822554e-07
-3.1603171e-08
-9.5028613e-07
-3.157484e-08
-9.3236606e-07
-3.1540797e-08
-9.1446946e-07
-3.1499013e-08
-8.9660075e-07
-3.144954e-08
-8.7876398e-07
-3.1392578e-08
-8.6096292e-07
-3.1329626e-08
-8.4320116e-07
-3.1260039e-08
-8.2548169e-07
-3.118591e-08
-3.1105885e-08
-5.801833e-07
6.2004198e-08
-6.0676163e-07
5.8600522e-08
-6.3120142e-07
5.3878278e-08
-6.528715e-07
4.7707446e-08
-6.7108788e-07
4.0028221e-08
-6.856424e-07
3.1849237e-08
-6.9665874e-07
2.3974729e-08
-7.0600967e-07
2.0188836e-08
-7.1542035e-07
2.0330404e-08
-7.2359593e-07
1.7506466e-08
-7.2888425e-07
1.1080945e-08
-7.3095565e-07
3.8197277e-09
-7.2856264e-07
-6.0812378e-09
-7.220834e-07
-1.5340045e-08
-7.1001708e-07
-2.7800929e-08
-6.935231e-07
-3.7964257e-08
-6.7090503e-07
-5.15182e-08
-6.4647013e-07
-5.5992873e-08
-6.2024666e-07
-5.9922003e-08
-6.0385085e-07
-3.9075721e-08
-6.0103776e-07
-9.106184e-09
-6.5087454e-07
1.0589935e-07
-8.1308753e-07
3.609225e-07
-9.9121121e-07
3.9536844e-07
-1.1370776e-06
3.235078e-07
-1.2686033e-06
2.9149879e-07
-1.3858306e-06
2.603467e-07
-1.492112e-06
2.3586658e-07
-1.5877594e-06
2.1252002e-07
-1.6749761e-06
1.9368128e-07
-1.7541986e-06
1.7611132e-07
-1.8269104e-06
1.6158009e-07
-1.8935205e-06
1.4814503e-07
-1.9550094e-06
1.3673003e-07
-2.0116953e-06
1.2614022e-07
-2.0641904e-06
1.1681042e-07
-2.112656e-06
1.0791151e-07
-2.1573804e-06
9.9584483e-08
-2.198556e-06
9.1700416e-08
-2.2364503e-06
8.4437012e-08
-2.2711835e-06
7.7497861e-08
-2.3030299e-06
7.1081141e-08
-2.3321058e-06
6.4945598e-08
-2.3585537e-06
5.9112306e-08
-2.3824561e-06
5.3473284e-08
-2.4039148e-06
4.8049208e-08
-2.4230079e-06
4.2804877e-08
-2.4398285e-06
3.7760293e-08
-2.4544624e-06
3.2908833e-08
-2.466974e-06
2.8190713e-08
-2.477424e-06
2.3618006e-08
-2.4857782e-06
1.9083614e-08
-2.4926679e-06
1.5822976e-08
-2.4984131e-06
1.3152651e-08
-2.5026099e-06
9.7106011e-09
-2.5051562e-06
6.0300242e-09
-2.5061088e-06
2.4169925e-09
-2.5055019e-06
-1.0140665e-09
-2.5034164e-06
-4.2148686e-09
-2.5001858e-06
-6.7808507e-09
-2.4960431e-06
-8.8193188e-09
-2.4913045e-06
-1.0153396e-08
-2.4863366e-06
-1.0673732e-08
-2.4815744e-06
-1.0242937e-08
-2.4770445e-06
-9.805427e-09
-2.4719968e-06
-1.107982e-08
-2.4635203e-06
-1.8609911e-08
-2.4514333e-06
-2.6449805e-08
-2.4378459e-06
-2.9771363e-08
-2.4229718e-06
-3.2641997e-08
-2.4071583e-06
-3.4733641e-08
-2.3905095e-06
-3.6590465e-08
-2.3731089e-06
-3.826361e-08
-2.3550105e-06
-3.9814465e-08
-2.3362648e-06
-4.1254019e-08
-2.3169138e-06
-4.2598894e-08
-2.2969976e-06
-4.3855481e-08
-2.2765533e-06
-4.5027878e-08
-2.2556155e-06
-4.612475e-08
-2.2342176e-06
-4.7145382e-08
-2.2123897e-06
-4.8100727e-08
-2.1901616e-06
-4.8988657e-08
-2.1675608e-06
-4.9816929e-08
-2.1446142e-06
-5.0583634e-08
-2.1213467e-06
-5.1295475e-08
-2.0977826e-06
-5.195317e-08
-2.073944e-06
-5.2561447e-08
-2.0498524e-06
-5.3121516e-08
-2.0255276e-06
-5.3637334e-08
-2.0009882e-06
-5.4112008e-08
-1.9762517e-06
-5.4547749e-08
-1.9513339e-06
-5.4948277e-08
-1.9262507e-06
-5.5313267e-08
-1.9010158e-06
-5.5647772e-08
-1.8756435e-06
-5.5950301e-08
-1.850145e-06
-5.6228469e-08
-1.8245333e-06
-5.6477063e-08
-1.7988183e-06
-5.6704531e-08
-1.7730124e-06
-5.6902745e-08
-1.7471239e-06
-5.7084035e-08
-1.7211634e-06
-5.7240251e-08
-1.6951381e-06
-5.7382451e-08
-1.6690576e-06
-5.7501925e-08
-1.6429279e-06
-5.7609723e-08
-1.6167574e-06
-5.7698411e-08
-1.5905521e-06
-5.7775258e-08
-1.5643205e-06
-5.7832454e-08
-1.5380692e-06
-5.7875345e-08
-1.5118066e-06
-5.7899173e-08
-1.485539e-06
-5.790884e-08
-1.4592739e-06
-5.7902441e-08
-1.4330179e-06
-5.7880518e-08
-1.4067778e-06
-5.784322e-08
-1.3805596e-06
-5.7793113e-08
-1.3543688e-06
-5.7731558e-08
-1.3282114e-06
-5.7656401e-08
-1.3020939e-06
-5.7567012e-08
-1.2760222e-06
-5.7464316e-08
-1.2500021e-06
-5.7349774e-08
-1.2240387e-06
-5.7223404e-08
-1.1981369e-06
-5.7087697e-08
-5.6939842e-08
-7.8107456e-07
9.96852e-08
-8.1673559e-07
9.4261579e-08
-8.4954448e-07
8.668717e-08
-8.786749e-07
7.683787e-08
-9.0322202e-07
6.4575338e-08
-9.2292499e-07
5.1552207e-08
-9.3794127e-07
3.8991002e-08
-9.5078786e-07
3.3035434e-08
-9.6373528e-07
3.3277822e-08
-9.7507432e-07
2.8845507e-08
-9.8261137e-07
1.8617991e-08
-9.8591965e-07
7.1280086e-09
-9.8332687e-07
-8.674017e-09
-9.7537833e-07
-2.3288591e-08
-9.6011648e-07
-4.306278e-08
-9.3910495e-07
-5.8975786e-08
-9.1005878e-07
-8.0564366e-08
-8.7872548e-07
-8.7326171e-08
-8.4525006e-07
-9.3397429e-08
-8.2519345e-07
-5.9132327e-08
-8.2385379e-07
-1.0445848e-08
-8.9314352e-07
1.7518908e-07
-1.1088581e-06
5.7663709e-07
-1.3457153e-06
6.3222566e-07
-1.5402154e-06
5.1800783e-07
-1.7154646e-06
4.6674806e-07
-1.8714881e-06
4.1637018e-07
-2.012893e-06
3.7727143e-07
-2.1400963e-06
3.3972332e-07
-2.2560585e-06
3.0964349e-07
-2.36134e-06
2.8139281e-07
-2.4579439e-06
2.5818397e-07
-2.546401e-06
2.3660217e-07
-2.6280326e-06
2.1836167e-07
-2.7032535e-06
2.0136109e-07
-2.7728895e-06
1.864464e-07
-2.8371522e-06
1.7217421e-07
-2.896437e-06
1.5886927e-07
-2.9510173e-06
1.4628075e-07
-3.0012058e-06
1.3462551e-07
-3.0471379e-06
1.2342994e-07
-3.0892252e-06
1.131684e-07
-3.127619e-06
1.0333946e-07
-3.1625105e-06
9.4003794e-08
-3.1940091e-06
8.497192e-08
-3.2222527e-06
7.629278e-08
-3.2473449e-06
6.7897035e-08
-3.2694115e-06
5.9826964e-08
-3.2885673e-06
5.2064542e-08
-3.3049025e-06
4.4525952e-08
-3.3184877e-06
3.7203252e-08
-3.3291982e-06
2.9794086e-08
-3.3379688e-06
2.4593522e-08
-3.3453116e-06
2.0495485e-08
-3.3506079e-06
1.500695e-08
-3.3537251e-06
9.1471685e-09
-3.3547801e-06
3.4719738e-09
-3.3537368e-06
-2.0573154e-09
-3.3506637e-06
-7.2879914e-09
-3.3460785e-06
-1.1366069e-08
-3.3402887e-06
-1.4609045e-08
-3.3337135e-06
-1.6728678e-08
-3.3268427e-06
-1.7544491e-08
-3.3202636e-06
-1.6822059e-08
-3.3140548e-06
-1.6014176e-08
-3.3072458e-06
-1.7888819e-08
-3.2958162e-06
-3.0039526e-08
-3.2794606e-06
-4.2805369e-08
-3.2610982e-06
-4.8133849e-08
-3.2410376e-06
-5.2702542e-08
-3.2197308e-06
-5.6040491e-08
-3.1973158e-06
-5.9005469e-08
-3.1739028e-06
-6.1676608e-08
-3.1495631e-06
-6.4154174e-08
-3.1243637e-06
-6.6453406e-08
-3.0983598e-06
-6.8602789e-08
-3.0716049e-06
-7.0610396e-08
-3.0441477e-06
-7.2485039e-08
-3.0160343e-06
-7.4238154e-08
-2.9873085e-06
-7.5871187e-08
-2.9580105e-06
-7.7398748e-08
-2.9281795e-06
-7.8819577e-08
-2.8978521e-06
-8.0144366e-08
-2.8670638e-06
-8.1371916e-08
-2.8358477e-06
-8.25116e-08
-2.8042355e-06
-8.3565399e-08
-2.7722568e-06
-8.454008e-08
-2.7399399e-06
-8.5438463e-08
-2.7073111e-06
-8.6266152e-08
-2.6743948e-06
-8.7028299e-08
-2.6412142e-06
-8.7728298e-08
-2.6077905e-06
-8.8372008e-08
-2.5741445e-06
-8.8959264e-08
-2.5402946e-06
-8.9497635e-08
-2.5062594e-06
-8.9985502e-08
-2.4720542e-06
-9.0433706e-08
-2.4376958e-06
-9.0835423e-08
-2.4031979e-06
-9.120247e-08
-2.3685764e-06
-9.1524289e-08
-2.3338427e-06
-9.1817701e-08
-2.2990107e-06
-9.2072239e-08
-2.2640904e-06
-9.2302798e-08
-2.2290941e-06
-9.2498216e-08
-2.1940304e-06
-9.267336e-08
-2.1589104e-06
-9.2818478e-08
-2.1237424e-06
-9.2943239e-08
-2.0885376e-06
-9.3037234e-08
-2.0533051e-06
-9.3107858e-08
-2.0180557e-06
-9.3148594e-08
-1.9827982e-06
-9.3166321e-08
-1.9475425e-06
-9.3158121e-08
-1.9122975e-06
-9.3125497e-08
-1.8770724e-06
-9.3068313e-08
-1.8418751e-06
-9.2990491e-08
-1.8067135e-06
-9.2893149e-08
-1.7715954e-06
-9.2774473e-08
-1.7365298e-06
-9.2632628e-08
-1.7015244e-06
-9.2469717e-08
-1.6665874e-06
-9.2286763e-08
-1.6317258e-06
-9.2085031e-08
-1.5969464e-06
-9.1867104e-08
-9.1628296e-08
-9.9972209e-07
1.4772528e-07
-1.0452048e-06
1.3974435e-07
-1.0870726e-06
1.2855494e-07
-1.1242984e-06
1.1406367e-07
-1.1557512e-06
9.6028103e-08
-1.1811048e-06
7.6905862e-08
-1.2005733e-06
5.8459425e-08
-1.2173518e-06
4.9813997e-08
-1.2342887e-06
5.021469e-08
-1.249239e-06
4.3795828e-08
-1.2594407e-06
2.8819676e-08
-1.2643569e-06
1.2044182e-08
-1.2618744e-06
-1.1156484e-08
-1.2527158e-06
-3.2447219e-08
-1.2344872e-06
-6.1291392e-08
-1.2091554e-06
-8.430751e-08
-1.1738489e-06
-1.1587089e-07
-1.1357814e-06
-1.2539371e-07
-1.0953816e-06
-1.3379721e-07
-1.0723168e-06
-8.2197094e-08
-1.0738753e-06
-8.8873719e-09
-1.1652677e-06
2.6658144e-07
-1.4379576e-06
8.4932698e-07
-1.7371936e-06
9.3146174e-07
-1.9837023e-06
7.645165e-07
-2.2055797e-06
6.8862547e-07
-2.4029357e-06
6.1372615e-07
-2.5816931e-06
5.5602886e-07
-2.7424595e-06
5.0048968e-07
-2.8889556e-06
4.5613966e-07
-3.0219097e-06
4.143469e-07
-3.1438561e-06
3.8013034e-07
-3.2554774e-06
3.4822342e-07
-3.3584433e-06
3.2132765e-07
-3.453285e-06
2.9620279e-07
-3.5410476e-06
2.74209e-07
-3.6220065e-06
2.5313304e-07
-3.6966694e-06
2.3353222e-07
-3.7654119e-06
2.1502325e-07
-3.8285635e-06
1.977771e-07
-3.886267e-06
1.811334e-07
-3.9391016e-06
1.6600305e-07
-3.9872579e-06
1.5149576e-07
-4.0309773e-06
1.3772312e-07
-4.0703995e-06
1.2439418e-07
-4.1057006e-06
1.1159382e-07
-4.1370125e-06
9.9209009e-08
-4.1644961e-06
8.7310511e-08
-4.1882971e-06
7.5865615e-08
-4.2085356e-06
6.4764423e-08
-4.2252862e-06
5.3953827e-08
-4.2382836e-06
4.2791471e-08
-4.2488402e-06
3.5150147e-08
-4.257722e-06
2.9377282e-08
-4.2640373e-06
2.1322256e-08
-4.2676237e-06
1.2733609e-08
-4.2686819e-06
4.5301126e-09
-4.2670531e-06
-3.6861196e-09
-4.262772e-06
-1.1569074e-08
-4.2565925e-06
-1.7545544e-08
-4.2489011e-06
-2.2300453e-08
-4.2402251e-06
-2.54047e-08
-4.2311877e-06
-2.6581881e-08
-4.2225419e-06
-2.5467883e-08
-4.2144466e-06
-2.4109485e-08
-4.2057187e-06
-2.6616635e-08
-4.191071e-06
-4.4687218e-08
-4.1700262e-06
-6.3850175e-08
-4.1464301e-06
-7.1729999e-08
-4.1207063e-06
-7.8426297e-08
-4.0934116e-06
-8.3335255e-08
-4.0647201e-06
-8.7696969e-08
-4.0347696e-06
-9.1627054e-08
-4.0036498e-06
-9.527395e-08
-3.9714449e-06
-9.8658326e-08
-3.9382241e-06
-1.0182358e-07
-3.9040548e-06
-1.0477971e-07
-3.8689981e-06
-1.0754174e-07
-3.8331121e-06
-1.101242e-07
-3.7964516e-06
-1.1253173e-07
-3.7590673e-06
-1.1478301e-07
-3.7210086e-06
-1.168783e-07
-3.6823213e-06
-1.1883163e-07
-3.6430501e-06
-1.2064307e-07
-3.6032367e-06
-1.2232509e-07
-3.5629207e-06
-1.238814e-07
-3.5221395e-06
-1.2532119e-07
-3.4809285e-06
-1.2664947e-07
-3.4393209e-06
-1.278738e-07
-3.3973473e-06
-1.2900189e-07
-3.355037e-06
-1.3003859e-07
-3.3124165e-06
-1.3099248e-07
-3.2695122e-06
-1.3186363e-07
-3.2263471e-06
-1.326627e-07
-3.1829447e-06
-1.3338795e-07
-3.1393243e-06
-1.340541e-07
-3.0955071e-06
-1.3465261e-07
-3.0515104e-06
-1.3519911e-07
-3.0073542e-06
-1.3568046e-07
-2.9630533e-06
-1.3611868e-07
-2.9186248e-06
-1.3650073e-07
-2.8740817e-06
-1.368459e-07
-2.8294395e-06
-1.3714039e-07
-2.7847095e-06
-1.3740336e-07
-2.7399054e-06
-1.3762257e-07
-2.6950384e-06
-1.378103e-07
-2.6501223e-06
-1.3795326e-07
-2.6051691e-06
-1.3806114e-07
-2.5601921e-06
-1.3812552e-07
-2.515203e-06
-1.3815546e-07
-2.4702143e-06
-1.3814685e-07
-2.4252372e-06
-1.3810252e-07
-2.3802837e-06
-1.3802184e-07
-2.3353637e-06
-1.3791047e-07
-2.2904879e-06
-1.3776897e-07
-2.2456661e-06
-1.3759631e-07
-2.2009098e-06
-1.3738889e-07
-2.156229e-06
-1.3715052e-07
-2.1116345e-06
-1.3688129e-07
-2.0671352e-06
-1.3658437e-07
-2.0227401e-06
-1.3626211e-07
-1.3590756e-07
-1.2373565e-06
2.0693997e-07
-1.2934417e-06
1.958296e-07
-1.345104e-06
1.8021719e-07
-1.3911037e-06
1.6006337e-07
-1.4300718e-06
1.3499619e-07
-1.4616286e-06
1.0846266e-07
-1.4860375e-06
8.2868363e-08
-1.5072262e-06
7.1002685e-08
-1.5286651e-06
7.1653641e-08
-1.5477252e-06
6.2855882e-08
-1.5610622e-06
4.215666e-08
-1.5680158e-06
1.8997858e-08
-1.566016e-06
-1.3156287e-08
-1.5559719e-06
-4.249137e-08
-1.5350875e-06
-8.2175807e-08
-1.5057224e-06
-1.1367261e-07
-1.4644316e-06
-1.5716168e-07
-1.4199023e-06
-1.6992303e-07
-1.3730478e-06
-1.8065171e-07
-1.3477943e-06
-1.0745055e-07
-1.3539112e-06
-2.7705329e-09
-1.4702954e-06
3.8296568e-07
-1.8035148e-06
1.1825464e-06
-2.1688468e-06
1.2967937e-06
-2.4708514e-06
1.0665211e-06
-2.7423427e-06
9.6011673e-07
-2.9836322e-06
8.5501568e-07
-3.2020201e-06
7.7441673e-07
-3.3983995e-06
6.9686914e-07
-3.5772514e-06
6.3499149e-07
-3.7395196e-06
5.7661518e-07
-3.8882802e-06
5.2889091e-07
-4.0244e-06
4.8434322e-07
-4.1499043e-06
4.4683197e-07
-4.265462e-06
4.1176043e-07
-4.3723426e-06
3.8108963e-07
-4.4709006e-06
3.51691e-07
-4.5617626e-06
3.2439424e-07
-4.6454231e-06
2.986838e-07
-4.7221989e-06
2.7455288e-07
-4.7922367e-06
2.5117123e-07
-4.8563139e-06
2.3008016e-07
-4.9146634e-06
2.0984534e-07
-4.9675792e-06
1.9063885e-07
-5.015235e-06
1.7205e-07
-5.057847e-06
1.5420583e-07
-5.0955787e-06
1.3694073e-07
-5.1286277e-06
1.2035949e-07
-5.157174e-06
1.0441195e-07
-5.1813703e-06
8.8960701e-08
-5.20129e-06
7.3873509e-08
-5.2164745e-06
5.7975969e-08
-5.2286913e-06
4.7366912e-08
-5.2390254e-06
3.9711394e-08
-5.2462528e-06
2.8549668e-08
-5.2501845e-06
1.6665305e-08
-5.2511176e-06
5.4632264e-09
-5.2487183e-06
-6.0853683e-09
-5.2429763e-06
-1.7311168e-08
-5.23493e-06
-2.5591778e-08
-5.2250487e-06
-3.2181741e-08
-5.2139739e-06
-3.647957e-08
-5.2024716e-06
-3.8084127e-08
-5.1914754e-06
-3.6464097e-08
-5.1812575e-06
-3.4327344e-08
-5.1704525e-06
-3.7421698e-08
-5.1523137e-06
-6.2825938e-08
-5.1261205e-06
-9.0043431e-08
-5.0967933e-06
-1.0105719e-07
-5.0648916e-06
-1.10328e-07
-5.0310762e-06
-1.1715067e-07
-4.9955596e-06
-1.2321356e-07
-4.9585081e-06
-1.286785e-07
-4.9200307e-06
-1.3375136e-07
-4.8802294e-06
-1.3845966e-07
-4.8391883e-06
-1.4286462e-07
-4.7969894e-06
-1.4697867e-07
-4.7537067e-06
-1.5082437e-07
-4.709411e-06
-1.5441995e-07
-4.6641686e-06
-1.5777411e-07
-4.6180414e-06
-1.6091017e-07
-4.5710892e-06
-1.6383051e-07
-4.5233679e-06
-1.6655301e-07
-4.4749314e-06
-1.6907952e-07
-4.4258305e-06
-1.7142602e-07
-4.3761133e-06
-1.7359856e-07
-4.3258255e-06
-1.7560905e-07
-4.2750096e-06
-1.7746536e-07
-4.2237061e-06
-1.7917724e-07
-4.1719524e-06
-1.8075561e-07
-4.119784e-06
-1.8220702e-07
-4.0672331e-06
-1.8354338e-07
-4.0143317e-06
-1.8476499e-07
-3.9611081e-06
-1.8588628e-07
-3.9075907e-06
-1.8690539e-07
-3.8538032e-06
-1.8784161e-07
-3.7997713e-06
-1.8868447e-07
-3.7455164e-06
-1.8945401e-07
-3.6910626e-06
-1.9013432e-07
-3.6364281e-06
-1.9075317e-07
-3.5816339e-06
-1.9129493e-07
-3.526696e-06
-1.9178373e-07
-3.4716334e-06
-1.9220301e-07
-3.4164601e-06
-1.9257663e-07
-3.361193e-06
-1.9288975e-07
-3.3058458e-06
-1.9315742e-07
-3.2504358e-06
-1.9336325e-07
-3.1949775e-06
-1.9351946e-07
-3.1394877e-06
-1.9361538e-07
-3.0839803e-06
-1.9366278e-07
-3.0284713e-06
-1.9365588e-07
-2.9729744e-06
-1.9359944e-07
-2.9175044e-06
-1.9349184e-07
-2.8620736e-06
-1.9334122e-07
-2.8066956e-06
-1.9314702e-07
-2.7513824e-06
-1.9290953e-07
-2.6961485e-06
-1.9262276e-07
-2.6410063e-06
-1.9229275e-07
-2.5859693e-06
-1.9191827e-07
-2.5310486e-06
-1.9150499e-07
-2.4762561e-06
-1.9105462e-07
-1.9055774e-07
-1.4952841e-06
2.7819151e-07
-1.5628008e-06
2.6334631e-07
-1.6250358e-06
2.4245213e-07
-1.6805272e-06
2.1555484e-07
-1.7276735e-06
1.8214245e-07
-1.7660222e-06
1.4681133e-07
-1.7959117e-06
1.1275785e-07
-1.8220388e-06
9.7129843e-08
-1.8485371e-06
9.81519e-08
-1.8722688e-06
8.6587658e-08
-1.8892749e-06
5.9162752e-08
-1.8987618e-06
2.8484677e-08
-1.8976908e-06
-1.4227294e-08
-1.8871649e-06
-5.3017241e-08
-1.8640293e-06
-1.0531142e-07
-1.8310233e-06
-1.4667861e-07
-1.7841417e-06
-2.0404326e-07
-1.7335531e-06
-2.2051164e-07
-1.6808745e-06
-2.3333024e-07
-1.6544417e-06
-1.3388344e-07
-1.6670317e-06
9.8195391e-09
-1.8115383e-06
5.2747228e-07
-2.2089087e-06
1.5799168e-06
-2.6441121e-06
1.7319971e-06
-3.0052022e-06
1.4276112e-06
-3.3293635e-06
1.284278e-06
-3.6172446e-06
1.1428968e-06
-3.8775817e-06
1.0347538e-06
-4.1116588e-06
9.3094626e-07
-4.324713e-06
8.4804569e-07
-4.5179572e-06
7.698594e-07
-4.6950175e-06
7.0595114e-07
-4.8569802e-06
6.4630594e-07
-5.0062322e-06
5.9608398e-07
-5.1436032e-06
5.4913139e-07
-5.2705923e-06
5.080788e-07
-5.3876499e-06
4.6874855e-07
-5.4955294e-06
4.3227373e-07
-5.5948503e-06
3.9800467e-07
-5.6858907e-06
3.6559329e-07
-5.7688097e-06
3.3409026e-07
-5.8446063e-06
3.0587681e-07
-5.9135601e-06
2.7879906e-07
-5.9760189e-06
2.5309771e-07
-6.0321947e-06
2.2822583e-07
-6.0823461e-06
2.0435715e-07
-6.1266709e-06
1.8126561e-07
-6.165406e-06
1.5909451e-07
-6.1987682e-06
1.3777423e-07
-6.2269465e-06
1.1713897e-07
-6.2500088e-06
9.6935757e-08
-6.2672544e-06
7.5221576e-08
-6.2809774e-06
6.1089948e-08
-6.2926447e-06
5.1378727e-08
-6.3006469e-06
3.6551777e-08
-6.304774e-06
2.0792442e-08
-6.3054098e-06
6.0990497e-09
-6.3020033e-06
-9.4919206e-09
-6.2945095e-06
-2.4804924e-08
-6.2842863e-06
-3.5815006e-08
-6.2718884e-06
-4.4579613e-08
-6.2580771e-06
-5.029084e-08
-6.2437713e-06
-5.2389926e-08
-6.2301002e-06
-5.013525e-08
-6.2174875e-06
-4.6940026e-08
-6.2044418e-06
-5.0467389e-08
-6.1825288e-06
-8.473894e-08
-6.1506849e-06
-1.218873e-07
-6.1150869e-06
-1.3665519e-07
-6.0764511e-06
-1.4896378e-07
-6.0355411e-06
-1.5806075e-07
-5.9926095e-06
-1.6614506e-07
-5.947852e-06
-1.7343605e-07
-5.9013978e-06
-1.8020558e-07
-5.8533674e-06
-1.8649006e-07
-5.8038608e-06
-1.9237121e-07
-5.7529749e-06
-1.9786457e-07
-5.7007976e-06
-2.030017e-07
-5.6474126e-06
-2.0780491e-07
-5.5928987e-06
-2.1228807e-07
-5.5373292e-06
-2.1647962e-07
-5.4807749e-06
-2.2038482e-07
-5.4233021e-06
-2.2402585e-07
-5.3649747e-06
-2.2740688e-07
-5.3058529e-06
-2.3054787e-07
-5.2459937e-06
-2.3345774e-07
-5.1854511e-06
-2.3615166e-07
-5.1242757e-06
-2.3864076e-07
-5.0625154e-06
-2.4093745e-07
-5.0002146e-06
-2.4305649e-07
-4.9374153e-06
-2.4500626e-07
-4.8741559e-06
-2.4680276e-07
-4.8104744e-06
-2.4844656e-07
-4.7464043e-06
-2.4995633e-07
-4.6819794e-06
-2.5133037e-07
-4.6172279e-06
-2.5259306e-07
-4.5521805e-06
-2.5373189e-07
-4.4868626e-06
-2.5477188e-07
-4.4213029e-06
-2.5569407e-07
-4.3555233e-06
-2.5653271e-07
-4.2895488e-06
-2.5726946e-07
-4.2233988e-06
-2.5793378e-07
-4.1570957e-06
-2.5850608e-07
-4.0906567e-06
-2.5901566e-07
-4.0241018e-06
-2.5944465e-07
-3.9574479e-06
-2.5981126e-07
-3.8907156e-06
-2.6009556e-07
-3.8239224e-06
-2.6031266e-07
-3.7570885e-06
-2.6044929e-07
-3.6902309e-06
-2.6052033e-07
-3.6233687e-06
-2.6051809e-07
-3.5565186e-06
-2.6044956e-07
-3.4896985e-06
-2.6031196e-07
-3.4229234e-06
-2.6011632e-07
-3.3562098e-06
-2.5986061e-07
-3.2895724e-06
-2.5954697e-07
-3.2230288e-06
-2.5916628e-07
-3.1565941e-06
-2.5872754e-07
-3.0902849e-06
-2.5822745e-07
-3.0241147e-06
-2.5767511e-07
-2.9580983e-06
-2.5707102e-07
-2.5640318e-07
-1.7748941e-06
3.6239766e-07
-1.8547112e-06
3.4316348e-07
-1.928342e-06
3.1608287e-07
-1.9940956e-06
2.813085e-07
-2.0501179e-06
2.3816476e-07
-2.0959023e-06
1.9259571e-07
-2.1318571e-06
1.4871266e-07
-2.1635113e-06
1.2878397e-07
-2.195695e-06
1.3033562e-07
-2.2247166e-06
1.1560931e-07
-2.2459982e-06
8.044436e-08
-2.2585927e-06
4.1079169e-08
-2.2589749e-06
-1.3845125e-08
-2.2484637e-06
-6.3528453e-08
-2.223582e-06
-1.3019311e-07
-2.1874499e-06
-1.8281069e-07
-2.1355116e-06
-2.5598158e-07
-2.079413e-06
-2.7661022e-07
-2.0217257e-06
-2.9101759e-07