/*--------------------------------*- C++ -*----------------------------------*\
| =========                 |                                                 |
| \\      /  F ield         | OpenFOAM: The Open Source CFD Toolbox           |
|  \\    /   O peration     | Version:  2.4.0                                 |
|   \\  /    A nd           | Web:      www.OpenFOAM.org                      |
|    \\/     M anipulation  |                                                 |
\*---------------------------------------------------------------------------*/
FoamFile
{
    version     2.0;
    format      ascii;
    class       volVectorField;
    location    "330";
    object      U;
}
// * * * * * * * * * * * * * * * * * * * * * * * * * * * * * * * * * * * * * //

dimensions      [0 1 -1 0 0 0 0];

internalField   nonuniform List<vector> 
19698
(
(-0.00087766215 0.00064623675 -2.5205381e-24)
(-0.00091350465 0.00065968487 -2.7361041e-22)
(-0.00094646198 0.0006677061 -8.8101407e-22)
(-0.00097513461 0.00066907015 -1.5716941e-21)
(-0.00099929461 0.00066363586 3.4133656e-21)
(-0.0010171545 0.00065022036 4.6941944e-21)
(-0.0010303129 0.00063003097 -1.9377826e-21)
(-0.001037635 0.00060249784 -6.0714369e-21)
(-0.0010465297 0.00057255399 6.5207146e-21)
(-0.0010545723 0.00054046539 -5.6200917e-21)
(-0.0010604781 0.00050614648 -1.3026938e-20)
(-0.0010601044 0.00046795021 1.7860764e-21)
(-0.0010571995 0.00042811664 -2.5796466e-21)
(-0.0010436433 0.0003838839 -1.0137599e-20)
(-0.0010294738 0.00033988843 -3.325248e-21)
(-0.00099867513 0.0002914626 2.9243312e-21)
(-0.00097231079 0.00024603212 2.1733374e-21)
(-0.00092208799 0.00019697708 4.5778021e-21)
(-0.00089205014 0.00015502701 6.7570999e-23)
(-0.00083334719 0.00011117113 -2.9177808e-21)
(-0.00083433099 7.7341543e-05 3.2131136e-22)
(-0.00080834826 4.1737689e-05 -6.7221953e-24)
(-0.00097230233 1.1689344e-05 -1.0234027e-22)
(-0.0012947637 4.5756423e-07 4.7932292e-26)
(-0.0015128034 4.5126101e-07 -4.9802631e-26)
(-0.0017308767 4.1597245e-07 -2.4531902e-25)
(-0.0019086627 4.3488842e-07 2.713632e-25)
(-0.0020830542 4.2023646e-07 -2.6836969e-25)
(-0.0022297384 4.357138e-07 1.7194602e-25)
(-0.0023712614 4.2625114e-07 -1.9505495e-25)
(-0.0024935839 4.3508832e-07 1.3305577e-25)
(-0.0026105598 4.2944201e-07 2.0251332e-25)
(-0.0027139217 4.3478204e-07 -2.2611714e-25)
(-0.0028122217 4.3080132e-07 -6.3697651e-19)
(-0.0029005749 4.3326924e-07 -3.3451902e-19)
(-0.0029842369 4.2977051e-07 -3.2099944e-26)
(-0.0030602426 4.3003304e-07 -1.3432158e-26)
(-0.0031316662 4.2633101e-07 1.1499335e-25)
(-0.003196507 4.254454e-07 -2.5838927e-25)
(-0.0032570898 4.1643738e-07 2.2499188e-25)
(-0.0033122855 4.0835783e-07 -2.1282757e-25)
(-0.0033635269 4.024146e-07 6.7574486e-25)
(-0.0034101514 3.9676171e-07 -3.585263e-25)
(-0.0034530201 3.8901957e-07 -7.5967001e-25)
(-0.0034917919 3.8168335e-07 8.0612629e-25)
(-0.0035269968 3.7263849e-07 -1.1312586e-25)
(-0.0035584503 3.6416119e-07 8.457449e-25)
(-0.0035865333 3.5428288e-07 -1.155899e-24)
(-0.0036111652 3.4461976e-07 -8.6062642e-25)
(-0.0036326577 3.3360337e-07 1.3241373e-24)
(-0.0036508657 3.2174132e-07 -1.0802541e-24)
(-0.0036662776 3.0930426e-07 8.5941247e-25)
(-0.0036785918 3.0681812e-07 -4.719322e-25)
(-0.0036895512 3.0532968e-07 -9.1819322e-26)
(-0.0036979773 2.976523e-07 4.0967681e-26)
(-0.0037041266 2.9043101e-07 6.8217994e-25)
(-0.0037074817 2.8608473e-07 -5.8449202e-26)
(-0.0037085992 2.7246741e-07 9.8297516e-25)
(-0.0037073852 2.5770031e-07 -1.4718627e-26)
(-0.0037043197 2.4895837e-07 -1.9125818e-24)
(-0.0036996515 2.4104642e-07 9.0333393e-25)
(-0.0036937355 2.3372921e-07 -8.5595812e-26)
(-0.0036872277 2.2805603e-07 1.2598181e-24)
(-0.0036805473 2.2371991e-07 -4.0005717e-26)
(-0.0036745341 2.178111e-07 -2.4391432e-24)
(-0.0036681377 2.0474026e-07 -1.5848998e-25)
(-0.0036600657 1.8848835e-07 9.1953136e-26)
(-0.0036437329 1.7640863e-07 1.2337754e-24)
(-0.0036255495 1.6579318e-07 -1.211737e-25)
(-0.0036048483 1.5616651e-07 -1.5279587e-24)
(-0.0035827006 1.4720883e-07 2.8205623e-24)
(-0.003559159 1.3852277e-07 -3.2072499e-24)
(-0.0035344708 1.2982546e-07 3.0122064e-24)
(-0.0035086564 1.2099096e-07 -5.7856695e-25)
(-0.0034818503 1.1206436e-07 3.4860752e-25)
(-0.00345408 1.0307551e-07 -1.4765994e-24)
(-0.0034254394 9.3885909e-08 8.3541828e-25)
(-0.003395963 8.4655277e-08 2.2372633e-25)
(-0.0033657246 7.5045522e-08 -1.61495e-25)
(-0.0033347616 6.5696115e-08 -1.5724723e-25)
(-0.0033031335 5.5953438e-08 3.3271689e-17)
(-0.0032708753 4.6309778e-08 3.4141414e-17)
(-0.0032380365 3.6299796e-08 1.9955131e-24)
(-0.003204653 2.6226465e-08 -1.6275974e-25)
(-0.0031707694 1.5907568e-08 -1.8656724e-25)
(-0.0031364197 5.5480465e-09 -1.3487086e-25)
(-0.0031016418 -5.0704737e-09 -1.123671e-26)
(-0.0030664681 -1.5523834e-08 -4.5239429e-25)
(-0.0030309311 -2.6212949e-08 -2.0615904e-25)
(-0.0029950605 -3.6852173e-08 7.2024868e-25)
(-0.0029588819 -4.7683754e-08 3.8987827e-26)
(-0.0029224223 -5.8395443e-08 3.9215654e-25)
(-0.0028857034 -6.9278933e-08 -6.4973523e-25)
(-0.0028487506 -8.0057165e-08 9.0808806e-26)
(-0.0028115827 -9.1070289e-08 2.1007954e-26)
(-0.0027742216 -1.0183781e-07 4.0992613e-26)
(-0.0027366821 -1.126748e-07 3.9268923e-27)
(-0.0026989848 -1.2329657e-07 2.6219696e-25)
(-0.0026611446 -1.3411326e-07 -1.162977e-25)
(-0.0026231811 -1.4468855e-07 -6.2585261e-25)
(-0.0025851054 -1.5521724e-07 1.2017406e-24)
(-0.0025469324 -1.6569938e-07 -1.7383552e-24)
(-0.0025086728 -1.7615688e-07 3.0164726e-26)
(-0.0024703379 -1.8647608e-07 9.2600451e-25)
(-0.0024319361 -1.9667423e-07 -2.6255744e-25)
(-0.002393476 -2.0679096e-07 6.2839925e-25)
(-0.0023549675 -2.1652886e-07 -2.6498575e-25)
(-0.0023164228 -2.2604254e-07 -1.6958946e-26)
(-0.002277854 -2.3523091e-07 -3.0026758e-25)
(-0.002239274 -2.4395268e-07 -3.0843519e-25)
(-0.0022006915 -2.5278251e-07 -2.9231902e-25)
(-0.0021621207 -2.6079433e-07 1.1113472e-24)
(-0.0021235707 -2.6902048e-07 7.2338209e-25)
(-0.002085055 -2.765672e-07 1.1880304e-24)
(-0.002046576 -2.8449118e-07 -4.7092903e-25)
(-0.0020081462 -2.9138443e-07 -1.3325954e-24)
(-0.0019697695 -2.9869134e-07 -3.2277186e-24)
(-0.0019314642 -3.0519335e-07 6.3659541e-17)
(-0.0018932276 -3.1210985e-07 3.0491182e-20)
(-0.0018550794 -3.1830254e-07 -6.512007e-17)
(-0.0018170107 -3.2461812e-07 -4.9639282e-24)
(-0.0017790372 -3.3024361e-07 7.2468804e-25)
(-0.002653964 0.0019572625 5.151809e-25)
(-0.0027617163 0.0019977262 -1.5412395e-21)
(-0.0028609215 0.0020217461 -5.6176767e-22)
(-0.0029473112 0.0020257445 -6.318249e-22)
(-0.003020342 0.0020092286 1.7797115e-21)
(-0.0030747356 0.0019687351 -1.1987482e-20)
(-0.0031152401 0.001907799 4.3097909e-21)
(-0.0031385354 0.0018248672 -3.5259138e-21)
(-0.0031666568 0.0017345838 -3.9711639e-22)
(-0.0031923618 0.0016377903 -3.6474614e-21)
(-0.0032117671 0.0015341637 2.6105542e-21)
(-0.003212706 0.001418917 -1.4134181e-20)
(-0.0032060886 0.0012985722 -1.0065683e-21)
(-0.0031680354 0.0011650873 3.2750941e-21)
(-0.0031282361 0.0010320738 -8.9711784e-22)
(-0.0030397019 0.00088595739 8.9592649e-21)
(-0.0029642552 0.00074844566 -8.3396542e-21)
(-0.0028187977 0.00060033936 6.0477286e-21)
(-0.002732962 0.00047304089 -1.4578351e-21)
(-0.0025644473 0.00034064455 9.7448029e-23)
(-0.0025731301 0.00023776392 1.1677713e-22)
(-0.0025080783 0.00013094751 -1.4247729e-22)
(-0.0030038301 4.1806141e-05 1.5595086e-22)
(-0.0039627311 7.5871279e-06 -3.6818967e-25)
(-0.004615995 6.3128106e-06 -7.5829331e-27)
(-0.0052675631 5.6365161e-06 -1.3633786e-25)
(-0.0057995353 5.1120208e-06 4.5228489e-25)
(-0.0063197206 4.6056536e-06 -2.7719267e-25)
(-0.0067579934 4.1959314e-06 9.0735629e-26)
(-0.007180009 3.8079397e-06 7.8239959e-26)
(-0.0075451559 3.4917862e-06 5.6534051e-26)
(-0.007893793 3.1935368e-06 -2.5711428e-25)
(-0.0082020799 2.9451256e-06 8.0755165e-26)
(-0.0084949081 2.7108205e-06 1.2684748e-26)
(-0.0087582145 2.5101033e-06 -2.9552242e-26)
(-0.0090072874 2.318512e-06 6.8971569e-27)
(-0.0092335998 2.1460894e-06 -7.3159565e-26)
(-0.0094460814 1.9754103e-06 1.0120427e-25)
(-0.00963905 1.8151204e-06 -6.1873247e-26)
(-0.009819265 1.6630202e-06 3.6213492e-25)
(-0.0099832318 1.5267642e-06 -5.7082016e-26)
(-0.010135261 1.395474e-06 -1.1823456e-25)
(-0.010273549 1.2716661e-06 -1.8429966e-25)
(-0.010400577 1.1519131e-06 -2.5479252e-25)
(-0.010515376 1.0372437e-06 -3.2936121e-25)
(-0.01061949 9.2593498e-07 -4.0768579e-25)
(-0.010712402 8.1899533e-07 9.9254501e-25)
(-0.010795225 7.1587588e-07 2.0233967e-25)
(-0.010867744 6.1719646e-07 1.6174017e-24)
(-0.010930878 5.210323e-07 -2.5680369e-24)
(-0.010984248 4.2901873e-07 1.8349961e-24)
(-0.011029072 3.4903749e-07 -4.9477209e-25)
(-0.011064312 2.8853151e-07 -1.8543551e-24)
(-0.011095865 2.2999714e-07 -7.7008304e-25)
(-0.011120009 1.6352684e-07 7.7021937e-25)
(-0.011137289 9.3494961e-08 4.8340068e-25)
(-0.011146364 1.9259208e-08 1.4154459e-24)
(-0.011148884 -4.6591847e-08 1.1329762e-24)
(-0.011144159 -1.0186505e-07 -3.3775617e-24)
(-0.01113385 -1.4911168e-07 1.1326997e-24)
(-0.011118837 -1.8646459e-07 7.2368756e-25)
(-0.011100134 -2.0966797e-07 1.9224098e-24)
(-0.011079677 -2.1717383e-07 -4.1418293e-24)
(-0.011058754 -2.0671466e-07 2.0029745e-24)
(-0.011039919 -1.9891058e-07 9.0106883e-25)
(-0.011020269 -2.2529795e-07 1.6488282e-24)
(-0.010995833 -3.5962544e-07 -4.2308375e-24)
(-0.010946041 -4.9785302e-07 9.4980837e-25)
(-0.010890513 -5.5708737e-07 2.731597e-25)
(-0.010827527 -6.0758429e-07 3.4230616e-24)
(-0.010760219 -6.4314188e-07 -2.9245679e-24)
(-0.01068876 -6.7407258e-07 1.1740946e-24)
(-0.010613878 -7.0217239e-07 -1.6330196e-26)
(-0.010535641 -7.2789841e-07 -3.7254049e-24)
(-0.010454444 -7.520603e-07 7.1731225e-25)
(-0.010370373 -7.7473732e-07 8.3272281e-25)
(-0.010283705 -7.9622203e-07 5.202692e-25)
(-0.010194544 -8.1644726e-07 1.3973775e-24)
(-0.010103109 -8.3567362e-07 1.2561848e-25)
(-0.010009511 -8.5390863e-07 -7.7321789e-25)
(-0.0099139262 -8.7149714e-07 4.4382086e-25)
(-0.0098164641 -8.8828646e-07 -6.4453655e-25)
(-0.0097172726 -9.0459369e-07 2.7441167e-25)
(-0.0096164609 -9.2023438e-07 -4.2728861e-25)
(-0.0095141584 -9.3518165e-07 9.5011456e-25)
(-0.0094104681 -9.4960317e-07 -1.7669463e-24)
(-0.0093055016 -9.6354117e-07 -3.8479164e-25)
(-0.0091993555 -9.7707223e-07 6.9623308e-25)
(-0.0090921243 -9.9014463e-07 1.3207793e-24)
(-0.0089838974 -1.0029863e-06 -1.7660907e-25)
(-0.008874752 -1.0153469e-06 -3.8530803e-25)
(-0.0087647687 -1.0274304e-06 -7.2097397e-25)
(-0.0086540123 -1.0391289e-06 6.6441458e-25)
(-0.0085425589 -1.050633e-06 -1.6152912e-25)
(-0.0084304624 -1.061618e-06 -1.2988013e-26)
(-0.0083177901 -1.0725527e-06 -8.2110179e-26)
(-0.0082045852 -1.0830915e-06 1.1129545e-26)
(-0.0080909109 -1.0937003e-06 3.8972797e-25)
(-0.0079768081 -1.1034789e-06 -7.0783124e-25)
(-0.0078623336 -1.1133193e-06 -1.1638918e-25)
(-0.0077475217 -1.1227613e-06 -4.8561885e-25)
(-0.0076324175 -1.1321944e-06 1.4316121e-24)
(-0.0075170546 -1.1410124e-06 1.2090067e-24)
(-0.0074014675 -1.1497852e-06 -2.2269465e-25)
(-0.0072856868 -1.1580663e-06 -3.0319821e-24)
(-0.0071697404 -1.1661162e-06 -1.8029865e-24)
(-0.0070536618 -1.17355e-06 2.6455716e-24)
(-0.0069374843 -1.1806155e-06 4.0906101e-24)
(-0.0068212421 -1.1870238e-06 -6.917365e-24)
(-0.0067049708 -1.1929792e-06 1.7092584e-24)
(-0.0065886975 -1.1982374e-06 -1.5403699e-25)
(-0.0064724609 -1.2031024e-06 3.4197511e-24)
(-0.0063562848 -1.2072043e-06 -2.5083336e-24)
(-0.0062402068 -1.2111326e-06 1.2346575e-24)
(-0.006124239 -1.2142986e-06 1.7334205e-24)
(-0.0060084209 -1.2173444e-06 3.8065669e-24)
(-0.0058927609 -1.2194416e-06 -9.5415729e-24)
(-0.0057773117 -1.2213338e-06 3.8280227e-24)
(-0.0056620678 -1.2225709e-06 -1.4279184e-25)
(-0.0055470891 -1.2234267e-06 -5.8330999e-24)
(-0.0054323526 -1.2236718e-06 -2.0987054e-25)
(-0.0053179155 -1.2233645e-06 1.048915e-23)
(-0.0044814056 0.0033069285 4.2053401e-24)
(-0.0046625893 0.0033746189 2.4521999e-21)
(-0.0048294705 0.0034146202 2.4943248e-21)
(-0.0049749637 0.0034209799 1.4868379e-23)
(-0.0050982001 0.0033928495 -1.4302048e-20)
(-0.0051905057 0.0033245624 6.0694916e-21)
(-0.0052597022 0.0032219283 8.3792411e-21)
(-0.0053004566 0.003082591 7.7806589e-21)
(-0.0053493688 0.002930838 1.3054133e-21)
(-0.0053944982 0.0027680791 -3.6006799e-21)
(-0.0054291801 0.0025936318 1.3720708e-20)
(-0.0054335098 0.0023998096 3.7247258e-21)
(-0.0054251541 0.0021970935 1.7563955e-21)
(-0.0053650122 0.0019725427 1.6089381e-20)
(-0.0053018925 0.001748313 -9.5649441e-21)
(-0.0051590302 0.0015025305 -1.0706447e-20)
(-0.005037462 0.0012703749 3.0369967e-21)
(-0.0048013393 0.0010210029 -3.5440028e-21)
(-0.004663091 0.00080540018 2.9820295e-21)
(-0.0043920588 0.00058232567 4.8101146e-21)
(-0.0044139005 0.00040747348 1.3176236e-22)
(-0.0043245377 0.00022831222 9.0371578e-24)
(-0.0051614872 8.0421095e-05 -2.2470005e-22)
(-0.0067558732 2.2552214e-05 3.6824849e-25)
(-0.0078512867 1.8545683e-05 1.6959927e-27)
(-0.008939493 1.6643772e-05 -1.0814223e-25)
(-0.0098298519 1.4941816e-05 2.9455068e-25)
(-0.010697507 1.3494728e-05 -1.3259788e-25)
(-0.011430045 1.2198023e-05 -1.3805757e-25)
(-0.012133786 1.1085152e-05 2.5965846e-25)
(-0.01274352 1.0099022e-05 -1.4658887e-25)
(-0.013324641 9.2411743e-06 -1.2281827e-25)
(-0.013838987 8.479092e-06 -8.6088627e-26)
(-0.01432686 7.8049455e-06 3.9570447e-26)
(-0.014765798 7.1984361e-06 -1.0527948e-26)
(-0.015180544 6.6474578e-06 -4.5008306e-26)
(-0.015557496 6.1340504e-06 -9.2750538e-27)
(-0.015911089 5.6435447e-06 -6.4563367e-26)
(-0.016232304 5.1829117e-06 2.7352128e-25)
(-0.016532154 4.7521166e-06 -3.3156704e-25)
(-0.016804635 4.3493976e-06 1.7841069e-25)
(-0.017057017 3.9720014e-06 7.6111534e-25)
(-0.017286511 3.6138592e-06 -5.5890881e-25)
(-0.017497119 3.2709358e-06 -2.5359085e-25)
(-0.017687315 2.9414514e-06 1.1936946e-24)
(-0.017859614 2.6231373e-06 -9.0955762e-25)
(-0.018013211 2.317125e-06 5.6863762e-25)
(-0.018149922 2.0221985e-06 -4.0008491e-25)
(-0.018269435 1.7397258e-06 -2.1295127e-25)
(-0.018373258 1.4643933e-06 7.4021296e-25)
(-0.018460838 1.1993627e-06 8.6731864e-25)
(-0.018533947 9.4845785e-07 -3.2346349e-24)
(-0.018590518 7.6657581e-07 2.4694869e-24)
(-0.018641527 6.0881641e-07 -6.8869217e-25)
(-0.018680348 4.1412956e-07 -2.295471e-24)
(-0.018707676 2.0757396e-07 9.9300242e-25)
(-0.018721469 3.0751417e-09 3.300248e-24)
(-0.018724566 -1.9098141e-07 -6.2132036e-25)
(-0.018715098 -3.678033e-07 -9.412309e-25)
(-0.018696293 -5.108479e-07 -8.0568886e-25)
(-0.018669717 -6.2308051e-07 -8.937565e-25)
(-0.018637032 -6.9463851e-07 1.8447735e-24)
(-0.018601441 -7.1952484e-07 -9.3767958e-25)
(-0.018565154 -6.9075975e-07 -1.3278419e-24)
(-0.018532468 -6.6671092e-07 2.105134e-24)
(-0.018498944 -7.4406103e-07 -1.0862408e-24)
(-0.01845777 -1.1555388e-06 -1.1779663e-24)
(-0.018373287 -1.5771257e-06 1.1628659e-24)
(-0.018278916 -1.7571999e-06 1.9899299e-24)
(-0.018172218 -1.9125174e-06 2.4345832e-25)
(-0.0180583 -2.0233525e-06 -1.6769229e-24)
(-0.017937479 -2.1204461e-06 -1.3901967e-24)
(-0.017810943 -2.2074933e-06 4.5525031e-24)
(-0.01767882 -2.2878462e-06 -7.1806582e-24)
(-0.017541758 -2.3625101e-06 6.0774106e-24)
(-0.017399906 -2.4319663e-06 -5.1685802e-24)
(-0.017253719 -2.4970302e-06 2.0397848e-24)
(-0.017103377 -2.5574834e-06 9.5947373e-25)
(-0.016949235 -2.6144829e-06 2.4447385e-25)
(-0.016791484 -2.6674676e-06 -1.7677888e-24)
(-0.016630414 -2.7173497e-06 1.0955165e-24)
(-0.016466211 -2.7638724e-06 -1.0309502e-24)
(-0.016299121 -2.8077132e-06 1.6493566e-24)
(-0.016129327 -2.8486139e-06 7.2604946e-25)
(-0.015957042 -2.8871347e-06 -1.8575321e-24)
(-0.015782438 -2.9229856e-06 -1.096295e-25)
(-0.0156057 -2.9566523e-06 2.2849167e-25)
(-0.015426989 -2.9880136e-06 -1.1016775e-25)
(-0.015246461 -3.0173842e-06 -1.1424908e-25)
(-0.015064264 -3.044761e-06 4.5745601e-25)
(-0.014880527 -3.070592e-06 4.9679512e-25)
(-0.014695386 -3.0948467e-06 -1.6194025e-25)
(-0.014508948 -3.1174645e-06 -4.6389303e-26)
(-0.014321338 -3.1387022e-06 8.2570597e-26)
(-0.014132648 -3.1584968e-06 9.5668107e-26)
(-0.013942988 -3.1773489e-06 -6.7860421e-26)
(-0.013752432 -3.1946705e-06 5.1001383e-26)
(-0.013561085 -3.2109629e-06 9.7364793e-26)
(-0.013369014 -3.2259179e-06 -7.1695953e-25)
(-0.013176311 -3.240155e-06 1.671755e-24)
(-0.012983036 -3.2530631e-06 1.1975872e-25)
(-0.012789264 -3.2654458e-06 -1.040444e-25)
(-0.012595052 -3.2765805e-06 1.2258155e-25)
(-0.012400458 -3.2873102e-06 -1.0841294e-25)
(-0.012205538 -3.2968803e-06 1.253579e-25)
(-0.01201034 -3.3058722e-06 -2.0896866e-24)
(-0.011814922 -3.3135748e-06 -1.3534283e-24)
(-0.011619339 -3.3202764e-06 2.650721e-24)
(-0.011423646 -3.3255133e-06 1.2116632e-25)
(-0.011227902 -3.3297849e-06 1.9593047e-24)
(-0.011032152 -3.3329872e-06 -2.2245923e-24)
(-0.010836459 -3.3349816e-06 4.5299748e-25)
(-0.010640862 -3.3359581e-06 -2.0275932e-25)
(-0.010445421 -3.3357868e-06 -1.1540717e-24)
(-0.010250162 -3.3351989e-06 -4.3354558e-24)
(-0.010055149 -3.3332313e-06 1.3583247e-23)
(-0.0098603988 -3.330533e-06 -7.7640234e-24)
(-0.0096659958 -3.3265917e-06 1.0258211e-24)
(-0.0094719344 -3.3219843e-06 -1.0531582e-23)
(-0.0092783147 -3.3163544e-06 1.4174516e-23)
(-0.0090851031 -3.3100765e-06 -3.7616843e-24)
(-0.0088924007 -3.3027277e-06 -9.103117e-24)
(-0.0063614663 0.004696252 6.1703477e-24)
(-0.0066175806 0.004791368 9.7924397e-24)
(-0.0068535682 0.0048472714 -1.7791847e-21)
(-0.0070595728 0.0048556997 -4.4258582e-21)
(-0.0072343751 0.0048153912 3.091136e-21)
(-0.0073660284 0.0047185908 3.6563126e-21)
(-0.0074653256 0.0045732909 -8.605055e-21)
(-0.007525143 0.0043765699 2.4293025e-20)
(-0.0075965147 0.0041622187 -5.8250982e-21)
(-0.0076629836 0.0039322469 -9.7604775e-21)
(-0.0077148406 0.0036854525 2.6077807e-22)
(-0.0077248728 0.0034115342 -7.8484245e-21)
(-0.0077169193 0.0031245727 6.2700641e-21)
(-0.0076374384 0.0028071509 -1.0578752e-20)
(-0.0075535285 0.0024894801 -4.2209254e-21)
(-0.007360304 0.0021420801 -4.4288623e-21)
(-0.0071958687 0.0018126712 6.6742056e-21)
(-0.00687448 0.0014598292 -1.050385e-21)
(-0.0066874431 0.0011528744 -1.2566518e-21)
(-0.0063224424 0.00083700758 -3.5632122e-21)
(-0.0063629853 0.00058715516 -7.5853784e-22)
(-0.0062661166 0.00033466061 5.1136773e-23)
(-0.0074537079 0.00012841217 -9.5624128e-24)
(-0.0096804603 4.6177123e-05 -1.8464871e-25)
(-0.011225228 3.7875185e-05 1.3032473e-25)
(-0.012752364 3.4076228e-05 1.6497428e-25)
(-0.014005105 3.0497126e-05 -1.0512339e-25)
(-0.015221183 2.759965e-05 1.7475996e-25)
(-0.016250381 2.4900812e-05 1.6153418e-25)
(-0.0172365 2.2670251e-05 -1.3368389e-25)
(-0.018092262 2.0629759e-05 -6.0992052e-25)
(-0.018906193 1.8908875e-05 5.7714369e-25)
(-0.019627397 1.7341332e-05 -4.2626143e-25)
(-0.020310392 1.5988434e-05 1.2943992e-25)
(-0.020925303 1.4747482e-05 8.5045281e-26)
(-0.021505586 1.3641103e-05 -1.8973281e-26)
(-0.022033184 1.2594802e-05 -4.0725877e-26)
(-0.022527592 1.1608053e-05 7.2245253e-26)
(-0.02297686 1.0676153e-05 -1.8769518e-25)
(-0.023396086 9.8111498e-06 1.2943711e-25)
(-0.023776509 8.9920974e-06 -2.8708928e-25)
(-0.024128508 8.2319446e-06 -4.1049301e-25)
(-0.024448464 7.5067804e-06 1.4153188e-25)
(-0.024741778 6.8153642e-06 -6.2371514e-25)
(-0.025006467 6.1484659e-06 2.5311703e-25)
(-0.02524595 5.5059278e-06 2.4381058e-24)
(-0.025459199 4.8860695e-06 -5.9083382e-25)
(-0.025648695 4.2894255e-06 -7.5522123e-25)
(-0.025814069 3.7166874e-06 -2.1684559e-24)
(-0.025957394 3.1593133e-06 3.6475827e-24)
(-0.026078011 2.6208205e-06 -9.7775705e-25)
(-0.026178084 2.096616e-06 -1.1597034e-24)
(-0.026254059 1.7201709e-06 8.796391e-25)
(-0.026323231 1.4051781e-06 -1.3775666e-24)
(-0.026375532 1.0041264e-06 -1.4209104e-24)
(-0.026411714 5.7741506e-07 9.6527646e-25)
(-0.026429122 1.5887539e-07 -1.7951393e-24)
(-0.026432008 -2.4209154e-07 1.0738972e-24)
(-0.026416454 -6.1204692e-07 -2.0316023e-24)
(-0.026387828 -9.0773665e-07 5.6285574e-24)
(-0.026348389 -1.141668e-06 -1.8279375e-24)
(-0.026300453 -1.2929152e-06 -2.0173156e-24)
(-0.026248471 -1.3489631e-06 3.1727414e-24)
(-0.026195638 -1.2941061e-06 1.2515718e-24)
(-0.026148009 -1.2427839e-06 -4.0042384e-24)
(-0.02609999 -1.3940357e-06 3.6612457e-24)
(-0.026041729 -2.2574455e-06 -2.4137247e-24)
(-0.025921325 -3.1514575e-06 3.7338993e-24)
(-0.025786602 -3.5302762e-06 9.092746e-26)
(-0.025634792 -3.8570872e-06 -2.2355113e-25)
(-0.025472849 -4.0929132e-06 -5.9530492e-24)
(-0.025301264 -4.3013041e-06 3.096173e-24)
(-0.025121663 -4.4886199e-06 3.5840471e-24)
(-0.024934246 -4.6619482e-06 -1.9160618e-25)
(-0.024739904 -4.8227987e-06 -2.9087694e-25)
(-0.024538853 -4.9728648e-06 -3.1521519e-25)
(-0.024331722 -5.1133354e-06 -6.8510138e-24)
(-0.024118767 -5.2444984e-06 3.737399e-24)
(-0.023900482 -5.3674266e-06 -4.5687995e-25)
(-0.023677133 -5.481705e-06 -4.8149783e-25)
(-0.023449123 -5.5891564e-06 -4.1133108e-25)
(-0.023216717 -5.6893788e-06 1.3713191e-24)
(-0.022980257 -5.7833242e-06 1.0616656e-24)
(-0.022739997 -5.8705272e-06 9.2797591e-25)
(-0.022496237 -5.9520886e-06 -1.8286249e-24)
(-0.022249215 -6.0279945e-06 -2.1121919e-24)
(-0.02199919 -6.0987143e-06 1.7852027e-24)
(-0.021746385 -6.1642755e-06 1.1789498e-24)
(-0.021491018 -6.2252055e-06 7.9286432e-25)
(-0.021233297 -6.2817787e-06 -2.5157022e-24)
(-0.020973402 -6.3344198e-06 1.1927433e-24)
(-0.020711521 -6.3833496e-06 4.9375614e-25)
(-0.020447806 -6.4286055e-06 -3.7123958e-25)
(-0.020182432 -6.4706302e-06 -2.3849702e-25)
(-0.019915525 -6.5094032e-06 -4.4432407e-26)
(-0.019647241 -6.5455006e-06 3.749963e-26)
(-0.019377684 -6.5785672e-06 -2.6820071e-25)
(-0.019106999 -6.6094176e-06 -5.0038135e-25)
(-0.01883528 -6.6371586e-06 5.4503843e-25)
(-0.018562659 -6.6631956e-06 -2.8617227e-25)
(-0.018289215 -6.6863936e-06 -5.8013505e-26)
(-0.018015057 -6.7080566e-06 -5.9591157e-26)
(-0.017740265 -6.7272634e-06 1.2481832e-24)
(-0.017464922 -6.7452665e-06 -4.2477565e-26)
(-0.017189107 -6.761031e-06 -3.8103581e-25)
(-0.016912891 -6.7755308e-06 -1.3256666e-24)
(-0.016636356 -6.787357e-06 -1.5208938e-24)
(-0.016359579 -6.7972781e-06 -9.2764254e-26)
(-0.016082637 -6.8048101e-06 5.5842643e-24)
(-0.015805611 -6.810514e-06 -3.1757544e-24)
(-0.015528568 -6.8141091e-06 -1.5932851e-24)
(-0.015251596 -6.8152964e-06 3.3251035e-24)
(-0.014974747 -6.8147875e-06 -6.4649711e-24)
(-0.014698106 -6.812522e-06 4.9118458e-26)
(-0.014421713 -6.8088528e-06 -1.7312582e-24)
(-0.01414566 -6.8029301e-06 -1.4161787e-25)
(-0.013869969 -6.7953545e-06 -1.7901341e-24)
(-0.013594759 -6.785886e-06 7.8519356e-24)
(-0.013320027 -6.7751399e-06 8.0305008e-24)
(-0.01304591 -6.7625677e-06 -1.4960296e-23)
(-0.012772369 -6.7487093e-06 -1.4804147e-25)
(-0.012499548 -6.7327169e-06 -1.4856524e-25)
(-0.0082952352 0.0061263924 -4.6066712e-23)
(-0.0086277434 0.0062491292 -2.663859e-21)
(-0.0089342325 0.0063208591 -8.9755098e-22)
(-0.009202151 0.0063310555 4.5616848e-21)
(-0.009429894 0.0062779986 -9.1001971e-22)
(-0.0096023909 0.0061519552 -1.3728061e-20)
(-0.0097332808 0.005963013 -1.1793853e-20)
(-0.0098138991 0.0057079133 -2.1492424e-20)
(-0.0099095426 0.0054298191 -3.415582e-21)
(-0.0099994466 0.0051313747 8.0112917e-21)
(-0.010070547 0.0048106818 -1.4304672e-20)
(-0.010088839 0.0044551275 1.6434148e-20)
(-0.010083666 0.0040820197 1.2654311e-21)
(-0.0099879084 0.0036698877 1.1027256e-21)
(-0.0098860629 0.0032565202 1.7178789e-20)
(-0.0096469399 0.0028055259 -2.7321103e-21)
(-0.0094433466 0.002376213 -5.2003991e-21)
(-0.0090427659 0.001917655 -6.1231858e-22)
(-0.0088110889 0.0015162463 -2.7095101e-21)
(-0.0083616097 0.0011054378 4.8988282e-22)
(-0.0084270076 0.00077751734 6.4945098e-22)
(-0.008340734 0.00045069082 -3.9270278e-23)
(-0.0098883088 0.00018619625 -1.3313054e-23)
(-0.012742957 7.8768921e-05 -7.5634157e-26)
(-0.014743907 6.4601196e-05 -3.779688e-25)
(-0.016711663 5.8166801e-05 4.6928527e-25)
(-0.018330354 5.1959319e-05 5.8564064e-25)
(-0.01989521 4.7055315e-05 -1.276155e-24)
(-0.021223045 4.2407204e-05 9.7604008e-25)
(-0.022491721 3.8631876e-05 -3.1362994e-25)
(-0.02359457 3.5125376e-05 5.7289937e-26)
(-0.024641226 3.2211534e-05 2.4181776e-26)
(-0.025569735 2.952509e-05 -1.8399904e-25)
(-0.026447567 2.7233654e-05 2.5605353e-25)
(-0.027238467 2.5111833e-05 -4.8868361e-26)
(-0.027983828 2.3237293e-05 -2.2519497e-26)
(-0.028661783 2.1452173e-05 1.5421089e-25)
(-0.029296427 1.9780025e-05 7.4929282e-26)
(-0.029873305 1.8198912e-05 -4.4446542e-25)
(-0.030411487 1.6730845e-05 -1.4701241e-25)
(-0.03089903 1.5329494e-05 4.9173642e-25)
(-0.031349671 1.4040318e-05 6.8243271e-25)
(-0.031759112 1.2807094e-05 7.8136171e-26)
(-0.032134036 1.1633775e-05 -2.0265801e-26)
(-0.0324721 1.0500078e-05 -1.7344539e-24)
(-0.032777561 9.4095721e-06 1.1597873e-24)
(-0.033049233 8.3560305e-06 -8.9805752e-26)
(-0.03329022 7.3429347e-06 1.4756195e-24)
(-0.033500143 6.3694741e-06 -1.2514833e-25)
(-0.03368161 5.423485e-06 -1.7713984e-25)
(-0.03383392 4.5070371e-06 -3.1426085e-24)
(-0.033959458 3.5942298e-06 2.1000215e-24)
(-0.034052567 2.9504943e-06 -3.8514783e-25)
(-0.034138457 2.431679e-06 2.5962668e-24)
(-0.034202901 1.7479376e-06 -4.4262071e-24)
(-0.034246629 1.0199899e-06 -6.2854753e-25)
(-0.03426647 3.1383363e-07 3.2517911e-24)
(-0.034268413 -3.754134e-07 -7.964561e-25)
(-0.034245313 -1.0186367e-06 3.5259912e-24)
(-0.034205439 -1.5225654e-06 -1.3944964e-25)
(-0.034151733 -1.9224765e-06 -6.307599e-24)
(-0.034087175 -2.1819299e-06 3.9618905e-24)
(-0.034017442 -2.2789952e-06 -1.540726e-24)
(-0.033946781 -2.1850694e-06 1.0297938e-25)
(-0.033883019 -2.087411e-06 -1.3702634e-24)
(-0.033819836 -2.32812e-06 1.6718168e-24)
(-0.033744134 -3.8217473e-06 1.9942592e-24)
(-0.033586501 -5.3828274e-06 -1.4507311e-24)
(-0.033409834 -6.036426e-06 -2.7867676e-25)
(-0.033211447 -6.5975191e-06 -2.3045972e-24)
(-0.033000002 -7.004497e-06 2.0333137e-24)
(-0.032776197 -7.3649872e-06 2.896018e-24)
(-0.03254207 -7.6893692e-06 4.9496238e-25)
(-0.032297905 -7.9898456e-06 -4.6004184e-24)
(-0.032044821 -8.2685648e-06 -1.9806354e-24)
(-0.031783112 -8.5291582e-06 3.3902888e-25)
(-0.031513573 -8.772729e-06 3.8888554e-24)
(-0.031236539 -9.0000864e-06 2.052163e-24)
(-0.030952635 -9.2130223e-06 -2.0936428e-24)
(-0.030662211 -9.411368e-06 -1.5761238e-24)
(-0.030365776 -9.5973483e-06 1.1934688e-24)
(-0.030063675 -9.7705521e-06 -2.004892e-24)
(-0.029756343 -9.9326114e-06 2.6142155e-24)
(-0.029444109 -1.0083192e-05 -1.0848192e-24)
(-0.029127353 -1.0223509e-05 -1.0911234e-24)
(-0.028806384 -1.0353694e-05 1.7190575e-24)
(-0.028481531 -1.0474708e-05 3.3556146e-25)
(-0.028153081 -1.0586709e-05 3.4989569e-25)
(-0.027821312 -1.0690639e-05 -1.3383318e-24)
(-0.027486491 -1.0786925e-05 1.4953609e-24)
(-0.027148849 -1.0875838e-05 -1.0865375e-24)
(-0.026808628 -1.095811e-05 3.6470754e-25)
(-0.026466022 -1.1033993e-05 -4.6444101e-25)
(-0.026121255 -1.1104288e-05 -2.1657138e-25)
(-0.02577449 -1.1168748e-05 -5.8562e-26)
(-0.025425927 -1.1228451e-05 -6.0770468e-26)
(-0.0250757 -1.1282843e-05 -2.0527395e-25)
(-0.024723996 -1.1333167e-05 -5.6049728e-25)
(-0.024370935 -1.1377884e-05 5.3906951e-25)
(-0.024016685 -1.1419323e-05 -1.1538274e-25)
(-0.023661352 -1.1456268e-05 4.1301892e-25)
(-0.023305074 -1.1490485e-05 7.7959356e-25)
(-0.022947956 -1.1520481e-05 -2.0761417e-24)
(-0.022590106 -1.1548017e-05 2.4231293e-24)
(-0.022231627 -1.1571739e-05 2.5660001e-24)
(-0.021872612 -1.1592979e-05 -1.6255212e-24)
(-0.021513167 -1.1610131e-05 -3.7679845e-24)
(-0.021153393 -1.1624185e-05 4.4228392e-25)
(-0.02079339 -1.1634276e-05 -1.0739237e-25)
(-0.020433263 -1.1641194e-05 1.0311368e-24)
(-0.020073098 -1.1644728e-05 -9.6842661e-26)
(-0.019713009 -1.1644783e-05 2.7256114e-24)
(-0.019353065 -1.1641726e-05 -4.0851347e-24)
(-0.018993377 -1.1635694e-05 5.1517351e-24)
(-0.018633996 -1.1627421e-05 2.6899801e-24)
(-0.018275045 -1.1615872e-05 -4.1942957e-24)
(-0.017916553 -1.1601335e-05 -1.8348393e-24)
(-0.017558674 -1.1583763e-05 -5.0756111e-24)
(-0.017201407 -1.1563731e-05 5.4264409e-24)
(-0.01684493 -1.154082e-05 3.7303911e-24)
(-0.016489198 -1.1515791e-05 -2.6302812e-24)
(-0.016134395 -1.1487558e-05 -7.1395241e-24)
(-0.010283946 0.0075983137 4.1557018e-23)
(-0.010694296 0.0077488241 3.0053307e-21)
(-0.011072672 0.0078362633 1.5359801e-21)
(-0.011403912 0.0078478932 1.8268571e-21)
(-0.011685993 0.0077814925 5.4230679e-21)
(-0.011900883 0.0076254701 1.8311179e-20)
(-0.012064933 0.0073919129 2.1040513e-20)
(-0.012168196 0.007077464 8.8570664e-21)
(-0.012290044 0.0067345106 2.4787738e-20)
(-0.012405637 0.0063663664 7.4332016e-21)
(-0.012498213 0.0059702431 -1.6517992e-20)
(-0.012527551 0.005531549 -4.1394112e-22)
(-0.012527778 0.0050704093 -3.3247328e-21)
(-0.012419122 0.004561755 5.1337322e-21)
(-0.012302539 0.00405045 -8.4497393e-21)
(-0.012022488 0.0034939188 1.0976673e-20)
(-0.011783951 0.0029620425 -6.9315716e-21)
(-0.011310958 0.0023955173 3.6324916e-22)
(-0.011039381 0.001896493 6.5678164e-21)
(-0.010515893 0.0013885566 1.3241878e-21)
(-0.010612987 0.00097942197 -8.2069193e-22)
(-0.010556663 0.00057722052 4.6445697e-23)
(-0.012473329 0.0002543952 2.1008222e-22)
(-0.015950019 0.0001208839 1.6302777e-25)
(-0.018413511 9.9239818e-05 -4.206146e-25)
(-0.020822925 8.9360947e-05 3.3577676e-25)
(-0.022810633 7.972127e-05 -5.8515945e-25)
(-0.024724005 7.2208889e-05 3.7566368e-25)
(-0.026351983 6.5032847e-05 3.7676045e-25)
(-0.027902888 5.9253391e-05 -1.2252761e-25)
(-0.029253452 5.3844484e-05 2.8731563e-25)
(-0.030532312 4.9383904e-05 -4.64159e-25)
(-0.031668184 4.5246295e-05 1.8536374e-25)
(-0.03274018 4.1738228e-05 -2.6802789e-25)
(-0.033706735 3.8474232e-05 7.4171914e-26)
(-0.034616367 3.560426e-05 2.3353254e-26)
(-0.035444069 3.2861962e-05 -5.5956346e-26)
(-0.036218066 3.0303369e-05 -2.6745847e-25)
(-0.036921847 2.788655e-05 4.4733716e-25)
(-0.037578321 2.5633774e-05 -4.3503678e-25)
(-0.038171886 2.3470123e-05 8.6165048e-25)
(-0.038719929 2.1495942e-05 -6.0927842e-25)
(-0.039217629 1.9604596e-05 -8.9521976e-25)
(-0.039672822 1.7807128e-05 1.3936952e-24)
(-0.04008291 1.6068868e-05 -1.0738467e-24)
(-0.04045292 1.439841e-05 1.9493038e-24)
(-0.040781575 1.2783516e-05 -1.3758634e-24)
(-0.041072556 1.1231614e-05 -1.5469582e-24)
(-0.041325519 9.7398444e-06 2.615743e-24)
(-0.041543582 8.2920944e-06 -1.9593319e-24)
(-0.041726059 6.8855497e-06 3.3072261e-24)
(-0.041875378 5.4538187e-06 -2.1780447e-24)