/*--------------------------------*- C++ -*----------------------------------*\
| =========                 |                                                 |
| \\      /  F ield         | OpenFOAM: The Open Source CFD Toolbox           |
|  \\    /   O peration     | Version:  2.4.0                                 |
|   \\  /    A nd           | Web:      www.OpenFOAM.org                      |
|    \\/     M anipulation  |                                                 |
\*---------------------------------------------------------------------------*/
FoamFile
{
    version     2.0;
    format      ascii;
    class       volScalarField;
    location    "250";
    object      nut;
}
// * * * * * * * * * * * * * * * * * * * * * * * * * * * * * * * * * * * * * //

dimensions      [0 2 -1 0 0 0 0];

internalField   nonuniform List<scalar> 
78300
(
1.3708589e-13
3.6070073e-13
1.5645474e-13
1.4296849e-13
2.104775e-13
8.4240819e-14
5.3960807e-14
3.2145285e-13
2.1268857e-13
1.8251916e-13
1.7389285e-14
8.9413406e-14
1.1798305e-14
5.4882444e-13
3.1583654e-13
1.1065761e-12
7.3778694e-13
3.8309222e-13
2.2947591e-13
1.4610153e-13
8.2046255e-14
4.7038951e-14
2.1798308e-14
9.5073415e-15
4.4897891e-15
1.5121571e-15
9.0066192e-16
1.200511e-15
8.9851135e-16
1.890267e-15
2.2715077e-15
1.8436586e-15
1.5179365e-15
7.1926843e-16
2.673876e-16
5.4230602e-16
2.5223986e-15
4.4974598e-15
8.2690724e-15
9.3431794e-14
7.8468497e-14
2.5486332e-13
3.8908998e-14
4.3521771e-14
4.6853864e-14
5.9004137e-14
5.8733456e-14
6.1106418e-14
6.4446974e-14
6.0981018e-14
5.6623767e-14
5.1489601e-14
4.215062e-14
3.387674e-14
2.3141931e-14
1.4835167e-14
7.882441e-15
2.6290443e-15
4.5932176e-16
1.5575464e-15
1.2263146e-15
1.5473811e-15
5.6213257e-15
4.5826276e-14
1.0020466e-13
1.8775336e-13
2.8726711e-13
4.1249984e-13
5.4407818e-13
6.9352427e-13
8.4704784e-13
1.012399e-12
1.1795315e-12
1.3543107e-12
1.5319113e-12
1.715202e-12
1.8983954e-12
2.0815436e-12
2.2620919e-12
2.4416434e-12
2.6189869e-12
2.7925595e-12
2.9474922e-12
3.0990192e-12
3.256261e-12
3.4049848e-12
3.5466274e-12
3.6816783e-12
3.8064046e-12
3.9260863e-12
4.0438188e-12
4.1603938e-12
4.27184e-12
4.3697615e-12
4.4477352e-12
4.4899354e-12
4.4983809e-12
4.5507149e-12
4.549209e-12
4.5255669e-12
4.4906128e-12
4.4166172e-12
4.3839232e-12
4.3510973e-12
4.31622e-12
4.2886202e-12
4.2582937e-12
4.2139736e-12
4.1543978e-12
4.0930531e-12
4.0431226e-12
4.1343135e-12
4.1359767e-12
3.8946676e-12
3.7955522e-12
3.7138619e-12
3.6075908e-12
3.4964404e-12
3.3837525e-12
3.276001e-12
3.1699745e-12
3.0635036e-12
2.954899e-12
2.8469254e-12
2.7448197e-12
2.6518066e-12
2.5685946e-12
2.4892507e-12
2.41069e-12
2.3314831e-12
2.2562791e-12
2.181692e-12
2.1051799e-12
2.0293694e-12
1.9616659e-12
1.8976187e-12
1.8284064e-12
1.749634e-12
1.664254e-12
1.5747562e-12
1.4814939e-12
1.3866398e-12
1.289651e-12
1.1966296e-12
1.1101821e-12
1.0395679e-12
9.8374692e-13
9.3960061e-13
9.0403002e-13
8.7437201e-13
8.5287979e-13
8.3072234e-13
8.0295657e-13
7.7014179e-13
7.3941271e-13
7.1029404e-13
6.759449e-13
6.3620526e-13
5.9240882e-13
5.5147235e-13
5.1476218e-13
4.8666146e-13
4.6277929e-13
4.352418e-13
4.0433732e-13
3.8175742e-13
3.6216989e-13
3.439021e-13
3.281298e-13
3.1895068e-13
3.1809112e-13
3.2134986e-13
3.2568108e-13
3.1935897e-13
2.9327219e-13
2.5497877e-13
2.1628064e-13
1.9502244e-13
1.7988124e-13
1.5567927e-13
1.4278184e-13
1.3064594e-13
1.3096292e-13
1.5129846e-13
1.628738e-13
1.6593054e-13
1.5449377e-13
1.3025155e-13
1.2874253e-13
1.220559e-13
1.1734721e-13
1.2016113e-13
1.2650431e-13
1.2956676e-13
1.2512371e-13
1.1681203e-13
1.1214283e-13
1.0772658e-13
9.6118709e-14
7.5692429e-14
4.9737951e-14
2.9643373e-14
1.9816294e-14
1.5785908e-14
1.8064257e-14
1.8953537e-14
2.3014089e-14
2.7225711e-14
3.9704664e-14
6.0215491e-14
8.0427506e-14
8.4926301e-14
1.01512e-13
9.7984127e-14
8.98122e-14
7.1301142e-14
9.9932766e-14
6.5397665e-14
4.4303889e-14
1.5085487e-13
2.9652627e-13
2.9707095e-13
2.2849642e-12
3.6157627e-12
4.0061181e-12
1.600867e-12
7.9280157e-12
1.3285593e-11
1.8066686e-11
1.4752249e-11
8.1645978e-12
6.051672e-12
2.6891455e-12
1.907622e-12
2.2574249e-12
1.7637775e-12
4.3107538e-12
1.5330029e-11
1.6321955e-11
2.1799597e-11
2.1908545e-11
5.1082424e-11
6.5066905e-11
9.5920999e-11
2.2526845e-10
7.1184608e-10
3.8801304e-10
1.269216e-10
7.2723559e-11
6.8968205e-10
9.5687299e-10
2.8947363e-10
1.2578149e-10
2.4152436e-10
9.6943953e-10
5.9088685e-10
9.3968611e-11
1.1242961e-10
3.4314537e-10
2.5670797e-10
1.0925349e-10
3.2110769e-11
2.0113082e-11
1.2182749e-11
4.0552321e-12
3.4004721e-13
3.490286e-13
7.532736e-13
1.610136e-13
1.2566762e-12
1.3590748e-13
2.7189887e-13
1.4869246e-13
1.1487064e-13
1.8743132e-12
2.9112308e-12
1.0784887e-12
5.0907651e-13
2.6790236e-13
2.2867725e-13
5.8879094e-14
8.0368327e-14
1.9346432e-14
4.9010135e-13
2.7862261e-13
1.0139384e-12
7.829053e-13
4.0607261e-13
2.6452613e-13
1.1913066e-13
5.9758716e-14
7.5969444e-14
4.2088871e-14
6.3198073e-15
2.9688307e-15
1.2457628e-14
1.4001795e-14
1.4361665e-14
7.0211548e-16
1.2688301e-15
2.0069441e-14
1.4019817e-15
1.9020841e-14
2.7060697e-14
3.6378268e-14
2.121146e-14
1.9632401e-15
3.5467708e-15
9.3791586e-14
1.3614314e-13
1.2176944e-13
2.8349752e-13
6.9938036e-14
3.1633307e-14
3.0989519e-14
3.8182271e-14
3.7673926e-14
4.5029736e-14
3.8798774e-13
4.0429585e-13
3.7495312e-14
4.320094e-13
2.9016273e-14
4.4689324e-13
1.7415632e-14
4.8081533e-13
4.4575904e-13
3.50725e-13
2.821432e-15
3.8028939e-15
3.2425099e-15
1.8209309e-13
2.822962e-13
4.3730999e-13
6.283241e-13
8.7556655e-13
1.1764872e-12
1.4991241e-12
1.8351223e-12
2.1934993e-12
2.5694771e-12
2.957221e-12
3.348156e-12
3.7509718e-12
4.1819134e-12
4.6516664e-12
5.1471034e-12
5.6421651e-12
6.1153076e-12
6.5354895e-12
7.0531715e-12
7.6893334e-12
5.584014e-12
3.2349757e-12
2.5687935e-12
2.6718451e-12
2.784106e-12
2.8846518e-12
2.9625995e-12
3.0064349e-12
2.7801131e-12
2.8380243e-12
2.8792058e-12
2.7884186e-12
2.8382143e-12
2.8669507e-12
4.3104288e-12
1.2538877e-11
1.2591042e-11
1.2604508e-11
1.2695731e-11
5.9176786e-12
3.0071053e-12
2.8957397e-12
2.7821749e-12
2.7699604e-12
2.7723967e-12
2.7732904e-12
2.7744802e-12
2.7682955e-12
2.7709832e-12
2.30632e-11
3.2242641e-11
7.3961891e-12
7.2808179e-12
7.2140864e-12
7.114833e-12
7.0057327e-12
6.8939839e-12
6.7855678e-12
6.6765396e-12
6.5656407e-12
6.4499059e-12
6.333288e-12
6.2188819e-12
6.1148503e-12
6.0195327e-12
5.9327809e-12
5.8433588e-12
5.7574044e-12
5.6704344e-12
5.5909955e-12
5.5069717e-12
5.4286979e-12
5.3571149e-12
5.297737e-12
5.2336192e-12
5.1627154e-12
5.0810687e-12
4.9923495e-12
4.8950502e-12
4.7912421e-12
4.6791593e-12
4.560537e-12
4.4415278e-12
4.3360975e-12
4.2477349e-12
4.1761508e-12
4.1128768e-12
4.0629078e-12
4.0281344e-12
3.9995509e-12
3.9630266e-12
3.9249775e-12
3.8889121e-12
3.859358e-12
3.8201432e-12
3.7769442e-12
3.7199243e-12
3.6609301e-12
3.5960447e-12
3.5386092e-12
3.4920215e-12
3.4595151e-12
3.4262567e-12
3.3930442e-12
3.3392039e-12
3.2893741e-12
3.2333108e-12
3.189519e-12
3.1548387e-12
3.1289026e-12
3.0888679e-12
2.9880571e-12
2.6858027e-12
1.7001192e-12
5.6219542e-13
1.8911038e-13
4.6421872e-12
3.9484402e-12
4.1466167e-12
4.1245174e-12
1.4614927e-13
2.6355102e-13
2.6715599e-12
2.8559567e-12
2.8358273e-12
2.7862778e-12
2.7472646e-12
2.704754e-12
2.6579914e-12
2.6188588e-12
2.5957969e-12
2.5721663e-12
2.554064e-12
2.498704e-12
2.4565956e-12
2.4087385e-12
2.3861769e-12
2.3259064e-12
2.2657251e-12
2.1289313e-12
1.9004555e-12
2.0256182e-12
2.3529293e-12
1.9861613e-12
2.0562863e-12
2.2963761e-12
1.4041106e-12
1.4282258e-12
1.4826666e-12
1.4432713e-12
1.3678789e-12
9.555342e-13
9.5378049e-14
6.9094219e-14
3.5320474e-12
2.8673031e-12
3.1976606e-12
3.1280525e-12
3.2854947e-12
3.0263704e-12
1.4435498e-12
2.3784737e-12
2.8136089e-12
1.6960046e-12
1.5495353e-11
1.7890763e-11
1.6089421e-11
1.294225e-11
6.6544885e-12
5.114093e-12
2.1797124e-12
1.5864362e-12
2.016491e-12
1.6108997e-12
3.7004168e-12
1.2767066e-11
1.5545566e-11
2.3814743e-11
3.6428902e-11
6.8967097e-11
6.5484996e-11
1.0299812e-10
2.6418041e-10
8.4423641e-10
4.5263024e-10
1.555218e-10
8.3999733e-11
8.0663204e-10
1.0222848e-09
3.188486e-10
1.440719e-10
2.5650938e-10
1.0293074e-09
1.2915402e-09
1.5555021e-10
1.2551519e-10
3.5880297e-10
3.8393018e-10
1.897076e-10
1.0487983e-10
6.5097428e-11
4.2776534e-11
2.0401275e-11
9.5628138e-12
8.1281101e-12
8.3551187e-12
2.332325e-13
8.7847221e-13
7.6809284e-13
7.5846029e-13
7.7507235e-13
4.1365903e-13
3.9136341e-11
7.2035864e-11
2.6076835e-11
4.5584126e-12
1.2494876e-12
1.040858e-12
9.9325639e-13
6.3610489e-14
2.0190692e-13
3.741082e-13
2.05283e-13
8.9226276e-13
1.8056117e-12
1.0712676e-12
8.4139987e-13
7.3068352e-14
2.8916462e-14
6.4796294e-13
4.4279591e-13
3.9500725e-15
1.5999093e-15
2.894485e-13
3.50279e-13
3.5308862e-13
1.3945505e-15
1.0672354e-15
4.8340371e-13
2.5231635e-15
4.5472074e-13
6.9084339e-13
9.5244446e-13
4.7057283e-13
5.5506823e-15
9.2979459e-15
2.1715422e-12
1.1508015e-12
1.1436314e-12
1.1041495e-12
7.2333967e-13
3.2504909e-14
2.7387077e-14
3.3627055e-14
3.4921131e-14
6.4164496e-14
8.1107485e-12
8.5766047e-12
4.3565134e-14
9.5862698e-12
4.860971e-14
1.0403161e-11
4.8743231e-14
1.177731e-11
1.1083588e-11
8.8430953e-12
3.901202e-14
4.5496683e-14
4.0105475e-14
4.6907971e-12
6.9904367e-12
9.7523805e-12
1.30262e-11
1.6803806e-11
2.2262805e-11
2.7159241e-11
3.2047373e-11
3.6973978e-11
4.2272049e-11
4.751797e-11
5.2772342e-11
5.8104696e-11
6.4097097e-11
7.0947876e-11
7.8449839e-11
8.5852903e-11
9.2627857e-11
9.7987544e-11
1.0637141e-10
1.187539e-10
6.5162104e-11
9.2644742e-12
1.9916484e-12
2.0584023e-12
2.1405004e-12
2.2230766e-12
2.2859912e-12
2.3011689e-12
2.0093013e-12
2.0787674e-12
2.1279721e-12
1.9570149e-12
2.0624769e-12
2.1030996e-12
1.0045514e-11
1.9110022e-10
1.9267807e-10
1.9412517e-10
1.9982968e-10
3.8760912e-11
2.2827726e-12
2.162146e-12
2.0539912e-12
2.1578093e-12
2.3386123e-12
2.6139222e-12
3.0311645e-12
3.4271345e-12
3.8884036e-12
4.5736425e-10
6.8605131e-10
9.1720094e-11
9.0975296e-11
9.1007306e-11
9.0774201e-11
9.0413036e-11
9.0021689e-11
8.9612106e-11
8.9157638e-11
8.8669634e-11
8.8114456e-11
8.7527164e-11
8.6880954e-11
8.6296171e-11
8.5724051e-11
8.5268993e-11
8.4740712e-11
8.4300922e-11
8.3765351e-11
8.3384951e-11
8.293812e-11
8.260571e-11
8.2271516e-11
8.2141117e-11
8.1999978e-11
8.1885806e-11
8.1654604e-11
8.1344831e-11
8.0913457e-11
8.0368327e-11
7.9678373e-11
7.8771639e-11
7.7735191e-11
7.6706965e-11
7.5783423e-11
7.5013849e-11
7.4270792e-11
7.3712456e-11
7.334102e-11
7.3115557e-11
7.2819587e-11
7.25832e-11
7.2353954e-11
7.22353e-11
7.2001453e-11
7.178051e-11
7.1329986e-11
7.0777544e-11
7.0019541e-11
6.9272324e-11
6.8691785e-11
6.8484373e-11
6.8315844e-11
6.7989323e-11
6.7145606e-11
6.6383944e-11
6.5445726e-11
6.4644064e-11
6.3889427e-11
6.3248016e-11
6.2279106e-11
6.0166653e-11
5.3951556e-11
3.2563168e-11
8.1174943e-12
1.1028473e-12
1.0884148e-10
9.7589684e-11
1.0379119e-10
1.0320279e-10
1.009932e-12
2.8174521e-12
5.6087637e-11
6.0113271e-11
5.9872747e-11
5.9223893e-11
5.8386973e-11
5.7565806e-11
5.6611901e-11
5.5690889e-11
5.5065926e-11
5.4487216e-11
5.4168992e-11
5.3095299e-11
5.2249339e-11
5.127229e-11
5.0990399e-11
5.0036031e-11
4.9186674e-11
4.6534423e-11
4.1680433e-11
4.5612646e-11
5.5094641e-11
4.5766441e-11
4.7972868e-11
5.352836e-11
3.0323297e-11
3.0480495e-11
3.1312358e-11
3.0355751e-11
2.8373817e-11
1.9346921e-11
6.6993985e-13
3.6680137e-13
8.6221129e-11
6.9661543e-11
7.983576e-11
7.5533153e-11
7.5066171e-11
6.6230767e-11
7.2436601e-13
1.4355481e-12
3.8496336e-12
7.5788426e-12
1.8899664e-10
1.244552e-10
1.3342062e-11
9.7832801e-12
4.1928171e-12
3.3885566e-12
1.3184645e-12
1.03908e-12
1.4619906e-12
1.3978347e-12
2.5779324e-12
8.9887727e-12
1.9566169e-11
8.2433192e-11
3.2847717e-10
3.3145688e-10
1.3224668e-10
2.4185707e-10
1.0585145e-09
4.0492739e-09
2.0992538e-09
8.3794701e-10
3.2218731e-10
3.7809096e-09
3.2835824e-09
1.1429821e-09
5.1514512e-10
6.3259693e-10
2.5722671e-09
1.6695243e-08
1.6197859e-09
5.1985311e-10
9.4156575e-10
2.9455693e-09
1.9797681e-09
1.8391516e-09
1.1215907e-09
7.6525065e-10
4.106909e-10
2.3518586e-10
1.8998519e-10
1.8353898e-10
2.4533393e-12
1.1394544e-12
3.6062297e-12
3.1856847e-12
3.678054e-12
1.8134748e-12
3.5147169e-10
7.0955747e-10
2.5765018e-10
4.1173672e-11
9.4330345e-12
7.7452915e-12
8.5729706e-12
6.4221081e-14
1.6526415e-12
3.1441e-13
1.6763546e-13
7.9582533e-13
9.4345185e-12
6.2263295e-12
5.3608449e-12
4.7067371e-14
1.1081452e-14
6.0256722e-12
3.8711311e-12
5.0411019e-15
1.6233433e-15
3.0977295e-12
3.7209422e-12
3.3832023e-12
4.6643429e-15
3.274223e-15
4.7788679e-12
1.1766959e-14
4.6689027e-12
7.0723655e-12
9.7173154e-12
4.0001868e-12
2.3141083e-14
6.2844167e-14
2.1413837e-11
9.0280018e-12
9.2601807e-12
7.2039422e-12
5.8522845e-12
8.3229678e-14
6.5790672e-14
8.1516469e-14
1.0027843e-13
3.1792075e-13
7.9893367e-11
8.3183981e-11
1.439663e-13
9.3049882e-11
1.9327969e-13
9.9716164e-11
2.2647414e-13
1.1245877e-10
1.055768e-10
8.4077084e-11
2.1054856e-13
2.5642237e-13
2.2760075e-13
4.5414838e-11
6.6351904e-11
9.2538894e-11
1.2375074e-10
1.5903496e-10
2.068396e-10
2.501346e-10
2.9388751e-10
3.3806818e-10
3.861007e-10
4.3360351e-10
4.8104967e-10
5.2914716e-10
5.8333424e-10
6.4546096e-10
7.1337694e-10
7.7969479e-10
8.3929658e-10
8.8555297e-10
9.6254501e-10
1.0816981e-09
5.5856115e-10
5.5121899e-11
3.9927929e-12
4.1045699e-12
4.2536937e-12
4.4508432e-12
4.6233072e-12
4.6584424e-12
4.0282202e-12
4.3291639e-12
4.5916139e-12
4.220933e-12
4.6931642e-12
4.8827804e-12
5.394764e-11
1.7153106e-09
1.7325039e-09
1.7487885e-09
1.8186518e-09
3.0323108e-10
5.0117705e-12
4.8256087e-12
4.7075607e-12
5.3189438e-12
6.3158919e-12
7.8746844e-12
1.0236038e-11
1.2639423e-11
1.6502011e-11
4.2445296e-09
6.3527337e-09
7.2506382e-10
7.1911301e-10
7.1983315e-10
7.1854366e-10
7.1623775e-10
7.1370021e-10
7.1097166e-10
7.0787675e-10
7.0450569e-10
7.0061055e-10
6.9643592e-10
6.9175567e-10
6.875181e-10
6.833417e-10
6.8008102e-10
6.7622424e-10
6.7308724e-10
6.6915304e-10
6.6648073e-10
6.6327201e-10
6.6099312e-10
6.5864433e-10
6.5795334e-10
6.5718908e-10
6.567118e-10
6.5529535e-10
6.5328893e-10
6.5029716e-10
6.4640357e-10
6.4132416e-10
6.3447069e-10
6.265272e-10
6.1856439e-10
6.1137447e-10
6.0534991e-10
5.9950528e-10
5.9512565e-10
5.9224048e-10
5.9050809e-10
5.8825077e-10
5.865077e-10
5.8483149e-10
5.8400071e-10
5.8228272e-10
5.80719e-10
5.7732476e-10
5.7301886e-10
5.670453e-10
5.6116997e-10
5.5669176e-10
5.5521458e-10
5.5399303e-10
5.5136314e-10
5.4443081e-10
5.3835867e-10
5.3092833e-10
5.2442711e-10
5.1825324e-10
5.1292434e-10
5.0496206e-10
4.8778224e-10
4.3715137e-10
2.5995714e-10
6.0494188e-11
6.4191199e-12
1.0053055e-09
9.3496349e-10
1.0007279e-09
9.8994375e-10
5.6701324e-12
1.7877192e-11
4.5568835e-10
4.8859184e-10
4.8662922e-10
4.8148203e-10
4.7466597e-10
4.6798497e-10
4.6018266e-10
4.5263298e-10
4.475351e-10
4.4281265e-10
4.4024572e-10
4.3151942e-10
4.246492e-10
4.1672185e-10
4.1452325e-10
4.0688048e-10
4.0013001e-10
3.7866712e-10
3.3942179e-10
3.8303907e-10
4.8434219e-10
3.9548596e-10
4.2150301e-10
4.7004633e-10
2.4666081e-10
2.4785329e-10
2.5451615e-10
2.4668557e-10
2.3038654e-10
1.5701347e-10
4.2000969e-12
1.8174583e-12
8.16629e-10
6.5962392e-10
7.6519565e-10
7.3008152e-10
7.2447274e-10
6.1385444e-10
1.0390147e-12
3.0680792e-12
1.4042994e-11
4.2951435e-11
1.5122345e-09
9.482713e-10
1.9352462e-11
9.1436118e-12
3.1137503e-12
2.4388679e-12
9.0098872e-13
8.6379567e-13
9.5902183e-13
2.4843211e-12
2.5025818e-12
9.4592411e-12
5.9920544e-11
5.3085013e-10
2.522808e-09
2.2478021e-09
6.0930076e-10
1.2032779e-09
7.2160392e-09
3.009239e-08
1.53229e-08
5.9495653e-09
2.1012157e-09
2.6293349e-08
1.9943163e-08
7.3643242e-09
3.4278233e-09
3.3025882e-09
1.3638206e-08
1.4266994e-07
1.2737311e-08
3.3568015e-09
5.1656746e-09
2.5153343e-08
1.7593948e-08
1.7401893e-08
1.0380784e-08
7.047212e-09
3.7142518e-09
2.1629468e-09
1.7723967e-09
1.6979835e-09
1.8686989e-11
4.0110871e-12
1.0787861e-11
9.129883e-12
1.1240798e-11
5.2481968e-12
1.9101464e-09
4.2426638e-09
1.5490327e-09
2.3445562e-10
5.0758168e-11
4.1649438e-11
4.6061492e-11
1.1671466e-13
8.4892683e-12
4.0352921e-13
2.3158021e-13
1.0354005e-12
4.6187661e-11
3.1138821e-11
2.7659854e-11
5.0782759e-14
5.0211246e-15
3.7280297e-11
2.25857e-11
1.0394322e-14
4.8232653e-15
2.0964611e-11
2.4691676e-11
2.002867e-11
1.1647406e-14
1.1322343e-14
2.9577716e-11
4.4687535e-14
2.9904866e-11
4.4716982e-11
6.0762302e-11
2.0224721e-11
6.6188042e-14
2.9807784e-13
1.2911495e-10
4.5940538e-11
4.8342987e-11
3.4824345e-11
2.9590956e-11
2.237453e-13
1.7328281e-13
2.1069236e-13
2.8811965e-13
1.4181193e-12
4.7062035e-10
4.7393994e-10
4.3656247e-13
5.2867831e-10
6.1377569e-13
5.5678739e-10
7.4567423e-13
6.2615381e-10
5.8364893e-10
4.6152675e-10
7.0789337e-13
8.9606465e-13
8.0281966e-13
2.5492447e-10
3.6441775e-10
5.1024561e-10
6.8489474e-10
8.805311e-10
1.1308603e-09
1.3616913e-09
1.5977168e-09
1.8369149e-09
2.0982606e-09
2.3569524e-09
2.6150343e-09
2.8766336e-09
3.1711311e-09
3.5086698e-09
3.8768417e-09
4.234521e-09
4.5534293e-09
4.7998243e-09
5.2194954e-09
5.8751933e-09
2.960239e-09
2.5116469e-10
1.2289072e-11
1.2549326e-11
1.3001352e-11
1.3638733e-11
1.4192945e-11
1.4252501e-11
1.2292604e-11
1.3300635e-11
1.4149207e-11
1.2904915e-11
1.4512787e-11
1.5463555e-11
2.353995e-10
9.235771e-09
9.3451858e-09
9.4437479e-09
9.8478971e-09
1.5353807e-09
1.5738601e-11
1.5011994e-11
1.4669772e-11
1.6866452e-11
2.0484443e-11
2.6187517e-11
3.4957818e-11
4.414518e-11
6.4287757e-11
2.3060517e-08
3.4192385e-08
3.4836692e-09
3.4523217e-09
3.4560171e-09
3.4501624e-09
3.4394202e-09
3.4275939e-09
3.414753e-09
3.4001943e-09
3.3842723e-09
3.3658924e-09
3.3460846e-09
3.3238672e-09
3.3037208e-09
3.2839112e-09
3.2684181e-09
3.2500749e-09
3.235175e-09
3.2164508e-09
3.2038152e-09
3.1885633e-09
3.1778004e-09
3.1666217e-09
3.1635247e-09
3.1599989e-09
3.1579619e-09
3.1512834e-09
3.14193e-09
3.1277422e-09
3.1093071e-09
3.0850582e-09
3.0523337e-09
3.0143558e-09
2.9762582e-09
2.9418599e-09
2.9129265e-09
2.8849043e-09
2.8638903e-09
2.8501409e-09
2.8417494e-09
2.8309333e-09
2.8226119e-09
2.8147053e-09
2.810635e-09
2.8024111e-09
2.795044e-09
2.7789446e-09
2.7581139e-09
2.7293975e-09
2.7014354e-09
2.680523e-09
2.6737713e-09
2.667841e-09
2.6547125e-09
2.6205063e-09
2.5914399e-09
2.5563026e-09
2.5248727e-09
2.4949621e-09
2.4688269e-09
2.4302107e-09
2.3473746e-09
2.1025315e-09
1.2337383e-09
2.7151577e-10
2.4411375e-11
5.4553711e-09
5.2142987e-09
5.6071141e-09
5.5036882e-09
2.0452521e-11
7.0485828e-11
2.1939578e-09
2.3536063e-09
2.3438233e-09
2.319096e-09
2.2862108e-09
2.2538919e-09
2.2160072e-09
2.1794663e-09
2.1550278e-09
2.1323045e-09
2.1199273e-09
2.0777644e-09
2.044636e-09
2.006487e-09
1.9960848e-09
1.9593942e-09
1.9270338e-09
1.8238082e-09
1.6361802e-09
1.9048901e-09
2.5158003e-09
2.020945e-09
2.1888444e-09
2.438558e-09
1.1879979e-09
1.19389e-09
1.2259411e-09
1.1881438e-09
1.1092562e-09
7.5548385e-10
1.66267e-11
5.9353873e-12
4.5066721e-09
3.678918e-09
4.2980169e-09
4.145598e-09
4.1340565e-09
3.3875362e-09
3.5753161e-12
1.198832e-11
4.4293084e-11
1.6430248e-10
7.52665e-09
4.7973761e-09
5.3909562e-11
1.5397896e-11
4.4239265e-12
2.9463536e-12
1.1926747e-12
1.365576e-12
8.9983049e-13
8.3874456e-12
5.67024e-12
1.9327722e-11
2.3297072e-10
2.5159465e-09
1.2527478e-08
1.1108679e-08
2.7182872e-09
5.6705926e-09
3.70749e-08
1.5433158e-07
7.9260466e-08
2.9483244e-08
1.0441128e-08
1.3109181e-07
9.5095791e-08
3.6168682e-08
1.7420379e-08
1.5501786e-08
6.5112391e-08
7.8430916e-07
6.3902448e-08
1.553881e-08
2.426657e-08
1.473209e-07
1.0240337e-07
1.0301943e-07
6.0002228e-08
4.0333906e-08
2.0601185e-08
1.2040226e-08
1.0001394e-08
9.5199956e-09
8.7836422e-11
1.2386424e-11
2.591921e-11
2.0927056e-11
2.7616398e-11
1.2201219e-11
7.4998735e-09
1.8040536e-08
6.6309195e-09
9.7691435e-10
2.0580203e-10
1.6957491e-10
1.8211915e-10
2.7720288e-13
3.2153731e-11
7.4113956e-13
4.7880233e-13
2.1812767e-12
1.8224204e-10
1.1925711e-10
1.1182565e-10
8.4008436e-14
7.3776221e-15
1.7063818e-10
9.609828e-11
2.0595088e-14
1.3570744e-14
9.8013641e-11
1.1168856e-10
8.4284428e-11
2.3565513e-14
3.0215568e-14
1.2813351e-10
1.3015049e-13
1.3371034e-10
1.954991e-10
2.6285429e-10
7.3740719e-11
1.4914696e-13
1.0373697e-12
5.5055161e-10
1.7210031e-10
1.8570423e-10
1.2660166e-10
1.090333e-10
5.0972539e-13
3.9292714e-13
4.7003844e-13
6.8713245e-13
4.8497437e-12
1.887844e-09
1.8011349e-09
1.1025347e-12
2.0036133e-09
1.5970477e-12
2.0771041e-09
1.9887176e-12
2.3487356e-09
2.1617511e-09
1.6900545e-09
1.9080476e-12
2.4949811e-12
2.2637716e-12
9.7722362e-10
1.3364857e-09
1.8715469e-09
2.5102968e-09
3.2185587e-09
4.0802163e-09
4.891816e-09
5.7325636e-09
6.5828016e-09
7.5103101e-09
8.4262028e-09
9.3410858e-09
1.0267455e-08
1.1312866e-08
1.2513669e-08
1.3828793e-08
1.5113383e-08
1.6267834e-08
1.7162596e-08
1.8655183e-08
2.0920776e-08
1.0908516e-08
8.5269364e-10
3.4970296e-11
3.5547242e-11
3.6852347e-11
3.8682587e-11
4.0201657e-11
4.0135682e-11
3.442741e-11
3.7187169e-11
3.9326116e-11
3.5592385e-11
4.0167838e-11
4.417543e-11
8.1037108e-10
3.3074486e-08
3.3511778e-08
3.384542e-08
3.5003911e-08
5.4986713e-09
4.4443363e-11
4.1840441e-11
4.0776098e-11
4.7146351e-11
5.7743046e-11
7.4532709e-11
1.0062335e-10
1.2891353e-10
2.0916429e-10
8.420941e-08
1.2366603e-07
1.2246696e-08
1.212517e-08
1.2138392e-08
1.2118324e-08
1.2081074e-08
1.2040089e-08
1.1995257e-08
1.1944567e-08
1.1888955e-08
1.1824908e-08
1.1755571e-08
1.1677906e-08
1.160737e-08
1.1538214e-08
1.1483946e-08
1.1419732e-08
1.136753e-08
1.1301962e-08
1.1257834e-08
1.1204371e-08
1.1166726e-08
1.1127406e-08
1.1116843e-08
1.110445e-08
1.1097581e-08
1.1073946e-08
1.1041465e-08
1.0991638e-08
1.0927221e-08
1.0841988e-08
1.0727265e-08
1.0594104e-08
1.046055e-08
1.0340007e-08
1.0238287e-08
1.0139987e-08
1.0066194e-08
1.0018158e-08
9.9883774e-09
9.9503552e-09
9.9211246e-09
9.8936214e-09
9.8789036e-09
9.8499141e-09
9.8242562e-09
9.7681046e-09
9.6943089e-09
9.5933151e-09
9.4959081e-09
9.4243097e-09
9.4014742e-09
9.3801953e-09
9.3323695e-09
9.2095992e-09
9.107876e-09
8.9862715e-09
8.875328e-09
8.7696425e-09
8.6763178e-09
8.5398107e-09
8.2482876e-09
7.3835959e-09
4.2864974e-09
9.0514683e-10
7.3667758e-11
2.0482819e-08
1.996999e-08
2.1520775e-08
2.0916403e-08
5.8694855e-11
2.1638831e-10
7.7097356e-09
8.276201e-09
8.2406946e-09
8.1538332e-09
8.0380161e-09
7.9239596e-09
7.7898005e-09
7.6608747e-09
7.5753588e-09
7.4955625e-09
7.4518885e-09
7.3032559e-09
7.1866395e-09
7.0526527e-09
7.0165712e-09
6.8878712e-09
6.7743909e-09
6.4119794e-09
5.7581434e-09
6.8831346e-09
9.3892268e-09
7.453302e-09
8.1689417e-09
9.0876091e-09
4.1763882e-09
4.1980991e-09
4.3107578e-09
4.1777073e-09
3.8991747e-09
2.6506204e-09
5.0749985e-11
1.5626704e-11
1.6790905e-08
1.4096184e-08
1.640526e-08
1.5964455e-08
1.6104807e-08
1.30978e-08
1.0359541e-11
3.6422593e-11
1.1279787e-10
4.8247749e-10
2.7351387e-08
1.7908089e-08
1.602551e-10
3.5344063e-11
9.0757894e-12
5.3531804e-12
2.3666252e-12
2.8230953e-12
2.1229278e-12
2.6529986e-11
1.5803467e-11
4.6396048e-11
7.6462944e-10
8.913744e-09
4.6074262e-08
4.1368969e-08
9.6305099e-09
2.1173279e-08
1.4435706e-07
6.0290281e-07
3.0365296e-07
1.0996696e-07
3.9645962e-08
4.928161e-07
3.4534867e-07
1.3451939e-07
6.4981905e-08
5.6896694e-08
2.4303937e-07
3.2119396e-06
2.4024472e-07
5.4155835e-08
8.790284e-08
6.364784e-07
4.3762946e-07
4.370381e-07
2.4911047e-07
1.6569063e-07
8.2514266e-08
4.849224e-08
4.0686347e-08
3.8525882e-08
3.0707984e-10
3.0574167e-11
5.5960763e-11
4.328988e-11
6.0764312e-11
2.560894e-11
2.2779041e-08
5.6175786e-08
2.0695738e-08
3.0922617e-09
6.5210525e-10
5.4353101e-10
5.6864108e-10
6.3670675e-13
9.8539974e-11
1.4626184e-12
1.0316184e-12
5.4226901e-12
5.9794027e-10
3.7755885e-10
3.5936627e-10
1.513099e-13
1.8429569e-14
5.6347725e-10
2.9633916e-10
3.7310203e-14
3.1544663e-14
3.0065255e-10
3.2793736e-10
2.5091737e-10
4.2814695e-14
6.8005947e-14
3.7788403e-10
3.2000988e-13
4.0543699e-10
5.7430237e-10
7.6808997e-10
2.1162958e-10
2.9664082e-13
2.9836955e-12
1.6544362e-09
5.1486587e-10
5.6681985e-10
3.7278513e-10
3.1989409e-10
1.0447063e-12
8.0996369e-13
9.5961711e-13
1.4723245e-12
1.4029156e-11
5.1851881e-09
4.678517e-09
2.5293144e-12
5.2417643e-09
3.7693501e-12
5.4300835e-09
4.8025762e-12
6.2435203e-09
5.6545852e-09
4.3635457e-09
4.6458967e-12
6.2495357e-12
5.7567106e-12
2.7205712e-09
3.457641e-09
4.8163599e-09
6.4189808e-09
8.1737613e-09
1.0222671e-08
1.2198541e-08
1.4274204e-08
1.6355936e-08
1.8609869e-08
2.0822254e-08
2.3040295e-08
2.5281338e-08
2.7826205e-08
3.0764469e-08
3.4016622e-08
3.724193e-08
4.0204452e-08
4.2517591e-08
4.615761e-08
5.1368755e-08
2.966876e-08
2.3338287e-09
9.0539953e-11
9.179212e-11
9.5217973e-11
9.9940088e-11
1.0364288e-10
1.0278293e-10
8.7701182e-11
9.4437137e-11
9.9077494e-11
8.9141606e-11
1.009542e-10
1.156123e-10
2.3899302e-09
8.2842851e-08
8.39603e-08
8.4589695e-08
8.6038224e-08
1.4993557e-08
1.13488e-10
1.056202e-10
1.0271772e-10
1.1925709e-10
1.4695528e-10
1.910319e-10
2.6007494e-10
3.3823782e-10
6.1173992e-10
2.1852395e-07
3.1951731e-07
3.4986455e-08
3.4609619e-08
3.464824e-08
3.4592531e-08
3.448774e-08
3.4372407e-08
3.4245413e-08
3.4102159e-08
3.3944475e-08
3.3763163e-08
3.3566114e-08
3.3345653e-08
3.3145171e-08
3.2949026e-08
3.2794723e-08
3.2612173e-08
3.246367e-08
3.2277175e-08
3.2151976e-08
3.1999731e-08
3.1892734e-08
3.1780447e-08
3.175106e-08
3.1715584e-08
3.1696541e-08
3.1628563e-08
3.153668e-08
3.139435e-08
3.1211216e-08
3.09677e-08
3.0640816e-08
3.026131e-08
2.9880784e-08
2.9537362e-08
2.9246885e-08
2.896671e-08
2.8756204e-08
2.8619542e-08
2.8533944e-08
2.8425378e-08
2.8341955e-08
2.8263895e-08
2.8220989e-08
2.8137971e-08
2.8065112e-08
2.7905455e-08
2.7693414e-08
2.7404922e-08
2.7128621e-08
2.6928156e-08
2.6864532e-08
2.6802487e-08
2.6662048e-08
2.6306785e-08
2.6017229e-08
2.5673791e-08
2.5355803e-08
2.5052827e-08
2.4783206e-08
2.4391904e-08
2.3558543e-08
2.1078012e-08
1.2154511e-08
2.5099266e-09
1.9779002e-10
5.6740692e-08
5.5939005e-08
6.02047e-08
5.7937079e-08
1.5066799e-10
5.8109979e-10
2.2014959e-08
2.3649353e-08
2.3545646e-08
2.3297734e-08
2.2966328e-08
2.2639729e-08
2.2254457e-08
2.1885453e-08
2.1641951e-08
2.1414132e-08
2.1288656e-08
2.0863431e-08
2.0529938e-08
2.0147622e-08
2.0045442e-08
1.9678544e-08
1.9354822e-08
1.8321132e-08
1.6471278e-08
2.0034156e-08
2.766331e-08
2.1882738e-08
2.4074393e-08
2.6730884e-08
1.1931433e-08
1.1997372e-08
1.2319134e-08
1.1938793e-08
1.1139682e-08
7.5480084e-09
1.3431518e-10
3.7187159e-11
4.4540904e-08
3.9111651e-08
4.4566826e-08
4.325403e-08
4.4226567e-08
3.7597252e-08
2.5389956e-11
9.1889658e-11
2.5474077e-10
1.2123113e-09
7.9327418e-08
5.3506347e-08
4.313044e-10
8.1809386e-11
1.9149475e-11
1.058815e-11
4.8700267e-12
5.7990008e-12
6.3629548e-12
7.0923376e-11
3.9501574e-11
1.0422605e-10
2.0949278e-09
2.5640087e-08
1.3647784e-07
1.2383491e-07
2.8228201e-08
6.4335345e-08
4.5152903e-07
1.9066303e-06
9.1264535e-07
3.352128e-07
1.2340788e-07
1.5081149e-06
1.0232661e-06
4.0597991e-07
2.0060239e-07
1.7015781e-07
7.3405667e-07
9.0004229e-06
7.4516754e-07
1.5479957e-07
2.5911511e-07
2.0429055e-06
1.0734487e-06
8.4514134e-07
7.1563566e-07
5.0696491e-07
2.515687e-07
1.5027278e-07
1.2633156e-07
1.1939533e-07
8.9131823e-10
6.6765046e-11
1.1253992e-10
8.5502378e-11
1.2351451e-10
5.0661204e-11
5.4604277e-08
1.2610053e-07
4.6150955e-08
7.3522464e-09
1.6178706e-09
1.3695679e-09
1.4314436e-09
1.3469431e-12
2.5643826e-10
2.7882224e-12
2.0939945e-12
1.3107257e-11
1.6470973e-09
1.0212967e-09
9.0338311e-10
2.6658968e-13
4.2031269e-14
1.2838863e-09
6.4996902e-10
6.3892888e-14
6.5281136e-14
6.0218834e-10
6.3419956e-10
5.2713678e-10
7.3806495e-14
1.3927093e-13
7.6166395e-10
7.102168e-13
8.3366922e-10
1.1467377e-09
1.5356887e-09
4.991655e-10
5.5332932e-13
7.6245113e-12
3.5084378e-09
1.2826133e-09
1.4265566e-09
9.318998e-10
7.8370038e-10
2.0285131e-12
1.5912296e-12
1.8765883e-12
2.997013e-12
3.6661427e-11
1.0155558e-08
8.8274814e-09
5.5747482e-12
1.0041495e-08
8.5521799e-12
1.0576212e-08
1.1137407e-11
1.2469573e-08
1.1141762e-08
8.5149114e-09
1.0838661e-11
1.4934204e-11
1.3982684e-11
5.7853051e-09
6.766988e-09
9.3484618e-09
1.2343727e-08
1.5584663e-08
1.9276707e-08
2.291052e-08
2.6772703e-08
3.0604316e-08
3.4712149e-08
3.8715415e-08
4.2747966e-08
4.6812403e-08
5.1463378e-08
5.6866133e-08
6.2921368e-08
6.9034321e-08
7.4790991e-08
7.931773e-08
8.5976525e-08
9.4939835e-08
6.2572993e-08
5.4609794e-09
2.203809e-10
2.2309789e-10
2.3147788e-10
2.4280787e-10
2.5113179e-10
2.472565e-10
2.1004371e-10
2.2531596e-10
2.3424119e-10
2.0986696e-10
2.3877574e-10
2.8699251e-10
6.3550933e-09
1.5698538e-07
1.5895087e-07
1.5963364e-07
1.5958268e-07
3.2823862e-08
2.7161415e-10
2.5040425e-10
2.4328654e-10
2.8363269e-10
3.5143941e-10
4.5976895e-10
6.3053908e-10
8.3392126e-10
1.6770778e-09
4.3071471e-07
6.3147419e-07
8.6299911e-08
8.5318712e-08
8.5417911e-08
8.5286093e-08
8.503332e-08
8.4754535e-08
8.4445689e-08
8.4097705e-08
8.3713214e-08
8.3271202e-08
8.2789286e-08
8.225032e-08
8.1759734e-08
8.1280254e-08
8.0902707e-08
8.0455705e-08
8.0092064e-08
7.9634974e-08
7.932907e-08
7.8955608e-08
7.8693757e-08
7.8417912e-08
7.8347623e-08
7.8260569e-08
7.8215086e-08
7.8047229e-08
7.7822886e-08
7.7472355e-08
7.7022871e-08
7.6422704e-08
7.5618793e-08
7.4684992e-08
7.3748816e-08
7.2903634e-08
7.2187908e-08
7.149849e-08
7.098022e-08
7.0643714e-08
7.0432331e-08
7.0165019e-08
6.9959719e-08
6.9767704e-08
6.9661003e-08
6.9456094e-08
6.9276979e-08
6.8883709e-08
6.8359074e-08
6.7647882e-08
6.6969097e-08
6.6479987e-08
6.632421e-08
6.6168398e-08
6.5816002e-08
6.4936496e-08
6.4223684e-08
6.3381041e-08
6.259459e-08
6.1845737e-08
6.1176488e-08
6.0209974e-08
5.8153107e-08
5.2011335e-08
2.992774e-08
6.1702879e-09
4.9940654e-10
1.2161031e-07
1.2019402e-07
1.2884391e-07
1.2306992e-07
3.6654349e-10
1.4497922e-09
5.4300647e-08
5.8386333e-08
5.8127964e-08
5.7516913e-08
5.6697909e-08
5.5891478e-08
5.4938192e-08
5.4027613e-08
5.3427423e-08
5.2865052e-08
5.2553058e-08
5.1503758e-08
5.0680147e-08
4.973786e-08
4.9486407e-08
4.85827e-08
4.7784027e-08
4.5237593e-08
4.0717058e-08
4.9790907e-08
6.7746675e-08
5.4007945e-08
5.8987872e-08
6.5357893e-08
2.9453078e-08
2.9627956e-08