/*--------------------------------*- C++ -*----------------------------------*\
| =========                 |                                                 |
| \\      /  F ield         | OpenFOAM: The Open Source CFD Toolbox           |
|  \\    /   O peration     | Version:  2.4.0                                 |
|   \\  /    A nd           | Web:      www.OpenFOAM.org                      |
|    \\/     M anipulation  |                                                 |
\*---------------------------------------------------------------------------*/
FoamFile
{
    version     2.0;
    format      ascii;
    class       volSymmTensorField;
    location    "25000";
    object      Rall;
}
// * * * * * * * * * * * * * * * * * * * * * * * * * * * * * * * * * * * * * //

dimensions      [0 2 -2 0 0 0 0];

internalField   nonuniform List<symmTensor> 
15600
(
(4.2366279e-07 -1.0592856e-09 -2.8205878e-29 4.236722e-07 3.0191271e-30 4.2366096e-07)
(3.4491231e-07 -9.4458464e-10 2.0679481e-33 3.4491317e-07 -6.2695326e-32 3.449098e-07)
(1.3781923e-05 -2.2054157e-07 9.3670074e-27 1.3780961e-05 -1.1567872e-27 1.3776631e-05)
(1.1231676e-05 -1.8930668e-07 -1.8601124e-29 1.1229534e-05 -3.2882625e-31 1.1226571e-05)
(0.00010281682 -5.3437703e-06 -1.7914074e-25 0.00010255432 4.6375943e-26 0.00010232266)
(8.3959404e-05 -4.4657176e-06 1.2670411e-28 8.3696551e-05 -1.0877117e-27 8.352502e-05)
(0.00039738998 -4.6217046e-05 -2.4371719e-25 0.00039098807 1.438236e-26 0.00038723485)
(0.00032582357 -3.8159169e-05 -2.853843e-26 0.00032010525 7.8863706e-27 0.00031721256)
(0.0010898052 -0.00021646817 4.1838566e-24 0.0010329724 -5.1975074e-25 0.0010054807)
(0.00090110499 -0.00017934599 1.9502069e-26 0.00085146488 4.4575355e-26 0.00082969031)
(0.0023655959 -0.00064362781 -2.7182417e-23 0.002117176 4.278889e-24 0.0020128063)
(0.0019872772 -0.00054194633 4.6094512e-26 0.0017673014 -8.4866233e-26 0.0016820086)
(0.0041872247 -0.0013383057 1.1056561e-22 0.0035529358 -1.8742308e-23 0.003320491)
(0.0035976686 -0.001152518 6.5950688e-26 0.0030200271 -9.8108192e-26 0.0028244861)
(0.0062412842 -0.0021502079 -2.1039159e-22 0.0051161069 1.3374716e-22 0.004757484)
(0.005494354 -0.0018930452 -1.1290141e-24 0.0044394882 -8.3518706e-25 0.0041306721)
(0.008224808 -0.0029218703 2.7286867e-22 0.0066176551 -4.5821258e-23 0.006171304)
(0.0074024545 -0.002618103 -1.6065598e-23 0.0058584059 4.205352e-24 0.005464837)
(0.010007267 -0.0035756531 -3.9263879e-22 0.0079799576 5.877047e-23 0.0074863667)
(0.0091757306 -0.0032444329 2.2925481e-23 0.0071896198 8.0981253e-25 0.0067415823)
(0.011578981 -0.0040916116 1.3820615e-21 0.0092079965 -4.2362358e-22 0.0087004016)
(0.010775071 -0.0037417937 3.8253897e-23 0.0084180029 -1.1259992e-23 0.007943355)
(0.012967569 -0.0044711188 -1.5746237e-21 0.010334226 2.2562174e-22 0.0098440804)
(0.012216008 -0.0041086049 -4.0550676e-23 0.0095668443 9.5384574e-25 0.0090980952)
(0.014213516 -0.0047272154 -2.2484036e-22 0.011395956 2.8640899e-22 0.010957577)
(0.013535294 -0.0043586078 -6.8978115e-23 0.010667121 1.6264615e-23 0.010243587)
(0.01535751 -0.0048787731 5.0416167e-22 0.012421281 -5.9869196e-22 0.012071119)
(0.01476965 -0.0045081939 7.8324592e-23 0.011742129 -7.064605e-24 0.011405937)
(0.016434868 -0.0049456519 -5.6919208e-23 0.013426517 7.734714e-24 0.013199147)
(0.015952895 -0.0045776814 5.4706448e-23 0.012803587 -1.1066016e-23 0.012593488)
(0.017473692 -0.0049469865 -5.7903207e-22 0.014418341 3.4594369e-22 0.01434303)
(0.017111377 -0.0045872251 6.0268035e-25 0.013854642 -6.7134201e-25 0.013801888)
(0.018493983 -0.0048996486 5.7116889e-21 0.015397515 -8.2935841e-22 0.015496746)
(0.018262331 -0.0045538289 7.9709361e-23 0.014893791 -8.9101863e-24 0.015021417)
(0.019507794 -0.004816396 -6.6751221e-21 0.016361267 1.1047814e-21 0.016651921)
(0.019415204 -0.0044906698 1.1087367e-24 0.015918081 -1.46144e-24 0.016241931)
(0.020521748 -0.004709731 3.7896023e-22 0.017312753 -3.0027614e-22 0.017800114)
(0.020574133 -0.0044053146 0 0.01691865 0 0.017454827)
(0.021540129 -0.0045781966 1.0257314e-21 0.018211328 -7.8340991e-23 0.018933325)
(0.021739028 -0.0043045286 -4.7463109e-25 0.017898617 2.8863807e-25 0.018655046)
(7.9229671e-09 4.1141147e-12 -4.3941917e-31 7.9220137e-09 3.7630155e-32 7.9224878e-09)
(6.7406511e-09 3.1778501e-12 3.5438376e-30 6.7393108e-09 -1.5196912e-29 6.7399791e-09)
(6.1873557e-09 2.1037988e-12 3.735017e-30 6.1856771e-09 -2.5607606e-29 6.1865167e-09)
(6.0867073e-09 2.1184497e-12 1.7746259e-30 6.0840546e-09 -4.2792151e-31 6.0853808e-09)
(5.9311986e-09 1.9450752e-12 1.6504524e-29 5.9277548e-09 4.3471682e-29 5.9294767e-09)
(5.7088971e-09 1.7802907e-12 -4.2461754e-32 5.7047164e-09 -3.31625e-32 5.7068066e-09)
(5.3501845e-09 1.4988914e-12 -9.6785442e-29 5.3457346e-09 -1.8395486e-28 5.3479594e-09)
(4.9443776e-09 1.2154325e-12 2.2352712e-30 4.9399302e-09 4.1577782e-29 4.9421538e-09)
(4.5412886e-09 9.5077582e-13 -7.5639539e-31 4.5370562e-09 4.157467e-31 4.5391723e-09)
(4.1757548e-09 7.4500931e-13 6.1276733e-31 4.1717837e-09 -4.3232724e-31 4.1737692e-09)
(3.8605002e-09 5.8782409e-13 -4.48831e-29 3.8568325e-09 -3.6729324e-29 3.8586663e-09)
(3.603412e-09 4.8449815e-13 4.1364454e-29 3.599987e-09 3.3388014e-29 3.6016995e-09)
(3.441865e-09 4.2114095e-13 -2.9038496e-29 3.4386394e-09 -3.8592944e-29 3.4402522e-09)
(3.3714651e-09 4.042832e-13 -3.4113314e-29 3.3682851e-09 -6.134431e-29 3.369875e-09)
(3.4048363e-09 4.0250354e-13 6.961339e-29 3.4016896e-09 9.0560678e-29 3.4032629e-09)
(3.6430062e-09 4.4980491e-13 -1.4050138e-29 3.6394641e-09 -1.9043216e-29 3.641235e-09)
(4.6150086e-09 5.7494077e-13 1.1944053e-30 4.6103671e-09 -8.844212e-31 4.6126878e-09)
(6.1006831e-09 8.4105253e-13 -1.1852635e-28 6.0935687e-09 -1.509962e-28 6.0971254e-09)
(8.7827212e-09 1.3871373e-12 1.0615483e-28 8.7701413e-09 2.0818785e-28 8.776425e-09)
(1.1900738e-08 2.1391598e-12 -4.1470884e-30 1.1879394e-08 2.8484001e-30 1.1890049e-08)
(1.7415995e-08 3.2626016e-12 1.6058578e-28 1.7381126e-08 -1.1183358e-29 1.7398536e-08)
(1.9741932e-08 5.6932509e-12 -1.1583415e-28 1.9692414e-08 -1.5271861e-28 1.9717113e-08)
(1.9397158e-08 7.5563368e-12 -8.5128258e-29 1.9354121e-08 -1.1786195e-28 1.9375613e-08)
(5.4189487e-09 3.5282206e-12 -3.4200979e-29 5.406635e-09 -5.9645601e-29 5.4127819e-09)
(2.2091616e-08 6.6316051e-12 8.1603214e-29 2.2076869e-08 1.7041858e-29 2.2084255e-08)
(1.1884402e-07 -1.5954131e-10 5.5908461e-28 1.1899815e-07 -4.258293e-28 1.1892073e-07)
(3.0756942e-07 -1.1385141e-09 6.6406329e-29 3.0792455e-07 6.7732931e-28 3.0774295e-07)
(2.5812255e-07 8.0839279e-10 -1.9625001e-28 2.5792708e-07 -5.2476097e-27 2.5802137e-07)
(2.1963923e-07 6.2196016e-10 -5.5278177e-28 2.1937108e-07 2.7953333e-27 2.1950283e-07)
(2.0172173e-07 4.7533454e-10 -4.0056983e-27 2.0134021e-07 -1.0819372e-26 2.0152924e-07)
(1.9852034e-07 4.6908593e-10 -6.1498595e-28 1.9793294e-07 1.4724975e-28 1.982247e-07)
(1.9350531e-07 4.2811829e-10 4.0490327e-27 1.9274704e-07 -1.2017901e-26 1.9312402e-07)
(1.862989e-07 3.8807968e-10 7.2582387e-28 1.853861e-07 -2.7650155e-28 1.8584007e-07)
(1.7461788e-07 3.2554234e-10 1.3192405e-26 1.7364783e-07 4.2627309e-26 1.7413037e-07)
(1.613847e-07 2.6323198e-10 1.1907974e-26 1.6041623e-07 1.290193e-26 1.6089806e-07)
(1.4821004e-07 2.057079e-10 2.6065473e-28 1.4728797e-07 -1.4506317e-28 1.4774681e-07)
(1.3626933e-07 1.6089331e-10 1.1697057e-26 1.3540451e-07 1.6645828e-26 1.3583493e-07)
(1.2596245e-07 1.2686791e-10 1.5557452e-26 1.2516326e-07 2.6134387e-26 1.2556107e-07)
(1.1755996e-07 1.0436846e-10 -1.4698587e-26 1.1681434e-07 -2.3781132e-26 1.1718551e-07)
(1.1226892e-07 9.0765386e-11 -3.3425218e-27 1.1156648e-07 -4.599447e-27 1.1191621e-07)
(1.0996964e-07 8.6896829e-11 -2.5888938e-27 1.0927887e-07 1.0688978e-27 1.0962278e-07)
(1.1105489e-07 8.6870107e-11 -2.0253774e-26 1.1037029e-07 -3.3870901e-26 1.1071117e-07)
(1.1885273e-07 9.673931e-11 -1.1124476e-26 1.1808662e-07 -5.3243135e-27 1.1846799e-07)
(1.5062091e-07 1.2425094e-10 -1.228119e-29 1.4961724e-07 6.9168239e-30 1.5011686e-07)
(1.9923974e-07 1.7968008e-10 1.6060527e-26 1.977191e-07 3.8822327e-26 1.9847547e-07)
(2.8693631e-07 2.6196081e-10 -6.8188329e-27 2.8457696e-07 -4.8612137e-26 2.8575037e-07)
(3.8915316e-07 3.9643279e-10 2.9753464e-26 3.8521563e-07 3.2957004e-26 3.8717117e-07)
(5.6975884e-07 6.0477877e-10 -6.3462973e-26 5.6333562e-07 -3.7944553e-26 5.6652468e-07)
(6.462882e-07 1.0134889e-09 2.2203452e-26 6.373449e-07 2.772141e-26 6.4177557e-07)
(6.3405111e-07 1.3694643e-09 -5.0018279e-26 6.2619882e-07 3.3555496e-26 6.3009314e-07)
(1.7719591e-07 6.7507274e-10 -1.0846278e-26 1.7475562e-07 2.2896659e-26 1.7596161e-07)
(7.1993912e-07 3.319581e-10 -4.2719172e-27 7.1855546e-07 2.4098458e-26 7.1924815e-07)
(3.8509434e-06 -3.6079306e-08 -1.7738466e-25 3.8829697e-06 -2.5805968e-25 3.8664022e-06)
(9.9798299e-06 -2.0873293e-07 7.5225277e-25 1.0038737e-05 -1.895162e-25 1.0003759e-05)
(1.9310233e-06 1.8746454e-08 -4.2851137e-26 1.926185e-06 1.1694886e-25 1.9283629e-06)
(1.6440316e-06 1.4371733e-08 7.3847037e-26 1.6376214e-06 -7.0565096e-27 1.6406582e-06)
(1.5113162e-06 1.1116294e-08 7.6400003e-26 1.5022793e-06 3.5420072e-25 1.5066734e-06)
(1.4886962e-06 1.0748228e-08 -9.8855669e-26 1.4751728e-06 -3.5723808e-25 1.4817947e-06)
(1.4522964e-06 9.7408443e-09 -4.3518072e-25 1.4349636e-06 -6.093782e-25 1.4434778e-06)
(1.3993109e-06 8.7359766e-09 -1.7722608e-26 1.3786433e-06 6.1828367e-27 1.3888072e-06)
(1.3123007e-06 7.2939288e-09 4.6990045e-25 1.2903834e-06 4.6786602e-25 1.3011704e-06)
(1.2133179e-06 5.8753668e-09 2.1275323e-26 1.1914656e-06 1.9134602e-26 1.202227e-06)
(1.1144173e-06 4.5827399e-09 -6.1502342e-27 1.0936033e-06 3.2827489e-27 1.1038597e-06)
(1.0246904e-06 3.5742002e-09 -8.4954136e-26 1.0051775e-06 -4.803535e-25 1.0147972e-06)
(9.4712378e-07 2.8139542e-09 1.2800389e-25 9.2908192e-07 -6.6481252e-26 9.3798059e-07)
(8.8388648e-07 2.3084022e-09 -9.9182456e-26 8.6706973e-07 5.1880296e-26 8.7536648e-07)
(8.4397205e-07 2.0076711e-09 7.6099961e-26 8.2812335e-07 3.7739486e-25 8.3594524e-07)
(8.2666689e-07 1.9164713e-09 4.3604942e-25 8.1112151e-07 5.3185203e-25 8.1879358e-07)
(8.3474264e-07 1.9242942e-09 -4.487067e-25 8.1931295e-07 -1.1396379e-25 8.2693007e-07)
(8.9360258e-07 2.1345993e-09 1.6153883e-25 8.7644404e-07 3.1693539e-25 8.8490948e-07)
(1.1327171e-06 2.75331e-09 -4.9993889e-27 1.1102543e-06 3.3740704e-27 1.1213336e-06)
(1.4996115e-06 3.928178e-09 5.7868195e-25 1.4660116e-06 2.8996316e-25 1.482552e-06)
(2.1608022e-06 5.7477814e-09 -1.2461333e-24 2.1086873e-06 -1.1856219e-27 2.1343204e-06)
(2.9352647e-06 8.5070021e-09 8.4681527e-26 2.8498762e-06 -1.3043949e-24 2.8917206e-06)
(4.3007096e-06 1.2929171e-08 7.7735242e-25 4.1617796e-06 8.4419957e-25 4.2297458e-06)
(4.8865779e-06 2.0794695e-08 -6.3789644e-29 4.6973693e-06 -6.9218276e-29 4.7894344e-06)
(4.7827221e-06 2.8642839e-08 2.2661031e-25 4.6148363e-06 1.3677524e-24 4.6966927e-06)
(1.3369116e-06 1.2931093e-08 5.0747786e-25 1.2876427e-06 -4.8727741e-26 1.3115025e-06)
(5.3800611e-06 -1.507898e-08 -2.2336452e-25 5.3830376e-06 -5.9580552e-25 5.3815266e-06)
(2.851155e-05 -9.3465742e-07 -7.7984723e-24 2.9259311e-05 9.4363899e-24 2.8840377e-05)
(7.4173543e-05 -4.5005927e-06 -1.6232705e-23 7.5157519e-05 -7.4389955e-24 7.4319388e-05)
(7.4831018e-06 1.6127754e-07 5.2408126e-25 7.4376253e-06 1.0041712e-24 7.4557519e-06)
(6.3763237e-06 1.2327894e-07 -8.4299682e-25 6.3186257e-06 -1.641923e-24 6.3442325e-06)
(5.869438e-06 9.6436361e-08 2.2892052e-26 5.7893171e-06 -5.4668357e-27 5.8269439e-06)
(5.7899952e-06 9.1325776e-08 5.2193274e-25 5.6736629e-06 6.2605132e-24 5.7291871e-06)
(5.6567319e-06 8.2066017e-08 2.258725e-24 5.5090212e-06 5.4232534e-24 5.5800499e-06)
(5.4578208e-06 7.2698832e-08 -6.4142394e-28 5.2836001e-06 2.7899158e-28 5.3676166e-06)
(5.1236523e-06 6.0316769e-08 -2.6813591e-24 4.9394733e-06 -4.4012548e-24 5.028456e-06)
(4.7405268e-06 4.83253e-08 -2.7314663e-24 4.5572505e-06 -9.4220145e-24 4.6459143e-06)
(4.3555966e-06 3.756221e-08 1.1262345e-25 4.1810208e-06 -5.7116566e-26 4.2655852e-06)
(4.0054886e-06 2.9161856e-08 -3.8864419e-24 3.8419432e-06 -2.1794942e-24 3.9212447e-06)
(3.7021158e-06 2.2884395e-08 -2.1950135e-24 3.5508441e-06 -2.6675218e-24 3.6242674e-06)
(3.454641e-06 1.8691822e-08 1.9759279e-24 3.3137907e-06 2.4660288e-24 3.3822004e-06)
(3.2979947e-06 1.6242673e-08 3.0812018e-24 3.1652089e-06 1.563022e-24 3.229748e-06)
(3.2301925e-06 1.5454815e-08 1.6090978e-24 3.1002936e-06 -1.0350997e-24 3.1634353e-06)
(3.2612825e-06 1.5591532e-08 7.1003632e-24 3.1321627e-06 9.0841854e-24 3.1949566e-06)
(3.4925254e-06 1.7223376e-08 3.6237561e-24 3.3498646e-06 5.0884279e-24 3.4191718e-06)
(4.4285706e-06 2.2289718e-08 -5.1365201e-28 4.2420109e-06 3.3731229e-28 4.332578e-06)
(5.8698619e-06 3.1303039e-08 -3.176658e-24 5.5946029e-06 -3.5343823e-24 5.7277564e-06)
(8.4642041e-06 4.5822446e-08 7.9484585e-24 8.0378285e-06 1.7903254e-24 8.2436562e-06)
(1.1522344e-05 6.5935718e-08 -1.1866453e-23 1.0837773e-05 -1.6648637e-24 1.1166041e-05)
(1.6896586e-05 9.9146283e-08 6.8316443e-24 1.5787964e-05 7.4166628e-24 1.6317573e-05)
(1.9242627e-05 1.52582e-07 -7.9915847e-26 1.7769376e-05 3.4555841e-26 1.8466729e-05)
(1.8769082e-05 2.1543239e-07 1.3329863e-23 1.7450384e-05 -8.6727268e-24 1.8076468e-05)
(5.2390311e-06 8.7094248e-08 -9.2461797e-25 4.8771586e-06 -1.381283e-24 5.0477524e-06)
(2.0778371e-05 -3.2593214e-07 -8.2875995e-26 2.1092183e-05 2.8954744e-26 2.0927323e-05)
(0.00010914912 -8.6618818e-06 7.4468416e-23 0.00011513621 1.3443553e-23 0.00011119124)
(0.00028527636 -3.5326812e-05 -1.0664836e-23 0.00028957494 7.2702497e-23 0.00028195865)
(2.0698044e-05 8.1817967e-07 2.9070866e-26 2.0440325e-05 2.1133184e-25 2.0525973e-05)
(1.7656155e-05 6.2427669e-07 1.4424748e-24 1.7344844e-05 8.1217983e-24 1.7470008e-05)
(1.6281498e-05 4.9348147e-07 3.6513228e-24 1.5858021e-05 1.5879673e-23 1.6046394e-05)
(1.6091405e-05 4.5777557e-07 1.0353117e-23 1.5495939e-05 -1.8336993e-23 1.5769199e-05)
(1.5754004e-05 4.0721972e-07 1.3549015e-23 1.5006894e-05 2.8134409e-23 1.5354691e-05)
(1.5228713e-05 3.5573066e-07 -1.8183585e-27 1.4358415e-05 -7.1562157e-27 1.4765943e-05)
(1.4317394e-05 2.9272781e-07 -1.3822305e-23 1.3401324e-05 -2.319408e-23 1.3831818e-05)
(1.3260353e-05 2.3283472e-07 -2.8104101e-23 1.2351168e-05 1.4315465e-23 1.2779485e-05)
(1.2190414e-05 1.7998504e-07 1.28586e-23 1.1324726e-05 1.7915025e-23 1.1733489e-05)
(1.1213282e-05 1.387998e-07 -5.4988259e-25 1.0403075e-05 -6.787393e-25 1.0786341e-05)
(1.0363926e-05 1.0832979e-07 3.9519716e-28 9.6143753e-06 4.8630182e-27 9.9695664e-06)
(9.6701115e-06 8.7933702e-08 -2.6144139e-27 8.9729862e-06 -2.8651304e-27 9.303741e-06)
(9.2295332e-06 7.6251425e-08 -9.9926603e-24 8.5721384e-06 -1.1110137e-23 8.8844334e-06)
(9.0388324e-06 7.2307399e-08 -1.8309408e-23 8.3974272e-06 -2.3122314e-23 8.7022298e-06)
(9.1243456e-06 7.3324251e-08 6.7268084e-24 8.485913e-06 -2.1728136e-23 8.7895347e-06)
(9.7751783e-06 8.0685266e-08 8.7915536e-24 9.074392e-06 -2.4116381e-23 9.4071767e-06)
(1.2399991e-05 1.0467539e-07 5.3240105e-25 1.1485048e-05 -2.9767639e-25 1.1918923e-05)
(1.645586e-05 1.4446571e-07 2.9217395e-25 1.5125549e-05 -1.8302683e-25 1.5752984e-05)
(2.3746361e-05 2.1078121e-07 -3.0171987e-23 2.1691873e-05 2.2328437e-23 2.2657218e-05)
(3.2390697e-05 2.9365005e-07 -2.1490867e-24 2.9165781e-05 -5.1176286e-25 3.0665923e-05)
(4.7510231e-05 4.3366547e-07 4.3234902e-23 4.2330169e-05 -9.3221472e-23 4.4724705e-05)
(5.421942e-05 6.3771357e-07 -3.7631513e-23 4.7522809e-05 -3.7386852e-23 5.0579314e-05)
(5.2636381e-05 9.232234e-07 -3.5935088e-23 4.6614404e-05 -3.9352448e-23 4.9375499e-05)
(1.4638419e-05 3.2152346e-07 -5.0879633e-24 1.3113422e-05 -6.7934885e-24 1.3811874e-05)
(5.7074253e-05 -2.6393746e-06 7.5959088e-24 5.99278e-05 2.478382e-23 5.8301839e-05)
(0.0002990164 -4.495049e-05 8.8258074e-24 0.0003240977 -1.4886961e-22 0.0003028074)
(0.00077827549 -0.0001555643 -3.8937416e-26 0.00077881319 1.275583e-25 0.00074031072)
(4.6949343e-05 3.0038727e-06 1.4632223e-23 4.5873505e-05 5.630247e-25 4.615159e-05)
(4.0103235e-05 2.2920148e-06 -7.9518043e-25 3.886751e-05 -3.3871599e-26 3.9300964e-05)
(3.7065526e-05 1.8295214e-06 2.1813467e-23 3.5425365e-05 -6.049704e-23 3.6100832e-05)
(3.6710601e-05 1.6634751e-06 -6.9707368e-23 3.4480281e-05 1.618909e-23 3.5449e-05)
(3.6034278e-05 1.4624178e-06 -2.9037196e-23 3.3276562e-05 -2.2295714e-22 3.4503894e-05)
(3.4910489e-05 1.2577032e-06 -5.3282652e-23 3.1742903e-05 -9.2586025e-23 3.3167682e-05)
(3.2882226e-05 1.0243124e-06 -1.8345202e-23 2.9566884e-05 1.125927e-22 3.1067302e-05)
(3.0494141e-05 8.0711413e-07 1.0484593e-22 2.7214777e-05 4.081257e-23 2.8705057e-05)
(2.8055334e-05 6.1898801e-07 6.3662524e-23 2.4935483e-05 -3.2897289e-23 2.6358397e-05)
(2.581554e-05 4.7293013e-07 -4.7927051e-24 2.2899002e-05 8.5335909e-23 2.4233082e-05)
(2.3861454e-05 3.660743e-07 -9.9539575e-25 2.1163067e-05 4.4084129e-25 2.24007e-05)
(2.2261468e-05 2.9458761e-07 1.4653028e-29 1.9754576e-05 -2.0184365e-30 2.0906719e-05)
(2.1242274e-05 2.544948e-07 4.0992591e-23 1.887759e-05 4.0490122e-23 1.9966504e-05)
(2.0799866e-05 2.4050296e-07 -7.204749e-23 1.8498485e-05 -1.8556461e-23 1.9559092e-05)
(2.0993551e-05 2.4530422e-07 -1.0718573e-22 1.8699948e-05 -5.364108e-23 1.9758125e-05)
(2.2498793e-05 2.6913749e-07 -1.1645727e-22 1.9997463e-05 -5.5135863e-23 2.1149416e-05)
(2.8549671e-05 3.4974096e-07 -1.032262e-24 2.5291868e-05 5.3079556e-25 2.678891e-05)
(3.7921942e-05 4.7387039e-07 6.4595019e-23 3.325931e-05 6.4397549e-23 3.5386552e-05)
(5.4736824e-05 6.8631358e-07 2.8429871e-22 4.7576562e-05 8.7815095e-23 5.0824618e-05)
(7.473462e-05 9.2308818e-07 -2.0486313e-22 6.3778276e-05 1.4243799e-22 6.86843e-05)
(0.00010945605 1.3289101e-06 -4.197444e-22 9.2095256e-05 8.0926038e-23 9.9802974e-05)
(0.00012501428 1.8659643e-06 -3.0933113e-22 0.00010326183 4.3483877e-22 0.00011278276)
(0.00012058622 2.7574032e-06 -2.8591351e-22 0.00010106975 3.9867917e-22 0.00010967369)
(3.3342065e-05 7.583632e-07 -1.136633e-22 2.8867839e-05 9.3927419e-23 3.0869625e-05)
(0.00012820652 -1.3089439e-05 1.526305e-22 0.00014183038 -1.245662e-22 0.00013294354)
(0.00067142854 -0.00015634196 6.2974053e-24 0.00073653946 -6.829599e-24 0.00065982317)
(0.0016933193 -0.00045551013 1.6170886e-28 0.0016423746 -1.5670855e-28 0.0015198042)
(9.3588126e-05 8.8281695e-06 -5.1381616e-24 8.9954503e-05 -5.2216811e-23 9.0626406e-05)
(8.0074128e-05 6.754495e-06 3.2777599e-24 7.6089012e-05 4.4159212e-25 7.72601e-05)
(7.422344e-05 5.4418097e-06 -1.732322e-22 6.9069999e-05 -1.5477754e-22 7.098628e-05)
(7.3666481e-05 4.8555289e-06 3.9672415e-22 6.6893276e-05 2.6404482e-22 6.9630595e-05)
(7.2515583e-05 4.2122361e-06 -4.6862131e-22 6.4282503e-05 1.2887644e-22 6.773896e-05)
(7.0416097e-05 3.5613666e-06 -9.7342133e-23 6.1104884e-05 3.5255548e-22 6.5082941e-05)
(6.6463052e-05 2.8645827e-06 5.7125704e-22 5.6784935e-05 3.7217788e-22 6.096026e-05)
(6.1728918e-05 2.2310057e-06 -3.9465142e-22 5.2194106e-05 -9.088632e-23 5.633387e-05)
(5.6847863e-05 1.6927679e-06 -3.0265299e-22 4.7787705e-05 -3.6014376e-22 5.1741987e-05)
(5.2334093e-05 1.2773732e-06 3.0649547e-22 4.3874478e-05 6.3559495e-23 4.7582452e-05)
(4.8380752e-05 9.7709143e-07 1.4603148e-22 4.0553311e-05 1.3529417e-22 4.3997385e-05)
(4.5132912e-05 7.7698502e-07 -2.8618243e-24 3.7867598e-05 1.110571e-24 4.1074125e-05)
(4.3058792e-05 6.672181e-07 1.8073443e-23 3.6203008e-05 -2.0387455e-22 3.9237337e-05)
(4.2152904e-05 6.2839566e-07 2.2565063e-22 3.5495495e-05 4.1402611e-22 3.8446485e-05)
(4.2541616e-05 6.4533151e-07 1.1284692e-22 3.5899268e-05 1.0687073e-22 3.8847962e-05)
(4.5601768e-05 7.0720929e-07 -4.2751226e-24 3.8403546e-05 -3.788833e-24 4.1593165e-05)
(5.7867827e-05 9.2005816e-07 -3.2809271e-24 4.8527126e-05 1.253863e-24 5.2653754e-05)
(7.6866137e-05 1.223718e-06 7.8465494e-23 6.3726503e-05 -3.6112851e-22 6.948312e-05)
(0.00011083511 1.7523336e-06 -3.6488349e-22 9.0852554e-05 -9.674006e-22 9.9541836e-05)
(0.0001511407 2.275489e-06 6.3919341e-22 0.00012145124 6.3089017e-22 0.00013417779)
(0.00022026714 3.1770222e-06 4.1632523e-22 0.00017423468 3.264686e-22 0.0001937844)
(0.00025121215 4.2591432e-06 1.7171594e-21 0.00019556691 -5.0065804e-22 0.00021891616)
(0.0002401811 6.3310797e-06 2.5462075e-21 0.00019088272 -1.5244213e-21 0.00021182171)
(6.6005961e-05 1.0449429e-06 4.2840278e-22 5.6122486e-05 -1.3494399e-22 6.0494716e-05)
(0.00025313617 -4.6322456e-05 -4.362814e-22 0.00029604085 -1.3114991e-22 0.00026256135)
(0.0013008326 -0.00039652919 -1.5816417e-23 0.0014158449 2.1568537e-23 0.0012199965)
(0.003057976 -0.00096909452 9.3054779e-22 0.0028614767 -1.7617991e-21 0.0025980027)
(0.00017021653 2.1888941e-05 -6.5938862e-23 0.00015984537 -2.5850813e-22 0.00016107574)
(0.00014596709 1.6854453e-05 -5.1596704e-26 0.0001350036 -1.9104556e-27 0.00013759544)
(0.00013578703 1.3704016e-05 1.8053968e-22 0.00012195263 4.0183033e-22 0.00012648317)
(0.00013500176 1.2021945e-05 -3.8529833e-22 0.00011741073 -7.6614583e-22 0.00012391523)
(0.00013325694 1.0280852e-05 1.0960123e-21 0.00011227317 5.3856653e-22 0.00012047652)
(0.00012966433 8.5378663e-06 6.4076678e-22 0.00010631968 -2.0864352e-22 0.0001156937)
(0.00012264447 6.7702514e-06 -2.6695431e-22 9.8570337e-05 -1.3705412e-21 0.00010837896)
(0.00011409579 5.2006754e-06 4.0826783e-22 9.0480813e-05 5.0944238e-22 0.00010019135)
(0.00010520157 3.8924099e-06 -5.0654907e-22 8.2791211e-05 2.44785e-22 9.2071967e-05)
(9.6913136e-05 2.8904436e-06 -8.3779311e-22 7.6008168e-05 -7.1490166e-22 8.4715822e-05)
(8.9625965e-05 2.1748657e-06 8.7455775e-23 7.0277245e-05 -5.8828354e-22 7.8377615e-05)
(8.3613589e-05 1.7014628e-06 1.6495881e-23 6.5663125e-05 -4.7101028e-24 7.3210094e-05)
(7.976823e-05 1.4476639e-06 -6.9045448e-22 6.2818928e-05 -5.1795012e-23 6.997216e-05)
(7.8074173e-05 1.3588557e-06 3.8790642e-22 6.1644238e-05 -7.0975573e-22 6.8595726e-05)
(7.8794838e-05 1.4074074e-06 2.2084273e-23 6.2386461e-05 -7.1254782e-24 6.934253e-05)
(8.4464735e-05 1.5451653e-06 -8.699037e-23 6.6791291e-05 5.3703226e-22 7.4272901e-05)
(0.00010711231 2.0129811e-06 -8.8989579e-25 8.4306049e-05 1.5427203e-25 9.3927022e-05)
(0.00014205494 2.6323072e-06 -1.2244632e-21 0.00011059072 1.4717696e-23 0.00012375469)
(0.00020410358 3.7183951e-06 -3.0423735e-21 0.00015700271 9.2514163e-22 0.00017654944)
(0.00027698733 4.6883189e-06 7.1237277e-22 0.00020940863 -1.7283497e-21 0.00023709677)
(0.00039942077 6.3634576e-06 1.0870212e-21 0.00029807558 7.1582297e-22 0.00033932073)
(0.00045350654 8.1249342e-06 -5.1283771e-23 0.00033607375 -4.9424588e-23 0.0003836532)
(0.000428429 1.1705794e-05 -4.3047382e-21 0.00032724049 1.0300261e-21 0.00036910259)
(0.00011755071 -3.5734305e-07 -1.2350814e-22 0.00010120737 -1.5164587e-22 0.00010842923)
(0.00045712709 -0.00012458449 -7.4141618e-23 0.00055550878 5.500932e-22 0.0004625932)
(0.002214441 -0.00078191192 1.8340204e-23 0.0023634902 -3.4611766e-23 0.0019886858)
(0.0047113664 -0.0016169224 -2.7896458e-20 0.004281587 6.2157458e-21 0.0038642725)
(0.00028816228 4.7054208e-05 -5.3325167e-22 0.00026271106 2.1892989e-22 0.00026435674)
(0.00024796465 3.6622293e-05 -9.8427962e-24 0.00022168169 -3.3941099e-24 0.00022651046)
(0.00023167946 3.0060178e-05 -4.6479904e-22 0.00019917113 -8.6050546e-22 0.00020835857)
(0.00023059421 2.5995212e-05 -3.7287793e-22 0.00019048619 -8.2129274e-22 0.00020387115)
(0.0002281229 2.1911905e-05 -1.833141e-21 0.00018119378 3.8989306e-22 0.00019810489)
(0.00022230845 1.7875446e-05 -3.0497978e-21 0.00017094933 -7.8535607e-22 0.00019018085)
(0.00021069627 1.3960522e-05 -2.7595901e-21 0.00015815899 -6.07369e-22 0.00017823958)
(0.00019636008 1.0561107e-05 9.0799956e-22 0.00014503499 1.0790205e-21 0.00016490077)
(0.00018133154 7.7757458e-06 1.0760482e-21 0.00013266917 8.5568745e-22 0.0001516763)
(0.00016721531 5.6598206e-06 -2.944101e-22 0.00012183481 1.4054343e-21 0.00013969094)
(0.00015475884 4.1655241e-06 -1.9472857e-21 0.00011271959 -1.0085056e-22 0.00012936484)
(0.00014443022 3.1866478e-06 -8.5839992e-22 0.00010541914 -5.9449522e-22 0.0001209503)
(0.00013782312 2.6737282e-06 3.318304e-23 0.0001009485 -1.1173885e-23 0.00011570035)
(0.0001348868 2.5008322e-06 -3.3375763e-21 9.91816e-05 -9.0135179e-26 0.00011351953)
(0.00013615171 2.6196069e-06 6.9833478e-22 0.00010046713 5.4908909e-22 0.00011483407)
(0.00014591695 2.8948211e-06 9.3774911e-22 0.00010770667 -5.5364377e-22 0.00012308343)
(0.00018467705 3.7840379e-06 -9.4164579e-22 0.00013578094 -6.8480319e-22 0.00015539572)
(0.00024394112 4.8875307e-06 1.2769145e-21 0.0001779955 8.7837136e-22 0.00020428785)
(0.00034779024 6.8281987e-06 3.0972214e-21 0.00025144209 2.4167504e-21 0.00028961437)
(0.0004673633 8.4877671e-06 -4.7174386e-21 0.00033490511 2.718401e-21 0.00038701778)
(0.00066168246 1.1376244e-05 2.330006e-21 0.00047250772 -7.2209293e-21 0.000547014)
(0.00074543026 1.365614e-05 6.7982302e-21 0.00053749071 -7.1584883e-21 0.00062017163)
(0.00069330956 1.7430558e-05 1.1976955e-21 0.00052327217 9.1414391e-22 0.00059328266)
(0.00019224445 -8.0027086e-06 4.8350901e-26 0.00017567603 7.592265e-26 0.00018242502)
(0.00076409979 -0.0002647371 -3.76776e-27 0.00094037178 6.9971314e-27 0.00074346031)
(0.0033663121 -0.0012748388 8.620948e-24 0.0035110318 -1.1269526e-24 0.0029349891)
(0.0064233467 -0.0022742094 -7.3353346e-21 0.0057169633 6.3889871e-21 0.0051836023)
(0.00045805983 8.8961476e-05 1.2139097e-21 0.0004040911 1.1542366e-21 0.00040545785)
(0.00039628338 7.0299398e-05 5.2611674e-23 0.00034102028 2.3575674e-23 0.00034876453)
(0.00037217841 5.8291504e-05 -9.9367405e-22 0.00030473727 1.6864571e-21 0.00032102587)
(0.00037057699 4.9854198e-05 -1.9584889e-21 0.00028945043 1.8018521e-22 0.00031372507)
(0.00036714291 4.1469099e-05 3.7536733e-21 0.000273923 -5.7105718e-22 0.00030474982)
(0.00035810153 3.3280817e-05 4.8226803e-21 0.00025761121 5.1444197e-21 0.00029260325)
(0.00034004703 2.5609584e-05 2.5094021e-21 0.00023799665 2.2176908e-21 0.0002745192)
(0.00031756154 1.9073281e-05 3.1533383e-21 0.00021816821 -1.2611202e-21 0.00025432489)
(0.00029385732 1.3789598e-05 2.1773262e-21 0.00019961167 1.5630949e-21 0.00023427663)
(0.00027141813 9.8031315e-06 4.6464712e-21 0.00018344997 1.56257e-22 0.0002160905)
(0.00025154391 7.0126811e-06 3.9016019e-21 0.00016990082 2.4319746e-21 0.00020041449)
(0.00023497438 5.2040315e-06 -5.5170603e-22 0.00015911285 2.3801685e-21 0.00018765337)
(0.00022438796 4.2764116e-06 -5.8476794e-22 0.00015256003 2.2651643e-21 0.00017974112)
(0.00021965759 3.9825832e-06 4.5798533e-21 0.00015013083 3.1573473e-21 0.00017657803)
(0.00022178636 4.2381624e-06 -9.852358e-22 0.00015226978 -3.2050657e-21 0.00017880445)
(0.00023757497 4.7478037e-06 -3.9859059e-21 0.00016357424 2.5344742e-22 0.00019185564)
(0.00029947232 6.2619067e-06 -1.0904351e-21 0.00020593721 3.0015792e-21 0.00024163381)
(0.00039266332 8.067042e-06 -6.7056476e-23 0.00026993168 1.0051378e-23 0.00031671766)
(0.00055228003 1.1272699e-05 2.5084727e-21 0.00037920304 2.2389649e-21 0.00044513682)
(0.00073044295 1.4167007e-05 1.3494799e-20 0.00050488006 -2.7442511e-21 0.00059114895)
(0.0010064647 1.9191434e-05 -3.222952e-20 0.00070550661 1.4499349e-20 0.00082233781)
(0.0011215482 2.0855496e-05 -2.6118409e-20 0.00081346361 5.23387e-21 0.00093667358)
(0.0010238787 1.8684904e-05 1.5891538e-21 0.00079498563 1.4744386e-21 0.00089167209)
(0.00029462134 -3.3165161e-05 -2.2726654e-22 0.00030080023 -6.1508302e-22 0.00029124226)
(0.0011830838 -0.00046425612 -1.5991414e-25 0.0014444366 4.8050901e-25 0.0011097615)
(0.0046757962 -0.0018152089 2.1166397e-24 0.0047622056 -4.4827682e-24 0.0040042386)
(0.0080393582 -0.0028547367 -7.7950317e-21 0.007048692 5.5163145e-21 0.0064613686)
(0.00068524585 0.00014931 -5.3850816e-22 0.0005860611 -9.4488156e-22 0.00058608694)
(0.00059734525 0.00012025646 -7.9546698e-23 0.00049526848 -4.3743545e-23 0.00050627398)
(0.00056425392 0.00010082887 5.8735375e-21 0.00044046764 2.9575578e-21 0.00046615498)
(0.00056168338 8.5595674e-05 2.6287559e-21 0.0004156459 2.8886151e-21 0.00045496016)
(0.00055685198 7.0435015e-05 -1.3377353e-20 0.00039161499 -3.5951412e-21 0.0004419319)
(0.00054336753 5.5775361e-05 2.5154058e-21 0.00036747441 -5.9763152e-21 0.00042465989)
(0.00051700162 4.2377384e-05 -4.3622441e-21 0.00033935312 -3.4608716e-21 0.00039915094)
(0.00048404761 3.111848e-05 -4.8421751e-21 0.00031123936 -3.3024897e-21 0.00037059029)
(0.0004491634 2.2094917e-05 2.2636004e-21 0.00028502744 -5.3118217e-21 0.00034212675)
(0.00041588615 1.5311354e-05 -4.0401668e-21 0.0002622979 -2.4137977e-21 0.00031625656)
(0.0003862895 1.05867e-05 -1.9356764e-21 0.00024329087 -6.5757585e-21 0.00029392748)
(0.00036146934 7.5508829e-06 7.7810092e-21 0.00022825401 -3.623687e-22 0.00027577997)
(0.00034565117 6.021544e-06 7.3140066e-21 0.000219217 -4.079804e-22 0.00026462815)
(0.00033859171 5.5730927e-06 4.1777758e-21 0.0002161609 -2.1869199e-21 0.00026042982)
(0.00034202819 6.0663804e-06 -8.3577511e-21 0.00021962217 4.4662945e-21 0.00026408729)
(0.00036609255 6.9602017e-06 5.8455594e-21 0.00023660658 3.9034631e-21 0.00028382126)
(0.00045831928 9.3642537e-06 9.6585453e-21 0.0002974967 -8.3959843e-22 0.00035627998)
(0.00059408461 1.2223088e-05 -4.4913401e-21 0.00039012828 -2.5723106e-21 0.0004652187)
(0.00081880658 1.7410756e-05 1.1662368e-20 0.00054478439 -6.8194933e-21 0.00064663215)
(0.0010594387 2.2621674e-05 -7.735582e-21 0.00072554215 -4.7823631e-21 0.00085210306)
(0.0014103157 3.1156054e-05 2.1377079e-20 0.0010032321 1.5018622e-20 0.0011627524)
(0.001551668 2.8339881e-05 -1.4532072e-20 0.0011764416 3.5964901e-20 0.001331653)
(0.001390109 4.005883e-06 2.7023056e-20 0.001159055 -2.1158265e-20 0.0012619928)
(0.00043692864 -9.4785039e-05 -6.6558698e-21 0.00050534725 7.4541421e-21 0.00044021296)
(0.0017072089 -0.00070913161 -4.1655793e-23 0.0020438122 1.1395053e-22 0.0015556506)
(0.0060746593 -0.00235402 -1.5286921e-22 0.0060365885 1.4171471e-22 0.0051429021)
(0.0095006589 -0.0033224029 1.1077367e-19 0.0082361025 -2.0996119e-20 0.0076605003)
(0.00096548684 0.00022460639 -7.4539276e-22 0.00080623669 -1.202857e-21 0.00080421722)
(0.00084945454 0.000184869 -2.1818541e-24 0.00068308989 -5.0551542e-25 0.00069749244)