/*--------------------------------*- C++ -*----------------------------------*\
| =========                 |                                                 |
| \\      /  F ield         | OpenFOAM: The Open Source CFD Toolbox           |
|  \\    /   O peration     | Version:  2.4.0                                 |
|   \\  /    A nd           | Web:      www.OpenFOAM.org                      |
|    \\/     M anipulation  |                                                 |
\*---------------------------------------------------------------------------*/
FoamFile
{
    version     2.0;
    format      ascii;
    class       surfaceScalarField;
    location    "8225";
    object      phi;
}
// * * * * * * * * * * * * * * * * * * * * * * * * * * * * * * * * * * * * * //

dimensions      [0 3 -1 0 0 0 0];

internalField   nonuniform List<scalar> 
63640
(
1.3543257e-06
-2.7431276e-07
1.6643137e-06
-3.0998745e-07
1.6475996e-06
1.6713818e-08
1.3631861e-06
2.8441607e-07
7.636779e-07
5.995083e-07
5.200981e-08
7.1166827e-07
-4.4441108e-07
4.9642058e-07
-5.9489395e-07
1.5048366e-07
-5.4760886e-07
-4.7285425e-08
-4.8685487e-07
-6.0754528e-08
-4.2935923e-07
-5.7496182e-08
-3.8543221e-07
-4.3927586e-08
-3.5499004e-07
-3.0441922e-08
-3.3232343e-07
-2.2665588e-08
-3.1379165e-07
-1.8530603e-08
-2.9674426e-07
-1.7047078e-08
-2.8259274e-07
-1.4151044e-08
-2.7372825e-07
-8.8691146e-09
-2.6905272e-07
-4.6738448e-09
-2.6747373e-07
-1.5746027e-09
-2.695186e-07
2.0486061e-09
-2.7550673e-07
5.9908461e-09
-2.8589497e-07
1.0388729e-08
-3.0105705e-07
1.5162488e-08
-3.2091162e-07
1.9854165e-08
-3.4469554e-07
2.3782763e-08
-3.6990062e-07
2.5205331e-08
-3.9549839e-07
2.5597327e-08
-4.2203909e-07
2.654052e-08
-4.4924577e-07
2.7207017e-08
-4.7647731e-07
2.7230912e-08
-5.0295306e-07
2.647694e-08
-5.2768446e-07
2.473183e-08
-5.4962291e-07
2.1940874e-08
-5.6880271e-07
1.9180856e-08
-5.8744888e-07
1.864706e-08
-6.0706103e-07
1.9612686e-08
-6.250239e-07
1.796303e-08
-6.3971616e-07
1.4692803e-08
-6.5038822e-07
1.0672078e-08
-6.5628497e-07
5.8971023e-09
-6.5718538e-07
9.0014819e-10
-6.5378782e-07
-3.3972039e-09
-6.4911653e-07
-4.6713004e-09
-6.5069014e-07
1.5741538e-09
-7.0131646e-07
5.0626217e-08
-8.6912188e-07
1.6780672e-07
-1.0070509e-06
1.3792932e-07
-1.1044393e-06
9.7389334e-08
-1.1764702e-06
7.2030802e-08
-1.2319746e-06
5.5505557e-08
-1.2737867e-06
4.1812228e-08
-1.3057747e-06
3.1989027e-08
-1.3290043e-06
2.3229455e-08
-1.3453457e-06
1.6342301e-08
-1.355467e-06
1.0120713e-08
-1.3604332e-06
4.9673472e-09
-1.3606923e-06
2.5867143e-10
-1.3567806e-06
-3.9109581e-09
-1.3490291e-06
-7.7525854e-09
-1.3378604e-06
-1.1167668e-08
-1.3235773e-06
-1.4283982e-08
-1.3064993e-06
-1.7076702e-08
-1.286884e-06
-1.9616076e-08
-1.2649887e-06
-2.1894009e-08
-1.2410358e-06
-2.3953747e-08
-1.2152397e-06
-2.5794961e-08
-1.1877978e-06
-2.7442673e-08
-1.1589018e-06
-2.8895258e-08
-1.1287295e-06
-3.0173659e-08
-1.0974437e-06
-3.1285268e-08
-1.0651972e-06
-3.2248051e-08
-1.0321337e-06
-3.3062774e-08
-9.9838341e-07
-3.3751572e-08
-9.6406718e-07
-3.4315404e-08
-9.2930775e-07
-3.4760769e-08
-8.9423653e-07
-3.5069897e-08
-8.5894298e-07
-3.5294382e-08
-8.2350451e-07
-3.5438133e-08
-7.8801232e-07
-3.5493827e-08
-7.5254324e-07
-3.5468131e-08
-7.1716496e-07
-3.5379166e-08
-6.8195355e-07
-3.5211203e-08
-6.4695779e-07
-3.4997292e-08
-6.1223008e-07
-3.472805e-08
-5.7782689e-07
-3.4405025e-08
-5.4378403e-07
-3.4042347e-08
-5.1013832e-07
-3.3646666e-08
-4.7693027e-07
-3.320778e-08
-4.4418113e-07
-3.2749275e-08
-4.1192473e-07
-3.2256471e-08
-3.8017997e-07
-3.1744309e-08
-3.4896211e-07
-3.1218799e-08
-3.1829525e-07
-3.0666146e-08
-2.8818815e-07
-3.0107665e-08
-2.5864455e-07
-2.9543365e-08
-2.2967211e-07
-2.8973366e-08
-2.0127303e-07
-2.8398764e-08
-1.7345607e-07
-2.781768e-08
-1.4626879e-07
-2.7187415e-08
-1.197626e-07
-2.6507174e-08
-9.3971335e-08
-2.5791091e-08
-6.8917082e-08
-2.5054829e-08
-4.4594142e-08
-2.4322835e-08
-2.0989389e-08
-2.3605311e-08
1.9086178e-09
-2.2897936e-08
2.4125392e-08
-2.2217326e-08
4.568288e-08
-2.1557196e-08
6.6581328e-08
-2.0898855e-08
8.6826351e-08
-2.0244874e-08
1.0642725e-07
-1.9601438e-08
1.2538168e-07
-1.8954194e-08
1.4369762e-07
-1.8316339e-08
1.6137376e-07
-1.7676124e-08
1.7841062e-07
-1.7037473e-08
1.9481613e-07
-1.6405286e-08
2.1058539e-07
-1.5769669e-08
2.2571781e-07
-1.5132261e-08
2.4021844e-07
-1.4501079e-08
2.5408088e-07
-1.3862425e-08
2.6730138e-07
-1.322102e-08
2.798819e-07
-1.2580333e-08
2.9181306e-07
-1.193166e-08
3.0308732e-07
-1.1274206e-08
3.1370201e-07
-1.0615184e-08
3.2364342e-07
-9.9413465e-09
3.3289888e-07
-9.2559422e-09
3.4145866e-07
-8.55947e-09
3.4930351e-07
-7.8452965e-09
3.5641182e-07
-7.1081363e-09
3.6276594e-07
-6.3546697e-09
3.6833439e-07
-5.5682341e-09
3.7308827e-07
-4.7544815e-09
3.7698909e-07
-3.9007246e-09
3.7999801e-07
-3.0096688e-09
3.8205871e-07
-2.0606019e-09
3.8312525e-07
-1.0673302e-09
3.8312718e-07
-1.5010933e-12
3.8202125e-07
1.105269e-09
3.7967238e-07
2.3490517e-09
3.7600006e-07
3.6714423e-09
3.7078013e-07
5.2202535e-09
3.6393632e-07
6.8428167e-09
3.5512292e-07
8.8139207e-09
3.4433981e-07
1.0782139e-08
3.3098094e-07
1.3359035e-08
3.1516959e-07
1.5809945e-08
2.9576052e-07
1.9409697e-08
2.7317933e-07
2.2579723e-08
2.4518276e-07
2.7997458e-08
2.127147e-07
3.2466338e-08
1.7125909e-07
4.1455971e-08
1.2191382e-07
4.9342544e-08
5.3249751e-08
6.8665071e-08
3.4233963e-08
1.9012512e-08
3.7858647e-08
-3.6244662e-09
5.3492586e-08
-1.563603e-08
7.4937786e-08
-2.1445576e-08
1.0148059e-07
-2.6544369e-08
1.3047653e-07
-2.8996864e-08
1.6309783e-07
-3.2622246e-08
1.9838182e-07
-3.528557e-08
2.369623e-07
-3.8580928e-08
2.7904605e-07
-4.208615e-08
3.2674281e-07
-4.7697158e-08
3.8114018e-07
-5.4400947e-08
4.3945256e-07
-5.8312296e-08
5.002224e-07
-6.077462e-08
5.6302548e-07
-6.2804176e-08
6.2703201e-07
-6.4008864e-08
6.915749e-07
-6.4544604e-08
7.5533935e-07
-6.3765275e-08
8.1648273e-07
-6.1144634e-08
8.695782e-07
-5.309596e-08
9.1343896e-07
-4.3862417e-08
9.5032141e-07
-3.6883587e-08
9.880406e-07
-3.7720338e-08
1.0253378e-06
-3.7297654e-08
1.0636695e-06
-3.8332623e-08
1.1050186e-06
-4.1349363e-08
1.1516623e-06
-4.6647165e-08
1.2073452e-06
-5.5680299e-08
1.2806349e-06
-7.3291163e-08
1.3886443e-06
-1.0801045e-07
1.5263889e-06
-1.3774676e-07
1.6912757e-06
-1.648984e-07
1.8903423e-06
-1.9906459e-07
2.135641e-06
-2.4530823e-07
2.44433e-06
-3.0867886e-07
2.8327284e-06
-3.884005e-07
3.3097378e-06
-4.7701141e-07
3.8231541e-06
-5.1341417e-07
4.2207504e-06
-3.9759114e-07
4.1358262e-06
8.4931645e-08
3.6003597e-06
5.3547683e-07
2.8043963e-06
7.9596935e-07
2.0742419e-06
7.301625e-07
1.4471382e-06
6.2710271e-07
1.1553714e-06
2.917717e-07
7.5353006e-08
4.54848e-06
-1.0641175e-06
5.2898187e-06
-1.0513256e-06
5.3930674e-06
-8.6535182e-08
4.4396259e-06
1.2378607e-06
2.6310585e-06
2.408076e-06
3.6731424e-07
2.9754129e-06
-1.2771879e-06
2.1409224e-06
-1.8428466e-06
7.1614323e-07
-1.7216255e-06
-1.6850683e-07
-1.5396366e-06
-2.4274367e-07
-1.3626544e-06
-2.344787e-07
-1.2264996e-06
-1.8008304e-07
-1.1310426e-06
-1.2589853e-07
-1.0602666e-06
-9.3439853e-08
-1.0022071e-06
-7.6588935e-08
-9.4939791e-07
-6.9854816e-08
-9.058087e-07
-5.7738551e-08
-8.7861825e-07
-3.6064208e-08
-8.6467408e-07
-1.861496e-08
-8.6072951e-07
-5.5162611e-09
-8.6825035e-07
9.5700106e-09
-8.883266e-07
2.6068934e-08
-9.2233848e-07
4.4400914e-08
-9.71359e-07
6.4183555e-08
-1.0351248e-06
8.3619149e-08
-1.1109488e-06
9.960551e-08
-1.191314e-06
1.055704e-07
-1.2730199e-06
1.0730247e-07
-1.35761e-06
1.1113049e-07
-1.4443077e-06
1.1390499e-07
-1.5310853e-06
1.1400795e-07
-1.6155682e-06
1.1095893e-07
-1.6947295e-06
1.0389111e-07
-1.7655327e-06
9.2748902e-08
-1.8282122e-06
8.186395e-08
-1.8895506e-06
7.9987106e-08
-1.9534979e-06
8.3560648e-08
-2.012706e-06
7.7171212e-08
-2.061712e-06
6.3699301e-08
-2.098716e-06
4.7676092e-08
-2.1206596e-06
2.7841091e-08
-2.1285847e-06
8.8249664e-09
-2.1223337e-06
-9.6478363e-09
-2.1171385e-06
-9.8664824e-09
-2.1295928e-06
1.4028958e-08
-2.3096658e-06
2.3069913e-07
-2.814608e-06
6.7275025e-07
-3.2474398e-06
5.7076144e-07
-3.5455629e-06
3.9551342e-07
-3.7702191e-06
2.9668699e-07
-3.9397671e-06
2.2505475e-07
-4.0687878e-06
1.7083316e-07
-4.165681e-06
1.2888335e-07
-4.2361151e-06
9.3663452e-08
-4.284418e-06
6.4646258e-08
-4.3136553e-06
3.9357363e-08
-4.3265254e-06
1.7838637e-08
-4.324834e-06
-1.4331398e-09
-4.3099773e-06
-1.8766839e-08
-4.283175e-06
-3.4556059e-08
-4.2456347e-06
-4.8706795e-08
-4.1983841e-06
-6.1535556e-08
-4.1423737e-06
-7.3085663e-08
-4.0784458e-06
-8.3544797e-08
-4.0073846e-06
-9.2953838e-08
-3.9299027e-06
-1.0143648e-07
-3.8466636e-06
-1.0903292e-07
-3.758292e-06
-1.1581504e-07
-3.6653848e-06
-1.2180168e-07
-3.5685004e-06
-1.2705943e-07
-3.4681489e-06
-1.3163631e-07
-3.3648088e-06
-1.3558993e-07
-3.2589301e-06
-1.3894074e-07
-3.1509208e-06
-1.4176222e-07
-3.0411591e-06
-1.4407628e-07
-2.9300312e-06
-1.4589015e-07
-2.8179441e-06
-1.4715555e-07
-2.7051808e-06
-1.4805856e-07
-2.591985e-06
-1.4863373e-07
-2.478639e-06
-1.4884169e-07
-2.3653867e-06
-1.4871942e-07
-2.2524389e-06
-1.4832792e-07
-2.1400326e-06
-1.4761743e-07
-2.0283241e-06
-1.4670758e-07
-1.917475e-06
-1.4557772e-07
-1.8076629e-06
-1.4421923e-07
-1.6990018e-06
-1.4270301e-07
-1.5916054e-06
-1.4104411e-07
-1.4856021e-06
-1.3921087e-07
-1.3810589e-06
-1.3729265e-07
-1.2780812e-06
-1.3523428e-07
-1.1767296e-06
-1.3309546e-07
-1.0770514e-06
-1.3089805e-07
-9.7912258e-07
-1.2859424e-07
-8.8297159e-07
-1.2625927e-07
-7.8860937e-07
-1.2390542e-07
-6.9606444e-07
-1.2151935e-07
-6.0534519e-07
-1.1911773e-07
-5.1648666e-07
-1.1667704e-07
-4.2964065e-07
-1.1403365e-07
-3.4496635e-07
-1.1118263e-07
-2.6256897e-07
-1.0818835e-07
-1.8251348e-07
-1.0511098e-07
-1.047819e-07
-1.0205437e-07
-2.9333758e-08
-9.9054102e-08
4.386759e-08
-9.6099272e-08
1.1490478e-07
-9.3255168e-08
1.8384566e-07
-9.0497803e-08
2.5069028e-07
-8.7743945e-08
3.1545711e-07
-8.5011611e-08
3.7817324e-07
-8.2318204e-08
4.388322e-07
-7.9612952e-08
4.9745848e-07
-7.6943086e-08
5.5404658e-07
-7.4264259e-08
6.0859989e-07
-7.1591505e-08
6.6114082e-07
-6.8946019e-08
7.1165441e-07
-6.6283738e-08
7.6013924e-07
-6.3616984e-08
8.0660956e-07
-6.0971915e-08
8.510449e-07
-5.8297812e-08
8.9343444e-07
-5.5611145e-08
9.3378217e-07
-5.2927914e-08
9.7205848e-07
-5.0208537e-08
1.0082404e-06
-4.7456126e-08
1.0423171e-06
-4.4692475e-08
1.0742458e-06
-4.1869988e-08
1.1039862e-06
-3.8996881e-08
1.1315066e-06
-3.6079555e-08
1.1567443e-06
-3.3083551e-08
1.1796339e-06
-2.9997595e-08
1.200114e-06
-2.6835375e-08
1.2180898e-06
-2.3543859e-08
1.2334627e-06
-2.0128065e-08
1.2461192e-06
-1.6557154e-08
1.2559216e-06
-1.2812999e-08
1.2627119e-06
-8.8508038e-09
1.2663121e-06
-4.6684945e-09
1.2665448e-06
-2.3379223e-10
1.2632063e-06
4.443046e-09
1.2559675e-06
9.5880178e-09
1.2444253e-06
1.5212638e-08
1.2280836e-06
2.1562197e-08
1.2063856e-06
2.8539745e-08
1.178697e-06
3.6502947e-08
1.1443285e-06
4.5149575e-08
1.1023602e-06
5.5327414e-08
1.0517013e-06
6.6467234e-08
9.9088163e-07
8.0229955e-08
9.1806436e-07
9.5395369e-08
8.3077207e-07
1.1529059e-07
7.2518456e-07
1.3805194e-07
5.9687718e-07
1.6976356e-07
4.3469997e-07
2.1151668e-07
2.2571792e-07
2.7764799e-07
1.5840794e-07
8.631882e-08
1.7158241e-07
-1.6798903e-08
2.1783434e-07
-6.1890361e-08
2.8645208e-07
-9.006395e-08
3.6860465e-07
-1.0869879e-07
4.60539e-07
-1.209324e-07
5.6258651e-07
-1.3467093e-07
6.7394105e-07
-1.4664197e-07
7.950766e-07
-1.5971713e-07
9.2762296e-07
-1.7463527e-07
1.0775238e-06
-1.9759857e-07
1.2479514e-06
-2.2483251e-07
1.4306889e-06
-2.4104978e-07
1.6212203e-06
-2.5131133e-07
1.8180263e-06
-2.5961155e-07
2.0187929e-06
-2.6477799e-07
2.2210506e-06
-2.6680402e-07
2.4213522e-06
-2.6406761e-07
2.6130081e-06
-2.5280162e-07
2.7808366e-06
-2.2092485e-07
2.9198643e-06
-1.8289182e-07
3.0383522e-06
-1.5537262e-07
3.1575103e-06
-1.5687944e-07
3.2759031e-06
-1.5569078e-07
3.3969938e-06
-1.5942412e-07
3.5271329e-06
-1.7148843e-07
3.67376e-06
-1.9327771e-07
3.8476933e-06
-2.2961079e-07
4.0774793e-06
-3.0307856e-07
4.4107482e-06
-4.412802e-07
4.8373557e-06
-5.6435648e-07
5.3496964e-06
-6.7725144e-07
5.9682948e-06
-8.176606e-07
6.7318135e-06
-1.008836e-06
7.6884575e-06
-1.265311e-06
8.8938999e-06
-1.5938445e-06
1.0359224e-05
-1.9423366e-06
1.1950184e-05
-2.1043702e-06
1.3163782e-05
-1.6111815e-06
1.3019983e-05
2.2874054e-07
1.1464485e-05
2.0909868e-06
9.143315e-06
3.1171469e-06
6.8305983e-06
3.0428889e-06
4.9878263e-06
2.4698734e-06
3.8507202e-06
1.4288836e-06
1.6739118e-07
8.4402161e-06
-2.3555183e-06
9.5521863e-06
-2.1632948e-06
9.8186625e-06
-3.5301138e-07
8.125431e-06
2.9310956e-06
4.9974766e-06
5.536031e-06
9.6636131e-07
7.0065289e-06
-2.0798348e-06
5.1871182e-06
-3.2174858e-06
1.8537952e-06
-3.0513126e-06
-3.3468012e-07
-2.7432083e-06
-5.5084857e-07
-2.4357494e-06
-5.4193791e-07
-2.1971629e-06
-4.1866966e-07
-2.0285374e-06
-2.9452295e-07
-1.9035582e-06
-2.184173e-07
-1.800888e-06
-1.7925787e-07
-1.7080277e-06
-1.6271437e-07
-1.6316227e-06
-1.3414243e-07
-1.5841068e-06
-8.3583165e-08
-1.5602503e-06
-4.246781e-08
-1.554482e-06
-1.1283773e-08
-1.5692151e-06
2.4302717e-08
-1.6064355e-06
6.3291076e-08
-1.6685252e-06
1.0649022e-07
-1.7572689e-06
1.5292673e-07
-1.872129e-06
1.9847839e-07
-2.0080879e-06
2.355629e-07
-2.1521649e-06
2.4964766e-07
-2.2987232e-06
2.5386073e-07
-2.4502859e-06
2.6269325e-07
-2.6055575e-06
2.6917691e-07
-2.7609347e-06
2.6938466e-07
-2.9123008e-06
2.6232346e-07
-3.054438e-06
2.4602599e-07
-3.1822854e-06
2.2060197e-07
-3.2964606e-06
1.9604367e-07
-3.4086333e-06
1.9216072e-07
-3.5250923e-06
2.0002043e-07
-3.6336522e-06
1.8573132e-07
-3.7245431e-06
1.5459092e-07
-3.7949639e-06
1.1809702e-07
-3.839313e-06
7.2190611e-08
-3.8606488e-06
3.0160638e-08
-3.8578136e-06
-1.2482526e-08
-3.8616088e-06
-6.0711994e-09
-3.8995795e-06
5.2000303e-08
-4.2403153e-06
5.7143475e-07
-5.1090571e-06
1.5414936e-06
-5.8663208e-06
1.3280256e-06
-6.3838203e-06
9.1301408e-07
-6.7757907e-06
6.8865727e-07
-7.0688443e-06
5.1810976e-07
-7.2921257e-06
3.9411479e-07
-7.4580413e-06
2.9480013e-07
-7.578029e-06
2.1365096e-07
-7.6587197e-06
1.4533814e-07
-7.7061279e-06
8.6764772e-08
-7.7245937e-06
3.6305762e-08
-7.717531e-06
-8.4963458e-09
-7.6872085e-06
-4.9088504e-08
-7.6359129e-06
-8.5853012e-08
-7.5656964e-06
-1.1892205e-07
-7.4784213e-06
-1.4881167e-07
-7.3757306e-06
-1.7577495e-07
-7.2591313e-06
-2.0014494e-07
-7.1299917e-06
-2.2209196e-07
-6.9895782e-06
-2.4185093e-07
-6.8390549e-06
-2.5955497e-07
-6.6795273e-06
-2.7534354e-07
-6.512044e-06
-2.8928413e-07
-6.3375895e-06
-3.0151547e-07
-6.157062e-06
-3.1216325e-07
-5.9713045e-06
-3.2134936e-07
-5.7811097e-06
-3.291347e-07
-5.5871961e-06
-3.3567742e-07
-5.3902292e-06
-3.4104224e-07
-5.1908906e-06
-3.4523037e-07
-4.9898928e-06
-3.4815181e-07
-4.7877366e-06
-3.5021575e-07
-4.5848522e-06
-3.515178e-07
-4.3817339e-06
-3.5196194e-07
-4.1788146e-06
-3.5163769e-07
-3.9764638e-06
-3.5067971e-07
-3.775098e-06
-3.4898308e-07
-3.5749961e-06
-3.468113e-07
-3.3764403e-06
-3.4413405e-07
-3.1797443e-06
-3.4091741e-07
-2.9851109e-06
-3.3733591e-07
-2.7927388e-06
-3.3341744e-07
-2.6028557e-06
-3.2909357e-07
-2.4155805e-06
-3.24568e-07
-2.2310985e-06
-3.1971636e-07
-2.0495179e-06
-3.1467554e-07
-1.8709215e-06
-3.0949554e-07
-1.6954441e-06
-3.0407085e-07
-1.5231368e-06
-2.9856717e-07
-1.3540188e-06
-2.9302317e-07
-1.1881461e-06
-2.8739315e-07
-1.0255375e-06
-2.8172597e-07
-8.6626503e-07
-2.7595035e-07
-7.1060124e-07
-2.6969764e-07
-5.5882437e-07
-2.6296069e-07
-4.1111752e-07
-2.55895e-07
-2.6758959e-07
-2.4863959e-07
-1.2820783e-07
-2.4143603e-07
7.0961207e-09
-2.3435871e-07
1.3838931e-07
-2.2739239e-07
2.6582404e-07
-2.2069057e-07
3.8951798e-07
-2.1419141e-07
5.0946886e-07
-2.076953e-07
6.257099e-07
-2.012525e-07
7.3828672e-07
-1.9489566e-07
8.4718834e-07
-1.8851432e-07
9.5245734e-07
-1.8221257e-07
1.0540824e-06
-1.7588931e-07
1.1520711e-06
-1.6958091e-07
1.2464602e-06
-1.6333492e-07
1.3372235e-06
-1.5704748e-07
1.4243588e-06
-1.5075217e-07
1.5078893e-06
-1.4450294e-07
1.5877783e-06
-1.3818677e-07
1.6640073e-06
-1.3184079e-07
1.736581e-06
-1.2550142e-07
1.8054465e-06
-1.1907461e-07
1.8705638e-06
-1.1257336e-07
1.9319109e-06
-1.060402e-07
1.9894118e-06
-9.9370827e-08
2.042995e-06
-9.2580662e-08
2.0926023e-06
-8.5686552e-08
2.138121e-06
-7.8602764e-08
2.1794365e-06
-7.1312858e-08
2.2164347e-06
-6.3834284e-08
2.2489503e-06
-5.6059158e-08
2.2768025e-06
-4.7981038e-08
2.2997942e-06
-3.9548714e-08
2.3176703e-06
-3.069e-08
2.330162e-06
-2.1342459e-08
2.3369308e-06
-1.1438198e-08
2.3376894e-06
-9.9187255e-10
2.3320316e-06
1.0100109e-08
2.3194384e-06
2.2181372e-08
2.2990926e-06
3.5557406e-08
2.2702536e-06
5.040155e-08
2.2317201e-06
6.707213e-08
2.1826685e-06
8.5555084e-08
2.1214074e-06
1.064096e-07
2.0469641e-06
1.2977081e-07
1.9564018e-06
1.5702783e-07
1.8485437e-06
1.8808879e-07
1.7179747e-06
2.2596268e-07
1.5633829e-06
2.6988333e-07
1.373376e-06
3.2805686e-07
1.1466881e-06
3.9645167e-07
8.5353843e-07
5.0466308e-07
4.8940734e-07
6.4178005e-07
3.6334896e-07
2.1237329e-07
3.8634139e-07
-3.9791207e-08
4.6524477e-07
-1.407963e-07
5.8666654e-07
-2.1148632e-07
7.3042231e-07
-2.5245647e-07
8.9303937e-07
-2.8355061e-07
1.072724e-06
-3.1435667e-07
1.2696121e-06
-3.435318e-07
1.4835027e-06
-3.7360817e-07
1.7180094e-06
-4.0914455e-07
1.9830687e-06
-4.6265808e-07
2.2840027e-06
-5.2577019e-07
2.6068796e-06
-5.6392619e-07
2.943813e-06
-5.8824989e-07
3.2919332e-06
-6.0773236e-07
3.6473263e-06
-6.2017288e-07
4.0053494e-06
-6.2482809e-07
4.3603698e-06
-6.1908778e-07
4.699877e-06
-5.9230914e-07
4.9986185e-06
-5.1966581e-07
5.2470416e-06
-4.3131599e-07
5.4604005e-06
-3.6873186e-07
5.673185e-06
-3.6966429e-07
5.8849097e-06
-3.6741488e-07
6.1009759e-06
-3.7549039e-07
6.3326263e-06
-4.0313792e-07
6.5932683e-06
-4.5392249e-07
6.9015595e-06
-5.3789801e-07
7.3089177e-06
-7.1043729e-07
7.8941112e-06
-1.0264733e-06
8.6437961e-06
-1.3140424e-06
9.5452674e-06
-1.5787341e-06
1.0633211e-05
-1.9055997e-06
1.1975193e-05
-2.3508259e-06
1.3650809e-05
-2.9409119e-06
1.5757683e-05
-3.7007182e-06
1.8301237e-05
-4.4858892e-06
2.106349e-05
-4.8666169e-06
2.3165479e-05
-3.7131623e-06
2.3050017e-05
3.4421195e-07
2.0507103e-05
4.6339126e-06
1.6635104e-05
6.9891517e-06
1.2599507e-05
7.0784954e-06
9.4348318e-06
5.6345468e-06
7.2631746e-06
3.6005471e-06
2.817439e-07
1.3119648e-05
-4.1166922e-06
1.4603402e-05
-3.6470472e-06
1.4992916e-05
-7.4252585e-07
1.2534124e-05
5.3898903e-06
7.9549268e-06
1.0115229e-05
1.9374614e-06
1.3023995e-05
-2.806802e-06
9.9313811e-06
-4.7082842e-06
3.7552785e-06
-4.5435563e-06
-4.994082e-07
-4.1078865e-06
-9.8651882e-07
-3.6602405e-06
-9.8958399e-07
-3.3091843e-06
-7.6972587e-07
-3.05928e-06
-5.444256e-07
-2.8737965e-06
-4.038983e-07
-2.7214043e-06
-3.3164974e-07
-2.5841609e-06
-2.9995639e-07
-2.471624e-06
-2.4667771e-07
-2.4019557e-06
-1.5325484e-07
-2.3678122e-06
-7.6606642e-08
-2.3611223e-06
-1.7972512e-08
-2.3852982e-06
4.847667e-08
-2.443313e-06
1.213073e-07
-2.5386373e-06
2.0181393e-07
-2.6737705e-06
2.8805947e-07
-2.8477253e-06
3.7243174e-07
-3.0527817e-06
4.406173e-07
-3.2699844e-06
4.6685021e-07
-3.4909986e-06
4.7487437e-07
-3.7193442e-06
4.9103894e-07
-3.9531299e-06
5.0296293e-07
-4.1870477e-06
5.0330187e-07
-4.4150644e-06
4.9033727e-07
-4.6296581e-06
4.6061632e-07
-4.8237701e-06
4.1472011e-07
-4.9986246e-06
3.7090299e-07
-5.171006e-06
3.6454376e-07
-5.3495255e-06
3.7854051e-07
-5.5168736e-06
3.5307955e-07
-5.6587516e-06
2.964694e-07
-5.7711875e-06
2.3053303e-07
-5.846271e-06
1.4727439e-07
-5.8891751e-06
7.3064555e-08
-5.8991539e-06
-2.5033624e-09
-5.9236682e-06
1.8443165e-08
-6.0082689e-06
1.3660146e-07
-6.5395316e-06
1.1026974e-06
-7.80206e-06
2.8040232e-06
-8.9087734e-06
2.4347395e-06
-9.6650572e-06
1.6692988e-06
-1.0237108e-05
1.2607085e-06
-1.0662808e-05
9.4381097e-07
-1.098605e-05
7.1735644e-07
-1.1224356e-05
5.3310746e-07
-1.139506e-05
3.8435498e-07
-1.1507608e-05
2.5788726e-07
-1.1571089e-05
1.5024486e-07
-1.1591765e-05
5.698316e-08
-1.1574715e-05
-2.5546819e-08
-1.1523221e-05
-1.0058224e-07
-1.1440758e-05
-1.6831709e-07
-1.1330336e-05
-2.2934244e-07
-1.1194732e-05
-2.8441628e-07
-1.1036366e-05
-3.3413966e-07
-1.0857479e-05
-3.7903332e-07
-1.0660089e-05
-4.1948004e-07
-1.0446078e-05
-4.5586322e-07
-1.0217166e-05
-4.884657e-07
-9.974992e-06
-5.175181e-07
-9.721106e-06
-5.4316937e-07
-9.4569638e-06
-5.6565894e-07
-9.1838944e-06
-5.8523229e-07
-8.9031441e-06
-6.0210144e-07
-8.615886e-06
-6.1639214e-07
-8.3231817e-06
-6.2838296e-07
-8.0260159e-06
-6.3820736e-07
-7.7253964e-06
-6.4585121e-07
-7.422373e-06
-6.5117382e-07
-7.1176886e-06
-6.5490095e-07
-6.8119805e-06
-6.5722577e-07
-6.5059766e-06
-6.579677e-07
-6.2003206e-06
-6.572928e-07
-5.8955572e-06
-6.5544397e-07
-5.5923017e-06
-6.5223861e-07
-5.2909705e-06
-6.4814422e-07
-4.9919783e-06
-6.4312689e-07
-4.6957905e-06
-6.3710726e-07
-4.4027094e-06
-6.3041671e-07
-4.1130271e-06
-6.2310069e-07
-3.8270832e-06
-6.1503731e-07
-3.5450537e-06
-6.0659765e-07
-3.2672134e-06
-5.9755681e-07
-2.9937238e-06
-5.8816475e-07
-2.724707e-06
-5.7851338e-07
-2.4603638e-06
-5.6841329e-07
-2.2007713e-06
-5.581603e-07
-1.9459585e-06
-5.4783587e-07
-1.6960161e-06
-5.3733652e-07
-1.45098e-06
-5.2676185e-07
-1.2109716e-06
-5.159595e-07
-9.7640282e-07
-5.0426675e-07
-7.4768269e-07
-4.9168197e-07
-5.2507754e-07
-4.7850006e-07
-3.0874061e-07
-4.6497717e-07
-9.8621582e-08
-4.5155504e-07
1.0536783e-07
-4.3834875e-07
3.0334223e-07
-4.2536682e-07
4.9554417e-07
-4.1289314e-07
6.821345e-07
-4.0078149e-07
8.631072e-07
-3.8866843e-07
1.038512e-06
-3.7665726e-07
1.2084139e-06
-3.6479818e-07
1.3727966e-06
-3.528968e-07
1.5317223e-06
-3.4113872e-07
1.6851722e-06
-3.2933929e-07
1.8331589e-06
-3.1756823e-07
1.9757339e-06
-3.0590981e-07
2.1128576e-06
-2.941716e-07
2.2445276e-06
-2.8242203e-07
2.3707751e-06
-2.7075096e-07
2.4915448e-06
-2.5895654e-07
2.6068101e-06
-2.4710662e-07
2.7165745e-06
-2.3526572e-07
2.8207585e-06
-2.2325913e-07
2.919303e-06
-2.111179e-07
3.0121719e-06
-1.9890966e-07
3.0992511e-06
-1.8644999e-07
3.1804339e-06
-1.7376401e-07
3.2556307e-06
-1.6088299e-07
3.3246714e-06
-1.4764394e-07
3.3873857e-06
-1.3402703e-07
3.443599e-06
-1.2004815e-07
3.4930644e-06
-1.0552441e-07
3.5355093e-06
-9.0426539e-08
3.5706385e-06
-7.4677952e-08
3.5980658e-06
-5.8118101e-08
3.6173929e-06
-4.0669568e-08
3.6281023e-06
-2.2148463e-08
3.6297723e-06
-2.6614448e-09
3.6217781e-06
1.8093647e-08
3.6033737e-06
4.0585839e-08
3.5732927e-06
6.5637436e-08
3.5304856e-06
9.3208876e-08
3.4730685e-06
1.2448823e-07
3.3999308e-06
1.5869322e-07
3.3083404e-06
1.979989e-07
3.197112e-06
2.4099922e-07
3.0614259e-06
2.9271235e-07
2.9001164e-06
3.4939878e-07
2.7041562e-06
4.2192141e-07
2.4728764e-06
5.0116381e-07
2.1872467e-06
6.1368471e-07
1.8481237e-06
7.3557463e-07
1.406532e-06
9.4625182e-07
8.6931297e-07
1.1789996e-06
6.751619e-07
4.0652085e-07
7.0625775e-07
-7.0887213e-08
8.2054707e-07
-2.5508793e-07
9.99743e-07
-3.9068303e-07
1.2116413e-06
-4.6435657e-07
1.4525665e-06
-5.2447708e-07
1.7185822e-06
-5.8037363e-07
2.0106465e-06
-6.3559788e-07
2.3279713e-06
-6.909337e-07
2.6763178e-06
-7.5749382e-07
3.0699503e-06
-8.5629124e-07
3.5163462e-06
-9.7216985e-07
3.9955951e-06
-1.0431753e-06
4.4961555e-06
-1.0888154e-06
5.0135932e-06
-1.1251716e-06
5.542164e-06
-1.1487461e-06
6.0748515e-06
-1.1575171e-06
6.6035254e-06
-1.1477621e-06
7.109314e-06
-1.0980986e-06
7.556127e-06
-9.6647892e-07
7.9295906e-06
-8.0478114e-07
8.2520955e-06
-6.9123757e-07
8.571997e-06
-6.895667e-07
8.8901396e-06
-6.8555732e-07
9.2142732e-06
-6.9962457e-07
9.5609497e-06
-7.4981401e-07
9.9501692e-06
-8.4314481e-07
1.0409623e-05
-9.9734889e-07
1.1015472e-05
-1.3162875e-06
1.1879433e-05
-1.8904347e-06
1.2986038e-05
-2.4206495e-06
1.4318136e-05
-2.9108436e-06
1.5925256e-05
-3.5127172e-06
1.7904987e-05
-4.3305645e-06
2.0369826e-05
-5.4057388e-06
2.3457543e-05
-6.788436e-06
2.7166791e-05
-8.1951368e-06
3.11841e-05
-8.88392e-06
3.4264084e-05
-6.7931363e-06
3.4276375e-05
3.3193155e-07
3.0830982e-05
8.0793203e-06
2.5399004e-05
1.2421138e-05
1.9560184e-05
1.2917326e-05
1.4919112e-05
1.0275617e-05
1.1602351e-05
6.9173151e-06
5.2561313e-07
1.8719106e-05
-6.2883049e-06
2.0563036e-05
-5.4909755e-06
2.1018287e-05
-1.1977774e-06
1.7774768e-05
8.6334138e-06
1.1615176e-05
1.6274821e-05
3.3856906e-06
2.1253481e-05
-3.3967333e-06
1.6713805e-05
-6.3014495e-06
6.6599958e-06
-6.2040442e-06
-5.9681354e-07
-5.6442916e-06
-1.546272e-06
-5.0485041e-06
-1.5853715e-06
-4.5754775e-06
-1.2427515e-06
-4.2362342e-06
-8.836669e-07
-3.9838604e-06
-6.5627064e-07
-3.776575e-06
-5.3893549e-07
-3.590643e-06
-4.8588811e-07
-3.4387798e-06
-3.9853978e-07
-3.3453174e-06
-2.4671845e-07
-3.3008041e-06
-1.2111531e-07
-3.2945188e-06
-2.4259042e-08
-3.3309153e-06
8.4871091e-08
-3.414048e-06
2.0444165e-07
-3.548548e-06
3.3631237e-07
-3.7376116e-06
4.7712121e-07
-3.9795785e-06
6.1439726e-07
-4.2636115e-06
7.2464829e-07
-4.5642758e-06
7.6751504e-07
-4.8702815e-06
7.8088071e-07
-5.18614e-06
8.0689754e-07
-5.5093258e-06
8.2614928e-07
-5.8326384e-06
8.2661363e-07
-6.1480032e-06
8.0569958e-07
-6.4455309e-06
7.5814207e-07
-6.7162606e-06
6.8545568e-07
-6.9622827e-06
6.1692937e-07
-7.2056638e-06
6.0792554e-07
-7.4572372e-06
6.3011458e-07
-7.6943376e-06
5.9018029e-07
-7.8979965e-06
5.0012896e-07
-8.0629048e-06
3.9544154e-07
-8.1791951e-06
2.6356517e-07
-8.2543176e-06
1.4818698e-07
-8.2896473e-06
3.2826869e-08
-8.3503116e-06
7.9107691e-08
-8.5075868e-06
2.9387727e-07
-9.2613269e-06
1.8564374e-06
-1.0944671e-05
4.487369e-06
-1.2423031e-05
3.9130998e-06
-1.3435893e-05
2.6821622e-06
-1.4199028e-05
2.0238434e-06
-1.4764985e-05
1.5097693e-06
-1.5192318e-05
1.1446897e-06
-1.5504896e-05
8.456867e-07
-1.572598e-05
6.0543903e-07
-1.5868389e-05
4.0029689e-07
-1.5944376e-05
2.2623117e-07
-1.5962407e-05
7.5015226e-08
-1.5929253e-05
-5.8700886e-08
-1.5849382e-05
-1.8045288e-07
-1.5727594e-05
-2.9010636e-07
-1.5567974e-05
-3.8896126e-07
-1.537429e-05
-4.7810127e-07
-1.5149825e-05
-5.586027e-07
-1.4897622e-05
-6.3123735e-07
-1.462042e-05
-6.9668023e-07
-1.4320772e-05
-7.5551252e-07
-1.4001014e-05
-8.0822283e-07
-1.3663368e-05
-8.5516446e-07
-1.3309935e-05
-8.9660133e-07
-1.2942688e-05
-9.3290815e-07
-1.2563426e-05
-9.6449335e-07
-1.2173839e-05
-9.9168999e-07
-1.1775518e-05
-1.0147128e-06
-1.13699e-05
-1.0340029e-06
-1.0958318e-05
-1.0497887e-06
-1.0542137e-05
-1.0620334e-06
-1.0122775e-05
-1.070534e-06
-9.701242e-06
-1.076435e-06
-9.2784016e-06
-1.080066e-06
-8.8552366e-06
-1.0811345e-06
-8.4326238e-06
-1.0799047e-06
-8.0112984e-06
-1.0767702e-06
-7.5920938e-06
-1.0714431e-06
-7.175579e-06
-1.0646608e-06
-6.7623128e-06
-1.0563937e-06
-6.3529277e-06
-1.0464944e-06
-5.9478365e-06
-1.0355076e-06
-5.5474331e-06
-1.0235052e-06
-5.1521809e-06
-1.010289e-06
-4.7623197e-06
-9.9645898e-07
-4.3782225e-06
-9.8165411e-07
-4.0001104e-06
-9.6627644e-07
-3.6281482e-06
-9.5047657e-07
-3.2626109e-06
-9.3394973e-07
-2.9036041e-06
-9.1716761e-07
-2.5511693e-06
-9.0027049e-07
-2.2054406e-06
-8.8306621e-07
-1.8664793e-06
-8.6572291e-07
-1.5344717e-06
-8.4796783e-07
-1.2099896e-06
-8.2874906e-07
-8.9358447e-07
-8.0808822e-07
-5.8561016e-07
-7.8647421e-07
-2.8626286e-07
-7.6432506e-07
4.5143147e-09
-7.4233212e-07
2.8683241e-07
-7.2066743e-07
5.6089009e-07
-6.9942443e-07
8.2703061e-07
-6.7903423e-07
1.0854465e-06
-6.5919709e-07
1.3361262e-06
-6.3934849e-07
1.5791375e-06
-6.1966838e-07
1.8145653e-06
-6.0022651e-07
2.0423867e-06
-5.8071797e-07
2.2626853e-06
-5.6143773e-07
2.4754325e-06
-5.4208655e-07
2.6806467e-06
-5.2278309e-07
2.8783943e-06
-5.0365715e-07
3.0686198e-06
-4.8439747e-07
3.2513207e-06
-4.6512276e-07
3.4265357e-06
-4.4596635e-07
3.5941876e-06
-4.266085e-07
3.754241e-06
-4.0716054e-07
3.9066963e-06
-3.8772085e-07
4.0514434e-06
-3.6800668e-07
4.1884019e-06
-3.4807643e-07
4.3175181e-06
-3.2802635e-07
4.4386342e-06
-3.0756604e-07
4.5516045e-06
-2.8673478e-07
4.6563015e-06
-2.6557961e-07
4.7524907e-06
-2.438336e-07
4.8399386e-06
-2.2147475e-07
4.918401e-06
-1.9851116e-07
4.9875382e-06
-1.7466138e-07
5.0469746e-06
-1.4986348e-07
5.0963017e-06
-1.2400506e-07
5.1349872e-06
-9.6804308e-08
5.1624822e-06
-6.8164605e-08
5.1780719e-06
-3.7738954e-08
5.1811681e-06
-5.7571239e-09
5.170912e-06
2.834904e-08
5.1462909e-06
6.5207173e-08
5.1055565e-06
1.0637091e-07
5.0472747e-06
1.5149092e-07
4.9688484e-06
2.0291352e-07
4.8687603e-06
2.5878185e-07
4.7432168e-06
3.2354149e-07
4.5906148e-06
3.9360125e-07
4.4042584e-06
4.790672e-07
4.1826202e-06
5.7103754e-07
3.9131229e-06
6.9141716e-07
3.5950274e-06
8.1926004e-07
3.2018179e-06
1.0068924e-06
2.7350176e-06
1.202375e-06
2.1263433e-06
1.5549229e-06
1.3977019e-06
1.9076416e-06
1.1252856e-06
6.789335e-07
1.1618512e-06
-1.074528e-07
1.3139264e-06
-4.0716552e-07
1.5555649e-06
-6.3232218e-07
1.8420616e-06
-7.5085512e-07
2.1688801e-06
-8.5129664e-07
2.5299966e-06
-9.4149122e-07
2.9269878e-06
-1.0325907e-06
3.3586173e-06
-1.1225637e-06
3.8329398e-06
-1.2318187e-06
4.3688231e-06
-1.3921747e-06
4.9759009e-06
-1.579251e-06
5.6280936e-06
-1.6953678e-06
6.3099682e-06
-1.7706948e-06
7.0152834e-06
-1.8304876e-06
7.736193e-06
-1.8696574e-06
8.4631553e-06
-1.8844801e-06
9.1852121e-06
-1.8698184e-06
9.8766243e-06
-1.7895108e-06
1.0489792e-05
-1.579646e-06
1.1005286e-05
-1.3202762e-06
1.1452621e-05
-1.1385722e-06
1.1894319e-05
-1.1312648e-06
1.2333026e-05
-1.1242639e-06
1.277931e-05
-1.1459078e-06
1.3255399e-05
-1.2259023e-06
1.3788494e-05
-1.3762413e-06
1.4416547e-05
-1.6253982e-06
1.5242065e-05
-2.1418057e-06
1.6411271e-05
-3.0596403e-06
1.7908094e-05
-3.917473e-06
1.9711712e-05
-4.7144724e-06
2.1887103e-05
-5.6881039e-06
2.4562089e-05
-7.0055556e-06
2.7882931e-05
-8.7265672e-06
3.2024016e-05
-1.092952e-05
3.6976247e-05
-1.3147366e-05
4.2321444e-05
-1.422911e-05
4.6470558e-05
-1.0942241e-05
4.6732794e-05
6.9705689e-08
4.2512311e-05
1.2299815e-05
3.5558332e-05
1.9375124e-05
2.787615e-05
2.0599518e-05
2.161641e-05
1.6535355e-05
1.705267e-05
1.1481062e-05
1.0307831e-06
2.5379316e-05
-8.7789954e-06
2.7553611e-05
-7.6652692e-06
2.8001883e-05
-1.6460493e-06
2.3960941e-05
1.267436e-05
1.610073e-05
2.4135033e-05
5.4335208e-06
3.192069e-05
-3.7710424e-06
2.5918367e-05
-7.9749014e-06
1.0863856e-05
-8.0357698e-06
-5.359455e-07
-7.3621132e-06