0.44815628 	0 	0 	0 	0 	0 	0
0.44909187 	3.661965e-10 	9.2429186e-11 	8.3453516e-27 	-3.6598392e-10 	1.2728412e-26 	-4.5361628e-43
0.45009717 	3.5066158e-09 	8.775032e-10 	-8.9866338e-26 	-3.5065298e-09 	-1.7409806e-25 	2.0051017e-42
0.45117744 	1.6787533e-08 	4.1667379e-09 	-1.4069861e-24 	-1.6788049e-08 	-1.417383e-24 	8.4082972e-42
0.45233828 	5.601051e-08 	1.3783167e-08 	6.7795943e-24 	-5.6011083e-08 	7.5139944e-24 	2.8108177e-41
0.45358568 	1.5041045e-07 	3.6678908e-08 	-5.5982221e-24 	-1.5041106e-07 	-9.7904325e-24 	-9.4428211e-41
0.4549261 	3.4992834e-07 	8.452646e-08 	-4.6893928e-23 	-3.4993016e-07 	-5.2927686e-23 	2.7937884e-40
0.45636646 	7.3517973e-07 	1.7583895e-07 	5.3960762e-23 	-7.3518436e-07 	8.1522174e-23 	-9.2728484e-40
0.45791423 	1.430173e-06 	3.3857259e-07 	3.7657551e-23 	-1.430183e-06 	4.1148052e-23 	-3.3827882e-40
0.4595774 	2.6169756e-06 	6.129521e-07 	-2.7292217e-23 	-2.6169957e-06 	-3.3050815e-23 	1.1356688e-39
0.46136458 	4.549933e-06 	1.0538776e-06 	-3.9639692e-23 	-4.5499713e-06 	1.3197206e-22 	8.3101442e-40
0.46328499 	7.5646337e-06 	1.7317145e-06 	3.2327972e-22 	-7.564704e-06 	2.4834285e-22 	-4.2693908e-39
0.46534857 	1.2073972e-05 	2.7296438e-06 	2.5658308e-22 	-1.2074097e-05 	-4.8207708e-22 	9.4877382e-40
0.46756597 	1.8541584e-05 	4.1353335e-06 	-1.2813053e-21 	-1.8541797e-05 	-1.0793756e-21 	1.3291025e-38
0.46994866 	2.7423686e-05 	6.024984e-06 	1.6880165e-21 	-2.7424042e-05 	2.3980562e-21 	-1.0491044e-38
0.47250895 	3.9076221e-05 	8.4392923e-06 	5.6185433e-22 	-3.9076801e-05 	3.3689467e-22 	-6.9224038e-39
0.47526006 	5.3635918e-05 	1.1353727e-05 	-4.728013e-21 	-5.3636821e-05 	-4.2989218e-21 	2.8620533e-38
0.47821618 	7.0899142e-05 	1.4649e-05 	3.1364712e-21 	-7.0900493e-05 	4.0038612e-21 	-3.1496739e-38
0.4813926 	9.0235636e-05 	1.809039e-05 	3.9893329e-21 	-9.0237455e-05 	1.8312816e-21 	-5.910774e-39
0.48480569 	0.00011057803 	2.132394e-05 	-2.5110626e-21 	-0.00011057995 	-2.7881211e-21 	2.0808654e-38
0.48847307 	0.00013052201 	2.3890806e-05 	3.6233345e-21 	-0.00013052421 	-4.0364645e-21 	1.7997949e-39
0.49241365 	0.00014864812 	2.5262152e-05 	-1.0655931e-20 	-0.00014865353 	-5.958368e-21 	6.2243184e-38
0.49664777 	0.00016364455 	2.4809643e-05 	-9.7644491e-21 	-0.00016365663 	-2.4799155e-21 	1.0901683e-38
0.50119723 	0.00017328278 	2.1608897e-05 	-1.0850264e-20 	-0.00017330134 	-6.0010064e-21 	-5.3292662e-38
0.5060855 	0.00017434303 	1.4497111e-05 	1.4718012e-20 	-0.00017436658 	3.5495123e-20 	-2.8993676e-38
0.51133774 	0.00016407601 	2.4231225e-06 	3.1159442e-20 	-0.00016410177 	1.438289e-21 	-1.478499e-37
0.51698101 	0.00014086957 	-1.5377119e-05 	-4.358131e-20 	-0.00014089415 	-1.7645072e-20 	2.1580938e-37
0.52304435 	0.00010417606 	-3.9380442e-05 	2.2504613e-20 	-0.0001042046 	5.5522178e-20 	-1.1435463e-37
0.52955895 	5.4242556e-05 	-6.9949362e-05 	7.3196625e-20 	-5.4279159e-05 	-4.1508768e-20 	-1.9363028e-37
0.5365583 	-8.5079675e-06 	-0.00010745591 	-5.3480633e-20 	8.4723058e-06 	-6.3427758e-20 	4.2777871e-37
0.54407839 	-8.3864336e-05 	-0.00015222539 	-5.3921393e-20 	8.3837523e-05 	4.5934008e-20 	-1.4379353e-37
0.55215783 	-0.00017177867 	-0.00020456852 	2.8836358e-20 	0.00017176183 	2.9957057e-20 	-2.6108844e-37
0.56083809 	-0.00027242168 	-0.00026491967 	3.4748877e-20 	0.00027241408 	-2.8545051e-20 	1.0279516e-37
0.57016371 	-0.00038626207 	-0.00033407214 	-2.6768992e-20 	0.00038626147 	-1.2468493e-20 	1.7513614e-37
0.58018248 	-0.00051414412 	-0.00041348716 	-3.5973255e-20 	0.000514145 	3.8049494e-20 	4.8636528e-38
0.59094573 	-0.00065732558 	-0.00050559829 	4.7053563e-20 	0.00065732399 	-1.6324331e-20 	-1.2293181e-37
0.60250854 	-0.00081772459 	-0.0006142969 	-1.8088471e-21 	0.00081774664 	-1.398548e-20 	2.5428771e-39
0.61493003 	-0.00099784311 	-0.00074529326 	-6.5403693e-21 	0.0009979487 	5.6058241e-21 	3.3931106e-37
0.62827366 	-0.0011997161 	-0.00090622602 	4.4514232e-20 	0.0011999465 	1.5207792e-20 	-1.0915029e-37
0.64260754 	-0.0014256888 	-0.0011091093 	2.9530461e-20 	0.0014260622 	-3.9309955e-20 	-4.641593e-37
0.65800475 	-0.0016793937 	-0.0013741612 	-5.7978042e-20 	0.0016798569 	-5.3999767e-20 	1.6460169e-37
0.6745437 	-0.0019649461 	-0.0017336915 	-5.3396882e-20 	0.001965035 	2.3417991e-20 	-3.9538086e-38
0.69230851 	-0.002285439 	-0.00223601 	2.9899743e-20 	0.0022856833 	4.9861825e-20 	-2.1794472e-37
0.71138943 	-0.0026465368 	-0.0029459071 	3.8950459e-20 	0.0026465804 	1.1611525e-20 	7.1566192e-37
0.73188325 	-0.0030310825 	-0.0039120801 	1.8070227e-20 	0.0030307012 	-4.1414038e-20 	7.4213225e-38
0.7538938 	-0.0033599402 	-0.0050898809 	-1.5770773e-20 	0.0033601261 	3.0211149e-20 	-5.5594024e-37
0.77753238 	-0.0035147482 	-0.0063107411 	-1.8924191e-20 	0.003514653 	1.6806786e-20 	-1.1550888e-38
0.80291836 	-0.0034128355 	-0.0073495675 	1.2721267e-21 	0.0034120631 	-3.6904862e-20 	-1.4605095e-37
0.8301797 	-0.0030520647 	-0.0080084298 	-3.9122902e-20 	0.0030523573 	-1.7602392e-20 	-8.9897296e-39
0.85945355 	-0.0025013564 	-0.0081708113 	-1.4798662e-20 	0.0025031678 	3.5934053e-21 	8.4003508e-38
0.8908869 	-0.0018711752 	-0.0078564133 	6.7129789e-20 	0.0018734512 	1.1674893e-20 	-2.3725336e-38
0.92463724 	-0.0012751284 	-0.0072486149 	6.3978689e-21 	0.0012771141 	-1.4522056e-21 	-4.1537312e-38
0.96087331 	-0.00078676844 	-0.0066325684 	4.28066e-21 	0.00078819137 	1.0758228e-21 	1.042224e-37
0.99977583 	-0.00041759347 	-0.0062394181 	-1.1242866e-19 	0.00041839612 	1.5721004e-20 	1.3835638e-37
1.0415383 	-0.00013632043 	-0.0061042275 	-2.8759094e-20 	0.00013654039 	-5.0081947e-21 	-6.0741338e-38
1.0863681 	8.7732403e-05 	-0.0060992695 	1.4749836e-19 	-8.7739014e-05 	-1.0126179e-20 	-1.0421741e-37
1.1344869 	0.00026203272 	-0.0060911558 	-1.8881915e-20 	-0.00026196245 	8.3453086e-21 	1.5410473e-38
1.1861322 	0.00038099482 	-0.0060254577 	-2.2819426e-19 	-0.00038087212 	7.0907647e-21 	-3.4633728e-39
1.241558 	0.00044234094 	-0.0059074353 	-1.2775109e-20 	-0.00044225109 	-1.0397219e-20 	1.6983091e-38
1.3010361 	0.00045338187 	-0.0057621997 	6.3562426e-20 	-0.00045332632 	-9.5248678e-21 	-6.5286134e-38
1.3648571 	0.0004292186 	-0.0056112083 	-2.2939992e-19 	-0.00042914722 	5.4023154e-21 	-1.6591183e-37
1.4333318 	0.0003877811 	-0.0054626771 	-1.3208526e-19 	-0.0003877463 	4.8470913e-22 	-3.2791357e-39
1.5067924 	0.00034524055 	-0.0053095406 	5.1945053e-19 	-0.00034500296 	-9.806483e-21 	1.1891827e-37
1.585594 	0.00031427836 	-0.0051312499 	2.9147952e-19 	-0.00031450033 	6.0392296e-21 	7.7976649e-39
1.670116 	0.00030914957 	-0.004892142 	1.068027e-19 	-0.00031003617 	4.5086308e-21 	-4.1826851e-38
1.7201551 	0.00031920193 	-0.004720271 	-1.9604981e-19 	-0.00031882298 	2.9658009e-21 	-1.0589783e-38
1.7607692 	0.00032690514 	-0.0045802192 	-4.4742262e-19 	-0.0003254807 	1.8849248e-21 	1.5530456e-38
1.851244 	0.00032522231 	-0.0042518318 	-2.2995881e-19 	-0.00032353788 	3.8979364e-21 	9.1968018e-39
1.9352734 	0.00028508976 	-0.0039432885 	4.48246e-19 	-0.00028593919 	-8.4453187e-21 	-1.4275741e-38
2.0133292 	0.00023478916 	-0.0036272811 	-7.7353477e-20 	-0.00023516133 	-4.5014554e-21 	-1.7735101e-38
2.0858467 	0.00019101467 	-0.0032908536 	9.9551433e-20 	-0.00019065829 	9.9903157e-21 	-5.4644462e-38
2.153228 	0.00015264125 	-0.0029415073 	-6.3933442e-20 	-0.00015257604 	-1.3340182e-21 	-1.9627395e-38
2.2158443 	0.00011886672 	-0.0025860214 	6.4930835e-20 	-0.00011878823 	-1.3338451e-20 	3.7401347e-38
2.2740391 	8.9110869e-05 	-0.0022312389 	2.72846e-19 	-8.9053527e-05 	4.2504588e-21 	2.0329888e-38
2.3281301 	6.3197939e-05 	-0.0018828626 	-6.2245324e-20 	-6.3155573e-05 	6.7556213e-21 	-1.7971523e-39
2.3784113 	4.1134083e-05 	-0.0015453336 	-3.4066789e-20 	-4.1118323e-05 	-2.7813088e-21 	-2.9115387e-39
2.4251549 	2.2897965e-05 	-0.0012220307 	7.1566608e-20 	-2.2881924e-05 	1.3632551e-22 	-9.8980304e-40
2.4686132 	8.2170914e-06 	-0.00091669583 	1.289058e-19 	-8.1846681e-06 	7.1400069e-21 	-3.3342174e-39
2.5090199 	-3.3457011e-06 	-0.00063268901 	-1.5350791e-19 	3.3563711e-06 	-2.3529857e-21 	-1.0142147e-39
2.5465917 	-1.222162e-05 	-0.00037020372 	-4.072557e-20 	1.2223664e-05 	-9.4032721e-21 	6.0008429e-39
2.5815297 	-1.8939458e-05 	-0.00012779655 	5.3365422e-20 	1.8949949e-05 	3.7512295e-21 	3.4789291e-39
2.6140201 	-2.4066873e-05 	9.565972e-05 	-7.984555e-21 	2.4076497e-05 	7.2618226e-21 	-7.0615206e-39
2.6442361 	-2.8071134e-05 	0.00030137401 	-4.2748557e-20 	2.8078185e-05 	-1.0688807e-21 	-3.2758116e-39
2.672338 	-3.1290799e-05 	0.00049067373 	2.8459186e-20 	3.1302174e-05 	-7.1457783e-21 	9.6159967e-39
2.698475 	-3.3959348e-05 	0.00066500025 	4.0147901e-20 	3.397109e-05 	-1.0061832e-21 	-5.9358809e-40
2.7227854 	-3.6198361e-05 	0.00082628003 	-6.0816702e-20 	3.6200325e-05 	6.6078653e-21 	-3.4296211e-39
2.7453976 	-3.8043038e-05 	0.00097703194 	-3.7760333e-20 	3.80471e-05 	-1.5478262e-21 	1.478681e-39
2.766431 	-3.9482648e-05 	0.0011182232 	8.1690179e-20 	3.9490316e-05 	-2.0118699e-21 	1.8255773e-40
2.7859964 	-4.0465809e-05 	0.0012494013 	5.584172e-21 	4.0467478e-05 	7.2189173e-21 	-9.8103238e-40
2.8041967 	-4.0923815e-05 	0.0013707641 	-6.8049585e-20 	4.0923497e-05 	-3.6172495e-21 	9.9633031e-40
2.8211278 	-4.079956e-05 	0.0014829839 	2.1763701e-20 	4.0799986e-05 	-4.305784e-21 	-1.3532166e-39
2.8368784 	-4.0059925e-05 	0.0015869811 	-3.6099435e-20 	4.0059831e-05 	4.9897221e-21 	1.9931076e-39
2.8515312 	-3.8692476e-05 	0.0016838548 	-6.2651471e-20 	3.8691613e-05 	-4.2564391e-21 	-1.8420869e-39
2.8651631 	-3.6709326e-05 	0.0017748065 	4.5363407e-20 	3.6707886e-05 	-2.5299071e-21 	-3.4285133e-39
2.8778453 	-3.4147871e-05 	0.0018610559 	5.0630882e-20 	3.4144916e-05 	2.864844e-21 	4.1454562e-39
2.8896443 	-3.1064351e-05 	0.0019437733 	2.3855458e-20 	3.1060925e-05 	1.1593634e-21 	4.3748159e-41
2.9006217 	-2.753608e-05 	0.0020240078 	2.2666682e-20 	2.7533008e-05 	1.0376895e-21 	-6.7786527e-40
2.910835 	-2.3656673e-05 	0.0021026355 	-3.232623e-20 	2.3653167e-05 	-1.2040596e-21 	-1.4770322e-40
2.9203374 	-1.9527773e-05 	0.0021803379 	3.488584e-21 	1.9523956e-05 	-1.0958496e-21 	6.4751291e-40
2.9291785 	-1.5258137e-05 	0.0022575769 	2.3499245e-20 	1.5254071e-05 	1.6908164e-22 	-3.7498059e-40
2.9374045 	-1.0958074e-05 	0.0023345731 	-2.8150097e-20 	1.0954186e-05 	2.2210333e-21 	3.848148e-40
2.9450582 	-6.7368656e-06 	0.0024113135 	-2.44207e-20 	6.7332757e-06 	1.3144327e-21 	8.1560645e-40
2.9521795 	-2.6988747e-06 	0.0024875517 	-7.7605124e-21 	2.6954981e-06 	-3.7778535e-21 	-1.1077782e-39
2.9588056 	1.0591452e-06 	0.0025628087 	2.6082683e-20 	-1.062405e-06 	-1.3383208e-21 	-2.1680724e-40
2.9649709 	4.4502447e-06 	0.002636378 	1.7066445e-20 	-4.4532235e-06 	2.8315443e-21 	3.1198413e-40
2.9707075 	7.3983971e-06 	0.002707315 	-1.2148887e-20 	-7.4010872e-06 	4.3704621e-22 	-1.222302e-40
2.9760453 	9.8407815e-06 	0.0027744179 	-8.3668423e-21 	-9.8431794e-06 	-1.8205272e-21 	3.166115e-40
2.981012 	1.1729647e-05 	0.0028361904 	-4.5786636e-21 	-1.1731579e-05 	3.3337729e-22 	7.2702464e-40
2.9856335 	1.3034114e-05 	0.0028907765 	-1.8210039e-21 	-1.3035445e-05 	1.2821674e-21 	-2.8542869e-40
2.9899337 	1.3743001e-05 	0.0029358609 	5.9412571e-21 	-1.3743632e-05 	-5.3310124e-22 	-4.6578947e-40
2.9939351 	1.3867794e-05 	0.0029685273 	4.6885787e-21 	-1.3867639e-05 	3.1387369e-22 	5.5869583e-41
2.9976584 	1.3445529e-05 	0.0029850664 	4.4384233e-21 	-1.3444602e-05 	1.2329945e-21 	-2.7794898e-40
3.001123 	1.2541114e-05 	0.0029807347 	-3.7355718e-21 	-1.25395e-05 	-3.5559599e-22 	8.3792077e-41
3.0043468 	1.1247472e-05 	0.0029494905 	-2.2023654e-21 	-1.12454e-05 	-9.5740131e-22 	1.287877e-40
3.0073466 	9.682498e-06 	0.002883796 	8.995501e-22 	-9.6803311e-06 	-1.1077423e-22 	1.2672042e-41
3.0101381 	7.981294e-06 	0.0027746917 	-2.7917735e-21 	-7.9794634e-06 	-7.6930058e-23 	-1.7811631e-42
3.0127355 	6.2832865e-06 	0.00261256 	7.1340475e-22 	-6.2821754e-06 	1.0831247e-22 	-1.6661198e-41
3.0151526 	4.7151908e-06 	0.0023892312 	4.0770562e-22 	-4.7150839e-06 	2.9043864e-22 	-1.8306569e-41
3.0174017 	3.3727534e-06 	0.002102021 	-1.2365348e-21 	-3.3738179e-06 	-2.9221407e-22 	1.9480218e-41
3.0194946 	2.3060863e-06 	0.0017592202 	5.7002308e-22 	-2.3080835e-06 	-3.8157705e-22 	3.1219331e-42
3.0214421 	1.5146476e-06 	0.0013841075 	4.0181256e-22 	-1.5167256e-06 	2.0828706e-22 	1.1003829e-41
3.0232543 	9.577728e-07 	0.0010126506 	-1.3717595e-22 	-9.5903849e-07 	2.6980332e-22 	-8.7094458e-42
3.0249407 	5.7878483e-07 	0.00068291208 	-1.0387611e-22 	-5.7911886e-07 	-6.6188955e-23 	2.2144374e-42
3.0265099 	3.278957e-07 	0.00042157236 	5.6734189e-24 	-3.277976e-07 	-7.0504489e-23 	-6.2318043e-43
3.0279701 	1.69647e-07 	0.00023656195 	1.3701931e-23 	-1.6952184e-07 	1.9778627e-24 	5.2092897e-43
3.029329 	7.7893116e-08 	0.00011939937 	-9.3958452e-25 	-7.7835854e-08 	2.3048593e-24 	-4.2874396e-44
3.0305934 	3.0691642e-08 	5.3171645e-05 	1.4463387e-25 	-3.0675301e-08 	1.7093864e-24 	-1.4583155e-43
3.0317701 	9.8858195e-09 	2.0150776e-05 	-4.8527947e-25 	-9.8869083e-09 	1.2168629e-24 	-3.4506305e-44
3.032865 	2.3940893e-09 	6.0670914e-06 	-5.4553836e-26 	-2.3976479e-09 	1.4725536e-25 	8.6833403e-45
3.0338839 	3.6988803e-10 	1.2631498e-06 	-8.5660236e-27 	-3.6810297e-10 	-5.2586607e-26 	1.4266598e-46
3.034832 	2.4415204e-11 	1.3144073e-07 	1.214561e-27 	-2.2333538e-11 	-3.366494e-27 	-1.0295521e-47
3.0357143 	0 	0 	0 	0 	0 	0
