0 	0 	0 	0
0.0010637159 	-0.0041012953 	-1.7778295e-06 	-2.2916021e-23
0.0022067933 	-0.0081885751 	-5.6132984e-06 	6.538119e-24
0.0034351532 	-0.012300466 	-1.3380817e-05 	1.4771447e-23
0.0047551584 	-0.0163957 	-2.5182228e-05 	-5.8776226e-24
0.0061736463 	-0.020423502 	-4.1626695e-05 	5.0696843e-23
0.0076979646 	-0.024321957 	-6.3419649e-05 	5.0711565e-23
0.0093360089 	-0.028016091 	-9.1295662e-05 	4.2832602e-23
0.011096264 	-0.031415643 	-0.00012602281 	-1.9459142e-23
0.012987848 	-0.034412712 	-0.00016839329 	1.8331821e-23
0.015020559 	-0.036879832 	-0.00021920266 	8.0851958e-23
0.017204926 	-0.038670101 	-0.00027922127 	0
0.019552264 	-0.039623095 	-0.00034916432 	-3.9856767e-23
0.022074732 	-0.039583154 	-0.0004296744 	-3.9710396e-23
0.024785396 	-0.038437529 	-0.00052134457 	-2.2755672e-22
0.027698296 	-0.036172531 	-0.00062481189 	-4.4129033e-22
0.030828522 	-0.032920659 	-0.00074088432 	-1.5166065e-22
0.034192287 	-0.028951499 	-0.00087058529 	6.1871839e-23
0.037807015 	-0.024588714 	-0.0010150428 	0
0.04169143 	-0.020103632 	-0.0011753155 	0
0.045865653 	-0.015655826 	-0.0013523054 	-5.7083282e-23
0.050351306 	-0.01129787 	-0.0015467872 	-1.0641109e-22
0.055171623 	-0.0070122015 	-0.0017594724 	-1.8616289e-22
0.060351574 	-0.0027471307 	-0.0019910472 	-1.7433856e-22
0.06591799 	0.0015587291 	-0.0022421973 	-3.6824784e-23
0.071899704 	0.0059635421 	-0.0025136482 	-4.5207409e-22
0.078327701 	0.010519098 	-0.0028062389 	-2.1821636e-22
0.085235276 	0.015270368 	-0.0031209857 	2.3505809e-22
0.092658211 	0.020255215 	-0.0034590458 	-2.2727776e-22
0.10063495 	0.025505593 	-0.0038216579 	-9.3291621e-22
0.10920683 	0.031049078 	-0.00421013 	-7.1161443e-22
0.11841823 	0.036910172 	-0.0046258308 	-5.870029e-24
0.12831687 	0.043111383 	-0.0050701758 	0
0.13895403 	0.049674079 	-0.0055446104 	0
0.1503848 	0.056619175 	-0.0060505908 	1.1286184e-21
0.1626684 	0.063967699 	-0.0065895602 	6.4523176e-22
0.17586845 	0.071741294 	-0.0071629207 	-4.89007e-22
0.19005333 	0.07996273 	-0.0077720005 	3.4241958e-22
0.20529651 	0.088656555 	-0.0084180143 	6.0360718e-23
0.22167696 	0.097850028 	-0.009102017 	-2.81105e-22
0.23927951 	0.10757457 	-0.009824845 	0
0.25819535 	0.11786788 	-0.010587037 	-4.6865286e-24
0.27852246 	0.12877663 	-0.01138872 	-1.6836422e-21
0.30036613 	0.14035946 	-0.01222944 	-2.9325294e-21
0.32383951 	0.15268934 	-0.01310793 	4.1145046e-22
0.34906419 	0.16585503 	-0.014021816 	3.0934896e-21
0.37617083 	0.17996129 	-0.014967276 	1.4257698e-21
0.40529983 	0.19512835 	-0.015938663 	-3.9491702e-21
0.43660209 	0.21149081 	-0.016928104 	-4.0245381e-21
0.47023974 	0.22919635 	-0.01792505 	-2.4676712e-21
0.50638702 	0.24840432 	-0.018915801 	-1.0958789e-22
0.54523117 	0.26928405 	-0.019882975 	-1.9304099e-22
0.5869734 	0.29201253 	-0.020804966 	-5.2675564e-21
0.63182993 	0.31677098 	-0.021655412 	-2.6082123e-21
0.67505548 	0.34095521 	-0.022325752 	4.2759838e-21
0.6800331 	0.34373927 	-0.022402578 	5.0737701e-21
0.73183261 	0.3730864 	-0.023007887 	9.6016368e-21
0.78749677 	0.40496501 	-0.023430852 	4.4374166e-21
0.84731391 	0.43948635 	-0.023625306 	-8.3453897e-21
0.91159388 	0.4766991 	-0.023543275 	-1.5738939e-20
0.98066963 	0.51655814 	-0.023139098 	-7.3860723e-21
1.054899 	0.55888701 	-0.022376064 	1.2512239e-21
1.1346664 	0.60333879 	-0.021235822 	1.3981147e-21
1.2203851 	0.64936691 	-0.019730354 	1.0546873e-20
1.3124991 	0.69622715 	-0.0179126 	7.2975995e-22
1.4114856 	0.74303909 	-0.015884271 	-1.7487183e-20
1.5178571 	0.78837239 	-0.013812131 	-1.2012194e-20
1.6242287 	0.82942922 	-0.011927913 	-1.205706e-20
1.7232152 	0.86449875 	-0.010361654 	-1.378704e-21
1.8153292 	0.89417837 	-0.0090887471 	5.1873352e-21
1.9010479 	0.91947085 	-0.008049829 	1.2334669e-22
1.9808153 	0.9411563 	-0.00719096 	0
2.0550447 	0.95982546 	-0.0064688193 	0
2.1241204 	0.97592331 	-0.0058506321 	-1.2676656e-20
2.1884004 	0.9897877 	-0.0053124103 	-1.0158296e-20
2.2482175 	1.0016788 	-0.0048367563 	2.7080599e-21
2.3038817 	1.0117992 	-0.0044110633 	1.6905913e-21
2.3556812 	1.0203063 	-0.0040261813 	-6.555956e-21
2.4038844 	1.0273148 	-0.0036753035 	-8.4734911e-21
2.4487409 	1.0328877 	-0.0033530842 	0
2.4904831 	1.0370351 	-0.0030551555 	-8.5089425e-22
2.5293273 	1.0397385 	-0.0027776267 	-9.8154396e-22
2.5654745 	1.040973 	-0.0025169585 	0
2.5991122 	1.0407181 	-0.0022701313 	2.5376529e-21
2.6304145 	1.0389709 	-0.0020346048 	2.2877475e-21
2.6595435 	1.0357654 	-0.0018086056 	-2.602429e-21
2.6866501 	1.0311828 	-0.0015913409 	7.7611344e-23
2.7118748 	1.0253364 	-0.0013826358 	2.3298858e-21
2.7353482 	1.0183473 	-0.0011826658 	0
2.7571918 	1.0103363 	-0.00099192292 	0
2.7775189 	1.001423 	-0.0008111452 	0
2.7964348 	0.99172303 	-0.00064120584 	-1.2088519e-22
2.8140373 	0.98134721 	-0.0004829579 	-1.1642324e-22
2.8304178 	0.97039907 	-0.00033709947 	-6.5004537e-22
2.845661 	0.95897438 	-0.00020415092 	-6.5083493e-22
2.8598458 	0.94715996 	-8.4497853e-05 	0
2.8730459 	0.9350321 	2.1650248e-05 	5.2795049e-22
2.8853295 	0.92265616 	0.00011432812 	5.3348257e-22
2.8967603 	0.91008753 	0.0001938013 	0
2.9073974 	0.89737131 	0.00026053948 	2.9789274e-22
2.9172961 	0.88454132 	0.00031517646 	2.9873936e-22
2.9265075 	0.87162048 	0.0003584469 	3.050117e-23
2.9350793 	0.85862148 	0.0003911767 	-2.5131025e-22
2.9430561 	0.8455464 	0.00041428549 	1.9488119e-22
2.950479 	0.83238609 	0.00042872857 	4.7365197e-22
2.9573866 	0.81911944 	0.00043544938 	8.2390749e-26
2.9638146 	0.80571205 	0.00043537325 	-3.3452603e-22
2.9697963 	0.79211406 	0.00042940022 	-5.0540866e-22
2.9753627 	0.77825682 	0.00041839146 	1.2843629e-23
2.9805427 	0.76404823 	0.00040316114 	8.801897e-23
2.985363 	0.74936601 	0.00038447568 	-9.3305598e-23
2.9898486 	0.73404835 	0.00036305517 	-2.040671e-24
2.9940229 	0.71788123 	0.00033957653 	-1.1300472e-22
2.9979073 	0.70058166 	0.00031467731 	-1.131552e-22
3.001522 	0.68177688 	0.00028895847 	-2.0575327e-25
3.0048858 	0.6609816 	0.00026298253 	-7.7950665e-23
3.008016 	0.63758012 	0.0002372619 	-7.7771289e-23
3.0109289 	0.61083041 	0.00021223069 	0
3.0136396 	0.57992231 	0.00018819568 	-2.6731748e-25
3.016162 	0.54413331 	0.00016527789 	-1.3456768e-25
3.0185094 	0.50309953 	0.00014338931 	-7.7294504e-23
3.0206937 	0.45712109 	0.00012231255 	9.1191289e-23
3.0227264 	0.4072974 	0.00010189557 	7.9925173e-23
3.024618 	0.3553216 	8.2245605e-05 	-4.3632708e-23
3.0263783 	0.30301677 	6.3764328e-05 	4.5196891e-23
3.0280163 	0.25190081 	4.7004996e-05 	1.4888137e-25
3.0295406 	0.20298644 	3.2481771e-05 	1.3689185e-25
3.0309591 	0.1568069 	2.0549099e-05 	0
3.0322791 	0.11354795 	1.1374842e-05 	0
3.0335075 	0.073186801 	4.9960367e-06 	3.4681716e-23
3.0346506 	0.0355958 	1.3344608e-06 	3.4700783e-23
3.0357143 	0 	0 	0
