-1.5971834e-09 	0 	0 	0 	0 	0 	0
0.0010637143 	-4.7583337e-13 	6.3716366e-11 	2.4635198e-30 	4.6134517e-13 	1.0032839e-32 	3.0191174e-49
0.0022067917 	-3.6992421e-12 	5.8534256e-10 	1.2329835e-28 	3.7055205e-12 	-3.2623174e-27 	-1.9362007e-46
0.0034351516 	-1.319916e-11 	2.6795049e-09 	-3.2933078e-27 	1.3261177e-11 	1.0022711e-26 	5.6500061e-46
0.0047551568 	-2.6911349e-11 	8.4851623e-09 	5.7742444e-28 	2.702018e-11 	5.8985871e-26 	-2.349576e-44
0.0061736447 	-2.0061512e-11 	2.1506788e-08 	2.4057992e-26 	2.0354852e-11 	-1.8303113e-25 	2.4693341e-44
0.0076979629 	9.4073838e-11 	4.7252266e-08 	-4.0988563e-26 	-9.3169636e-11 	2.5168241e-26 	6.943206e-44
0.0093360072 	5.6514475e-10 	9.4989833e-08 	-3.7494255e-26 	-5.6261905e-10 	1.4729689e-24 	5.2585724e-44
0.011096262 	2.0736195e-09 	1.8035264e-07 	3.0443035e-25 	-2.0667547e-09 	-1.2077687e-24 	-3.1554244e-44
0.012987846 	6.35362e-09 	3.211191e-07 	-1.9065718e-26 	-6.3351074e-09 	-5.274057e-24 	-4.3786617e-43
0.015020557 	1.756395e-08 	5.1993599e-07 	-3.7737634e-25 	-1.751502e-08 	-3.1759381e-24 	1.1701495e-42
0.017204925 	4.5206616e-08 	7.1902377e-07 	-2.0155299e-24 	-4.5081029e-08 	1.0260844e-23 	6.54423e-44
0.019552263 	1.0986098e-07 	6.8731344e-07 	1.6475961e-24 	-1.095553e-07 	1.1901373e-23 	-1.4204242e-42
0.022074731 	2.5388066e-07 	-2.0605662e-07 	-9.4371704e-24 	-2.532005e-07 	-2.4342872e-24 	1.0032684e-42
0.024785394 	5.5938169e-07 	-3.3593906e-06 	3.5007664e-24 	-5.580641e-07 	1.5029396e-22 	-8.3331568e-41
0.027698295 	1.1732049e-06 	-1.1341718e-05 	5.8318619e-23 	-1.1711103e-06 	-2.0694991e-22 	-8.5227422e-42
0.03082852 	2.3314638e-06 	-2.7936556e-05 	-3.3800031e-23 	-2.3288875e-06 	-4.3827498e-22 	1.9160949e-40
0.034192285 	4.3653504e-06 	-5.7267708e-05 	-3.7282397e-23 	-4.3628774e-06 	6.2993055e-22 	2.7943881e-40
0.037807013 	7.6677585e-06 	-0.00010200655 	1.3656136e-22 	-7.6650961e-06 	-7.8151522e-23 	-2.4904248e-40
0.041691429 	1.2619943e-05 	-0.00016186089 	-1.5641855e-22 	-1.2614332e-05 	-5.1854693e-23 	-4.6879982e-40
0.045865651 	1.9500979e-05 	-0.00023378756 	2.7730711e-23 	-1.9487484e-05 	1.1069947e-21 	8.4159473e-40
0.050351304 	2.840773e-05 	-0.00031376995 	1.8310308e-22 	-2.8379553e-05 	-1.3318695e-21 	-1.8556004e-40
0.055171622 	3.9208306e-05 	-0.00039858206 	-3.3947348e-22 	-3.9157979e-05 	-2.3053393e-22 	-2.5194292e-40
0.060351572 	5.1555272e-05 	-0.00048650504 	1.8084754e-22 	-5.148175e-05 	9.485122e-22 	4.4514748e-40
0.065917988 	6.5012255e-05 	-0.00057741052 	2.7347078e-22 	-6.4926572e-05 	-1.5858556e-21 	2.8094262e-40
0.071899702 	7.92064e-05 	-0.00067220653 	-4.9623241e-22 	-7.9121234e-05 	-7.9755681e-22 	-7.2063312e-40
0.078327699 	9.3896317e-05 	-0.00077207949 	-2.6163291e-22 	-9.3811324e-05 	2.2747557e-22 	-7.2478897e-40
0.085235274 	0.00010898133 	-0.00087825351 	1.1938727e-22 	-0.00010889083 	2.4083453e-21 	-7.1199417e-40
0.092658209 	0.00012447417 	-0.00099191103 	8.9867821e-22 	-0.00012437568 	1.8619143e-21 	-5.4865576e-41
0.10063495 	0.00014046132 	-0.0011141751 	4.5412893e-23 	-0.00014035227 	-2.615503e-21 	8.0201975e-40
0.10920682 	0.00015706758 	-0.0012461315 	-6.8042882e-22 	-0.00015694568 	-1.0138848e-21 	2.1790738e-42
0.11841822 	0.00017442975 	-0.0013888599 	1.9900915e-22 	-0.00017429322 	9.3540388e-22 	6.6916476e-40
0.12831687 	0.00019267789 	-0.0015434621 	4.9773752e-22 	-0.00019252554 	7.4704087e-22 	-8.9023703e-41
0.13895403 	0.00021192209 	-0.0017110842 	2.5637083e-22 	-0.00021175368 	1.0784421e-21 	2.0226591e-40
0.1503848 	0.00023224231 	-0.0018929314 	-4.4013551e-22 	-0.00023205784 	-2.0065635e-21 	-1.8256317e-40
0.1626684 	0.00025367149 	-0.0020902798 	-1.0990097e-21 	-0.00025347175 	-2.5270845e-21 	-3.5198755e-40
0.17586845 	0.00027617731 	-0.002304481 	3.8129608e-22 	-0.00027596499 	1.0296105e-21 	4.0075627e-40
0.19005333 	0.00029964739 	-0.0025369624 	9.889244e-22 	-0.00029942679 	5.5846098e-22 	3.0737481e-40
0.20529651 	0.00032387102 	-0.0027892228 	-9.2826702e-22 	-0.00032364862 	1.0741209e-21 	-1.7586538e-40
0.22167695 	0.00034852203 	-0.0030628219 	1.7630159e-22 	-0.00034830737 	2.0114394e-21 	-1.3170173e-40
0.23927951 	0.00037315036 	-0.0033593617 	2.6033958e-21 	-0.00037295778 	-1.845006e-21 	3.6490867e-40
0.25819535 	0.00039719035 	-0.0036804675 	-3.7433478e-21 	-0.00039704015 	-2.0459451e-21 	-1.3822483e-39
0.27852246 	0.00041998469 	-0.0040277656 	-3.4983323e-21 	-0.00041990291 	-1.3691962e-22 	-7.4964732e-40
0.30036613 	0.00044082454 	-0.0044028393 	3.0422438e-21 	-0.00044085213 	2.3072533e-21 	7.4025548e-40
0.32383951 	0.00045904776 	-0.0048071699 	-2.5129587e-22 	-0.00045924045 	2.4171387e-21 	4.5981963e-40
0.34906419 	0.00047412309 	-0.0052420677 	-2.6477546e-21 	-0.00047454529 	-1.6222175e-21 	-4.5140087e-40
0.37617083 	0.00048566015 	-0.005708554 	-9.7634835e-22 	-0.00048639684 	-2.7599798e-21 	-2.3275885e-39
0.40529983 	0.00049344096 	-0.0062071696 	4.0730176e-21 	-0.00049459956 	6.100397e-22 	8.1501461e-41
0.43660209 	0.00049744676 	-0.0067377252 	-3.1205867e-21 	-0.00049914885 	1.027208e-21 	9.7577522e-40
0.47023974 	0.00049782768 	-0.0072989934 	1.00502e-20 	-0.00050021649 	1.3005712e-21 	3.6071312e-40
0.50638702 	0.00049487321 	-0.0078883271 	8.7358776e-21 	-0.00049811996 	2.6209018e-21 	3.0343358e-39
0.54523117 	0.00048899494 	-0.0085012181 	-3.8664692e-21 	-0.00049328646 	-2.6805367e-21 	3.5274254e-39
0.5869734 	0.00048067101 	-0.0091308068 	-3.4320914e-21 	-0.00048621213 	-1.1476349e-21 	8.3412807e-40
0.63182992 	0.00047037696 	-0.0097673345 	-1.3500958e-22 	-0.00047739451 	9.6416648e-22 	1.1720451e-39
0.6800331 	0.00045852791 	-0.010397526 	5.5345752e-21 	-0.00046725355 	-4.2167033e-21 	2.5069921e-39
0.73183261 	0.00044540636 	-0.011003962 	3.7321842e-21 	-0.00045607525 	7.4458221e-22 	4.3621232e-39
0.78749677 	0.00043110543 	-0.011564547 	3.1057567e-20 	-0.0004439371 	7.6129246e-21 	8.4040148e-40
0.8473139 	0.0004154147 	-0.012052197 	-3.6814726e-21 	-0.00043057999 	3.7072637e-22 	-5.1506404e-39
0.91159387 	0.00039762675 	-0.012434949 	-4.8512452e-21 	-0.00041524016 	-3.624716e-21 	2.7213841e-40
0.98066963 	0.00037633542 	-0.012676768 	4.416562e-20 	-0.00039639975 	1.2913752e-22 	2.5910957e-39
1.054899 	0.00034922213 	-0.012739483 	1.6542574e-20 	-0.00037160282 	-1.3027004e-21 	-7.5998202e-39
1.1346664 	0.00031288717 	-0.012586216 	4.4343694e-21 	-0.00033732998 	8.2223654e-22 	-1.0769333e-38
1.1668532 	0.00029422551 	-0.012436505 	-5.1237625e-21 	-0.00031919855 	-7.3685447e-22 	-7.5018909e-39
1.2204494 	0.00026413134 	-0.01218782 	-2.0243416e-20 	-0.00028792569 	-3.2843855e-21 	-1.6363277e-39
1.3126654 	0.00019788292 	-0.011530285 	5.3824311e-22 	-0.00021975042 	-4.2679714e-21 	8.286729e-39
1.4117494 	0.00011496582 	-0.010627128 	1.8683812e-20 	-0.00013415606 	7.0627093e-21 	7.9306239e-39
1.5182117 	1.6531531e-05 	-0.0095464061 	-4.0201497e-20 	-3.1988717e-05 	1.8398832e-21 	-3.8015158e-39
1.6246594 	-9.4055983e-05 	-0.0084263258 	-1.3658727e-21 	8.1204247e-05 	-2.8972214e-21 	2.0890134e-39
1.7237033 	-0.00019920125 	-0.0073834626 	-1.4760011e-20 	0.00018896557 	1.1267213e-21 	2.0119544e-39
1.8158592 	-0.00028486869 	-0.006451001 	1.1119463e-20 	0.00027728489 	1.9625128e-21 	-2.7527432e-39
1.9016069 	-0.00034793754 	-0.0056280981 	1.8406597e-20 	0.00034213474 	5.5802928e-22 	2.3134517e-39
1.9813925 	-0.00038903499 	-0.0049036897 	-2.5222199e-20 	0.0003846982 	-1.6689397e-21 	-1.6927891e-39
2.0556311 	-0.0004111384 	-0.0042622171 	-2.9757479e-21 	0.00040790545 	6.8106131e-22 	2.7607408e-39
2.1247088 	-0.00041795079 	-0.0036884155 	3.7375633e-21 	0.00041556581 	-5.884098e-23 	4.7441203e-39
2.1889848 	-0.00041300702 	-0.0031694354 	9.6020131e-21 	0.00041126503 	-1.5537104e-21 	-1.4942497e-39
2.2487932 	-0.00039929308 	-0.0026952657 	2.1621362e-20 	0.0003980399 	3.8776115e-22 	-3.8412476e-40
2.3044449 	-0.00037916666 	-0.0022584038 	6.4772078e-20 	0.00037826344 	4.264054e-22 	1.0536227e-39
2.356229 	-0.00035446771 	-0.0018531499 	6.1719555e-20 	0.00035382101 	2.7108157e-21 	-1.8253424e-39
2.4044145 	-0.00032692014 	-0.0014749496 	-6.7847883e-21 	0.0003265098 	2.6627019e-21 	-3.4037524e-40
2.4492518 	-0.00029905147 	-0.0011225097 	-2.3426989e-20 	0.00029882058 	-9.0580635e-22 	1.5099049e-39
2.4909736 	-0.00027293979 	-0.00079405654 	-8.1518956e-21 	0.00027280575 	-6.5072093e-22 	-3.3572227e-40
2.5297965 	-0.00024924935 	-0.00048559711 	-4.9035437e-21 	0.00024918018 	-3.4000061e-22 	9.2939676e-41
2.5659222 	-0.00022835727 	-0.00019469514 	-3.8261745e-21 	0.00022833646 	-7.9983576e-22 	3.1824933e-40
2.5828744 	-0.00021940537 	-5.5944506e-05 	-2.1046201e-21 	0.00021940596 	-2.9134296e-22 	-3.3784529e-41
2.5995508 	-0.00021057539 	8.0553464e-05 	-7.3214723e-22 	0.00021059556 	1.7635789e-22 	-3.6781882e-40
2.6308527 	-0.00019613888 	0.00034153793 	1.241287e-20 	0.00019620228 	1.6098811e-21 	-4.949707e-40
2.659977 	-0.00018524877 	0.0005900282 	-1.452406e-20 	0.00018531686 	6.3553482e-24 	1.6936499e-40
2.6870756 	-0.00017738477 	0.0008273012 	-1.5535163e-20 	0.00017742229 	-1.9550142e-21 	8.3032486e-40
2.7122895 	-0.00017141892 	0.0010525635 	2.1457233e-21 	0.00017144722 	2.4150032e-22 	8.3917306e-41
2.7357501 	-0.00016666973 	0.0012646695 	-7.1416085e-21 	0.00016670511 	1.7055079e-21 	-2.2109206e-40
2.7575795 	-0.00016284571 	0.0014628445 	-7.0836591e-21 	0.00016288105 	-6.7928701e-22 	6.0510182e-41
2.7778912 	-0.00015975225 	0.0016463057 	1.2415831e-21 	0.00015978125 	-1.8443009e-21 	-9.6795654e-41
2.7967909 	-0.00015721894 	0.0018144091 	3.831918e-21 	0.00015724085 	6.49558e-22 	-4.7656243e-41
2.8143769 	-0.00015508517 	0.0019667506 	-3.4744184e-21 	0.00015510104 	7.0187813e-22 	-3.464817e-41
2.8307405 	-0.00015319812 	0.0021031963 	-9.7839918e-22 	0.00015320888 	-2.1045587e-22 	2.874011e-41
2.8459669 	-0.00015141163 	0.0022238875 	1.5201289e-21 	0.00015141836 	5.2929791e-22 	-1.7626839e-41
2.8601351 	-0.00014958971 	0.0023292309 	-6.3717043e-22 	0.00014959334 	2.6501179e-22 	1.8926348e-41
2.8733187 	-0.00014760946 	0.0024198608 	-1.0671725e-22 	0.00014761078 	-1.1438185e-21 	-4.0224578e-41
2.8855863 	-0.00014536353 	0.0024965966 	5.7185805e-21 	0.00014536321 	-4.1866844e-22 	-7.5584693e-41
2.8970015 	-0.00014276193 	0.0025603925 	-6.4059384e-22 	0.00014276038 	5.4645438e-22 	1.9002866e-41
2.9076235 	-0.00013973224 	0.0026122913 	-4.1096711e-21 	0.00013972998 	-9.2526049e-22 	3.071699e-42
2.9175076 	-0.00013621986 	0.0026533792 	4.150771e-21 	0.00013621719 	-3.2980551e-22 	2.5243002e-41
2.9267051 	-0.00013218729 	0.0026847472 	2.2304472e-21 	0.00013218412 	1.1529291e-21 	2.964859e-41
2.9352636 	-0.00012761185 	0.0027073763 	-5.84189e-21 	0.0001276096 	3.8094449e-22 	-1.298956e-41
2.9432275 	-0.00012249289 	0.0027221609 	2.7937663e-22 	0.0001224911 	-4.434038e-22 	1.8064097e-41
2.9506383 	-0.00011684121 	0.0027300412 	4.2834993e-21 	0.00011683879 	8.2727733e-23 	-1.2833799e-41
2.9575343 	-0.0001106658 	0.0027318473 	1.5747516e-21 	0.00011066359 	9.1075119e-23 	-3.6866218e-41
2.9639513 	-0.00010398206 	0.0027281602 	1.0076653e-21 	0.00010397997 	2.4298626e-23 	2.4730078e-41
2.9699226 	-9.6814999e-05 	0.0027193393 	-3.0165059e-21 	9.6812695e-05 	2.0301283e-23 	-1.0169066e-42
2.9754792 	-8.9200336e-05 	0.0027054849 	-6.3892638e-22 	8.9197527e-05 	-2.0668674e-22 	8.0187501e-42
2.9806499 	-8.1187509e-05 	0.0026863479 	-4.1815185e-22 	8.1183822e-05 	-8.7810378e-23 	-6.8354431e-42
2.9854614 	-7.284483e-05 	0.0026612029 	-7.6151707e-22 	7.2839973e-05 	-1.6650702e-23 	-5.0351169e-42
2.9899388 	-6.4267229e-05 	0.0026286657 	6.7498313e-22 	6.4260971e-05 	2.3213173e-22 	9.459533e-45
2.9941053 	-5.558428e-05 	0.0025864391 	-1.1634555e-21 	5.5576719e-05 	1.2359332e-22 	5.6284658e-42
2.9979824 	-4.6966076e-05 	0.0025309909 	-2.187896e-22 	4.6957877e-05 	-3.1423625e-23 	-1.0396622e-43
3.0015902 	-3.8622313e-05 	0.0024571981 	9.5756732e-22 	3.8614653e-05 	-8.9702119e-23 	-1.9384613e-42
3.0049475 	-3.0789297e-05 	0.0023580867 	2.1157777e-22 	3.078362e-05 	-7.0416854e-23 	1.1369247e-43
3.0080717 	-2.3702685e-05 	0.0022249956 	-6.4394467e-23 	2.3700152e-05 	2.5558774e-23 	-1.4317893e-42
3.0109789 	-1.7559448e-05 	0.0020487805 	-8.7425931e-23 	1.7560318e-05 	-2.9908633e-23 	-2.7941065e-43
3.0136843 	-1.2479907e-05 	0.0018228714 	-5.0719943e-23 	1.2483256e-05 	6.0333257e-24 	-7.6835548e-43
3.0162017 	-8.484915e-06 	0.0015484055 	3.2929782e-23 	8.4889527e-06 	-1.09903e-23 	1.3303423e-42
3.0185444 	-5.4990774e-06 	0.0012394443 	7.1610334e-24 	5.5021196e-06 	-2.2502351e-23 	2.2837019e-43
3.0207244 	-3.3789226e-06 	0.00092356419 	-2.3567659e-24 	3.3803292e-06 	6.8693425e-24 	1.0436912e-43
3.022753 	-1.9516914e-06 	0.00063425063 	1.1908427e-23 	1.9519251e-06 	2.7331785e-23 	-1.0002989e-43
3.0246408 	-1.0469304e-06 	0.00039834987 	-7.9908133e-24 	1.0467462e-06 	1.0891964e-23 	-6.2767901e-44
3.0263975 	-5.1325433e-07 	0.00022716247 	-3.2049663e-24 	5.13071e-07 	-1.3182244e-23 	9.3854666e-44
3.0280322 	-2.2509355e-07 	0.00011640152 	1.2838444e-24 	2.2499439e-07 	-2.3800502e-24 	-2.7374467e-44
3.0295534 	-8.5621603e-08 	5.2588026e-05 	4.1646444e-25 	8.5582297e-08 	1.7356029e-24 	8.0345208e-45
3.030969 	-2.6892313e-08 	2.0206939e-05 	1.9801299e-26 	2.68963e-08 	2.1774024e-26 	-2.8321777e-46
3.0322862 	-6.4010121e-09 	6.1641618e-06 	-3.1368201e-27 	6.4155894e-09 	-4.2654216e-26 	1.7383744e-46
3.0335121 	-9.7722349e-10 	1.298538e-06 	1.1242601e-28 	9.7196853e-10 	-7.1018895e-27 	-2.7229026e-47
3.0346528 	-6.3883881e-11 	1.3641445e-07 	8.5490894e-29 	5.5701221e-11 	1.4068601e-27 	2.6660088e-48
3.0357143 	0 	0 	0 	0 	0 	0
