0 	0 	0 	0 	0 	0 	0
0.0010637159 	1.125347e-06 	2.9023694e-09 	-2.6725081e-32 	1.1253534e-06 	-2.1531551e-31 	1.1253502e-06
0.0022067933 	3.6828713e-06 	4.8234913e-08 	-4.4329479e-31 	3.6830849e-06 	3.4516251e-30 	3.6829782e-06
0.0034351532 	1.5921199e-05 	4.3930372e-07 	-4.1668927e-31 	1.5924109e-05 	1.9273904e-28 	1.5922656e-05
0.0047551584 	4.9222151e-05 	2.3861025e-06 	3.9613459e-28 	4.9244092e-05 	-1.6434836e-28 	4.9233136e-05
0.0061736463 	0.00012170612 	9.2099425e-06 	-4.9275725e-28 	0.00012181991 	-2.7562103e-27 	0.00012176312
0.0076979646 	0.00025800116 	2.7649864e-05 	9.2458508e-28 	0.00025845655 	-1.545048e-28 	0.00025822928
0.0093360089 	0.00048591016 	6.7204752e-05 	-3.5470192e-27 	0.00048740809 	-5.6153223e-27 	0.00048665974
0.011096264 	0.00082636092 	0.00013386302 	-5.051798e-27 	0.00083054429 	1.6137506e-26 	0.00082845087
0.012987848 	0.0012789369 	0.00021936287 	2.7223909e-26 	0.0012890142 	-3.8713309e-26 	0.0012839664
0.015020559 	0.0018162621 	0.00029911573 	-1.3599402e-25 	0.0018374437 	-1.5370294e-25 	0.0018268361
0.017204926 	0.002396885 	0.00034753007 	-3.2895808e-25 	0.002436324 	3.001417e-25 	0.0024165895
0.019552264 	0.002984815 	0.00035418127 	6.4356651e-25 	0.0030511119 	3.7774428e-25 	0.0030179611
0.022074732 	0.0035586653 	0.00032338142 	4.8174012e-26 	0.0036612766 	-1.0115724e-24 	0.0036099829
0.024785396 	0.0041096202 	0.00026442871 	-2.9489723e-24 	0.0042584287 	-6.2936106e-25 	0.0041840441
0.027698296 	0.0046361539 	0.00018520298 	-1.604922e-24 	0.0048412588 	1.2871595e-24 	0.004738727
0.030828522 	0.0051400354 	9.076565e-05 	5.7892493e-25 	0.0054116996 	7.2649503e-25 	0.0052758857
0.034192287 	0.0056241732 	-1.6039606e-05 	2.2728538e-26 	0.0059728455 	-1.7364906e-24 	0.0057985243
0.037807015 	0.0060916479 	-0.00013377792 	-1.0328669e-23 	0.0065280049 	-1.2543958e-24 	0.0063098383
0.04169143 	0.0065453436 	-0.0002618544 	-6.6061535e-24 	0.0070803241 	3.2718741e-24 	0.0068128431
0.045865653 	0.0069878461 	-0.00040017776 	1.0115299e-23 	0.0076326691 	1.9145998e-24 	0.0073102648
0.050351306 	0.0074214519 	-0.00054896928 	1.5729345e-24 	0.0081876159 	-2.1715746e-24 	0.0078045393
0.055171623 	0.007848214 	-0.00070865562 	-4.8331581e-24 	0.0087474757 	-2.0792463e-24 	0.0082978489
0.060351574 	0.0082700014 	-0.00087980816 	-1.6307559e-23 	0.0093143318 	-1.8975935e-24 	0.0087921694
0.06591799 	0.0086885562 	-0.0010631088 	-2.3058603e-23 	0.009890074 	8.3085924e-25 	0.0092893169
0.071899704 	0.0091055464 	-0.0012593303 	-6.8555152e-24 	0.010476427 	-2.0689302e-24 	0.0097909876
0.078327701 	0.0095226142 	-0.0014693224 	-4.9612498e-23 	0.011074973 	-4.8444226e-24 	0.010298794
0.085235276 	0.0099414193 	-0.0016940055 	-3.8181952e-23 	0.011687167 	5.8381803e-24 	0.010814293
0.092658211 	0.010363679 	-0.001934363 	2.2921016e-23 	0.012314348 	6.2179211e-24 	0.011339012
0.10063495 	0.010791203 	-0.0021914422 	1.1351914e-23 	0.012957745 	-4.5201881e-24 	0.011874472
0.10920683 	0.011225927 	-0.0024663503 	-2.3703265e-23 	0.01361848 	1.7189069e-24 	0.012422201
0.11841823 	0.01166994 	-0.002760243 	6.9545103e-23 	0.014297565 	4.4715583e-24 	0.01298375
0.12831687 	0.012125509 	-0.0030743207 	-1.2611487e-23 	0.014995902 	-1.9037654e-23 	0.013560702
0.13895403 	0.012595093 	-0.0034098223 	-1.0605226e-22 	0.015714273 	-6.3230896e-24 	0.01415468
0.1503848 	0.01308136 	-0.0037680125 	6.6351489e-25 	0.016453331 	2.1408526e-23 	0.014767343
0.1626684 	0.01358718 	-0.0041501551 	8.0971326e-23 	0.017213586 	2.1193445e-23 	0.015400381
0.17586845 	0.01411561 	-0.0045574883 	8.1161489e-23 	0.017995388 	1.5419419e-23 	0.016055496
0.19005333 	0.014669866 	-0.0049911956 	1.0765324e-22 	0.018798896 	4.047541e-23 	0.016734376
0.20529651 	0.015253263 	-0.0054523534 	2.5789261e-22 	0.019624017 	3.8870011e-23 	0.017438639
0.22167696 	0.015869129 	-0.0059419393 	7.7330667e-23 	0.020470377 	-1.6522345e-23 	0.018169761
0.23927951 	0.016520827 	-0.0064603584 	1.5250015e-23 	0.02133714 	-1.0482679e-23 	0.018928987
0.25819535 	0.017211238 	-0.0070079299 	-6.6350331e-23 	0.022223119 	-1.7078501e-23 	0.019717166
0.27852246 	0.017942545 	-0.0075846388 	1.8247681e-23 	0.023126434 	5.4896604e-23 	0.020534485
0.30036613 	0.01871634 	-0.0081892713 	1.4296518e-22 	0.024043944 	1.0729051e-23 	0.021380173
0.32383951 	0.019532964 	-0.0088197685 	-7.9682629e-23 	0.024971193 	-6.2667308e-23 	0.022252153
0.34906419 	0.020390899 	-0.0094728261 	4.9748543e-23 	0.025902358 	1.0498692e-22 	0.023146488
0.37617083 	0.021286139 	-0.010142324 	9.6505108e-23 	0.02682968 	-1.0353097e-23 	0.024056668
0.40529983 	0.022213478 	-0.010817043 	9.9585633e-23 	0.027734348 	-2.4034792e-22 	0.024972775
0.43660209 	0.023161866 	-0.011545593 	6.2817434e-23 	0.028594673 	2.8956356e-23 	0.025880741
0.47023974 	0.024177115 	-0.012169603 	-1.9376299e-22 	0.029347584 	1.9096471e-22 	0.026765407
0.50638702 	0.025244753 	-0.012616696 	1.5535017e-22 	0.029970004 	-9.6547177e-23 	0.027606431
0.54523117 	0.026236605 	-0.013010894 	3.0540806e-24 	0.030466475 	1.8316729e-22 	0.028349598
0.5869734 	0.027033715 	-0.013304953 	-1.6217496e-21 	0.030751976 	6.7393758e-22 	0.028892458
0.63182993 	0.02755167 	-0.013457854 	-1.3057029e-21 	0.030737897 	3.2130431e-22 	0.029145124
0.6800331 	0.027730674 	-0.013440285 	-1.306705e-21 	0.030351292 	3.487471e-22 	0.029041389
0.73183261 	0.027510966 	-0.01322506 	-2.5750932e-21 	0.029530221 	5.5020191e-22 	0.028520815
0.78749677 	0.026871468 	-0.01280669 	-1.2178206e-21 	0.028269477 	-9.2041329e-24 	0.027570473
0.84731391 	0.025851039 	-0.012209326 	1.6750578e-21 	0.026634533 	-4.6216421e-22 	0.026242649
0.91159388 	0.024557421 	-0.011487157 	3.8782873e-21 	0.024759142 	-4.7159408e-22 	0.024658113
0.98066963 	0.023157896 	-0.010718176 	2.4192576e-21 	0.022827406 	-5.6338288e-23 	0.022992492
1.054899 	0.021829882 	-0.0099835858 	-2.5028487e-21 	0.021021428 	4.0615418e-22 	0.021425586
1.1346664 	0.020692314 	-0.0093394118 	-4.0784666e-21 	0.019457828 	3.5374979e-22 	0.02007466
1.2203851 	0.019767005 	-0.0087978183 	-1.1712097e-21 	0.018149871 	-1.0523352e-23 	0.018957927
1.3124991 	0.018999054 	-0.0083284905 	1.297733e-21 	0.01702126 	9.6311033e-23 	0.018010943
1.4114856 	0.018281813 	-0.0078220793 	-2.2666308e-20 	0.015981022 	1.7722452e-21 	0.017132053
1.5178571 	0.017512969 	-0.0072720687 	-3.573806e-20 	0.014962895 	2.0350929e-21 	0.01623745
1.6242287 	0.016672222 	-0.0067637154 	-1.8125102e-20 	0.01395192 	6.0388697e-22 	0.015311951
1.7232152 	0.015796843 	-0.0062789557 	-6.3378271e-21 	0.012972438 	1.1746523e-22 	0.014384729
1.8153292 	0.014917887 	-0.0057946391 	1.5402591e-22 	0.01203859 	1.6749459e-23 	0.013478218
1.9010479 	0.014053522 	-0.0053093159 	-8.6700777e-21 	0.0111602 	3.1525063e-22 	0.012606865
1.9808153 	0.013216707 	-0.0048247193 	1.7185299e-21 	0.010344572 	-2.0642892e-22 	0.011780649
2.0550447 	0.012416412 	-0.0043435502 	1.0201454e-20 	0.0095960426 	-2.6952377e-22 	0.01100623
2.1241204 	0.011658099 	-0.0038699722 	-4.0344845e-21 	0.0089158767 	2.7171846e-22 	0.010286991
2.1884004 	0.010944466 	-0.0034084922 	-3.7787935e-21 	0.008302656 	6.1813843e-23 	0.0096235475
2.2482175 	0.010275964 	-0.002962672 	-2.4092838e-23 	0.0077531016 	-5.799622e-23 	0.0090145121
2.3038817 	0.0096519439 	-0.0025353105 	1.6800995e-21 	0.0072625918 	-1.2329315e-22 	0.0084572695
2.3556812 	0.0090716479 	-0.0021289327 	7.8382549e-21 	0.0068257463 	-2.2268673e-22 	0.0079486992
2.4038844 	0.0085336534 	-0.001744721 	5.9955505e-21 	0.0064374905 	-8.8687557e-23 	0.0074855637
2.4487409 	0.008036203 	-0.0013830541 	3.515237e-21 	0.0060931203 	6.618928e-24 	0.0070646577
2.4904831 	0.0075778597 	-0.0010441522 	-1.6688438e-23 	0.005788152 	9.1128099e-23 	0.0066830024
2.5293273 	0.0071573661 	-0.00072773118 	-3.5575816e-21 	0.005518626 	5.8410261e-23 	0.0063379917
2.5654745 	0.0067737148 	-0.00043318787 	9.27234e-24 	0.0052811759 	-2.6541947e-23 	0.0060274439
2.5991122 	0.0064261538 	-0.00015972259 	-1.0766396e-21 	0.0050730745 	7.6401908e-23 	0.0057496149
2.6304145 	0.0061141429 	9.3626827e-05 	-3.3237091e-21 	0.0048922225 	6.8206086e-23 	0.0055031843
2.6595435 	0.0058373187 	0.0003279666 	-2.2729101e-21 	0.0047371114 	6.7489317e-24 	0.005287217
2.6866501 	0.005595441 	0.00054449235 	-1.5040213e-21 	0.004606759 	3.3943396e-23 	0.0051011038
2.7118748 	0.0053883353 	0.00074448598 	-2.5341624e-21 	0.0045006201 	5.1465219e-23 	0.0049444829
2.7353482 	0.005215805 	0.00092930574 	-2.1209884e-21 	0.0044184734 	-3.2460496e-23 	0.0048171445
2.7571918 	0.0050775464 	0.0011003563 	1.3277054e-22 	0.0043602892 	-4.6932884e-23 	0.0047189228
2.7775189 	0.0049730639 	0.0012590713 	1.0095464e-22 	0.0043261001 	5.3420367e-23 	0.0046495878
2.7964348 	0.0049019112 	0.0014070002 	-1.7283683e-21 	0.0043161423 	2.723904e-23 	0.0046090313
2.8140373 	0.0048626804 	0.0015455394 	-4.4504883e-22 	0.0043298913 	-5.0360219e-23 	0.0045962887
2.8304178 	0.0048535696 	0.0016759882 	3.0562863e-22 	0.0043665126 	-2.7353588e-23 	0.0046100438
2.845661 	0.0048729993 	0.0017996065 	4.0958129e-22 	0.0044253626 	3.0185268e-24 	0.0046491834
2.8598458 	0.0049186941 	0.0019173614 	1.2729783e-22 	0.004505126 	7.7388955e-24 	0.004711911
2.8730459 	0.0049880031 	0.0020299776 	1.0635538e-22 	0.004604069 	-1.1837431e-23 	0.0047960357
2.8853295 	0.0050779517 	0.002137872 	3.5553364e-22 	0.004720063 	-7.8359269e-24 	0.0048990086
2.8967603 	0.0051853158 	0.0022411545 	2.2635273e-22 	0.004850629 	1.7643355e-23 	0.0050179867
2.9073974 	0.0053067055 	0.002339804 	-1.0225314e-22 	0.0049931349 	2.507544e-23 	0.0051499196
2.9172961 	0.0054387986 	0.002438526 	-3.193713e-22 	0.0051446043 	6.701447e-24 	0.0052916676
2.9265075 	0.0055774152 	0.0025251979 	-2.0341643e-22 	0.0053027433 	-7.0456848e-24 	0.0054400691
2.9350793 	0.0057195432 	0.0025971672 	-1.2201536e-22 	0.0054645187 	-1.1757994e-23 	0.0055920507
2.9430561 	0.0058617476 	0.0026679529 	4.1756286e-23 	0.0056246479 	-4.925101e-24 	0.0057432083
2.950479 	0.0059975744 	0.002735392 	-8.6229934e-24 	0.0057771245 	5.6329889e-24 	0.0058873488
2.9573866 	0.0061204439 	0.0027965895 	-5.370703e-23 	0.0059159602 	-2.9588632e-24 	0.0060181985
2.9638146 	0.006224687 	0.0028490192 	2.9556962e-23 	0.0060359051 	-2.3205787e-24 	0.006130293
2.9697963 	0.006305805 	0.0028906466 	-9.2744011e-24 	0.006132676 	3.5863745e-24 	0.0062192383
2.9753627 	0.0063603154 	0.002919871 	-2.2395562e-23 	0.0062028496 	-3.0229415e-25 	0.0062815808
2.9805427 	0.006385542 	0.0029354394 	-4.048498e-24 	0.0062437009 	-2.2469491e-24 	0.00631462
2.985363 	0.0063794415 	0.0029363762 	7.6790927e-24 	0.0062530667 	-1.3871743e-24 	0.0063162529
2.9898486 	0.0063400701 	0.0029217423 	1.1361173e-23 	0.0062288456 	7.3057008e-25 	0.0062844568
2.9940229 	0.0062652526 	0.0028904879 	3.2620449e-25 	0.006168688 	1.3991051e-24 	0.0062169695
2.9979073 	0.0061524365 	0.0028413867 	-3.337924e-24 	0.0060698631 	2.7147033e-25 	0.0061111491
3.001522 	0.0059983356 	0.0027728746 	-2.7294693e-24 	0.0059289146 	-7.3110596e-25 	0.0059636245
3.0048858 	0.0057986533 	0.0026829245 	2.1068323e-24 	0.0057413936 	-9.1721368e-25 	0.0057700231
3.008016 	0.0055478648 	0.0025689512 	4.848001e-24 	0.0055016467 	-1.8387973e-25 	0.0055247556
3.0109289 	0.0052392024 	0.0024277726 	2.5974892e-24 	0.0052028097 	6.5733922e-26 	0.0052210061
3.0136396 	0.0048650166 	0.002255761 	2.5946485e-24 	0.0048371735 	2.1704958e-25 	0.0048510949
3.016162 	0.004417808 	0.0020494712 	5.4417489e-25 	0.0043972136 	1.9875938e-25 	0.0044075119
3.0185094 	0.0038918851 	0.0018050834 	5.4688569e-25 	0.003877267 	1.0277343e-25 	0.0038845772
3.0206937 	0.0032844562 	0.001504411 	0 	0.0032747074 	-5.3612428e-26 	0.0032795813
3.0227264 	0.0026066004 	0.001149019 	2.3614506e-25 	0.0026006765 	-6.9794248e-26 	0.0026036388
3.024618 	0.001900107 	0.00077672345 	1.5479503e-25 	0.001896922 	1.2853363e-25 	0.0018985156
3.0263783 	0.001240258 	0.00044207917 	-8.1398358e-26 	0.0012388102 	4.0951711e-26 	0.0012395345
3.0280163 	0.00070907978 	0.00020188531 	-5.460375e-27 	0.00070854961 	-5.6771503e-27 	0.00070881474
3.0295406 	0.00034865973 	7.1012251e-05 	-6.731685e-27 	0.00034851065 	2.5432274e-27 	0.00034858516
3.0309591 	0.00014360364 	1.8456705e-05 	-1.2695342e-27 	0.00014357317 	-1.4140945e-27 	0.00014358839
3.0322791 	4.6780184e-05 	3.2959712e-06 	7.7356506e-30 	4.677606e-05 	-3.4138161e-28 	4.677812e-05
3.0335075 	1.1010999e-05 	3.4805885e-07 	6.9240685e-30 	1.1010695e-05 	-9.697982e-30 	1.1010847e-05
3.0346506 	4.4740726e-06 	2.3047659e-08 	1.9686174e-31 	4.4740624e-06 	9.7725985e-31 	4.4740675e-06
3.0357143 	0 	0 	0 	0 	0 	0
