y,R_0,R_1,R_2,R_3,R_4,R_5
0,6.6666667e-11,0,0,6.6666667e-11,0,6.6666667e-11
0.00086769924,6.5858565e-11,-3.5782537e-18,2.0972926e-38,6.5858565e-11,7.476024e-36,6.5858565e-11
0.0017874829,6.5019238e-11,-3.4824426e-18,1.2196526e-33,6.5019238e-11,4.8225141e-36,6.5019238e-11
0.0027624773,6.413551e-11,-3.379997e-18,9.8962928e-34,6.413551e-11,-1.3569478e-35,6.413551e-11
0.0037959966,6.3205452e-11,-3.2711831e-18,-1.0437405e-33,6.3205452e-11,-1.4316472e-35,6.3205452e-11
0.0048915537,6.222711e-11,-3.1565495e-18,-2.5813875e-33,6.222711e-11,5.4923097e-36,6.222711e-11
0.0060528726,6.1198518e-11,-3.0366507e-18,-1.5684317e-34,6.1198518e-11,3.4398278e-36,6.1198518e-11
0.0072839007,6.0117701e-11,-2.9120513e-18,-2.4969199e-33,6.0117701e-11,6.3234116e-36,6.0117701e-11
0.0085888223,5.8982699e-11,-2.7833274e-18,2.4441741e-33,5.8982699e-11,1.7876221e-35,5.8982699e-11
0.0099720729,5.7791574e-11,-2.6510678e-18,4.7372642e-33,5.7791574e-11,-5.6384373e-36,5.7791574e-11
0.011438354,5.6542435e-11,-2.5158753e-18,1.5578933e-34,5.6542435e-11,-3.1016776e-35,5.6542435e-11
0.01299265,5.5233461e-11,-2.3783665e-18,-9.4547717e-33,5.5233461e-11,-7.6559809e-36,5.5233461e-11
0.014640245,5.3862924e-11,-2.2391728e-18,-3.3125262e-33,5.3862924e-11,3.4135647e-35,5.3862924e-11
0.016386737,5.2429218e-11,-2.09894e-18,8.1103438e-33,5.2429218e-11,7.4403718e-36,5.2429218e-11
0.018238064,5.0930903e-11,-1.9583277e-18,-1.4954529e-39,5.0930903e-11,-1.1300208e-35,5.0930903e-11
0.020200518,4.9366734e-11,-1.8180086e-18,2.1105657e-33,4.9366734e-11,1.4865926e-35,4.9366734e-11
0.022280771,4.7735721e-11,-1.6786667e-18,8.3848051e-33,4.7735721e-11,2.2190292e-36,4.7735721e-11
0.024485892,4.6037171e-11,-1.5409949e-18,2.3889533e-33,4.6037171e-11,-2.3669288e-35,4.6037171e-11
0.026823378,4.427076e-11,-1.4056924e-18,-6.7013376e-33,4.427076e-11,-8.5850718e-36,4.427076e-11
0.029301173,4.2436599e-11,-1.2734603e-18,-2.2359336e-33,4.2436599e-11,7.0626243e-36,4.2436599e-11
0.0319277,4.0535318e-11,-1.144997e-18,-1.4873359e-33,4.0535318e-11,7.1024278e-36,4.0535318e-11
0.034711887,3.8568157e-11,-1.0209911e-18,2.6435212e-33,3.8568157e-11,5.9516913e-36,3.8568157e-11
0.037663197,3.6537074e-11,-9.0211608e-19,1.8655059e-33,3.6537074e-11,-7.4283089e-36,3.6537074e-11
0.040791661,3.4444868e-11,-7.8901998e-19,-2.8484729e-33,3.4444868e-11,-4.3661982e-36,3.4444868e-11
0.044107915,3.2295312e-11,-6.8231585e-19,-5.44901e-34,3.2295312e-11,3.2805438e-36,3.2295312e-11
0.047623229,3.0093313e-11,-5.8257102e-19,-1.004368e-34,3.0093313e-11,2.8536268e-37,3.0093313e-11
0.051349553,2.7845088e-11,-4.9029316e-19,-2.1109793e-34,2.7845088e-11,-2.2871086e-37,2.7845088e-11
0.055299553,2.5558367e-11,-4.059164e-19,-1.3832478e-34,2.5558367e-11,-1.0531396e-36,2.5558367e-11
0.059486654,2.3242617e-11,-3.2978631e-19,-7.2463651e-34,2.3242617e-11,-1.044397e-36,2.3242617e-11
0.06392509,2.0909304e-11,-2.6214277e-19,-4.518258e-34,2.0909304e-11,2.0152782e-36,2.0909304e-11
0.068629948,1.8572182e-11,-2.0310318e-19,8.9823993e-34,1.8572182e-11,1.2432229e-36,1.8572182e-11
0.073617218,1.6247622e-11,-1.5264578e-19,1.0852491e-34,1.6247622e-11,-3.9505716e-38,1.6247622e-11
0.078903853,1.3954988e-11,-1.1059358e-19,4.4441234e-34,1.3954988e-11,5.1818216e-37,1.3954988e-11
0.084507823,1.1717048e-11,-7.6601252e-20,1.5679455e-34,1.1717048e-11,-8.7684482e-37,1.1717048e-11
0.090448176,9.5604536e-12,-5.014606e-20,-2.9772995e-34,9.5604536e-12,-4.0799469e-37,9.5604536e-12
0.096745104,7.5162701e-12,-3.0525467e-20,-4.033256e-36,7.5162701e-12,2.724623e-37,7.5162701e-12
0.10342001,5.620574e-12,-1.6864824e-20,5.1857112e-36,5.620574e-12,-1.2808775e-37,5.620574e-12
0.11049558,3.9151282e-12,-8.1393295e-21,-4.1895464e-35,3.9151282e-12,-1.1321303e-37,3.9151282e-12
0.11799587,2.4481374e-12,-3.2157239e-21,-2.5751065e-35,2.4481374e-12,5.5229146e-38,2.4481374e-12
0.12594638,1.2751058e-12,-9.2104658e-22,1.5527124e-35,1.2751058e-12,2.7505489e-38,1.2751058e-12
0.13437411,4.5976412e-13,-1.4752201e-22,-5.4966318e-37,4.5976412e-13,-4.4478781e-39,4.5976412e-13
0.14330773,7.5344345e-14,-5.2856728e-24,7.5887851e-39,7.5344345e-14,3.1747349e-41,7.5344345e-14
0.1527776,6.6666667e-16,-2.017192e-28,-1.4239233e-43,6.6666667e-16,-1.4981053e-45,6.6666667e-16
0.1628159,6.6666667e-16,-1.9707647e-28,-8.8361907e-43,6.6666667e-16,-1.8753835e-45,6.6666667e-16
0.17345677,6.6666667e-16,-1.9248133e-28,-4.5966723e-43,6.6666667e-16,1.85114e-45,6.6666667e-16
0.18473635,6.6666667e-16,-1.8793437e-28,9.9676049e-43,6.6666667e-16,2.9358021e-45,6.6666667e-16
0.19669301,6.6666667e-16,-1.8343565e-28,4.031384e-43,6.6666667e-16,-9.2639088e-46,6.6666667e-16
0.20936737,6.6666667e-16,-1.789848e-28,-1.7530731e-43,6.6666667e-16,-9.639566e-46,6.6666667e-16
0.22280253,6.6666667e-16,-1.7458103e-28,5.9505329e-48,6.6666667e-16,2.4888232e-46,6.6666667e-16
0.23704414,6.6666667e-16,-1.702229e-28,3.1427173e-47,6.6666667e-16,-8.9428857e-50,6.6666667e-16
0.25214061,6.6666667e-16,-1.6590848e-28,8.0631254e-48,6.6666667e-16,2.3638159e-50,6.6666667e-16
0.26814327,6.6666667e-16,-1.6163524e-28,-2.6547575e-47,6.6666667e-16,1.3694045e-45,6.6666667e-16
0.28510649,6.6666667e-16,-1.5740005e-28,9.2630099e-43,6.6666667e-16,2.8710865e-45,6.6666667e-16
0.30308795,6.6666667e-16,-1.5319909e-28,4.5821542e-44,6.6666667e-16,-2.5137518e-45,6.6666667e-16
0.32214876,6.6666667e-16,-1.4902782e-28,-8.7697014e-43,6.6666667e-16,-2.7215823e-45,6.6666667e-16
0.34235371,6.6666667e-16,-1.4488087e-28,2.4747844e-47,6.6666667e-16,1.2840232e-45,6.6666667e-16
0.36377149,6.6666667e-16,-1.4075208e-28,2.8360144e-48,6.6666667e-16,-5.1485851e-50,6.6666667e-16
0.38647488,6.6666667e-16,-1.3663435e-28,-2.0267043e-47,6.6666667e-16,-1.0339864e-49,6.6666667e-16
0.41054106,6.6666667e-16,-1.3251952e-28,-1.6819672e-47,6.6666667e-16,2.3836436e-45,6.6666667e-16
0.43605183,6.6666667e-16,-1.2839833e-28,1.6332346e-42,6.6666667e-16,7.5905597e-45,6.6666667e-16
0.46309391,6.6666667e-16,-1.2426032e-28,6.9520698e-44,6.6666667e-16,-4.2534519e-45,6.6666667e-16
0.49175922,6.6666667e-16,-1.2009365e-28,-1.5431364e-42,6.6666667e-16,-7.1753345e-45,6.6666667e-16
0.52214518,6.6666667e-16,-1.1588503e-28,-4.2715581e-47,6.6666667e-16,2.1814304e-45,6.6666667e-16
0.55435509,6.6666667e-16,-1.1161954e-28,-2.1697985e-47,6.6666667e-16,-8.5816363e-50,6.6666667e-16
0.58849842,6.6666667e-16,-1.0728051e-28,-1.5718545e-47,6.6666667e-16,-1.1511923e-49,6.6666667e-16
0.62469124,6.6666667e-16,-1.0284935e-28,-2.3087546e-47,6.6666667e-16,-2.584523e-49,6.6666667e-16
0.66305656,6.6666667e-16,-9.8305452e-29,-6.2547677e-47,6.6666667e-16,2.1493319e-46,6.6666667e-16
0.70372479,6.6666667e-16,-9.3625957e-29,1.9997103e-43,6.6666667e-16,2.19997e-45,6.6666667e-16
0.74683417,6.6666667e-16,-8.8785705e-29,2.1821661e-44,6.6666667e-16,-2.385358e-46,6.6666667e-16
0.79253123,6.6666667e-16,-8.3757256e-29,-2.0109342e-43,6.6666667e-16,-2.1799136e-45,6.6666667e-16
0.84097128,6.6666667e-16,-7.8510794e-29,5.7314511e-47,6.6666667e-16,2.3761036e-46,6.6666667e-16
0.892319,6.6666667e-16,-7.3014204e-29,7.8887554e-47,6.6666667e-16,6.9895089e-46,6.6666667e-16
0.9467489,6.6666667e-16,-6.7233538e-29,6.8176223e-43,6.6666667e-16,7.2419917e-45,6.6666667e-16
1.004446,6.6666667e-16,-6.1133466e-29,4.0649458e-44,6.6666667e-16,-1.433471e-45,6.6666667e-16
1.0656064,6.6666667e-16,-5.4678035e-29,-1.1898418e-42,6.6666667e-16,-1.2622205e-44,6.6666667e-16
1.1304381,6.6666667e-16,-4.7832025e-29,-2.2590196e-44,6.6666667e-16,1.3775272e-45,6.6666667e-16
1.1991613,6.6666667e-16,-4.056271e-29,5.0416772e-43,6.6666667e-16,5.3397315e-45,6.6666667e-16
1.2720096,6.6666667e-16,-3.2842397e-29,-2.6017402e-46,6.6666667e-16,-4.5450033e-46,6.6666667e-16
1.3492308,6.6666667e-16,-2.4651724e-29,5.7928003e-47,6.6666667e-16,7.7811064e-49,6.6666667e-16
1.4310872,6.6666667e-16,-1.5974813e-29,1.1829274e-46,6.6666667e-16,1.2825916e-48,6.6666667e-16
1.5178571,6.6666667e-16,-6.8545201e-30,-1.344137e-46,6.6666667e-16,-1.5081309e-45,6.6666667e-16
1.6046271,6.6666667e-16,2.4232512e-30,-2.0085969e-42,6.6666667e-16,-2.2875088e-44,6.6666667e-16
1.6864835,6.6666667e-16,1.1540841e-29,1.4861431e-43,6.6666667e-16,4.9239851e-45,6.6666667e-16
1.7637046,6.6666667e-16,2.0394412e-29,2.1199951e-42,6.6666667e-16,2.5327478e-44,6.6666667e-16
1.836553,6.6666667e-16,2.8940481e-29,1.3872958e-42,6.6666667e-16,1.3095268e-44,6.6666667e-16
1.9052762,6.6666667e-16,3.7145368e-29,-8.226538e-44,6.6666667e-16,-3.3214664e-45,6.6666667e-16
1.9701079,6.6666667e-16,4.4991154e-29,-1.4731081e-42,6.6666667e-16,-1.5756016e-44,6.6666667e-16
2.0312683,6.6666667e-16,5.2472938e-29,-4.1244776e-47,6.6666667e-16,1.3066731e-45,6.6666667e-16
2.0889654,6.6666667e-16,5.95958e-29,-9.4846619e-46,6.6666667e-16,1.6833594e-45,6.6666667e-16
2.1433953,6.6666667e-16,6.6372233e-29,1.7546191e-42,6.6666667e-16,1.2057016e-44,6.6666667e-16
2.194743,6.6666667e-16,7.2820225e-29,-2.7818055e-42,6.6666667e-16,-2.5400449e-44,6.6666667e-16
2.2431831,6.6666667e-16,7.8961659e-29,-1.6738058e-42,6.6666667e-16,-8.5779447e-45,6.6666667e-16
2.2888801,6.6666667e-16,8.4820791e-29,2.8298905e-42,6.6666667e-16,2.4054434e-44,6.6666667e-16
2.3319895,6.6666667e-16,9.0422983e-29,-7.3247492e-47,6.6666667e-16,-2.9402856e-45,6.6666667e-16
2.3726577,6.6666667e-16,9.5793922e-29,-5.7747466e-47,6.6666667e-16,-2.5037493e-49,6.6666667e-16
2.411023,6.6666667e-16,1.009591e-28,1.6392395e-48,6.6666667e-16,3.4176608e-45,6.6666667e-16
2.4472159,6.6666667e-16,1.059432e-28,3.0357266e-42,6.6666667e-16,1.6685394e-44,6.6666667e-16
2.4813592,6.6666667e-16,1.1076982e-28,-1.788449e-43,6.6666667e-16,-8.0530953e-45,6.6666667e-16
2.5135691,6.6666667e-16,1.1546125e-28,-3.1882797e-42,6.6666667e-16,-1.7555472e-44,6.6666667e-16
2.5439551,6.6666667e-16,1.2003828e-28,-1.2107542e-47,6.6666667e-16,3.6547842e-45,6.6666667e-16
2.5726204,6.6666667e-16,1.245202e-28,1.5602563e-47,6.6666667e-16,9.4978015e-50,6.6666667e-16
2.5826596,6.6666667e-16,1.2615535e-28,8.7936052e-48,6.6666667e-16,5.8570479e-50,6.6666667e-16
2.5996625,6.6666667e-16,1.2892477e-28,-2.7842605e-48,6.6666667e-16,-3.4309229e-51,6.6666667e-16
2.6251732,6.6666667e-16,1.3326818e-28,2.0154115e-47,6.6666667e-16,1.1576978e-49,6.6666667e-16
2.6492394,6.6666667e-16,1.3756517e-28,1.4144385e-48,6.6666667e-16,-2.9742552e-50,6.6666667e-16
2.6719428,6.6666667e-16,1.4182905e-28,-1.0940169e-47,6.6666667e-16,-2.7443582e-50,6.6666667e-16
2.6933606,6.6666667e-16,1.4607174e-28,1.2368002e-47,6.6666667e-16,1.0111838e-49,6.6666667e-16
2.7135655,6.6666667e-16,1.5030391e-28,3.7447442e-47,6.6666667e-16,1.2909776e-45,6.6666667e-16
2.7326263,6.6666667e-16,1.5453503e-28,1.0765706e-42,6.6666667e-16,2.7324835e-45,6.6666667e-16
2.7506078,6.6666667e-16,1.5877338e-28,-7.004764e-44,6.6666667e-16,-2.8095942e-45,6.6666667e-16
2.767571,6.6666667e-16,1.6302628e-28,-1.1266056e-42,6.6666667e-16,-2.9238374e-45,6.6666667e-16
2.7835737,6.6666667e-16,1.6730004e-28,-6.0044656e-44,6.6666667e-16,1.1700803e-45,6.6666667e-16
2.7986701,6.6666667e-16,1.7160001e-28,3.5108984e-45,6.6666667e-16,5.9362397e-47,6.6666667e-16
2.8129118,6.6666667e-16,1.7593071e-28,-7.7502632e-44,6.6666667e-16,-4.2115597e-46,6.6666667e-16
2.8263469,6.6666667e-16,1.8029592e-28,-6.0577696e-45,6.6666667e-16,1.3506082e-46,6.6666667e-16
2.8390213,6.6666667e-16,1.8469861e-28,1.576392e-43,6.6666667e-16,6.4906478e-46,6.6666667e-16
2.8509779,6.6666667e-16,1.8914108e-28,-3.9524042e-48,6.6666667e-16,-5.6214316e-45,6.6666667e-16
2.8622575,6.6666667e-16,1.9362492e-28,-5.0259723e-42,6.6666667e-16,-4.6109797e-45,6.6666667e-16
2.8728984,6.6666667e-16,1.9815115e-28,2.8617368e-42,6.6666667e-16,1.5282033e-44,6.6666667e-16
2.8829367,6.6666667e-16,2.0272025e-28,5.1555977e-42,6.6666667e-16,9.9766921e-45,6.6666667e-16
2.8924066,7.5595749e-14,5.3436064e-24,3.8424523e-37,7.5595749e-14,1.9270678e-40,7.5595749e-14
2.9013402,4.6045957e-13,1.4844353e-22,-1.024641e-35,4.6045957e-13,-2.3819869e-38,4.6045957e-13
2.9097679,1.2761556e-12,9.2553424e-22,-1.0617431e-35,1.2761556e-12,5.6868485e-38,1.2761556e-12
2.9177184,2.449465e-12,3.2285146e-21,5.8008222e-35,2.449465e-12,7.5214597e-38,2.449465e-12
2.9252187,3.9166552e-12,8.1660339e-21,-8.2413053e-35,3.9166552e-12,-2.8776135e-37,3.9166552e-12
2.9322943,5.6222399e-12,1.6910187e-20,-1.4040182e-34,5.6222399e-12,3.7918938e-40,5.6222399e-12
2.9389692,7.518025e-12,3.0591535e-20,2.0779413e-40,7.518025e-12,7.5391673e-37,7.518025e-12
2.9452661,9.5622575e-12,5.0230583e-20,7.1037953e-34,9.5622575e-12,2.4163943e-37,9.5622575e-12
2.9512065,1.1718869e-11,7.6696421e-20,-3.8572084e-34,1.1718869e-11,-2.1868614e-36,1.1718869e-11
2.9568104,1.39568e-11,1.1068526e-19,-1.1603798e-33,1.39568e-11,-3.1531862e-36,1.39568e-11
2.9620971,1.6249407e-11,1.5271318e-19,-3.538549e-33,1.6249407e-11,6.1230838e-37,1.6249407e-11
2.9670843,1.8573922e-11,2.0311888e-19,1.2682631e-33,1.8573922e-11,9.4298024e-36,1.8573922e-11
2.9717892,2.0910988e-11,2.6207299e-19,4.8851221e-33,2.0910988e-11,1.5816997e-36,2.0910988e-11
2.9762276,2.3244237e-11,3.2959172e-19,1.4948724e-34,2.3244237e-11,-6.2115963e-36,2.3244237e-11
2.9804147,2.5559916e-11,4.0555285e-19,1.0157617e-39,2.5559916e-11,-1.7809034e-37,2.5559916e-11
2.9843647,2.7846562e-11,4.8971252e-19,2.8645198e-40,2.7846562e-11,5.5754529e-36,2.7846562e-11
2.9880911,3.0094709e-11,5.817223e-19,6.2210405e-33,3.0094709e-11,1.2703086e-36,3.0094709e-11
2.9916064,3.2296629e-11,6.8114582e-19,-1.3074861e-33,3.2296629e-11,-2.7873278e-35,3.2296629e-11
2.9949226,3.4446105e-11,7.8747432e-19,-2.1079843e-32,3.4446105e-11,7.7501657e-37,3.4446105e-11
2.9980511,3.6538232e-11,9.0014064e-19,6.8477217e-33,3.6538232e-11,4.2499856e-35,3.6538232e-11
3.0010024,3.8569237e-11,1.0185322e-18,1.5290625e-32,3.8569237e-11,-7.6233864e-36,3.8569237e-11
3.0037866,4.0536322e-11,1.1420024e-18,-4.6151317e-33,4.0536322e-11,-2.0122894e-35,4.0536322e-11
3.0064131,4.2437529e-11,1.2698801e-18,-7.4409086e-35,4.2437529e-11,-1.3002757e-36,4.2437529e-11
3.0088909,4.4271619e-11,1.4014789e-18,-6.3027748e-33,4.4271619e-11,-4.3306987e-37,4.4271619e-11
3.0112284,4.603796e-11,1.536104e-18,8.102319e-34,4.603796e-11,1.5243509e-35,4.603796e-11
3.0134335,4.7736443e-11,1.6730574e-18,6.5605396e-33,4.7736443e-11,4.6988625e-37,4.7736443e-11
3.0155138,4.9367392e-11,1.8116439e-18,3.310053e-37,4.9367392e-11,-1.5793462e-35,4.9367392e-11
3.0174762,5.0931499e-11,1.9511744e-18,-5.8769076e-33,5.0931499e-11,3.1070094e-35,5.0931499e-11
3.0193275,5.2429757e-11,2.0909695e-18,2.3067289e-32,5.2429757e-11,1.6031505e-35,5.2429757e-11
3.021074,5.3863406e-11,2.2303607e-18,3.9839191e-33,5.3863406e-11,-6.9492301e-35,5.3863406e-11
3.0227216,5.5233891e-11,2.3686926e-18,-2.494932e-32,5.5233891e-11,-8.6101319e-36,5.5233891e-11
3.0242759,5.6542814e-11,2.505324e-18,-1.0427517e-42,5.6542814e-11,5.7180497e-35,5.6542814e-11
3.0257422,5.7791905e-11,2.6396282e-18,1.0126495e-32,5.7791905e-11,-1.2688535e-36,5.7791905e-11
3.0271255,5.8982985e-11,2.7709927e-18,-1.0347261e-33,5.8982985e-11,-4.1380756e-35,5.8982985e-11
3.0284304,6.0117944e-11,2.8988192e-18,-1.1157429e-32,6.0117944e-11,2.3811799e-36,6.0117944e-11
3.0296614,6.1198719e-11,3.0225241e-18,4.486309e-34,6.1198719e-11,3.2979372e-35,6.1198719e-11
3.0308227,6.2227273e-11,3.1415375e-18,3.047528e-33,6.2227273e-11,-1.4321228e-35,6.2227273e-11
3.0319183,6.3205577e-11,3.2553024e-18,-3.2372538e-33,6.3205577e-11,-2.1791015e-35,6.3205577e-11
3.0329518,6.4135601e-11,3.363273e-18,-3.1514954e-33,6.4135601e-11,3.8154859e-35,6.4135601e-11
3.0339268,6.5019297e-11,3.4649141e-18,3.7118663e-33,6.5019297e-11,1.4365843e-35,6.5019297e-11
3.0348466,6.5858593e-11,3.5599745e-18,-8.8694992e-35,6.5858593e-11,-2.6425799e-35,6.5858593e-11
3.0357143,6.6666667e-11,0,0,6.6666667e-11,0,6.6666667e-11
