/*--------------------------------*- C++ -*----------------------------------*\
| =========                 |                                                 |
| \\      /  F ield         | OpenFOAM: The Open Source CFD Toolbox           |
|  \\    /   O peration     | Version:  2.4.0                                 |
|   \\  /    A nd           | Web:      www.OpenFOAM.org                      |
|    \\/     M anipulation  |                                                 |
\*---------------------------------------------------------------------------*/
FoamFile
{
    version     2.0;
    format      ascii;
    class       volScalarField;
    location    "800";
    object      nut;
}
// * * * * * * * * * * * * * * * * * * * * * * * * * * * * * * * * * * * * * //

dimensions      [0 2 -1 0 0 0 0];

internalField   nonuniform List<scalar> 
78300
(
2.9132439e-12
3.3399996e-12
4.1774419e-12
3.9087865e-12
3.2641296e-12
1.6063629e-12
3.9076284e-13
1.5677315e-14
3.4300573e-13
5.0582596e-13
3.5944893e-13
1.9590587e-13
1.599914e-13
1.5129646e-13
1.6492095e-13
1.3892776e-13
1.0272026e-13
7.5858576e-14
5.7518984e-14
4.2995265e-14
3.3270897e-14
2.7577333e-14
2.4334208e-14
2.3070955e-14
2.2123689e-14
2.2486106e-14
2.3755222e-14
2.593906e-14
2.8590985e-14
3.2113345e-14
3.6805182e-14
4.2719341e-14
5.0135863e-14
5.888358e-14
6.9479786e-14
8.147951e-14
9.4085326e-14
1.0665049e-13
1.2016172e-13
1.3181626e-13
1.4580377e-13
1.5863218e-13
1.7537538e-13
1.904543e-13
2.0286188e-13
2.1265309e-13
2.201888e-13
2.252563e-13
2.3057238e-13
2.3511572e-13
2.374805e-13
2.3780353e-13
2.3649423e-13
2.3015389e-13
2.2321159e-13
2.1115682e-13
1.9716284e-13
1.8112226e-13
1.6812015e-13
1.5054678e-13
1.4796891e-13
1.4199715e-13
1.9589265e-13
3.3524865e-13
4.5520989e-13
5.8256876e-13
7.0731161e-13
8.3353438e-13
9.5212914e-13
1.0644273e-12
1.172479e-12
1.2736456e-12
1.3700049e-12
1.4606029e-12
1.5467124e-12
1.6280433e-12
1.7048321e-12
1.7777031e-12
1.8470542e-12
1.9129458e-12
1.9753128e-12
2.0345706e-12
2.091078e-12
2.1447761e-12
2.1959008e-12
2.2442803e-12
2.2903341e-12
2.3340113e-12
2.3753474e-12
2.4144072e-12
2.4511727e-12
2.4856609e-12
2.5180296e-12
2.5482869e-12
2.5762836e-12
2.6020531e-12
2.6256065e-12
2.6469167e-12
2.6659932e-12
2.6829127e-12
2.6974368e-12
2.7098111e-12
2.7198926e-12
2.7278092e-12
2.7335005e-12
2.7368806e-12
2.7380524e-12
2.7368289e-12
2.7333458e-12
2.7274743e-12
2.7194063e-12
2.7090516e-12
2.6964375e-12
2.6815866e-12
2.6644601e-12
2.6453053e-12
2.6237494e-12
2.6003214e-12
2.575112e-12
2.5481945e-12
2.5192886e-12
2.4884656e-12
2.456179e-12
2.4222642e-12
2.3867846e-12
2.3497613e-12
2.3115303e-12
2.2720238e-12
2.2313228e-12
2.1894967e-12
2.146724e-12
2.1030677e-12
2.0585943e-12
2.0134492e-12
1.9677605e-12
1.9215847e-12
1.8749876e-12
1.8280642e-12
1.7809355e-12
1.733669e-12
1.6863335e-12
1.6390409e-12
1.5918086e-12
1.5448392e-12
1.4979959e-12
1.4514708e-12
1.4055175e-12
1.3600012e-12
1.3152271e-12
1.2705161e-12
1.2266337e-12
1.1835102e-12
1.1410314e-12
1.0992813e-12
1.0581346e-12
1.0180265e-12
9.7859618e-13
9.4034211e-13
9.0204779e-13
8.6542191e-13
8.2655265e-13
7.887693e-13
7.5141384e-13
7.2000213e-13
6.8989276e-13
6.5950369e-13
6.3048765e-13
6.017247e-13
5.735623e-13
5.466699e-13
5.2026546e-13
4.9503062e-13
4.7028995e-13
4.4693974e-13
4.2408584e-13
4.0229494e-13
3.8125335e-13
3.6109406e-13
3.4168142e-13
3.2323176e-13
3.053569e-13
2.8852043e-13
2.7223198e-13
2.5676224e-13
2.4204528e-13
2.2813489e-13
2.1481399e-13
2.0232619e-13
1.9031048e-13
1.7891783e-13
1.6825266e-13
1.5842769e-13
1.4902732e-13
1.4030939e-13
1.3215007e-13
1.2463867e-13
1.1764165e-13
1.1140929e-13
1.0561444e-13
1.0064062e-13
9.6049359e-14
9.2518752e-14
8.9202636e-14
8.7581175e-14
8.5288921e-14
8.55109e-14
8.4447156e-14
8.368084e-14
8.3602241e-14
8.603143e-14
8.7105706e-14
8.8372521e-14
8.5911164e-14
8.6331854e-14
7.8019112e-14
8.6122858e-14
8.6975811e-14
6.2683516e-14
7.0272854e-14
1.9612701e-13
8.6789857e-14
2.6080416e-13
1.0126422e-13
3.5376095e-13
1.2554258e-12
2.2099962e-13
1.8773022e-12
1.301346e-12
3.3094775e-12
4.9593352e-12
7.4066352e-12
4.8882064e-12
6.8816481e-13
1.8671841e-12
7.4269342e-13
1.1008465e-12
1.090739e-14
2.3081077e-13
5.6144492e-13
1.8902405e-12
1.2338406e-12
5.8523189e-13
2.5051024e-13
4.7467365e-14
1.0764243e-13
2.1513953e-13
1.0462078e-11
3.4848547e-12
1.8414171e-12
1.0910966e-11
2.2289509e-11
9.4222383e-11
5.6065958e-12
1.1858908e-11
7.0649804e-13
2.6450675e-11
1.5065417e-11
1.0410624e-12
1.3520475e-11
2.4940923e-11
2.5507234e-11
3.0937393e-11
2.8409832e-11
1.9674559e-11
1.3986221e-11
8.9145227e-12
6.0938447e-12
3.7416495e-12
3.3423177e-12
1.9774323e-12
6.1457159e-12
6.7683245e-12
7.4762475e-12
6.9176048e-12
5.7306494e-12
3.495587e-12
1.6505345e-12
6.9787543e-13
5.9373427e-13
5.6308101e-13
3.7687065e-13
1.8977049e-13
1.5251508e-13
1.4239445e-13
1.5963403e-13
1.3422189e-13
9.9195054e-14
7.3227981e-14
5.7474565e-14
4.3795376e-14
3.4642281e-14
2.9778043e-14
2.717408e-14
2.6404468e-14
2.6027874e-14
2.6873273e-14
2.8619926e-14
3.1308462e-14
3.4562666e-14
3.8748686e-14
4.4169793e-14
5.0906311e-14
5.9252399e-14
6.9100466e-14
8.0953185e-14
9.4458392e-14
1.0891258e-13
1.2376213e-13
1.3995682e-13
1.5508258e-13
1.7293214e-13
1.9064151e-13
2.1271874e-13
2.3450451e-13
2.5504936e-13
2.7428518e-13
2.9267784e-13
3.1002489e-13
3.2886651e-13
3.4851286e-13
3.6743011e-13
3.8556627e-13
4.0298061e-13
4.1604615e-13
4.2806445e-13
4.3455143e-13
4.3717139e-13
4.3488496e-13
4.3221688e-13
4.2199297e-13
4.2316799e-13
4.2215086e-13
4.860038e-13
6.5971188e-13
8.3283003e-13
1.0093727e-12
1.1827987e-12
1.356271e-12
1.5220696e-12
1.6807435e-12
1.8343185e-12
1.9808666e-12
2.1220976e-12
2.2572535e-12
2.3876641e-12
2.5131612e-12
2.634021e-12
2.7508131e-12
2.8640365e-12
2.9739013e-12
3.0802693e-12
3.183465e-12
3.2839172e-12
3.3815671e-12
3.4766228e-12
3.5689084e-12
3.6587666e-12
3.7461517e-12
3.8310816e-12
3.9135788e-12
3.9935843e-12
4.0710723e-12
4.146132e-12
4.2187953e-12
4.2888854e-12
4.3563637e-12
4.421203e-12
4.4832957e-12
4.542638e-12
4.5992806e-12
4.652962e-12
4.7038239e-12
4.751704e-12
4.7967603e-12
4.8389105e-12
4.8780418e-12
4.9141895e-12
4.9471307e-12
4.976949e-12
5.0034847e-12
5.0268905e-12
5.0471032e-12
5.0640971e-12
5.0778656e-12
5.0883954e-12
5.0959011e-12
5.0999451e-12
5.1008699e-12
5.098856e-12
5.0942362e-12
5.0866773e-12
5.0759979e-12
5.0626917e-12
5.0467464e-12
5.0281787e-12
5.0069067e-12
4.9832941e-12
4.957395e-12
4.9292412e-12
4.8988622e-12
4.8664681e-12
4.8321573e-12
4.795944e-12
4.7579603e-12
4.7184358e-12
4.6775025e-12
4.6351666e-12
4.5915063e-12
4.5466971e-12
4.5008564e-12
4.454039e-12
4.40637e-12
4.3578907e-12
4.3088587e-12
4.2591833e-12
4.208831e-12
4.1580934e-12
4.1072044e-12
4.0564235e-12
4.0050723e-12
3.9538313e-12
3.9027178e-12
3.8515787e-12
3.8005538e-12
3.7496234e-12
3.6992106e-12
3.6491862e-12
3.6001089e-12
3.5516813e-12
3.5052546e-12
3.4551941e-12
3.4005825e-12
3.3387214e-12
3.2845174e-12
3.2382273e-12
3.1928288e-12
3.1489117e-12
3.1044187e-12
3.0597818e-12
3.01584e-12
2.9720276e-12
2.9288912e-12
2.8856231e-12
2.8432411e-12
2.8011221e-12
2.7594893e-12
2.7184606e-12
2.6779137e-12
2.6373602e-12
2.5975302e-12
2.5578238e-12
2.5187129e-12
2.4798492e-12
2.4409485e-12
2.4023191e-12
2.3641362e-12
2.3257379e-12
2.2877821e-12
2.2497616e-12
2.2108868e-12
2.1714795e-12
2.1323015e-12
2.0927076e-12
2.0520854e-12
2.0106017e-12
1.9684082e-12
1.9250481e-12
1.8804597e-12
1.8338836e-12
1.785748e-12
1.7353964e-12
1.6832545e-12
1.6277391e-12
1.5720163e-12
1.5126375e-12
1.4534676e-12
1.3878521e-12
1.3193323e-12
1.2871971e-12
1.2873122e-12
1.3008426e-12
1.3200361e-12
1.3355069e-12
1.3544239e-12
1.3602544e-12
1.380127e-12
1.3822356e-12
1.3722427e-12
1.3989084e-12
1.4907523e-12
1.3074447e-12
1.5706601e-12
1.677094e-12
1.7668431e-12
2.1349237e-12
1.4036313e-12
2.8275848e-12
2.1880341e-12
1.0340012e-11
1.0514682e-11
1.0068805e-11
5.4698387e-12
1.532547e-12
2.5704253e-12
3.8525221e-12
4.8680393e-12
8.2373528e-13
1.917501e-12
4.1581474e-12
3.7550855e-12
1.9233371e-12
1.2334388e-12
8.999597e-13
3.7545981e-13
5.605395e-13
7.5058373e-13
1.0810134e-11
4.0421878e-12
2.9680239e-12
1.0747044e-11
2.2045633e-11
1.2893344e-10
3.1860201e-11
1.8404374e-11
5.7248899e-12
3.1083037e-11
1.6925132e-11
4.7194115e-12
1.6129393e-11
2.6667716e-11
2.594582e-11
3.0667424e-11
2.8521771e-11
2.0475791e-11
1.5427982e-11
1.0728343e-11
8.1706241e-12
6.1489622e-12
5.8367908e-12
4.879019e-12
8.2141484e-11
8.8029426e-11
8.8225385e-11
8.0878111e-11
6.6515569e-11
4.763107e-11
2.9289348e-11
1.5158834e-11
6.8195776e-12
2.8890066e-12
1.236769e-12
5.7106519e-13
3.8748984e-13
3.3258116e-13
3.2688375e-13
2.8394129e-13
2.3328257e-13
1.9424537e-13
1.7663468e-13
1.6142105e-13
1.5167584e-13
1.4953372e-13
1.519096e-13
1.5829584e-13
1.6733202e-13
1.7940194e-13
1.9469322e-13
2.1383106e-13
2.3687055e-13
2.6449608e-13
2.9779912e-13
3.376995e-13
3.8541632e-13
4.418311e-13
5.0846336e-13
5.8564922e-13
6.7255359e-13
7.6915365e-13
8.7767042e-13
9.9689845e-13
1.1338939e-12
1.2894191e-12
1.4679703e-12
1.6712196e-12
1.896687e-12
2.1414658e-12
2.4091796e-12
2.6993187e-12
3.0178223e-12
3.3682755e-12
3.7432186e-12
4.1379577e-12
4.5470793e-12
4.9532045e-12
5.3467243e-12
5.7123919e-12
6.0290024e-12
6.2746635e-12
6.4550749e-12
6.5532393e-12
6.6270048e-12
6.7139509e-12
7.1318579e-12
8.4016113e-12
1.0015561e-11
1.1570068e-11
1.3103017e-11
1.4610194e-11
1.6088248e-11
1.7525735e-11
1.8927715e-11
2.0301741e-11
2.1646778e-11
2.2963854e-11
2.4258761e-11
2.5533176e-11
2.6788885e-11
2.8026898e-11
2.925095e-11
3.046454e-11
3.1665845e-11
3.2854399e-11
3.4032964e-11
3.5201404e-11
3.6359936e-11
3.7507926e-11
3.8645115e-11
3.9771457e-11
4.0886732e-11
4.1990186e-11
4.3080918e-11
4.4157997e-11
4.5220504e-11
4.6268952e-11
4.7302151e-11
4.8318684e-11
4.9317708e-11
5.0297482e-11
5.1257659e-11
5.2197937e-11
5.3117029e-11
5.4013338e-11
5.4886113e-11
5.5736361e-11
5.656338e-11
5.736629e-11
5.8143902e-11
5.8894884e-11
5.9618493e-11
6.031359e-11
6.098002e-11
6.1618045e-11
6.2226556e-11
6.2805069e-11
6.3353972e-11
6.3873405e-11
6.4360817e-11
6.4813593e-11
6.523426e-11
6.5628857e-11
6.5995064e-11
6.632771e-11
6.6629265e-11
6.6902489e-11
6.7146586e-11
6.7359402e-11
6.7542738e-11
6.7699038e-11
6.7827498e-11
6.7927556e-11
6.8000524e-11
6.8047408e-11
6.8067322e-11
6.8060469e-11
6.8029575e-11
6.7976499e-11
6.790018e-11
6.7800603e-11
6.7679409e-11
6.7537959e-11
6.7376187e-11
6.7194802e-11
6.6994388e-11
6.6776921e-11
6.6543003e-11
6.6288099e-11
6.6014098e-11
6.5728671e-11
6.5431748e-11
6.5121251e-11
6.479787e-11
6.4463282e-11
6.4116286e-11
6.3758351e-11
6.3391417e-11
6.3016797e-11
6.2638136e-11
6.2258983e-11
6.1894821e-11
6.154387e-11
6.1155122e-11
6.0644307e-11
5.9965979e-11
5.9347137e-11
5.8878136e-11
5.8435175e-11
5.7999267e-11
5.7546147e-11
5.7078874e-11
5.660333e-11
5.6121703e-11
5.5633319e-11
5.5132865e-11
5.4626418e-11
5.4116701e-11
5.3598144e-11
5.3079129e-11
5.2554504e-11
5.2015949e-11
5.147563e-11
5.0927426e-11
5.0373232e-11
4.9814399e-11
4.9239649e-11
4.8657014e-11
4.8069351e-11
4.7466062e-11
4.6857175e-11
4.6238173e-11
4.5588773e-11
4.4914173e-11
4.4229122e-11
4.3527036e-11
4.2789638e-11
4.2022893e-11
4.1228502e-11
4.0398831e-11
3.9527892e-11
3.8604926e-11
3.7632325e-11
3.6603642e-11
3.5515822e-11
3.4349432e-11
3.3147192e-11
3.1876387e-11
3.0563802e-11
2.9132439e-11
2.7631326e-11
2.6921689e-11
2.6879026e-11
2.7158317e-11
2.7559834e-11
2.7946864e-11
2.8358198e-11
2.8639033e-11
2.8927116e-11
2.8966874e-11
2.9202318e-11
2.9632687e-11
2.931426e-11
2.7318205e-11
2.9968883e-11
3.5214207e-11
3.2489922e-11
2.3686176e-11
2.8091789e-11
2.7304734e-11
2.4219056e-11
1.6503397e-10
1.3990074e-10
7.3549053e-11
2.3882755e-11
2.1229962e-11
2.4126266e-11
7.1476156e-11
8.6909849e-11
1.7582624e-11
3.8792294e-11
8.1456373e-11
4.8814126e-11
1.9807942e-11
1.6495865e-11
1.5219171e-11
7.4000348e-12
8.8473312e-12
1.3738237e-11
2.0420051e-11
1.8748319e-11
3.0850911e-11
2.3142613e-11
4.5722811e-11
3.1682715e-10
5.8470089e-10
3.0147004e-10
1.3260553e-10
1.2162438e-10
1.0207095e-10
8.9559395e-11
9.6023149e-11
1.0352165e-10
1.0509628e-10
1.1048352e-10
1.0416653e-10
9.0688504e-11
8.1679692e-11
7.2883073e-11
6.8315441e-11
6.6998519e-11
6.7457914e-11
7.1490467e-11
6.5201752e-10
6.9751102e-10
6.9434151e-10
6.361049e-10
5.2286232e-10
3.785654e-10
2.3627698e-10
1.2345762e-10
5.3714154e-11
2.0544511e-11
7.7904628e-12
3.5468243e-12
2.2443522e-12
1.8411966e-12
1.6569867e-12
1.4747475e-12
1.2895886e-12
1.1405749e-12
1.0952487e-12
1.0627632e-12
1.0464737e-12
1.0614289e-12
1.0991397e-12
1.1582548e-12
1.2370159e-12
1.3332308e-12
1.450505e-12
1.5938254e-12
1.7662728e-12
1.9711501e-12
2.2155574e-12
2.5067699e-12
2.8530405e-12
3.2625946e-12
3.7448474e-12
4.3050068e-12
4.9408716e-12
5.6560671e-12
6.4625052e-12
7.366516e-12
8.402625e-12
9.5962541e-12
1.0954109e-11
1.252272e-11
1.4287666e-11
1.6224836e-11
1.8361666e-11
2.0695107e-11
2.3257749e-11
2.6085016e-11
2.9124813e-11
3.2336956e-11
3.5675827e-11
3.9019608e-11
4.2264133e-11
4.5311188e-11
4.79706e-11
5.0063543e-11
5.1607162e-11
5.2506852e-11
5.3122818e-11
5.3863155e-11
5.6957086e-11
6.6502238e-11
7.8960888e-11
9.0895e-11
1.0266775e-10
1.1422278e-10
1.2558368e-10
1.3665068e-10
1.4745178e-10
1.5806453e-10
1.6846827e-10
1.7867703e-10
1.8873057e-10
1.9864433e-10
2.0843148e-10
2.1809662e-10
2.2766803e-10
2.3717378e-10
2.4659942e-10
2.5593882e-10
2.6521237e-10
2.7441941e-10
2.8356024e-10
2.9263082e-10
3.0162658e-10
3.1054746e-10
3.1939153e-10
3.2815217e-10
3.3682226e-10
3.4539409e-10
3.538593e-10
3.6222203e-10
3.7047342e-10
3.7860178e-10
3.8660018e-10
3.9445461e-10
4.0216218e-10
4.0972e-10
4.1711899e-10
4.2434461e-10
4.3139176e-10
4.3826783e-10
4.4496746e-10
4.5148397e-10
4.5780688e-10
4.6392651e-10
4.6983613e-10
4.7552721e-10
4.8099742e-10
4.862494e-10
4.9127394e-10
4.9606708e-10
5.0063209e-10
5.0496868e-10
5.0905835e-10
5.1287652e-10
5.1644356e-10
5.1980816e-10
5.2295281e-10
5.2583523e-10
5.2847291e-10
5.3088924e-10
5.330773e-10
5.3501951e-10
5.3672866e-10
5.3822493e-10
5.3950138e-10
5.4055301e-10
5.4138955e-10
5.4201867e-10
5.4243295e-10
5.4263316e-10
5.4264079e-10
5.4247057e-10
5.4211348e-10
5.41569e-10
5.4084969e-10
5.3996625e-10
5.3891778e-10
5.3770942e-10
5.363458e-10
5.3484186e-10
5.3320329e-10
5.3139198e-10
5.294221e-10
5.2735669e-10
5.251934e-10
5.2291944e-10
5.2053581e-10
5.1805658e-10
5.1547268e-10
5.1279564e-10
5.1004193e-10
5.0721978e-10
5.043608e-10
5.0149149e-10
4.9874429e-10
4.9609476e-10
4.9315103e-10
4.8920596e-10
4.8389638e-10
4.7903763e-10
4.7538963e-10
4.7195635e-10
4.6857199e-10
4.6504628e-10
4.6140224e-10
4.5768341e-10
4.5391239e-10
4.5007969e-10
4.4614595e-10
4.4215552e-10
4.3813575e-10
4.3403799e-10
4.2993223e-10
4.2577575e-10
4.2150176e-10
4.172079e-10
4.1284662e-10
4.0843067e-10
4.0397383e-10
3.9938281e-10
3.9472335e-10
3.9001833e-10
3.8518288e-10
3.8029714e-10
3.7532637e-10
3.7010459e-10
3.6467365e-10
3.5915287e-10
3.5349094e-10
3.4753787e-10
3.4134287e-10
3.3491899e-10
3.2820497e-10
3.211508e-10
3.1367074e-10
3.0578201e-10
2.974346e-10
2.885999e-10
2.7912426e-10
2.6934731e-10
2.5901584e-10
2.4833018e-10
2.3669269e-10
2.2449883e-10
2.1873484e-10
2.1837425e-10
2.2064564e-10
2.2391352e-10
2.2708193e-10
2.3043275e-10
2.3276569e-10
2.3506207e-10
2.3539932e-10
2.3746435e-10
2.4087738e-10
2.3773247e-10
2.2190882e-10
2.4276093e-10
2.8644018e-10
2.6388479e-10
1.8863304e-10
2.2829568e-10
2.0933182e-10
1.9039772e-10
1.3262178e-09
1.1060123e-09
5.3937055e-10
1.5922429e-10
1.6814699e-10
1.9120762e-10
5.7673464e-10
6.9689507e-10
1.4170334e-10
3.1906027e-10
6.590029e-10
3.8438704e-10
1.5412029e-10
1.3075169e-10
1.2219048e-10
5.9811875e-11
6.8656578e-11
1.1120041e-10
8.3730867e-11
1.2938896e-10
2.3991192e-10
1.1643785e-10
2.2959565e-10
1.8302704e-09
4.7313064e-09
2.404951e-09
1.0511474e-09
7.9750847e-10
7.4256528e-10
7.3305599e-10
7.0452227e-10
6.8689288e-10
7.1179382e-10
7.2592773e-10
6.8585563e-10
6.2729139e-10
5.8432049e-10
5.4250899e-10
5.212819e-10
5.2397472e-10
5.3002255e-10
5.7070529e-10
3.1303771e-09
3.3479862e-09
3.3301233e-09
3.0505158e-09
2.5072604e-09
1.817775e-09
1.1368789e-09
5.9518749e-10
2.5840569e-10
9.7548818e-11
3.6236046e-11
1.6586172e-11
1.0395828e-11
8.4334469e-12
7.4358818e-12
6.6574912e-12
5.8909126e-12
5.2674593e-12
5.0877369e-12
4.985899e-12
4.9484711e-12
5.0362366e-12
5.2265593e-12
5.5143512e-12
5.8957723e-12
6.3577232e-12
6.9184078e-12
7.6018193e-12
8.4241576e-12
9.400145e-12
1.0562993e-11
1.1947666e-11
1.3593041e-11
1.5539262e-11
1.7830239e-11
2.0492572e-11
2.3518244e-11
2.692636e-11
3.0771034e-11
3.5090546e-11
4.0039706e-11
4.5751027e-11
5.2241234e-11
5.9751907e-11
6.8217294e-11
7.7520702e-11
8.7792978e-11
9.9019564e-11
1.1134832e-10
1.2495428e-10
1.3959238e-10
1.5506722e-10
1.7115884e-10
1.8729097e-10
2.0294803e-10
2.1767005e-10
2.3053176e-10
2.4066912e-10
2.4814999e-10
2.5253918e-10
2.5551668e-10
2.5909228e-10
2.7381375e-10
3.1936614e-10
3.7902229e-10
4.3613372e-10
4.924749e-10
5.4776398e-10
6.0213929e-10
6.5511676e-10
7.0682446e-10
7.5764457e-10
8.0747071e-10
8.5637395e-10
9.0454167e-10
9.520496e-10
9.9896023e-10
1.0452938e-09
1.0911858e-09
1.136771e-09
1.1819801e-09
1.2267824e-09
1.2712749e-09
1.315455e-09
1.3593232e-09
1.4028607e-09
1.4460444e-09
1.4888743e-09
1.5313407e-09
1.5734118e-09
1.6150534e-09
1.6562282e-09
1.6968957e-09
1.737076e-09
1.7767267e-09
1.8157915e-09
1.8542371e-09
1.891996e-09
1.9290547e-09
1.9653986e-09
2.0009849e-09
2.0357426e-09
2.069648e-09
2.1027362e-09
2.1349816e-09
2.1663525e-09
2.1967961e-09
2.2262673e-09
2.2547343e-09
2.282156e-09
2.308521e-09
2.3338421e-09
2.358075e-09
2.3812007e-09
2.4032349e-09
2.4241753e-09
2.4439337e-09
2.4623901e-09
2.4796431e-09
2.495927e-09
2.5111573e-09
2.5251308e-09
2.5379303e-09
2.5496691e-09
2.5603133e-09
2.5697783e-09
2.5781248e-09
2.58545e-09
2.5917202e-09
2.5969114e-09
2.6010696e-09
2.6042313e-09
2.6063609e-09
2.6074619e-09
2.6076371e-09
2.6069571e-09
2.6053783e-09
2.6028981e-09
2.5995768e-09
2.5954651e-09
2.5905588e-09
2.5848824e-09
2.5784581e-09
2.571357e-09
2.5636067e-09
2.5550232e-09
2.5456748e-09
2.5358651e-09
2.5255816e-09
2.5147649e-09
2.5034173e-09
2.4916066e-09
2.47929e-09
2.4665225e-09
2.4533838e-09
2.4399125e-09
2.4262617e-09
2.4125588e-09
2.3994441e-09
2.3867935e-09
2.372731e-09
2.3538398e-09
2.3283791e-09
2.3050764e-09
2.2875977e-09
2.2711537e-09
2.2549389e-09
2.2380438e-09
2.2205776e-09
2.2027464e-09
2.1846628e-09
2.1662787e-09
2.1474062e-09
2.1282565e-09
2.1089645e-09
2.0892935e-09
2.0695814e-09
2.0496224e-09
2.0290958e-09
2.0084702e-09
1.9875182e-09
1.9662999e-09
1.9448827e-09
1.9228169e-09
1.9004194e-09
1.8777998e-09
1.8545508e-09
1.8310573e-09
1.8071525e-09
1.7820368e-09
1.7559121e-09
1.7293525e-09
1.7021111e-09
1.6734667e-09
1.6436565e-09
1.6127407e-09
1.5804256e-09
1.5464709e-09
1.5104643e-09
1.4724873e-09
1.4323001e-09
1.3897637e-09
1.3441387e-09
1.2970587e-09
1.2473087e-09
1.1958464e-09
1.139851e-09
1.0812549e-09
1.0535712e-09
1.0518288e-09
1.0627859e-09
1.0785588e-09
1.0938454e-09
1.1100056e-09
1.1212674e-09
1.1322951e-09
1.1340035e-09
1.1440606e-09
1.1600808e-09
1.1464904e-09
1.0685617e-09
1.1697704e-09
1.381608e-09
1.2694756e-09
9.1636968e-10
1.0981215e-09
9.9481238e-10
9.2129631e-10
6.3854907e-09
5.2794714e-09
2.5238052e-09
7.3093371e-10
8.0590059e-10
9.3060192e-10
2.7801238e-09
3.3443689e-09
6.7522924e-10
1.5450791e-09
3.1647284e-09
1.8336768e-09
7.3584776e-10
6.2616092e-10
5.8591739e-10
2.8733836e-10
3.2680508e-10
5.3375993e-10
3.4751818e-10
6.0760013e-10
1.1478679e-09
5.0620862e-10
1.0131024e-09
8.7133886e-09
2.2794947e-08
1.1632153e-08
4.9531263e-09
3.7115678e-09
3.5152299e-09
3.5483362e-09
3.4002546e-09
3.2075029e-09
3.3480051e-09
3.3998885e-09
3.2087654e-09
2.9596047e-09
2.7656352e-09
2.5830054e-09
2.4894024e-09
2.5100311e-09
2.5408841e-09
2.7416236e-09
1.0988047e-08
1.1750429e-08
1.1684729e-08
1.0702993e-08
8.7966748e-09
6.3807047e-09
3.994429e-09
2.0941566e-09
9.1019107e-10
3.4262683e-10
1.2649345e-10
5.8166639e-11
3.6454458e-11
2.9386519e-11
2.5731011e-11
2.3069398e-11
2.0489362e-11
1.8373334e-11
1.7733306e-11
1.7428939e-11
1.7345429e-11
1.7662593e-11
1.8335726e-11
1.9347848e-11
2.0688451e-11
2.2309964e-11
2.4276566e-11
2.6672613e-11
2.9556003e-11
3.2977569e-11
3.7053199e-11
4.1905768e-11
4.7671346e-11
5.4491346e-11
6.2519375e-11
7.1850839e-11
8.2460206e-11
9.4414803e-11
1.0790261e-10
1.230621e-10
1.4042904e-10
1.6047768e-10
1.8325619e-10
2.0962754e-10
2.3936577e-10
2.7205886e-10
3.0816512e-10
3.4763221e-10
3.9096962e-10
4.3879942e-10
4.9026932e-10
5.4468944e-10
6.0128624e-10
6.5804338e-10
7.1313709e-10
7.6495959e-10
8.102488e-10
8.4595837e-10
8.723181e-10
8.8780463e-10
8.9828872e-10
9.1082864e-10
9.6234232e-10
1.12209e-09
1.3315312e-09
1.532015e-09
1.7297936e-09
1.9238703e-09
2.1147467e-09
2.3007163e-09
2.4822262e-09
2.6606272e-09
2.8355384e-09
3.0072139e-09
3.1763091e-09
3.3430928e-09
3.5077829e-09
3.6704487e-09
3.8315687e-09
3.9916145e-09
4.1503427e-09
4.3076454e-09
4.4638633e-09
4.618987e-09
4.7730186e-09
4.9258917e-09
5.0775259e-09
5.2279208e-09
5.3770432e-09
5.5247802e-09
5.6710124e-09
5.8156087e-09
5.9584276e-09
6.0995399e-09
6.2387975e-09
6.3760019e-09
6.511036e-09
6.6436643e-09
6.7738392e-09
6.9015095e-09
7.0265243e-09
7.1486335e-09
7.2677559e-09
7.3840145e-09
7.4973185e-09
7.6075586e-09
7.714538e-09
7.8181069e-09
7.9181542e-09
8.0145368e-09
8.1072142e-09
8.1962314e-09
8.2814332e-09
8.3627529e-09
8.4402459e-09
8.513902e-09
8.5834103e-09
8.6483498e-09
8.7090684e-09
8.7663889e-09
8.8200129e-09
8.8692264e-09
8.91432e-09
8.9556929e-09
8.9932242e-09
9.0266162e-09
9.0560819e-09
9.0819629e-09
9.1041408e-09
9.1225296e-09
9.1372914e-09
9.1485528e-09
9.1561895e-09
9.1602145e-09
9.1609875e-09
9.1587543e-09
9.1533635e-09
9.1448055e-09
9.1332916e-09
9.1189994e-09
9.101914e-09
9.0821211e-09
9.0596989e-09
9.0348966e-09
9.0078083e-09
8.9777895e-09
8.9450812e-09
8.9107496e-09
8.8747506e-09
8.8368759e-09
8.797131e-09
8.7557543e-09
8.7125965e-09
8.667851e-09
8.6217976e-09
8.5745718e-09
8.5267129e-09
8.4786718e-09
8.4326981e-09
8.3883466e-09
8.3390266e-09
8.272721e-09
8.1833263e-09
8.1015239e-09
8.0401833e-09
7.9824711e-09
7.9255535e-09
7.8662462e-09
7.8049324e-09
7.7423283e-09
7.6788356e-09
7.6142834e-09
7.5480116e-09
7.4807607e-09
7.4130098e-09
7.3439225e-09
7.2746866e-09
7.2045795e-09
7.1324775e-09
7.0600232e-09
6.9864192e-09
6.9118762e-09
6.8366308e-09
6.7591034e-09
6.6804079e-09
6.6009276e-09
6.5192355e-09
6.4366829e-09
6.3526809e-09
6.2644185e-09
6.1726103e-09
6.0792721e-09
5.9835313e-09
5.882863e-09
5.7780991e-09
5.6694404e-09
5.555859e-09
5.4365155e-09
5.3099606e-09
5.1764775e-09
5.0352232e-09
4.8857111e-09
4.7253365e-09
4.5598478e-09
4.384969e-09
4.2040672e-09
4.0074133e-09
3.8019078e-09
3.7048711e-09
3.6987369e-09
3.7373238e-09
3.7929239e-09
3.8467357e-09
3.9036261e-09
3.9432322e-09
3.9819403e-09
3.9883049e-09
4.0238266e-09
4.0783826e-09
4.0304477e-09
3.7558276e-09
4.1163197e-09
4.8674238e-09
4.4481316e-09
3.229568e-09
3.8527768e-09
3.4810649e-09
3.2772666e-09
2.2447372e-08
1.840494e-08
8.6970325e-09
2.5065526e-09
2.8302098e-09
3.2980615e-09
9.7911929e-09
1.1728014e-08
2.3508438e-09
5.4356698e-09
1.1082909e-08
6.3982838e-09
2.5624197e-09
2.1907598e-09
2.0513462e-09
1.0083539e-09
1.1484606e-09
1.8730956e-09
1.1688263e-09
2.1245208e-09
4.0216373e-09
1.7073499e-09
3.4833865e-09
3.0590086e-08
8.0412961e-08
4.0134148e-08
1.7059166e-08
1.2944712e-08
1.2204512e-08
1.2431117e-08
1.1993502e-08
1.1149751e-08
1.1679162e-08
1.1846529e-08
1.1151558e-08
1.0326753e-08
9.6505448e-09
9.0354299e-09
8.7166944e-09
8.7986915e-09
8.9113395e-09
9.6243915e-09
3.1330363e-08
3.349974e-08
3.3304905e-08
3.0504772e-08
2.5071634e-08
1.8194378e-08
1.1401098e-08
5.9868698e-09
2.6070643e-09
9.8086601e-10
3.6103027e-10
1.6654313e-10
1.0444169e-10
8.3782239e-11
7.3120149e-11
6.55759e-11
5.8365858e-11
5.2397553e-11
5.0502674e-11
4.9701243e-11
4.9539506e-11
5.0448186e-11
5.2370525e-11
5.5258409e-11
5.9084178e-11
6.3710897e-11
6.9321368e-11
7.6156565e-11
8.4382829e-11
9.4144153e-11
1.0577048e-10
1.1961272e-10
1.3605909e-10
1.5551364e-10
1.7841507e-10
2.0504005e-10
2.3532029e-10
2.6944582e-10
3.0795146e-10
3.5123278e-10
4.0081242e-10
4.5805473e-10
5.2308784e-10
5.9839622e-10
6.8334526e-10
7.7675193e-10
8.7992269e-10
9.9270319e-10
1.1165284e-09
1.253192e-09
1.4002806e-09
1.5558173e-09
1.7175889e-09
1.8798518e-09
2.0373804e-09
2.1855922e-09
2.3151507e-09
2.4173264e-09
2.4927716e-09
2.5371191e-09
2.5671087e-09
2.6027583e-09
2.7493012e-09
3.2049512e-09
3.802868e-09
4.3751629e-09
4.9397154e-09
5.493676e-09
6.0384916e-09
6.5692763e-09
7.087309e-09
7.5964612e-09
8.0956317e-09
8.5855572e-09
9.0681043e-09
9.5440504e-09
1.0014012e-08
1.0478186e-08
1.0937945e-08
1.1394634e-08
1.1847557e-08
1.2296407e-08
1.2742159e-08
1.3184786e-08
1.3624295e-08
1.4060497e-08
1.4493165e-08
1.49223e-08
1.5347806e-08
1.5769361e-08
1.6186627e-08
1.659923e-08
1.7006767e-08
1.7409445e-08
1.7806842e-08
1.8198389e-08
1.8583755e-08
1.896227e-08
1.93338e-08
1.9698199e-08
2.0055034e-08
2.0403591e-08
2.0743643e-08
2.1075541e-08
2.1399026e-08
2.1713793e-08
2.2019225e-08
2.2314945e-08
2.2600636e-08
2.2875886e-08
2.3140585e-08
2.3394856e-08
2.363826e-08
2.3870609e-08
2.4092059e-08
2.4302574e-08
2.4501264e-08
2.4686928e-08
2.4860566e-08
2.5024526e-08
2.5177948e-08
2.5318796e-08
2.5447897e-08
2.5566396e-08
2.567394e-08
2.5769679e-08
2.585422e-08
2.5928537e-08
2.5992292e-08
2.6045238e-08
2.6087835e-08
2.6120439e-08
2.61427e-08
2.6154655e-08
2.6157328e-08
2.6151413e-08
2.6136481e-08
2.6112508e-08
2.6080092e-08
2.6039737e-08
2.5991403e-08
2.5935333e-08
2.587175e-08
2.5801362e-08
2.5724431e-08
2.5639122e-08
2.5546127e-08
2.544849e-08
2.5346082e-08
2.523831e-08
2.512518e-08
2.5007378e-08
2.4884477e-08
2.4757033e-08
2.4625839e-08
2.4491287e-08
2.435492e-08
2.4218034e-08
2.4087057e-08
2.3960684e-08
2.382009e-08
2.3630943e-08
2.3375823e-08
2.3142443e-08
2.2967494e-08
2.2802865e-08
2.2640473e-08
2.247126e-08
2.2296318e-08
2.2117666e-08
2.1936472e-08
2.1752242e-08
2.1563089e-08
2.1371126e-08
2.1177737e-08
2.0980517e-08
2.078286e-08
2.0582704e-08
2.0376851e-08
2.0169979e-08
1.9959815e-08
1.9746961e-08
1.953209e-08
1.9310693e-08
1.9085954e-08
1.8858962e-08
1.8625655e-08
1.8389887e-08
1.8149966e-08
1.7897863e-08
1.7635635e-08
1.7369034e-08
1.7095551e-08
1.6808006e-08
1.6508773e-08
1.6198384e-08
1.5873919e-08
1.5533001e-08
1.5171487e-08
1.4790176e-08
1.438666e-08
1.3959556e-08
1.3501401e-08
1.3028645e-08
1.2529043e-08
1.2012231e-08
1.1450957e-08
1.0865216e-08
1.0588784e-08
1.0571206e-08
1.0681639e-08
1.0840976e-08
1.0994909e-08
1.1157666e-08
1.1270797e-08
1.1381184e-08
1.1400588e-08
1.1502346e-08
1.1652219e-08
1.1513081e-08
1.072703e-08
1.1772754e-08
1.3943437e-08
1.269781e-08
9.2137711e-09
1.0982347e-08
9.9174898e-09
9.4429643e-09
6.4163439e-08
5.21073e-08
2.4363589e-08
7.0123739e-09
8.0622326e-09
9.4678479e-09
2.7988442e-08
3.335666e-08
6.6543965e-09
1.5573808e-08
3.1500423e-08
1.8121886e-08
7.2426519e-09
6.2231336e-09
5.8340869e-09
2.8772456e-09
3.2904895e-09
5.3445872e-09
3.2869859e-09
6.0693792e-09
1.1443102e-08
4.7783052e-09
9.9497058e-09
8.5841394e-08
2.3052931e-07
1.1097902e-07
4.788256e-08
3.681781e-08
3.4341377e-08
3.5210674e-08
3.3970961e-08
3.1582506e-08
3.3125855e-08
3.3600109e-08
3.1539125e-08
2.9279145e-08
2.7365716e-08
2.5665863e-08
2.4784948e-08
2.504593e-08
2.5383885e-08
2.7442528e-08
7.7095636e-08
8.2421445e-08
8.1920136e-08
7.5028173e-08
6.1669391e-08
4.4782963e-08
2.8098114e-08
1.4784586e-08
6.4542377e-09
2.4296947e-09
8.9254584e-10
4.1250405e-10
2.5840678e-10
2.0667356e-10
1.8004308e-10
1.6152763e-10
1.4396702e-10
1.2931759e-10
1.2451257e-10
1.2262185e-10
1.2234008e-10
1.2457615e-10
1.2931266e-10
1.3642996e-10
1.4586203e-10
1.5727004e-10
1.7110342e-10
1.8795692e-10
2.0824247e-10
2.3231302e-10
2.6098112e-10
2.9511272e-10
3.3566549e-10
3.8363642e-10
4.4010928e-10
5.0577675e-10
5.8048058e-10
6.6468205e-10
7.596987e-10
8.6649998e-10
9.8883402e-10
1.1300832e-09
1.2905533e-09
1.4764147e-09
1.6861264e-09
1.9167514e-09
2.1715103e-09
2.450004e-09
2.755729e-09
3.0931583e-09
3.4563815e-09
3.8405031e-09
4.2400555e-09
4.6408923e-09
5.030091e-09
5.3963585e-09
5.7166045e-09
5.9692143e-09
6.1557953e-09
6.2655071e-09
6.3395978e-09
6.4269348e-09
6.7867987e-09
7.9095916e-09
9.3843694e-09
1.0795755e-08
1.2187937e-08
1.3553893e-08
1.4897221e-08
1.6205838e-08
1.7482914e-08
1.8738035e-08
1.996846e-08
2.117603e-08
2.2365346e-08
2.3538354e-08
2.4696564e-08
2.5840452e-08
2.6973435e-08
2.8098818e-08
2.9214894e-08
3.0320903e-08
3.1419257e-08
3.2509893e-08
3.3592833e-08
3.4667613e-08
3.5733686e-08
3.6791058e-08
3.7839493e-08
3.8878199e-08
3.9906349e-08
4.0923021e-08
4.1927237e-08
4.2919513e-08
4.3898811e-08
4.4863734e-08
4.5813466e-08
4.6746365e-08
4.7662111e-08
4.8560343e-08
4.9439985e-08
5.0299282e-08
5.1137687e-08
5.1956069e-08
5.2753782e-08
5.3530094e-08
5.4283322e-08
5.5012708e-08
5.571745e-08
5.6396535e-08
5.704969e-08
5.7677222e-08
5.8278056e-08
5.8851722e-08
5.9398608e-08
5.9918611e-08
6.0409517e-08
6.0868375e-08
6.1297651e-08
6.1703154e-08
6.2082735e-08
6.2431371e-08
6.2751101e-08
6.304475e-08
6.331144e-08
6.3549062e-08
6.3759114e-08
6.394399e-08
6.4102859e-08
6.42351e-08
6.4341841e-08
6.4423948e-08
6.4480561e-08
6.4511781e-08
6.4520114e-08
6.4507251e-08
6.4472145e-08
6.4414739e-08
6.4336502e-08
6.4238659e-08
6.4121119e-08
6.3984475e-08
6.382928e-08
6.3657267e-08
6.3469058e-08
6.3260144e-08
6.3032244e-08
6.2792864e-08
6.2541679e-08
6.2277221e-08
6.1999496e-08
6.1710192e-08
6.1408261e-08
6.109508e-08
6.0772597e-08
6.0441792e-08
6.0106472e-08
5.9769869e-08
5.9447846e-08
5.9137101e-08
5.8791184e-08
5.8325331e-08
5.7696517e-08
5.712152e-08
5.6690696e-08
5.6285178e-08
5.5885095e-08
5.546817e-08
5.5037114e-08
5.4596815e-08
5.4150224e-08
5.3696105e-08
5.3229795e-08
5.2756505e-08
5.227969e-08
5.1793374e-08
5.1305931e-08
5.081229e-08
5.0304584e-08
4.9794318e-08
4.9275895e-08
4.8750809e-08
4.82207e-08
4.7674464e-08
4.7119956e-08
4.6559848e-08
4.5984154e-08
4.540238e-08
4.4810308e-08
4.4188129e-08
4.3540965e-08
4.2883004e-08
4.2207987e-08
4.1498302e-08
4.0759803e-08
3.9993667e-08
3.9192745e-08
3.8351224e-08
3.7458877e-08
3.6517647e-08
3.5521586e-08
3.4467304e-08
3.3336308e-08
3.2169299e-08
3.0935949e-08
2.9660103e-08