/*--------------------------------*- C++ -*----------------------------------*\
| =========                 |                                                 |
| \\      /  F ield         | OpenFOAM: The Open Source CFD Toolbox           |
|  \\    /   O peration     | Version:  2.4.0                                 |
|   \\  /    A nd           | Web:      www.OpenFOAM.org                      |
|    \\/     M anipulation  |                                                 |
\*---------------------------------------------------------------------------*/
FoamFile
{
    version     2.0;
    format      ascii;
    class       volScalarField;
    location    "800";
    object      omega;
}
// * * * * * * * * * * * * * * * * * * * * * * * * * * * * * * * * * * * * * //

dimensions      [0 0 -1 0 0 0 0];

internalField   nonuniform List<scalar> 
78300
(
288636.63
288686.54
288700.32
288833.65
289515.6
291432.02
295479.08
302673.01
314010.37
329813.04
346787.82
362441.63
375829.98
386411.76
393919.79
398343.7
399991.89
399060.36
395721.33
390174.45
382632.29
373308
362413.46
350675.33
339521.98
329123.31
319421.78
310364.21
301901.89
293992.53
286594.56
279672.29
273192.3
267123.9
261439.18
256109.32
250877.53
245350.68
239525.68
233441.11
227134.93
220644.17
214005.21
207254.37
200428.97
193566.99
186709.47
179903.22
173262.16
167044.3
161298.04
156019.07
151204.62
146855.25
142973.85
139564.67
136634.53
134192.24
132247.52
130811.23
129895.27
129511.99
129657.27
129783.85
129783.85
129783.85
129783.85
129783.85
129783.85
129783.85
129783.85
129783.85
129783.85
129783.85
129783.85
129783.85
129783.85
129783.85
129783.85
129783.85
129783.85
129783.85
129783.85
129783.85
129783.85
129783.85
129783.85
129783.85
129783.85
129783.85
129783.85
129783.85
129783.85
129783.85
129783.85
129783.85
129783.85
129783.85
129783.85
129783.85
129783.85
129783.85
129783.85
129783.85
129783.85
129783.85
129783.85
129783.85
129783.85
129783.85
129783.85
129783.85
129783.85
129783.85
129783.85
129783.85
129783.85
129783.85
129783.85
129783.85
129783.85
129783.85
129783.84
129783.85
129783.85
129783.85
129783.85
129783.84
129783.85
129783.85
129783.85
129783.85
129783.85
129783.85
129783.85
129783.85
129783.84
129783.85
129783.85
129783.84
129783.85
129783.85
129783.85
129783.85
129783.85
129783.84
129783.85
129783.85
129783.85
129783.85
129783.85
129783.85
129783.85
129783.85
129783.84
129783.85
129783.85
129783.85
129783.84
129783.85
129783.85
129783.84
129783.85
129783.85
129783.84
129783.85
129783.85
129783.84
129783.85
129783.85
129783.85
129783.85
129783.85
129783.85
129783.85
129783.84
129783.85
129783.85
129783.85
129783.85
129783.85
129783.85
129783.85
129783.85
129783.85
129783.85
129783.85
129783.85
129783.85
129783.85
129783.85
129783.85
129783.85
129783.85
129783.84
129783.85
129783.85
129783.84
129783.85
129783.85
129783.85
129783.85
129783.85
129783.84
129783.85
129783.85
129783.84
129657.28
129512.01
129895.29
130811.3
132247.51
134192.34
136634.64
139564.65
142973.98
146855.32
151204.67
156018.82
161297.58
167043.87
173262.26
179902.7
186708.68
193567.05
200429.57
207253.32
214004.05
220644.49
227134.65
233439.26
239524.1
245352.66
250877.67
256108.08
261440.19
267124.37
273191.43
279670.54
286594.56
293991.4
301901.42
310366.51
319421.34
329122.77
339524.25
350675.49
362412.53
373310.22
382630.1
390168.83
395719.68
399058.71
399989.9
398342.36
393921.5
386411.41
375828.67
362441.01
346789.96
329814.86
314010.09
302672.88
295478.99
291431.81
289515.62
288834.57
288701.21
288686.52
288636.62
48842.219
48850.019
48851.779
48873.988
48989.308
49313.145
49997.18
51213
53129.217
55125.945
56664.724
61320.951
63546.251
65133.435
64801.691
65756.854
66469.81
66889.233
65911.224
65464.524
64740.513
63168.333
61325.638
59339.773
57452.429
55692.752
54051.007
52518.245
51086.214
49747.775
48495.885
47324.479
46227.913
45200.989
44238.97
43337.05
42451.904
41516.912
40531.463
39502.145
38435.326
37337.215
36214.055
35071.952
33917.189
32756.237
31596.047
30444.498
29320.781
28268.595
27296.211
26402.876
25588.155
24852.142
24195.304
23618.383
23122.545
22709.256
22380.168
22137.133
21982.161
21917.339
21941.462
21962.057
21961.777
21961.76
21961.749
21961.735
21961.724
21961.714
21961.706
21961.699
21961.694
21961.689
21961.685
21961.681
21961.678
21961.675
21961.673
21961.671
21961.669
21961.667
21961.665
21961.664
21961.663
21961.662
21961.661
21961.66
21961.658
21961.657
21961.656
21961.655
21961.655
21961.654
21961.653
21961.652
21961.651
21961.65
21961.649
21961.647
21961.646
21961.645
21961.644
21961.643
21961.642
21961.641
21961.639
21961.639
21961.638
21961.636
21961.636
21961.635
21961.634
21961.633
21961.633
21961.631
21961.63
21961.629
21961.628
21961.627
21961.626
21961.624
21961.624
21961.623
21961.621
21961.62
21961.619
21961.618
21961.618
21961.616
21961.615
21961.614
21961.613
21961.612
21961.611
21961.609
21961.609
21961.608
21961.606
21961.606
21961.605
21961.604
21961.602
21961.602
21961.601
21961.6
21961.6
21961.599
21961.598
21961.597
21961.597
21961.596
21961.596
21961.595
21961.594
21961.594
21961.593
21961.593
21961.592
21961.591
21961.59
21961.588
21961.591
21961.591
21961.59
21961.59
21961.589
21961.589
21961.589
21961.589
21961.589
21961.588
21961.588
21961.588
21961.588
21961.588
21961.588
21961.588
21961.588
21961.588
21961.587
21961.588
21961.588
21961.588
21961.588
21961.588
21961.588
21961.588
21961.589
21961.589
21961.589
21961.59
21961.59
21961.59
21961.59
21961.592
21961.592
21961.592
21961.593
21961.594
21961.595
21961.596
21961.598
21961.599
21961.6
21961.604
21961.844
21941.267
21917.3
21982.178
22137.163
22380.193
22709.285
23122.566
23618.405
24195.408
24852.155
25588.198
26403.361
27260.735
28268.702
29321.02
30443.695
31676.959
33383.5
33923.824
34853.876
36152.241
37412.911
38454.428
38083.151
38948.027
41420.331
43161.058
43296.729
44149.174
45231.098
46413.352
47323.455
48472.882
49818.256
51087.07
52521.46
54050.867
53841.054
57475.329
56973.512
59991.241
63180.571
61815.808
62761.221
65356.994
67498.769
67978.415
67383.92
64079.853
63464.09
64090.298
60122.602
57217.471
55813.385
53172.513
51010.916
49995.46
49157.931
48988.972
48872.413
48853.014
48850.81
48843.033
16150.377
16152.698
16153.171
16160.623
16199.18
16306.386
16532.284
16933.367
17565.381
18301.188
18960.486
20271.454
21063.244
21556.32
21631.08
21950.222
22124.618
22186.089
21916.719
21710.195
21407.621
20888.011
20279.082
19622.562
18998.435
18416.506
17873.562
17366.668
16893.08
16450.44
16036.428
15649.036
15286.389
14946.767
14628.61
14330.367
14037.742
13728.677
13402.941
13062.689
12710.043
12347.05
11975.748
11598.171
11216.399
10832.575
10448.999
10068.267
9696.6888
9348.7193
9027.1293
8731.6829
8462.2326
8218.8091
8001.5684
7810.757
7646.7661
7510.0793
7401.2416
7320.874
7269.6429
7248.2705
7256.106
7262.4967
7262.2262
7262.2014
7262.1836
7262.1646
7262.1471
7262.1334
7262.1227
7262.1134
7262.1057
7262.0993
7262.0942
7262.0895
7262.0856
7262.0826
7262.0802
7262.0777
7262.0756
7262.0739
7262.0726
7262.0713
7262.07
7262.0688
7262.0678
7262.0668
7262.0658
7262.0648
7262.0638
7262.0627
7262.0619
7262.0607
7262.0595
7262.0582
7262.0569
7262.0554
7262.054
7262.0524
7262.0507
7262.0489
7262.0473
7262.0453
7262.0435
7262.0412
7262.0391
7262.0375
7262.0359
7262.0341
7262.0323
7262.0304
7262.0283
7262.0262
7262.0241
7262.0217
7262.0193
7262.017
7262.0148
7262.0123
7262.0096
7262.007
7262.0045
7262.0019
7261.9991
7261.9964
7261.9937
7261.9908
7261.9882
7261.9853
7261.9827
7261.9798
7261.9771
7261.9743
7261.9716
7261.969
7261.9662
7261.9636
7261.9611
7261.9585
7261.956
7261.9535
7261.951
7261.9486
7261.9463
7261.944
7261.9421
7261.9399
7261.9377
7261.9356
7261.9339
7261.9319
7261.93
7261.9282
7261.9264
7261.925
7261.9233
7261.9218
7261.9197
7261.9176
7261.9145
7261.9122
7261.9146
7261.9152
7261.9142
7261.913
7261.9117
7261.9103
7261.9096
7261.9087
7261.9079
7261.9071
7261.9067
7261.9061
7261.9055
7261.905
7261.9047
7261.9042
7261.904
7261.9036
7261.9035
7261.9033
7261.9031
7261.9031
7261.9032
7261.9032
7261.9034
7261.9034
7261.9035
7261.9036
7261.9045
7261.9049
7261.9053
7261.9059
7261.9066
7261.9075
7261.9085
7261.9097
7261.9111
7261.9127
7261.9146
7261.9168
7261.9196
7261.9219
7261.9247
7261.9287
7262.136
7255.7835
7248.1899
7269.6604
7320.9086
7401.2849
7510.1192
7646.806
7810.7974
8001.6574
8218.8064
8462.2139
8731.9611
9037.2579
9349.0096
9696.789
10066.749
10489.874
11133.477
11225.304
11506.883
11893.02
12352.341
12709.282
12768.961
13005.068
13677.536
14305.389
14314.597
14602.149
14944.539
15368.777
15647.401
16023.341
16520.109
16895.172
17368.187
17873.89
17926.562
18982.71
18362.044
19963.62
20894.644
20456.32
20709.621
22351.403
22351.872
22994.38
22007.157
21516.465
21475.299
21218.702
20546.302
19093.343
18443.848
17564.141
16873.988
16532.28
16274.582
16200.319
16161.234
16155.022
16154.2
16151.576
7444.8127
7445.8202
7446.2096
7450.0019
7468.3586
7518.1137
7622.1263
7806.3011
8096.2256
8451.0028
8792.6066
9341.5478
9737.6912
9942.4761
10027.826
10160.975
10238.738
10247.216
10126.193
10019.773
9868.0296
9628.7926
9348.3427
9045.8014
8758.078
8489.7942
8239.4838
8005.7884
7787.4479
7583.3752
7392.5028
7213.9021
7046.7083
6890.1302
6743.4473
6605.9552
6471.0986
6328.6998
6178.613
6021.83
5859.3336
5692.0722
5520.969
5346.9604
5171.0099
4994.113
4817.3243
4641.8397
4470.5502
4310.1151
4161.8354
4025.6086
3901.3649
3789.1206
3688.9485
3600.9604
3525.3422
3462.3176
3412.1348
3375.0908
3351.4935
3341.7174
3345.3533
3348.1069
3347.8689
3347.8415
3347.8216
3347.8016
3347.7819
3347.768
3347.7575
3347.7485
3347.7415
3347.7361
3347.7319
3347.7284
3347.7257
3347.724
3347.7228
3347.7217
3347.7208
3347.7204
3347.7202
3347.7201
3347.7199
3347.7198
3347.7198
3347.7198
3347.7195
3347.7193
3347.7189
3347.7185
3347.718
3347.7173
3347.7164
3347.7153
3347.7141
3347.7127
3347.7111
3347.7093
3347.7073
3347.7051
3347.7028
3347.7003
3347.6976
3347.6946
3347.6916
3347.689
3347.6862
3347.6832
3347.6801
3347.6767
3347.6731
3347.6694
3347.6655
3347.6614
3347.6571
3347.6529
3347.6487
3347.6441
3347.6393
3347.6345
3347.6298
3347.6248
3347.6197
3347.6146
3347.6095
3347.6043
3347.599
3347.5937
3347.5885
3347.5832
3347.5778
3347.5726
3347.5674
3347.5622
3347.557
3347.5519
3347.5468
3347.5418
3347.5368
3347.532
3347.5271
3347.5224
3347.5178
3347.5133
3347.5091
3347.5048
3347.5005
3347.4963
3347.4925
3347.4886
3347.4848
3347.4811
3347.4776
3347.4743
3347.4709
3347.4678
3347.4639
3347.4598
3347.4544
3347.4501
3347.4524
3347.453
3347.4508
3347.4482
3347.4455
3347.4431
3347.4411
3347.4393
3347.4375
3347.4358
3347.4344
3347.4332
3347.4318
3347.4306
3347.4295
3347.4285
3347.4278
3347.4269
3347.4262
3347.4257
3347.425
3347.4247
3347.4246
3347.4243
3347.4243
3347.4242
3347.4239
3347.4242
3347.425
3347.4256
3347.4259
3347.4268
3347.4277
3347.4289
3347.4303
3347.4321
3347.4339
3347.4363
3347.439
3347.4423
3347.4464
3347.4499
3347.454
3347.4596
3347.6192
3344.9239
3341.5966
3351.5059
3375.1284
3412.1866
3462.3675
3525.3902
3601.0171
3689.0496
3789.1028
3901.343
4025.942
4167.3598
4310.4147
4470.6269
4640.075
4806.1253
5073.9553
5176.0152
5314.9444
5519.4427
5677.0979
5847.6191
5932.3547
6059.352
6337.6812
6539.7133
6611.4803
6753.0499
6888.0255
7027.3916
7210.3118
7393.376
7593.1529
7789.6561
8007.1589
8240.2637
8357.8262
8743.8989
8561.7549
9254.2358
9627.6369
9473.8234
9679.651
10207.385
10325.881
10342.125
10066.007
10032.956
9891.8198
9690.6755
9468.2272
8840.6547
8501.5954
8091.557
7769.8138
7624.0368
7505.5597
7471.1339
7452.5718
7448.6972
7448.0114
7446.2943
4130.5559
4131.1627
4131.6877
4134.2619
4145.067
4173.053
4230.6681
4332.2377
4491.8161
4692.9753
4893.5883
5180.8156
5402.0437
5516.0394
5581.3006
5647.3371
5690.6839
5690.1544
5625.3045
5562.3186
5474.3271
5341.7675
5186.3299
5018.5526
4858.9248
4710.0768
4571.2037
4441.5408
4320.399
4207.1742
4101.2755
4002.1835
3909.4197
3822.5467
3741.1627
3664.8807
3590.0831
3511.1247
3427.8921
3340.9454
3250.8368
3158.084
3063.1903
2966.6733
2869.0759
2770.9519
2672.8856
2575.5419
2480.5124
2391.4877
2309.204
2233.6076
2164.6578
2102.3668
2046.7744
1997.9403
1955.974
1921.0016
1893.1557
1872.6135
1859.5456
1854.2063
1856.3289
1857.7801
1857.5706
1857.5438
1857.5244
1857.5059
1857.4868
1857.4749
1857.4668
1857.4599
1857.4554
1857.4525
1857.4509
1857.4499
1857.4497
1857.4506
1857.4518
1857.453
1857.4544
1857.4562
1857.458
1857.4599
1857.4615
1857.4632
1857.4648
1857.4662
1857.4674
1857.4684
1857.4691
1857.4696
1857.47
1857.47
1857.4696
1857.4689
1857.4679
1857.4666
1857.465
1857.463
1857.4606
1857.458
1857.4551
1857.4518
1857.4482
1857.4441
1857.4399
1857.436
1857.4316
1857.427
1857.4221
1857.4168
1857.4112
1857.4053
1857.3991
1857.3926
1857.3858
1857.379
1857.3721
1857.3647
1857.357
1857.3493
1857.3415
1857.3334
1857.3251
1857.3169
1857.3085
1857.3
1857.2914
1857.2827
1857.274
1857.2654
1857.2566
1857.248
1857.2394
1857.2308
1857.2222
1857.2137
1857.2053
1857.197
1857.1887
1857.1806
1857.1726
1857.1648
1857.157
1857.1495
1857.1423
1857.1351
1857.1279
1857.1209
1857.1144
1857.1078
1857.1015
1857.0952
1857.0892
1857.0836
1857.0779
1857.0725
1857.0663
1857.0594
1857.0514
1857.0446
1857.046
1857.0464
1857.0425
1857.038
1857.0336
1857.0296
1857.0261
1857.023
1857.0198
1857.0168
1857.0144
1857.0121
1857.0096
1857.0075
1857.0055
1857.0036
1857.0021
1857.0005
1856.9992
1856.9981
1856.9967
1856.996
1856.9955
1856.9949
1856.9945
1856.9941
1856.9935
1856.9937
1856.9946
1856.9951
1856.9955
1856.9966
1856.9976
1856.9991
1857.001
1857.0033
1857.0058
1857.0089
1857.0126
1857.0169
1857.0226
1857.0272
1857.0328
1857.0402
1857.1611
1855.7894
1854.0376
1859.5441
1872.6481
1893.2065
1921.0532
1956.0193
1998.0027
2046.8765
2102.3263
2164.6242
2234.1032
2308.7477
2391.8093
2480.6095
2573.3743
2662.394
2783.3188
2875.0061
2958.8096
3076.7273
3144.8882
3238.6963
3304.0821
3395.9417
3523.1984
3597.2585
3669.0669
3744.4137
3827.8657
3890.2809
3997.0954
4103.3873
4201.2229
4322.6172
4443.5287
4572.4135
4669.2904
4855.358
4819.1338
5164.2104
5336.27
5336.8369
5497.9691
5502.0528
5730.9592
5586.5926
5606.4274
5612.7531
5449.6797
5333.9081
5155.128
4920.1655
4723.4197
4497.5511
4318.4723
4236.5258
4171.1607
4149.5933
4138.3653
4134.898
4134.0377
4132.2921
2570.4381
2570.9001
2571.5919
2573.7021
2581.0245
2598.7842
2634.4905
2697.062
2795.1451
2922.0796
3050.3346
3221.8211
3351.0373
3429.5845
3477.267
3517.5311
3542.5394
3540.6743
3503.5705
3462.3478
3405.3604
3322.9984
3226.4012
3122.0771
3022.7754
2930.1796
2843.7887
2763.1225
2687.7578
2617.3204
2551.4418
2489.7973
2432.0888
2378.045
2327.4148
2279.9594
2233.4385
2184.3427
2132.5816
2078.5139
2022.482
1964.8051
1905.7931
1845.7583
1785.0488
1724.0119
1663.0098
1602.4581
1543.3409
1487.9474
1436.7451
1389.7036
1346.7951
1308.0301
1273.4335
1243.0392
1216.9222
1195.1631
1177.8386
1165.0725
1156.9701
1153.739
1155.1995
1156.0775
1155.8878
1155.864
1155.8475
1155.8325
1155.8161
1155.8078
1155.8038
1155.8006
1155.7999
1155.8008
1155.803
1155.8056
1155.8089
1155.8133
1155.8178
1155.8221
1155.8264
1155.8311
1155.8356
1155.84
1155.844
1155.8479
1155.8515
1155.8548
1155.8577
1155.8602
1155.8622
1155.8639
1155.8653
1155.8661
1155.8663
1155.866
1155.8652
1155.864
1155.8622
1155.8599
1155.857
1155.8537
1155.8499
1155.8456
1155.8407
1155.8351
1155.8294
1155.8236
1155.8173
1155.8105
1155.8033
1155.7955
1155.7873
1155.7786
1155.7694
1155.7597
1155.7497
1155.7396
1155.7293
1155.7184
1155.7071
1155.6956
1155.684
1155.672
1155.6597
1155.6474
1155.6349
1155.6223
1155.6094
1155.5966
1155.5837
1155.5708
1155.5578
1155.5449
1155.5321
1155.5192
1155.5064
1155.4938
1155.4812
1155.4688
1155.4565
1155.4444
1155.4324
1155.4206
1155.409
1155.3977
1155.3869
1155.3762
1155.3654
1155.3549
1155.345
1155.3352
1155.3256
1155.3162
1155.3072
1155.2987
1155.2901
1155.2819
1155.2728
1155.2627
1155.2515
1155.2417
1155.242
1155.242
1155.2358
1155.2292
1155.2227
1155.2167
1155.2114
1155.2067
1155.2019
1155.1974
1155.1935
1155.19
1155.1861
1155.183
1155.1798
1155.1769
1155.1745
1155.172
1155.1699
1155.1681
1155.166
1155.1648
1155.1638
1155.1627
1155.162
1155.1613
1155.1603
1155.1604
1155.1614
1155.1619
1155.1623
1155.1635
1155.1648
1155.1666
1155.1691
1155.1719
1155.1751
1155.1791
1155.1839
1155.1894
1155.1968
1155.2027
1155.2101
1155.2191
1155.3138
1154.5383
1153.5095
1156.9429
1165.0935
1177.8782
1195.2045
1216.9545
1243.0937
1273.5259
1307.9573
1346.7284
1390.2836
1436.4478
1488.297
1543.4404
1599.6809
1659.1312
1725.1233
1792.9204
1841.659
1910.7984
1953.5248
2009.4345
2060.2097
2123.9977
2189.1832
2229.1514
2280.6471
2323.853
2384.6712
2427.8343
2483.7323
2551.2803
2616.2152
2690.3095
2765.569
2845.2608
2907.7868
3019.3165
3029.7054
3216.6917
3316.1209
3367.0032
3481.1684
3383.3991
3552.1749
3470.0525
3513.061
3498.4222
3387.6579
3318.0543
3161.7381
3069.6461
2945.119
2806.639
2700.1706
2644.501
2603.9157
2587.4354
2579.1329
2575.6566
2574.4814
2572.4275
1727.8989
1728.2855
1729.1229
1731.059
1736.5426
1748.7656
1772.5377
1813.8858
1878.5852
1964.3247
2051.9427
2163.1212
2243.7421
2302.8307
2337.476
2365.1952
2380.1168
2378.4634
2355.444
2326.829
2287.1306
2231.8921
2167.0846
2097.0514
2030.3589
1968.1718
1910.1498
1855.9699
1805.3499
1758.0427
1713.7976
1672.3965
1633.6387
1597.3421
1563.3376
1531.4639
1500.2231
1467.2623
1432.5066
1396.2067
1358.5849
1319.8602
1280.24
1239.9185
1199.141
1158.1448
1117.171
1076.502
1036.7948
999.57944
965.1775
933.57087
904.73814
878.68957
855.44166
835.01436
817.46445
802.84883
791.21306
782.65438
777.24198
775.16809
776.30713
776.90066
776.72605
776.7072
776.6954
776.68553
776.6736
776.67034
776.67173
776.67341
776.67761
776.68337
776.69023
776.69722
776.70475
776.71325
776.72179
776.72972
776.73751
776.74549
776.75312
776.76036
776.76705
776.77339
776.77925
776.7846
776.78929
776.79341
776.79682
776.79967
776.80203
776.80354
776.80424
776.80429
776.80353
776.80212
776.79994
776.797
776.79325
776.78888
776.78382
776.77797
776.77142
776.76378
776.75603
776.74789
776.73902
776.7295
776.7193
776.7084
776.69682
776.68463
776.67177
776.6583
776.64434
776.63015
776.61573
776.60046
776.58468
776.56868
776.55246
776.53575
776.5187
776.50152
776.4842
776.46658
776.44879
776.43094
776.413
776.39501
776.37701
776.35912
776.34127
776.32344
776.3057
776.28813
776.27069
776.25345
776.23639
776.21956
776.20297
776.18664
776.17051
776.15486
776.13981
776.1249
776.11004
776.09544
776.08167
776.06803
776.05475
776.04173
776.02929
776.01736
776.00551
775.99405
775.98172
775.968
775.95316
775.94003
775.93912
775.93828
775.92959
775.92039
775.91155
775.90339
775.89605
775.88948
775.88288
775.87663
775.87125
775.86624
775.86096
775.85655
775.85217
775.8481
775.84466
775.84118
775.83823
775.83564
775.83286
775.83104
775.82955
775.82801
775.82696
775.82591
775.82464
775.82458
775.82571
775.82628
775.82679
775.82828
775.82991
775.83218
775.83528
775.83883
775.84285
775.84791
775.85395
775.86081
775.8701
775.87751
775.887
775.89795
775.97472
775.50836
774.86125
777.17458
782.64745
791.22811
802.86629
817.47103
835.04463
855.51286
878.57325
904.62238
934.18469
965.30318
999.94403
1036.8782
1073.0959
1113.7016
1159.6625
1208.2563
1236.9112
1281.5417
1307.4584
1343.0838
1386.6411
1433.2752
1470.2026
1495.9573
1531.3591
1558.4029
1603.7731
1632.7381
1665.3803
1713.0415
1761.4894
1808.4612
1858.7267
1911.7471
1952.404
2024.5284
2046.9825
2157.2807
2224.5429
2274.4037
2357.682
2298.2527
2370.4551
2362.6809
2370.3146
2347.7097
2287.691
2240.4275
2120.0025
2068.6973
1985.3733
1892.9199
1826.7259
1786.3615
1758.3199
1745.0611
1737.9934
1734.2075
1732.6263
1730.1641
1227.6304
1227.9427
1228.8827
1230.7675
1235.1837
1244.0907
1260.66
1289.2195
1333.8896
1394.2284
1457.1083
1533.6213
1589.0615
1633.6432
1659.1902
1678.9906
1688.5053
1687.3527
1671.6631
1651.0198
1622.1307
1583.0215
1537.1127
1487.4704
1440.1732
1396.073
1354.9247
1316.4988
1280.5965
1247.0477
1215.671
1186.3114
1158.8261
1133.0865
1108.9716
1086.3656
1064.2107
1040.8425
1016.1969
990.46191
963.78509
936.32791
908.23801
879.63723
850.70964
821.62858
792.5623
763.71562
735.55143
709.14691
684.73662
662.3098
641.84783
623.3618
606.86314
592.3631
579.90849
569.54253
561.2918
555.23957
551.43353
550.06428
551.04091
551.48363
551.322
551.30969
551.30418
551.3008
551.29464
551.29753
551.3052
551.31265
551.32251
551.33376
551.34587
551.35781
551.37004
551.3831
551.39594
551.40784
551.41936
551.43086
551.44174
551.45198
551.46144
551.47027
551.47839
551.48574
551.49218
551.4978
551.50244
551.50627
551.50939
551.51137
551.51228
551.51227
551.51121
551.50924
551.50625
551.50222
551.49716
551.49123
551.48437
551.47648
551.46765
551.45738
551.447
551.43586
551.42377
551.41082
551.397
551.38227
551.36666
551.35026
551.33301
551.31496
551.29629
551.2773
551.25799
551.23766
551.21667
551.19538
551.1738
551.15163
551.12904
551.10628
551.08333
551.06005
551.03654
551.01296
550.98929
550.96557
550.94185
550.91827
550.89476
550.8713
550.84796
550.82486
550.80196
550.77929
550.7569
550.73481
550.71305
550.69162
550.67048
550.64996
550.63019
550.61063
550.59122
550.57215
550.55404
550.53617
550.5188
550.50182
550.48555
550.46988
550.45442
550.43943
550.42349
550.40587
550.38712
550.37048
550.3683
550.36638
550.35491
550.34302
550.33161
550.32114
550.31164
550.30308
550.29454
550.28647
550.27947
550.27293
550.26614
550.2604
550.25476
550.24951
550.24505
550.24059
550.23679
550.23345
550.22995
550.22759
550.22566
550.22369
550.22237
550.22106
550.21955
550.21949
550.22086
550.2216
550.22233
550.22422
550.22632
550.2292
550.23311
550.23755
550.24264
550.24895
550.25647
550.26493
550.27638
550.28559
550.29744
550.31053
550.37486
550.08533
549.66017
551.30761
555.18762
561.26592
569.52026
579.87378
592.3515
606.89712
623.18841
641.66668
662.93935
684.73927
709.51086
735.60709
759.73719
787.56018
824.33336
860.82874
878.51431
909.98937
921.45951
945.7697
985.80011
1023.9062
1044.5855
1061.1877
1086.4589
1103.7741
1140.2103
1156.3525
1178.2237
1215.0793
1251.8431
1284.3049
1319.5649
1356.6042
1385.1623
1433.5874
1458.2092
1530.6779
1575.5844
1612.9516
1679.1788
1659.9326
1670.373
1696.1439
1686.0231
1670.6882
1636.1999
1599.5852
1513.0664
1474.2882
1416.8319
1351.2441
1307.5796
1277.9863
1256.99
1246.0249
1239.4542
1235.1682
1233.1103
1230.2096
909.50111
909.70849
910.69544
912.5763
916.32646
923.09624
934.96749
955.19749
986.89517
1030.4136
1077.0688
1132.3234
1173.8
1207.0216
1226.4066
1240.7795
1247.3195
1246.5923
1235.0998
1219.7152
1198.0902
1169.2645
1135.4033
1098.7632
1063.8356
1031.2708
1000.8848
972.50668
945.99148
921.21785
898.04911
876.37063
856.07586
837.07056
819.26417
802.56864
786.20711
768.95425
750.75323
731.75383
712.05583
691.7814
671.0421
649.91337
628.53955
607.05421
585.57869
564.26914
543.46532
523.95485
505.91614
489.34311
474.21871
460.555
448.36012
437.63964
428.43461
420.77996
414.68993
410.2404
407.4662
406.56136
407.45787
407.8187
407.66943
407.66486
407.66681
407.67088
407.67142
407.68116
407.69567
407.70943
407.72533
407.74242
407.76005
407.77716
407.79427
407.81199
407.8292
407.84509
407.86033
407.87529
407.88933
407.90244
407.9145
407.92563
407.93577
407.94485
407.95275
407.95952
407.96505
407.96947
407.97291
407.97492
407.97558
407.97502
407.97314
407.97007
407.9657
407.96001
407.95302
407.9449
407.93561
407.92503
407.91323
407.89971
407.88594
407.87111
407.85508
407.83799
407.81983
407.80054
407.78018
407.75883
407.73647
407.71312
407.68902
407.66451
407.6396
407.6135
407.58659
407.55932
407.53171
407.5034
407.4746
407.4456
407.4164
407.38681
407.35697
407.32707
407.29708
407.26705
407.23706
407.20724
407.17755
407.14795
407.11853
407.08941
407.06057
407.03205
407.00388
406.97611
406.94878
406.92188
406.89536
406.86962
406.84479
406.82026
406.79598
406.77216
406.74944
406.72707
406.70537
406.68419
406.66387
406.64426
406.62499
406.60629
406.58653
406.56489
406.54203
406.52189
406.51849
406.5153
406.5009
406.48625
406.47222
406.45938
406.44766
406.43709
406.4266
406.41669
406.40806
406.40001
406.39172
406.38469
406.37782
406.37144
406.36603
406.36064
406.35607
406.35205
406.34793
406.34513
406.34286
406.34058
406.33911
406.33767
406.33604
406.33614
406.33791
406.33898
406.3401
406.34258
406.34535
406.34904
406.35398
406.35954
406.36593
406.37376
406.38302
406.39337
406.40729
406.41862
406.43313
406.44868
406.50431
406.32363
406.037
407.26005
410.12383
414.60416
420.69995
428.34094
437.5666
448.33675
460.30878
473.9547
489.96016
505.76085
524.30741
543.48339
559.75707
579.542
610.53536
639.62727
650.74703
673.47838
674.27072
691.84393
729.97128
763.47745
773.47559
784.24278
802.75099
813.33876
845.23752
852.30783
867.17581
897.50898
926.28682
950.25858
975.88776
1002.662
1023.8102
1057.3839
1081.6217
1134.4331
1161.9481
1190.0201
1246.9363
1240.8373
1226.7193
1258.3369
1250.1857
1247.8867
1220.388
1189.4926
1126.9119
1096.305
1056.008
1007.6516
977.22599
955.50867
939.06525
929.63213
923.20004
918.35779
915.76978
912.43814
696.54403
696.59987
697.57149
699.45722
702.76526
708.08334
716.70236
731.16061
753.91811
785.74705
821.15884
862.60122
894.96645
919.98886
935.15828
945.82739
950.58629
950.13596
941.35517
929.55266
912.99391
891.07993
865.31654
837.41868
810.8092
786.00222
762.85465
741.23386
721.03182
702.15992
684.51188
668.0001
652.54209
638.0668
624.50394
611.78343
599.31671
586.17489
572.30529
557.8335
542.82843
527.38193
511.58309
495.4767
479.17971
462.7997
446.42609
430.18298
414.32767
399.45264
385.69797
373.06069
361.52483
351.10338
341.80224
333.62312
326.6036
320.77347
316.13872
312.77142
310.69881
310.12074
310.98272
311.29981
311.16295
311.16692
311.17704
311.18907
311.19681
311.21368
311.23518
311.25537
311.27734
311.30024
311.3233
311.34545
311.36729
311.38946
311.41078
311.43039
311.44904
311.46711
311.48393
311.49952
311.51375
311.52673
311.53841
311.54872
311.55753
311.56491
311.57074
311.57517
311.57831
311.57971
311.57947
311.5777
311.57431
311.56943
311.56298
311.55492
311.54527
311.53423
311.52177
311.50774
311.49221
311.47474
311.45682
311.43753
311.41684
311.39486
311.37162
311.34705
311.32122
311.29423
311.26605
311.23673
311.20653
311.17584
311.14469
311.1122
311.07875
311.04491
311.01068
310.97569
310.94013
310.90437
310.86841
310.83203
310.79539
310.75871
310.72197
310.68522
310.64856
310.61213
310.5759
310.5398
310.50398
310.46853
310.43346
310.3988
310.36461
310.33092
310.29779
310.2652
310.23311
310.20197
310.17192
310.14226
310.11297
310.08428
310.0568
310.02983
310.0037
309.97827
309.95381
309.9302
309.90707
309.88462
309.86099
309.83529
309.80834
309.78484
309.78035
309.77577
309.75847
309.7411
309.72448
309.70933
309.69547
309.68292
309.67057
309.6589
309.64873
309.63925
309.62959
309.62137
309.61339
309.60599
309.59975
309.59358
309.58836
309.58382
309.57922
309.57615
309.57371
309.57128
309.56983
309.56844
309.56689
309.56735
309.56971
309.57132
309.57306
309.57636
309.58002
309.58478
309.59097
309.59792
309.6059
309.61553
309.62683
309.63938
309.65609
309.66993
309.68743
309.70577
309.75545
309.64581
309.45038
310.3882
312.56806
315.97186
320.61565
326.43148
333.4674
341.69858
350.76659
361.15956
373.62485
385.40786
399.7821
414.29788
425.16183
439.78155
466.88467
491.13029
497.9452
514.15963
507.41476
520.73821
557.82185
588.32494
591.03437
598.30992
611.89105
617.61666
647.1427
648.189
657.72957
683.89044
707.60195
725.81915
744.90445
764.75161
780.76189
804.49804
827.3431
869.77926
884.27847
907.58474
958.46683
948.424
928.82788
957.95547
958.69141
968.18677
940.29591
913.89822
865.87989
842.91524
814.40908
777.75609
755.96768
740.0748
726.95831
718.57103
712.12984
706.76539
703.61585
699.88137
548.26787
548.11736
549.0075
550.88551
553.88352
558.18295
564.44993
574.70491
590.96729
614.36064
641.67015
673.6328
699.2158
718.70272
730.87263
738.9984
742.57405
742.28531
735.41502
726.14648
713.1978
696.12549
676.03584
654.26532
633.48679
614.11829
596.04546
579.16198
563.38598
548.65197
534.87495
521.9861
509.91987
498.62141
488.03432
478.10076
468.36371
458.10255
447.26745
435.96823
424.25269
412.18862
399.85101
387.2633
374.52282
361.71936
348.91981
336.22642
323.83906
312.21283
301.46063
291.58158
282.56059
274.41146
267.13852
260.74089
255.25402
250.70436
247.09245
244.48862
242.91587
242.58074
243.43434
243.72967
243.60543
243.61828
243.63671
243.65672
243.67169
243.69549
243.72368
243.74999
243.77764
243.80591
243.83393
243.86063
243.88666
243.91273
243.93759
243.9603
243.98174
244.00227
244.02122
244.03859
244.05428
244.06839
244.08088
244.09167
244.10063
244.10783
244.11318
244.11682
244.11884
244.11882
244.11685
244.11304
244.10731
244.09981
244.09045
244.07918
244.06605
244.05127
244.03482
244.01654
243.99644
243.97429
243.95142
243.92693
243.90082
243.87323
243.84421
243.81367
243.7817
243.74842
243.71381
243.67793
243.64105
243.60364
243.56571
243.52632
243.48586
243.44499
243.40372
243.36163
243.31894
243.27606
243.23299
243.18951
243.14578
243.10206
243.05833
243.01463
242.9711
242.92788
242.88495
242.84222
242.79986
242.75798
242.7166
242.67573
242.63545
242.5958
242.55684
242.51856
242.48088
242.44436
242.40911
242.37434
242.34008
242.30658
242.27439
242.2429
242.21242
242.18282
242.15431
242.1268
242.09989
242.07379
242.04639
242.01678
241.98589
241.95934
241.95397
241.94801
241.92795
241.90801
241.88896
241.87165
241.85582
241.84146
241.82741
241.81416
241.80264
241.7919
241.78104
241.77182
241.76291
241.7547
241.74782
241.74106
241.73541
241.73054
241.72569
241.72255
241.72012
241.71777
241.71657
241.71544
241.7142
241.71526
241.71844
241.72082
241.72342
241.7278
241.73261
241.7387
241.74642
241.75505
241.76491
241.77665
241.79028
241.80538
241.82521
241.84195
241.86278
241.88423
241.93018
241.86918
241.73631
242.47426
244.17404
246.82145
250.44673
254.98241
260.48014
266.92944
273.96491
282.07518
292.04841
300.99593
312.50488
323.74838
330.73048
341.74003
366.3879
387.19301
391.10116
402.38408
389.98879
400.71265
437.26491
465.5726
463.13671
468.30876
478.13281
480.2073
508.47019
505.12969
510.68825
534.11973
554.6355
568.66706
583.08202
598.08965
610.26413
627.26132
648.31766
684.13891