/*--------------------------------*- C++ -*----------------------------------*\
| =========                 |                                                 |
| \\      /  F ield         | OpenFOAM: The Open Source CFD Toolbox           |
|  \\    /   O peration     | Version:  2.4.0                                 |
|   \\  /    A nd           | Web:      www.OpenFOAM.org                      |
|    \\/     M anipulation  |                                                 |
\*---------------------------------------------------------------------------*/
FoamFile
{
    version     2.0;
    format      ascii;
    class       volScalarField;
    location    "800";
    object      p;
}
// * * * * * * * * * * * * * * * * * * * * * * * * * * * * * * * * * * * * * //

dimensions      [0 2 -2 0 0 0 0];

internalField   nonuniform List<scalar> 
78300
(
-0.14335633
-0.099784121
-0.097245584
-0.093123241
-0.091726038
-0.080189422
-0.070046853
-0.055358483
-0.041054018
-0.03091068
-0.024738873
-0.02064787
-0.020561803
-0.021039132
-0.015794259
-0.01367689
-0.010888243
-0.0081111355
-0.0059663425
-0.0044058228
-0.0031733859
-0.0022605853
-0.001705569
-0.001394113
-0.00096995131
-0.0010118496
-0.0010237792
-0.001002728
-0.0010463018
-0.0010352669
-0.0010758993
-0.0010847134
-0.0010679201
-0.0010505237
-0.00099297981
-0.00091183582
-0.00075945099
-0.00058783504
-0.00035983846
-0.00024935576
-5.431887e-09
0.0004435226
0.00079462622
0.0011507852
0.0015590224
0.0019561189
0.0023356495
0.0026863046
0.0029960178
0.0032840512
0.0035369387
0.0038073194
0.0039930717
0.0041663407
0.0042535681
0.004320457
0.0042873802
0.0042397833
0.0039863139
0.0037953548
0.0033222084
0.0030168559
0.0021289535
0.0018511668
0.0015344777
0.0014167867
0.0013651571
0.0014534378
0.0015982198
0.0018640577
0.0021842371
0.0025697154
0.0030230577
0.0035312769
0.004093707
0.0047027648
0.0053580759
0.0060540195
0.0067868138
0.0075559235
0.0083579797
0.0091917886
0.010052544
0.010941454
0.011856835
0.012795064
0.013755776
0.014737652
0.015741441
0.016764485
0.01780569
0.018866696
0.019946375
0.021046487
0.022165166
0.023303269
0.024460061
0.02563447
0.02682622
0.02803348
0.029257179
0.030495645
0.031746977
0.033014713
0.034296096
0.035594435
0.036907689
0.038236161
0.039580686
0.040938807
0.042310098
0.043695402
0.045094117
0.046504203
0.047926722
0.049357996
0.050801147
0.052253581
0.053708051
0.055176491
0.056653823
0.058137183
0.059625774
0.061121937
0.062624549
0.064130606
0.065640252
0.067154526
0.068672245
0.070191421
0.0717121
0.073233622
0.074755109
0.076275303
0.077792817
0.079309453
0.080823385
0.082333923
0.083839276
0.085339744
0.086833898
0.088320816
0.089800063
0.091269947
0.09273217
0.094185418
0.095626281
0.097060946
0.098484236
0.099897098
0.10130139
0.10269371
0.10407532
0.1054462
0.10680711
0.10815463
0.10949427
0.11081279
0.11214157
0.11342953
0.11473018
0.11601239
0.11721132
0.11848803
0.11972452
0.12093801
0.12215852
0.12335207
0.12454738
0.1257249
0.12689102
0.12804413
0.12918399
0.13031289
0.13142931
0.13253636
0.13363118
0.1347158
0.13578903
0.13685284
0.13790483
0.13894585
0.13997464
0.14099284
0.14199824
0.14299137
0.14397174
0.14494046
0.14589673
0.1468406
0.14777325
0.14869521
0.14960657
0.15050422
0.15139368
0.15226897
0.15313759
0.15398921
0.1548394
0.1556707
0.15650275
0.15730545
0.15812019
0.15889611
0.15969284
0.16043786
0.16122137
0.16193301
0.16269486
0.16334709
0.1641592
0.16483574
0.16563977
0.16636305
0.16729124
0.16793797
0.16876811
0.16959011
0.17034176
0.17130566
0.17161632
0.17391223
0.17520871
0.18185336
0.18032576
0.17921882
0.18081741
0.18591385
0.17359905
0.18042225
0.17816089
0.17917315
0.17151217
0.20444696
0.18937748
0.19317261
0.19544951
0.1844874
0.19571337
0.1961957
0.19628951
0.20028568
0.22049923
0.23797554
0.25234851
0.26289836
0.078967148
0.28526104
0.32193936
0.48232894
0.18827153
-0.78432222
-0.36664453
0.20747453
0.27984121
0.52688656
0.21408124
-0.049401254
-0.14478482
-0.17176629
-0.16407151
-0.20817148
-0.26050435
-0.27574669
-0.27171769
-0.26505804
-0.24624314
-0.2376568
-0.21326002
-0.20866005
-0.14336034
-0.099793004
-0.097247558
-0.093122306
-0.091720572
-0.080191325
-0.070058361
-0.055379583
-0.041087189
-0.030943637
-0.024767676
-0.020658992
-0.020399227
-0.020863678
-0.015851106
-0.0136833
-0.010869242
-0.0081127906
-0.0059770425
-0.0044143119
-0.0031827638
-0.0022587614
-0.0017086724
-0.0013918595
-0.00098634013
-0.0010136974
-0.0010229304
-0.0010039723
-0.001047435
-0.0010354359
-0.0010756459
-0.0010837093
-0.001068539
-0.0010510129
-0.00099397133
-0.00091268718
-0.00076235669
-0.0005878676
-0.00035794096
-0.00023416495
6.567436e-06
0.00043933793
0.00079016016
0.0011478034
0.0015564695
0.0019532571
0.0023328808
0.0026844506
0.0029954115
0.003282695
0.0035370307
0.0038054533
0.0039930768
0.0041661588
0.0042538501
0.0043204471
0.004287405
0.0042393609
0.0039864325
0.0037955185
0.0033223871
0.0030171392
0.0021297984
0.0018521452
0.0015354005
0.0014177715
0.0013659658
0.0014543299
0.0015994655
0.0018648513
0.0021850181
0.002570513
0.0030238543
0.0035320535
0.0040944801
0.0047035442
0.0053588503
0.0060547731
0.006787565
0.0075566804
0.0083587324
0.009192523
0.010053276
0.010942185
0.011857558
0.012795764
0.01375647
0.014738341
0.015742118
0.016765132
0.017806325
0.018867319
0.019946992
0.021047099
0.022165774
0.023303876
0.024460663
0.025635058
0.026826797
0.028034033
0.029257708
0.030496135
0.031747442
0.033015156
0.034296527
0.035594868
0.036908111
0.038236579
0.039581081
0.040939173
0.042310447
0.043695737
0.045094429
0.046504485
0.047926979
0.04935823
0.050801353
0.052253753
0.053708201
0.055176632
0.056653942
0.058137276
0.059625844
0.061121994
0.062624585
0.064130619
0.065640244
0.0671545
0.068672198
0.070191351
0.07171201
0.07323351
0.074754977
0.076275148
0.077792644
0.079309257
0.08082317
0.082333684
0.08383902
0.085339465
0.086833602
0.088320502
0.089799731
0.091269599
0.092731807
0.094185052
0.095625895
0.097060538
0.098483808
0.099896657
0.10130093
0.10269323
0.10407483
0.1054457
0.1068066
0.1081541
0.10949373
0.11081226
0.11214103
0.11342899
0.11472963
0.11601179
0.11721068
0.1184875
0.11972393
0.12093743
0.12215793
0.1233515
0.12454679
0.12572431
0.1268904
0.12804349
0.12918334
0.13031221
0.13142862
0.13253564
0.13363046
0.13471508
0.1357883
0.13685209
0.13790408
0.13894509
0.13997389
0.14099207
0.14199746
0.14299061
0.14397098
0.14493969
0.14589597
0.1468399
0.14777256
0.14869449
0.14960583
0.1505035
0.15139296
0.15226824
0.15313689
0.15398862
0.15483883
0.15567009
0.15650212
0.15730486
0.15811961
0.15889574
0.15969241
0.16043783
0.16122179
0.16193347
0.16269487
0.16334663
0.16415785
0.16483306
0.16563812
0.16635604
0.16729212
0.16796047
0.16877985
0.16959103
0.17039009
0.17152465
0.17161069
0.17390224
0.17522788
0.18179556
0.18036562
0.17925277
0.17989528
0.18591307
0.1736104
0.18027026
0.17749194
0.17944815
0.17178875
0.20152857
0.18963646
0.19321112
0.19548851
0.18448241
0.19568956
0.19619188
0.19606816
0.20032643
0.22036207
0.23912091
0.25252305
0.26289902
0.091167875
0.29323913
0.31684072
0.4761457
0.18506816
-0.69154824
-0.36671142
0.2199607
0.27583201
0.51466124
0.20191865
-0.052709947
-0.14791426
-0.17169535
-0.16578143
-0.20889998
-0.26083312
-0.27558995
-0.27167525
-0.26502512
-0.24622404
-0.23764675
-0.21325436
-0.20865573
-0.14336461
-0.099802977
-0.097249487
-0.093121451
-0.091713897
-0.080193123
-0.070069959
-0.055404363
-0.041123842
-0.030980711
-0.02479577
-0.020674724
-0.020325038
-0.020655043
-0.015908995
-0.01368901
-0.01084587
-0.008122093
-0.0059887833
-0.004423152
-0.0031931605
-0.0022584241
-0.0017119408
-0.0013883687
-0.0010093768
-0.001017074
-0.0010220587
-0.0010058096
-0.0010488605
-0.001035777
-0.0010754953
-0.0010826695
-0.0010692143
-0.0010515054
-0.00099496072
-0.0009135417
-0.00076587551
-0.00058695799
-0.00035404212
-0.00021271207
1.2319747e-05
0.0004336265
0.00078487478
0.0011444041
0.0015534928
0.0019499735
0.0023295335
0.0026824945
0.0029950526
0.0032811725
0.0035375001
0.0038033254
0.0039931245
0.0041659488
0.0042536769
0.0043205224
0.004287397
0.0042388083
0.0039865025
0.0037956939
0.0033225603
0.0030175113
0.0021308275
0.0018534462
0.0015365247
0.001418963
0.0013669871
0.001455365
0.001600766
0.0018657702
0.0021859142
0.0025714215
0.0030247565
0.0035329293
0.0040953497
0.0047044162
0.0053597139
0.0060556104
0.0067883983
0.0075575153
0.0083595604
0.0091933276
0.010054076
0.01094298
0.011858342
0.012796521
0.013757219
0.014739081
0.015742845
0.016765827
0.017807007
0.018867988
0.019947656
0.021047758
0.022166425
0.023304518
0.024461298
0.025635672
0.026827397
0.028034609
0.029258264
0.030496656
0.031747937
0.033015629
0.034296985
0.035595318
0.036908545
0.038237003
0.039581483
0.040939548
0.042310802
0.043696078
0.045094749
0.046504776
0.047927248
0.049358473
0.050801568
0.052253931
0.053708353
0.055176778
0.056654061
0.058137368
0.059625909
0.061122046
0.062624612
0.064130621
0.065640221
0.067154459
0.068672133
0.070191259
0.071711897
0.07323337
0.074754816
0.076274959
0.077792438
0.079309024
0.080822918
0.082333404
0.083838723
0.085339141
0.08683326
0.088320138
0.089799349
0.0912692
0.092731391
0.094184636
0.095625456
0.097060076
0.098483323
0.099896161
0.10130042
0.1026927
0.10407428
0.10544515
0.10680602
0.10815352
0.10949314
0.11081167
0.11214042
0.11342838
0.114729
0.1160112
0.11721009
0.1184869
0.11972328
0.12093678
0.12215727
0.12335087
0.12454614
0.12572365
0.12688972
0.1280428
0.12918261
0.13031146
0.13142786
0.13253487
0.13362968
0.1347143
0.13578752
0.13685128
0.13790327
0.13894427
0.13997306
0.14099123
0.14199663
0.14298978
0.14397015
0.14493885
0.14589514
0.14683912
0.14777179
0.14869369
0.14960502
0.15050271
0.15139216
0.15226743
0.1531361
0.15398793
0.15483814
0.15566938
0.15650139
0.15730418
0.15811895
0.15889533
0.15969206
0.16043802
0.16122195
0.16193414
0.16269487
0.16334607
0.16415498
0.1648269
0.16563391
0.16634617
0.16729236
0.16798683
0.16878953
0.16959123
0.17042297
0.171787
0.17160353
0.17387702
0.17528061
0.18170268
0.18038742
0.1792905
0.17888398
0.18597495
0.17363236
0.18010887
0.17662001
0.17947774
0.17225151
0.19828377
0.19005374
0.19323886
0.19553573
0.18447385
0.1956546
0.19621215
0.19585038
0.20035124
0.22021871
0.2408501
0.25242644
0.26316944
0.10745839
0.29856472
0.310128
0.46534895
0.184097
-0.56658975
-0.36797819
0.2324121
0.27412735
0.5002613
0.19505285
-0.056269544
-0.15072934
-0.17065538
-0.16819691
-0.20971677
-0.26122482
-0.2753805
-0.27162549
-0.26498452
-0.24620247
-0.23763564
-0.21324826
-0.20865097
-0.14336775
-0.09981158
-0.097251083
-0.093120695
-0.091707016
-0.080195944
-0.070075722
-0.055429778
-0.041161039
-0.031015816
-0.024818757
-0.020695021
-0.020325393
-0.020450261
-0.015966294
-0.013695496
-0.010841758
-0.0081349349
-0.0060003581
-0.0044316851
-0.0032032463
-0.0022627365
-0.0017146361
-0.0013852635
-0.001035158
-0.0010218863
-0.0010211221
-0.0010070114
-0.0010492725
-0.0010355557
-0.001075092
-0.0010819083
-0.0010696241
-0.0010517549
-0.00099569631
-0.00091411495
-0.00076879671
-0.000585802
-0.000350646
-0.00019030051
1.7013562e-05
0.00042740419
0.00077983767
0.0011412959
0.0015505824
0.0019468116
0.0023262689
0.0026803623
0.0029947353
0.0032797982
0.0035380598
0.0038011129
0.0039927259
0.0041655434
0.0042534356
0.0043205429
0.0042873365
0.0042382087
0.003986566
0.0037958818
0.0033227484
0.0030178963
0.0021317972
0.0018547317
0.0015376104
0.0014201185
0.0013680255
0.0014563348
0.0016020316
0.0018666586
0.002186781
0.0025723056
0.0030256372
0.0035337859
0.0040962047
0.0047052756
0.0053605674
0.006056438
0.0067892256
0.0075583441
0.0083603843
0.0091941271
0.010054874
0.01094377
0.011859124
0.012797274
0.013757967
0.014739818
0.015743568
0.016766518
0.017807685
0.018868655
0.019948318
0.021048414
0.022167074
0.023305157
0.024461929
0.025636279
0.02682799
0.028035174
0.029258809
0.030497165
0.03174842
0.033016093
0.034297433
0.035595759
0.036908971
0.03823742
0.039581881
0.040939917
0.042311153
0.043696413
0.045095065
0.046505064
0.047927513
0.049358714
0.050801781
0.052254108
0.053708502
0.055176924
0.056654181
0.058137464
0.059625977
0.061122104
0.062624644
0.06413063
0.065640206
0.067154426
0.068672078
0.070191177
0.071711794
0.07323324
0.074754665
0.07627478
0.077792242
0.0793088
0.080822675
0.082333131
0.083838434
0.085338823
0.086832925
0.08831978
0.089798974
0.091268808
0.092730982
0.094184228
0.095625021
0.097059622
0.098482844
0.099895672
0.10129991
0.10269217
0.10407374
0.1054446
0.10680546
0.10815295
0.10949255
0.1108111
0.11213983
0.11342779
0.1147284
0.11601063
0.11720952
0.11848631
0.11972264
0.12093614
0.12215662
0.12335025
0.12454549
0.125723
0.12688904
0.12804211
0.1291819
0.13031073
0.13142711
0.13253409
0.13362889
0.13471352
0.13578674
0.13685046
0.13790245
0.13894345
0.13997223
0.14099038
0.14199578
0.14298894
0.14396931
0.144938
0.14589429
0.14683833
0.14777099
0.14869287
0.14960419
0.15050191
0.15139134
0.1522666
0.15313528
0.15398721
0.15483741
0.15566862
0.15650061
0.15730343
0.15811819
0.15889469
0.1596916
0.16043803
0.1612226
0.16193428
0.16269486
0.16334611
0.16415496
0.16482408
0.16563277
0.16632968
0.16728984
0.16800878
0.16879587
0.16959101
0.17043619
0.17191184
0.17159637
0.17384443
0.1753388
0.18160955
0.18041682
0.17932877
0.17855742
0.18610313
0.17366303
0.1799634
0.17571306
0.17862092
0.17301746
0.19541152
0.19049686
0.19325398
0.19559159
0.18446487
0.19562163
0.19624309
0.19570044
0.20030796
0.220068
0.24297317
0.25263444
0.2637277
0.12474651
0.2940968
0.3023949
0.45014352
0.18536853
-0.46929181
-0.37213166
0.24501782
0.27558013
0.48574728
0.19395367
-0.06049045
-0.15471173
-0.16920795
-0.17086976
-0.21046607
-0.26176174
-0.27517178
-0.27157346
-0.26494091
-0.24618089
-0.23762386
-0.21324451
-0.20864625
-0.14337039
-0.099818048
-0.097252297
-0.093118918
-0.091699898
-0.080199125
-0.070073013
-0.055455524
-0.041200817
-0.03104963
-0.02483715
-0.020716124
-0.020294429
-0.02027561
-0.016017912
-0.013703053
-0.01083702
-0.0081477498
-0.0060119748
-0.0044400768
-0.0032119304
-0.0022675356
-0.001716943
-0.0013814167
-0.0010591352
-0.001026555
-0.0010194311
-0.0010075815
-0.0010486365
-0.0010350489
-0.0010743944
-0.001081051
-0.0010698494
-0.0010518319
-0.0009962079
-0.00091445106
-0.0007710867
-0.00058497861
-0.00034791837
-0.00017386459
1.8868472e-05
0.00042035206
0.0007748758
0.0011383648
0.0015477785
0.0019437531
0.0023232827
0.0026782997
0.002994143
0.0032788993
0.0035381982
0.0037988831
0.0039918029
0.0041652149
0.0042531942
0.0043204532
0.0042871866
0.0042376261
0.0039866285
0.0037960787
0.0033229604
0.003018288
0.002132721
0.0018559306
0.0015386854
0.0014212382
0.0013690991
0.0014572823
0.0016033069
0.0018675384
0.0021876412
0.0025731854
0.0030265156
0.0035346416
0.0040970613
0.004706137
0.0053614243
0.0060572691
0.0067900588
0.0075591778
0.0083612143
0.0091949315
0.010055679
0.010944566
0.011859912
0.012798031
0.013758721
0.01474056
0.015744298
0.016767214
0.017808369
0.018869326
0.019948986
0.021049076
0.022167727
0.023305797
0.024462561
0.025636884
0.026828582
0.028035736
0.029259353
0.030497673
0.031748904
0.033016559
0.034297885
0.035596201
0.036909399
0.038237839
0.039582281
0.04094029
0.042311507
0.04369675
0.045095383
0.046505352
0.047927779
0.049358955
0.050801994
0.052254286
0.053708652
0.055177072
0.056654302
0.058137561
0.059626046
0.061122163
0.062624679
0.064130642
0.065640194
0.067154395
0.068672025
0.070191096
0.071711694
0.073233112
0.074754516
0.076274602
0.077792049
0.079308577
0.080822434
0.082332857
0.083838146
0.085338503
0.086832589
0.088319418
0.089798595
0.091268412
0.092730568
0.094183818
0.095624581
0.097059164
0.09848236
0.099895181
0.1012994
0.10269165
0.10407319
0.10544405
0.10680489
0.10815237
0.10949196
0.11081052
0.11213923
0.1134272
0.11472779
0.11601006
0.11720893
0.11848571
0.11972198
0.1209355
0.12215597
0.12334964
0.12454483
0.12572234
0.12688835
0.12804141
0.12918117
0.13030999
0.13142635
0.13253331
0.13362811
0.13471273
0.13578595
0.13684965
0.13790163
0.13894262
0.1399714
0.14098952
0.14199492
0.14298809
0.14396846
0.14493713
0.14589343
0.14683753
0.14777019
0.14869205
0.14960335
0.15050109
0.15139051
0.15226576
0.15313446
0.15398648
0.15483667
0.15566785
0.15649982
0.15730266
0.15811742
0.15889389
0.15969094
0.16043773
0.16122207
0.16193398
0.16269485
0.16334633
0.16415112
0.16481444
0.16562996
0.16632265
0.16728444
0.16801657
0.16880241
0.16958996
0.17044706
0.17185329
0.17159335
0.17381934
0.17535881
0.18152731
0.18045575
0.17936804
0.17850156
0.18626599
0.17369623
0.17986649
0.1749278
0.17741168
0.17423183
0.19363987
0.19087883
0.19326102
0.19565241
0.18446741
0.1955824
0.1962642
0.19560158
0.20014397
0.21987537
0.24505714
0.25297948
0.26441556
0.14090224
0.27656369
0.2905777
0.43286132
0.1861264
-0.40229452
-0.37610866
0.25822209
0.27878711
0.47091621
0.19636805
-0.065838431
-0.15997603
-0.16807558
-0.17320611
-0.21134447
-0.26244333
-0.27496137
-0.27151746
-0.26489345
-0.24615805
-0.23761072
-0.21324276
-0.20864246
-0.14337336
-0.099822732
-0.097252967
-0.093115894
-0.091692261
-0.080202589
-0.070068837
-0.055482187
-0.041241699
-0.031084342
-0.02484993
-0.020735471
-0.020239215
-0.020095547
-0.01606718
-0.013712884
-0.010838066
-0.0081616176
-0.0060241287
-0.0044487378
-0.0032193171
-0.0022733024
-0.0017191671
-0.0013798178
-0.0010793994
-0.0010311505
-0.0010175496
-0.0010078257
-0.001047188
-0.0010343729
-0.0010734767
-0.0010801252
-0.0010698617
-0.0010517093
-0.00099649204
-0.00091459344
-0.00077278642
-0.00058461239
-0.00034649
-0.00016863909
1.8739178e-05
0.00041256074
0.00077005096
0.001135526
0.0015449892
0.0019407153
0.0023203843
0.0026762677
0.0029933123
0.0032781631
0.00353787
0.0037966381
0.0039907649
0.0041648634
0.004252808
0.0043202596
0.0042869533
0.0042371094
0.0039866925
0.003796285
0.0033231923
0.0030186885
0.0021336253
0.0018570726
0.0015397714
0.0014223455
0.0013702317
0.0014582404
0.0016045787
0.0018684277
0.002188513
0.002574078
0.0030274079
0.0035355118
0.0040979343
0.0047070147
0.0053622985
0.0060581171
0.0067909109
0.0075600294
0.0083620626
0.0091957529
0.010056503
0.010945379
0.011860718
0.012798805
0.013759492
0.014741318
0.015745043
0.016767925
0.01780907
0.018870014
0.019949672
0.021049753
0.022168396
0.023306451
0.024463207
0.025637501
0.026829185
0.028036308
0.029259907
0.030498192
0.031749398
0.033017036
0.034298347
0.035596652
0.036909835
0.038238266
0.039582689
0.04094067
0.042311868
0.043697093
0.045095707
0.046505645
0.04792805
0.0493592
0.050802209
0.052254466
0.053708803
0.055177222
0.056654425
0.058137661
0.059626114
0.061122223
0.062624713
0.064130654
0.065640181
0.067154364
0.068671971
0.070191014
0.071711592
0.07323298
0.074754363
0.076274418
0.077791852
0.079308347
0.080822187
0.082332574
0.08383785
0.085338173
0.086832242
0.088319045
0.089798205
0.091268005
0.092730142
0.094183397
0.095624126
0.097058693
0.098481862
0.099894677
0.10129887
0.1026911
0.10407263
0.10544349
0.1068043
0.10815177
0.10949135
0.11080992
0.11213861
0.11342659
0.11472716
0.11600949
0.11720832
0.11848508
0.1197213
0.12093484
0.1221553
0.123349
0.12454415
0.12572167
0.12688765
0.1280407
0.12918043
0.13030923
0.13142557
0.13253252
0.13362731
0.13471192
0.13578514
0.13684881
0.13790079
0.13894176
0.13997055
0.14098864
0.14199404
0.14298722
0.14396758
0.14493625
0.14589255
0.1468367
0.14776936
0.1486912
0.14960248
0.15050025
0.15138966
0.1522649
0.15313361
0.15398574
0.15483591
0.15566706
0.15649901
0.15730187
0.15811661
0.15889303
0.15969015
0.16043713
0.16122225
0.1619335
0.16269483
0.16334668
0.1641481
0.16480115
0.16562848
0.16630858
0.16727658
0.16801015
0.16880971
0.1695892
0.17045293
0.17180927
0.17159265
0.17381478
0.17536973
0.18145312
0.18046562
0.17940682
0.17888707
0.18641496
0.17371376
0.17981307
0.1742369
0.17676515
0.17570163
0.1929247
0.19123706
0.19325857
0.19571726
0.18448244
0.19553126
0.19627105
0.19554746
0.19993989
0.21962175
0.24657521
0.25348166
0.26507292
0.15222117
0.24395636
0.28333038
0.41662931
0.18549608
-0.362333
-0.38088496
0.27163048
0.28336001
0.45461216
0.19821278
-0.071922639
-0.16643963
-0.16719633
-0.17494506
-0.21219295
-0.26325659
-0.27474161
-0.27145702
-0.26484202
-0.24613392
-0.23759611
-0.21324093
-0.20863998
-0.14337658
-0.099826251
-0.09725302
-0.09311165
-0.091683704
-0.0802061
-0.070069461
-0.055509761
-0.04128222
-0.031126509
-0.024861608
-0.02075158
-0.020188209
-0.019839956
-0.016126743
-0.013725273
-0.010844558
-0.0081755152
-0.0060367837
-0.0044578331
-0.003226445
-0.0022794143
-0.0017215964
-0.0013797969
-0.0010973929
-0.0010354722
-0.0010158162
-0.0010077901
-0.0010451604
-0.0010336522
-0.0010724341
-0.0010791721
-0.0010698114
-0.0010515776
-0.00099673098
-0.00091463306
-0.0007740709
-0.00058448087
-0.00034585962
-0.00017318274
1.7888272e-05
0.00040444531
0.00076530262
0.0011326307
0.0015421184
0.0019376136
0.0023174532
0.0026741967
0.0029923157
0.0032773697
0.0035373766
0.0037942801
0.0039895869
0.0041643269
0.0042523101
0.0043199891
0.0042866492
0.0042366616
0.0039867538
0.003796494
0.0033234355
0.0030190934
0.0021345125
0.0018582023
0.0015408663
0.0014234468
0.0013714091
0.0014592129
0.0016058528
0.0018693293
0.0021893988
0.0025749858
0.0030283163
0.003536399
0.0040988261
0.0047079112
0.0053631923
0.0060589846
0.006791784
0.0075609013
0.0083629318
0.0091965941
0.010057347
0.010946211
0.011861543
0.012799597
0.013760282
0.014742095
0.015745806
0.016768654
0.017809788
0.018870719
0.019950375
0.021050448
0.022169082
0.023307121
0.02446387
0.025638132
0.026829803
0.028036892
0.029260473
0.030498721
0.031749902
0.033017523
0.03429882
0.035597115
0.036910282
0.038238703
0.039583107
0.040941058
0.042312237
0.043697443
0.045096037
0.046505943
0.047928325
0.049359448
0.050802428
0.052254649
0.053708955
0.055177374
0.056654549
0.058137763
0.059626183
0.061122283
0.062624747
0.064130665
0.065640166
0.067154331
0.068671915
0.070190928
0.071711487
0.073232842
0.074754205
0.076274227
0.077791648
0.079308109
0.080821931
0.082332281
0.083837543
0.085337831
0.086831884
0.088318659
0.0897978
0.091267583
0.0927297
0.09418296
0.095623655
0.097058206
0.098481348
0.099894157
0.10129832
0.10269054
0.10407205
0.10544291
0.1068037
0.10815116
0.10949072
0.11080931
0.11213797
0.11342597
0.11472651
0.1160089
0.11720769
0.11848443
0.1197206
0.12093416
0.1221546
0.12334836
0.12454345
0.12572098
0.12688692
0.12803997
0.12917966
0.13030845
0.13142477
0.1325317
0.13362649
0.13471109
0.13578431
0.13684794
0.13789992
0.13894088
0.13996967
0.14098773
0.14199314
0.14298631
0.14396668
0.14493533
0.14589164
0.14683585
0.1477685
0.14869032
0.14960159
0.15049939
0.15138878
0.15226402
0.15313274
0.15398497
0.15483512
0.15566624
0.15649817
0.15730106
0.15811578
0.15889216
0.15968929
0.1604363
0.16122241
0.16193298
0.1626948
0.16334711
0.1641463
0.16479029
0.16562712
0.16629912
0.167266
0.16799685
0.16881483
0.16958939
0.17045653
0.17189814
0.17158786
0.17382975
0.17536609
0.18138363
0.18044655
0.17944189
0.17940818
0.18649644
0.17369856
0.1797815
0.17375037
0.1763807
0.17718918
0.19282558
0.19143427
0.19325096
0.19578573
0.18450656
0.19547396
0.19626894
0.19553924
0.19974429
0.21926074
0.24716829
0.25404091
0.26565894
0.15993138
0.20536305
0.2749707
0.40123994
0.18578238
-0.33041844
-0.38477651
0.28366045
0.28778551
0.43516675
0.19967808
-0.078383554
-0.17462676
-0.16664741
-0.17596773
-0.21297913
-0.26411376
-0.27449727
-0.27138872
-0.26478495
-0.24610699
-0.23757927
-0.21323772
-0.20863861
-0.14337978
-0.099829079
-0.09725234
-0.093106214
-0.091673781
-0.080209407
-0.070074347
-0.055538149
-0.041323339
-0.031183469
-0.02487407
-0.020764688
-0.020150149
-0.019535834
-0.016187608
-0.013738736
-0.010852018
-0.0081895328
-0.0060499109
-0.004467349
-0.0032339232
-0.0022853498
-0.0017242534
-0.0013797288
-0.0011138325
-0.0010390007
-0.0010144083
-0.0010075205
-0.0010428099
-0.0010329868
-0.0010713059
-0.0010782125
-0.0010697761
-0.0010515033
-0.00099699787
-0.00091467077
-0.00077503723
-0.00058441012
-0.00034584193
-0.0001831922
1.7249247e-05
0.00039633619
0.00076054701
0.0011296283
0.0015391213
0.0019344021
0.0023144345
0.0026720729
0.0029912812
0.0032764902
0.0035367226
0.0037919472
0.0039883805
0.0041636268
0.0042517448
0.0043196506
0.0042862729
0.0042362654
0.0039868052
0.0037966985
0.003323685
0.0030194934
0.0021353722
0.0018593203
0.0015419643
0.0014245397
0.0013726176
0.0014601934
0.0016071276
0.0018702413
0.0021902958
0.0025759065
0.0030292387
0.0035373014
0.0040997346
0.0047088248
0.0053641041
0.0060598704
0.0067926768
0.0075617923
0.0083638205
0.009197454
0.010058212
0.010947061
0.011862387
0.012800407
0.013761091
0.014742888
0.015746586
0.016769399
0.017810522
0.01887144
0.019951096
0.02105116
0.022169785
0.023307805
0.024464547
0.025638776
0.026830434
0.028037488
0.029261051
0.030499262
0.031750415
0.03301802
0.034299303
0.035597589
0.036910737
0.038239149
0.039583533
0.040941454
0.042312613
0.043697799
0.045096372
0.046506245
0.047928604
0.0493597
0.050802649
0.052254835
0.053709108
0.055177528
0.056654673
0.058137865
0.059626251
0.061122343
0.062624779
0.064130675
0.06564015
0.067154296
0.068671856
0.070190838
0.071711377
0.0732327
0.074754041
0.076274029
0.077791437
0.079307863
0.080821667
0.082331977
0.083837226
0.085337476
0.086831512
0.088318259
0.089797381
0.091267146
0.092729243
0.09418251
0.095623167
0.097057704
0.098480817
0.09989362
0.10129776
0.10268997
0.10407146
0.10544231
0.10680308
0.10815054
0.10949008
0.11080868
0.11213732
0.11342533
0.11472584
0.1160083
0.11720705
0.11848375
0.11971987
0.12093347
0.12215389
0.12334769
0.12454273
0.12572027
0.12688617
0.12803921
0.12917888
0.13030765
0.13142396
0.13253086
0.13362564
0.13471025
0.13578346
0.13684706
0.13789904
0.13893998
0.13996876
0.1409868
0.14199221
0.14298538
0.14396575
0.14493439
0.1458907
0.14683497
0.14776761
0.14868942
0.14960066
0.15049849
0.15138787
0.15226311
0.15313184
0.15398418
0.1548343
0.1556654
0.1564973
0.15730022
0.15811493
0.15889127
0.15968838
0.16043545
0.16122269
0.16193238
0.16269477
0.16334757
0.16414573
0.16478075
0.16562764
0.16629336
0.16725067
0.1679816
0.1688172
0.16958966
0.1704621
0.17194243
0.17157492
0.17384427
0.1753451
0.18131362
0.18042017
0.1794675
0.17991038
0.18642526
0.17364514
0.17975047
0.17336552
0.17614353
0.17848578
0.19351397
0.19149202
0.19324203
0.19585623
0.18453544
0.19541123
0.19623364
0.19555588
0.19956409
0.21872492
0.24661027
0.25475541
0.26614102
0.16620421
0.17901636
0.26860573
0.38369005
0.18693185
-0.29608386
-0.38759643
0.29371587
0.29079437
0.41352065
0.20144739
-0.085052037
-0.18079239
-0.1665862
-0.1766809
-0.21367991
-0.26495039
-0.27419599
-0.27131024
-0.2647203
-0.24607615
-0.23755956
-0.21323274
-0.20863806
-0.14338292
-0.099831561
-0.097250776
-0.093099452
-0.091661985
-0.080212181
-0.070081721
-0.055567255
-0.04136522
-0.031243016
-0.024887213
-0.020776423
-0.020126138
-0.019225109
-0.016231592
-0.013751708
-0.010861661
-0.0082039122
-0.0060634707
-0.0044772561
-0.003241796
-0.0022910628
-0.0017271996
-0.0013795128
-0.0011272178
-0.0010416921
-0.0010135422
-0.0010070849
-0.0010403405
-0.0010322592
-0.0010700429
-0.0010772509
-0.001069765
-0.0010514874
-0.00099730066
-0.00091474184
-0.00077576585
-0.00058427926
-0.00034607936
-0.00019339642
1.6774465e-05
0.00038839727
0.00075570976
0.0011265015
0.0015359822
0.0019310591
0.0023112863
0.0026698251
0.0029900541
0.0032755244
0.0035358571
0.0037898111
0.0039872219
0.0041628078
0.0042511123
0.0043192335
0.0042858133
0.0042358939
0.0039868372
0.0037968895
0.0033239376
0.0030198763
0.0021361918
0.0018604177
0.0015430603
0.0014256207
0.0013738468
0.0014611796
0.0016083993
0.0018711611
0.0021912017
0.0025768382
0.0030301735
0.0035382177
0.0041006588
0.0047097549
0.0053650333
0.0060607739
0.0067935886
0.0075627023
0.0083647285
0.0091983327
0.010059096
0.010947931
0.011863249
0.012801235
0.013761918
0.0147437
0.015747384
0.016770161
0.017811273
0.018872179
0.019951835
0.021051889
0.022170504
0.023308506
0.02446524
0.025639434
0.026831077
0.028038096
0.02926164
0.030499813
0.031750939
0.033018528
0.034299796
0.035598074
0.036911202
0.038239603
0.039583966
0.040941857
0.042312996
0.04369816
0.045096713
0.046506552
0.047928886
0.049359955
0.050802873
0.052255022
0.053709262
0.055177683
0.056654798
0.058137968
0.059626318
0.061122402
0.06262481
0.064130684
0.065640131
0.067154257
0.068671793
0.070190743
0.071711262
0.073232551
0.074753871
0.076273824
0.077791218
0.079307608
0.080821393
0.082331663
0.083836898
0.085337109
0.086831128
0.088317844
0.089796947
0.091266694
0.09272877
0.094182043
0.095622661
0.097057184
0.098480269
0.099893067
0.10129718
0.10268937
0.10407085
0.1054417
0.10680244
0.10814989
0.10948942
0.11080803
0.11213664
0.11342467
0.11472515
0.11600768
0.11720639
0.11848305
0.11971913
0.12093275
0.12215316
0.12334701
0.12454199
0.12571953
0.12688539
0.12803844
0.12917807
0.13030683
0.13142312
0.13253
0.13362478
0.13470937
0.13578259
0.13684615
0.13789813
0.13893905
0.13996784
0.14098584
0.14199125
0.14298443
0.1439648
0.14493342
0.14588974
0.14683406
0.1477667
0.14868849
0.14959972
0.15049757
0.15138694
0.15226217
0.15313092
0.15398336
0.15483346
0.15566454
0.15649641
0.15729935
0.15811405
0.15889035
0.15968745
0.16043458
0.16122435
0.16193174
0.16269472
0.16334803
0.16414578
0.16477391
0.16562887
0.16628892
0.16722943
0.16797423
0.16881735
0.16959086
0.17047078
0.17179449
0.17155841
0.17384664
0.17530713
0.18124105
0.180393
0.17947131
0.18058471
0.18615539
0.17353938
0.17970113
0.17309728
0.1759494
0.1796416
0.1939356
0.1912868
0.19323651
0.19592942
0.18456002
0.1953451
0.19614763
0.19558467
0.19939635
0.21804749
0.24488086
0.2554907
0.26648727
0.17033257
0.15163307
0.26308558
0.36444698
0.18858186
-0.26074169
-0.38997235
0.30204231
0.29134669
0.39235861
0.19994421
-0.092059085
-0.18552009
-0.16757271
-0.17752885
-0.21438069
-0.26568733
-0.27385118
-0.27121929
-0.26464614
-0.24604029
-0.23753629
-0.21322591
-0.20863811
-0.14338599
-0.099833965
-0.09724817
-0.093091076
-0.091647759
-0.080214055
-0.070090508
-0.055597088
-0.041407773
-0.031273831
-0.024900972
-0.020785363
-0.020117906
-0.019030741