/*--------------------------------*- C++ -*----------------------------------*\
| =========                 |                                                 |
| \\      /  F ield         | OpenFOAM: The Open Source CFD Toolbox           |
|  \\    /   O peration     | Version:  2.4.0                                 |
|   \\  /    A nd           | Web:      www.OpenFOAM.org                      |
|    \\/     M anipulation  |                                                 |
\*---------------------------------------------------------------------------*/
FoamFile
{
    version     2.0;
    format      ascii;
    class       volScalarField;
    location    "800";
    object      pMean;
}
// * * * * * * * * * * * * * * * * * * * * * * * * * * * * * * * * * * * * * //

dimensions      [0 2 -2 0 0 0 0];

internalField   nonuniform List<scalar> 
78300
(
-0.1131994
-0.070438789
-0.074672452
-0.069286271
-0.069331917
-0.0619381
-0.052977112
-0.039656229
-0.027061799
-0.018762786
-0.013809827
-0.010437659
-0.0081426993
-0.0070589978
-0.0057593457
-0.0048259814
-0.0040133068
-0.0034814909
-0.0028961734
-0.0024197939
-0.0020007595
-0.001653146
-0.0013725288
-0.0011695922
-0.001012491
-0.00089825432
-0.00081391029
-0.00077359307
-0.00074294369
-0.00073935558
-0.0007426407
-0.00075538349
-0.00076379156
-0.00076173568
-0.00074006806
-0.00068740881
-0.00059981299
-0.00048420809
-0.00033921442
-0.00016840765
3.5411782e-10
0.00023816034
0.00045499825
0.0006949861
0.0009412922
0.0011896678
0.0014197912
0.0016296213
0.0017987117
0.0019451427
0.0020491766
0.002130605
0.0021699388
0.0021716585
0.0021104394
0.0020174565
0.0018242425
0.001611813
0.001238617
0.00089131295
0.00026318897
-0.00020739167
-0.001255099
-0.0017178147
-0.0022217288
-0.0025238747
-0.0027920389
-0.0029189493
-0.0029873972
-0.0029471955
-0.0028492115
-0.0026665078
-0.0024292135
-0.0021247741
-0.0017681971
-0.0013544069
-0.00089204188
-0.00038061495
0.00017584253
0.00077721343
0.0014202939
0.0021040266
0.0028265269
0.0035871726
0.004384051
0.0052159923
0.0060818271
0.0069808645
0.007911612
0.0088729887
0.0098639566
0.010883891
0.011931707
0.013006865
0.014107954
0.015234422
0.016384701
0.017558205
0.018753321
0.019969395
0.02120492
0.022459169
0.023730694
0.025018998
0.026323251
0.027642728
0.028976309
0.030323382
0.031682654
0.033053452
0.034434309
0.035824855
0.037223784
0.038630534
0.040043627
0.041462659
0.042886315
0.044314151
0.04574477
0.047176729
0.048610702
0.050046122
0.051481607
0.052916382
0.054350226
0.055782622
0.057212254
0.058639036
0.060062231
0.061481601
0.062895706
0.064304704
0.06570783
0.067104793
0.068494317
0.069876813
0.07125163
0.072618599
0.073976608
0.075325864
0.0766657
0.077995919
0.079315937
0.080625483
0.081924419
0.083212376
0.084489034
0.085754101
0.087008116
0.088251452
0.089482949
0.090702868
0.091911393
0.093108043
0.094292935
0.095465305
0.096627036
0.097776194
0.098916212
0.10004388
0.1011661
0.10228019
0.1034097
0.10448204
0.10551923
0.1065573
0.10757858
0.10859632
0.1095992
0.11059459
0.11157652
0.11254935
0.11350946
0.11445992
0.11539829
0.11632635
0.11724288
0.1181489
0.11904314
0.11992665
0.12079886
0.12166046
0.12251044
0.12334954
0.12417717
0.12499374
0.12579852
0.12659152
0.12737367
0.12814307
0.12890178
0.12964775
0.13038498
0.1311087
0.13182416
0.13252467
0.13321876
0.13389453
0.1345659
0.13521652
0.13586887
0.13649602
0.13713139
0.1377328
0.1383525
0.13892273
0.1395239
0.14005193
0.14059706
0.14107719
0.14161066
0.14210198
0.14264675
0.14315395
0.14372595
0.14425235
0.14488007
0.1453872
0.14600507
0.14648759
0.14697484
0.14724049
0.1482999
0.14871563
0.14996354
0.14963388
0.1543705
0.15441858
0.15675555
0.1514634
0.15543975
0.15125724
0.149509
0.14719821
0.14572122
0.15164601
0.14849844
0.14949273
0.15249659
0.15711996
0.1572542
0.16184444
0.15856084
0.16750385
0.15447771
0.13366995
0.13317737
0.12500558
0.12295298
0.11330388
0.08961265
0.072478664
0.0705349
0.059233093
0.034485018
0.031192432
0.02126486
-0.023726498
-0.045843235
-0.09312345
-0.12712796
-0.17307924
-0.19872795
-0.21621837
-0.21822162
-0.21559856
-0.19970648
-0.19308858
-0.1688607
-0.16922515
-0.11320324
-0.070445576
-0.074673626
-0.069286296
-0.069326808
-0.061938115
-0.052985234
-0.039678963
-0.027091558
-0.018790815
-0.013831969
-0.010455879
-0.0081568984
-0.0070648978
-0.0057676386
-0.0048313232
-0.0040189689
-0.0034864354
-0.0029023288
-0.0024245102
-0.0020043282
-0.0016567948
-0.0013749243
-0.0011714264
-0.0010136988
-0.00089934058
-0.00081477097
-0.00077414276
-0.00074340261
-0.00073964294
-0.00074292541
-0.00075552751
-0.00076398592
-0.00076200183
-0.00074045251
-0.00068803034
-0.00060067464
-0.00048525541
-0.00034050135
-0.00017030088
-1.1656464e-06
0.00023646357
0.00045321559
0.00069310802
0.00093946763
0.0011877979
0.001418091
0.0016281853
0.0017972537
0.0019438881
0.0020481982
0.0021297215
0.0021692649
0.0021713012
0.00211028
0.0020175132
0.0018243786
0.001612149
0.0012388799
0.00089171906
0.00026346259
-0.00020707937
-0.0012543455
-0.0017169372
-0.0022209294
-0.0025231154
-0.0027912417
-0.0029181653
-0.0029865561
-0.0029464437
-0.0028484682
-0.002665814
-0.0024285352
-0.0021241001
-0.0017675304
-0.0013537453
-0.00089138676
-0.00037995427
0.00017649848
0.00077786642
0.0014209418
0.0021046762
0.0028271733
0.0035878149
0.0043846879
0.0052166294
0.006082459
0.0069814901
0.0079122307
0.0088736039
0.0098645641
0.01088449
0.011932296
0.013007443
0.014108519
0.015234974
0.01638524
0.01755873
0.018753832
0.019969892
0.021205402
0.022459637
0.023731147
0.025019435
0.02632367
0.027643128
0.028976688
0.03032374
0.031682991
0.033053769
0.034434605
0.035825128
0.037224036
0.038630764
0.040043837
0.041462847
0.042886483
0.044314298
0.045744898
0.047176834
0.048610786
0.050046185
0.05148165
0.052916404
0.054350228
0.055782603
0.057212216
0.058638979
0.060062155
0.061481504
0.062895592
0.064304572
0.065707681
0.067104625
0.068494133
0.069876613
0.071251413
0.072618365
0.073976359
0.0753256
0.076665421
0.077995625
0.079315628
0.08062516
0.081924081
0.083212022
0.084488668
0.085753725
0.087007729
0.088251052
0.089482539
0.090702448
0.091910963
0.093107602
0.094292484
0.095464846
0.096626567
0.097775714
0.09891572
0.10004337
0.10116556
0.1022796
0.10340913
0.10448151
0.10551871
0.10655678
0.10757805
0.10859577
0.10959864
0.11059403
0.11157596
0.11254878
0.11350889
0.11445935
0.11539772
0.11632578
0.1172423
0.11814832
0.11904255
0.11992607
0.12079827
0.12165986
0.12250985
0.12334894
0.12417657
0.12499313
0.12579791
0.12659091
0.12737305
0.12814246
0.12890116
0.12964714
0.13038437
0.13110809
0.13182355
0.13252406
0.13321814
0.13389391
0.13456529
0.13521592
0.13586826
0.13649542
0.13713079
0.13773221
0.13835189
0.13892216
0.13952327
0.14005153
0.14059703
0.14107767
0.14161162
0.14210345
0.14264878
0.14315646
0.1437291
0.14425626
0.14488422
0.14539198
0.14601292
0.14648985
0.14698341
0.14724863
0.14830853
0.14870572
0.14995894
0.14965685
0.15439042
0.15444036
0.15675965
0.15159471
0.1554462
0.1512987
0.14942583
0.14715806
0.1457781
0.15160263
0.1483456
0.14953347
0.15253277
0.15698161
0.15721234
0.16167913
0.15883488
0.16777003
0.15481223
0.13441321
0.13352097
0.12536401
0.12377032
0.11389183
0.09049154
0.072340802
0.071326914
0.060171124
0.03528897
0.031248029
0.021019207
-0.023549615
-0.046030649
-0.093320546
-0.12718128
-0.17309959
-0.19877428
-0.21620812
-0.21820416
-0.21557825
-0.19969243
-0.19307932
-0.16885514
-0.16922238
-0.11320741
-0.07045387
-0.074674859
-0.069286531
-0.069320054
-0.061937281
-0.052990313
-0.039703328
-0.027121668
-0.018822322
-0.01385653
-0.010478434
-0.0081723154
-0.0070696085
-0.0057778673
-0.0048373562
-0.0040255682
-0.0034924308
-0.0029098359
-0.0024304259
-0.0020086011
-0.0016605619
-0.0013776259
-0.0011732565
-0.0010149206
-0.0009005748
-0.00081566128
-0.00077476571
-0.00074394555
-0.00073989979
-0.0007432572
-0.0007557133
-0.00076420439
-0.00076228412
-0.0007408624
-0.00068871416
-0.00060161959
-0.00048634878
-0.00034174066
-0.00017216083
-2.4217415e-06
0.00023431477
0.00045116045
0.00069096001
0.00093745903
0.0011856724
0.001416242
0.0016266169
0.0017956435
0.0019425139
0.002047124
0.0021287225
0.0021684518
0.0021708797
0.0021100665
0.00201755
0.0018244813
0.0016125199
0.0012391384
0.0008921907
0.00026376553
-0.00020668626
-0.0012534692
-0.0017157981
-0.0022199792
-0.0025222076
-0.0027903037
-0.0029172352
-0.0029855613
-0.0029455635
-0.0028476067
-0.0026650177
-0.0024277628
-0.0021233337
-0.0017667779
-0.0013530014
-0.00089065476
-0.00037921596
0.00017722718
0.00077858979
0.0014216562
0.0021053918
0.0028278826
0.0035885178
0.0043853827
0.005217324
0.0060831461
0.0069821688
0.0079129002
0.0088742704
0.009865222
0.010885139
0.011932933
0.013008066
0.014109126
0.015235565
0.016385816
0.01755929
0.018754376
0.019970419
0.021205915
0.022460133
0.023731627
0.025019898
0.026324112
0.027643548
0.028977086
0.030324113
0.031683343
0.0330541
0.034434914
0.035825412
0.037224298
0.038631003
0.040044054
0.04146304
0.042886654
0.044314448
0.045745026
0.047176937
0.048610866
0.050046242
0.051481685
0.052916415
0.054350217
0.055782569
0.057212161
0.058638901
0.060062056
0.061481382
0.062895451
0.06430441
0.0657075
0.067104424
0.068493914
0.069876375
0.071251159
0.072618092
0.07397607
0.075325294
0.076665099
0.077995285
0.079315273
0.080624789
0.081923694
0.083211617
0.084488252
0.085753299
0.087007292
0.088250599
0.089482076
0.090701975
0.09191048
0.093107105
0.094291978
0.095464332
0.096626042
0.097775178
0.098915169
0.1000428
0.10116495
0.10227892
0.10340846
0.10448092
0.10551813
0.10655619
0.10757745
0.10859517
0.10959803
0.11059342
0.11157534
0.11254816
0.11350827
0.11445872
0.11539709
0.11632515
0.11724167
0.11814768
0.11904191
0.11992542
0.12079763
0.12165922
0.1225092
0.12334829
0.12417591
0.12499247
0.12579725
0.12659024
0.12737238
0.12814178
0.12890049
0.12964647
0.1303837
0.13110742
0.13182288
0.13252339
0.13321747
0.13389324
0.13456461
0.13521525
0.1358676
0.13649477
0.13713014
0.13773158
0.13835124
0.13892156
0.1395226
0.14005103
0.140597
0.14107819
0.14161268
0.14210507
0.14265105
0.1431593
0.1437327
0.14426071
0.14488882
0.14539753
0.14602271
0.14649177
0.14699471
0.1472573
0.14832099
0.14868529
0.14995165
0.14967853
0.15441757
0.15447309
0.15677253
0.15177982
0.15546853
0.15137912
0.14930472
0.14710606
0.14587364
0.15155433
0.14814471
0.14958252
0.15262095
0.15678051
0.15713904
0.16150014
0.15924072
0.16817388
0.15521
0.13553003
0.13419478
0.1260134
0.12448612
0.11489442
0.091643837
0.071652663
0.072159604
0.061296335
0.036056272
0.031360388
0.020572991
-0.023131157
-0.046197695
-0.093372556
-0.12718175
-0.17308588
-0.1988058
-0.21618543
-0.21818006
-0.2155534
-0.19967555
-0.19306831
-0.16884931
-0.16921933
-0.11321048
-0.070461364
-0.074675711
-0.0692872
-0.069312632
-0.061937003
-0.052990113
-0.039727675
-0.02715085
-0.018854449
-0.013881037
-0.010502732
-0.0081883833
-0.0070736019
-0.0057902877
-0.0048440445
-0.0040329829
-0.0034990731
-0.002917886
-0.002437055
-0.0020131495
-0.0016639971
-0.0013804525
-0.0011750408
-0.0010161547
-0.00090202473
-0.00081649738
-0.00077539239
-0.00074460697
-0.00074010575
-0.00074363317
-0.0007559994
-0.00076447082
-0.0007626676
-0.00074137409
-0.00068949269
-0.00060263386
-0.00048745865
-0.00034288893
-0.00017390217
-3.6626571e-06
0.00023185638
0.00044895741
0.00068868772
0.000935413
0.0011834118
0.0014143389
0.0016250334
0.0017939578
0.001941131
0.002046027
0.002127651
0.0021675507
0.0021704184
0.0021098774
0.0020176079
0.0018246025
0.0016129459
0.0012394271
0.00089272844
0.00026411497
-0.00020629146
-0.0012527115
-0.0017147235
-0.0022191015
-0.0025213625
-0.0027894151
-0.0029163413
-0.0029845865
-0.0029447097
-0.0028467679
-0.002664248
-0.0024270163
-0.0021225898
-0.0017660478
-0.0013522777
-0.00088994301
-0.00037849348
0.00017793939
0.00077929813
0.0014223555
0.0021060945
0.0028285791
0.0035892086
0.0043860655
0.0052180084
0.0060838231
0.0069828373
0.0079135596
0.0088749278
0.0098658714
0.010885779
0.011933561
0.01300868
0.014109723
0.015236145
0.01638638
0.017559838
0.018754907
0.019970934
0.021206414
0.022460617
0.023732098
0.025020352
0.026324546
0.027643961
0.028977478
0.030324481
0.03168369
0.033054426
0.034435219
0.035825693
0.037224558
0.038631239
0.040044271
0.041463233
0.042886825
0.044314599
0.045745158
0.047177043
0.048610951
0.050046305
0.051481727
0.052916432
0.054350213
0.055782542
0.057212115
0.058638833
0.060061967
0.061481271
0.062895321
0.064304259
0.065707331
0.067104232
0.068493706
0.069876149
0.071250916
0.072617829
0.073975791
0.075324997
0.076664787
0.077994955
0.079314927
0.080624427
0.081923316
0.083211219
0.084487844
0.085752881
0.087006863
0.088250154
0.089481622
0.09070151
0.091910005
0.093106616
0.09429148
0.095463825
0.096625525
0.097774648
0.098914624
0.10004223
0.10116435
0.10227824
0.10340777
0.10448032
0.10551755
0.10655561
0.10757686
0.10859456
0.10959742
0.11059281
0.11157473
0.11254754
0.11350765
0.1144581
0.11539647
0.11632453
0.11724104
0.11814705
0.11904127
0.11992479
0.12079699
0.12165857
0.12250855
0.12334763
0.12417526
0.12499181
0.12579659
0.12658957
0.12737171
0.1281411
0.12889981
0.1296458
0.13038302
0.13110675
0.13182222
0.13252271
0.13321679
0.13389255
0.13456394
0.13521459
0.13586694
0.13649412
0.13712948
0.13773094
0.13835057
0.13892096
0.13952192
0.14005049
0.14059696
0.14107873
0.14161374
0.14210673
0.14265338
0.14316223
0.14373657
0.14426542
0.14489364
0.14540417
0.14603339
0.14649563
0.14700703
0.14726511
0.14834316
0.148662
0.1499456
0.14969116
0.15444167
0.1545096
0.15680827
0.15200451
0.15550695
0.15148749
0.14916089
0.1470379
0.14599514
0.1515233
0.14791522
0.14962764
0.15275093
0.1564911
0.15700893
0.16134904
0.15979619
0.16857396
0.15564117
0.136798
0.13515792
0.12708238
0.12476311
0.1161405
0.092865251
0.070586253
0.072572603
0.062418914
0.03622348
0.031367757
0.019690982
-0.022349878
-0.046354887
-0.093189275
-0.12717347
-0.17304358
-0.19881797
-0.21615036
-0.21815102
-0.2155262
-0.1996581
-0.19305641
-0.16884576
-0.16921629
-0.11321258
-0.070467062
-0.07467607
-0.069287887
-0.069304709
-0.061936885
-0.052987821
-0.039752134
-0.027184347
-0.018886368
-0.013906343
-0.010526883
-0.0082031001
-0.0070787427
-0.0058042796
-0.004852893
-0.0040412374
-0.0035058468
-0.0029255252
-0.0024438308
-0.0020175991
-0.0016669254
-0.0013833552
-0.0011769146
-0.0010175461
-0.00090344015
-0.00081738332
-0.00077592468
-0.00074529503
-0.00074032173
-0.00074401157
-0.00075627552
-0.00076471435
-0.00076305517
-0.0007419084
-0.00069032831
-0.00060367774
-0.00048855919
-0.00034401422
-0.00017563837
-4.9637973e-06
0.0002293256
0.00044669977
0.00068639028
0.00093333938
0.0011811185
0.0014124051
0.0016234062
0.0017922862
0.001939756
0.0020449124
0.0021265786
0.0021666279
0.0021699898
0.0021096796
0.0020176845
0.0018247526
0.001613394
0.0012397259
0.00089329461
0.00026449096
-0.00020588993
-0.0012520235
-0.0017137319
-0.0022182587
-0.0025205479
-0.0027885493
-0.0029154645
-0.0029836197
-0.0029438693
-0.0028459377
-0.0026634897
-0.0024262792
-0.0021218558
-0.0017653249
-0.0013515612
-0.00088923748
-0.00037777663
0.00017864756
0.00078000239
0.0014230514
0.0021067938
0.0028292733
0.0035898971
0.0043867462
0.0052186908
0.0060844986
0.0069835042
0.0079142176
0.0088755835
0.0098665193
0.010886417
0.011934189
0.013009293
0.01411032
0.015236723
0.016386943
0.017560385
0.018755439
0.019971449
0.021206915
0.022461102
0.02373257
0.025020807
0.026324984
0.027644377
0.028977872
0.03032485
0.031684039
0.033054754
0.034435527
0.035825976
0.03722482
0.038631478
0.04004449
0.041463427
0.042886998
0.044314753
0.045745292
0.047177151
0.048611038
0.05004637
0.051481772
0.052916453
0.054350213
0.055782519
0.057212073
0.058638767
0.060061882
0.061481162
0.062895194
0.06430411
0.065707164
0.067104043
0.068493501
0.069875924
0.071250675
0.072617567
0.073975514
0.075324702
0.076664476
0.077994625
0.079314582
0.080624065
0.081922937
0.083210821
0.084487435
0.085752463
0.087006434
0.088249709
0.089481167
0.090701045
0.091909529
0.093106126
0.09429098
0.095463317
0.096625005
0.097774115
0.098914075
0.10004165
0.10116374
0.10227756
0.10340708
0.10447972
0.10551696
0.10655503
0.10757627
0.10859396
0.10959681
0.1105922
0.11157411
0.11254692
0.11350703
0.11445748
0.11539584
0.1163239
0.11724041
0.11814641
0.11904064
0.11992415
0.12079635
0.12165792
0.1225079
0.12334698
0.12417461
0.12499114
0.12579592
0.1265889
0.12737104
0.12814042
0.12889913
0.12964512
0.13038235
0.13110608
0.13182155
0.13252203
0.1332161
0.13389187
0.13456327
0.13521393
0.13586627
0.13649347
0.13712882
0.1377303
0.13834989
0.13892035
0.13952123
0.14004994
0.14059691
0.14107927
0.14161482
0.14210839
0.14265572
0.14316513
0.14374058
0.14426997
0.1448987
0.14541109
0.14604458
0.1465024
0.14701825
0.14727398
0.14837476
0.1486395
0.14995052
0.14969647
0.154465
0.15454739
0.15685105
0.15224506
0.15556683
0.15159229
0.14900965
0.14699529
0.14613791
0.15149175
0.1476929
0.14966486
0.15284299
0.15616239
0.15685108
0.16125145
0.1604059
0.16897637
0.15588096
0.13789451
0.13605322
0.1283713
0.12458608
0.11762988
0.094151964
0.069807372
0.072630594
0.063341862
0.035762365
0.031090432
0.018615976
-0.0213504
-0.046480316
-0.092739918
-0.12719155
-0.17299602
-0.1988195
-0.21610522
-0.21811769
-0.21549622
-0.19963954
-0.19304366
-0.16884402
-0.16921353
-0.11321445
-0.070471189
-0.074675877
-0.069288261
-0.069296135
-0.061936658
-0.052987412
-0.039777247
-0.027221766
-0.018918494
-0.013932726
-0.010550443
-0.0082172955
-0.0070854506
-0.0058184841
-0.0048627452
-0.0040506391
-0.0035129547
-0.0029324775
-0.002450517
-0.0020222023
-0.0016697386
-0.0013864415
-0.0011791245
-0.0010190519
-0.0009048798
-0.00081835186
-0.00077639641
-0.00074602244
-0.00074059458
-0.00074437824
-0.00075656825
-0.00076503203
-0.0007634634
-0.00074248873
-0.00069121226
-0.00060481112
-0.00048975807
-0.00034518198
-0.00017758073
-6.1903373e-06
0.00022671913
0.00044440286
0.00068401488
0.00093118296
0.0011787311
0.0014103828
0.0016216838
0.0017905451
0.0019383064
0.0020437878
0.0021254761
0.0021656912
0.0021695447
0.0021094672
0.0020177432
0.0018248896
0.0016138366
0.0012400408
0.00089387401
0.00026488606
-0.00020547854
-0.0012513668
-0.0017127818
-0.002217422
-0.0025197382
-0.0027876871
-0.0029145893
-0.0029826523
-0.0029430275
-0.0028451027
-0.002662727
-0.0024255358
-0.0021211159
-0.0017645936
-0.0013508366
-0.00088852285
-0.00037705079
0.00017936636
0.0007807169
0.0014237582
0.0021075038
0.002829979
0.0035905967
0.0043874387
0.0052193844
0.006085186
0.0069841826
0.0079148874
0.0088762505
0.0098671792
0.010887067
0.01193483
0.013009918
0.014110928
0.015237314
0.016387519
0.017560943
0.018755982
0.019971974
0.021207428
0.022461598
0.023733052
0.025021272
0.026325431
0.027644802
0.028978276
0.030325229
0.031684396
0.033055089
0.034435843
0.035826265
0.037225088
0.038631722
0.040044713
0.041463625
0.042887175
0.04431491
0.04574543
0.047177261
0.048611127
0.050046437
0.051481818
0.052916474
0.054350212
0.055782495
0.05721203
0.058638701
0.060061795
0.061481051
0.062895065
0.064303958
0.065706994
0.06710385
0.068493292
0.069875694
0.071250428
0.072617298
0.07397523
0.075324399
0.076664157
0.077994287
0.079314229
0.080623694
0.081922549
0.083210413
0.084487018
0.085752035
0.087005995
0.088249254
0.089480702
0.090700568
0.091909042
0.093105624
0.094290468
0.095462795
0.096624472
0.097773569
0.098913512
0.10004107
0.10116311
0.10227686
0.10340638
0.10447911
0.10551636
0.10655443
0.10757566
0.10859333
0.10959618
0.11059157
0.11157348
0.11254628
0.11350639
0.11445684
0.1153952
0.11632326
0.11723977
0.11814576
0.11903998
0.11992349
0.12079569
0.12165726
0.12250724
0.12334631
0.12417394
0.12499046
0.12579524
0.1265882
0.12737034
0.12813971
0.12889844
0.12964443
0.13038166
0.13110539
0.13182087
0.13252133
0.1332154
0.13389116
0.13456258
0.13521324
0.13586558
0.1364928
0.13712815
0.13772964
0.13834919
0.13891972
0.13952052
0.14004937
0.14059686
0.14107982
0.14161592
0.14211009
0.14265807
0.14316817
0.14374469
0.1442745
0.14490387
0.14541831
0.14605576
0.14651079
0.14703083
0.14728599
0.14840895
0.14862737
0.1499667
0.1496933
0.15448778
0.1545715
0.15687529
0.15247758
0.15562861
0.15166698
0.14888283
0.14699291
0.14626422
0.1514627
0.1474737
0.14970998
0.1528981
0.15581102
0.15671347
0.1612013
0.16092896
0.16930048
0.15592662
0.13873512
0.13688279
0.12964747
0.12389804
0.11936872
0.095632133
0.069513424
0.072517853
0.064017202
0.035128721
0.030454864
0.017602558
-0.020394268
-0.04654941
-0.092158035
-0.12723888
-0.17295139
-0.19880748
-0.21604978
-0.21807893
-0.21546176
-0.19961888
-0.19302984
-0.1688423
-0.16921107
-0.11321631
-0.070474224
-0.074675061
-0.069288048
-0.069286699
-0.061936166
-0.052988947
-0.039802992
-0.027259012
-0.018953772
-0.013961465
-0.010573647
-0.0082320456
-0.0070933069
-0.0058324382
-0.0048732753
-0.0040611702
-0.0035201016
-0.0029389617
-0.0024569826
-0.0020268779
-0.0016729195
-0.001389584
-0.0011816104
-0.0010206543
-0.00090645803
-0.00081946885
-0.00077685605
-0.00074677243
-0.00074096103
-0.00074473244
-0.00075686758
-0.00076537288
-0.00076384628
-0.00074307196
-0.00069212089
-0.00060597326
-0.00049104902
-0.00034652276
-0.0001797279
-7.4308967e-06
0.00022412038
0.00044206595
0.0006815657
0.0009289061
0.0011762977
0.001408287
0.0016198465
0.0017887135
0.0019368095
0.0020426043
0.002124315
0.002164736
0.0021690652
0.0021092298
0.0020177835
0.0018250121
0.0016142799
0.0012403678
0.00089445875
0.00026529325
-0.00020506103
-0.0012507311
-0.0017118485
-0.0022165851
-0.00251893
-0.0027868251
-0.0029137148
-0.0029816849
-0.0029421831
-0.0028442609
-0.0026619576
-0.0024247832
-0.0021203676
-0.0017638511
-0.0013501013
-0.00088779624
-0.00037631357
0.00018009863
0.00078144438
0.0014244789
0.0021082271
0.0028306991
0.0035913102
0.0043881456
0.0052200919
0.0060858881
0.0069848753
0.0079155716
0.0088769316
0.0098678536
0.010887732
0.011935484
0.013010557
0.014111551
0.015237918
0.016388109
0.017561515
0.018756537
0.019972512
0.021207951
0.022462104
0.023733545
0.025021747
0.026325888
0.027645237
0.028978689
0.030325616
0.031684762
0.033055432
0.034436166
0.035826561
0.037225363
0.038631972
0.040044942
0.041463828
0.042887356
0.044315071
0.045745571
0.047177375
0.048611218
0.050046505
0.051481866
0.052916495
0.054350212
0.055782471
0.057211985
0.058638632
0.060061706
0.061480937
0.062894932
0.064303802
0.065706819
0.067103652
0.068493076
0.069875457
0.071250175
0.072617023
0.073974939
0.075324087
0.07666383
0.077993939
0.079313865
0.080623312
0.081922149
0.083209994
0.084486588
0.085751594
0.087005543
0.088248785
0.089480223
0.090700077
0.09190854
0.093105106
0.094289941
0.095462258
0.096623924
0.097773006
0.098912933
0.10004046
0.10116246
0.10227616
0.10340566
0.10447847
0.10551574
0.10655381
0.10757503
0.10859269
0.10959554
0.11059092
0.11157283
0.11254563
0.11350574
0.11445618
0.11539454
0.1163226
0.11723911
0.11814509
0.11903931
0.11992282
0.12079501
0.12165658
0.12250655
0.12334561
0.12417324
0.12498975
0.12579454
0.12658749
0.12736963
0.12813899
0.12889772
0.12964372
0.13038095
0.13110468
0.13182016
0.13252061
0.13321468
0.13389043
0.13456187
0.13521254
0.13586488
0.13649211
0.13712746
0.13772896
0.13834848
0.13891906
0.13951978
0.14004878
0.14059679
0.14108036
0.14161703
0.14211178
0.14266045
0.14317135
0.14374884
0.14427888
0.14490902
0.14542561
0.14606664
0.14652104
0.14704816
0.14730138
0.14844375
0.14862552
0.14999278
0.14969229
0.15451373
0.1545832
0.15686433
0.15268213
0.15567898
0.1516834
0.14877476
0.14701997
0.146357
0.15139969
0.14724822
0.14976078
0.15285935
0.15541534
0.15656773
0.16113311
0.16137556
0.1695008
0.15594422
0.13942418
0.1375151
0.13069931
0.12319004
0.1207875
0.09712826
0.070047902
0.072247259
0.064278258
0.03448502
0.029466983
0.016763734
-0.019546359
-0.046693969
-0.091538707
-0.12731197
-0.17287963
-0.19878567
-0.21598272
-0.21803228
-0.2154212
-0.19959531
-0.19301453
-0.16883947
-0.16920867
-0.11321804
-0.070476571
-0.074673512
-0.069286986
-0.069276135
-0.061935211
-0.052991015
-0.039829295
-0.027295163
-0.018992754
-0.013992551
-0.010597153
-0.0082477971
-0.0071010326
-0.0058452371
-0.0048847342
-0.0040726374
-0.0035271372
-0.0029453295
-0.0024635473
-0.0020318689
-0.0016765823
-0.0013928171
-0.0011842731
-0.0010223517
-0.00090806672
-0.00082080978
-0.00077740367
-0.00074741781
-0.0007413819
-0.0007450979
-0.00075724533
-0.00076570345
-0.00076423061
-0.0007436599
-0.00069305903
-0.00060717668
-0.00049241641
-0.00034807054
-0.0001821357
-8.8627973e-06
0.00022151769
0.00043968279
0.00067903251
0.00092653881
0.0011738027
0.0014060833
0.0016179483
0.0017868593
0.0019352486
0.0020413496
0.0021231051
0.0021637309
0.0021685521
0.0021089584
0.0020177759
0.0018251312
0.0016147151
0.0012406981
0.00089504107
0.00026570839
-0.00020464592
-0.0012501205
-0.0017109325
-0.0022157509
-0.0025181276
-0.0027859661
-0.0029128451
-0.0029807215
-0.0029413392
-0.0028434148
-0.0026611839
-0.0024240234
-0.0021196128
-0.001763099
-0.0013493569
-0.00088705885
-0.00037556628
0.00018084322
0.00078218378
0.0014252125
0.0021089628
0.0028314329
0.0035920369
0.0043888662
0.0052208127
0.0060866041
0.0069855816
0.0079162697
0.0088776261
0.0098685417
0.01088841
0.011936153
0.01301121
0.014112188
0.015238535
0.016388711
0.017562099
0.018757105
0.019973061
0.021208486
0.022462622
0.02373405
0.025022233
0.026326356
0.027645682
0.028979112
0.030326012
0.031685137
0.033055784
0.034436496
0.035826864
0.037225644
0.038632227
0.040045176
0.041464035
0.042887541
0.044315235
0.045745715
0.04717749
0.048611311
0.050046575
0.051481913
0.052916516
0.05435021
0.055782446
0.057211939
0.058638562
0.060061614
0.06148082
0.062894795
0.064303641
0.065706639
0.067103447
0.068492855
0.069875214
0.071249914
0.072616739
0.073974639
0.075323766
0.076663493
0.077993581
0.079313491
0.080622917
0.081921737
0.083209562
0.084486146
0.085751141
0.087005078
0.088248303
0.08947973
0.090699572
0.091908024
0.093104574
0.094289399
0.095461704
0.096623359
0.097772426
0.098912336
0.10003985
0.1011618
0.10227545
0.10340493
0.10447782
0.1055151
0.10655317
0.10757438
0.10859203
0.10959487
0.11059026
0.11157216
0.11254496
0.11350506
0.11445551
0.11539387
0.11632192
0.11723843
0.1181444
0.11903861
0.11992212
0.12079431
0.12165587
0.12250585
0.1233449
0.12417253
0.12498902
0.12579381
0.12658675
0.12736889
0.12813824
0.12889698
0.12964298
0.13038021
0.13110395
0.13181943
0.13251987
0.13321393
0.13388969
0.13456114
0.13521182
0.13586416
0.13649141
0.13712675
0.13772826
0.13834775
0.13891838
0.13951902
0.14004816
0.14059671
0.14108088
0.14161814
0.14211349
0.14266294
0.14317459
0.14375289
0.1442832
0.14491411
0.14543319
0.14607594
0.14653323
0.14707115
0.14732272
0.14848023
0.1486206
0.15002469
0.14969039
0.15453441
0.15458991
0.15681063
0.15284842
0.15570556
0.15166044
0.14868536
0.14707042
0.1464367
0.15126632
0.14704302
0.14977034
0.15270905
0.15501485
0.15644581
0.16098486
0.16161578
0.16965273
0.15593158
0.1400272
0.13815053
0.13131611
0.12262344
0.12167002
0.098434057
0.070989836
0.071992098
0.063798968
0.034108188
0.028375839
0.016130532
-0.018805943
-0.046817212
-0.090996522
-0.12738589
-0.17279965
-0.19874909
-0.21590182
-0.21797496
-0.21537293
-0.19956803
-0.19299722
-0.1688351
-0.16920587
-0.11321956
-0.070478512
-0.074671104
-0.069284818
-0.069264124
-0.061933536
-0.052992851
-0.039856132
-0.027330919
-0.019024855
-0.014025075
-0.010621489
-0.0082646963
-0.0071094054
-0.0058565829
-0.0048970348
-0.0040846209
-0.0035341881
-0.0029517687
-0.0024702
-0.002037155
-0.0016807588
-0.001396112
-0.0011870297
-0.0010241951
-0.00090970869
-0.000822318
-0.00077798726
-0.00074805929
-0.00074182765
-0.00074546392
-0.00075766164
-0.00076607303
-0.00076465434
-0.00074428732
-0.00069403123
-0.00060843444
-0.00049391058
-0.00034986417
-0.00018470361
-1.0453823e-05
0.00021885674
0.00043723192
0.00067641549
0.00092408713
0.0011712131
0.0014037684
0.001615905
0.0017849007
0.0019336031
0.0020400269
0.0021218577
0.0021626967
0.0021679892
0.0021086421
0.002017722
0.0018252347
0.0016151314
0.0012410231
0.00089561321
0.0002661217
-0.00020424453
-0.0012495441
-0.0017100416
-0.0022149242
-0.0025173359
-0.0027851137
-0.0029119844
-0.0029797655
-0.0029404987
-0.0028425671
-0.0026604079
-0.0024232583
-0.0021188533
-0.0017623391
-0.001348605
-0.00088631199
-0.00037481022
0.00018159892
0.00078293404
0.0014259581
0.0021097102
0.0028321795
0.0035927759
0.0043895999
0.0052215461
0.0060873334
0.0069863007
0.007916981
0.0088783333
0.0098692428
0.0108891
0.011936835
0.013011875
0.014112838
0.015239164
0.016389326
0.017562694
0.018757685
0.019973621
0.021209033
0.022463151
0.023734564
0.025022729
0.026326832
0.027646135
0.028979543
0.030326416
0.031685519
0.033056142
0.034436832
0.035827173
0.037225931
0.038632487
0.040045415
0.041464246
0.042887728
0.044315403
0.04574586
0.047177607
0.048611404
0.050046645
0.05148196
0.052916536
0.054350208
0.055782418
0.057211891
0.058638488
0.060061518
0.061480698
0.062894654
0.064303475
0.065706453
0.067103237
0.068492626
0.069874963
0.071249645
0.072616446
0.07397433
0.075323434
0.076663145
0.077993211
0.079313105
0.080622511
0.081921313
0.083209119
0.08448569
0.085750674
0.087004599
0.088247808
0.089479222
0.090699052
0.091907493
0.093104027
0.094288841
0.095461135
0.096622777
0.097771829
0.098911721
0.10003921
0.10116112
0.10227472
0.10340418
0.10447715
0.10551444
0.10655251
0.10757371
0.10859135
0.10959419
0.11058957
0.11157147
0.11254426
0.11350437
0.11445481
0.11539317
0.11632122
0.11723772
0.11814369
0.1190379
0.1199214
0.12079359
0.12165514
0.12250512
0.12334416
0.12417179
0.12498827
0.12579306
0.12658599
0.12736813
0.12813747
0.12889622
0.12964222
0.13037946
0.13110319
0.13181868
0.13251911
0.13321317
0.13388892
0.13456039
0.13521107
0.13586343
0.13649069
0.13712603
0.13772754
0.13834699
0.13891767
0.13951823
0.14004751
0.14059661
0.1410814
0.14161926
0.14211523
0.14266545
0.14317787
0.14375708
0.14428739
0.14491891
0.14543987
0.14608558
0.14654983
0.14709858
0.14734542
0.14851536
0.14860894
0.15004787
0.14968829
0.15454391
0.15459761
0.15672965
0.15296187
0.15568965
0.15162768