/*--------------------------------*- C++ -*----------------------------------*\
| =========                 |                                                 |
| \\      /  F ield         | OpenFOAM: The Open Source CFD Toolbox           |
|  \\    /   O peration     | Version:  2.4.0                                 |
|   \\  /    A nd           | Web:      www.OpenFOAM.org                      |
|    \\/     M anipulation  |                                                 |
\*---------------------------------------------------------------------------*/
FoamFile
{
    version     2.0;
    format      ascii;
    class       volVectorField;
    location    "800";
    object      U_0;
}
// * * * * * * * * * * * * * * * * * * * * * * * * * * * * * * * * * * * * * //

dimensions      [0 1 -1 0 0 0 0];

internalField   nonuniform List<vector> 
78300
(
(0.0053569656 2.2935128e-05 8.2820757e-22)
(0.005775803 2.5719866e-05 0)
(0.0064526987 -4.1393976e-05 1.7487662e-24)
(0.0062280761 -0.000188023 -3.73145e-22)
(0.0056859995 -0.00038489281 0)
(0.0039904743 -0.00047301488 1.0895498e-20)
(0.0019346002 -0.00035102703 5.6721958e-21)
(-0.00031721998 6.6415742e-05 -1.9006804e-20)
(-0.0018501507 0.00060820066 -5.030551e-21)
(-0.0022336928 0.00093919252 3.5594245e-21)
(-0.0018650354 0.00095722832 2.5016757e-22)
(-0.0013747948 0.0007942362 0)
(-0.0012536486 0.00067682757 -5.7086064e-24)
(-0.0012308986 0.00071538945 -1.2648563e-21)
(-0.0011488397 0.00097945005 0)
(-0.0011060258 0.0008486162 9.1302844e-22)
(-0.00095192053 0.00072902978 2.8025048e-21)
(-0.00080261591 0.00064460159 -2.2015342e-21)
(-0.00068411955 0.00057382113 1.1932859e-20)
(-0.00058444355 0.00049759121 -1.2323061e-20)
(-0.00050733366 0.00043601729 -1.3078958e-20)
(-0.0004608558 0.00038543419 0)
(-0.00042253194 0.00036113578 9.0903291e-21)
(-0.00041018357 0.00033889851 -4.800222e-21)
(-0.00039302502 0.00033099497 -1.1898069e-20)
(-0.00039251323 0.00032438236 -3.0088118e-21)
(-0.00039833489 0.00032697943 -3.8667788e-21)
(-0.00041175583 0.0003345304 1.2109147e-20)
(-0.00042742452 0.00034489936 8.6932709e-21)
(-0.000448806 0.00035850162 4.8953795e-21)
(-0.00047600495 0.00037704316 -4.1151342e-21)
(-0.00050784773 0.00039985605 -6.7534545e-21)
(-0.00054502096 0.00042659627 -1.9183885e-21)
(-0.00058512209 0.00045579141 -1.9484389e-21)
(-0.00062963188 0.00048860221 1.5914649e-21)
(-0.00067569698 0.00052257477 -8.2922633e-22)
(-0.00071927309 0.00055505754 1.0707237e-21)
(-0.00075802214 0.00058224255 2.9368011e-23)
(-0.00080189825 0.0006026373 1.1755552e-21)
(-0.00083174665 0.00062292572 -1.382053e-22)
(-0.0008687411 0.0006340513 -3.0347842e-23)
(-0.00089720757 0.00064727142 -1.0971042e-22)
(-0.00093643468 0.00065980712 -4.5269769e-22)
(-0.00096839562 0.00066462915 -8.2211874e-22)
(-0.00099274047 0.00065937604 1.7838927e-21)
(-0.0010100453 0.00064609666 2.3555983e-21)
(-0.0010218758 0.00062545302 -9.6175539e-22)
(-0.0010281433 0.00059752598 -3.0188563e-21)
(-0.0010351198 0.00056705669 3.2114931e-21)
(-0.0010409535 0.00053420043 -2.6174617e-21)
(-0.0010424895 0.00049771374 -6.0421752e-21)
(-0.001040244 0.00045796338 0)
(-0.0010336662 0.00041901941 -1.1607923e-21)
(-0.0010169882 0.00037459403 -4.3939444e-21)
(-0.00099949035 0.00033041028 -1.3792795e-21)
(-0.000970478 0.00028346571 1.1407858e-21)
(-0.00093617683 0.00023695149 7.7586167e-22)
(-0.00089610456 0.00019153893 1.45809e-21)
(-0.00086309785 0.00014991591 1.504939e-23)
(-0.00081666763 0.00010893318 -2.7695984e-22)
(-0.00080951866 7.5050583e-05 -2.0431595e-22)
(-0.00079424826 4.1002352e-05 -5.8478346e-23)
(-0.00093644086 1.125175e-05 -1.4147897e-22)
(-0.001228356 1.311594e-07 4.0021134e-26)
(-0.0014328112 3.6762708e-07 -5.5279364e-26)
(-0.0016211578 2.839273e-07 -2.3559757e-25)
(-0.0017866017 3.8743694e-07 2.5779018e-25)
(-0.0019400517 1.4196217e-07 -2.5427059e-25)
(-0.0020736808 6.6479162e-07 0)
(-0.0021927193 4.0088794e-07 -1.9770291e-25)
(-0.0023015092 3.0718385e-07 1.3013288e-25)
(-0.0023988195 3.0695377e-07 2.3218862e-25)
(-0.0024879605 3.0141104e-07 -2.8823694e-25)
(-0.0025689072 3.1457145e-07 -1.0087819e-18)
(-0.0026435384 3.2048532e-07 -8.4911802e-19)
(-0.0027121263 3.2321587e-07 3.1217128e-25)
(-0.0027753207 3.247979e-07 -1.3137357e-25)
(-0.0028339497 3.3367832e-07 -5.2991916e-26)
(-0.0028886226 3.3415671e-07 -5.8257669e-27)
(-0.0029396192 3.3068996e-07 1.3208682e-26)
(-0.0029870712 3.3091229e-07 -5.0392975e-26)
(-0.0030314356 3.3495725e-07 1.843396e-25)
(-0.0030731263 3.238497e-07 -9.919459e-26)
(-0.003112245 3.1615315e-07 -2.6144701e-25)
(-0.0031489961 3.2766711e-07 2.8368296e-25)
(-0.0031833606 3.2998729e-07 -4.0913426e-26)
(-0.0032157223 3.2621461e-07 3.3632337e-25)
(-0.0032461085 3.2167715e-07 -4.6172539e-25)
(-0.0032745876 3.19133e-07 -3.6128634e-25)
(-0.0033012484 3.2281268e-07 5.5368662e-25)
(-0.00332613 3.1710647e-07 -4.6505873e-25)
(-0.0033492914 3.1500673e-07 3.709434e-25)
(-0.0033708646 3.101683e-07 -2.0915623e-25)
(-0.0033908777 3.0518497e-07 -4.3346887e-26)
(-0.0034092751 2.9798338e-07 1.6075448e-26)
(-0.0034261032 2.8782361e-07 3.0862848e-25)
(-0.0034413948 2.7863702e-07 -2.6339899e-26)
(-0.0034551447 2.709134e-07 4.5488017e-25)
(-0.0034673811 2.6106995e-07 -3.3390872e-27)
(-0.0034781843 2.5415158e-07 -8.9361403e-25)
(-0.0034873915 2.4559256e-07 4.2374792e-25)
(-0.0034951748 2.3681568e-07 -4.0551738e-26)
(-0.0035014558 2.2589214e-07 6.0209568e-25)
(-0.0035063362 2.1257597e-07 -1.572882e-26)
(-0.0035097677 2.1065487e-07 -1.1766779e-24)
(-0.0035117011 1.9991031e-07 -8.0753693e-26)
(-0.0035122118 1.9789938e-07 4.0927031e-26)
(-0.0035111835 1.9078554e-07 6.0366085e-25)
(-0.0035087029 1.8225555e-07 -6.0272708e-26)
(-0.0035046637 1.7648118e-07 -7.6125052e-25)
(-0.0034992092 1.6853427e-07 1.406991e-24)
(-0.0034922718 1.5828926e-07 -1.6108158e-24)
(-0.0034838526 1.5141835e-07 1.5177914e-24)
(-0.0034739554 1.4696457e-07 -2.9182796e-25)
(-0.0034625379 1.3919593e-07 1.7884785e-25)
(-0.0034497794 1.3200987e-07 -7.5643093e-25)
(-0.0034353898 1.2386123e-07 4.2890541e-25)
(-0.0034196746 1.223898e-07 1.159763e-25)
(-0.0034027103 1.191635e-07 -8.3546719e-26)
(-0.0033845561 1.0009632e-07 -8.2100287e-26)
(-0.0033649421 8.9442457e-08 1.7446209e-17)
(-0.0033438997 8.3009781e-08 1.7983073e-17)
(-0.0033217565 7.6749767e-08 1.0546217e-24)
(-0.0032983592 6.2819643e-08 -8.542619e-26)
(-0.0032737066 5.0669541e-08 -9.8907919e-26)
(-0.0032477813 4.1514963e-08 -7.199158e-26)
(-0.0032208208 3.2127938e-08 -5.93637e-27)
(-0.0031927357 2.0698533e-08 -2.4470327e-25)
(-0.0031635471 8.8637225e-09 -1.1281529e-25)
(-0.0031332717 -9.2309701e-10 3.9143041e-25)
(-0.003102025 -1.2828455e-08 2.1539249e-26)
(-0.0030698167 -2.360525e-08 2.1557767e-25)
(-0.0030366624 -3.5242872e-08 -3.5692308e-25)
(-0.0030026361 -4.5881541e-08 4.9985795e-26)
(-0.0029678183 -5.739344e-08 1.1610401e-26)
(-0.0029322211 -6.7981081e-08 2.2796228e-26)
(-0.0028958591 -7.914073e-08 2.2572932e-27)
(-0.002858782 -8.9045534e-08 1.4672637e-25)
(-0.0028210651 -1.0005873e-07 -6.4754837e-26)
(-0.0027827338 -1.0970784e-07 -3.5167237e-25)
(-0.0027438141 -1.2005397e-07 6.7692433e-25)
(-0.0027043799 -1.3001836e-07 -9.8146603e-25)
(-0.0026644135 -1.4010048e-07 1.5768933e-26)
(-0.0026240903 -1.4924765e-07 5.2462946e-25)
(-0.0025832352 -1.5894835e-07 -1.4945841e-25)
(-0.0025420178 -1.7205346e-07 3.5808405e-25)
(-0.0025006684 -1.7720363e-07 -1.5103952e-25)
(-0.002459037 -1.8554505e-07 -9.6136069e-27)
(-0.0024173878 -1.9317312e-07 -1.7221722e-25)
(-0.0023750719 -2.0091193e-07 -1.7755997e-25)
(-0.0023328076 -2.082266e-07 -1.6890468e-25)
(-0.0022905169 -2.1563272e-07 6.4030475e-25)
(-0.0022480844 -2.2281194e-07 4.1826708e-25)
(-0.0022055885 -2.3014478e-07 6.8848598e-25)
(-0.0021629169 -2.3594975e-07 -2.7106083e-25)
(-0.002120482 -2.4285059e-07 -7.7207491e-25)
(-0.0020779242 -2.492044e-07 -1.8757486e-24)
(-0.0020358209 -2.5073258e-07 3.702403e-17)
(-0.0019926362 -2.614388e-07 1.7756506e-20)
(-0.0019506619 -2.5479836e-07 -3.7961167e-17)
(-0.0019050498 -2.5863955e-07 -2.8975897e-24)
(-0.0018594542 -4.0284209e-07 4.2271917e-25)
(-0.0018138151 -4.2221189e-07 -5.0575626e-24)
(-0.001774588 -2.7750086e-07 5.2384192e-24)
(-0.0017356063 -2.6782437e-07 4.8880558e-25)
(-0.0016955365 -2.898263e-07 -4.785625e-24)
(-0.0016564872 -3.0322315e-07 2.6567211e-24)
(-0.0016167216 -3.0520154e-07 -2.930007e-24)
(-0.0015768939 -3.0819525e-07 4.3241401e-24)
(-0.0015379422 -3.1291548e-07 -1.1064025e-24)
(-0.001498738 -3.1345097e-07 -2.1756037e-24)
(-0.001460309 -3.2116634e-07 6.9884037e-25)
(-0.0014216524 -3.2480483e-07 2.8274665e-24)
(-0.0013841949 -3.2887948e-07 -3.2811373e-24)
(-0.0013465414 -3.3293428e-07 2.8724706e-24)
(-0.0013096464 -3.3717715e-07 -3.1385902e-24)
(-0.0012730193 -3.4141894e-07 1.611152e-24)
(-0.0012369309 -3.4999004e-07 1.8421103e-24)
(-0.0012011972 -3.5538174e-07 2.9903659e-24)
(-0.001166247 -3.4834373e-07 -3.422757e-24)
(-0.001131378 -3.652747e-07 -2.3563239e-24)
(-0.0010975583 -3.7563307e-07 3.0351052e-24)
(-0.0010638506 -3.7830506e-07 -6.4640784e-24)
(-0.0010308633 -3.8808124e-07 6.0189497e-24)
(-0.00099850435 -3.9302758e-07 -3.5711606e-24)
(-0.0009669699 -3.9873971e-07 3.112318e-24)
(-0.00093583422 -4.08642e-07 -3.6213941e-24)
(-0.00090573454 -4.1788909e-07 -2.4959765e-24)
(-0.00087582617 -4.3850307e-07 1.9752634e-24)
(-0.00084658003 -4.6732576e-07 -2.5289282e-24)
(-0.0008183638 -4.7357111e-07 6.512073e-24)
(-0.00079157772 -4.6800512e-07 -3.9595918e-24)
(-0.00076511845 -4.5777384e-07 3.4691454e-24)
(-0.00073986161 -4.7175733e-07 -5.9454441e-24)
(-0.00071553623 -4.679723e-07 5.555267e-25)
(-0.00069251733 -5.0614061e-07 2.0604466e-24)
(-0.00067049158 -6.0431923e-07 2.3142177e-24)
(-0.00065044357 -6.2494994e-07 -8.8303954e-24)
(-0.00063143814 -6.2495124e-07 5.1531816e-17)
(-0.00061496417 -6.0851104e-07 5.1852091e-17)
(-0.00059954369 -6.2459805e-07 -2.6349432e-24)
(-0.00058789719 -6.5331518e-07 -3.9237023e-24)
(-0.00057701355 -6.3172359e-07 3.4247796e-24)
(-0.0005726875 -4.5638142e-07 6.2358003e-25)
(-0.00056587798 -6.5963958e-07 -1.1330671e-24)
(-0.00056912748 -5.1149377e-07 -5.3238722e-17)
(-0.00056758577 -5.3802406e-07 -5.3558129e-17)
(-0.00056717799 -6.7638527e-06 -9.5846994e-21)
(-0.000567361 -2.9260814e-05 9.9397851e-20)
(-0.00057640426 -5.264376e-05 4.5095706e-20)
(-0.00057973647 -7.6323639e-05 -2.9286181e-19)
(-0.00058343899 -9.8958152e-05 -4.8811431e-20)
(-0.00057421021 -0.00012060823 -3.2832116e-19)
(-0.00057652793 -0.00014234844 2.1997364e-20)
(-0.00054700238 -0.00015258611 -3.3465988e-22)
(-0.00058239162 -0.00016649521 0)
(-0.00057166912 -0.00021309497 -9.7902896e-20)
(-0.00046750812 -0.00019053645 3.2147338e-19)
(-0.00047210842 -0.00023722941 -2.215897e-19)
(-0.00089669229 -0.00038476496 -6.1565747e-20)
(-0.00058147641 -0.00029043251 -1.1378787e-19)
(-0.0010686735 -0.00058497768 2.3012878e-19)
(-0.00067614919 -0.00029107948 1.7562326e-20)
(0.0013185472 0.00070246502 0)
(0.0025685917 0.0016047174 -5.9223546e-19)
(-0.00053391302 -0.0003903264 0)
(-0.0031438469 -0.0017475182 5.1724209e-20)
(-0.002526693 -0.0018134726 -1.5662542e-19)
(-0.0042965892 -0.0030119298 -4.3812182e-20)
(0.0049065225 0.0038106977 -2.4688754e-20)
(0.0060363482 0.0045872671 -9.6791388e-19)
(0.0045382802 0.0044105779 5.4345422e-21)
(-0.001744398 -0.0016270355 1.4738582e-20)
(0.0017665894 0.0027670355 4.295986e-19)
(-0.0022480597 -0.0015656505 0)
(0.0024713762 0.0019052311 -7.0937338e-20)
(0.00044326325 0.00029126493 0)
(-0.001078172 -0.00084013407 4.9189421e-22)
(0.0018570139 0.0013319397 0)
(0.0034091861 0.0026699925 -2.9919627e-19)
(0.0027245696 0.0022793549 8.1368102e-20)
(0.0020200152 0.0013948896 1.1297782e-20)
(0.0014330198 0.00075102712 7.7213919e-20)
(0.0001500753 0.00084379636 0)
(0.0013311499 -0.0011992982 0)
(0.00012975863 0.00034778364 0)
(0.01416104 -0.0072529115 0)
(0.0063556811 0.00066265339 3.9238824e-19)
(0.0027226268 0.0044578369 2.0102033e-20)
(0.0026322419 0.012181751 0)
(0.007357113 0.014874313 -9.854861e-20)
(0.03296222 -0.034393066 0)
(0.0073971815 -0.00072015833 1.3175431e-19)
(0.01221192 -0.00027315472 1.9444878e-20)
(0.0010347896 0.0055263287 -7.2885703e-21)
(0.0075816528 0.017145486 0)
(0.0040729024 0.013485388 2.6646583e-18)
(0.00052740316 0.00059441046 0)
(0.0092587215 0.0077654971 1.1465677e-20)
(0.014968467 0.0082175902 -8.465854e-20)
(0.015400887 0.0073295007 -9.9683376e-20)
(0.017101029 0.0063497575 -3.9896393e-20)
(0.016464047 0.0042729237 6.6327503e-20)
(0.01379618 0.002460703 -9.2756884e-20)
(0.011748658 0.0013758523 -2.7685443e-20)
(0.0094274953 0.0006569506 0)
(0.0078135098 0.00024370163 -2.0258508e-22)
(0.0060815178 4.3011286e-05 0)
(0.0057497673 -3.0952427e-05 -7.4387081e-21)
(0.0044067536 -1.6675591e-05 -3.4973769e-22)
(0.016606657 6.1572836e-05 8.3071628e-22)
(0.017658254 7.2243217e-05 1.4809472e-24)
(0.019651625 -0.0001287224 -7.5247611e-24)
(0.018987686 -0.00056412803 5.0902456e-22)
(0.017365208 -0.0011570957 7.4145605e-25)
(0.012386987 -0.0014227105 3.661008e-20)
(0.0062530627 -0.0010850206 -1.3629218e-20)
(-0.00051830535 0.00015519271 2.465651e-20)
(-0.0052549711 0.0017694291 1.3972138e-20)
(-0.006552801 0.002789854 -7.7785922e-21)
(-0.0055726851 0.0028287503 -2.7801342e-22)
(-0.0041479325 0.0023778024 -4.4229065e-24)
(-0.0037838751 0.0020986451 4.1527047e-21)
(-0.0035460633 0.002438662 1.5290391e-21)
(-0.0035573391 0.0028201134 -4.1559258e-21)
(-0.0032957613 0.002554555 -7.0092486e-22)
(-0.0028065854 0.0022412589 3.9016221e-21)
(-0.0023848479 0.0019574209 2.4880263e-21)
(-0.0020496665 0.0017233426 1.1483877e-20)
(-0.001754021 0.0014945599 -4.7368878e-21)
(-0.001527898 0.0013102762 5.0317164e-21)
(-0.0013798934 0.0011745864 -9.7479507e-21)
(-0.0012796731 0.0010906095 -1.3550435e-20)
(-0.0012346539 0.00103746 -3.4912074e-20)
(-0.0011981396 0.00099980306 9.9251501e-21)
(-0.0011944068 0.00098363331 1.4510501e-20)
(-0.001214069 0.0009906391 2.0098064e-20)
(-0.0012546428 0.0010149882 -9.3599683e-21)
(-0.0013034764 0.0010453652 -3.4880918e-21)
(-0.0013672001 0.001087637 -1.4781945e-20)
(-0.0014491187 0.0011440517 1.8858305e-20)
(-0.0015454109 0.0012124977 9.0415277e-21)
(-0.0016572253 0.0012929847 1.2566954e-21)
(-0.0017776194 0.0013810323 1.8822591e-21)
(-0.0019111116 0.0014799228 3.890443e-23)
(-0.002048867 0.0015828976 -3.5826767e-21)
(-0.0021802203 0.0016796722 -2.3089156e-21)
(-0.0022987132 0.0017595864 -1.0777293e-22)
(-0.0024215407 0.0018300935 -1.1765716e-21)
(-0.0025141628 0.0018846321 -3.0190663e-23)
(-0.0026208343 0.0019323286 4.0411459e-24)
(-0.0027124685 0.0019588921 -5.8616901e-22)
(-0.0028273916 0.0019974023 -2.5790973e-22)
(-0.0029241707 0.0020113376 -2.9288578e-22)
(-0.0029975661 0.0019954118 8.1982508e-22)
(-0.0030506735 0.0019545419 -5.3103309e-21)
(-0.0030872772 0.0018915404 1.8822347e-21)
(-0.0031070722 0.0018076651 -1.5311996e-21)
(-0.0031296757 0.0017158 -1.650367e-22)
(-0.0031479013 0.0016163371 -1.4799689e-21)
(-0.0031523908 0.001506338 1.0507705e-21)
(-0.003148611 0.0013858578 -9.2062394e-22)
(-0.0031303631 0.00126833 -3.8913191e-22)
(-0.0030822584 0.0011341561 1.2225963e-21)
(-0.0030316258 0.0010007042 -3.2005268e-22)
(-0.0029475294 0.00085893797 2.9913636e-21)
(-0.0028471322 0.00071853395 -2.5447021e-21)
(-0.0027303672 0.00058181068 1.6446545e-21)
(-0.0026355425 0.00045587406 -2.7721969e-22)
(-0.0025021473 0.00033223054 7.6460547e-24)
(-0.0024866079 0.00022978465 -6.3040434e-23)
(-0.0024527971 0.00012798166 -1.0789161e-21)
(-0.0028839359 4.0262018e-05 1.8336543e-22)
(-0.0037514388 7.1753016e-06 -3.7280232e-25)
(-0.0043641955 6.1517623e-06 -4.6927849e-27)
(-0.0049275762 5.2568821e-06 -1.0953913e-25)
(-0.0054235199 5.4599728e-06 3.6430454e-25)
(-0.0058809518 4.0230876e-06 -2.2233717e-25)
(-0.006280929 4.7458335e-06 5.4407766e-27)
(-0.006635687 3.4060194e-06 7.0225302e-26)
(-0.0069607009 3.0991131e-06 6.0559242e-26)
(-0.0072514935 2.8018959e-06 -2.381925e-25)
(-0.0075176585 2.5490689e-06 8.99003e-26)
(-0.0077594495 2.3449002e-06 4.1235846e-26)
(-0.0079823356 2.1558136e-06 2.255271e-26)
(-0.0081871935 1.9769299e-06 -2.1134904e-25)
(-0.008375867 1.8251836e-06 1.1124838e-25)
(-0.0085509967 1.7065137e-06 -2.7734872e-26)
(-0.0087143129 1.5901429e-06 8.4540555e-27)
(-0.0088666373 1.4680569e-06 5.2128518e-26)
(-0.0090083351 1.3673835e-06 1.0441842e-26)
(-0.009140859 1.2875096e-06 -1.6278369e-26)
(-0.0092653862 1.2117925e-06 -4.4900143e-26)
(-0.0093821096 1.1286178e-06 -7.5290525e-26)
(-0.0094918164 1.0554043e-06 -1.0734727e-25)
(-0.0095943894 1.001206e-06 -1.4099086e-25)
(-0.0096909239 9.4386067e-07 3.2422516e-25)
(-0.0097815123 8.8169687e-07 7.0239457e-26)
(-0.0098663642 8.2786947e-07 5.7525496e-25)
(-0.0099457988 7.8718862e-07 -9.1575457e-25)
(-0.010019862 7.3961459e-07 6.6954746e-25)
(-0.010088746 6.8712179e-07 -1.7864862e-25)
(-0.010152837 6.3980115e-07 -6.960165e-25)
(-0.01021224 5.8023669e-07 -2.979977e-25)
(-0.01026678 5.2792796e-07 2.8874941e-25)
(-0.010316553 4.7323597e-07 1.8321225e-25)
(-0.010361688 4.2578855e-07 5.5026846e-25)
(-0.010402157 3.8360984e-07 4.4757127e-25)
(-0.010438065 3.4236953e-07 -1.3331325e-24)
(-0.010469597 3.0303891e-07 4.4749277e-25)
(-0.010496306 2.6264413e-07 2.893374e-25)
(-0.010518794 2.2620041e-07 7.7746257e-25)
(-0.010536706 1.9463317e-07 -1.6785755e-24)
(-0.010550378 1.5505196e-07 8.1449391e-25)
(-0.010559687 1.0848217e-07 3.7086838e-25)
(-0.010564469 5.8333058e-08 6.8476301e-25)
(-0.010564997 1.5804217e-08 -1.7552161e-24)
(-0.01056083 -2.790275e-08 3.9378367e-25)
(-0.010552293 -7.0114667e-08 1.1340008e-25)
(-0.010539137 -1.1361996e-07 1.4484329e-24)
(-0.010521667 -1.5629264e-07 -1.2381447e-24)
(-0.010499698 -2.0097084e-07 5.0260579e-25)
(-0.010473307 -2.4279061e-07 -4.251348e-27)
(-0.01044245 -2.8050767e-07 -1.6079083e-24)
(-0.010407071 -3.2091193e-07 3.0627403e-25)
(-0.01036759 -3.6178376e-07 3.5979941e-25)
(-0.010323185 -4.0083874e-07 2.262795e-25)
(-0.010275096 -4.3052768e-07 6.1518247e-25)
(-0.010223076 -4.6187216e-07 5.7622411e-26)
(-0.0101672 -5.1511522e-07 -3.4176086e-25)
(-0.010107219 -5.5826744e-07 1.9906458e-25)
(-0.010043103 -5.9511141e-07 -2.8784972e-25)
(-0.0099755243 -6.3323861e-07 1.2399093e-25)
(-0.0099040895 -6.7657008e-07 -1.9271535e-25)
(-0.0098290147 -7.1632716e-07 4.3204024e-25)
(-0.0097502273 -7.5256654e-07 -8.0510949e-25)
(-0.0096682535 -7.8820184e-07 -1.779301e-25)
(-0.0095828836 -8.2654528e-07 3.182374e-25)
(-0.0094942754 -8.6268204e-07 6.0924555e-25)
(-0.0094024356 -8.9471008e-07 -8.0539575e-26)
(-0.0093076799 -9.2621673e-07 -1.782746e-25)
(-0.0092100644 -9.5626581e-07 -3.3628377e-25)
(-0.0091096205 -9.8453056e-07 3.1052047e-25)
(-0.0090066004 -1.0098242e-06 -7.5659508e-26)
(-0.0089012126 -1.0331058e-06 -6.1049938e-27)
(-0.0087935051 -1.0569572e-06 -3.8835845e-26)
(-0.0086835368 -1.079261e-06 5.1651435e-27)
(-0.0085714322 -1.1000832e-06 1.8530326e-25)
(-0.0084574259 -1.1191977e-06 -3.3723493e-25)
(-0.0083416031 -1.1372372e-06 -5.6161668e-26)
(-0.0082240349 -1.1547832e-06 -2.3348634e-25)
(-0.0081049299 -1.1718615e-06 6.8701352e-25)
(-0.0079842815 -1.1879394e-06 5.8309442e-25)
(-0.0078625449 -1.2011273e-06 -1.0571172e-25)
(-0.0077392588 -1.2181019e-06 -1.466155e-24)
(-0.0076150563 -1.23361e-06 -8.7625861e-25)
(-0.0074902859 -1.2352477e-06 1.282594e-24)
(-0.007364592 -1.2420562e-06 1.9916491e-24)
(-0.0072389858 -1.2496535e-06 -3.3726068e-24)
(-0.0071114169 -1.2590795e-06 8.324206e-25)
(-0.0069840157 -1.2578071e-06 -7.7096034e-26)
(-0.0068565615 -1.2606342e-06 1.6761594e-24)
(-0.0067286884 -1.263276e-06 -1.2315982e-24)
(-0.0066006564 -1.268437e-06 6.0685725e-25)
(-0.0064721144 -1.2684887e-06 8.5458591e-25)
(-0.0063442481 -1.2672864e-06 1.8804887e-24)
(-0.0062162481 -1.2710887e-06 -4.7129255e-24)
(-0.006089116 -1.2581792e-06 1.892252e-24)
(-0.0059597146 -1.2909494e-06 -7.0796467e-26)
(-0.0058331308 -1.2866233e-06 -2.8937141e-24)
(-0.0056956906 -1.3490737e-06 -1.0687378e-25)
(-0.005561056 -1.6786425e-06 5.208309e-24)
(-0.0054224783 -1.6316682e-06 1.5765177e-24)
(-0.0053020191 -1.1892389e-06 -3.7196163e-24)
(-0.0051857932 -1.2069638e-06 4.6709824e-24)
(-0.0050651845 -1.1927246e-06 6.3406176e-25)
(-0.0049473481 -1.2103332e-06 -4.1659201e-24)
(-0.0048281493 -1.2020364e-06 7.3968809e-24)
(-0.0047082252 -1.1965041e-06 -5.4583452e-24)
(-0.0045911235 -1.1921115e-06 7.2552578e-25)
(-0.0044731474 -1.1777209e-06 1.0148823e-24)
(-0.0043575338 -1.1728048e-06 -5.2052404e-24)
(-0.0042412166 -1.1434249e-06 5.8070871e-24)
(-0.0041285257 -1.1262034e-06 1.1412191e-24)
(-0.0040152713 -1.1031784e-06 -2.9660508e-24)
(-0.0039043013 -1.0814271e-06 -3.0155457e-24)
(-0.003794183 -1.0628038e-06 -5.8404983e-24)
(-0.0036856817 -1.0568285e-06 1.0624936e-23)
(-0.0035782427 -1.033388e-06 7.4111898e-24)
(-0.0034731577 -1.0042602e-06 -1.6059154e-23)
(-0.0033683447 -9.8474533e-07 1.6012632e-23)
(-0.0032666927 -9.7673986e-07 -4.7709376e-24)
(-0.0031653699 -9.5776777e-07 -7.4388583e-24)
(-0.0030662335 -9.3761757e-07 -6.1415279e-24)
(-0.0029690131 -9.2372643e-07 -2.4730145e-25)
(-0.002874282 -9.2245564e-07 1.3907887e-23)
(-0.0027807353 -9.1760947e-07 -1.0309818e-23)
(-0.0026902971 -9.1563804e-07 6.4891215e-24)
(-0.0026004786 -9.3909347e-07 -1.0369294e-23)
(-0.0025127069 -9.6271624e-07 1.1544551e-23)
(-0.002427973 -9.4658172e-07 -6.38416e-24)
(-0.0023474891 -9.1079407e-07 3.810545e-24)
(-0.0022681225 -8.6251775e-07 1.2815269e-24)
(-0.0021923636 -8.5232462e-07 -6.5011303e-24)
(-0.0021194392 -8.0014774e-07 6.7635658e-24)
(-0.0020503691 -8.1269977e-07 -9.4424047e-26)
(-0.0019844617 -9.1556e-07 2.6322916e-24)
(-0.0019245505 -9.2955621e-07 -1.2306869e-23)
(-0.0018677534 -9.1539063e-07 8.3207175e-24)
(-0.0018183235 -8.4435785e-07 2.6653248e-24)
(-0.0017724929 -7.7886363e-07 -1.2496324e-23)
(-0.0017377536 -7.9218807e-07 1.2313296e-23)
(-0.0017055897 -6.758595e-07 8.5353867e-24)
(-0.0016928382 -7.0704284e-07 -1.2633844e-23)
(-0.0016729069 -5.0293884e-07 9.9599124e-24)
(-0.0016826734 -2.964068e-07 -1.413144e-23)
(-0.0016788884 -1.5802554e-07 -1.5010253e-23)
(-0.0016781016 -1.9704603e-05 2.1281422e-20)
(-0.0016798214 -8.6446002e-05 9.2587963e-21)
(-0.0017058681 -0.000156775 4.4785152e-21)
(-0.0017168648 -0.00022898034 2.978765e-19)
(-0.0017264587 -0.00030073704 1.4914969e-19)
(-0.0016958074 -0.00036298923 6.9061311e-19)
(-0.0017005553 -0.00043029889 6.1319035e-19)
(-0.0016152618 -0.0004551058 -1.6556608e-20)
(-0.0017332997 -0.00048610902 -2.8176171e-20)
(-0.001694302 -0.00062776543 4.4981108e-20)
(-0.0013908655 -0.00056645627 -1.4708245e-19)
(-0.0014230647 -0.00067180522 1.1961634e-19)
(-0.0025462059 -0.0014467744 -1.135268e-19)
(-0.0016901536 -0.00087114191 -6.1281002e-20)
(-0.0031902482 -0.0017124284 -2.4001095e-19)
(-0.0019074754 -0.00090008018 2.1369017e-19)
(0.0039772682 0.0022687405 6.2115359e-20)
(0.0076067165 0.0048896699 2.5530769e-20)
(-0.0019659661 -0.001230167 -1.6547357e-21)
(-0.008868072 -0.0058992326 -3.6741808e-19)
(-0.0076650768 -0.0055689908 1.7539606e-19)
(-0.012577407 -0.0093484701 -1.2343615e-18)
(0.015348657 0.011385997 6.8147614e-20)
(0.018467312 0.013758423 -1.7844354e-19)
(0.014673211 0.012394006 1.0737859e-19)
(-0.005164524 -0.0049264283 -1.3468577e-19)
(0.0072679514 0.0058564283 -1.3848494e-19)
(-0.0066654311 -0.0046780564 -1.4513108e-20)
(0.0076481386 0.0058369745 1.7949764e-19)
(0.0012508941 0.00093708825 -2.1376302e-20)
(-0.003220831 -0.0025244897 -2.7092747e-21)
(0.0055543326 0.0042155563 -2.0216554e-19)
(0.010181796 0.0080336836 9.6096766e-21)
(0.0081814945 0.0068640984 2.2731648e-19)
(0.0058333625 0.0044687376 -1.4561967e-19)
(0.0038622407 0.0025355132 1.2392668e-19)
(0.00085968269 0.0023639718 5.6672811e-22)
(0.0007229585 0.00055927962 -1.1251469e-20)
(-7.4833455e-06 0.001264934 -2.840237e-22)
(0.013373877 0.0098150962 2.7230881e-19)
(0.012233486 0.0050518752 -5.9796067e-19)
(0.011592957 0.0082225294 2.4793041e-19)
(0.024033658 0.018616355 -4.5163894e-19)
(0.026191753 0.035358641 1.4952227e-20)
(0.039130963 -0.034749454 -1.8609494e-18)
(0.0095904679 0.0054170921 -8.8760106e-19)
(0.026638911 0.02015046 0)
(0.0032885533 0.012520728 1.9064765e-21)
(0.021816369 0.047846963 -3.896428e-19)
(0.032581419 0.026556802 -8.5467245e-19)
(0.0078095637 0.0030554848 2.5923748e-21)
(0.032634723 0.019628927 -4.1902267e-20)
(0.0464277 0.022757984 1.8902369e-20)
(0.046857867 0.021642991 1.1056437e-19)
(0.05180054 0.017705578 -1.0635333e-19)
(0.049963566 0.012574823 1.2713502e-19)
(0.0417701 0.0075833842 -6.6327003e-20)
(0.035753816 0.0042383733 -9.2183946e-20)
(0.028847328 0.0020422602 -9.432446e-22)
(0.023969287 0.00077275501 5.9236498e-23)
(0.01884516 0.00014607523 3.429399e-23)
(0.017793962 -8.2021629e-05 3.5425341e-21)
(0.013743842 -4.7927797e-05 1.1571438e-21)
(0.028505057 9.0554671e-05 7.658682e-22)
(0.030104976 0.00011660434 -5.8352448e-25)
(0.033353366 -0.00022293642 -7.3061313e-25)
(0.032264389 -0.0009534524 -2.8405746e-22)
(0.029558025 -0.0019413469 5.8869209e-23)
(0.021341644 -0.0024035489 -2.4049733e-20)
(0.011104306 -0.0018680684 1.3323021e-20)
(-0.0002749412 0.00017717461 -5.16915e-20)
(-0.0084126947 0.0028741025 1.9051638e-20)
(-0.010820804 0.0046103643 2.9023288e-22)
(-0.0093041499 0.0047169539 4.449979e-22)
(-0.0069759854 0.0040098621 4.9632961e-23)
(-0.0061160606 0.0039998568 -3.2454694e-21)
(-0.0059744646 0.0041385756 4.309099e-21)
(-0.0060999913 0.0045633684 2.8440649e-21)
(-0.0055243886 0.004276763 1.7981768e-22)
(-0.0047196981 0.0037506185 -1.4648329e-21)
(-0.0039870281 0.0032972056 -5.6950174e-21)
(-0.0034385691 0.0028906778 -2.4255266e-20)
(-0.0029457896 0.0025093675 1.9132161e-20)
(-0.0025723577 0.0022018443 1.3489541e-20)
(-0.0023195208 0.0019906749 5.4037505e-21)
(-0.002160382 0.0018452795 -1.5452512e-20)
(-0.0020877392 0.0017556168 3.7953901e-20)
(-0.0020300683 0.0016933391 -1.0677704e-21)
(-0.0020243507 0.0016687847 1.703146e-20)
(-0.002058772 0.0016816094 -1.4990877e-20)
(-0.0021290232 0.001722064 -8.7574329e-21)
(-0.0022120906 0.0017737709 -3.76468e-22)
(-0.0023196412 0.0018454799 -6.9362233e-21)
(-0.0024570403 0.0019414056 2.1250215e-21)
(-0.0026191645 0.0020565961 1.494597e-21)
(-0.0028069636 0.0021922619 4.3950882e-21)
(-0.003009473 0.002340335 -1.361427e-22)
(-0.0032337141 0.0025063366 5.5452268e-21)
(-0.0034653471 0.0026789204 3.1700207e-21)
(-0.0036848465 0.0028409213 5.0553998e-22)
(-0.0038852922 0.0029760551 -1.4852994e-22)
(-0.0040873165 0.0030984012 -1.3695963e-22)
(-0.0042452056 0.0031843259 1.3713085e-22)
(-0.0044271228 0.0032643924 4.6842974e-23)
(-0.0045763538 0.0033097029 9.3322527e-22)
(-0.0047700385 0.0033722153 1.1643983e-21)
(-0.0049335749 0.0033944641 7.524476e-24)
(-0.0050563718 0.0033673509 -6.4767755e-21)
(-0.0051465563 0.0032981101 2.6344194e-21)
(-0.0052087889 0.0031925727 3.5873045e-21)
(-0.0052435969 0.0030512884 3.3204885e-21)
(-0.0052832133 0.0028967493 5.5195288e-22)
(-0.0053152238 0.0027288923 -1.4277824e-21)
(-0.0053235154 0.0025440398 5.3722182e-21)
(-0.0053184218 0.0023432912 3.3452763e-22)
(-0.0052910933 0.0021438649 6.6648762e-22)
(-0.0052135673 0.0019176594 5.7745083e-21)
(-0.0051313927 0.0016923714 -3.3174802e-21)
(-0.0049944363 0.0014540779 -3.4873051e-21)
(-0.0048300048 0.0012176545 9.0348375e-22)
(-0.0046391094 0.00098740773 -9.3921862e-22)
(-0.0044858259 0.00077484021 5.526147e-22)
(-0.0042711046 0.00056633611 3.7978934e-22)
(-0.0042532169 0.00039290742 -6.9183147e-23)
(-0.0042137007 0.00022193597 6.4901795e-23)
(-0.0049427805 7.6013693e-05 -2.5756681e-22)
(-0.0063856692 2.074754e-05 3.4437842e-25)
(-0.0074121297 1.7146639e-05 -6.4296076e-27)
(-0.0083547867 1.4972531e-05 -8.9372635e-26)
(-0.0091854246 1.4503231e-05 2.297421e-25)
(-0.0099481002 1.1995508e-05 -1.0212831e-25)
(-0.010617122 1.178626e-05 -9.0870165e-27)
(-0.011209451 9.6913706e-06 2.2033459e-25)
(-0.011752382 8.7119431e-06 -1.1285584e-25)
(-0.012238279 7.8937016e-06 -1.0283524e-25)
(-0.012682681 7.1882674e-06 -8.733977e-26)
(-0.01308662 6.5864605e-06 5.626126e-26)
(-0.013458824 6.0527246e-06 1.4978259e-26)
(-0.01380102 5.5703132e-06 2.1956198e-26)
(-0.014116105 5.1435883e-06 -5.4355602e-26)
(-0.014408648 4.7883926e-06 -8.0679315e-27)
(-0.014681445 4.4595944e-06 -5.3491771e-27)
(-0.01493587 4.1482986e-06 -3.0482208e-26)
(-0.01517251 3.8641818e-06 2.5795281e-26)
(-0.015393902 3.6227182e-06 1.8199532e-25)
(-0.015601871 3.4020021e-06 -1.2696639e-25)
(-0.015796692 3.1923828e-06 -6.8475425e-26)
(-0.015979835 2.9826948e-06 3.6355064e-25)
(-0.016151087 2.8070283e-06 -2.7419474e-25)
(-0.016312154 2.6355609e-06 1.8978606e-25)
(-0.016463223 2.4748993e-06 -1.2791707e-25)
(-0.016604672 2.3172553e-06 -7.0431374e-26)
(-0.016737042 2.1728301e-06 2.620074e-25)
(-0.016860379 2.027575e-06 3.1583599e-25)
(-0.016974989 1.8852295e-06 -1.1647881e-24)
(-0.017081519 1.7471469e-06 9.0061259e-25)
(-0.017180181 1.6068933e-06 -2.5150575e-25)
(-0.017270634 1.4637079e-06 -8.5812737e-25)
(-0.017353055 1.3313577e-06 3.6878091e-25)
(-0.017427646 1.1937665e-06 1.2528388e-24)
(-0.017494381 1.0688155e-06 -2.3140791e-25)
(-0.017553438 9.3976661e-07 -3.5863691e-25)
(-0.017605056 8.1546748e-07 -3.111018e-25)
(-0.017648589 6.8564079e-07 -3.4975226e-25)
(-0.017685007 5.6225407e-07 7.2418116e-25)
(-0.017713717 4.4432798e-07 -3.6924314e-25)
(-0.017735247 3.1661578e-07 -5.2932425e-25)
(-0.017749444 1.8273549e-07 8.4101691e-25)
(-0.017756035 4.9959283e-08 -4.3631201e-25)
(-0.01775545 -6.8639758e-08 -4.7868271e-25)
(-0.01774695 -1.8754472e-07 4.7106051e-25)
(-0.017731072 -3.1341745e-07 8.1589859e-25)
(-0.017707489 -4.3748407e-07 1.0419316e-25)
(-0.017676605 -5.6083524e-07 -6.9143023e-25)
(-0.017638152 -6.8264049e-07 -5.7923009e-25)
(-0.017592286 -8.0997648e-07 1.9057964e-24)
(-0.017538911 -9.2976654e-07 -3.0180323e-24)
(-0.017477993 -1.0546963e-06 2.5653169e-24)
(-0.017410072 -1.1731206e-06 -2.1945277e-24)
(-0.017333918 -1.2933208e-06 8.6621541e-25)
(-0.01725169 -1.4057565e-06 4.1052378e-25)
(-0.017162857 -1.4968032e-06 1.0575466e-25)
(-0.017067435 -1.6191786e-06 -7.6578798e-25)
(-0.016965252 -1.7383068e-06 4.7441573e-25)
(-0.016856212 -1.8455581e-06 -4.5165023e-25)
(-0.016741268 -1.9436325e-06 7.2221779e-25)
(-0.016619879 -2.0514726e-06 3.2100196e-25)
(-0.016492427 -2.1588546e-06 -8.2125919e-25)
(-0.016358825 -2.2549687e-06 -5.0263015e-26)
(-0.016219823 -2.3473686e-06 1.0043268e-25)
(-0.016075167 -2.4415986e-06 -5.0628397e-26)