/*--------------------------------*- C++ -*----------------------------------*\
| =========                 |                                                 |
| \\      /  F ield         | OpenFOAM: The Open Source CFD Toolbox           |
|  \\    /   O peration     | Version:  2.4.0                                 |
|   \\  /    A nd           | Web:      www.OpenFOAM.org                      |
|    \\/     M anipulation  |                                                 |
\*---------------------------------------------------------------------------*/
FoamFile
{
    version     2.0;
    format      ascii;
    class       volVectorField;
    location    "800";
    object      UMean;
}
// * * * * * * * * * * * * * * * * * * * * * * * * * * * * * * * * * * * * * //

dimensions      [0 1 -1 0 0 0 0];

internalField   nonuniform List<vector> 
78300
(
(0.0054335743 2.3767146e-05 1.1892415e-21)
(0.0055637629 2.5307927e-05 -3.3198079e-22)
(0.0063742463 -4.044706e-05 4.5486158e-22)
(0.0061008775 -0.00018848283 -2.4276818e-20)
(0.0055375188 -0.00037308502 -5.8804788e-21)
(0.0037473416 -0.00044080165 1.6592261e-20)
(0.0017359355 -0.00031418549 9.1461134e-21)
(-0.00046233415 0.00010636522 -3.5921805e-20)
(-0.0018839964 0.00061691291 -1.4062732e-20)
(-0.0022216869 0.00092951784 1.6914948e-20)
(-0.0019809259 0.00098855461 9.8526546e-21)
(-0.0016194932 0.00092349427 -2.2451127e-20)
(-0.0012470609 0.00078772239 2.5199436e-21)
(-0.0010183161 0.0007043342 -1.0587403e-20)
(-0.00089680848 0.00065565687 7.3873215e-21)
(-0.00081592096 0.00062563109 -1.313786e-20)
(-0.00074417654 0.00059228444 -4.0397097e-21)
(-0.00070054458 0.00057473585 2.2524887e-21)
(-0.0006649598 0.00055566804 -7.9715984e-21)
(-0.00062766963 0.00053212412 6.2473392e-21)
(-0.00059221643 0.0005069231 7.7778145e-21)
(-0.00055919222 0.00047803702 -6.9475824e-21)
(-0.00052942275 0.00045071425 -2.492058e-21)
(-0.00050901187 0.00042842174 1.1833464e-21)
(-0.00049517256 0.00041197378 2.7297186e-21)
(-0.00048674159 0.00040033536 6.2210397e-22)
(-0.00048328974 0.0003934496 8.0252888e-22)
(-0.00048444328 0.00039129036 -2.533962e-21)
(-0.00049155404 0.00039353309 -2.1625636e-21)
(-0.0005031974 0.0003996931 -1.4074762e-21)
(-0.00052047103 0.00041043104 1.4262383e-21)
(-0.00054308946 0.00042569315 2.9240506e-21)
(-0.0005711941 0.00044529607 1.105418e-21)
(-0.00060421455 0.00046890368 1.4664239e-21)
(-0.00064154586 0.00049610972 -1.5312497e-21)
(-0.0006810398 0.00052526195 9.9002631e-22)
(-0.00071905181 0.00055278824 -1.5633706e-21)
(-0.00075516243 0.00057709107 -4.7202836e-23)
(-0.00078933045 0.00059756155 -2.04924e-21)
(-0.00081733122 0.00061049825 3.14442e-22)
(-0.00084646521 0.00062284851 -1.7558774e-24)
(-0.00088112536 0.00063572469 -2.749827e-22)
(-0.00091311156 0.00064381268 -7.5022816e-22)
(-0.000941389 0.00064568354 -1.3478032e-21)
(-0.00096383478 0.0006400823 2.9634364e-21)
(-0.00098021918 0.00062661681 4.0254433e-21)
(-0.00099109273 0.00060621496 -1.6503025e-21)
(-0.000995981 0.00057832175 -4.9539537e-21)
(-0.0010010509 0.00054765332 5.2458854e-21)
(-0.0010048178 0.00051505775 -4.3768619e-21)
(-0.0010052691 0.00047992019 -9.7762649e-21)
(-0.0010023894 0.00044235455 1.2659525e-21)
(-0.00099410505 0.00040255404 -1.8372308e-21)
(-0.00097690588 0.00035950588 -6.7804585e-21)
(-0.00095607671 0.00031589689 -2.3333229e-21)
(-0.00092465419 0.00027018591 1.6039181e-21)
(-0.00089151288 0.00022580748 1.4392185e-21)
(-0.00084625305 0.00018111949 1.6278931e-21)
(-0.0008111682 0.00014113873 4.1772054e-23)
(-0.00076204469 0.00010191753 8.345675e-22)
(-0.00075726499 7.0318556e-05 -2.2293454e-22)
(-0.00073915826 3.8107126e-05 -1.811765e-22)
(-0.00088321036 1.0387043e-05 -2.6806474e-22)
(-0.0011768485 7.6881349e-08 4.5986706e-26)
(-0.0013807775 2.2072667e-07 -7.2859243e-26)
(-0.0015755648 1.8675844e-07 -2.4422471e-25)
(-0.0017429997 3.0999971e-07 2.8362016e-25)
(-0.0018992679 3.2379754e-07 -2.4638979e-25)
(-0.0020373929 4.4448346e-07 1.3078782e-25)
(-0.0021652516 3.3909266e-07 -1.6621893e-25)
(-0.0022785864 3.6763833e-07 8.6457483e-26)
(-0.0023841318 3.1440559e-07 1.7562259e-25)
(-0.0024791938 3.1909208e-07 -2.001802e-25)
(-0.0025679545 3.1426611e-07 -8.2574416e-19)
(-0.0026495573 3.2818204e-07 -4.9226519e-19)
(-0.0027258864 3.2263244e-07 2.0678766e-25)
(-0.0027966053 3.2652343e-07 -9.3192672e-26)
(-0.0028629145 3.3322965e-07 -2.2310323e-26)
(-0.0029249408 3.4251159e-07 -8.7019842e-26)
(-0.002983213 3.4065564e-07 5.614752e-26)
(-0.0030377802 3.4298637e-07 -8.5810797e-26)
(-0.0030890596 3.4546687e-07 2.7440538e-25)
(-0.0031372414 3.5051812e-07 -1.641357e-25)
(-0.0031824725 3.4888937e-07 -3.737827e-25)
(-0.0032248368 3.4749206e-07 3.965799e-25)
(-0.0032645123 3.4803701e-07 -5.6359089e-26)
(-0.0033015982 3.4633187e-07 4.6950146e-25)
(-0.0033361283 3.4217612e-07 -6.3018428e-25)
(-0.003368188 3.376566e-07 -4.9014348e-25)
(-0.0033978515 3.3545243e-07 7.5960624e-25)
(-0.0034251594 3.2964701e-07 -6.3658431e-25)
(-0.0034501576 3.2365769e-07 5.0337224e-25)
(-0.0034729098 3.1980686e-07 -2.8913394e-25)
(-0.0034934496 3.1227326e-07 -5.9991334e-26)
(-0.0035118129 3.0570845e-07 2.179996e-26)
(-0.0035280602 2.9711164e-07 4.2235785e-25)
(-0.0035422361 2.9023956e-07 -3.6091098e-26)
(-0.0035543845 2.8302949e-07 6.2577896e-25)
(-0.0035645226 2.7603105e-07 -3.3124278e-27)
(-0.0035727046 2.6928e-07 -1.2344146e-24)
(-0.003578951 2.6245371e-07 5.8584356e-25)
(-0.0035832802 2.5493748e-07 -5.636713e-26)
(-0.0035857171 2.4705273e-07 8.3404236e-25)
(-0.0035863363 2.3933339e-07 -2.1345292e-26)
(-0.0035851469 2.3303141e-07 -1.6383757e-24)
(-0.0035821636 2.233373e-07 -1.1235556e-25)
(-0.0035774443 2.1606263e-07 5.6899691e-26)
(-0.0035710461 2.0613231e-07 8.3729892e-25)
(-0.0035630032 1.9857049e-07 -8.3622234e-26)
(-0.0035533344 1.8919181e-07 -1.0561739e-24)
(-0.0035420746 1.8203849e-07 1.9548092e-24)
(-0.0035293045 1.7195857e-07 -2.2311868e-24)
(-0.0035150494 1.6388603e-07 2.102164e-24)
(-0.0034993428 1.5366241e-07 -4.0443944e-25)
(-0.0034822285 1.4527134e-07 2.4691473e-25)
(-0.0034637375 1.3489856e-07 -1.0465624e-24)
(-0.0034439335 1.2470249e-07 5.9385601e-25)
(-0.0034227294 1.1440726e-07 1.6038157e-25)
(-0.0034002179 1.0568071e-07 -1.1543949e-25)
(-0.0033766524 9.4648712e-08 -1.1304065e-25)
(-0.003352012 8.5786217e-08 2.3962516e-17)
(-0.0033261536 7.4741564e-08 2.4684816e-17)
(-0.0032991632 6.5584921e-08 1.4473321e-24)
(-0.0032712149 5.5127377e-08 -1.1737624e-25)
(-0.0032423191 4.5340508e-08 -1.3533874e-25)
(-0.003212426 3.4134283e-08 -9.8301744e-26)
(-0.0031815944 2.457049e-08 -8.1519744e-27)
(-0.0031499375 1.4444207e-08 -3.3223511e-25)
(-0.0031175011 4.5270513e-09 -1.5234382e-25)
(-0.0030842706 -6.7055858e-09 5.301624e-25)
(-0.0030502842 -1.6811682e-08 2.8962927e-26)
(-0.0030156265 -2.7880057e-08 2.903294e-25)
(-0.0029803567 -3.8734954e-08 -4.8081082e-25)
(-0.0029444451 -5.081421e-08 6.7337036e-26)
(-0.002907938 -6.1108865e-08 1.5607903e-26)
(-0.0028709103 -7.180538e-08 3.0529675e-26)
(-0.0028334288 -8.1886043e-08 2.9698737e-27)
(-0.002795478 -9.3043891e-08 1.9594216e-25)
(-0.0027571007 -1.0263311e-07 -8.6680374e-26)
(-0.0027183672 -1.1270037e-07 -4.6842087e-25)
(-0.0026792968 -1.2196379e-07 9.0023422e-25)
(-0.0026399248 -1.3202014e-07 -1.304309e-24)
(-0.0026002504 -1.4091925e-07 2.1976373e-26)
(-0.0025603506 -1.5016475e-07 6.962693e-25)
(-0.0025202125 -1.5900533e-07 -1.9771837e-25)
(-0.0024797935 -1.6938404e-07 4.7352069e-25)
(-0.0024392067 -1.7562581e-07 -1.9954483e-25)
(-0.0023985352 -1.8238341e-07 -1.2745848e-26)
(-0.0023578161 -1.8976019e-07 -2.2648738e-25)
(-0.0023169965 -1.9851007e-07 -2.3285223e-25)
(-0.0022760866 -2.0555094e-07 -2.2103124e-25)
(-0.0022352306 -2.1188354e-07 8.3882855e-25)
(-0.0021943997 -2.1846711e-07 5.4642365e-25)
(-0.0021536412 -2.2686143e-07 8.9926043e-25)
(-0.0021128844 -2.3237837e-07 -3.5535875e-25)
(-0.002072375 -2.3768823e-07 -1.007952e-24)
(-0.0020319301 -2.4388117e-07 -2.4424695e-24)
(-0.0019917272 -2.5139513e-07 4.8201257e-17)
(-0.0019514159 -2.5785429e-07 2.3080971e-20)
(-0.0019111875 -2.687657e-07 -4.9265753e-17)
(-0.0018697435 -2.9287964e-07 -3.7270874e-24)
(-0.0018261039 -3.3213971e-07 5.3765508e-25)
(-0.0017805471 -3.8523834e-07 -6.4505926e-24)
(-0.0017421537 -2.9105802e-07 6.7218387e-24)
(-0.0017045415 -2.7434245e-07 6.2931301e-25)
(-0.0016684214 -2.7804293e-07 -6.1934473e-24)
(-0.001630818 -2.798741e-07 3.4353532e-24)
(-0.0015938147 -2.9101789e-07 -3.7749476e-24)
(-0.0015562085 -2.8784776e-07 5.5841252e-24)
(-0.0015192512 -2.9099399e-07 -1.4282134e-24)
(-0.0014821391 -2.9676817e-07 -2.8015898e-24)
(-0.0014455241 -2.9864091e-07 9.0033826e-25)
(-0.0014089884 -3.0272627e-07 3.6304766e-24)
(-0.0013729028 -3.0337057e-07 -4.2133015e-24)
(-0.0013370438 -3.0544731e-07 3.6821398e-24)
(-0.0013016913 -3.0486721e-07 -4.0307705e-24)
(-0.0012667773 -3.051128e-07 2.0675233e-24)
(-0.0012322882 -3.0691275e-07 2.366771e-24)
(-0.0011981424 -3.0874065e-07 3.8271226e-24)
(-0.0011644849 -3.0761249e-07 -4.3879961e-24)
(-0.0011312905 -3.0693232e-07 -3.0130619e-24)
(-0.0010986212 -3.072124e-07 3.8945082e-24)
(-0.0010663583 -3.0731826e-07 -8.2563474e-24)
(-0.0010346779 -3.0577054e-07 7.7159563e-24)
(-0.001003531 -3.042723e-07 -4.5718131e-24)
(-0.00097296329 -3.0474358e-07 3.9760806e-24)
(-0.0009428668 -3.0145978e-07 -4.6265453e-24)
(-0.00091349467 -3.0076519e-07 -3.1885638e-24)
(-0.00088458052 -3.00059e-07 2.5241586e-24)
(-0.00085641562 -3.0284205e-07 -3.2146478e-24)
(-0.00082878071 -2.9420557e-07 8.3100849e-24)
(-0.00080209605 -2.9170776e-07 -5.0662792e-24)
(-0.00077602784 -2.9085456e-07 4.4233347e-24)
(-0.00075113663 -2.8957237e-07 -7.5836778e-24)
(-0.0007268034 -2.8539604e-07 7.0685471e-25)
(-0.00070409813 -2.8299923e-07 2.6251307e-24)
(-0.00068191149 -2.8510908e-07 2.9430317e-24)
(-0.00066173518 -2.8786667e-07 -1.1119808e-23)
(-0.00064221836 -2.7285309e-07 6.5471838e-17)
(-0.00062566098 -2.602755e-07 6.6191376e-17)
(-0.00060950373 -2.5897532e-07 -3.3294098e-24)
(-0.00059760714 -2.4171614e-07 -4.9902264e-24)
(-0.00058565027 -2.3994249e-07 4.3049507e-24)
(-0.00057979169 -2.0405346e-07 7.8943708e-25)
(-0.00057315068 -2.2141808e-07 -1.4195969e-24)
(-0.00057442178 -1.6623475e-07 -6.6085482e-17)
(-0.00057126309 -2.1126865e-07 -6.6035837e-17)
(-0.00056880943 -6.5902438e-06 -1.1670415e-20)
(-0.00056821042 -2.9277554e-05 1.2144301e-19)
(-0.00057011136 -5.2591351e-05 5.5117016e-20)
(-0.00057428921 -7.62165e-05 -3.5257835e-19)
(-0.0005711459 -9.861749e-05 -5.9673623e-20)
(-0.00056541048 -0.00011999806 -3.9455354e-19)
(-0.00055549623 -0.00013935832 2.6182463e-20)
(-0.00053817832 -0.00015549212 -3.9288915e-21)
(-0.00052202476 -0.00017019675 1.3922442e-19)
(-0.00048844066 -0.0001780831 -1.059461e-19)
(-0.0004658847 -0.00018533787 3.3461043e-19)
(-0.00043194563 -0.00018705377 -2.1499354e-19)
(-0.00039023754 -0.00018772943 -5.6058172e-20)
(-0.00036235159 -0.00018592854 -9.7354074e-20)
(-0.00033974871 -0.00017498251 5.4107378e-19)
(-0.00026435771 -0.00013649533 1.1611145e-19)
(-0.00019919515 -0.00015689442 -4.3137767e-19)
(-8.5038038e-06 -1.3854878e-05 -4.6203433e-19)
(-0.000198673 -9.5163485e-05 -7.4617028e-20)
(-1.9710197e-05 1.7017348e-05 3.4893368e-20)
(-5.4309374e-05 1.0725222e-05 -4.8876639e-19)
(0.00021318257 0.00011997232 -3.2093356e-20)
(2.5794356e-05 0.00017721239 -9.0743461e-20)
(0.00048681275 0.00037360213 -5.4194466e-19)
(0.00079453391 0.00062444438 7.8624813e-20)
(0.00084831184 0.00054118665 4.2193114e-19)
(0.00095989318 0.00068320618 3.2131319e-19)
(0.00048141774 0.00042186544 -1.1371617e-19)
(0.0011004893 0.00080191954 -5.6674246e-20)
(0.0011074334 0.00074310112 -5.2770594e-20)
(0.0010164683 0.00080679044 1.0697149e-19)
(0.0013255696 0.0010687483 4.2534182e-19)
(0.0014557232 0.001143117 -4.5451646e-19)
(0.0012737431 0.001018061 1.4074203e-19)
(0.0016820926 0.0012213489 1.1737075e-20)
(0.0013507288 0.001403052 1.2127506e-19)
(0.0016769174 0.0014364931 5.137933e-20)
(0.0021450935 0.0020023083 -3.3770373e-20)
(0.0011149468 0.0014898799 1.6781031e-19)
(0.0018189553 0.0014219915 -1.7497911e-20)
(0.0024140414 0.0020507009 -1.8403887e-19)
(0.0028480808 0.0029034028 -9.9453015e-21)
(0.0035197156 0.0032033786 -2.5554174e-19)
(0.0036764646 0.0034460888 1.1441663e-19)
(0.0040756049 0.0034364357 9.2187278e-21)
(0.0037561919 0.0040032285 1.103528e-20)
(0.0053694532 0.0044683676 -1.8553537e-21)
(0.0063696811 0.0050908213 4.7180742e-20)
(0.0062349362 0.0046731337 2.4643879e-20)
(0.0085233674 0.0054389618 -2.8357112e-20)
(0.0095260856 0.0061057659 9.7833093e-20)
(0.011714672 0.0064752901 -3.7776371e-20)
(0.013707663 0.0068361378 -1.1816404e-19)
(0.016356259 0.0069251703 -1.8008234e-19)
(0.017235781 0.0057774751 -4.1768062e-20)
(0.016686123 0.0041780597 6.8996062e-20)
(0.014604422 0.0026193475 -8.6358957e-20)
(0.012299337 0.0014501528 -5.7899501e-20)
(0.0097786987 0.00067181792 -1.1912265e-20)
(0.0080245618 0.00025180373 -2.2267678e-20)
(0.0061201414 4.3866285e-05 -1.2238033e-20)
(0.0057796188 -3.0398743e-05 -6.0544295e-21)
(0.0043542351 -1.7411816e-05 -6.721636e-22)
(0.016643702 6.3853566e-05 1.244162e-21)
(0.017030497 6.9960396e-05 9.0879649e-22)
(0.019355359 -0.00012622075 -1.5983595e-21)
(0.018574791 -0.00056621465 2.7235382e-20)
(0.01688526 -0.0011187535 3.3981233e-22)
(0.011619522 -0.0013266273 5.8229786e-20)
(0.0056162579 -0.00096538584 -2.2868262e-20)
(-0.00099385793 0.00028344379 4.7675103e-20)
(-0.0053989967 0.0018181376 3.9383624e-20)
(-0.0065560412 0.0027775926 -3.6902315e-20)
(-0.0059051598 0.002979918 -1.0402222e-20)
(-0.0048490238 0.00279265 3.123242e-21)
(-0.0037465686 0.0023941748 5.4896652e-20)
(-0.0030736048 0.0021266513 8.1954592e-21)
(-0.0027024842 0.0019847714 -2.1315873e-20)
(-0.0024620174 0.0018907498 1.1814257e-20)
(-0.0022430716 0.0017962777 -6.5545358e-21)
(-0.0021118602 0.0017417174 -2.9879714e-21)
(-0.0020036379 0.0016843229 -7.9951605e-21)
(-0.0018927889 0.0016121131 2.5024192e-21)
(-0.001787558 0.0015351053 -3.3506433e-21)
(-0.0016887296 0.0014481229 3.1996588e-21)
(-0.0016009826 0.0013645695 3.8155147e-21)
(-0.0015401959 0.0012973182 8.7974107e-21)
(-0.0014991041 0.0012480251 -2.3346765e-21)
(-0.0014732895 0.0012141857 -3.1265037e-21)
(-0.0014639832 0.0011930101 -4.3779359e-21)
(-0.001468142 0.0011865754 2.1007449e-21)
(-0.00148999 0.0011933545 9.1174802e-22)
(-0.0015256185 0.0012121451 4.4833313e-21)
(-0.0015778269 0.0012449951 -6.9505954e-21)
(-0.0016462794 0.0012912711 -4.2005218e-21)
(-0.001731165 0.0013504616 -7.702715e-22)
(-0.0018306258 0.0014218389 -1.4996669e-21)
(-0.0019428859 0.0015039386 -4.1160681e-23)
(-0.0020615032 0.001591863 4.5664112e-21)
(-0.0021756707 0.0016750485 3.4917069e-21)
(-0.0022840339 0.0017487776 1.3149895e-22)
(-0.0023871278 0.0018101828 1.8728848e-21)
(-0.0024713674 0.0018502109 1.3906468e-22)
(-0.0025597933 0.0018867198 2.8869358e-25)
(-0.0026632001 0.0019256067 -1.4461027e-21)
(-0.0027595939 0.001949858 -4.5499938e-22)
(-0.0028444454 0.0019550619 -5.134653e-22)
(-0.0029124258 0.0019376805 1.444686e-21)
(-0.0029622647 0.0018971914 -9.6285107e-21)
(-0.002996154 0.0018354697 3.4192559e-21)
(-0.0030122861 0.0017516087 -2.6942974e-21)
(-0.003028713 0.0016595944 -2.9878427e-22)
(-0.0030416728 0.0015611089 -2.6581405e-21)
(-0.00304476 0.0014549959 1.8439557e-21)
(-0.0030376504 0.0013418924 -9.5158348e-21)
(-0.0030149485 0.001221326 -6.7816493e-22)
(-0.0029659899 0.00109119 2.0524462e-21)
(-0.0029060128 0.00095923052 -5.8162994e-22)
(-0.0028150458 0.00082103755 4.563956e-21)
(-0.0027188372 0.00068677632 -5.049532e-21)
(-0.0025876394 0.00055163028 1.9877451e-21)
(-0.0024862531 0.00043046696 -8.2997721e-22)
(-0.0023458357 0.00031197354 -2.5420495e-23)
(-0.0023361437 0.00021603982 -6.7044083e-23)
(-0.0022945682 0.00011978764 -3.5972639e-21)
(-0.0027313822 3.8098179e-05 3.7054038e-22)
(-0.003603811 7.0464848e-06 -4.1461756e-25)
(-0.00421604 5.9326345e-06 -6.3811679e-27)
(-0.0047986166 5.2209056e-06 -1.2270216e-25)
(-0.005299957 4.9946286e-06 4.2998339e-25)
(-0.0057669539 4.5108003e-06 -2.3038042e-25)
(-0.0061799543 4.391891e-06 6.8035865e-26)
(-0.0065617685 3.6945273e-06 6.6377628e-26)
(-0.0069005109 3.449137e-06 4.3332847e-26)
(-0.0072155962 3.0006194e-06 -2.0655608e-25)
(-0.0074995836 2.7617151e-06 7.14624e-26)
(-0.0077645324 2.5078218e-06 3.52479e-26)
(-0.0080081362 2.3641554e-06 4.2025928e-27)
(-0.0082358727 2.1618804e-06 -1.6808495e-25)
(-0.0084468825 2.0182586e-06 7.2347755e-26)
(-0.0086446439 1.8768311e-06 -1.1824462e-26)
(-0.0088295744 1.7849388e-06 -9.3225652e-27)
(-0.0090032308 1.6549209e-06 1.0828539e-25)
(-0.0091658025 1.5560355e-06 1.0833981e-27)
(-0.009318506 1.45595e-06 -3.045237e-26)
(-0.0094619065 1.3824004e-06 -7.6512008e-26)
(-0.0095964481 1.2887707e-06 -1.1317782e-25)
(-0.0097223977 1.2080994e-06 -1.5702092e-25)
(-0.0098402729 1.129719e-06 -2.042149e-25)
(-0.0099503649 1.0583837e-06 4.8319473e-25)
(-0.010052786 9.8152655e-07 1.0191071e-25)
(-0.010147796 9.0981941e-07 8.3218751e-25)
(-0.010235614 8.42469e-07 -1.3408527e-24)
(-0.010316354 7.7331848e-07 9.7625457e-25)
(-0.010390159 7.0630563e-07 -2.5812792e-25)
(-0.010457217 6.5132294e-07 -1.0250471e-24)
(-0.010517634 5.8720308e-07 -4.3794797e-25)
(-0.010571525 5.3160623e-07 4.2504013e-25)
(-0.01061907 4.7023133e-07 2.6664516e-25)
(-0.010660406 4.1455853e-07 8.0814915e-25)
(-0.010695664 3.5668111e-07 6.5858401e-25)
(-0.010724901 3.0069075e-07 -1.9597001e-24)
(-0.010748277 2.4543375e-07 6.5955105e-25)
(-0.010765857 1.8698149e-07 4.2721895e-25)
(-0.010777697 1.308954e-07 1.1556819e-24)
(-0.010783868 7.2879298e-08 -2.4839938e-24)
(-0.010784584 2.0652875e-08 1.207841e-24)
(-0.01077988 -2.9980801e-08 5.5145385e-25)
(-0.010769805 -8.1577212e-08 1.0162703e-24)
(-0.010754532 -1.2991235e-07 -2.610721e-24)
(-0.010734232 -1.7761422e-07 5.8384973e-25)
(-0.010709013 -2.2517144e-07 1.6823253e-25)
(-0.010678935 -2.7232227e-07 2.1486852e-24)
(-0.010644098 -3.1667846e-07 -1.8387218e-24)
(-0.010604741 -3.5972697e-07 7.4418583e-25)
(-0.010560945 -4.0310203e-07 -6.7567221e-27)
(-0.010512814 -4.4566317e-07 -2.38036e-24)
(-0.010460477 -4.8789987e-07 4.5376416e-25)
(-0.010404026 -5.2813449e-07 5.331863e-25)
(-0.010343649 -5.6948905e-07 3.3533411e-25)
(-0.010279101 -6.102035e-07 9.1006077e-25)
(-0.010210667 -6.4702136e-07 8.4184278e-26)
(-0.010139067 -6.8054457e-07 -5.0390599e-25)
(-0.010064231 -7.1680195e-07 2.9182781e-25)
(-0.0099857717 -7.5344581e-07 -4.2294471e-25)
(-0.0099039464 -7.8454272e-07 1.8161792e-25)
(-0.009819252 -8.1520531e-07 -2.8203886e-25)
(-0.009731721 -8.4590841e-07 6.300924e-25)
(-0.009641225 -8.7683985e-07 -1.1738662e-24)
(-0.0095479338 -9.0365719e-07 -2.5810166e-25)
(-0.0094521745 -9.3008839e-07 4.6334628e-25)
(-0.0093540863 -9.5528158e-07 8.8332746e-25)
(-0.009253641 -9.8011378e-07 -1.1737711e-25)
(-0.0091509473 -1.0029019e-06 -2.5822924e-25)
(-0.0090462477 -1.0226011e-06 -4.8487897e-25)
(-0.0089397235 -1.0420067e-06 4.4737086e-25)
(-0.0088312991 -1.0614003e-06 -1.0895083e-25)
(-0.0087211016 -1.0786561e-06 -8.776764e-27)
(-0.0086093482 -1.0933672e-06 -5.5623911e-26)
(-0.0084962425 -1.1075664e-06 7.471682e-27)
(-0.0083817508 -1.1218423e-06 2.6477289e-25)
(-0.008265995 -1.1335836e-06 -4.8114856e-25)
(-0.0081491772 -1.1446099e-06 -7.9564942e-26)
(-0.0080313638 -1.1541857e-06 -3.3138342e-25)
(-0.0079126583 -1.1639748e-06 9.7676674e-25)
(-0.0077930622 -1.1702872e-06 8.2587106e-25)
(-0.0076727972 -1.1798589e-06 -1.5147205e-25)
(-0.0075518276 -1.1863365e-06 -2.0757339e-24)
(-0.0074300348 -1.196306e-06 -1.2369283e-24)
(-0.0073077496 -1.1946724e-06 1.8121896e-24)
(-0.0071852065 -1.1970058e-06 2.8050797e-24)
(-0.0070625111 -1.199761e-06 -4.7453871e-24)
(-0.0069395315 -1.201894e-06 1.1718001e-24)
(-0.0068163006 -1.2045232e-06 -1.0652827e-25)
(-0.0066932269 -1.202294e-06 2.3478911e-24)
(-0.0065702375 -1.2014405e-06 -1.7227373e-24)
(-0.0064474749 -1.2032983e-06 8.4935226e-25)
(-0.0063247348 -1.19684e-06 1.1921982e-24)
(-0.0062027159 -1.1936456e-06 2.6208029e-24)
(-0.0060809004 -1.1886116e-06 -6.5663702e-24)
(-0.0059597835 -1.1916065e-06 2.6360029e-24)
(-0.0058383476 -1.1893291e-06 -9.8350216e-26)
(-0.0057170828 -1.2114267e-06 -4.0150891e-24)
(-0.0055921591 -1.3003418e-06 -1.4540109e-25)
(-0.0054604618 -1.3948661e-06 7.1105356e-24)
(-0.0053239586 -1.4465351e-06 2.1510924e-24)
(-0.0052091895 -1.1576924e-06 -5.1015406e-24)
(-0.0050960449 -1.0788922e-06 6.462295e-24)
(-0.0049870686 -1.0861961e-06 8.7679104e-25)
(-0.0048738175 -1.085833e-06 -5.7598983e-24)
(-0.0047623139 -1.1068348e-06 1.0196826e-23)
(-0.0046491096 -1.0815834e-06 -7.5412223e-24)
(-0.0045378094 -1.0766061e-06 1.0017519e-24)
(-0.0044261 -1.0790823e-06 1.397929e-24)
(-0.0043158659 -1.0678003e-06 -7.1680906e-24)
(-0.004205904 -1.0665578e-06 7.9775789e-24)
(-0.0040972771 -1.0547754e-06 1.566529e-24)
(-0.0039893588 -1.0462214e-06 -4.0680988e-24)
(-0.003882962 -1.0315475e-06 -4.1420272e-24)
(-0.0037778898 -1.0163468e-06 -8.0156834e-24)
(-0.0036741056 -1.0032613e-06 1.4604555e-23)
(-0.0035713716 -9.9325503e-07 1.0149444e-23)
(-0.0034701011 -9.8073639e-07 -2.2023563e-23)
(-0.0033702327 -9.6312092e-07 2.1907036e-23)
(-0.0032719526 -9.455046e-07 -6.5513238e-24)
(-0.0031749134 -9.3062249e-07 -1.0168068e-23)
(-0.0030796286 -9.0976751e-07 -8.4248809e-24)
(-0.0029859597 -8.8798452e-07 -3.3826851e-25)
(-0.002894049 -8.649377e-07 1.9016048e-23)
(-0.0028035768 -8.4025814e-07 -1.4096882e-23)
(-0.0027152746 -8.1973213e-07 8.8714991e-24)
(-0.0026283891 -7.9466265e-07 -1.4179995e-23)
(-0.0025437551 -7.7957556e-07 1.5711853e-23)
(-0.0024607489 -7.3353139e-07 -8.7180606e-24)
(-0.0023805706 -7.1148736e-07 5.2176633e-24)
(-0.0023022815 -6.865567e-07 1.7489197e-24)
(-0.0022275333 -6.5632763e-07 -8.8792292e-24)
(-0.0021545209 -6.1834122e-07 9.213499e-24)
(-0.0020863676 -5.7734623e-07 -1.2878883e-25)
(-0.0020198863 -5.4096005e-07 3.5837237e-24)
(-0.0019594136 -5.1917452e-07 -1.6612248e-23)
(-0.0019010261 -4.3171485e-07 1.132212e-23)
(-0.0018514149 -3.4941518e-07 3.643037e-24)
(-0.0018031696 -2.8899046e-07 -1.691868e-23)
(-0.0017675892 -1.8802284e-07 1.6789871e-23)
(-0.0017321029 -1.1236572e-07 1.1496634e-23)
(-0.0017146989 6.2226861e-08 -1.7168448e-23)
(-0.0016953733 9.5718642e-08 1.3395935e-23)
(-0.0016994754 2.891336e-07 -1.8858574e-23)
(-0.0016910531 1.2192302e-07 -1.9922096e-23)
(-0.0016853354 -1.9316739e-05 2.7889532e-20)
(-0.0016847921 -8.6721087e-05 1.2108489e-20)
(-0.0016906698 -0.00015642178 5.8707518e-21)
(-0.0017027509 -0.0002270479 3.8576213e-19)
(-0.0016928095 -0.00029418953 1.9622245e-19)
(-0.0016749005 -0.00035808573 8.9469947e-19)
(-0.0016442719 -0.00041607344 7.8902044e-19)
(-0.0015916761 -0.00046461468 -1.9851617e-19)
(-0.0015416318 -0.00050908563 -2.4762203e-19)
(-0.0014409721 -0.00053174913 5.3340354e-20)
(-0.0013722033 -0.00055559396 -1.6839769e-19)
(-0.0012705366 -0.00055976964 1.2852838e-19)
(-0.0011499543 -0.00056240806 -1.386042e-19)
(-0.0010631012 -0.00055670933 -5.8358424e-20)
(-0.00099078914 -0.00052528511 -4.176029e-19)
(-0.00075555045 -0.00040668854 9.6882952e-19)
(-0.00056326451 -0.00045646566 3.5199705e-19)
(-1.6467407e-05 -1.7721338e-05 2.2945651e-20)
(-0.00053715928 -0.00026490339 -2.4002548e-19)
(-2.1490269e-05 6.5787759e-05 -2.7938419e-19)
(-6.9595063e-05 5.3744612e-05 5.9292991e-19)
(0.00057735511 0.00041595032 -1.0742166e-18)
(0.00021305413 0.00050029466 2.4705351e-19)
(0.0014859733 0.0011479306 -1.1698391e-19)
(0.0023432625 0.0018482432 1.7971363e-19)
(0.0025169786 0.0016843553 -4.2295974e-19)
(0.0027863014 0.002123506 -1.1980206e-19)
(0.001549411 0.0013163036 -2.6479286e-19)
(0.0033831948 0.0023186084 1.7372996e-19)
(0.0032511178 0.0023539691 -3.9717351e-19)
(0.0030647049 0.0024805274 -2.1718247e-19)
(0.0040846623 0.0032808698 -4.1426399e-19)
(0.0044072439 0.0034932679 1.9829372e-20)
(0.0039180598 0.0031421308 5.6525692e-19)
(0.0050879942 0.0037663017 -1.9529759e-19)
(0.0043342604 0.0041323444 2.2691006e-19)
(0.0050979296 0.0044503667 -1.2947401e-19)
(0.0067234457 0.0056028997 -7.724117e-19)
(0.0040483082 0.0037025987 1.4076275e-19)
(0.0056167781 0.0041540795 8.029046e-20)
(0.0072437131 0.006279805 4.3910424e-19)
(0.0087896613 0.008268443 -1.3976005e-19)
(0.01053845 0.0097188964 1.4355415e-19)
(0.010631399 0.0107941 -1.5130946e-20)
(0.011584693 0.01125829 -5.6828071e-20)
(0.012495214 0.011153683 -1.2874073e-19)
(0.015761879 0.013818664 1.958843e-20)
(0.019271549 0.015026607 -4.3825181e-20)
(0.01936511 0.01359576 5.7801657e-20)
(0.02458253 0.01763009 2.1314482e-20)
(0.028411476 0.018800932 -9.4367954e-20)
(0.034698239 0.01977875 1.0700347e-19)
(0.040622416 0.020796925 4.2569122e-20)
(0.048534016 0.020787575 2.3182819e-19)
(0.051283285 0.01731087 -1.3787808e-19)
(0.049835491 0.012572177 1.4492094e-19)
(0.043927374 0.0079108821 -6.6386808e-20)
(0.037225924 0.0044190408 -2.0920218e-19)
(0.02984337 0.0020734019 -5.0946059e-20)
(0.024598532 0.00079583199 5.9737331e-21)
(0.018965777 0.00014996737 1.853008e-20)
(0.017793896 -8.0701102e-05 3.014095e-21)
(0.013610319 -5.0806577e-05 2.3227793e-21)
(0.028422196 9.6084761e-05 1.1548929e-21)
(0.029085759 0.00011429151 -3.0894423e-22)
(0.032801441 -0.00021878573 -1.6995389e-22)
(0.03153651 -0.00095165495 -1.3622753e-20)
(0.028701701 -0.0018747691 3.4298355e-20)
(0.020015394 -0.0022416431 -3.8506296e-20)
(0.0099907834 -0.0016632388 2.2496584e-20)
(-0.0011204517 0.00038861404 -1.0014359e-19)
(-0.0087060977 0.0029687706 5.3808054e-20)
(-0.010853612 0.0046093104 1.5064477e-21)
(-0.0098647621 0.0049862345 1.4458409e-20)
(-0.0081359335 0.0046833251 -1.7019141e-20)
(-0.0063101809 0.0040245593 -5.6225489e-20)
(-0.0051798756 0.0035850086 1.649333e-20)
(-0.0045527504 0.0033464703 2.3249095e-20)
(-0.0041462399 0.0031935784 -3.2341559e-21)
(-0.0037848266 0.0030283758 2.7798216e-21)
(-0.0035629882 0.0029359801 6.4291635e-21)
(-0.0033785203 0.0028412645 1.7351e-20)
(-0.0031933518 0.002718949 -1.0120709e-20)
(-0.0030176521 0.0025886575 -9.5650373e-21)
(-0.0028506969 0.0024442118 -1.8049121e-21)
(-0.0027043978 0.0023034653 4.3632983e-21)
(-0.0026020031 0.0021915048 -9.6348753e-21)
(-0.0025331764 0.0021094095 2.5072705e-22)
(-0.0024912106 0.0020517398 -3.7420951e-21)
(-0.0024753755 0.0020175286 3.3524615e-21)
(-0.0024836802 0.0020064297 2.0302946e-21)
(-0.0025207517 0.0020182819 1.0036882e-22)
(-0.0025810595 0.0020507298 2.1159285e-21)
(-0.002669544 0.0021062564 -7.9406376e-22)
(-0.0027852932 0.0021843511 -7.0407823e-22)
(-0.0029282026 0.002284547 -2.7045559e-21)
(-0.0030956494 0.0024049091 1.0788905e-22)
(-0.0032844355 0.0025430657 -5.6917515e-21)
(-0.0034837993 0.0026907713 -4.0703724e-21)
(-0.0036757234 0.0028306299 -7.8568459e-22)
(-0.0038581186 0.0029544133 1.976265e-22)
(-0.0040310044 0.0030582637 2.6301649e-22)
(-0.0041734492 0.0031260525 -6.1878416e-22)
(-0.0043221491 0.0031882667 2.6112023e-24)
(-0.004495814 0.0032522874 2.2992199e-21)
(-0.0046578945 0.0032927424 2.0261607e-21)
(-0.0048003868 0.0033006503 1.1526442e-23)
(-0.0049149269 0.0032709991 -1.1500654e-20)
(-0.0049996027 0.0032024665 4.8189565e-21)
(-0.0050577948 0.0030986388 6.5656458e-21)
(-0.0050866414 0.0029581776 5.8853905e-21)
(-0.00511607 0.0028032588 9.7624555e-22)
(-0.0051396649 0.0026376066 -2.5982773e-21)
(-0.0051469841 0.0024591132 9.6292179e-21)
(-0.0051371514 0.0022688474 2.4938149e-21)
(-0.0051017194 0.0020657988 1.1767911e-21)
(-0.0050230236 0.0018468671 9.9690763e-21)
(-0.0049258301 0.001624476 -6.1098639e-21)
(-0.0047778277 0.0013918237 -5.3632943e-21)
(-0.0046210269 0.0011654953 1.8086622e-21)
(-0.0044075087 0.00093776148 -1.1370407e-21)
(-0.0042430748 0.00073301733 1.6690876e-21)
(-0.0040175561 0.00053314673 -1.1996821e-21)
(-0.004008065 0.00037035147 -7.286514e-23)
(-0.0039563765 0.00020872096 2.1840364e-22)
(-0.0046955263 7.2972708e-05 -5.2443296e-22)
(-0.0061467846 2.0661585e-05 3.9384123e-25)
(-0.0071740934 1.7004599e-05 -9.4752246e-27)
(-0.0081484513 1.5164855e-05 -9.6171434e-26)
(-0.0089877681 1.398885e-05 2.7675507e-25)
(-0.0097682764 1.2654937e-05 -1.0378665e-25)
(-0.010458822 1.1845132e-05 -9.6692435e-26)
(-0.011096534 1.0373314e-05 2.1051921e-25)
(-0.01166276 9.5346125e-06 -8.8670236e-26)
(-0.012188913 8.5211336e-06 -9.2141584e-26)
(-0.012663413 7.8224174e-06 -7.2028731e-26)
(-0.013105795 7.1855286e-06 5.2485456e-26)
(-0.013512577 6.7017898e-06 5.7997554e-27)
(-0.013892678 6.187956e-06 9.5275648e-27)
(-0.014244873 5.7666735e-06 -4.5512362e-26)
(-0.014574826 5.3876141e-06 -1.6830148e-26)
(-0.014883296 5.0730074e-06 6.2276906e-26)
(-0.015172844 4.7318219e-06 -8.1771625e-26)
(-0.015443844 4.437375e-06 5.3323024e-26)
(-0.015698288 4.1627465e-06 2.8341483e-25)
(-0.01593712 3.9217275e-06 -2.2225162e-25)
(-0.016161088 3.6643973e-06 -1.054426e-25)
(-0.016370652 3.4288171e-06 5.403007e-25)
(-0.016566663 3.2063862e-06 -4.0551242e-25)
(-0.016749606 2.9917147e-06 2.8336589e-25)
(-0.016919683 2.7737351e-06 -1.8765536e-25)
(-0.017077326 2.5662864e-06 -1.0276706e-25)
(-0.017222898 2.3686814e-06 3.8739746e-25)
(-0.017356597 2.1695746e-06 4.6566668e-25)
(-0.017478665 1.9750301e-06 -1.7055324e-24)
(-0.017589416 1.7949236e-06 1.3388335e-24)
(-0.017689032 1.6057357e-06 -3.7128221e-25)
(-0.017777709 1.4278768e-06 -1.2803285e-24)
(-0.017855745 1.2459754e-06 5.4301741e-25)
(-0.017923372 1.0736274e-06 1.8596639e-24)
(-0.017980809 9.0030203e-07 -3.4071397e-25)
(-0.018028158 7.3184918e-07 -5.3115055e-25)
(-0.018065682 5.6720661e-07 -4.6346545e-25)
(-0.018093496 4.0309155e-07 -5.2220733e-25)
(-0.018111697 2.407505e-07 1.0868315e-24)
(-0.018120408 8.1700885e-08 -5.5173698e-25)
(-0.018119982 -7.1984451e-08 -7.934677e-25)
(-0.018110483 -2.1943571e-07 1.2627485e-24)
(-0.018092 -3.6859165e-07 -6.5384998e-25)
(-0.018064818 -5.1058954e-07 -7.1929152e-25)
(-0.018029224 -6.5138955e-07 7.0559505e-25)
(-0.017985397 -7.8751943e-07 1.2225123e-24)
(-0.017933441 -9.2368167e-07 1.5594009e-25)
(-0.017873532 -1.0507298e-06 -1.0372618e-24)
(-0.017806059 -1.1775473e-06 -8.6651012e-25)
(-0.017731163 -1.2991115e-06 2.8501791e-24)
(-0.017649017 -1.4203231e-06 -4.5140113e-24)
(-0.01755984 -1.5362425e-06 3.8304354e-24)
(-0.017463789 -1.6501864e-06 -3.2794184e-24)
(-0.017361167 -1.7638953e-06 1.2962304e-24)
(-0.017251597 -1.8757401e-06 6.1395424e-25)
(-0.017135548 -1.9731023e-06 1.5744819e-25)
(-0.01701419 -2.0654973e-06 -1.138677e-24)