/*--------------------------------*- C++ -*----------------------------------*\
| =========                 |                                                 |
| \\      /  F ield         | OpenFOAM: The Open Source CFD Toolbox           |
|  \\    /   O peration     | Version:  2.4.0                                 |
|   \\  /    A nd           | Web:      www.OpenFOAM.org                      |
|    \\/     M anipulation  |                                                 |
\*---------------------------------------------------------------------------*/
FoamFile
{
    version     2.0;
    format      ascii;
    class       volScalarField;
    location    "140";
    object      k;
}
// * * * * * * * * * * * * * * * * * * * * * * * * * * * * * * * * * * * * * //

dimensions      [0 2 -2 0 0 0 0];

internalField   nonuniform List<scalar> 
78300
(
1.0405733e-06
6.121729e-07
1.5528199e-06
1.004631e-06
1.2065309e-06
4.2831492e-07
1.8381809e-07
1.2511039e-08
8.8877461e-08
1.9219004e-07
1.1877423e-07
9.856219e-08
5.3046421e-08
4.2913185e-08
2.9860991e-08
2.7780148e-08
2.1938571e-08
2.0998757e-08
1.7577666e-08
1.6326545e-08
1.3831869e-08
1.2528041e-08
1.0797042e-08
9.9786201e-09
9.1766234e-09
8.8410905e-09
8.5706206e-09
8.6463304e-09
8.834209e-09
9.3563099e-09
1.0055025e-08
1.111932e-08
1.2446503e-08
1.4180021e-08
1.6229427e-08
1.8611289e-08
2.1040782e-08
2.3506833e-08
2.6011393e-08
2.8470414e-08
3.0851887e-08
3.3038698e-08
3.5003141e-08
3.6595696e-08
3.7726479e-08
3.8257927e-08
3.8306289e-08
3.773257e-08
3.7389869e-08
3.6791869e-08
3.5882013e-08
3.4884585e-08
3.3426659e-08
3.1446892e-08
2.9540263e-08
2.6828504e-08
2.4619757e-08
2.1490759e-08
1.9673057e-08
1.6824194e-08
1.6797541e-08
1.5708336e-08
2.3065936e-08
4.1911167e-08
5.8100421e-08
7.7434696e-08
9.5052668e-08
1.1423014e-07
1.3185783e-07
1.5018856e-07
1.6718392e-07
1.8441724e-07
2.005507e-07
2.1585986e-07
2.3196177e-07
2.4710882e-07
2.6156052e-07
2.7579155e-07
2.8943825e-07
3.0280305e-07
3.1564881e-07
3.2816334e-07
3.4018802e-07
3.5183497e-07
3.6299828e-07
3.7373451e-07
3.8392655e-07
3.9213102e-07
4.0135292e-07
4.100625e-07
4.182533e-07
4.2591101e-07
4.3302245e-07
4.3958534e-07
4.4558924e-07
4.510407e-07
4.5593671e-07
4.6029502e-07
4.6411305e-07
4.6743118e-07
4.7234026e-07
4.7491438e-07
4.7706257e-07
4.7874797e-07
4.7802849e-07
4.7778338e-07
4.769709e-07
4.7550581e-07
4.7351049e-07
4.7098065e-07
4.679549e-07
4.6444027e-07
4.6045768e-07
4.5602388e-07
4.5116713e-07
4.4590491e-07
4.4025668e-07
4.342344e-07
4.2786232e-07
4.2116383e-07
4.1416744e-07
4.0689183e-07
3.9935743e-07
3.9159087e-07
3.8361912e-07
3.7546771e-07
3.6715299e-07
3.5869898e-07
3.5012583e-07
3.4145761e-07
3.3271048e-07
3.2390545e-07
3.1505837e-07
3.0618963e-07
2.9731839e-07
2.8845891e-07
2.796219e-07
2.7081761e-07
2.6206619e-07
2.5338181e-07
2.4477657e-07
2.3625944e-07
2.2784748e-07
2.1954847e-07
2.1137538e-07
2.0333452e-07
1.9543351e-07
1.8767811e-07
1.8007806e-07
1.7264493e-07
1.6538281e-07
1.5829322e-07
1.5137706e-07
1.4464433e-07
1.3809852e-07
1.317408e-07
1.2556398e-07
1.195716e-07
1.1376389e-07
1.0814336e-07
1.0269845e-07
9.7434178e-08
9.2356065e-08
8.7477983e-08
8.2784011e-08
7.8258062e-08
7.3902765e-08
6.972709e-08
6.5725475e-08
6.1895955e-08
5.8220706e-08
5.4709109e-08
5.1345276e-08
4.8145655e-08
4.5089667e-08
4.2200806e-08
3.9450337e-08
3.6858366e-08
3.4384586e-08
3.2062138e-08
2.9853879e-08
2.7796195e-08
2.5833701e-08
2.4012658e-08
2.227758e-08
2.068577e-08
1.9160305e-08
1.7771445e-08
1.6433685e-08
1.5238725e-08
1.4077958e-08
1.3063786e-08
1.2067209e-08
1.122762e-08
1.0384265e-08
9.7059195e-09
8.9989337e-09
8.4746685e-09
7.8999267e-09
7.5341716e-09
7.090438e-09
6.8879764e-09
6.5785318e-09
6.5600066e-09
6.4112655e-09
6.6236779e-09
6.6524445e-09
7.1537525e-09
7.6406319e-09
7.8258462e-09
8.1376836e-09
7.9913642e-09
7.9534155e-09
7.5241096e-09
7.1612761e-09
6.5076396e-09
5.8918423e-09
5.0951149e-09
4.3355028e-09
3.5084333e-09
2.7573872e-09
2.0561114e-09
1.9815029e-09
3.1186413e-09
4.9262144e-09
7.7654578e-09
1.1889183e-08
1.7739401e-08
2.5568392e-08
3.5858034e-08
4.8795658e-08
6.4815281e-08
8.3921313e-08
1.062905e-07
1.3105437e-07
1.5700755e-07
1.8484465e-07
2.1488935e-07
2.4777573e-07
2.8380068e-07
3.2399302e-07
3.6867434e-07
4.1970276e-07
4.7763014e-07
5.4568236e-07
6.2552368e-07
7.2376549e-07
8.4993399e-07
1.023454e-06
1.2151461e-06
1.4878337e-06
1.7922652e-06
2.223319e-06
2.7066058e-06
3.4089094e-06
4.2109833e-06
5.3809731e-06
6.6935027e-06
8.5110594e-06
1.0140286e-05
1.1860285e-05
1.1406273e-05
9.8951447e-06
7.0971999e-06
5.1680698e-06
2.8371626e-06
2.0365714e-06
8.2815232e-07
9.192806e-07
2.7570807e-07
1.8049232e-07
3.1043457e-07
2.5347261e-07
3.6132312e-07
6.4089485e-07
1.889408e-07
1.0406309e-07
3.8132934e-08
2.5191399e-08
3.2475227e-08
1.9338028e-08
1.5793307e-08
8.6341205e-09
6.9931354e-09
4.9622867e-09
4.6122985e-09
3.7089718e-09
3.5535323e-09
3.0292864e-09
2.8331033e-09
2.4514175e-09
2.2499583e-09
1.9871786e-09
1.8671856e-09
1.7575587e-09
1.7238572e-09
1.7059461e-09
1.7465478e-09
1.8118073e-09
1.9357143e-09
2.0966532e-09
2.3244368e-09
2.6060437e-09
2.9647662e-09
3.3894242e-09
3.8828414e-09
4.4003591e-09
4.9380272e-09
5.5010294e-09
6.0793727e-09
6.6717197e-09
7.2550995e-09
7.8154224e-09
8.3281824e-09
8.778284e-09
9.132325e-09
9.3010183e-09
6.2648725e-09
1.3945258e-08
1.4409995e-08
6.6611705e-09
1.5601244e-08
1.0614459e-08
1.070585e-08
1.0781985e-08
1.0694291e-08
1.0625663e-08
1.0338681e-08
1.0168321e-08
9.7517688e-09
9.7330996e-09
9.5916747e-09
1.1087547e-08
1.5639484e-08
1.9866407e-08
3.4554021e-08
4.1099158e-08
4.7374517e-08
5.3491195e-08
5.9526274e-08
6.5441943e-08
7.1315917e-08
7.65704e-08
4.2313758e-08
8.7932635e-08
9.3501209e-08
9.8860818e-08
1.0416619e-07
1.0938591e-07
1.1455105e-07
1.196364e-07
1.2466258e-07
1.2961135e-07
1.3449774e-07
1.3931829e-07
1.4413705e-07
1.4753758e-07
7.7297664e-08
7.9398614e-08
8.1382571e-08
8.3310774e-08
8.5155234e-08
8.6928418e-08
8.8622491e-08
9.0242241e-08
9.1788482e-08
9.3267922e-08
9.4695093e-08
9.6139942e-08
9.8368668e-08
2.0105987e-07
2.049082e-07
2.0862712e-07
2.1141387e-07
1.5086202e-07
1.5181805e-07
1.5302832e-07
1.5396203e-07
1.5482511e-07
1.5553964e-07
1.561456e-07
1.5662847e-07
1.56997e-07
1.5725092e-07
1.5739504e-07
1.5743202e-07
1.5736423e-07
1.5719312e-07
1.5692237e-07
1.5655505e-07
1.5609685e-07
1.5554988e-07
1.5491846e-07
1.542058e-07
1.534181e-07
1.5255883e-07
1.5163208e-07
1.5064097e-07
1.4959043e-07
1.4848416e-07
1.4732599e-07
1.4612042e-07
1.4486923e-07
1.4357552e-07
1.4224657e-07
1.4088353e-07
1.3948687e-07
1.3805758e-07
1.3660319e-07
1.3513603e-07
1.3365244e-07
1.3213935e-07
1.306181e-07
1.2908351e-07
1.2754105e-07
1.2599173e-07
1.2443826e-07
1.2288125e-07
1.2132397e-07
1.1976866e-07
1.1821813e-07
1.1667249e-07
1.1513253e-07
1.1360049e-07
1.1207856e-07
1.1056838e-07
1.0906855e-07
1.0758e-07
1.0610338e-07
1.0464035e-07
1.0318848e-07
1.0174773e-07
1.0031924e-07
9.890947e-08
9.7518958e-08
9.6141168e-08
9.4774857e-08
9.342444e-08
9.2089913e-08
9.0772622e-08
8.9468009e-08
8.8176863e-08
8.6895813e-08
8.5627647e-08
8.4368727e-08
8.3124482e-08
8.1891337e-08
8.0673865e-08
7.9463416e-08
7.8263362e-08
7.7068679e-08
7.5886805e-08
7.4707658e-08
7.3536203e-08
7.2361535e-08
7.1197213e-08
7.0024731e-08
6.8858504e-08
6.7672396e-08
6.6492144e-08
6.5282838e-08
6.4076657e-08
6.282827e-08
6.1582771e-08
6.0282342e-08
5.8981202e-08
5.7603846e-08
5.6218269e-08
5.4732883e-08
5.3234171e-08
5.1610532e-08
4.9962685e-08
4.8157647e-08
4.6308379e-08
4.426483e-08
4.2121018e-08
3.9533356e-08
3.7079003e-08
3.6679584e-08
3.7073886e-08
3.7950182e-08
3.8954334e-08
4.0114217e-08
4.1322551e-08
4.2601578e-08
4.3916879e-08
4.5284316e-08
4.6707763e-08
4.8192359e-08
4.9748986e-08
5.1385912e-08
5.3153054e-08
5.5258359e-08
5.7767206e-08
6.0513202e-08
6.3526547e-08
6.6818497e-08
7.0441136e-08
7.4411925e-08
7.8781992e-08
8.3546842e-08
8.8741454e-08
9.4337358e-08
1.0030174e-07
1.0599407e-07
1.1139678e-07
1.1690089e-07
1.22665e-07
1.2884069e-07
1.3554991e-07
1.4297401e-07
1.512416e-07
1.6064521e-07
1.7143241e-07
1.8391593e-07
1.9912625e-07
2.1663283e-07
2.4140192e-07
5.2532964e-07
1.7565723e-07
6.0081554e-07
2.5222165e-07
7.8660141e-07
3.7571934e-07
1.1013333e-06
1.3329003e-06
1.0789062e-06
1.3450018e-06
1.6963662e-06
2.0120209e-06
2.3143193e-06
2.2527063e-06
2.0017799e-06
1.5185164e-06
1.1860292e-06
4.3994644e-07
8.7821342e-07
1.5249416e-07
1.5418423e-07
2.1736929e-07
3.6859478e-07
1.6377282e-06
4.2859596e-07
1.6050551e-06
2.8879234e-06
9.3824345e-07
5.7110655e-07
2.6626689e-07
9.3045542e-08
3.2313492e-08
1.4503581e-08
1.0216589e-08
6.393909e-09
5.280645e-09
4.3583493e-09
4.0412542e-09
3.6619894e-09
3.5358828e-09
3.344792e-09
3.2466592e-09
3.1121086e-09
3.0304756e-09
2.9533557e-09
2.9492752e-09
3.0002192e-09
3.1088814e-09
3.2620498e-09
3.473388e-09
3.7438961e-09
4.0858994e-09
4.5085014e-09
5.0284661e-09
5.6591962e-09
6.4180155e-09
7.3185399e-09
8.3631735e-09
9.5289293e-09
1.0800054e-08
1.2210903e-08
1.3777224e-08
1.5522803e-08
1.7405977e-08
1.9355287e-08
2.1351246e-08
2.3381217e-08
2.5354492e-08
2.6504308e-08
1.1023476e-08
5.2316404e-08
5.5832325e-08
1.5801949e-08
6.5970217e-08
4.3045595e-08
4.5813834e-08
4.8340951e-08
5.0502673e-08
5.2284716e-08
5.3420801e-08
5.4055257e-08
5.3953505e-08
5.3846107e-08
5.393587e-08
5.7267559e-08
7.1086605e-08
8.5250217e-08
1.4810882e-07
1.7217006e-07
1.9318584e-07
2.1499932e-07
2.3555085e-07
2.5675581e-07
2.7744043e-07
2.9542885e-07
1.1130896e-07
3.3721779e-07
3.5812234e-07
3.7834846e-07
3.9844838e-07
4.1859804e-07
4.3868397e-07
4.5878962e-07
4.788536e-07
4.9892291e-07
5.1897909e-07
5.3911168e-07
5.5969066e-07
5.7198629e-07
2.0564627e-07
2.1258756e-07
2.1920457e-07
2.2590533e-07
2.3248821e-07
2.3906118e-07
2.4556553e-07
2.5204702e-07
2.5850394e-07
2.6498838e-07
2.7159055e-07
2.7884118e-07
2.9234182e-07
8.340158e-07
8.5747893e-07
8.8107618e-07
9.0428217e-07
6.0959304e-07
6.168212e-07
6.2650991e-07
6.3484993e-07
6.43221e-07
6.510577e-07
6.5861256e-07
6.6577212e-07
6.7257874e-07
6.7901312e-07
6.8508144e-07
6.9078489e-07
6.9612071e-07
7.010874e-07
7.0568649e-07
7.0991662e-07
7.1378973e-07
7.1730196e-07
7.2046394e-07
7.2327158e-07
7.2574235e-07
7.2787532e-07
7.2968349e-07
7.3116481e-07
7.3233462e-07
7.3319505e-07
7.337575e-07
7.3403313e-07
7.340186e-07
7.337155e-07
7.3315737e-07
7.3233776e-07
7.3124914e-07
7.2988818e-07
7.2828904e-07
7.2652736e-07
7.2456381e-07
7.2229367e-07
7.1985522e-07
7.172026e-07
7.1436247e-07
7.1133562e-07
7.0813406e-07
7.0475625e-07
7.0121612e-07
6.9751803e-07
6.9367835e-07
6.8969629e-07
6.8557672e-07
6.8132566e-07
6.769556e-07
6.7247723e-07
6.6788773e-07
6.6319034e-07
6.5838944e-07
6.5349471e-07
6.4850028e-07
6.4340065e-07
6.3819847e-07
6.3292662e-07
6.2760551e-07
6.2220395e-07
6.1671013e-07
6.1114709e-07
6.0552052e-07
5.9984229e-07
5.940975e-07
5.8828221e-07
5.8238819e-07
5.7641884e-07
5.7036881e-07
5.6425352e-07
5.5807651e-07
5.5185047e-07
5.4555374e-07
5.3917681e-07
5.3272121e-07
5.2620385e-07
5.1960812e-07
5.1292263e-07
5.0612487e-07
4.9925486e-07
4.9225666e-07
4.8516318e-07
4.778716e-07
4.7047541e-07
4.6283146e-07
4.5505907e-07
4.4695988e-07
4.3871977e-07
4.3008187e-07
4.212685e-07
4.1192738e-07
4.023376e-07
3.9207012e-07
3.8148954e-07
3.7007597e-07
3.5823645e-07
3.4535799e-07
3.3185594e-07
3.1706775e-07
3.0117431e-07
2.8223976e-07
2.6381836e-07
2.6042466e-07
2.6312058e-07
2.6921337e-07
2.767159e-07
2.8524696e-07
2.9453726e-07
3.0427649e-07
3.1458161e-07
3.2522983e-07
3.364752e-07
3.481296e-07
3.6038118e-07
3.7314264e-07
3.8680679e-07
4.0229184e-07
4.1947017e-07
4.3768811e-07
4.5679168e-07
4.7659982e-07
4.970413e-07
5.1798144e-07
5.3929593e-07
5.6075816e-07
5.821787e-07
6.033453e-07
6.2382016e-07
6.3983477e-07
6.5252769e-07
6.640283e-07
6.7515198e-07
6.8634755e-07
6.9820645e-07
7.1099236e-07
7.2530858e-07
7.4137691e-07
7.604271e-07
7.8143115e-07
8.1016309e-07
8.3678449e-07
8.8458505e-07
2.3201253e-06
1.6429326e-07
2.3180727e-06
1.9123658e-07
2.7476669e-06
2.4996253e-07
3.5300602e-06
4.1929304e-06
2.1014847e-06
2.6330714e-06
3.2495252e-06
3.8082945e-06
4.1819138e-06
4.2178675e-06
3.9981351e-06
3.455524e-06
3.0864316e-06
6.0723585e-07
3.5611697e-06
3.6205817e-07
2.8486885e-07
1.3047134e-06
1.3931721e-06
6.0569467e-06
1.5794247e-06
5.8772968e-06
8.9963972e-06
3.4557898e-06
2.1177063e-06
9.991766e-07
3.3754703e-07
9.1209656e-08
3.5887081e-08
2.2984825e-08
1.5664097e-08
1.3079007e-08
1.1630376e-08
1.0774364e-08
1.0248663e-08
9.9251769e-09
9.7317129e-09
9.557785e-09
9.4347806e-09
9.3294691e-09
9.3041935e-09
9.4119345e-09
9.7200797e-09
1.0171944e-08
1.0778522e-08
1.1548229e-08
1.2519824e-08
1.3705581e-08
1.5162718e-08
1.6924902e-08
1.9057062e-08
2.1601746e-08
2.4622903e-08
2.8127241e-08
3.2073093e-08
3.6403593e-08
4.1244739e-08
4.6667601e-08
5.2765902e-08
5.9404491e-08
6.6323034e-08
7.347134e-08
8.0818171e-08
8.805304e-08
9.2294421e-08
4.1065526e-08
1.6517769e-07
1.7678251e-07
6.0816084e-08
2.1157394e-07
1.565213e-07
1.6736307e-07
1.7713306e-07
1.8565112e-07
1.9267096e-07
1.9739971e-07
2.0005251e-07
2.0008988e-07
1.9969241e-07
2.0019103e-07
2.1161224e-07
2.6070384e-07
3.1136721e-07
4.8331105e-07
5.588039e-07
6.2480231e-07
6.9426412e-07
7.5942969e-07
8.2710569e-07
8.9301463e-07
9.5107468e-07
4.3055232e-07
1.0840062e-06
1.1510056e-06
1.2159195e-06
1.280452e-06
1.3452576e-06
1.409902e-06
1.4747077e-06
1.5394359e-06
1.6042733e-06
1.6691387e-06
1.7343521e-06
1.8011526e-06
1.8426047e-06
7.964194e-07
8.2360919e-07
8.4970014e-07
8.7619429e-07
9.0226436e-07
9.2835314e-07
9.5421838e-07
9.8004632e-07
1.0058259e-06
1.031766e-06
1.0582252e-06
1.087391e-06
1.141861e-06
2.7034739e-06
2.7828285e-06
2.8642781e-06
2.9581e-06
2.2177e-06
2.2448766e-06
2.2813485e-06
2.3128546e-06
2.3445549e-06
2.3743281e-06
2.403116e-06
2.430492e-06
2.456612e-06
2.4814011e-06
2.5048784e-06
2.5270457e-06
2.5478899e-06
2.5674036e-06
2.5855891e-06
2.6024378e-06
2.6179903e-06
2.6322296e-06
2.6451923e-06
2.6568595e-06
2.6672926e-06
2.6764844e-06
2.6844814e-06
2.6912723e-06
2.6969118e-06
2.7014043e-06
2.7047901e-06
2.7071087e-06
2.7083442e-06
2.7085003e-06
2.7076998e-06
2.7059166e-06
2.7031206e-06
2.6992981e-06
2.6945741e-06
2.6892305e-06
2.683118e-06
2.6758422e-06
2.6679195e-06
2.6591768e-06
2.6497122e-06
2.6395277e-06
2.6286673e-06
2.6171242e-06
2.6049494e-06
2.5921577e-06
2.5788097e-06
2.5649024e-06
2.5504537e-06
2.535485e-06
2.5200424e-06
2.504166e-06
2.4878463e-06
2.4710947e-06
2.4539278e-06
2.4363816e-06
2.4184357e-06
2.4000687e-06
2.3812897e-06
2.3622202e-06
2.3429389e-06
2.3233312e-06
2.3033525e-06
2.2830878e-06
2.2625594e-06
2.241812e-06
2.2207922e-06
2.1994842e-06
2.1778592e-06
2.1559275e-06
2.1336722e-06
2.1111477e-06
2.0883714e-06
2.0653879e-06
2.0421219e-06
2.018533e-06
1.9946322e-06
1.9704778e-06
1.9460152e-06
1.9211955e-06
1.8959418e-06
1.8703962e-06
1.8443598e-06
1.8179462e-06
1.7907817e-06
1.763204e-06
1.7346916e-06
1.7056761e-06
1.6754318e-06
1.644636e-06
1.612348e-06
1.579378e-06
1.5444318e-06
1.5085264e-06
1.4700853e-06
1.4304395e-06
1.3876793e-06
1.3432864e-06
1.2950107e-06
1.2443535e-06
1.1888893e-06
1.1292286e-06
1.0582441e-06
9.8922637e-07
9.7654456e-07
9.866492e-07
1.0094926e-06
1.0376999e-06
1.0697571e-06
1.1047241e-06
1.1413681e-06
1.1801821e-06
1.2202802e-06
1.262649e-06
1.3065495e-06
1.3527035e-06
1.4007661e-06
1.452222e-06
1.510415e-06
1.5747577e-06
1.6428887e-06
1.7141888e-06
1.7879352e-06
1.8637989e-06
1.9412378e-06
2.0197103e-06
2.0983384e-06
2.1763528e-06
2.2529464e-06
2.3264087e-06
2.3827785e-06
2.4265863e-06
2.4656892e-06
2.5030755e-06
2.5403372e-06
2.5796383e-06
2.6218193e-06
2.6690989e-06
2.7220447e-06
2.7851759e-06
2.854233e-06
2.9505187e-06
3.0368052e-06
3.1884213e-06
7.1420537e-06
5.258989e-07
7.0438564e-06
5.7042145e-07
8.2640639e-06
7.0533263e-07
1.0503768e-05
1.2457957e-05
6.9750059e-06
8.7419878e-06
1.0742748e-05
1.2559328e-05
1.3678792e-05
1.3879343e-05
1.3294247e-05
1.1710261e-05
1.0638743e-05
2.1688461e-06
1.10118e-05
1.3985495e-06
1.0596951e-06
4.8563203e-06
4.1905834e-06
1.617047e-05
4.7431401e-06
1.5672217e-05
2.0237587e-05
9.2087388e-06
5.6568554e-06
2.6752705e-06
9.0211584e-07
2.3518246e-07
9.0472459e-08
5.6878032e-08
3.9329766e-08
3.288156e-08
2.9583689e-08
2.7401043e-08
2.625071e-08
2.5432888e-08
2.506354e-08
2.4656279e-08
2.4435413e-08
2.4211665e-08
2.4216479e-08
2.4534154e-08
2.5381564e-08
2.6590896e-08
2.8207456e-08
3.0241591e-08
3.2805797e-08
3.5923129e-08
3.9751676e-08
4.4372691e-08
4.9962478e-08
5.6627766e-08
6.4542215e-08
7.3723993e-08
8.4076512e-08
9.5447854e-08
1.0817028e-07
1.224361e-07
1.3849764e-07
1.5600509e-07
1.7426895e-07
1.9316045e-07
2.1260441e-07
2.3179264e-07
2.4326449e-07
1.224537e-07
3.8545857e-07
4.1370163e-07
1.8055838e-07
4.9856874e-07
4.1666578e-07
4.4601223e-07
4.7221833e-07
4.9511666e-07
5.1399088e-07
5.2677725e-07
5.3395746e-07
5.3418397e-07
5.3313007e-07
5.3452638e-07
5.6474896e-07
6.9514109e-07
8.2946096e-07
1.1617232e-06
1.3385057e-06
1.4942945e-06
1.659556e-06
1.8145137e-06
1.9757866e-06
2.1328096e-06
2.2740164e-06
1.2642576e-06
2.5886195e-06
2.748042e-06
2.9029667e-06
3.0569909e-06
3.2117215e-06
3.3660881e-06
3.5208878e-06
3.6755303e-06
3.8304807e-06
3.9855349e-06
4.1414742e-06
4.3012982e-06
4.4074074e-06
2.3400863e-06
2.419924e-06
2.4966054e-06
2.5744653e-06
2.6510665e-06
2.7277059e-06
2.8036657e-06
2.8794851e-06
2.9551211e-06
3.0311725e-06
3.1086597e-06
3.1940413e-06
3.3502373e-06
6.472051e-06
6.6648677e-06
6.8665193e-06
7.127143e-06
5.9056105e-06
5.9784959e-06
6.0759587e-06
6.1601853e-06
6.2449523e-06
6.3245926e-06
6.4016213e-06
6.4748977e-06
6.5448378e-06
6.6112409e-06
6.6741566e-06
6.7335894e-06
6.7895034e-06
6.8418784e-06
6.8907191e-06
6.9360023e-06
6.9778348e-06
7.0161705e-06
7.0511066e-06
7.0825914e-06
7.1107875e-06
7.1356755e-06
7.1573778e-06
7.1758641e-06
7.1912792e-06
7.2036342e-06
7.213036e-06
7.2195883e-06
7.2232514e-06
7.2240294e-06
7.2222528e-06
7.2178503e-06
7.2107415e-06
7.2008888e-06
7.1886256e-06
7.1747039e-06
7.158726e-06
7.1396362e-06
7.118814e-06
7.0957964e-06
7.0708452e-06
7.043965e-06
7.0152736e-06
6.9847523e-06
6.9525374e-06
6.9186674e-06
6.883304e-06
6.8464393e-06
6.8081212e-06
6.7684064e-06
6.7274177e-06
6.6852626e-06
6.6419152e-06
6.5974067e-06
6.5517812e-06
6.5051345e-06
6.4574123e-06
6.4085581e-06
6.3585959e-06
6.307849e-06
6.2565283e-06
6.2043289e-06
6.1511314e-06
6.0971624e-06
6.0424817e-06
5.9872084e-06
5.9312015e-06
5.8744175e-06
5.8167807e-06
5.7583182e-06
5.6989849e-06
5.6389255e-06
5.5781876e-06
5.5168899e-06
5.4548322e-06
5.391906e-06
5.3281416e-06
5.2636935e-06
5.198418e-06
5.1321828e-06
5.0647844e-06
4.9966006e-06
4.9271024e-06
4.8565913e-06
4.7840719e-06
4.7104432e-06
4.6343157e-06
4.5568388e-06
4.4760778e-06
4.3938379e-06
4.3076114e-06
4.2195567e-06
4.1262234e-06
4.0303214e-06
3.9276469e-06
3.8217467e-06
3.7075289e-06
3.5889413e-06
3.459984e-06
3.3246552e-06
3.1764897e-06
3.0171071e-06
2.8276428e-06
2.6437145e-06
2.6101406e-06
2.6371672e-06
2.6982543e-06
2.7737136e-06
2.8594696e-06
2.9530253e-06
3.0510673e-06
3.1549281e-06
3.2622268e-06
3.3756097e-06
3.4930865e-06
3.6165967e-06
3.7452197e-06
3.8829447e-06
4.0386298e-06
4.2106237e-06
4.3926753e-06
4.583135e-06
4.7800522e-06
4.9825487e-06
5.1891501e-06
5.3983792e-06
5.6078808e-06
5.8155888e-06
6.0193523e-06
6.2144482e-06
6.3637471e-06
6.4796563e-06
6.5830437e-06
6.6817961e-06
6.7801458e-06
6.8838625e-06
6.9951458e-06
7.1198861e-06
7.2595554e-06
7.4261836e-06
7.6084071e-06
7.8627819e-06
8.0914955e-06
8.4720103e-06
1.5805721e-05
1.5465402e-06
1.5538876e-05
1.6696255e-06
1.8183588e-05
2.0632699e-06
2.3044429e-05
2.7302478e-05
1.8265272e-05
2.2910457e-05
2.8115437e-05
3.2842109e-05
3.5720925e-05
3.6270998e-05
3.4791113e-05
3.0723718e-05
2.7973342e-05
6.5187761e-06
2.4780602e-05
4.232139e-06
3.1768683e-06
1.2972013e-05
1.0583229e-05
3.5406816e-05
1.1978268e-05
3.42998e-05
3.7876599e-05
2.011298e-05
1.2385723e-05
5.8665518e-06
1.9806408e-06
5.1201341e-07
1.9570865e-07
1.2237932e-07
8.4817577e-08
7.0889971e-08
6.3911523e-08
5.91901e-08
5.6777947e-08
5.501268e-08
5.4265209e-08
5.3401766e-08
5.2963385e-08
5.2498974e-08
5.2535803e-08
5.3234864e-08
5.5084947e-08
5.771607e-08
6.1232048e-08
6.5650273e-08
7.1219298e-08
7.7985257e-08
8.6294304e-08
9.6319976e-08
1.0844741e-07
1.2290653e-07
1.4007808e-07
1.6000119e-07
1.8247729e-07
2.0717275e-07
2.3480484e-07
2.6579502e-07
3.006986e-07
3.3876424e-07
3.7849047e-07
4.1959416e-07
4.6192061e-07
5.0373611e-07
5.2965048e-07
3.0168784e-07
7.5341486e-07
8.1200916e-07
4.406325e-07
9.8404681e-07
9.1053216e-07
9.7510185e-07
1.0324983e-06
1.0826846e-06
1.1240606e-06
1.152133e-06
1.1679098e-06
1.1684865e-06
1.1662088e-06
1.1693555e-06
1.2353814e-06
1.5202542e-06
1.8128023e-06
2.3390182e-06
2.6880488e-06
2.9978762e-06
3.3283622e-06
3.6382121e-06
3.9610934e-06
4.2754136e-06
4.56488e-06
3.0307602e-06
5.1896534e-06
5.5077024e-06
5.818116e-06
6.1267288e-06
6.4368013e-06
6.7461609e-06
7.0564276e-06
7.366403e-06
7.6770356e-06
7.9879087e-06
8.3005999e-06
8.6211392e-06
8.8507441e-06
5.6159392e-06
5.8078938e-06
5.9916966e-06
6.1782628e-06
6.3617566e-06
6.5452654e-06
6.7270596e-06
6.9084074e-06
7.0891821e-06
7.2707756e-06
7.4555516e-06
7.6588496e-06
8.0161536e-06
1.2991696e-05
1.3380957e-05
1.3794786e-05
1.4375184e-05
1.2904538e-05
1.3064764e-05
1.3277834e-05
1.3462e-05
1.3647354e-05
1.3821512e-05
1.3989968e-05
1.4150231e-05
1.4303209e-05
1.4448463e-05
1.4586101e-05
1.4716132e-05
1.4838478e-05
1.4953095e-05
1.5059991e-05
1.5159118e-05
1.5250705e-05
1.5334655e-05
1.5411176e-05
1.5480158e-05
1.5541955e-05
1.5596522e-05
1.5644129e-05
1.5684708e-05
1.5718575e-05
1.5745753e-05
1.5766477e-05
1.578097e-05
1.5789156e-05
1.5791028e-05
1.5787315e-05
1.5777863e-05
1.5762493e-05
1.5741124e-05
1.5714482e-05
1.5684213e-05
1.5649449e-05
1.560788e-05
1.5562519e-05
1.5512357e-05
1.5457965e-05
1.5399352e-05
1.5336777e-05
1.5270198e-05
1.5199913e-05
1.5126006e-05
1.504883e-05
1.4968368e-05
1.4884724e-05
1.4798023e-05
1.4708533e-05
1.4616488e-05
1.4521833e-05
1.4424635e-05
1.4324991e-05
1.4223109e-05
1.4118873e-05
1.4012158e-05
1.3903017e-05
1.3792156e-05
1.3680035e-05
1.3565989e-05
1.3449759e-05
1.3331836e-05
1.3212355e-05
1.3091573e-05
1.2969184e-05
1.2845093e-05
1.2719134e-05
1.2591366e-05
1.2461692e-05
1.2330427e-05
1.2197674e-05
1.2063694e-05
1.1928049e-05
1.1790504e-05
1.1651122e-05
1.1510243e-05
1.1367552e-05
1.122276e-05
1.1075423e-05
1.0926366e-05
1.0774432e-05
1.0620282e-05
1.046174e-05
1.030077e-05
1.0134335e-05
9.9649485e-06
9.7883807e-06
9.6085771e-06
9.4200561e-06
9.2275366e-06
9.0234759e-06
8.8137983e-06
8.5893128e-06
8.3577738e-06
8.1080484e-06
7.8487685e-06
7.5668161e-06
7.2709336e-06
6.9469859e-06
6.5985261e-06
6.1846537e-06
5.7835354e-06
5.7108074e-06
5.7699673e-06
5.9036745e-06
6.0688743e-06
6.2566204e-06
6.4614531e-06
6.6761172e-06
6.903523e-06
7.1384653e-06
7.3867387e-06
7.6439757e-06
7.914428e-06
8.1960943e-06
8.497743e-06
8.8386069e-06
9.2149606e-06
9.6132114e-06
1.0029794e-05
1.0460429e-05
1.0903197e-05
1.1354852e-05
1.1812145e-05
1.2269934e-05
1.2723673e-05
1.3168654e-05
1.3594234e-05
1.3919579e-05
1.4172414e-05
1.4398132e-05
1.4613787e-05
1.4828571e-05
1.505513e-05
1.5298246e-05
1.5570761e-05
1.5875946e-05
1.6239992e-05
1.6638342e-05
1.7193928e-05
1.7697143e-05
1.849853e-05
2.9004933e-05
3.9048362e-06
2.8479843e-05
4.2211135e-06
3.3277802e-05
5.2499711e-06
4.2106952e-05
4.9783079e-05
3.9591287e-05
4.9765649e-05
6.0999559e-05
7.1198613e-05
7.7389299e-05
7.8599066e-05
7.543496e-05
6.6679767e-05
6.0754243e-05
1.6488923e-05
4.6474371e-05
1.0720377e-05
8.0194189e-06
2.8396509e-05
2.3632684e-05
6.8099677e-05
2.6738255e-05
6.5949312e-05
6.3667928e-05
3.85549e-05
2.3809746e-05
1.1295277e-05
3.8199987e-06
9.8465535e-07
3.7494099e-07
2.3373688e-07
1.6201154e-07
1.3532802e-07
1.2205183e-07
1.1302523e-07
1.0844847e-07
1.0507708e-07
1.0367488e-07
1.0203753e-07
1.0122139e-07
1.0034545e-07
1.0042549e-07
1.0175769e-07
1.0528838e-07
1.1031137e-07
1.170258e-07
1.2546162e-07
1.3609592e-07
1.490144e-07
1.6487949e-07
1.8402118e-07
2.0717657e-07
2.3478603e-07
2.6757672e-07
3.0562589e-07
3.4856649e-07
3.9576382e-07
4.4856837e-07
5.0779271e-07
5.7451148e-07
6.4730407e-07
7.2329498e-07
8.019327e-07
8.8293583e-07
9.6304392e-07
1.0149869e-06
6.4771658e-07
1.3240405e-06
1.4341103e-06
9.3534914e-07
1.7456024e-06
1.7471651e-06
1.87134e-06
1.9816088e-06
2.0780678e-06
2.1576127e-06
2.211634e-06
2.2420218e-06
2.2432472e-06
2.238958e-06
2.2452219e-06
2.3720364e-06
2.918693e-06
3.4781838e-06
4.2247228e-06
4.8463976e-06
5.4013329e-06
5.995445e-06
6.5524339e-06
7.1332985e-06
7.6986045e-06
8.2320284e-06
6.2952996e-06
9.3466042e-06
9.9161494e-06
1.0474825e-05
1.103025e-05
1.1588341e-05
1.2145161e-05
1.2703648e-05
1.326163e-05
1.382083e-05
1.438049e-05
1.494345e-05
1.552045e-05
1.5965651e-05
1.1682217e-05
1.20829e-05
1.2464689e-05
1.2852079e-05
1.3232976e-05
1.3613747e-05
1.3990784e-05
1.4366674e-05
1.4741108e-05
1.5116893e-05
1.5498784e-05
1.5917881e-05
1.661418e-05
2.3411834e-05
2.4113162e-05
2.4868832e-05
2.5989113e-05
2.4749491e-05
2.5058654e-05
2.5467239e-05
2.5820486e-05
2.6176001e-05
2.6510063e-05
2.6833198e-05
2.7140632e-05
2.7434102e-05
2.771277e-05
2.7976842e-05
2.8226335e-05
2.8461097e-05
2.8681044e-05
2.8886194e-05
2.9076451e-05
2.9252258e-05
2.9413422e-05
2.9560349e-05
2.9692823e-05
2.981152e-05
2.9916361e-05
3.0007854e-05
3.0085874e-05
3.0151025e-05
3.0203352e-05
3.02433e-05
3.0271291e-05
3.0287212e-05
3.0291007e-05
3.0284089e-05
3.0266166e-05
3.0236895e-05
3.0196113e-05
3.0145216e-05
3.0087358e-05
3.0020885e-05
2.9941352e-05
2.9854545e-05
2.9758525e-05
2.9654387e-05
2.9542151e-05
2.942231e-05
2.9294785e-05
2.9160147e-05
2.9018558e-05
2.8870692e-05
2.8716519e-05
2.8556237e-05
2.8390088e-05
2.821858e-05
2.8042167e-05
2.7860739e-05
2.7674429e-05
2.7483422e-05
2.7288116e-05
2.7088288e-05
2.68837e-05
2.6674455e-05
2.6461903e-05
2.6246926e-05
2.6028252e-05
2.5805383e-05
2.5579264e-05
2.5350148e-05
2.5118531e-05
2.4883826e-05
2.4645851e-05
2.4404288e-05
2.4159252e-05
2.3910555e-05
2.3658802e-05
2.340419e-05
2.3147219e-05
2.2887049e-05
2.2623231e-05
2.2355885e-05
2.2085664e-05
2.1811959e-05
2.1534226e-05
2.1251603e-05
2.0965679e-05
2.0674231e-05
2.0378531e-05
2.0074402e-05
1.9765615e-05
1.9446342e-05
1.9121404e-05
1.878269e-05
1.8437767e-05
1.8076119e-05
1.77068e-05
1.7315341e-05
1.6913108e-05
1.6482468e-05
1.6038298e-05
1.555924e-05
1.5061855e-05
1.4520974e-05
1.3953377e-05
1.3331939e-05
1.2663509e-05
1.1870277e-05
1.1102756e-05
1.0964478e-05
1.1078063e-05
1.1334821e-05
1.1652125e-05
1.2012761e-05
1.2406234e-05
1.2818609e-05
1.3255473e-05
1.3706833e-05
1.4183807e-05
1.4678007e-05
1.51976e-05
1.5738771e-05
1.6318435e-05
1.6973234e-05
1.7695806e-05
1.8460222e-05
1.9259711e-05
2.0086083e-05
2.0935602e-05
2.1802031e-05
2.2679154e-05
2.3557055e-05
2.442702e-05
2.527999e-05
2.6094953e-05
2.67175e-05
2.7201958e-05
2.7634945e-05
2.804874e-05
2.8460995e-05
2.8895957e-05
2.9362775e-05
2.9886051e-05
3.0472188e-05
3.1171189e-05
3.1936592e-05
3.3002775e-05
3.3975758e-05
3.5484005e-05
4.7712135e-05
8.8341309e-06
4.6845076e-05
9.5712334e-06
5.4673001e-05
1.1948817e-05
6.9133735e-05
8.1448772e-05
7.540595e-05
9.5096429e-05
0.00011640664
0.00013573843
0.00014744629
0.00014978409
0.00014383906
0.00012726801
0.00011605463
3.6751821e-05
7.8378933e-05
2.3959895e-05
1.7950983e-05
5.4580914e-05
4.799269e-05
0.00011961768
5.4253997e-05
0.00011580033
0.00010021745
6.7451974e-05
4.178841e-05
1.9859618e-05
6.7288227e-06
1.7322933e-06
6.5736432e-07
4.0872481e-07
2.831735e-07
2.363792e-07
2.131869e-07
1.9740365e-07
1.8941732e-07
1.8352697e-07
1.8109327e-07
1.7824576e-07
1.7683561e-07
1.7531469e-07
1.7545512e-07
1.7776602e-07
1.8391253e-07
1.9266794e-07
2.0437741e-07
2.1908999e-07
2.3764003e-07
2.6017466e-07
2.8785048e-07
3.2124242e-07
3.6164091e-07
4.0981105e-07
4.6702223e-07
5.3342154e-07
6.0836781e-07
6.9079035e-07
7.8298438e-07
8.863876e-07
1.0028996e-06
1.1300675e-06
1.2628603e-06
1.4002931e-06
1.5418986e-06
1.6820996e-06
1.7775015e-06
1.252899e-06
2.1733471e-06
2.3659444e-06
1.7878322e-06
2.8889407e-06
3.060112e-06
3.2774772e-06
3.4707834e-06
3.6399445e-06
3.7794784e-06
3.8743371e-06
3.9277552e-06
3.9301447e-06
3.9228447e-06
3.9343601e-06
4.1568527e-06
5.1145018e-06
6.0913868e-06
7.0982224e-06
8.132989e-06
9.0603132e-06
1.0055259e-05
1.0987976e-05
1.1961092e-05
1.2907701e-05
1.3821506e-05
1.1757559e-05
1.5674183e-05
1.6623425e-05
1.7559519e-05
1.8490131e-05
1.9425229e-05
2.0358196e-05
2.1293972e-05
2.2228907e-05
2.31659e-05
2.4103674e-05
2.5046951e-05
2.6013209e-05
2.6809963e-05
2.1854143e-05
2.2606168e-05
2.331924e-05
2.4042526e-05
2.4753496e-05
2.5463967e-05
2.6167183e-05
2.6867894e-05
2.7565451e-05
2.8264951e-05
2.8974996e-05
2.9751428e-05
3.0957148e-05
3.9261956e-05
4.0432894e-05
4.1707745e-05
4.3664849e-05
4.3306301e-05
4.385041e-05
4.4565005e-05
4.5183064e-05
4.5805053e-05
4.6389567e-05
4.6954977e-05
4.7492948e-05
4.8006516e-05
4.8494214e-05
4.8956402e-05
4.9393109e-05
4.9804069e-05
5.0189135e-05
5.0548338e-05
5.0881509e-05
5.118942e-05
5.1471736e-05
5.1729162e-05
5.1961322e-05
5.2169396e-05
5.2353244e-05
5.2513752e-05
5.2650702e-05
5.2765146e-05
5.2857165e-05
5.2927533e-05
5.2976964e-05
5.3005347e-05
5.3012474e-05
5.3000852e-05
5.2969988e-05
5.2919272e-05
5.2848411e-05
5.2759841e-05
5.2659087e-05
5.2543272e-05
5.2404595e-05
5.2253178e-05
5.2085637e-05
5.1903883e-05
5.1707949e-05
5.1498696e-05
5.1275991e-05
5.1040826e-05
5.0793489e-05
5.0535153e-05
5.0265769e-05
4.9985682e-05
4.9695316e-05
4.9395557e-05
4.90872e-05
4.8770052e-05
4.8444347e-05
4.8110407e-05
4.7768929e-05
4.7419524e-05
4.7061776e-05
4.6695871e-05
4.632416e-05
4.5948184e-05
4.5565726e-05
4.5175918e-05
4.4780406e-05
4.4379636e-05
4.3974472e-05
4.3563891e-05
4.3147575e-05
4.2724972e-05
4.229628e-05
4.1861168e-05
4.14207e-05
4.0975212e-05
4.0525585e-05
4.0070346e-05
3.9608719e-05
3.9140903e-05
3.8668047e-05
3.8189077e-05
3.7703057e-05
3.7208466e-05
3.6708089e-05
3.6198033e-05
3.568053e-05
3.5148272e-05
3.4607849e-05
3.4049074e-05
3.3480377e-05
3.2887569e-05
3.2283884e-05
3.1650927e-05
3.1004536e-05
3.0319399e-05
2.9615401e-05
2.886169e-05
2.8084292e-05
2.7245831e-05
2.6375292e-05
2.5428623e-05
2.4435198e-05
2.3347531e-05
2.2177665e-05
2.0790539e-05
1.9450552e-05