/*--------------------------------*- C++ -*----------------------------------*\
| =========                 |                                                 |
| \\      /  F ield         | OpenFOAM: The Open Source CFD Toolbox           |
|  \\    /   O peration     | Version:  2.4.0                                 |
|   \\  /    A nd           | Web:      www.OpenFOAM.org                      |
|    \\/     M anipulation  |                                                 |
\*---------------------------------------------------------------------------*/
FoamFile
{
    version     2.0;
    format      ascii;
    class       volScalarField;
    location    "140";
    object      p;
}
// * * * * * * * * * * * * * * * * * * * * * * * * * * * * * * * * * * * * * //

dimensions      [0 2 -2 0 0 0 0];

internalField   nonuniform List<scalar> 
78300
(
-0.12123821
-0.065017794
-0.077659649
-0.063733779
-0.070854982
-0.058436745
-0.053709354
-0.036743891
-0.026048997
-0.015285402
-0.011855428
-0.0077641084
-0.0066901472
-0.0049087518
-0.0044184796
-0.0033444597
-0.002957729
-0.0022127261
-0.0018388773
-0.0013042036
-0.0010027906
-0.00065296773
-0.00046529953
-0.00027888486
-0.00019026215
-0.00011011565
-8.1591324e-05
-8.0584889e-05
-0.0001022467
-0.00014619891
-0.00019918054
-0.00026296123
-0.00032892083
-0.00038438366
-0.00042509077
-0.00042777862
-0.00039624243
-0.00034611897
-0.00027192552
-0.0001573387
-2.8988992e-10
0.00024745537
0.0003957179
0.00060417361
0.00080003048
0.00094039077
0.0011310658
0.0012873747
0.0014350658
0.0015548262
0.0016392668
0.0016973571
0.0017041648
0.0016762342
0.0015799437
0.0014441681
0.0012098293
0.00093537263
0.0005196735
7.5638673e-05
-0.00057544333
-0.0012191315
-0.0021868861
-0.0028211111
-0.0034085994
-0.0038067047
-0.0041596971
-0.0043641962
-0.004511567
-0.0045411704
-0.004511177
-0.0043860647
-0.004203109
-0.0039416003
-0.0036241702
-0.0032376168
-0.002797775
-0.0022966473
-0.001744054
-0.0011360275
-0.00047859649
0.00023094494
0.0009884932
0.0017944128
0.0026456641
0.003542886
0.0044842607
0.0054683063
0.0064931503
0.0075595214
0.0086663961
0.0098126468
0.010997213
0.012219128
0.013477275
0.014770152
0.016096067
0.017453456
0.018840498
0.020254519
0.021697103
0.023167249
0.024662105
0.026180137
0.027716365
0.029270524
0.030845748
0.032438716
0.034048629
0.035673284
0.037312461
0.038965621
0.040631347
0.042307383
0.043992473
0.045686854
0.047390565
0.04910156
0.050817843
0.052536123
0.054256399
0.055977087
0.057697516
0.059413897
0.06112629
0.062833715
0.064537138
0.066233619
0.06792371
0.069606299
0.071281612
0.072948719
0.074607032
0.076255979
0.07789475
0.079525056
0.081145612
0.082755983
0.084353092
0.085937331
0.087506565
0.089060842
0.090599272
0.092121248
0.09362669
0.095115271
0.096587004
0.098040013
0.099473802
0.10088718
0.10228378
0.10366261
0.10502416
0.10636639
0.10769273
0.10900491
0.1103037
0.11158719
0.11285511
0.11410961
0.1153492
0.11657048
0.11776925
0.11895178
0.12012632
0.12128818
0.12243081
0.12355519
0.12466405
0.12576043
0.12684168
0.1279038
0.12894622
0.12996572
0.13096377
0.13193897
0.13289905
0.1338436
0.13477661
0.13568841
0.13658861
0.13747494
0.13835731
0.13922215
0.14008031
0.14092706
0.14177319
0.14260499
0.14342867
0.14423661
0.14503848
0.14582147
0.14659695
0.14735471
0.14811228
0.14885077
0.14958816
0.15029773
0.15100927
0.15169348
0.15239204
0.15306153
0.15375345
0.15441089
0.15510073
0.15574866
0.15643984
0.15707888
0.15778306
0.15844528
0.15917348
0.15987449
0.160633
0.16137496
0.16216561
0.16294704
0.16376912
0.16458494
0.16543223
0.16627078
0.1671286
0.16796965
0.16881353
0.16961963
0.17039265
0.17109934
0.1717296
0.17225215
0.17265138
0.17290708
0.17299284
0.17290765
0.17262326
0.17211644
0.1713528
0.17036988
0.16918928
0.16781114
0.16622596
0.16440875
0.16233618
0.15995237
0.15724863
0.15413625
0.15060464
0.14650047
0.14179409
0.13622629
0.12948221
0.12102771
0.11115546
0.098999774
0.085189151
0.068327271
0.049747313
0.026359876
0.0011582041
-0.030492811
-0.063473346
-0.10478286
-0.1434234
-0.18733475
-0.21110332
-0.23272775
-0.22997798
-0.23343173
-0.2123692
-0.21104944
-0.18077615
-0.18518715
-0.12124206
-0.065021248
-0.077661279
-0.06373408
-0.070849302
-0.058439835
-0.053713796
-0.036769534
-0.026074505
-0.01531218
-0.011870905
-0.0077791234
-0.0066977217
-0.0049161388
-0.0044230383
-0.0033497055
-0.0029612773
-0.0022168089
-0.0018419642
-0.0013074117
-0.001005199
-0.00065516419
-0.00046678447
-0.00028007444
-0.00019099408
-0.00011056778
-8.1850926e-05
-8.053562e-05
-0.00010211045
-0.00014582544
-0.00019878185
-0.00026245269
-0.00032839186
-0.00038392625
-0.00042476875
-0.00042771802
-0.00039642771
-0.00034648971
-0.00027249244
-0.00015829827
-1.131405e-06
0.00024579336
0.00039458975
0.00060303777
0.00079849506
0.00093935143
0.0011297449
0.0012863924
0.0014341246
0.0015540831
0.0016387009
0.0016970016
0.0017039661
0.0016762317
0.0015800496
0.0014444496
0.0012101516
0.00093581348
0.00052005298
7.6052706e-05
-0.00057517418
-0.0012188288
-0.0021861955
-0.0028202404
-0.0034078938
-0.0038059964
-0.0041590271
-0.0043635204
-0.0045109106
-0.004540507
-0.0045105214
-0.0043854011
-0.0042024462
-0.0039409297
-0.0036234989
-0.0032369353
-0.0027970903
-0.0022959544
-0.0017433582
-0.0011353257
-0.00047789194
0.00023165326
0.00098920306
0.0017951231
0.0026463739
0.0035435945
0.0044849677
0.0054690101
0.0064938472
0.007560214
0.0086670811
0.0098133242
0.010997883
0.012219786
0.013477923
0.014770785
0.016096689
0.017454062
0.01884109
0.020255092
0.021697662
0.023167798
0.024662637
0.026180652
0.027716847
0.029270979
0.030846176
0.032439125
0.034049011
0.035673648
0.037312796
0.038965936
0.040631635
0.042307651
0.043992712
0.045687071
0.047390757
0.049101725
0.050817984
0.052536236
0.054256488
0.055977148
0.057697555
0.05941391
0.061126278
0.06283368
0.064537078
0.066233539
0.067923604
0.069606174
0.071281463
0.07294855
0.074606841
0.076255768
0.07789452
0.079524805
0.081145344
0.082755691
0.084352787
0.085937003
0.087506223
0.089060479
0.090598897
0.092120853
0.093626283
0.095114844
0.096586569
0.098039563
0.099473339
0.10088671
0.10228329
0.10366212
0.10502365
0.10636589
0.10769221
0.10900438
0.11030316
0.11158664
0.11285456
0.11410904
0.11534864
0.1165699
0.11776867
0.1189512
0.12012573
0.12128759
0.12243021
0.12355458
0.12466345
0.12575982
0.12684106
0.12790318
0.1289456
0.1299651
0.13096315
0.13193836
0.13289844
0.13384299
0.134776
0.13568781
0.136588
0.13747434
0.1383567
0.13922155
0.14007971
0.14092646
0.14177259
0.14260439
0.14342808
0.14423601
0.14503789
0.14582088
0.14659637
0.14735413
0.14811171
0.14885021
0.14958761
0.15029718
0.15100874
0.15169295
0.15239153
0.15306103
0.15375297
0.15441042
0.15510028
0.15574822
0.15643943
0.1570786
0.15778309
0.15844568
0.15917425
0.15987562
0.16063454
0.16137687
0.16216792
0.16294971
0.16377218
0.16458833
0.16543596
0.16627478
0.16713284
0.16797404
0.16881797
0.16962399
0.17039676
0.17110303
0.17173272
0.1722545
0.17265278
0.17290736
0.17299187
0.17290521
0.1726193
0.17211083
0.17134565
0.1703614
0.16917946
0.16779992
0.16621323
0.16439431
0.16231982
0.15993387
0.15722761
0.15411242
0.15057726
0.14646905
0.14175732
0.1361828
0.12942817
0.12096385
0.11107951
0.098912689
0.085087282
0.068213049
0.049615306
0.026214671
0.00099188042
-0.030666241
-0.063661291
-0.10495835
-0.1435836
-0.18742938
-0.21114683
-0.23272706
-0.22996598
-0.23341124
-0.21235556
-0.21104042
-0.18077185
-0.1851875
-0.12124615
-0.065024556
-0.077663429
-0.063733817
-0.070843172
-0.058442582
-0.053718153
-0.036796399
-0.026101388
-0.015340762
-0.011887643
-0.0077954061
-0.0067058935
-0.0049241121
-0.0044280268
-0.003355394
-0.0029651162
-0.002221203
-0.0018452957
-0.0013108719
-0.0010078064
-0.00065754048
-0.00046839727
-0.00028136807
-0.00019178931
-0.00011103939
-8.2178857e-05
-8.0462466e-05
-0.0001020131
-0.0001454078
-0.00019839084
-0.00026190321
-0.00032781837
-0.0003834255
-0.00042441716
-0.0004276683
-0.00039665677
-0.00034690033
-0.00027309627
-0.00015941355
-2.4290778e-06
0.00024375136
0.0003934721
0.00060195083
0.00079679761
0.00093842273
0.0011283106
0.0012853909
0.0014330839
0.001553257
0.0016380706
0.0016966049
0.0017037388
0.0016762173
0.0015801505
0.0014447424
0.0012104861
0.00093628139
0.00052045352
7.6503273e-05
-0.00057487716
-0.0012184609
-0.0021854044
-0.0028192395
-0.0034070829
-0.0038051849
-0.0041582654
-0.004362754
-0.004510171
-0.0045397609
-0.004509788
-0.0043846599
-0.0042017087
-0.0039401844
-0.0036227559
-0.0032361811
-0.0027963347
-0.0022951899
-0.0017425924
-0.0011345538
-0.00047711837
0.0002324303
0.0009899807
0.0017959
0.0026471493
0.0035443674
0.0044857384
0.0054697767
0.0064946045
0.0075609665
0.0086678245
0.0098140587
0.010998608
0.012220498
0.013478624
0.014771467
0.016097358
0.017454711
0.018841724
0.020255704
0.021698259
0.023168386
0.024663205
0.026181204
0.02771736
0.029271463
0.030846628
0.032439559
0.034049414
0.035674034
0.037313147
0.03896627
0.040631937
0.042307933
0.043992962
0.045687299
0.047390958
0.049101896
0.05081813
0.052536348
0.054256575
0.055977203
0.057697587
0.059413913
0.061126253
0.062833631
0.064537
0.066233439
0.067923476
0.069606028
0.071281288
0.072948355
0.074606622
0.076255529
0.077894261
0.07952452
0.081145043
0.082755361
0.084352445
0.085936634
0.08750584
0.089060071
0.090598477
0.092120411
0.093625828
0.095114367
0.096586082
0.098039062
0.099472823
0.10088619
0.10228275
0.10366158
0.10502309
0.10636533
0.10769163
0.10900381
0.11030257
0.11158604
0.11285396
0.11410842
0.11534801
0.11656926
0.11776804
0.11895056
0.12012509
0.12128694
0.12242956
0.12355391
0.12466279
0.12575914
0.12684039
0.1279025
0.12894491
0.12996442
0.13096246
0.13193769
0.13289776
0.13384233
0.13477532
0.13568715
0.13658733
0.13747368
0.13835603
0.13922089
0.14007905
0.14092581
0.14177194
0.14260373
0.14342743
0.14423536
0.14503725
0.14582024
0.14659574
0.1473535
0.1481111
0.14884959
0.149587
0.15029658
0.15100817
0.15169238
0.15239099
0.15306049
0.15375246
0.15440991
0.15509981
0.15574776
0.156439
0.1570783
0.15778312
0.1584461
0.15917507
0.15987684
0.16063618
0.16137891
0.1621704
0.16295258
0.16377546
0.16459196
0.16543995
0.16627906
0.16713737
0.16797873
0.1688227
0.16962865
0.17040113
0.17110697
0.17173602
0.17225698
0.17265423
0.17290759
0.17299077
0.17290251
0.17261497
0.1721047
0.17133787
0.1703522
0.16916884
0.16778779
0.16619949
0.16437872
0.16230213
0.15991386
0.15720488
0.15408664
0.15054763
0.14643509
0.14171754
0.13613577
0.12936976
0.12089471
0.11099741
0.098818435
0.084977274
0.068089566
0.049473071
0.02605809
0.00081256273
-0.030853002
-0.063863141
-0.10514607
-0.1437539
-0.18752843
-0.2111908
-0.23272421
-0.22995117
-0.23338822
-0.21233962
-0.21103063
-0.18076631
-0.18518817
-0.12124983
-0.065027416
-0.077665362
-0.063733227
-0.070837079
-0.058445334
-0.053722531
-0.036822875
-0.026127624
-0.015368867
-0.01190419
-0.0078115965
-0.0067139065
-0.0049319942
-0.0044330363
-0.0033610677
-0.0029689257
-0.0022255477
-0.0018485944
-0.0013142988
-0.0010103949
-0.00065989804
-0.00047000138
-0.00028265811
-0.00019257845
-0.00011148083
-8.2562697e-05
-8.0361086e-05
-0.00010198139
-0.00014497594
-0.0001980592
-0.00026136493
-0.00032725682
-0.00038293281
-0.00042407849
-0.00042765622
-0.00039693995
-0.00034734017
-0.00027369942
-0.00016063162
-3.8309687e-06
0.00024137232
0.00039247779
0.00060103272
0.00079503964
0.00093774076
0.0011268692
0.0012844694
0.0014320161
0.0015524045
0.0016374217
0.0016961976
0.0017035051
0.0016761971
0.0015802476
0.0014450325
0.0012108209
0.00093675084
0.00052086069
7.6963079e-05
-0.00057456173
-0.0012180735
-0.0021846388
-0.0028182649
-0.0034062869
-0.0038043903
-0.0041575193
-0.0043620037
-0.0045094467
-0.0045390296
-0.0045090688
-0.0043839322
-0.0042009843
-0.0039394513
-0.0036220259
-0.0032354383
-0.0027955908
-0.0022944357
-0.0017418376
-0.001133792
-0.00047635508
0.00023319749
0.00099074844
0.0017966666
0.0026479145
0.00354513
0.0044864988
0.0054705332
0.0064953512
0.0075617095
0.008668558
0.0098147839
0.010999325
0.0122212
0.013479316
0.014772139
0.01609802
0.017455351
0.018842349
0.020256305
0.021698844
0.023168965
0.024663763
0.026181748
0.027717864
0.029271939
0.030847069
0.032439985
0.034049808
0.035674415
0.037313491
0.038966599
0.040632234
0.042308213
0.043993208
0.045687526
0.047391157
0.049102064
0.050818274
0.052536458
0.05425666
0.055977254
0.057697617
0.059413914
0.061126225
0.062833582
0.06453692
0.066233339
0.067923347
0.069605883
0.071281113
0.072948161
0.074606404
0.076255291
0.077894004
0.079524238
0.081144745
0.082755031
0.084352107
0.085936265
0.08750546
0.089059662
0.09059806
0.092119968
0.093625374
0.095113887
0.096585597
0.098038561
0.099472306
0.10088567
0.1022822
0.10366104
0.10502253
0.10636479
0.10769106
0.10900324
0.11030199
0.11158545
0.11285336
0.11410779
0.1153474
0.11656862
0.11776741
0.11894994
0.12012445
0.12128629
0.1224289
0.12355323
0.12466213
0.12575845
0.12683972
0.12790181
0.12894422
0.12996374
0.13096177
0.13193703
0.13289708
0.13384167
0.13477465
0.1356865
0.13658667
0.13747303
0.13835538
0.13922025
0.1400784
0.14092516
0.14177129
0.14260308
0.14342679
0.14423471
0.14503662
0.1458196
0.14659512
0.14735288
0.14811049
0.14884897
0.14958641
0.15029599
0.1510076
0.15169182
0.15239045
0.15305995
0.15375195
0.15440941
0.15509934
0.15574729
0.15643857
0.15707799
0.15778315
0.15844651
0.15917588
0.15987804
0.16063781
0.16138093
0.16217286
0.16295542
0.16377871
0.16459557
0.16544392
0.16628331
0.16714186
0.16798338
0.16882738
0.16963328
0.17040546
0.17111088
0.17173928
0.17225943
0.17265565
0.17290781
0.17298968
0.17289984
0.17261067
0.1720986
0.17133014
0.17034304
0.16915829
0.16777574
0.16618586
0.16436323
0.16228454
0.15989394
0.15718223
0.15406098
0.1505181
0.14640126
0.14167792
0.13608895
0.12931169
0.12082575
0.11091576
0.09872445
0.084867996
0.067966604
0.049332216
0.025903007
0.00063493364
-0.031037609
-0.06406166
-0.10532947
-0.1439186
-0.18762154
-0.21122974
-0.23271787
-0.22993427
-0.23336415
-0.21232307
-0.21102065
-0.18076056
-0.18518867
-0.12125324
-0.065030021
-0.077666915
-0.063732394
-0.070830649
-0.058448232
-0.05372713
-0.036850118
-0.026154214
-0.015397516
-0.011921094
-0.0078282421
-0.0067220552
-0.0049400688
-0.0044382284
-0.0033669209
-0.0029728445
-0.002230008
-0.0018519844
-0.0013178194
-0.001013058
-0.00066232239
-0.00047165294
-0.00028398919
-0.00019338896
-0.00011191361
-8.2998983e-05
-8.0233839e-05
-0.00010199539
-0.00014451873
-0.00019776034
-0.00026081962
-0.000326689
-0.00038243378
-0.00042374165
-0.0004276755
-0.00039727935
-0.00034782602
-0.00027432641
-0.00016195382
-5.3482945e-06
0.00023865143
0.0003915252
0.00060018542
0.00079316031
0.00093719958
0.0011253647
0.0012835663
0.0014308896
0.0015515003
0.0016367335
0.001695765
0.0017032559
0.0016761692
0.0015803438
0.0014453294
0.001211169
0.00093723866
0.0005212911
7.7446763e-05
-0.00057421761
-0.0012176653
-0.0021838913
-0.0028173058
-0.0034054948
-0.0038036013
-0.0041567764
-0.0043612562
-0.0045087232
-0.0045382979
-0.0045083479
-0.0043832013
-0.0042002555
-0.0039387121
-0.0036212895
-0.0032346873
-0.0027948382
-0.0022936712
-0.0017410724
-0.0011330186
-0.00047557991
0.00023397731
0.00099152906
0.001797446
0.0026486926
0.0035459056
0.0044872718
0.0054713026
0.006496111
0.0075624666
0.0086693055
0.0098155233
0.011000057
0.012221917
0.013480022
0.014772823
0.016098694
0.017456002
0.018842985
0.020256917
0.021699441
0.023169555
0.024664333
0.026182305
0.027718375
0.029272424
0.030847517
0.032440421
0.034050209
0.035674806
0.037313842
0.038966937
0.040632539
0.042308503
0.043993461
0.045687762
0.047391365
0.049102239
0.050818425
0.052536572
0.054256748
0.055977308
0.057697649
0.059413915
0.061126197
0.062833532
0.064536838
0.066233239
0.067923216
0.069605738
0.071280935
0.072947966
0.074606183
0.076255051
0.077893745
0.079523951
0.081144443
0.082754694
0.084351764
0.085935887
0.087505072
0.089059242
0.090597633
0.092119514
0.093624909
0.095113392
0.096585099
0.098038046
0.099471775
0.10088514
0.10228164
0.10366049
0.10502196
0.10636423
0.10769047
0.10900265
0.11030139
0.11158484
0.11285275
0.11410715
0.11534676
0.11656796
0.11776677
0.11894929
0.1201238
0.12128562
0.12242824
0.12355254
0.12466146
0.12575775
0.12683903
0.1279011
0.12894351
0.12996304
0.13096106
0.13193635
0.13289639
0.133841
0.13477396
0.13568583
0.13658599
0.13747237
0.1383547
0.13921959
0.14007774
0.1409245
0.14177063
0.14260242
0.14342613
0.14423405
0.14503597
0.14581895
0.14659449
0.14735224
0.14810987
0.14884833
0.14958579
0.15029537
0.15100701
0.15169124
0.15238989
0.15305939
0.15375142
0.15440888
0.15509885
0.15574681
0.15643813
0.15707766
0.15778317
0.15844692
0.15917671
0.15987927
0.16063948
0.16138301
0.1621754
0.16295835
0.16378207
0.1645993
0.16544801
0.16628769
0.1671465
0.16798818
0.16883221
0.16963806
0.17040992
0.17111491
0.17174265
0.17226196
0.17265711
0.17290804
0.17298857
0.17289709
0.17260625
0.17209231
0.17132216
0.17033361
0.16914743
0.16776334
0.16617185
0.16434728
0.16226642
0.15987338
0.15715886
0.1540345
0.15048761
0.14636637
0.14163701
0.13604063
0.12925189
0.12075449
0.11083167
0.098627393
0.084755606
0.067839886
0.04918772
0.025744129
0.0004531313
-0.031226056
-0.064263268
-0.10551391
-0.144082
-0.18770977
-0.21126301
-0.23270604
-0.22991366
-0.23333746
-0.21230527
-0.21100988
-0.1807546
-0.18518882
-0.12125636
-0.065032369
-0.077668051
-0.063731199
-0.070823696
-0.058451052
-0.053731834
-0.036878131
-0.026181178
-0.015426701
-0.01193837
-0.0078453606
-0.0067303804
-0.0049483609
-0.0044436119
-0.0033729626
-0.0029768878
-0.0022346003
-0.0018554807
-0.0013214464
-0.0010158058
-0.00066482218
-0.00047335815
-0.0002853651
-0.00019422401
-0.00011234269
-8.3479084e-05
-8.0084288e-05
-0.00010204321
-0.00014403706
-0.00019748287
-0.00026026469
-0.00032611193
-0.00038192561
-0.00042340212
-0.0004277167
-0.00039766336
-0.00034835241
-0.00027497466
-0.00016335069
-6.9377776e-06
0.00023562254
0.00039057483
0.0005993603
0.00079115716
0.00093674472
0.0011237921
0.0012826603
0.001429704
0.0015505424
0.0016360022
0.0016953013
0.001702985
0.0016761275
0.0015804337
0.0014456279
0.0012115259
0.00093774114
0.00052174151
7.7951561e-05
-0.00057384784
-0.001217239
-0.0021831632
-0.0028163597
-0.0034047043
-0.0038028157
-0.0041560345
-0.0043605095
-0.0045079984
-0.0045375639
-0.0045076229
-0.0043824653
-0.0041995208
-0.0039379646
-0.0036205438
-0.0032339259
-0.0027940746
-0.0022928942
-0.0017402947
-0.0011322317
-0.00047479082
0.00023477172
0.00099232443
0.0017982402
0.0026494858
0.0035466963
0.0044880583
0.0054720859
0.0064968859
0.0075632396
0.0086700685
0.0098162786
0.011000805
0.012222649
0.013480744
0.014773522
0.016099384
0.017456666
0.018843635
0.020257544
0.021700053
0.023170158
0.024664914
0.026182874
0.027718896
0.029272919
0.030847974
0.032440868
0.034050618
0.035675207
0.0373142
0.038967284
0.040632851
0.042308801
0.043993721
0.045688005
0.04739158
0.04910242
0.050818581
0.05253669
0.05425684
0.055977363
0.057697683
0.059413918
0.061126168
0.062833483
0.064536755
0.066233137
0.067923081
0.06960559
0.071280753
0.072947766
0.074605958
0.076254806
0.077893481
0.079523657
0.081144136
0.082754348
0.084351413
0.085935499
0.087504675
0.08905881
0.090597195
0.092119046
0.09362443
0.095112883
0.096584587
0.098037517
0.099471227
0.1008846
0.10228106
0.10365992
0.10502137
0.10636366
0.10768986
0.10900206
0.11030077
0.11158421
0.11285213
0.11410649
0.11534611
0.11656729
0.11776611
0.11894864
0.12012313
0.12128494
0.12242755
0.12355183
0.12466078
0.12575702
0.12683831
0.12790037
0.12894278
0.12996232
0.13096033
0.13193565
0.13289567
0.13384031
0.13477325
0.13568515
0.13658529
0.1374717
0.13835401
0.13921892
0.14007706
0.14092382
0.14176996
0.14260173
0.14342546
0.14423337
0.14503531
0.14581828
0.14659384
0.14735157
0.14810923
0.14884768
0.14958516
0.15029474
0.15100641
0.15169064
0.15238932
0.15305882
0.15375089
0.15440834
0.15509835
0.15574631
0.15643766
0.15707732
0.15778318
0.15844734
0.15917756
0.15988053
0.16064121
0.16138516
0.16217801
0.16296138
0.16378555
0.16460315
0.16545224
0.16629222
0.16715129
0.16799314
0.16883719
0.16964302
0.17041453
0.17111909
0.17174613
0.17226458
0.17265863
0.17290829
0.17298745
0.17289427
0.1726017
0.17208582
0.17131393
0.17032387
0.16913622
0.16775053
0.1661574
0.16433081
0.1622477
0.15985213
0.15713469
0.15400712
0.15045606
0.14633028
0.1415947
0.13599063
0.12919026
0.12068068
0.110745
0.098526974
0.084639923
0.067709072
0.049039393
0.02558145
0.00026717394
-0.031418161
-0.064467542
-0.1056983
-0.1442423
-0.18779057
-0.21128793
-0.23268641
-0.22988761
-0.23330704
-0.21228567
-0.21099797
-0.18074833
-0.1851886
-0.12125922
-0.065034422
-0.077668711
-0.063729527
-0.070816031
-0.058453555
-0.053736524
-0.036906867
-0.026208478
-0.015456348
-0.011955976
-0.0078629241
-0.0067388921
-0.0049568707
-0.00444918
-0.0033791865
-0.0029810573
-0.0022393281
-0.0018590874
-0.0013251817
-0.0010186405
-0.0006673987
-0.00047511829
-0.00028678589
-0.00019508437
-0.0001127726
-8.3994356e-05
-7.9916904e-05
-0.00010211448
-0.00014353384
-0.00019721753
-0.00025969921
-0.00032552404
-0.00038140668
-0.00042305658
-0.00042777151
-0.0003980805
-0.00034891237
-0.00027564121
-0.00016479741
-8.5692302e-06
0.00023232027
0.00038959475
0.00059851891
0.00078903875
0.00093632882
0.0011221511
0.001281733
0.0014284591
0.0015495285
0.0016352232
0.0016947999
0.0017026852
0.0016760648
0.0015805104
0.0014459214
0.0012118858
0.00093825278
0.00052220715
7.8472778e-05
-0.00057345652
-0.0012168005
-0.0021824619
-0.0028154317
-0.003403919
-0.0038020366
-0.0041552965
-0.004359766
-0.0045072745
-0.0045368294
-0.0045068957
-0.0043817257
-0.004198782
-0.0039372102
-0.0036197896
-0.0032331555
-0.0027933013
-0.0022921062
-0.0017395056
-0.0011314324
-0.00047398893
0.00023557959
0.0009931334
0.0017990482
0.0026502929
0.0035475008
0.0044888558
0.0054728807
0.0064976752
0.0075640276
0.0086708463
0.0098170489
0.011001568
0.012223395
0.013481481
0.014774235
0.016100087
0.017457343
0.018844298
0.020258188
0.02170068
0.023170773
0.024665506
0.026183452
0.027719425
0.029273425
0.030848439
0.032441323
0.034051035
0.035675618
0.037314565
0.03896764
0.040633171
0.042309107
0.043993988
0.045688256
0.047391801
0.049102606
0.050818742
0.052536811
0.054256934
0.05597742
0.057697717
0.05941392
0.061126139
0.062833432
0.064536668
0.066233033
0.067922943
0.069605439
0.071280566
0.072947562
0.074605727
0.076254555
0.077893212
0.079523357
0.081143822
0.082753993
0.084351055
0.0859351
0.087504267
0.089058366
0.090596745
0.092118565
0.093623938
0.095112358
0.09658406
0.098036972
0.099470663
0.10088404
0.10228046
0.10365935
0.10502076
0.10636308
0.10768924
0.10900145
0.11030015
0.11158357
0.11285149
0.11410581
0.11534545
0.11656659
0.11776543
0.11894797
0.12012245
0.12128423
0.12242684
0.12355109
0.12466007
0.12575627
0.12683758
0.12789961
0.12894202
0.12996158
0.13095957
0.13193493
0.13289493
0.1338396
0.13477252
0.13568446
0.13658457
0.13747101
0.1383533
0.13921823
0.14007636
0.14092312
0.14176926
0.14260103
0.14342477
0.14423266
0.14503463
0.14581759
0.14659317
0.1473509
0.14810857
0.148847
0.14958451
0.15029409
0.15100579
0.15169003
0.15238873
0.15305824
0.15375033
0.15440778
0.15509783
0.15574579
0.15643718
0.15707695
0.15778318
0.15844776
0.15917842
0.15988183
0.16064298
0.16138737
0.16218071
0.16296451
0.16378913
0.16460713
0.16545661
0.16629691
0.16715624
0.16799827
0.16884233
0.16964813
0.17041929
0.17112341
0.17174973
0.17226729
0.17266019
0.17290854
0.1729863
0.17289136
0.17259702
0.17207912
0.17130544
0.17031381
0.16912466
0.16773732
0.16614248
0.1643138
0.16222835
0.15983017
0.15710971
0.15397882
0.15042344
0.14629297
0.14155094
0.13593892
0.1291268
0.1206043
0.11065577
0.09842325
0.084521038
0.067574269
0.048887373
0.025415372
7.7632686e-05
-0.031613178
-0.064673288
-0.10588115
-0.14439711
-0.1878609
-0.21130146
-0.23265644
-0.22985426
-0.23327174
-0.21226368
-0.21098456
-0.18074164
-0.18518795
-0.12126174
-0.065036173
-0.07766882
-0.063727254
-0.070807432
-0.058455469
-0.053741049
-0.036936294
-0.026236115
-0.015486401
-0.011973881
-0.0078809118
-0.0067476009
-0.0049656057
-0.0044549273
-0.0033855901
-0.0029853568
-0.0022441971
-0.0018628098
-0.001329029
-0.0010215649
-0.00067005477
-0.00047693539
-0.00028825252
-0.00019597104
-0.00011320855
-8.4536857e-05
-7.9736425e-05
-0.00010219954
-0.00014301213
-0.00019695551
-0.00025912179
-0.00032492349
-0.00038087515
-0.00042270204
-0.00042783329
-0.00039852197
-0.00034950083
-0.00027632683
-0.00016627771
-1.0232704e-05
0.00022877913
0.00038855984
0.00059762925
0.00078681669
0.000935907
0.0011204399
0.0012807654
0.0014271511
0.0015484527
0.0016343891
0.0016942523
0.0017023474
0.0016759722
0.0015805654
0.0014462018
0.0012122415
0.00093876691
0.00052268226
7.9004533e-05
-0.00057305038
-0.0012163571
-0.0021817961
-0.0028145275
-0.0034031426
-0.0038012674
-0.0041545656
-0.0043590286
-0.004506554
-0.0045360966
-0.0045061682
-0.0043809843
-0.0041980413
-0.00393645
-0.003619027
-0.0032323771
-0.002792519
-0.002291308
-0.001738706
-0.0011306216
-0.00047317504
0.00023640012
0.00099395522
0.0017998692
0.0026511133
0.0035483187
0.0044896621
0.0054736847
0.0064984782
0.0075648299
0.0086716384
0.0098178337
0.011002345
0.012224156
0.013482232
0.01477496
0.016100803
0.017458031
0.018844974
0.02025885
0.021701325
0.023171401
0.02466611
0.026184039
0.027719959
0.029273939
0.030848912
0.032441788
0.03405146
0.035676037
0.037314938
0.038968003
0.040633497
0.04230942
0.043994261
0.045688513
0.047392027
0.049102797
0.050818906
0.052536935
0.054257029
0.055977477
0.057697751
0.059413922
0.061126107
0.06283338
0.064536579
0.066232926
0.0679228
0.069605285
0.071280375
0.072947352
0.074605491
0.076254298
0.077892936
0.079523049
0.081143501
0.082753627
0.084350688
0.08593469
0.087503848
0.089057909
0.090596283
0.09211807
0.093623432
0.095111817
0.096583518
0.098036412
0.099470083
0.10088346
0.10227985
0.10365875
0.10502013
0.10636248
0.1076886
0.10900082
0.1102995
0.11158291
0.11285083
0.11410512
0.11534477
0.11656587
0.11776474
0.11894728
0.12012174
0.12128351
0.12242611
0.12355033
0.12465935
0.1257555
0.12683682
0.12789883
0.12894123
0.12996081
0.13095879
0.13193419
0.13289417
0.13383888
0.13477176
0.13568374
0.13658384
0.1374703
0.13835257
0.13921752
0.14007564
0.14092241
0.14176855
0.1426003
0.14342406
0.14423194
0.14503393
0.14581688
0.14659249
0.1473502
0.14810789
0.1488463
0.14958384
0.15029342
0.15100515
0.15168939
0.15238813
0.15305763
0.15374976
0.15440721
0.15509729
0.15574525
0.15643669
0.15707656
0.15778317
0.15844818
0.15917931
0.15988316
0.1606448
0.16138965
0.16218349
0.16296773
0.16379282
0.16461123
0.16546111
0.16630174
0.16716135
0.16800356
0.16884764
0.16965342
0.17042421
0.17112787
0.17175344
0.1722701
0.1726618
0.1729088
0.17298511
0.17288837
0.17259218
0.1720722
0.17129667
0.17030343
0.16911272
0.16772367
0.16612709
0.16429622
0.16220837
0.15980747
0.15708388
0.15394957
0.15038971
0.1462544
0.1415057
0.1358854
0.12906152
0.12052526
0.11056399
0.098316103
0.084399017
0.06743549
0.048731667
0.025246196
-0.00011501462
-0.03181044
-0.064879542
-0.10606075
-0.14454408
-0.18791765
-0.2113004
-0.23261335
-0.22981151
-0.2332302
-0.21223865
-0.21096921
-0.18073438
-0.18518682
-0.12126394
-0.065037605
-0.077668295
-0.063724231
-0.07079764
-0.058456477
-0.053745221
-0.036966373
-0.026264117
-0.015516817
-0.01199205
-0.0078993094
-0.0067565153
-0.0049745731
-0.0044608492
-0.003392174
-0.002989789
-0.0022492141
-0.0018666527
-0.001332993
-0.0010245825
-0.00067279348
-0.00047881151
-0.000289766
-0.00019688496
-0.00011365534
-8.5099343e-05
-7.9547299e-05
-0.00010228949
-0.00014247468
-0.00019668867
-0.00025853081
-0.00032430835
-0.00038032929
-0.0004223361
-0.00042789692
-0.00039898143
-0.00035011483
-0.00027703484
-0.00016778211
-1.1930608e-05
0.00022503372
0.000387451
0.00059666478
0.00078450178
0.00093543817
0.0011186542
0.0012797377
0.0014257728
0.0015473066
0.0016334902
0.0016936475
0.0017019607
0.0016758388
0.0015805886
0.0014464593
0.0012125843
0.0009392751
0.00052315929
7.9539302e-05
-0.00057263644
-0.0012159182
-0.0021811753
-0.0028136533
-0.0034023793
-0.003800512
-0.0041538451
-0.0043583003
-0.0045058391
-0.0045353677
-0.0045054419
-0.0043802426
-0.004197301
-0.0039356851
-0.0036182562
-0.0032315917
-0.0027917285
-0.0022905005
-0.0017378964
-0.0011297999
-0.00047234967
0.00023723285
0.00099478946
0.001800703
0.0026519468
0.0035491495
0.0044904749
0.0054744958
0.0064992948
0.0075656462
0.0086724443
0.0098186326
0.011003136
0.012224931
0.013482996
0.014775699
0.016101532
0.017458732
0.018845663
0.020259533
0.021701992
0.02317204
0.024666725
0.02618463
0.027720495
0.029274462
0.030849393
0.03244226
0.034051893
0.035676463
0.037315317
0.038968372
0.040633829
0.042309739
0.043994538
0.045688774
0.047392257
0.04910299
0.050819072
0.052537059
0.054257124
0.055977533
0.057697783
0.059413921
0.061126071
0.062833324
0.064536484
0.066232813
0.067922652
0.069605124
0.071280177
0.072947136
0.074605246
0.076254032
0.077892652
0.079522731
0.081143169
0.082753249
0.084350309
0.085934267
0.087503416
0.089057437
0.090595806
0.09211756
0.093622909
0.095111259
0.096582958
0.098035833
0.099469484
0.10088287
0.10227922
0.10365814
0.10501949
0.10636187
0.10768794
0.10900018
0.11029884
0.11158223
0.11285016
0.1141044
0.11534406
0.11656513
0.11776402
0.11894657
0.12012102
0.12128276
0.12242536
0.12354955
0.1246586
0.1257547
0.12683604
0.12789803
0.12894043
0.12996001
0.13095799
0.13193343
0.13289339
0.13383813
0.13477099
0.13568301
0.13658308
0.13746957
0.13835182
0.1392168
0.14007491
0.14092168
0.14176782
0.14259956
0.14342333
0.1442312
0.14503321
0.14581615
0.14659178
0.14734948
0.1481072
0.14884559
0.14958316
0.15029273
0.15100449
0.15168874
0.15238751
0.15305701
0.15374917
0.15440662
0.15509674
0.1557447
0.15643617
0.15707615
0.15778316
0.15844861
0.15918021
0.15988453
0.16064668
0.16139199
0.16218635
0.16297105
0.16379664
0.16461547
0.16546577
0.16630673
0.16716663
0.16800903
0.16885314
0.16965889
0.17042929
0.17113249
0.17175728
0.17227299
0.17266347
0.17290907
0.17298389
0.17288528
0.17258718