/*--------------------------------*- C++ -*----------------------------------*\
| =========                 |                                                 |
| \\      /  F ield         | OpenFOAM: The Open Source CFD Toolbox           |
|  \\    /   O peration     | Version:  2.4.0                                 |
|   \\  /    A nd           | Web:      www.OpenFOAM.org                      |
|    \\/     M anipulation  |                                                 |
\*---------------------------------------------------------------------------*/
FoamFile
{
    version     2.0;
    format      ascii;
    class       volScalarField;
    location    "0";
    object      I02;
}
// * * * * * * * * * * * * * * * * * * * * * * * * * * * * * * * * * * * * * //

dimensions      [0 0 0 0 0 0 0];

internalField   nonuniform List<scalar> 
32000
(
-0.048047329
-0.048049982
-0.047977592
-0.047467217
-0.045937611
-0.042848449
-0.038164504
-0.032956695
-0.028766005
-0.025664953
-0.023423395
-0.021833064
-0.020713937
-0.019971502
-0.019540189
-0.019396422
-0.019530146
-0.019880576
-0.020248268
-0.020585808
-0.020893308
-0.021167035
-0.021403242
-0.021603506
-0.021760129
-0.021877308
-0.021955875
-0.022087468
-0.022350759
-0.022758492
-0.023322336
-0.024058005
-0.024986298
-0.026134155
-0.027538906
-0.029224975
-0.031141327
-0.033180966
-0.03531876
-0.037521732
-0.039732519
-0.041877643
-0.043864691
-0.04558292
-0.046917804
-0.047765481
-0.048046037
-0.04805
-0.04805
-0.04805
-0.04805
-0.04805
-0.04805
-0.04805
-0.04805
-0.04805
-0.04805
-0.04805
-0.04805
-0.04805
-0.04805
-0.04805
-0.04805
-0.04805
-0.04805
-0.04805
-0.04805
-0.04805
-0.04805
-0.04805
-0.04805
-0.04805
-0.04805
-0.04805
-0.04805
-0.04805
-0.04805
-0.04805
-0.04805
-0.04805
-0.04805
-0.04805
-0.04805
-0.04805
-0.04805
-0.04805
-0.04805
-0.04805
-0.04805
-0.04805
-0.04805
-0.04805
-0.04805
-0.04805
-0.04805
-0.04805
-0.04805
-0.04805
-0.04805
-0.04805
-0.04805
-0.04805
-0.04805
-0.04805
-0.04805
-0.04805
-0.04805
-0.04805
-0.04805
-0.04805
-0.04805
-0.04805
-0.04805
-0.04805
-0.04805
-0.04805
-0.04805
-0.04805
-0.04805
-0.04805
-0.04805
-0.04805
-0.04805
-0.04805
-0.04805
-0.04805
-0.04805
-0.04805
-0.04805
-0.04805
-0.04805
-0.04805
-0.04805
-0.04805
-0.04805
-0.04805
-0.04805
-0.04805
-0.04805
-0.04805
-0.04805
-0.04805
-0.04805
-0.04805
-0.04805
-0.04805
-0.04805
-0.04805
-0.04805
-0.04805
-0.04805
-0.04805
-0.04805
-0.048046046
-0.047765397
-0.046917226
-0.045585246
-0.043862735
-0.041874657
-0.039739123
-0.037520325
-0.035315649
-0.033175886
-0.031142389
-0.029236803
-0.027537591
-0.02613096
-0.024983785
-0.02405546
-0.023320294
-0.022756066
-0.022348059
-0.022085681
-0.0219558
-0.021879783
-0.021779033
-0.021601522
-0.021401292
-0.02116563
-0.020892511
-0.020584714
-0.020247691
-0.019880006
-0.019529751
-0.019396093
-0.019539942
-0.019970169
-0.020713359
-0.021832017
-0.023420653
-0.025661872
-0.028772126
-0.032964383
-0.038159896
-0.042846335
-0.04593918
-0.047467124
-0.047977569
-0.048049982
-0.048047329
-1.1932823e-45
-5.5938204e-29
-2.0824019e-28
-1.1416076e-28
-3.3701901e-29
-1.2329574e-29
-1.285545e-29
0
-2.6220754e-29
-1.8634921e-29
-1.7378291e-30
-1.5917994e-29
-1.7818311e-30
-9.1337697e-29
-9.0794187e-29
-4.0079281e-43
-3.7747344e-29
-3.6297408e-29
-9.3490685e-30
-1.3705371e-29
-5.6147908e-33
-1.3211557e-30
-5.2262509e-33
-1.2396493e-30
-1.1414048e-42
-1.1621955e-30
-4.5257992e-30
-4.1890529e-42
-1.0679967e-30
-4.2069757e-33
-4.0489005e-33
-9.5288973e-31
-9.0860186e-31
-8.6740063e-31
-1.2570141e-29
-9.2742972e-30
-8.1301002e-30
-6.5147743e-29
-3.2127874e-29
-3.3141455e-29
-4.044133e-29
-2.4509046e-30
-3.1682594e-29
-3.1755742e-29
-5.9201788e-34
-2.9900604e-29
-3.9014104e-29
-9.2173613e-30
-2.1976147e-42
-2.3043437e-30
-4.7653707e-61
-1.6659523e-29
-9.7739957e-30
-2.3043287e-30
-2.3043754e-30
-2.3043768e-30
-3.2203817e-29
-3.2105218e-29
-7.4679158e-30
-7.4444303e-30
-2.9753352e-29
-2.3044097e-30
-2.1975791e-42
0
-2.3043455e-30
-2.3043919e-30
-2.0739104e-29
-9.7696818e-30
-1.863289e-28
-1.1941716e-28
-2.3043766e-30
-9.2173145e-30
-2.3043974e-30
-2.9782684e-62
-2.304392e-30
-2.3043448e-30
-9.7671157e-30
-7.4495745e-30
-5.4940601e-43
-2.1976246e-42
-2.3045047e-30
-9.7653026e-30
-9.7555829e-30
-9.2180811e-30
-6.9368204e-29
-6.7141546e-29
-2.3045201e-30
-9.2159504e-30
-2.9810904e-29
-2.9836102e-29
0
-1.6689435e-29
-7.4666182e-30
0
-2.3045567e-30
0
-7.4697742e-30
-9.7726087e-30
-2.303966e-30
-9.2182308e-30
-3.1982162e-53
0
-7.468052e-30
-2.3045635e-30
-7.4547284e-30
-2.3045568e-30
-7.4541576e-30
-2.3039684e-30
-7.4712105e-30
-1.3736242e-43
-1.3733873e-43
-1.3736327e-43
-2.3039876e-30
0
-1.3736325e-43
-2.3039877e-30
-2.3045203e-30
-2.3045727e-30
-2.3039878e-30
-5.4944048e-43
-9.7547202e-30
-9.7661657e-30
-7.4495742e-30
-9.7673287e-30
-2.3039881e-30
-9.7532406e-30
-7.4636117e-30
-2.9818041e-29
-2.988226e-29
-2.3045716e-30
-6.9472593e-29
-6.711537e-29
-2.3043317e-30
0
-2.3044402e-30
-7.4585826e-30
-7.4792424e-30
0
-2.3043333e-30
-2.304307e-30
-9.2177609e-30
-2.3043341e-30
-2.978246e-62
-2.9873923e-29
-3.207746e-29
-9.2172215e-30
-2.3044403e-30
-9.7739729e-30
-1.6659337e-29
-2.9784193e-62
-2.3043366e-30
-2.3043037e-30
-3.2188831e-29
-3.2043322e-29
-2.3008991e-30
-2.3130244e-30
-2.3421588e-30
-2.3886031e-30
-6.2735051e-34
-2.5279011e-30
-3.4705341e-29
-3.2683676e-29
-2.8534075e-30
-2.9931032e-30
-7.8878848e-31
-3.0142082e-29
-3.182975e-29
-9.1237736e-31
0
-3.9544511e-30
-1.031403e-30
-4.3569867e-33
-7.7606735e-30
-6.8699726e-30
-1.1669448e-30
0
-4.9387883e-30
-8.9374845e-30
-7.5155527e-30
-1.3707896e-30
-1.4250896e-30
-3.5395385e-43
-6.200115e-30
-1.6260578e-30
-6.8856522e-33
-6.9228427e-30
-1.7680018e-30
-1.7745965e-30
-1.7679276e-30
-1.7380446e-30
-1.7120595e-30
-1.6060141e-30
-1.7857986e-29
-1.8230443e-29
-7.1833802e-29
-5.0878922e-29
-5.1474236e-30
-5.1282597e-30
-5.5942682e-29
-5.5932154e-29
0
-4.4549761e-39
-4.977412e-29
-4.5205597e-29
-4.6395008e-30
-1.1445774e-29
-1.0719366e-29
-1.6137228e-29
-1.2911694e-29
-1.0587793e-29
-1.0093356e-29
-6.298977e-30
-1.5790782e-30
-8.2905082e-29
-6.2491037e-33
-3.722661e-29
-9.3992227e-30
-1.3792517e-30
-1.326455e-30
-5.0723208e-30
-4.884103e-30
-1.1756443e-30
-1.1400988e-30
0
-4.3624054e-33
-3.9451795e-42
-7.0952091e-30
-9.8622096e-30
-9.4651083e-31
-9.1773711e-31
0
-8.4451288e-31
-8.0856709e-31
-3.0907984e-30
-6.6197396e-30
-2.8646706e-33
-1.0151035e-41
-2.8350901e-29
-2.8209755e-29
-2.9373119e-29
-2.8864362e-29
-8.9061054e-30
-1.487184e-29
-3.4397523e-29
-2.8450217e-29
-3.4500922e-29
-8.19967e-30
-1.9558295e-42
-6.6442695e-30
-6.1797594e-29
-2.6595552e-29
-6.6486175e-30
-2.6535998e-29
-6.6708189e-30
-2.050867e-30
-2.6493952e-29
-6.6935528e-30
-6.6242832e-30
-2.0508389e-30
-5.9684386e-29
-1.06072e-28
-1.4785177e-29
-2.0508254e-30
-8.6538816e-30
-6.6224041e-30
-2.0508817e-30
-8.2033597e-30
-2.050839e-30
-6.1847064e-29
-5.9645417e-29
-2.6510145e-29
-2.0508612e-30
-1.061681e-28
-2.8621502e-29
-6.6512999e-30
-6.6648551e-30
-4.8896227e-43
-2.8568535e-29
-2.6565268e-29
-2.050868e-30
-8.6585699e-30
-1.4819914e-29
-2.0510425e-30
-4.8899553e-43
-5.9757249e-29
-5.9684307e-29
-2.0509958e-30
-8.2020879e-30
-8.6731954e-30
-6.604343e-30
-2.8582793e-29
-3.4755322e-29
0
-3.0562729e-44
-2.0510283e-30
-3.0554873e-44
-8.7082924e-30
-6.658889e-30
-2.0505028e-30
-2.0510292e-30
-2.0510292e-30
0
-8.7099184e-30
-1.938633e-35
-8.6872253e-30
-2.0510284e-30
-3.0562728e-44
-3.0554873e-44
-2.051028e-30
-1.2225094e-43
-8.7117325e-30
-1.4859269e-29
-2.050522e-30
-8.7128684e-30
-2.8683888e-29
-6.6540097e-30
-2.655987e-29
-2.6523108e-29
-2.0505222e-30
-4.8899556e-43
-2.0510423e-30
-3.4767355e-29
-2.651772e-29
-2.0510421e-30
-8.7153733e-30
-1.4855281e-29
-2.8621725e-29
-1.0821862e-28
-2.856222e-29
-2.0510416e-30
-5.976295e-29
-5.9813137e-29
-1.9558221e-42
-7.8232104e-42
-1.9559142e-42
-2.0508289e-30
-2.6506058e-62
-2.0509247e-30
-6.6686572e-30
-6.6475028e-30
-8.2036988e-30
-1.9558242e-42
-3.4791208e-29
-2.640116e-29
-8.7175921e-35
0
-1.9559143e-42
-1.4826013e-29
-6.6486247e-30
-2.650759e-62
-2.0508325e-30
-2.0508032e-30
-2.6485319e-29
-2.8636794e-29
-2.6488689e-29
-3.4391668e-29
-8.3375545e-30
-2.125951e-30
-2.1815271e-30
-5.758617e-34
-2.8414088e-29
-2.8962418e-29
-2.5393861e-30
-2.6609557e-30
-6.9910263e-31
-2.6689617e-29
-3.4641703e-29
-3.3120862e-33
-8.4457488e-31
-8.7975546e-31
-3.6600812e-30
-9.4663767e-31
-3.9090905e-30
0
-1.0384314e-30
-1.0686583e-30
-4.3948656e-30
-4.5468473e-30
-1.1805216e-30
-1.219806e-30
-1.2093721e-42
-1.2598586e-42
-1.3849285e-30
-3.4356611e-43
-3.6275611e-29
-3.6418814e-29
0
-5.8826373e-45
-5.860598e-45
-1.5466254e-30
-6.1398086e-33
-2.1296745e-44
-5.3803392e-30
-1.873371e-44
-6.3947385e-29
-4.9671079e-29
-4.58121e-30
-4.5640711e-30
-4.1052498e-29
-4.5615356e-30
-4.0595012e-30
-4.0600431e-30
0
-1.6307642e-29
-4.401928e-29
-1.401547e-29
-1.1456295e-33
-3.8274088e-29
-1.1038346e-29
-8.9716818e-30
-2.1368578e-29
-5.2148283e-45
-5.7553509e-33
-5.7103763e-33
-7.3173326e-29
-3.2223739e-29
-7.4617435e-30
-1.2273053e-30
-1.1803332e-30
-4.5182051e-30
-1.0351363e-42
-4.1846121e-30
-4.0415537e-30
-9.8162753e-31
-9.4774194e-31
-3.5106854e-42
-5.7283981e-30
-5.2749546e-30
-3.213028e-42
-3.2533757e-30
-7.8284053e-31
-7.5152503e-31
-2.8781737e-30
-2.8136588e-33
-6.5723951e-31
-2.3741235e-42
0
-2.2595221e-30
-2.5101954e-29
-2.2755734e-29
-2.0504751e-33
-8.0659353e-30
-2.3835764e-29
-1.3460781e-29
-2.3492115e-29
-2.5235161e-29
-1.8244071e-30
-1.8252241e-30
-5.9386663e-30
-5.507201e-29
-2.5395972e-29
-7.3009119e-30
-7.7629039e-30
-7.7388276e-30
-5.8735637e-30
-5.5014329e-29
-7.3009758e-30
-2.536571e-29
-1.8252269e-30
-2.5446347e-29
-5.8750858e-30
-5.9156423e-30
-1.7406606e-42
-7.7196497e-30
-5.8760982e-30
-9.4363988e-62
0
-1.825227e-30
-1.8252395e-30
0
-2.3651248e-29
-1.8252506e-30
-9.6309902e-29
-2.3594148e-29
-7.7572798e-30
-5.8788939e-30
-3.0946093e-29
-2.5469327e-29
-2.5424493e-29
-1.8252527e-30
-7.7154329e-30
-7.705361e-30
-1.825408e-30
-4.352013e-43
-4.3510079e-43
0
-1.0880032e-43
-1.8249449e-30
-7.7538457e-30
-5.9228119e-30
-2.5456247e-29
-2.5437882e-29
-1.8249278e-30
-2.7200534e-44
-1.8253954e-30
-1.8249278e-30
-5.9263895e-30
-7.750252e-30
-1.6995965e-45
-1.8253962e-30
-2.533246e-53
-1.8249278e-30
-5.9248557e-30
-7.7517873e-30
-1.8249278e-30
-1.8253955e-30
0
-1.0877418e-43
-1.0880203e-43
-1.8253972e-30
-1.3223139e-29
-7.7538455e-30
-2.5514141e-29
-5.9220459e-30
-2.3701974e-29
-7.7544076e-30
-2.5429699e-29
-9.6381429e-29
-2.3602305e-29
-7.3014667e-30
0
-2.5424188e-29
-2.3644104e-29
-2.5470532e-29
-7.7038394e-30
-2.2360321e-29
-3.0895764e-29
-9.6309567e-29
-2.5475592e-29
-1.7408439e-42
-5.9176924e-30
-5.9335606e-30
-1.7406629e-42
-1.8251991e-30
-1.8253032e-30
-1.825218e-30
-1.8251984e-30
-1.8253032e-30
-5.9156552e-30
-1.3236397e-29
-1.8253032e-30
-1.8252192e-30
-2.5403031e-29
-8.3300329e-35
-2.5491757e-29
-1.8251964e-30
-1.8253032e-30
-1.8252205e-30
-1.8251958e-30
-1.8253033e-30
0
-6.9625669e-42
-1.8253981e-30
-1.8240987e-30
-2.5184122e-29
-3.0611885e-29
-7.4202055e-30
-4.8410067e-34
-1.9410168e-30
-7.6359341e-42
-5.3131521e-34
-3.1712258e-29
-2.2850922e-29
-5.9262804e-31
-2.5486426e-33
-6.545477e-31
-6.8702443e-31
-2.8783435e-30
-2.8670509e-42
-2.9864546e-42
-4.7455584e-29
-5.1146776e-29
-8.7320884e-31
-8.9498934e-31
-3.6849555e-30
-9.625989e-31
-3.9148289e-30
-9.6366715e-43
-4.1891163e-30
-1.089891e-30
-1.1284299e-30
-1.1755301e-30
-1.2323566e-30
-1.2822605e-30
-3.4617055e-29
-3.3282031e-29
-8.3100255e-44
-1.4051445e-30
-1.4228331e-30
-1.3819173e-30
-5.4636767e-33
-1.8952023e-44
-1.2254718e-33
-4.4765378e-30
-1.0881423e-33
-4.1284527e-30
-6.5234531e-35
-4.0619778e-30
-4.0595921e-30
-9.4522778e-46
-2.2580786e-37
-1.4453633e-29
-3.6149226e-30
-1.4513704e-29
-3.9161289e-29
-3.5146672e-29
-1.3039226e-29
-8.5197411e-30
-4.5328167e-30
-1.1868699e-30
-1.2245372e-30
-5.102105e-33
-1.2554329e-30
-1.2456003e-30
-2.9042322e-43
-4.8512337e-33
-6.9962557e-30
-1.0440806e-29
-4.2844793e-33
-1.004091e-30
-9.6585426e-31
-9.3091837e-31
-3.6827026e-33
-3.5632929e-33
-8.4335719e-31
-7.3705004e-30
-1.1457181e-29
-1.7759808e-29
0
-2.9645794e-33
-7.3150159e-30
-2.2959387e-29
-6.9589494e-30
-9.6275065e-30
-3.8290397e-30
-5.5385679e-31
-5.2687786e-31
-6.3892663e-30
-4.1152609e-30
-2.2183353e-29
-2.3249515e-29
-5.0121191e-29
-2.3007198e-29
-2.0161617e-29
-1.6305407e-30
-1.6217921e-30
-1.6237093e-30
-6.1967315e-42
-1.624454e-30
-6.4977535e-30
-1.3942957e-41
-1.6244394e-30
-1.6244602e-30
-1.6244278e-30
-5.2483853e-30
-6.8512775e-30
-6.8723564e-30
-6.8517338e-30
-1.6244384e-30
-5.2831887e-30
-5.2638868e-30
0
-6.9247886e-30
-5.318344e-30
0
-2.0995813e-62
-1.6244392e-30
0
-1.6244497e-30
0
-6.8548719e-30
-6.8687384e-30
-1.6244762e-30
-1.6244242e-30
-1.6244723e-30
-2.2669746e-29
-2.2623571e-29
-1.6244362e-30
0
-3.8730178e-43
-1.6245518e-30
-1.6241877e-30
-1.6245996e-30
-1.6245627e-30
-2.0992133e-62
-1.6245998e-30
-5.2342399e-30
-1.1737227e-29
-9.6833705e-44
-1.62431e-30
-6.4983602e-30
-1.6245881e-30
-9.6808218e-44
-1.6245897e-30
-1.6245884e-30
-1.1733089e-29
-5.2383169e-30
-1.6245887e-30
-1.5126284e-45
-1.5126471e-45
-1.624589e-30
-6.0505136e-45
-6.0520647e-45
0
-5.2385569e-30
-6.8607472e-30
-5.2390383e-30
-2.7446598e-29
-5.2354397e-30
-6.49836e-30
0
-2.2707152e-29
-2.1105722e-29
-1.6245626e-30
-6.4983993e-30
-1.6241876e-30
0
-2.2629489e-29
-2.1039512e-29
-6.8667117e-30
-6.8571665e-30
-1.6241878e-30
-1.6245629e-30
-2.0999118e-29
-2.1045288e-29
-5.2435979e-30
-6.8557214e-30
-1.624188e-30
-6.8688742e-30
-6.855009e-30
0
-5.3171223e-30
-5.3015867e-30
-6.1966465e-42
-1.6245063e-30
-5.3181075e-30
-5.3006026e-30
-1.6245063e-30
-6.4977242e-30
-6.4976501e-30
-1.6245063e-30
-1.6244316e-30
-1.6244119e-30
0
0
-1.6244114e-30
-1.54925e-42
-1.5491798e-42
-1.6244108e-30
-1.54925e-42
-1.6244333e-30
-6.1966331e-42
-1.6245908e-30
-6.8688809e-30
-6.8656794e-30
-1.0435569e-34
-1.6509775e-30
-1.6839099e-30
-1.72791e-30
-1.7814743e-30
-4.7308365e-34
-2.2137065e-29
-2.0452567e-29
-2.1074503e-30
-6.8828887e-30
-6.8300878e-30
-9.1880104e-30
-7.2934531e-30
-6.6882222e-31
-6.9667098e-31
-4.2726617e-29
-4.6453944e-29
-3.1081565e-30
-3.2623302e-33
-3.275747e-30
-3.4521987e-33
-1.3923854e-29
-8.9917721e-31
-3.8133574e-33
-3.9563546e-33
-1.0082342e-30
-1.0460261e-30
-4.3684439e-30
-4.5639265e-30
-4.742442e-30
-4.9894791e-33
-5.081448e-33
-1.2554569e-30
-1.2660916e-30
0
-1.1918706e-30
-1.1318173e-30
-1.0905717e-33
-1.0196204e-33
-3.7837936e-30
0
-1.4514527e-29
-3.3668511e-45
-3.613007e-30
-8.4124571e-46
-4.4736484e-29
-4.4736949e-29
-3.5093999e-29
-3.5004468e-29
-4.8731739e-44
-7.7381508e-30
-1.126576e-29
-3.7929863e-30
-2.9525261e-29
-2.9124046e-29
-8.2036326e-30
-7.8206098e-30
-4.4547633e-30
-1.1083496e-30
-4.3400228e-30
-1.0581907e-30
-2.3031169e-29
-2.3155653e-29
-9.3077211e-31
-8.9713233e-31
-8.6297417e-31
-3.3930081e-33
-8.0005918e-31
-2.9438418e-29
-2.9478755e-29
-6.5586874e-30
-1.0577457e-29
-1.0580209e-29
-2.5442815e-42
-6.7284063e-30
-1.8690217e-29
-2.0888461e-29
-6.727203e-30
-8.5902326e-30
-3.5579543e-30
-4.9289109e-31
0
-7.4075082e-30
-5.5401798e-30
-1.6838156e-33
-1.9038653e-29
-4.4266038e-29
-4.7183009e-30
-1.46972e-30
-3.7165792e-34
-2.3071295e-35
0
-1.4457399e-30
-1.4457559e-30
-5.782968e-30
0
-1.4457429e-30
-1.4457614e-30
-1.4457326e-30
0
-1.4457627e-30
-1.3787773e-42
-1.3787678e-42
-4.3311331e-29
-4.7815535e-29
-1.4457417e-30
-1.0435461e-29
-1.8806511e-29
-4.7168149e-30
-1.4457431e-30
-6.09908e-30
-4.6686863e-30
-4.6537618e-30
-1.0892245e-35
-6.1137741e-30
-6.1135463e-30
-6.1004037e-30
-1.3787991e-42
-4.6551185e-30
-1.8644445e-29
-1.0449619e-29
-1.3787788e-42
-4.7878743e-29
-4.3631488e-29
-4.6564779e-30
-2.0090278e-29
-6.1108085e-30
-6.1030367e-30
-4.6648408e-30
-1.4455189e-30
-5.7835425e-30
-6.1100131e-30
-4.6582859e-30
-1.4458858e-30
-5.7825113e-30
-1.4458769e-30
-1.4458752e-30
-5.7820214e-30
-8.6180965e-44
-6.1057414e-30
-8.127309e-45
-2.0087149e-29
-6.1075505e-30
-6.1062758e-30
-6.1070985e-30
-1.445876e-30
0
-1.0445178e-29
-6.1061953e-30
-6.1055969e-30
-6.10823e-30
-6.1055157e-30
-1.8644436e-29
-6.1089062e-30
-1.0446766e-29
-6.113863e-30
-1.8634039e-29
0
-6.1100142e-30
-4.6578299e-30
-1.4455189e-30
-4.6648408e-30
-4.3599624e-29
-1.8755517e-29
-6.1025538e-30
-6.1116314e-30
-1.4455191e-30
-1.0449608e-29
-1.4458912e-30
-2.0089964e-29
-1.4458529e-30
-1.0450644e-29
-1.4455192e-30
-6.1005288e-30
-6.1136687e-30
-1.3785546e-42
-1.0402273e-29
-1.03585e-29
-1.4457201e-30
-6.1147188e-30
-6.0512394e-30
-1.4460663e-30
-1.4458025e-30
-1.4457355e-30
-2.0125889e-29
-2.0053618e-29
-1.445736e-30
0
-6.1167573e-30
-1.8644435e-29
-4.6508348e-30
-6.1174522e-30
-4.6503557e-30
-5.5149744e-42
-4.6723039e-30
-4.6497131e-30
-1.4457169e-30
-1.4458776e-30
-2.0077473e-29
-1.8589055e-29
-4.611949e-30
-6.0384518e-30
-5.7165676e-42
-1.5378095e-30
-4.0597905e-34
-4.5511154e-30
-4.6306546e-30
-1.7894169e-30
-4.6935467e-31
-6.3057068e-30
-1.9039472e-29
-1.9409304e-29
-7.6331743e-31
-1.4237254e-29
-2.5184121e-29
-3.967996e-30
-4.0612875e-30
-2.7573658e-30
-2.8377029e-30
-7.3172108e-31
-2.8719042e-29
-3.70214e-29
-8.0340779e-31
-3.3136577e-30
-8.5947443e-31
-9.0813889e-31
-9.3459395e-31
-9.717816e-31
-1.0152597e-30
-1.0538869e-30
-4.3400296e-30
-3.451349e-29
-2.5764197e-29
-4.4519511e-30
-8.5641709e-30
-7.4625019e-30
-1.0113253e-30
-3.7920341e-30
0
-8.6185465e-34
-3.2698364e-30
-3.2294558e-30
-3.1869927e-29
-3.1878054e-29
-1.2862644e-29
-2.8365427e-29
-3.9818607e-29
-2.836172e-29
-3.1234473e-29
-9.9404956e-30
-2.7823542e-29
-9.8816712e-30
-6.5958165e-30
-7.7766917e-30
-2.750344e-29
-6.0171233e-30
-6.6102283e-30
-9.9401599e-31
-9.9828213e-31
-8.6839971e-30
-9.3773669e-31
-5.8955863e-30
-5.9274945e-30
-5.707441e-30
-5.5192662e-30
-7.6790128e-31
-3.0190375e-33
-2.8506173e-30
-2.6996212e-29
-2.5455385e-29
0
-6.3067847e-31
-2.5099518e-33
-3.6134036e-30
-4.2327183e-39
-4.1370916e-30
-5.4241032e-30
-3.3928662e-30
-4.8410446e-31
-4.613087e-31
-6.6930445e-42
-4.1817693e-30
-5.6837696e-30
-1.7527088e-29
-1.7823413e-29
-1.4113532e-30
-1.6865847e-29
-1.8228724e-29
-5.2318371e-30
-4.0257187e-30
-5.3114487e-30
-1.2861298e-30
-9.2838112e-30
-5.4458662e-30
-5.1468271e-30
-4.1376085e-30
-5.445227e-30
0
-5.4249601e-30
-4.1578919e-30
-1.2867252e-30
-4.9084334e-42
-5.4258099e-30
-7.1659269e-29
-4.240276e-29
-1.2867065e-30
-4.156384e-30
-4.1401789e-30
-1.7848269e-29
-1.7909686e-29
-5.4422571e-30
-4.1410289e-30
-5.441809e-30
-1.2867266e-30
-1.7967057e-29
-4.2115645e-30
-1.2866984e-30
0
-4.1538205e-30
-1.6592671e-29
-3.8573212e-29
-1.6612735e-29
-4.26944e-29
-4.2609653e-29
-1.787939e-29
-3.8632792e-29
-5.4307333e-30
-1.6622546e-29
-2.9878037e-36
-1.2865083e-30
0
-1.2868051e-30
0
-1.2868347e-30
-1.7870324e-29
-5.441076e-30
-4.1499821e-30
-1.2864962e-30
-1.2868266e-30
-5.4361677e-30
-9.293193e-30
-1.7879499e-29
-1.7879499e-29
-4.1484888e-30
-4.148062e-30
-1.7853939e-53
-1.2864962e-30
-5.4344612e-30
-5.4357412e-30
0
-1.2868255e-30
0
0
-1.2868253e-30
-9.2934489e-30
-5.4280572e-30
-1.6602488e-29
-1.2865082e-30
-5.4320962e-30
-9.2986008e-30
-1.2865083e-30
-9.2918695e-30
-1.1558859e-28
-1.7977254e-29
-4.2468267e-29
-4.1437911e-30
-1.2865084e-30
-5.4301786e-30
-5.1473425e-30
-1.6592671e-29
-1.790125e-29
-4.1425157e-30
-5.1460343e-30
-1.2868055e-30
-1.2868338e-30
-5.1460346e-30
-6.7657523e-29
-2.1711757e-29
-1.7850791e-29
-9.2878561e-30
-1.7879362e-29
-5.0151099e-43
-5.4269319e-30
0
-1.7845684e-29
-7.8089781e-29
-3.7306985e-29
-5.4257973e-30
-4.1389039e-30
-1.6592671e-29
-4.157863e-30
-5.4250113e-30
-9.3051118e-30
-5.4451952e-30
-1.2867606e-30
-1.7922481e-29
-5.4238728e-30
0
-4.1353493e-30
-4.1382745e-30
-4.1183839e-30
-5.4344436e-30
-5.3349144e-30
-5.4731038e-30
-5.8425529e-30
-1.4722088e-30
-5.6705058e-30
0
-4.2738694e-34
-4.3848684e-31
-1.7610763e-29
-1.7803973e-29
-3.8783283e-30
-2.2264002e-29
-4.5690562e-29
-9.3980411e-31
-8.4697516e-31
-6.1278681e-31
-6.5610269e-30
-6.7211532e-30
-2.6114565e-29
-2.9063869e-29
-2.8479541e-30
-7.3715322e-31
-7.2935781e-43
-7.5822706e-43
-7.9508134e-30
-4.7981293e-30
-8.6153245e-43
-1.3607578e-29
-9.1794794e-30
-2.343548e-29
-2.3553624e-29
-1.4352898e-47
-6.3315317e-30
-2.7495274e-29
-7.7787787e-30
0
-1.9490554e-29
-6.88713e-30
-2.910864e-30
-2.8741998e-30
-3.1233332e-29
-3.122756e-29
-1.1447721e-29
-2.7789542e-29
-2.7792096e-29
-2.5248601e-29
-2.5231439e-29
-6.1891589e-30
-9.0567438e-30
-2.4743309e-29
-5.4012722e-29
-5.8460668e-30
-8.3975099e-31
-8.6633543e-31
-3.5947083e-33
-3.5270893e-30
-3.4993672e-30
-8.5815767e-31
-7.9573548e-43
-1.9515289e-29
-1.8831727e-29
-5.0659938e-30
-6.8289021e-30
0
-2.6263117e-30
-9.9117252e-30
-3.7072608e-30
-2.4341384e-33
-2.3081588e-30
-8.5633433e-42
-8.3198536e-42
-3.5365564e-30
-3.8378348e-30
-4.9089394e-31
-4.999897e-30
-2.9995334e-30
-4.3080289e-31
-1.3185745e-29
-1.181044e-29
-3.7468065e-30
-5.1067236e-30
-1.9761988e-29
-1.4465455e-29
-4.8337534e-30
-5.2369413e-30
-2.7254821e-33
-1.5792928e-29
-1.1494302e-30
-9.8542075e-35
-1.144656e-30
-3.7022357e-30
-8.2620357e-30
0
-4.8468452e-30
-4.8270984e-30
-1.5950134e-29
-3.7010361e-30
-3.682527e-30
-1.1451856e-30
-1.1451778e-30
-4.8454011e-30
-1.3989846e-29
-1.1451932e-30
0
-1.4735745e-29
-1.937753e-29
-1.5941264e-29
-1.5883326e-29
-1.1451932e-30
0
-4.9319607e-30
-4.9452044e-30
-1.4818536e-29
-1.6061137e-29
-1.5888932e-29
-1.593404e-29
-1.092109e-42
-1.1451932e-30
-1.59316e-29
-1.4747788e-29
-3.4633256e-29
-3.4713672e-29
-3.6793152e-30
-3.7034558e-30
-1.5926587e-29
-3.6811195e-30
-4.8336161e-30
-1.1449927e-30
-1.0922269e-42
-4.5810269e-30
-1.4756648e-29
-1.5921244e-29
-1.9355476e-29
-4.8312187e-30
-4.8352404e-30
-1.1449819e-30
-4.9374412e-30
-4.9399215e-30
-1.1449819e-30
-3.6923803e-30
-4.8364466e-30
-1.0663475e-45
-1.0666208e-45
-1.1452753e-30
-1.1449819e-30
-1.1452751e-30
-4.5811023e-30
-1.706156e-44
-1.1452749e-30
-6.8263757e-44
-6.8246242e-44
-6.8263691e-44
-8.3765746e-30
-4.9364198e-30
-1.5921244e-29
-1.4756636e-29
-2.7305048e-43
0
-1.1449927e-30
-1.1452568e-30
-1.5897908e-29
-1.1450077e-30
-8.0522037e-34
-1.6081646e-29
-1.5928999e-29
-1.5893855e-29
-1.1452825e-30
-4.5799715e-30
-1.5911966e-29
-1.5911983e-29
-1.4788842e-29
-1.4743769e-29
-1.1452823e-30
-1.144993e-30
-1.5886627e-29
-4.6354921e-35
-1.9374288e-29
0
-4.5806548e-30
-4.8294977e-30
-3.443823e-29
-1.5880877e-29
-1.1451511e-30
-1.9314991e-29
-3.3250132e-29
-3.7002391e-30
-4.3686566e-42
-4.5806596e-30
0
-1.1452171e-30
-1.1451653e-30
-4.8270707e-30
-4.8468613e-30
-8.2621822e-30
-3.7020465e-30
-4.949642e-30
-4.9235384e-30
-1.8294246e-35
-1.1497772e-30
-7.4487533e-35
-1.1870654e-30
-1.6323806e-29
-3.5903889e-29
-3.9530374e-30
-1.3573998e-30
-1.417592e-30
-3.713415e-31
-3.9021902e-31
-4.7520235e-30
-1.1707652e-29
-3.1199311e-29
-1.8877079e-30
-1.9637114e-30
-1.3522123e-30
-8.3091971e-31
-2.1545399e-29
-8.3356728e-30
-5.9986906e-30
-9.2361095e-29
-3.4994936e-29
-2.5342065e-30
-6.5862742e-31
-6.8052577e-31
-4.9159702e-29
-1.7826656e-29
-5.0500146e-30
0
-4.3444931e-30
-4.4873609e-30
-3.4959545e-30
-8.8088714e-31
-2.2139742e-29
-2.1975252e-29
-8.364233e-31
-3.1937658e-30
-5.4005559e-29
-2.4745413e-29
-8.9224026e-30
-2.5899808e-30
-2.5167975e-29
-2.7765775e-29
-2.5470372e-30
-1.591949e-37
-2.4730254e-29
-2.4737571e-29
-5.1079198e-36
-4.7908026e-35
-2.3055626e-30
-2.4298969e-33
-2.4742287e-29
-2.1377287e-29
-7.0992141e-31
-1.1089558e-44
-7.7089004e-31
-4.7293459e-30
-1.1897539e-28
-7.2908053e-29
-7.6357175e-31
-3.0408731e-33
-4.0379997e-29
-3.6107813e-29
-1.55004e-29
-1.5158494e-29
-6.0552828e-31
-5.860305e-31
-8.6515932e-30
-1.4026266e-29
-1.558618e-29
-3.7984593e-30
-2.0454808e-33
-7.4033683e-42
-1.4000393e-29
-1.2153939e-29
-3.9314507e-30
-4.2109066e-31
-1.5116331e-29
-4.478306e-30
-2.4039981e-30
-2.8958231e-30
-3.8714875e-30
-1.2913004e-33
-1.2067325e-30
-2.9669229e-34
-1.2778306e-29
-1.3647204e-29
-1.4083671e-29
-3.3524486e-30
-1.0229673e-30
-3.1704816e-30
-4.0749897e-30
-3.8879493e-42
-1.0192139e-30
-4.0768163e-30
-3.276025e-30
-3.0670896e-29
-1.3105637e-29
-3.8879297e-42
0
-1.0192187e-30
-1.0192117e-30
0
-4.0768165e-30
-1.0192253e-30
-7.3547309e-30
-3.0653833e-29
-1.3113199e-29
-1.0192181e-30
-3.887958e-42
-1.0192253e-30
-1.0192046e-30
-4.4015943e-30
-3.3699089e-30
-3.0911247e-29
-3.0807777e-29
-1.4182523e-29
-1.7197695e-29
-1.0191952e-30
-4.0769014e-30
-9.719892e-43
-9.7199705e-43
-2.9878206e-29
-2.980236e-29
-1.3157246e-29
-1.4146137e-29
-9.71839e-43
-3.8883403e-42
-7.35941e-30
-3.2883606e-30
-3.2826666e-30
-4.30726e-30
-1.7227348e-29
-1.4152243e-29
-2.4297802e-43
-1.0192991e-30
-4.0771914e-30
-3.2839937e-30
-1.0199156e-30
-7.452164e-30
-1.0190374e-30
0
-7.3621364e-30
-3.2857018e-30
-1.0192985e-30
-4.3048112e-30
-1.4160706e-29
-3.2849434e-30
-1.0192987e-30
-1.0190374e-30
-6.07549e-44
-1.0192989e-30
-2.4295746e-43
-2.4301955e-43
-1.3322261e-29
-1.4341484e-29
-1.4152247e-29
-1.4170211e-29
-1.0192819e-30
-1.0193052e-30
-1.019047e-30
-4.307831e-30
-1.4160979e-29
-3.2819069e-30
-2.9805793e-29
-2.9874768e-29
-1.3125348e-29
-1.4178047e-29
-1.0193049e-30
-1.0190472e-30
-4.2998622e-30
-3.2904485e-30
-1.7196989e-29
-1.4182602e-29
-4.0772184e-30
-9.7183921e-43
0
-3.8879348e-42
-1.0191886e-30
-1.0192466e-30
-4.0767966e-30
-3.8878946e-42
-1.4132459e-29
-1.4190103e-29
-1.5551573e-41
-3.8881174e-42
-1.0191999e-30
-1.0191875e-30
-1.0192467e-30
-9.1728019e-30
-1.0191872e-30
-1.0192467e-30
-3.8879416e-42
-3.887889e-42
-1.0192467e-30
-1.0192009e-30
-1.0191864e-30
-4.3851069e-30
-3.3843931e-30
-7.364121e-30
-7.3823995e-30
0
-1.0564821e-30
-1.3476286e-29
-1.4544177e-29
-2.9678139e-34
-1.2071032e-30
-1.2615814e-30
0
-3.472637e-31
-1.4612824e-30
-2.8534937e-29
-2.8797694e-29
-3.311764e-30
-3.2948495e-30
-1.1997545e-29
-1.2287733e-29
-1.9065011e-29
-2.0093666e-29
-1.5125365e-29
-1.1714558e-28
-5.4662789e-29
-5.6375128e-31
-5.8367023e-31
-6.0554276e-31
-3.4787957e-29
-3.487603e-29
0
-2.863858e-30
-7.4243236e-31
-7.6670062e-31
0
-3.1352322e-30
-1.9700303e-29
-1.9554032e-29
-5.0093681e-30
-6.1577093e-30
-4.8456213e-29
-5.1839133e-29
-6.075259e-34
-2.3050664e-30
-2.240706e-29
-2.2435869e-29
-2.2051021e-39
0
-2.0174829e-30
-2.0177523e-30
-1.9966696e-29
-2.1967513e-29
-3.0574355e-44
-5.4062388e-34
-5.6913623e-34
0
-6.317456e-31
-9.8680224e-45
-1.0179818e-44
-4.9044604e-30
-1.0551688e-28
-6.3974234e-29
-6.82186e-31
-2.7057613e-33
-4.1550027e-30
-4.1761064e-30
-2.3363049e-30
-5.6240865e-31
-5.4101077e-31
-5.1933085e-31
-2.0084238e-30
-3.0917789e-30
-1.1989016e-29
-4.7352646e-30
-1.8203601e-33
-1.7269499e-30
-1.674475e-30
-1.5938104e-29
-1.7452785e-29
-1.4942709e-30
-1.2114321e-29
-5.6225328e-30
-2.5086985e-29
-2.7034741e-30
-2.428939e-29
-1.2665615e-29
-2.7492936e-34
-1.0314357e-30
-3.9027119e-30
-2.7850664e-30
-9.4009345e-31
-2.81932e-30
-2.8362029e-30
0
-5.6668221e-38
-3.6283857e-30
-9.0710649e-31
0
-2.685071e-35
-2.9325482e-30
-2.932389e-30
-3.7433042e-30
-6.4806856e-30
-9.0711072e-31
-3.4603291e-42
-9.0709829e-31
-9.0709779e-31
-9.0711666e-31
-2.9309523e-30
-2.9169761e-30
-9.0709183e-31
-9.0711025e-31
-9.0709846e-31
-9.0711667e-31
-3.6283929e-30
0
-3.4603274e-42
-3.4603511e-42
-3.6284426e-30
-9.0709182e-31
-9.0711883e-31
0
0
-8.6507623e-43
-9.0710549e-31
-9.0709651e-31
-9.0711035e-31
-3.6284424e-30
-3.4605444e-42
-9.0695806e-31
-9.071876e-31
-2.9268282e-30
-6.5489226e-30
-3.8336489e-30
-2.9214535e-30
-9.0695797e-31
-9.0718782e-31
-2.1625191e-43
-9.0718228e-31
0
-3.8321583e-30
-6.5514343e-30
-1.5480959e-29
-1.2766446e-29
-5.4072256e-44
-3.8314968e-30
-2.9235986e-30
-9.0718174e-31
-9.0772795e-31
-9.0914419e-31
-3.6725963e-30
-1.1377239e-29
-2.722424e-29
-4.8332099e-29
-1.1851511e-29
-3.627798e-30
0
-3.8293468e-30
-3.8327742e-30
-2.8463134e-30
-2.8421319e-30
0
-9.0718773e-31
-9.0695801e-31
-3.8280786e-30
-1.2602651e-29
-3.8341401e-30
-9.071671e-31
-9.0718751e-31
-9.069581e-31
-9.0716716e-31
-9.071874e-31
-8.649427e-43
0
-8.6516122e-43
-9.069582e-31
0
-3.6287487e-30
-9.0695826e-31
-1.3842492e-41
0
-3.4602508e-42
-9.0713561e-31
-9.0709336e-31
-3.6283347e-30
-9.0713562e-31
-9.0709367e-31
-3.4602484e-42
-3.4604478e-42
-9.0709399e-31
-1.5515461e-29
-4.7424911e-29
-4.8332005e-29
-1.27303e-29
-9.0713564e-31
-9.0709462e-31
-3.4602446e-42
-9.0713566e-31
0
0
0
-8.1588453e-30
-3.8049566e-30
-3.8318989e-30
-9.2196149e-31
-9.4026632e-31
-9.6480056e-31
-6.0709555e-41
-1.0325501e-30
-2.7507769e-34
-4.4900969e-30
0
-1.2658124e-33
0
-3.426008e-31
-3.5881214e-31
0
-3.903265e-31
-4.0553526e-31
-1.7131372e-33
-6.5882531e-42
-1.8198014e-33
-1.8716866e-33
-2.8385778e-30
-4.8786008e-30
-5.0163679e-31
-5.2148524e-31
-2.0554226e-42
-5.601316e-31
-5.8587451e-31
-6.1165972e-31
-2.4276586e-42
-6.6330009e-31
-6.7940426e-31
-6.9194355e-31
-6.2767815e-30
-6.9487829e-31
-6.8324041e-31
-6.6502179e-31
-6.3161884e-31
0
-2.224064e-30
-8.4483532e-30
-2.0520253e-30
-2.026224e-30
-8.0748349e-30
-2.0175287e-30
-1.2609954e-37
-1.1222364e-37
-1.7958181e-30
-1.7965661e-30
-2.8851881e-35
0
-3.9710146e-29
-4.0771424e-29
-3.8382117e-29
-3.9306544e-29
-5.8928156e-31
-1.6888382e-29
-1.599314e-29
-6.2307642e-31
-2.5216107e-33
-6.0698113e-31
-2.3510513e-30
-2.3192985e-33
-2.1680342e-30
-5.2129647e-31
-8.1657967e-33
-4.8139093e-31
-4.158932e-30
-4.4815081e-31
0
-6.5644189e-30
-2.60233e-30
-3.954119e-31
-3.8654812e-30
-2.2809786e-30
-1.5436553e-29
-3.1145061e-30
-1.4060565e-29
-3.3844827e-30
-3.6572639e-30
-2.4987554e-29
-3.4239342e-30
-2.8731483e-30
-3.4749903e-30
-9.9320357e-30
-1.1091795e-29
-2.5683734e-30
-2.497462e-30
-2.6319137e-30
-3.4710873e-30
-8.1035805e-31
-8.0600261e-31
-1.117522e-29
-2.667486e-29
-3.4181355e-30
0
-3.4178218e-30
-1.1215743e-29
-4.1505345e-29
-4.2281261e-29
-2.5238349e-30
-8.0733687e-31
-3.2293254e-30
-3.4022473e-30
-2.6525035e-30
-1.1386585e-29
-1.2318805e-41
-8.0733684e-31
-8.0732007e-31
-3.2293458e-30
-3.2293038e-30
-8.0734216e-31
-8.0732576e-31
-2.5966191e-30
-2.6074324e-30
-3.4759316e-30
-5.9083619e-30
-3.0796816e-42
0
-1.1197823e-29
-1.0425683e-29
-3.4052875e-30
-3.4134082e-30
0
-1.0393901e-29
-8.0735518e-31
-1.1228985e-29
-1.1203134e-29
-1.1227647e-29
0
-1.0397954e-29
-1.1225619e-29
-1.1206677e-29
-1.1224074e-29
0
0
-3.4079005e-30
-2.6035408e-30
0
-5.8306081e-30
-4.1926835e-29
-1.1358658e-29
-3.4100952e-30
-8.0739986e-31
-8.0719345e-31
-8.0740005e-31
-2.5312201e-30
-1.0932403e-29
-1.012521e-29