x,y,z,U_0,U_1,U_2
1.48055,0.27039,0.05,-6.07575e-07,3.64521e-07,5.99929e-24
1.48055,0.273158,0.05,-0.00054672,0.000328576,6.61808e-22
1.48055,0.275927,0.05,-0.000958617,0.000576729,-1.93122e-20
1.48055,0.278695,0.05,-0.00125303,0.000754984,-1.78343e-21
1.48055,0.281464,0.05,-0.00145876,0.000880724,8.16008e-21
1.48055,0.284232,0.05,-0.00161888,0.000979253,8.45013e-22
1.48055,0.287,0.05,-0.00173902,0.00105366,-7.82173e-21
1.48055,0.289769,0.05,-0.00182482,0.00110797,-1.64434e-21
1.48055,0.292537,0.05,-0.0019007,0.00115636,2.39015e-21
1.48055,0.295305,0.05,-0.00195415,0.00119131,1.15503e-21
1.48055,0.298074,0.05,-0.00200265,0.00122351,1.77535e-21
1.48055,0.300842,0.05,-0.00203914,0.00124851,2.73148e-21
1.48055,0.303611,0.05,-0.00207155,0.00127124,1.57103e-21
1.48055,0.306379,0.05,-0.00209621,0.00128933,-3.19236e-22
1.48055,0.309147,0.05,-0.00211836,0.00130605,-2.59648e-21
1.48055,0.311916,0.05,-0.00213437,0.00131912,-2.76727e-21
1.48055,0.314684,0.05,-0.00214972,0.00133104,-1.88706e-21
1.48055,0.317452,0.05,-0.00215893,0.00134103,-1.01236e-22
1.48055,0.320221,0.05,-0.0021684,0.00135006,1.59677e-21
1.48055,0.322989,0.05,-0.00217325,0.00135703,3.42081e-21
1.48055,0.325758,0.05,-0.00217748,0.00136335,2.86835e-21
1.48055,0.328526,0.05,-0.00217953,0.00136843,-8.27854e-22
1.48055,0.331294,0.05,-0.00217951,0.00137235,-1.27746e-21
1.48055,0.334063,0.05,-0.00217976,0.0013743,-8.29131e-22
1.48055,0.336831,0.05,-0.00217573,0.00137806,-1.43693e-21
1.48055,0.339599,0.05,-0.00217215,0.00137999,-1.26015e-21
1.48055,0.342368,0.05,-0.00216707,0.00138103,1.04887e-21
1.48055,0.345136,0.05,-0.00216041,0.00138127,1.21622e-21
1.48055,0.347905,0.05,-0.00215376,0.00138131,1.29733e-21
1.48055,0.350673,0.05,-0.00214484,0.00138043,4.71041e-23
1.48055,0.353441,0.05,-0.00213546,0.00137919,-4.06484e-22
1.48055,0.35621,0.05,-0.00212601,0.00137589,-6.88389e-22
1.48055,0.358978,0.05,-0.00211406,0.0013752,-7.34119e-22
1.48055,0.361746,0.05,-0.0021022,0.00137266,-7.22133e-22
1.48055,0.364515,0.05,-0.00208996,0.00136759,-6.62329e-22
1.48055,0.367283,0.05,-0.00207574,0.00136599,-3.47352e-22
1.48055,0.370052,0.05,-0.00206158,0.00136225,1.91965e-22
1.48055,0.37282,0.05,-0.00204683,0.00135566,2.586e-22
1.48055,0.375588,0.05,-0.00203061,0.00135326,-8.5824e-22
1.48055,0.378357,0.05,-0.00201427,0.00134842,-1.19245e-21
1.48055,0.381125,0.05,-0.00199731,0.00134139,-7.3592e-22
1.48055,0.383894,0.05,-0.0019792,0.00133738,-1.81996e-22
1.48055,0.386662,0.05,-0.00196075,0.00133152,-8.26684e-23
1.48055,0.38943,0.05,-0.00194215,0.00132523,1.42421e-23
1.48055,0.392199,0.05,-0.0019219,0.00131863,5.97551e-23
1.48055,0.394967,0.05,-0.00190138,0.00131179,3.62987e-22
1.48055,0.397735,0.05,-0.00188086,0.00130494,6.66219e-22
1.48055,0.400504,0.05,-0.0018585,0.00129558,1.49966e-21
1.48055,0.403272,0.05,-0.00183642,0.00128945,1.88442e-21
1.48055,0.406041,0.05,-0.00181383,0.00128166,1.67638e-21
1.48055,0.408809,0.05,-0.00179019,0.00127214,1.12209e-21
1.48055,0.411577,0.05,-0.00176608,0.0012647,2.23358e-22
1.48055,0.414346,0.05,-0.00174138,0.00125599,3.86586e-22
1.48055,0.417114,0.05,-0.00171669,0.00124728,5.49814e-22
1.48055,0.419882,0.05,-0.00168895,0.00123462,3.53295e-22
1.48055,0.422651,0.05,-0.00166368,0.00122807,6.03979e-22
1.48055,0.425419,0.05,-0.00163683,0.00121847,5.93354e-22
1.48055,0.428188,0.05,-0.00160997,0.00120886,5.82729e-22
1.48055,0.430956,0.05,-0.00157958,0.00119602,5.2974e-22
1.48055,0.433724,0.05,-0.00155178,0.00118755,2.92178e-22
1.48055,0.436493,0.05,-0.00152268,0.00117706,-1.48637e-22
1.48055,0.439261,0.05,-0.00149359,0.00116657,-5.89452e-22
1.48055,0.442029,0.05,-0.00146027,0.00115282,-4.41197e-22
1.48055,0.444798,0.05,-0.00143023,0.00114329,-9.08159e-22
1.48055,0.447566,0.05,-0.00139879,0.00113192,-1.38358e-21
1.48055,0.450335,0.05,-0.00136735,0.00112054,-1.859e-21
1.48055,0.453103,0.05,-0.00133056,0.0011052,-2.75189e-21
1.48055,0.455871,0.05,-0.00129886,0.00109542,-3.06789e-21
1.48055,0.45864,0.05,-0.00126494,0.00108317,-2.40434e-21
1.48055,0.461408,0.05,-0.00123103,0.00107093,-1.74079e-21
1.48055,0.464176,0.05,-0.00118992,0.00105328,-7.0109e-23
1.48055,0.466945,0.05,-0.00115744,0.00104407,1.6518e-21
1.48055,0.469713,0.05,-0.0011209,0.00103095,1.66278e-21
1.48055,0.472482,0.05,-0.00108437,0.00101783,1.67376e-21
1.48055,0.47525,0.05,-0.00104209,0.00100077,5.93699e-22
1.48055,0.478018,0.05,-0.0010049,0.000988659,-1.47706e-21
1.48055,0.480787,0.05,-0.000966401,0.000975369,-1.92509e-21
1.48055,0.483555,0.05,-0.00092707,0.000961379,-2.13748e-21
1.48055,0.486324,0.05,-0.000887104,0.000946998,-2.24484e-21
1.48055,0.489092,0.05,-0.000838406,0.000927623,-3.05546e-22
1.48055,0.49186,0.05,-0.000801198,0.000916563,1.44315e-21
1.48055,0.494629,0.05,-0.000758877,0.000901707,2.10486e-21
1.48055,0.497397,0.05,-0.000716556,0.00088685,2.76656e-21
1.48055,0.500165,0.05,-0.000668073,0.000868588,2.43014e-21
1.48055,0.502934,0.05,-0.000621515,0.000852315,1.44953e-21
1.48055,0.505702,0.05,-0.000579546,0.000838947,1.02408e-21
1.48055,0.508471,0.05,-0.000534018,0.000823231,5.69052e-22
1.48055,0.511239,0.05,-0.00048849,0.000807514,1.14023e-22
1.48055,0.514007,0.05,-0.000432527,0.000786584,-5.52465e-23
1.48055,0.516776,0.05,-0.000385855,0.000771452,-4.89918e-23
1.48055,0.519544,0.05,-0.00033992,0.00075668,1.01179e-22
1.48055,0.522312,0.05,-0.000290948,0.000740114,3.17919e-22
1.48055,0.525081,0.05,-0.000241975,0.000723548,5.34658e-22
1.48055,0.527849,0.05,-0.000180275,0.000701214,1.20063e-21
1.48055,0.530618,0.05,-0.00013015,0.000685237,9.11955e-22
1.48055,0.533386,0.05,-8.14619e-05,0.000669957,6.80582e-22
1.48055,0.536154,0.05,-2.87884e-05,0.00065256,8.31592e-22
1.48055,0.538923,0.05,2.38851e-05,0.000635162,9.82602e-22
1.48055,0.541691,0.05,8.87561e-05,0.000612734,1.27613e-21
1.48055,0.544459,0.05,0.00014689,0.000593907,1.25865e-21
1.48055,0.547228,0.05,0.000196652,0.000579011,8.31319e-22
1.48055,0.549996,0.05,0.000253296,0.000560809,3.00796e-22
1.48055,0.552765,0.05,0.000309941,0.000542608,-2.29727e-22
1.48055,0.555533,0.05,0.000374488,0.000521434,-7.44107e-22
1.48055,0.558301,0.05,0.000446491,0.000497752,-1.04616e-21
1.48055,0.56107,0.05,0.000495714,0.000483872,-5.71246e-22
1.48055,0.563838,0.05,0.000556035,0.000465154,-5.35499e-22
1.48055,0.566606,0.05,0.000616924,0.000446188,-5.22224e-22
1.48055,0.569375,0.05,0.000677813,0.000427223,-5.08948e-22
1.48055,0.572143,0.05,0.000760168,0.000400888,-6.72957e-22
1.48055,0.574912,0.05,0.000822563,0.000382449,-6.10144e-22
1.48055,0.57768,0.05,0.000880008,0.000365935,-3.63792e-22
1.48055,0.580448,0.05,0.000945412,0.000346261,1.33161e-23
1.48055,0.583217,0.05,0.00101082,0.000326588,3.90424e-22
1.48055,0.585985,0.05,0.00108467,0.000304265,7.91506e-22
1.48055,0.588754,0.05,0.00117427,0.00027702,1.24376e-21
1.48055,0.591522,0.05,0.00123093,0.000261609,2.54157e-21
1.48055,0.59429,0.05,0.0012958,0.000243225,2.71037e-21
1.48055,0.597059,0.05,0.00136598,0.000222917,2.1479e-21
1.48055,0.599827,0.05,0.00143616,0.000202608,1.58543e-21
1.48055,0.602595,0.05,0.00152122,0.000178048,9.03738e-24
1.48055,0.605364,0.05,0.00161231,0.000151993,-2.40408e-21
1.48055,0.608132,0.05,0.0016731,0.00013591,-5.19548e-21
1.48055,0.610901,0.05,0.00174346,0.000116657,-5.91515e-21
1.48055,0.613669,0.05,0.00181865,9.58064e-05,-5.59072e-21
1.48055,0.616437,0.05,0.00189384,7.4956e-05,-5.2663e-21
1.48055,0.619206,0.05,0.00198612,4.96691e-05,-3.05483e-21
1.48055,0.621974,0.05,0.00208505,2.28229e-05,3.37592e-22
1.48055,0.624742,0.05,0.00215021,6.15395e-06,3.62078e-21
1.48055,0.627511,0.05,0.00222361,-1.30033e-05,5.35224e-21
1.48055,0.630279,0.05,0.00230402,-3.42817e-05,5.76098e-21
1.48055,0.633048,0.05,0.00238443,-5.55601e-05,6.16971e-21
1.48055,0.635816,0.05,0.00247887,-8.01402e-05,5.19926e-21
1.48055,0.638584,0.05,0.00258874,-0.000108345,2.71459e-21
1.48055,0.641353,0.05,0.00266302,-0.00012674,3.05633e-22
1.48055,0.644121,0.05,0.00273647,-0.000144906,-1.67633e-21
1.48055,0.646889,0.05,0.00282225,-0.000166475,-2.25713e-21
1.48055,0.649658,0.05,0.00290803,-0.000188045,-2.83793e-21
1.48055,0.652426,0.05,0.0029987,-0.00021065,-3.16965e-21
1.48055,0.655195,0.05,0.00311529,-0.000238744,-2.18066e-21
1.48055,0.657963,0.05,0.00321167,-0.000261746,-1.37609e-21
1.48055,0.660731,0.05,0.00328626,-0.000279258,-7.70383e-22
1.48055,0.6635,0.05,0.00337304,-0.000299837,-3.30461e-22
1.48055,0.666268,0.05,0.00346427,-0.000321539,4.87746e-23
1.48055,0.669036,0.05,0.00355551,-0.00034324,4.2801e-22
1.48055,0.671805,0.05,0.00366769,-0.000368901,6.31586e-22
1.48055,0.674573,0.05,0.00379082,-0.000396633,7.43199e-22
1.48055,0.677342,0.05,0.00387525,-0.000415481,1.96637e-21
1.48055,0.68011,0.05,0.00395558,-0.000433388,3.25243e-21
1.48055,0.682878,0.05,0.00405228,-0.00045504,2.92481e-21
1.48055,0.685647,0.05,0.00414898,-0.000476692,2.59718e-21
1.48055,0.688415,0.05,0.00424567,-0.000498344,2.26956e-21
1.48055,0.691184,0.05,0.00437396,-0.00052527,4.95306e-22
1.48055,0.693952,0.05,0.00449852,-0.000551376,-1.40244e-21
1.48055,0.69672,0.05,0.0045831,-0.000569155,-3.93287e-21
1.48055,0.699489,0.05,0.00467063,-0.000587546,-6.04069e-21
1.48055,0.702257,0.05,0.00477268,-0.000608947,-6.06981e-21
1.48055,0.705025,0.05,0.00487473,-0.000630347,-6.09892e-21
1.48055,0.707794,0.05,0.0049798,-0.000652185,-5.87817e-21
1.48055,0.710562,0.05,0.00511479,-0.000678367,-3.18157e-21
1.48055,0.713331,0.05,0.00524363,-0.000703392,-4.56281e-22
1.48055,0.716099,0.05,0.00533323,-0.000721038,2.45198e-21
1.48055,0.718867,0.05,0.00542461,-0.000739015,5.0923e-21
1.48055,0.721636,0.05,0.00553178,-0.000759944,5.34028e-21
1.48055,0.724404,0.05,0.00563895,-0.000780873,5.58826e-21
1.48055,0.727172,0.05,0.00574697,-0.000801909,5.76939e-21
1.48055,0.729941,0.05,0.00588687,-0.000826879,3.46854e-21
1.48055,0.732709,0.05,0.00602676,-0.00085185,1.16769e-21
1.48055,0.735478,0.05,0.00612247,-0.000869364,-5.9746e-22
1.48055,0.738246,0.05,0.00621697,-0.000886676,-2.34798e-21
1.48055,0.741014,0.05,0.00632609,-0.000906437,-2.61268e-21
1.48055,0.743783,0.05,0.006438,-0.000926665,-2.59444e-21
1.48055,0.746551,0.05,0.00654991,-0.000946893,-2.5762e-21
1.48055,0.749319,0.05,0.0066864,-0.00096962,-1.45881e-21
1.48055,0.752088,0.05,0.00683023,-0.000993092,-1.39034e-23
1.48055,0.754856,0.05,0.00694637,-0.00101241,4.59437e-22
1.48055,0.757625,0.05,0.00704552,-0.00102917,3.36125e-22
1.48055,0.760393,0.05,0.00715122,-0.00104691,2.68111e-22
1.48055,0.763161,0.05,0.00726731,-0.0010662,2.87948e-22
1.48055,0.76593,0.05,0.00738341,-0.00108549,3.07785e-22
1.48055,0.768698,0.05,0.00750935,-0.00110556,3.63595e-22
1.48055,0.771466,0.05,0.00765591,-0.00112727,4.94683e-22
1.48055,0.774235,0.05,0.00779931,-0.00114855,6.07255e-22
1.48055,0.777003,0.05,0.00790269,-0.00116455,4.85353e-22
1.48055,0.779772,0.05,0.00800606,-0.00118054,3.63451e-22
1.48055,0.78254,0.05,0.0081214,-0.00119811,8.79288e-23
1.48055,0.785308,0.05,0.00824097,-0.00121623,-2.41803e-22
1.48055,0.788077,0.05,0.00836053,-0.00123436,-5.71535e-22
1.48055,0.790845,0.05,0.00849946,-0.00125356,-9.6454e-22
1.48055,0.793614,0.05,0.00864734,-0.00127327,-1.38673e-21
1.48055,0.796382,0.05,0.00878157,-0.0012914,-1.53026e-21
1.48055,0.79915,0.05,0.00888859,-0.0013064,-1.11828e-21
1.48055,0.801919,0.05,0.00899562,-0.00132141,-7.06295e-22
1.48055,0.804687,0.05,0.00911621,-0.00133797,-4.5996e-22
1.48055,0.807455,0.05,0.00923833,-0.00135472,-2.32306e-22
1.48055,0.810224,0.05,0.00936045,-0.00137146,-4.65283e-24
1.48055,0.812992,0.05,0.00950429,-0.00138886,1.73006e-22
1.48055,0.815761,0.05,0.00965188,-0.00140637,3.42054e-22
1.48055,0.818529,0.05,0.00978432,-0.00142239,3.76648e-22
1.48055,0.821297,0.05,0.00989421,-0.0014362,2.113e-22
1.48055,0.824066,0.05,0.0100041,-0.00145001,4.59523e-23
1.48055,0.826834,0.05,0.0101259,-0.001465,1.02443e-22
1.48055,0.829602,0.05,0.0102495,-0.00148017,1.93532e-22
1.48055,0.832371,0.05,0.0103731,-0.00149534,2.84621e-22
1.48055,0.835139,0.05,0.0105149,-0.00151053,3.96229e-22
1.48055,0.837908,0.05,0.0106605,-0.00152572,5.12058e-22
1.48055,0.840676,0.05,0.0107967,-0.00154015,5.64124e-22
1.48055,0.843444,0.05,0.0109085,-0.00155258,4.50231e-22
1.48055,0.846213,0.05,0.0110202,-0.001565,3.36339e-22
1.48055,0.848981,0.05,0.0111397,-0.00157808,3.05206e-22
1.48055,0.851749,0.05,0.0112636,-0.00159153,3.20807e-22
1.48055,0.854518,0.05,0.0113874,-0.00160498,3.36408e-22
1.48055,0.857286,0.05,0.0115222,-0.00161804,3.88036e-22
1.48055,0.860055,0.05,0.011664,-0.00163086,4.62349e-22
1.48055,0.862823,0.05,0.0118058,-0.00164368,5.36661e-22
1.48055,0.865591,0.05,0.0119195,-0.00165466,1.37268e-21
1.48055,0.86836,0.05,0.012032,-0.00166556,2.23953e-21
1.48055,0.871128,0.05,0.0121468,-0.00167662,2.89271e-21
1.48055,0.873896,0.05,0.0122695,-0.00168824,2.79581e-21
1.48055,0.876665,0.05,0.0123922,-0.00169986,2.69892e-21
1.48055,0.879433,0.05,0.0125177,-0.00171124,2.4573e-21
1.48055,0.882202,0.05,0.0126539,-0.00172171,1.65857e-21
1.48055,0.88497,0.05,0.0127902,-0.00173218,8.59839e-22
1.48055,0.887738,0.05,0.0129154,-0.00174211,-5.28615e-23
1.48055,0.890507,0.05,0.0130274,-0.00175138,-1.10285e-21
1.48055,0.893275,0.05,0.0131394,-0.00176064,-2.15283e-21
1.48055,0.896044,0.05,0.0132564,-0.0017702,-2.638e-21
1.48055,0.898812,0.05,0.0133766,-0.00177995,-2.76848e-21
1.48055,0.90158,0.05,0.0134967,-0.00178969,-2.89896e-21
1.48055,0.904349,0.05,0.0136223,-0.00179851,-2.60661e-21
1.48055,0.907117,0.05,0.0137515,-0.00180673,-2.04175e-21
1.48055,0.909885,0.05,0.0138807,-0.00181495,-1.47689e-21
1.48055,0.912654,0.05,0.0139953,-0.0018227,-1.08409e-21
1.48055,0.915422,0.05,0.0141054,-0.00183029,-7.46694e-22
1.48055,0.918191,0.05,0.0142154,-0.00183788,-4.09302e-22
1.48055,0.920959,0.05,0.0143305,-0.00184571,-2.23724e-22
1.48055,0.923727,0.05,0.0144466,-0.00185359,-7.1818e-23
1.48055,0.926496,0.05,0.0145628,-0.00186147,8.00881e-23
1.48055,0.929264,0.05,0.0146827,-0.00186793,1.09467e-23
1.48055,0.932032,0.05,0.0148035,-0.00187408,-1.06567e-22
1.48055,0.934801,0.05,0.0149243,-0.00188023,-2.24082e-22
1.48055,0.937569,0.05,0.0150327,-0.00188618,-1.39017e-22
1.48055,0.940338,0.05,0.0151394,-0.00189211,-2.39672e-23
1.48055,0.943106,0.05,0.015246,-0.00189804,9.10829e-23
1.48055,0.945874,0.05,0.0153562,-0.0019041,1.06232e-22
1.48055,0.948643,0.05,0.0154671,-0.0019102,1.01837e-22
1.48055,0.951411,0.05,0.015578,-0.0019163,9.74429e-23
1.48055,0.954179,0.05,0.0156893,-0.00192088,2.39888e-22
1.48055,0.956948,0.05,0.0158008,-0.00192519,4.09298e-22
1.48055,0.959716,0.05,0.0159122,-0.0019295,5.78708e-22
1.48055,0.962485,0.05,0.016016,-0.00193383,4.80476e-22
1.48055,0.965253,0.05,0.0161179,-0.00193817,3.15175e-22
1.48055,0.968021,0.05,0.0162198,-0.00194251,1.49875e-22
1.48055,0.97079,0.05,0.0163235,-0.00194692,2.89501e-23
1.48055,0.973558,0.05,0.016428,-0.00195137,-7.01619e-23
1.48055,0.976326,0.05,0.0165324,-0.00195581,-1.69274e-22
1.48055,0.979095,0.05,0.0166349,-0.00195908,-2.47225e-22
1.48055,0.981863,0.05,0.0167365,-0.00196181,-3.15365e-22
1.48055,0.984632,0.05,0.0168381,-0.00196455,-3.83504e-22
1.48055,0.9874,0.05,0.0169367,-0.00196736,-3.77307e-22
1.48055,0.990168,0.05,0.0170327,-0.00197024,-3.08908e-22
1.48055,0.992937,0.05,0.0171287,-0.00197313,-2.40509e-22
1.48055,0.995705,0.05,0.0172251,-0.00197604,-1.9178e-22
1.48055,0.998474,0.05,0.0173224,-0.00197901,-1.84189e-22
1.48055,1.00124,0.05,0.0174196,-0.00198199,-1.76599e-22
1.48055,1.00401,0.05,0.0175149,-0.00198444,-1.92089e-22
1.48055,1.00678,0.05,0.0176065,-0.00198588,-2.52814e-22
1.48055,1.00955,0.05,0.0176981,-0.00198732,-3.13539e-22
1.48055,1.01232,0.05,0.0177895,-0.00198878,-3.61211e-22
1.48055,1.01508,0.05,0.0178788,-0.00199039,-3.01355e-22
1.48055,1.01785,0.05,0.0179681,-0.00199199,-2.41499e-22
1.48055,1.02062,0.05,0.0180573,-0.0019936,-1.81642e-22
1.48055,1.02339,0.05,0.0181467,-0.00199529,-1.30311e-22
1.48055,1.02616,0.05,0.0182361,-0.001997,-8.11295e-23
1.48055,1.02893,0.05,0.0183254,-0.00199871,-3.19476e-23
1.48055,1.03169,0.05,0.0184088,-0.00199938,-6.55441e-23
1.48055,1.03446,0.05,0.0184908,-0.0019998,-1.18378e-22
1.48055,1.03723,0.05,0.0185728,-0.00200023,-1.71211e-22
1.48055,1.04,0.05,0.0186548,-0.00200071,-3.33163e-22
1.48055,1.04277,0.05,0.0187368,-0.00200124,-6.06802e-22
1.48055,1.04554,0.05,0.0188187,-0.00200177,-8.80441e-22
1.48055,1.0483,0.05,0.0189006,-0.00200232,-1.12754e-21
1.48055,1.05107,0.05,0.0189819,-0.00200299,-1.13458e-21
1.48055,1.05384,0.05,0.0190633,-0.00200367,-1.14162e-21
1.48055,1.05661,0.05,0.0191437,-0.00200423,-1.11895e-21
1.48055,1.05938,0.05,0.0192168,-0.00200389,-8.4833e-22
1.48055,1.06215,0.05,0.0192898,-0.00200354,-5.7771e-22
1.48055,1.06491,0.05,0.0193628,-0.0020032,-3.07089e-22
1.48055,1.06768,0.05,0.0194369,-0.00200287,-1.88879e-22
1.48055,1.07045,0.05,0.0195113,-0.00200254,-1.34211e-22
1.48055,1.07322,0.05,0.0195858,-0.00200222,-7.95416e-23
1.48055,1.07599,0.05,0.01966,-0.00200193,-3.16358e-23
1.48055,1.07876,0.05,0.0197334,-0.00200178,-6.35179e-24
1.48055,1.08152,0.05,0.0198068,-0.00200163,1.89323e-23
1.48055,1.08429,0.05,0.0198783,-0.00200132,3.8362e-23
1.48055,1.08706,0.05,0.0199433,-0.00200042,3.79854e-23
1.48055,1.08983,0.05,0.0200082,-0.00199952,3.76088e-23
1.48055,1.0926,0.05,0.0200731,-0.00199862,3.72323e-23
1.48055,1.09537,0.05,0.0201396,-0.00199766,2.56548e-22
1.48055,1.09814,0.05,0.0202067,-0.00199668,5.50305e-22
1.48055,1.1009,0.05,0.0202738,-0.0019957,8.44061e-22
1.48055,1.10367,0.05,0.0203407,-0.00199475,1.08168e-21
1.48055,1.10644,0.05,0.0204066,-0.00199399,1.08727e-21
1.48055,1.10921,0.05,0.0204725,-0.00199322,1.09285e-21
1.48055,1.11198,0.05,0.020537,-0.00199236,1.06098e-21
1.48055,1.11475,0.05,0.0205947,-0.00199106,8.56974e-22
1.48055,1.11751,0.05,0.0206525,-0.00198977,6.52964e-22
1.48055,1.12028,0.05,0.0207102,-0.00198848,4.48954e-22
1.48055,1.12305,0.05,0.0207695,-0.00198709,3.1575e-22
1.48055,1.12582,0.05,0.0208296,-0.00198564,2.25584e-22
1.48055,1.12859,0.05,0.0208898,-0.00198418,1.35418e-22
1.48055,1.13136,0.05,0.0209499,-0.00198273,4.52518e-23
1.48055,1.13412,0.05,0.0210089,-0.00198151,8.49473e-23
1.48055,1.13689,0.05,0.0210679,-0.00198029,1.24876e-22
1.48055,1.13966,0.05,0.0211269,-0.00197907,1.64805e-22
1.48055,1.14243,0.05,0.0211788,-0.00197751,2.64922e-22
1.48055,1.1452,0.05,0.0212304,-0.00197595,3.67354e-22
1.48055,1.14797,0.05,0.0212821,-0.00197438,4.69786e-22
1.48055,1.15073,0.05,0.0213344,-0.00197274,5.94423e-22
1.48055,1.1535,0.05,0.0213882,-0.00197097,7.63008e-22
1.48055,1.15627,0.05,0.0214421,-0.00196919,9.31592e-22
1.48055,1.15904,0.05,0.0214959,-0.00196741,1.10018e-21
1.48055,1.16181,0.05,0.0215491,-0.00196579,1.13446e-21
1.48055,1.16458,0.05,0.0216019,-0.00196426,1.09499e-21
1.48055,1.16734,0.05,0.0216547,-0.00196272,1.05552e-21
1.48055,1.17011,0.05,0.0217038,-0.00196105,8.38739e-22
1.48055,1.17288,0.05,0.0217502,-0.0019593,4.96542e-22
1.48055,1.17565,0.05,0.0217966,-0.00195754,1.54346e-22
1.48055,1.17842,0.05,0.021843,-0.00195578,-1.87851e-22
1.48055,1.18119,0.05,0.021891,-0.00195382,-6.20396e-22
1.48055,1.18395,0.05,0.0219392,-0.00195184,-1.06375e-21
1.48055,1.18672,0.05,0.0219874,-0.00194986,-1.5071e-21
1.48055,1.18949,0.05,0.0220355,-0.00194791,-1.89483e-21
1.48055,1.19226,0.05,0.0220829,-0.00194616,-1.94741e-21
1.48055,1.19503,0.05,0.0221303,-0.0019444,-1.99999e-21
1.48055,1.1978,0.05,0.0221775,-0.00194264,-2.02193e-21
1.48055,1.20057,0.05,0.0222195,-0.00194074,-1.48783e-21
1.48055,1.20333,0.05,0.0222616,-0.00193883,-9.5374e-22
1.48055,1.2061,0.05,0.0223037,-0.00193693,-4.19647e-22
1.48055,1.20887,0.05,0.0223461,-0.00193496,2.26331e-23
1.48055,1.21164,0.05,0.0223894,-0.00193286,2.50745e-22
1.48055,1.21441,0.05,0.0224328,-0.00193075,4.78857e-22
1.48055,1.21718,0.05,0.0224761,-0.00192864,7.06969e-22
1.48055,1.21994,0.05,0.0225192,-0.00192664,8.4724e-22
1.48055,1.22271,0.05,0.022562,-0.00192474,8.97735e-22
1.48055,1.22548,0.05,0.0226047,-0.00192285,9.48229e-22
1.48055,1.22825,0.05,0.0226459,-0.0019209,9.21288e-22
1.48055,1.23102,0.05,0.0226844,-0.00191888,7.61436e-22
1.48055,1.23379,0.05,0.0227228,-0.00191686,6.01583e-22
1.48055,1.23655,0.05,0.0227612,-0.00191484,4.41731e-22
1.48055,1.23932,0.05,0.0228001,-0.00191273,3.23638e-22
1.48055,1.24209,0.05,0.0228393,-0.00191055,2.38042e-22
1.48055,1.24486,0.05,0.0228785,-0.00190838,1.52446e-22
1.48055,1.24763,0.05,0.0229177,-0.00190621,6.68499e-23
1.48055,1.2504,0.05,0.0229566,-0.00190416,3.26413e-23
1.48055,1.25316,0.05,0.0229955,-0.00190216,1.95755e-23
1.48055,1.25593,0.05,0.0230343,-0.00190016,6.50962e-24
1.48055,1.2587,0.05,0.0230713,-0.00189809,-1.99083e-23
1.48055,1.26147,0.05,0.0231068,-0.00189596,-5.77219e-23
1.48055,1.26424,0.05,0.0231422,-0.00189384,-9.55355e-23
1.48055,1.26701,0.05,0.0231776,-0.00189171,-1.33349e-22
1.48055,1.26977,0.05,0.0232133,-0.00188953,-1.19809e-22
1.48055,1.27254,0.05,0.023249,-0.00188732,-8.28249e-23
1.48055,1.27531,0.05,0.0232847,-0.00188511,-4.58403e-23
1.48055,1.27808,0.05,0.0233204,-0.0018829,-8.85573e-24
1.48055,1.28085,0.05,0.023356,-0.00188079,-1.14671e-24
1.48055,1.28362,0.05,0.0233915,-0.00187872,-1.17612e-24
1.48055,1.28638,0.05,0.0234271,-0.00187665,-1.20553e-24
1.48055,1.28915,0.05,0.0234611,-0.00187449,-3.40856e-24
1.48055,1.29192,0.05,0.0234941,-0.00187226,-7.23132e-24
1.48055,1.29469,0.05,0.023527,-0.00187003,-1.10541e-23
1.48055,1.29746,0.05,0.0235599,-0.00186781,-1.48768e-23
1.48055,1.30023,0.05,0.0235927,-0.00186558,-1.33447e-23
1.48055,1.303,0.05,0.0236255,-0.00186335,-9.28644e-24
1.48055,1.30576,0.05,0.0236583,-0.00186112,-5.2282e-24
1.48055,1.30853,0.05,0.0236911,-0.00185889,-1.16996e-24
1.48055,1.3113,0.05,0.0237239,-0.00185673,-1.27e-23
1.48055,1.31407,0.05,0.0237567,-0.00185459,-2.94543e-23
1.48055,1.31684,0.05,0.0237895,-0.00185246,-4.62086e-23
1.48055,1.31961,0.05,0.0238213,-0.00185023,-6.12766e-23
1.48055,1.32237,0.05,0.0238521,-0.0018479,-7.44855e-23
1.48055,1.32514,0.05,0.0238829,-0.00184558,-8.76943e-23
1.48055,1.32791,0.05,0.0239137,-0.00184325,-1.00903e-22
1.48055,1.33068,0.05,0.0239443,-0.00184097,-9.94467e-23
1.48055,1.33345,0.05,0.0239746,-0.00183872,-8.5915e-23
1.48055,1.33622,0.05,0.024005,-0.00183648,-7.23833e-23
1.48055,1.33898,0.05,0.0240354,-0.00183424,-5.88516e-23
1.48055,1.34175,0.05,0.0240658,-0.00183202,-4.29618e-23
1.48055,1.34452,0.05,0.0240962,-0.00182983,-2.54347e-23
1.48055,1.34729,0.05,0.0241267,-0.00182764,-7.90755e-24
1.48055,1.35006,0.05,0.0241568,-0.00182539,-4.42653e-24
1.48055,1.35283,0.05,0.0241858,-0.00182296,-4.20198e-23
1.48055,1.35559,0.05,0.0242148,-0.00182053,-7.96131e-23
1.48055,1.35836,0.05,0.0242439,-0.0018181,-1.17206e-22
1.48055,1.36113,0.05,0.0242727,-0.00181573,-1.32379e-22
1.48055,1.3639,0.05,0.024301,-0.00181347,-9.55238e-23
1.48055,1.36667,0.05,0.0243293,-0.00181121,-5.86682e-23
1.48055,1.36944,0.05,0.0243576,-0.00180895,-2.18126e-23
1.48055,1.3722,0.05,0.024386,-0.0018067,7.68202e-24
1.48055,1.37497,0.05,0.0244145,-0.00180445,2.17102e-23
1.48055,1.37774,0.05,0.024443,-0.0018022,3.57383e-23
1.48055,1.38051,0.05,0.0244715,-0.00179995,4.97665e-23
1.48055,1.38328,0.05,0.0244991,-0.00179745,6.48954e-23
1.48055,1.38605,0.05,0.0245266,-0.00179492,8.01219e-23
1.48055,1.38881,0.05,0.0245541,-0.00179239,9.53484e-23
1.48055,1.39158,0.05,0.0245815,-0.00178986,1.10575e-22
1.48055,1.39435,0.05,0.0246082,-0.00178757,9.73423e-23
1.48055,1.39712,0.05,0.0246348,-0.00178529,8.2478e-23
1.48055,1.39989,0.05,0.0246614,-0.00178302,6.76137e-23
1.48055,1.40266,0.05,0.024688,-0.00178074,5.27495e-23
1.48055,1.40543,0.05,0.0247148,-0.00177844,1.86333e-24
1.48055,1.40819,0.05,0.0247417,-0.00177613,-5.07565e-23
1.48055,1.41096,0.05,0.0247686,-0.00177382,-1.03376e-22
1.48055,1.41373,0.05,0.0247951,-0.00177136,-1.61243e-22
1.48055,1.4165,0.05,0.0248212,-0.00176873,-2.249e-22
1.48055,1.41927,0.05,0.0248474,-0.0017661,-2.88557e-22
1.48055,1.42204,0.05,0.0248735,-0.00176347,-3.52214e-22
1.48055,1.4248,0.05,0.0248991,-0.00176101,-4.48276e-22
1.48055,1.42757,0.05,0.0249243,-0.00175871,-5.7795e-22
1.48055,1.43034,0.05,0.0249494,-0.00175641,-7.07623e-22
1.48055,1.43311,0.05,0.0249746,-0.00175411,-8.37297e-22
1.48055,1.43588,0.05,0.0249998,-0.00175178,-8.84933e-22
1.48055,1.43865,0.05,0.0250253,-0.00174942,-8.48442e-22
1.48055,1.44141,0.05,0.0250507,-0.00174705,-8.1195e-22
1.48055,1.44418,0.05,0.0250762,-0.00174469,-7.75458e-22
1.48055,1.44695,0.05,0.0251012,-0.00174199,-5.93127e-22
1.48055,1.44972,0.05,0.0251261,-0.00173926,-4.00475e-22
1.48055,1.45249,0.05,0.0251511,-0.00173653,-2.07823e-22
1.48055,1.45526,0.05,0.025176,-0.0017338,-1.51709e-23
1.48055,1.45802,0.05,0.0251999,-0.00173146,1.73227e-22
1.48055,1.46079,0.05,0.0252238,-0.00172914,3.61379e-22
1.48055,1.46356,0.05,0.0252477,-0.00172681,5.49532e-22
1.48055,1.46633,0.05,0.0252716,-0.00172449,7.37684e-22
1.48055,1.4691,0.05,0.0252958,-0.00172207,7.83559e-22
1.48055,1.47187,0.05,0.02532,-0.00171965,8.22e-22
1.48055,1.47463,0.05,0.0253442,-0.00171722,8.60442e-22
1.48055,1.4774,0.05,0.0253683,-0.00171468,8.5775e-22
1.48055,1.48017,0.05,0.0253922,-0.00171185,7.60669e-22
1.48055,1.48294,0.05,0.025416,-0.00170903,6.63588e-22
1.48055,1.48571,0.05,0.0254399,-0.00170621,5.66506e-22
1.48055,1.48848,0.05,0.0254634,-0.00170354,4.71921e-22
1.48055,1.49124,0.05,0.0254862,-0.00170119,3.82676e-22
1.48055,1.49401,0.05,0.025509,-0.00169884,2.93432e-22
1.48055,1.49678,0.05,0.0255318,-0.00169649,2.04188e-22
1.48055,1.49955,0.05,0.0255547,-0.00169409,1.32362e-22
1.48055,1.50232,0.05,0.0255778,-0.00169161,9.53719e-23
1.48055,1.50509,0.05,0.0256009,-0.00168912,5.83821e-23
1.48055,1.50786,0.05,0.025624,-0.00168663,2.13922e-23
1.48055,1.51062,0.05,0.025647,-0.0016839,7.17149e-24
1.48055,1.51339,0.05,0.0256698,-0.00168099,8.525e-24
1.48055,1.51616,0.05,0.0256927,-0.00167808,9.8785e-24
1.48055,1.51893,0.05,0.0257156,-0.00167517,1.1232e-23
1.48055,1.5217,0.05,0.0257378,-0.00167259,1.05466e-23
1.48055,1.52447,0.05,0.0257596,-0.00167021,8.61195e-24
1.48055,1.52723,0.05,0.0257814,-0.00166783,6.67736e-24
1.48055,1.53,0.05,0.0258032,-0.00166544,4.74276e-24
1.48055,1.53277,0.05,0.0258252,-0.00166296,3.98107e-24
1.48055,1.53554,0.05,0.0258474,-0.00166041,3.84451e-24
1.48055,1.53831,0.05,0.0258695,-0.00165787,3.70796e-24
1.48055,1.54108,0.05,0.0258916,-0.00165532,3.5714e-24
1.48055,1.54384,0.05,0.0259136,-0.00165242,-2.34226e-23
1.48055,1.54661,0.05,0.0259356,-0.00164943,-5.65179e-23
1.48055,1.54938,0.05,0.0259575,-0.00164644,-8.96133e-23
1.48055,1.55215,0.05,0.0259795,-0.00164346,-1.22709e-22
1.48055,1.55492,0.05,0.0260005,-0.00164096,-1.00679e-22
1.48055,1.55769,0.05,0.0260215,-0.00163855,-6.96815e-23
1.48055,1.56045,0.05,0.0260424,-0.00163614,-3.86841e-23
1.48055,1.56322,0.05,0.0260633,-0.00163372,-7.68676e-24
1.48055,1.56599,0.05,0.0260845,-0.00163114,-5.23462e-24
1.48055,1.56876,0.05,0.0261058,-0.00162854,-5.35755e-24
1.48055,1.57153,0.05,0.026127,-0.00162594,-5.48048e-24
1.48055,1.5743,0.05,0.0261482,-0.00162334,-5.6034e-24
1.48055,1.57706,0.05,0.0261693,-0.00162029,-4.42559e-24
1.48055,1.57983,0.05,0.0261904,-0.00161723,-3.21727e-24
1.48055,1.5826,0.05,0.0262115,-0.00161417,-2.00894e-24
1.48055,1.58537,0.05,0.0262325,-0.00161115,-8.52815e-25
1.48055,1.58814,0.05,0.0262527,-0.0016087,-7.14477e-25
1.48055,1.59091,0.05,0.0262728,-0.00160626,-5.7614e-25
1.48055,1.59367,0.05,0.0262929,-0.00160381,-4.37802e-25
1.48055,1.59644,0.05,0.026313,-0.00160134,-2.9685e-24
1.48055,1.59921,0.05,0.0263334,-0.00159868,-2.21254e-23
1.48055,1.60198,0.05,0.0263538,-0.00159603,-4.12823e-23
1.48055,1.60475,0.05,0.0263742,-0.00159338,-6.04392e-23
1.48055,1.60752,0.05,0.0263946,-0.00159068,-8.14924e-23
1.48055,1.61029,0.05,0.0264149,-0.00158756,-1.2146e-22
1.48055,1.61305,0.05,0.0264351,-0.00158444,-1.61428e-22
1.48055,1.61582,0.05,0.0264554,-0.00158132,-2.01396e-22
1.48055,1.61859,0.05,0.0264755,-0.00157833,-2.57167e-22
1.48055,1.62136,0.05,0.0264948,-0.00157586,-3.77441e-22
1.48055,1.62413,0.05,0.0265142,-0.00157338,-4.97715e-22
1.48055,1.6269,0.05,0.0265335,-0.00157091,-6.17988e-22
1.48055,1.62966,0.05,0.0265529,-0.00156836,-6.9068e-22
1.48055,1.63243,0.05,0.0265725,-0.00156566,-6.64988e-22
1.48055,1.6352,0.05,0.0265922,-0.00156296,-6.39296e-22
1.48055,1.63797,0.05,0.0266118,-0.00156026,-6.13604e-22
1.48055,1.64074,0.05,0.0266313,-0.00155748,-5.60736e-22
1.48055,1.64351,0.05,0.0266508,-0.0015543,-3.73315e-22
1.48055,1.64627,0.05,0.0266703,-0.00155113,-1.85893e-22
1.48055,1.64904,0.05,0.0266897,-0.00154796,1.52817e-24
1.48055,1.65181,0.05,0.0267089,-0.001545,2.20371e-22
1.48055,1.65458,0.05,0.0267276,-0.0015425,5.07555e-22
1.48055,1.65735,0.05,0.0267462,-0.00153999,7.9474e-22
1.48055,1.66012,0.05,0.0267649,-0.00153749,1.08192e-21
1.48055,1.66288,0.05,0.0267836,-0.00153487,1.2267e-21
1.48055,1.66565,0.05,0.0268025,-0.00153213,1.22375e-21
1.48055,1.66842,0.05,0.0268213,-0.00152938,1.22081e-21
1.48055,1.67119,0.05,0.0268402,-0.00152664,1.21786e-21
1.48055,1.67396,0.05,0.026859,-0.00152379,1.14725e-21
1.48055,1.67673,0.05,0.0268777,-0.00152057,8.35424e-22
1.48055,1.67949,0.05,0.0268964,-0.00151735,5.23599e-22
1.48055,1.68226,0.05,0.0269151,-0.00151414,2.11775e-22
1.48055,1.68503,0.05,0.0269335,-0.00151121,-9.89609e-23
1.48055,1.6878,0.05,0.0269514,-0.00150868,-4.08157e-22
1.48055,1.69057,0.05,0.0269694,-0.00150616,-7.17353e-22
1.48055,1.69334,0.05,0.0269873,-0.00150363,-1.02655e-21
1.48055,1.6961,0.05,0.0270054,-0.00150094,-1.15682e-21
1.48055,1.69887,0.05,0.0270235,-0.00149816,-1.18806e-21
1.48055,1.70164,0.05,0.0270416,-0.00149538,-1.2193e-21
1.48055,1.70441,0.05,0.0270598,-0.00149259,-1.25054e-21
1.48055,1.70718,0.05,0.0270778,-0.00148969,-1.21205e-21
1.48055,1.70995,0.05,0.0270958,-0.00148644,-9.70537e-22
1.48055,1.71272,0.05,0.0271137,-0.00148318,-7.29024e-22
1.48055,1.71548,0.05,0.0271316,-0.00147993,-4.87512e-22
1.48055,1.71825,0.05,0.0271492,-0.00147704,-3.33566e-22
1.48055,1.72102,0.05,0.0271665,-0.00147449,-2.65073e-22
1.48055,1.72379,0.05,0.0271838,-0.00147195,-1.96581e-22
1.48055,1.72656,0.05,0.027201,-0.0014694,-1.28089e-22
1.48055,1.72933,0.05,0.0272184,-0.00146664,-8.1e-23
1.48055,1.73209,0.05,0.0272358,-0.00146382,-3.9412e-23
1.48055,1.73486,0.05,0.0272533,-0.00146101,2.17595e-24
1.48055,1.73763,0.05,0.0272707,-0.00145819,4.37639e-23
1.48055,1.7404,0.05,0.027288,-0.00145524,8.89792e-23
1.48055,1.74317,0.05,0.0273053,-0.00145196,1.43097e-22