y,U_0,U_1,U_2
0,0,0,0
0.00048240845,-0.0014213899,5.9312536e-06,2.2537277e-23
0.00098049384,-0.0029472075,1.6655419e-05,1.066404e-23
0.0014947656,-0.0046213889,3.4960778e-05,-1.0372643e-23
0.0020257498,-0.0064620096,6.1043355e-05,-9.2146752e-24
0.0025739895,-0.0084790499,9.5883403e-05,9.7241374e-24
0.0031400454,-0.010682717,0.00014018095,6.6603964e-24
0.0037244966,-0.013083384,0.00019468694,-6.9144498e-24
0.0043279408,-0.0156916,0.00026018656,-4.1006781e-23
0.0049509953,-0.018518141,0.00033750033,-4.42045e-23
0.0055942973,-0.021574004,0.00042748473,4.8495222e-23
0.0062585048,-0.024870298,0.00053103048,1.0411006e-22
0.0069442972,-0.028418128,0.00064905993,5.4173875e-23
0.007652376,-0.032228464,0.00078252371,4.4809462e-23
0.0083834654,-0.036312027,0.00093239671,9.8188474e-23
0.0091383131,-0.040679118,0.0010996719,7.0982987e-23
0.0099176913,-0.045339428,0.0012853529,-2.0238615e-23
0.010722397,-0.050301764,0.0014904441,-1.8733011e-24
0.011553254,-0.055573701,0.0017159377,-2.4822024e-24
0.012411111,-0.061161108,0.0019627976,2.5160933e-23
0.013296846,-0.067067503,0.0022319381,-2.8440834e-23
0.014211364,-0.073293176,0.0025241966,-3.3694973e-23
0.015155603,-0.079833998,0.0028402974,1.4519302e-22
0.016130526,-0.086679911,0.0031808052,1.9259343e-22
0.017137132,-0.093813086,0.0035460654,1.2754618e-23
0.018176449,-0.10120589,0.0039361332,1.8786676e-22
0.019249542,-0.10881884,0.0043506922,4.2784214e-22
0.020357507,-0.11659895,0.0047889703,3.3385956e-22
0.021501477,-0.12447904,0.0052496634,2.3205791e-22
0.022682624,-0.1323787,0.0057308882,9.3382217e-23
0.023902154,-0.14020747,0.0062301847,-7.5070923e-23
0.025161316,-0.14787019,0.0067445881,-6.6556e-23
0.026461397,-0.15527392,0.0072707715,2.2616709e-22
0.027803728,-0.16233506,0.0078052486,1.2048918e-22
0.02918968,-0.16898537,0.0083445984,1.8849893e-22
0.030620672,-0.17517569,0.0088856812,2.6700033e-22
0.032098167,-0.1808771,0.0094258056,-8.8259064e-23
0.033623676,-0.18607978,0.0099628394,-1.6703375e-22
0.03519876,-0.19079004,0.010495246,3.8371977e-24
0.03682503,-0.19502656,0.011022058,2.4203288e-22
0.03850415,-0.19881638,0.011542808,3.4088234e-22
0.040237836,-0.2021915,0.012057438,2.8784598e-22
0.042027862,-0.20518607,0.012566208,1.7267319e-22
0.043876059,-0.20783433,0.013069612,1.4173973e-22
0.045784317,-0.21016921,0.013568302,-6.2499207e-24
0.047754588,-0.2122214,0.014063027,-1.1730294e-22
0.049788888,-0.21401891,0.014554587,8.6177887e-23
0.051889297,-0.21558686,0.015043797,3.982364e-22
0.054057963,-0.21694754,0.015531463,3.5190419e-22
0.056297104,-0.21812055,0.016018367,-1.6104427e-22
0.058609012,-0.21912302,0.016505256,-2.6651276e-22
0.06099605,-0.21996983,0.016992835,-1.3404883e-22
0.06346066,-0.22067389,0.017481766,-1.7504796e-22
0.066005363,-0.22124636,0.017972668,-8.005565e-23
0.068632762,-0.22169684,0.018466116,-1.6657555e-22
0.071345544,-0.22203361,0.018962647,-3.0243787e-22
0.074146484,-0.22226378,0.019462758,-1.9158971e-22
0.077038447,-0.22239341,0.019966909,5.4236189e-24
0.08002439,-0.22242769,0.02047553,6.0185716e-24
0.083107369,-0.222371,0.020989018,1.4356085e-22
0.086290535,-0.22222706,0.02150774,-5.3651371e-23
0.089577146,-0.22199896,0.022032039,-5.0564755e-22
0.092970562,-0.22168926,0.02256223,-2.3461775e-22
0.096474255,-0.22130002,0.023098606,-3.285121e-23
0.10009181,-0.22083288,0.023641437,-2.4555168e-22
0.10382692,-0.22028908,0.024190972,2.5491881e-23
0.10768342,-0.21966952,0.024747436,2.7665089e-22
0.11166524,-0.21897475,0.025311036,7.0072536e-23
0.11577645,-0.21820503,0.025881959,3.3079352e-22
0.12002127,-0.21736033,0.026460372,8.6061694e-23
0.12440404,-0.21644035,0.027046421,-3.3906448e-22
0.12892923,-0.21544455,0.027640232,-4.7515256e-22
0.13360148,-0.21437211,0.028241911,-4.0781169e-22
0.13842557,-0.21322201,0.02885154,-3.6535989e-22
0.14340642,-0.21199297,0.029469182,-5.6201193e-22
0.14854914,-0.21068349,0.030094872,-6.0212708e-22
0.15385898,-0.20929183,0.030728622,-4.5832258e-22
0.15934138,-0.20781604,0.031370416,-5.0357052e-22
0.16500194,-0.20625394,0.032020212,-2.4760496e-22
0.17084645,-0.2046031,0.032677934,1.3504724e-22
0.17688089,-0.20286088,0.033343469,-1.0031852e-21
0.18311143,-0.20102438,0.034016672,-9.3656824e-22
0.18954445,-0.19909047,0.03469735,5.2837872e-22
0.19618653,-0.19705577,0.035385271,5.8559778e-22
0.20304445,-0.19491666,0.036080149,-6.1012892e-22
0.21012524,-0.19266924,0.036781645,-1.4580675e-21
0.21743614,-0.19030935,0.037489357,-3.713496e-22
0.22498461,-0.18783252,0.038202825,-2.6085703e-22
0.23277839,-0.18523397,0.038921519,-3.771167e-22
0.24082545,-0.18250859,0.039644827,1.3292602e-22
0.24913402,-0.17965099,0.040372056,1.9297866e-22
0.25771259,-0.17665537,0.041102411,1.7420239e-21
0.26656994,-0.17351563,0.041834994,1.5354954e-21
0.27571513,-0.17022526,0.042568787,2.6100088e-23
0.28515751,-0.16677737,0.043302639,1.2816795e-21
0.29490674,-0.16316464,0.044035252,-4.3384195e-22
0.3049728,-0.15937929,0.044765164,-1.4248283e-21
0.31536597,-0.15541311,0.04549073,5.5651752e-23
0.3260969,-0.15125736,0.046210102,-8.7932778e-22
0.33717655,-0.14690277,0.046921204,-7.1035286e-22
0.34861625,-0.14233949,0.047621706,-7.7011917e-22
0.36042772,-0.13755701,0.048308995,-5.1418901e-21
0.37262303,-0.13254416,0.048980138,-6.2233246e-21
0.38521464,-0.12728896,0.049631841,2.213774e-22
0.39821546,-0.12177853,0.050260411,-2.7457922e-21
0.41163876,-0.11599898,0.050861693,-6.4078335e-21
0.42549828,-0.10993518,0.05143102,3.0578929e-21
0.4398082,-0.10357053,0.051963147,5.6388748e-21
0.45458315,-0.096886679,0.052452163,3.8130293e-21
0.46983824,-0.089863027,0.052891387,1.8752158e-21
0.48558908,-0.082476,0.053273275,1.7641658e-21
0.50185179,-0.07469824,0.053589281,6.8064393e-21
0.50880893,-0.07129925,0.053688841,1.0205899e-20
0.51864298,-0.066497335,0.053830365,1.4592045e-20
0.53597984,-0.057834363,0.053985292,8.178735e-21
0.5538801,-0.048661721,0.054041228,3.4909576e-21
0.57236207,-0.038919766,0.053984286,1.5484119e-21
0.59144465,-0.028532546,0.053798974,-1.1429419e-20
0.61114736,-0.017401856,0.053468383,-6.1366036e-21
0.63149036,-0.0053993356,0.052975087,-8.9312508e-22
0.65249445,0.0076457114,0.052301456,1.2907815e-21
0.67418111,0.02194545,0.051433127,-5.5383651e-21
0.69657252,0.037739756,0.050362197,-7.9167489e-21
0.7196916,0.055311278,0.049068448,-2.5974651e-21
0.74356198,0.075365045,0.047495273,6.4057327e-21
0.76820808,0.099290866,0.045532383,-1.8351422e-20
0.79365511,0.12831551,0.043109742,-2.956189e-20
0.8199291,0.16272069,0.040297321,-1.5573605e-20
0.84705692,0.20194538,0.03724823,-1.7324298e-20
0.87506632,0.24493349,0.034108901,3.4280089e-21
0.90398595,0.29054204,0.030968471,1.9536137e-20
0.93384538,0.33787098,0.027823475,-1.3139214e-20
0.96467516,0.3866787,0.024753138,-2.7667333e-20
0.99650683,0.43746299,0.021861309,-3.2787295e-20
1.0293729,0.49050552,0.019309277,-1.1508425e-20
1.0633071,0.54508599,0.017260711,6.5731677e-20
1.098344,0.59975147,0.015667387,4.4249411e-20
1.1345196,0.65275948,0.014430876,-2.1709548e-20
1.1668571,0.69581848,0.013555652,-1.432508e-20
1.1718726,0.70249829,0.013418449,-1.2785083e-20
1.2104522,0.74791432,0.012494827,5.9443594e-21
1.250285,0.78860706,0.011579323,1.1904462e-20
1.2914115,0.82473524,0.01062919,-1.036187e-20
1.3338737,0.85676448,0.0096326746,-1.3062506e-20
1.3777151,0.88528025,0.0085948365,-1.6393409e-20
1.4229805,0.9108699,0.0075287505,-2.6561859e-20
1.4697159,0.93406389,0.0064513645,-2.2440683e-21
1.5179692,0.95516494,0.0053848459,-5.4331588e-21
1.5662215,0.97415637,0.0043596512,-2.4969208e-20
1.6129542,0.99110122,0.0034067253,-1.3796552e-20
1.6582152,1.00632,0.0025429452,4.058775e-22
1.7020508,1.0201369,0.0017729792,-1.734136e-20
1.7445059,1.0327783,0.0010958856,-1.32434e-20
1.785624,1.0443992,0.00050668937,3.6858859e-21
1.8070113,1.0501505,0.00023449678,2.230107e-21
1.8254639,1.0551124,-2.7399795e-06,5.7762675e-22
1.8640662,1.0650006,-0.00043988827,6.2850335e-21
1.9014509,1.0741274,-0.00081138649,-6.4941655e-21
1.9376564,1.0825505,-0.0011251534,-5.5792316e-21
1.97272,1.0903221,-0.0013887114,1.1160474e-20
2.0066778,1.0974919,-0.0016090834,6.8673145e-21
2.0395648,1.1041065,-0.001792658,3.1290731e-22
2.0714147,1.110209,-0.0019450873,-5.7975314e-21
2.1022603,1.1158389,-0.0020713006,-6.9878193e-21
2.1321334,1.1210323,-0.00217559,-6.2446157e-21
2.1610646,1.1258225,-0.0022616664,-2.1159614e-22
2.1890837,1.1302397,-0.0023327256,4.1103296e-21
2.2162195,1.1343114,-0.0023914582,7.6216058e-22
2.2424998,1.138063,-0.002440096,6.7150092e-21
2.2679518,1.1415176,-0.0024805136,-1.4335554e-20
2.2926015,1.1446961,-0.0025142468,-1.3062527e-20
2.3164742,1.1476179,-0.002542554,3.0750141e-21
2.3395945,1.1503003,-0.0025664564,2.0509695e-21
2.3619861,1.1527594,-0.0025867874,3.6845574e-21
2.3836721,1.1550097,-0.0026042408,2.4614198e-22
2.4046746,1.1570642,-0.0026193877,1.9141743e-21
2.4250153,1.1589346,-0.0026326891,4.564424e-21
2.4298497,1.159351,-0.002635488,5.0203618e-22
2.4447218,1.1606312,-0.0026445991,-1.1709386e-20
2.463809,1.1621635,-0.0026553259,-5.3256556e-21
2.4822943,1.1635397,-0.0026650632,1.2565437e-20
2.5001966,1.1647672,-0.0026739917,-1.1772299e-21
2.5175344,1.1658525,-0.0026822511,-1.075982e-20
2.5343255,1.1668013,-0.0026899479,-5.8963862e-21
2.5505871,1.1676182,-0.0026971592,-3.608812e-22
2.5663361,1.1683074,-0.0027039375,5.2611945e-21
2.5815885,1.1688723,-0.0027103159,-1.8501426e-21
2.5963601,1.1693156,-0.0027163125,-1.1699045e-20
2.610666,1.1696395,-0.0027219352,1.181057e-22
2.624521,1.1698455,-0.0027271841,6.0902911e-21
2.6379393,1.1699348,-0.0027320529,-3.0356603e-21
2.6509346,1.169908,-0.0027365321,-3.3215504e-22
2.6635203,1.1697654,-0.0027406107,-3.3240325e-22
2.6757094,1.1695069,-0.0027442768,-6.3437301e-21
2.6875143,1.1691321,-0.0027475178,-3.3191652e-21
2.6989472,1.1686402,-0.0027503172,6.4517082e-21
2.7100198,1.1680304,-0.0027526576,2.6121901e-21
2.7207435,1.1673018,-0.0027545274,-5.4096852e-21
2.7311293,1.1664534,-0.0027559221,2.3981039e-21
2.7411879,1.1654839,-0.0027568376,8.6167981e-21
2.7509295,1.1643921,-0.0027572637,1.2944467e-21
2.7603642,1.1631767,-0.0027571921,-2.2395327e-21
2.7695016,1.1618363,-0.0027566171,4.1704545e-21
2.7783512,1.1603696,-0.0027555372,2.3598705e-21
2.7869219,1.1587751,-0.0027539499,5.237767e-22
2.7952227,1.1570512,-0.0027518325,-1.9134962e-21
2.8032619,1.1551963,-0.0027491395,-2.9803128e-21
2.8110479,1.1532089,-0.0027458048,-2.3284647e-21
2.8185886,1.1510878,-0.0027417591,1.409256e-21
2.8258918,1.1488321,-0.0027369457,4.0181808e-21
2.832965,1.1464409,-0.0027313202,-4.2715557e-21
2.8398154,1.143913,-0.0027248481,-7.0803167e-21
2.8464499,1.1412478,-0.0027174899,8.0548392e-21
2.8528756,1.1384445,-0.0027091942,6.3882411e-21
2.8590988,1.1355026,-0.0026999133,-7.9534935e-21
2.865126,1.1324218,-0.0026896155,-3.5833787e-21
2.8709634,1.1292024,-0.0026782903,-1.3251356e-21
2.876617,1.1258445,-0.0026659408,2.1316958e-21
2.8820925,1.1223477,-0.0026525639,1.114143e-21
2.8873956,1.1187111,-0.002638135,5.3507371e-21
2.8925316,1.1149338,-0.0026226348,1.2933909e-22
2.897506,1.1110148,-0.0026060576,-3.2337267e-21
2.9023236,1.1069532,-0.0025884002,1.8116479e-21
2.9069896,1.1027491,-0.0025696796,-1.6108613e-21
2.9115086,1.0984025,-0.0025499189,1.7010838e-21
2.9158853,1.0939124,-0.0025291576,1.4493042e-21
2.9201242,1.0892772,-0.0025074411,-4.9155586e-22
2.9242297,1.0844949,-0.0024847957,-4.5377388e-21
2.9282058,1.0795629,-0.0024612383,-2.8260792e-21
2.9320568,1.0744785,-0.0024367819,6.8113067e-21
2.9357864,1.0692384,-0.0024114533,7.0541012e-22
2.9393987,1.0638394,-0.0023852914,-6.886486e-21
2.9428972,1.0582778,-0.002358334,-1.9861942e-22
2.9462856,1.0525495,-0.0023306081,2.0778144e-22
2.9495673,1.0466502,-0.0023021209,1.1445444e-21
2.9527456,1.040575,-0.00227285,3.1150997e-21
2.9558239,1.0343178,-0.0022427416,3.9868145e-22
2.9588052,1.0278722,-0.0022117236,-2.3027891e-21
2.9616927,1.0212308,-0.0021797238,-2.6314399e-21
2.9644893,1.0143859,-0.0021466923,1.6585295e-21
2.9671978,1.0073287,-0.0021126104,6.7790401e-22
2.9698211,1.0000495,-0.0020774947,-1.4797145e-21
2.9723618,0.99253813,-0.0020413839,2.7840712e-21
2.9748224,0.98478232,-0.0020043111,-7.0770614e-22
2.9772057,0.9767689,-0.0019662813,-3.2446752e-21
2.9795138,0.96848393,-0.0019272726,-1.3302308e-21
2.9817494,0.9599127,-0.0018872526,8.8083454e-22
2.9839145,0.95103953,-0.0018462013,1.0762481e-21
2.9860115,0.94184746,-0.0018041254,1.2688243e-21
2.9880424,0.93231066,-0.001760841,1.2329038e-21
2.9900094,0.92238563,-0.0017160525,1.3006445e-21
2.9919145,0.91202329,-0.0016694521,-9.4987224e-22
2.9937597,0.90118597,-0.0016208254,-7.8614216e-22
2.9955467,0.88984496,-0.0015702148,4.1016692e-21
2.9972775,0.8779731,-0.0015177148,-2.9040851e-21
2.9989538,0.86554336,-0.0014634057,-4.1828796e-21
3.0005773,0.85252915,-0.0014073582,1.3762661e-21
3.0021497,0.83890476,-0.001349634,1.4870915e-21
3.0036726,0.82464666,-0.0012902575,1.4750974e-21
3.0051476,0.80973597,-0.0012292015,-4.4327279e-21
3.0065761,0.79414921,-0.0011664831,-2.8570506e-21
3.0079597,0.77780738,-0.0011021353,1.2616641e-21
3.0092997,0.76057114,-0.0010360962,1.7785341e-21
3.0105976,0.74231864,-0.00096863631,4.3134755e-22
3.0118546,0.72295728,-0.00090041438,-8.1936172e-23
3.013072,0.70239677,-0.00083218062,1.0851315e-21
3.0142511,0.68056187,-0.00076495096,-1.3378203e-21
3.015393,0.65740895,-0.00069993608,-2.2301385e-21
3.0164991,0.63293756,-0.00063823872,-1.0763261e-21
3.0175703,0.60720245,-0.00058061118,2.4652801e-21
3.0186078,0.58032642,-0.00052726394,3.402925e-22
3.0196126,0.55250304,-0.00047789312,-2.0417387e-21
3.0205858,0.52398465,-0.00043195267,3.0183378e-21
3.0215284,0.49505574,-0.00038898802,4.3560942e-21
3.0224413,0.46599558,-0.00034867441,-2.0322387e-21
3.0233255,0.43704943,-0.00031082103,-5.4569181e-22
3.0241818,0.40841903,-0.00027537716,-6.7612004e-22
3.0250112,0.38025583,-0.0002423074,-1.3822353e-21
3.0258144,0.35266077,-0.00021160318,1.8722823e-21
3.0265924,0.32569599,-0.00018326519,-1.5052219e-22
3.0273459,0.29939637,-0.00015727426,-1.2127369e-21
3.0280757,0.27377836,-0.00013358318,1.4139456e-22
3.0287825,0.24884712,-0.00011212929,6.2857601e-22
3.0294671,0.22460082,-9.2842076e-05,5.2212383e-22
3.0301301,0.20103332,-7.5645591e-05,-9.9275953e-26
3.0307722,0.17813569,-6.0460455e-05,-5.9459239e-22
3.0313942,0.15589717,-4.7205589e-05,-3.3146132e-22
3.0319965,0.13430574,-3.5799547e-05,1.1316619e-23
3.0325799,0.11334859,-2.6161011e-05,-2.1591272e-22
3.033145,0.093012424,-1.8208956e-05,4.2068294e-22
3.0336922,0.073283597,-1.1862206e-05,2.0356587e-22
3.0342222,0.054148044,-7.0380774e-06,1.1157704e-22
3.0347356,0.035591295,-3.7023686e-06,8.0783121e-23
3.0352328,0.017595589,-1.6751934e-06,-1.346385e-22
3.035714,1.1171923e-05,-1.0635994e-09,-8.5526651e-26
