/*--------------------------------*- C++ -*----------------------------------*\
| =========                 |                                                 |
| \\      /  F ield         | OpenFOAM: The Open Source CFD Toolbox           |
|  \\    /   O peration     | Version:  2.4.0                                 |
|   \\  /    A nd           | Web:      www.OpenFOAM.org                      |
|    \\/     M anipulation  |                                                 |
\*---------------------------------------------------------------------------*/
FoamFile
{
    version     2.0;
    format      ascii;
    class       volScalarField;
    location    "160";
    object      k;
}
// * * * * * * * * * * * * * * * * * * * * * * * * * * * * * * * * * * * * * //

dimensions      [0 2 -2 0 0 0 0];

internalField   nonuniform List<scalar> 
78300
(
1.0407855e-06
6.1225623e-07
1.5533175e-06
1.0048905e-06
1.206483e-06
4.2819932e-07
1.8367893e-07
1.2566278e-08
8.9012651e-08
1.9228504e-07
1.1883695e-07
9.8603393e-08
5.3075351e-08
4.2946441e-08
2.9892045e-08
2.7813479e-08
2.1967829e-08
2.1029661e-08
1.7606584e-08
1.6354311e-08
1.3857723e-08
1.2552162e-08
1.0819245e-08
9.9999563e-09
9.1971228e-09
8.8615585e-09
8.5911324e-09
8.667498e-09
8.8563093e-09
9.3799951e-09
1.0080742e-08
1.1147839e-08
1.2478501e-08
1.4216393e-08
1.6270956e-08
1.865871e-08
2.1094096e-08
2.3565929e-08
2.6076598e-08
2.8541846e-08
3.0927943e-08
3.3120701e-08
3.5090499e-08
3.6686786e-08
3.7820538e-08
3.8353814e-08
3.8403068e-08
3.7828937e-08
3.7485729e-08
3.6888161e-08
3.597854e-08
3.4980012e-08
3.3521177e-08
3.1538596e-08
2.9629132e-08
2.6912447e-08
2.4699383e-08
2.1563319e-08
1.9740915e-08
1.6884121e-08
1.6856071e-08
1.5762411e-08
2.3137723e-08
4.202772e-08
5.8250984e-08
7.7619805e-08
9.5265637e-08
1.144703e-07
1.3211981e-07
1.5047142e-07
1.6748381e-07
1.8473333e-07
2.0088052e-07
2.1620197e-07
2.3231438e-07
2.4747163e-07
2.6193194e-07
2.7617107e-07
2.8982473e-07
3.0319593e-07
3.1604717e-07
3.2856665e-07
3.4059555e-07
3.5224624e-07
3.634127e-07
3.7415177e-07
3.8434684e-07
3.9255326e-07
4.0177619e-07
4.1048653e-07
4.1867758e-07
4.2633518e-07
4.3344613e-07
4.4000822e-07
4.4601101e-07
4.514611e-07
4.5635545e-07
4.6071182e-07
4.6452748e-07
4.6784266e-07
4.7274737e-07
4.7531993e-07
4.7746618e-07
4.7914915e-07
4.784289e-07
4.7817998e-07
4.7736326e-07
4.758938e-07
4.7389395e-07
4.7135949e-07
4.6832891e-07
4.6480931e-07
4.6082169e-07
4.5638283e-07
4.5152089e-07
4.4625337e-07
4.4059974e-07
4.345719e-07
4.2819406e-07
4.2148957e-07
4.1448702e-07
4.072051e-07
3.9966424e-07
3.9189108e-07
3.8391265e-07
3.7575446e-07
3.6743284e-07
3.5897183e-07
3.503916e-07
3.4171631e-07
3.3296208e-07
3.2414991e-07
3.1529561e-07
3.064197e-07
2.9754135e-07
2.886748e-07
2.7983068e-07
2.7101933e-07
2.6226102e-07
2.5356985e-07
2.4495778e-07
2.3643393e-07
2.2801536e-07
2.1970991e-07
2.115305e-07
2.0348338e-07
1.9557615e-07
1.8781464e-07
1.8020864e-07
1.7276965e-07
1.655017e-07
1.5840638e-07
1.5148466e-07
1.4474656e-07
1.3819545e-07
1.3183257e-07
1.2565078e-07
1.1965364e-07
1.1384133e-07
1.0821631e-07
1.0276706e-07
9.7498709e-08
9.2416632e-08
8.7534539e-08
8.2836649e-08
7.8307106e-08
7.3948537e-08
6.9769789e-08
6.5765172e-08
6.193271e-08
5.8254689e-08
5.4740525e-08
5.1374322e-08
4.8172492e-08
4.5114465e-08
4.2223675e-08
3.9471382e-08
3.6877704e-08
3.4402351e-08
3.2078457e-08
2.9868779e-08
2.7809742e-08
2.584597e-08
2.4023776e-08
2.2287545e-08
2.0694673e-08
1.9168216e-08
1.7778519e-08
1.6439971e-08
1.5244323e-08
1.4082929e-08
1.3068275e-08
1.207123e-08
1.1231272e-08
1.0387534e-08
9.708935e-09
9.0016639e-09
8.4772334e-09
7.90226e-09
7.5363883e-09
7.092456e-09
6.8899437e-09
6.5803449e-09
6.5618552e-09
6.4130296e-09
6.6256267e-09
6.6544547e-09
7.1564078e-09
7.6438609e-09
7.8291215e-09
8.1410593e-09
7.9944019e-09
7.9562045e-09
7.5263502e-09
7.1630494e-09
6.5087868e-09
5.8924592e-09
5.0951952e-09
4.3351766e-09
3.5077988e-09
2.7566133e-09
2.0553536e-09
1.9857843e-09
3.1254573e-09
4.9368161e-09
7.781578e-09
1.1912736e-08
1.7772806e-08
2.5614223e-08
3.5919459e-08
4.8875854e-08
6.4917955e-08
8.4049791e-08
1.0644835e-07
1.3124362e-07
1.5722892e-07
1.8509968e-07
2.1518041e-07
2.4810533e-07
2.8417249e-07
3.2441055e-07
3.69143e-07
4.2022772e-07
4.7821993e-07
5.4634552e-07
6.2627608e-07
7.2461933e-07
8.5094097e-07
1.0242405e-06
1.2165298e-06
1.4891306e-06
1.7942426e-06
2.2252704e-06
2.709473e-06
3.4119741e-06
4.2143398e-06
5.3860055e-06
6.6998285e-06
8.518897e-06
1.0149426e-05
1.1870313e-05
1.141537e-05
9.9022236e-06
7.1018175e-06
5.1708094e-06
2.8384338e-06
2.0369804e-06
8.2822546e-07
9.1937771e-07
2.7563584e-07
1.8061358e-07
3.107529e-07
2.5364421e-07
3.6187919e-07
6.3585313e-07
1.8876461e-07
1.0405733e-07
3.8147309e-08
2.5212528e-08
3.2489825e-08
1.9349461e-08
1.5801748e-08
8.6406153e-09
7.0000634e-09
4.9687555e-09
4.6190388e-09
3.7150592e-09
3.55984e-09
3.0352914e-09
2.8389173e-09
2.4569345e-09
2.2552004e-09
1.9921277e-09
1.8720213e-09
1.7623161e-09
1.7286801e-09
1.7108677e-09
1.7516845e-09
1.817228e-09
1.9415458e-09
2.102999e-09
2.3314517e-09
2.6138774e-09
2.9736055e-09
3.399447e-09
3.894218e-09
4.4131385e-09
4.9522286e-09
5.5167618e-09
6.0967345e-09
6.6905365e-09
7.2755663e-09
7.8374752e-09
8.3515993e-09
8.8029797e-09
9.1581267e-09
9.3274764e-09
6.282522e-09
1.3963865e-08
1.4437024e-08
6.681001e-09
1.5632114e-08
1.0647028e-08
1.0739062e-08
1.0815947e-08
1.0728586e-08
1.0660236e-08
1.0372889e-08
1.0202254e-08
9.7846003e-09
9.7655882e-09
9.6232714e-09
1.1122522e-08
1.5685392e-08
1.992176e-08
3.4629833e-08
4.1185433e-08
4.746926e-08
5.3593426e-08
5.9635223e-08
6.5556968e-08
7.1437039e-08
7.6702663e-08
4.23938e-08
8.8065265e-08
9.3639055e-08
9.9001933e-08
1.0431062e-07
1.0953329e-07
1.147012e-07
1.1978905e-07
1.2481755e-07
1.2976845e-07
1.3465685e-07
1.3947941e-07
1.4430163e-07
1.4771859e-07
7.7408228e-08
7.9509658e-08
8.1495005e-08
8.3424435e-08
8.5270083e-08
8.7044423e-08
8.8739627e-08
9.0360511e-08
9.1907903e-08
9.3388535e-08
9.4816953e-08
9.6262812e-08
9.8491368e-08
2.0122547e-07
2.0507741e-07
2.087969e-07
2.1155454e-07
1.5104428e-07
1.5199999e-07
1.5321052e-07
1.5414431e-07
1.550074e-07
1.5572187e-07
1.563277e-07
1.5681035e-07
1.5717861e-07
1.574322e-07
1.5757594e-07
1.5761246e-07
1.5754415e-07
1.5737244e-07
1.57101e-07
1.5673289e-07
1.5627382e-07
1.5572589e-07
1.5509344e-07
1.5437966e-07
1.5359078e-07
1.5273027e-07
1.5180221e-07
1.5080972e-07
1.4975774e-07
1.4864998e-07
1.4749029e-07
1.4628317e-07
1.4503029e-07
1.4373493e-07
1.4240428e-07
1.4103946e-07
1.3964093e-07
1.3820983e-07
1.3675373e-07
1.352849e-07
1.3379906e-07
1.3228423e-07
1.3076101e-07
1.2922453e-07
1.2768018e-07
1.2612896e-07
1.2457358e-07
1.2301465e-07
1.2145548e-07
1.1989826e-07
1.183458e-07
1.167982e-07
1.152563e-07
1.137223e-07
1.1219843e-07
1.1068627e-07
1.0918449e-07
1.07694e-07
1.0621546e-07
1.0475051e-07
1.0329672e-07
1.0185409e-07
1.0042372e-07
9.9012053e-08
9.7619595e-08
9.6239887e-08
9.4871732e-08
9.3519517e-08
9.218322e-08
9.0864124e-08
8.9557715e-08
8.8264784e-08
8.6981997e-08
8.5712107e-08
8.4451511e-08
8.3205605e-08
8.1970813e-08
8.0751713e-08
7.9539645e-08
7.8338037e-08
7.7141803e-08
7.5958393e-08
7.4777684e-08
7.360474e-08
7.2428547e-08
7.1262702e-08
7.0088657e-08
6.8920911e-08
6.7733288e-08
6.6551533e-08
6.5340693e-08
6.4133032e-08
6.288317e-08
6.1636226e-08
6.0334316e-08
5.9031729e-08
5.7652895e-08
5.6265882e-08
5.4779004e-08
5.3278818e-08
5.1653594e-08
5.000416e-08
4.8197374e-08
4.6346318e-08
4.430075e-08
4.2154796e-08
3.956443e-08
3.710781e-08
3.6708676e-08
3.7103729e-08
3.7981123e-08
3.8986409e-08
4.0147492e-08
4.1357033e-08
4.2637289e-08
4.3953822e-08
4.532249e-08
4.6747227e-08
4.8233201e-08
4.97913e-08
5.1429802e-08
5.3198688e-08
5.5306742e-08
5.7818131e-08
6.0566985e-08
6.3583497e-08
6.6878994e-08
7.0505547e-08
7.4480694e-08
7.885554e-08
8.3625619e-08
8.8825895e-08
9.4427839e-08
1.0039865e-07
1.06097e-07
1.1150536e-07
1.1701521e-07
1.227853e-07
1.2896731e-07
1.3568337e-07
1.4311487e-07
1.5139073e-07
1.608034e-07
1.7160144e-07
1.840962e-07
1.9932444e-07
2.1683334e-07
2.4173064e-07
5.1730583e-07
1.7585887e-07
5.9366125e-07
2.525062e-07
7.7828426e-07
3.7612701e-07
1.0932135e-06
1.3169995e-06
1.0784512e-06
1.3458327e-06
1.6977111e-06
2.0136693e-06
2.3161439e-06
2.2544095e-06
2.0031178e-06
1.5195421e-06
1.1864098e-06
4.4024991e-07
8.7418112e-07
1.5253784e-07
1.5426751e-07
2.1762145e-07
3.6933138e-07
1.6399711e-06
4.2944223e-07
1.6088571e-06
2.8554603e-06
9.3707446e-07
5.7120794e-07
2.6631541e-07
9.3060592e-08
3.2318916e-08
1.4519846e-08
1.0233884e-08
6.4101276e-09
5.2955071e-09
4.3722201e-09
4.0546911e-09
3.6749922e-09
3.5487604e-09
3.3575614e-09
3.2592627e-09
3.1245755e-09
3.04278e-09
2.965564e-09
2.9615753e-09
3.0128287e-09
3.1219907e-09
3.275816e-09
3.4880058e-09
3.7595695e-09
4.1028558e-09
4.5270136e-09
5.0488402e-09
5.6817952e-09
6.4432414e-09
7.3468461e-09
8.3950086e-09
9.5646393e-09
1.0839891e-08
1.2255303e-08
1.382676e-08
1.5577896e-08
1.7466655e-08
1.94217e-08
2.1423507e-08
2.3459534e-08
2.5438878e-08
2.6593213e-08
1.1064653e-08
5.2338891e-08
5.59086e-08
1.5859394e-08
6.6073452e-08
4.3185948e-08
4.5962012e-08
4.849754e-08
5.0666788e-08
5.2455325e-08
5.3596054e-08
5.4233362e-08
5.4131752e-08
5.4023293e-08
5.4111131e-08
5.7449204e-08
7.1301943e-08
8.5499413e-08
1.4842106e-07
1.7251902e-07
1.9356104e-07
2.1540084e-07
2.359746e-07
2.5720177e-07
2.7790962e-07
2.9595785e-07
1.1158554e-07
3.3772451e-07
3.5865299e-07
3.7889169e-07
3.9900507e-07
4.1916699e-07
4.3926455e-07
4.5938106e-07
4.7945528e-07
4.9953434e-07
5.1959997e-07
5.3974276e-07
5.6034184e-07
5.7274431e-07
2.0607861e-07
2.130222e-07
2.1964902e-07
2.2635879e-07
2.3295071e-07
2.3953279e-07
2.460463e-07
2.5253722e-07
2.5900384e-07
2.6549846e-07
2.721113e-07
2.7937086e-07
2.9286968e-07
8.3469435e-07
8.5818853e-07
8.8180228e-07
9.0493087e-07
6.1051234e-07
6.1774202e-07
6.2743708e-07
6.3578212e-07
6.44158e-07
6.5199901e-07
6.5955787e-07
6.6672093e-07
6.7353082e-07
6.7996803e-07
6.860389e-07
6.9174447e-07
6.9708207e-07
7.020501e-07
7.066501e-07
7.1088066e-07
7.1475375e-07
7.1826552e-07
7.2142659e-07
7.2423289e-07
7.2670194e-07
7.2883279e-07
7.3063851e-07
7.3211695e-07
7.3328357e-07
7.3414046e-07
7.346991e-07
7.3497078e-07
7.3495132e-07
7.3464358e-07
7.340803e-07
7.3325498e-07
7.3216007e-07
7.307931e-07
7.2918863e-07
7.2742174e-07
7.2544884e-07
7.2317282e-07
7.2072681e-07
7.1806704e-07
7.1521957e-07
7.1218533e-07
7.0897623e-07
7.0559071e-07
7.0204285e-07
6.9833687e-07
6.9448915e-07
6.9049866e-07
6.8637061e-07
6.8211083e-07
6.7773201e-07
6.7324448e-07
6.6864583e-07
6.6393917e-07
6.5912904e-07
6.5422492e-07
6.4922092e-07
6.4411168e-07
6.3889991e-07
6.336183e-07
6.28287e-07
6.2287513e-07
6.1737121e-07
6.117982e-07
6.0616178e-07
6.0047339e-07
5.9471833e-07
5.8889265e-07
5.8298837e-07
5.770087e-07
5.7094852e-07
5.6482307e-07
5.586359e-07
5.5239972e-07
5.4609277e-07
5.3970598e-07
5.332405e-07
5.2671331e-07
5.2010747e-07
5.1341228e-07
5.0660456e-07
4.9972451e-07
4.9271591e-07
4.856122e-07
4.7831035e-07
4.7090388e-07
4.6324936e-07
4.5546664e-07
4.4735715e-07
4.3910686e-07
4.3045853e-07
4.2163484e-07
4.1228321e-07
4.026831e-07
3.9240494e-07
3.8181371e-07
3.7038876e-07
3.5853768e-07
3.4564661e-07
3.3213144e-07
3.1732858e-07
3.014193e-07
2.8246493e-07
2.6402631e-07
2.6063413e-07
2.633355e-07
2.6943621e-07
2.7694739e-07
2.8548751e-07
2.947872e-07
3.0453591e-07
3.148507e-07
3.2550848e-07
3.3676385e-07
3.4842875e-07
3.6069143e-07
3.7346456e-07
3.8714146e-07
4.0264142e-07
4.1983573e-07
4.3807066e-07
4.5719168e-07
4.7701808e-07
4.9747798e-07
5.1843715e-07
5.3977046e-07
5.6125151e-07
5.8269024e-07
6.0387433e-07
6.2436582e-07
6.4039206e-07
6.5309305e-07
6.6460083e-07
6.7573103e-07
6.8693305e-07
6.9879836e-07
7.1159115e-07
7.259151e-07
7.4199145e-07
7.6105397e-07
7.8206453e-07
8.1083499e-07
8.373718e-07
8.8593922e-07
2.267793e-06
1.6449936e-07
2.2708259e-06
1.9150001e-07
2.692304e-06
2.5031018e-07
3.4747885e-06
4.087507e-06
2.0930681e-06
2.6324445e-06
3.2509792e-06
3.810557e-06
4.1845143e-06
4.22057e-06
4.0003275e-06
3.45804e-06
3.086324e-06
6.0834538e-07
3.5347416e-06
3.6232617e-07
2.8542297e-07
1.3066334e-06
1.3962716e-06
6.0653304e-06
1.5829545e-06
5.8914757e-06
8.8949703e-06
3.4514792e-06
2.118107e-06
9.9935129e-07
3.3758404e-07
9.1215369e-08
3.5937651e-08
2.3042544e-08
1.5719741e-08
1.3129006e-08
1.1677033e-08
1.0819068e-08
1.0292372e-08
9.9681781e-09
9.7746112e-09
9.6002453e-09
9.4770242e-09
9.3713728e-09
9.3460297e-09
9.4542375e-09
9.7636487e-09
1.0217364e-08
1.0826362e-08
1.1599118e-08
1.2574474e-08
1.3764734e-08
1.5227317e-08
1.6995961e-08
1.9135823e-08
2.1689561e-08
2.4721329e-08
2.8237828e-08
3.2197126e-08
3.6542021e-08
4.1399123e-08
4.6840043e-08
5.2958212e-08
5.9616583e-08
6.6555552e-08
7.3724951e-08
8.1093787e-08
8.8350915e-08
9.2610065e-08
4.1225504e-08
1.6524705e-07
1.7702356e-07
6.1042126e-08
2.1190683e-07
1.5703358e-07
1.6790581e-07
1.777078e-07
1.8625485e-07
1.9329972e-07
1.9804695e-07
2.0071116e-07
2.0075024e-07
2.00349e-07
2.0084105e-07
2.1228359e-07
2.6149504e-07
3.1228017e-07
4.8434196e-07
5.5994659e-07
6.2602633e-07
6.9557281e-07
7.608095e-07
8.285577e-07
8.9454222e-07
9.5280032e-07
4.3164722e-07
1.0856558e-06
1.1527347e-06
1.2176903e-06
1.2822675e-06
1.347114e-06
1.4117973e-06
1.4766396e-06
1.5414024e-06
1.606273e-06
1.6711706e-06
1.736419e-06
1.8032873e-06
1.845095e-06
7.9814589e-07
8.2534392e-07
8.5147485e-07
8.7800562e-07
9.0411238e-07
9.3023813e-07
9.5614047e-07
9.8200641e-07
1.0078249e-06
1.0338058e-06
1.0603072e-06
1.0895075e-06
1.1439626e-06
2.7057399e-06
2.7852123e-06
2.8667437e-06
2.9605723e-06
2.221091e-06
2.2482737e-06
2.28477e-06
2.3162956e-06
2.3480146e-06
2.3778046e-06
2.4066083e-06
2.4339981e-06
2.4601311e-06
2.4849315e-06
2.5084191e-06
2.5305952e-06
2.5514468e-06
2.5709664e-06
2.5891562e-06
2.6060073e-06
2.6215607e-06
2.6357991e-06
2.6487594e-06
2.6604225e-06
2.6708501e-06
2.680035e-06
2.6880237e-06
2.6948049e-06
2.7004334e-06
2.7049137e-06
2.7082863e-06
2.710591e-06
2.7118091e-06
2.7119488e-06
2.7111301e-06
2.7093265e-06
2.7065079e-06
2.7026639e-06
2.6979209e-06
2.6925587e-06
2.6864121e-06
2.6791153e-06
2.6711652e-06
2.6623966e-06
2.6529054e-06
2.642694e-06
2.6318062e-06
2.6202351e-06
2.6080323e-06
2.5952118e-06
2.5818345e-06
2.5678963e-06
2.5534166e-06
2.538416e-06
2.5229413e-06
2.5070313e-06
2.490678e-06
2.4738923e-06
2.4566915e-06
2.4391107e-06
2.4211295e-06
2.402727e-06
2.3839127e-06
2.3648071e-06
2.3454881e-06
2.3258423e-06
2.3058262e-06
2.2855245e-06
2.2649596e-06
2.2441745e-06
2.2231166e-06
2.2017699e-06
2.1801068e-06
2.1581367e-06
2.1358437e-06
2.1132813e-06
2.0904671e-06
2.0674458e-06
2.0441418e-06
2.020516e-06
1.9965784e-06
1.9723873e-06
1.947887e-06
1.923031e-06
1.8977401e-06
1.872157e-06
1.8460818e-06
1.8196299e-06
1.792427e-06
1.7648108e-06
1.7362589e-06
1.7072047e-06
1.6769218e-06
1.6460878e-06
1.6137608e-06
1.5807521e-06
1.5457665e-06
1.5098223e-06
1.4713413e-06
1.4316555e-06
1.3888527e-06
1.3444164e-06
1.2960934e-06
1.2453869e-06
1.1898678e-06
1.1301476e-06
1.0590888e-06
9.9000647e-07
9.7733036e-07
9.8745547e-07
1.0103286e-06
1.0385685e-06
1.0706597e-06
1.1056621e-06
1.1423418e-06
1.1811921e-06
1.2213263e-06
1.2637327e-06
1.3076728e-06
1.3538684e-06
1.4019749e-06
1.4534788e-06
1.511727e-06
1.5761293e-06
1.6443236e-06
1.7156884e-06
1.7895022e-06
1.8654336e-06
1.9429421e-06
2.0214829e-06
2.1001789e-06
2.1782581e-06
2.2549136e-06
2.3284339e-06
2.3848427e-06
2.4286761e-06
2.467801e-06
2.5052065e-06
2.5424868e-06
2.5818058e-06
2.6240059e-06
2.6713072e-06
2.7242749e-06
2.7874429e-06
2.8565141e-06
2.9529303e-06
3.0388959e-06
3.1933023e-06
6.9798193e-06
5.2663934e-07
6.8975014e-06
5.7130594e-07
8.0926859e-06
7.0649799e-07
1.0332518e-05
1.2131678e-05
6.9435903e-06
8.7387972e-06
1.0746969e-05
1.2566326e-05
1.3686901e-05
1.3887965e-05
1.3301289e-05
1.1718865e-05
1.0638009e-05
2.1734048e-06
1.0929294e-05
1.3997086e-06
1.0620329e-06
4.8635191e-06
4.2002019e-06
1.6192656e-05
4.7540955e-06
1.5709574e-05
2.0021215e-05
9.1976684e-06
5.6579373e-06
2.6757371e-06
9.0220996e-07
2.3519344e-07
9.0603442e-08
5.7029162e-08
3.9476038e-08
3.301273e-08
2.9706081e-08
2.7518153e-08
2.6365351e-08
2.5545587e-08
2.5176053e-08
2.4767687e-08
2.4546331e-08
2.4321759e-08
2.4326473e-08
2.4645411e-08
2.5496199e-08
2.6710427e-08
2.8333389e-08
3.0375566e-08
3.294969e-08
3.607888e-08
3.9921759e-08
4.4559765e-08
5.0169797e-08
5.6858874e-08
6.4801206e-08
7.401495e-08
8.4402848e-08
9.5812094e-08
1.0857654e-07
1.2288995e-07
1.3900396e-07
1.5656364e-07
1.7488145e-07
1.9382874e-07
2.1333098e-07
2.3257821e-07
2.4409998e-07
1.2293399e-07
3.8568748e-07
4.1431444e-07
1.8123122e-07
4.994072e-07
4.1802933e-07
4.4745891e-07
4.7375064e-07
4.9672669e-07
5.1566804e-07
5.2850417e-07
5.3571513e-07
5.3594655e-07
5.3488267e-07
5.3626169e-07
5.6654054e-07
6.9725102e-07
8.3189441e-07
1.1642709e-06
1.3413166e-06
1.4973026e-06
1.6627737e-06
1.8179079e-06
1.979361e-06
2.1365714e-06
2.2782498e-06
1.2674745e-06
2.5926954e-06
2.7523166e-06
2.9073488e-06
3.0614877e-06
3.2163241e-06
3.3707918e-06
3.525687e-06
3.6804203e-06
3.8354581e-06
3.9905977e-06
4.1466288e-06
4.3066213e-06
4.4135633e-06
2.3451619e-06
2.4250217e-06
2.5018197e-06
2.5797861e-06
2.6564937e-06
2.73324e-06
2.8093066e-06
2.885235e-06
2.9609823e-06
3.0371488e-06
3.1147545e-06
3.2002299e-06
3.3563573e-06
6.4778384e-06
6.6709705e-06
6.8728729e-06
7.1340091e-06
5.9146526e-06
5.9875544e-06
6.0850826e-06
6.1693613e-06
6.2541784e-06
6.3338639e-06
6.4109347e-06
6.4842484e-06
6.5542233e-06
6.620657e-06
6.6836005e-06
6.7430568e-06
6.7989909e-06
6.8513817e-06
6.900234e-06
6.9455241e-06
6.987359e-06
7.0256929e-06
7.0606226e-06
7.0920968e-06
7.1202786e-06
7.1451482e-06
7.1668288e-06
7.1852894e-06
7.2006756e-06
7.2129981e-06
7.2223648e-06
7.2288805e-06
7.2324974e-06
7.233232e-06
7.2314068e-06
7.2269502e-06
7.2197814e-06
7.2098715e-06
7.1975579e-06
7.1835869e-06
7.1675181e-06
7.1483723e-06
7.1274773e-06
7.1043908e-06
7.0793687e-06
7.0524172e-06
7.0236528e-06
6.9930571e-06
6.9607672e-06
6.9268205e-06
6.8913792e-06
6.8544324e-06
6.8160317e-06
6.7762319e-06
6.7351576e-06
6.6929129e-06
6.649476e-06
6.6048768e-06
6.5591608e-06
6.5124217e-06
6.4646055e-06
6.4156568e-06
6.3656002e-06
6.3147573e-06
6.2633361e-06
6.2110349e-06
6.1577376e-06
6.1036699e-06
6.0488919e-06
5.9935181e-06
5.9374094e-06
5.8805224e-06
5.8227837e-06
5.7642187e-06
5.7047846e-06
5.6446243e-06
5.5837853e-06
5.5223867e-06
5.4602272e-06
5.3972027e-06
5.33334e-06
5.268794e-06
5.2034177e-06
5.1370858e-06
5.0695881e-06
5.0013041e-06
4.9317021e-06
4.8610888e-06
4.7884668e-06
4.7147354e-06
4.6385023e-06
4.5609221e-06
4.4800581e-06
4.3977163e-06
4.3113853e-06
4.2232273e-06
4.1297888e-06
4.0337834e-06
3.931002e-06
3.8249951e-06
3.7106633e-06
3.5919599e-06
3.4628762e-06
3.3274161e-06
3.1791037e-06
3.0195622e-06
2.8298995e-06
2.645799e-06
2.6122407e-06
2.639322e-06
2.7004887e-06
2.776035e-06
2.8618819e-06
2.9555324e-06
3.0536697e-06
3.157628e-06
3.2650229e-06
3.3785065e-06
3.4960891e-06
3.619711e-06
3.7484515e-06
3.8863046e-06
4.0421374e-06
4.2142907e-06
4.396511e-06
4.5871435e-06
4.7842405e-06
4.9869176e-06
5.1937043e-06
5.4031153e-06
5.6127973e-06
5.8206777e-06
6.0246052e-06
6.2198546e-06
6.3692559e-06
6.4852319e-06
6.5886767e-06
6.6874791e-06
6.785877e-06
6.88964e-06
7.0009728e-06
7.1257688e-06
7.2654947e-06
7.4322187e-06
7.6144778e-06
7.8691948e-06
8.0970767e-06
8.48478e-06
1.5462337e-05
1.5490049e-06
1.5229979e-05
1.6724825e-06
1.7822347e-05
2.0670232e-06
2.2684425e-05
2.661356e-05
1.8184746e-05
2.2902112e-05
2.812636e-05
3.2860266e-05
3.5741967e-05
3.6293434e-05
3.4809467e-05
3.0746289e-05
2.7971665e-05
6.5329164e-06
2.4605696e-05
4.2358965e-06
3.1841246e-06
1.2991064e-05
1.0607821e-05
3.5454502e-05
1.2006321e-05
3.437944e-05
3.7509708e-05
2.0090391e-05
1.2388121e-05
5.8675775e-06
1.9808459e-06
5.120353e-07
1.9599167e-07
1.227072e-07
8.513536e-08
7.1174917e-08
6.4177382e-08
5.9444411e-08
5.7026952e-08
5.5257434e-08
5.4509599e-08
5.3643788e-08
5.3204385e-08
5.2738219e-08
5.2774853e-08
5.3476654e-08
5.5334071e-08
5.7975824e-08
6.1505708e-08
6.5941394e-08
7.1531958e-08
7.832366e-08
8.6663822e-08
9.6726376e-08
1.0889776e-07
1.2340851e-07
1.4064059e-07
1.6063311e-07
1.8318606e-07
2.0796388e-07
2.3568727e-07
2.6678086e-07
3.0179854e-07
3.3997781e-07
3.7982139e-07
4.2104649e-07
4.6349982e-07
5.0544369e-07
5.3147201e-07
3.0287099e-07
7.5407711e-07
8.1337129e-07
4.4227112e-07
9.8587374e-07
9.1350995e-07
9.7826441e-07
1.0358482e-06
1.0862047e-06
1.1277278e-06
1.1559093e-06
1.1717535e-06
1.1723412e-06
1.1700419e-06
1.1731511e-06
1.2392999e-06
1.5248684e-06
1.8181238e-06
2.3443451e-06
2.6939153e-06
3.0041574e-06
3.3350885e-06
3.6453154e-06
3.9685832e-06
4.2833005e-06
4.5736951e-06
3.0384471e-06
5.1982438e-06
5.5167162e-06
5.8273694e-06
6.1362363e-06
6.4465452e-06
6.7561315e-06
7.0666141e-06
7.3767959e-06
7.6876282e-06
7.998697e-06
8.3115965e-06
8.6324906e-06
8.8636831e-06
5.6280587e-06
5.8200635e-06
6.0041417e-06
6.1909582e-06
6.3747016e-06
6.5584603e-06
6.7405034e-06
6.9221038e-06
7.1031349e-06
7.2849922e-06
7.4700355e-06
7.6735401e-06
8.0306249e-06
1.3004369e-05
1.3394321e-05
1.380874e-05
1.4390849e-05
1.2924295e-05
1.3084558e-05
1.3297771e-05
1.3482052e-05
1.3667515e-05
1.3841771e-05
1.401032e-05
1.4170665e-05
1.4323718e-05
1.4469039e-05
1.4606738e-05
1.4736821e-05
1.4859211e-05
1.4973862e-05
1.5080784e-05
1.5179925e-05
1.5271519e-05
1.5355464e-05
1.5431972e-05
1.5500931e-05
1.5562696e-05
1.5617224e-05
1.5664783e-05
1.5705306e-05
1.573911e-05
1.5766218e-05
1.5786865e-05
1.5801278e-05
1.5809363e-05
1.5811141e-05
1.5807322e-05
1.5797751e-05
1.5782251e-05
1.5760756e-05
1.5734004e-05
1.5703628e-05
1.5668666e-05
1.5626974e-05
1.5581454e-05
1.5531142e-05
1.5476595e-05
1.5417826e-05
1.5355092e-05
1.528835e-05
1.5217901e-05
1.5143827e-05
1.506648e-05
1.4985839e-05
1.4902015e-05
1.4815129e-05
1.4725452e-05
1.4633211e-05
1.453836e-05
1.4440964e-05
1.4341122e-05
1.4239039e-05
1.4134597e-05
1.4027675e-05
1.3918328e-05
1.3807257e-05
1.3694917e-05
1.3580649e-05
1.34642e-05
1.3346062e-05
1.3226368e-05
1.3105367e-05
1.2982755e-05
1.2858439e-05
1.2732257e-05
1.2604265e-05
1.247437e-05
1.2342885e-05
1.2209911e-05
1.2075711e-05
1.1939844e-05
1.1802084e-05
1.1662487e-05
1.1521394e-05
1.1378482e-05
1.1233479e-05
1.1085925e-05
1.0936649e-05
1.0784488e-05
1.0630115e-05
1.0471348e-05
1.0310154e-05
1.0143488e-05
9.9738755e-06
9.7970826e-06
9.6170562e-06
9.4283071e-06
9.2355617e-06
9.031271e-06
8.8213672e-06
8.5966481e-06
8.3648758e-06
8.1149013e-06
7.8553684e-06
7.5731397e-06
7.27697e-06
6.9527012e-06
6.6038942e-06
6.1895886e-06
5.7880948e-06
5.7154011e-06
5.7746807e-06
5.9085621e-06
6.0739522e-06
6.2618974e-06
6.4669373e-06
6.6818103e-06
6.9094293e-06
7.1445823e-06
7.3930764e-06
7.6505449e-06
7.9212416e-06
8.2031652e-06
8.5050944e-06
8.8462815e-06
9.2229839e-06
9.6216038e-06
1.0038564e-05
1.0469592e-05
1.0912755e-05
1.1364814e-05
1.1822505e-05
1.2280688e-05
1.2734803e-05
1.3180142e-05
1.3606056e-05
1.3931624e-05
1.4184605e-05
1.4410448e-05
1.4626212e-05
1.48411e-05
1.506776e-05
1.5310984e-05
1.5583619e-05
1.5888928e-05
1.6253182e-05
1.6651611e-05
1.7207937e-05
1.7709397e-05
1.8525735e-05
2.8425351e-05
3.9118401e-06
2.7960938e-05
4.229189e-06
3.2671751e-05
5.260272e-06
4.1506509e-05
4.862281e-05
3.9426161e-05
4.9748629e-05
6.1023359e-05
7.1237904e-05
7.7434781e-05
7.8647585e-05
7.5474705e-05
6.6728639e-05
6.0751788e-05
1.6525096e-05
4.6181419e-05
1.0730483e-05
8.0379731e-06
2.8437443e-05
2.3687317e-05
6.8188989e-05
2.6800674e-05
6.6096689e-05
6.3132573e-05
3.8515706e-05
2.3814442e-05
1.129726e-05
3.8203942e-06
9.8469541e-07
3.7547981e-07
2.3436295e-07
1.6261898e-07
1.3587282e-07
1.2256011e-07
1.1351138e-07
1.089245e-07
1.0554498e-07
1.0414211e-07
1.0250027e-07
1.0168222e-07
1.0080295e-07
1.0088263e-07
1.0222003e-07
1.0576469e-07
1.1080796e-07
1.1754893e-07
1.2601809e-07
1.3669352e-07
1.4966116e-07
1.6558566e-07
1.8479778e-07
2.0803708e-07
2.3574515e-07
2.6865145e-07
3.0683317e-07
3.4992064e-07
3.9727539e-07
4.5025441e-07
5.0967639e-07
5.7661331e-07
6.4962334e-07
7.2583869e-07
8.0470866e-07
8.859546e-07
9.6630808e-07
1.0184767e-06
6.5024355e-07
1.3256607e-06
1.4368569e-06
9.3880732e-07
1.7492087e-06
1.752874e-06
1.8774083e-06
1.9880368e-06
2.0848227e-06
2.1646501e-06
2.2188812e-06
2.2493988e-06
2.2506459e-06
2.2463153e-06
2.2525082e-06
2.3795592e-06
2.927551e-06
3.4884023e-06
4.2347461e-06
4.8574371e-06
5.4131669e-06
6.0081349e-06
6.5658536e-06
7.1474673e-06
7.7135335e-06
8.2485808e-06
6.3111781e-06
9.3629593e-06
9.9333169e-06
1.0492475e-05
1.1048408e-05
1.1606976e-05
1.2164255e-05
1.2723181e-05
1.3281585e-05
1.3841196e-05
1.4401259e-05
1.4964644e-05
1.5542315e-05
1.5990175e-05
1.1707207e-05
1.2107993e-05
1.2490343e-05
1.2878241e-05
1.3259643e-05
1.3640917e-05
1.4018454e-05
1.4394849e-05
1.4769794e-05
1.5146099e-05
1.5528513e-05
1.5948001e-05
1.6643759e-05
2.3436846e-05
2.4139507e-05
2.4896351e-05
2.6020426e-05
2.4787363e-05
2.5096605e-05
2.5505462e-05
2.5858927e-05
2.6214652e-05
2.6548904e-05
2.6872216e-05
2.7179806e-05
2.7473422e-05
2.7752218e-05
2.8016407e-05
2.8265998e-05
2.8500845e-05
2.8720858e-05
2.8926058e-05
2.9116344e-05
2.9292162e-05
2.9453318e-05
2.9600219e-05
2.9732649e-05
2.9851287e-05
2.9956051e-05
3.0047454e-05
3.0125367e-05
3.0190396e-05
3.0242588e-05
3.028239e-05
3.0310228e-05
3.0325957e-05
3.032957e-05
3.0322449e-05
3.0304299e-05
3.0274777e-05
3.0233757e-05
3.0182648e-05
3.0124585e-05
3.0057732e-05
2.9977965e-05
2.9890853e-05
2.9794545e-05
2.9690111e-05
2.9577576e-05
2.945743e-05
2.9329593e-05
2.9194642e-05
2.9052732e-05
2.8904539e-05
2.8750023e-05
2.8589395e-05
2.842289e-05
2.8251024e-05
2.8074236e-05
2.7892434e-05
2.7705744e-05
2.7514357e-05
2.7318665e-05
2.7118443e-05
2.6913459e-05
2.6703819e-05
2.6490865e-05
2.6275467e-05
2.6056367e-05
2.583308e-05
2.5606547e-05
2.5377024e-05
2.5144985e-05
2.4909853e-05
2.4671446e-05
2.4429458e-05
2.4183993e-05
2.3934872e-05
2.3682696e-05
2.342766e-05
2.3170267e-05
2.290967e-05
2.2645441e-05
2.2377682e-05
2.2107051e-05
2.1832923e-05
2.1554785e-05
2.1271746e-05
2.0985402e-05
2.0693519e-05
2.039739e-05
2.0092832e-05
1.9783613e-05
1.9463898e-05
1.9138527e-05
1.8799382e-05
1.8454031e-05
1.8091946e-05
1.7722193e-05
1.7330293e-05
1.6927626e-05
1.6496539e-05
1.6051922e-05
1.5572385e-05
1.5074515e-05
1.4533105e-05
1.3964957e-05
1.3342903e-05
1.2673808e-05
1.1879746e-05
1.1111506e-05
1.0973295e-05
1.108711e-05
1.1344201e-05
1.1661871e-05
1.2022889e-05
1.241676e-05
1.2829536e-05
1.3266809e-05
1.3718574e-05
1.4195972e-05
1.4690616e-05
1.5210679e-05
1.5752344e-05
1.6332547e-05
1.6987967e-05
1.7711209e-05
1.8476332e-05
1.9276546e-05
2.0103672e-05
2.0953948e-05
2.1821153e-05
2.2699037e-05
2.3577693e-05
2.4448379e-05
2.5302034e-05
2.6117637e-05
2.6740609e-05
2.7225345e-05
2.7658572e-05
2.8072575e-05
2.8485031e-05
2.8920185e-05
2.938721e-05
2.9910717e-05
3.0497092e-05
3.119649e-05
3.1962048e-05
3.3029637e-05
3.3999379e-05
3.5534538e-05
4.6866739e-05
8.8515465e-06
4.6093294e-05
9.5913228e-06
5.3795997e-05
1.1973928e-05
6.8272589e-05
7.9759163e-05
7.5115466e-05
9.5066989e-05
0.0001164524
0.0001358132
0.00014753269
0.00014987627
0.0001439147
0.00012736091
0.00011605286
3.6832127e-05
7.7959274e-05
2.3983439e-05
1.7992398e-05
5.4657363e-05
4.8101011e-05
0.00011976945
5.4377998e-05
0.00011604679
9.9514388e-05
6.7391943e-05
4.1796861e-05
1.9863127e-05
6.7295203e-06
1.7323607e-06
6.5830165e-07
4.0981701e-07
2.8423429e-07
2.3733095e-07
2.140748e-07
1.9825284e-07
1.9024885e-07
1.8434429e-07
1.8190947e-07
1.7905419e-07
1.7764074e-07
1.7611405e-07
1.7625383e-07
1.7857373e-07
1.8474454e-07
1.935353e-07
2.0529105e-07
2.2006176e-07
2.3868355e-07
2.6130393e-07
2.890834e-07
3.225982e-07
3.6314308e-07
4.1148528e-07
4.6889818e-07
5.3552877e-07
6.1073138e-07
6.9342886e-07
7.8592746e-07
8.8967573e-07
1.0065687e-06
1.1341167e-06
1.2673016e-06
1.4051402e-06
1.5471701e-06
1.6877994e-06
1.7836042e-06
1.2577389e-06
2.1767845e-06
2.3710563e-06
1.7943814e-06
2.8955303e-06
3.0701007e-06
3.2881023e-06
3.4820387e-06
3.6517728e-06
3.791802e-06
3.8870287e-06
3.9406746e-06
3.9431029e-06
3.9357316e-06
3.9471248e-06
4.170033e-06
5.130022e-06
6.1092993e-06
7.1157317e-06
8.152293e-06
9.0810365e-06
1.0077511e-05
1.1011538e-05
1.1986e-05
1.2933958e-05
1.3850385e-05
1.1786998e-05
1.5703106e-05
1.6653789e-05
1.7590778e-05
1.8522326e-05
1.9458309e-05
2.039213e-05
2.1328727e-05
2.2264455e-05
2.3202221e-05
2.4140755e-05
2.508483e-05
2.6052258e-05
2.6853096e-05
2.1900336e-05
2.2652563e-05
2.3366657e-05
2.4090864e-05
2.4802749e-05
2.5514131e-05
2.6218247e-05
2.6919864e-05
2.7618331e-05
2.8318755e-05
2.9029717e-05
2.9806818e-05
3.1011438e-05
3.9307534e-05
4.0480812e-05
4.1757748e-05
4.3721713e-05
4.3372507e-05
4.3916769e-05
4.4631839e-05
4.5250281e-05
4.5872636e-05
4.645748e-05
4.7023199e-05
4.7561444e-05
4.8075267e-05
4.8563189e-05
4.9025581e-05
4.9462461e-05
4.9873569e-05
5.0258752e-05
5.0618041e-05
5.0951263e-05
5.1259193e-05
5.1541496e-05
5.1798876e-05
5.2030961e-05
5.2238931e-05
5.2422646e-05
5.2582996e-05
5.271976e-05
5.2833994e-05
5.2925777e-05
5.2995889e-05
5.3045053e-05
5.3073103e-05
5.307991e-05
5.3067936e-05
5.3036676e-05
5.2985522e-05
5.2914244e-05
5.2825307e-05
5.2724194e-05
5.2607715e-05
5.2468629e-05
5.231668e-05
5.2148636e-05
5.1966364e-05
5.1769909e-05
5.1560124e-05
5.1336874e-05
5.1101162e-05
5.0853265e-05
5.0594359e-05
5.0324375e-05
5.0043684e-05
4.9752695e-05
4.9452311e-05
4.9143299e-05
4.8825496e-05
4.8499127e-05
4.8164524e-05
4.7822371e-05
4.7472278e-05
4.7113839e-05
4.6747242e-05
4.6374828e-05
4.5998116e-05
4.5614913e-05
4.5224374e-05
4.4828139e-05
4.4426656e-05
4.4020755e-05
4.3609429e-05
4.3192359e-05
4.276901e-05
4.2339567e-05
4.1903716e-05
4.1462508e-05
4.1016279e-05
4.0565913e-05
4.0109928e-05
3.964758e-05
3.9179043e-05
3.8705469e-05
3.8225761e-05
3.7739031e-05
3.7243712e-05
3.6742601e-05
3.6231785e-05
3.5713531e-05
3.5180521e-05
3.4639346e-05
3.4079796e-05
3.3510341e-05
3.2916778e-05
3.2312345e-05
3.1678624e-05
3.1031475e-05
3.0345567e-05
2.964081e-05
2.8886315e-05
2.8108135e-05
2.7268838e-05
2.6397451e-05
2.5449855e-05
2.4455467e-05
2.3366723e-05
2.2195693e-05
2.0807116e-05
1.9465874e-05
1.9225954e-05