/*--------------------------------*- C++ -*----------------------------------*\
| =========                 |                                                 |
| \\      /  F ield         | OpenFOAM: The Open Source CFD Toolbox           |
|  \\    /   O peration     | Version:  2.4.0                                 |
|   \\  /    A nd           | Web:      www.OpenFOAM.org                      |
|    \\/     M anipulation  |                                                 |
\*---------------------------------------------------------------------------*/
FoamFile
{
    version     2.0;
    format      ascii;
    class       volScalarField;
    location    "160";
    object      omega;
}
// * * * * * * * * * * * * * * * * * * * * * * * * * * * * * * * * * * * * * //

dimensions      [0 0 -1 0 0 0 0];

internalField   nonuniform List<scalar> 
78300
(
288636.63
288686.54
288700.32
288833.65
289515.6
291432.02
295479.08
302673.01
314010.37
329813.04
346787.82
362441.63
375829.98
386411.76
393919.79
398343.7
399991.89
399060.36
395721.33
390174.45
382632.29
373308
362413.46
350675.33
339521.98
329123.31
319421.78
310364.21
301901.89
293992.53
286594.56
279672.29
273192.3
267123.9
261439.18
256109.32
250877.53
245350.68
239525.68
233441.11
227134.93
220644.17
214005.21
207254.37
200428.97
193566.99
186709.47
179903.22
173262.16
167044.3
161298.04
156019.07
151204.62
146855.25
142973.85
139564.67
136634.53
134192.24
132247.52
130811.23
129895.27
129511.99
129657.27
129783.85
129783.85
129783.85
129783.85
129783.85
129783.85
129783.85
129783.85
129783.85
129783.85
129783.85
129783.85
129783.85
129783.85
129783.85
129783.85
129783.85
129783.85
129783.85
129783.85
129783.85
129783.85
129783.85
129783.85
129783.85
129783.85
129783.85
129783.85
129783.85
129783.85
129783.85
129783.85
129783.85
129783.85
129783.85
129783.85
129783.85
129783.85
129783.85
129783.85
129783.85
129783.85
129783.85
129783.85
129783.85
129783.85
129783.85
129783.85
129783.85
129783.85
129783.85
129783.85
129783.85
129783.85
129783.85
129783.85
129783.85
129783.85
129783.85
129783.84
129783.85
129783.85
129783.85
129783.85
129783.84
129783.85
129783.85
129783.85
129783.85
129783.85
129783.85
129783.85
129783.85
129783.84
129783.85
129783.85
129783.84
129783.85
129783.85
129783.85
129783.85
129783.85
129783.84
129783.85
129783.85
129783.85
129783.85
129783.85
129783.85
129783.85
129783.85
129783.84
129783.85
129783.85
129783.85
129783.84
129783.85
129783.85
129783.84
129783.85
129783.85
129783.84
129783.85
129783.85
129783.84
129783.85
129783.85
129783.85
129783.85
129783.85
129783.85
129783.85
129783.84
129783.85
129783.85
129783.85
129783.85
129783.85
129783.85
129783.85
129783.85
129783.85
129783.85
129783.85
129783.85
129783.85
129783.85
129783.85
129783.85
129783.85
129783.85
129783.84
129783.85
129783.85
129783.84
129783.85
129783.85
129783.85
129783.85
129783.85
129783.84
129783.85
129783.85
129783.84
129657.28
129512.01
129895.29
130811.3
132247.51
134192.34
136634.64
139564.65
142973.98
146855.32
151204.67
156018.82
161297.58
167043.87
173262.26
179902.7
186708.68
193567.05
200429.57
207253.32
214004.05
220644.49
227134.65
233439.26
239524.1
245352.66
250877.67
256108.08
261440.19
267124.37
273191.43
279670.54
286594.56
293991.4
301901.42
310366.52
319421.34
329122.77
339524.25
350675.48
362412.53
373310.22
382630.09
390168.82
395719.59
399058.71
399989.89
398342.36
393921.49
386411.41
375828.68
362441.02
346789.97
329814.86
314010.09
302672.88
295478.99
291431.81
289515.62
288834.57
288701.21
288686.52
288636.62
56254.687
48862.942
56269.972
48888.582
40718.858
49298.051
49992.439
51206.694
53120.489
53539.079
56294.752
58837.503
61013.108
62733.498
63954.995
64675.636
64945.515
64796.432
64256.407
63357.791
62135.114
60622.962
58855.486
56949.959
55138.593
53449.697
51874.052
50403.002
49028.68
47744.135
46542.663
45418.357
44365.867
43380.164
42456.763
41591.128
40741.864
39844.944
38899.66
37912.319
36889.1
35836.092
34759.332
33665.041
32560.046
31452.704
30382.37
34673.602
24674.633
23815.731
30989.406
22298.388
25590.422
24854.898
24197.835
23620.725
23124.717
22711.284
22382.079
22138.962
21983.942
21919.106
21942.625
21962.344
21959.432
18809.923
18711.528
18673.253
18662.364
18654.202
18650.808
18648.08
18655.112
24755.57
18645.524
18643.873
18643.708
18643.61
18643.729
18643.917
18644.262
18644.682
18645.238
18645.892
18646.702
18647.867
18660.143
24762.426
24762.611
24761.245
24759.595
24757.766
24755.635
24753.204
24750.367
24747.051
24743.097
24738.255
24731.489
24699.995
18699.198
18713.795
18740.787
18875.277
21960.997
21961.618
21961.617
21961.615
21961.614
21961.612
21961.611
21961.61
21961.608
21961.607
21961.605
21961.604
21961.602
21961.601
21961.599
21961.598
21961.596
21961.594
21961.593
21961.591
21961.59
21961.588
21961.587
21961.585
21961.584
21961.582
21961.581
21961.58
21961.578
21961.577
21961.575
21961.574
21961.573
21961.572
21961.571
21961.569
21961.568
21961.567
21961.566
21961.565
21961.564
21961.563
21961.562
21961.561
21961.56
21961.56
21961.559
21961.558
21961.558
21961.557
21961.556
21961.556
21961.555
21961.555
21961.554
21961.554
21961.553
21961.553
21961.553
21961.553
21961.552
21961.552
21961.552
21961.551
21961.552
21961.552
21961.551
21961.551
21961.551
21961.551
21961.551
21961.551
21961.551
21961.551
21961.552
21961.552
21961.551
21961.552
21961.552
21961.552
21961.553
21961.553
21961.553
21961.553
21961.554
21961.554
21961.554
21961.555
21961.556
21961.556
21961.557
21961.558
21961.558
21961.559
21961.561
21961.562
21961.563
21961.565
21961.567
21961.57
21961.574
21961.581
21962.087
21942.399
21919.056
21983.959
22138.989
22382.098
22711.307
23124.741
23620.733
24197.882
24854.898
25591.13
26406.052
27299.587
28272.247
29324.769
30448.54
31600.082
32760.333
33921.292
35075.777
36217.749
37341.015
38438.825
39505.248
40534.388
41519.971
42454.401
43339.365
44241.766
45203.79
46230.696
47327.566
48499.553
49751.43
51090.17
52522.865
54055.442
55697.5
57458.104
59345.682
61331.251
52230.147
75015.268
54558.897
77626.618
55777.048
78466.794
55684.296
55020.568
62702.419
61013.33
58838.683
56296.802
53541.249
50978.936
49143.227
47982.514
47322.265
56431.45
40645.672
56227.031
56284.44
48854.555
22750.731
16177.977
22760.596
16188.158
11060.078
16287.686
16530.226
16930.958
17562.832
17956.45
18879.572
19732.865
20463.196
21041.022
21451.491
21693.935
21785.111
21735.725
21555.17
21254.278
20844.64
20337.873
19745.34
19106.217
18498.46
17931.763
17403.053
16909.445
16448.291
16017.26
15614.111
15236.866
14883.717
14552.98
14243.146
13952.739
13667.898
13367.114
13050.109
12718.979
12375.787
12022.559
11661.308
11294.089
10923.094
10550.959
10213.717
13520.337
6973.2555
6779.1377
11987.221
6370.3312
8468.3371
8219.8678
8002.4991
7811.5988
7647.5254
7510.7702
7401.8772
7321.475
7270.2208
7248.8352
7256.4441
7262.5439
7259.2932
5500.7827
5449.0982
5429.3867
5423.7831
5419.5923
5417.8503
5416.4704
5424.7554
9392.9041
5416.8911
5414.3095
5414.228
5414.1812
5414.2463
5414.3464
5414.5269
5414.7464
5415.0355
5415.3744
5415.7942
5416.4241
5429.3736
9405.4604
9407.8302
9406.7389
9405.4207
9403.9597
9402.2591
9400.3176
9398.0536
9395.4081
9392.2536
9388.3906
9382.9324
9347.5612
5444.1576
5450.3876
5464.4045
5537.5892
7260.9662
7262.0636
7262.0609
7262.0578
7262.0547
7262.0515
7262.0483
7262.0449
7262.0414
7262.0379
7262.0343
7262.0305
7262.0268
7262.023
7262.0191
7262.0153
7262.0112
7262.0073
7262.0033
7261.9995
7261.9955
7261.9916
7261.9876
7261.9837
7261.9799
7261.976
7261.9723
7261.9686
7261.9648
7261.9613
7261.9576
7261.9542
7261.9506
7261.9473
7261.944
7261.9407
7261.9376
7261.9345
7261.9315
7261.9286
7261.9259
7261.9231
7261.9206
7261.9179
7261.9155
7261.9132
7261.911
7261.9088
7261.9068
7261.9049
7261.9029
7261.9013
7261.8995
7261.898
7261.8964
7261.895
7261.8936
7261.8923
7261.8913
7261.8902
7261.8891
7261.8882
7261.8874
7261.8865
7261.886
7261.8853
7261.8846
7261.8841
7261.8837
7261.8833
7261.8831
7261.8829
7261.8829
7261.8827
7261.8827
7261.8827
7261.8829
7261.8832
7261.8832
7261.8836
7261.8839
7261.8844
7261.8847
7261.8853
7261.8859
7261.8865
7261.8873
7261.8883
7261.8893
7261.8905
7261.8916
7261.8931
7261.8946
7261.8965
7261.8987
7261.9011
7261.9038
7261.907
7261.9105
7261.9153
7261.921
7261.9283
7262.229
7256.1683
7248.7618
7270.2333
7321.5035
7401.9147
7510.8043
7647.5532
7811.6129
8002.5192
8219.8417
8463.3647
8732.9091
9028.4565
9350.1673
9698.2842
10069.912
10450.667
10834.277
11218.098
11599.788
11977.332
12348.672
12711.587
13064.113
13404.287
13730.066
14038.96
14331.542
14629.978
14948.178
15287.815
15650.603
16038.239
16452.302
16895.081
17368.938
17875.847
18418.915
19001.219
19625.761
20310.575
13906.267
30913.825
14526.063
32055.485
14828.917
32407.387
14850.939
14567.805
20958.83
20462.931
19734.427
18882.087
17958.907
17101.13
16486.597
16097.296
15858.801
22833.01
11067.188
22693.779
22793.641
16172.442
12788.835
7480.6259
12796.645
7487.5403
4112.8619
7496.0976
7621.0389
7805.3017
8095.2862
8338.9077
8766.8725
9163.2464
9502.6127
9771.3193
9962.2595
10075.154
10117.756
10095.075
10011.45
9871.9365
9681.9016
9446.7433
9171.7237
8874.9422
8592.6287
8329.3745
8083.7628
7854.4596
7640.2303
7439.9963
7252.7142
7077.4686
6913.4157
6759.7765
6615.846
6480.9483
6348.6723
6209.0177
6061.8307
5908.0765
5748.7096
5584.6705
5416.8921
5246.3162
5073.9379
4901.0382
4760.7006
7187.4538
2778.2219
2737.8135
6301.4632
2583.7592
3909.2022
3789.5074
3689.2728
3601.2513
3525.5976
3462.5451
3412.3401
3375.288
3351.683
3341.9009
3345.4447
3348.0945
3344.8213
2301.4981
2272.4827
2261.6634
2258.5909
2256.3002
2255.3503
2254.6159
2262.9442
4805.9513
2255.937
2253.4412
2253.4012
2253.3813
2253.4222
2253.4824
2253.5863
2253.7115
2253.8746
2254.0648
2254.2994
2254.6754
2267.1173
4821.6267
4824.8405
4824.0651
4823.1282
4822.0899
4820.8818
4819.503
4817.8955
4816.0176
4813.7791
4811.0373
4807.0871
4772.3968
2270.7219
2273.3394
2281.1166
2324.1798
3346.5952
3347.7601
3347.7556
3347.7502
3347.7449
3347.7392
3347.7335
3347.7274
3347.7211
3347.7147
3347.7081
3347.7012
3347.6943
3347.6872
3347.6799
3347.6727
3347.6652
3347.6578
3347.6502
3347.6427
3347.6352
3347.6277
3347.62
3347.6125
3347.605
3347.5976
3347.5902
3347.5829
3347.5756
3347.5685
3347.5614
3347.5545
3347.5476
3347.5408
3347.5343
3347.5278
3347.5215
3347.5153
3347.5093
3347.5034
3347.4978
3347.4922
3347.4869
3347.4817
3347.4767
3347.4719
3347.4673
3347.4628
3347.4585
3347.4545
3347.4505
3347.4468
3347.4431
3347.4397
3347.4365
3347.4334
3347.4304
3347.4276
3347.4251
3347.4228
3347.4204
3347.4183
3347.4163
3347.4145
3347.4129
3347.4113
3347.4098
3347.4085
3347.4074
3347.4064
3347.4056
3347.4049
3347.4043
3347.4039
3347.4035
3347.4033
3347.4032
3347.4033
3347.4032
3347.4035
3347.4038
3347.4044
3347.4048
3347.4054
3347.4063
3347.4072
3347.4083
3347.4095
3347.411
3347.4128
3347.4146
3347.4167
3347.4192
3347.4219
3347.4252
3347.4289
3347.433
3347.4379
3347.4433
3347.4501
3347.458
3347.4673
3347.6676
3345.0744
3341.7898
3351.6874
3375.3164
3412.3856
3462.5844
3525.6288
3601.2672
3689.2797
3789.4711
3901.7411
4026.0089
4162.2635
4310.576
4471.0569
4642.3456
4817.8216
4994.6037
5171.475
5347.368
5521.342
5692.452
5859.6819
6022.129
6178.875
6328.98
6471.3079
6606.1565
6743.7483
6890.4691
7047.0763
7214.3428
7393.0601
7583.9608
7788.1053
8006.5808
8240.2887
8490.6589
8759.105
9047.1523
9395.5652
4975.752
17891.118
5203.9719
18604.747
5302.1694
18805.971
5350.8699
5155.9793
9657.7752
9502.7402
9166.5081
8771.6154
8344.5022
7947.8495
7663.36
7482.3388
7359.017
12844.509
4139.5955
12712.291
12846.986
7475.1265
8292.0886
4172.3856
8298.5889
4179.8725
1929.4007
4148.9477
4229.8851
4331.7182
4491.3049
4646.3215
4884.0672
5104.9343
5294.1145
5444.0892
5550.6711
5613.7586
5637.6403
5625.1526
5578.6819
5501.0745
5395.3045
5264.384
5111.2467
4945.9155
4788.5857
4641.8705
4504.9863
4377.1925
4257.7988
4146.2068
4041.8327
3944.1674
3852.74
3767.1174
3686.9036
3611.7262
3538.0288
3460.237
3378.246
3292.5913
3203.807
3112.4138
3018.9306
2923.8775
2827.8031
2731.5226
2663.7593
4380.7428
1415.4301
1417.8967
3796.2628
1342.3102
2172.6616
2102.527
2046.9034
1998.0571
1956.0724
1921.0868
1893.2313
1872.6927
1859.6246
1854.2835
1856.3583
1857.7586
1854.7333
1229.1408
1212.4931
1206.4406
1204.7259
1203.4538
1202.9302
1202.5423
1210.3114
2815.201
1203.9936
1201.9065
1201.8912
1201.888
1201.9185
1201.9596
1202.0249
1202.1018
1202.1996
1202.3123
1202.4496
1202.6907
1214.0081
2831.3847
2834.5615
2834.0371
2833.4026
2832.6995
2831.8816
2830.9482
2829.8604
2828.5899
2827.0757
2825.2205
2822.4642
2791.2022
1212.2199
1213.1655
1217.5771
1243.808
1856.5287
1857.5589
1857.5518
1857.5436
1857.5352
1857.5264
1857.5172
1857.5076
1857.4976
1857.4873
1857.4766
1857.4657
1857.4544
1857.443
1857.4312
1857.4194
1857.4073
1857.3951
1857.3828
1857.3705
1857.3581
1857.3457
1857.3332
1857.3208
1857.3085
1857.2962
1857.2839
1857.2718
1857.2598
1857.2479
1857.2361
1857.2245
1857.2131
1857.2018
1857.1909
1857.18
1857.1694
1857.1591
1857.149
1857.1391
1857.1296
1857.1202
1857.1112
1857.1024
1857.094
1857.0858
1857.078
1857.0704
1857.063
1857.0561
1857.0493
1857.0429
1857.0367
1857.0308
1857.0252
1857.0198
1857.0147
1857.0098
1857.0054
1857.0013
1856.9972
1856.9934
1856.9899
1856.9867
1856.9837
1856.9809
1856.9782
1856.9759
1856.9737
1856.9718
1856.9702
1856.9689
1856.9677
1856.9666
1856.9657
1856.9652
1856.9647
1856.9645
1856.9643
1856.9645
1856.9647
1856.9652
1856.9657
1856.9665
1856.9675
1856.9687
1856.9702
1856.9718
1856.9739
1856.9762
1856.9789
1856.9817
1856.9851
1856.9889
1856.9935
1856.9985
1857.0044
1857.0109
1857.0185
1857.0276
1857.038
1857.0497
1857.1989
1855.8769
1854.1224
1859.6107
1872.7122
1893.2736
1921.1211
1956.0968
1998.0597
2046.8886
2102.4745
2164.76
2233.7023
2309.2931
2391.572
2480.599
2575.6063
2672.9223
2770.9578
2869.04
2966.581
3063.0542
3157.939
3250.6737
3340.7573
3427.6824
3510.9232
3589.8605
3664.6752
3741.034
3822.4669
3909.3803
4002.2083
4101.3846
4207.3177
4320.605
4441.8467
4571.5344
4710.4665
4859.4235
5019.2613
5241.5471
2214.8144
11989.971
2324.2935
12506.009
2363.661
12633.594
2415.692
2259.9612
5314.5396
5295.2325
5110.6152
4891.8984
4655.8481
4436.6443
4278.9156
4177.6267
4099.9466
8335.0743
1962.9314
8206.4685
8363.5066
4168.4004
5721.0971
2615.4011
5723.4611
2626.7056
1108.3948
2574.1516
2633.8378
2696.7704
2794.7638
2898.6034
3046.1823
3183.9315
3301.9832
3395.7521
3462.3788
3501.8674
3516.86
3509.1734
3480.2614
3431.9331
3366.0236
3284.4203
3188.9629
3085.8556
2987.6982
2896.1593
2810.7532
2731.0202
2656.5283
2586.9051
2521.7855
2460.8531
2403.8121
2350.393
2300.3467
2253.4436
2207.4745
2158.9616
2107.8286
2054.4076
1999.0319
1942.0245
1883.7103
1824.4108
1764.4657
1704.4854
1668.2326
2849.1574
871.59442
885.10589
2443.6035
838.57626
1354.0262
1308.1004
1273.4886
1243.0903
1216.9606
1195.1933
1177.8641
1165.1074
1157.0091
1153.7791
1155.2136
1156.0612
1153.4655
779.57796
769.9771
766.58825
765.63406
764.93242
764.6495
764.45615
771.34475
1768.2739
765.75444
764.13361
764.13496
764.14376
764.17113
764.2041
764.25021
764.30247
764.36598
764.43743
764.52232
764.68835
774.56586
1783.1617
1785.8752
1785.532
1785.1156
1784.6539
1784.1165
1783.5033
1782.7885
1781.9539
1780.9592
1779.7396
1777.8444
1751.4666
770.41129
770.59488
773.10859
789.36646
1155.1835
1156.0062
1155.9956
1155.9838
1155.9716
1155.9587
1155.9452
1155.9311
1155.9164
1155.9013
1155.8856
1155.8694
1155.8529
1155.8359
1155.8186
1155.801
1155.7832
1155.7652
1155.7469
1155.7286
1155.7102
1155.6918
1155.6733
1155.6549
1155.6365
1155.6181
1155.5999
1155.5819
1155.5639
1155.5462
1155.5287
1155.5114
1155.4943
1155.4775
1155.4611
1155.4449
1155.4291
1155.4136
1155.3985
1155.3838
1155.3694
1155.3555
1155.3419
1155.3287
1155.316
1155.3038
1155.2919
1155.2805
1155.2694
1155.2589
1155.2488
1155.239
1155.2297
1155.2208
1155.2123
1155.2041
1155.1964
1155.1891
1155.1823
1155.1759
1155.1698
1155.164
1155.1586
1155.1537
1155.1491
1155.1447
1155.1407
1155.137
1155.1337
1155.1307
1155.1282
1155.126
1155.124
1155.1224
1155.1208
1155.1198
1155.119
1155.1185
1155.118
1155.1181
1155.1183
1155.1188
1155.1194
1155.1204
1155.1217
1155.1232
1155.1251
1155.1273
1155.1301
1155.133
1155.1366
1155.1403
1155.1449
1155.1498
1155.1559
1155.1624
1155.1701
1155.1786
1155.1886
1155.2001
1155.2133
1155.2279
1155.3485
1154.6044
1153.5521
1156.9622
1165.1047
1177.89
1195.2096
1216.964
1243.0659
1273.4394
1308.0166
1346.7606
1389.6457
1436.6656
1487.8449
1543.2201
1602.3041
1662.8152
1723.7719
1784.7565
1845.4052
1905.3902
1964.389
2022.0528
2078.0695
2132.1252
2183.8935
2232.9961
2279.5605
2327.0999
2377.7942
2431.897
2489.6819
2551.413
2617.3487
2687.8624
2763.3229
2844.0392
2930.5121
3023.219
3122.6264
3283.9293
1206.3785
8545.0119
1273.6025
8937.7328
1294.1796
9019.4463
1343.9934
1211.3993
3262.4198
3304.682
3192.5198
3057.637
2912.5021
2777.6716
2680.0575
2616.4101
2561.7915
5751.2258
1148.2858
5634.9948
5799.8719
2612.6882
4059.1449
1773.3642
4059.045
1787.0631
754.66704
1725.0826
1771.9527
1813.7411
1878.2516
1950.8729
2049.4329
2142.0683
2221.5172
2284.8024
2329.7469
2356.427
2366.5834
2361.4879
2342.0822
2309.6201
2265.316
2210.4473
2146.266
2076.9067
2010.8482
1949.2418
1891.7617
1838.1012
1787.9683
1741.1135
1697.2898
1656.2854
1617.8999
1581.9522
1548.2728
1516.7077
1485.7767
1453.1422
1418.7439
1382.8038
1345.5466
1307.1878
1267.9477
1228.0401
1187.6932
1147.4026
1126.0618
1920.2493
615.38462
629.49287
1633.6038
595.51758
910.77695
878.71765
855.46355
835.03642
817.4761
802.85428
791.21606
782.67009
777.26537
775.19434
776.32244
776.89605
774.81368
554.11
548.64252
546.78326
546.26796
545.89603
545.75399
545.67321
551.50554
1160.7226
546.73395
545.54389
545.55784
545.57627
545.60449
545.63532
545.67282
545.71315
545.7591
545.80878
545.86521
545.98701
554.26286
1173.3976
1175.5228
1175.304
1175.037
1174.7402
1174.3943
1173.9992
1173.5385
1173.0002
1172.3587
1171.5708
1170.2693
1149.1502
549.41011
549.27318
550.68117
560.73659
776.38435
776.99527
776.98014
776.96389
776.947
776.92919
776.91054
776.89101
776.87072
776.84968
776.82799
776.80564
776.78269
776.75923
776.73529
776.711
776.68633
776.66139
776.63619
776.61089
776.58544
776.55995
776.53438
776.50888
776.48343
776.45811
776.43292
776.40792
776.38315
776.35864
776.33445
776.31052
776.28694
776.26373
776.241
776.21864
776.19675
776.17534
776.15443
776.13406
776.11421
776.0949
776.07612
776.05794
776.04034
776.02337
776.00693
775.9911
775.97584
775.96123
775.94718
775.9337
775.92075
775.90839
775.89661
775.88534
775.87462
775.86448
775.85512
775.84625
775.83772
775.82967
775.82227
775.81537
775.80899
775.80296
775.79739
775.79229
775.78768
775.78359
775.77997
775.77689
775.77414
775.77179
775.76969
775.7682
775.767
775.76625
775.76562
775.76557
775.76581
775.76642
775.76723
775.76842
775.77012
775.77208
775.77462
775.77743
775.78102
775.7848
775.78942
775.79419
775.80012
775.80636
775.81414
775.82227
775.83214
775.84267
775.85532
775.86945
775.88583
775.90361
776.00737
775.56546
774.88215
777.16755
782.628
791.20875
802.83601
817.44216
834.96927
855.36489
878.58441
904.60182
933.40033
964.97473
999.3424
1036.5266
1076.1926
1116.8112
1157.7282
1198.6643
1239.3752
1279.6433
1319.2516
1357.9645
1395.5762
1431.8761
1466.6453
1499.6337
1530.9406
1562.9145
1597.0059
1633.3875
1672.2416
1713.7466
1758.0775
1805.4856
1856.2192
1910.4847
1968.6217
2030.9462
2097.6689
2223.0374
790.7035
6245.0535
841.28323
6547.8649
855.6348
6598.4876
902.07923
784.58658
2156.9006
2226.3359
2153.8583
2064.786
1969.3016
1880.5705
1815.7479
1772.5949
1731.7149
4080.7724
798.61891
3979.5487
4139.9505
1771.9313
2919.7302
1271.4586
2918.3721
1286.2542
581.68539
1222.6438
1260.1615
1289.191
1333.5837
1386.0334
1455.2617
1520.9713
1577.3875
1622.5035
1654.5168
1673.5564
1680.8205
1677.2624
1663.5131
1640.5012
1609.0681
1570.1284
1524.5884
1475.3487
1428.4298
1384.6722
1343.8443
1305.7312
1270.124
1236.8469
1205.7231
1176.6028
1149.3428
1123.8147
1099.8964
1077.4771
1055.5112
1032.3422
1007.9195
982.39972
955.9434
928.70151
900.83168
872.48433
843.8217
815.25856
801.32681
1325.8021
474.6635
485.8936
1121.8321
458.34828
646.61414
623.36859
606.86819
592.37081
579.9068
569.53553
561.28361
555.2466
551.45147
550.08671
551.06497
551.49516
549.93205
422.37585
419.37122
418.40277
418.14538
417.96785
417.91072
417.89592
422.61093
788.64616
418.71959
417.89312
417.91743
417.94415
417.9754
418.00731
418.04205
418.07745
418.11504
418.15369
418.19487
418.28825
424.9306
798.86225
800.43325
800.2972
800.12916
799.94141
799.72165
799.47022
799.17628
798.8325
798.42231
797.91721
797.01594
780.81255
420.28941
420.04582
420.79412
426.84663
551.32331
551.74929
551.72864
551.70701
551.68448
551.66075
551.63591
551.60998
551.58303
551.55516
551.52643
551.49688
551.46656
551.4356
551.40404
551.37202
551.33954
551.30673
551.27361
551.24034
551.20691
551.17344
551.1399
551.10645
551.07308
551.03989
551.00689
550.97415
550.94173
550.90966
550.878
550.84672
550.8159
550.78558
550.75588
550.7267
550.69811
550.67017
550.6429
550.61631
550.59042
550.56525
550.54078
550.51708
550.49414
550.47203
550.45062
550.43001
550.41014
550.39113
550.37285
550.35531
550.33849
550.32243
550.30714
550.29252
550.27864
550.26549
550.25336
550.24184
550.23082
550.22044
550.21088
550.20198
550.19375
550.18601
550.17888
550.17236
550.16648
550.16125
550.15665
550.15271
550.14924
550.14628
550.1437
550.14184
550.14039
550.13949
550.13883
550.13884
550.13926
550.14013
550.14133
550.14297
550.14526
550.14788
550.15123
550.1549
550.15956
550.16441
550.17034
550.17642
550.18395
550.1918
550.20154
550.21162
550.22391
550.23682
550.25243
550.26956
550.28955
550.31104
550.40483
550.13714
549.6663
551.28136
555.14523
561.22383
569.46395
579.81699
592.24273
606.70222
623.1649
641.61116
662.02995
684.41623
708.78375
735.14717
763.26315
792.05059
821.04983
850.06417
878.92038
907.46453
935.54368
962.99103
989.663
1015.411
1040.0799
1063.4947
1085.74
1108.4704
1132.6986
1158.5508
1186.158
1215.6469
1247.1431
1280.8249
1316.8689
1355.4231
1396.7276
1441.0037
1488.2916
1589.0515
600.03826
4608.7172
643.47381
4841.7866
655.85906
4871.2157
698.62575
592.35089
1506.6224
1584.5955
1536.0092
1474.4911
1408.8446
1347.9105
1302.8837
1272.2099
1240.4202
2937.6364
627.49019
2851.2811
2998.4003
1271.3751
2117.6884
950.13257
2115.8545
964.74586
484.92418
904.79202
934.58425
955.27369
986.61732
1025.3496
1075.739
1124.2177
1165.9045
1199.4181
1223.168
1237.3245
1242.7345
1240.1542
1230.0109
1213.0302
1189.8126
1161.0423
1127.4085
1091.0225
1056.333
1023.9802
993.79303
965.61496
939.29011
914.68973
891.68192
870.1569
850.00741
831.13874
813.45926
796.88351
780.64477
763.52283
745.47224
726.60884
707.05175
686.911
666.30421
645.34114
624.14242
603.05672
592.94816
934.1887
385.52732
393.01491
788.52818
369.47598
477.82023
460.55118
448.35607
437.63997
428.42601
420.76656
414.67621
410.24417
407.48346
406.58541
407.49551
407.85022
406.76164
335.31308
333.77555
333.32514
333.22002
333.15812
333.15321
333.1768
336.81503
552.91979
333.79952
333.26169
333.29481
333.32885
333.36415
333.39873
333.43382
333.46802
333.5023
333.53578
333.56893
333.64181
338.74072
560.8357
561.9507
561.86825
561.76423
561.64665
561.50785
561.3484
561.16103
560.94132
560.67853
560.35352
559.7196
547.71976
334.75287
334.50111
334.84976
338.26664
407.96975
408.2476
408.22036
408.19235
408.16315
408.1325
408.1005
408.06716
408.0326
407.99692
407.96021
407.92252
407.88392
407.84456
407.8045
407.7639
407.72277
407.68126
407.63941
407.59741
407.55524
407.51305
407.47081
407.42872
407.38676
407.34506
407.30363
407.26255
407.22189
407.1817
407.14205
407.1029
407.06435
407.02645
406.98934
406.95289
406.9172
406.88235
406.84834
406.81521
406.78296
406.75162
406.72117
406.6917
406.66318
406.6357
406.60911
406.58352
406.55889
406.5353
406.51266
406.49095
406.47015
406.45031
406.43143
406.41341
406.39632
406.38014
406.36523
406.35106
406.33757
406.32489
406.31321
406.30237
406.29236
406.28299
406.27439
406.26655
406.25951
406.25328
406.24784
406.2432
406.23916
406.23576
406.23287
406.23083
406.22933
406.22849
406.22801
406.22831
406.22915
406.23052
406.23235
406.23469
406.23784
406.24138
406.24583
406.25064
406.25665
406.26289
406.27044
406.27814
406.28761
406.29739
406.30945
406.32185
406.33691
406.35261
406.37158
406.39213
406.4162
406.44192
406.53025
406.37068
406.03041
407.21664
410.06083
414.54208
420.62056
428.25959
437.43032
448.10245
460.25445
473.87051
488.94346
505.46857
523.45735
542.91791
563.66654
584.9084
606.30773
627.71968
649.01736
670.08685
690.81653
711.0844
730.78497
749.80962
768.04532
785.36298
801.84181
818.69049
836.63766
855.78645
876.23336
898.07238
921.39804
946.34081
973.03303
1001.5851
1032.1739
1064.9621
1099.878
1182.0011
501.73211
3412.8032
541.62738
3590.9387
553.51984
3606.3886
592.39064
495.9956
1099.8623
1175.6259
1142.337
1098.5593
1052.1158
1009.2128
977.11883
954.67597
929.60066
2135.0684
531.20077
2062.7853
2191.3511
951.4364
1547.0439
732.98672
1545.1774
746.38058
422.45138
693.37239
716.46555
731.33969
753.67488
782.64889
820.25811
857.10637
888.86349
914.5694
932.75452
943.62255
947.78012
945.85517
938.13401
925.20953
907.51835
885.59004
859.97113
832.23994
805.78612
781.11448
758.09376
736.60715
716.53434
697.77835
680.2375
663.82898
648.46963
634.08751
620.61169
607.97091
595.58782
582.5382
568.7779
554.39592
539.48366
524.12355
508.40628
492.41421
476.24016
460.17503
452.14314
671.47931
321.92933
325.88183
567.01149
305.3352
364.15289
351.095
341.79336
333.61994
326.59176
320.75728
316.12296
312.77543
310.71861
310.15022
311.03788
311.35501
310.66934
272.44189
271.76331
271.60882
271.59293
271.59968
271.62736
271.67256
274.35213
399.6505
272.14167
271.82111
271.8617
271.90206
271.9415
271.97941
272.01616
272.05083
272.08431
272.11555
272.14437
272.20059
275.94068
405.61574
406.38422
406.33545
406.27173
406.19805
406.10971
406.00763
405.88644
405.74378
405.57234
405.35906
404.90379
396.27858
272.75087
272.52778
272.63271
274.31243
311.70396
311.86958
311.8347
311.79931
311.76245
311.72392
311.68381
311.64216
311.59911
311.55476
311.50924
311.46262
311.41498
311.36648
311.31721
311.26736
311.21694
311.16613
311.11497
311.06367
311.01225
310.96084
310.90945
310.85828
310.80732
310.75671
310.70648
310.65674
310.60752
310.55892
310.51101
310.46374
310.41725
310.37157
310.32686
310.28299
310.24006
310.19817
310.15732
310.11755
310.07886
310.04129
310.00482
309.96954
309.93544
309.90258
309.87083
309.84029
309.81092
309.78281
309.75586
309.73004
309.70535
309.68181
309.65945
309.63814
309.61796
309.59888
309.58134
309.56466
309.54885
309.53404
309.52041
309.50781
309.49621
309.48541
309.47554
309.46659
309.45861
309.4516
309.44554
309.44043
309.43608
309.43248
309.42953
309.42757
309.42629
309.42578
309.42575
309.42661
309.42816
309.43032
309.43307
309.43641
309.44073
309.44551
309.45137
309.45765
309.46535
309.4733
309.48282
309.4925
309.50426
309.51634
309.53112
309.54621
309.56447
309.58335
309.60613
309.63056
309.65921
309.6897
309.77575
309.68741
309.43118
310.32774
312.48466
315.89025
320.51365
326.32599
333.30623
341.4299
350.68163
361.04796
372.52443
385.10662
398.80458
413.62139
429.41454
445.58166
461.87044
478.17062
494.38641
510.43137
526.22147
541.66477
556.68187
571.1908
585.10686
598.33086
610.94298
623.85023
637.58308
652.23453
667.87804
684.58528
702.42916
721.50944
741.92874
763.77076
787.17157
812.25437
838.88398
906.06086
443.13599
2530.7339
480.68933
2665.7727
492.52731
2672.5152
527.29872
440.80745
833.59054
901.07878
877.95205
846.15449
812.69239
782.14791
759.06707
742.50354
722.69078
1565.8749
468.14208
1506.307
1614.043
735.65714
1139.6712
580.02483
1137.9631
591.45768
376.29413
547.12311
564.38917
574.99046
590.7671
612.509
641.05833
669.71804
694.4984
714.72981
729.01081
737.57138
740.8473
739.38002
733.35378
723.27183
709.45406
692.32208
672.3254
650.66713
629.99294
610.71219
592.72127
575.93134
560.24698
545.59366
531.89074
519.07429
507.07812
495.84637
485.32288
475.44298
465.76461
455.57342
444.82333
433.58542
421.93185
409.92551
397.63814
385.13311
372.48367
359.92952
353.12946
492.74284
272.54125
273.59776
417.30347
255.56891
284.42623
274.40218
267.12757
260.73673
255.2414
250.688
247.07726
244.49562
242.9408
242.61896
243.51072
243.81215
243.44865
224.40917
224.2156
224.22413
224.25955
224.30661
224.35482
224.41132
226.29512
297.60213
224.77233
224.60724
224.65382
224.69926
224.74235
224.78322
224.82169
224.85737
224.8908
224.92081
224.94675
224.98821
227.60709
302.01551
302.53403
302.50525
302.46585
302.41838
302.36018
302.29254
302.21085
302.11434
301.99749
301.85127
301.516
295.47207
225.17934
224.99167
224.94682
225.50174
244.31881
244.40244
244.35901
244.31531
244.26989
244.22261
244.17357
244.12284
244.07056
244.01688
243.96192
243.90577
243.84854
243.7904
243.73147
243.67195
243.61186
243.5514
243.49064
243.42979
243.36888
243.30806
243.24736
243.18697
243.12692
243.06733
243.00827
242.94982
242.89206
242.83508
242.77894
242.72363
242.66927
242.61593
242.56374
242.51258
242.46256
242.4138
242.36628
242.32006
242.27514
242.23155
242.18928
242.14842
242.10896
242.07096
242.03429
241.99905
241.9652
241.93284
241.90184
241.87219
241.84386
241.81691
241.79134
241.76702
241.74403
241.72233
241.70245
241.68355
241.66571
241.64905
241.63378
241.61971
241.60681
241.59488
241.58403
241.57428
241.56566
241.55817
241.5518
241.54653
241.54216
241.53867
241.53598
241.5344
241.53365
241.53378
241.53452
241.53626
241.53883
241.5421
241.54609
241.55076
241.55657
241.56291
241.57052
241.57861
241.58834
241.59836
241.61019
241.6222
241.63662
241.65137
241.66924
241.68742
241.70927
241.73177
241.75878
241.78754
241.82126
241.85707
241.94321
241.9042
241.70389
242.39611
244.06977
246.71983
250.32172
254.85201
260.29525
266.63092
273.84813
281.93494
290.88884
300.7057
311.39446
322.95437
335.2726
347.88169
360.58774
373.30481
385.95884
398.48299
410.81262
422.87658
434.61418
445.96225
456.85597
467.21434
477.12604
487.28442
498.07089
509.57901
521.86554
534.98658
548.99985