/*--------------------------------*- C++ -*----------------------------------*\
| =========                 |                                                 |
| \\      /  F ield         | OpenFOAM: The Open Source CFD Toolbox           |
|  \\    /   O peration     | Version:  2.4.0                                 |
|   \\  /    A nd           | Web:      www.OpenFOAM.org                      |
|    \\/     M anipulation  |                                                 |
\*---------------------------------------------------------------------------*/
FoamFile
{
    version     2.0;
    format      ascii;
    class       surfaceScalarField;
    location    "160";
    object      phi;
}
// * * * * * * * * * * * * * * * * * * * * * * * * * * * * * * * * * * * * * //

dimensions      [0 3 -1 0 0 0 0];

internalField   nonuniform List<scalar> 
156040
(
3.0116972e-07
-4.655794e-08
3.5882442e-07
-5.7654704e-08
3.7517388e-07
-1.6349446e-08
3.6230709e-07
1.2866796e-08
2.921239e-07
7.0183196e-08
1.8469058e-07
1.0743333e-07
5.1126144e-08
1.3356444e-07
-6.5147219e-08
1.1627337e-07
-1.2026695e-07
5.5119739e-08
-1.2263755e-07
2.3705998e-09
-1.0223931e-07
-2.0398235e-08
-8.1847207e-08
-2.0392068e-08
-6.5446975e-08
-1.6400267e-08
-5.5660733e-08
-9.786229e-09
-4.9774085e-08
-5.8866644e-09
-4.564821e-08
-4.125903e-09
-4.2725697e-08
-2.9224868e-09
-4.0381916e-08
-2.3437832e-09
-3.8240203e-08
-2.1417157e-09
-3.6236377e-08
-2.0038266e-09
-3.4346362e-08
-1.8900156e-09
-3.2668542e-08
-1.6778206e-09
-3.1369429e-08
-1.2991151e-09
-3.0573438e-08
-7.9599453e-10
-3.0148403e-08
-4.2503412e-10
-3.0075171e-08
-7.3220566e-11
-3.034651e-08
2.7132636e-10
-3.1008889e-08
6.6238231e-10
-3.2054764e-08
1.0458694e-09
-3.3546229e-08
1.49147e-09
-3.5468177e-08
1.9219427e-09
-3.7863595e-08
2.3954182e-09
-4.0711286e-08
2.8476913e-09
-4.3986487e-08
3.2752007e-09
-4.7594786e-08
3.6082979e-09
-5.1316069e-08
3.7212829e-09
-5.4978117e-08
3.6620467e-09
-5.8640118e-08
3.6619999e-09
-6.2296215e-08
3.656096e-09
-6.5876139e-08
3.5799217e-09
-6.9414858e-08
3.5416663e-09
-7.2581157e-08
3.1663149e-09
-7.5681033e-08
3.099878e-09
-7.8363772e-08
2.682737e-09
-8.0527414e-08
2.1636428e-09
-8.2340936e-08
1.8135219e-09
-8.3555262e-08
1.2143262e-09
-8.4555772e-08
1.00051e-09
-8.5472046e-08
9.1627372e-10
-8.6175678e-08
7.0363146e-10
-8.6459039e-08
2.8336093e-10
-8.6231802e-08
-2.2723669e-10
-8.5365509e-08
-8.6629311e-10
-8.3846227e-08
-1.5192818e-09
-8.1597464e-08
-2.2487632e-09
-7.871364e-08
-2.8838238e-09
-7.5209965e-08
-3.5036748e-09
-7.1470124e-08
-3.7398414e-09
-6.7732026e-08
-3.7380973e-09
-6.5090899e-08
-2.6411272e-09
-6.4391636e-08
-6.9926283e-10
-6.9655952e-08
5.2643154e-09
-9.0456615e-08
2.0800663e-08
-1.1300995e-07
2.2553339e-08
-1.3179836e-07
1.8788409e-08
-1.4869205e-07
1.6893691e-08
-1.6398673e-07
1.5294679e-08
-1.7786275e-07
1.3876018e-08
-1.9053083e-07
1.2668085e-08
-2.0212176e-07
1.1590922e-08
-2.1280835e-07
1.0686596e-08
-2.22681e-07
9.8726495e-09
-2.3186791e-07
9.1869067e-09
-2.4043171e-07
8.5637976e-09
-2.4846668e-07
8.0349737e-09
-2.5601871e-07
7.5520348e-09
-2.6314643e-07
7.1277167e-09
-2.6987757e-07
6.7311388e-09
-2.7625109e-07
6.3735164e-09
-2.8228735e-07
6.0362655e-09
-2.8801198e-07
5.7246312e-09
-2.9343756e-07
5.4255733e-09
-2.9857899e-07
5.1414389e-09
-3.0344515e-07
4.8661543e-09
-3.0804453e-07
4.5993829e-09
-3.1238143e-07
4.3368936e-09
-3.1646011e-07
4.0786896e-09
-3.202889e-07
3.8287884e-09
-3.238738e-07
3.5848967e-09
-3.2721536e-07
3.3415604e-09
-3.3031539e-07
3.1000326e-09
-3.3317606e-07
2.8606676e-09
-3.358005e-07
2.6244362e-09
-3.3819187e-07
2.3913691e-09
-3.4035405e-07
2.162187e-09
-3.4229191e-07
1.9378544e-09
-3.4401202e-07
1.7201087e-09
-3.4551886e-07
1.5068404e-09
-3.468218e-07
1.3029393e-09
-3.4793099e-07
1.1091945e-09
-3.4888306e-07
9.5207147e-10
-3.4969811e-07
8.1504729e-10
-3.5034575e-07
6.4764316e-10
-3.5078267e-07
4.3691818e-10
-3.5088347e-07
1.0080283e-10
-3.5066238e-07
-2.2109419e-10
-3.5020861e-07
-4.537718e-10
-3.495378e-07
-6.7080581e-10
-3.4866606e-07
-8.7174204e-10
-3.4760172e-07
-1.0643435e-09
-3.463504e-07
-1.2513203e-09
-3.4491525e-07
-1.4351427e-09
-3.4330015e-07
-1.6151052e-09
-3.4151185e-07
-1.7882968e-09
-3.3955741e-07
-1.9544422e-09
-3.3744121e-07
-2.1162003e-09
-3.3516421e-07
-2.2770018e-09
-3.3273194e-07
-2.432264e-09
-3.3014737e-07
-2.5845781e-09
-3.2742198e-07
-2.7253819e-09
-3.2455796e-07
-2.8640209e-09
-3.215628e-07
-2.9951596e-09
-3.1843683e-07
-3.1259691e-09
-3.1519328e-07
-3.2435574e-09
-3.1183537e-07
-3.3579016e-09
-3.0837268e-07
-3.4626974e-09
-3.0480346e-07
-3.5692157e-09
-3.0113989e-07
-3.6635676e-09
-2.9738398e-07
-3.755916e-09
-2.935439e-07
-3.8400811e-09
-2.8962253e-07
-3.9213638e-09
-2.8562586e-07
-3.9966681e-09
-2.8155903e-07
-4.066835e-09
-2.7742668e-07
-4.1323472e-09
-2.7323795e-07
-4.1887343e-09
-2.6899141e-07
-4.2465356e-09
-2.6469326e-07
-4.2981569e-09
-2.6034361e-07
-4.3496494e-09
-2.5595459e-07
-4.3890131e-09
-2.5152527e-07
-4.4293271e-09
-2.470634e-07
-4.4618689e-09
-2.4257185e-07
-4.4915481e-09
-2.3805608e-07
-4.5157682e-09
-2.3352103e-07
-4.5350544e-09
-2.289702e-07
-4.5508271e-09
-2.2440807e-07
-4.5621326e-09
-2.1983501e-07
-4.5730551e-09
-2.1525786e-07
-4.5771518e-09
-2.1067899e-07
-4.5788724e-09
-2.0611084e-07
-4.5681498e-09
-2.0154772e-07
-4.5631135e-09
-1.9699618e-07
-4.551543e-09
-1.9245453e-07
-4.5416553e-09
-1.87936e-07
-4.5185289e-09
-1.8343956e-07
-4.4964376e-09
-1.7896602e-07
-4.4735386e-09
-1.7451271e-07
-4.4533128e-09
-1.7008458e-07
-4.4281329e-09
-1.6568806e-07
-4.3965116e-09
-1.6131797e-07
-4.370093e-09
-1.5697427e-07
-4.3437072e-09
-1.5265881e-07
-4.3154589e-09
-1.4839269e-07
-4.2661141e-09
-1.441818e-07
-4.2108865e-09
-1.4000275e-07
-4.179052e-09
-1.3585372e-07
-4.1490307e-09
-1.3175125e-07
-4.1024704e-09
-1.2769892e-07
-4.0523313e-09
-1.2369983e-07
-3.9990883e-09
-1.1974301e-07
-3.9568277e-09
-1.1582843e-07
-3.914582e-09
-1.1196224e-07
-3.866187e-09
-1.0814322e-07
-3.819023e-09
-1.0438155e-07
-3.7616751e-09
-1.0067578e-07
-3.7057755e-09
-9.7043438e-08
-3.6323381e-09
-9.3471664e-08
-3.5717765e-09
-8.9968441e-08
-3.5032216e-09
-8.6511319e-08
-3.4571243e-09
-8.3136017e-08
-3.3752999e-09
-7.9823745e-08
-3.3122726e-09
-7.6596458e-08
-3.227283e-09
-7.3415277e-08
-3.1811791e-09
-7.0323328e-08
-3.091945e-09
-6.7298463e-08
-3.0248622e-09
-6.436545e-08
-2.9330083e-09
-6.1488808e-08
-2.8766388e-09
-5.8699155e-08
-2.7896498e-09
-5.5985979e-08
-2.7131727e-09
-5.3373291e-08
-2.6126863e-09
-5.0841168e-08
-2.5321203e-09
-4.8423314e-08
-2.4178525e-09
-4.6108674e-08
-2.3146376e-09
-4.3933358e-08
-2.1753156e-09
-4.186787e-08
-2.0654859e-09
-3.9960577e-08
-1.907293e-09
-3.8180275e-08
-1.7803011e-09
-3.6608121e-08
-1.5721542e-09
-3.520322e-08
-1.4048995e-09
-3.4069315e-08
-1.1339041e-09
-3.3135285e-08
-9.340285e-10
-3.2547593e-08
-5.8769074e-10
-3.221271e-08
-3.3488114e-10
-3.2342204e-08
1.2949404e-10
-3.2793248e-08
4.5104514e-10
-3.3807871e-08
1.0146224e-09
-3.515988e-08
1.35201e-09
-3.7313549e-08
2.1536674e-09
-3.8339075e-08
1.0255257e-09
-3.9052611e-08
7.1353552e-10
-3.8896579e-08
-1.5603199e-10
-3.8241411e-08
-6.5516879e-10
-3.6883965e-08
-1.3574457e-09
-3.5040474e-08
-1.8434923e-09
-3.258834e-08
-2.4521335e-09
-2.9665756e-08
-2.9225846e-09
-2.6181297e-08
-3.4844592e-09
-2.2217234e-08
-3.9640627e-09
-1.7684193e-08
-4.5330406e-09
-1.2630982e-08
-5.0532118e-09
-6.9675755e-09
-5.663406e-09
-6.9935705e-10
-6.2682186e-09
6.3743285e-09
-7.0736843e-09
1.4184071e-08
-7.8097432e-09
2.2692403e-08
-8.5083318e-09
3.1841878e-08
-9.1494743e-09
4.1612354e-08
-9.7704758e-09
5.1962217e-08
-1.0349863e-08
6.2856749e-08
-1.0894532e-08
7.4260221e-08
-1.140347e-08
8.6073055e-08
-1.181283e-08
9.8236095e-08
-1.216304e-08
1.1060315e-07
-1.2367055e-08
1.2291921e-07
-1.2316058e-08
1.3457078e-07
-1.1651572e-08
1.4549028e-07
-1.0919501e-08
1.5596403e-07
-1.0473747e-08
1.6618293e-07
-1.0218899e-08
1.7628437e-07
-1.0101427e-08
1.8639913e-07
-1.0114754e-08
1.9665574e-07
-1.0256553e-08
2.0716691e-07
-1.0511216e-08
2.1813479e-07
-1.0967822e-08
2.2970089e-07
-1.1566144e-08
2.4221649e-07
-1.2515467e-08
2.5600475e-07
-1.3788352e-08
2.7215038e-07
-1.6145291e-08
2.9179551e-07
-1.9645428e-08
3.1521804e-07
-2.3422541e-08
3.4264699e-07
-2.7428961e-08
3.7486791e-07
-3.2220947e-08
4.1213557e-07
-3.7267699e-08
4.5611632e-07
-4.3980737e-08
5.0739031e-07
-5.1274154e-08
5.6905063e-07
-6.1660445e-08
6.4244698e-07
-7.3395172e-08
7.3158135e-07
-8.9136448e-08
8.3184619e-07
-1.0027831e-07
9.4317213e-07
-1.1131259e-07
1.045577e-06
-1.0240468e-07
1.1073838e-06
-6.1806496e-08
1.0750999e-06
3.2283977e-08
9.7756767e-07
9.7532414e-08
8.3081349e-07
1.4675424e-07
6.7743868e-07
1.5337484e-07
5.2257675e-07
1.5486195e-07
4.0435638e-07
1.1822038e-07
3.0805538e-07
9.6300987e-08
2.6658965e-07
4.1465748e-08
1.1977882e-08
9.6445999e-07
-1.8113698e-07
1.1160358e-06
-2.0923052e-07
1.1883036e-06
-8.8617213e-08
1.1308169e-06
7.0353518e-08
9.3085361e-07
2.7014644e-07
5.9275708e-07
4.4552986e-07
1.8794023e-07
5.3838129e-07
-1.8184811e-07
4.8606171e-07
-3.5924473e-07
2.3251635e-07
-3.7709006e-07
2.0215928e-08
-3.1497902e-07
-8.2509287e-08
-2.5456388e-07
-8.0807218e-08
-2.0305569e-07
-6.7908405e-08
-1.7358356e-07
-3.9258408e-08
-1.5469301e-07
-2.4777228e-08
-1.4238848e-07
-1.6430388e-08
-1.3293876e-07
-1.2372227e-08
-1.2594636e-07
-9.3361838e-09
-1.1911357e-07
-8.9745027e-09
-1.1307868e-07
-8.0387137e-09
-1.0713387e-07
-7.8348284e-09
-1.0205892e-07
-6.7527663e-09
-9.8001211e-08
-5.3568241e-09
-9.5617148e-08
-3.1800561e-09
-9.4301236e-08
-1.7409456e-09
-9.413655e-08
-2.3791139e-10
-9.5025324e-08
1.1601055e-09
-9.7130086e-08
2.7671444e-09
-1.0043524e-07
4.3510237e-09
-1.0511345e-07
6.1696825e-09
-1.1113906e-07
7.9475563e-09
-1.1862859e-07
9.8849445e-09
-1.2750922e-07
1.1728325e-08
-1.3771403e-07
1.3480003e-08
-1.4892082e-07
1.4815093e-08
-1.6048744e-07
1.5287906e-08
-1.7189554e-07
1.5070145e-08
-1.8329119e-07
1.5057651e-08
-1.9463481e-07
1.4999717e-08
-2.0573898e-07
1.468408e-08
-2.1662687e-07
1.4429618e-08
-2.266854e-07
1.3224865e-08
-2.3624945e-07
1.2663933e-08
-2.4465722e-07
1.1090506e-08
-2.5155118e-07
9.0575997e-09
-2.5713592e-07
7.398268e-09
-2.610479e-07
5.1263021e-09
-2.6423707e-07
4.1896744e-09
-2.6721312e-07
3.8923267e-09
-2.6955489e-07
3.0454024e-09
-2.7058544e-07
1.3139071e-09
-2.7010594e-07
-7.0673396e-10
-2.6761665e-07
-3.3555855e-09
-2.6319803e-07
-5.9378979e-09
-2.5646257e-07
-8.9842189e-09
-2.479309e-07
-1.1415496e-08
-2.373497e-07
-1.4084882e-08
-2.2633831e-07
-1.4751224e-08
-2.1507531e-07
-1.50011e-08
-2.077685e-07
-9.947937e-09
-2.0603416e-07
-2.4335991e-09
-2.2386429e-07
2.309444e-08
-2.8754819e-07
8.4484568e-08
-3.5743989e-07
9.2445037e-08
-4.1533214e-07
7.6680657e-08
-4.6772049e-07
6.928204e-08
-5.1483602e-07
6.2410204e-08
-5.5778859e-07
5.6828591e-08
-5.9681137e-07
5.1690867e-08
-6.32646e-07
4.7425545e-08
-6.6556837e-07
4.3608969e-08
-6.9606433e-07
4.0368611e-08
-7.2436994e-07
3.7492515e-08
-7.5079965e-07
3.4993504e-08
-7.7554676e-07
3.278209e-08
-7.9883698e-07
3.0842252e-08
-8.2078437e-07
2.9075103e-08
-8.4152472e-07
2.7471497e-08
-8.6114044e-07
2.5989232e-08
-8.7972269e-07
2.4618512e-08
-8.9732656e-07
2.3328506e-08
-9.1401015e-07
2.210916e-08
-9.2980734e-07
2.093863e-08
-9.4475516e-07
1.9813982e-08
-9.588699e-07
1.8714122e-08
-9.7217186e-07
1.7638846e-08
-9.8467405e-07
1.6580888e-08
-9.9640257e-07
1.5557308e-08
-1.0073681e-06
1.4550386e-08
-1.0175781e-06
1.3551595e-08
-1.0270391e-06
1.256106e-08
-1.0357576e-06
1.1579124e-08
-1.0437432e-06
1.0610017e-08
-1.0510063e-06
9.6544653e-09
-1.0575601e-06
8.7160677e-09
-1.0634207e-06
7.7983775e-09
-1.068608e-06
6.9074894e-09
-1.0731378e-06
6.0365528e-09
-1.0770407e-06
5.2059283e-09
-1.080332e-06
4.400485e-09
-1.0831378e-06
3.757799e-09
-1.0855309e-06
3.2081561e-09
-1.0874137e-06
2.5305121e-09
-1.088662e-06
1.6851933e-09
-1.0888588e-06
2.9758898e-10
-1.088036e-06
-1.0438471e-09
-1.0865001e-06
-1.9896788e-09
-1.0842926e-06
-2.8783147e-09
-1.0814672e-06
-3.6971421e-09
-1.078044e-06
-4.487559e-09
-1.0740417e-06
-5.2536567e-09
-1.0694723e-06
-6.0044866e-09
-1.0643506e-06
-6.7368685e-09
-1.0586944e-06
-7.4444343e-09
-1.0525218e-06
-8.1270625e-09
-1.0458468e-06
-8.791212e-09
-1.0386785e-06
-9.4452793e-09
-1.031034e-06
-1.0076778e-08
-1.0229262e-06
-1.0692355e-08
-1.0143815e-06
-1.1270129e-08
-1.0054111e-06
-1.1834386e-08
-9.960358e-07
-1.2370486e-08
-9.8626558e-07
-1.2896182e-08
-9.7613037e-07
-1.337877e-08
-9.656434e-07
-1.3844868e-08
-9.548286e-07
-1.4277507e-08
-9.4369204e-07
-1.4705769e-08
-9.3226131e-07
-1.5094302e-08
-9.2054757e-07
-1.546965e-08
-9.0857222e-07
-1.5815436e-08
-8.9634774e-07
-1.6145846e-08
-8.8389157e-07
-1.6452834e-08
-8.7121971e-07
-1.6738697e-08
-8.5834725e-07
-1.70048e-08
-8.4529528e-07
-1.7240713e-08
-8.3206815e-07
-1.7473661e-08
-8.1868244e-07
-1.768387e-08
-8.0514636e-07
-1.7885725e-08
-7.9148723e-07
-1.8048139e-08
-7.7770977e-07
-1.8206792e-08
-7.6383159e-07
-1.8340046e-08
-7.4986446e-07
-1.8458681e-08
-7.3582432e-07
-1.8555912e-08
-7.2172511e-07
-1.8634265e-08
-7.075784e-07
-1.8697537e-08
-6.9339717e-07
-1.8743363e-08
-6.7918802e-07
-1.8782202e-08
-6.6496806e-07
-1.8797107e-08
-6.5074683e-07
-1.8800104e-08
-6.3654887e-07
-1.8766108e-08
-6.2237024e-07
-1.8741747e-08
-6.0822645e-07
-1.8695336e-08
-5.9411997e-07
-1.8648129e-08
-5.800758e-07
-1.8562703e-08
-5.6609613e-07
-1.8476111e-08
-5.5218578e-07
-1.8383889e-08
-5.3834433e-07
-1.8294757e-08
-5.2458244e-07
-1.8190023e-08
-5.1091317e-07
-1.8065786e-08
-4.9733084e-07
-1.7952421e-08
-4.838407e-07
-1.783385e-08
-4.7045107e-07
-1.7705088e-08
-4.5719746e-07
-1.7519729e-08
-4.4409246e-07
-1.731588e-08
-4.3110045e-07
-1.7171067e-08
-4.1822095e-07
-1.7028529e-08
-4.0548372e-07
-1.6839696e-08
-3.9289524e-07
-1.664082e-08
-3.8046398e-07
-1.6430341e-08
-3.6817256e-07
-1.6248251e-08
-3.5602436e-07
-1.6062784e-08
-3.4402884e-07
-1.586171e-08
-3.3218988e-07
-1.5657982e-08
-3.2052545e-07
-1.5426111e-08
-3.0903964e-07
-1.5191589e-08
-2.9776032e-07
-1.4911658e-08
-2.8667151e-07
-1.4660594e-08
-2.7578462e-07
-1.4390111e-08
-2.6506999e-07
-1.4171761e-08
-2.5458239e-07
-1.386289e-08
-2.4429859e-07
-1.359608e-08
-2.3425084e-07
-1.3275022e-08
-2.2438675e-07
-1.3045268e-08
-2.1476931e-07
-1.2709384e-08
-2.0537546e-07
-1.2418703e-08
-1.9623675e-07
-1.2071718e-08
-1.8731407e-07
-1.1799313e-08
-1.7864478e-07
-1.1458937e-08
-1.7023658e-07
-1.1121368e-08
-1.6211397e-07
-1.0735295e-08
-1.542803e-07
-1.0365783e-08
-1.4677026e-07
-9.9278879e-09
-1.3961231e-07
-9.4725882e-09
-1.3283829e-07
-8.9493295e-09
-1.264622e-07
-8.4415738e-09
-1.2052741e-07
-7.8420827e-09
-1.1506685e-07
-7.2408669e-09
-1.101689e-07
-6.4700995e-09
-1.058786e-07
-5.6951956e-09
-1.0231194e-07
-4.7005655e-09
-9.9495719e-08
-3.7502491e-09
-9.7608881e-08
-2.4745271e-09
-9.667681e-08
-1.2669494e-09
-9.6996202e-08
4.4888635e-10
-9.8535532e-08
1.9903762e-09
-1.015895e-07
4.0685925e-09
-1.059926e-07
5.7551061e-09
-1.1252217e-07
8.6832391e-09
-1.1584254e-07
4.3458948e-09
-1.178531e-07
2.7240886e-09
-1.1743456e-07
-5.7456552e-10
-1.1522459e-07
-2.8651404e-09
-1.1104776e-07
-5.5342773e-09
-1.0518273e-07
-7.7085265e-09
-9.7591191e-08
-1.0043668e-08
-8.8406845e-08
-1.2106931e-08
-7.7605712e-08
-1.4285592e-08
-6.5217891e-08
-1.6351884e-08
-5.1166119e-08
-1.8584812e-08
-3.5428232e-08
-2.0791099e-08
-1.7879286e-08
-2.3212351e-08
1.6019473e-09
-2.5749452e-08
2.3500338e-08
-2.8972073e-08
4.7705661e-08
-3.2015067e-08
7.4022338e-08
-3.4825008e-08
1.0232368e-07
-3.7450815e-08
1.325086e-07
-3.9955395e-08
1.6448226e-07
-4.2323524e-08
1.9812788e-07
-4.4540149e-08
2.333253e-07
-4.6600892e-08
2.6980948e-07
-4.8296997e-08
3.073526e-07
-4.9706159e-08
3.4550626e-07
-5.0520718e-08
3.8344743e-07
-5.025723e-08
4.1941246e-07
-4.76166e-08
4.5317182e-07
-4.467886e-08
4.8557705e-07
-4.2878972e-08
5.1719194e-07
-4.1833785e-08
5.4842699e-07
-4.1336466e-08
5.7970316e-07
-4.139092e-08
6.1136932e-07
-4.1922646e-08
6.4384827e-07
-4.2990216e-08
6.7766411e-07
-4.4783604e-08
7.1336784e-07
-4.7269917e-08
7.5188663e-07
-5.1034107e-08
7.9439653e-07
-5.6298349e-08
8.4402055e-07
-6.5768958e-08
9.0415766e-07
-7.9782849e-08
9.7553774e-07
-9.4802625e-08
1.0597496e-06
-1.1164082e-07
1.1580982e-06
-1.3056961e-07
1.2727301e-06
-1.5189966e-07
1.4069675e-06
-1.782181e-07
1.564928e-06
-2.092349e-07
1.7523133e-06
-2.4904585e-07
1.9784076e-06
-2.9948831e-07
2.2490356e-06
-3.5976678e-07
2.5576108e-06
-4.0886765e-07
2.8937163e-06
-4.4740398e-07
3.2103371e-06
-4.1902522e-07
3.3961752e-06
-2.4764429e-07
3.3169053e-06
1.1155407e-07
3.0235437e-06
3.9089422e-07
2.5963989e-06
5.7389909e-07
2.1207925e-06
6.2898129e-07
1.6639504e-06
6.1170407e-07
1.2806316e-06
5.0153922e-07
1.0055097e-06
3.7142286e-07
8.4529407e-07
2.0168141e-07
2.7391008e-08
1.7105505e-06
-4.0234569e-07
1.9500067e-06
-4.4868677e-07
2.0875583e-06
-2.2616883e-07
1.9772048e-06
1.8070712e-07
1.6448933e-06
6.0245791e-07
1.0599014e-06
1.0305217e-06
3.653461e-07
1.2329366e-06
-2.8483428e-07
1.1362421e-06
-6.0454313e-07
5.5222522e-07
-6.483043e-07
6.3977103e-08
-5.4409697e-07
-1.8671661e-07
-4.4213682e-07
-1.8276731e-07
-3.5273777e-07
-1.5730752e-07
-3.0223807e-07
-8.9758082e-08
-2.6902855e-07
-5.7986771e-08
-2.4800898e-07
-3.7450006e-08
-2.3134687e-07
-2.9034295e-08
-2.1940205e-07
-2.1281009e-08
-2.0742564e-07
-2.0950914e-08
-1.9708774e-07
-1.8376613e-08
-1.8673002e-07
-1.8192558e-08
-1.7802586e-07
-1.5456926e-08
-1.7097834e-07
-1.2404351e-08
-1.6690969e-07
-7.2487063e-09
-1.6464461e-07
-4.006024e-09
-1.6442107e-07
-4.6143618e-10
-1.6601948e-07
2.7584969e-09
-1.6973133e-07
6.4789987e-09
-1.7553672e-07
1.0156406e-08
-1.8371896e-07
1.4351922e-08
-1.9424782e-07
1.8476409e-08
-2.0731186e-07
2.2948986e-08
-2.2277866e-07
2.7195125e-08
-2.4053677e-07
3.1238118e-08
-2.6000687e-07
3.4285192e-08
-2.8010776e-07
3.5388787e-08
-2.999559e-07
3.4918291e-08
-3.1976879e-07
3.4870537e-08
-3.3946535e-07
3.4696278e-08
-3.5874788e-07
3.3966603e-08
-3.7758689e-07
3.3268609e-08
-3.9521705e-07
3.085504e-08
-4.1179197e-07
2.9238848e-08
-4.2646097e-07
2.5759506e-08
-4.3858481e-07
2.1181444e-08
-4.4829446e-07
1.7107922e-08
-4.5525124e-07
1.2083082e-08
-4.609215e-07
9.8599322e-09
-4.6625829e-07
9.2291146e-09
-4.7052621e-07
7.3133194e-09
-4.7253504e-07
3.32274e-09
-4.7199583e-07
-1.2459438e-09
-4.6798187e-07
-7.3695491e-09
-4.6070939e-07
-1.3210376e-08
-4.494228e-07
-2.0270801e-08
-4.3517221e-07
-2.566609e-08
-4.1733856e-07
-3.1918537e-08
-3.9899735e-07
-3.3092431e-08
-3.8013132e-07
-3.3867134e-08
-3.6854083e-07
-2.1538426e-08
-3.6649208e-07
-4.4823464e-09
-3.9911605e-07
5.571841e-08
-5.0874037e-07
1.9410889e-07
-6.295461e-07
2.1325076e-07
-7.2951398e-07
1.7664854e-07
-8.2015635e-07
1.5992442e-07
-9.0145642e-07
1.4371027e-07
-9.7569092e-07
1.310631e-07
-1.0430011e-06
1.1900108e-07
-1.104888e-06
1.0931243e-07
-1.1616647e-06
1.0038567e-07
-1.2143045e-06
9.3008386e-08
-1.2631133e-06
8.6301344e-08
-1.3087081e-06
8.0588316e-08
-1.3513611e-06
7.5435032e-08
-1.39152e-06
7.1001159e-08
-1.4293361e-06
6.6891188e-08
-1.4650757e-06
6.3211145e-08
-1.4988567e-06
5.9770262e-08
-1.5308546e-06
5.6616341e-08
-1.5611489e-06
5.36228e-08
-1.5898522e-06
5.081251e-08
-1.6170154e-06
4.810182e-08
-1.6427086e-06
4.550716e-08
-1.6669537e-06
4.2959264e-08
-1.6897906e-06
4.0475767e-08
-1.7112443e-06
3.8034494e-08
-1.731357e-06
3.567001e-08
-1.7501393e-06
3.3332772e-08
-1.7676113e-06
3.1023577e-08
-1.7837853e-06
2.8734996e-08
-1.7986721e-06
2.6465943e-08
-1.8122888e-06
2.4226756e-08
-1.824654e-06
2.2019683e-08
-1.8357917e-06
1.9853733e-08
-1.8457301e-06
1.7736728e-08
-1.8545042e-06
1.5681615e-08
-1.8621429e-06
1.3675273e-08
-1.8687001e-06
1.1763162e-08
-1.874182e-06
9.882371e-09
-1.8788251e-06
8.4008433e-09
-1.8827727e-06
7.1558143e-09
-1.8858523e-06
5.6100495e-09
-1.8878577e-06
3.6906095e-09
-1.8880265e-06
4.6640279e-10
-1.8864008e-06
-2.6695562e-09
-1.8835478e-06
-4.8426403e-09
-1.8795351e-06
-6.8910353e-09
-1.8744574e-06
-8.7747891e-09
-1.8683457e-06
-1.0599315e-08
-1.8612332e-06
-1.2366176e-08
-1.8531424e-06
-1.4095264e-08
-1.8441004e-06
-1.5778856e-08
-1.8341365e-06
-1.7408364e-08
-1.8232791e-06
-1.8984465e-08
-1.8115529e-06
-2.0517373e-08
-1.7989781e-06
-2.2020136e-08
-1.7855838e-06
-2.3471063e-08
-1.7713952e-06
-2.4880892e-08
-1.7564515e-06
-2.6213846e-08
-1.7407756e-06
-2.7510315e-08
-1.7244013e-06
-2.8744741e-08
-1.7073524e-06
-2.9945128e-08
-1.6896728e-06
-3.105839e-08
-1.6713878e-06
-3.2129804e-08
-1.6525349e-06
-3.3130492e-08
-1.6331323e-06
-3.4108275e-08
-1.6132208e-06
-3.5005809e-08
-1.5928233e-06
-3.5867195e-08
-1.5719738e-06
-3.6664951e-08
-1.5506964e-06
-3.7423186e-08
-1.5290206e-06
-3.8128647e-08
-1.506974e-06
-3.8785296e-08
-1.4845833e-06
-3.9395567e-08
-1.4618798e-06
-3.9944205e-08
-1.4388773e-06
-4.0476173e-08
-1.4156023e-06
-4.0958788e-08
-1.3920747e-06
-4.1413361e-08
-1.3683344e-06
-4.1788473e-08
-1.344395e-06
-4.2146174e-08
-1.3202824e-06
-4.2452637e-08
-1.296019e-06
-4.2722073e-08
-1.2716316e-06
-4.2943273e-08
-1.2471435e-06
-4.312238e-08
-1.2225751e-06
-4.3265951e-08
-1.1979482e-06
-4.3370264e-08
-1.1732779e-06
-4.345247e-08
-1.148591e-06
-4.3484049e-08
-1.1239055e-06
-4.3485584e-08
-1.0992542e-06
-4.3417406e-08
-1.0746399e-06
-4.335609e-08
-1.0500857e-06
-4.3249489e-08
-1.0256015e-06
-4.3132309e-08
-1.0012194e-06
-4.2944843e-08
-9.7694709e-07
-4.2748426e-08
-9.5279425e-07
-4.253673e-08
-9.2876561e-07
-4.2323401e-08
-9.0487636e-07
-4.2079268e-08
-8.8114435e-07
-4.1797797e-08
-8.5756706e-07
-4.1529709e-08
-8.3415684e-07
-4.1244073e-08
-8.1093007e-07
-4.0931862e-08
-7.8792791e-07
-4.0521883e-08
-7.6516833e-07
-4.0075463e-08
-7.4261475e-07
-3.9724644e-08
-7.2026967e-07
-3.9373611e-08
-6.9816989e-07
-3.8939473e-08
-6.763239e-07
-3.8486815e-08
-6.5474533e-07
-3.8008912e-08
-6.3341562e-07
-3.7577957e-08
-6.1234268e-07
-3.7135725e-08
-5.9153643e-07
-3.666796e-08
-5.7100899e-07
-3.6185431e-08
-5.50782e-07
-3.5653098e-08
-5.3086882e-07
-3.510478e-08
-5.1129929e-07
-3.4481188e-08
-4.9206256e-07
-3.3897323e-08
-4.7316855e-07
-3.3284116e-08
-4.5459394e-07
-3.2746376e-08
-4.3639463e-07
-3.2062198e-08
-4.1855539e-07
-3.1435323e-08
-4.0110652e-07
-3.0723886e-08
-3.8400489e-07
-3.0146896e-08
-3.6731028e-07
-2.9403985e-08
-3.5101517e-07
-2.8713812e-08
-3.3514226e-07
-2.7944621e-08
-3.1967306e-07
-2.7268513e-08
-3.046323e-07
-2.6499691e-08
-2.9006158e-07
-2.5692079e-08
-2.7596881e-07
-2.4828071e-08
-2.6240479e-07
-2.3929792e-08
-2.4938155e-07
-2.2951133e-08
-2.3699192e-07
-2.1862212e-08
-2.2523578e-07
-2.0705465e-08
-2.1421015e-07
-1.9467208e-08
-2.0391633e-07
-1.8135899e-08
-1.9450131e-07
-1.6655885e-08
-1.8600544e-07
-1.4965976e-08
-1.786261e-07
-1.3074526e-08
-1.7242148e-07
-1.0905189e-08
-1.6760974e-07
-8.5619856e-09
-1.6430947e-07
-5.7747949e-09
-1.6278422e-07
-2.792199e-09
-1.6329695e-07
9.6161285e-10
-1.6608071e-07
4.7741385e-09
-1.7133379e-07
9.3216783e-09
-1.791466e-07
1.3567916e-08
-1.9034351e-07
1.9880149e-08
-1.9617831e-07
1.0180696e-08
-1.9947845e-07
6.0242271e-09
-1.9876233e-07
-1.2906845e-09
-1.947757e-07
-6.8517732e-09
-1.8753436e-07
-1.2775618e-08
-1.77248e-07
-1.7994891e-08
-1.6408698e-07
-2.3204682e-08
-1.4807928e-07
-2.8114638e-08
-1.2935997e-07
-3.30049e-08
-1.0782817e-07
-3.7883686e-08
-8.3485691e-08
-4.292729e-08
-5.6174931e-08
-4.8101858e-08
-2.5785662e-08
-5.360162e-08
7.9902812e-09
-5.9525396e-08
4.5893418e-08
-6.6875209e-08
8.7806737e-08
-7.3928387e-08
1.333366e-07
-8.035487e-08
1.8230435e-07
-8.6418568e-08
2.3450339e-07
-9.2154428e-08
2.8979394e-07
-9.7614082e-08
3.479692e-07
-1.0271541e-07
4.0881028e-07
-1.0744197e-07
4.7189527e-07
-1.1138198e-07
5.367872e-07
-1.1459809e-07
6.0271349e-07
-1.16447e-07
6.682433e-07
-1.1578704e-07
7.3042906e-07
-1.0980237e-07
7.8885851e-07
-1.031083e-07
8.4497233e-07
-9.8992793e-08
8.9973734e-07
-9.6598794e-08
9.5383803e-07
-9.5437139e-08
1.0079911e-06
-9.5543961e-08
1.0627922e-06
-9.6723714e-08
1.1190112e-06
-9.9209236e-08
1.1774926e-06
-1.03265e-07
1.2392614e-06
-1.0903869e-07
1.3058345e-06
-1.1760705e-07
1.3793275e-06
-1.2979144e-07
1.4650132e-06
-1.5145433e-07
1.568463e-06
-1.8323303e-07
1.6910204e-06
-2.1736003e-07
1.8360642e-06
-2.5668465e-07
2.0050796e-06
-2.9958502e-07
2.2025787e-06
-3.4939878e-07
2.4330995e-06
-4.0873889e-07
2.7051345e-06
-4.812701e-07
3.0258758e-06
-5.6978731e-07
3.4147694e-06
-6.8838072e-07
3.8772693e-06
-8.2226888e-07
4.4067236e-06
-9.3833606e-07
4.9784874e-06
-1.0191538e-06
5.5214918e-06
-9.6202935e-07
5.8385561e-06
-5.6470828e-07
5.7224884e-06
2.2762186e-07
5.2328199e-06
8.8056295e-07
4.5238387e-06
1.2828804e-06
3.709894e-06
1.442926e-06
2.9396497e-06
1.3819484e-06
2.2666877e-06
1.1745012e-06
1.8052895e-06
8.3282103e-07
1.5046543e-06
5.0231671e-07
4.2703532e-08
2.5450205e-06
-7.0879605e-07
2.8731328e-06
-7.7679906e-07
3.0759763e-06
-4.2901229e-07
2.9113998e-06
3.4528363e-07
2.4388342e-06
1.0750235e-06
1.5946321e-06
1.8747238e-06
5.881024e-07
2.2394664e-06
-3.689689e-07
2.0933134e-06
-8.5485143e-07
1.0381077e-06
-9.3557187e-07
1.4469752e-07
-7.9042018e-07
-3.3186831e-07
-6.4494498e-07
-3.2824252e-07
-5.1531368e-07
-2.8693875e-07
-4.4208833e-07
-1.6298349e-07
-3.9342913e-07
-1.0664599e-07
-3.6294202e-07
-6.7937067e-08
-3.3849485e-07
-5.3481487e-08
-3.2117278e-07
-3.8603075e-08
-3.0366305e-07
-3.8460636e-08
-2.8868065e-07
-3.3359019e-08
-2.7358934e-07
-3.3283862e-08
-2.6098824e-07
-2.8058028e-08
-2.5074471e-07
-2.2647873e-08
-2.448817e-07
-1.3111713e-08
-2.4163187e-07
-7.2558604e-09
-2.4138859e-07
-7.0471901e-10
-2.4380669e-07
5.1766037e-09
-2.4931199e-07
1.1984298e-08
-2.5788188e-07
1.8726297e-08
-2.6991434e-07
2.6384385e-08
-2.8537697e-07
3.3939037e-08
-3.0452904e-07
4.2101055e-08
-3.2717356e-07
4.9839647e-08
-3.5314404e-07
5.7208598e-08
-3.8158671e-07
6.2727858e-08
-4.1095164e-07
6.4753726e-08
-4.3996177e-07
6.3928418e-08
-4.6891011e-07
6.3818881e-08
-4.9766826e-07
6.3454426e-08
-5.2582507e-07
6.2123405e-08
-5.5329451e-07
6.0738089e-08
-5.7914482e-07
5.6705375e-08
-6.0333749e-07
5.3431513e-08
-6.2482174e-07
4.7243754e-08
-6.4267114e-07
3.9030847e-08
-6.5693615e-07
3.137293e-08
-6.6731708e-07
2.246401e-08
-6.7581699e-07
1.8359847e-08
-6.8386146e-07
1.7273584e-08
-6.9037967e-07
1.3831529e-08
-6.9364923e-07
6.5922964e-09
-6.9327783e-07
-1.6173476e-09
-6.8789336e-07
-1.2754015e-08
-6.7783904e-07
-2.3264701e-08
-6.6200531e-07
-3.6104527e-08
-6.4198252e-07
-4.5688877e-08
-6.1681862e-07
-5.7082437e-08
-5.9109867e-07
-5.8812387e-08
-5.6471359e-07
-6.0252211e-08
-5.4922798e-07
-3.7024035e-08
-5.4790609e-07
-5.8042353e-09
-5.9756401e-07
1.0537632e-07
-7.5652201e-07
3.5306689e-07
-9.3182686e-07
3.8855562e-07
-1.0770644e-06
3.2188607e-07
-1.208767e-06
2.91627e-07
-1.3267654e-06
2.6170868e-07
-1.4345323e-06
2.3882999e-07
-1.5321697e-06
2.1663847e-07
-1.6219597e-06
1.9910243e-07
-1.7042887e-06
1.8271468e-07
-1.7806315e-06
1.6935122e-07
-1.8513899e-06
1.570597e-07
-1.9174834e-06
1.4668179e-07
-1.9792819e-06
1.3723355e-07
-2.0374703e-06
1.2918957e-07
-2.0922419e-06
1.2166283e-07
-2.143997e-06
1.1496624e-07
-2.1928955e-06
1.0866876e-07
-2.2391997e-06
1.0292052e-07
-2.2830182e-06
9.7441289e-08
-2.3245197e-06
9.2314066e-08
-2.3637748e-06
8.7356903e-08
-2.400888e-06
8.2620286e-08
-2.4358889e-06
7.7960166e-08
-2.4688378e-06
7.3424736e-08
-2.4997783e-06
6.8975013e-08
-2.5287638e-06
6.4655457e-08
-2.5557995e-06
6.0368515e-08
-2.5809248e-06
5.6148794e-08
-2.6041591e-06
5.1969326e-08
-2.6255183e-06
4.7825143e-08
-2.6450277e-06
4.37362e-08
-2.662715e-06
3.9706975e-08
-2.6786159e-06
3.5754575e-08
-2.6927722e-06
3.1893043e-08
-2.7052354e-06
2.8144871e-08
-2.7160502e-06
2.4490053e-08
-2.7252935e-06
2.1006484e-08
-2.7329459e-06
1.7534785e-08
-2.7393805e-06
1.4835431e-08
-2.744835e-06
1.2610249e-08
-2.7490512e-06
9.8262582e-09
-2.751741e-06
6.380415e-09
-2.7517331e-06
4.5851777e-10
-2.7490712e-06
-5.3314296e-09
-2.7446316e-06
-9.2822455e-09
-2.7385103e-06
-1.3012401e-08
-2.7308449e-06
-1.6440113e-08
-2.7216781e-06
-1.9766106e-08
-2.7110591e-06
-2.2985165e-08
-2.6990215e-06
-2.6132928e-08
-2.6856056e-06
-2.9194732e-08
-2.6708529e-06
-3.2161052e-08
-2.6548037e-06
-3.5033657e-08
-2.6374942e-06
-3.7826925e-08
-2.618956e-06
-4.0558343e-08
-2.5992315e-06
-4.3195579e-08
-2.5783588e-06
-4.5753507e-08
-2.5563913e-06
-4.8181397e-08
-2.5333643e-06
-5.0537279e-08
-2.509326e-06
-5.2783043e-08
-2.4843143e-06
-5.495686e-08
-2.4583886e-06
-5.698413e-08
-2.4315874e-06
-5.8931003e-08
-2.4039623e-06
-6.0755579e-08
-2.3755449e-06
-6.2525595e-08
-2.3463899e-06
-6.4160858e-08
-2.3165328e-06
-6.5724272e-08
-2.2860213e-06
-6.717645e-08
-2.2548921e-06
-6.8552455e-08
-2.223187e-06
-6.9833655e-08
-2.1909465e-06
-7.1025797e-08
-2.1582095e-06
-7.21326e-08
-2.1250187e-06
-7.3135006e-08
-2.0913977e-06
-7.4097186e-08
-2.0573837e-06
-7.4972783e-08
-2.0230086e-06
-7.5788435e-08
-1.9883261e-06
-7.6471008e-08
-1.9533595e-06
-7.7112748e-08
-1.9181434e-06
-7.7668719e-08
-1.8827117e-06
-7.8153789e-08
-1.8471028e-06
-7.8552233e-08
-1.8113498e-06
-7.8875303e-08
-1.7754828e-06
-7.9132941e-08
-1.7395331e-06
-7.9319991e-08
-1.7035246e-06
-7.9460979e-08
-1.6674943e-06
-7.951432e-08
-1.6314698e-06
-7.9510135e-08
-1.5954927e-06
-7.9394539e-08
-1.5595729e-06
-7.9275884e-08
-1.5237415e-06
-7.908085e-08
-1.4880164e-06
-7.8857429e-08
-1.4524373e-06
-7.8523892e-08
-1.4170184e-06
-7.8167346e-08
-1.381774e-06
-7.7781136e-08
-1.3467141e-06
-7.7383258e-08
-1.3118591e-06
-7.6934279e-08
-1.2772321e-06
-7.6424843e-08
-1.2428338e-06
-7.5927994e-08
-1.2086835e-06
-7.5394376e-08
-1.1748064e-06
-7.480892e-08
-1.1412511e-06
-7.4077265e-08
-1.1080412e-06
-7.3285291e-08
-1.0751381e-06
-7.262776e-08
-1.0425469e-06
-7.1964788e-08
-1.0103127e-06
-7.1173721e-08
-9.7844695e-07
-7.0352559e-08
-9.4696836e-07
-6.9487505e-08
-9.1585695e-07
-6.8689367e-08
-8.8512486e-07
-6.7867815e-08
-8.5478318e-07
-6.7009648e-08
-8.2485259e-07
-6.6116026e-08
-7.953591e-07
-6.5146587e-08
-7.6632612e-07
-6.4137764e-08
-7.3778619e-07
-6.3021119e-08
-7.0973375e-07
-6.1949764e-08
-6.8217672e-07
-6.0841145e-08
-6.5509814e-07
-5.9824963e-08
-6.2855621e-07
-5.8604122e-08
-6.0254447e-07
-5.7447064e-08
-5.7709105e-07
-5.61773e-08
-5.5216167e-07
-5.5076277e-08
-5.2781407e-07
-5.3751575e-08
-5.040572e-07
-5.2470682e-08
-4.8090492e-07
-5.1096893e-08
-4.5835908e-07
-4.9814348e-08
-4.3643252e-07