/*--------------------------------*- C++ -*----------------------------------*\
| =========                 |                                                 |
| \\      /  F ield         | OpenFOAM: The Open Source CFD Toolbox           |
|  \\    /   O peration     | Version:  2.4.0                                 |
|   \\  /    A nd           | Web:      www.OpenFOAM.org                      |
|    \\/     M anipulation  |                                                 |
\*---------------------------------------------------------------------------*/
FoamFile
{
    version     2.0;
    format      ascii;
    class       volScalarField;
    location    "15000";
    object      k;
}
// * * * * * * * * * * * * * * * * * * * * * * * * * * * * * * * * * * * * * //

dimensions      [0 2 -2 0 0 0 0];

internalField   nonuniform List<scalar> 
9842
(
4.7051398e-07
4.7241762e-07
4.7374594e-07
4.7450502e-07
4.7469762e-07
4.7432799e-07
4.7340593e-07
4.719431e-07
4.6995261e-07
4.6744881e-07
4.6444722e-07
4.6096453e-07
4.5701826e-07
4.5262691e-07
4.4780979e-07
4.4258696e-07
4.3697913e-07
4.3100759e-07
4.2469429e-07
4.1806131e-07
4.1113121e-07
4.0392637e-07
3.9646935e-07
3.8878358e-07
3.8089149e-07
3.7281526e-07
3.645768e-07
3.5619743e-07
3.4769803e-07
3.3909905e-07
3.3042021e-07
3.2168069e-07
3.1289919e-07
3.0409284e-07
2.9527916e-07
2.8647381e-07
2.776924e-07
2.6894939e-07
2.602613e-07
2.5164382e-07
2.4310668e-07
2.3465892e-07
2.2631506e-07
2.1808451e-07
2.0997734e-07
2.0200231e-07
1.941675e-07
1.8648015e-07
1.789467e-07
1.7157292e-07
1.643638e-07
1.5732367e-07
1.5045631e-07
1.4376503e-07
1.3725256e-07
1.3092104e-07
1.2477218e-07
1.1880728e-07
1.1302699e-07
1.0743174e-07
1.4363602e-07
1.4533876e-07
1.4692002e-07
1.4837944e-07
1.4971593e-07
1.5092876e-07
1.5201822e-07
1.5298502e-07
1.5383025e-07
1.5455512e-07
1.5516128e-07
1.5565054e-07
1.5602496e-07
1.5628686e-07
1.5643872e-07
1.5648328e-07
1.5642347e-07
1.5626235e-07
1.5600324e-07
1.5564952e-07
1.5520483e-07
1.5467291e-07
1.540576e-07
1.5336291e-07
1.5259275e-07
1.5175106e-07
1.508418e-07
1.4986885e-07
1.4883609e-07
1.4774738e-07
1.4660648e-07
1.4541766e-07
1.4418425e-07
1.4290693e-07
1.415935e-07
1.402451e-07
1.3886349e-07
1.3744982e-07
1.3601031e-07
1.345583e-07
1.3309334e-07
1.3159777e-07
1.3009387e-07
1.2857724e-07
1.270521e-07
1.2552055e-07
1.2398483e-07
1.2244698e-07
1.2090891e-07
1.1937231e-07
1.1783875e-07
1.1630965e-07
1.1478628e-07
1.1326993e-07
1.1176165e-07
1.1026247e-07
1.0877339e-07
1.0729528e-07
1.0582887e-07
1.0437484e-07
5.5372719e-07
5.6449793e-07
5.7498336e-07
5.8517451e-07
5.9506242e-07
6.0463631e-07
6.1388632e-07
6.2280465e-07
6.3138433e-07
6.3961985e-07
6.4750526e-07
6.5503664e-07
6.6220999e-07
6.6902218e-07
6.7547107e-07
6.8155507e-07
6.8727326e-07
6.9262576e-07
6.9761307e-07
7.0223662e-07
7.0649852e-07
7.1040197e-07
7.1395124e-07
7.1715109e-07
7.200067e-07
7.2252346e-07
7.2470739e-07
7.2656466e-07
7.2810177e-07
7.2932545e-07
7.3024278e-07
7.3086102e-07
7.3119146e-07
7.3123925e-07
7.3099156e-07
7.3048743e-07
7.2971903e-07
7.2868303e-07
7.2737305e-07
7.2581733e-07
7.2409731e-07
7.2219976e-07
7.1998606e-07
7.1760412e-07
7.1501214e-07
7.1223059e-07
7.0926572e-07
7.0612561e-07
7.028177e-07
6.9934924e-07
6.9572668e-07
6.9195637e-07
6.880442e-07
6.8399556e-07
6.798164e-07
6.7551165e-07
6.7108668e-07
6.6654694e-07
6.6189754e-07
6.5714299e-07
6.5228799e-07
2.0095584e-06
2.04961e-06
2.0886758e-06
2.1267212e-06
2.1637117e-06
2.1996063e-06
2.2343676e-06
2.2679648e-06
2.3003702e-06
2.3315612e-06
2.3615134e-06
2.3902097e-06
2.4176328e-06
2.4437684e-06
2.4686058e-06
2.4921361e-06
2.514353e-06
2.5352539e-06
2.5548376e-06
2.5731064e-06
2.5900647e-06
2.6057214e-06
2.6200893e-06
2.6331829e-06
2.6450183e-06
2.6556123e-06
2.6649844e-06
2.6731545e-06
2.6801438e-06
2.6859747e-06
2.6906706e-06
2.6942558e-06
2.6967704e-06
2.6982303e-06
2.6985851e-06
2.6979789e-06
2.6963799e-06
2.6937733e-06
2.6901331e-06
2.6855628e-06
2.6803657e-06
2.674491e-06
2.6674169e-06
2.6596963e-06
2.6511712e-06
2.6419167e-06
2.6319551e-06
2.6213157e-06
2.6100249e-06
2.5981094e-06
2.5855924e-06
2.572497e-06
2.5588446e-06
2.5446549e-06
2.5299499e-06
2.5147475e-06
2.4990677e-06
2.4829306e-06
2.4663551e-06
2.4493582e-06
2.4319574e-06
5.240832e-06
5.3502374e-06
5.4571344e-06
5.5614209e-06
5.6630046e-06
5.7617932e-06
5.8576769e-06
5.9505554e-06
6.0403468e-06
6.1269761e-06
6.2103824e-06
6.2905002e-06
6.3672832e-06
6.4406843e-06
6.5106646e-06
6.577195e-06
6.6402509e-06
6.6998146e-06
6.7558785e-06
6.8084384e-06
6.8574993e-06
6.9030727e-06
6.9451809e-06
6.9838576e-06
7.0191401e-06
7.0510709e-06
7.0796939e-06
7.1050602e-06
7.1272219e-06
7.1462352e-06
7.1621586e-06
7.1750541e-06
7.1849858e-06
7.1920591e-06
7.1963184e-06
7.1976255e-06
7.1963649e-06
7.1924526e-06
7.1858473e-06
7.1764796e-06
7.1646244e-06
7.1510914e-06
7.1357458e-06
7.117192e-06
7.0969069e-06
7.0744678e-06
7.0500753e-06
7.0237881e-06
6.9956842e-06
6.9658344e-06
6.9343092e-06
6.9011704e-06
6.8664797e-06
6.8302942e-06
6.792666e-06
6.7536539e-06
6.7133054e-06
6.6716743e-06
6.6288137e-06
6.5847746e-06
6.539602e-06
6.4933427e-06
1.145226e-05
1.1691393e-05
1.1925052e-05
1.2153014e-05
1.2375076e-05
1.2591037e-05
1.2800657e-05
1.3003717e-05
1.3200038e-05
1.3389456e-05
1.3571837e-05
1.3747038e-05
1.3914958e-05
1.4075493e-05
1.4228558e-05
1.437409e-05
1.4512034e-05
1.4642351e-05
1.4765024e-05
1.4880044e-05
1.4987421e-05
1.5087181e-05
1.517937e-05
1.5264063e-05
1.5341341e-05
1.5411297e-05
1.5474025e-05
1.5529637e-05
1.5578246e-05
1.5619975e-05
1.5654952e-05
1.5683311e-05
1.5705192e-05
1.5720823e-05
1.5730309e-05
1.5733339e-05
1.5730752e-05
1.572237e-05
1.5708101e-05
1.568779e-05
1.5662039e-05
1.5632619e-05
1.5599236e-05
1.5558837e-05
1.5514649e-05
1.5465751e-05
1.5412579e-05
1.5355261e-05
1.5293969e-05
1.5228857e-05
1.5160078e-05
1.5087768e-05
1.5012062e-05
1.4933083e-05
1.4850947e-05
1.4765782e-05
1.467769e-05
1.4586791e-05
1.4493199e-05
1.4397027e-05
1.4298372e-05
1.4197338e-05
2.1966168e-05
2.2424758e-05
2.2872855e-05
2.3310033e-05
2.3735904e-05
2.4150082e-05
2.4552107e-05
2.4941561e-05
2.5318098e-05
2.5681406e-05
2.6031228e-05
2.636729e-05
2.6689397e-05
2.6997352e-05
2.7290991e-05
2.7570192e-05
2.7834849e-05
2.808489e-05
2.8320279e-05
2.8541e-05
2.8747072e-05
2.8938542e-05
2.9115503e-05
2.9278092e-05
2.9426468e-05
2.9560807e-05
2.9681289e-05
2.978813e-05
2.9881545e-05
2.9961769e-05
3.0029046e-05
3.0083634e-05
3.01258e-05
3.0155973e-05
3.0174379e-05
3.01804e-05
3.0175636e-05
3.0159765e-05
3.0132602e-05
3.0093852e-05
3.0044662e-05
2.998843e-05
2.9924603e-05
2.9847314e-05
2.9762755e-05
2.9669156e-05
2.9567358e-05
2.9457604e-05
2.9340223e-05
2.9215509e-05
2.9083758e-05
2.894523e-05
2.8800182e-05
2.8648852e-05
2.849146e-05
2.8328252e-05
2.8159426e-05
2.7985208e-05
2.7805821e-05
2.7621478e-05
2.7432368e-05
2.7238687e-05
3.7620993e-05
3.8440623e-05
3.9242801e-05
4.0026634e-05
4.0791378e-05
4.1536357e-05
4.2260894e-05
4.2964188e-05
4.364551e-05
4.4304257e-05
4.4939881e-05
4.5551936e-05
4.6139942e-05
4.670356e-05
4.7242444e-05
4.7756309e-05
4.8244937e-05
4.870815e-05
4.9145814e-05
4.9557872e-05
4.9944291e-05
5.0305105e-05
5.0640396e-05
5.0950323e-05
5.1235129e-05
5.1495087e-05
5.1730504e-05
5.1941696e-05
5.2129036e-05
5.2292902e-05
5.2433702e-05
5.2551861e-05
5.2647829e-05
5.2722072e-05
5.2775321e-05
5.2808027e-05
5.2819063e-05
5.2811197e-05
5.278392e-05
5.2736888e-05
5.266958e-05
5.2583993e-05
5.2486077e-05
5.2374888e-05
5.2240133e-05
5.2092644e-05
5.1929335e-05
5.1751668e-05
5.1560074e-05
5.1355121e-05
5.1137329e-05
5.0907211e-05
5.0665222e-05
5.0411812e-05
5.0147398e-05
4.9872364e-05
4.9587137e-05
4.9292067e-05
4.8987549e-05
4.8673969e-05
4.8351705e-05
4.8021083e-05
4.7682449e-05
6.1514728e-05
6.2853878e-05
6.4164532e-05
6.5445238e-05
6.6694782e-05
6.7912063e-05
6.9095978e-05
7.0245224e-05
7.1358612e-05
7.2435163e-05
7.3473984e-05
7.447435e-05
7.5435477e-05
7.6356812e-05
7.7237792e-05
7.807795e-05
7.8876933e-05
7.9634446e-05
8.0350272e-05
8.1024314e-05
8.165652e-05
8.224694e-05
8.2795708e-05
8.3303079e-05
8.376945e-05
8.419526e-05
8.4581012e-05
8.4927217e-05
8.523448e-05
8.5503414e-05
8.5734683e-05
8.5928978e-05
8.6087028e-05
8.6209593e-05
8.629782e-05
8.6352576e-05
8.6371918e-05
8.6360287e-05
8.631698e-05
8.6241389e-05
8.6132655e-05
8.5994011e-05
8.5835197e-05
8.5654716e-05
8.5435693e-05
8.5195823e-05
8.4930079e-05
8.4640843e-05
8.4328813e-05
8.3994923e-05
8.3640014e-05
8.3264928e-05
8.2870404e-05
8.2457177e-05
8.2025927e-05
8.1577281e-05
8.1111938e-05
8.0630467e-05
8.0133513e-05
7.9621707e-05
7.9095667e-05
7.8555924e-05
7.8003043e-05
9.5446526e-05
9.7521795e-05
9.9552943e-05
0.00010153773
0.00010347429
0.00010536093
0.00010719594
0.00010897731
0.00011070322
0.00011237215
0.00011398274
0.00011553385
0.00011702428
0.00011845319
0.00011981968
0.00012112305
0.00012236275
0.00012353832
0.00012464942
0.0001256959
0.00012667767
0.00012759481
0.00012844752
0.00012923618
0.00012996141
0.00013062388
0.00013122436
0.00013176363
0.00013224263
0.00013266229
0.00013302363
0.00013332772
0.00013357567
0.00013376866
0.00013390836
0.00013399637
0.00013402951
0.00013401445
0.00013395038
0.00013383627
0.00013367076
0.0001334588
0.00013321552
0.00013293869
0.00013260206
0.00013223302
0.00013182382
0.00013137813
0.00013089703
0.00013038197
0.00012983424
0.00012925515
0.00012864583
0.00012800743
0.000127341
0.0001266475
0.00012592801
0.00012518342
0.00012441473
0.00012362291
0.00012280893
0.00012197359
0.00012111779
0.00013887039
0.00014201442
0.00014509635
0.00014811283
0.00015106057
0.00015393683
0.00015673911
0.00015946488
0.00016211119
0.00016467536
0.00016715516
0.00016954856
0.00017185393
0.00017406946
0.0001761939
0.00017822597
0.00018016458
0.00018200894
0.00018375836
0.00018541234
0.00018697063
0.00018843311
0.00018979988
0.00019107122
0.0001922477
0.00019333019
0.00019431971
0.00019521736
0.00019602429
0.00019674187
0.00019737147
0.00019791459
0.00019837278
0.00019874769
0.00019904102
0.00019925512
0.00019939272
0.00019944899
0.0001994332
0.00019934481
0.00019918207
0.00019894291
0.00019863461
0.00019827964
0.0001978749
0.00019738118
0.00019683912
0.0001962373
0.0001955811
0.00019487214
0.00019411254
0.00019330423
0.00019244912
0.00019154892
0.0001906053
0.00018961982
0.00018859392
0.00018752919
0.00018642694
0.00018528865
0.00018411578
0.00018290973
0.00018167174
0.00018040309
0.00019960727
0.00020411316
0.00020853016
0.00021285349
0.00021707853
0.00022120136
0.00022521847
0.00022912626
0.00023292058
0.00023659761
0.00024015422
0.00024358752
0.00024689519
0.00025007469
0.00025312423
0.00025604196
0.00025882639
0.00026147632
0.0002639908
0.00026636909
0.00026861085
0.00027071586
0.00027268426
0.00027451642
0.00027621313
0.00027777563
0.00027920531
0.00028050376
0.00028167256
0.00028271364
0.00028362893
0.00028442053
0.00028509064
0.00028564156
0.0002860757
0.00028639615
0.00028660734
0.0002867025
0.00028669333
0.00028658052
0.00028636109
0.000286032
0.00028560347
0.00028510778
0.00028454086
0.00028384609
0.00028308164
0.00028223127
0.00028130261
0.00028029798
0.00027922039
0.00027807258
0.00027685729
0.00027557694
0.00027423391
0.00027283043
0.00027136854
0.00026985052
0.00026827826
0.00026665385
0.00026497938
0.00026325687
0.00026148807
0.00027220862
0.00027858706
0.00028484916
0.00029098781
0.00029699653
0.00030286898
0.00030859984
0.00031418429
0.00031961746
0.00032489364
0.00033000763
0.00033495517
0.0003397323
0.00034433586
0.00034876234
0.00035300931
0.00035707424
0.00036095502
0.00036465006
0.000368158
0.0003714778
0.00037460897
0.00037755121
0.00038030465
0.00038286978
0.00038524765
0.0003874399
0.00038944845
0.00039127542
0.00039292295
0.00039439365
0.00039569013
0.00039681524
0.00039777195
0.00039856339
0.00039919282
0.00039966418
0.00039998393
0.00040014405
0.00040015699
0.00040002668
0.00039974815
0.000399317
0.00039874707
0.00039808331
0.00039732069
0.00039637986
0.00039534147
0.0003941832
0.00039291548
0.00039154153
0.00039006547
0.00038849109
0.00038682216
0.00038506199
0.00038321389
0.00038128093
0.00037926592
0.00037717201
0.0003750018
0.00037275821
0.0003704441
0.00036806229
0.00036561518
0.00037029381
0.00037891754
0.00038738389
0.00039568345
0.00040380764
0.00041174813
0.00041949792
0.00042705059
0.00043439986
0.00044153804
0.00044845837
0.00045515519
0.00046162328
0.00046785846
0.00047385607
0.00047961291
0.00048512559
0.00049039133
0.00049540795
0.00050017365
0.00050468702
0.00050894736
0.00051295423
0.00051670774
0.00052020852
0.00052345788
0.00052645797
0.00052921127
0.00053172056
0.00053398862
0.00053601886
0.00053781468
0.0005393798
0.00054071811
0.00054183372
0.00054273089
0.00054341459
0.00054389293
0.00054415925
0.00054422273
0.00054409378
0.0005437645
0.00054322858
0.00054250416
0.00054165204
0.0005406665
0.00053943926
0.00053807891
0.00053655569
0.00053488346
0.00053306649
0.0005311103
0.00052901993
0.00052680041
0.00052445617
0.00052199163
0.00051941087
0.00051671769
0.00051391629
0.00051101015
0.00050800319
0.00050489926
0.00050170215
0.00049216676
0.00050353307
0.00051469157
0.00052563024
0.00053633817
0.0005468047
0.00055702091
0.00056697861
0.00057667001
0.00058608505
0.00059521519
0.00060405321
0.00061259243
0.00062082751
0.00062875249
0.00063636324
0.00064365541
0.0006506254
0.0006572704
0.00066358805
0.00066957648
0.00067523475
0.00068056223
0.000685559
0.00069022578
0.00069456417
0.00069857688
0.00070226704
0.00070563816
0.00070869373
0.00071143802
0.00071387535
0.0007160104
0.00071784812
0.0007193937
0.00072065253
0.00072163073
0.00072233756
0.00072277067
0.00072293213
0.00072284073
0.00072248598
0.00072185862
0.00072098156
0.00071993496
0.00071871294
0.0007171714
0.00071545256
0.00071351795
0.00071138534
0.0007090603
0.00070654996
0.00070386083
0.00070099943
0.00069797151
0.0006947828
0.00069143857
0.00068794377
0.00068430385
0.00068052337
0.0006766074
0.00067256098
0.00066838902
0.00064025724
0.00065488032
0.00066923515
0.00068330693
0.00069708217
0.00071054777
0.00072369268
0.00073650687
0.00074898106
0.00076110243
0.00077286055
0.00078424652
0.00079525205
0.00080587059
0.00081609471
0.0008259193
0.00083533895
0.00084434915
0.00085294637
0.00086112763
0.00086889053
0.00087623388
0.00088315676
0.00088965923
0.00089574205
0.00090140713
0.00090665775
0.00091149776
0.00091593146
0.00091996305
0.00092359778
0.0009268409
0.00092969817
0.00093217562
0.00093427963
0.0009360168
0.00093739451
0.00093842263
0.00093910506
0.00093943642
0.00093944062
0.00093910829
0.00093842521
0.00093741937
0.00093619367
0.00093474321
0.00093288072
0.00093078752
0.00092841531
0.00092578623
0.00092290731
0.00091978748
0.00091643493
0.00091285784
0.00090906345
0.00090505896
0.00090085103
0.00089644587
0.00089185037
0.00088707029
0.00088211206
0.00087698205
0.00081618049
0.00083455857
0.00085259781
0.00087028058
0.0008875908
0.00090451281
0.0009210334
0.00093714096
0.00095282459
0.00096806846
0.0009828603
0.00099718946
0.001011046
0.0010244222
0.001037309
0.0010497003
0.0010615897
0.0010729716
0.0010838418
0.0010941966
0.0011040332
0.0011133498
0.0011221455
0.0011304201
0.0011381744
0.0011454107
0.0011521328
0.0011583454
0.0011640534
0.001169262
0.0011739772
0.0011782054
0.0011819533
0.0011852282
0.0011880376
0.0011903895
0.0011922924
0.0011937568
0.0011947909
0.0011953912
0.0011955719
0.001195335
0.001194658
0.0011935737
0.001192211
0.0011905675
0.0011884057
0.0011859506
0.0011831435
0.0011800109
0.0011765616
0.0011728064
0.0011687553
0.0011644183
0.0011598043
0.001154922
0.0011497795
0.0011443846
0.0011387455
0.0011328694
0.0011267643
0.0011204378
0.0010204111
0.0010429889
0.0010651476
0.0010868669
0.0011081282
0.0011289134
0.001149207
0.001168997
0.0011882699
0.0012070071
0.0012251947
0.0012428203
0.0012598723
0.0012763418
0.0012922184
0.0013074949
0.0013221638
0.0013362186
0.0013496544
0.0013624669
0.0013746524
0.0013862093
0.001397136
0.0014074324
0.0014170994
0.0014261393
0.0014345567
0.001442357
0.0014495461
0.0014561296
0.0014621148
0.0014675089
0.0014723198
0.0014765558
0.0014802258
0.0014833387
0.0014859046
0.0014879348
0.0014894393
0.0014904231
0.001490885
0.0014908369
0.0014902515
0.0014891646
0.001487733
0.0014859598
0.0014835505
0.0014807771
0.0014775701
0.0014739608
0.0014699596
0.0014655792
0.0014608316
0.0014557286
0.0014502807
0.0014444984
0.0014383912
0.0014319683
0.0014252396
0.0014182137
0.0014108999
0.0012520786
0.0012792127
0.001305839
0.0013319347
0.0013574791
0.0013824516
0.0014068349
0.0014306175
0.0014537825
0.001476309
0.0014981814
0.0015193858
0.0015399093
0.0015597418
0.0015788715
0.0015972904
0.0016149899
0.0016319628
0.0016482034
0.0016637067
0.0016784687
0.0016924873
0.0017057609
0.0017182892
0.001730073
0.0017411151
0.0017514206
0.0017609958
0.0017698473
0.0017779816
0.0017854068
0.0017921312
0.0017981637
0.0018035137
0.0018081913
0.0018122067
0.0018155712
0.001818297
0.0018203953
0.0018218771
0.0018227403
0.0018229831
0.0018225895
0.0018215924
0.0018201788
0.0018183598
0.0018157791
0.0018127568
0.0018092137
0.0018051851
0.0018006832
0.0017957227
0.0017903175
0.0017844812
0.0017782259
0.0017715638
0.0017645059
0.0017570628
0.001749246
0.0017410654
0.0015089722
0.0015409077
0.00157224
0.0016029442
0.0016329975
0.0016623775
0.0016910655
0.0017190513
0.0017463137
0.00177283
0.0017985832
0.0018235583
0.0018477409
0.00187112
0.0018936827
0.0019154203
0.0019363232
0.0019563835
0.0019755949
0.001993952
0.0020114502
0.0020280874
0.0020438617
0.0020587727
0.0020728216
0.0020860112
0.0020983473
0.0021098371
0.0021204883
0.0021303078
0.0021393048
0.0021474886
0.0021548692
0.0021614571
0.0021672635
0.0021722999
0.0021765788
0.0021801131
0.0021829157
0.0021849994
0.0021863732
0.0021870103
0.0021869054
0.0021860932
0.0021847888
0.0021830148
0.0021803501
0.0021771622
0.0021733632
0.0021689922
0.0021640632
0.0021585928
0.0021525965
0.00214609
0.0021390868
0.0021316006
0.002123644
0.0021152288
0.0021063683
0.0020970734
0.0017877814
0.0018246453
0.0018608057
0.0018962361
0.0019309123
0.0019648098
0.0019979103
0.002030204
0.0020616652
0.0020922699
0.0021220004
0.0021508402
0.002178774
0.0022057902
0.0022318747
0.0022570181
0.0022812106
0.0023044431
0.0023267092
0.0023480031
0.00236832
0.0023876575
0.0024060138
0.0024233885
0.002439783
0.0024552005
0.0024696475
0.0024831323
0.0024956633
0.0025072483
0.0025178976
0.0025276213
0.0025364306
0.0025443372
0.0025513533
0.0025574919
0.0025627664
0.002567191
0.0025707794
0.0025735459
0.0025755075
0.002576633
0.0025768939
0.0025763483
0.0025752329
0.0025735863
0.0025709205
0.0025676482
0.0025636748
0.0025590422
0.0025537665
0.0025478661
0.0025413581
0.0025342597
0.0025265863
0.0025183528
0.0025095733
0.0025002609
0.0024904301
0.0024800932
0.0020845151
0.0021263255
0.0021673294
0.0022074991
0.0022468088
0.0022852326
0.0023227547
0.0023593629
0.0023950281
0.0024297255
0.0024634366
0.0024961442
0.0025278318
0.0025584876
0.0025880965
0.0026166487
0.0026441339
0.0026705428
0.0026958683
0.0027201048
0.0027432472
0.0027652932
0.002786241
0.0028060907
0.0028248438
0.0028425039
0.0028590785
0.0028745768
0.0028890084
0.0029023819
0.0029147086
0.0029259998
0.0029362677
0.0029455251
0.0029537858
0.0029610636
0.0029673734
0.0029727304
0.0029771496
0.0029806461
0.0029832394
0.0029849141
0.0029855969
0.0029853727
0.0029845038
0.002983046
0.0029804448
0.0029771543
0.0029730752
0.002968252
0.0029627025
0.0029564467
0.0029495036
0.0029418918
0.002933628
0.0029247288
0.0029152093
0.0029050838
0.0028943684
0.0028830764
0.0023949781
0.0024416651
0.0024874412
0.0025322781
0.0025761484
0.0026190257
0.0026608974
0.0027017467
0.0027415422
0.0027802591
0.0028178782
0.0028543814
0.0028897517
0.002923977
0.0029570414
0.0029889352
0.0030196476
0.0030491691
0.0030774926
0.0031046124
0.0031305235
0.0031552238
0.003178712
0.0032009883
0.0032220548
0.0032419156
0.0032605791
0.0032780559
0.0032943567
0.0033094908
0.0033234709
0.0033363092
0.0033480193
0.0033586153
0.003368112
0.0033765248
0.0033838696
0.0033901627
0.0033954206
0.0033996594
0.003402898
0.0034051408
0.0034062815
0.0034064021
0.0034058101
0.003404577
0.0034020826
0.0033988183
0.0033946822
0.0033897208
0.0033839535
0.0033774021
0.0033700871
0.0033620285
0.0033532445
0.0033437528
0.00333357
0.0033227113
0.0033111941
0.0032990326
0.0027151847
0.0027666148
0.0028170298
0.0028664003
0.002914698
0.0029618975
0.0030079874
0.0030529464
0.0030967419
0.0031393489
0.0031807479
0.0032209205
0.0032598488
0.0032975209
0.0033339206
0.0033690379
0.0034028622
0.0034353836
0.0034665956
0.0034964924
0.0035250692
0.0035523245
0.0035782573
0.0036028686
0.0036261608
0.0036481389
0.0036688121
0.0036881925
0.0037062922
0.0037231213
0.0037386937
0.0037530229
0.0037661237
0.0037780115
0.0037887024
0.0037982131
0.0038065609
0.0038137633
0.0038198379
0.0038248018
0.0038286743
0.0038314697
0.0038330819
0.0038335463
0.0038332358
0.0038322392
0.0038298708
0.0038266549
0.0038224893
0.0038174217
0.0038114734
0.0038046676
0.0037970262
0.0037885709
0.003779321
0.0037692955
0.003758512
0.0037469869
0.0037347387
0.0037217826
0.0030416357
0.0030976355
0.0031525165
0.0032062486
0.0032588025
0.003310156
0.0033602955
0.0034091966
0.0034568262
0.0035031592
0.0035481761
0.003591858
0.0036341871
0.0036751513
0.0037147343
0.0037529264
0.0037897169
0.0038250963
0.0038590582
0.0038915973
0.0039227092
0.0039523931
0.0039806484
0.0040074768
0.0040328816
0.0040568685
0.0040794478
0.0041006331
0.0041204377
0.0041388728
0.0041559537
0.004171695
0.0041861129
0.004199224
0.0042110459
0.0042215966
0.0042308947
0.0042389588
0.0042458079
0.0042514602
0.0042559351
0.0042592515
0.0042613207
0.0042621171
0.0042620717
0.0042613048
0.0042590632
0.0042559
0.0042517144
0.004246555
0.004240445
0.0042334088
0.0042254699
0.0042166512
0.0042069732
0.0041964562
0.0041851189
0.0041729787
0.0041600551
0.0041463645
0.0033714499
0.0034318253
0.0034909792
0.0035488811
0.0036055017
0.0036608218
0.0037148239
0.0037674819
0.0038187623
0.0038686407
0.0039170972
0.0039641133
0.0040096707
0.0040537578
0.0040963583
0.0041374628
0.0041770608
0.0042151434
0.0042517045
0.0042867393
0.004320244
0.0043522185
0.004382663
0.00441158
0.0044389735
0.0044648502
0.0044892215
0.0045121025
0.0045335079
0.00455345
0.0045719453
0.0045890098
0.004604661
0.0046189169
0.0046317962
0.0046433185
0.0046535035
0.0046623713
0.0046699419
0.0046762347
0.0046812695
0.0046850663
0.0046875598
0.004688671
0.0046888604
0.0046883044
0.004686178
0.0046830593
0.0046788505
0.0046736008
0.0046673351
0.0046600792
0.0046518578
0.0046426953
0.0046326133
0.0046216331
0.0046097746
0.004597056
0.004583498
0.003702381
0.0037669316
0.0038301598
0.0038920346
0.0039525284
0.0040116224
0.0040692961
0.0041255221
0.0041802674
0.0042335078
0.0042852239
0.0043353969
0.0043840088
0.0044310486
0.0044764999
0.0045203538
0.0045626006
0.0046032314
0.0046422408
0.0046796249
0.0047153804
0.0047495078
0.0047820085
0.0048128857
0.0048421444
0.004869792
0.0048958411
0.0049203084
0.0049432101
0.0049645595
0.0049843744
0.0050026722
0.0050194715
0.0050347917
0.0050486529
0.005061076
0.005072082
0.0050816922
0.0050899278
0.0050968094
0.0051023572
0.005106591
0.0051094686
0.0051108693
0.0051112614
0.0051108898
0.0051088599
0.0051057701
0.005101527
0.0050961801
0.0050897561
0.0050822819
0.0050737837
0.0050642868
0.0050538142
0.0050423883
0.0050300297
0.0050167579
0.0050025944
0.0040327636
0.0041012937
0.0041684022
0.0042340582
0.0042982368
0.0043609175
0.0044220776
0.0044816893
0.0045397201
0.0045961464
0.004650949
0.0047041095
0.0047556099
0.0048054398
0.0048535833
0.0049000318
0.0049447763
0.0049878086
0.0050291237
0.0050687186
0.0051065906
0.0051427412
0.0051771726
0.005209889
0.0052408961
0.0052702026
0.0052978219
0.0053237723
0.0053480716
0.005370734
0.0053917787
0.0054112243
0.0054290907
0.0054453986
0.0054601695
0.0054734253
0.0054851887
0.0054954818
0.0055043274
0.0055117467
0.0055177609
0.0055223896
0.0055256089
0.0055272694
0.0055278342
0.0055276171
0.0055256618
0.0055225819
0.0055182894
0.005512834
0.0055062438
0.0054985473
0.0054897715
0.0054799431
0.0054690862
0.0054572242
0.0054443787
0.00543057
0.0054158208
0.004361427
0.0044337514
0.0045045575
0.0045738151
0.0046415012
0.0047075932
0.0047720669
0.0048348945
0.0048960443
0.0049554931
0.0050132221
0.0050692135
0.0051234494
0.00517592
0.00522661
0.0052755112
0.0053226154
0.0053679149
0.0054114054
0.0054530848
0.0054929511
0.0055310066
0.0055672546
0.0056017
0.0056343498
0.0056652132
0.0056943049
0.0057216447
0.0057472519
0.0057711416
0.0057933344
0.0058138499
0.0058327095
0.0058499351
0.0058655495
0.0058795758
0.0058920378
0.005902959
0.0059123633
0.0059202729
0.0059267098
0.0059316937
0.0059352145
0.0059371042
0.0059378147
0.0059377218
0.0059358189
0.0059327289
0.0059283703
0.005922793
0.0059160265
0.0059081002
0.0058990427
0.0058888817
0.0058776422
0.0058653487
0.0058520238
0.0058376886
0.0046875992
0.0047635478
0.0048378838
0.0049105788
0.00498161
0.0050509532
0.0051185832
0.0051844725
0.0052485904
0.005310914
0.0053714251
0.0054301063
0.00548694
0.0055419173
0.0055950231
0.0056462501
0.0056955905
0.0057430374
0.0057885873
0.0058322386
0.0058739904
0.0059138458
0.0059518089
0.0059878858
0.0060220842
0.0060544142
0.0060848916
0.0061135377
0.0061403731
0.0061654142
0.0061886824
0.0062101988
0.006229986
0.006248067
0.0062644658
0.0062792068
0.0062923151
0.0063038152
0.0063137321
0.0063220893
0.0063289091
0.0063342122
0.0063379985
0.0063400875
0.00634092
0.0063409225
0.0063390506
0.0063359314
0.0063314903
0.0063257772
0.0063188232
0.0063106587
0.0063013135
0.0062908162
0.0062791932
0.0062664696
0.0062526692
0.0062378136
0.0050108188
0.0050902379
0.005167953
0.0052439373
0.0053181677
0.0053906186
0.0054612643
0.0055300779
0.0055970294
0.0056620966
0.0057252616
0.0057865078
0.0058458177
0.0059031832
0.0059585897
0.0060120305
0.0060634986
0.0061129876
0.0061604948
0.0062060196
0.0062495615
0.0062911248
0.0063307143
0.0063683372
0.006404002
0.0064377197
0.006469507
0.0064993867
0.006527381
0.0065535068
0.0065777871
0.0066002441
0.0066209013
0.0066397831
0.0066569147
0.0066723216
0.0066860301
0.0066980658
0.0067084549
0.0067172216
0.0067243894
0.0067299794
0.0067339996
0.0067362597
0.0067371942
0.0067372654
0.006735405
0.0067322387
0.0067276995
0.0067218375
0.0067146848
0.0067062733
0.0066966336
0.0066857956
0.0066737864
0.0066606324
0.0066463579
0.0053308577
0.0054136103
0.0054945704
0.0055737125
0.0056510125
0.0057264443
0.0057999815
0.0058715982
0.0059412652
0.0060089606
0.0060746673
0.006138369
0.0062000486
0.0062596987
0.0063173055
0.0063728625
0.0064263636
0.0064778032
0.0065271791
0.0065744916
0.0066197409
0.0066629322
0.0067040712
0.006743166
0.006780226
0.0068152631
0.0068482947
0.0068793451
0.0069084379
0.006935591
0.0069608285
0.0069841735
0.007005651
0.0070252863
0.0070431058
0.0070591362
0.0070734048
0.0070859385
0.0070967642
0.0071059075
0.0071133925
0.0071192411
0.0071234676
0.0071258741
0.0071268915
0.0071270091
0.0071251422
0.0071219126
0.0071172612
0.0071112379
0.0071038762
0.0070952091
0.0070852682
0.0070740844
0.0070616859
0.0070480998
0.0070333514
0.0056476584
0.0057336236
0.0058177108
0.0058998946
0.0059801504
0.0060584516
0.0061347718
0.0062090856
0.0062813648
0.0063515879
0.0064197383
0.0064858003
0.0065497572
0.006611602
0.0066713218
0.0067289104
0.0067843627
0.0068376736
0.0068888415
0.0069378676
0.0069847528
0.0070295032
0.0070721253
0.0071126281
0.0071510219
0.0071873194
0.0072215387
0.0072537056
0.007283845
0.0073119758
0.007338123
0.007362311
0.0073845657
0.0074049137
0.0074233824
0.0074399996
0.0074547936
0.0074677925
0.0074790243
0.0074885155
0.0074962908
0.0075023734
0.0075067824
0.0075093134
0.0075103965
0.0075105414
0.0075086518
0.0075053447
0.0075005682
0.0074943725
0.0074867923
0.0074778616
0.007467613
0.0074560784
0.007443287
0.0074292667
0.0074140438
0.0058702795
0.0059612848
0.0060503568
0.0061374674
0.0062225912
0.0063057034
0.006386777
0.0064657854
0.0065427043
0.0066175059
0.0066901695
0.0067606786
0.0068290184
0.0068951723
0.0069591342
0.0070208915
0.0070804388
0.0071377716
0.0071928853
0.0072457791
0.0072964549
0.0073449145
0.0073911644
0.0074352125
0.0074770683
0.0075167431
0.0075542501
0.0075896086
0.0076228453
0.0076539866
0.0076830524
0.0077100686
0.0077350607
0.0077580556
0.007779081
0.0077981654
0.0078153377
0.0078306272
0.0078440632
0.0078556745
0.0078654886
0.0078735313
0.0078798263
0.0078843972
0.0078870335
0.0078881671
0.0078883229
0.0078863962
0.0078829988
0.007878086
0.007871708
0.0078639006
0.0078546988
0.0078441365
0.0078322463
0.0078190583
0.0078046015
0.007788903
0.006177783
0.0062718844
0.0063639708
0.0064540143
0.0065419897
0.0066278716
0.0067116331
0.0067932476
0.0068726915
0.0069499378
0.0070249662
0.0070977607
0.0071683069
0.0072365887
0.0073026004
0.0073663303
0.0074277732
0.0074869253
0.007543783
0.0075983457
0.0076506162
0.0077005971
0.0077482956
0.0077937203
0.0078368818
0.0078777921
0.0079164652
0.0079529209
0.0079871872
0.0080192921
0.008049256
0.0080771061
0.0081028688
0.008126572
0.0081482446
0.0081679159
0.0081856159
0.0082013751
0.0082152237
0.0082271915
0.0082373071
0.008245597
0.0082520858
0.0082568007
0.0082595257
0.0082606965
0.0082608487
0.0082588723
0.0082553734
0.0082503142
0.008243745
0.0082357026
0.0082262232
0.0082153415
0.0082030911
0.0081895032
0.0081746075
0.0081584318
0.0064825452
0.0065796604
0.0066746806
0.0067675783
0.0068583281
0.0069469046
0.0070332807
0.0071174302
0.0071993298
0.0072789537
0.0073562815
0.0074312978
0.0075039888
0.0075743388
0.0076423424
0.0077079887
0.0077712729
0.0078321919
0.0078907426
0.0079469253
0.0080007432
0.0080521997
0.0081013027
0.0081480618
0.0081924882
0.0082345949
0.0082743965
0.0083119133
0.0083471748
0.00838021
0.0084110406
0.0084396943
0.0084661987
0.0084905827
0.0085128762
0.0085331095
0.0085513137
0.0085675203
0.0085817604
0.0085940649
0.0086044632
0.0086129829
0.0086196493
0.0086244926
0.0086272916
0.0086284882
0.008628624
0.0086265869
0.0086229766
0.0086177622
0.0086109937
0.0086027094
0.0085929463
0.0085817401
0.0085691254
0.0085551341
0.0085397969
0.0085231425
0.0066825875
0.0067847932
0.0068848505
0.0069827346
0.0070784181