/*--------------------------------*- C++ -*----------------------------------*\
| =========                 |                                                 |
| \\      /  F ield         | OpenFOAM: The Open Source CFD Toolbox           |
|  \\    /   O peration     | Version:  2.4.0                                 |
|   \\  /    A nd           | Web:      www.OpenFOAM.org                      |
|    \\/     M anipulation  |                                                 |
\*---------------------------------------------------------------------------*/
FoamFile
{
    version     2.0;
    format      ascii;
    class       volScalarField;
    location    "15000";
    object      nut;
}
// * * * * * * * * * * * * * * * * * * * * * * * * * * * * * * * * * * * * * //

dimensions      [0 2 -1 0 0 0 0];

internalField   nonuniform List<scalar> 
9842
(
3.6253663e-12
3.640034e-12
3.6502689e-12
3.6561177e-12
3.6576017e-12
3.6547536e-12
3.647649e-12
3.6363778e-12
3.6210408e-12
3.6017488e-12
3.5786211e-12
3.5517866e-12
3.5213801e-12
3.4875443e-12
3.4504277e-12
3.4101853e-12
3.3669762e-12
3.3209647e-12
3.2723202e-12
3.2212121e-12
3.167815e-12
3.1123008e-12
3.0548436e-12
2.9956237e-12
2.9348144e-12
2.8725859e-12
2.8091077e-12
2.7445437e-12
2.6790547e-12
2.6127986e-12
2.545927e-12
2.478588e-12
2.4109256e-12
2.3430715e-12
2.2751611e-12
2.2073147e-12
2.139653e-12
2.0722871e-12
2.0053442e-12
1.9389456e-12
1.8731659e-12
1.8080749e-12
1.7437845e-12
1.6803671e-12
1.6179003e-12
1.5564519e-12
1.4960837e-12
1.4368517e-12
1.3788057e-12
1.3219898e-12
1.2664426e-12
1.2121977e-12
1.1592838e-12
1.1077266e-12
1.0575474e-12
1.0087622e-12
9.6138454e-13
9.154242e-13
8.7088647e-13
8.2777433e-13
6.5403174e-12
6.6178507e-12
6.6898525e-12
6.7563062e-12
6.8171628e-12
6.872388e-12
6.9219961e-12
6.9660188e-12
7.0045056e-12
7.0375124e-12
7.0651136e-12
7.0873924e-12
7.1044416e-12
7.1163675e-12
7.1232828e-12
7.1253123e-12
7.1225893e-12
7.1152533e-12
7.1034556e-12
7.0873497e-12
7.0671019e-12
7.042882e-12
7.0148647e-12
6.983233e-12
6.9481649e-12
6.90984e-12
6.8684381e-12
6.8241366e-12
6.777111e-12
6.727538e-12
6.6755889e-12
6.6214573e-12
6.5652958e-12
6.5071342e-12
6.4473288e-12
6.3859311e-12
6.323021e-12
6.2586516e-12
6.1931049e-12
6.1269891e-12
6.0602841e-12
5.992185e-12
5.9237064e-12
5.8546482e-12
5.7852026e-12
5.7154651e-12
5.6455378e-12
5.5755135e-12
5.5054791e-12
5.4355114e-12
5.3656823e-12
5.2960565e-12
5.2266912e-12
5.1576456e-12
5.0889676e-12
5.0207037e-12
4.9529001e-12
4.8855958e-12
4.8188242e-12
4.7526162e-12
7.6249126e-11
7.7732302e-11
7.9176194e-11
8.0579565e-11
8.1941182e-11
8.3259558e-11
8.4533332e-11
8.5761436e-11
8.6942911e-11
8.8076995e-11
8.9162871e-11
9.0199999e-11
9.1187827e-11
9.2125925e-11
9.3013997e-11
9.3851825e-11
9.4639283e-11
9.5376384e-11
9.6063199e-11
9.6699925e-11
9.7286852e-11
9.7824421e-11
9.831322e-11
9.8753903e-11
9.914718e-11
9.9493801e-11
9.9794588e-11
1.0005039e-10
1.0026211e-10
1.0043067e-10
1.0055704e-10
1.0064223e-10
1.0068778e-10
1.0069442e-10
1.0066036e-10
1.0059099e-10
1.0048522e-10
1.0034261e-10
1.0016227e-10
9.9948081e-11
9.9711272e-11
9.9450014e-11
9.9145219e-11
9.8817256e-11
9.8460368e-11
9.8077373e-11
9.7669134e-11
9.723676e-11
9.678128e-11
9.6303689e-11
9.5804876e-11
9.5285715e-11
9.4747019e-11
9.4189528e-11
9.3614062e-11
9.3021303e-11
9.2411982e-11
9.1786859e-11
9.1146633e-11
9.0491928e-11
8.9823385e-11
6.0026576e-10
6.1222998e-10
6.2389982e-10
6.3526494e-10
6.4631507e-10
6.5703789e-10
6.6742219e-10
6.7745889e-10
6.8713968e-10
6.9645778e-10
7.0540593e-10
7.1397902e-10
7.2217187e-10
7.2998019e-10
7.3740079e-10
7.4443102e-10
7.5106901e-10
7.5731392e-10
7.6316543e-10
7.6862421e-10
7.7369159e-10
7.7837019e-10
7.8266384e-10
7.8657687e-10
7.9011407e-10
7.9328046e-10
7.9608186e-10
7.9852421e-10
8.0061386e-10
8.0235744e-10
8.0376197e-10
8.0483473e-10
8.0558764e-10
8.0602548e-10
8.0613319e-10
8.0595378e-10
8.0547779e-10
8.0470076e-10
8.0361496e-10
8.0225125e-10
8.0070026e-10
7.9894682e-10
7.9683503e-10
7.9453008e-10
7.9198475e-10
7.8922149e-10
7.8624695e-10
7.8306985e-10
7.7969814e-10
7.7613974e-10
7.7240161e-10
7.6849064e-10
7.6441326e-10
7.6017527e-10
7.5578331e-10
7.5124272e-10
7.4655944e-10
7.417395e-10
7.3678856e-10
7.3171169e-10
7.2651409e-10
2.8213052e-09
2.8802072e-09
2.93776e-09
2.9939087e-09
3.0486035e-09
3.1017949e-09
3.1534236e-09
3.2034356e-09
3.2517868e-09
3.298437e-09
3.3433534e-09
3.3865006e-09
3.4278537e-09
3.4673872e-09
3.5050803e-09
3.5409172e-09
3.5748844e-09
3.6069726e-09
3.6371775e-09
3.6654967e-09
3.691933e-09
3.7164923e-09
3.7391867e-09
3.760034e-09
3.7790545e-09
3.7962709e-09
3.8117067e-09
3.8253893e-09
3.8373467e-09
3.8476092e-09
3.856208e-09
3.8631765e-09
3.8685493e-09
3.8723829e-09
3.8747011e-09
3.8754295e-09
3.8747751e-09
3.8726926e-09
3.8691597e-09
3.8641389e-09
3.8577782e-09
3.8505136e-09
3.8422725e-09
3.8323033e-09
3.8214013e-09
3.8093387e-09
3.7962237e-09
3.7820877e-09
3.7669728e-09
3.7509171e-09
3.7339585e-09
3.7161304e-09
3.6974658e-09
3.6779956e-09
3.6577478e-09
3.6367541e-09
3.6150401e-09
3.5926346e-09
3.5695664e-09
3.5458628e-09
3.5215483e-09
3.4966478e-09
9.9063695e-09
1.0113264e-08
1.0315433e-08
1.0512684e-08
1.0704841e-08
1.0891731e-08
1.1073147e-08
1.1248899e-08
1.1418831e-08
1.1582802e-08
1.1740697e-08
1.189239e-08
1.2037794e-08
1.217682e-08
1.2309393e-08
1.2435457e-08
1.2554966e-08
1.2667884e-08
1.2774197e-08
1.2873896e-08
1.2966988e-08
1.3053496e-08
1.313346e-08
1.3206942e-08
1.3274013e-08
1.3334751e-08
1.3389238e-08
1.343757e-08
1.3479845e-08
1.3516168e-08
1.3546648e-08
1.3571401e-08
1.3590549e-08
1.3604287e-08
1.3612705e-08
1.3615535e-08
1.3613501e-08
1.360645e-08
1.35943e-08
1.3576918e-08
1.3554823e-08
1.3529549e-08
1.3500841e-08
1.3466055e-08
1.3427985e-08
1.3385832e-08
1.3339976e-08
1.3290526e-08
1.3237629e-08
1.318142e-08
1.3122032e-08
1.3059581e-08
1.2994184e-08
1.2925949e-08
1.2854975e-08
1.2781372e-08
1.2705231e-08
1.2626653e-08
1.2545739e-08
1.2462585e-08
1.2377277e-08
1.2289903e-08
2.8268482e-08
2.8858879e-08
2.9435831e-08
2.9998789e-08
3.0547256e-08
3.1080737e-08
3.1598641e-08
3.2100429e-08
3.2585656e-08
3.3053918e-08
3.3504884e-08
3.3938199e-08
3.4353613e-08
3.4750867e-08
3.5129748e-08
3.5490096e-08
3.5831774e-08
3.6154683e-08
3.6458776e-08
3.6744026e-08
3.7010455e-08
3.725812e-08
3.7487134e-08
3.7697674e-08
3.7889936e-08
3.8064144e-08
3.8220526e-08
3.8359356e-08
3.8480906e-08
3.8585477e-08
3.8673376e-08
3.8744933e-08
3.8800489e-08
3.8840594e-08
3.8865532e-08
3.8874507e-08
3.8869575e-08
3.8850321e-08
3.8816501e-08
3.8767732e-08
3.8705489e-08
3.8634149e-08
3.8553e-08
3.8454478e-08
3.8346559e-08
3.8226962e-08
3.8096767e-08
3.7956289e-08
3.7805949e-08
3.7646126e-08
3.7477201e-08
3.7299507e-08
3.7113376e-08
3.6919115e-08
3.6717006e-08
3.6507366e-08
3.6290452e-08
3.6066554e-08
3.5835958e-08
3.5598942e-08
3.5355748e-08
3.5106631e-08
6.8174013e-08
6.9660164e-08
7.1114946e-08
7.2536752e-08
7.3924235e-08
7.5276173e-08
7.6591353e-08
7.7868328e-08
7.9105767e-08
8.0302576e-08
8.1457757e-08
8.2570496e-08
8.3639913e-08
8.466539e-08
8.5646283e-08
8.6582069e-08
8.7472339e-08
8.8316753e-08
8.9115058e-08
8.986713e-08
9.0572896e-08
9.1232396e-08
9.1845764e-08
9.2413268e-08
9.2935332e-08
9.341243e-08
9.38451e-08
9.4233897e-08
9.457948e-08
9.4882516e-08
9.5143725e-08
9.5363865e-08
9.5543732e-08
9.5684157e-08
9.5786452e-08
9.585142e-08
9.5876995e-08
9.5868198e-08
9.5824082e-08
9.5744017e-08
9.5627039e-08
9.5476757e-08
9.5303976e-08
9.510698e-08
9.4867056e-08
9.4603867e-08
9.4311807e-08
9.3993522e-08
9.3649789e-08
9.3281639e-08
9.289001e-08
9.2475833e-08
9.2039932e-08
9.1583121e-08
9.1106157e-08
9.0609738e-08
9.0094638e-08
8.9561496e-08
8.9011024e-08
8.8443933e-08
8.7860904e-08
8.7262536e-08
8.6649459e-08
1.5063568e-07
1.5391868e-07
1.5713288e-07
1.6027475e-07
1.6334133e-07
1.6632994e-07
1.6923792e-07
1.7206209e-07
1.7479951e-07
1.7744776e-07
1.8000464e-07
1.8246835e-07
1.8483693e-07
1.8710899e-07
1.8928313e-07
1.9135814e-07
1.9333312e-07
1.9520728e-07
1.9698005e-07
1.9865111e-07
2.0022028e-07
2.0168761e-07
2.0305336e-07
2.043181e-07
2.0548272e-07
2.0654823e-07
2.0751579e-07
2.0838658e-07
2.0916203e-07
2.0984356e-07
2.1043274e-07
2.109312e-07
2.1134067e-07
2.1166294e-07
2.119008e-07
2.1205629e-07
2.1212459e-07
2.1211657e-07
2.1203045e-07
2.1186468e-07
2.116171e-07
2.112956e-07
2.109241e-07
2.1049893e-07
2.0997852e-07
2.0940635e-07
2.0877005e-07
2.0807544e-07
2.0732422e-07
2.0651868e-07
2.0566086e-07
2.0475284e-07
2.0379641e-07
2.0279337e-07
2.0174541e-07
2.0065405e-07
1.9952101e-07
1.983477e-07
1.971357e-07
1.9588658e-07
1.9460184e-07
1.9328283e-07
1.9193092e-07
3.0588891e-07
3.1255374e-07
3.190804e-07
3.2546175e-07
3.3169186e-07
3.3776533e-07
3.4367683e-07
3.4941994e-07
3.5498867e-07
3.6037813e-07
3.6558384e-07
3.7060213e-07
3.7542901e-07
3.8006163e-07
3.8449705e-07
3.8873282e-07
3.92767e-07
3.9659796e-07
4.0022442e-07
4.0364568e-07
4.0686128e-07
4.0987122e-07
4.1267594e-07
4.1527646e-07
4.1767451e-07
4.1987203e-07
4.2187124e-07
4.2367447e-07
4.2528447e-07
4.2670406e-07
4.279363e-07
4.2898439e-07
4.2985174e-07
4.3054191e-07
4.3106015e-07
4.3141138e-07
4.3158521e-07
4.3160293e-07
4.3146182e-07
4.3115838e-07
4.3068805e-07
4.3006664e-07
4.2934287e-07
4.2850955e-07
4.2748175e-07
4.2634778e-07
4.2508256e-07
4.2369785e-07
4.221971e-07
4.2058489e-07
4.1886539e-07
4.1704275e-07
4.1512064e-07
4.131027e-07
4.1099233e-07
4.0879263e-07
4.0650709e-07
4.0413858e-07
4.016903e-07
3.9916545e-07
3.9656712e-07
3.9389802e-07
3.9116096e-07
5.6767695e-07
5.8056778e-07
5.9321377e-07
6.0560149e-07
6.1771766e-07
6.2955111e-07
6.4109176e-07
6.5232967e-07
6.6325265e-07
6.7384939e-07
6.8411062e-07
6.9402779e-07
7.035939e-07
7.1280131e-07
7.2164453e-07
7.3011785e-07
7.3821646e-07
7.4593655e-07
7.532748e-07
7.6022861e-07
7.6679643e-07
7.7297711e-07
7.7877046e-07
7.84177e-07
7.8919843e-07
7.9383773e-07
7.980983e-07
8.0198412e-07
8.0549926e-07
8.086487e-07
8.1143748e-07
8.1387115e-07
8.1595552e-07
8.1769679e-07
8.1910142e-07
8.2017858e-07
8.2093898e-07
8.2136223e-07
8.2148605e-07
8.2130784e-07
8.2081992e-07
8.2001328e-07
8.1891742e-07
8.1762504e-07
8.1612329e-07
8.1424955e-07
8.121715e-07
8.0984174e-07
8.0728232e-07
8.0449976e-07
8.0150268e-07
7.9829893e-07
7.9489637e-07
7.913019e-07
7.8752242e-07
7.8356432e-07
7.7943352e-07
7.7513663e-07
7.7067909e-07
7.66067e-07
7.6130643e-07
7.5640333e-07
7.5136284e-07
7.461902e-07
1.0191458e-06
1.0422719e-06
1.0649678e-06
1.0872097e-06
1.1089742e-06
1.1302415e-06
1.1509939e-06
1.1712141e-06
1.1908799e-06
1.2099712e-06
1.2284714e-06
1.246365e-06
1.2636395e-06
1.2802809e-06
1.2962791e-06
1.3116236e-06
1.3263053e-06
1.3403172e-06
1.3536528e-06
1.3663069e-06
1.3782762e-06
1.3895582e-06
1.4001518e-06
1.4100575e-06
1.4192776e-06
1.4278167e-06
1.4356805e-06
1.4428753e-06
1.4494078e-06
1.4552862e-06
1.4605191e-06
1.4651155e-06
1.4690854e-06
1.4724393e-06
1.4751881e-06
1.4773465e-06
1.478936e-06
1.4799205e-06
1.4803592e-06
1.4802547e-06
1.4795904e-06
1.4783494e-06
1.4765833e-06
1.4744592e-06
1.4719557e-06
1.4687778e-06
1.4652264e-06
1.4612171e-06
1.4567887e-06
1.4519528e-06
1.4467249e-06
1.4411187e-06
1.4351483e-06
1.4288261e-06
1.4221642e-06
1.4151742e-06
1.4078667e-06
1.4002534e-06
1.3923441e-06
1.3841498e-06
1.3756816e-06
1.36695e-06
1.3579646e-06
1.7054703e-06
1.7457229e-06
1.7853021e-06
1.8241646e-06
1.8622705e-06
1.8995806e-06
1.9360619e-06
1.9716848e-06
2.0064204e-06
2.0402304e-06
2.0730806e-06
2.1049426e-06
2.1357898e-06
2.1656003e-06
2.1943499e-06
2.2220209e-06
2.2485946e-06
2.2740548e-06
2.2983884e-06
2.3215835e-06
2.3436302e-06
2.3645218e-06
2.3842527e-06
2.4028199e-06
2.4202228e-06
2.436464e-06
2.4515502e-06
2.4654895e-06
2.4782914e-06
2.489966e-06
2.5005259e-06
2.5099841e-06
2.5183552e-06
2.5256546e-06
2.5318988e-06
2.5371055e-06
2.5412965e-06
2.54451e-06
2.5466923e-06
2.54792e-06
2.5482154e-06
2.5475445e-06
2.5458762e-06
2.5432964e-06
2.5400919e-06
2.5362302e-06
2.5311997e-06
2.5255153e-06
2.5190333e-06
2.5118191e-06
2.5038925e-06
2.4952791e-06
2.4860026e-06
2.4760866e-06
2.4655519e-06
2.4544195e-06
2.4427088e-06
2.4304379e-06
2.4176268e-06
2.4042925e-06
2.3904537e-06
2.3761293e-06
2.3613379e-06
2.3460951e-06
2.8053644e-06
2.8714644e-06
2.9364963e-06
3.00039e-06
3.0630819e-06
3.124509e-06
3.1846185e-06
3.2433636e-06
3.3006982e-06
3.3565581e-06
3.4108877e-06
3.4636403e-06
3.514772e-06
3.5642462e-06
3.6120225e-06
3.6580706e-06
3.7023587e-06
3.7448588e-06
3.7855475e-06
3.8244037e-06
3.8614089e-06
3.8965501e-06
3.9298157e-06
3.9611985e-06
3.9906948e-06
4.0183064e-06
4.0440416e-06
4.0679107e-06
4.089927e-06
4.1101039e-06
4.1284597e-06
4.145013e-06
4.1597848e-06
4.1727979e-06
4.184077e-06
4.193648e-06
4.2015431e-06
4.2078186e-06
4.2124173e-06
4.2154046e-06
4.2168555e-06
4.2167038e-06
4.214894e-06
4.2115617e-06
4.2071799e-06
4.2017032e-06
4.1942784e-06
4.1857505e-06
4.1758852e-06
4.1647881e-06
4.1524906e-06
4.1390343e-06
4.1244571e-06
4.1087974e-06
4.092089e-06
4.0743657e-06
4.0556593e-06
4.0359991e-06
4.0154181e-06
3.9939438e-06
3.9716074e-06
3.9484395e-06
3.9244717e-06
4.4526786e-06
4.5573691e-06
4.6604367e-06
4.7617737e-06
4.8612823e-06
4.9588658e-06
5.0544429e-06
5.1479434e-06
5.2392953e-06
5.3283946e-06
5.4151544e-06
5.4995008e-06
5.5813636e-06
5.6606841e-06
5.7373966e-06
5.8114514e-06
5.8827959e-06
5.9513833e-06
6.0171736e-06
6.08013e-06
6.1402199e-06
6.1974185e-06
6.2517036e-06
6.3030596e-06
6.3514761e-06
6.3969512e-06
6.439493e-06
6.4791133e-06
6.5158282e-06
6.5496542e-06
6.580615e-06
6.6087353e-06
6.6340436e-06
6.6565712e-06
6.6763524e-06
6.6934236e-06
6.7078293e-06
6.7196428e-06
6.7288316e-06
6.7354035e-06
6.7395223e-06
6.7410807e-06
6.7399788e-06
6.7364205e-06
6.7311578e-06
6.7241344e-06
6.7139769e-06
6.702019e-06
6.6878954e-06
6.6717677e-06
6.653685e-06
6.6337113e-06
6.6119051e-06
6.5883262e-06
6.563027e-06
6.5360602e-06
6.5074754e-06
6.4773185e-06
6.4456414e-06
6.4124875e-06
6.3779056e-06
6.3419449e-06
6.304655e-06
6.8444804e-06
7.0049663e-06
7.1630813e-06
7.3186666e-06
7.4715772e-06
7.6216697e-06
7.7688244e-06
7.9129408e-06
8.053907e-06
8.1915604e-06
8.3257705e-06
8.4564238e-06
8.5834117e-06
8.7066426e-06
8.8260137e-06
8.9414455e-06
9.0528543e-06
9.1601639e-06
9.2633085e-06
9.3622262e-06
9.4568615e-06
9.5471704e-06
9.6331122e-06
9.7146559e-06
9.7917784e-06
9.8644689e-06
9.9327324e-06
9.9965789e-06
1.0056025e-05
1.0111089e-05
1.0161797e-05
1.0208181e-05
1.0250276e-05
1.0288122e-05
1.0321763e-05
1.0351248e-05
1.0376635e-05
1.039801e-05
1.0415398e-05
1.0428717e-05
1.0438212e-05
1.0443761e-05
1.0445181e-05
1.0442765e-05
1.0437667e-05
1.0429831e-05
1.0417117e-05
1.0401556e-05
1.0382599e-05
1.0360486e-05
1.0335288e-05
1.0307101e-05
1.0276011e-05
1.0242109e-05
1.0205472e-05
1.0166179e-05
1.0124305e-05
1.0079919e-05
1.0033099e-05
9.9839105e-06
9.9324289e-06
9.8787286e-06
1.0218667e-05
1.0457415e-05
1.0692819e-05
1.0924653e-05
1.115271e-05
1.1376783e-05
1.1596702e-05
1.1812331e-05
1.2023494e-05
1.2229947e-05
1.24315e-05
1.2627984e-05
1.2819236e-05
1.3005118e-05
1.3185473e-05
1.3360179e-05
1.3529107e-05
1.3692136e-05
1.3849162e-05
1.4000086e-05
1.4144817e-05
1.428328e-05
1.4415405e-05
1.4541136e-05
1.4660428e-05
1.4773254e-05
1.4879609e-05
1.4979497e-05
1.5072931e-05
1.5159926e-05
1.524051e-05
1.5314716e-05
1.5382586e-05
1.5444166e-05
1.5499512e-05
1.5548684e-05
1.5591755e-05
1.5628823e-05
1.5659959e-05
1.5685084e-05
1.5704349e-05
1.5717746e-05
1.5724939e-05
1.5726324e-05
1.5723617e-05
1.5716789e-05
1.570261e-05
1.5684065e-05
1.5660365e-05
1.5631844e-05
1.5598609e-05
1.5560796e-05
1.5518528e-05
1.5471934e-05
1.5421128e-05
1.5366221e-05
1.5307324e-05
1.5244534e-05
1.5177968e-05
1.510772e-05
1.50339e-05
1.4956618e-05
1.485199e-05
1.5197371e-05
1.5538179e-05
1.5874099e-05
1.6204841e-05
1.6530121e-05
1.6849704e-05
1.7163413e-05
1.7470966e-05
1.7772017e-05
1.8066296e-05
1.8353559e-05
1.8633567e-05
1.8906117e-05
1.917098e-05
1.9427973e-05
1.9676901e-05
1.9917585e-05
2.0149863e-05
2.0373584e-05
2.0588604e-05
2.0794803e-05
2.0992069e-05
2.1180306e-05
2.1359437e-05
2.1529406e-05
2.169019e-05
2.1841782e-05
2.1984184e-05
2.2117401e-05
2.2241459e-05
2.235639e-05
2.2462237e-05
2.2559052e-05
2.26469e-05
2.2725849e-05
2.2795989e-05
2.2857429e-05
2.2910267e-05
2.2954529e-05
2.2990136e-05
2.3017219e-05
2.3035287e-05
2.3044833e-05
2.3048324e-05
2.3045811e-05
2.3032568e-05
2.3012835e-05
2.2985519e-05
2.2951076e-05
2.2909654e-05
2.2861439e-05
2.2806603e-05
2.2745325e-05
2.2677762e-05
2.2604071e-05
2.2524403e-05
2.2438899e-05
2.2347717e-05
2.2250995e-05
2.2148886e-05
2.1054752e-05
2.1541402e-05
2.2021948e-05
2.2495964e-05
2.2963058e-05
2.3422843e-05
2.3875013e-05
2.4319331e-05
2.4755358e-05
2.5182624e-05
2.5600754e-05
2.6009403e-05
2.6408234e-05
2.679696e-05
2.7175251e-05
2.7542845e-05
2.7899461e-05
2.8244837e-05
2.8578736e-05
2.8900934e-05
2.9211216e-05
2.9509402e-05
2.9795318e-05
3.0068817e-05
3.0329771e-05
3.0578086e-05
3.0813712e-05
3.103662e-05
3.1246797e-05
3.144423e-05
3.1628939e-05
3.1800948e-05
3.1960298e-05
3.2107045e-05
3.2241259e-05
3.2363019e-05
3.2472429e-05
3.2569608e-05
3.2654678e-05
3.2727755e-05
3.2788714e-05
3.2837441e-05
3.2873535e-05
3.2897498e-05
3.2912773e-05
3.2919583e-05
3.2911222e-05
3.2893514e-05
3.2865007e-05
3.2826294e-05
3.277758e-05
3.2719112e-05
3.2651122e-05
3.2573849e-05
3.2487504e-05
3.2392301e-05
3.2288441e-05
3.2176115e-05
3.205554e-05
3.1926899e-05
2.9162556e-05
2.9831331e-05
3.0492103e-05
3.1144307e-05
3.178742e-05
3.2420936e-05
3.3044469e-05
3.3657684e-05
3.4259933e-05
3.4850592e-05
3.5429157e-05
3.5995157e-05
3.6548128e-05
3.7087673e-05
3.7613339e-05
3.8124758e-05
3.8621543e-05
3.9103325e-05
3.9569773e-05
4.0020566e-05
4.0455402e-05
4.0874022e-05
4.1276175e-05
4.1661644e-05
4.203024e-05
4.2381817e-05
4.2716289e-05
4.30336e-05
4.3333716e-05
4.3616599e-05
4.3882258e-05
4.4130708e-05
4.4361986e-05
4.4576149e-05
4.4773272e-05
4.4953446e-05
4.5116788e-05
4.5263431e-05
4.539352e-05
4.5507212e-05
4.5604574e-05
4.5684938e-05
4.5748011e-05
4.5794377e-05
4.5828652e-05
4.5851376e-05
4.5853313e-05
4.5842207e-05
4.5816208e-05
4.5776063e-05
4.5722045e-05
4.5654474e-05
4.5573655e-05
4.5479899e-05
4.5373483e-05
4.5254686e-05
4.5123772e-05
4.4980989e-05
4.4826625e-05
4.4660921e-05
3.9525918e-05
4.0423355e-05
4.1310407e-05
4.2186341e-05
4.3050481e-05
4.3902176e-05
4.4740958e-05
4.5566321e-05
4.6377364e-05
4.7173289e-05
4.7953431e-05
4.8717166e-05
4.9463874e-05
5.0193026e-05
5.0904019e-05
5.159636e-05
5.2269529e-05
5.2923032e-05
5.3556421e-05
5.4169267e-05
5.4761159e-05
5.5331743e-05
5.5880679e-05
5.640767e-05
5.6912453e-05
5.739482e-05
5.7854645e-05
5.829184e-05
5.8706352e-05
5.9098114e-05
5.9467125e-05
5.9813388e-05
6.013694e-05
6.0437841e-05
6.0716174e-05
6.0972045e-05
6.1205589e-05
6.1416957e-05
6.1606322e-05
6.1773868e-05
6.1919848e-05
6.2043385e-05
6.2143523e-05
6.2221435e-05
6.2283013e-05
6.2329321e-05
6.2348005e-05
6.2349044e-05
6.2330181e-05
6.229232e-05
6.2235823e-05
6.2161095e-05
6.2068525e-05
6.1958511e-05
6.1831405e-05
6.1687563e-05
6.1527325e-05
6.1351004e-05
6.1158968e-05
6.0951525e-05
5.249861e-05
5.3675846e-05
5.4839667e-05
5.5989145e-05
5.7123422e-05
5.8241691e-05
5.9343384e-05
6.0427731e-05
6.1493556e-05
6.2539862e-05
6.3565798e-05
6.457056e-05
6.5553347e-05
6.6513482e-05
6.7450186e-05
6.8362822e-05
6.9250725e-05
7.0113257e-05
7.094984e-05
7.1759923e-05
7.2542974e-05
7.329854e-05
7.402618e-05
7.4725512e-05
7.5396193e-05
7.6037953e-05
7.6650622e-05
7.7234088e-05
7.7788282e-05
7.8313112e-05
7.8808572e-05
7.9274661e-05
7.9711421e-05
8.0118921e-05
8.0497264e-05
8.0846576e-05
8.1167022e-05
8.1458776e-05
8.1722054e-05
8.1957073e-05
8.2164159e-05
8.2342761e-05
8.2490498e-05
8.2609342e-05
8.2706803e-05
8.2784684e-05
8.2826901e-05
8.2845942e-05
8.283917e-05
8.2807642e-05
8.2751831e-05
8.2672243e-05
8.256936e-05
8.2443685e-05
8.2295654e-05
8.2125714e-05
8.1934288e-05
8.1721766e-05
8.1488608e-05
8.1235198e-05
6.8425516e-05
6.9936723e-05
7.1430628e-05
7.2906078e-05
7.4362016e-05
7.5797475e-05
7.7211734e-05
7.8603684e-05
7.9971867e-05
8.1315068e-05
8.2632231e-05
8.3922353e-05
8.5184435e-05
8.6417639e-05
8.7620996e-05
8.8793717e-05
8.9934982e-05
9.1044e-05
9.2120061e-05
9.3162485e-05
9.417062e-05
9.5143908e-05
9.6081815e-05
9.6983871e-05
9.784966e-05
9.867885e-05
9.9471239e-05
0.0001002267
0.00010094516
0.00010162652
0.00010227078
0.00010287794
0.00010344806
0.00010398123
0.0001044776
0.00010493732
0.0001053606
0.00010574766
0.00010609876
0.00010641416
0.00010669421
0.00010693891
0.00010714452
0.00010731298
0.00010745434
0.0001075713
0.00010764342
0.00010768593
0.00010769586
0.00010767443
0.00010762224
0.00010753991
0.00010742803
0.00010728721
0.00010711801
0.00010692095
0.00010669657
0.00010644534
0.00010616781
0.00010586447
8.7630886e-05
8.9531405e-05
9.1409638e-05
9.3264194e-05
9.5093806e-05
9.6897355e-05
9.867387e-05
0.00010042188
0.00010213965
0.00010382574
0.00010547887
0.00010709784
0.00010868144
0.00011022867
0.00011173837
0.00011320959
0.00011464138
0.00011603279
0.00011738297
0.00011869113
0.00011995649
0.00012117842
0.00012235629
0.00012348955
0.00012457773
0.00012562045
0.00012661748
0.00012756871
0.00012847408
0.00012933349
0.00013014697
0.00013091454
0.00013163631
0.00013231242
0.00013294304
0.00013352839
0.00013406875
0.00013456438
0.00013501562
0.0001354228
0.00013578629
0.00013610646
0.00013637915
0.00013660465
0.00013679667
0.00013695907
0.00013706647
0.00013713695
0.00013716734
0.00013715898
0.00013711263
0.00013702903
0.00013690891
0.00013675301
0.00013656199
0.00013633651
0.00013607718
0.00013578457
0.00013545938
0.00013510215
0.00011040818
0.00011275262
0.00011506848
0.00011735412
0.00011960808
0.00012182906
0.00012401578
0.00012616641
0.00012827894
0.00013035171
0.00013238324
0.00013437212
0.00013631694
0.00013821655
0.00014006961
0.00014187503
0.00014363172
0.00014533858
0.00014699466
0.00014859907
0.00015015093
0.00015164953
0.00015309416
0.00015448424
0.00015581924
0.00015709875
0.00015832255
0.00015949055
0.00016060276
0.00016165908
0.0001626596
0.00016360439
0.0001644936
0.00016532746
0.0001661062
0.00016683012
0.00016749958
0.00016811492
0.00016867658
0.00016918495
0.00016964046
0.00017004371
0.00017039081
0.00017067943
0.00017092716
0.00017113993
0.00017128661
0.00017138829
0.00017144171
0.00017144829
0.00017140899
0.00017132471
0.00017119629
0.00017102464
0.00017081052
0.00017055473
0.000170258
0.00016992101
0.00016954456
0.0001691293
0.00013701282
0.00013985347
0.00014265773
0.00014542377
0.00014814994
0.00015083474
0.00015347651
0.00015607313
0.00015862234
0.00016112226
0.00016357122
0.00016596763
0.00016830989
0.00017059674
0.00017282666
0.00017499844
0.00017711087
0.00017916276
0.00018115304
0.00018308076
0.00018494495
0.00018674485
0.00018847972
0.00019014894
0.00019175196
0.00019328836
0.00019475795
0.00019616071
0.00019749672
0.00019876592
0.00019996847
0.00020110453
0.00020217434
0.00020317819
0.00020411643
0.00020498946
0.00020579772
0.00020654168
0.00020722187
0.0002078388
0.00020839295
0.00020888504
0.00020931187
0.0002096683
0.00020997503
0.00021024154
0.0002104301
0.00021056486
0.0002106426
0.00021066483
0.00021063272
0.00021054732
0.00021040964
0.00021022072
0.00020998149
0.00020969287
0.00020935572
0.00020897082
0.00020853912
0.00016765889
0.00017104455
0.00017438446
0.00017767657
0.00018091912
0.00018411032
0.00018724817
0.00019033029
0.00019335421
0.00019631786
0.00019921941
0.00020205712
0.00020482921
0.00020753434
0.00021017084
0.00021273742
0.00021523278
0.00021765562
0.00022000485
0.00022227943
0.00022447836
0.00022660084
0.00022864613
0.0002306136
0.00023250271
0.00023431305
0.00023604448
0.00023769709
0.00023927105
0.00024076638
0.00024218333
0.00024352218
0.00024478325
0.00024596696
0.00024707378
0.00024810423
0.00024905887
0.0002499383
0.00025074319
0.00025147413
0.00025213174
0.00025271677
0.00025322691
0.0002536543
0.00025402195
0.00025434407
0.00025457581
0.00025474428
0.00025484647
0.00025488396
0.00025485815
0.00025477025
0.00025462146
0.00025441298
0.00025414588
0.00025382124
0.00025344005
0.00025300322
0.00025251183
0.00020251976
0.00020649528
0.00021041407
0.00021427393
0.00021807299
0.00022180915
0.0002254801
0.00022908327
0.00023261602
0.00023607611
0.00023946159
0.0002427706
0.00024600121
0.00024915204
0.00025222129
0.00025520762
0.00025810968
0.00026092612
0.00026365578
0.00026629762
0.00026885062
0.00027131399
0.00027368698
0.00027596901
0.00027815954
0.00028025822
0.00028226499
0.00028418005
0.00028600372
0.00028773611
0.0002893776
0.00029092857
0.00029238951
0.00029376095
0.0002950435
0.00029623783
0.00029734466
0.00029836471
0.00029929881
0.0003001477
0.00030091208
0.0003015928
0.00030218834
0.00030268849
0.00030311792
0.00030349628
0.00030377139
0.00030397314
0.00030409894
0.00030415036
0.0003041291
0.00030403652
0.00030387401
0.00030364296
0.00030334461
0.00030298017
0.0003025508
0.00030205752
0.00030150158
0.00024173219
0.00024633842
0.00025087538
0.0002553408
0.00025973264
0.00026404851
0.00026828586
0.00027244201
0.00027651414
0.0002804999
0.00028439726
0.00028820427
0.00029191887
0.00029553968
0.00029906482
0.00030249292
0.0003058226
0.00030905246
0.00031218137
0.00031520829
0.00031813218
0.0003209523
0.00032366794
0.00032627855
0.00032878367
0.00033118299
0.00033347655
0.00033566472
0.00033774798
0.00033972656
0.00034160097
0.00034337176
0.00034503954
0.00034660503
0.00034806899
0.00034943224
0.00035069569
0.00035186021
0.0003529268
0.00035389634
0.00035476967
0.00035554774
0.00035622973
0.00035680336
0.00035729462
0.00035772888
0.00035804668
0.00035828051
0.00035842829
0.0003584916
0.00035847244
0.00035837235
0.00035819293
0.00035793575
0.00035760222
0.00035719373
0.00035671158
0.00035615694
0.00028540235
0.00029067656
0.00029586749
0.00030097282
0.00030599035
0.00031091744
0.00031575135
0.00032048933
0.00032512845
0.00032966626
0.00033410067
0.00033842971
0.0003426512
0.00034676381
0.00035076557
0.00035465513
0.00035843112
0.00036209214
0.00036563706
0.00036906488
0.00037237459
0.00037556551
0.00037863699
0.00038158855
0.0003844198
0.00038713051
0.00038972085
0.00039219137
0.00039454274
0.00039677531
0.00039888978
0.00040088685
0.00040276732
0.00040453207
0.00040618205
0.00040771826
0.00040914179
0.00041045369
0.00041165515
0.00041274722
0.00041373086
0.00041460717
0.0004153759
0.00041602295
0.00041657555
0.00041706463
0.00041742386
0.00041768795
0.00041785553
0.00041792816
0.00041790816
0.00041779726
0.00041759727
0.00041730997
0.00041693695
0.00041647977
0.0004159399
0.00041531865
0.00033361276
0.00033958924
0.00034546707
0.00035124387
0.00035691733
0.00036248457
0.00036794272
0.00037328903
0.00037852047
0.00038363452
0.0003886291
0.0003935022
0.00039825158
0.00040287596
0.00040737336
0.00041174243
0.00041598185
0.00042009023
0.00042406647
0.00042790965
0.0004316188
0.00043519331
0.00043863263
0.00044193636
0.0004451042
0.00044813602
0.00045103212
0.00045379327
0.00045642036
0.00045891389
0.00046127473
0.00046350378
0.00046560202
0.00046757053
0.00046941045
0.00047112299
0.00047270943
0.00047417104
0.00047550918
0.00047672508
0.00047781988
0.0004787948
0.00047965011
0.00048036996
0.00048098308
0.00048152545
0.00048192442
0.00048221657
0.00048240139
0.00048248042
0.00048245629
0.00048233095
0.00048210642
0.00048178471
0.00048136759
0.00048085682
0.00048025403
0.00038642895
0.00039313973
0.0003997352
0.00040621297
0.0004125706
0.00041880505
0.00042491334
0.00043089278
0.00043674028
0.00044245327
0.00044802969
0.00045346754
0.00045876452
0.00046391946
0.00046893035
0.00047379589
0.00047851484
0.00048308581
0.00048750779
0.00049177994
0.00049590132
0.00049987146
0.00050368989
0.00050735633
0.00051087058
0.00051423262
0.00051744289
0.00052050241
0.00052341232
0.00052617326
0.00052878632
0.00053125259
0.00053357326
0.00053574963
0.00053778304
0.00053967492
0.00054142676
0.00054304004
0.00054451635
0.0005458571
0.00054706359
0.00054813722
0.00054907869
0.00054987045
0.00055054295
0.0005511369
0.00055157366
0.00055189146
0.00055209074
0.00055217301
0.00055214126
0.00055199764
0.00055174442
0.00055138382
0.00055091782
0.00055034836
0.00054967727
0.00044390534
0.00045138084
0.00045872319
0.00046592999
0.00047299871
0.00047992619
0.00048670938
0.0004933457
0.000499832
0.00050616569
0.00051234474
0.00051836725
0.00052423079
0.00052993438
0.00053547599
0.00054085437
0.00054606839
0.0005511167
0.00055599835
0.00056071262
0.00056525866
0.00056963608
0.00057384456
0.00057788393
0.00058175411
0.00058545521
0.0005889878
0.0005923532
0.0005955528
0.00059858742
0.00060145835
0.00060416691
0.00060671452
0.00060910268
0.00061133298
0.00061340707
0.00061532666
0.00061709348
0.00061870932
0.00062017581
0.00062149442
0.00062266672
0.00062369385
0.0006245565
0.00062528713
0.00062593089
0.00062640335
0.00062674428
0.00062695514
0.00062703741
0.00062699443
0.0006268286
0.00062654242
0.00062613834
0.00062561856
0.00062498523
0.00062424034
0.00049767064
0.00050608996
0.00051435961
0.00052247716
0.00053044021
0.00053824619
0.00054589184
0.00055337406
0.00056069044
0.00056783779
0.00057481349
0.00058161559
0.00058824228
0.00059469104
0.0006009611
0.00060705041
0.0006129578
0.00061868226
0.0006242225
0.00062957764
0.0006347471
0.0006397301
0.00064452641
0.00064913583
0.00065355831
0.00065779394
0.0006618429
0.00066570599
0.00066938477
0.00067288096
0.00067619553
0.00067933002
0.00068228597
0.00068506504
0.00068766897
0.00069009959
0.00069235878
0.00069444852
0.00069637075
0.00069812752
0.00069972067
0.00070115185
0.00070242283
0.00070353511
0.00070446765
0.00070525516
0.00070594699
0.00070645306
0.0007068146
0.00070703414
0.00070711315
0.00070705533
0.00070686332
0.00070653987
0.00070608769
0.0007055092
0.00070480675
0.00070398254
0.00056376564
0.00057302805
0.00058212079
0.00059104145
0.00059978762
0.00060835672
0.00061674545
0.00062495064
0.00063297012
0.00064080066
0.00064843962
0.00065588513
0.00066313554
0.00067018821
0.0006770426
0.00068369667
0.00069014932
0.00069639971
0.00070244658
0.00070828916
0.00071392703
0.00071935948
0.00072458644
0.00072960785
0.00073442382
0.00073903457
0.00074344043
0.00074764234
0.00075164221
0.00075544206
0.00075904305
0.00076244696
0.00076565558
0.00076867081
0.00077149465