/*--------------------------------*- C++ -*----------------------------------*\
| =========                 |                                                 |
| \\      /  F ield         | OpenFOAM: The Open Source CFD Toolbox           |
|  \\    /   O peration     | Version:  2.4.0                                 |
|   \\  /    A nd           | Web:      www.OpenFOAM.org                      |
|    \\/     M anipulation  |                                                 |
\*---------------------------------------------------------------------------*/
FoamFile
{
    version     2.0;
    format      ascii;
    class       volScalarField;
    location    "15000";
    object      omega;
}
// * * * * * * * * * * * * * * * * * * * * * * * * * * * * * * * * * * * * * //

dimensions      [0 0 -1 0 0 0 0];

internalField   nonuniform List<scalar> 
9842
(
129783.85
129783.85
129783.85
129783.85
129783.85
129783.85
129783.85
129783.85
129783.85
129783.85
129783.85
129783.85
129783.85
129783.85
129783.85
129783.85
129783.85
129783.85
129783.85
129783.85
129783.85
129783.85
129783.84
129783.85
129783.85
129783.85
129783.85
129783.84
129783.85
129783.85
129783.85
129783.85
129783.85
129783.85
129783.85
129783.85
129783.84
129783.85
129783.85
129783.84
129783.85
129783.85
129783.85
129783.85
129783.85
129783.84
129783.85
129783.85
129783.85
129783.85
129783.85
129783.85
129783.85
129783.85
129783.84
129783.85
129783.85
129783.85
129783.84
129783.85
21961.628
21961.626
21961.624
21961.621
21961.619
21961.618
21961.616
21961.615
21961.614
21961.612
21961.611
21961.609
21961.608
21961.606
21961.605
21961.603
21961.602
21961.601
21961.599
21961.597
21961.596
21961.594
21961.593
21961.591
21961.589
21961.588
21961.586
21961.585
21961.584
21961.582
21961.581
21961.579
21961.578
21961.577
21961.575
21961.574
21961.573
21961.572
21961.571
21961.569
21961.568
21961.567
21961.566
21961.565
21961.564
21961.563
21961.562
21961.561
21961.56
21961.56
21961.559
21961.558
21961.558
21961.557
21961.556
21961.556
21961.555
21961.555
21961.554
21961.554
7262.0792
7262.0765
7262.0738
7262.0708
7262.0678
7262.0648
7262.0622
7262.0594
7262.0565
7262.0535
7262.0504
7262.0471
7262.0437
7262.0403
7262.0368
7262.0332
7262.0295
7262.0258
7262.022
7262.0182
7262.0144
7262.0104
7262.0065
7262.0025
7261.9988
7261.9948
7261.9909
7261.987
7261.9831
7261.9793
7261.9754
7261.9717
7261.968
7261.9643
7261.9607
7261.9571
7261.9537
7261.9501
7261.9468
7261.9436
7261.9403
7261.9372
7261.9342
7261.9312
7261.9284
7261.9257
7261.9229
7261.9204
7261.9178
7261.9154
7261.913
7261.9109
7261.9087
7261.9067
7261.9048
7261.9027
7261.9011
7261.8994
7261.8978
7261.8962
7261.8949
3347.7812
3347.778
3347.7743
3347.7704
3347.7662
3347.7618
3347.7574
3347.7526
3347.7476
3347.7424
3347.7368
3347.7311
3347.7251
3347.7188
3347.7124
3347.7059
3347.6991
3347.6922
3347.6852
3347.678
3347.6708
3347.6634
3347.656
3347.6486
3347.6411
3347.6336
3347.6261
3347.6186
3347.6111
3347.6037
3347.5963
3347.5889
3347.5817
3347.5744
3347.5673
3347.5603
3347.5534
3347.5466
3347.5399
3347.5334
3347.527
3347.5207
3347.5146
3347.5086
3347.5028
3347.4972
3347.4917
3347.4864
3347.4813
3347.4763
3347.4715
3347.4669
3347.4624
3347.4582
3347.4541
3347.4501
3347.4464
3347.4428
3347.4394
3347.4362
3347.4331
1857.5913
1857.5877
1857.5835
1857.5787
1857.5733
1857.5674
1857.5611
1857.5543
1857.547
1857.5392
1857.531
1857.5223
1857.5131
1857.5036
1857.4937
1857.4834
1857.4729
1857.462
1857.4509
1857.4395
1857.4279
1857.4161
1857.4042
1857.3921
1857.3799
1857.3677
1857.3554
1857.3431
1857.3307
1857.3184
1857.3061
1857.2939
1857.2817
1857.2696
1857.2577
1857.2459
1857.2342
1857.2227
1857.2113
1857.2002
1857.1893
1857.1786
1857.1681
1857.1578
1857.1478
1857.138
1857.1285
1857.1193
1857.1103
1857.1016
1857.0932
1857.0851
1857.0773
1857.0697
1857.0624
1857.0554
1857.0487
1857.0423
1857.0361
1857.0303
1857.0247
1857.0194
1156.0501
1156.0455
1156.0399
1156.0334
1156.0261
1156.0179
1156.0089
1155.9991
1155.9886
1155.9772
1155.9652
1155.9525
1155.9391
1155.9252
1155.9106
1155.8955
1155.88
1155.8639
1155.8475
1155.8307
1155.8136
1155.7962
1155.7785
1155.7606
1155.7426
1155.7244
1155.7061
1155.6878
1155.6695
1155.6512
1155.6329
1155.6147
1155.5966
1155.5786
1155.5608
1155.5432
1155.5258
1155.5086
1155.4917
1155.4751
1155.4588
1155.4427
1155.427
1155.4117
1155.3967
1155.3821
1155.3678
1155.354
1155.3405
1155.3275
1155.3148
1155.3026
1155.2908
1155.2794
1155.2685
1155.2579
1155.2478
1155.2381
1155.2288
1155.2199
1155.2115
1155.2034
777.05507
777.04881
777.04126
777.03246
777.02246
777.01123
776.99881
776.98527
776.97065
776.95498
776.93831
776.9207
776.9022
776.88285
776.86272
776.84184
776.82029
776.79811
776.77537
776.75212
776.72841
776.70431
776.67987
776.65514
776.63019
776.60507
776.57982
776.55449
776.52914
776.5038
776.47854
776.45337
776.42836
776.40351
776.3789
776.35455
776.33048
776.30673
776.28333
776.26033
776.23776
776.21562
776.19389
776.17265
776.15192
776.13169
776.112
776.09285
776.07424
776.05619
776.0387
776.02178
776.00544
775.98967
775.97449
775.95988
775.94585
775.93242
775.91956
775.90728
775.89556
775.88441
551.83773
551.83078
551.82212
551.81178
551.7998
551.78624
551.77108
551.75434
551.73613
551.71651
551.69554
551.67328
551.6498
551.62517
551.59946
551.57273
551.54507
551.51653
551.4872
551.45715
551.42646
551.3952
551.36344
551.33125
551.29871
551.26589
551.23287
551.1997
551.16645
551.13318
551.09995
551.06682
551.03383
551.00106
550.96853
550.93631
550.90445
550.87295
550.8419
550.81131
550.78125
550.75177
550.72284
550.69447
550.66675
550.63969
550.6133
550.58761
550.56263
550.53837
550.51484
550.49205
550.47001
550.44873
550.4282
550.40843
550.38943
550.37119
550.35372
550.33701
550.32105
550.30584
550.29137
408.36758
408.3577
408.34567
408.33155
408.3154
408.29728
408.27716
408.25508
408.23119
408.20556
408.17828
408.14943
408.11908
408.08734
408.05428
408.02
407.98458
407.94812
407.91072
407.87245
407.83342
407.79372
407.75344
407.71267
407.6715
407.63002
407.58832
407.54647
407.50456
407.46266
407.42084
407.37917
407.33773
407.29658
407.25576
407.21535
407.17541
407.13597
407.0971
407.05883
407.02124
406.9844
406.94826
406.91284
406.87825
406.8445
406.8116
406.77959
406.74848
406.71828
406.68901
406.66068
406.63329
406.60686
406.58138
406.55686
406.53331
406.51072
406.48909
406.46842
406.4487
406.42992
406.41207
312.03003
312.01608
311.99956
311.98054
311.9591
311.93531
311.90913
311.88064
311.85001
311.81735
311.78275
311.74632
311.70815
311.66836
311.62705
311.58433
311.54031
311.4951
311.44882
311.40158
311.35348
311.30464
311.25517
311.20518
311.15476
311.10404
311.05311
311.00206
310.95099
310.89999
310.84914
310.79854
310.74824
310.69834
310.6489
310.59999
310.55169
310.50403
310.45709
310.41092
310.3656
310.32121
310.2777
310.23508
310.19349
310.15294
310.11345
310.07504
310.03774
310.00156
309.96651
309.93261
309.89987
309.8683
309.83789
309.80865
309.78059
309.75371
309.72799
309.70344
309.68005
309.6578
309.63669
244.62926
244.61299
244.5937
244.57144
244.54631
244.5184
244.48779
244.45443
244.41846
244.38006
244.33937
244.29651
244.25159
244.20474
244.15608
244.10575
244.05387
244.00057
243.94598
243.89024
243.83347
243.7758
243.71736
243.65828
243.59868
243.53868
243.47841
243.41799
243.35751
243.29709
243.23682
243.17681
243.11715
243.05793
242.99923
242.94114
242.88373
242.82708
242.77125
242.71631
242.66232
242.60938
242.55755
242.5068
242.45712
242.4087
242.36153
242.31561
242.271
242.22771
242.18576
242.14516
242.10593
242.06807
242.03159
241.9965
241.9628
241.93049
241.89957
241.87003
241.84188
241.81508
241.78962
241.76556
195.85742
195.83485
195.80888
195.7796
195.74714
195.71159
195.67303
195.63141
195.58696
195.53987
195.49028
195.43834
195.3842
195.32799
195.26985
195.20995
195.14841
195.0854
195.02106
194.95554
194.88898
194.82154
194.75335
194.68456
194.6153
194.54572
194.47594
194.4061
194.33631
194.26669
194.19735
194.1284
194.05994
193.99208
193.9249
193.85849
193.79293
193.72831
193.6647
193.60217
193.54078
193.48065
193.42185
193.36431
193.30804
193.25326
193.19993
193.14808
193.09775
193.04896
193.00172
192.95606
192.91197
192.86947
192.82858
192.78928
192.75159
192.7155
192.68101
192.64811
192.6168
192.58705
192.55883
159.60912
159.58263
159.55236
159.5184
159.48087
159.43991
159.39565
159.34813
159.29736
159.2436
159.18707
159.12794
159.06636
159.0025
158.93652
158.86858
158.79885
158.7275
158.65467
158.58055
158.50529
158.42906
158.35201
158.27431
158.19609
158.11752
158.03874
157.95989
157.88112
157.80254
157.72428
157.64647
157.56921
157.49262
157.41679
157.34183
157.26783
157.19487
157.12304
157.05242
156.98308
156.91508
156.84855
156.78356
156.72004
156.65797
156.59762
156.53893
156.48193
156.42666
156.37314
156.32138
156.27139
156.22319
156.17679
156.13219
156.08939
156.04839
156.00919
155.97179
155.93617
155.90233
155.87024
155.83988
131.9949
131.95968
131.92044
131.87734
131.83051
131.78011
131.72627
131.66905
131.60848
131.54488
131.47849
131.40949
131.33805
131.26435
131.18857
131.1109
131.0315
130.95055
130.86824
130.78474
130.70023
130.61486
130.52882
130.44228
130.35538
130.26828
130.18115
130.09412
130.00735
129.92096
129.83507
129.74982
129.66531
129.58167
129.49899
129.41737
129.33691
129.2577
129.1798
129.10332
129.02832
128.95487
128.88309
128.81306
128.74468
128.67794
128.61312
128.55016
128.48909
128.42993
128.37272
128.31744
128.26414
128.2128
128.16343
128.11605
128.07064
128.02721
127.98575
127.94625
127.90871
127.87311
127.83941
110.53274
110.48766
110.43849
110.38539
110.32854
110.2681
110.20421
110.13692
110.06633
109.9928
109.91657
109.83783
109.75677
109.67358
109.58846
109.5016
109.41318
109.32339
109.23241
109.14044
109.04764
108.9542
108.86028
108.76607
108.67171
108.57738
108.48321
108.38938
108.29601
108.20323
108.11118
108.01996
107.92971
107.84052
107.75251
107.66576
107.58037
107.49642
107.41399
107.33316
107.254
107.17658
107.10102
107.0274
106.95559
106.88557
106.81767
106.7518
106.68796
106.62621
106.56656
106.509
106.45356
106.40023
106.34902
106.29994
106.25297
106.20811
106.16536
106.12471
106.08614
106.04964
106.01516
93.543585
93.488004
93.42839
93.364947
93.297861
93.227311
93.153435
93.076251
92.995992
92.912998
92.827511
92.739737
92.649879
92.558134
92.4647
92.369773
92.273544
92.176205
92.077941
91.978938
91.879376
91.779432
91.679277
91.579078
91.478996
91.379185
91.279792
91.180971
91.082852
90.985559
90.889213
90.793929
90.699816
90.606978
90.515509
90.425504
90.337043
90.250212
90.16507
90.081688
90.000151
89.92051
89.842888
89.767355
89.693768
89.62209
89.552679
89.485413
89.420316
89.357417
89.296721
89.238235
89.181968
89.127916
89.076081
89.026461
88.979048
88.933838
88.89082
88.849984
88.811314
88.774789
79.871523
79.805439
79.73555
79.662077
79.585214
79.50515
79.422011
79.335818
79.2469
79.155576
79.062086
78.96664
78.869443
78.770694
78.670591
78.569328
78.467095
78.364078
78.26046
78.156421
78.052134
77.94777
77.843492
77.73946
77.635824
77.532729
77.430315
77.328722
77.228072
77.128478
77.03005
76.932892
76.837104
76.742779
76.650002
76.558855
76.469413
76.381749
76.295916
76.21197
76.129991
76.050026
75.97219
75.896551
75.822947
75.751321
75.68205
75.615001
75.550186
75.487632
75.427338
75.369306
75.313541
75.260034
75.208786
75.15979
75.113035
75.068516
75.026218
74.98613
74.948233
74.912508
68.705342
68.629559
68.550351
68.467944
68.38254
68.294323
68.203395
68.109819
68.013977
67.916159
67.816596
67.715493
67.613051
67.509463
67.404919
67.299605
67.193701
67.087383
66.980823
66.874187
66.767639
66.661334
66.555422
66.45005
66.345352
66.241462
66.138502
66.036599
65.935858
65.836379
65.738258
65.641585
65.546445
65.452918
65.361077
65.270992
65.182723
65.096335
65.01187
64.929368
64.848897
64.770503
64.69429
64.620323
64.548427
64.478524
64.410993
64.345704
64.282651
64.221861
64.163325
64.107042
64.053012
64.001222
63.95167
63.904346
63.859237
63.816335
63.775624
63.737091
63.700717
59.467742
59.383912
59.297162
59.207719
59.11578
59.021513
58.92499
58.82635
58.725973
58.624112
58.520987
58.41679
58.31171
58.205923
58.099608
57.992934
57.886062
57.779155
57.672366
57.565844
57.459734
57.354172
57.249293
57.14522
57.042073
56.939965
56.839002
56.73929
56.640919
56.543969
56.448521
56.354648
56.26242
56.1719
56.083148
55.996219
55.911162
55.828027
55.746845
55.667647
55.590478
55.515382
55.442455
55.37176
55.303114
55.236416
55.172035
55.109856
55.04985
54.992046
54.936428
54.882991
54.83173
54.782632
54.73569
54.690891
54.648222
54.607673
54.569227
54.53287
51.743482
51.654005
51.562203
51.468289
51.372445
51.274815
51.175447
51.074557
50.97248
50.869437
50.765623
50.661213
50.556375
50.451266
50.346042
50.24085
50.135833
50.031129
49.92687
49.823182
49.720188
49.618005
49.516741
49.416502
49.317386
49.219484
49.122883
49.027669
48.933912
48.841675
48.75102
48.662003
48.574679
48.489095
48.405296
48.323323
48.243212
48.165
48.088707
48.014354
47.941971
47.871584
47.80329
47.737153
47.672987
47.610671
47.550546
47.492526
47.436558
47.382672
47.330848
47.281078
47.233353
47.187658
47.143984
47.102317
47.062643
47.02495
46.989222
46.955444
45.230612
45.138393
45.044477
44.949054
44.852281
44.754268
44.655063
44.554925
44.454126
44.352853
44.251273
44.149535
44.047783
43.946149
43.844763
43.743748
43.64322
43.543294
43.444076
43.345669
43.248172
43.151678
43.056273
42.96204
42.869054
42.777389
42.687109
42.598282
42.510959
42.425183
42.341001
42.258454
42.17758
42.098413
42.020983
41.945319
41.871444
41.799384
41.72915
41.660754
41.594215
41.529536
41.466815
41.406122
41.347277
41.290138
41.235008
41.181838
41.130552
41.081183
41.033708
40.988114
40.944393
40.902528
40.862508
40.82432
40.787948
40.753381
40.720604
40.6896
39.706101
39.614196
39.521198
39.427269
39.332531
39.237057
39.140921
39.044374
38.947627
38.850829
38.754121
38.657621
38.561446
38.465699
38.370487
38.275903
38.182039
38.088984
37.99682
37.905626
37.815477
37.726443
37.63859
37.551978
37.466664
37.3827
37.300134
37.219016
37.139378
37.061251
36.984665
36.909647
36.836223
36.764413
36.694238
36.625714
36.558856
36.493678
36.430185
36.368382
36.308281
36.249867
36.193221
36.13844
36.085349
36.033791
35.984019
35.936031
35.889728
35.845146
35.802259
35.761057
35.721526
35.683652
35.647423
35.612826
35.579845
35.548471
35.518688
35.490483
35.001243
34.912489
34.823175
34.733429
34.643338
34.552942
34.462345
34.371756
34.281333
34.191192
34.101441
34.012171
33.923471
33.835418
33.748092
33.661562
33.575896
33.491159
33.40741
33.324706
33.243102
33.162647
33.083388
33.005368
32.928625
32.853196
32.779114
32.706413
32.635111
32.565227
32.496779
32.429784
32.364256
32.300207
32.237647
32.176586
32.117029
32.058986
32.002454
31.947433
31.893932
31.841925
31.791468
31.742684
31.695417
31.649493
31.605114
31.562326
31.521009
31.481204
31.442883
31.406035
31.37065
31.336712
31.304209
31.273129
31.243459
31.215189
31.188304
31.162794
30.984335
30.901054
30.817645
30.734199
30.650766
30.567372
30.484133
30.401206
30.318704
30.236712
30.155309
30.074561
29.994532
29.915276
29.836848
29.759297
29.682669
29.607008
29.532356
29.458751
29.386231
29.314827
29.244572
29.175493
29.107616
29.040964
28.975558
28.91142
28.84856
28.786985
28.726706
28.667731
28.610066
28.553718
28.49869
28.444985
28.392605
28.341552
28.291822
28.243412
28.196324
28.150535
28.10607
28.063072
28.021413
27.980908
27.941705
27.903895
27.867343
27.832095
27.798121
27.765413
27.73396
27.703747
27.674765
27.647001
27.620444
27.595085
27.570913
27.547917
27.549008
27.472847
27.396872
27.321142
27.245672
27.170495
27.09571
27.021429
26.947729
26.87467
26.802305
26.730679
26.659835
26.589806
26.52063
26.452338
26.384958
26.31852
26.25305
26.188571
26.125107
26.06268
26.001308
25.941008
25.881795
25.823685
25.766689
25.710821
25.656082
25.602476
25.550006
25.498675
25.448484
25.399435
25.351528
25.304762
25.259136
25.21465
25.171295
25.129069
25.087971
25.04798
25.0091
24.971475
24.935018
24.899536
24.865126
24.831918
24.799767
24.768722
24.738754
24.709856
24.682018
24.655226
24.629473
24.604748
24.581041
24.558344
24.536648
24.515943
24.606821
24.538722
24.471012
24.403721
24.336842
24.270415
24.204511
24.139208
24.074555
24.010591
23.94735
23.884858
23.823143
23.762223
23.702121
23.642855
23.58444
23.526896
23.470235
23.414472
23.359621
23.305695
23.252703
23.200655
23.149561
23.099427
23.050261
23.00207
22.954852
22.908605
22.863331
22.819027
22.775694
22.73333
22.691932
22.651498
22.612026
22.573513
22.535951
22.499335
22.463665
22.428923
22.395098
22.362326
22.330562
22.299611
22.269523
22.24046
22.212271
22.185007
22.158642
22.133168
22.108578
22.08486
22.062007
22.040011
22.018862
21.998554
21.97908
22.08282
22.023103
21.963883
21.905165
21.846936
21.789231
21.732101
21.675594
21.619738
21.564558
21.510072
21.456293
21.40324
21.350917
21.299339
21.248513
21.198447
21.14915
21.100629
21.052892
21.005947
20.959798
20.914452
20.869913
20.826185
20.783273
20.74118
20.69991
20.659458
20.619821
20.580997
20.542984
20.50578
20.469382
20.433787
20.398991
20.364992
20.331786
20.299367
20.267728
20.23687
20.206775
20.177432
20.148956
20.121337
20.094393
20.068128
20.042727
20.01804
19.994119
19.970937
19.948491
19.926772
19.905772
19.885485
19.865904
19.84702
19.82883
19.811327
19.912939
19.86144
19.810473
19.760025
19.710083
19.660675
19.611831
19.563581
19.515939
19.468918
19.422526
19.376767
19.331652
19.287178
19.243353
19.200178
19.157655
19.115789
19.074582
19.034036
18.994156
18.954943
18.9164
18.878529
18.841332
18.80481
18.768966
18.7338
18.699308
18.665485
18.632329
18.599838
18.568008
18.536836
18.50632
18.476456
18.447241
18.418672
18.390742
18.363448
18.336788
18.310748
18.285314
18.260587
18.23658
18.21313
18.190199
18.167993
18.146362
18.125357
18.104956
18.085154
18.065946
18.047324
18.029284
18.011819
17.994924
17.978595
17.962827
18.042392
17.998619
17.955359
17.912591
17.870304
17.828517
17.787247
17.746509
17.706307
17.666648
17.627533
17.588961
17.550936
17.513452
17.476512
17.440115
17.404258
17.368944
17.334171
17.299941
17.266254
17.233111
17.200513
17.168459
17.136952
17.105991
17.075578
17.045714
17.016391
16.987608
16.959362
16.931649
16.904467
16.877814
16.851687
16.826083
16.800999
16.776433
16.752378
16.728833
16.705796
16.683255
16.661199
16.639709
16.618819
16.598385
16.578338
16.558894
16.539907
16.521428
16.503435
16.485926
16.468898
16.452343
16.436258
16.420637
16.405478
16.390776
16.424529
16.387795
16.351522
16.315689
16.280285
16.24532
16.210804
16.17674
16.143129
16.109971
16.077265
16.045005
16.013194
15.981822
15.95089
15.920396
15.890335
15.860707
15.831511
15.802746
15.774412
15.746509
15.719037
15.691995
15.665385
15.639207
15.613462
15.58815
15.563265
15.538805
15.514768
15.491151
15.467953
15.445171
15.422803
15.400848
15.379302
15.358164
15.33743
15.317097
15.297165
15.277623
15.258465
15.239754
15.221537
15.203693
15.186124
15.169055
15.152343
15.13604
15.120124
15.104596
15.089451
15.074685
15.060294
15.046276
15.032627
15.019344
15.019866
14.989397
14.959322
14.929619
14.900279
14.871305
14.842702
14.814467
14.786597
14.75909
14.731943
14.705147
14.678706
14.652607
14.626852
14.601435
14.576354
14.551606
14.527192
14.503107
14.479354
14.455932
14.43284
14.410078
14.387647
14.365548
14.343783
14.322352
14.301248
14.280472
14.260021
14.239893
14.220087
14.200602
14.181437
14.16259
14.144059
14.125843
14.10794
14.090347
14.073063
14.056083
14.039399
14.023066
14.007133
13.991504
13.976061
13.961027
13.946269
13.931835
13.917706
13.903883
13.890364
13.877144
13.86422
13.851592
13.839255
13.795182
13.770194
13.745526
13.721158
13.69708
13.673293
13.649799
13.626588
13.603657
13.581006
13.558627
13.536512
13.514665
13.493072
13.471735
13.45065
13.429811
13.409219
13.388871
13.368767
13.348908
13.329291
13.309918
13.290789
13.271905
13.253269
13.23488
13.21674
13.198845
13.181193
13.163783
13.146616
13.129689
13.113003
13.096556
13.080349
13.06438
13.048648
13.033152
13.01789
13.002862
12.988064
12.973491
12.959187
12.945205
12.931468
12.917844
12.904553
12.89147
12.878641
12.866049
12.853695
12.841577
12.829692
12.818039
12.806615
12.79542
12.722664
12.702408
12.6824
12.66262
12.643059
12.623715
12.604589
12.585669
12.566952
12.548436
12.530115
12.511979
12.494034
12.476265
12.458676
12.441261
12.424017
12.406943
12.39004
12.373304
12.356738
12.34034
12.324113
12.308057
12.292172
12.276463
12.260931
12.245575
12.230393
12.215385
12.200551
12.185889
12.171401
12.157086
12.142944
12.128976
12.11518
12.101558
12.088107
12.074827
12.061719
12.048779
12.036005
12.023433
12.011116
11.998995
11.986928
11.975131
11.963485
11.952034
11.940764
11.929675
11.918767
11.908037
11.897484
11.887108
11.876906
11.795511
11.779101
11.762893
11.746862
11.730995
11.715277
11.699711
11.684294
11.669013
11.653867
11.638853
11.623964
11.609193
11.594545
11.580008
11.565582
11.551266
11.537055
11.522951
11.508952
11.495058
11.481271
11.46759
11.454016
11.440553
11.4272
11.413963
11.400842
11.387838
11.374949
11.362176
11.349518
11.336977
11.324553
11.312247
11.300058
11.287988
11.276037
11.264205
11.252492
11.240898
11.229424
11.218067
11.206828
11.195736
11.184841
11.174101
11.163369
11.152852
11.142441
11.132176
11.122044
11.112048
11.102185
11.092455
11.082858
11.073392
11.064057
10.958069
10.945161
10.932389
10.919732
10.907177
10.894713
10.882339
10.870055
10.857845
10.84571
10.833648
10.821652
10.809716
10.797845
10.786028
10.774267
10.76256
10.750902
10.739298
10.727745
10.716244
10.704797
10.693404
10.682068
10.670789
10.659572
10.648419
10.637333
10.626315
10.615363
10.604479
10.593663
10.582916
10.57224
10.561635
10.551102
10.540643
10.530258
10.519948
10.509713
10.499554
10.489472
10.479466
10.469539
10.459711
10.450035
10.440476
10.430891
10.421474
10.412125
10.402882
10.393733
10.38468
10.375724
10.366862
10.358096
10.349424
10.340847
10.214696
10.204747
10.194876
10.185065
10.175302
10.165577
10.15589
10.146241
10.136615
10.127011
10.11743
10.107866
10.098311
10.088774
10.079243
10.06972
10.060206
10.050696
10.041193
10.031698
10.02221
10.012732
10.003267
9.9938141
9.9843776
9.9749603
9.9655664
9.9561989
9.946858
9.9375429
9.9282557
9.9189977
9.9097702
9.9005746
9.8914126
9.8822854
9.8731946
9.8641413
9.8551268
9.8461513
9.8372162
9.8283231
9.8194716
9.8106652
9.8019216
9.7932892
9.7847454
9.7761458
9.7676757
9.7592427
9.7508823
9.7425838
9.7343499
9.7261802
9.7180743
9.7100326
9.7020549
9.6941414
9.5594223
9.5519053
9.5444454
9.537012
9.5295918
9.5221736
9.5147483
9.5073163
9.4998779
9.4924177
9.4849365
9.4774365
9.4699118
9.4623552
9.4547763
9.447163
9.4395197
9.4318464
9.4241396
9.416403
9.4086377
9.4008432
9.3930236
9.38518
9.3773148
9.369431
9.3615322
9.3536229
9.3457065
9.3377833
9.3298526
9.3219175
9.3139793
9.3060399
9.298101
9.2901645
9.282232
9.2743054
9.2663862
9.2584759
9.2505751
9.2426855
9.2348091
9.2269464
9.2191015
9.2112887
9.2035535
9.195882
9.1881326
9.1804796
9.1728386
9.1652424
9.1576816
9.1501587
9.142674
9.1352272
9.1278191
9.1204498
9.1131197
8.9638165
8.9584303
8.9530563
8.9476659
8.942248
8.936793
8.9312926
8.9257476
8.9201597
8.9145129
8.9088091
8.9030514
8.897235
8.8913521
8.8854143
8.8794094
8.8733425
8.8672145
8.861022
8.8547694
8.8484582
8.8420882
8.8356641
8.829187
8.8226598
8.8160856
8.8094685
8.8028134
8.7961239
8.7894002
8.7826419
8.7758527
8.7690341
8.7621883
8.7553173
8.7484232
8.741508
8.7345737
8.727622
8.7206548
8.713673
8.7066786
8.6996737
8.6926595
8.6856409
8.6786291
8.6716668
8.6647472
8.6577327
8.6507865
8.643832
8.6368992
8.6299797
8.6230764
8.6161895
8.6093193
8.6024666
8.5956318
8.5888156
8.4320301
8.428444
8.4248384
8.4212073
8.4175235
8.4137781
8.409963
8.4060706
8.4021018
8.3980601
8.393929
8.3897109
8.3854106
8.3810235
8.3765418
8.3719784
8.3673215
8.3625765
8.3577451
8.3528241
8.3478183
8.3427299
8.3375587
8.3323096
8.3269843
8.3215856
8.316117
8.3105828
8.3049883
8.2993372
8.2936297
8.2878655
8.2820488
8.2761813
8.2702654
8.2643035
8.2582976
8.2522501
8.2461631
8.2400386
8.2338785
8.2276842
8.2214577
8.2152015
8.2089171
8.2026102
8.1962893
8.1899945
8.1837244
8.1773468
8.1710136
8.1646555
8.1582999
8.1519396
8.1455774
8.1392138
8.1328492
8.1264846
8.1201207
8.1137583
7.9473971
7.9453297
7.9432078
7.9410289
7.9387672
7.9364155
7.9339674
7.9314155
7.9287611
7.9260094
7.9231433
7.9201659
7.9170831
7.9138912
7.9105814
7.9071687
7.9036411
7.9000041
7.8962607
7.8924074
7.8884494
7.8843895
7.8802274
7.8759685
7.8716146
7.8671685
7.8626341
7.8580157
7.853319
7.8485479
7.8437023
7.8387822
7.833792
7.8287338
7.8236099
7.818423
7.8131753
7.8078692
7.8025071
7.7970911
7.7916232
7.786105
7.7805387
7.7749269
7.7692718
7.7635792
7.7578557
7.7521386
7.746431
7.7406065
7.7348062
7.7289676
7.7231156
7.7172441
7.7113556
7.7054511
7.699531
7.6935965
7.6876484
7.6816877
7.5085571
7.5077518
7.5068626
7.5058905
7.504811
7.5036183
7.5023074
7.500871
7.4993107
7.4976336
7.4958222
7.4938795
7.4918129
7.4896195
7.4872894
7.4848395
7.4822576
7.4795493
7.4767186
7.473762
7.4706846
7.4674902
7.464178
7.4607539
7.4572197
7.4535784
7.449834
7.4459908
7.442055
7.4380305
7.433917
7.4297144
7.4254277
7.421059
7.4166108
7.4120857
7.4074863
7.4028149
7.3980741
7.393266
7.3883928
7.3834563
7.3784589
7.3734031
7.3682915
7.3631303
7.3579244
7.3527085
7.3474891
7.3421462
7.3368102
7.3314252
7.3260136
7.3205701
7.3150975
7.3095966
7.3040682
7.2985135
7.2929335
7.109784
7.1100245
7.1101566
7.1101848
7.1100857
7.1098544
7.1094875
7.1089777
7.1083264
7.1075432
7.1066098
7.1055291
7.1043097
7.1029498
7.101438
7.0997932
7.0980029
7.0960729
7.0940079
7.0918041
7.0894671
7.087001
7.0844049
7.0816849
7.078843
7.0758821
7.0728062
7.06962
7.0663295
7.0629391
7.0594482
7.0558564
7.0521693
7.0483889
7.0445178
7.0405589
7.0365146
7.0323875
7.02818
7.0238945
7.0195333
7.0150982
7.0105917
7.0060166
7.0013756
6.996675
6.9919185
6.9871384
6.9823435
6.9774208
6.9724903
6.967502
6.9624764
6.9574088
6.952302
6.9471568
6.9419743
6.9367557
6.9315021
6.7462155
6.7473188
6.7482962
6.7491508
6.749862
6.7504264
6.7508413
6.7510995
6.7512021
6.7511611
6.7509575
6.7505938
6.7500799
6.7494151
6.7485862
6.7476142
6.7464863
6.7452079
6.743785
6.7422135
6.7404988
6.7386458
6.7366532
6.7345274
6.7322703
6.729885
6.7273753
6.7247461
6.7220035
6.7191522
6.7161912
6.71312
6.7099445
6.7066667
6.7032894
6.6998153
6.6962471
6.6925874
6.6888386
6.6850031
6.6810833
6.6770812
6.6729993
6.6688403
6.6646075
6.660307
6.6559413
6.651541
6.6471159
6.6425605
6.6379848
6.6333444
6.6286577
6.6239208
6.6191363
6.6143053
6.6094288
6.6045082
6.413707
6.4155202
6.4171937
6.418729
6.4201083
6.4213293
6.4223892
6.4232825
6.4240108
6.4245836
6.4249856
6.4252172
6.4252899
6.425204
6.4249444
6.4245341
6.4239598
6.423227
6.4223423
6.4213014
6.4201098
6.4187728
6.4172889
6.4156645
6.4139018
6.4120035
6.4099737
6.407817
6.4055399
6.4031473
6.4006379
6.3980108
6.3952722
6.3924243
6.3894699
6.3864117
6.3832524
6.3799945
6.3766407
6.3731933
6.3696547
6.366027
6.3623128
6.3585149
6.3546366
6.3506841
6.3466591
6.3425902
6.3384879
6.3342542
6.3299895
6.3256546
6.321266
6.3168205
6.3123206
6.3077674
6.3031622
6.2985063
6.1087116
6.1111067
6.1133509
6.1154448
6.1173731
6.119134
6.1207252
6.1221421
6.1233869
6.1244668
6.1253691
6.1260954
6.1266556
6.1270503
6.1272645
6.1273224
6.1272107
6.1269339
6.1265002
6.1259044
6.1251522
6.1242495
6.1231943
6.1219931
6.1206482
6.1191623
6.1175392
6.1157836
6.1139022
6.1119002
6.1097757
6.1075278
6.1051628
6.1026829
6.100091
6.0973899
6.0945821
6.0916703
6.088657
6.0855446
6.0823357
6.0790323
6.0756371
6.0721528
6.0685829
6.0649337
6.0612059
6.0574267
6.0536066
6.049655
6.0456634
6.0415972
6.0374713
6.0332829
6.0290346
6.0247277
6.0203632
5.8281822
5.8310518
5.8337618
5.8363122
5.8386896
5.8408929
5.8429198
5.844767
5.8464367
5.8479345
5.8492499
5.8503853
5.8513492
5.8521415
5.8527511
5.853199
5.8534723
5.8535765
5.85352
5.8532975
5.8529142
5.8523768
5.8516827
5.8508386
5.8498469
5.84871
5.8474318
5.8460167
5.8444718
5.8428024
5.8410065
5.8390824
5.837037
5.8348725
5.8325917
5.8301973
5.827692
5.8250784
5.822359
5.8195363
5.8166128
5.8135906
5.8104723
5.8072608
5.8039596
5.8005749
5.7971069
5.7935813
5.7900081
5.7863043
5.7825527
5.7787232
5.7748289
5.7708678
5.7668423
5.7627537
5.5694908
5.5727451
5.5758333
5.5787546
5.5814976
5.5840615
5.5864444
5.5886437
5.5906617
5.5925026
5.594158
5.5956307
5.5969279
5.5980493
5.5989868
5.599758
5.6003522
5.6007757
5.6010334
5.6011233
5.6010495
5.600819
5.600429
5.5998862
5.5991929
5.5983515
5.5973655
5.5962396
5.5949807
5.5935948
5.5920793
5.590432
5.5886601
5.5867659
5.5847522
5.5826216
5.5803768
5.5780204
5.5755549
5.5729828
5.5703065
5.5675283
5.5646508
5.5616768
5.55861
5.5554562
5.5522153
5.5489119
5.545555
5.5420691
5.5385287
5.5349079
5.5312182
5.5274582
5.5236301
5.5197353
5.3303621
5.3339262
5.3373193
5.3405402
5.343579
5.3464353
5.3491075
5.3515934
5.3538955
5.3560171
5.3579511
5.3597009
5.3612725
5.3626656
5.3638742
5.3649134
5.3657742
5.3664627
5.3669832
5.3673356
5.3675198
5.3675472
5.367413
5.367124
5.3666827
5.3660913
5.3653531
5.3644726
5.3634569
5.3623124
5.3610363
5.3596257
5.358088
5.3564256
5.3546412
5.3527375
5.3507172
5.3485827
5.3463367
5.3439815
5.3415196
5.3389533
5.3362851
5.3335181
5.3306557
5.3277038
5.3246618
5.3215531
5.3183859
5.3150916
5.3117372
5.3083005
5.3047916
5.3012095
5.2975564
5.1007052
5.1048412
5.1088189
5.1126304
5.1162673
5.1197283
5.1230048
5.1260966
5.1290022
5.1317203
5.134253
5.1366028
5.1387642
5.1407406
5.1425373
5.1441538
5.145586
5.1468466
5.1479283
5.1488369
5.1495762
5.1501464
5.150549
5.1507917
5.1508721
5.1507969
5.1505683
5.1501882
5.1496599
5.1489875
5.1481786
5.1472397
5.146168
5.1449596
5.1436224
5.1421588
5.1405714
5.1388629
5.137036
5.1350931
5.1330367
5.1308694
5.1285934
5.1262112
5.1237253
5.1211386
5.1184546
5.1156791
5.1128113
5.1098735
5.1068727
5.1037469
5.1005565
5.0972821
5.093933
5.0905085
5.0870107
4.8946218
4.8989605
4.9031371
4.9071439
4.910974
4.9146255
4.9180912
4.9213712
4.9244639
4.9273685
4.930087
4.9326215
4.9349674
4.9371283
4.9391087
4.9409081