/*--------------------------------*- C++ -*----------------------------------*\
| =========                 |                                                 |
| \\      /  F ield         | OpenFOAM: The Open Source CFD Toolbox           |
|  \\    /   O peration     | Version:  2.4.0                                 |
|   \\  /    A nd           | Web:      www.OpenFOAM.org                      |
|    \\/     M anipulation  |                                                 |
\*---------------------------------------------------------------------------*/
FoamFile
{
    version     2.0;
    format      ascii;
    class       volScalarField;
    location    "30";
    object      omega;
}
// * * * * * * * * * * * * * * * * * * * * * * * * * * * * * * * * * * * * * //

dimensions      [0 0 -1 0 0 0 0];

internalField   nonuniform List<scalar> 
19477
(
0.45262726
0.45469133
0.45865239
0.46054787
0.46347801
0.46529637
0.47159916
0.47756835
0.48972259
0.51447594
0.53660672
0.58722276
0.6424528
0.69662974
0.76192953
0.83348059
0.89648687
0.94706139
1.0147191
1.0980877
1.1613416
1.227348
1.3076003
1.4150405
1.5591891
1.6943158
1.8105196
1.9298525
2.0507673
2.2896489
2.7755893
3.5135419
4.8857145
6.6073657
8.4697902
9.2820089
0.54811933
0.53749722
0.52709513
0.51728401
0.50775324
0.49871573
0.49007232
0.48186715
0.47418555
0.46692639
0.46031183
0.45422483
0.44888062
0.44445891
0.4411016
0.43890758
0.43771698
0.43704546
0.43686107
0.43694762
0.43718059
0.43797774
0.43845848
0.43974396
0.44047844
0.44153898
0.44217686
0.44315938
0.44373639
0.4448413
0.44545168
0.44696601
0.44916174
0.44761109
0.44954687
0.4522027
0.45452394
0.45526438
0.45707067
0.45880932
0.4641621
0.46899555
0.48342985
0.50134439
0.52804019
0.57836491
0.63137197
0.69068741
0.75593348
0.82400055
0.88737892
0.93942801
1.0062474
1.0836569
1.1454446
1.2183003
1.2922536
1.3893899
1.5215697
1.6470081
1.774361
1.90189
2.0132374
2.2429817
2.6103822
3.2374598
4.3821199
5.7902632
7.7101698
8.7774828
9.1618001
9.1411839
9.0017623
8.7099742
8.2716916
7.776495
0.50872852
0.50002577
0.49174451
0.48398438
0.47651807
0.46959797
0.46304085
0.45700426
0.451341
0.44632743
0.44208171
0.43889148
0.43666061
0.43532033
0.43452114
0.43414839
0.43411613
0.43431965
0.43456623
0.43523215
0.4357925
0.43666034
0.43749648
0.43868497
0.4393209
0.44032677
0.44078788
0.44167358
0.44201624
0.44280981
0.44317571
0.44391504
0.4461708
0.4449976
0.44674566
0.44851933
0.45051142
0.45058238
0.45141677
0.45205784
0.45430506
0.45783008
0.46305547
0.47681339
0.49147258
0.52034916
0.56721643
0.61919467
0.68225168
0.74578855
0.81267158
0.8761845
0.92734597
0.99480246
1.0639902
1.1263513
1.2029971
1.2698239
1.3619539
1.4795407
1.5892793
1.7282313
1.8508142
1.9652481
2.1826308
2.453187
3.0162839
3.837908
5.0580617
6.716243
8.1498356
8.7123957
8.8285261
8.7400504
8.5361168
8.2022253
0.47498672
0.46795234
0.46162634
0.45552968
0.44993425
0.4449784
0.44081668
0.43745898
0.43507776
0.4334246
0.43231216
0.43163239
0.4312006
0.43117321
0.4314065
0.43172611
0.43205417
0.43269135
0.4332833
0.43412041
0.43480845
0.43590865
0.43684109
0.43791797
0.43851937
0.43938649
0.43978609
0.44050518
0.44077817
0.44135623
0.44155815
0.44219211
0.44419168
0.4433275
0.44478154
0.44650151
0.44793735
0.44779751
0.44778684
0.44818946
0.44871231
0.45053422
0.45321909
0.4583229
0.47025083
0.4835528
0.51233646
0.55416305
0.60543372
0.67026969
0.73097264
0.79992889
0.86099241
0.91243998
0.97924564
1.0393636
1.1032595
1.1805144
1.2393093
1.3355059
1.4311251
1.5313452
1.6757611
1.7710298
1.9203599
2.0874031
2.3194602
2.7721541
3.3628399
4.4089625
5.6743647
7.3248192
8.1554385
8.4766418
8.4525866
8.3355887
0.44539913
0.44058838
0.43651874
0.43356324
0.43135654
0.42989815
0.42887348
0.42820945
0.42782539
0.42776489
0.42785975
0.42809452
0.42846667
0.42900755
0.42954095
0.43020776
0.43083623
0.43167133
0.43236818
0.43333945
0.43428
0.43550566
0.43634724
0.43726275
0.43777948
0.43849058
0.43883256
0.43941615
0.43964169
0.44009916
0.4402192
0.44079941
0.44261669
0.44193455
0.44315557
0.44499941
0.44613936
0.44590444
0.44558961
0.44548971
0.44559874
0.44600964
0.44748994
0.44952161
0.45449269
0.46401603
0.47656289
0.50389212
0.53911203
0.58992789
0.65300246
0.71182458
0.78413145
0.84162043
0.89555827
0.96043111
1.0093988
1.0784271
1.1461772
1.2027492
1.3058111
1.3684678
1.4915216
1.5952234
1.7036687
1.8530052
1.9741449
2.2300381
2.4950016
3.0226223
3.7546282
4.7863186
6.1242328
7.4216397
7.9726664
8.1327793
0.42626784
0.42487017
0.42399279
0.42342733
0.4232007
0.42324713
0.4234379
0.42375675
0.42424283
0.42483523
0.42549394
0.42615515
0.42690613
0.42762203
0.42835433
0.42911395
0.42988756
0.43086963
0.43181708
0.43298906
0.43404466
0.43508757
0.43578002
0.43652475
0.43693301
0.43750672
0.43777846
0.43826115
0.43844025
0.43882451
0.43890654
0.43945369
0.44116321
0.44057795
0.44166629
0.44358129
0.4446411
0.44435665
0.44400749
0.44357839
0.44350087
0.44345183
0.44373957
0.44470458
0.44657324
0.45086282
0.45850206
0.46999624
0.49495354
0.52333074
0.57282145
0.63002515
0.68769117
0.76335825
0.81537121
0.8789301
0.93609588
0.97921034
1.0555715
1.0961359
1.1779798
1.246406
1.3205813
1.4341209
1.5064817
1.6508922
1.7391109
1.8993985
2.0729304
2.3047697
2.6974803
3.2185554
4.0207678
5.0136638
6.2952078
7.2483269
0.41763403
0.41773758
0.41801738
0.41845606
0.41912884
0.41979615
0.42060969
0.4214436
0.42229283
0.42319863
0.42398721
0.42487789
0.42562277
0.42643177
0.42725583
0.42827186
0.42935067
0.43047688
0.43154188
0.43280014
0.43367653
0.43453036
0.43505761
0.43563835
0.43592442
0.43637704
0.43656862
0.43697037
0.43710356
0.43743916
0.43750043
0.43803942
0.43966685
0.43904291
0.44014612
0.44204978
0.44315972
0.44288432
0.44245082
0.44216905
0.44172182
0.44161928
0.44163949
0.44175
0.44233786
0.44391817
0.44732208
0.4532957
0.46348915
0.48490967
0.50786118
0.55571529
0.60104295
0.66181006
0.7324605
0.78163573
0.86066604
0.895793
0.96376524
1.012053
1.0622081
1.1368896
1.1842653
1.285322
1.3417911
1.4530065
1.5499542
1.6540122
1.7963853
1.9280165
2.1409226
2.3992706
2.812387
3.3430846
4.1224634
5.0333266
0.41321283
0.41401942
0.41490643
0.41588587
0.41684971
0.41786513
0.41886773
0.41983373
0.42081766
0.42169938
0.42259435
0.42347193
0.42445874
0.4255769
0.42672897
0.42796748
0.42915321
0.43030807
0.43144517
0.43244291
0.43312296
0.43377554
0.43414561
0.43456475
0.43473268
0.43506987
0.43518034
0.43550592
0.43559106
0.43588295
0.43592804
0.43646952
0.43807923
0.43727364
0.43846359
0.44030571
0.44152326
0.44126035
0.44087421
0.44055829
0.44031982
0.43992597
0.43982736
0.43980881
0.44003504
0.44050051
0.44175024
0.44431658
0.44869248
0.4582819
0.47344653
0.49400631
0.53590786
0.56975455
0.63869799
0.68429361
0.75721245
0.81601751
0.86623449
0.9337419
0.96801639
1.0375482
1.0766225
1.144261
1.2132393
1.2747841
1.3782881
1.4459571
1.5741381
1.6622661
1.8209225
1.9465211
2.1982114
2.4297908
2.8650393
3.3473876
0.41079522
0.41188116
0.4129952
0.41409244
0.41517468
0.41625253
0.41722597
0.41828159
0.419278
0.42040487
0.42155313
0.42278516
0.42401553
0.4252949
0.42657532
0.42784712
0.42903821
0.43020532
0.43112381
0.43186416
0.43237005
0.43281053
0.43304492
0.43328844
0.43334636
0.43355926
0.43360015
0.43383808
0.43388856
0.43412761
0.43415535
0.43470025
0.43633397
0.43523436
0.43652717
0.43829286
0.43961908
0.43937274
0.43903415
0.43877029
0.43857128
0.43841002
0.43813169
0.43812455
0.43813489
0.43813838
0.4386909
0.43938753
0.44109091
0.44470606
0.45296832
0.46254003
0.48576112
0.50723189
0.54969579
0.59640462
0.64520467
0.71515994
0.76303811
0.83479885
0.88176802
0.9380731
0.99205429
1.0325832
1.1003502
1.1410427
1.2246441
1.2750491
1.3792096
1.4430012
1.575903
1.6563363
1.8165023
1.9633071
2.1696853
2.4512278
0.40898061
0.41013994
0.41124371
0.41239704
0.41351615
0.41471387
0.41596339
0.41725468
0.41856043
0.41990053
0.42122482
0.42257265
0.42390138
0.42523763
0.42654742
0.42782512
0.42893223
0.42983308
0.43051834
0.43101914
0.43136263
0.43158226
0.43170407
0.43171412
0.43170962
0.43176575
0.4317516
0.4319067
0.43192511
0.43211558
0.43212718
0.43267769
0.43435605
0.43299829
0.43438661
0.43607937
0.43750159
0.43727
0.43697119
0.43677462
0.43662839
0.43658426
0.43656261
0.43655924
0.43657524
0.4364704
0.43663474
0.43687627
0.4373823
0.43860949
0.44144843
0.44623556
0.45498257
0.47103356
0.48909426
0.52729711
0.55494916
0.61247123
0.65563277
0.71771415
0.77799045
0.82874617
0.89564082
0.93397715
1.0004512
1.0343181
1.1035599
1.1411972
1.2211574
1.2694035
1.3578896
1.4415153
1.5322079
1.6544452
1.7721605
1.9334363
0.39541194
0.3964803
0.3975801
0.39877941
0.39994332
0.40120183
0.40238761
0.40359414
0.40478326
0.40600076
0.40725045
0.40854037
0.40990493
0.41127582
0.41269012
0.41409694
0.4155325
0.41694007
0.41837305
0.41977132
0.42116253
0.42254126
0.42391311
0.42526117
0.42654882
0.42763784
0.42850497
0.42915983
0.42964175
0.42991933
0.43011443
0.43010541
0.43003001
0.42993135
0.4298472
0.42979332
0.42976539
0.42980239
0.42978621
0.42991295
0.42990535
0.43045983
0.43218625
0.43040808
0.43188359
0.4334897
0.43501445
0.43479855
0.43455719
0.43442596
0.43437034
0.43446097
0.43443657
0.43449744
0.43450333
0.43457476
0.43472615
0.4348904
0.43519822
0.435823
0.43655551
0.43836991
0.4415862
0.44951633
0.45784887
0.47561681
0.49860312
0.5247795
0.56965046
0.60265797
0.66767896
0.7061982
0.78010573
0.81852823
0.89196409
0.9283482
0.99437886
1.0343543
1.0916265
1.1440314
1.1973777
1.2640447
1.3327645
1.4067875
1.5067563
1.5918497
0.39313748
0.39436247
0.39560209
0.39680927
0.39808077
0.39932426
0.40065635
0.40203202
0.40347576
0.40493138
0.40643118
0.40791551
0.40944683
0.41093355
0.41246087
0.41394052
0.41543989
0.4168818
0.41836321
0.41976012
0.42124621
0.42266376
0.42412222
0.42536086
0.4264374
0.42720579
0.42786436
0.4282312
0.42851166
0.42859785
0.42853731
0.42842411
0.42827382
0.42803488
0.42785608
0.42765304
0.42754169
0.42743383
0.42738457
0.42740352
0.42736396
0.4279159
0.42967046
0.42746152
0.4289428
0.43044288
0.43202214
0.43181341
0.4316102
0.43154982
0.43165015
0.43177206
0.43202497
0.43223336
0.43243623
0.43258486
0.43270492
0.43276492
0.43286656
0.43315224
0.43342432
0.43410044
0.43526473
0.43768635
0.44243004
0.44892059
0.46278208
0.47534324
0.50313616
0.52370633
0.5687405
0.59782425
0.65897759
0.69474051
0.76113689
0.80717964
0.86754035
0.91852647
0.97294052
1.0222416
1.0785508
1.1212859
1.187776
1.2306866
1.3076912
1.3651442
0.39123362
0.39254949
0.39393065
0.39536297
0.39684918
0.398354
0.39990259
0.40145319
0.40304045
0.40460794
0.40620024
0.40776315
0.40934686
0.41087364
0.41243915
0.41393925
0.41548259
0.41698884
0.41851801
0.42006366
0.42168217
0.42298637
0.4241653
0.42514627
0.4258543
0.42645029
0.42675369
0.42702065
0.42701323
0.42693629
0.42678215
0.4265674
0.42622253
0.4258933
0.42552184
0.42524542
0.42498799
0.42481924
0.42467539
0.42459983
0.42447147
0.42501944
0.42674482
0.42429318
0.42569901
0.42710593
0.42861373
0.42838239
0.42816377
0.42806121
0.42822142
0.42845476
0.4288531
0.42934057
0.42982673
0.4302767
0.43064322
0.43082732
0.43097682
0.43105301
0.43130512
0.43141173
0.43195011
0.43251849
0.43420418
0.43673557
0.44280483
0.44887378
0.4629808
0.47449878
0.50049876
0.51922395
0.559425
0.58782924
0.6371535
0.67892338
0.73419449
0.78067499
0.84159661
0.88585631
0.94987984
0.99099974
1.0522301
1.0960925
1.1518035
1.2041113
0.39013829
0.39167235
0.39324213
0.39483033
0.39644297
0.39805866
0.39969627
0.40131678
0.40294876
0.40456123
0.40617939
0.4077956
0.4093965
0.4110243
0.41263076
0.41425878
0.41589111
0.41752728
0.41926145
0.42070889
0.42186402
0.42299851
0.42383473
0.42453321
0.42501148
0.42530895
0.42548694
0.42545536
0.42535724
0.42517126
0.42482881
0.42448987
0.42397345
0.42357066
0.42307555
0.42274619
0.42237127
0.42214613
0.42187905
0.42174088
0.4214494
0.42197672
0.42362466
0.42120151
0.42246922
0.42384013
0.4251698
0.42489092
0.42452262
0.42437188
0.42436941
0.42456188
0.42496845
0.42553347
0.42623403
0.42698284
0.42774036
0.4283617
0.42887194
0.42918829
0.42933845
0.42964031
0.42973121
0.42976486
0.43038608
0.43083828
0.43307074
0.43554072
0.44167477
0.4473458
0.46045842
0.47081977
0.49352882
0.51062994
0.54391402
0.57094252
0.61523175
0.65015457
0.70325988
0.74518759
0.80142929
0.84975902
0.90310048
0.95542706
1.0045863
1.0571573
0.3897752
0.39140593
0.39305862
0.39470632
0.39636602
0.39803133
0.39969347
0.40138737
0.40306458
0.40479182
0.406493
0.4082449
0.40996746
0.41173534
0.41345771
0.4152287
0.41700686
0.41848764
0.41972495
0.42078389
0.42179613
0.42251778
0.42316919
0.42353684
0.42383985
0.42392207
0.42387225
0.42375381
0.42347944
0.42319127
0.42266861
0.42226406
0.42164072
0.42119391
0.4206132
0.42024982
0.41978981
0.41952446
0.41915825
0.41896794
0.41852196
0.41902788
0.42059296
0.41840065
0.41954575
0.42092791
0.42208682
0.42176377
0.4212666
0.42095831
0.4207846
0.42081282
0.42091309
0.42137277
0.42190573
0.42266483
0.42356647
0.42449915
0.42541931
0.42627675
0.42690119
0.42747393
0.42774959
0.42785106
0.42795005
0.42819401
0.42850804
0.42933112
0.43138868
0.43368425
0.43919305
0.44412164
0.45522015
0.46406063
0.48280653
0.49837433
0.52585101
0.55078047
0.58535815
0.62112862
0.66130384
0.70644413
0.75090209
0.80069698
0.84865522
0.89809388
0.94819356
0.99469682
1.0448621
1.08875
1.1376239
1.1804835
1.2281735
1.2715488
1.3195533
1.3640996
1.413367
0.38972452
0.39139094
0.39311361
0.39482697
0.39661317
0.39837778
0.400229
0.40204126
0.4039428
0.40578715
0.40769749
0.40953453
0.41141358
0.41317815
0.41491801
0.41640016
0.41763009
0.41870347
0.41969124
0.42052989
0.42118593
0.42172311
0.42204171
0.4222977
0.42229746
0.42223737
0.42205963
0.42183118
0.42137843
0.42102445
0.42040666
0.41994763
0.41926888
0.41879522
0.41816877
0.41778827
0.41728224
0.41699686
0.4165757
0.41635578
0.41581169
0.41631318
0.41783637
0.41586222
0.41696693
0.41837876
0.41947536
0.41913446
0.41859975
0.41813882
0.4178605
0.41763614
0.41759037
0.41765485
0.41797161
0.41839294
0.41900189
0.41983466
0.42072743
0.42179423
0.42284133
0.42384181
0.42476322
0.42535115
0.42592767
0.42615694
0.42640948
0.42663377
0.42716965
0.42788337
0.4295643
0.43130283
0.43583385
0.43996783
0.44822169
0.4570666
0.46987752
0.4859989
0.50436271
0.52870793
0.55429586
0.58602648
0.6200185
0.65702589
0.69864966
0.73899293
0.78529678
0.8274874
0.87480737
0.91717294
0.96300671
1.0036912
1.0470164
1.0849792
1.1259269
1.1613131
1.1995658
1.2331586
0.39010569
0.39198684
0.39387847
0.39586069
0.39782999
0.39986378
0.40187185
0.40390135
0.40589229
0.40778681
0.40961208
0.41138323
0.41301579
0.4144416
0.41563918
0.4167042
0.41765289
0.4185304
0.41920468
0.41980118
0.42020197
0.42049907
0.42065223
0.42063172
0.42054749
0.42037814
0.42002623
0.41972212
0.41916529
0.4187233
0.4180391
0.41751609
0.41679063
0.41627561
0.41562049
0.41522365
0.41470842
0.41442287
0.4140023
0.41378349
0.41322955
0.41375555
0.41530702
0.41328606
0.41443505
0.41587469
0.41702429
0.41669304
0.4161402
0.41572783
0.41533653
0.41507785
0.41483781
0.41479745
0.41480522
0.41490425
0.41523198
0.41557182
0.41632037
0.41685466
0.41796129
0.41877306
0.42003596
0.42098217
0.4220406
0.42290287
0.42356517
0.42416853
0.42460154
0.42508423
0.42559071
0.42642885
0.42757831
0.4297243
0.43206249
0.43669171
0.4411878
0.44952046
0.4583442
0.47087204
0.48604905
0.50328775
0.52589324
0.54851763
0.5780228
0.60646561
0.64122219
0.67473538
0.71293474
0.749303
0.78916377
0.82570873
0.86514697
0.9001318
0.9374145
0.97024307
1.0039537
1.0342959
1.0637952
0.39189447
0.39402122
0.39619995
0.3983634
0.40043396
0.40248786
0.40439545
0.40628304
0.40804918
0.40974699
0.41128363
0.41259822
0.41373858
0.41476223
0.41569818
0.41651787
0.41725483
0.41780552
0.41831099
0.41860236
0.41886111
0.4189113
0.41887198
0.41876318
0.41850637
0.41824696
0.4177515
0.41732524
0.41666578
0.41611502
0.4153536
0.41474142
0.41396004
0.41338385
0.41270704
0.41228944
0.41179182
0.41152072
0.41114814
0.410958
0.41047876
0.41105793
0.41270183
0.41025807
0.411534
0.41297415
0.41429078
0.41399853
0.4135088
0.41320919
0.41286054
0.4126433
0.41238753
0.41228167
0.41211182
0.41211127
0.41214713
0.41215854
0.41239081
0.41280657
0.41323098
0.41404699
0.41465895
0.41591432
0.4166735
0.41806834
0.41888703
0.42008956
0.42080609
0.42174915
0.42234844
0.42312894
0.42380801
0.42468761
0.42589819
0.42724701
0.42966283
0.43205756
0.43692541
0.44111762
0.4495087
0.45680041
0.46940061
0.48123443
0.49826303
0.51545187
0.5370565
0.55923702
0.58529025
0.61125698
0.64074909
0.66903243
0.6999515
0.7291676
0.75965435
0.78847377
0.81716044
0.84410878
0.87026331
0.89398098
0.39518045
0.39732166
0.39934022
0.40130255
0.40316937
0.40498535
0.40670053
0.40828059
0.40966149
0.4108517
0.41192642
0.41285847
0.41379081
0.41454318
0.41526635
0.41581954
0.41630079
0.41665349
0.41689293
0.41703702
0.41702407
0.41694583
0.41674838
0.41650708
0.4160642
0.41563369
0.41500703
0.41442593
0.41365511
0.41296883
0.41211331
0.41139126
0.41054374
0.40989369
0.40919273
0.40874933
0.40827504
0.40802134
0.40771416
0.40756464
0.40720455
0.40785363
0.40962942
0.40656021
0.40801165
0.40942436
0.41098918
0.41075988
0.41044458
0.41024967
0.41010166
0.4100093
0.40998024
0.40997406
0.40995433
0.40994738
0.40992395
0.40970645
0.40970231
0.4096459
0.409867
0.41000419
0.41034748
0.41084208
0.41141746
0.41228248
0.41326127
0.41428757
0.41545477
0.41644527
0.41762838
0.4184687
0.41963474
0.4203289
0.42156158
0.42229772
0.42377128
0.42481933
0.42703812
0.42878182
0.43249918
0.43547298
0.44137653
0.44676567
0.45524571
0.46398069
0.47573232
0.48794586
0.50335322
0.51895964
0.53757011
0.55617066
0.57688583
0.59760278
0.61938676
0.64098088
0.66284263
0.68389579
0.70489465
0.72418769
0.39839503
0.4002809
0.4020937
0.40384238
0.40543158
0.4068291
0.40805392
0.40911046
0.41011474
0.4110045
0.41186077
0.41258214
0.41323885
0.41376673
0.4142095
0.4145485
0.41477146
0.4149199
0.41491483
0.41485363
0.41466793
0.41442289
0.41400474
0.41355706
0.41294325
0.41232602
0.4115483
0.410798
0.40989965
0.40906782
0.4081142
0.40727898
0.40636972
0.40564805
0.40493079
0.40446528
0.40402029
0.40378719
0.40355175
0.40344793
0.40322841
0.40395211
0.40586866
0.40225534
0.40384132
0.40520166
0.40695028
0.40677362
0.4065833
0.40654934
0.4065378
0.40669985
0.40685633
0.40704615
0.40723806
0.40730796
0.40754667
0.40755757
0.40755253
0.40746301
0.40729394
0.40733128
0.40732579
0.40746869
0.40763083
0.40792156
0.40842628
0.40897264
0.40988984
0.41055629
0.4118407
0.41256074
0.41401926
0.41477264
0.41625123
0.41700354
0.41852188
0.41932186
0.4210168
0.42199916
0.4241658
0.42557987
0.42857971
0.43092875
0.43516202
0.4390699
0.4451413
0.45102938
0.4593164
0.46758358
0.47807081
0.48875826
0.50114748
0.51383745
0.52776763
0.5417753
0.55664495
0.57110271
0.58611166
0.60016036
0.40099953
0.40260939
0.40400963
0.40525669
0.40631408
0.4073357
0.40823183
0.40910662
0.40985216
0.41051843
0.41109855
0.41155106
0.41195559
0.41221457
0.4124211
0.41250549
0.41248926
0.41240657
0.41220904
0.41195141
0.41152974
0.41106921
0.41045257
0.40981464
0.40903086
0.408248
0.40733234
0.40644624
0.40544697
0.40451363
0.40349898
0.40259854
0.4016663
0.40091387
0.40020533
0.39973789
0.39932372
0.39910938
0.39892565
0.39885427
0.39873096
0.39951069
0.40152001
0.39777438
0.39944182
0.40074791
0.40262455
0.40248704
0.40238441
0.40246647
0.40258474
0.40285572
0.40323763
0.40358931
0.40405275
0.40434467
0.40467431
0.40490527
0.40501046
0.40505161
0.40522478
0.4051786
0.40522574
0.40510347
0.40510806
0.40513577
0.40518069
0.40525721
0.40551422
0.40589475
0.40654293
0.40714132
0.40814486
0.40883427
0.41018635
0.4109642
0.412487
0.41332019
0.41497591
0.41589054
0.41771759
0.41876507
0.42085552
0.42219693
0.42480914
0.42671631
0.4301145
0.43297275
0.4374176
0.44160835
0.44728885
0.45296118
0.4599413
0.46700367
0.47525317
0.48349502
0.49274757
0.50178007
0.51156618
0.52088094
0.40240021
0.40348057
0.40450886
0.4054267
0.40629821
0.40706027
0.40772198
0.40831057
0.40876654
0.40917295
0.40945572
0.40965918
0.40979341
0.40979537
0.4097467
0.409629
0.40938133
0.40909575
0.40866885
0.40820892
0.4076042
0.40697467
0.40620745
0.40543385
0.40453592
0.4036537
0.40266382
0.40171589
0.40068154
0.39971957
0.39870276
0.39779736
0.39688444
0.39613826
0.39545663
0.39499658
0.39460882
0.39440581
0.39425055
0.39420163
0.39413597
0.39495761
0.39701718
0.39320308
0.39491841
0.3961733
0.39813108
0.39802643
0.39798238
0.39811574
0.3983566
0.39870898
0.39921912
0.39975575
0.40035641
0.40093667
0.40143266
0.40192613
0.40226483
0.40252192
0.4027224
0.40283966
0.402916
0.40300078
0.40301897
0.40301064
0.40291725
0.40267642
0.40268654
0.40267463
0.40288737
0.40301289
0.40348037
0.40383387
0.40469074
0.40520867
0.40640045
0.40712068
0.40854621
0.40938244
0.41103885
0.41202227
0.41385586
0.41498563
0.41702865
0.41838098
0.42070115
0.42246236
0.42518904
0.42756343
0.43086913
0.43398109
0.43798325
0.44187639
0.44664777
0.45133746
0.45682499
0.46220147
0.46822214
0.47405064
0.40252377
0.40340115
0.404162
0.40482293
0.40539609
0.40583956
0.40622726
0.4064903
0.4066806
0.40680595
0.40680804
0.40676974
0.40665178
0.40647703
0.40619626
0.40587664
0.40544771
0.40499125
0.40441759
0.40382727
0.40311279
0.40239066
0.40155118
0.40072373
0.39979106
0.39889044
0.39789803
0.39695903
0.39594461
0.39500775
0.39402192
0.39314539
0.39226284
0.39153792
0.39087489
0.39042066
0.39003641
0.3898298
0.38967036
0.38961972
0.38956297
0.39038164
0.39243696
0.38882076
0.3905316
0.39174214
0.39371213
0.39363078
0.39360396
0.39375384
0.39403235
0.39444694
0.39499765
0.39566497
0.39635134
0.39711727
0.39779054
0.39849093
0.39907314
0.39958283
0.39999244
0.40030253
0.40051326
0.40062065
0.40073066
0.40083699
0.40079895
0.40068548
0.40058772
0.40038533
0.40023204
0.40021708
0.40030145
0.40039129
0.40067046
0.40090674
0.40151926
0.40191281
0.40288215
0.4034643
0.40471187
0.40548874
0.40699671
0.4079948
0.40969402
0.41088646
0.41273185
0.41414475
0.4161609
0.41784967
0.42011331
0.42213485
0.42470694
0.4271046
0.43004774
0.43287706
0.43621321
0.43947089
0.44316591
0.44677771
0.40176084
0.40231115
0.40274791
0.40311831
0.40334615
0.4035312
0.40361239
0.40360663
0.4035629
0.40345453
0.40326849
0.40304663
0.40274368
0.4024111
0.40199649
0.40156274
0.40104003
0.40050847
0.39987752
0.39924725
0.39850779
0.39777748
0.39694129
0.39613114
0.39522245
0.39435576
0.39339876
0.39250147
0.39152535
0.39063054
0.38967904
0.38883879
0.38798112
0.38728112
0.38662715
0.38618066
0.38578753
0.38557476
0.38539373
0.38532973
0.38524577
0.38604813
0.38806627
0.38470975
0.38639536
0.38758011
0.38952598
0.38944815
0.38943028
0.38956549
0.38984662
0.39026313
0.39081599
0.39151478
0.39224703
0.39308576
0.39388382
0.39470969
0.39548549
0.39619395
0.39683132
0.39738435
0.39780497
0.39816239
0.39836223
0.39852899
0.39863578
0.398688
0.39870954
0.39864289
0.39847391
0.39825671
0.39793811
0.3978802
0.39789736
0.39797606
0.39808313
0.39823157
0.39864261
0.39892479
0.39966996
0.40013201
0.40114294
0.40182877
0.4030932
0.40404973
0.40550247
0.40667005
0.40827228
0.40962417
0.41137096
0.41290363
0.41479502
0.41651411
0.41857199
0.42050598
0.422747
0.42490331
0.42732908
0.42969026
0.39986247
0.4000962
0.40027611
0.40035163
0.40034784
0.40030452
0.40019456
0.40004117
0.39982585
0.39958434
0.39928553
0.398966
0.39858793
0.3981951
0.39773893
0.39727307
0.39673458
0.39619253
0.39556543
0.39494183
0.39422024
0.39350911
0.39269871
0.3919134
0.39103259
0.39019094
0.38925993
0.38838533
0.38743129
0.3865565
0.38562268
0.38479995
0.38395505
0.38326871
0.3826199
0.38217941
0.38178206
0.38156765
0.38137463
0.38130336
0.38119945
0.38198721
0.38397063
0.38078515
0.38245681
0.38362863
0.38556208
0.38549205
0.38547692
0.38561312
0.38588621
0.3862902
0.38682528
0.38750388
0.38823299
0.38906881
0.38990986
0.39078387
0.39166205
0.3924978
0.39329938
0.39404633
0.39468415
0.39527006
0.3957097
0.39608403
0.39632991
0.39652317
0.39661024
0.39673519
0.39673646
0.39669287
0.39650845
0.39625139
0.39599201
0.3957184
0.3956568
0.39567117
0.39571646
0.39584985
0.39604119
0.3962973
0.39675596
0.39715853
0.39789278
0.39848085
0.39949161
0.40033214
0.40152725
0.40256301
0.40389925
0.40509383
0.40653845
0.40786732
0.40941499
0.41087617
0.41252646
0.4141096
0.41585881
0.4175481
0.39710397
0.39713633
0.39712326
0.39706514
0.39694434
0.39678815
0.39658153
0.39635325
0.39607939
0.39579131
0.39545406
0.39510749
0.3947052
0.39429751
0.3938247
0.39335047
0.39279982
0.39225243
0.39161603
0.3909881
0.39025872
0.38954368
0.38872608
0.38793711
0.38705082
0.38620709
0.3852752
0.38440265
0.38345479
0.38258842
0.38166803
0.38085937
0.38003166
0.37935986
0.37872404
0.37829052
0.37789698
0.37768255
0.37748733
0.37741493
0.37730947
0.37808909
0.380054
0.37697803
0.37863554
0.37978697
0.38171925
0.38166561
0.38166529
0.381801
0.38209737
0.38249507
0.38303825
0.38370042
0.3844193
0.38523279
0.38605938
0.38693067
0.38781569
0.38869874
0.38957391
0.39042134
0.39122543
0.39196225
0.39263535
0.39320877
0.39368744
0.3940893
0.39435519
0.39461212
0.39470157
0.39483186
0.39486442
0.39482954
0.39472077
0.39443867
0.39417056
0.39391356
0.39368827
0.39364035
0.39365149
0.39368013
0.3938004
0.39394848
0.39426808
0.39454329
0.39506928
0.39554345
0.39630928
0.39700859
0.39793506
0.39880381
0.39984887
0.40084818
0.40199658
0.40311185
0.40435498
0.40556913
0.40689492
0.40818992
0.39416435
0.3941396
0.39406099
0.39393501
0.39376077
0.39355571
0.39330566
0.39303357
0.39271707
0.39238494
0.3920024
0.39161033
0.39115894
0.39070532
0.39018116
0.38966322
0.38906198
0.38847586
0.38779344
0.38713478
0.38636811
0.38563411
0.3847919
0.38399937
0.38310452
0.38227452
0.38135208
0.38050943
0.37958747
0.37876269
0.37787809
0.37711388
0.37632002
0.37568203
0.3750614
0.37463686
0.374232
0.37400721
0.37378326
0.373697
0.37356055
0.37432526
0.37625882
0.37345085
0.37504781
0.37616868
0.37804724
0.37798698
0.37797271
0.37812234
0.37839014
0.37880979
0.37933689
0.38002437
0.38074156
0.38156829
0.38238988
0.38326422
0.38413307
0.38501656
0.38589787
0.38676203
0.38763269
0.38843967
0.38924752
0.38996228
0.39063047
0.3912258
0.39170518
0.39216494
0.39246261
0.39276068
0.39294707
0.39306735
0.39315517
0.39313377
0.39304936
0.39285337
0.39256715
0.39231225
0.39210281
0.39192402
0.39187557
0.39188269
0.39192233
0.39199873
0.39216052
0.39234792
0.39270269
0.39308348
0.39364066
0.39419741
0.39489192
0.39558216
0.39639494
0.39720096
0.39812112
0.39902921
0.40004647
0.40104421
0.39158106
0.39147935
0.39132177
0.39111976
0.39086763
0.39058046
0.39024661
0.38988903
0.38948651
0.38907041
0.38860463
0.38813566
0.38760892
0.38709081
0.38650357
0.38593802
0.3852895
0.38467617
0.3839653
0.38330249
0.38252869
0.38181552
0.3809882
0.38024089
0.37938045
0.37861638
0.37774307
0.37697998
0.37611491
0.37537372
0.37454383
0.37385541
0.37310073
0.3725159
0.37190145
0.37149202
0.37105237
0.37081018
0.37052067
0.37040068
0.37017364
0.3709057
0.37276686
0.37042895
0.37192054
0.37302961
0.37478503
0.37468908
0.37463358
0.37473497
0.37494981
0.37531258
0.37580183
0.37644269
0.37715563
0.37797007
0.37880214
0.37969156
0.38056913
0.3814664
0.38235307
0.3832211
0.38409987
0.38493084
0.38577251
0.38656169
0.38731851
0.38804089
0.38867488
0.38929677
0.38979773
0.39028177
0.39066506
0.39098838
0.39127148
0.39142301
0.39159579
0.39159686
0.39155092
0.39141558
0.39119879
0.39094971
0.390736
0.39056618
0.3904376
0.39037663
0.39037805
0.39040139
0.39047114
0.39059682
0.3908626
0.39115649
0.39157502
0.39199915
0.39254542
0.39309134
0.39375561
0.39441696
0.39519262
0.39596652
0.39684714
0.39772924
0.38911155
0.38890525
0.38864402
0.38833836
0.38798491
0.38759957
0.38717264
0.38672815
0.38624559
0.3857585
0.38522924
0.38470849
0.38413699
0.38358822
0.38297601
0.38240182
0.38174841
0.38114869
0.38045262
0.37982519
0.37908493
0.37842755
0.37764969
0.3769744
0.37617374
0.37549246
0.37468275
0.37400689
0.37320262
0.37254587
0.37176675
0.37115178
0.37042886
0.36989615
0.36928258
0.36889158
0.36841672
0.36816185
0.36780779
0.3676525
0.36732276
0.36801773
0.36979439
0.3678593
0.36924737
0.37036756
0.37199491
0.3718785
0.37177769
0.37178633
0.37193953
0.3722096
0.37262051
0.3731707
0.37381085
0.37456809
0.37536625
0.37623397
0.37711851
0.3780169
0.37892657
0.3798073
0.38069812
0.38154562
0.38239378
0.38320652
0.38399641
0.38476607
0.38548401
0.38619491
0.38682999
0.38745214
0.38800498
0.38850455
0.38897467
0.38934708
0.38969913
0.38995658
0.39013586
0.39025784
0.39024581
0.39018156
0.39003024
0.38984701
0.38965734
0.38949657
0.38937014
0.38927236
0.38922712
0.38922877
0.38926516
0.38936642
0.38959133
0.38982802
0.39017977
0.3905421
0.39101461
0.39150102
0.39209331
0.3927072
0.3934232
0.39416871
0.3867313
0.38641327
0.38604551
0.38563942
0.38519311
0.38472339
0.38422068
0.3837105
0.38317076
0.3826378
0.38207024
0.38152373
0.38093223
0.38037751
0.37976264
0.37920157
0.37856159
0.37799298
0.37732503
0.37674523
0.37604638
0.37545106
0.3747255
0.37412236
0.37338076
0.37277711
0.37202852
0.37143126
0.37068486
0.37010281
0.36937215
0.36882168
0.36813002
0.36764289
0.36703308
0.3666581
0.36615639
0.36589118
0.36548637
0.3653031
0.36489169
0.36555744
0.36726882
0.36565975
0.36694326
0.36807988
0.36958178
0.36944576
0.36928158
0.36923709
0.36931122
0.36949222
0.36981003
0.37025147
0.37079905
0.37144112
0.37217114
0.37295719
0.37380729
0.37467725
0.37558222
0.37647716
0.37738146
0.37825598
0.37912312
0.37995636
0.38076753
0.38155534
0.38231017
0.38305284
0.3837581
0.38443971
0.38510209
0.38571037
0.38631373
0.38685495
0.38737128
0.38783216
0.38824068
0.38858997
0.38885186
0.38905001
0.3891374
0.38912122
0.38906254
0.38893045
0.38881593
0.38867319
0.38857744
0.38848821
0.3884704
0.38847899
0.38855914
0.3886902
0.388911
0.38916453
0.38950325
0.38988305
0.39034551
0.39085751
0.39145429
0.39210851
0.38434069
0.38392006
0.38345919
0.38297093
0.38245245
0.38192176
0.38136771
0.38081729
0.38024579
0.37969209
0.37911024
0.3785611
0.37797107
0.37743098
0.37683206
0.37630186
0.37569122
0.37516866
0.37454205
0.37402241
0.37337564
0.37285296
0.37218808
0.37166623
0.37099006
0.37047186
0.36978896
0.36927636
0.36859054
0.36808689
0.36740502
0.36691968