y,k
0,1e-10
0.00048240845,2.4591514e-08
0.00098049384,1.7382731e-07
0.0014947656,7.2431434e-07
0.0020257498,2.0995092e-06
0.0025739895,4.8686962e-06
0.0031400454,9.7525228e-06
0.0037244966,1.7639493e-05
0.0043279408,2.9607022e-05
0.0049509953,4.6944836e-05
0.0055942973,7.117862e-05
0.0062585048,0.00010409066
0.0069442972,0.00014773197
0.007652376,0.00020441722
0.0083834654,0.00027668939
0.0091383131,0.00036723703
0.0099176913,0.00047874485
0.010722397,0.00061366356
0.011553254,0.00077390249
0.012411111,0.00096048277
0.013296846,0.0011732312
0.014211364,0.0014106225
0.015155603,0.0016698581
0.016130526,0.0019471912
0.017137132,0.0022384143
0.018176449,0.0025393633
0.019249542,0.0028463106
0.020357507,0.0031561888
0.021501477,0.0034666529
0.022682624,0.0037760295
0.023902154,0.0040832114
0.025161316,0.0043875344
0.026461397,0.004688665
0.027803728,0.004986505
0.02918968,0.0052811181
0.030620672,0.0055726753
0.032098167,0.0058614153
0.033623676,0.0061476172
0.03519876,0.0064315814
0.03682503,0.0067136163
0.03850415,0.0069940303
0.040237836,0.0072731269
0.042027862,0.0075512006
0.043876059,0.0078285363
0.045784317,0.0081054078
0.047754588,0.0083820781
0.049788888,0.0086587994
0.051889297,0.0089358143
0.054057963,0.0092133556
0.056297104,0.0094916479
0.058609012,0.0097709082
0.06099605,0.010051346
0.06346066,0.010333166
0.066005363,0.010616567
0.068632762,0.010901742
0.071345544,0.011188882
0.074146484,0.011478176
0.077038447,0.011769806
0.08002439,0.012063957
0.083107369,0.012360811
0.086290535,0.012660547
0.089577146,0.012963347
0.092970562,0.013269391
0.096474255,0.013578862
0.10009181,0.01389194
0.10382692,0.014208811
0.10768342,0.01452966
0.11166524,0.014854675
0.11577645,0.015184046
0.12002127,0.015517968
0.12440404,0.015856637
0.12892923,0.016200252
0.13360148,0.016549019
0.13842557,0.016903145
0.14340642,0.017262843
0.14854914,0.017628328
0.15385898,0.017999823
0.15934138,0.018377552
0.16500194,0.018761748
0.17084645,0.019152645
0.17688089,0.019550483
0.18311143,0.019955508
0.18954445,0.020367967
0.19618653,0.020788115
0.20304445,0.021216208
0.21012524,0.021652505
0.21743614,0.022097269
0.22498461,0.022550764
0.23277839,0.023013252
0.24082545,0.023484997
0.24913402,0.023966259
0.25771259,0.024457294
0.26656994,0.024958354
0.27571513,0.025469679
0.28515751,0.025991497
0.29490674,0.02652402
0.3049728,0.027067441
0.31536597,0.027621925
0.3260969,0.028187606
0.33717655,0.028764579
0.34861625,0.029352895
0.36042772,0.029952548
0.37262303,0.030563467
0.38521464,0.031185503
0.39821546,0.031818417
0.41163876,0.032461864
0.42549828,0.033115377
0.4398082,0.033778346
0.45458315,0.034450001
0.46983824,0.035129383
0.48558908,0.03581533
0.50185179,0.036506442
0.5088074,0.036794166
0.51864298,0.037201059
0.53597984,0.037897237
0.5538801,0.038592725
0.57236207,0.039284943
0.59144465,0.039970973
0.61114736,0.040649225
0.63149036,0.041321582
0.65249445,0.041989344
0.67418111,0.042646198
0.69657252,0.043277632
0.7196916,0.04386447
0.74356198,0.044385933
0.76820808,0.044822095
0.79365511,0.04515534
0.8199291,0.045370759
0.84705692,0.045455817
0.87506632,0.045399982
0.90398595,0.045193838
0.93384538,0.044829597
0.96467516,0.044302287
0.99650683,0.043610269
1.0293729,0.042756436
1.0633071,0.041749164
1.098344,0.04060275
1.1345196,0.039335884
1.1668559,0.038154412
1.1718726,0.03797115
1.2104523,0.036535552
1.250285,0.035062852
1.2914115,0.033589123
1.3338737,0.03214105
1.3777151,0.030733955
1.4229805,0.029377694
1.4697159,0.028076629
1.5179692,0.02683982
1.5662215,0.025685438
1.6129542,0.024619363
1.6582152,0.023631552
1.7020508,0.022711547
1.7445059,0.021852789
1.7856241,0.021050788
1.80701,0.020648164
1.8254639,0.020300669
1.8640662,0.019597794
1.9014509,0.018938723
1.9376564,0.018320554
1.97272,0.017740409
2.0066779,0.017194252
2.0395648,0.016674552
2.0714147,0.016173132
2.1022603,0.015686892
2.1321334,0.015215988
2.1610646,0.014760646
2.1890837,0.014320979
2.2162195,0.013896992
2.2424998,0.013488594
2.2679518,0.013095605
2.2926015,0.012717789
2.3164742,0.012354872
2.3395945,0.012006554
2.3619861,0.011672506
2.3836721,0.01135239
2.4046746,0.011045871
2.4250153,0.010752625
2.4298487,0.010683858
2.4447218,0.010472256
2.463809,0.010204543
2.4822943,0.0099492483
2.5001966,0.0097061329
2.5175344,0.0094749829
2.5343255,0.0092556116
2.5505871,0.0090478643
2.5663361,0.0088516188
2.5815885,0.0086667735
2.5963601,0.0084932491
2.610666,0.0083309951
2.624521,0.0081799878
2.6379393,0.0080402269
2.6509346,0.0079117284
2.6635203,0.0077945212
2.6757094,0.0076886412
2.6875143,0.007594126
2.6989472,0.0075110078
2.7100198,0.007439308
2.7207435,0.0073790304
2.7311293,0.0073301543
2.7411879,0.0072926259
2.7509295,0.0072663515
2.7603642,0.0072512012
2.7695016,0.0072469676
2.7783512,0.007253383
2.7869219,0.0072701459
2.7952227,0.0072968758
2.8032619,0.0073331185
2.8110479,0.0073783563
2.8185886,0.0074320098
2.8258918,0.0074934423
2.832965,0.0075619669
2.8398154,0.0076368534
2.8464499,0.0077173376
2.8528756,0.0078026298
2.8590988,0.007891925
2.865126,0.0079844126
2.8709634,0.0080792868
2.876617,0.0081757554
2.8820925,0.0082730466
2.8873956,0.0083704225
2.8925316,0.0084671764
2.897506,0.0085626379
2.9023236,0.0086561833
2.9069896,0.0087472871
2.9115086,0.0088355505
2.9158853,0.0089204614
2.9201242,0.0090011754
2.9242297,0.0090766737
2.9282058,0.0091460215
2.9320568,0.009208487
2.9357865,0.0092635712
2.9393987,0.0093109929
2.9428972,0.0093506601
2.9462856,0.0093826427
2.9495673,0.0094071512
2.9527456,0.0094245105
2.9558239,0.0094351062
2.9588052,0.0094392878
2.9616927,0.0094373219
2.9644893,0.0094293724
2.9671978,0.0094155301
2.9698211,0.0093958763
2.9723618,0.0093704786
2.9748224,0.009339389
2.9772057,0.0093026405
2.9795138,0.0092602448
2.9817494,0.0092121885
2.9839145,0.0091584302
2.9860115,0.0090988971
2.9880424,0.0090334812
2.9900094,0.0089620355
2.9919145,0.0088843696
2.9937597,0.0088002451
2.9955467,0.0087093705
2.9972775,0.008611396
2.9989538,0.0085059069
3.0005773,0.0083924174
3.0021497,0.0082703635
3.0036726,0.0081390964
3.0051476,0.0079978745
3.0065761,0.0078458574
3.0079597,0.0076821002
3.0092997,0.0075054054
3.0105976,0.0073142921
3.0118546,0.0071072007
3.013072,0.0068825923
3.0142511,0.006638971
3.015393,0.0063749291
3.0164991,0.006089221
3.0175703,0.0057808575
3.0186078,0.0054491741
3.0196126,0.0050935959
3.0205858,0.0047139472
3.0215284,0.0043113629
3.0224413,0.0038887582
3.0233255,0.0034511294
3.0241818,0.0030058392
3.0250112,0.0025626242
3.0258144,0.0021330933
3.0265924,0.0017295998
3.0273459,0.0013635916
3.0280757,0.0010438429
3.0287825,0.00077514453
3.0294671,0.00055790564
3.0301301,0.00038872878
3.0307722,0.00026162601
3.0313942,0.00016938606
3.0319965,0.000104716
3.0325799,6.1001964e-05
3.033145,3.2704388e-05
3.0336922,1.54662e-05
3.0342222,5.9997292e-06
3.0347356,1.8223824e-06
3.0352328,1.5039756e-06
3.0357133,3.2360253e-09
