/*--------------------------------*- C++ -*----------------------------------*\
| =========                 |                                                 |
| \\      /  F ield         | OpenFOAM: The Open Source CFD Toolbox           |
|  \\    /   O peration     | Version:  2.4.0                                 |
|   \\  /    A nd           | Web:      www.OpenFOAM.org                      |
|    \\/     M anipulation  |                                                 |
\*---------------------------------------------------------------------------*/
FoamFile
{
    version     2.0;
    format      ascii;
    class       volSymmTensorField;
    location    "7714";
    object      Ax;
}
// * * * * * * * * * * * * * * * * * * * * * * * * * * * * * * * * * * * * * //

dimensions      [0 0 0 0 0 0 0];

internalField   nonuniform List<symmTensor> 
32000
(
(-2.3425805e-07 3.4795737e-05 -2.088962e-25 2.5063357e-07 8.2922253e-24 -1.637552e-08)
(7.6666647e-08 2.9014799e-05 -1.2661351e-25 -8.1117493e-08 8.4934181e-25 4.4508467e-09)
(2.5133908e-06 4.3879371e-05 -1.5716367e-24 -2.4597787e-06 4.8195674e-23 -5.3612101e-08)
(5.5358405e-06 3.534516e-05 4.7781033e-24 -5.5209902e-06 9.9716109e-23 -1.4850384e-08)
(8.8207813e-06 2.8814086e-05 4.0599249e-23 -8.8020044e-06 1.2043711e-22 -1.8776882e-08)
(0 0 0 0 0 0)
(0 0 0 0 0 0)
(0 0 0 0 0 0)
(0 0 0 0 0 0)
(0 0 0 0 0 0)
(0 0 0 0 0 0)
(0 0 0 0 0 0)
(0 0 0 0 0 0)
(0 0 0 0 0 0)
(0 0 0 0 0 0)
(0 0 0 0 0 0)
(0 0 0 0 0 0)
(0 0 0 0 0 0)
(0 0 0 0 0 0)
(0 0 0 0 0 0)
(0 0 0 0 0 0)
(0 0 0 0 0 0)
(0 0 0 0 0 0)
(0 0 0 0 0 0)
(0 0 0 0 0 0)
(0 0 0 0 0 0)
(0 0 0 0 0 0)
(0 0 0 0 0 0)
(0 0 0 0 0 0)
(0 0 0 0 0 0)
(0 0 0 0 0 0)
(0 0 0 0 0 0)
(0 0 0 0 0 0)
(0 0 0 0 0 0)
(0 0 0 0 0 0)
(0 0 0 0 0 0)
(0 0 0 0 0 0)
(0 0 0 0 0 0)
(0 0 0 0 0 0)
(0 0 0 0 0 0)
(0 0 0 0 0 0)
(0 0 0 0 0 0)
(0 0 0 0 0 0)
(0 0 0 0 0 0)
(0 0 0 0 0 0)
(0 0 0 0 0 0)
(0 0 0 0 0 0)
(0 0 0 0 0 0)
(0 0 0 0 0 0)
(0 0 0 0 0 0)
(0 0 0 0 0 0)
(0 0 0 0 0 0)
(0 0 0 0 0 0)
(0 0 0 0 0 0)
(0 0 0 0 0 0)
(0 0 0 0 0 0)
(0 0 0 0 0 0)
(0 0 0 0 0 0)
(0 0 0 0 0 0)
(0 0 0 0 0 0)
(0 0 0 0 0 0)
(0 0 0 0 0 0)
(0 0 0 0 0 0)
(0 0 0 0 0 0)
(0 0 0 0 0 0)
(0 0 0 0 0 0)
(0 0 0 0 0 0)
(0 0 0 0 0 0)
(0 0 0 0 0 0)
(0 0 0 0 0 0)
(0 0 0 0 0 0)
(0 0 0 0 0 0)
(0 0 0 0 0 0)
(0 0 0 0 0 0)
(0 0 0 0 0 0)
(0 0 0 0 0 0)
(0 0 0 0 0 0)
(0 0 0 0 0 0)
(0 0 0 0 0 0)
(0 0 0 0 0 0)
(0 0 0 0 0 0)
(0 0 0 0 0 0)
(0 0 0 0 0 0)
(0 0 0 0 0 0)
(0 0 0 0 0 0)
(0 0 0 0 0 0)
(0 0 0 0 0 0)
(0 0 0 0 0 0)
(0 0 0 0 0 0)
(0 0 0 0 0 0)
(0 0 0 0 0 0)
(0 0 0 0 0 0)
(0 0 0 0 0 0)
(0 0 0 0 0 0)
(0 0 0 0 0 0)
(0 0 0 0 0 0)
(0 0 0 0 0 0)
(0 0 0 0 0 0)
(0 0 0 0 0 0)
(0 0 0 0 0 0)
(0 0 0 0 0 0)
(0 0 0 0 0 0)
(0 0 0 0 0 0)
(0 0 0 0 0 0)
(0 0 0 0 0 0)
(0 0 0 0 0 0)
(0 0 0 0 0 0)
(0 0 0 0 0 0)
(0 0 0 0 0 0)
(0 0 0 0 0 0)
(0 0 0 0 0 0)
(0 0 0 0 0 0)
(0 0 0 0 0 0)
(0 0 0 0 0 0)
(0 0 0 0 0 0)
(0 0 0 0 0 0)
(0 0 0 0 0 0)
(0 0 0 0 0 0)
(0 0 0 0 0 0)
(0 0 0 0 0 0)
(0 0 0 0 0 0)
(0 0 0 0 0 0)
(0 0 0 0 0 0)
(0 0 0 0 0 0)
(0 0 0 0 0 0)
(0 0 0 0 0 0)
(0 0 0 0 0 0)
(0 0 0 0 0 0)
(0 0 0 0 0 0)
(0 0 0 0 0 0)
(0 0 0 0 0 0)
(0 0 0 0 0 0)
(0 0 0 0 0 0)
(0 0 0 0 0 0)
(0 0 0 0 0 0)
(0 0 0 0 0 0)
(0 0 0 0 0 0)
(0 0 0 0 0 0)
(0 0 0 0 0 0)
(0 0 0 0 0 0)
(0 0 0 0 0 0)
(0 0 0 0 0 0)
(0 0 0 0 0 0)
(0 0 0 0 0 0)
(0 0 0 0 0 0)
(0 0 0 0 0 0)
(0 0 0 0 0 0)
(0 0 0 0 0 0)
(0 0 0 0 0 0)
(0 0 0 0 0 0)
(0 0 0 0 0 0)
(0 0 0 0 0 0)
(0 0 0 0 0 0)
(0 0 0 0 0 0)
(0 0 0 0 0 0)
(0 0 0 0 0 0)
(0 0 0 0 0 0)
(0 0 0 0 0 0)
(0 0 0 0 0 0)
(0 0 0 0 0 0)
(0 0 0 0 0 0)
(0 0 0 0 0 0)
(0 0 0 0 0 0)
(0 0 0 0 0 0)
(0 0 0 0 0 0)
(0 0 0 0 0 0)
(0 0 0 0 0 0)
(0 0 0 0 0 0)
(0 0 0 0 0 0)
(0 0 0 0 0 0)
(0 0 0 0 0 0)
(0 0 0 0 0 0)
(0 0 0 0 0 0)
(0 0 0 0 0 0)
(0 0 0 0 0 0)
(0 0 0 0 0 0)
(0 0 0 0 0 0)
(0 0 0 0 0 0)
(0 0 0 0 0 0)
(0 0 0 0 0 0)
(0 0 0 0 0 0)
(0 0 0 0 0 0)
(0 0 0 0 0 0)
(0 0 0 0 0 0)
(0 0 0 0 0 0)
(0 0 0 0 0 0)
(0 0 0 0 0 0)
(-4.6051632e-05 9.86413e-06 -2.1606701e-22 4.605538e-05 2.3737429e-22 -3.7482582e-09)
(-5.133251e-05 1.350395e-05 5.0360934e-22 5.1354537e-05 -4.3240045e-22 -2.2026937e-08)
(-5.7167001e-05 1.9022539e-05 -6.3367867e-22 5.7220994e-05 5.5134143e-22 -5.3992992e-08)
(-6.3527525e-05 2.7529023e-05 -3.5560629e-22 6.3633139e-05 3.8406987e-22 -1.0561408e-07)
(-6.8140613e-05 3.96595e-05 -2.0050916e-22 6.8324536e-05 4.1451865e-22 -1.8392333e-07)
(-6.9114624e-05 5.6352533e-05 -3.6730777e-22 6.939817e-05 1.3135516e-22 -2.8354516e-07)
(-5.8983369e-05 7.1955655e-05 -7.8956379e-22 5.9327868e-05 1.9365475e-21 -3.4449878e-07)
(-3.9999882e-05 7.666834e-05 -4.799163e-22 4.0287033e-05 1.2704129e-21 -2.8715144e-07)
(-2.0596829e-05 6.6308463e-05 -5.2281523e-23 2.0765253e-05 3.7112401e-22 -1.6842376e-07)
(-8.3873736e-06 5.2412627e-05 2.4800659e-23 8.4615499e-06 -2.2966255e-22 -7.4176308e-08)
(-1.972417e-06 3.3619981e-05 -3.4012003e-25 2.0082243e-06 -2.2477009e-23 -3.5807245e-08)
(-4.7231857e-08 2.9717269e-05 2.5826605e-25 4.8351359e-08 -3.3876463e-24 -1.1195022e-09)
(1.9037099e-07 1.528564e-05 -3.893247e-25 -1.7595445e-07 1.5131167e-23 -1.4416548e-08)
(7.6997852e-07 0.00020961928 1.3592977e-23 -7.1371361e-09 5.5591227e-23 -7.6284138e-07)
(2.064093e-06 0.00018457584 3.7267033e-24 -1.6683073e-06 1.1165793e-23 -3.9578575e-07)
(1.7162079e-05 0.00025778287 7.4197935e-23 -1.5681486e-05 5.5666566e-23 -1.4805928e-06)
(3.4157174e-05 0.00021541596 7.2972541e-23 -3.3395516e-05 -1.1525067e-21 -7.6165792e-07)
(5.3166867e-05 0.00017611284 -4.1155098e-22 -5.263306e-05 -2.2275038e-21 -5.3380695e-07)
(3.7993822e-05 7.9295671e-05 7.3891364e-24 -3.7879392e-05 1.877023e-21 -1.1442963e-07)
(2.7626188e-07 4.7869754e-06 1.487978e-21 -1.4801475e-07 3.843171e-21 -1.2824713e-07)
(-5.2676505e-05 -4.0723256e-05 5.6189455e-22 5.2832312e-05 1.6677614e-21 -1.55807e-07)
(-6.718357e-05 -3.8480887e-05 3.0299733e-21 6.7343202e-05 5.5888915e-21 -1.5963132e-07)
(-6.8344239e-05 -2.9400062e-05 -9.9160154e-22 6.8486047e-05 -1.2748106e-21 -1.4180849e-07)
(-6.3748653e-05 -2.1122144e-05 -1.5036214e-21 6.3863138e-05 -2.6700567e-21 -1.144854e-07)
(-5.8616718e-05 -1.5340031e-05 -5.2931728e-22 5.8707968e-05 -1.432165e-21 -9.1250015e-08)
(-5.4578711e-05 -1.1600245e-05 1.8132607e-21 5.4654244e-05 6.0025587e-22 -7.5533281e-08)
(-5.1672536e-05 -9.2926907e-06 -1.7388002e-21 5.173753e-05 -2.3494434e-21 -6.4993811e-08)
(-4.9429086e-05 -7.9503581e-06 -3.6312555e-21 4.9486306e-05 -3.6865338e-21 -5.7220176e-08)
(-4.7582473e-05 -7.3535727e-06 -9.2376108e-22 4.7633029e-05 -1.6571799e-21 -5.055549e-08)
(-4.5977114e-05 -7.3714376e-06 2.0247024e-21 4.6021013e-05 1.4326848e-21 -4.3899382e-08)
(-4.4927663e-05 -7.8767948e-06 4.7164289e-21 4.4966194e-05 5.1957215e-21 -3.8531568e-08)
(-4.4488587e-05 -8.4991563e-06 2.2888258e-21 4.4523328e-05 2.3766384e-21 -3.4740804e-08)
(-4.4320435e-05 -9.109538e-06 1.2470279e-21 4.4351901e-05 1.3339559e-21 -3.1466098e-08)
(-4.4439143e-05 -9.7171383e-06 3.8204649e-21 4.4468e-05 3.816757e-21 -2.88569e-08)
(-4.4919191e-05 -1.0343874e-05 -3.0307248e-21 4.4946026e-05 -3.0924752e-21 -2.6835259e-08)
(-4.5758437e-05 -1.099214e-05 -5.8702837e-21 4.5783887e-05 -7.8086897e-21 -2.5450323e-08)
(-4.7059693e-05 -1.1697864e-05 2.4953114e-21 4.7084656e-05 3.005405e-21 -2.4963377e-08)
(-4.8809759e-05 -1.2449028e-05 1.6209571e-21 4.8835103e-05 1.8171835e-21 -2.5343936e-08)
(-5.1033764e-05 -1.3264672e-05 -1.7345022e-21 5.106094e-05 -2.6701891e-21 -2.7176316e-08)
(-5.3506916e-05 -1.4091908e-05 -2.6584321e-21 5.3536831e-05 -2.6098993e-21 -2.9914904e-08)
(-5.5911345e-05 -1.5052894e-05 -1.3044178e-21 5.5943919e-05 -6.1594055e-23 -3.2574727e-08)
(-5.8316029e-05 -1.6372425e-05 8.8787673e-22 5.8351423e-05 8.5768862e-22 -3.5394081e-08)
(-6.0771011e-05 -1.8145442e-05 3.2950376e-21 6.0809443e-05 5.3067083e-21 -3.8432154e-08)
(-6.3176271e-05 -2.0428756e-05 1.4113053e-21 6.3217897e-05 2.3185164e-21 -4.1625996e-08)
(-6.5411088e-05 -2.3281974e-05 1.636231e-21 6.5455787e-05 2.3447749e-21 -4.469868e-08)
(-6.7303185e-05 -2.6757077e-05 4.9331088e-21 6.7350597e-05 7.8082437e-21 -4.7411352e-08)
(-6.8636136e-05 -3.0891924e-05 4.6926952e-24 6.8685342e-05 1.9486932e-23 -4.9205968e-08)
(-6.9205338e-05 -3.5735471e-05 -4.4622353e-21 6.9254978e-05 -7.3907345e-21 -4.964046e-08)
(-6.8954353e-05 -4.135557e-05 1.3405476e-21 6.9002978e-05 3.2254118e-21 -4.8625607e-08)
(-6.8101355e-05 -4.7793942e-05 -1.4742777e-21 6.8149697e-05 -3.0679976e-21 -4.8342306e-08)
(-6.6457063e-05 -5.4685852e-05 -2.3574908e-21 6.6504781e-05 -5.3483575e-21 -4.771763e-08)
(-6.3672732e-05 -6.1742443e-05 2.351925e-21 6.3719893e-05 4.8517139e-21 -4.7161685e-08)
(-5.9571031e-05 -6.8695925e-05 -3.1375886e-21 5.961611e-05 -7.5665797e-21 -4.5078671e-08)
(-5.4194539e-05 -7.5411364e-05 7.7845903e-22 5.4238459e-05 2.278913e-21 -4.3920331e-08)
(-4.7351373e-05 -8.1312628e-05 2.9581097e-22 4.7390899e-05 -8.8687047e-22 -3.9525663e-08)
(-3.9463744e-05 -8.6723888e-05 1.1049689e-22 3.9503173e-05 -2.9099188e-22 -3.9428779e-08)
(-3.0322021e-05 -9.0502249e-05 2.305548e-22 3.0353711e-05 1.3722694e-21 -3.1689233e-08)
(-2.0847962e-05 -9.4846408e-05 -2.873341e-22 2.0886248e-05 -2.3234626e-21 -3.8285236e-08)
(-1.0826477e-05 -9.754183e-05 4.8894263e-23 1.0846729e-05 5.7410105e-22 -2.0252697e-08)
(-2.1275867e-06 -0.00011257756 2.0326424e-24 2.1815294e-06 -1.3340565e-23 -5.3942736e-08)
(-3.8966867e-07 -0.00013237679 8.4699963e-26 4.5383071e-07 3.378256e-25 -6.4162038e-08)
(2.3240165e-08 -0.00014260314 4.6930553e-26 7.4409537e-08 6.7573235e-26 -9.7649702e-08)
(2.514245e-07 -0.00015105958 -4.6258614e-26 -1.4033529e-07 -3.3229289e-25 -1.1108921e-07)
(4.2472616e-07 -0.00015610007 1.9142742e-27 -2.9632962e-07 9.3784577e-26 -1.2839654e-07)
(5.4474971e-07 -0.00016007907 4.5825719e-26 -4.0812997e-07 -2.5754146e-27 -1.3661974e-07)
(6.3740793e-07 -0.00016233622 -2.73351e-26 -4.924613e-07 2.7085796e-26 -1.4494663e-07)
(7.0441536e-07 -0.00016382572 -9.3499609e-29 -5.5614929e-07 -2.3572407e-25 -1.4826607e-07)
(7.5457411e-07 -0.000164298 4.4732426e-28 -6.0390943e-07 2.3679562e-25 -1.5066468e-07)
(7.9031503e-07 -0.00016419498 7.2827477e-27 -6.4020678e-07 1.2838817e-25 -1.5010825e-07)
(8.1572588e-07 -0.00016340568 -2.0827226e-27 -6.6726389e-07 -1.6450621e-25 -1.4846199e-07)
(8.3141404e-07 -0.00016214198 1.0382745e-26 -6.8648402e-07 4.1458726e-26 -1.4493003e-07)
(8.3941352e-07 -0.00016038466 -4.7378584e-26 -6.9892654e-07 9.3417416e-26 -1.4048698e-07)
(8.406636e-07 -0.00015824934 4.4170587e-26 -7.0578345e-07 -1.1710717e-25 -1.3488015e-07)
(8.3647005e-07 -0.000155744 1.2906162e-26 -7.0782741e-07 1.441446e-25 -1.2864264e-07)
(8.2756649e-07 -0.00015293698 -4.1647014e-26 -7.0581865e-07 -1.5051452e-25 -1.2174784e-07)
(8.148342e-07 -0.00014984579 1.1296801e-26 -7.0033009e-07 4.2828407e-27 -1.1450411e-07)
(7.9885225e-07 -0.00014651503 -9.4907352e-27 -6.9188303e-07 -1.4149704e-26 -1.0696922e-07)
(7.8026199e-07 -0.0001429645 2.2565441e-26 -6.8093143e-07 -3.0438613e-26 -9.9330559e-08)
(7.5950738e-07 -0.00013922607 -5.8474154e-27 -6.6783808e-07 1.0325486e-25 -9.1669299e-08)
(7.3707115e-07 -0.00013531938 -1.3199682e-26 -6.5297028e-07 -1.2453156e-25 -8.4100867e-08)
(7.1330653e-07 -0.00013126911 -2.3317584e-28 -6.3660243e-07 1.3983177e-25 -7.6704097e-08)
(6.885963e-07 -0.00012709357 2.0209948e-26 -6.1904822e-07 -1.7847069e-26 -6.9548082e-08)
(6.6321139e-07 -0.00012281276 3.6715577e-27 -6.0051905e-07 -5.2265958e-26 -6.2692339e-08)
(6.3749906e-07 -0.00011844354 -2.9984449e-26 -5.8132172e-07 3.9024382e-26 -5.6177345e-08)
(6.1161693e-07 -0.0001140008 3.0682756e-26 -5.615778e-07 -1.3620237e-26 -5.0039133e-08)
(5.856613e-07 -0.00010950135 -2.9593331e-26 -5.4136299e-07 1.5305919e-27 -4.4298316e-08)
(5.5998649e-07 -0.00010496241 1.9604777e-26 -5.2100553e-07 -1.7561701e-26 -3.8980956e-08)
(5.3483721e-07 -0.00010039338 -1.2569395e-26 -5.0075604e-07 1.3169783e-26 -3.4081168e-08)
(5.1019552e-07 -9.5805891e-05 1.2261416e-27 -4.8058536e-07 5.9395017e-27 -2.9610162e-08)
(4.8617537e-07 -9.1212117e-05 4.5247317e-27 -4.6062604e-07 -5.9312663e-27 -2.554933e-08)
(4.6289506e-07 -8.6622678e-05 -1.4249754e-27 -4.4099344e-07 -9.7819972e-29 -2.1901617e-08)
(4.4045365e-07 -8.2046826e-05 -1.539552e-27 -4.2181482e-07 -1.6565704e-27 -1.8638824e-08)
(4.1888913e-07 -7.7493243e-05 -4.5157864e-27 -4.0313567e-07 -3.8474983e-27 -1.5753457e-08)
(3.9828557e-07 -7.2970057e-05 7.2392259e-27 -3.850736e-07 9.9135207e-27 -1.321197e-08)
(3.78663e-07 -6.848351e-05 5.3946162e-27 -3.6765847e-07 -1.3527743e-26 -1.1004533e-08)
(3.6002224e-07 -6.4040412e-05 -6.1563844e-27 -3.5092412e-07 5.7222121e-27 -9.0981196e-09)
(3.4241468e-07 -5.9647242e-05 8.235924e-28 -3.349402e-07 -1.4412976e-26 -7.4744808e-09)
(3.2583816e-07 -5.5307563e-05 -4.5189595e-28 -3.1973654e-07 1.3852454e-26 -6.1016179e-09)
(3.1026221e-07 -5.1026996e-05 2.7910262e-27 -3.0529856e-07 -1.7101364e-26 -4.9636586e-09)
(2.9573707e-07 -4.6809546e-05 1.94116e-27 -2.9170868e-07 6.4380581e-27 -4.0283932e-09)
(2.822363e-07 -4.2657431e-05 -1.3828742e-27 -2.7895682e-07 9.7432918e-27 -3.2794738e-09)
(2.6971754e-07 -3.8573828e-05 -1.1221222e-27 -2.6703225e-07 3.1982384e-27 -2.6852959e-09)
(2.5815501e-07 -3.4561812e-05 4.2913993e-27 -2.5592208e-07 -8.9921158e-27 -2.2329286e-09)
(2.4756492e-07 -3.0623187e-05 -3.5251951e-27 -2.4566377e-07 -1.455125e-26 -1.9011512e-09)
(2.3789275e-07 -2.6758874e-05 1.7914426e-27 -2.362244e-07 3.1967297e-28 -1.6683546e-09)
(2.2903464e-07 -2.2970143e-05 -6.2296762e-28 -2.2751451e-07 1.8735433e-26 -1.5201329e-09)
(2.2079628e-07 -1.9258526e-05 4.5191297e-28 -2.1936264e-07 -2.2722482e-26 -1.4336361e-09)
(2.1280511e-07 -1.5628552e-05 -8.8848121e-29 -2.1140501e-07 -3.5099785e-27 -1.4001009e-09)
(2.047199e-07 -1.2086447e-05 1.9870353e-29 -2.033186e-07 1.0043804e-26 -1.4012917e-09)
(1.9634491e-07 -8.6381604e-06 1.2794617e-28 -1.9491656e-07 -5.4560198e-27 -1.4283509e-09)
(1.8780118e-07 -5.2859329e-06 -3.778913e-29 -1.863303e-07 2.5433714e-27 -1.4708804e-09)
(1.7992321e-07 -2.0287929e-06 -1.2422023e-28 -1.7840335e-07 4.4466157e-27 -1.5198602e-09)
(1.742419e-07 1.1342819e-06 4.238944e-29 -1.7267349e-07 2.096995e-27 -1.5684114e-09)
(1.7152395e-07 4.2050499e-06 -3.339544e-29 -1.699065e-07 1.649604e-27 -1.6174535e-09)
(1.704849e-07 7.1882808e-06 2.0657793e-28 -1.6881608e-07 5.4885895e-29 -1.6688177e-09)
(1.6920852e-07 1.0085748e-05 -5.9994664e-29 -1.6747857e-07 8.5543843e-27 -1.729948e-09)
(1.6699241e-07 1.2897759e-05 -1.4123049e-28 -1.651883e-07 -5.3489454e-27 -1.8041026e-09)
(1.6413432e-07 1.5625768e-05 -3.1615823e-28 -1.6224036e-07 1.5767944e-26 -1.8939511e-09)
(1.6107323e-07 1.8270825e-05 1.0363043e-27 -1.5907111e-07 -7.1494193e-27 -2.0021176e-09)
(1.5812877e-07 2.0832916e-05 -7.0422258e-28 -1.5599776e-07 -1.4159488e-26 -2.131002e-09)
(1.5549478e-07 2.3313418e-05 4.1354181e-28 -1.5321408e-07 1.1978948e-26 -2.2807027e-09)
(1.5318864e-07 2.571333e-05 -2.0097747e-27 -1.5073533e-07 2.7709114e-27 -2.4533096e-09)
(1.5120473e-07 2.8032473e-05 3.4016139e-27 -1.4855594e-07 -3.1626177e-26 -2.6487882e-09)
(1.4954228e-07 3.0272192e-05 -3.5242435e-27 -1.466767e-07 5.6759601e-27 -2.8655781e-09)
(1.4813261e-07 3.243311e-05 1.234391e-27 -1.4502795e-07 1.0479384e-26 -3.104657e-09)
(1.4694909e-07 3.4515417e-05 1.9729966e-27 -1.4358518e-07 1.6684403e-26 -3.3639115e-09)
(1.459486e-07 3.6520142e-05 9.5475671e-28 -1.4230713e-07 2.0451968e-26 -3.6414743e-09)
(1.450724e-07 3.8447053e-05 -4.0234354e-27 -1.4113418e-07 -2.6986674e-26 -3.9382191e-09)
(1.4432168e-07 4.0296818e-05 1.2425179e-27 -1.4007289e-07 1.6343547e-26 -4.2487916e-09)
(1.4363183e-07 4.2070129e-05 -1.9881188e-28 -1.3905734e-07 6.5285785e-28 -4.5744975e-09)
(1.4296112e-07 4.3766286e-05 -2.6716342e-27 -1.3804968e-07 -1.1135088e-25 -4.9114384e-09)
(1.4231255e-07 4.5385852e-05 2.1929597e-28 -1.3705519e-07 -1.4305922e-26 -5.2573581e-09)
(1.4162618e-07 4.6928999e-05 -3.5716559e-27 -1.3601639e-07 1.9029193e-25 -5.6097915e-09)
(1.4086215e-07 4.8394842e-05 6.7340384e-27 -1.3489534e-07 -3.8459532e-26 -5.9668126e-09)
(1.4002458e-07 4.9783361e-05 -6.8810487e-27 -1.3370084e-07 6.8646691e-27 -6.3237463e-09)
(1.3905385e-07 5.1094388e-05 1.0042511e-26 -1.3237418e-07 -1.1303145e-25 -6.679671e-09)
(1.3791151e-07 5.2326448e-05 1.1551333e-27 -1.3088005e-07 -3.394809e-26 -7.0314606e-09)
(1.3659587e-07 5.3479079e-05 -9.8908779e-28 -1.2922078e-07 4.2158748e-26 -7.3750912e-09)
(1.3505103e-07 5.4551278e-05 5.5440428e-29 -1.2734262e-07 1.4337009e-25 -7.7084081e-09)
(1.3323099e-07 5.5541214e-05 -2.9307067e-27 -1.252032e-07 -4.7131292e-26 -8.0277889e-09)
(1.3113266e-07 5.6447221e-05 1.1535323e-27 -1.2280174e-07 7.6743573e-26 -8.3309242e-09)
(1.2868911e-07 5.7267958e-05 -2.1622655e-27 -1.200766e-07 -9.1757098e-26 -8.6125124e-09)
(1.2585884e-07 5.7999908e-05 -1.889957e-27 -1.1698558e-07 -9.5392391e-26 -8.8732624e-09)
(1.2261155e-07 5.8641366e-05 1.6333079e-27 -1.1350761e-07 6.4893434e-26 -9.1039361e-09)
(1.1889304e-07 5.9188099e-05 -1.731046e-27 -1.0958292e-07 2.1725055e-25 -9.3101169e-09)
(1.1462589e-07 5.9637539e-05 -2.0946e-27 -1.0515011e-07 -4.7345069e-25 -9.4757798e-09)
(1.0979569e-07 5.9983095e-05 -3.9508374e-27 -1.0017996e-07 4.2364751e-25 -9.615727e-09)
(1.0428113e-07 6.0223126e-05 1.7497733e-26 -9.4581119e-08 -1.6884087e-25 -9.7000161e-09)
(9.8107352e-08 6.0346525e-05 5.0185922e-22 -8.8341994e-08 2.8924e-19 -9.7653583e-09)
(9.1180709e-08 6.035496e-05 5.0786791e-22 -8.1430024e-08 2.9269819e-19 -9.7506844e-09)
(8.3454058e-08 6.0232555e-05 -3.723491e-27 -7.3712764e-08 7.2787172e-27 -9.7412934e-09)
(7.4479033e-08 5.9983465e-05 -5.1431129e-22 -6.4876886e-08 -2.9854845e-19 -9.6021467e-09)
(6.4425884e-08 5.9571901e-05 -5.1650966e-22 -5.4905616e-08 -3.0215576e-19 -9.5202679e-09)
(5.2701037e-08 5.9016897e-05 -3.41109e-27 -4.3487407e-08 5.3152589e-26 -9.2136305e-09)
(3.9907113e-08 5.8251994e-05 4.1447092e-27 -3.0815612e-08 1.2441802e-25 -9.091501e-09)
(2.4895657e-08 5.7334673e-05 1.215883e-26 -1.6349305e-08 -1.9741458e-25 -8.5463528e-09)
(8.7728929e-09 5.6135078e-05 -6.1850886e-27 -3.0340344e-10 -2.8363109e-25 -8.4694895e-09)
(-1.0836652e-08 5.4786307e-05 -5.2622857e-27 1.8389981e-08 1.8190865e-25 -7.5533292e-09)
(-3.1130839e-08 5.3024422e-05 -2.1869907e-27 3.8845625e-08 -2.9249849e-25 -7.7147865e-09)
(-5.7284453e-08 5.115643e-05 6.5554454e-27 6.3434619e-08 5.6939359e-25 -6.1501664e-09)
(-8.3143363e-08 4.8628746e-05 1.3256722e-27 9.0116316e-08 -8.1719388e-26 -6.9729536e-09)
(-1.1972313e-07 4.6122555e-05 -2.3409147e-27 1.2390087e-07 2.0575951e-25 -4.1777328e-09)
(-1.5358459e-07 4.246924e-05 2.7660196e-27 1.6013822e-07 -3.2762633e-25 -6.5536353e-09)
(-2.0959196e-07 3.9148964e-05 7.9668818e-29 2.1087704e-07 -1.6652335e-25 -1.2850818e-09)
(-2.5837395e-07 3.3648668e-05 7.0270518e-27 2.654526e-07 9.7563592e-26 -7.0786444e-09)
(-3.6364581e-07 2.9141881e-05 1.0151152e-26 3.6019536e-07 -1.0441756e-25 3.4504452e-09)
(-7.1962929e-07 1.9925934e-05 -9.5185561e-25 7.2739727e-07 6.8963303e-23 -7.7679771e-09)
(-1.5682562e-06 1.2901971e-05 -1.4983517e-22 1.5612014e-06 1.8421921e-21 7.0547798e-09)
(-2.9544995e-06 1.3553021e-05 -3.0800512e-22 2.9528333e-06 3.2940274e-21 1.6662442e-09)
(-4.4750037e-06 1.3645771e-05 3.6969026e-22 4.46231e-06 -2.2428939e-21 1.2693679e-08)
(-7.0385701e-06 1.5815415e-05 -3.0447191e-22 7.0266028e-06 1.0683515e-21 1.1967201e-08)
(-9.9376141e-06 1.7409858e-05 -8.9941065e-22 9.9194373e-06 3.2794542e-21 1.8176843e-08)
(-1.3709471e-05 1.9439306e-05 6.3383119e-22 1.369171e-05 -1.0106575e-21 1.7760806e-08)
(-1.7843206e-05 2.0928894e-05 1.2929619e-21 1.7822934e-05 -3.5070152e-21 2.0271916e-08)
(-2.270937e-05 2.2379472e-05 3.7060501e-22 2.2690756e-05 -1.4475404e-21 1.8614034e-08)
(-2.7940042e-05 2.3357399e-05 -7.6184139e-22 2.7922507e-05 2.0780953e-21 1.7535326e-08)
(-3.3752107e-05 2.4080136e-05 -3.8746615e-23 3.3738594e-05 2.6692376e-22 1.3513313e-08)
(-4.0023319e-05 2.4442696e-05 -2.6341615e-21 4.0015008e-05 5.4145037e-21 8.3109226e-09)
(-4.7141071e-05 2.478997e-05 -4.8599495e-21 4.7141374e-05 7.510884e-21 -3.034096e-10)
(-5.4821427e-05 2.5150036e-05 -2.7483243e-21 5.4833425e-05 4.8942745e-21 -1.199842e-08)
(-6.2738517e-05 2.5453029e-05 -2.5869995e-21 6.2764539e-05 3.2262841e-21 -2.6022277e-08)
(-7.090815e-05 2.5784121e-05 5.0689361e-22 7.0951079e-05 -1.665193e-21 -4.2929478e-08)
(-7.9227947e-05 2.620202e-05 2.8418146e-21 7.9291098e-05 -3.2828932e-21 -6.3151188e-08)
(-8.7733423e-05 2.6812124e-05 -5.6334149e-21 8.7820261e-05 6.6951924e-21 -8.6838275e-08)
(-9.6236378e-05 2.7666375e-05 -5.1947785e-23 9.6350822e-05 6.7371009e-22 -1.1444322e-07)
(-0.0001047644 2.8883813e-05 4.4556139e-21 0.00010490986 -4.3449942e-21 -1.4545795e-07)
(-0.00011266762 3.0375422e-05 -2.2330976e-21 0.00011284609 3.0505138e-21 -1.7847674e-07)
(-0.00011956999 3.179312e-05 1.14061e-21 0.00011977916 -6.4063062e-22 -2.091665e-07)
(-0.0001253643 3.2761999e-05 1.6181818e-21 0.00012560303 -1.7818786e-21 -2.3873378e-07)
(-0.00013095148 3.3221663e-05 -4.8183408e-21 0.0001312218 7.8617979e-21 -2.7031481e-07)
(-0.00013673979 3.350753e-05 -5.8864506e-22 0.00013704976 5.6588249e-22 -3.0996755e-07)
(-0.00014237477 3.3443791e-05 -6.8029579e-22 0.00014272673 2.6408733e-21 -3.5195866e-07)
(-0.00014836071 3.311249e-05 -2.1634916e-21 0.00014876385 3.1584775e-21 -4.0314191e-07)
(-0.00015472928 3.249917e-05 1.7818199e-22 0.00015519379 -1.3265107e-21 -4.6450225e-07)
(-0.00016210886 3.1721662e-05 1.7959372e-21 0.00016265291 5.3181913e-22 -5.4404592e-07)
(-0.00017068773 3.0755204e-05 6.0419947e-22 0.00017133706 -1.141724e-21 -6.4932474e-07)
(-0.00018266894 3.0251932e-05 8.2416004e-22 0.00018348146 1.2814954e-21 -8.125193e-07)
(-0.00019884562 3.1873291e-05 -3.577092e-24 0.00019991199 9.1896407e-22 -1.0663771e-06)
(-0.00021763069 3.6365764e-05 -8.1088699e-22 0.00021903638 -4.6869068e-22 -1.4056814e-06)
(-0.00023935573 4.4665221e-05 -5.8734767e-22 0.0002412256 1.8660743e-21 -1.8698658e-06)
(-0.00026415197 5.8120726e-05 1.1035958e-21 0.00026666126 1.4556745e-22 -2.5092985e-06)
(-0.00029306853 7.9178843e-05 -5.5332589e-21 0.00029649967 2.9605173e-21 -3.4311369e-06)
(-0.00032473708 0.00011101255 5.0436605e-21 0.000329472 -7.9856633e-22 -4.7349244e-06)
(-0.00035804912 0.00015950014 7.0190834e-21 0.00036468871 -4.2074833e-21 -6.6395849e-06)
(-0.00038116293 0.00022841014 3.4547497e-21 0.00039017799 -7.4221098e-21 -9.0150585e-06)
(-0.00038076872 0.00032038818 -2.0690384e-21 0.00039258608 6.1547253e-21 -1.1817369e-05)
(-0.00032915461 0.00041502473 5.4639426e-21 0.00034192035 -6.9747397e-21 -1.2765746e-05)
(-0.00022836127 0.00045241548 1.6500378e-21 0.00023861765 -8.7670531e-22 -1.0256389e-05)
(-0.00012064248 0.00040000036 1.0429016e-21 0.00012635821 -7.5910489e-21 -5.7157284e-06)
(-5.0525805e-05 0.00032128397 -3.4555745e-22 5.3117495e-05 7.6000131e-22 -2.5916897e-06)
(-1.2955206e-05 0.00021706935 1.9813863e-23 1.3819157e-05 -3.6711306e-22 -8.6395125e-07)
(-5.6102791e-07 0.00018793001 1.476039e-25 9.4048151e-07 -6.4809336e-24 -3.794536e-07)
(1.9454847e-06 0.00011128067 2.2607044e-24 -1.7003815e-06 -1.4925105e-22 -2.4510317e-07)
(1.5130345e-05 0.00065522302 1.2104339e-23 -7.6871971e-06 -9.0708213e-22 -7.4431481e-06)
(1.7105272e-05 0.00060541863 3.5457596e-24 -1.1803496e-05 -6.9855043e-23 -5.3017761e-06)
(6.7829972e-05 0.00078403995 -8.488441e-23 -5.5136167e-05 -1.7384445e-21 -1.2693804e-05)
(0.00011594786 0.00067901244 -1.3138981e-21 -0.00010789484 5.8404958e-22 -8.0530152e-06)
(0.00017072504 0.00055705058 -4.6934753e-22 -0.0001655228 5.8833459e-22 -5.2022351e-06)
(0.00012994922 0.00027906078 5.3310197e-21 -0.0001292052 1.2673131e-20 -7.4401973e-07)
(2.0054762e-05 4.6467161e-05 2.4561409e-21 -1.9992407e-05 7.0701413e-21 -6.2355672e-08)
(-0.00014307196 -0.00010704765 -6.7456025e-21 0.0001432657 -1.2390261e-20 -1.9373684e-07)
(-0.00019276078 -0.00011126506 -2.6067341e-21 0.00019317113 -3.223123e-21 -4.1034394e-07)
(-0.00019910304 -8.7260788e-05 3.2304905e-21 0.00019948944 6.8916724e-21 -3.8639217e-07)
(-0.00018785416 -6.3786816e-05 1.6768051e-20 0.00018816012 2.1987041e-20 -3.0595894e-07)
(-0.00017417486 -4.6867356e-05 -2.1100856e-21 0.00017441046 8.1271639e-23 -2.3560052e-07)
(-0.00016310212 -3.5725007e-05 1.905224e-20 0.00016329135 2.8759467e-20 -1.8922324e-07)
(-0.00015501275 -2.8787109e-05 -9.1693009e-22 0.0001551713 -1.0087696e-21 -1.5855258e-07)
(-0.00014871682 -2.4737724e-05 -3.6602977e-22 0.00014885367 -4.1531843e-21 -1.3685572e-07)
(-0.00014352292 -2.2936421e-05 2.1755463e-20 0.00014364235 2.38386e-20 -1.1942984e-07)
(-0.00013904807 -2.2986614e-05 1.2201364e-20 0.00013915253 1.5444934e-20 -1.0446622e-07)
(-0.00013618845 -2.4500299e-05 -2.4981516e-21 0.00013628295 9.2723812e-22 -9.4497069e-08)
(-0.00013509381 -2.6380883e-05 5.3478569e-21 0.00013518224 8.2490563e-21 -8.843597e-08)
(-0.00013481704 -2.8248483e-05 1.4698372e-20 0.0001349011 1.7946849e-20 -8.4067942e-08)
(-0.00013539999 -3.0113214e-05 3.6328279e-21 0.00013548195 7.0951374e-21 -8.1957751e-08)
(-0.00013705584 -3.2039418e-05 -7.60402e-21 0.0001371373 -1.0218795e-20 -8.1460716e-08)
(-0.00013978692 -3.403308e-05 2.112893e-20 0.00013987007 2.2432834e-20 -8.3158134e-08)
(-0.00014387606 -3.6198091e-05 -2.6611906e-21 0.00014396345 -1.7445024e-21 -8.738263e-08)
(-0.00014928348 -3.8499638e-05 1.1225053e-20 0.00014937762 1.5280681e-20 -9.4141901e-08)
(-0.00015604624 -4.0995906e-05 1.1921233e-20 0.00015615088 1.6681647e-20 -1.046391e-07)
(-0.00016350455 -4.3544198e-05 -1.1720318e-20 0.00016362155 -1.977888e-20 -1.1700595e-07)
(-0.00017077063 -4.6519554e-05 -1.940733e-20 0.00017090033 -2.8291817e-20 -1.2969765e-07)
(-0.00017802714 -5.058437e-05 2.7542722e-21 0.0001781707 6.5875287e-21 -1.4356153e-07)
(-0.00018540334 -5.6028422e-05 -2.1259403e-20 0.00018556185 -2.7277086e-20 -1.5851094e-07)
(-0.00019260558 -6.3031036e-05 -4.5776965e-21 0.00019278017 -2.7332865e-21 -1.7459469e-07)
(-0.00019927479 -7.1774474e-05 -5.4120674e-21 0.00019946574 -8.8251819e-21 -1.9094964e-07)
(-0.000204907 -8.242252e-05 -1.4378649e-20 0.00020511397 -1.6929835e-20 -2.0697172e-07)
(-0.00020887765 -9.5100984e-05 -1.4291166e-20 0.00020909877 -1.7593316e-20 -2.2111695e-07)
(-0.00021060817 -0.00010997284 -3.1645717e-21 0.00021084094 -7.1663489e-21 -2.3277512e-07)
(-0.00020993018 -0.00012724201 -1.2183954e-20 0.00021017254 -2.1652798e-20 -2.423655e-07)
(-0.00020735075 -0.00014698152 1.0518681e-20 0.00020760648 1.819584e-20 -2.5572349e-07)
(-0.00020230561 -0.00016811967 1.0344829e-20 0.00020257366 1.7245165e-20 -2.6805182e-07)
(-0.00019379666 -0.00018982261 8.5867117e-22 0.00019407784 3.9027765e-21 -2.8117984e-07)
(-0.00018132045 -0.00021130517 6.287809e-21 0.00018160958 7.2991472e-21 -2.8912701e-07)
(-0.00016492185 -0.0002321196 -2.0577673e-21 0.00016522163 -2.1384613e-21 -2.9978536e-07)
(-0.00014416282 -0.00025071307 -2.3336993e-22 0.00014446117 3.4279692e-21 -2.9834858e-07)
(-0.00012006136 -0.00026781426 -3.0726777e-22 0.00012037272 3.7603559e-22 -3.1135559e-07)
(-9.2343647e-05 -0.00028062038 -1.2436096e-21 9.2639044e-05 -4.3719237e-21 -2.9539716e-07)
(-6.3227373e-05 -0.00029477558 6.3985349e-22 6.3563718e-05 5.7955154e-21 -3.3634545e-07)
(-3.3132415e-05 -0.00030599461 -4.3616193e-22 3.3426221e-05 -2.5066098e-21 -2.9380583e-07)
(-6.3854608e-06 -0.00034909328 -1.4002356e-23 6.9155661e-06 2.8589459e-23 -5.301053e-07)
(2.6909618e-08 -0.00040376913 2.0356123e-24 6.9881325e-07 -2.1457497e-25 -7.2572287e-07)
(2.4254469e-06 -0.00043316139 1.9629592e-26 -1.4770439e-06 7.5036614e-25 -9.4840299e-07)
(3.8331697e-06 -0.00045666215 1.4361858e-25 -2.7461505e-06 -9.366688e-25 -1.0870192e-06)
(4.8772991e-06 -0.00047082677 1.9338828e-26 -3.6682436e-06 3.7881937e-25 -1.2090556e-06)
(5.606142e-06 -0.00048162327 -2.416717e-26 -4.3213647e-06 4.9527988e-25 -1.2847773e-06)
(6.1466089e-06 -0.00048764839 -1.6417439e-25 -4.805598e-06 -1.1958592e-24 -1.3410108e-06)
(6.5247498e-06 -0.00049132516 2.9520151e-25 -5.1570453e-06 8.7992117e-25 -1.3677045e-06)
(6.7854739e-06 -0.00049214675 -1.8445721e-25 -5.4076036e-06 -5.7784979e-25 -1.3778703e-06)
(6.9502533e-06 -0.00049125213 -1.3531262e-25 -5.5816176e-06 9.4818093e-25 -1.3686358e-06)
(7.0402838e-06 -0.00048840375 1.2778449e-25 -5.6939541e-06 -2.603312e-25 -1.3463298e-06)
(7.0637284e-06 -0.00048414983 8.8559983e-26 -5.7530349e-06 -2.1930554e-26 -1.3106935e-06)
(7.0327651e-06 -0.00047847907 -7.7199882e-26 -5.7669538e-06 -9.1481084e-25 -1.2658114e-06)
(6.9555156e-06 -0.00047169672 -6.1755435e-27 -5.743088e-06 1.1071128e-24 -1.2124276e-06)
(6.8403544e-06 -0.00046384632 -1.4830155e-25 -5.6871511e-06 -3.9809127e-25 -1.1532033e-06)
(6.6933949e-06 -0.00045511281 1.8128706e-25 -5.604218e-06 -4.7982711e-25 -1.0891769e-06)
(6.5206639e-06 -0.00044555658 -3.7940474e-26 -5.4984952e-06 1.0519967e-25 -1.0221687e-06)
(6.3268985e-06 -0.00043530124 1.7067858e-26 -5.3736987e-06 2.5760321e-25 -9.5319973e-07)
(6.1166772e-06 -0.00042440908 1.0023291e-26 -5.2331395e-06 4.3510603e-25 -8.8353769e-07)
(5.8936538e-06 -0.00041297014 -1.9042273e-25 -5.0795936e-06 -4.1055075e-25 -8.1406018e-07)
(5.661368e-06 -0.00040104395 2.591145e-25 -4.9157204e-06 -2.2682377e-25 -7.4564764e-07)
(5.4227229e-06 -0.00038870134 -2.6068506e-25 -4.7437318e-06 3.3143259e-25 -6.7899113e-07)
(5.1805262e-06 -0.0003759968 8.965377e-26 -4.5658541e-06 -1.1734651e-25 -6.1467211e-07)
(4.9370151e-06 -0.00036298832 1.0235223e-25 -4.3838465e-06 2.9593661e-25 -5.5316856e-07)
(4.6946258e-06 -0.00034972557 -5.7531537e-26 -4.1997875e-06 -4.2918745e-25 -4.9483824e-07)
(4.4547483e-06 -0.00033625204 2.7614518e-27 -4.0148021e-06 2.1868478e-25 -4.3994627e-07)
(4.2184064e-06 -0.00032261679 1.2888337e-26 -3.8297096e-06 -1.3937524e-25 -3.8869672e-07)
(3.9879556e-06 -0.00030887019 4.8525031e-26 -3.6467144e-06 4.4675241e-26 -3.4124118e-07)
(3.7649049e-06 -0.00029504032 -6.4652653e-26 -3.4673414e-06 2.8684791e-26 -2.975635e-07)
(3.5494414e-06 -0.00028116095 -5.6665907e-26 -3.29176e-06 -4.9332831e-26 -2.5768147e-07)
(3.3423675e-06 -0.0002672678 4.370221e-26 -3.1208688e-06 3.3547308e-26 -2.214987e-07)
(3.1444822e-06 -0.00025339193 -1.911529e-26 -2.9555321e-06 4.6739727e-27 -1.8895008e-07)
(2.9563665e-06 -0.00023956053 3.5040253e-26 -2.7965137e-06 2.8438727e-28 -1.598528e-07)
(2.7782982e-06 -0.0002257991 -4.3974961e-26 -2.6442284e-06 1.1913463e-28 -1.3406976e-07)
(2.6106814e-06 -0.00021213132 8.5705091e-26 -2.4993082e-06 7.6400832e-28 -1.1137322e-07)