/*--------------------------------*- C++ -*----------------------------------*\
| =========                 |                                                 |
| \\      /  F ield         | OpenFOAM: The Open Source CFD Toolbox           |
|  \\    /   O peration     | Version:  2.4.0                                 |
|   \\  /    A nd           | Web:      www.OpenFOAM.org                      |
|    \\/     M anipulation  |                                                 |
\*---------------------------------------------------------------------------*/
FoamFile
{
    version     2.0;
    format      ascii;
    class       volScalarField;
    location    "7714";
    object      k;
}
// * * * * * * * * * * * * * * * * * * * * * * * * * * * * * * * * * * * * * //

dimensions      [0 2 -2 0 0 0 0];

internalField   nonuniform List<scalar> 
32000
(
2.565357e-07
2.7777324e-07
2.2094492e-07
1.7079346e-07
1.0469355e-07
5.3407845e-08
1.7536654e-08
6.9854352e-09
1.171559e-08
1.6361819e-08
1.4912295e-08
1.2870551e-08
1.1017962e-08
9.659241e-09
8.7183573e-09
8.0069e-09
7.4253622e-09
6.9415674e-09
6.5907461e-09
6.2330361e-09
5.8795134e-09
5.5583086e-09
5.2850221e-09
5.081539e-09
4.9683512e-09
4.9625179e-09
5.0491943e-09
5.1835022e-09
5.3800845e-09
5.6690723e-09
6.0598141e-09
6.5648557e-09
7.1900537e-09
7.9293677e-09
8.7788875e-09
9.7434018e-09
1.0853359e-08
1.2135297e-08
1.3566382e-08
1.5122054e-08
1.6785987e-08
1.851998e-08
2.0282055e-08
2.1991178e-08
2.3596185e-08
2.5040782e-08
2.759924e-08
3.5296233e-08
4.2143978e-08
4.7565863e-08
5.2673182e-08
5.7220329e-08
6.1458102e-08
6.5304727e-08
6.8863861e-08
7.2113397e-08
7.50984e-08
7.7812459e-08
8.0279221e-08
8.2501707e-08
8.4495229e-08
8.6266111e-08
8.7825483e-08
8.9180124e-08
9.0340726e-08
9.1313669e-08
9.2109147e-08
9.2734716e-08
9.3198783e-08
9.3514397e-08
9.3678789e-08
9.3690208e-08
9.3568405e-08
9.3360068e-08
9.3046491e-08
9.2614302e-08
9.2089623e-08
9.1478959e-08
9.0790686e-08
9.0032176e-08
8.9211288e-08
8.833487e-08
8.740908e-08
8.6440921e-08
8.5436117e-08
8.4399705e-08
8.3337553e-08
8.2252301e-08
8.1153292e-08
8.0034517e-08
7.8905817e-08
7.7766788e-08
7.6618495e-08
7.5461755e-08
7.4299161e-08
7.3136519e-08
7.1980983e-08
7.0837753e-08
6.9708836e-08
6.8594605e-08
6.7494921e-08
6.6408879e-08
6.533544e-08
6.4274315e-08
6.3225425e-08
6.2188519e-08
6.1163487e-08
6.0150471e-08
5.9149163e-08
5.8159511e-08
5.7181577e-08
5.6215023e-08
5.5259905e-08
5.431596e-08
5.3382931e-08
5.2460804e-08
5.1549156e-08
5.0647677e-08
4.975619e-08
4.8874208e-08
4.8001275e-08
4.7137089e-08
4.6281031e-08
4.543255e-08
4.4591159e-08
4.3756174e-08
4.2926852e-08
4.2102613e-08
4.1282534e-08
4.0465838e-08
3.9651545e-08
3.8838827e-08
3.8026311e-08
3.7213239e-08
3.6397791e-08
3.5579357e-08
3.4755732e-08
3.3926715e-08
3.3087157e-08
3.2238471e-08
3.1372002e-08
3.0494369e-08
2.9589303e-08
2.867103e-08
2.7714567e-08
2.6746259e-08
2.5713628e-08
2.4675858e-08
2.3525872e-08
2.2394352e-08
2.1037515e-08
1.9783699e-08
1.7888928e-08
1.5878701e-08
1.6444921e-08
1.814856e-08
1.9892472e-08
2.1567542e-08
2.3160494e-08
2.4662474e-08
2.615916e-08
2.7643619e-08
2.9148681e-08
3.0693551e-08
3.2411164e-08
3.4393523e-08
3.6479451e-08
3.8630476e-08
4.0852579e-08
4.3138488e-08
4.5459427e-08
4.7778726e-08
5.0198691e-08
5.2130775e-08
5.3476898e-08
5.4283732e-08
5.5364687e-08
5.6436531e-08
5.7516917e-08
5.8699403e-08
6.0071028e-08
6.1863471e-08
6.4024873e-08
6.8219265e-08
7.4984824e-08
8.2128214e-08
9.08227e-08
1.0233492e-07
1.1799676e-07
1.3971072e-07
1.6959776e-07
2.1145624e-07
2.6813634e-07
3.12523e-07
2.9705617e-07
2.4836056e-07
1.6190914e-07
1.5700286e-07
1.2497966e-07
1.3553479e-07
8.3940908e-06
9.0878135e-06
7.2288902e-06
5.58887e-06
3.4279202e-06
1.7509452e-06
5.7652623e-07
2.2872034e-07
3.8208277e-07
5.348189e-07
4.8825425e-07
4.2156543e-07
3.6089186e-07
3.1632519e-07
2.8545615e-07
2.621294e-07
2.430679e-07
2.2719647e-07
2.1568793e-07
2.0397297e-07
1.9238991e-07
1.8185888e-07
1.7289158e-07
1.6620349e-07
1.6246596e-07
1.6224263e-07
1.6505833e-07
1.6944062e-07
1.7585618e-07
1.8529146e-07
1.9805582e-07
2.145615e-07
2.3500404e-07
2.5918867e-07
2.8698711e-07
3.1855088e-07
3.5487252e-07
3.9682932e-07
4.4368305e-07
4.9462877e-07
5.4913205e-07
6.0594286e-07
6.6368582e-07
7.197028e-07
7.7231182e-07
8.1963909e-07
9.0333675e-07
1.1551152e-06
1.3791275e-06
1.556523e-06
1.7236396e-06
1.8724252e-06
2.0110902e-06
2.1369558e-06
2.2534152e-06
2.359742e-06
2.4574101e-06
2.5462125e-06
2.6269235e-06
2.6996415e-06
2.7648678e-06
2.8228091e-06
2.8738298e-06
2.9181515e-06
2.9561243e-06
2.9879567e-06
3.0139824e-06
3.0344486e-06
3.0496305e-06
3.0599548e-06
3.0653311e-06
3.0657017e-06
3.0617139e-06
3.0548949e-06
3.0446319e-06
3.0304879e-06
3.0133177e-06
2.9933341e-06
2.9708111e-06
2.9459898e-06
2.9191276e-06
2.8904484e-06
2.8601537e-06
2.8284727e-06
2.7955927e-06
2.7616784e-06
2.7269219e-06
2.6914095e-06
2.6554469e-06
2.6188375e-06
2.5819034e-06
2.5446313e-06
2.5070561e-06
2.4692043e-06
2.4311611e-06
2.3931163e-06
2.3553042e-06
2.3178946e-06
2.2809534e-06
2.2444927e-06
2.208508e-06
2.1729696e-06
2.1378436e-06
2.1031205e-06
2.0687978e-06
2.0348671e-06
2.001325e-06
1.968176e-06
1.9354101e-06
1.9030257e-06
1.8710247e-06
1.8393959e-06
1.8081415e-06
1.7772526e-06
1.7467209e-06
1.7165459e-06
1.6867138e-06
1.6572145e-06
1.6280421e-06
1.5991807e-06
1.5706155e-06
1.5423364e-06
1.5143233e-06
1.4865582e-06
1.4590251e-06
1.4317016e-06
1.4045634e-06
1.3775915e-06
1.3507558e-06
1.3240308e-06
1.2973845e-06
1.2707897e-06
1.2442015e-06
1.2175952e-06
1.1909111e-06
1.1641294e-06
1.1371776e-06
1.1100491e-06
1.0825758e-06
1.0548039e-06
1.0264501e-06
9.977311e-07
9.6811442e-07
9.3806571e-07
9.0676728e-07
8.7508165e-07
8.4129097e-07
8.07333e-07
7.6970238e-07
7.3267806e-07
6.8827885e-07
6.4725816e-07
5.8528238e-07
5.1957451e-07
5.3821094e-07
5.9405712e-07
6.5120351e-07
7.0609054e-07
7.5827991e-07
8.0749352e-07
8.5653748e-07
9.0518107e-07
9.5450412e-07
1.005149e-06
1.0614733e-06
1.1264405e-06
1.1947582e-06
1.2651985e-06
1.3379616e-06
1.4128022e-06
1.4887723e-06
1.5646901e-06
1.6438202e-06
1.7068847e-06
1.7507859e-06
1.777188e-06
1.8126432e-06
1.8477562e-06
1.8831694e-06
1.9219557e-06
1.9669844e-06
2.0258186e-06
2.0969679e-06
2.2349361e-06
2.4567339e-06
2.690682e-06
2.9756627e-06
3.3530848e-06
3.8664966e-06
4.5780442e-06
5.556991e-06
6.9271856e-06
8.7786309e-06
1.0223224e-05
9.711877e-06
8.1189795e-06
5.2943236e-06
5.1362855e-06
4.0892302e-06
4.4351585e-06
6.3590513e-05
6.8829938e-05
5.4756177e-05
4.235039e-05
2.5996163e-05
1.3298505e-05
4.3921289e-06
1.7357062e-06
2.8861234e-06
4.0489081e-06
3.7032528e-06
3.1992118e-06
2.7392704e-06
2.4008797e-06
2.1664396e-06
1.9893958e-06
1.8447775e-06
1.7242022e-06
1.6367364e-06
1.5478462e-06
1.4599173e-06
1.3799207e-06
1.3117452e-06
1.2608076e-06
1.2322022e-06
1.2302424e-06
1.2514214e-06
1.2845563e-06
1.33308e-06
1.4044649e-06
1.5010825e-06
1.626072e-06
1.7809489e-06
1.9642608e-06
2.1750326e-06
2.4143607e-06
2.6897184e-06
3.0078225e-06
3.3631636e-06
3.7496323e-06
4.1631753e-06
4.5943223e-06
5.0326448e-06
5.457961e-06
5.857495e-06
6.2168358e-06
6.850683e-06
8.7579423e-06
1.045437e-05
1.1798368e-05
1.3064618e-05
1.4191946e-05
1.5242635e-05
1.6196328e-05
1.7078772e-05
1.7884386e-05
1.862436e-05
1.9297161e-05
1.9908664e-05
2.0459609e-05
2.0953798e-05
2.1392793e-05
2.1779358e-05
2.2115169e-05
2.2402878e-05
2.2644067e-05
2.2841263e-05
2.2996338e-05
2.3111376e-05
2.3189603e-05
2.3230364e-05
2.3233176e-05
2.3202972e-05
2.3151318e-05
2.307357e-05
2.2966413e-05
2.2836326e-05
2.2684922e-05
2.2514274e-05
2.2326212e-05
2.2122684e-05
2.1905387e-05
2.1675846e-05
2.14358e-05
2.1186666e-05
2.0929694e-05
2.0666337e-05
2.0397251e-05
2.0124751e-05
1.9847349e-05
1.9567483e-05
1.9285054e-05
1.9000326e-05
1.8713501e-05
1.8425225e-05
1.8136937e-05
1.7850411e-05
1.7566935e-05
1.7287006e-05
1.7010715e-05
1.6738029e-05
1.6468723e-05
1.620254e-05
1.5939409e-05
1.5679311e-05
1.5422182e-05
1.5167997e-05
1.4916791e-05
1.4668486e-05
1.4423071e-05
1.4180562e-05
1.3940872e-05
1.3704018e-05
1.3469933e-05
1.3238555e-05
1.300988e-05
1.2783802e-05
1.2560246e-05
1.2339167e-05
1.2120444e-05
1.1903966e-05
1.1689656e-05
1.1477361e-05
1.1266945e-05
1.1058287e-05
1.0851218e-05
1.0645553e-05
1.0441148e-05
1.0237775e-05
1.0035242e-05
9.8333043e-06
9.6317576e-06
9.4302615e-06
9.2286282e-06
9.0264061e-06
8.8234446e-06
8.6191891e-06
8.4135923e-06
8.2053822e-06
7.9949105e-06
7.780029e-06
7.5623819e-06
7.3379309e-06
7.110209e-06
6.8730141e-06
6.6328913e-06
6.3768102e-06
6.1194743e-06
5.8342932e-06
5.5537356e-06
5.2172579e-06
4.9064703e-06
4.4370611e-06
3.9400193e-06
4.0823456e-06
4.5064052e-06
4.9401663e-06
5.3567885e-06
5.7529078e-06
6.1265112e-06
6.4988667e-06
6.8681883e-06
7.2427014e-06
7.6273766e-06
8.0552426e-06
8.5483246e-06
9.0664242e-06
9.6005314e-06
1.0152195e-05
1.0719494e-05
1.1295186e-05
1.1870465e-05
1.2469434e-05
1.2945996e-05
1.327763e-05
1.3477961e-05
1.3747469e-05
1.4013995e-05
1.4282966e-05
1.4577735e-05
1.4920207e-05
1.536754e-05
1.5909935e-05
1.6960333e-05
1.8642472e-05
2.0415328e-05
2.2576142e-05
2.5438297e-05
2.9330766e-05
3.4722514e-05
4.2135778e-05
5.2505396e-05
6.6492754e-05
7.7391226e-05
7.3499495e-05
6.1462229e-05
4.0098535e-05
3.8929002e-05
3.099241e-05
3.3620486e-05
0.00024951995
0.0002699922
0.00021478685
0.00016635038
0.00010227333
5.2444132e-05
1.7380118e-05
6.8356256e-06
1.1302738e-05
1.5894709e-05
1.4567643e-05
1.2592981e-05
1.0785111e-05
9.4525923e-06
8.5291426e-06
7.8321379e-06
7.2632074e-06
6.7880719e-06
6.4432189e-06
6.0933385e-06
5.7470837e-06
5.4318371e-06
5.1629331e-06
4.9616409e-06
4.8480089e-06
4.8391484e-06
4.9217036e-06
5.0516107e-06
5.2419331e-06
5.5220148e-06
5.9012786e-06
6.3921253e-06
7.000653e-06
7.7212393e-06
8.5500489e-06
9.4911979e-06
1.0573812e-05
1.1824505e-05
1.3221996e-05
1.474225e-05
1.6369325e-05
1.8066078e-05
1.9791509e-05
2.1466463e-05
2.3040692e-05
2.4458561e-05
2.694884e-05
3.4443522e-05
4.1095546e-05
4.6371625e-05
5.1342877e-05
5.5768597e-05
5.989371e-05
6.3637962e-05
6.7102693e-05
7.0265566e-05
7.3170753e-05
7.5812289e-05
7.8213305e-05
8.0376662e-05
8.2317303e-05
8.4041343e-05
8.5559629e-05
8.6878729e-05
8.8009051e-05
8.8956786e-05
8.9731847e-05
9.0341572e-05
9.0794128e-05
9.1102069e-05
9.1263247e-05
9.1275103e-05
9.1157384e-05
9.0955441e-05
9.0651021e-05
9.0231091e-05
8.9721084e-05
8.9127323e-05
8.8457952e-05
8.7720146e-05
8.6921549e-05
8.6068828e-05
8.5167972e-05
8.42258e-05
8.3247885e-05
8.2239129e-05
8.1205245e-05
8.0148803e-05
7.9078906e-05
7.7989702e-05
7.6890775e-05
7.5781731e-05
7.4663614e-05
7.3537221e-05
7.2405102e-05
7.1272912e-05
7.0147611e-05
6.9034248e-05
6.7934771e-05
6.6849539e-05
6.5778419e-05
6.4720534e-05
6.3674886e-05
6.2641208e-05
6.1619421e-05
6.0609285e-05
5.9610698e-05
5.8623797e-05
5.7648282e-05
5.6684109e-05
5.5731335e-05
5.4789629e-05
5.3859055e-05
5.2939349e-05
5.2030271e-05
5.1131799e-05
5.0243528e-05
4.9365158e-05
4.8496513e-05
4.7637121e-05
4.6786541e-05
4.5944478e-05
4.5110328e-05
4.4283559e-05
4.3463695e-05
4.2650069e-05
4.1841962e-05
4.1038806e-05
4.0239703e-05
3.9443899e-05
3.8650438e-05
3.7858514e-05
3.7066789e-05
3.6274529e-05
3.5479958e-05
3.4682485e-05
3.3879913e-05
3.307206e-05
3.2253944e-05
3.1426952e-05
3.0582636e-05
2.9727466e-05
2.8845557e-05
2.7950817e-05
2.7018845e-05
2.6075405e-05
2.5069231e-05
2.4058198e-05
2.2937685e-05
2.1835498e-05
2.0513418e-05
1.9292741e-05
1.7449683e-05
1.5500582e-05
1.6063091e-05
1.7732028e-05
1.9439147e-05
2.1078927e-05
2.2638097e-05
2.4108997e-05
2.5575182e-05
2.7029456e-05
2.850432e-05
3.0019682e-05
3.1705204e-05
3.3645524e-05
3.5682654e-05
3.778239e-05
3.9950781e-05
4.218004e-05
4.444146e-05
4.6701131e-05
4.9051072e-05
5.0917571e-05
5.2216241e-05
5.3004756e-05
5.4066828e-05
5.5115424e-05
5.6174371e-05
5.7335348e-05
5.8685037e-05
6.0447183e-05
6.2589209e-05
6.6731286e-05
7.3332158e-05
8.0289216e-05
8.8766341e-05
9.9992922e-05
0.00011524835
0.00013635378
0.00016532438
0.00020578969
0.00026025159
0.00030275719
0.00028771456
0.00024103102
0.00015748459
0.00015310765
0.00012184572
0.00013220297
0.0006954023
0.00075188097
0.00059811956
0.00046478447
0.00028672933
0.00014769194
4.9154927e-05
1.9216323e-05
3.1543339e-05
4.446951e-05
4.0849772e-05
3.5338766e-05
3.0274602e-05
2.6534244e-05
2.3941146e-05
2.1984412e-05
2.0389489e-05
1.905476e-05
1.808543e-05
1.710368e-05
1.6131644e-05
1.5245948e-05
1.4489725e-05
1.3922498e-05
1.3600502e-05
1.3572059e-05
1.3801169e-05
1.4163968e-05
1.4695823e-05
1.5478845e-05
1.6539676e-05
1.7913226e-05
1.9616962e-05
2.163534e-05
2.3957658e-05
2.6595008e-05
2.9628086e-05
3.3131662e-05
3.7047186e-05
4.1307393e-05
4.5867483e-05
5.0624071e-05
5.5462221e-05
6.0162581e-05
6.4584437e-05
6.8584708e-05
7.5557624e-05
9.6546922e-05
0.00011506902
0.00012979351
0.00014366612
0.00015601548
0.0001675265
0.0001779745
0.00018764334
0.00019646992
0.00020457829
0.00021195165
0.00021865482
0.00022469566
0.00023011594
0.00023493264
0.00023917601
0.00024286427
0.0002460264
0.00024867956
0.00025085132
0.00025256206
0.00025383441
0.00025470266
0.00025516355
0.00025520564
0.00025488636
0.00025433185
0.00025349115
0.00025232769
0.00025091235
0.00024926277
0.00024740162
0.0002453489
0.00024312591
0.00024075125
0.00023824163
0.00023561608
0.00023289015
0.00023007755
0.00022719422
0.00022424736
0.00022126241
0.00021822304
0.00021515602
0.00021206025
0.00020893867
0.00020579351
0.00020263197
0.00019946985
0.00019632655
0.00019321615
0.0001901441
0.00018711143
0.00018411778
0.00018116077
0.00017823768
0.00017534782
0.00017249102
0.00016966662
0.00016687437
0.00016411467
0.00016138668
0.00015869031
0.00015602571
0.00015339196
0.00015078926
0.00014821687
0.00014567412
0.00014316096
0.00014067627
0.0001382192
0.00013578928
0.00013338519
0.0001310057
0.00012864999
0.00012631639
0.00012400339
0.00012170968
0.0001194334
0.00011717254
0.0001149255
0.00011268979
0.00011046331
0.00010824337
0.00010602772
0.00010381263
0.00010159605
9.9373004e-05
9.714184e-05
9.4896407e-05
9.2636199e-05
9.03473e-05
8.80336e-05
8.5671447e-05
8.3278953e-05
8.0811628e-05
7.8308454e-05
7.5701075e-05
7.3061676e-05
7.0246653e-05
6.7418199e-05
6.4283176e-05
6.1199847e-05
5.7500651e-05
5.4086617e-05
4.8934188e-05
4.3489412e-05
4.5066151e-05
4.9740325e-05
5.4525634e-05
5.9122434e-05
6.3494369e-05
6.7619836e-05
7.1732733e-05
7.5812185e-05
7.9949852e-05
8.4202263e-05
8.8931477e-05
9.4368513e-05
0.00010007231
0.00010595035
0.00011201883
0.0001182551
0.00012457804
0.00013089504
0.00013745532
0.00014265638
0.0001462748
0.00014848373
0.00015146058
0.00015439382
0.00015735778
0.00016060768
0.00016438758
0.00016931886
0.00017532699
0.00018692845
0.00020529263
0.00022467387
0.000248239
0.00027941318
0.00032167803
0.00037996667
0.00045961086
0.00057034327
0.00071857292
0.00083474754
0.0007953946
0.00067009347
0.00043985964
0.00042902794
0.00034127976
0.00037041528
0.0015714433
0.0016965141
0.0013501024
0.0010558778
0.00065594873
0.00034078068
0.00011414705
4.4304783e-05
7.2016091e-05
0.00010177798
9.3734484e-05
8.1160707e-05
6.9557995e-05
6.0967508e-05
5.5008749e-05
5.0511376e-05
4.6854527e-05
4.3786166e-05
4.1556296e-05
3.9301912e-05
3.7068691e-05
3.5031993e-05
3.3291168e-05
3.1982506e-05
3.1235046e-05
3.1160199e-05
3.1679387e-05
3.2507321e-05
3.3722171e-05
3.5511886e-05
3.7937851e-05
4.1080326e-05
4.498017e-05
4.9602016e-05
5.4921396e-05
6.0962845e-05
6.7908396e-05
7.5928493e-05
8.4891198e-05
9.4642735e-05
0.0001050797
0.00011596817
0.00012704477
0.0001378189
0.00014796936
0.0001572232
0.00017314408
0.00022114839
0.00026301608
0.00029642804
0.00032788933
0.0003558882
0.00038198238
0.00040566375
0.00042757958
0.00044758762
0.00046597081
0.00048269135
0.00049789735
0.00051160672
0.00052391457
0.00053485925
0.00054450929
0.00055290565
0.00056011364
0.00056617175
0.00057114188
0.00057506971
0.00057800585
0.00058002462
0.00058112992
0.00058127827
0.00058060853
0.00057940483
0.00057755174
0.00057496542
0.00057180581
0.00056811281
0.00056393744
0.00055932487
0.0005543231
0.00054897424
0.00054331609
0.00053739166
0.00053123624
0.00052488093
0.00051836183
0.00051169533
0.00050493908
0.00049805632
0.00049110749
0.00048409023
0.00047701121
0.00046987558
0.00046269987
0.00045552006
0.00044838024
0.00044131236
0.00043432893
0.00042743251
0.0004206225
0.00041389375
0.00040724051
0.00040066147
0.00039415641
0.00038772407
0.00038136403
0.00037507723
0.00036886195
0.00036271799
0.00035664575
0.00035064324
0.00034471089
0.00033884708
0.00033305035
0.00032732057
0.00032165524
0.00031605249
0.00031051122
0.00030502846
0.00029960149
0.0002942284
0.00028890543
0.0002836292
0.0002783967
0.00027320371
0.0002680457
0.00026291903
0.00025781803
0.0002527379
0.00024767256
0.00024261688
0.00023756237
0.00023250432
0.00022743143
0.00022233989
0.00021721571
0.00021205777
0.00020683432
0.00020155423
0.0001961635
0.0001907034
0.00018507228
0.00017935923
0.00017340806
0.00016738359
0.00016095767
0.00015450099
0.00014734334
0.00014030407
0.00013185625
0.0001240625
0.00011230685
9.9880162e-05
0.00010347203
0.00011415033
0.0001251049
0.00013562771
0.00014564137
0.00015509292
0.00016451784
0.00017386576
0.00018334839
0.00019309589
0.00020393201
0.00021636945
0.00022940639
0.00024283767
0.00025669642
0.00027092819
0.00028534511
0.00029974214
0.00031466694
0.00032647299
0.00033468493
0.00033972584
0.00034651844
0.00035319447
0.00035994352
0.00036734148
0.00037594763
0.00038716201
0.00040084937
0.0004272436
0.00046861555
0.00051241068
0.00056536381
0.00063521022
0.00072941658
0.00085843459
0.0010328891
0.001272649
0.0015894251
0.0018383997
0.0017610477
0.0015011922
0.00099669943
0.00097892998
0.00077942214
0.000846832
0.0030547822
0.0032877674
0.0026227299
0.0020730754
0.0013049532
0.00068853993
0.00023317582
8.9857349e-05
0.00014413597
0.00020414591
0.00018856706
0.00016345201
0.00014016431
0.00012287174
0.00011086737
0.00010179859
9.445313e-05
8.8268284e-05
8.3769873e-05
7.9230397e-05
7.4730867e-05
7.0622961e-05
6.7107471e-05
6.4457923e-05
6.2933816e-05
6.2759567e-05
6.3787076e-05
6.5439323e-05
6.786708e-05
7.1447179e-05
7.630278e-05
8.2595014e-05
9.0407048e-05
9.966736e-05
0.00011032622
0.00012243044
0.0001363366
0.00015238079
0.00017030107
0.00018978913
0.0002106345
0.00023237714
0.00025449013
0.00027603015
0.0002963617
0.00031508794
0.00034663135
0.00044230904
0.00052403313
0.00058963013
0.00065129686
0.00070613004
0.00075719651
0.0008035188
0.00084637547
0.00088549731
0.00092144435
0.00095414937
0.0009839065
0.0010107536
0.0010348787
0.0010563577
0.001075325
0.0010918602
0.0011060902
0.001118089
0.0011279759
0.0011358385
0.0011417731
0.0011459144
0.0011483037
0.0011488047
0.0011477108
0.0011455724
0.0011421642
0.0011373193
0.0011313471
0.0011243247
0.0011163503
0.0011075111
0.0010978997
0.0010875977
0.0010766784
0.0010652251
0.0010533065
0.0010409832
0.0010283254
0.0010153651
0.001002214
0.00098880194
0.00097524552
0.00096154048
0.00094769999
0.00093373442
0.000919677
0.00090559887
0.00089158676
0.00087770372
0.00086397522
0.00085040712
0.00083699907
0.00082374219
0.0008106266
0.00079765075
0.00078481496
0.00077211755
0.00075955833
0.00074713955
0.00073485832
0.00072271459
0.00071070937
0.00069883902
0.00068710458
0.00067550304
0.00066403173
0.00065269044
0.00064147443
0.00063038018
0.00061940554
0.00060854484
0.0005977928
0.0005871457
0.00057659622
0.00056613784
0.00055576458
0.00054546824
0.00053523992
0.00052507244
0.00051495466
0.00050487715
0.00049482785
0.00048479668
0.00047476681
0.00046472892
0.0004546606
0.00044455426
0.00043438204
0.00042414176
0.00041377055
0.00040328591
0.00039258055
0.00038173606
0.00037055025
0.00035920011
0.00034737489
0.00033540169
0.0003226276
0.00030978963
0.0002955529
0.00028154908
0.00026473339
0.00024922176
0.00022583845
0.00020106476
0.00020817898
0.00022944641
0.00025133456
0.00027235626
0.00029238062
0.00031128662
0.00033014669
0.00034885238
0.00036783235
0.00038734489
0.00040901996
0.00043384296
0.00045983738
0.00048660285
0.00051419129
0.00054248602
0.0005711057
0.00059965727
0.00062918021
0.00065246364
0.00066865563
0.00067865085
0.00069210877
0.00070529383
0.00071862772
0.0007332319
0.0007502177
0.00077231143
0.00079929703
0.00085126042
0.00093151932
0.0010169257
0.0011190467
0.0012529543
0.0014318298
0.0016736397
0.0019943822
0.0024254803
0.0029810362
0.0034155734
0.0032975321
0.0028632111
0.0019425931
0.0019311295
0.001544993
0.0016824128
0.0052404328
0.005608629
0.0045031167
0.0036157102
0.002327701
0.0012605861
0.00043525824
0.00016690972
0.00026288639
0.00037284392
0.00034556287
0.00029996334
0.00025744092
0.00022574929
0.00020372278
0.00018704888
0.00017362079
0.00016226152
0.00015399056
0.00014566001
0.00013739711
0.00012984383
0.0001233702
0.00011847608
0.00011563657
0.00011526135
0.0001171014
0.00012009204
0.00012449563
0.00013099927
0.00013982544
0.00015126639
0.00016547365
0.0001823117
0.00020168519
0.00022367125
0.00024889495
0.00027794556
0.00031034341
0.0003455231
0.00038309085
0.0004222315
0.00046199537
0.00050077795
0.00053746767
0.00057168959
0.00062781314
0.0007987404
0.00094052033
0.0010550455
0.0011623311
0.0012575475
0.0013460621
0.0014262586
0.0015003832
0.001568015
0.0016301393
0.0016866692
0.0017381273
0.0017845931
0.0018263991
0.0018636834
0.0018966811
0.0019255314
0.0019504526
0.0019715714
0.0019890898
0.002003156
0.0020139303
0.0020216197
0.0020263705
0.0020278424
0.0020265705
0.0020235012
0.0020182459
0.0020105097
0.0020008151
0.0019892924
0.0019761059
0.0019614019
0.0019453361
0.001928046
0.0019096553
0.0018903048
0.0018701108
0.0018491765
0.0018276206
0.001805499
0.0017829971
0.0017600032
0.0017367104
0.0017131131
0.0016892346
0.0016650939
0.0016407509
0.0016163311
0.0015919861
0.001567827
0.0015439008
0.00152022
0.0014967865
0.0014735886
0.001450613
0.0014278599
0.001405332
0.0013830288
0.0013609518
0.0013391064
0.0013174889
0.0012961007
0.0012749441
0.0012540138
0.0012333124
0.0012128351
0.0011925782
0.0011725413
0.0011527169
0.0011330992
0.0011136848
0.001094464
0.0010754282
0.0010565708
0.0010378794
0.0010193428
0.0010009506
0.00098268863
0.00096454151
0.00094649652
0.00092853428
0.00091063827
0.00089278712
0.00087496311
0.00085713652
0.0008392907
0.00082138596
0.00080340852
0.00078530858
0.00076708204
0.00074861766
0.00072994587
0.00071087558
0.00069155049
0.00067160972
0.00065136773
0.00063026971
0.00060889622
0.00058608076
0.00056313684
0.00053767438
0.00051261142
0.00048248253
0.00045467896
0.00041278313
0.00036815024
0.00038082211
0.0004190088
0.00045849106
0.00049639481
0.000532557
0.00056671626
0.00060081713
0.00063464542
0.00066898757
0.00070429905
0.00074347328
0.00078819866
0.00083497528
0.00088308777
0.0009325886
0.00098324594
0.0010343573
0.0010852494
0.0011376726
0.0011788426
0.0012074932
0.0012252865
0.0012491991
0.0012725438
0.0012961629
0.0013219991
0.0013520247
0.0013909738
0.0014384947
0.0015298076
0.00166775
0.0018158458
0.0019895366
0.0022150869
0.0025118574
0.002904952
0.0034113741
0.0040690961
0.0048852432
0.0055111579
0.0053735356
0.0047738612
0.0033466027
0.0033815712
0.0027356155
0.0029874832
0.0080383874
0.0085334784
0.0069269247
0.0056736746
0.0037742144
0.0021253179
0.0007581656
0.00029121655
0.00044731341
0.00063418429
0.0005900794
0.00051318017
0.00044098596
0.00038692558
0.00034928212
0.00032068239
0.0002978362
0.00027838763
0.00026420417
0.00024994725
0.00023579514
0.00022283834
0.00021171284
0.00020326918
0.00019831713
0.00019754859
0.00020058356
0.00020559144
0.00021298882
0.00022393977
0.00023881127
0.00025808946
0.0002820231
0.00031036169
0.00034292346
0.00037981173
0.00042201662
0.00047046212
0.00052431259
0.00058259505
0.00064461695
0.00070905369
0.00077434819
0.00083806738
0.00089850898
0.0009557447
0.0010470367
0.0013232544
0.0015443664
0.0017239549
0.0018911955
0.0020391685
0.0021762829
0.0023002629
0.0024146425
0.0025188994
0.0026145818
0.0027016343
0.0027808927
0.0028525189
0.0029170431
0.002974699
0.0030258577
0.0030707423
0.0031096893
0.0031428957
0.003170667
0.0031932271
0.0032108138
0.0032237015
0.0032322298
0.0032357503
0.0032350562
0.0032316335
0.0032248798
0.0032143308
0.0032007634
0.0031843707
0.0031653928
0.0031440447
0.0031205546
0.0030951251
0.0030679384
0.0030392021
0.0030090882
0.0029777497
0.0029453623
0.0029120135
0.002877962
0.0028430687
0.0028076029
0.0027715621
0.0027349826
0.002697896
0.0026604005
0.002622693
0.0025850101
0.0025475282
0.0025103237
0.0024734196
0.0024368252
0.0024005302
0.0023645216
0.0023288057
0.0022933915
0.0022582831
0.0022234873
0.0021890151
0.0021548649
0.0021210412
0.0020875499
0.0020543852
0.0020215526
0.0019890466
0.0019568627
0.0019250015
0.0018934526
0.0018622084
0.0018312636
0.0018006047
0.0017702187
0.0017400959
0.0017102175
0.0016805668
0.0016511275
0.0016218778
0.001592794
0.0015638559
0.0015350332
0.0015063001
0.0014776224
0.001448972
0.0014203014
0.0013915838
0.0013627554
0.0013337935
0.001304617
0.0012752187
0.0012454203
0.0012152687
0.0011844556
0.0011532078
0.0011209413
0.0010881599
0.001053965
0.0010192861
0.00098223119
0.00094491895
0.00090345793
0.00086258482
0.00081335792
0.00076786713
0.00069933009
0.00062552717
0.0006461425
0.00070889406
0.00077416865
0.00083679785
0.00089669135
0.00095332687
0.0010099428
0.0010661508
0.0011232754
0.0011820388
0.0012471036
0.001321072
0.0013983003
0.0014775924
0.001558937
0.0016419009
0.0017252936
0.001808069
0.0018928538
0.0019590632
0.0020053496
0.0020343122
0.0020730542
0.0021107613
0.0021489496
0.0021906547
0.0022390411
0.0023015595
0.002377521
0.0025229119
0.0027355184
0.0029673532
0.003231175
0.0035692204
0.0040051162
0.0045671013
0.0052647287
0.0061318898
0.0071570798
0.0079104763
0.0077974979
0.0070921969
0.0051779118
0.0053234562
0.0043823673
0.0047944983
0.011189351
0.011764611
0.009677979
0.0080966069
0.0056063758
0.0033216755
0.0012454869
0.00048489336
0.00072074989
0.0010183063
0.00095167503
0.00082975271
0.00071437414
0.00062744067
0.00056673129
0.00052033209
0.00048367242
0.00045219912
0.00042919054
0.0004061137
0.0003831873
0.0003621571
0.00034405596
0.0003302491
0.00032203815
0.00032051677
0.00032515118
0.00033298125
0.00034460303
0.0003618706
0.00038533731
0.0004157464
0.00045346078
0.00049801722
0.00054906303
0.00060668572
0.00067229822
0.00074718499
0.00082994328
0.00091898925
0.0010131811
0.0011105438
0.0012087743
0.0013046116
0.0013958578
0.0014839139
0.0016208513
0.0020257597
0.002337353
0.0025917555
0.00282683
0.0030341057
0.0032253791
0.0033979311
0.0035567418
0.0037013171
0.0038338341
0.0039543534
0.0040640751
0.0041632924
0.0042527667
0.0043328589
0.0044040982
0.0044668108
0.0045214667
0.0045683453
0.0046078641
0.0046403315
0.0046660658
0.0046853966
0.0046988894
0.0047056494
0.0047065226
0.0047037168
0.0046963757
0.0046838449
0.0046671545
0.0046465613
0.0046223773
0.0045948835
0.0045643768
0.0045311219
0.0044953565
0.0044573515
0.0044173319
0.0043754983
0.0043320804
0.0042872038
0.0042411672
0.0041938519
0.004145569
0.0040963282
0.0040461796
0.0039951714
0.003943447
0.0038912833
0.0038390123
0.0037868812
0.0037349955
0.0036833929
0.0036320961
0.0035811018
0.0035304037
0.0034800192
0.0034299675
0.0033802619
0.0033309183
0.0032819567
0.0032333807
0.0031852012
0.0031374297
0.0030900622
0.0030431095
0.0029965665
0.0029504302
0.0029047028
0.0028593724
0.0028144304
0.0027698705
0.0027256757
0.0026818293
0.0026383182
0.0025951176
0.0025522048
0.0025095571
0.0024671449
0.0024249352
0.002382899
0.0023409941
0.0022991834
0.0022574179
0.0022156571
0.0021738328
0.0021319048
0.002089781
0.0020474261
0.0020047211
0.0019616533
0.0019179638
0.0018737157
0.0018284584
0.0017825124
0.0017350197
0.0016867074
0.0016362559
0.0015850046
0.0015301684
0.0014748358
0.001413245
0.0013523705
0.0012788693
0.0012107616
0.0011081922
0.00099571376
0.001026442
0.0011211425
0.0012204243
0.0013156599
0.0014070635
0.0014936926
0.001580506
0.0016668655
0.0017548174
0.0018453935
0.0019454217
0.0020585047
0.0021763198
0.0022969814
0.0024202776
0.0025454503
0.0026706428
0.002794373
0.0029201021
0.003017657
0.003086749
0.0031305138
0.0031883233
0.0032445452
0.0033015969
0.0033637879
0.0034357332
0.0035281808
0.003639529
0.0038511168
0.0041468651
0.0044783158
0.0048395681
0.0052955054
0.0058699446
0.0065882591
0.0074446578
0.0084582118
0.0095903965
0.010363204
0.010315613
0.0095807013
0.007308868
0.0076256302
0.0064103716
0.0070028692
0.014406459
0.015003684
0.012504568
0.010663614
0.0076996989
0.0048315067
0.0019371066
0.00077770786
0.0011103808
0.0015555454
0.0014607668
0.0012779402
0.0011033169
0.00097067368
0.00087763339
0.00080587127
0.00074997735
0.00070145184
0.00066584289
0.00063021924
0.00059479885
0.00056223176
0.00053411346
0.00051252534
0.00049945435
0.00049652495
0.00050303833
0.00051448482
0.00053160191
0.00055717884
0.00059197102
0.00063701513
0.00069276473
0.00075836565
0.00083313537
0.00091703663
0.0010118745
0.0011192122
0.0012368114
0.0013622708
0.0014938769
0.0016289721
0.0017645493
0.0018968224
0.0020235724
0.0021489625
0.0023400437
0.00288159
0.0032824584
0.0036120255
0.0039141246
0.0041798471
0.0044240914
0.0046440474
0.0048460461
0.005029748
0.0051979249
0.0053508265
0.005490008
0.0056159263
0.0057295709
0.0058314454
0.0059222365
0.0060023802
0.0060724773
0.0061328932
0.0061841529
0.0062266486
0.0062607755
0.0062869193
0.0063057882
0.0063164987
0.0063196143
0.0063181778
0.0063111036
0.0062975379
0.0062787337
0.0062550067
0.0062267305
0.0061942424
0.0061578973
0.0061180122
0.0060748721
0.0060288
0.0059800655
0.0059289096
0.0058756061
0.0058203198
0.0057633551
0.0057046538
0.0056445326
0.0055830196
0.0055201787
0.0054560769
0.0053909058
0.00532502
0.0052588477
0.0051926887
0.0051266717
0.0050608511
0.0049952657
0.0049299238
0.0048648306
0.0048000171
0.0047355144
0.0046713478
0.0046075444
0.0045441346
0.0044811296
0.0044185486
0.0043564097
0.0042947133
0.0042334761
0.0041726954
0.0041123712
0.0040525078
0.0039930936
0.0039341203
0.0038755808
0.0038174561
0.003759727
0.003702377
0.0036453768
0.0035886986
0.003532313
0.0034761836
0.0034202687
0.0033645305
0.003308915
0.0032533746
0.0031978443
0.0031422717
0.0030865668
0.0030306754
0.0029744761
0.0029179191
0.0028608442
0.0028032345
0.0027447452
0.0026854519
0.0026247573