/*--------------------------------*- C++ -*----------------------------------*\
| =========                 |                                                 |
| \\      /  F ield         | OpenFOAM: The Open Source CFD Toolbox           |
|  \\    /   O peration     | Version:  2.4.0                                 |
|   \\  /    A nd           | Web:      www.OpenFOAM.org                      |
|    \\/     M anipulation  |                                                 |
\*---------------------------------------------------------------------------*/
FoamFile
{
    version     2.0;
    format      ascii;
    class       volScalarField;
    location    "7714";
    object      nut;
}
// * * * * * * * * * * * * * * * * * * * * * * * * * * * * * * * * * * * * * //

dimensions      [0 2 -1 0 0 0 0];

internalField   nonuniform List<scalar> 
32000
(
2.875309e-12
3.1129868e-12
2.4753128e-12
1.9068006e-12
1.1544344e-12
5.7221107e-13
1.7848132e-13
6.6418935e-14
1.0474964e-13
1.3952846e-13
1.231882e-13
1.0455224e-13
8.9152521e-14
7.8766901e-14
7.2398344e-14
6.8383397e-14
6.5831719e-14
6.4304315e-14
6.3746953e-14
6.2804823e-14
6.1589179e-14
6.0407724e-14
5.9472264e-14
5.9100416e-14
5.9607323e-14
6.1312278e-14
6.4141927e-14
6.7775417e-14
7.2629064e-14
7.9261111e-14
8.8011221e-14
9.932999e-14
1.1364359e-13
1.3125432e-13
1.5254994e-13
1.7804688e-13
2.0850415e-13
2.4443484e-13
2.855928e-13
3.3148414e-13
3.8149948e-13
4.3425342e-13
4.879297e-13
5.3943667e-13
5.8617852e-13
6.2541606e-13
6.8836891e-13
8.7986323e-13
1.0505636e-12
1.1857201e-12
1.3130352e-12
1.4263863e-12
1.5320254e-12
1.6279139e-12
1.7166359e-12
1.7976402e-12
1.8720502e-12
1.9397062e-12
2.0011975e-12
2.0565996e-12
2.106294e-12
2.1504385e-12
2.1893105e-12
2.2230789e-12
2.2520104e-12
2.2762639e-12
2.2960935e-12
2.3116877e-12
2.3232559e-12
2.3311235e-12
2.3352215e-12
2.3355062e-12
2.3324698e-12
2.3272764e-12
2.3194596e-12
2.308686e-12
2.2956068e-12
2.2803842e-12
2.263227e-12
2.2443189e-12
2.2238558e-12
2.2020084e-12
2.1789304e-12
2.1547962e-12
2.1297484e-12
2.1039128e-12
2.0774355e-12
2.0503824e-12
2.0229864e-12
1.9950976e-12
1.9669614e-12
1.9385677e-12
1.9099431e-12
1.8811079e-12
1.8521268e-12
1.8231445e-12
1.7943394e-12
1.765841e-12
1.7376993e-12
1.7099239e-12
1.682511e-12
1.6554381e-12
1.6286795e-12
1.6022278e-12
1.5760811e-12
1.5502332e-12
1.5246812e-12
1.4994288e-12
1.4744682e-12
1.4497982e-12
1.4254203e-12
1.4013261e-12
1.3775169e-12
1.3539863e-12
1.3307278e-12
1.307741e-12
1.2850155e-12
1.2625435e-12
1.2403205e-12
1.2183345e-12
1.1965741e-12
1.1750317e-12
1.1536919e-12
1.132541e-12
1.1115668e-12
1.0907524e-12
1.070079e-12
1.0495324e-12
1.0290895e-12
1.008731e-12
9.8843228e-13
9.681729e-13
9.4791851e-13
9.2765027e-13
9.0732282e-13
8.8692093e-13
8.6638964e-13
8.4572395e-13
8.2479546e-13
8.0363944e-13
7.8204015e-13
7.6016254e-13
7.3760109e-13
7.147104e-13
6.9086773e-13
6.6672978e-13
6.4098839e-13
6.1511891e-13
5.8645209e-13
5.5824561e-13
5.2442243e-13
4.9316733e-13
4.4593456e-13
3.960398e-13
4.107268e-13
4.5084665e-13
4.8796461e-13
5.1884662e-13
5.4304681e-13
5.6055137e-13
5.7341502e-13
5.8191528e-13
5.8707988e-13
5.8966282e-13
5.9239751e-13
5.9763967e-13
6.0380145e-13
6.1054551e-13
6.1808343e-13
6.2649718e-13
6.3553772e-13
6.4494134e-13
6.5631997e-13
6.6223003e-13
6.6075166e-13
6.5162186e-13
6.4388192e-13
6.3504582e-13
6.250707e-13
6.1487702e-13
6.052643e-13
5.9834572e-13
5.9309459e-13
6.0481034e-13
6.4040519e-13
6.8199703e-13
7.4058404e-13
8.2803142e-13
9.5849721e-13
1.1540338e-12
1.4461521e-12
1.8908838e-12
2.5498575e-12
3.1805262e-12
3.1825668e-12
2.7386685e-12
1.8076113e-12
1.7589504e-12
1.4006365e-12
1.5191014e-12
5.6484584e-10
6.1151536e-10
4.8626344e-10
3.7463129e-10
2.2694161e-10
1.1264238e-10
3.5239341e-11
1.3062909e-11
2.0521295e-11
2.7394651e-11
2.4224721e-11
2.0565949e-11
1.7535511e-11
1.548841e-11
1.4232141e-11
1.3440153e-11
1.2936464e-11
1.2633972e-11
1.2523006e-11
1.2337553e-11
1.2097986e-11
1.1864701e-11
1.1679344e-11
1.1604243e-11
1.1701338e-11
1.2033727e-11
1.2587711e-11
1.3299821e-11
1.4250928e-11
1.555078e-11
1.7266308e-11
1.9486098e-11
2.2294148e-11
2.5750103e-11
2.993014e-11
3.4935429e-11
4.0915166e-11
4.7971329e-11
5.6056524e-11
6.5073922e-11
7.490405e-11
8.527494e-11
9.5829561e-11
1.0595944e-10
1.151527e-10
1.2286576e-10
1.3523333e-10
1.7285622e-10
2.0638717e-10
2.3293791e-10
2.5794972e-10
2.8021824e-10
3.0097184e-10
3.1981002e-10
3.3724036e-10
3.5315416e-10
3.6777169e-10
3.8106245e-10
3.9314233e-10
4.0402604e-10
4.137886e-10
4.2246094e-10
4.3009757e-10
4.3673165e-10
4.4241556e-10
4.4718051e-10
4.5107642e-10
4.5414028e-10
4.5641326e-10
4.5795922e-10
4.5876463e-10
4.5882086e-10
4.5822473e-10
4.5720484e-10
4.5566948e-10
4.5355323e-10
4.5098402e-10
4.4799369e-10
4.4462326e-10
4.4090883e-10
4.3688889e-10
4.3259698e-10
4.2806324e-10
4.2332197e-10
4.1840122e-10
4.1332564e-10
4.0812398e-10
4.0280916e-10
3.9742694e-10
3.9194788e-10
3.8642021e-10
3.8084192e-10
3.7521824e-10
3.6955316e-10
3.6385941e-10
3.5816541e-10
3.525062e-10
3.4690724e-10
3.4137835e-10
3.3592138e-10
3.3053562e-10
3.2521667e-10
3.1995943e-10
3.1476249e-10
3.0962547e-10
3.0454714e-10
2.9952695e-10
2.9456561e-10
2.8966161e-10
2.848147e-10
2.8002517e-10
2.7529137e-10
2.7061358e-10
2.6599051e-10
2.6142091e-10
2.5690469e-10
2.524398e-10
2.4802471e-10
2.4365856e-10
2.3933897e-10
2.3506369e-10
2.3083126e-10
2.2663863e-10
2.2248312e-10
2.1836234e-10
2.1427293e-10
2.1021126e-10
2.0617449e-10
2.021581e-10
1.9815828e-10
1.9417024e-10
1.9018992e-10
1.8621059e-10
1.8222855e-10
1.7823489e-10
1.742266e-10
1.7019283e-10
1.661326e-10
1.6202076e-10
1.5786422e-10
1.536206e-10
1.4932231e-10
1.4488968e-10
1.4039237e-10
1.3570805e-10
1.3096573e-10
1.259084e-10
1.2082597e-10
1.1519394e-10
1.0965251e-10
1.0300745e-10
9.6867762e-11
8.7590549e-11
7.7788407e-11
8.0681971e-11
8.8576022e-11
9.5877709e-11
1.0195247e-10
1.067124e-10
1.1015619e-10
1.1268796e-10
1.1436196e-10
1.1538075e-10
1.1589406e-10
1.1644019e-10
1.1747796e-10
1.1869334e-10
1.2002231e-10
1.2150706e-10
1.2316311e-10
1.2494106e-10
1.2679078e-10
1.2902226e-10
1.3017098e-10
1.2986729e-10
1.2806959e-10
1.2655106e-10
1.2481436e-10
1.2285469e-10
1.2085387e-10
1.1897015e-10
1.1761693e-10
1.1660468e-10
1.189436e-10
1.2596053e-10
1.3414537e-10
1.4568544e-10
1.6291014e-10
1.8860172e-10
2.270904e-10
2.8456176e-10
3.7199549e-10
5.0127846e-10
6.2460344e-10
6.2451538e-10
5.3731619e-10
3.5476303e-10
3.4539868e-10
2.7510604e-10
2.9843947e-10
1.3267388e-08
1.4363275e-08
1.1417749e-08
8.7982958e-09
5.3335635e-09
2.6518148e-09
8.3243179e-10
3.0748994e-10
4.8093913e-10
6.4346679e-10
5.7003445e-10
4.8417031e-10
4.1286999e-10
3.6462731e-10
3.3500748e-10
3.163458e-10
3.0447923e-10
2.9733067e-10
2.9469702e-10
2.9033696e-10
2.8469527e-10
2.7919042e-10
2.7480235e-10
2.7299433e-10
2.7522297e-10
2.8298059e-10
2.9596632e-10
3.1268166e-10
3.35004e-10
3.6551331e-10
4.0578834e-10
4.5791421e-10
5.2387455e-10
6.0507948e-10
7.0332007e-10
8.2096105e-10
9.6150007e-10
1.1273627e-09
1.3174651e-09
1.5295334e-09
1.7607641e-09
2.0047669e-09
2.2531466e-09
2.4915669e-09
2.7079512e-09
2.8892632e-09
3.1793193e-09
4.0632581e-09
4.8508551e-09
5.4746736e-09
6.0624025e-09
6.585656e-09
7.0733492e-09
7.5160406e-09
7.9256782e-09
8.2996664e-09
8.6431939e-09
8.9555626e-09
9.239499e-09
9.4953436e-09
9.7248589e-09
9.9287684e-09
1.0108351e-08
1.0264385e-08
1.0398096e-08
1.0510218e-08
1.0601921e-08
1.0674072e-08
1.0727637e-08
1.0764112e-08
1.078319e-08
1.0784647e-08
1.077077e-08
1.0746929e-08
1.0710967e-08
1.0661344e-08
1.0601068e-08
1.0530886e-08
1.0451762e-08
1.0364545e-08
1.0270139e-08
1.0169333e-08
1.0062834e-08
9.95145e-09
9.8358399e-09
9.7165833e-09
9.5943562e-09
9.469463e-09
9.3429796e-09
9.2142142e-09
9.0843006e-09
8.9531922e-09
8.8210123e-09
8.6878545e-09
8.5540187e-09
8.420173e-09
8.2871413e-09
8.155522e-09
8.0255462e-09
7.897257e-09
7.7706391e-09
7.645589e-09
7.5219878e-09
7.3998033e-09
7.2790268e-09
7.1596295e-09
7.0415991e-09
6.9249522e-09
6.8096532e-09
6.6956965e-09
6.5830892e-09
6.4717921e-09
6.3618122e-09
6.2531189e-09
6.145683e-09
6.0395027e-09
5.9345294e-09
5.8307276e-09
5.7280768e-09
5.6265209e-09
5.5260077e-09
5.4265022e-09
5.3279333e-09
5.2302377e-09
5.1333592e-09
5.037219e-09
4.9417319e-09
4.8468309e-09
4.7524098e-09
4.6583793e-09
4.5646265e-09
4.471056e-09
4.3775099e-09
4.2839011e-09
4.1900197e-09
4.095796e-09
4.0009712e-09
3.9055234e-09
3.8088629e-09
3.711153e-09
3.6113965e-09
3.5103566e-09
3.4061589e-09
3.3004427e-09
3.1903294e-09
3.0788566e-09
2.959976e-09
2.8405114e-09
2.7081208e-09
2.577873e-09
2.4216658e-09
2.2773755e-09
2.059384e-09
1.8291963e-09
1.897684e-09
2.0836434e-09
2.2555579e-09
2.3985844e-09
2.5106417e-09
2.5917394e-09
2.6513844e-09
2.6908394e-09
2.7148833e-09
2.7270745e-09
2.7400822e-09
2.764567e-09
2.7931156e-09
2.824309e-09
2.8591558e-09
2.8980051e-09
2.9396817e-09
2.9830484e-09
3.0352281e-09
3.0617811e-09
3.0542415e-09
3.0118769e-09
2.9762222e-09
2.9353486e-09
2.8892622e-09
2.8422483e-09
2.7980521e-09
2.7663455e-09
2.7429526e-09
2.7986022e-09
2.9636267e-09
3.1556878e-09
3.4267828e-09
3.8314404e-09
4.4346944e-09
5.3375167e-09
6.68359e-09
8.7277554e-09
1.1739745e-08
1.4604499e-08
1.4598522e-08
1.2575336e-08
8.3146178e-09
8.1077957e-09
6.4610891e-09
7.0150146e-09
1.1589732e-07
1.254986e-07
9.9652946e-08
7.6844159e-08
4.6656338e-08
2.3269876e-08
7.3375664e-09
2.7001834e-09
4.2028977e-09
5.6377675e-09
5.004725e-09
4.2533727e-09
3.6276126e-09
3.2034543e-09
2.9429081e-09
2.7788653e-09
2.6745957e-09
2.6115408e-09
2.5881819e-09
2.5499074e-09
2.5003016e-09
2.4517906e-09
2.4129802e-09
2.3966854e-09
2.4156874e-09
2.4831505e-09
2.5966657e-09
2.7430208e-09
2.9384471e-09
3.2055608e-09
3.5582547e-09
4.0148385e-09
4.5927913e-09
5.3045413e-09
6.165788e-09
7.1970973e-09
8.4289749e-09
9.8829616e-09
1.1549846e-08
1.3409684e-08
1.5437959e-08
1.7578688e-08
1.9758235e-08
2.1850668e-08
2.3749478e-08
2.5337191e-08
2.7865456e-08
3.5607111e-08
4.2494136e-08
4.7953472e-08
5.3097924e-08
5.7677967e-08
6.1947732e-08
6.5823994e-08
6.941179e-08
7.2687786e-08
7.5697763e-08
7.8435594e-08
8.0925184e-08
8.3169381e-08
8.5183586e-08
8.6974022e-08
8.8551835e-08
8.9923724e-08
9.1100381e-08
9.2088122e-08
9.2897133e-08
9.3534933e-08
9.4009911e-08
9.4335e-08
9.4507928e-08
9.4525985e-08
9.4409567e-08
9.4205633e-08
9.3895258e-08
9.3464903e-08
9.2940901e-08
9.2329792e-08
9.1640012e-08
9.087899e-08
9.0054653e-08
8.9173914e-08
8.8242986e-08
8.7268946e-08
8.6257584e-08
8.5213989e-08
8.4144099e-08
8.3050587e-08
8.1942916e-08
8.0815007e-08
7.9676824e-08
7.8527965e-08
7.7369518e-08
7.6202308e-08
7.5028973e-08
7.3855379e-08
7.2688754e-08
7.1534358e-08
7.0394227e-08
6.926876e-08
6.8157842e-08
6.706059e-08
6.5975986e-08
6.4903771e-08
6.3843884e-08
6.2796084e-08
6.1760276e-08
6.073661e-08
5.9724777e-08
5.8724734e-08
5.7736544e-08
5.6759865e-08
5.5794761e-08
5.4840964e-08
5.389822e-08
5.2966512e-08
5.2045416e-08
5.1134623e-08
5.0233951e-08
4.934291e-08
4.8461043e-08
4.7588045e-08
4.672329e-08
4.5866226e-08
4.5016359e-08
4.4172999e-08
4.33354e-08
4.2502972e-08
4.1674788e-08
4.0850062e-08
4.0027806e-08
3.9207185e-08
3.8386811e-08
3.7565922e-08
3.6742679e-08
3.5916471e-08
3.5085003e-08
3.4248086e-08
3.3400568e-08
3.2543887e-08
3.1669287e-08
3.078348e-08
2.987e-08
2.894326e-08
2.7977965e-08
2.7000822e-08
2.5958688e-08
2.4911548e-08
2.3750956e-08
2.2609363e-08
2.1239874e-08
1.9975379e-08
1.8065106e-08
1.6049357e-08
1.6655265e-08
1.8290067e-08
1.9800513e-08
2.105715e-08
2.2041636e-08
2.2754406e-08
2.3278902e-08
2.3626036e-08
2.383789e-08
2.3946001e-08
2.4061564e-08
2.4276722e-08
2.4526209e-08
2.4798485e-08
2.5102461e-08
2.5441071e-08
2.5803861e-08
2.6181254e-08
2.6634062e-08
2.686038e-08
2.6788494e-08
2.6414655e-08
2.6101145e-08
2.5740913e-08
2.53354e-08
2.4922069e-08
2.4533954e-08
2.4255227e-08
2.4051968e-08
2.4542337e-08
2.5981316e-08
2.7650691e-08
3.0008492e-08
3.3526817e-08
3.8763473e-08
4.6577832e-08
5.8173265e-08
7.568068e-08
1.0124715e-07
1.2543374e-07
1.255057e-07
1.0866746e-07
7.2214341e-08
7.0730957e-08
5.6459439e-08
6.1439982e-08
5.9493863e-07
6.4449297e-07
5.1093552e-07
3.9468181e-07
2.4056412e-07
1.2075712e-07
3.8346932e-08
1.4059475e-08
2.175877e-08
2.9273242e-08
2.6048255e-08
2.2153221e-08
1.8898145e-08
1.6687342e-08
1.5328683e-08
1.4473825e-08
1.3930922e-08
1.3601086e-08
1.3478135e-08
1.3278888e-08
1.3020203e-08
1.2766566e-08
1.2562789e-08
1.2475377e-08
1.2570801e-08
1.2917835e-08
1.3505491e-08
1.4264521e-08
1.5277955e-08
1.6663255e-08
1.8492815e-08
2.086188e-08
2.3861675e-08
2.755703e-08
3.2029356e-08
3.7384269e-08
4.3778849e-08
5.1326323e-08
5.9980282e-08
6.9636966e-08
8.0169166e-08
9.1286603e-08
1.0260633e-07
1.1347383e-07
1.2332968e-07
1.3154503e-07
1.4452163e-07
1.8463399e-07
2.2015902e-07
2.4837045e-07
2.7496094e-07
2.9863646e-07
3.2071896e-07
3.407744e-07
3.5934932e-07
3.7632026e-07
3.9192599e-07
4.0613304e-07
4.1906501e-07
4.3073521e-07
4.412227e-07
4.5055836e-07
4.5879897e-07
4.6597796e-07
4.7214966e-07
4.7734566e-07
4.8161769e-07
4.850037e-07
4.8754616e-07
4.8930995e-07
4.9028809e-07
4.9045768e-07
4.8992832e-07
4.8894235e-07
4.8740151e-07
4.8523486e-07
4.8257854e-07
4.7946635e-07
4.7594188e-07
4.7204357e-07
4.6781248e-07
4.6328448e-07
4.5849186e-07
4.5347139e-07
4.4825321e-07
4.4286384e-07
4.3733422e-07
4.3167826e-07
4.2594555e-07
4.2010413e-07
4.1420616e-07
4.0824956e-07
4.0224008e-07
3.9618205e-07
3.9008933e-07
3.8399249e-07
3.7792931e-07
3.719273e-07
3.6599735e-07
3.6014181e-07
3.5436042e-07
3.4864891e-07
3.4300232e-07
3.3741957e-07
3.3190059e-07
3.2644432e-07
3.2105042e-07
3.1571977e-07
3.1045085e-07
3.052435e-07
3.0009809e-07
2.9501288e-07
2.8998821e-07
2.8502272e-07
2.801151e-07
2.7526526e-07
2.7047103e-07
2.6573078e-07
2.610436e-07
2.5640692e-07
2.518184e-07
2.4727644e-07
2.4277779e-07
2.383196e-07
2.338993e-07
2.295133e-07
2.2515773e-07
2.2082953e-07
2.1652389e-07
2.1223672e-07
2.079629e-07
2.0369808e-07
1.9943506e-07
1.9516989e-07
1.90893e-07
1.8660123e-07
1.8228263e-07
1.7793621e-07
1.735352e-07
1.6908714e-07
1.6454647e-07
1.5994815e-07
1.5520647e-07
1.5039654e-07
1.4538657e-07
1.4031577e-07
1.3490729e-07
1.2947377e-07
1.2345022e-07
1.1752688e-07
1.1041769e-07
1.0385717e-07
9.3944749e-08
8.3488618e-08
8.6670507e-08
9.5189765e-08
1.0305729e-07
1.0960149e-07
1.1472752e-07
1.1843918e-07
1.2117094e-07
1.2297831e-07
1.2408122e-07
1.2464529e-07
1.2524867e-07
1.2636177e-07
1.2764382e-07
1.2904013e-07
1.3059697e-07
1.3232865e-07
1.3417983e-07
1.3610306e-07
1.3840406e-07
1.3951762e-07
1.3908753e-07
1.371139e-07
1.354634e-07
1.3356442e-07
1.3143375e-07
1.2926417e-07
1.2722774e-07
1.2575496e-07
1.2468628e-07
1.272034e-07
1.3454128e-07
1.4301153e-07
1.5496868e-07
1.7279115e-07
1.992214e-07
2.3840274e-07
2.9589774e-07
3.8149146e-07
5.0397582e-07
6.1821546e-07
6.2035359e-07
5.4352693e-07
3.6584547e-07
3.6184629e-07
2.9027475e-07
3.1735998e-07
2.1862797e-06
2.3703007e-06
1.8779824e-06
1.455362e-06
8.9442684e-07
4.5453464e-07
1.4612384e-07
5.3460263e-08
8.2164218e-08
1.1090781e-07
9.8963644e-08
8.4236346e-08
7.1879736e-08
6.3468373e-08
5.8296792e-08
5.5044709e-08
5.2982607e-08
5.1722424e-08
5.1249218e-08
5.049156e-08
4.9505987e-08
4.8536571e-08
4.7753662e-08
4.7409023e-08
4.7754886e-08
4.9053062e-08
5.1269699e-08
5.4138242e-08
5.7968222e-08
6.3204491e-08
7.012165e-08
7.9080573e-08
9.0428216e-08
1.0441036e-07
1.2133339e-07
1.4159005e-07
1.6576668e-07
1.9429562e-07
2.27005e-07
2.6349934e-07
3.0329548e-07
3.4529632e-07
3.8804795e-07
4.2907315e-07
4.6621628e-07
4.9700902e-07
5.4503837e-07
6.9609243e-07
8.2862656e-07
9.3423188e-07
1.0337841e-06
1.1224508e-06
1.2052173e-06
1.2804509e-06
1.3502125e-06
1.4140394e-06
1.4728255e-06
1.5264355e-06
1.5753305e-06
1.6195524e-06
1.6593919e-06
1.694957e-06
1.7264533e-06
1.7539983e-06
1.7777881e-06
1.7979336e-06
1.8146214e-06
1.8279869e-06
1.8381828e-06
1.8454372e-06
1.849757e-06
1.8509953e-06
1.8495887e-06
1.846442e-06
1.8411842e-06
1.8335429e-06
1.824027e-06
1.8127627e-06
1.7999126e-06
1.7856204e-06
1.7700404e-06
1.7533072e-06
1.7355427e-06
1.7168854e-06
1.6974496e-06
1.6773356e-06
1.6566608e-06
1.6354772e-06
1.6139763e-06
1.5920329e-06
1.5698478e-06
1.5474132e-06
1.5247513e-06
1.5018795e-06
1.4788514e-06
1.4557843e-06
1.4328232e-06
1.4100743e-06
1.3875813e-06
1.3653559e-06
1.3433995e-06
1.3216983e-06
1.3002361e-06
1.2790111e-06
1.2580246e-06
1.2372743e-06
1.2167601e-06
1.1964863e-06
1.1764479e-06
1.1566449e-06
1.1370792e-06
1.1177444e-06
1.0986422e-06
1.0797674e-06
1.0611154e-06
1.0426858e-06
1.0244705e-06
1.0064634e-06
9.8866103e-07
9.7105381e-07
9.5363281e-07
9.3639201e-07
9.1931918e-07
9.0240348e-07
8.8563523e-07
8.6900085e-07
8.5248575e-07
8.3607832e-07
8.1976032e-07
8.0351639e-07
7.8732708e-07
7.7117597e-07
7.5503583e-07
7.3889171e-07
7.227074e-07
7.0647093e-07
6.9013742e-07
6.7370309e-07
6.5706631e-07
6.4025566e-07
6.2309862e-07
6.0572763e-07
5.8781777e-07
5.6965394e-07
5.5073601e-07
5.3159203e-07
5.1117148e-07
4.9066071e-07
4.679151e-07
4.4555458e-07
4.1869719e-07
3.9392766e-07
3.5648611e-07
3.1696942e-07
3.2919624e-07
3.6158672e-07
3.9148586e-07
4.1634005e-07
4.3579826e-07
4.4988019e-07
4.6023794e-07
4.6707633e-07
4.7123482e-07
4.7334782e-07
4.7560579e-07
4.7975102e-07
4.8448464e-07
4.8962072e-07
4.9533282e-07
5.0167013e-07
5.0841793e-07
5.1540648e-07
5.237462e-07
5.2754314e-07
5.2551655e-07
5.1779026e-07
5.1133833e-07
5.0392271e-07
4.9565163e-07
4.8724241e-07
4.7934323e-07
4.7353831e-07
4.6930306e-07
4.7845051e-07
5.0513466e-07
5.357e-07
5.7874645e-07
6.4277904e-07
7.3711427e-07
8.753589e-07
1.074174e-06
1.3624682e-06
1.7600549e-06
2.1182721e-06
2.1333057e-06
1.9041171e-06
1.3125493e-06
1.3200035e-06
1.0711883e-06
1.1802577e-06
6.2986467e-06
6.8378154e-06
5.4381283e-06
4.2364708e-06
2.6428321e-06
1.3711305e-06
4.5027863e-07
1.6516386e-07
2.5178408e-07
3.4111337e-07
3.0536358e-07
2.601845e-07
2.2210408e-07
1.9611528e-07
1.8012974e-07
1.7008043e-07
1.6372519e-07
1.5981133e-07
1.5832807e-07
1.5598462e-07
1.5292956e-07
1.4991253e-07
1.4745945e-07
1.4634364e-07
1.4734177e-07
1.5126083e-07
1.5803135e-07
1.6680905e-07
1.7853116e-07
1.9456269e-07
2.1574557e-07
2.4318602e-07
2.7795096e-07
3.2079013e-07
3.7262907e-07
4.3463578e-07
5.0856672e-07
5.957494e-07
6.9565407e-07
8.0704458e-07
9.2841989e-07
1.0564126e-06
1.1865416e-06
1.3112129e-06
1.4236783e-06
1.5160088e-06
1.6575674e-06
2.1158723e-06
2.5112823e-06
2.8281178e-06
3.1266961e-06
3.3927636e-06
3.6413468e-06
3.8676093e-06
4.0777568e-06
4.2704384e-06
4.4483099e-06
4.6109559e-06
4.7597424e-06
4.8947735e-06
5.0168948e-06
5.1264004e-06
5.2238769e-06
5.3096425e-06
5.3842532e-06
5.448008e-06
5.5014337e-06
5.5449057e-06
5.5788494e-06
5.6038791e-06
5.6201681e-06
5.6270019e-06
5.625786e-06
5.6192226e-06
5.6061876e-06
5.5858316e-06
5.559669e-06
5.5280734e-06
5.4915252e-06
5.4504512e-06
5.4053105e-06
5.356507e-06
5.3044051e-06
5.2494222e-06
5.1919032e-06
5.132152e-06
5.0705238e-06
5.0071727e-06
4.9427019e-06
4.8767023e-06
4.8098073e-06
4.741991e-06
4.6733264e-06
4.6038725e-06
4.5338012e-06
4.4634806e-06
4.3933638e-06
4.3237879e-06
4.2549001e-06
4.186749e-06
4.1193522e-06
4.0526806e-06
3.9866978e-06
3.9214092e-06
3.8568285e-06
3.7929566e-06
3.7298005e-06
3.6673784e-06
3.60568e-06
3.5447088e-06
3.4844731e-06
3.4249559e-06
3.3661637e-06
3.3080825e-06
3.2506987e-06
3.1940121e-06
3.1379984e-06
3.0826396e-06
3.0279253e-06
2.9738265e-06
2.9203163e-06
2.8673762e-06
2.8149693e-06
2.7630626e-06
2.7116266e-06
2.6606199e-06
2.6099981e-06
2.5597258e-06
2.5097475e-06
2.4600164e-06
2.410473e-06
2.3610672e-06
2.3117162e-06
2.2623741e-06
2.2129305e-06
2.1633486e-06
2.1134921e-06
2.0633494e-06
2.0126092e-06
1.9613584e-06
1.9090702e-06
1.856148e-06
1.801599e-06
1.7462923e-06
1.688698e-06
1.6304272e-06
1.5682657e-06
1.5058389e-06
1.4365787e-06
1.3685016e-06
1.2866436e-06
1.2111791e-06
1.0970127e-06
9.7623839e-07
1.0145376e-06
1.1143824e-06
1.2064532e-06
1.2828848e-06
1.3426539e-06
1.3858413e-06
1.4175418e-06
1.4383678e-06
1.450918e-06
1.4571605e-06
1.4638028e-06
1.476036e-06
1.4898488e-06
1.5047368e-06
1.5212189e-06
1.5394255e-06
1.5586798e-06
1.5784976e-06
1.602112e-06
1.6116756e-06
1.6033853e-06
1.5783315e-06
1.5574038e-06
1.5334619e-06
1.5070036e-06
1.4801696e-06
1.454914e-06
1.4358685e-06
1.4217481e-06
1.4475192e-06
1.5236072e-06
1.6098851e-06
1.7307806e-06
1.9102347e-06
2.1720615e-06
2.5495827e-06
3.0765825e-06
3.8109173e-06
4.7691024e-06
5.5736127e-06
5.6232044e-06
5.1262354e-06
3.6574109e-06
3.7596129e-06
3.1145134e-06
3.4673699e-06
1.4863972e-05
1.6172523e-05
1.3011797e-05
1.0219657e-05
6.5259075e-06
3.4919336e-06
1.1867411e-06
4.4046081e-07
6.6535203e-07
9.0492596e-07
8.1314353e-07
6.9368012e-07
5.9246202e-07
5.2317745e-07
4.8054464e-07
4.5373616e-07
4.3685533e-07
4.2634806e-07
4.2231644e-07
4.1604347e-07
4.0784708e-07
3.997116e-07
3.9303772e-07
3.898724e-07
3.9227635e-07
4.023844e-07
4.2015577e-07
4.4321913e-07
4.740396e-07
5.1621588e-07
5.7195703e-07
6.4416928e-07
7.3565989e-07
8.4836727e-07
9.8465175e-07
1.147435e-06
1.3411701e-06
1.5692982e-06
1.8303367e-06
2.1208884e-06
2.4368707e-06
2.769347e-06
3.1064311e-06
3.4281596e-06
3.7165858e-06
3.9498517e-06
4.3023514e-06
5.4825877e-06
6.4781101e-06
7.2810062e-06
8.0364927e-06
8.7100007e-06
9.3394986e-06
9.9133209e-06
1.0447125e-05
1.0937796e-05
1.1391881e-05
1.1808429e-05
1.2190833e-05
1.2539347e-05
1.2856034e-05
1.3141582e-05
1.3397387e-05
1.3624173e-05
1.382325e-05
1.3995281e-05
1.4141497e-05
1.4262756e-05
1.4360028e-05
1.4434626e-05
1.4487494e-05
1.4516016e-05
1.4523884e-05
1.4517926e-05
1.4495274e-05
1.4453685e-05
1.4396897e-05
1.4325824e-05
1.4241637e-05
1.4145379e-05
1.4038179e-05
1.3921035e-05
1.3794848e-05
1.3660658e-05
1.3519327e-05
1.3371617e-05
1.3218424e-05
1.3060117e-05
1.2898307e-05
1.2731852e-05
1.2562442e-05
1.2390012e-05
1.2214768e-05
1.2036889e-05
1.1856853e-05
1.167565e-05
1.1494492e-05
1.1314294e-05
1.1135488e-05
1.0958245e-05
1.0782659e-05
1.0608706e-05
1.0436341e-05
1.0265618e-05
1.0096609e-05
9.929348e-06
9.7638812e-06
9.6002771e-06
9.4385297e-06
9.2786637e-06
9.1207125e-06
8.9646441e-06
8.8104831e-06
8.6582002e-06
8.507767e-06
8.3591856e-06
8.2123983e-06
8.0673617e-06
7.9240503e-06
7.7823918e-06
7.6423188e-06
7.5037844e-06
7.3666946e-06
7.2309655e-06
7.0965211e-06
6.9632557e-06
6.8310556e-06
6.6998288e-06
6.569433e-06
6.4397473e-06
6.310618e-06
6.1819158e-06
6.0534263e-06
5.9250302e-06
5.7964421e-06
5.6675648e-06
5.538047e-06
5.4078582e-06
5.2761892e-06
5.1432577e-06
5.0077019e-06
4.870555e-06
4.7292454e-06
4.5860115e-06
4.4368864e-06
4.2860187e-06
4.1250666e-06
3.9634037e-06
3.783945e-06
3.6074908e-06
3.3950093e-06
3.1990591e-06
2.902271e-06
2.586533e-06
2.6901423e-06
2.9543537e-06
3.1974886e-06
3.39886e-06
3.5559784e-06
3.6691783e-06
3.7519236e-06
3.8058212e-06
3.8377578e-06
3.852979e-06
3.869016e-06
3.8990169e-06
3.9323695e-06
3.9679002e-06
4.0069226e-06
4.0497125e-06
4.0944512e-06
4.1399823e-06
4.1943186e-06
4.2116566e-06
4.1813448e-06
4.1100462e-06
4.050433e-06
3.9827774e-06
3.9089281e-06
3.8343199e-06
3.7639259e-06
3.7090961e-06
3.6675917e-06
3.7265179e-06
3.9050543e-06
4.1056855e-06
4.3842343e-06
4.797611e-06
5.3941156e-06
6.2378339e-06
7.3728521e-06
8.875137e-06
1.0699375e-05
1.2036312e-05
1.2113307e-05
1.1238466e-05
8.3485075e-06
8.768889e-06
7.4759422e-06
8.410475e-06
2.953326e-05
3.2265799e-05
2.6481478e-05
2.1039458e-05
1.3857496e-05
7.7211811e-06
2.7579564e-06
1.050948e-06
1.5734541e-06
2.1485532e-06
1.9391778e-06
1.6567282e-06
1.4159986e-06
1.2506313e-06
1.1488373e-06
1.084738e-06
1.0446536e-06
1.0193189e-06
1.0094294e-06
9.9432084e-07
9.7454033e-07
9.5478203e-07
9.3838458e-07
9.301902e-07
9.3508293e-07
9.5807031e-07
9.9963014e-07
1.0534794e-06
1.1255585e-06
1.2243006e-06
1.3548221e-06
1.5238833e-06
1.7380043e-06
2.0015323e-06
2.3196551e-06
2.6986481e-06
3.1483188e-06
3.6763416e-06
4.2787199e-06
4.9468702e-06
5.6706483e-06
6.4287813e-06
7.193286e-06
7.9178716e-06
8.561614e-06
9.0719664e-06
9.8429979e-06
1.249078e-05
1.4669365e-05
1.6435517e-05
1.809153e-05
1.9567497e-05
2.0945718e-05
2.2203201e-05
2.3373863e-05
2.4452093e-05
2.5451709e-05
2.6371235e-05
2.7217973e-05
2.7992681e-05
2.8699749e-05
2.9340707e-05
2.9918474e-05
3.0434546e-05
3.089162e-05
3.1291015e-05
3.1635223e-05
3.1925949e-05
3.2165104e-05
3.2354984e-05
3.2498757e-05
3.2589433e-05
3.2634484e-05
3.2649104e-05
3.2627009e-05
3.2563117e-05
3.2465222e-05
3.2335213e-05
3.2175474e-05
3.1988139e-05
3.1775529e-05
3.1539703e-05
3.1282519e-05
3.1006139e-05
3.0712365e-05
3.0402795e-05
3.0079325e-05
2.974269e-05
2.9396485e-05
2.9038095e-05
2.8671287e-05
2.8295936e-05
2.7912548e-05
2.7521582e-05
2.71242e-05
2.6722694e-05
2.6319859e-05
2.5917841e-05
2.5517701e-05
2.5119945e-05
2.4724915e-05
2.4332692e-05
2.394331e-05
2.3557001e-05
2.3174024e-05
2.2794546e-05
2.2418749e-05
2.2046851e-05
2.1678902e-05
2.1315008e-05
2.0955284e-05
2.05997e-05
2.024834e-05
1.9901166e-05
1.955814e-05
1.9219283e-05
1.8884485e-05
1.8553664e-05
1.8226775e-05
1.7903668e-05
1.7584204e-05
1.7268283e-05
1.6955708e-05
1.6646295e-05
1.6339881e-05
1.6036236e-05
1.5735111e-05
1.5436302e-05
1.5139497e-05
1.4844426e-05
1.4550748e-05
1.4258175e-05
1.3966228e-05
1.3674636e-05
1.3382762e-05
1.3090379e-05
1.2796702e-05
1.2501668e-05
1.2203444e-05
1.1902484e-05
1.1595737e-05
1.1285472e-05
1.0965916e-05
1.0642031e-05
1.0304906e-05
9.96373e-06
9.5997303e-06
9.233831e-06
8.8274203e-06
8.4272611e-06
7.9446043e-06
7.4986696e-06
6.8224745e-06
6.0950819e-06
6.3443443e-06
6.9630303e-06
7.5301782e-06
7.9983813e-06
8.3623167e-06
8.6234311e-06
8.8130334e-06
8.9350573e-06
9.0055355e-06
9.0368689e-06
9.0692466e-06
9.1318212e-06
9.1998428e-06
9.2708421e-06
9.347733e-06
9.4309982e-06
9.5163966e-06
9.6015887e-06
9.704257e-06
9.7212126e-06
9.6243047e-06
9.441028e-06
9.2887819e-06
9.1174393e-06
8.9330024e-06
8.7476575e-06
8.5724331e-06
8.4314235e-06
8.3226952e-06
8.4351435e-06
8.7886217e-06
9.1867688e-06
9.7303751e-06
1.0541199e-05
1.1701155e-05
1.331008e-05
1.5391978e-05
1.799141e-05
2.089335e-05
2.2511748e-05
2.2464148e-05
2.1024611e-05
1.6250675e-05
1.7321512e-05
1.5240427e-05
1.7279305e-05
5.0813523e-05
5.5878889e-05
4.7031004e-05
3.7901579e-05
2.5849909e-05
1.5084197e-05
5.7464215e-06
2.2881106e-06
3.4082347e-06
4.6727066e-06
4.2398512e-06
3.6291794e-06
3.1050662e-06
2.7434158e-06
2.5206778e-06
2.3799393e-06
2.2928959e-06
2.2366252e-06
2.2141353e-06
2.1805391e-06
2.1365041e-06
2.0921803e-06
2.0548553e-06
2.0350031e-06
2.043193e-06
2.0901329e-06
2.1785335e-06
2.2926459e-06
2.4457363e-06
2.6558503e-06
2.9336014e-06
3.2931582e-06
3.7480922e-06
4.3068793e-06
4.979329e-06
5.7770003e-06
6.7188317e-06
7.819535e-06
9.0685839e-06
1.044565e-05
1.192732e-05
1.3467449e-05
1.5006937e-05
1.6450369e-05
1.771837e-05
1.8702727e-05
2.0224847e-05
2.54754e-05
2.9692946e-05
3.3119704e-05
3.6313873e-05
3.9156915e-05
4.1804155e-05
4.4218873e-05
4.6465153e-05
4.8535404e-05
5.045527e-05
5.222387e-05
5.3855128e-05
5.5351379e-05
5.6721029e-05
5.7967419e-05
5.9096118e-05
6.0110113e-05
6.1014462e-05
6.1811669e-05
6.2506293e-05
6.3101462e-05
6.3600572e-05
6.4007168e-05
6.4328512e-05
6.4551663e-05
6.4686633e-05
6.476426e-05
6.4772534e-05
6.4701574e-05
6.4565297e-05
6.4367087e-05
6.4111096e-05
6.3801039e-05
6.3440982e-05
6.3034526e-05
6.2584912e-05
6.2095951e-05
6.1570829e-05
6.1012367e-05
6.0423972e-05
5.9807e-05
5.9167695e-05
5.85018e-05
5.7815892e-05
5.7109898e-05
5.6384846e-05
5.5641721e-05
5.4882916e-05
5.4112996e-05
5.3337491e-05
5.2560626e-05
5.1784598e-05
5.10106e-05
5.0239536e-05
4.9471826e-05
4.8707787e-05
4.7948083e-05
4.7193398e-05
4.6444245e-05
4.5701133e-05
4.4964623e-05
4.4234952e-05
4.3512438e-05
4.2797404e-05
4.2089889e-05
4.1390131e-05
4.0698135e-05
4.0013889e-05
3.9337485e-05
3.8668771e-05
3.8007632e-05
3.7354013e-05
3.6707673e-05
3.6068371e-05
3.5435943e-05
3.4810035e-05
3.4190321e-05
3.3576499e-05
3.296815e-05
3.2364806e-05
3.1766085e-05
3.1171397e-05
3.0580228e-05
2.999192e-05
2.9405919e-05
2.8821295e-05
2.8237513e-05
2.7653336e-05
2.7068291e-05
2.6480853e-05
2.5890926e-05
2.5294868e-05
2.4693449e-05
2.4080704e-05
2.346092e-05
2.2822789e-05
2.2175814e-05
2.1502564e-05
2.0820589e-05
2.0093036e-05
1.9360398e-05
1.8546374e-05
1.7742504e-05
1.6771602e-05
1.587073e-05
1.4504428e-05
1.3006622e-05
1.3545147e-05
1.4844509e-05
1.6028193e-05
1.7001794e-05
1.7754554e-05
1.8292149e-05
1.8679177e-05
1.8924942e-05
1.9062474e-05
1.9118175e-05
1.9173747e-05
1.9286606e-05
1.9405264e-05
1.9524795e-05
1.9651009e-05
1.9784637e-05
1.9917108e-05
2.0044541e-05
2.0203357e-05
2.0180701e-05
1.9918752e-05
1.948888e-05
1.9140287e-05
1.8750052e-05
1.8335577e-05
1.7921586e-05
1.7529879e-05
1.7206116e-05
1.6953011e-05
1.7138005e-05
1.7736403e-05
1.8434988e-05
1.9359096e-05
2.0757535e-05
2.2753069e-05
2.5478286e-05
2.8880288e-05
3.2879078e-05
3.6952714e-05
3.8181297e-05
3.748481e-05
3.498057e-05
2.7976227e-05
2.9927224e-05
2.7081174e-05
3.0768938e-05
7.8067976e-05
8.661719e-05
7.4840513e-05
6.1287114e-05
4.3262114e-05
2.6433271e-05
1.0843517e-05
4.5838436e-06
6.8558975e-06
9.4406155e-06
8.6241674e-06
7.401817e-06
6.3431698e-06
5.6082238e-06
5.1550807e-06
4.8667743e-06
4.6916136e-06
4.5744773e-06
4.5262025e-06
4.4560483e-06
4.3641355e-06
4.2708009e-06
4.1908221e-06
4.1452128e-06
4.1551198e-06
4.2420483e-06
4.4149132e-06
4.6373304e-06
4.9361695e-06
5.3476647e-06
5.8915547e-06
6.5948028e-06
7.4828538e-06
8.5698095e-06
9.8712298e-06
1.1404986e-05
1.3203176e-05
1.5289726e-05
1.7638424e-05
2.0204533e-05
2.2938346e-05
2.5748851e-05
2.8524433e-05
3.10909e-05
3.3319194e-05
3.5023531e-05
3.7794528e-05
4.7105272e-05
5.4438355e-05
6.038751e-05
6.5889499e-05
7.0774237e-05
7.530168e-05
7.942483e-05
8.3251436e-05
8.677463e-05
9.0037619e-05
9.3043075e-05
9.5815031e-05
9.8359582e-05
0.00010069145
0.00010281753
0.00010474765
0.00010648751
0.00010804589
0.00010942738
0.00011063969
0.00011168821
0.00011257856
0.00011331611
0.00011391286
0.0001143525
0.0001146415
0.00011483546
0.00011491507
0.00011486332
0.00011470207
0.00011443676
0.00011407379
0.00011361886
0.00011307823
0.00011245745
0.00011176146
0.00011099614
0.00011016641
0.0001092766
0.00010833204
0.00010733515
0.00010629448
0.00010520525
0.00010407665
0.00010290896
0.00010170392
0.0001004633
9.9191332e-05
9.7895914e-05
9.6586406e-05
9.5269836e-05