/*--------------------------------*- C++ -*----------------------------------*\
| =========                 |                                                 |
| \\      /  F ield         | OpenFOAM: The Open Source CFD Toolbox           |
|  \\    /   O peration     | Version:  2.4.0                                 |
|   \\  /    A nd           | Web:      www.OpenFOAM.org                      |
|    \\/     M anipulation  |                                                 |
\*---------------------------------------------------------------------------*/
FoamFile
{
    version     2.0;
    format      ascii;
    class       volScalarField;
    location    "7714";
    object      omega;
}
// * * * * * * * * * * * * * * * * * * * * * * * * * * * * * * * * * * * * * //

dimensions      [0 0 -1 0 0 0 0];

internalField   nonuniform List<scalar> 
32000
(
89220.216
89230.459
89259.395
89570.7
90688.176
93335.916
98254.839
105172.35
111843.73
117265.1
121052.95
123101.64
123585.53
122630.71
120422.05
117088.36
112793.08
107948.7
103389.2
99244.544
95463.415
92013.209
88865.326
85981.441
83351.356
80938.403
78719.092
76480.565
74076.192
71524.008
68852.745
66091.376
63268.447
60412.243
57547.629
54723.801
52053.445
49646.348
47502.534
45619.239
44000.026
42647.862
41567.576
40766.932
40254.264
40038.598
40093.676
40115.591
40115.59
40115.59
40115.591
40115.591
40115.59
40115.591
40115.59
40115.591
40115.59
40115.591
40115.59
40115.591
40115.591
40115.59
40115.591
40115.59
40115.591
40115.59
40115.591
40115.591
40115.591
40115.59
40115.591
40115.59
40115.591
40115.59
40115.591
40115.591
40115.591
40115.59
40115.591
40115.59
40115.59
40115.591
40115.59
40115.59
40115.591
40115.59
40115.591
40115.591
40115.59
40115.591
40115.59
40115.59
40115.591
40115.59
40115.591
40115.591
40115.59
40115.591
40115.591
40115.59
40115.59
40115.591
40115.59
40115.591
40115.591
40115.59
40115.59
40115.591
40115.59
40115.59
40115.591
40115.59
40115.591
40115.59
40115.591
40115.591
40115.59
40115.59
40115.591
40115.59
40115.59
40115.591
40115.59
40115.591
40115.591
40115.59
40115.591
40115.591
40115.59
40115.59
40115.591
40115.59
40115.59
40115.591
40115.59
40115.591
40115.591
40115.59
40115.591
40115.591
40115.59
40115.59
40115.591
40115.59
40115.591
40115.591
40115.59
40115.59
40115.591
40115.59
40115.591
40115.59
40115.59
40093.699
40038.588
40254.396
40766.22
41568.242
42649.167
43996.814
45619.943
47504.542
49650.281
52052.716
54711.85
57548.93
60416.302
63272.067
66095.573
68856.635
71529.078
74082.282
76485.089
78720.041
80933.429
83305.572
85985.777
88870.013
92016.659
95465.274
99247.598
103390.85
107950.53
112794.48
117089.66
120423.13
122636.59
123588.21
123106.01
121062.94
117275.19
111829.31
105157.38
98261.416
93338.547
90686.609
89570.772
89259.404
89230.612
89220.37
14860.853
14861.137
14866.201
14918.321
15104.855
15544.285
16360.301
17509.142
18618.843
19522.749
20155.206
20498.223
20580.63
20423.348
20057.147
19503.454
18789.361
17982.98
17223.335
16532.692
15902.64
15327.725
14803.192
14322.647
13884.392
13482.326
13112.657
12740.068
12339.981
11915.252
11470.653
11011.004
10541.064
10065.539
9588.5654
9118.2759
8673.3734
8272.2187
7914.9226
7601.0291
7331.1397
7105.7553
6925.6899
6792.2479
6706.8496
6671.0129
6679.838
6682.5206
6682.2345
6682.1369
6682.0757
6682.0247
6681.9878
6681.9537
6681.926
6681.9035
6681.8905
6681.8772
6681.8638
6681.8502
6681.8365
6681.8227
6681.809
6681.7954
6681.7819
6681.7686
6681.7556
6681.743
6681.7307
6681.7188
6681.7075
6681.6966
6681.6863
6681.6766
6681.6674
6681.6588
6681.6508
6681.6434
6681.6366
6681.6303
6681.6246
6681.6195
6681.6149
6681.6109
6681.6074
6681.6043
6681.6017
6681.5995
6681.5977
6681.5964
6681.5953
6681.5947
6681.5944
6681.5943
6681.5947
6681.5954
6681.5964
6681.5978
6681.5994
6681.6013
6681.6034
6681.6058
6681.6082
6681.6109
6681.6135
6681.6162
6681.6189
6681.6218
6681.6245
6681.6274
6681.6303
6681.6331
6681.6361
6681.639
6681.6419
6681.6448
6681.6477
6681.6506
6681.6535
6681.6563
6681.6591
6681.6619
6681.6647
6681.6674
6681.6701
6681.6727
6681.6754
6681.6779
6681.6804
6681.6829
6681.6854
6681.6878
6681.6902
6681.6925
6681.6948
6681.6971
6681.7008
6681.7056
6681.7107
6681.7162
6681.722
6681.7284
6681.7349
6681.7427
6681.7504
6681.7604
6681.7698
6681.7838
6681.796
6681.8175
6681.8356
6681.8738
6682.0266
6679.3309
6670.7708
6706.7487
6792.022
6925.6838
7105.8277
7330.4415
7600.9669
7915.0536
8272.6461
8672.9988
9116.0389
9588.5262
10065.925
10541.362
11011.39
11470.985
11915.796
12340.725
12740.594
13112.636
13481.346
13876.736
14323.414
14804.035
15328.429
15903.137
16533.428
17223.87
17983.566
18789.882
19503.997
20057.957
20425.258
20582.419
20500.855
20159.567
19528.242
18621.692
17512.484
16367.544
15551.061
15110.245
14923.549
14870.6
14864.196
14861.166
4792.9942
4792.0782
4795.707
4813.4765
4874.0703
5014.8695
5276.2628
5644.7576
6001.016
6292.3342
6496.542
6607.6167
6634.7047
6584.4758
6466.8393
6288.6746
6058.7959
5798.9383
5553.9632
5331.2062
5127.9998
4942.5789
4773.4132
4618.4388
4477.1054
4347.4444
4228.2561
4108.1921
3979.2957
3842.4453
3699.176
3551.0408
3399.5713
3246.2857
3092.5217
2940.8955
2797.4189
2668.0167
2552.7534
2451.4877
2364.414
2291.6989
2233.6073
2190.5737
2163.0726
2151.7028
2154.7641
2155.399
2155.1602
2155.0815
2155.0232
2154.9784
2154.9388
2154.9016
2154.8656
2154.8319
2154.8007
2154.7681
2154.7342
2154.6992
2154.6634
2154.6271
2154.5905
2154.5538
2154.5173
2154.4812
2154.4456
2154.4109
2154.3771
2154.3443
2154.3127
2154.2825
2154.2537
2154.2264
2154.2005
2154.1762
2154.1534
2154.1323
2154.1127
2154.0947
2154.0783
2154.0633
2154.0499
2154.0378
2154.0272
2154.0178
2154.0098
2154.0029
2153.9971
2153.9926
2153.989
2153.9864
2153.9848
2153.9841
2153.9846
2153.9863
2153.989
2153.9927
2153.9974
2154.003
2154.0093
2154.0163
2154.0236
2154.0314
2154.0394
2154.0475
2154.0558
2154.0641
2154.0724
2154.0808
2154.0892
2154.0976
2154.106
2154.1144
2154.1227
2154.1309
2154.1391
2154.1473
2154.1553
2154.1632
2154.171
2154.1787
2154.1863
2154.1937
2154.2009
2154.208
2154.2149
2154.2216
2154.2282
2154.2346
2154.2407
2154.2467
2154.2525
2154.258
2154.2634
2154.2686
2154.2742
2154.2804
2154.2866
2154.2929
2154.2993
2154.3059
2154.3126
2154.3198
2154.3274
2154.3359
2154.3452
2154.3565
2154.3696
2154.3868
2154.4087
2154.4406
2154.5574
2153.962
2151.2252
2162.7526
2190.2192
2233.3125
2291.4094
2363.8608
2451.122
2552.4334
2667.7763
2796.908
2939.7814
3092.1025
3245.9896
3399.2497
3550.7665
3698.9218
3842.316
3979.3068
4108.2363
4228.2567
4347.2757
4474.9375
4619.1004
4774.2182
4943.4648
5128.9451
5332.3549
5555.1774
5800.2953
6060.2872
6290.425
6469.3751
6588.145
6639.356
6613.9317
6505.3686
6304.3631
6015.9106
5663.9011
5299.136
5034.7218
4887.5219
4822.6552
4801.4286
4796.778
4792.6466
2152.9397
2151.3563
2155.3488
2164.7758
2192.0565
2253.7349
2368.6488
2531.5412
2689.2728
2819.3269
2910.7779
2960.7047
2973.0603
2950.7499
2898.2021
2818.4662
2715.6282
2599.2594
2489.4768
2389.6313
2298.5562
2215.4572
2139.65
2070.2095
2006.8859
1948.7938
1895.3936
1841.6232
1783.9127
1722.6361
1658.4756
1592.1252
1524.2698
1455.5904
1386.692
1318.7536
1254.4601
1196.4536
1144.7768
1099.3734
1060.3296
1027.7262
1001.684
982.41679
970.15573
965.3225
967.10564
967.32142
967.08744
967.01289
966.94697
966.89604
966.84266
966.78975
966.73335
966.67638
966.61712
966.55466
966.48907
966.4213
966.35169
966.28097
966.20955
966.13802
966.06678
965.99631
965.92697
965.85916
965.79315
965.72924
965.66763
965.60858
965.55239
965.49897
965.44835
965.40079
965.3563
965.31489
965.27652
965.24121
965.20885
965.17943
965.15288
965.1291
965.10801
965.08954
965.07355
965.06004
965.04872
965.03985
965.03313
965.02858
965.02624
965.02616
965.02856
965.03347
965.04077
965.05023
965.06167
965.07487
965.08952
965.10535
965.12216
965.13972
965.15778
965.17619
965.19481
965.21352
965.23227
965.25101
965.26967
965.28823
965.30666
965.32492
965.34302
965.3609
965.37855
965.39595
965.41308
965.4299
965.44643
965.4626
965.47841
965.49386
965.5089
965.52351
965.53771
965.55143
965.56468
965.57745
965.5897
965.60143
965.61264
965.62329
965.6334
965.6429
965.65228
965.66155
965.67054
965.67913
965.68754
965.69544
965.70329
965.71073
965.71874
965.7263
965.73568
965.7448
965.75839
965.77233
965.79753
965.826
965.93303
965.80706
964.44523
969.48946
981.74969
1001.0342
1027.0606
1059.5309
1098.6421
1144.0538
1195.7568
1253.6407
1317.6701
1385.9171
1454.8785
1523.5766
1591.5085
1657.9507
1722.2795
1783.7622
1841.667
1895.6385
1949.2041
2006.642
2071.4351
2141.1604
2217.2285
2300.5854
2391.9926
2492.1302
2602.249
2719.0273
2822.4959
2903.6965
2958.0407
2982.4759
2973.1173
2927.4394
2841.9305
2719.1839
2570.4585
2413.6823
2292.4422
2218.0606
2180.7938
2164.6483
2158.1107
2151.7416
1168.8639
1166.624
1170.6361
1177.6182
1191.904
1223.0496
1281.8477
1366.7881
1449.6839
1519.1181
1568.2345
1595.1976
1601.9881
1590.0821
1561.8528
1518.9082
1463.6137
1400.9734
1341.8348
1288.0356
1238.9703
1194.209
1153.3844
1115.9982
1081.9121
1050.645
1021.8932
992.95083
961.89728
928.92084
894.38387
858.65829
822.11172
785.11148
747.99062
711.39571
676.76712
645.51015
617.65608
593.18198
572.13372
554.56188
540.53409
530.18905
523.6731
521.37816
522.81189
522.90978
522.66319
522.58034
522.49647
522.42612
522.34673
522.26489
522.17529
522.08169
521.98195
521.8774
521.76827
521.65611
521.54148
521.42554
521.30895
521.19261
521.07714
520.96328
520.85155
520.74254
520.63667
520.53439
520.43594
520.34182
520.25235
520.16735
520.08692
520.01147
519.94097
519.87542
519.81477
519.75902
519.70805
519.6618
519.6202
519.58311
519.55043
519.52209
519.49793
519.478
519.46173
519.4499
519.44186
519.43779
519.43772
519.44179
519.45019
519.46288
519.47955
519.49978
519.52317
519.5493
519.57772
519.608
519.63987
519.67295
519.70686
519.74136
519.77621
519.81118
519.84616
519.88104
519.91569
519.95006
519.98409
520.01773
520.05094
520.08365
520.11585
520.14751
520.17856
520.20901
520.23881
520.2679
520.29629
520.32394
520.35078
520.37682
520.40202
520.42632
520.44971
520.47217
520.49363
520.51409
520.53353
520.55187
520.56913
520.58521
520.60038
520.61467
520.6281
520.64043
520.652
520.66219
520.67177
520.67989
520.68822
520.69468
520.70316
520.70931
520.72144
520.73062
520.7558
520.77884
520.88263
520.90229
519.97101
522.53858
529.08081
539.43095
553.43628
570.92454
591.99618
616.46792
644.33483
675.53507
710.03928
746.81222
783.99646
821.06514
857.74447
893.64705
928.44087
961.73469
993.14518
1022.4972
1051.6744
1082.9225
1118.0923
1155.9502
1197.2403
1242.4764
1292.0733
1346.4189
1406.145
1469.5239
1525.871
1571.0192
1601.8656
1617.0573
1614.6761
1593.8016
1553.276
1495.0355
1425.8083
1350.2534
1282.1633
1232.8616
1202.3099
1185.6635
1175.7129
1167.177
718.77503
715.73794
718.9111
725.50874
733.37326
749.73534
781.16646
828.74233
876.48971
917.68087
947.1608
963.48799
967.69965
960.59667
943.59822
917.64272
884.3379
846.56059
810.86692
778.38577
748.77188
721.76489
697.14377
674.60798
654.07017
635.23454
617.89688
600.45024
581.73548
561.85701
541.02907
519.47431
497.41299
475.06797
452.64865
430.55881
409.66253
390.7885
373.9618
359.17637
346.45983
335.85117
327.39451
321.20141
317.38352
316.33871
317.67318
317.69974
317.41208
317.296
317.1739
317.06352
316.94068
316.81321
316.67576
316.53123
316.37884
316.22124
316.05899
315.8939
315.72684
315.55919
315.39184
315.22588
315.06209
314.90137
314.74438
314.59181
314.44417
314.302
314.16555
314.03551
313.91223
313.7953
313.68492
313.58166
313.4854
313.39613
313.3138
313.23838
313.16976
313.10784
313.05257
313.0038
312.96142
312.9254
312.89558
312.87219
312.85408
312.84298
312.83764
312.83838
312.84526
312.85838
312.87788
312.90354
312.93481
312.971
313.01151
313.05575
313.10307
313.15297
313.20504
313.2588
313.31375
313.36954
313.42582
313.48227
313.5387
313.59493
313.65075
313.7061
313.76083
313.81488
313.86818
313.92062
313.97219
314.02284
314.07247
314.12107
314.16861
314.21499
314.2602
314.3042
314.34691
314.38831
314.42837
314.46699
314.50415
314.53982
314.57391
314.60639
314.63722
314.6663
314.69365
314.71909
314.74269
314.76443
314.78455
314.80274
314.81935
314.83358
314.84635
314.85648
314.86602
314.87226
314.87998
314.88355
314.89332
314.89761
314.92031
314.93726
315.0385
315.10977
314.31718
315.69282
319.56428
325.76186
334.19447
344.74272
357.46258
372.24271
389.08074
407.93657
428.7837
451.00363
473.50601
495.97097
518.23018
540.05245
561.24125
581.56455
600.80042
618.85553
636.86848
656.10704
677.66959
700.89016
726.20263
753.91936
784.29736
817.59385
854.13756
892.97345
927.7042
956.52543
976.87651
988.22485
989.55699
980.66587
961.56589
934.07613
903.05429
867.87702
825.50181
788.3928
759.36152
741.61165
727.62383
717.49752
484.99024
480.82131
482.2854
489.34017
493.77075
502.16952
517.84785
544.04971
572.45861
598.4694
617.51654
628.21581
631.07491
626.52815
615.4862
598.53209
576.90043
552.32806
529.09046
507.93723
488.66202
471.09444
455.09103
440.45594
427.12815
414.90958
403.63557
392.30079
380.14137
367.21932
353.6702
339.63718
325.26259
310.69335
296.07519
281.68515
268.08007
255.78002
244.80713
235.16561
226.87417
219.96816
214.48059
210.51513
208.16619
207.84044
209.12052
209.04336
208.67154
208.48853
208.30194
208.12828
207.94408
207.75594
207.55909
207.35513
207.14482
206.93093
206.71423
206.4965
206.27873
206.06226
205.84807
205.63724
205.43056
205.22896
205.03308
204.8436
204.66104
204.48592
204.31839
204.15929
204.00897
203.8667
203.73278
203.60788
203.49181
203.38455
203.28602
203.19622
203.11501
203.04234
202.97816
202.92236
202.87484
202.83562
202.80456
202.78212
202.76642
202.76037
202.76187
202.77147
202.78917
202.81501
202.84899
202.89074
202.93943
202.99417
203.05417
203.11873
203.18706
203.2586
203.33284
203.40921
203.48713
203.56614
203.64583
203.72579
203.80575
203.88546
203.96466
204.04322
204.12096
204.19776
204.27354
204.34814
204.42153
204.49363
204.56434
204.63361
204.70139
204.76758
204.83215
204.89504
204.95616
205.01547
205.07291
205.12839
205.18185
205.23325
205.28247
205.32947
205.37418
205.41648
205.45634
205.49358
205.52811
205.55983
205.58912
205.61562
205.63966
205.66035
205.67854
205.69301
205.70575
205.714
205.72254
205.72561
205.73387
205.73529
205.75503
205.76788
205.86675
205.95867
205.19592
205.89558
208.32517
212.29985
217.76321
224.61924
232.90086
242.5335
253.51699
265.82171
279.42285
293.92438
308.64701
323.38071
338.01268
352.3951
366.40347
379.89116
392.71924
404.83558
417.02741
429.97993
444.39904
459.93569
476.85866
495.37018
515.64403
537.87059
562.19314
588.08229
611.39073
631.67593
646.55606
655.91638
659.20314
656.43672
648.24597
636.45576
625.0728
612.8114
586.41513
558.54071
531.13886
513.65116
496.0624
485.21297
352.55939
346.79988
346.07953
353.79957
356.68618
360.99944
366.76765
378.94341
395.10872
412.01594
424.97156
432.42314
434.5273
431.4966
423.94142
412.24151
397.43316
380.58464
364.63312
350.10767
336.88389
324.84378
313.88896
303.88426
294.78345
286.44588
278.7095
270.95411
262.62707
253.76838
244.46844
234.82397
224.93226
214.89715
204.82895
194.93153
185.58045
177.11456
169.55537
162.91432
157.20606
152.46609
148.72223
146.07778
144.61328
144.73698
145.92326
145.68675
145.18437
144.90381
144.63163
144.37973
144.12573
143.87293
143.61684
143.3575
143.09658
142.83603
142.57658
142.31946
142.06552
141.81576
141.57096
141.33198
141.09943
140.87402
140.65624
140.44663
140.24557
140.05349
139.87033
139.6969
139.53365
139.37949
139.23475
139.10014
138.97544
138.86059
138.75553
138.66026
138.57468
138.49875
138.43249
138.37582
138.32869
138.29116
138.26312
138.24524
138.23497
138.23623
138.24623
138.26565
138.29445
138.33258
138.37997
138.43607
138.49991
138.57046
138.64689
138.72842
138.81423
138.90371
138.99633
139.09147
139.18852
139.28697
139.38636
139.48622
139.58625
139.68613
139.78558
139.8844
139.98238
140.07936
140.17523
140.2698
140.363
140.45474
140.54489
140.63338
140.72014
140.80506
140.88807
140.96911
141.04807
141.12488
141.19948
141.27175
141.34162
141.40901
141.4738
141.53591
141.59527
141.65172
141.70519
141.75551
141.80244
141.84581
141.88605
141.92287
141.95645
141.98597
142.01203
142.0336
142.05225
142.06569
142.07789
142.08415
142.09361
142.09639
142.11523
142.12897
142.22763
142.33348
141.56207
141.82757
143.39099
146.04744
149.76385
154.45318
160.13576
166.7565
174.3173
182.79338
192.16082
202.15318
212.33388
222.55796
232.74435
242.79401
252.62417
262.13867
271.24133
279.89998
288.78106
298.11988
308.41125
319.51166
331.59038
344.78059
359.20598
375.01692
392.21778
410.51931
427.07472
442.27591
453.7934
461.70624
465.66622
465.69884
462.69396
458.48262
456.59146
457.87762
443.60601
424.77871
400.86239
385.6328
365.92251
355.2098
272.18083
264.47441
261.57621
269.66829
272.35906
275.25814
274.90122
277.09891
284.28755
295.16807
304.29359
309.75521
311.43106
309.38421
304.03096
295.63119
285.10524
273.11141
261.73615
251.37485
241.95524
233.39184
225.61415
218.52432
212.08507
206.19425
200.65778
195.15469
189.22946
182.91241
176.26763
169.36301
162.26836
155.06204
147.83381
140.74148
134.04507
127.97018
122.53959
117.77043
113.67606
110.29364
107.64874
105.84503
104.94621
105.35144
106.37376
105.93849
105.27834
104.89204
104.53486
104.21203
103.90109
103.6005
103.30524
103.01365
102.72716
102.44625
102.17119
101.90231
101.64002
101.38471
101.13677
100.8966
100.66449
100.44083
100.22585
100.0198
99.822895
99.635391
99.457029
99.288328
99.129995
98.98077
98.840804
98.710784
98.590528
98.479967
98.379057
98.287829
98.206222
98.134251
98.071975
98.019366
97.976439
97.943287
97.919827
97.906861
97.901569
97.908238
97.923852
97.949123
97.983982
98.028377
98.082174
98.144783
98.215197
98.292458
98.375779
98.464369
98.557477
98.654524
98.755003
98.858326
98.96389
99.071204
99.179809
99.289241
99.399171
99.509284
99.619259
99.728888
99.837944
99.94623
100.05362
100.1599
100.26499
100.36876
100.47107
100.57183
100.67096
100.76832
100.86383
100.95741
101.04893
101.13831
101.22547
101.31027
101.39262
101.47244
101.54958
101.62394
101.69542
101.76386
101.82916
101.89113
101.94947
102.00388
102.05482
102.10211
102.14578
102.18517
102.22049
102.25115
102.27798
102.29965
102.31862
102.33228
102.34677
102.35649
102.37866
102.40045
102.50388
102.62818
101.84543
101.80827
102.80881
104.6209
107.23002
110.55076
114.5965
119.32221
124.73166
130.8018
137.50907
144.66688
151.99176
159.38061
166.77167
174.0962
181.29695
188.30936
195.05396
201.52457
208.36306
215.47571
223.17826
231.50812
240.56297
250.42758
261.19086
272.97401
285.6672
299.09532
311.25681
323.00293
332.07096
338.5972
342.28384
343.13102
342.04368
340.82319
342.55301
351.39325
347.10855
337.32834
318.62749
307.33208
287.54885
277.47055
220.2042
210.53768
205.7787
213.62189
216.88184
220.20897
216.7413
211.91868
211.47308
217.92644
224.45954
228.6337
230.06728
228.70782
224.8329
218.63251
210.94391
202.17921
193.84115
186.24463
179.35248
173.10033
167.43561
162.28432
157.61514
153.34755
149.25232
145.23885
140.8995
136.25414
131.35299
126.2455
120.98443
115.63296
110.26848
105.01743
100.06177
95.553635
91.51851
87.978179
84.94625
82.461331
80.547708
79.30592
78.780258
79.342116
80.141586
79.518269
78.717449
78.254185
77.844355
77.485822
77.154509
76.843457
76.546435
76.260149
75.984811
75.719271
75.463103
75.215694
74.976895
74.746451
74.524323
74.310471
74.104836
73.907489
73.718403
73.537622
73.365155
73.201124
73.045207
72.897417
72.758813
72.62828
72.505665
72.391514
72.285806
72.188466
72.099491
72.018944
71.946818
71.883175
71.82812
71.781676
71.743908
71.714941
71.694731
71.683979
71.680454
71.687569
71.702933
71.727114
71.760054
71.801722
71.851995
71.910328
71.97587
72.047872
72.125605
72.208381
72.295574
72.38669
72.4813
72.578901
72.678969
72.781072
72.884807
72.989754
73.095609
73.202086
73.308878
73.415785
73.522587
73.629087
73.735152
73.840582
73.945263
74.049086
74.151886
74.253569
74.354046
74.453167
74.550846
74.646998
74.741478
74.834195
74.925064
75.013934
75.10071
75.185294
75.267534
75.347318
75.424535
75.499026
75.570665
75.639282
75.704551
75.766054
75.824224
75.879059
75.930436
75.97794
76.021371
76.060672
76.095853
76.126789
76.154162
76.177969
76.200609
76.222073
76.252063
76.288967
76.403715
76.554372
75.779317
75.525738
76.142353
77.383594
79.25085
81.657582
84.613258
88.077708
92.056119
96.525609
101.46278
106.73234
112.151
117.64433
123.16301
128.65792
134.08788
139.40818
144.53549
149.53183
154.96699
160.63077
166.57656
173.04193
180.06507
187.69476
195.99297
205.05388
214.68334
224.71209
233.80531
242.92481
249.98936
255.11244
257.98474
258.58329
257.77644
257.2521
259.53159
271.42094
275.19448
273.88637
261.25281
254.8058
236.70952
227.59542
184.53737
173.21831
167.08288
173.99439
177.97787
182.78126
178.64191
169.66283
161.95994
164.7716
169.38061
172.65223
173.93779
173.08041
170.2463
165.58633
159.85488
153.34033
147.10851
141.43007
136.29248
131.64551
127.44837
123.64271
120.20215
117.04839
113.94071
110.94418
107.69523
104.19106
100.4779
96.593507
92.580284
88.492708
84.400362
80.406645
76.638722
73.200279
70.120289
67.424015
65.125746
63.263878
61.860976
61.008927
60.732935
61.357676
61.914882
61.173406
60.296797
59.814116
59.404376
59.058879
58.751563
58.470977
58.20976
57.963347
57.73059
57.509132
57.297983
57.095874
56.902256
56.716451
56.538132
56.366991
56.20276
56.045326
55.894526
55.750277
55.612504
55.481252
55.356244
55.237087
55.125013
55.019397
54.919724
54.826361
54.739498
54.659068
54.585114
54.517732
54.456964
54.402906
54.355697
54.315401
54.282114
54.255983
54.237009
54.225665
54.220641
54.22404
54.234379
54.252028
54.276952
54.309157
54.348558
54.394712
54.447079
54.505066
54.568048
54.635489
54.706904
54.781914
54.860187
54.941332
55.024935
55.110649
55.198156
55.287112
55.377267
55.468387
55.560211
55.652572
55.745279
55.838162
55.931103
56.023925
56.11652
56.208794
56.300593
56.391828
56.482416
56.572218
56.661146
56.749124
56.836013
56.921723
57.006172
57.08922
57.170768
57.250729
57.328953
57.405338
57.479772
57.552118
57.62224
57.690009
57.755107
57.817102
57.876302
57.932915
57.986708
58.037557
58.084901
58.129242
58.169855
58.207856
58.242215
58.275622
58.306747
58.341438
58.381468
58.437115
58.56822
58.749458
58.011663
57.612265
57.963298
58.807956
60.159963
61.93235
64.132079
66.721476
69.706326
73.063546
76.770161
80.72515
84.811271
88.974437
93.174043
97.373946
101.54325
105.64882
109.58994
113.54543
117.92367
122.54487
127.23242
132.3502
137.90827
143.9293
150.4534
157.54458
164.97299
172.48182
179.34338
186.34953
191.72522
195.52888
197.42792
197.42016
196.30939
195.60574
197.11559
208.94451
218.10753
224.2906
217.66463
216.30054
200.96333
192.98548
158.64993
146.28318
139.23292
144.71434
149.151
155.75228
152.71087
142.47413
127.72928
127.15919
130.16943
132.71796
133.87637
133.38155
131.30083
127.76084
123.41945
118.53132
113.81141
109.51023
105.63285
102.1389
98.995421
96.154576
93.596031
91.219218
88.818065
86.525357
84.052111
81.349768
78.470008
75.443776
72.307624
69.111365
65.919199
62.816355
59.890816
57.214281
54.818825
52.731468
50.966543
49.559803
48.530909
47.958146
47.852161
48.476621
48.81735
48.056455
47.188255
46.743117
46.37987
46.085248
45.832461
45.607564
45.402943
45.213376
45.036888
44.870611
44.713321
44.563529
44.420543
44.283551
44.152139
44.025937
43.904616
43.788029
43.675988
43.568392
43.465165
43.36634
43.271724
43.180747
43.094586
43.013208
42.935822
42.862623
42.793988
42.729866
42.670339
42.615526
42.565504
42.52039
42.480337
42.445436
42.415796
42.39157
42.37279
42.359774
42.351782
42.350119
42.353853
42.363244
42.378274
42.398977
42.425302
42.456967
42.493712
42.535022
42.580401
42.629457
42.681833
42.737256
42.795485
42.856234
42.919195
42.98411
43.050742
43.11883
43.188184
43.25863
43.329964
43.402058
43.474763
43.547946
43.621517
43.695333
43.769306
43.843363
43.917379
43.991277
44.064994
44.138411
44.211456
44.284066
44.356123
44.427549
44.498278
44.568192
44.637203
44.705243
44.772182
44.837936
44.902411
44.965502
45.027083
45.087076
45.145195
45.201106
45.254917
45.307039
45.357195
45.405534
45.451255
45.495334
45.536523
45.577001
45.614406
45.653718
45.690579
45.735919
45.784696
45.857498
46.005654
46.213845
45.542884
45.060849
45.231978
45.800996
46.78905
48.111667
49.773766
51.739646
54.014791
56.576306
59.402175
62.415282
65.541218
68.740466
71.979072
75.22962
78.467788
81.665767
84.713384
87.89184
91.426624
95.21974
98.97861
103.06482
107.50402
112.30087
117.47826
123.06684
128.85502
134.45889
139.64207
144.96099
148.95425
151.63911
152.66728
152.12898
150.67827
149.63053
150.08966
160.18806
171.65127
183.5856
182.44619
186.0498
173.85842
167.0986
138.85935
126.22434
118.57822
122.4155
126.87538
135.08309
134.17784
125.14387
104.16239
100.14521
101.67617
103.54742
104.54004
104.27966
102.74266
100.02909
96.700152
93.013164
89.405564
86.117608
83.166999
80.520529
78.150544
76.016674
74.101594
72.277378
70.393755
68.599198
66.689095
64.56512
62.286739
59.881803
57.383987
54.840621
52.311282
49.865947
47.564406
45.457064
43.577496
41.952295
40.59465
39.535559
38.790847
38.422714
38.435727
39.023644
39.201395
38.502804
37.710964
37.336046
37.042296
36.813649
36.624361
36.46018
36.314043
36.180742
36.058069
35.943225
35.835024
35.732078
35.633737
35.539254
35.448256
35.360441
35.275505
35.193353
35.11383
35.036875
34.962449
34.890611
34.821234
34.753751
34.689168
34.627916
34.56909
34.512731
34.459344
34.408896
34.361495
34.317272
34.276322
34.238772
34.204776
34.174435
34.147862
34.125202
34.106505
34.092002
34.08124
34.075105
34.072971
34.075024
34.081262
34.091732
34.10641
34.125215
34.148013
34.174358
34.203866
34.236262
34.271289
34.308751
34.348483
34.390281
34.433922
34.479219
34.526006
34.574087
34.623327
34.673602
34.724761
34.776711
34.829341
34.882558
34.936294
34.990443
35.044939
35.099732
35.154725
35.209861
35.265095
35.320337
35.375527
35.430625
35.485535
35.540199
35.594568
35.648551
35.702077
35.755103
35.807523
35.859277
35.910296
35.960509
36.009813
36.058179
36.105365
36.151181
36.19555
36.239018
36.281326
36.322839
36.36264
36.402036
36.4395
36.477965
36.514233
36.554901
36.5936
36.644908
36.698969
36.783622
36.945315
37.17039
36.586984
36.075452
36.129724
36.510075
37.239755
38.240278
39.514679
41.029596
42.789514
44.772402
46.957683
49.285515
51.708521
54.19757
56.724113
59.266598
61.804838
64.31184
66.685653
69.265499
72.111654
75.211005
78.262522
81.543853
85.1
88.93431
93.057035
97.472779
102.00129
106.17412
110.09102
114.09966
117.01685
118.83559
119.2247
118.36605
116.74358
115.44947
115.09331
122.93951
134.09024
149.32719
152.9864
161.00939
151.97495
146.564
123.08979
110.86594
102.82287
105.06245
109.14872
118.48527
120.16285
113.7553
88.374867
80.722887
80.766932
81.94024
82.693659
82.541149
81.37938
79.271464
76.687091
73.894294
71.115767
68.582753
66.321552
64.304621
62.508122
60.89763
59.45247
58.027867
56.531647
55.097032
53.602823
51.908526
50.078774
48.141005
46.127535
44.083709
42.063991
40.124857
38.305752
36.642543
35.168088
33.906672
32.86949
32.081923
31.555934
31.337959
31.436136
31.970363
32.042546
31.448284
30.766906
30.46965
30.246891
30.081312
29.949489
29.838396
29.741814
29.65507
29.576054
29.502342
29.432905
29.366601
29.302901
29.241196
29.181203
29.122731
29.065527
29.009575
28.954768
28.901092
28.848557
28.797252
28.747094
28.697597
28.649583
28.603756
28.559226
28.515911
28.474384
28.434629
28.396765
28.360925
28.327216
28.295761
28.26671
28.240163
28.21623
28.195047
28.176666
28.161263
28.148559
28.139167
28.132658
28.129179
28.128721
28.131339
28.137057
28.145952
28.157913
28.172564
28.189608
28.208857
28.230124
28.253272
28.278187
28.304724
28.332727
28.362058
28.392603
28.424217
28.456806
28.490284
28.524539
28.559509
28.595111
28.631282
28.667975
28.705112
28.742647
28.780547
28.818741
28.857188
28.89586
28.934688
28.973631
29.012662
29.05171
29.090733
29.129699
29.16854
29.207206
29.245671
29.283855
29.321723
29.359227
29.396327
29.432945
29.469093
29.504576
29.539336
29.573176
29.606694
29.639687
29.672662
29.704697
29.737265
29.76877
29.802566
29.835091
29.873819
29.911394
29.964425
30.020429
30.110902
30.281125
30.511573
30.023889
29.521467
29.502806
29.755954
30.301484
31.069605
32.061668
33.247154
34.629208
36.187217
37.902281
39.72727
41.631514
43.593213
45.588302
47.599188
49.608179
51.586135
53.459213
55.567884
57.861269
60.376497
62.865747
65.522602
68.380969
71.451068
74.739993
78.238485
81.786866
84.899956
87.871214
90.889236
93.00832
94.199205
94.190744
93.205603
91.586167
90.199537
89.388106
95.111415
104.47852
120.5356
127.77979
139.43734
133.43304
129.59591
110.10866
98.787992
90.440582
91.318938
94.755437
104.66175
108.93232
105.6101
78.372439
66.900172
65.396239
65.846445
66.287998
66.128785
65.20254
63.526856
61.486563
59.355681
57.195891
55.225896
53.477137
51.926916
50.554447
49.331166
48.224133
47.092649
45.894186
44.724993
43.542611
42.178597
40.696364
39.124526
37.494235
35.848067
34.234291
32.697238
31.261787
29.953599
28.803034
27.831164
27.047108
26.47104
26.111754
26.00371
26.159786
26.63619
26.649367
26.166231
25.600977
25.373843
25.212182
25.098569
25.012426
24.942648
24.883811
24.832029
24.785399
24.741956
24.700845
24.661195
24.622601
24.584599
24.546992
24.509701
24.472516
24.435497
24.398573
24.361773
24.325148
24.288813
24.252703
24.216438
24.180676
24.14625
24.112349
24.078803
24.046208
24.01456
23.983981
23.954602
23.926529
23.899882
23.874799
23.851377
23.82972
23.80995
23.792119
23.776367
23.762517
23.751007
23.741538
23.73422
23.729051
23.726078
23.725407
23.727184
23.73129
23.737414
23.745323
23.754893
23.765984
23.778503
23.792369
23.807481
23.823729
23.841011
23.859248
23.878334
23.898204
23.918797
23.940032
23.961869
23.984242
24.007115
24.030455
24.054203
24.078329
24.102813
24.127603
24.152672
24.178002
24.203543
24.229267
24.255158
24.281165
24.307258
24.333419
24.3596
24.385766
24.411906
24.437963
24.463917
24.489743
24.515424
24.540905
24.566225
24.591235
24.615973
24.6402
24.664487
24.688712
24.713454
24.737863
24.763436
24.788666
24.817042
24.845002