/*--------------------------------*- C++ -*----------------------------------*\
| =========                 |                                                 |
| \\      /  F ield         | OpenFOAM: The Open Source CFD Toolbox           |
|  \\    /   O peration     | Version:  2.4.0                                 |
|   \\  /    A nd           | Web:      www.OpenFOAM.org                      |
|    \\/     M anipulation  |                                                 |
\*---------------------------------------------------------------------------*/
FoamFile
{
    version     2.0;
    format      ascii;
    class       volVectorField;
    location    "360";
    object      U;
}
// * * * * * * * * * * * * * * * * * * * * * * * * * * * * * * * * * * * * * //

dimensions      [0 1 -1 0 0 0 0];

internalField   nonuniform List<vector> 
78300
(
(0.0053556234 2.2877194e-05 1.3050287e-21)
(0.0039180241 1.9636619e-05 -1.2717463e-21)
(0.0067046301 -4.2537321e-05 1.0856572e-21)
(0.0052489685 -0.00016140859 -2.9690519e-20)
(0.0058326366 -0.00039527463 -8.4468019e-21)
(0.0033154416 -0.00038849665 1.6344265e-20)
(0.0021286333 -0.00038609169 9.5448355e-21)
(-0.00064534198 0.00015591967 -3.3589147e-20)
(-0.0015801787 0.00051821138 -1.2317318e-20)
(-0.0023341056 0.00098395056 1.385872e-20)
(-0.0019229179 0.00096970394 8.5259327e-21)
(-0.0016977045 0.0009806559 -2.1816943e-20)
(-0.0012551286 0.00080172157 3.4121239e-21)
(-0.0011045405 0.00076456498 -1.5792981e-20)
(-0.00090216749 0.00066343399 1.1869356e-20)
(-0.00084679068 0.000653586 -1.6753709e-20)
(-0.00074321215 0.00059478646 -5.2033258e-21)
(-0.00071663519 0.00059013326 2.3674272e-21)
(-0.00065460344 0.00054984157 -8.5006249e-21)
(-0.0006268779 0.00053365944 5.9038492e-21)
(-0.00057935221 0.000496278 7.3797195e-21)
(-0.00055152094 0.00047254622 -5.8801784e-21)
(-0.00051523742 0.00043854045 -2.0780067e-21)
(-0.00049876546 0.00041980642 9.0019461e-22)
(-0.0004810111 0.00040021633 2.1199492e-21)
(-0.00047439452 0.0003905056 4.8575304e-22)
(-0.00046853556 0.00038179198 6.2324731e-22)
(-0.00047132899 0.00038050711 -2.0377298e-21)
(-0.00047676843 0.00038159329 -1.6914666e-21)
(-0.0004898273 0.00038900234 -1.1406234e-21)
(-0.00050702245 0.00039983904 1.2190641e-21)
(-0.00053115048 0.00041628626 2.6067698e-21)
(-0.00056005052 0.00043659648 1.0088813e-21)
(-0.00059502065 0.00046179272 1.3810749e-21)
(-0.00063382957 0.00049015004 -1.5128434e-21)
(-0.000675646 0.00052111022 1.0057952e-21)
(-0.00071550355 0.00055016451 -1.5961968e-21)
(-0.00075437722 0.00057665625 -5.0716603e-23)
(-0.00079274149 0.00060055074 -2.2427339e-21)
(-0.00082994015 0.00062106959 3.4527596e-22)
(-0.00086575794 0.00063773573 -3.1029959e-24)
(-0.00089912545 0.00064955998 -2.6783872e-22)
(-0.00092957407 0.00065607046 -8.5590624e-22)
(-0.00095579543 0.00065609477 -1.5142169e-21)
(-0.00097756166 0.00064950274 3.2675095e-21)
(-0.00099315165 0.00063517902 4.4636964e-21)
(-0.0010041664 0.0006143361 -1.8328497e-21)
(-0.0010094875 0.00058643843 -5.7094445e-21)
(-0.0010163038 0.0005562797 6.1012044e-21)
(-0.0010221035 0.00052407519 -5.2286752e-21)
(-0.0010257671 0.00048981516 -1.2040556e-20)
(-0.0010231608 0.00045186589 1.6387262e-21)
(-0.00101805 0.00041247437 -2.3456858e-21)
(-0.0010024523 0.00036893269 -9.1203417e-21)
(-0.00098620617 0.00032579258 -2.9491923e-21)
(-0.00095365824 0.00027849962 2.5469345e-21)
(-0.00092538133 0.00023431393 1.840783e-21)
(-0.00087394931 0.00018682725 3.7258634e-21)
(-0.00084230194 0.00014648688 5.084123e-23)
(-0.0007833356 0.00010457218 -1.8795896e-21)
(-0.00078248785 7.2571984e-05 6.3588268e-23)
(-0.0007565381 3.9059473e-05 -4.6139419e-23)
(-0.00091239661 1.0927948e-05 -1.4708068e-22)
(-0.0012187005 3.7230284e-07 5.5856255e-26)
(-0.0014247735 3.6494505e-07 -6.4804886e-26)
(-0.0016318253 3.3095265e-07 -3.046873e-25)
(-0.0018002719 3.4940782e-07 3.3810194e-25)
(-0.0019658862 3.3622945e-07 -3.419582e-25)
(-0.0021049079 3.5270018e-07 2.202533e-25)
(-0.0022392967 3.4572958e-07 -2.7230423e-25)
(-0.0023553626 3.5733132e-07 1.7823009e-25)
(-0.0024666584 3.5549374e-07 3.2326119e-25)
(-0.0025651453 3.6499804e-07 -4.0185988e-25)
(-0.002659222 3.6593525e-07 -1.4031039e-18)
(-0.0027441533 3.7382077e-07 -1.1728481e-18)
(-0.0028251158 3.7615616e-07 4.1750024e-25)
(-0.0028992438 3.8267778e-07 -1.7880808e-25)
(-0.0029695788 3.8562182e-07 -5.9656058e-26)
(-0.0030342064 3.9180751e-07 -3.7049651e-26)
(-0.0030954396 3.899668e-07 4.3505498e-26)
(-0.0031522029 3.8904991e-07 -9.470554e-26)
(-0.0032058559 3.903928e-07 3.3664356e-25)
(-0.0032557516 3.9197735e-07 -1.8047435e-25)
(-0.0033027118 3.916188e-07 -4.6173002e-25)
(-0.0033463845 3.9141869e-07 5.000367e-25)
(-0.0033872663 3.8958885e-07 -7.1939305e-26)
(-0.0034251431 3.8787649e-07 5.9029108e-25)
(-0.0034603458 3.8475331e-07 -8.1057082e-25)
(-0.0034927397 3.8121564e-07 -6.3592889e-25)
(-0.0035225678 3.7583965e-07 9.7443098e-25)
(-0.0035495977 3.6856688e-07 -8.2094736e-25)
(-0.0035742348 3.5978555e-07 6.5498979e-25)
(-0.0035961227 3.6067364e-07 -3.7125354e-25)
(-0.0036169369 3.6260697e-07 -7.8301407e-26)
(-0.0036354497 3.573301e-07 2.7372965e-26)
(-0.003651858 3.5253684e-07 5.5121804e-25)
(-0.0036656169 3.5024613e-07 -4.6988956e-26)
(-0.0036773469 3.3836139e-07 8.1792107e-25)
(-0.003686973 3.2427445e-07 -4.4681603e-27)
(-0.0036948553 3.1687615e-07 -1.6105402e-24)
(-0.0037012418 3.0957422e-07 7.6441882e-25)
(-0.0037064382 3.0286556e-07 -7.3294035e-26)
(-0.0037110961 2.9730783e-07 1.0897984e-24)
(-0.0037155947 2.9265225e-07 -2.7658103e-26)
(-0.0037207215 2.8577806e-07 -2.1322675e-24)
(-0.0037251872 2.7021712e-07 -1.4680968e-25)
(-0.0037274057 2.5069113e-07 7.4147652e-26)
(-0.003720708 2.3516455e-07 1.0946766e-24)
(-0.0037117422 2.207539e-07 -1.0922133e-25)
(-0.003699778 2.0761363e-07 -1.3791738e-24)
(-0.0036859326 1.9502516e-07 2.548697e-24)
(-0.0036702289 1.8264532e-07 -2.9155673e-24)
(-0.0036529107 1.7016728e-07 2.7458823e-24)
(-0.0036339731 1.5760662e-07 -5.2791094e-25)
(-0.0036135456 1.4494271e-07 3.2239752e-25)
(-0.0035916352 1.3229753e-07 -1.3638961e-24)
(-0.0035683327 1.1950805e-07 7.7292455e-25)
(-0.0035436581 1.0674497e-07 2.0843071e-25)
(-0.0035176851 9.3689618e-08 -1.502426e-25)
(-0.0034904433 8.1033703e-08 -1.4720549e-25)
(-0.0034619974 6.8104672e-08 3.1232337e-17)
(-0.0034323819 5.5565541e-08 3.2137908e-17)
(-0.0034016546 4.2705686e-08 1.8822197e-24)
(-0.0033698543 3.023699e-08 -1.5294152e-25)
(-0.0033370382 1.759896e-08 -1.7631576e-25)
(-0.0033032479 5.3306373e-09 -1.2793614e-25)
(-0.0032685364 -7.0603989e-09 -1.0604008e-26)
(-0.0032329439 -1.9065121e-08 -4.3207821e-25)
(-0.0031965196 -3.1032585e-08 -1.9800521e-25)
(-0.0031593056 -4.2896696e-08 6.8946318e-25)
(-0.0031213501 -5.4400933e-08 3.7601091e-26)
(-0.0030826943 -6.6024869e-08 3.7733051e-25)
(-0.0030433835 -7.7192408e-08 -6.2497262e-25)
(-0.0030034616 -8.8456303e-08 8.742365e-26)
(-0.0029629736 -9.9053502e-08 2.0257913e-26)
(-0.0029219592 -1.1000583e-07 3.9624183e-26)
(-0.0028804548 -1.2026117e-07 3.8428516e-27)
(-0.0028384993 -1.3082037e-07 2.5401803e-25)
(-0.0027961308 -1.4051219e-07 -1.1247842e-25)
(-0.0027533884 -1.5063325e-07 -6.071514e-25)
(-0.0027103061 -1.5985419e-07 1.1667176e-24)
(-0.002666921 -1.6934095e-07 -1.6888401e-24)
(-0.0026232693 -1.7812578e-07 2.8731495e-26)
(-0.0025793862 -1.8677595e-07 9.0047471e-25)
(-0.002535306 -1.9518426e-07 -2.5560357e-25)
(-0.0024910619 -2.0315173e-07 6.1189101e-25)
(-0.0024466885 -2.1116158e-07 -2.580426e-25)
(-0.0024022165 -2.1856665e-07 -1.6499593e-26)
(-0.0023576781 -2.260502e-07 -2.927302e-25)
(-0.002313101 -2.3294145e-07 -3.0086352e-25)
(-0.0022685148 -2.3998496e-07 -2.8528648e-25)
(-0.0022239483 -2.465173e-07 1.0841678e-24)
(-0.002179427 -2.528896e-07 7.0599685e-25)
(-0.0021349819 -2.5899899e-07 1.1597433e-24)
(-0.0020906318 -2.6487393e-07 -4.5942231e-25)
(-0.0020464103 -2.7038759e-07 -1.3008224e-24)
(-0.0020023279 -2.7581401e-07 -3.1514601e-24)
(-0.001958423 -2.8085186e-07 6.2158521e-17)
(-0.0019146988 -2.85948e-07 2.9773672e-20)
(-0.001871196 -2.9047723e-07 -6.3589951e-17)
(-0.0018279109 -2.9519891e-07 -4.8473199e-24)
(-0.0017848851 -2.9921865e-07 7.0772037e-25)
(-0.0017421087 -3.0341006e-07 -8.4554138e-24)
(-0.0016996313 -3.0708856e-07 8.7512373e-24)
(-0.0016574429 -3.1018343e-07 8.1165381e-25)
(-0.0016156064 -3.128694e-07 -7.9785275e-24)
(-0.0015740949 -3.1596989e-07 4.425796e-24)
(-0.0015329763 -3.1848848e-07 -4.8744112e-24)
(-0.0014921998 -3.2163248e-07 7.1897506e-24)
(-0.0014518545 -3.2385872e-07 -1.839971e-24)
(-0.0014118674 -3.2648901e-07 -3.6116789e-24)
(-0.001372361 -3.2829172e-07 1.1604059e-24)
(-0.0013332255 -3.3069222e-07 4.6868801e-24)
(-0.0012946271 -3.3263282e-07 -5.4372206e-24)
(-0.0012563995 -3.3497338e-07 4.7563672e-24)
(-0.0012187655 -3.3696143e-07 -5.194948e-24)
(-0.0011814859 -3.3891806e-07 2.665695e-24)
(-0.001144868 -3.4056411e-07 3.0451547e-24)
(-0.0011085765 -3.4201882e-07 4.9403696e-24)
(-0.0010730394 -3.431731e-07 -5.6573671e-24)
(-0.0010377876 -3.4433974e-07 -3.8922313e-24)
(-0.0010034051 -3.4507382e-07 5.0109487e-24)
(-0.00096924318 -3.4576967e-07 -1.0669513e-23)
(-0.00093609314 -3.4557257e-07 9.9327551e-24)
(-0.00090308182 -3.4570748e-07 -5.8914343e-24)
(-0.00087127763 -3.4463786e-07 5.1329993e-24)
(-0.00083949374 -3.4422304e-07 -5.9708536e-24)
(-0.00080917729 -3.4191063e-07 -4.1128366e-24)
(-0.00077872658 -3.411649e-07 3.2566864e-24)
(-0.00075009423 -3.3787413e-07 -4.1649017e-24)
(-0.00072112719 -3.373587e-07 1.0726936e-23)
(-0.00069444564 -3.3375008e-07 -6.5201966e-24)
(-0.00066715618 -3.3428711e-07 5.7118031e-24)
(-0.00064276403 -3.300048e-07 -9.7854927e-24)
(-0.00061740879 -3.3070721e-07 9.1579121e-25)
(-0.000595776 -3.2463668e-07 3.3912813e-24)
(-0.00057273032 -3.2515954e-07 3.8073292e-24)
(-0.00055451817 -3.1663819e-07 -1.4522622e-23)
(-0.00053434892 -3.1771241e-07 8.4746466e-17)
(-0.00052047791 -3.0720936e-07 8.5259836e-17)
(-0.00050399355 -3.0938623e-07 -4.3330533e-24)
(-0.00049568027 -2.9600343e-07 -6.4504666e-24)
(-0.00048402534 -2.9902451e-07 5.629307e-24)
(-0.0004828177 -2.8204699e-07 1.0244962e-24)
(-0.00047752736 -2.8673338e-07 -1.8622073e-24)
(-0.00048504882 -2.6765006e-07 -8.7507253e-17)
(-0.00048623307 -2.8206563e-07 -8.8031565e-17)
(-0.00049876229 -5.9601372e-06 -1.5767266e-20)
(-0.00050857019 -2.6195261e-05 1.6363907e-19)
(-0.00051191734 -4.7124195e-05 7.4257915e-20)
(-0.00051811043 -6.8580988e-05 -4.8159207e-19)
(-0.00051007502 -8.7841289e-05 -8.0186404e-20)
(-0.00050417279 -0.00010672563 -5.3686863e-19)
(-0.00048528679 -0.00012158838 3.5908544e-20)
(-0.00046704483 -0.00013494199 -5.6051267e-21)
(-0.00043773439 -0.00014294605 1.9918148e-19)
(-0.00040745853 -0.0001481323 -1.5664125e-19)
(-0.0003676733 -0.00014692559 5.1071091e-19)
(-0.00032540835 -0.00014148641 -3.4809309e-19)
(-0.00027449523 -0.00012863306 -9.4643769e-20)
(-0.00021952582 -0.00010994054 -1.7396158e-19)
(-0.00015574279 -8.2456599e-05 9.8890686e-19)
(-8.5677054e-05 -4.6858992e-05 2.1657398e-19)
(-4.1814891e-06 4.2514823e-07 -8.4530301e-19)
(8.4372452e-05 5.6939232e-05 -9.2817957e-19)
(0.00018339734 0.00012475506 -1.4841332e-19)
(0.00028995871 0.00020176369 7.1544207e-20)
(0.00040679068 0.00028954172 -9.9879883e-19)
(0.00053161129 0.00038609159 -6.6726158e-20)
(0.0006665994 0.00049251129 -1.8163001e-19)
(0.00080946016 0.00060648955 -1.1907937e-18)
(0.00096162676 0.00072842886 1.8078551e-19)
(0.0011201524 0.00085528289 9.784881e-19)
(0.0012852106 0.00098623765 7.0953682e-19)
(0.0014504347 0.0011156467 -2.6575121e-19)
(0.0016088313 0.0012400537 -1.3162693e-19)
(0.0017633733 0.0013634254 -1.2206773e-19)
(0.0019159928 0.0014875736 2.4910018e-19)
(0.0020644703 0.0016110277 8.7527473e-19)
(0.0022134598 0.0017376994 -9.5119294e-19)
(0.002337835 0.0018478388 2.5496028e-19)
(0.0024700688 0.0019675208 2.6428216e-20)
(0.0026159861 0.0021019546 2.4039833e-19)
(0.0027793677 0.0022543379 1.4226078e-19)
(0.0029643093 0.0024288843 -6.6697289e-20)
(0.0031695384 0.002625313 3.3619471e-19)
(0.003409747 0.0028568659 -4.020719e-20)
(0.0036954899 0.0031311223 -7.0124974e-19)
(0.0040767375 0.0034765594 -1.6767468e-20)
(0.0045036213 0.0038396629 -4.5534169e-19)
(0.005023379 0.0042549778 4.2336138e-19)
(0.0055928721 0.0046743612 3.4827071e-20)
(0.0062976536 0.0051575781 5.1560379e-20)
(0.0070695728 0.0056279393 -1.1962514e-19)
(0.0080603594 0.0061852402 7.2292337e-20)
(0.0091536761 0.0066978487 4.8145256e-20)
(0.010618138 0.0073130634 -2.0438518e-20)
(0.012201951 0.0077706257 1.2862695e-19)
(0.014234304 0.0081982338 -9.5137515e-20)
(0.016102667 0.0081218921 -3.5123989e-19)
(0.018032297 0.0076142662 -4.2353827e-19)
(0.018235541 0.0060725349 -8.3469225e-20)
(0.01732652 0.0043475825 1.2639775e-19)
(0.014850305 0.0026538574 -1.5863784e-19)
(0.012645202 0.0014890799 -9.7479781e-20)
(0.0092815021 0.00063570859 -2.0701345e-20)
(0.0077702653 0.00024388571 -3.0771086e-20)
(0.0047674432 3.3904201e-05 -1.8661809e-20)
(0.0050518593 -2.771855e-05 -1.0718953e-20)
(0.0024221657 -1.1036179e-05 -1.8337679e-21)
(0.016212429 6.010528e-05 1.4363226e-21)
(0.012401781 5.0895252e-05 3.6614426e-21)
(0.020286442 -0.00013588697 -3.9936303e-21)
(0.016072782 -0.00048832465 3.4886667e-20)
(0.017712302 -0.0011839413 5.083397e-22)
(0.010341114 -0.0011764338 6.020185e-20)
(0.006754056 -0.0011744682 -2.5118685e-20)
(-0.0015377252 0.00042626274 4.7660021e-20)
(-0.0045060972 0.0015229655 3.725516e-20)
(-0.0068832751 0.0029318059 -3.2779538e-20)
(-0.0057334437 0.0029070388 -1.024427e-20)
(-0.0050831124 0.0029456185 3.304382e-21)
(-0.003774931 0.0024167777 7.7224519e-20)
(-0.003323252 0.0023052344 1.1877033e-20)
(-0.0027196471 0.0020040008 -3.2328017e-20)
(-0.00255138 0.0019733773 1.4915842e-20)
(-0.0022418621 0.0017978984 -8.4326189e-21)
(-0.002160566 0.0017830455 -3.2235084e-21)
(-0.0019752928 0.0016625484 -8.8651514e-21)
(-0.0018915842 0.0016134239 2.4564945e-21)
(-0.0017497276 0.0015013731 -3.4073724e-21)
(-0.0016663254 0.0014297716 2.8499536e-21)
(-0.0015581831 0.0013277662 3.3518287e-21)
(-0.0015089029 0.0012712432 7.1855975e-21)
(-0.0014562288 0.0012124813 -1.9177124e-21)
(-0.0014367723 0.0011832944 -2.5468624e-21)
(-0.0014198484 0.0011573347 -3.5290337e-21)
(-0.0014287709 0.0011536576 1.7187009e-21)
(-0.0014458033 0.001157263 7.4312934e-22)
(-0.0014856147 0.0011798597 3.7733159e-21)
(-0.0015379204 0.001212859 -6.1310712e-21)
(-0.001610936 0.0012627142 -3.8373727e-21)
(-0.0016982544 0.0013242235 -7.3062328e-22)
(-0.0018036328 0.0014003748 -1.4745226e-21)
(-0.0019204015 0.0014860013 -4.3450138e-23)
(-0.0020460647 0.0015793648 4.806306e-21)
(-0.0021659349 0.0016670296 3.7811819e-21)
(-0.0022828128 0.0017469498 1.5334263e-22)
(-0.0023981299 0.0018189913 2.2093927e-21)
(-0.0025099614 0.0018808042 1.7260113e-22)
(-0.002617561 0.0019309643 6.4079376e-25)
(-0.0027178768 0.0019665567 -1.5060178e-21)
(-0.0028095998 0.001986037 -5.4570993e-22)
(-0.0028886745 0.0019860046 -6.0899203e-22)
(-0.0029545493 0.0019660202 1.7023446e-21)
(-0.0030021427 0.0019227975 -1.1399771e-20)
(-0.0030361973 0.0018599136 4.0772397e-21)
(-0.003053453 0.0017758867 -3.3149055e-21)
(-0.0030752866 0.0016849825 -3.7116123e-22)
(-0.0030942347 0.0015878641 -3.3942822e-21)
(-0.0031068799 0.0014844443 2.4133038e-21)
(-0.0031010814 0.001369967 -1.2971309e-20)
(-0.0030878164 0.0012509867 -9.152668e-22)
(-0.0030435948 0.0011196103 2.9472062e-21)
(-0.0029975269 0.00098920524 -7.9588463e-22)
(-0.0029036618 0.00084652303 7.8046543e-21)
(-0.0028224144 0.00071280326 -7.0651773e-21)
(-0.0026731494 0.00056944368 4.9235596e-21)
(-0.0025823277 0.0004470462 -1.0978306e-21)
(-0.0024126497 0.00032051989 6.2590278e-23)
(-0.002415559 0.00022321596 2.3202014e-23)
(-0.0023498534 0.00012268948 -1.000172e-21)
(-0.0028212286 3.9271141e-05 2.2423941e-22)
(-0.003732568 7.1025195e-06 -4.9563884e-25)
(-0.0043504509 5.8935569e-06 -8.5540243e-27)
(-0.0049695321 5.2612946e-06 -1.6927431e-25)
(-0.0054739883 4.7689284e-06 5.65452e-25)
(-0.0059684034 4.2943658e-06 -3.4807528e-25)
(-0.0063841812 3.9120053e-06 1.2035611e-25)
(-0.0067853152 3.5528043e-06 1.1483624e-25)
(-0.0071321719 3.2641103e-06 1.0093362e-25)
(-0.0074642608 2.995439e-06 -3.8923091e-25)
(-0.0077583862 2.7766015e-06 1.4740759e-25)
(-0.0080390105 2.5737045e-06 6.6708047e-26)
(-0.0082924929 2.4047245e-06 3.3847664e-26)
(-0.0085339024 2.2463237e-06 -3.3406599e-25)
(-0.0087549933 2.1075295e-06 1.6928679e-25)
(-0.0089646038 1.9718012e-06 -3.3368264e-26)
(-0.0091572989 1.8470223e-06 6.7701239e-27)
(-0.0093398106 1.7309899e-06 1.2611731e-25)
(-0.0095088097 1.6299866e-06 1.1566964e-26)
(-0.0096683796 1.5329346e-06 -3.9501025e-26)
(-0.0098167545 1.4424894e-06 -9.5550349e-26)
(-0.009956299 1.3549347e-06 -1.5621759e-25)
(-0.010086007 1.2712609e-06 -2.2126609e-25)
(-0.010207325 1.1893928e-06 -2.9048792e-25)
(-0.010319641 1.1101753e-06 6.6915783e-25)
(-0.010423922 1.032451e-06 1.4512135e-25)
(-0.010519793 9.5665463e-07 1.1904466e-24)
(-0.010607973 8.800602e-07 -1.8957381e-24)
(-0.010687831 8.040922e-07 1.389358e-24)
(-0.010760334 7.3695023e-07 -3.6995678e-25)
(-0.010824262 6.866949e-07 -1.4513394e-24)
(-0.010885311 6.3590937e-07 -6.26692e-25)
(-0.010939618 5.7480829e-07 6.0156136e-25)
(-0.010987549 5.078627e-07 3.8287352e-25)
(-0.011027681 4.3623939e-07 1.1595611e-24)
(-0.011061861 3.7396261e-07 9.4730098e-25)
(-0.01108946 3.2127794e-07 -2.8208669e-24)
(-0.011111773 2.7399234e-07 9.4711558e-25)
(-0.011129678 2.356387e-07 6.1405538e-25)
(-0.011144044 2.1002384e-07 1.6535814e-24)
(-0.011156798 1.9932368e-07 -3.5712368e-24)
(-0.011169112 2.048823e-07 1.733765e-24)
(-0.011183391 2.0359213e-07 7.9057934e-25)
(-0.011196038 1.60361e-07 1.4604521e-24)
(-0.011202209 2.3208455e-09 -3.7428545e-24)
(-0.011181054 -1.5859951e-07 8.3983957e-25)
(-0.01115291 -2.3803686e-07 2.4189516e-25)
(-0.011115861 -3.0856422e-07 3.0862863e-24)
(-0.011073178 -3.6383223e-07 -2.6381218e-24)
(-0.011024949 -4.1483889e-07 1.0695067e-24)
(-0.010971893 -4.6317141e-07 -9.9887973e-27)
(-0.010914002 -5.0934624e-07 -3.4165945e-24)
(-0.010851657 -5.5394371e-07 6.5237923e-25)
(-0.010784885 -5.9708156e-07 7.6450974e-25)
(-0.010713953 -6.3886809e-07 4.8007807e-25)
(-0.010638926 -6.7919721e-07 1.3007273e-24)
(-0.010560022 -7.1823263e-07 1.2032447e-25)
(-0.010477331 -7.5587945e-07 -7.2181909e-25)
(-0.010391045 -7.9236936e-07 4.1818428e-25)
(-0.010301269 -8.2741212e-07 -6.056846e-25)
(-0.010208176 -8.6131069e-07 2.596871e-25)
(-0.010111886 -8.9382395e-07 -4.0392167e-25)
(-0.010012564 -9.2485855e-07 9.0222625e-25)
(-0.0099103352 -9.5447588e-07 -1.6797003e-24)
(-0.0098053556 -9.8279404e-07 -3.6858641e-25)
(-0.0096977489 -1.0098104e-06 6.6298823e-25)
(-0.0095876629 -1.0356002e-06 1.2633642e-24)
(-0.0094752246 -1.0600823e-06 -1.680434e-25)
(-0.009360576 -1.0833207e-06 -3.6910121e-25)
(-0.0092438432 -1.1051078e-06 -6.9314349e-25)
(-0.0091251617 -1.1257795e-06 6.3931537e-25)
(-0.0090046617 -1.1450285e-06 -1.5557313e-25)
(-0.0088824713 -1.1631482e-06 -1.2527068e-26)
(-0.0087587132 -1.1799717e-06 -7.9386671e-26)
(-0.0086335002 -1.1958952e-06 1.0686037e-26)
(-0.0085069524 -1.2106358e-06 3.7752025e-25)
(-0.0083791807 -1.2242209e-06 -6.8613628e-25)
(-0.0082503015 -1.2365517e-06 -1.1328911e-25)
(-0.0081204202 -1.2480764e-06 -4.7208832e-25)
(-0.007989646 -1.2583086e-06 1.3908966e-24)
(-0.0078580861 -1.2675312e-06 1.1762211e-24)
(-0.0077258424 -1.2755927e-06 -2.1581507e-25)
(-0.0075930197 -1.2826934e-06 -2.9515506e-24)
(-0.0074597133 -1.2886911e-06 -1.7570665e-24)
(-0.0073260274 -1.2937424e-06 2.5768675e-24)
(-0.0071920515 -1.2978637e-06 3.9875838e-24)
(-0.0070578828 -1.3012335e-06 -6.7447065e-24)
(-0.0069236061 -1.3035527e-06 1.6663324e-24)
(-0.0067893109 -1.3050935e-06 -1.507564e-25)
(-0.0066550833 -1.3056454e-06 3.3369905e-24)
(-0.0065209997 -1.3054849e-06 -2.4481658e-24)
(-0.0063871522 -1.3044214e-06 1.2051888e-24)
(-0.0062535966 -1.3026645e-06 1.6925483e-24)
(-0.0061204342 -1.3002401e-06 3.7174e-24)
(-0.0059876963 -1.297077e-06 -9.3179002e-24)
(-0.0058554965 -1.2932169e-06 3.7384797e-24)
(-0.0057238459 -1.2888215e-06 -1.3946929e-25)
(-0.0055928653 -1.28375e-06 -5.6973944e-24)
(-0.005462547 -1.2781073e-06 -2.0499132e-25)
(-0.0053330176 -1.2717976e-06 1.0245067e-23)
(-0.0052042532 -1.2646897e-06 3.1013387e-24)
(-0.0050764025 -1.2565644e-06 -7.3019274e-24)
(-0.0049494289 -1.2479518e-06 9.1703375e-24)
(-0.0048235095 -1.2387723e-06 1.2417558e-24)
(-0.0046985663 -1.2291674e-06 -8.1581102e-24)
(-0.0045748006 -1.2193357e-06 1.4474963e-23)
(-0.0044520728 -1.209072e-06 -1.0675936e-23)
(-0.0043306438 -1.1980008e-06 1.4188112e-24)
(-0.0042103 -1.1868484e-06 1.9815017e-24)
(-0.0040913997 -1.1749883e-06 -1.0153711e-23)
(-0.0039736187 -1.1631666e-06 1.1325456e-23)
(-0.0038574443 -1.1505505e-06 2.2218929e-24)
(-0.0037423913 -1.1385232e-06 -5.7775853e-24)
(-0.0036291184 -1.1253674e-06 -5.8678754e-24)
(-0.0035169292 -1.1127928e-06 -1.135751e-23)
(-0.0034067265 -1.0984997e-06 2.0666565e-23)
(-0.0032975294 -1.0851285e-06 1.4403551e-23)
(-0.0031905939 -1.0695267e-06 -3.120735e-23)
(-0.0030845437 -1.055302e-06 3.1105471e-23)
(-0.0029810965 -1.0381111e-06 -9.2686343e-24)
(-0.0028783527 -1.0228186e-06 -1.4441468e-23)
(-0.00277864 -1.0035085e-06 -1.1915677e-23)
(-0.0026793905 -9.8664486e-07 -4.7439107e-25)
(-0.0025837485 -9.6504216e-07 2.6979035e-23)
(-0.0024882235 -9.4665896e-07 -1.999213e-23)
(-0.0023970783 -9.2211297e-07 1.2582093e-23)
(-0.0023055969 -9.0171135e-07 -2.0094907e-23)
(-0.0022195289 -8.7378263e-07 2.2371978e-23)
(-0.0021325278 -8.5183817e-07 -1.2366715e-23)
(-0.0020523196 -8.2023943e-07 7.3817327e-24)
(-0.0019703828 -7.9638029e-07 2.4818263e-24)
(-0.0018970663 -7.5903144e-07 -1.2584294e-23)
(-0.0018209887 -7.3138217e-07 1.3092327e-23)
(-0.0017559901 -6.8536604e-07 -1.8274947e-25)
(-0.0016869167 -6.5181603e-07 5.0923799e-24)
(-0.0016322251 -5.933491e-07 -2.3805984e-23)
(-0.0015718551 -5.5149315e-07 1.6095142e-23)
(-0.0015302186 -4.7652203e-07 5.1545636e-24)
(-0.0014809836 -4.2394308e-07 -2.4162794e-23)
(-0.0014560626 -3.2638242e-07 2.3808359e-23)
(-0.0014214105 -2.5971705e-07 1.6500565e-23)
(-0.0014178408 -1.3256198e-07 -2.442349e-23)
(-0.0014023746 -5.2768853e-08 1.9253319e-23)
(-0.0014250201 8.5971653e-08 -2.7318139e-23)
(-0.0014292995 1.0466537e-07 -2.9029602e-23)
(-0.0014676524 -1.6651113e-05 4.1179563e-20)
(-0.001497322 -7.691276e-05 1.7931376e-20)
(-0.0015069906 -0.00013916709 8.6725757e-21)
(-0.0015246433 -0.0002030204 5.7565862e-19)
(-0.0014998856 -0.00026028472 2.8762931e-19)
(-0.00148115 -0.00031630703 1.3237749e-18)
(-0.0014237098 -0.00036027566 1.1702897e-18)
(-0.00136793 -0.00039958093 -3.0431381e-19)
(-0.0012791065 -0.00042284449 -3.7868899e-19)
(-0.0011871952 -0.00043752463 8.3638044e-20)
(-0.0010668506 -0.00043301734 -2.7079337e-19)
(-0.00093894626 -0.00041569134 2.1725424e-19)
(-0.00078519054 -0.0003760943 -2.41943e-19)
(-0.00061924971 -0.00031886666 -1.0752092e-19)
(-0.00042701247 -0.00023521672 -7.8693815e-19)
(-0.00021593136 -0.00012712509 1.8438117e-18)
(2.911082e-05 1.6030166e-05 7.0015123e-19)
(0.00029517827 0.00018688668 4.5483585e-20)
(0.0005923631 0.00039163635 -4.8127632e-19)
(0.00091197861 0.00062396081 -5.6555396e-19)
(0.0012620822 0.00088855963 1.2022795e-18)
(0.0016359111 0.0011794604 -2.1771586e-18)
(0.0020399119 0.0014999055 4.8550172e-19)
(0.0024672764 0.0018430097 -2.4077979e-19)
(0.0029222494 0.0022099039 3.9442598e-19)
(0.0033961936 0.0025915289 -8.987261e-19)
(0.0038895137 0.0029853465 -2.5553073e-19)
(0.0043833892 0.0033746042 -5.7904883e-19)
(0.0048574264 0.0037491847 3.6833375e-19)
(0.0053202895 0.0041208262 -7.9839417e-19)
(0.0057774155 0.0044948521 -4.3673586e-19)
(0.0062224069 0.0048670609 -7.8269336e-19)
(0.0066675886 0.0052483905 3.9044563e-20)
(0.0070356244 0.0055783848 9.4094636e-19)
(0.0074297482 0.005938196 -3.6291254e-19)
(0.007866169 0.006342918 4.2348998e-19)
(0.0083545191 0.0068016463 -2.6994482e-19)
(0.0089066047 0.0073267814 -1.3166289e-18)
(0.0095189165 0.0079177454 2.4494741e-19)
(0.010234739 0.0086137663 1.4829114e-19)
(0.011085661 0.0094378003 1.2466999e-18)
(0.012217086 0.010472518 -2.1727223e-19)
(0.013485034 0.011561161 2.2324295e-19)
(0.015027401 0.012804 -3.7512296e-20)
(0.016719506 0.014060464 -1.3332849e-19)
(0.018808877 0.015503701 -3.6021206e-19)
(0.021100909 0.016910685 5.034578e-20)
(0.02403567 0.018570337 -6.535534e-20)
(0.027280297 0.020099813 7.5022447e-20)
(0.031617085 0.021924557 7.1503669e-21)
(0.036321583 0.02328558 -1.5666097e-19)
(0.042326822 0.024537447 2.4368936e-19)
(0.047865154 0.024299741 9.4399491e-20)
(0.053565059 0.022763723 5.1153041e-19)
(0.054308642 0.018200338 -2.637735e-19)
(0.051811811 0.013078617 2.6557983e-19)
(0.044720231 0.0080411014 -1.240841e-19)
(0.03826269 0.0045425987 -3.6040641e-19)
(0.02840844 0.0019742938 -9.1635294e-20)
(0.023833821 0.00077493741 8.6444652e-21)
(0.014964917 0.00012453938 2.9638766e-20)
(0.01562681 -7.0148681e-05 5.6031312e-21)
(0.0080963082 -3.5260437e-05 6.6585205e-21)
(0.027479943 8.5369504e-05 1.3449283e-21)
(0.021612863 7.1162617e-05 -1.254235e-21)
(0.034217511 -0.00024089352 -4.2757315e-22)
(0.027448732 -0.00082532985 -1.7560537e-20)
(0.029977285 -0.0019775995 5.1654988e-20)
(0.017921106 -0.0019968884 -4.0152002e-20)
(0.011829224 -0.0020031918 2.4929284e-20)
(-0.0020053983 0.00062120897 -1.0132483e-19)
(-0.0072376613 0.0024789111 5.1469186e-20)
(-0.011382534 0.0048579115 1.3396572e-21)
(-0.0095773318 0.0048528433 1.4397243e-20)
(-0.0085173554 0.0049278669 -1.7854376e-20)
(-0.0063512731 0.0040600176 -7.6780075e-20)
(-0.0055911746 0.0038735748 2.3209143e-20)
(-0.0045836764 0.00337479 3.4698917e-20)
(-0.0042973989 0.0033215471 -3.9859957e-21)
(-0.003780073 0.0030302333 3.5012648e-21)
(-0.0036410634 0.0030036609 6.8744861e-21)
(-0.003331412 0.0028030226 1.8953492e-20)
(-0.0031899118 0.0027197761 -1.0070614e-20)
(-0.0029527745 0.002532712 -9.6577976e-21)
(-0.0028125892 0.0024122818 -1.625188e-21)
(-0.0026318938 0.0022419217 3.8902434e-21)
(-0.0025490658 0.0021469523 -7.9497018e-21)
(-0.0024613035 0.0020488793 2.0958986e-22)
(-0.0024289572 0.0020000973 -3.035857e-21)
(-0.0024013029 0.0019571561 2.6717062e-21)
(-0.0024168352 0.0019514314 1.6304957e-21)
(-0.002446262 0.0019582063 8.2290092e-23)
(-0.0025137918 0.0019967541 1.7922757e-21)
(-0.0026024434 0.0020529198 -6.9566265e-22)
(-0.0027257327 0.0021372896 -6.4279627e-22)
(-0.0028730446 0.0022412606 -2.5787683e-21)
(-0.0030504826 0.0023696589 1.0593673e-22)
(-0.0032469233 0.0025138618 -5.9016588e-21)
(-0.0034581318 0.0026708157 -4.3251395e-21)
(-0.0036597604 0.0028182419 -8.6288733e-22)
(-0.0038563094 0.0029525972 2.2833842e-22)
(-0.0040501778 0.0030736006 3.0986374e-22)
(-0.0042381798 0.0031773443 -7.6834273e-22)
(-0.0044190069 0.0032614066 5.1723586e-24)
(-0.0045877014 0.0033209273 2.3948244e-21)
(-0.0047420464 0.0033533326 2.4195888e-21)
(-0.0048752734 0.0033529597 1.3951922e-23)
(-0.0049865092 0.0033190431 -1.3688616e-20)
(-0.005067387 0.0032462135 5.7715465e-21)
(-0.0051257283 0.0031403415 7.9252583e-21)
(-0.0051562844 0.0029991925 7.3183648e-21)
(-0.0051945897 0.0028464284 1.2218735e-21)
(-0.0052283358 0.0026831638 -3.3504106e-21)
(-0.0052516261 0.0025091102 1.2682749e-20)
(-0.0052445857 0.0023166194 3.4183223e-21)
(-0.005225019 0.0021162532 1.5975712e-21)
(-0.0051544403 0.0018952896 1.4477587e-20)
(-0.0050807231 0.0016754994 -8.4849077e-21)
(-0.004928757 0.0014355256 -9.3270928e-21)
(-0.0047973456 0.0012098179 2.5729972e-21)
(-0.0045545319 0.00096846054 -2.8853297e-21)
(-0.0044076905 0.00076118771 2.2456363e-21)
(-0.0041341167 0.00054801788 3.1004531e-21)
(-0.004145909 0.00038265814 2.6276856e-23)
(-0.0040542844 0.00021406324 6.1843782e-23)
(-0.0048502046 7.5720466e-05 -3.2321392e-22)
(-0.0063662175 2.1295823e-05 4.8425045e-25)
(-0.007402991 1.7490881e-05 -2.1747797e-27)
(-0.0084375888 1.5711255e-05 -1.3458763e-25)
(-0.009282548 1.410366e-05 3.7061831e-25)
(-0.010107859 1.273918e-05 -1.6030817e-25)
(-0.010803436 1.1515891e-05 -1.7373634e-25)
(-0.011472992 1.0474111e-05 3.6715982e-25)
(-0.012052829 9.5570854e-06 -1.850482e-25)
(-0.012607014 8.7699276e-06 -1.7192741e-25)
(-0.013098389 8.0793768e-06 -1.4693735e-25)
(-0.013566593 7.4792837e-06 9.4306401e-26)
(-0.013989823 6.9484313e-06 2.3714581e-26)
(-0.014392484 6.4753698e-06 3.1653495e-26)
(-0.014761417 6.0416643e-06 -8.9538509e-26)
(-0.015110914 5.6337199e-06 -2.0383799e-26)
(-0.015432349 5.2580268e-06 2.1825921e-26)
(-0.015736695 4.9139115e-06 -8.8397557e-26)
(-0.016018242 4.5962285e-06 6.3474802e-26)
(-0.016283862 4.3010948e-06 3.9698433e-25)
(-0.016530815 4.0232482e-06 -2.7920765e-25)
(-0.016762909 3.7580799e-06 -1.4680532e-25)
(-0.016978553 3.5035218e-06 7.7110211e-25)
(-0.01718009 3.2568532e-06 -5.8173342e-25)
(-0.017366558 3.0181355e-06 4.0199787e-25)
(-0.017539525 2.7854308e-06 -2.7064828e-25)
(-0.017698413 2.5590108e-06 -1.491087e-25)
(-0.017844403 2.3321984e-06 5.5758184e-25)
(-0.017976525 2.1070388e-06 6.7434575e-25)
(-0.018096128 1.888397e-06 -2.4845902e-24)
(-0.018200818 1.7326706e-06 1.925778e-24)
(-0.018301242 1.5954139e-06 -5.3783139e-25)
(-0.018390544 1.415827e-06 -1.8477471e-24)
(-0.01846912 1.2196289e-06 7.9231072e-25)
(-0.018534785 1.0245077e-06 2.7109447e-24)
(-0.018590719 8.4477849e-07 -4.9824583e-25)
(-0.018635167 6.7907331e-07 -7.7693466e-25)
(-0.018670738 5.4080094e-07 -6.7616154e-25)
(-0.018698987 4.3043889e-07 -7.6238136e-25)
(-0.018721344 3.5801062e-07 1.5794583e-24)
(-0.018740994 3.3017959e-07 -8.0578759e-25)
(-0.018759964 3.5169392e-07 -1.1571556e-24)
(-0.018782309 3.5667737e-07 1.8389736e-24)
(-0.018802464 2.3757968e-07 -9.5451284e-25)
(-0.018812145 -2.324358e-07 -1.0475386e-24)
(-0.018775159 -7.0792927e-07 1.0308903e-24)
(-0.018726154 -9.3468309e-07 1.7847445e-24)
(-0.018662389 -1.1373846e-06 2.2721782e-25)
(-0.01858919 -1.2945841e-06 -1.5119173e-24)
(-0.018506741 -1.4391301e-06 -1.2650534e-24)
(-0.018416215 -1.5744249e-06 4.1592429e-24)
(-0.018317619 -1.7039492e-06 -6.5818333e-24)
(-0.018211577 -1.8283705e-06 5.5896481e-24)
(-0.01809814 -1.9481148e-06 -4.7751967e-24)
(-0.017977752 -2.0636638e-06 1.8848975e-24)
(-0.017850526 -2.1746811e-06 8.9142447e-25)
(-0.017716824 -2.2820585e-06 2.2888797e-25)
(-0.0175768 -2.3849794e-06 -1.6564149e-24)
(-0.017430771 -2.4841252e-06 1.0263188e-24)