/*--------------------------------*- C++ -*----------------------------------*\
| =========                 |                                                 |
| \\      /  F ield         | OpenFOAM: The Open Source CFD Toolbox           |
|  \\    /   O peration     | Version:  2.4.0                                 |
|   \\  /    A nd           | Web:      www.OpenFOAM.org                      |
|    \\/     M anipulation  |                                                 |
\*---------------------------------------------------------------------------*/
FoamFile
{
    version     2.0;
    format      ascii;
    class       volScalarField;
    location    "190";
    object      omega;
}
// * * * * * * * * * * * * * * * * * * * * * * * * * * * * * * * * * * * * * //

dimensions      [0 0 -1 0 0 0 0];

internalField   nonuniform List<scalar> 
78300
(
288636.63
288686.54
288700.32
288833.65
289515.6
291432.02
295479.08
302673.01
314010.37
329813.04
346787.82
362441.63
375829.98
386411.76
393919.79
398343.7
399991.89
399060.36
395721.33
390174.45
382632.29
373308
362413.46
350675.33
339521.98
329123.31
319421.78
310364.21
301901.89
293992.53
286594.56
279672.29
273192.3
267123.9
261439.18
256109.32
250877.53
245350.68
239525.68
233441.11
227134.93
220644.17
214005.21
207254.37
200428.97
193566.99
186709.47
179903.22
173262.16
167044.3
161298.04
156019.07
151204.62
146855.25
142973.85
139564.67
136634.53
134192.24
132247.52
130811.23
129895.27
129511.99
129657.27
129783.85
129783.85
129783.85
129783.85
129783.85
129783.85
129783.85
129783.85
129783.85
129783.85
129783.85
129783.85
129783.85
129783.85
129783.85
129783.85
129783.85
129783.85
129783.85
129783.85
129783.85
129783.85
129783.85
129783.85
129783.85
129783.85
129783.85
129783.85
129783.85
129783.85
129783.85
129783.85
129783.85
129783.85
129783.85
129783.85
129783.85
129783.85
129783.85
129783.85
129783.85
129783.85
129783.85
129783.85
129783.85
129783.85
129783.85
129783.85
129783.85
129783.85
129783.85
129783.85
129783.85
129783.85
129783.85
129783.85
129783.85
129783.85
129783.85
129783.84
129783.85
129783.85
129783.85
129783.85
129783.84
129783.85
129783.85
129783.85
129783.85
129783.85
129783.85
129783.85
129783.85
129783.84
129783.85
129783.85
129783.84
129783.85
129783.85
129783.85
129783.85
129783.85
129783.84
129783.85
129783.85
129783.85
129783.85
129783.85
129783.85
129783.85
129783.85
129783.84
129783.85
129783.85
129783.85
129783.84
129783.85
129783.85
129783.84
129783.85
129783.85
129783.84
129783.85
129783.85
129783.84
129783.85
129783.85
129783.85
129783.85
129783.85
129783.85
129783.85
129783.84
129783.85
129783.85
129783.85
129783.85
129783.85
129783.85
129783.85
129783.85
129783.85
129783.85
129783.85
129783.85
129783.85
129783.85
129783.85
129783.85
129783.85
129783.85
129783.84
129783.85
129783.85
129783.84
129783.85
129783.85
129783.85
129783.85
129783.85
129783.84
129783.85
129783.85
129783.84
129657.28
129512.01
129895.29
130811.3
132247.51
134192.34
136634.64
139564.65
142973.98
146855.32
151204.67
156018.82
161297.58
167043.87
173262.26
179902.7
186708.68
193567.05
200429.57
207253.32
214004.05
220644.49
227134.65
233439.26
239524.1
245352.66
250877.67
256108.08
261440.19
267124.37
273191.43
279670.54
286594.56
293991.4
301901.42
310366.52
319421.34
329122.77
339524.25
350675.48
362412.53
373310.22
382630.09
390168.82
395719.59
399058.71
399989.89
398342.36
393921.49
386411.41
375828.68
362441.02
346789.97
329814.86
314010.09
302672.88
295478.99
291431.81
289515.62
288834.57
288701.21
288686.52
288636.62
40610.177
48836.454
40610.98
48855.127
56433.911
49320.609
49992.577
51206.697
53120.489
53539.079
56294.752
58837.503
61013.108
62733.498
63954.995
64675.636
64945.516
64796.432
64256.407
63357.792
62135.114
60622.962
58855.486
56949.959
55138.593
53449.697
51874.053
50403.003
49028.681
47744.136
46542.665
45418.358
44365.868
43380.165
42456.764
41591.129
40741.865
39844.945
38899.661
37912.321
36889.102
35836.093
34759.334
33665.046
32560.054
31452.671
30321.097
25596.776
33364.138
32129.119
23023.204
29939.859
25591.6
24854.866
24197.835
23620.725
23124.717
22711.284
22382.079
22138.962
21983.942
21919.106
21942.625
21962.351
21964.14
24610.694
24704.692
24741.358
24751.793
24759.617
24762.864
24765.464
24756.169
18655.143
24767.406
24769.473
24769.624
24769.711
24769.59
24769.403
24769.066
24768.655
24768.115
24767.481
24766.696
24765.558
24750.467
18650.647
18650.944
18652.359
18654.07
18655.967
18658.178
18660.703
18663.65
18667.095
18671.207
18676.245
18683.273
18712.498
24715.741
24702.207
24676.351
24546.98
21962.243
21961.618
21961.617
21961.615
21961.614
21961.612
21961.611
21961.61
21961.608
21961.607
21961.605
21961.604
21961.602
21961.601
21961.599
21961.598
21961.596
21961.594
21961.593
21961.591
21961.59
21961.588
21961.587
21961.585
21961.584
21961.582
21961.581
21961.58
21961.578
21961.577
21961.575
21961.574
21961.573
21961.572
21961.571
21961.569
21961.568
21961.567
21961.566
21961.565
21961.564
21961.563
21961.562
21961.561
21961.56
21961.56
21961.559
21961.558
21961.558
21961.557
21961.556
21961.556
21961.555
21961.555
21961.554
21961.554
21961.553
21961.553
21961.553
21961.553
21961.552
21961.552
21961.552
21961.551
21961.552
21961.552
21961.551
21961.551
21961.551
21961.551
21961.551
21961.551
21961.551
21961.551
21961.552
21961.552
21961.552
21961.552
21961.552
21961.552
21961.553
21961.553
21961.553
21961.553
21961.554
21961.554
21961.554
21961.555
21961.556
21961.556
21961.557
21961.558
21961.558
21961.559
21961.561
21961.562
21961.563
21961.565
21961.567
21961.569
21961.574
21961.581
21962.087
21942.399
21919.056
21983.959
22138.989
22382.098
22711.307
23124.741
23620.733
24197.882
24854.898
25591.13
26406.052
27299.587
28272.247
29324.769
30448.54
31600.082
32760.333
33921.292
35075.777
36217.749
37341.015
38438.825
39505.248
40534.388
41519.971
42454.401
43339.365
44241.766
45203.79
46230.696
47327.566
48499.553
49751.43
51090.17
52522.865
54055.442
55697.5
57458.103
59345.26
61329.471
73183.37
53526.315
76520.026
55319.266
78288.862
55906.488
78120.167
77326.665
62766.376
61014.526
58838.754
56296.807
53541.248
50978.937
49143.229
47982.345
47363.625
40722.84
56273.359
40648.608
40601.738
48831.286
11038.914
16128.275
11036.344
16132.245
22839.305
16321.251
16530.482
16930.961
17562.832
17956.45
18879.572
19732.865
20463.196
21041.022
21451.492
21693.936
21785.111
21735.725
21555.17
21254.278
20844.64
20337.873
19745.34
19106.217
18498.46
17931.763
17403.053
16909.445
16448.292
16017.26
15614.112
15236.867
14883.717
14552.98
14243.147
13952.739
13667.898
13367.114
13050.11
12718.979
12375.788
12022.558
11661.308
11294.09
10923.097
10550.784
10146.276
7233.8277
13010.597
12444.814
6562.8057
11555.865
8457.6487
8219.818
8002.4992
7811.5988
7647.5254
7510.7702
7401.8772
7321.475
7270.2208
7248.8352
7256.4441
7262.5552
7265.144
9285.8355
9361.8298
9391.0048
9399.3107
9405.5303
9408.1073
9410.1416
9396.2836
5426.7502
9409.1277
9413.3372
9413.4544
9413.5204
9413.42
9413.2679
9412.9962
9412.6666
9412.233
9411.7253
9411.0966
9410.1394
9388.8291
5419.3549
5417.9849
5418.715
5419.5971
5420.575
5421.7139
5423.0147
5424.5325
5426.3073
5428.4253
5431.0211
5434.6806
5457.1236
9368.5825
9359.6572
9338.9495
9231.253
7263.2165
7262.0643
7262.0609
7262.0577
7262.0547
7262.0515
7262.0483
7262.0448
7262.0414
7262.0379
7262.0343
7262.0305
7262.0267
7262.023
7262.0191
7262.0153
7262.0112
7262.0073
7262.0033
7261.9995
7261.9955
7261.9916
7261.9876
7261.9837
7261.9799
7261.976
7261.9723
7261.9686
7261.9648
7261.9613
7261.9576
7261.9542
7261.9506
7261.9473
7261.944
7261.9407
7261.9376
7261.9345
7261.9315
7261.9286
7261.9259
7261.9231
7261.9206
7261.9179
7261.9155
7261.9132
7261.911
7261.9089
7261.9068
7261.9049
7261.9029
7261.9013
7261.8996
7261.898
7261.8964
7261.8951
7261.8936
7261.8923
7261.8913
7261.8902
7261.8891
7261.8882
7261.8874
7261.8865
7261.886
7261.8853
7261.8846
7261.8841
7261.8838
7261.8833
7261.8831
7261.8829
7261.8829
7261.8827
7261.8827
7261.8827
7261.8829
7261.8832
7261.8833
7261.8837
7261.8839
7261.8844
7261.8848
7261.8853
7261.8859
7261.8865
7261.8873
7261.8883
7261.8893
7261.8905
7261.8916
7261.8931
7261.8946
7261.8965
7261.8987
7261.9011
7261.9037
7261.907
7261.9105
7261.9153
7261.9209
7261.9282
7262.2289
7256.1682
7248.7618
7270.2333
7321.5035
7401.9147
7510.8043
7647.5532
7811.6129
8002.5192
8219.8417
8463.3647
8732.9092
9028.4565
9350.1673
9698.2842
10069.912
10450.667
10834.277
11218.098
11599.788
11977.332
12348.672
12711.587
13064.113
13404.287
13730.066
14038.96
14331.542
14629.978
14948.178
15287.815
15650.603
16038.239
16452.302
16895.081
17368.938
17875.847
18418.914
19001.22
19625.093
20248.424
30196.276
14269.155
31571.389
14714.747
32340.214
14865.187
32161.25
32077.467
21124.306
20465.507
19734.562
18882.096
17958.907
17101.13
16486.599
16097.12
15905.127
11066.369
22722.074
11071.82
11022.949
16129.946
4110.5361
7413.7324
4108.7193
7414.2585
12856.122
7538.4593
7621.4057
7805.306
8095.2862
8338.9075
8766.8725
9163.2464
9502.6128
9771.3193
9962.2596
10075.154
10117.756
10095.075
10011.45
9871.9365
9681.9016
9446.7433
9171.7237
8874.9422
8592.6287
8329.3746
8083.7628
7854.4597
7640.2304
7439.9964
7252.7143
7077.4688
6913.4158
6759.7766
6615.8461
6480.9484
6348.6724
6209.0178
6061.8307
5908.0766
5748.7103
5584.6701
5416.8921
5246.3166
5073.9391
4900.7254
4695.9629
2886.07
6923.9436
6550.1912
2653.9624
6058.9632
3893.9242
3789.4692
3689.2729
3601.2513
3525.5976
3462.5451
3412.3401
3375.288
3351.683
3341.9009
3345.4448
3348.1091
3351.1482
4737.8929
4792.4418
4813.056
4818.9202
4823.306
4825.1174
4826.5116
4810.4134
2265.3325
4824.0331
4828.7778
4828.8582
4828.9012
4828.8267
4828.7161
4828.5209
4828.2849
4827.9753
4827.6132
4827.1647
4826.4238
4802.5154
2257.212
2255.5152
2255.9183
2256.4049
2256.9438
2257.5709
2258.2865
2259.1212
2260.0968
2261.2608
2262.6878
2264.7344
2282.9763
4795.6959
4790.6676
4775.8732
4695.0178
3348.9867
3347.7613
3347.7555
3347.7502
3347.7448
3347.7392
3347.7334
3347.7274
3347.7211
3347.7147
3347.708
3347.7012
3347.6943
3347.6872
3347.6799
3347.6727
3347.6652
3347.6578
3347.6502
3347.6427
3347.6352
3347.6277
3347.62
3347.6125
3347.605
3347.5976
3347.5902
3347.5829
3347.5756
3347.5685
3347.5614
3347.5545
3347.5476
3347.5409
3347.5343
3347.5278
3347.5215
3347.5153
3347.5093
3347.5034
3347.4978
3347.4922
3347.4869
3347.4817
3347.4767
3347.4719
3347.4673
3347.4628
3347.4585
3347.4545
3347.4505
3347.4468
3347.4432
3347.4398
3347.4365
3347.4334
3347.4304
3347.4276
3347.4252
3347.4228
3347.4205
3347.4183
3347.4163
3347.4145
3347.4129
3347.4113
3347.4098
3347.4085
3347.4074
3347.4064
3347.4056
3347.4049
3347.4043
3347.4039
3347.4035
3347.4033
3347.4032
3347.4033
3347.4033
3347.4036
3347.4039
3347.4044
3347.4048
3347.4055
3347.4063
3347.4072
3347.4083
3347.4096
3347.4111
3347.4128
3347.4146
3347.4167
3347.4192
3347.4219
3347.4252
3347.4289
3347.433
3347.4379
3347.4433
3347.4501
3347.458
3347.4673
3347.6675
3345.0743
3341.7898
3351.6874
3375.3164
3412.3856
3462.5844
3525.6289
3601.2672
3689.2797
3789.4711
3901.7412
4026.0089
4162.2635
4310.5761
4471.0569
4642.3457
4817.8217
4994.6038
5171.4751
5347.368
5521.342
5692.452
5859.6819
6022.129
6178.875
6328.9799
6471.3079
6606.1564
6743.7482
6890.4691
7047.0762
7214.3428
7393.0601
7583.9608
7788.1051
8006.5808
8240.2886
8490.6588
8759.1085
9046.5352
9299.2497
17527.591
5123.7732
18304.097
5263.9396
18776.298
5317.9697
18554.598
18790.645
9889.942
9507.0526
9166.7181
8771.6284
8344.5021
7947.85
7663.3613
7482.1322
7406.7032
4120.7381
12728.956
4142.0398
4094.4437
7417.4699
1931.8711
4094.6361
1931.5417
4093.8926
8353.4853
4197.5437
4230.3628
4331.7228
4491.3048
4646.3213
4884.0673
5104.9343
5294.1146
5444.0893
5550.6712
5613.7587
5637.6403
5625.1527
5578.6819
5501.0745
5395.3046
5264.384
5111.2467
4945.9155
4788.5857
4641.8706
4504.9863
4377.1926
4257.7988
4146.2069
4041.8327
3944.1675
3852.7401
3767.1175
3686.9036
3611.7262
3538.0289
3460.2371
3378.246
3292.5914
3203.8076
3112.4135
3018.9306
2923.8778
2827.8032
2731.1034
2606.2883
1474.4189
4227.9956
3949.5455
1375.2963
3641.468
2156.8884
2102.5087
2046.9036
1998.0571
1956.0724
1921.0868
1893.2314
1872.6927
1859.6246
1854.2835
1856.3583
1857.7753
1860.913
2775.5944
2812.8577
2826.7153
2830.6506
2833.5908
2834.7995
2835.6921
2819.6115
1212.5332
2832.873
2837.234
2837.2877
2837.3149
2837.263
2837.1874
2837.0547
2836.8947
2836.6849
2836.4398
2836.1354
2835.567
2812.2051
1204.7038
1203.15
1203.3793
1203.6553
1203.9602
1204.3141
1204.7173
1205.1867
1205.7348
1206.3882
1207.1892
1208.37
1223.3831
2813.9997
2811.4606
2801.3539
2742.9122
1858.6536
1857.5603
1857.5517
1857.5435
1857.5351
1857.5263
1857.5171
1857.5075
1857.4976
1857.4872
1857.4766
1857.4657
1857.4544
1857.4429
1857.4312
1857.4193
1857.4073
1857.3951
1857.3828
1857.3705
1857.3581
1857.3457
1857.3332
1857.3208
1857.3085
1857.2962
1857.2839
1857.2718
1857.2598
1857.2479
1857.2362
1857.2246
1857.2131
1857.2019
1857.1909
1857.1801
1857.1695
1857.1591
1857.149
1857.1392
1857.1296
1857.1203
1857.1113
1857.1025
1857.094
1857.0859
1857.078
1857.0704
1857.0631
1857.0561
1857.0494
1857.043
1857.0368
1857.0309
1857.0252
1857.0199
1857.0147
1857.0099
1857.0055
1857.0014
1856.9973
1856.9935
1856.99
1856.9867
1856.9838
1856.9809
1856.9783
1856.9759
1856.9738
1856.9719
1856.9702
1856.9689
1856.9677
1856.9667
1856.9658
1856.9652
1856.9647
1856.9646
1856.9643
1856.9645
1856.9648
1856.9653
1856.9658
1856.9665
1856.9676
1856.9687
1856.9702
1856.9719
1856.974
1856.9762
1856.9789
1856.9817
1856.9851
1856.9889
1856.9935
1856.9985
1857.0044
1857.0109
1857.0185
1857.0276
1857.0379
1857.0497
1857.1989
1855.8768
1854.1224
1859.6107
1872.7122
1893.2736
1921.1212
1956.0968
1998.0597
2046.8887
2102.4745
2164.76
2233.7023
2309.2932
2391.5721
2480.599
2575.6063
2672.9224
2770.9578
2869.04
2966.5811
3063.0543
3157.939
3250.6737
3340.7573
3427.6824
3510.9231
3589.8604
3664.6751
3741.0339
3822.4668
3909.3802
4002.2082
4101.3845
4207.3176
4320.6048
4441.8466
4571.5342
4710.4663
4859.4293
5018.8454
5131.2767
11795.57
2295.5924
12290.918
2347.1901
12623.576
2373.6014
12371.41
12787.174
5584.8937
5301.2541
5110.9127
4891.9165
4655.8481
4436.6445
4278.9162
4177.3632
4146.1104
1938.5286
8211.6142
1963.6523
1917.5939
4099.3149
1111.7731
2533.7804
1112.3632
2531.2146
5778.5767
2626.7598
2634.4299
2696.7753
2794.7636
2898.6033
3046.1823
3183.9315
3301.9833
3395.7521
3462.3789
3501.8674
3516.86
3509.1735
3480.2615
3431.9331
3366.0236
3284.4203
3188.9629
3085.8557
2987.6982
2896.1593
2810.7532
2731.0203
2656.5283
2586.9052
2521.7856
2460.8531
2403.8121
2350.393
2300.3467
2253.4437
2207.4745
2158.9616
2107.8286
2054.4077
1999.0323
1942.0243
1883.7103
1824.4109
1764.4644
1704.003
1619.7943
910.95011
2755.9826
2543.3351
858.32163
2339.57
1339.822
1308.1002
1273.4887
1243.0904
1216.9606
1195.1934
1177.8642
1165.1074
1157.0091
1153.7791
1155.2138
1156.079
1159.0543
1747.095
1771.7596
1780.786
1783.3433
1785.2532
1786.0341
1786.5741
1772.0632
773.22196
1784.0235
1787.6106
1787.6481
1787.6672
1787.6345
1787.5867
1787.5014
1787.3984
1787.2626
1787.1035
1786.9044
1786.4645
1765.7038
766.20752
764.94123
765.07444
765.23386
765.40896
765.61099
765.84016
766.10601
766.41554
766.78379
767.23484
767.92923
780.21803
1771.8414
1770.7173
1763.9872
1722.6734
1156.8959
1156.0076
1155.9954
1155.9837
1155.9715
1155.9586
1155.9451
1155.931
1155.9164
1155.9012
1155.8855
1155.8694
1155.8528
1155.8358
1155.8185
1155.801
1155.7832
1155.7651
1155.7469
1155.7286
1155.7102
1155.6918
1155.6733
1155.6549
1155.6365
1155.6182
1155.6
1155.5819
1155.564
1155.5463
1155.5288
1155.5115
1155.4944
1155.4776
1155.4612
1155.445
1155.4292
1155.4137
1155.3986
1155.3838
1155.3695
1155.3555
1155.342
1155.3288
1155.3161
1155.3039
1155.292
1155.2806
1155.2695
1155.259
1155.2489
1155.2391
1155.2298
1155.2208
1155.2124
1155.2042
1155.1965
1155.1891
1155.1824
1155.176
1155.1699
1155.164
1155.1587
1155.1537
1155.1492
1155.1448
1155.1408
1155.1371
1155.1338
1155.1308
1155.1282
1155.126
1155.1241
1155.1224
1155.1209
1155.1199
1155.119
1155.1186
1155.1181
1155.1181
1155.1183
1155.1189
1155.1195
1155.1204
1155.1217
1155.1232
1155.1251
1155.1273
1155.1301
1155.133
1155.1366
1155.1403
1155.1449
1155.1498
1155.1559
1155.1624
1155.1701
1155.1786
1155.1886
1155.2001
1155.2133
1155.2278
1155.3484
1154.6043
1153.5521
1156.9622
1165.1047
1177.8901
1195.2096
1216.964
1243.066
1273.4395
1308.0166
1346.7606
1389.6457
1436.6656
1487.8449
1543.2202
1602.3042
1662.8152
1723.7719
1784.7565
1845.4052
1905.3902
1964.389
2022.0527
2078.0695
2132.1252
2183.8934
2232.996
2279.5604
2327.0998
2377.794
2431.8969
2489.6817
2551.4128
2617.3486
2687.8621
2763.3227
2844.0389
2930.5119
3023.2262
3122.4584
3172.8588
8447.6925
1261.8518
8776.2822
1284.5961
9021.5192
1302.3492
8759.706
9265.3335
3549.0994
3311.9888
3192.9124
3057.6606
2912.5023
2777.6715
2680.0573
2616.0603
2604.4439
1118.6726
5630.9957
1143.5302
1099.8279
2538.4771
757.73234
1693.3443
758.77202
1688.399
4112.1318
1780.2666
1772.666
1813.746
1878.2514
1950.8727
2049.4329
2142.0684
2221.5173
2284.8025
2329.747
2356.4271
2366.5834
2361.4879
2342.0822
2309.6202
2265.3161
2210.4473
2146.2661
2076.9068
2010.8482
1949.2418
1891.7617
1838.1013
1787.9684
1741.1136
1697.2898
1656.2854
1617.8999
1581.9522
1548.2729
1516.7077
1485.7767
1453.1423
1418.7439
1382.8038
1345.5469
1307.1876
1267.9477
1228.0402
1187.6906
1146.8996
1086.9392
644.98622
1861.6678
1700.294
609.94988
1562.064
898.96933
878.73029
855.46373
835.03645
817.47613
802.85431
791.21608
782.67011
777.26539
775.19437
776.32256
776.91395
779.56874
1150.494
1166.4711
1172.2284
1173.8559
1175.0728
1175.5685
1175.8782
1163.7076
553.00698
1173.837
1176.5868
1176.6168
1176.634
1176.6179
1176.5923
1176.5423
1176.4808
1176.3979
1176.2997
1176.1743
1175.8299
1158.6168
547.08798
546.12782
546.20675
546.29992
546.40097
546.51612
546.64553
546.79446
546.96682
547.17092
547.42031
547.83079
557.68669
1166.1628
1165.7659
1161.3452
1132.544
777.67645
776.99634
776.97998
776.96377
776.94689
776.92908
776.91043
776.89091
776.87062
776.8496
776.82791
776.80557
776.78263
776.75917
776.73524
776.71095
776.68629
776.66136
776.63617
776.61087
776.58543
776.55995
776.53439
776.5089
776.48345
776.45814
776.43295
776.40796
776.3832
776.3587
776.33451
776.31059
776.28701
776.26381
776.24108
776.21873
776.19684
776.17543
776.15454
776.13417
776.11432
776.09501
776.07624
776.05806
776.04046
776.02349
776.00706
775.99122
775.97596
775.96136
775.94731
775.93383
775.92088
775.90852
775.89674
775.88547
775.87475
775.86461
775.85525
775.84638
775.83784
775.82979
775.82238
775.81548
775.8091
775.80307
775.7975
775.7924
775.78778
775.78369
775.78007
775.77698
775.77423
775.77187
775.76978
775.76829
775.76708
775.76633
775.76569
775.76564
775.76587
775.76648
775.76729
775.76847
775.77017
775.77213
775.77466
775.77747
775.78106
775.78483
775.78944
775.79421
775.80014
775.80638
775.81415
775.82227
775.83214
775.84266
775.85531
775.86943
775.8858
775.90357
776.0073
775.56537
774.88211
777.16755
782.62802
791.20879
802.83606
817.44221
834.96934
855.36496
878.58448
904.60189
933.4004
964.9748
999.34247
1036.5266
1076.1927
1116.8113
1157.7282
1198.6644
1239.3753
1279.6433
1319.2516
1357.9645
1395.5761
1431.8761
1466.6451
1499.6335
1530.9404
1562.9143
1597.0057
1633.3872
1672.2414
1713.7464
1758.0773
1805.4853
1856.219
1910.4843
1968.6213
2030.9536
2097.7349
2119.1543
6206.3579
835.39176
6425.3443
848.33898
6607.858
863.18156
6354.6234
6884.4819
2443.8603
2234.7315
2154.348
2064.8157
1969.302
1880.5702
1815.7471
1772.1191
1769.6974
766.0374
3970.0895
789.72048
748.18081
1697.7975
584.02564
1196.9666
585.20622
1188.5694
2969.8101
1277.2668
1260.9508
1289.1957
1333.5834
1386.0332
1455.2617
1520.9714
1577.3877
1622.5036
1654.5169
1673.5565
1680.8205
1677.2624
1663.5131
1640.5013
1609.0681
1570.1284
1524.5885
1475.3487
1428.4298
1384.6722
1343.8444
1305.7313
1270.1241
1236.847
1205.7231
1176.6029
1149.3429
1123.8147
1099.8964
1077.4771
1055.5113
1032.3423
1007.9195
982.39977
955.94367
928.70139
900.8317
872.4844
843.81798
814.77074
770.8401
498.35738
1287.9501
1167.2931
470.27403
1071.9742
637.32756
623.38835
606.86834
592.37086
579.90685
569.53557
561.28364
555.24663
551.4515
550.08675
551.06511
551.51229
553.77787
784.40646
794.6087
798.2343
799.25905
800.02889
800.34333
800.51261
790.85651
423.7656
799.01206
801.02186
801.05069
801.07051
801.06878
801.06103
801.03731
801.00603
800.9605
800.90468
800.82988
800.55817
787.02581
419.05593
418.37038
418.41818
418.47304
418.531
418.59541
418.6664
418.74672
418.83848
418.94608
419.07672
419.31539
426.97661
794.28758
794.21891
791.32629
771.41173
552.25071
551.74998
551.72846
551.70686
551.68433
551.66061
551.63578
551.60985
551.58292
551.55505
551.52633
551.49679
551.46648
551.43553
551.40398
551.37197
551.3395
551.3067
551.27359
551.24033
551.20691
551.17345
551.13991
551.10648
551.07312
551.03993
551.00694
550.97422
550.9418
550.90974
550.87809
550.84682
550.81601
550.78569
550.756
550.72682
550.69824
550.6703
550.64304
550.61646
550.59057
550.5654
550.54093
550.51724
550.49431
550.4722
550.45079
550.43018
550.41031
550.3913
550.37302
550.35549
550.33866
550.3226
550.30731
550.29269
550.27881
550.26566
550.25352
550.24201
550.23098
550.2206
550.21103
550.20213
550.1939
550.18616
550.17902
550.1725
550.16661
550.16138
550.15678
550.15283
550.14936
550.14639
550.14381
550.14195
550.14049
550.13959
550.13893
550.13893
550.13935
550.14022
550.14141
550.14304
550.14533
550.14794
550.15129
550.15495
550.1596
550.16445
550.17038
550.17645
550.18398
550.19182
550.20156
550.21163
550.22391
550.23682
550.25242
550.26954
550.28952
550.31099
550.40474
550.13703
549.66627
551.28137
555.14526
561.22388
569.46401
579.81706
592.2428
606.7023
623.16498
641.61124
662.03003
684.41631
708.78382
735.14724
763.26324
792.05066
821.0499
850.06422
878.92041
907.46454
935.54366
962.99098
989.66291
1015.4108
1040.0798
1063.4945
1085.7398
1108.4701
1132.6982
1158.5505
1186.1577
1215.6466
1247.1428
1280.8245
1316.8685
1355.4227
1396.7271
1441.0104
1488.5459
1496.7261
4604.5003
639.51677
4749.1223
649.33842
4884.3997
663.04593
4652.5334
5159.4995
1783.4585
1593.8581
1536.5915
1474.5268
1408.845
1347.9099
1302.8824
1271.5504
1273.2547
594.28947
2839.9298
616.38351
576.92654
1201.1837
486.35926
883.66882
487.46583
873.52462
2164.1032
955.7088
935.40607
955.27812
986.61689
1025.3494
1075.739
1124.2178
1165.9046
1199.4182
1223.1681
1237.3246
1242.7345
1240.1543
1230.011
1213.0302
1189.8126
1161.0423
1127.4086
1091.0225
1056.333
1023.9803
993.79305
965.61501
939.29014
914.68979
891.68197
870.15695
850.00747
831.1388
813.45933
796.88357
780.64483
763.5229
745.47228
726.6089
707.05198
686.91094
666.30425
645.3412
624.13789
602.60993
569.91751
405.02508
908.93055
820.10702
379.90267
753.37311
470.82029
460.57341
448.3562
437.64003
428.42607
420.76661
414.67626
410.24421
407.4835
406.58547
407.49567
407.86592
409.73902
551.6422
558.10324
560.37569
561.02148
561.51232
561.71694
561.80694
554.47711
337.67675
560.78093
562.2034
562.23508
562.26023
562.27116
562.27799
562.27401
562.26467
562.24549
562.21896
562.17838
561.96397
551.76847
334.15725
333.69597
333.72566
333.75799
333.79042
333.82463
333.86081
333.90016
333.94381
333.9938
334.05347
334.18429
339.9156
557.94839
557.99807
556.09225
542.3701
408.60847
408.24789
408.22015
408.19217
408.16298
408.13233
408.10034
408.06701
408.03247
407.9968
407.9601
407.92242
407.88384
407.84448
407.80443
407.76385
407.72273
407.68124
407.6394
407.59741
407.55525
407.51307
407.47085
407.42877
407.38682
407.34513
407.30371
407.26264
407.22199
407.18181
407.14217
407.10302
407.06449
407.0266
406.98949
406.95305
406.91737
406.88253
406.84853
406.8154
406.78315
406.75182
406.72137
406.69191
406.66339
406.63591
406.60933
406.58374
406.55911
406.53552
406.51288
406.49117
406.47037
406.45053
406.43165
406.41363
406.39653
406.38035
406.36544
406.35127
406.33777
406.32509
406.31341
406.30256
406.29255
406.28318
406.27457
406.26673
406.25969
406.25345
406.248
406.24336
406.23932
406.23591
406.23301
406.23097
406.22947
406.22862
406.22813
406.22843
406.22926
406.23063
406.23245
406.23478
406.23793
406.24146
406.2459
406.25071
406.25671
406.26294
406.27049
406.27818
406.28764
406.29741
406.30948
406.32186
406.33692
406.35261
406.37157
406.39211
406.41617
406.44186
406.53015
406.37057
406.03038
407.21666
410.06087
414.54214
420.62063
428.25967
437.43041
448.10254
460.25455
473.8706
488.94355
505.46866
523.45742
542.91799
563.66663
584.90848
606.3078
627.71973
649.01738
670.08684
690.81649
711.08432
730.78485
749.80945
768.0451
785.36272
801.8415
818.69013
836.63728
855.78604
876.23295
898.07194
921.39761
946.3403
973.03253
1001.5846
1032.1733
1064.9674
1100.2635
1103.0857
3427.0956
538.13191
3521.427
547.27993
3620.8702
560.3532
3417.7032
3873.5663
1357.7103
1185.4391
1143.0001
1098.6007
1052.1162
1009.2119
977.11741
953.92657
957.14919
498.98765
2052.0951
519.01118
481.84989
887.79898
422.92544
675.83287
423.78699
665.55711
1588.7908
738.54368
717.2792
731.34363
753.67435
782.6486
820.2581
857.10645
888.86363
914.56947
932.75466
943.62266
947.78016
945.85524
938.13406
925.20957
907.5184
885.59007
859.97117
832.23997
805.78615
781.11452
758.09379
736.60721
716.53439
697.77841
680.23755
663.82904
648.4697
634.08759
620.61176
607.97099
595.5879
582.53828
568.77796
554.39598
539.48387
524.12354
508.40635
492.41426
476.23519
459.78487
435.22811
338.12294
653.94508
589.43358
314.61266
541.89219
359.05862
351.11653
341.79346
333.62001
326.59183
320.75735
316.12302
312.77548
310.71866
310.1503
311.03806
311.36889
312.88586
399.62378
403.70492
405.1361
405.54872
405.87154
406.013
406.06235
400.69889
274.98187
405.41371
406.40115
406.43773
406.46942
406.49124
406.50986
406.52067
406.52722
406.52649
406.51996
406.50212
406.33387
398.91904
272.53456
272.24373
272.26242
272.28104
272.2978
272.31347
272.3283
272.34257
272.35687
272.37185
272.38836
272.44876
276.55519
403.7728
403.84044
402.55886
393.09637
312.12834
311.86949
311.83447
311.79911
311.76226
311.72374
311.68364
311.642
311.59896
311.55463
311.50913
311.46251
311.41489
311.36641
311.31715
311.26731
311.21691
311.16611
311.11497
311.06369
311.01227
310.96088
310.90951
310.85835
310.80741
310.75681
310.7066
310.65686
310.60766
310.55907
310.51117
310.46391
310.41743
310.37176
310.32706
310.2832
310.24028
310.19839
310.15755
310.11779
310.07911
310.04154
310.00508
309.96981
309.9357
309.90285
309.8711
309.84056
309.81119
309.78309
309.75614
309.73032
309.70562
309.68209
309.65972
309.63841
309.61823
309.59914
309.5816
309.56492
309.54911
309.53429
309.52066
309.50805
309.49645
309.48564
309.47577
309.46682
309.45883
309.45181
309.44575
309.44063
309.43627
309.43266
309.42971
309.42774
309.42646
309.42594
309.4259
309.42676
309.4283
309.43045
309.43319
309.43653
309.44084
309.44561
309.45146
309.45773
309.46543
309.47337
309.48288
309.49255
309.50431
309.51638
309.53115
309.54623
309.56448
309.58336
309.60612
309.63054
309.65918
309.68965
309.77565
309.68729
309.43114
310.32776
312.48471
315.89032
320.51373
326.32608
333.30633
341.43001
350.68174
361.04807
372.52454
385.10672
398.80467
413.62149
429.41464
445.58175
461.87052
478.17066
494.38643
510.43135
526.22141
541.66467
556.68172
571.1906
585.10659
598.33054
610.9426
623.8498
637.58261
652.23403
667.87753
684.58474
702.42861
721.50882
741.92812
763.7701
787.17084
812.25801
839.34359
840.70171
2553.0964
477.09922
2614.0861
486.44488
2686.5994
498.94264
2514.9326
2906.8171
1065.0569
911.06458
878.67601
846.20051
812.69262
782.14681
759.06565
741.73509
745.17389
438.2155
1497.7434
455.65593
421.18118
680.09855
375.8622
532.4959
376.32431
523.10019
1176.229
585.40014
565.15819
574.99374
590.76646
612.50868
641.05831
669.71813
694.49855
714.72991
729.01096
737.57149
740.84735
739.3801
733.35384
723.27188
709.45411
692.32211
672.32544
650.66717
629.99299
610.71224
592.72131
575.9314
560.24703
545.59373
531.89081
519.07436
507.0782
495.84646
485.32298
475.44307
465.7647
455.57351
444.82341
433.58549
421.93205
409.92554
397.63823
385.13316
372.47863
359.60271
341.03144
285.99776
480.0026
433.64211
263.82462
399.06017
280.83232
274.4212
267.12767
260.73682
255.24149
250.68808
247.07734
244.4957
242.94087
242.61906
243.51092
243.82409
245.03914
297.93835
300.52381
301.44061
301.71422
301.9371
302.04428
302.07679
298.27446
226.75078
301.70968
302.39047
302.4323
302.47045
302.50118
302.52894
302.55053
302.56826
302.58004
302.58667
302.58335
302.45234
297.22031
225.19782
225.02817
225.03937
225.04886
225.05516
225.05859
225.05946
225.05751
225.05307
225.04595
225.03525
225.04759
227.85265
300.79865
300.84172
299.94577
293.39159
244.59181
244.40203
244.35877
244.31509
244.26968
244.22241
244.17339
244.12267
244.07042
244.01675
243.9618
243.90567
243.84846
243.79034
243.73142
243.67192
243.61185
243.55141
243.49066
243.42983
243.36893
243.30814
243.24745
243.18708
243.12704
243.06747
243.00842
242.94999
242.89225
242.83527
242.77915
242.72385
242.6695
242.61617
242.56399
242.51285
242.46283
242.41408
242.36658
242.32036
242.27544
242.23186
242.1896
242.14874
242.10928
242.07129
242.03463
241.99939
241.96554
241.93317
241.90218
241.87253
241.8442
241.81725
241.79167
241.76735
241.74436
241.72266
241.70277
241.68386
241.66602
241.64936
241.63408
241.62
241.6071
241.59516
241.58431
241.57455
241.56592
241.55843
241.55205
241.54677
241.54239
241.53889
241.53619
241.53461
241.53385
241.53397
241.5347
241.53644
241.53899
241.54225
241.54624
241.5509
241.5567
241.56303
241.57063
241.57871
241.58843
241.59844
241.61027
241.62226
241.63667
241.65142
241.66928
241.68745
241.70929
241.73178
241.75878
241.78753
241.82123
241.85701
241.9431
241.90407
241.70385
242.39613
244.06982
246.71991
250.32181
254.85212
260.29537
266.63104
273.84825
281.93506
290.88896
300.7058
311.39456
322.95448
335.27271
347.88178
360.58782
373.30485
385.95885
398.48295
410.81254
422.87644
434.61399
445.962
456.85565
467.21396
477.12559
487.2839
498.07033
509.57841
521.86493
534.98593
548.99918
563.98297