/*--------------------------------*- C++ -*----------------------------------*\
| =========                 |                                                 |
| \\      /  F ield         | OpenFOAM: The Open Source CFD Toolbox           |
|  \\    /   O peration     | Version:  2.4.0                                 |
|   \\  /    A nd           | Web:      www.OpenFOAM.org                      |
|    \\/     M anipulation  |                                                 |
\*---------------------------------------------------------------------------*/
FoamFile
{
    version     2.0;
    format      ascii;
    class       surfaceScalarField;
    location    "10";
    object      phi;
}
// * * * * * * * * * * * * * * * * * * * * * * * * * * * * * * * * * * * * * //

dimensions      [0 3 -1 0 0 0 0];

internalField   nonuniform List<scalar> 
38538
(
-2.1070155e-07
-3.5571627e-08
-2.3182494e-07
2.1123386e-08
-1.8095724e-07
-5.0867703e-08
-1.8228554e-07
1.3282888e-09
-1.5493659e-07
-2.734895e-08
-1.7203464e-07
1.7098051e-08
-1.5679216e-07
-1.5242489e-08
-1.3682342e-07
-1.9968746e-08
-1.1323965e-07
-2.3583778e-08
-1.0547972e-07
-7.7599233e-09
-1.0161911e-07
-3.8606046e-09
-9.9141694e-08
-2.4764069e-09
-1.0501306e-07
5.8703226e-09
-1.20337e-07
1.5324319e-08
-1.3061591e-07
1.0278492e-08
-9.9093782e-08
-3.1522584e-08
3.3225172e-08
-1.3231852e-07
2.6108953e-07
-2.2786436e-07
5.0069658e-07
-2.3960705e-07
6.2856364e-07
-1.2786706e-07
5.2282535e-07
1.0573829e-07
2.477902e-07
2.7503514e-07
5.1566374e-08
1.9622382e-07
3.3045124e-08
1.8521243e-08
9.9360904e-08
-6.6315783e-08
1.8425404e-07
-8.4893125e-08
2.4337837e-07
-5.9124363e-08
2.7129606e-07
-2.7918138e-08
2.6870288e-07
2.5936304e-09
1.8661219e-07
8.2091318e-08
2.4770499e-08
1.618411e-07
-1.8103207e-07
2.0580257e-07
-4.0218219e-07
2.2115012e-07
-6.2004183e-07
2.1785963e-07
-8.2237971e-07
2.0233787e-07
-9.9835342e-07
1.759737e-07
-1.1411928e-06
1.4283936e-07
-1.2518142e-06
1.1062142e-07
-1.332326e-06
8.0512701e-08
5.2377854e-08
1.9433278e-07
6.9980119e-09
1.8744398e-07
6.8888064e-09
1.8070582e-07
6.7381547e-09
1.7415583e-07
6.5499969e-09
1.6782499e-07
6.3308413e-09
1.6173852e-07
6.0864706e-09
1.5591056e-07
5.8279602e-09
1.5034588e-07
5.5646786e-09
1.450357e-07
5.3101705e-09
1.3996115e-07
5.0745494e-09
1.3509052e-07
4.8706333e-09
1.3038177e-07
4.7087433e-09
1.2578404e-07
4.5977251e-09
1.2123831e-07
4.5457322e-09
1.1668103e-07
4.5572848e-09
1.1204391e-07
4.6371184e-09
1.0725836e-07
4.7855546e-09
1.0225594e-07
5.0024162e-09
9.6971205e-08
5.2847402e-09
9.1342927e-08
5.6282863e-09
8.5316233e-08
6.0266963e-09
7.8844613e-08
6.4716299e-09
7.1889756e-08
6.9548628e-09
6.4425168e-08
7.4645987e-09
5.6433092e-08
7.9920821e-09
4.7911905e-08
8.5211959e-09
3.8866147e-08
9.0457644e-09
2.9323926e-08
9.5422309e-09
1.9313029e-08
1.0010904e-08
8.8993426e-09
1.0413694e-08
-1.8694487e-09
1.0768799e-08
-1.2883304e-08
1.1013863e-08
-2.4088338e-08
1.1205041e-08
-3.5312761e-08
1.1224429e-08
-4.6490936e-08
1.1178182e-08
-5.7372645e-08
1.0881714e-08
-6.7886128e-08
1.051349e-08
-7.7725592e-08
9.8394697e-09
-8.6839376e-08
9.1137905e-09
-9.4893064e-08
8.0536936e-09
-1.0194714e-07
7.0540856e-09
-1.0758257e-07
5.6354326e-09
-1.1206698e-07
4.4844144e-09
-1.1414512e-07
2.0781473e-09
-1.122117e-07
-1.9334153e-09
-1.1615677e-07
3.9450734e-09
-1.2602268e-07
9.8659112e-09
-1.4522965e-07
1.920697e-08
-1.8437747e-07
3.9147832e-08
-2.4972462e-07
6.5347149e-08
-3.1787721e-07
6.8152596e-08
-3.5050327e-07
3.262607e-08
-3.3143436e-07
-1.9068909e-08
-2.6978285e-07
-6.1651503e-08
-1.837129e-07
-8.606995e-08
-8.8157549e-08
-9.5555349e-08
2.7119862e-09
-9.0869529e-08
7.9619269e-08
-7.690728e-08
1.4332176e-07
-6.3702482e-08
1.9738348e-07
-5.4061719e-08
2.4460918e-07
-4.7225691e-08
2.8589952e-07
-4.1290345e-08
3.2160256e-07
-3.570302e-08
3.5233364e-07
-3.0731087e-08
3.7874122e-07
-2.6407567e-08
4.014814e-07
-2.2740186e-08
4.2114138e-07
-1.9659962e-08
4.3817074e-07
-1.7029363e-08
4.5291017e-07
-1.4739403e-08
4.6551327e-07
-1.2603111e-08
4.7601204e-07
-1.0498766e-08
4.8394086e-07
-7.9288158e-09
4.8812703e-07
-4.1861652e-09
4.8959297e-07
-1.4659454e-09
4.9028548e-07
-6.9250475e-10
4.9106402e-07
-7.7853931e-10
4.9239908e-07
-1.3350482e-09
4.9464447e-07
-2.2453874e-09
4.9807721e-07
-3.4327041e-09
5.0301211e-07
-4.9349303e-09
5.0985795e-07
-6.845802e-09
5.1898621e-07
-9.1282927e-09
5.3111453e-07
-1.2128278e-08
5.4710783e-07
-1.5993322e-08
5.6907108e-07
-2.1963201e-08
6.0055007e-07
-3.1479035e-08
6.3963291e-07
-3.908284e-08
6.8378421e-07
-4.4151295e-08
7.3343304e-07
-4.9648829e-08
7.8986406e-07
-5.6431018e-08
8.5464412e-07
-6.4780055e-08
9.2964289e-07
-7.4998775e-08
1.0171301e-06
-8.7487199e-08
1.1189924e-06
-1.0186225e-07
1.233116e-06
-1.1412365e-07
1.3528613e-06
-1.1974513e-07
1.4610662e-06
-1.0820505e-07
1.5222231e-06
-6.1156975e-08
1.4649601e-06
5.7263005e-08
1.2448666e-06
2.2009357e-07
9.2403058e-07
3.2083597e-07
5.9750607e-07
3.265245e-07
2.876572e-07
3.0984887e-07
8.7118417e-08
2.0053878e-07
-1.0196168e-07
1.890801e-07
-1.5044122e-07
4.8479535e-08
-2.0714386e-07
5.6702634e-08
3.9129315e-08
-6.2206234e-07
-1.1931114e-07
-7.0348321e-07
1.0254425e-07
-5.1813411e-07
-2.3621681e-07
-5.5267797e-07
3.5872145e-08
-4.5349914e-07
-1.2652778e-07
-5.2627204e-07
8.9870944e-08
-4.7385297e-07
-6.7661562e-08
-4.2547246e-07
-6.8349261e-08
-3.4901626e-07
-1.0003999e-07
-3.2982591e-07
-2.6950271e-08
-3.1477516e-07
-1.8911344e-08
-3.0964939e-07
-7.6010429e-09
-3.2525021e-07
2.1469965e-08
-3.7205401e-07
6.2128547e-08
-4.0021827e-07
3.8442271e-08
-3.0533861e-07
-1.2640276e-07
9.4127321e-08
-5.3178396e-07
7.8230662e-07
-9.1604365e-07
1.5055896e-06
-9.6289005e-07
1.8990527e-06
-5.2133013e-07
1.6058735e-06
3.9891743e-07
7.9297069e-07
1.087938e-06
1.8421565e-07
8.0497885e-07
1.1243373e-07
9.0303159e-08
3.1173152e-07
-2.6561358e-07
5.6552609e-07
-3.3868768e-07
7.4336777e-07
-2.3696609e-07
8.2244741e-07
-1.0699827e-07
7.9770557e-07
2.7335977e-08
5.2691787e-07
3.5287973e-07
1.5076909e-08
6.7368138e-07
-6.2196592e-07
8.428454e-07
-1.2995409e-06
8.9872505e-07
-1.9609927e-06
8.7931144e-07
-2.5706592e-06
8.1200437e-07
-3.0969744e-06
7.0228892e-07
-3.5217706e-06
5.6763557e-07
-3.8481098e-06
4.3696062e-07
-4.0832158e-06
3.1561966e-07
2.0259634e-07
6.1243389e-07
2.8254859e-08
5.915502e-07
2.7772498e-08
5.711592e-07
2.7129149e-08
5.513668e-07
2.6342401e-08
5.3225853e-07
2.5439111e-08
5.1390087e-07
2.4444129e-08
4.9632783e-07
2.3401002e-08
4.7954196e-07
2.2350552e-08
4.6350761e-07
2.134451e-08
4.4815755e-07
2.0424608e-08
4.3338811e-07
1.9640074e-08
4.190641e-07
1.9032748e-08
4.0502472e-07
1.8637099e-08
3.9108731e-07
1.8483144e-08
3.7705533e-07
1.8589266e-08
3.6272012e-07
1.8972332e-08
3.4787172e-07
1.9633954e-08
3.3230362e-07
2.0570521e-08
3.1581797e-07
2.1770385e-08
2.9823078e-07
2.3215495e-08
2.7937692e-07
2.4880553e-08
2.591181e-07
2.6730461e-08
2.3733997e-07
2.8733006e-08
2.1396439e-07
3.0840194e-08
1.8893757e-07
3.3018912e-08
1.6225767e-07
3.5201107e-08
1.3393683e-07
3.7366605e-08
1.040645e-07
3.9414573e-08
7.2718319e-08
4.1357098e-08
4.0108232e-08
4.3023791e-08
6.3639116e-09
4.4513131e-08
-2.8158916e-08
4.55367e-08
-6.3331563e-08
4.6377698e-08
-9.8582358e-08
4.6475232e-08
-1.3378128e-07
4.6377108e-08
-1.680634e-07
4.5163844e-08
-2.0134195e-07
4.3792047e-08
-2.3248867e-07
4.0986195e-08
-2.6158021e-07
3.8205347e-08
-2.8725399e-07
3.3727474e-08
-3.1010292e-07
2.990303e-08
-3.2825712e-07
2.3789642e-08
-3.4325873e-07
1.9486028e-08
-3.5029542e-07
9.1148434e-09
-3.4613503e-07
-6.0937934e-09
-3.5940455e-07
1.7214597e-08
-3.9121158e-07
4.1672941e-08
-4.5125122e-07
7.924662e-08
-5.7219724e-07
1.6009386e-07
-7.6981977e-07
2.6296968e-07
-9.7188306e-07
2.7021589e-07
-1.0640479e-06
1.2479093e-07
-1.0006234e-06
-8.2493407e-08
-8.1004188e-07
-2.5223304e-07
-5.4692005e-07
-3.4919177e-07
-2.5559902e-07
-3.8687638e-07
2.0572514e-08
-3.6704106e-07
2.5387104e-07
-3.102058e-07
4.4744072e-07
-2.5727215e-07
6.1208943e-07
-2.1871043e-07
7.5606381e-07
-1.9120005e-07
8.820895e-07
-1.6731605e-07
9.9123338e-07
-1.4484688e-07
1.0853267e-06
-1.2482441e-07
1.1663404e-06
-1.0742122e-07
1.2362416e-06
-9.264145e-08
1.2967938e-06
-8.0212066e-08
1.3493491e-06
-6.9584742e-08
1.3949427e-06
-6.0332893e-08
1.4340291e-06
-5.1689595e-08
1.4667363e-06
-4.3205874e-08
1.4915059e-06
-3.2698423e-08
1.5050977e-06
-1.7777955e-08
1.5104091e-06
-6.7774052e-09
1.5131728e-06
-3.4561585e-09
1.5160231e-06
-3.628814e-09
1.5204435e-06
-5.7555294e-09
1.5275623e-06
-9.3641221e-09
1.5382195e-06
-1.4089894e-08
1.5534021e-06
-2.0117547e-08
1.5743471e-06
-2.7790767e-08
1.6021957e-06
-3.697696e-08
1.639188e-06
-4.9120467e-08
1.6878475e-06
-6.4652849e-08
1.7548714e-06
-8.8987114e-08
1.8502129e-06
-1.2682053e-07
1.9687734e-06
-1.5764339e-07
2.1031484e-06
-1.7852625e-07
2.2545258e-06
-2.0102624e-07
2.426711e-06
-2.286162e-07
2.6244416e-06
-2.6251061e-07
2.8533053e-06
-3.0386253e-07
3.1202022e-06
-3.5438405e-07
3.4305726e-06
-4.1223263e-07
3.7782501e-06
-4.6180117e-07
4.1434532e-06
-4.849481e-07
4.4742362e-06
-4.3898819e-07
4.6651932e-06
-2.5211402e-07
4.5039531e-06
2.185031e-07
3.8641294e-06
8.599173e-07
2.9058664e-06
1.279099e-06
1.9206479e-06
1.311743e-06
9.6177856e-07
1.2687182e-06
3.4610663e-07
8.1621071e-07
-2.7378329e-07
8.0897002e-07
-4.0083515e-07
1.7553139e-07
-6.4045541e-07
2.9632289e-07
1.0447575e-07
-1.0366108e-06
-2.4143836e-07
-1.1851232e-06
2.5105664e-07
-8.4886052e-07
-5.7247948e-07
-9.3077661e-07
1.1778823e-07
-7.5412598e-07
-3.0317841e-07
-8.9696011e-07
2.3270506e-07
-8.0752876e-07
-1.5709291e-07
-7.3649729e-07
-1.3938074e-07
-6.0410269e-07
-2.3243459e-07
-5.7444776e-07
-5.6605199e-08
-5.4647038e-07
-4.6888724e-08
-5.3923416e-07
-1.4836229e-08
-5.6404895e-07
4.6283695e-08
-6.4369887e-07
1.4177885e-07
-6.893323e-07
8.407527e-08
-5.2895027e-07
-2.8678525e-07
1.4992321e-07
-1.210657e-06
1.3219718e-06
-2.0880922e-06
2.5552999e-06
-2.1962182e-06
3.2374243e-06
-1.2034545e-06
2.7693543e-06
8.6698748e-07
1.404963e-06
2.4523293e-06
3.5075565e-07
1.8591862e-06
2.0852342e-07
2.3253539e-07
5.4426576e-07
-6.0135592e-07
9.7373163e-07
-7.6815354e-07
1.2751446e-06
-5.3837907e-07
1.4030201e-06
-2.3487429e-07
1.3408738e-06
8.9482774e-08
8.517427e-07
8.4201147e-07
-4.7666848e-08
1.5730903e-06
-1.1513337e-06
1.9465123e-06
-2.3162139e-06
2.0636052e-06
-3.4460672e-06
2.0091648e-06
-4.4814848e-06
1.8474219e-06
-5.3704837e-06
1.5912878e-06
-6.0846862e-06
1.2818381e-06
-6.6298586e-06
9.8213296e-07
-7.0192451e-06
7.0500709e-07
4.4756553e-07
1.0759815e-06
6.4466355e-08
1.0404622e-06
6.3291778e-08
1.005829e-06
6.1762305e-08
9.7225091e-07
5.9920537e-08
9.3986111e-07
5.7828911e-08
9.0875873e-07
5.5546516e-08
8.7898845e-07
5.3171285e-08
8.5053931e-07
5.0799691e-08
8.2333771e-07
4.8546098e-08
7.9725603e-07
4.6506289e-08
7.7210727e-07
4.4788837e-08
7.4765147e-07
4.348854e-08
7.2360678e-07
4.2681785e-08
6.9965702e-07
4.2432907e-08
6.7546321e-07
4.2783081e-08
6.5066816e-07
4.376738e-08
6.2491297e-07
4.5389146e-08
5.9784712e-07
4.7636379e-08
5.6913521e-07
5.0482292e-08
5.384664e-07
5.388432e-08
5.0556195e-07
5.7785004e-08
4.7018966e-07
6.2102759e-08
4.3215747e-07
6.6765201e-08
3.9133489e-07
7.1662791e-08
3.476312e-07
7.6722604e-08
3.0104553e-07
8.1786796e-08
2.5159776e-07
8.6814377e-08
1.994424e-07
9.1569944e-08
1.4470713e-07
9.6092375e-08
8.7754806e-08
9.9976128e-08
2.8796524e-08
1.0347142e-07
-3.1549416e-08
1.0588265e-07
-9.3088036e-08
1.0791633e-07
-1.5481273e-07
1.0819994e-07
-2.1654721e-07
1.0811159e-07
-2.7674396e-07
1.053606e-07
-3.3533814e-07
1.0238623e-07
-3.902642e-07
9.5912265e-08
-4.4179706e-07
8.9738209e-08
-4.8737128e-07
7.93017e-08
-5.282451e-07
7.0776866e-08
-5.6082906e-07
5.63736e-08
-5.8818956e-07
4.684654e-08
-6.0150772e-07
2.243301e-08
-5.9667141e-07
-1.0930103e-08
-6.2124631e-07
4.17895e-08
-6.7793341e-07
9.8360055e-08
-7.829518e-07
1.8426501e-07
-9.9163649e-07
3.6877855e-07
-1.3266383e-06
5.9797145e-07
-1.6634625e-06
6.0704011e-07
-1.8108424e-06
2.7217087e-07
-1.6952934e-06
-1.980424e-07
-1.3662383e-06
-5.8128812e-07
-9.1572807e-07
-7.9970199e-07
-4.180296e-07
-8.8457485e-07
5.2760686e-08
-8.3783133e-07
4.499858e-07
-7.0743091e-07
7.8012859e-07
-5.8741494e-07
1.0615605e-06
-5.0014238e-07
1.3079766e-06
-4.376161e-07
1.5239525e-06
-3.8329191e-07
1.7112762e-06
-3.3217062e-07
1.8730591e-06
-2.8660732e-07
2.0125766e-06
-2.4693871e-07
2.1331584e-06
-2.1322326e-07
2.2377959e-06
-1.8484956e-07
2.3287524e-06
-1.6054121e-07
2.4078196e-06
-1.3940003e-07
2.4757025e-06
-1.1957249e-07
2.5326374e-06
-1.001408e-07
2.5759435e-06
-7.60045e-08
2.6003143e-06
-4.2148729e-08
2.6104941e-06
-1.6957294e-08
2.6160922e-06
-9.0542172e-09
2.6216828e-06
-9.2194167e-09
2.6298151e-06
-1.3887836e-08
2.6424182e-06
-2.1967234e-08
2.6610153e-06
-3.2686903e-08
2.6872983e-06
-4.6400574e-08
2.7234059e-06
-6.3898359e-08
2.7713045e-06
-8.4875606e-08
2.8349171e-06
-1.1273296e-07
2.9184308e-06
-1.4816657e-07
3.0335913e-06
-2.0414761e-07
3.1965898e-06
-2.8981906e-07
3.3993773e-06
-3.6043092e-07
3.6295576e-06
-4.0870654e-07
3.8891125e-06
-4.6058111e-07
4.1842998e-06
-5.2380355e-07
4.5232358e-06
-6.014466e-07
4.9151623e-06
-6.95789e-07
5.3719137e-06
-8.1113546e-07
5.9022834e-06
-9.426023e-07
6.49583e-06
-1.0553478e-06
7.1190777e-06
-1.1081957e-06
7.6842584e-06
-1.004169e-06
8.0142943e-06
-5.8214993e-07
7.7561436e-06
4.7665379e-07
6.7012661e-06
1.9147948e-06
5.0940792e-06
2.8862858e-06
3.4222496e-06
2.9835726e-06
1.7712913e-06
2.9196765e-06
7.0172885e-07
1.8857732e-06
-4.0053594e-07
1.9112348e-06
-6.1849654e-07
3.9349199e-07
-1.0840464e-06
7.618727e-07
1.7916739e-07
-1.4526253e-06
-3.9833885e-07
-1.6671675e-06
4.6559886e-07
-1.1755735e-06
-1.0640734e-06
-1.3093648e-06
2.5157955e-07
-1.0579137e-06
-5.5462954e-07
-1.2806684e-06
4.5545971e-07
-1.1594931e-06
-2.7826822e-07
-1.069208e-06
-2.2966579e-07
-8.8056896e-07
-4.2107366e-07
-8.3987569e-07
-9.7298473e-08
-7.9843631e-07
-8.8328087e-08
-7.8860396e-07
-2.4667614e-08
-8.2265687e-07
8.0335601e-08
-9.3574946e-07
2.548718e-07
-9.9868628e-07
1.4701167e-07
-7.7073755e-07
-5.1473442e-07
1.9853162e-07
-2.1799258e-06
1.8761902e-06
-3.7657508e-06
3.6442274e-06
-3.9642555e-06
4.638649e-06
-2.1978761e-06
4.0109865e-06
1.49465e-06
2.0861675e-06
4.3771482e-06
5.5744446e-07
3.3879092e-06
3.2598743e-07
4.6399241e-07
7.9870179e-07
-1.0740703e-06
1.4096809e-06
-1.3791327e-06
1.837831e-06
-9.6652917e-07
2.0101208e-06
-4.0716453e-07
1.8922889e-06
2.0731509e-07
1.1506185e-06
1.5836825e-06
-1.7697544e-07
2.9006837e-06
-1.7838726e-06
3.5534095e-06
-3.4661852e-06
3.7459178e-06
-5.087408e-06
3.6303876e-06
-6.5642605e-06
3.3242744e-06
-7.8252517e-06
2.8522789e-06
-8.8330227e-06
2.2896091e-06
-9.5972339e-06
1.7463441e-06
-1.0137965e-05
1.2457387e-06
7.8207754e-07
1.5892026e-06
1.1632738e-07
1.5384103e-06
1.1408399e-07
1.48895e-06
1.112226e-07
1.441047e-06
1.0782355e-07
1.3948743e-06
1.0400167e-07
1.3505539e-06
9.9866896e-08
1.3081307e-06
9.5594486e-08
1.2675687e-06
9.1361735e-08
1.2287442e-06
8.7370525e-08
1.1914571e-06
8.379344e-08
1.1554249e-06
8.0821041e-08
1.1202913e-06
7.8622077e-08
1.0856425e-06
7.7330561e-08
1.0510186e-06
7.7056818e-08
1.015929e-06
7.7872756e-08
9.7985977e-07
7.9836571e-08
9.4229609e-07
8.2952819e-08
9.0273737e-07
8.7195102e-08
8.6070571e-07
9.251396e-08
8.1575944e-07
9.8830593e-08
7.6750312e-07
1.0604133e-07
7.1560821e-07
1.1399768e-07
6.5980331e-07
1.2257011e-07
5.9990441e-07
1.315617e-07
5.3578327e-07
1.4084375e-07
4.6743982e-07
1.5013026e-07
3.9490255e-07
1.5935165e-07
3.1839255e-07
1.6807996e-07
2.3808991e-07
1.7639503e-07
1.5451432e-07
1.8355173e-07
6.7963822e-08
1.9002193e-07
-2.0673383e-08
1.9451986e-07
-1.1113283e-07
1.9837579e-07
-2.0195812e-07
1.9902523e-07
-2.9291712e-07
1.990706e-07
-3.8174938e-07
1.9419287e-07
-4.6839574e-07
1.890326e-07
-5.4980774e-07
1.7732427e-07
-6.2643116e-07
1.6636164e-07
-6.9444684e-07
1.4731739e-07
-7.5573727e-07
1.320673e-07
-8.0494899e-07
1.0558533e-07
-8.4661074e-07
8.8508296e-08
-8.6786714e-07
4.3689411e-08
-8.6405841e-07
-1.4738815e-08
-9.0223628e-07
7.9967366e-08
-9.8692547e-07
1.8304925e-07
-1.1414797e-06
3.3881929e-07
-1.4438049e-06
6.7110377e-07
-1.9206218e-06
1.0747883e-06
-2.391815e-06
1.0782333e-06
-2.5889819e-06
4.6933779e-07
-2.4128025e-06
-3.7422173e-07
-1.9354479e-06
-1.0586427e-06
-1.2872411e-06
-1.4479088e-06
-5.7277478e-07
-1.5990412e-06
1.0159572e-07
-1.5122018e-06
6.6990851e-07
-1.2757437e-06
1.1430706e-06
-1.0605771e-06
1.5472856e-06
-9.0435737e-07
1.9016946e-06
-7.9202503e-07
2.2127249e-06
-6.9432229e-07
2.4829253e-06
-6.0237096e-07
2.7166539e-06
-5.203359e-07
2.9185804e-06
-4.4886525e-07
3.0934094e-06
-3.8805222e-07
3.2453654e-06
-3.3680554e-07
3.3776762e-06
-2.9285205e-07
3.492863e-06
-2.5458679e-07
3.5919892e-06
-2.1869866e-07
3.6753449e-06
-1.8349649e-07
3.7390379e-06
-1.3969749e-07
3.7756858e-06
-7.8796605e-08
3.7919594e-06
-3.3230923e-08
3.8012948e-06
-1.8389613e-08
3.810329e-06
-1.8253666e-08
3.8228386e-06
-2.639737e-08
3.8416049e-06
-4.0733571e-08
3.8688856e-06
-5.9967548e-08
3.9070861e-06
-8.460106e-08
3.9593814e-06
-1.1619366e-07
4.028588e-06
-1.5408218e-07
4.1203579e-06
-2.0450286e-07
4.2408525e-06
-2.6866116e-07
4.4068469e-06
-3.7014195e-07
4.6410146e-06
-5.2398685e-07
4.9323235e-06
-6.5173985e-07
5.2636547e-06
-7.4003767e-07
5.637458e-06
-8.3438442e-07
6.0626559e-06
-9.4900148e-07
6.5506851e-06
-1.0894758e-06
7.1147932e-06
-1.2598971e-06
7.7714574e-06
-1.4677996e-06
8.5329256e-06
-1.7040705e-06
9.3846024e-06
-1.9070246e-06
1.0278648e-05
-2.0022412e-06
1.1090664e-05
-1.8161852e-06
1.1570918e-05
-1.0624036e-06
1.1227443e-05
8.2012853e-07
9.7658937e-06
3.376344e-06
7.504092e-06
5.1480875e-06
5.1179326e-06
5.369732e-06
2.7354052e-06
5.3022038e-06
1.1645975e-06
3.456581e-06
-4.6511066e-07
3.5409429e-06
-8.0465379e-07
7.3303511e-07
-1.5222818e-06
1.4795007e-06
2.6641129e-07
-1.8658125e-06
-5.8537935e-07
-2.1448098e-06
7.4459613e-07
-1.4941072e-06
-1.714776e-06
-1.6848248e-06
4.4229713e-07
-1.3623919e-06
-8.7706241e-07
-1.6759613e-06
7.6902909e-07
-1.5295252e-06
-4.2470434e-07
-1.4242344e-06
-3.3495665e-07
-1.179601e-06
-6.6570703e-07
-1.1273666e-06
-1.4953283e-07
-1.0719672e-06
-1.4372749e-07
-1.0590083e-06
-3.762579e-08
-1.1022617e-06
1.2358823e-07
-1.2492281e-06
4.0183847e-07
-1.3291244e-06
2.2690769e-07
-1.0317529e-06
-8.1210628e-07
2.3798344e-07
-3.4496618e-06
2.4419809e-06
-5.9697482e-06
4.7689733e-06
-6.2912479e-06
6.1007111e-06
-3.5296139e-06
5.3325918e-06
2.2627693e-06
2.8421857e-06
6.8675544e-06
8.0976885e-07
5.420326e-06
4.6772641e-07
8.0603484e-07
1.0763364e-06
-1.6826803e-06
1.8739827e-06
-2.176779e-06
2.4315773e-06
-1.5241238e-06
2.6429094e-06
-6.1849701e-07
2.4488691e-06
4.0135577e-07
1.4171667e-06
2.6153854e-06
-3.8194235e-07
4.6997923e-06
-2.5298641e-06
5.7013312e-06
-4.7598989e-06
5.9759526e-06
-6.8947777e-06
5.7652664e-06
-8.8273812e-06
5.2568779e-06
-1.0467945e-05
4.4928423e-06
-1.1771762e-05
3.5934267e-06
-1.2753508e-05
2.7280904e-06
-1.3441156e-05
1.9333874e-06
1.1995812e-06
2.1565843e-06
1.8453234e-07
2.0898843e-06
1.8078404e-07
2.025015e-06
1.7609192e-07
1.9622503e-06
1.7058817e-07
1.9017939e-06
1.6445816e-07
1.8437799e-06
1.5788085e-07
1.788242e-06
1.511324e-07
1.7351069e-06
1.4449687e-07
1.6841884e-06
1.3828901e-07
1.6352008e-06
1.3278101e-07
1.5877543e-06
1.2826751e-07
1.5413646e-06
1.2501182e-07
1.4954747e-06
1.2322048e-07
1.4494709e-06
1.2306061e-07
1.4027019e-06
1.2464169e-07
1.3544895e-06
1.2804898e-07
1.3041558e-06
1.3328657e-07
1.2510442e-06
1.4030667e-07
1.1945296e-06
1.4902859e-07
1.1340356e-06
1.5932462e-07
1.0690468e-06
1.7103008e-07
9.9913601e-07
1.8390851e-07
9.2395052e-07
1.9775561e-07
8.4325135e-07
2.1226089e-07
7.568718e-07
2.272233e-07
6.6481194e-07
2.4219013e-07
5.6710922e-07
2.5705439e-07
4.6405185e-07
2.7113734e-07
3.5587449e-07
2.8457239e-07
2.4325642e-07
2.9616981e-07
1.2658795e-07
3.0669042e-07
7.0349769e-09
3.1407284e-07
-1.1506753e-07
3.2047831e-07
-2.3780211e-07
3.2175982e-07
-3.6086853e-07
3.2213703e-07
-4.8126415e-07
3.145885e-07
-5.9891685e-07
3.0668531e-07
-7.0975e-07
2.8815743e-07
-8.1434747e-07
2.7095912e-07
-9.0758682e-07
2.4055675e-07
-9.9192239e-07
2.1640288e-07
-1.0601987e-06
1.7386163e-07
-1.1183238e-06
1.4663341e-07
-1.1494066e-06
7.4772227e-08
-1.1486221e-06
-1.5523308e-08
-1.2029711e-06
1.3431638e-07
-1.3190438e-06
2.9912195e-07
-1.5279423e-06
5.4771776e-07
-1.9297991e-06
1.0729606e-06
-2.5522246e-06
1.6972137e-06
-3.1561931e-06
1.6822019e-06
-3.3965761e-06
7.0972079e-07
-3.1505027e-06
-6.202952e-07
-2.5147543e-06
-1.694391e-06
-1.6586078e-06
-2.3040554e-06
-7.1720419e-07
-2.5404448e-06
1.6934977e-07
-2.3987558e-06
9.1558435e-07
-2.0219783e-06
1.5380807e-06
-1.6830734e-06
2.0710263e-06
-1.4373029e-06
2.5389741e-06
-1.2599728e-06
2.950223e-06
-1.1055712e-06
3.3080519e-06
-9.601999e-07
3.6181391e-06
-8.3042307e-07
3.8864987e-06
-7.1722483e-07
4.1192715e-06
-6.2082509e-07
4.3219219e-06
-5.3945586e-07
4.4987089e-06
-4.6963902e-07
4.6528895e-06
-4.0876744e-07
4.7858082e-06
-3.5161737e-07
4.8978742e-06
-2.9556246e-07
4.9838794e-06
-2.2570265e-07
5.0345658e-06
-1.2948299e-07
5.0582365e-06
-5.6901695e-08
5.0723997e-06
-3.2552734e-08
5.0857667e-06
-3.1620705e-08
5.1033675e-06
-4.3998125e-08
5.1290438e-06
-6.6409878e-08
5.1657503e-06
-9.6674038e-08
5.2167707e-06
-1.3562149e-07
5.2862601e-06
-1.8568304e-07
5.378085e-06
-2.459071e-07
5.4996105e-06
-3.2602828e-07
5.6591146e-06
-4.2816532e-07
5.8787383e-06
-5.8976562e-07
6.1874838e-06
-8.3273231e-07
6.5717145e-06
-1.0359706e-06
7.0093514e-06
-1.1776745e-06
7.5036401e-06
-1.3286731e-06
8.065808e-06
-1.5111693e-06
8.7108029e-06
-1.7344707e-06
9.4558709e-06
-2.0049651e-06
1.0322483e-05
-2.3344122e-06
1.1326025e-05
-2.7076123e-06
1.244755e-05
-3.0285498e-06
1.3624713e-05
-3.1794036e-06
1.4696026e-05
-2.8874983e-06
1.5338226e-05
-1.7046037e-06
1.4923471e-05
1.234884e-06
1.3067814e-05
5.2320001e-06
1.0150685e-05
8.0652171e-06
7.0252871e-06
8.4951298e-06
3.8728029e-06
8.454688e-06
1.7506097e-06
5.5787742e-06
-4.542264e-07
5.745779e-06
-9.5021215e-07
1.2290209e-06
-1.949039e-06
2.4783276e-06
3.7022527e-07
-2.2711686e-06
-7.9674171e-07
-2.6126196e-06
1.0860471e-06
-1.7996374e-06
-2.5277582e-06
-2.0530183e-06
6.9567802e-07
-1.664653e-06
-1.2654277e-06
-2.0810868e-06
1.185463e-06
-1.9172157e-06
-5.8857551e-07
-1.8021468e-06
-4.5002549e-07
-1.5023979e-06
-9.6545597e-07
-1.4382261e-06
-2.1370465e-07
-1.3684034e-06
-2.1355018e-07
-1.3517503e-06
-5.4278131e-08
-1.4040865e-06
1.7592366e-07
-1.585132e-06
5.8288425e-07
-1.681416e-06
3.2319135e-07
-1.3129826e-06
-1.18054e-06
2.6604183e-07
-5.0286859e-06
3.0155695e-06
-8.7192758e-06
5.924962e-06
-9.2006404e-06
7.6202346e-06
-5.2248865e-06
6.7350416e-06
3.1479623e-06
3.6784975e-06
9.9240985e-06
1.1137736e-06
7.9850499e-06
6.3712849e-07
1.2826799e-06
1.3785942e-06
-2.4241459e-06
2.3671093e-06
-3.1652941e-06
3.0562023e-06
-2.2132168e-06
3.3000085e-06
-8.6230356e-07
3.0066088e-06
6.9475581e-07
1.6436218e-06
3.9783728e-06
-6.7307351e-07
7.0164872e-06
-3.4006382e-06
8.4288959e-06
-6.2084172e-06
8.7837316e-06
-8.8780047e-06
8.4348539e-06
-1.1278843e-05
7.6577165e-06
-1.3304434e-05
6.5184324e-06
-1.4904622e-05
5.1936151e-06
-1.6100478e-05
3.9239462e-06
-1.6928723e-05
2.7616336e-06
1.6920127e-06
2.7829775e-06
2.6977579e-07
2.6997364e-06
2.6402514e-07
2.6188782e-06
2.5695006e-07
2.5407165e-06
2.4874995e-07
2.4654744e-06
2.397002e-07
2.3932872e-06
2.300681e-07
2.3241647e-06
2.2025493e-07
2.2579833e-06
2.1067819e-07
2.1944815e-06
2.0179084e-07
2.133275e-06
1.9398749e-07
2.0738542e-06
1.8768835e-07
2.0155948e-06
1.8327115e-07
1.9577861e-06
1.8102915e-07
1.8996506e-06
1.8119613e-07
1.8403675e-06
1.839248e-07
1.7790863e-06
1.893302e-07
1.7149594e-06
1.9741347e-07
1.6471687e-06
2.0809736e-07
1.574937e-06
2.2126027e-07
1.4975494e-06
2.3671221e-07
1.4143676e-06
2.5421194e-07
1.3248626e-06
2.734135e-07
1.2285986e-06
2.9401964e-07
1.1252797e-06
3.1557978e-07
1.0146994e-06
3.3780362e-07
8.9685655e-07
3.6003301e-07
7.7179721e-07
3.8211374e-07
6.3987675e-07
4.0305782e-07
5.0138553e-07
4.2306361e-07
3.5716406e-07
4.4039129e-07
2.0769916e-07
4.5615533e-07
5.4445066e-08
4.6732695e-07
-1.0219443e-07
4.7711781e-07
-2.5983656e-07
4.7940196e-07
-4.1809695e-07
4.8039742e-07
-5.732023e-07
4.6969386e-07
-7.2504659e-07
4.5852962e-07
-8.684803e-07
4.3159114e-07
-1.004187e-06
4.066658e-07
-1.1256923e-06
3.620621e-07
-1.2359589e-06
3.266695e-07
-1.3259967e-06
2.6389936e-07
-1.4029893e-06
2.2362611e-07
-1.4460441e-06
1.17827e-07
-1.4506002e-06
-1.0967257e-08
-1.5239777e-06
2.0769397e-07
-1.6750803e-06
4.5022455e-07
-1.9433533e-06
8.1599071e-07
-2.4505315e-06
1.5801388e-06
-3.2215711e-06
2.4682533e-06
-3.9554523e-06
2.4160831e-06
-4.2312147e-06
9.8548319e-07
-3.9051957e-06
-9.4631421e-07
-3.1007518e-06
-2.4988349e-06
-2.0265358e-06
-3.3782714e-06
-8.4833636e-07
-3.7186442e-06
2.5851533e-07
-3.5056075e-06
1.189065e-06
-2.9525279e-06
1.9669833e-06
-2.4609917e-06
2.6345089e-06
-2.1048286e-06
3.2215034e-06
-1.8469673e-06
3.7381182e-06
-1.622186e-06
4.1883797e-06
-1.4104614e-06
4.5792871e-06
-1.2213305e-06
4.9182209e-06
-1.0561587e-06
5.2127379e-06
-9.1534204e-07
5.4696136e-06
-7.9633156e-07
5.6940987e-06
-6.9412416e-07
5.890249e-06
-6.0491767e-07
6.0597519e-06
-5.2112032e-07
6.2029788e-06
-4.3878932e-07
6.313522e-06
-3.3624588e-07
6.3799777e-06
-1.9593871e-07
6.4126823e-06
-8.9606237e-08
6.4328453e-06
-5.2715698e-08
6.451488e-06
-5.0263432e-08
6.4750435e-06
-6.7553582e-08
6.508428e-06
-9.9794378e-08
6.5553615e-06
-1.4360759e-07
6.6201533e-06
-2.0041326e-07
6.707964e-06
-2.734937e-07
6.8236715e-06
-3.6161464e-07
6.9765299e-06
-4.7888659e-07
7.1771774e-06
-6.2881284e-07
7.4530283e-06
-8.6561647e-07
7.8396534e-06
-1.2193575e-06
8.3209186e-06
-1.5172359e-06
8.8701733e-06
-1.7269293e-06
9.4907868e-06
-1.9492866e-06
1.0196984e-05
-2.2173669e-06
1.1006689e-05
-2.5441749e-06
1.1941559e-05
-2.9398354e-06
1.3027678e-05
-3.420531e-06
1.4283765e-05
-3.9636997e-06
1.568644e-05
-4.4312244e-06
1.7158552e-05
-4.6515158e-06
1.8501709e-05
-4.2306548e-06
1.9317974e-05
-2.5208688e-06
1.8848335e-05
1.7045228e-06
1.6615747e-05
7.4645879e-06
1.3048034e-05
1.163293e-05
9.1621903e-06
1.2380974e-05
5.2031969e-06
1.2413682e-05
2.4770643e-06
8.3049067e-06
-3.5286089e-07
8.5757042e-06
-1.0444634e-06
1.9206234e-06
-2.357197e-06
3.7910611e-06
4.955593e-07
-2.6628662e-06
-1.0252683e-06
-3.0644845e-06
1.4876653e-06
-2.0866575e-06
-3.5055853e-06
-2.4092244e-06
1.0182449e-06
-1.9613195e-06
-1.7133326e-06
-2.493954e-06
1.7180974e-06
-2.3219526e-06
-7.6057691e-07
-2.2034494e-06
-5.6852872e-07
-1.8501792e-06
-1.3187261e-06
-1.7738079e-06
-2.9007595e-07
-1.6891596e-06
-2.981985e-07
-1.6681822e-06
-7.5254956e-08
-1.7293939e-06
2.3713475e-07
-1.944488e-06
7.9797855e-07
-2.0563327e-06
4.3503586e-07
-1.6154028e-06
-1.6214702e-06
2.802266e-07
-6.9243151e-06
3.5926142e-06
-1.2031663e-05
7.1069826e-06
-1.2715009e-05
9.193284e-06
-7.3111879e-06
8.218619e-06
4.1226272e-06
4.6004057e-06
1.3542312e-05
1.4758467e-06
1.1109609e-05
8.3795786e-07
1.9205688e-06
1.70699e-06
-3.2931781e-06
2.8894736e-06
-4.3477777e-06
3.7113639e-06
-3.0351071e-06
3.9797873e-06
-1.1307272e-06
3.5610077e-06
1.1135356e-06
1.82147e-06
5.7179109e-06
-1.061522e-06
9.8994789e-06
-4.4078267e-06
1.1775201e-05
-7.8227391e-06
1.2198644e-05
-1.1046509e-05
1.1658623e-05
-1.3925886e-05
1.0537094e-05
-1.6339626e-05
8.9321724e-06
-1.8234256e-05
7.0882448e-06
-1.9638596e-05
5.3282862e-06
-2.0599491e-05
3.7225291e-06
2.2498342e-06
3.4736176e-06
3.7275403e-07
3.3732024e-06
3.6444038e-07
3.2757759e-06
3.5437653e-07
3.1816806e-06
3.428453e-07
3.0911481e-06
3.3023269e-07
3.0043013e-06
3.1691488e-07
2.9211135e-06
3.0344281e-07
2.8413973e-06
2.9039436e-07
2.764802e-06
2.7838611e-07
2.6908318e-06
2.6795767e-07
2.6188446e-06
2.5967555e-07
2.5480649e-06
2.540509e-07
2.4776169e-06
2.5147716e-07
2.4065497e-06
2.5226333e-07
2.3338643e-06
2.566102e-07
2.2585305e-06
2.6466392e-07
2.1795247e-06
2.7641933e-07
2.0958615e-06
2.917606e-07
2.0066071e-06
3.1051466e-07
1.9109042e-06
3.324151e-07
1.8079881e-06
3.5712805e-07
1.6972255e-06
3.8417608e-07
1.5780949e-06
4.1315026e-07
1.4502411e-06
4.4343359e-07
1.3134158e-06
4.7462891e-07
1.1676146e-06
5.0583423e-07
1.0128916e-06
5.3683681e-07
8.4966738e-07
5.66282e-07
6.782892e-07
5.944418e-07
4.997589e-07
6.189216e-07
3.1466349e-07
6.4125075e-07
1.247558e-07
6.5723465e-07
-6.9491385e-08
6.7136501e-07
-2.6523341e-07
6.75144e-07
-4.6198761e-07
6.7715163e-07
-6.5517923e-07
6.6288548e-07
-8.4464552e-07
6.4799592e-07
-1.0241192e-06
6.1106482e-07
-1.1943402e-06
5.7688687e-07
-1.3474342e-06
5.151561e-07
-1.4867968e-06
4.6603209e-07
-1.6015759e-06
3.7867847e-07
-1.7001072e-06
3.2215742e-07
-1.7575648e-06
1.7528458e-07
-1.7701244e-06
1.592364e-09
-1.8656958e-06
3.0326532e-07
-2.0557341e-06
6.4026287e-07
-2.3886006e-06
1.1488572e-06
-3.0066848e-06
2.1982231e-06
-3.9284411e-06
3.3900096e-06
-4.7879624e-06
3.2756044e-06
-5.0899928e-06
1.2875135e-06
-4.6732065e-06
-1.3631004e-06
-3.689527e-06
-3.4825144e-06
-2.3873076e-06
-4.6804907e-06
-9.6286228e-07
-5.1430896e-06
3.7178024e-07
-4.84025e-06
1.4925173e-06
-4.073265e-06
2.4317025e-06
-3.4001769e-06
3.2395056e-06
-2.9126317e-06
3.9509528e-06
-2.5584145e-06
4.5780662e-06
-2.2492994e-06
5.1255869e-06
-1.957982e-06
5.6018392e-06
-1.6975829e-06
6.0155985e-06
-1.4699179e-06
6.375753e-06
-1.2754966e-06
6.6905357e-06
-1.1111143e-06
6.9661533e-06
-9.6974175e-07
7.2073683e-06
-8.4613263e-07
7.4162982e-06
-7.300502e-07
7.5933012e-06
-6.1579233e-07
7.7306938e-06
-4.7363844e-07
7.8151502e-06
-2.8039513e-07
7.8585514e-06
-1.3300744e-07
7.8860439e-06
-8.0208198e-08
7.9110668e-06
-7.5286299e-08
7.9415784e-06
-9.8065218e-08
7.9834683e-06
-1.416843e-07
8.0416345e-06
-2.0177373e-07
8.1210298e-06
-2.7980856e-07
8.2281977e-06
-3.806616e-07
8.3690857e-06
-5.0250267e-07
8.5549252e-06
-6.6472604e-07
8.7986667e-06
-8.7255439e-07
9.1334151e-06
-1.2003648e-06
9.6011636e-06
-1.687106e-06
1.0183592e-05
-2.0996639e-06
1.0849319e-05
-2.3926562e-06
1.1602425e-05
-2.7023929e-06
1.2459084e-05
-3.0740262e-06
1.3441318e-05
-3.5264083e-06
1.4574383e-05
-4.0729009e-06
1.5889265e-05
-4.735413e-06
1.740795e-05
-5.4823852e-06
1.9102524e-05
-6.1257983e-06
2.0880898e-05
-6.4298889e-06
2.2507729e-05
-5.8574867e-06
2.3511536e-05