/*--------------------------------*- C++ -*----------------------------------*\
| =========                 |                                                 |
| \\      /  F ield         | OpenFOAM: The Open Source CFD Toolbox           |
|  \\    /   O peration     | Version:  2.4.0                                 |
|   \\  /    A nd           | Web:      www.OpenFOAM.org                      |
|    \\/     M anipulation  |                                                 |
\*---------------------------------------------------------------------------*/
FoamFile
{
    version     2.0;
    format      ascii;
    class       volVectorField;
    location    "10";
    object      U;
}
// * * * * * * * * * * * * * * * * * * * * * * * * * * * * * * * * * * * * * //

dimensions      [0 1 -1 0 0 0 0];

internalField   nonuniform List<vector> 
32000
(
(0.0053654754 1.9804227e-05 -2.4520877e-20)
(-0.013157576 -8.7513214e-06 -3.6065689e-21)
(0.0034377352 -0.00011244312 -7.2179308e-21)
(-0.004115483 0.00031533813 -2.0260045e-19)
(-0.0015954425 0.00021921188 5.1634529e-19)
(-0.0056749334 0.0013791118 1.8904493e-18)
(-0.0043900885 0.0015525017 -7.2819952e-19)
(-0.0043931064 0.0020818044 -4.4785723e-19)
(-0.0037730381 0.0021585892 -3.7708202e-18)
(-0.0031961875 0.0020914527 1.9580025e-18)
(-0.0013129493 0.00095650096 2.0261e-18)
(0.0021961393 -0.001630046 4.5718736e-18)
(0.0073454652 -0.0057762514 4.8371801e-18)
(0.011867724 -0.0096956423 3.2129649e-18)
(0.011492751 -0.0096709009 -3.0508917e-20)
(0.005614573 -0.0047721632 1.9535314e-18)
(0.0022173851 -0.0018195368 2.7227773e-19)
(0.0054165724 -0.0044619764 -1.6112258e-18)
(0.0069007584 -0.005540903 -1.9141781e-18)
(0.0053147909 -0.0040786196 -3.0446127e-18)
(0.0012339807 -0.00070075398 -2.0762659e-18)
(-0.0048255769 0.004114757 2.0790185e-18)
(-0.011159822 0.0089755022 8.2117968e-18)
(-0.017305604 0.013572351 -2.4238236e-18)
(-0.022559619 0.01741318 -3.1791664e-18)
(-0.026662987 0.020355927 7.9578887e-18)
(-0.029295951 0.022202228 -4.116622e-18)
(-0.030375418 0.022831078 -4.1185281e-18)
(-0.030180733 0.022394506 2.9603424e-18)
(-0.029046132 0.021163639 -6.1301931e-18)
(-0.027308588 0.019422695 6.4457874e-19)
(-0.02525003 0.017412266 -3.0283213e-18)
(-0.023093838 0.015321891 -3.3947829e-18)
(-0.020986298 0.013274682 1.6649564e-18)
(-0.019017701 0.011341617 2.6472935e-18)
(-0.017254889 0.0095744739 -9.6820793e-19)
(-0.015727852 0.0080167115 2.6491629e-19)
(-0.014372795 0.006658574 4.8575279e-19)
(-0.013120795 0.0054536272 -5.4788431e-19)
(-0.011950785 0.0043837102 1.3151892e-19)
(-0.010829155 0.0034315056 6.8772534e-20)
(-0.0097362929 0.0025889516 1.028072e-19)
(-0.0086246435 0.0018449569 -4.3781336e-21)
(-0.0074933265 0.001207004 9.0915944e-21)
(-0.0062278151 0.00066954563 -1.0436745e-19)
(-0.0049318936 0.00026377796 -5.0633242e-21)
(-0.0031770166 2.0309061e-05 2.6111235e-21)
(-0.0011140817 -8.6009043e-07 -1.861418e-24)
(0.00072137523 -1.8475294e-06 2.8278889e-23)
(0.002364659 -2.5444967e-06 -2.8840697e-23)
(0.0037832209 -3.1124522e-06 1.8980703e-23)
(0.0050309471 -3.4707516e-06 -4.4691065e-24)
(0.0061013514 -3.6973198e-06 -3.1951615e-23)
(0.0070218705 -3.7863888e-06 1.9262493e-23)
(0.007802722 -3.7940175e-06 -2.9851301e-25)
(0.0084627036 -3.7175641e-06 6.8006934e-24)
(0.0090153701 -3.6006804e-06 -6.8639746e-24)
(0.0094752666 -3.4428382e-06 2.2738414e-23)
(0.0098545874 -3.262892e-06 -1.2655338e-24)
(0.010164585 -3.0685843e-06 -2.0324266e-23)
(0.010414981 -2.8735026e-06 5.2639297e-24)
(0.01061436 -2.6630042e-06 -3.2865029e-24)
(0.010770019 -2.4688849e-06 -5.8098642e-24)
(0.010888259 -2.2677872e-06 -4.0200328e-26)
(0.010974395 -2.0843944e-06 -4.6645116e-24)
(0.011032941 -1.9086507e-06 -4.0415719e-24)
(0.011067709 -1.7443263e-06 6.5484839e-24)
(0.011081925 -1.5836039e-06 -2.7408247e-24)
(0.011078503 -1.4392984e-06 9.2012078e-24)
(0.01106014 -1.2967587e-06 -3.2701298e-25)
(0.011028462 -1.1699515e-06 8.9869563e-25)
(0.010984755 -1.0438292e-06 -1.4683082e-24)
(0.010930056 -9.3297267e-07 6.9071929e-25)
(0.010865261 -8.1860235e-07 -3.4355077e-25)
(0.010791123 -7.1552082e-07 -1.8524541e-24)
(0.010708293 -6.1523422e-07 -1.3146576e-24)
(0.010617372 -5.2290116e-07 1.1754555e-24)
(0.010518901 -4.3094894e-07 -3.4960388e-25)
(0.010413413 -3.5224334e-07 6.609072e-25)
(0.01030143 -2.6674389e-07 -5.1846256e-26)
(0.010183468 -1.9819413e-07 -3.5864851e-26)
(0.010060045 -1.2383059e-07 -1.3161916e-25)
(0.0099317713 -6.2648357e-08 -7.625214e-28)
(0.0097991937 -8.6700907e-10 7.300035e-26)
(0.0096628274 5.4039292e-08 1.215063e-25)
(0.009523352 1.0556053e-07 -7.1812407e-25)
(0.0093813355 1.5515245e-07 4.2106865e-25)
(0.0092373219 1.9727174e-07 5.7397784e-25)
(0.0090919728 2.3800129e-07 -2.7802892e-25)
(0.0089458344 2.7446545e-07 1.6229525e-25)
(0.0087994207 3.0793894e-07 1.7899454e-25)
(0.0086533064 3.3806669e-07 -7.5946555e-25)
(0.0085079356 3.6083631e-07 7.2408375e-25)
(0.0083637551 3.8500479e-07 -1.4918008e-24)
(0.0082212454 4.0272006e-07 1.8291574e-25)
(0.0080807379 4.1746349e-07 1.40229e-25)
(0.007942527 4.2997715e-07 -1.1952939e-26)
(0.0078069955 4.4006759e-07 1.6556653e-25)
(0.0076743592 4.4583163e-07 2.8443275e-25)
(0.0075447617 4.4927792e-07 -2.2518406e-26)
(0.0074184701 4.4811425e-07 -6.4680415e-26)
(0.0072955465 4.4699801e-07 -1.5086243e-25)
(0.00717597 4.4178322e-07 6.0174069e-25)
(0.007059865 4.339735e-07 1.2878776e-25)
(0.0069471564 4.2404494e-07 3.3231593e-25)
(0.0068376536 4.1209932e-07 6.5225835e-26)
(0.0067313524 3.9720949e-07 9.8742218e-27)
(0.0066280402 3.8167726e-07 -9.6849715e-25)
(0.0065273931 3.6404137e-07 -1.2002679e-24)
(0.0064292785 3.4482331e-07 1.0089064e-25)
(0.0063333371 3.2456239e-07 2.8768147e-24)
(0.0062391598 3.0470462e-07 -4.7743743e-26)
(0.0061464364 2.8291098e-07 1.7289434e-25)
(0.0060546367 2.6074607e-07 -2.3671968e-24)
(0.0059633629 2.3795578e-07 1.2651498e-25)
(0.0058721163 2.1722309e-07 1.9755241e-25)
(0.0057802322 1.9464111e-07 2.3099358e-24)
(0.0056872799 1.7273908e-07 -2.0730292e-24)
(0.0055926566 1.5097097e-07 -1.8683027e-24)
(0.0054956361 1.2882023e-07 2.1202637e-24)
(0.0053957297 1.0702501e-07 5.1740979e-26)
(0.0052922899 8.6254714e-08 -1.6381394e-24)
(0.0051845608 6.3793208e-08 1.4235521e-25)
(0.0050720339 4.0550807e-08 1.5847448e-25)
(0.0049540366 1.6890622e-08 1.7029712e-24)
(0.0048297798 -8.1507337e-09 -1.2496011e-25)
(0.0046987366 -3.4577268e-08 5.7863437e-26)
(0.0045602053 -6.2694733e-08 -4.5233334e-26)
(0.0044133464 -9.3658211e-08 -7.6983171e-26)
(0.0042576123 -1.2734764e-07 -9.6128646e-26)
(0.0040922097 -1.6434475e-07 -9.3158565e-25)
(0.0039162542 -2.030468e-07 6.9655615e-25)
(0.0037291147 -2.4702869e-07 -2.190109e-25)
(0.0035299116 -2.9418667e-07 2.2420132e-26)
(0.0033177948 -3.4698934e-07 4.4325693e-25)
(0.0030920081 -4.0288755e-07 -4.1493575e-18)
(0.0028517156 -4.6317242e-07 -6.0575685e-18)
(0.0025961433 -5.292394e-07 -1.0865303e-24)
(0.0023248165 -5.9990049e-07 1.0184259e-17)
(0.0020369915 -6.7651568e-07 1.2442584e-17)
(0.0017329096 -7.5791793e-07 7.5239764e-24)
(0.0014118501 -8.4427862e-07 -2.3164046e-24)
(0.0010762506 -9.3395913e-07 5.2861742e-24)
(0.00072371576 -1.0291101e-06 -2.7034749e-24)
(0.0003637145 -1.1278983e-06 -7.4990128e-24)
(-1.4718219e-05 -1.2237277e-06 1.5286584e-23)
(-0.00038080087 -1.3309781e-06 -1.266762e-23)
(-0.00077876613 -1.4045531e-06 1.8873323e-23)
(-0.0011123874 -1.5323829e-06 -3.5861208e-23)
(-0.0015245084 -1.5347818e-06 2.079699e-23)
(-0.0017549983 -1.7585065e-06 5.5522141e-24)
(-0.0021735742 -1.5219237e-06 1.3605008e-25)
(-0.0022288409 -2.2695821e-06 7.3597358e-26)
(-0.0024074567 -1.6277041e-05 -2.9099747e-21)
(-0.0028431913 -0.00015354558 -2.1054864e-19)
(-0.0033557332 -0.00036230287 -3.3335587e-20)
(-0.0044393862 -0.00071775563 7.0609892e-20)
(-0.0052102834 -0.0011211952 -6.2652517e-20)
(-0.0049318949 -0.001318037 4.1103645e-19)
(-0.003512737 -0.001113712 3.3343658e-19)
(-0.0014882738 -0.00054002875 -7.179816e-19)
(0.00056609504 0.0002488924 1.6130973e-19)
(0.0022860217 0.001078346 3.1256156e-19)
(0.003737179 0.001929468 2.9352972e-19)
(0.0049671676 0.0027856959 -9.7094663e-19)
(0.006073736 0.0036605078 -4.1499828e-19)
(0.0070658074 0.0045154167 -8.5989898e-20)
(0.0079223084 0.0053086912 -8.699291e-19)
(0.0086668204 0.0060349613 -7.256103e-19)
(0.0093196331 0.0066905222 3.451883e-19)
(0.009900639 0.0072769333 -4.8664541e-19)
(0.010418026 0.0077896596 -5.6078432e-21)
(0.010879681 0.0082266037 2.4741143e-19)
(0.011245618 0.0085525815 -1.6884848e-20)
(0.011485278 0.0087664493 -3.1426655e-20)
(0.011625173 0.0089141534 -1.8758202e-19)
(0.011781262 0.0091036401 6.8817624e-19)
(0.012008899 0.0093583309 8.21077e-20)
(0.012271871 0.0096569546 8.5819218e-19)
(0.012613697 0.010038462 1.2922255e-19)
(0.01305905 0.010524595 3.475523e-20)
(0.013651096 0.011153916 -7.4721343e-19)
(0.014429787 0.01196619 -1.3077067e-18)
(0.015617125 0.013133701 -3.696651e-19)
(0.017289253 0.014608261 2.3031811e-18)
(0.019291055 0.01618321 7.4455601e-19)
(0.021657532 0.017824851 -1.8800454e-18)
(0.024524085 0.01954718 2.3586244e-18)
(0.028041606 0.021315277 -7.3511445e-19)
(0.032382179 0.023031677 -1.2540035e-18)
(0.037614151 0.024373716 -3.9741346e-18)
(0.043098272 0.024492353 3.6627921e-18)
(0.047368765 0.022302728 -2.1533247e-18)
(0.045840255 0.01632114 2.1130912e-18)
(0.036130044 0.0088952565 -4.7635486e-20)
(0.021941069 0.0033867321 7.847923e-19)
(0.011153253 0.00093794851 3.2712584e-19)
(-0.0013271804 -1.2952713e-05 -3.2758601e-20)
(0.0018065303 9.4749395e-06 1.7640803e-21)
(-0.016429588 8.6598323e-05 5.0241432e-21)
(0.016247436 3.1246486e-05 5.7796331e-20)
(-0.036178037 -1.1926315e-05 7.3036273e-21)
(0.01147319 -0.00042424952 1.7043904e-19)
(-0.010807014 0.00091276724 5.4962172e-19)
(-0.0039682149 0.00061000384 -1.4484477e-19)
(-0.016415232 0.0040848376 -3.441226e-18)
(-0.013103557 0.0046733871 -4.6804599e-19)
(-0.01317835 0.0062840352 1.6247721e-18)
(-0.011344022 0.0065293825 2.3427739e-18)
(-0.0096147454 0.0063123639 -1.0620654e-18)
(-0.0041660262 0.002948249 -3.3477968e-18)
(0.0059924808 -0.0047350655 -5.759581e-18)
(0.020905628 -0.017045343 -9.884284e-18)
(0.034162003 -0.028683874 -7.7948705e-19)
(0.033748034 -0.028820263 2.3463084e-18)
(0.017265692 -0.014615233 -5.7631241e-18)
(0.0070035843 -0.0057722476 -8.7964248e-18)
(0.015796342 -0.013326545 -8.7126273e-19)
(0.019716613 -0.016296594 -4.9475996e-18)
(0.01426195 -0.011509938 -3.2453233e-18)
(0.0014097494 -0.0009562761 -9.8350288e-18)
(-0.01674416 0.013590202 6.153323e-18)
(-0.035294848 0.028077898 -1.0533133e-17)
(-0.052922173 0.041593079 -2.7536662e-18)
(-0.067718573 0.052749589 -4.4720553e-18)
(-0.079023898 0.061163877 -2.8303578e-18)
(-0.08605473 0.066317939 1.5573135e-17)
(-0.088689293 0.06791687 1.5202852e-17)
(-0.087776347 0.066433744 -5.6541512e-18)
(-0.084264306 0.062661153 8.5118002e-18)
(-0.079103257 0.057429111 1.2424073e-18)
(-0.073081956 0.051436935 1.0620984e-18)
(-0.0668201 0.045231884 1.865003e-18)
(-0.060722846 0.039168799 -1.7662266e-18)
(-0.055039346 0.033451596 -6.1563911e-19)
(-0.049949221 0.028227224 2.4739463e-18)
(-0.045526276 0.023617725 -1.0914715e-18)
(-0.041588853 0.019596025 -4.5906301e-19)
(-0.03794255 0.016028346 -4.5668602e-20)
(-0.034523738 0.012860344 9.1806325e-20)
(-0.03123508 0.010041543 -1.1791443e-19)
(-0.02801829 0.0075479794 -1.3017962e-19)
(-0.024736163 0.0053485475 1.497911e-21)
(-0.021383866 0.0034647123 -1.5127017e-20)
(-0.017630396 0.0018833823 5.466793e-20)
(-0.013775167 0.00069245305 5.1574431e-21)
(-0.0085511488 -1.7548474e-05 5.926446e-22)
(-0.0024674309 -7.3598305e-05 -1.3064949e-23)
(0.0028930884 -6.577999e-05 4.4129762e-23)
(0.0076889164 -5.7952067e-05 -5.4594544e-23)
(0.011836795 -5.0851259e-05 1.415828e-23)
(0.015490888 -4.4396009e-05 4.2846303e-23)
(0.018633364 -3.8393558e-05 -3.3008906e-23)
(0.021342048 -3.3002372e-05 2.2879262e-24)
(0.023646458 -2.8154804e-05 2.211954e-24)
(0.025599981 -2.3873699e-05 7.1709717e-24)
(0.02724145 -2.0107206e-05 -3.1756542e-24)
(0.028612382 -1.6824877e-05 6.4182963e-24)
(0.029747799 -1.3972434e-05 -3.8520902e-23)
(0.030680009 -1.1504335e-05 4.08754e-23)
(0.03143699 -9.377183e-06 4.8488208e-24)
(0.032043574 -7.5428946e-06 -3.3075334e-23)
(0.032520847 -5.9608499e-06 1.074241e-23)
(0.032887078 -4.594752e-06 -6.2803916e-24)
(0.033157728 -3.4195536e-06 1.5449145e-23)
(0.03334592 -2.4072501e-06 -5.1123427e-24)
(0.033462794 -1.5271849e-06 -7.9448659e-24)
(0.03351778 -7.5659779e-07 1.5407036e-24)
(0.033519389 -1.1121777e-07 1.0901006e-23)
(0.033475671 4.578627e-07 2.3237486e-25)
(0.033391406 9.7183934e-07 -1.3661089e-23)
(0.033270366 1.4348419e-06 1.3685098e-23)
(0.033115573 1.8626899e-06 -1.2290841e-23)
(0.032929675 2.260519e-06 7.7157211e-24)
(0.032714908 2.6323766e-06 -4.3109875e-24)
(0.032473205 2.9797561e-06 7.7802703e-25)
(0.032206379 3.3050768e-06 1.3050393e-24)
(0.031916069 3.608696e-06 -1.9544221e-25)
(0.031603903 3.8914119e-06 -4.891215e-26)
(0.031271495 4.1534197e-06 -1.7910926e-25)
(0.030920426 4.3943647e-06 7.9477626e-25)
(0.030552319 4.6127868e-06 3.9403498e-26)
(0.030169061 4.8086592e-06 3.0284267e-25)
(0.02977235 4.9830927e-06 1.0262832e-25)
(0.029363825 5.1334419e-06 3.1070713e-25)
(0.028945588 5.2591635e-06 -5.6495395e-25)
(0.028519421 5.3622796e-06 -8.833601e-25)
(0.028087046 5.4411338e-06 2.9703413e-25)
(0.02765052 5.4964535e-06 1.3493152e-24)
(0.027211564 5.5305534e-06 -3.410457e-24)
(0.0267718 5.5429913e-06 2.9542e-24)
(0.026333011 5.5348753e-06 -1.4664616e-24)
(0.025896597 5.5092923e-06 6.8491726e-25)
(0.025463969 5.4652071e-06 -4.9780464e-25)
(0.0250366 5.4050164e-06 3.1773631e-26)
(0.024615528 5.3319414e-06 3.8161685e-26)
(0.024201681 5.2457788e-06 -1.1504534e-25)
(0.023796205 5.1462029e-06 -4.7166876e-25)
(0.02339976 5.0402453e-06 4.6040143e-25)
(0.023012793 4.925346e-06 -5.0737381e-26)
(0.02263606 4.8040176e-06 2.2304485e-25)
(0.022269735 4.6804903e-06 2.3208902e-25)
(0.021913752 4.5549616e-06 -7.2091567e-25)
(0.02156842 4.4274461e-06 4.6354341e-26)
(0.021233486 4.3049475e-06 3.7062104e-26)
(0.02090836 4.1855677e-06 1.808534e-24)
(0.020592958 4.0698948e-06 -2.5272331e-24)
(0.020286604 3.9636437e-06 1.0289996e-24)
(0.019988308 3.8665275e-06 -2.5208593e-24)
(0.019697597 3.7775157e-06 5.3419195e-24)
(0.019413368 3.7033776e-06 -6.7705333e-24)
(0.019134367 3.6420783e-06 5.2515718e-24)
(0.018859614 3.5967561e-06 9.5307279e-25)
(0.018587518 3.5691499e-06 -7.4661199e-25)
(0.01831685 3.5580891e-06 -4.4881611e-24)
(0.018046105 3.5685745e-06 2.5602451e-24)
(0.017773315 3.6003348e-06 -1.6568672e-24)
(0.017497168 3.6509028e-06 -2.022853e-24)
(0.017215872 3.7266617e-06 5.0953266e-25)
(0.016927295 3.8256349e-06 -1.7628314e-24)
(0.016629969 3.9454364e-06 5.4201642e-24)
(0.016321986 4.0911006e-06 -4.2857028e-24)
(0.016001134 4.2614714e-06 8.3329117e-24)
(0.015665893 4.4527958e-06 -1.8008672e-24)
(0.01531428 4.6716997e-06 -6.1133689e-25)
(0.014943983 4.9152978e-06 -5.4481419e-25)
(0.01455342 5.1810034e-06 -1.233131e-24)
(0.01414051 5.4747662e-06 3.7121786e-25)
(0.013702776 5.7955119e-06 -8.4316618e-25)
(0.013238551 6.1392111e-06 -8.401896e-26)
(0.012745462 6.5145399e-06 3.2251738e-25)
(0.01222087 6.9174147e-06 -1.3878454e-25)
(0.011662828 7.3479897e-06 2.8919169e-25)
(0.011068677 7.8098487e-06 4.3629817e-25)
(0.010435817 8.3019967e-06 -1.6951434e-24)
(0.0097618911 8.8226601e-06 3.6915243e-24)
(0.0090443072 9.3726114e-06 -4.6452054e-24)
(0.008280619 9.9457954e-06 3.1995006e-24)
(0.0074692058 1.0540772e-05 6.729332e-25)
(0.0066076732 1.1146138e-05 2.1330054e-24)
(0.0056964045 1.175767e-05 1.2979055e-24)
(0.0047330352 1.2343108e-05 -5.5879945e-24)
(0.003724217 1.2915174e-05 -8.6730698e-24)
(0.0026628164 1.3381149e-05 1.0403051e-23)
(0.0015756897 1.3826539e-05 3.6893266e-24)
(0.0004311618 1.3997062e-05 -1.067406e-24)
(-0.00068235488 1.4249459e-05 -9.8214225e-24)
(-0.0018929045 1.3841508e-05 8.5235092e-25)
(-0.0029216176 1.3769334e-05 1.0900778e-24)
(-0.0041829872 1.2414602e-05 -1.0722703e-23)
(-0.0049191591 1.1634786e-05 7.5415265e-25)
(-0.0062051024 9.7644405e-06 -3.3654155e-24)
(-0.0064318241 3.6040563e-06 5.1042811e-23)
(-0.0070428115 -3.339358e-05 1.3651968e-22)
(-0.0083761198 -0.00043869145 -7.5935268e-21)
(-0.0098926316 -0.0010532459 -4.1790134e-19)
(-0.012980288 -0.0020949954 1.937087e-19)
(-0.015049911 -0.0032779043 -3.1882214e-19)
(-0.014057369 -0.0038512528 -6.1177129e-19)
(-0.0098088735 -0.003238141 -1.2251344e-18)
(-0.0038611182 -0.0015254976 1.108775e-18)
(0.0021156821 0.00082417597 1.2225758e-19)
(0.007098855 0.0032942311 -1.4367639e-18)
(0.011315498 0.0058331365 -2.6213779e-19)
(0.014901822 0.0083916851 -7.8733802e-19)
(0.018133468 0.011006339 1.6116035e-18)
(0.021034665 0.013563507 -3.5504677e-19)
(0.023548293 0.015941213 8.2160819e-19)
(0.02574216 0.018121923 6.6411088e-19)
(0.027673784 0.020093892 -7.1884457e-19)
(0.029399634 0.021860705 7.7188477e-19)
(0.03094335 0.023408703 -1.7338285e-19)
(0.032325812 0.02473021 -3.3317893e-19)
(0.033433814 0.025723481 7.7228222e-22)
(0.0341797 0.026386253 8.1242618e-20)
(0.034637068 0.026853711 7.7037914e-20)
(0.035130055 0.027439194 1.5032272e-19)
(0.035817708 0.028212612 -1.5904376e-19)
(0.036605843 0.029117941 6.4045932e-19)
(0.03761956 0.030268302 -1.2402773e-19)
(0.038931315 0.031729737 -6.0927811e-19)
(0.040666673 0.033616653 1.9399181e-18)
(0.042948693 0.036051665 8.6678616e-19)
(0.046404526 0.03953129 1.2683322e-18)
(0.051256001 0.043910567 -3.621668e-19)
(0.057086946 0.048592983 -2.5515022e-18)
(0.064003412 0.053472677 1.8683349e-18)
(0.07238683 0.058580669 1.7057004e-18)
(0.082668781 0.063805268 -5.7379488e-18)
(0.095337004 0.068844943 7.9787479e-18)
(0.11057092 0.072730379 7.8407492e-18)
(0.12657412 0.072986092 -9.8826537e-19)
(0.1391672 0.066445579 3.7972517e-18)
(0.13573593 0.048949589 8.1888117e-18)
(0.10929304 0.027204935 6.2774842e-18)
(0.069225234 0.010794445 7.6577759e-19)
(0.037307825 0.0032337231 -1.2986599e-18)
(0.00027003298 0.00013275448 -5.3147874e-20)
(0.0074723524 0.00015921186 -1.5705335e-20)
(-0.044998584 0.00022740607 5.2164836e-20)
(0.027894497 7.6730262e-06 8.9296477e-21)
(-0.056446797 -3.2694714e-06 3.969412e-21)
(0.02069858 -0.00086775278 1.6287333e-20)
(-0.015842627 0.0014385304 -9.2581883e-19)
(-0.0055576512 0.00091563462 -7.1493425e-19)
(-0.026727739 0.0067138896 3.2538902e-18)
(-0.022014953 0.0078540236 1.941223e-18)
(-0.022223464 0.010595081 7.3277557e-19)
(-0.019183087 0.011032531 1.2539487e-18)
(-0.016259922 0.010628415 6.8666499e-19)
(-0.0073359354 0.0050715923 -6.2470421e-19)
(0.0093332249 -0.0076296181 3.6283679e-18)
(0.033858131 -0.027950859 7.4504061e-18)
(0.055861357 -0.047133262 -6.3196246e-19)
(0.05603873 -0.047735664 -8.0273327e-18)
(0.029748713 -0.024985874 -5.0255142e-19)
(0.012381238 -0.010298841 4.5941356e-18)
(0.02609646 -0.022180234 9.5916248e-18)
(0.0320771 -0.02656946 3.8228283e-18)
(0.022045838 -0.017716068 2.8357788e-19)
(-0.00041698482 0.00081279942 8.5850945e-18)
(-0.030974484 0.025320061 -6.9914582e-18)
(-0.061701788 0.049328296 -1.1534685e-17)
(-0.090424602 0.071346038 6.0046999e-18)
(-0.11419065 0.089244622 2.1292424e-18)
(-0.13202235 0.10247301 1.7666582e-18)
(-0.1428175 0.11031673 -1.2254904e-17)
(-0.14652761 0.11241468 -6.3608088e-18)
(-0.14458542 0.10958945 5.2319979e-18)
(-0.13852025 0.10312464 1.0397161e-18)
(-0.12986588 0.094363508 3.5644903e-18)
(-0.11988347 0.084428728 -6.2724757e-19)
(-0.10955695 0.07419142 3.2525746e-18)
(-0.099529336 0.064215047 1.8528675e-18)
(-0.090195301 0.054822452 -1.4645784e-18)
(-0.081833235 0.046243491 2.0092804e-19)
(-0.074547502 0.038666508 -6.6787359e-19)
(-0.068046098 0.032049672 -8.21556e-19)
(-0.062018238 0.026179896 3.4508053e-19)
(-0.056354595 0.020967209 -8.2136404e-19)
(-0.050896078 0.016330449 2.4992368e-19)
(-0.045543712 0.012230165 8.8725473e-20)
(-0.040075965 0.0086186947 -3.2377889e-21)
(-0.034478171 0.0055299716 -3.9190352e-20)
(-0.02821756 0.0029485171 3.9535873e-20)
(-0.021769787 0.0010103113 -5.6834864e-20)
(-0.013043125 -0.00013705175 4.1033676e-21)
(-0.0029671037 -0.00022254249 -4.5768041e-23)
(0.005843894 -0.00019731889 1.3313839e-23)
(0.013727825 -0.00017330155 2.7684503e-23)
(0.020561986 -0.0001513416 2.9442861e-24)
(0.026591642 -0.0001316995 -6.3969109e-24)
(0.031790472 -0.00011342236 -3.571489e-23)
(0.03628163 -9.7128982e-05 6.6682749e-23)
(0.040113468 -8.2509621e-05 -4.77595e-23)
(0.043371075 -6.9648405e-05 -1.9960142e-23)
(0.046117238 -5.8367634e-05 2.717903e-23)
(0.048418685 -4.8563876e-05 1.4108e-23)
(0.050332118 -4.0067898e-05 -1.8591101e-23)
(0.051909838 -3.2741285e-05 1.5314822e-24)
(0.053197299 -2.644378e-05 -2.529449e-23)
(0.05423493 -2.1024509e-05 3.0248801e-23)
(0.055057156 -1.6380069e-05 -7.4166866e-24)
(0.055693842 -1.2379095e-05 3.3097507e-24)
(0.056170346 -8.9383571e-06 7.760271e-25)
(0.056508212 -5.9647264e-06 -2.5589831e-23)
(0.056725782 -3.3900436e-06 3.3493536e-23)
(0.05683861 -1.1503242e-06 -3.2569221e-23)
(0.056860594 7.4491196e-07 1.2457868e-23)
(0.056805305 2.4034533e-06 1.0950602e-23)
(0.056680795 3.8928877e-06 -6.8703237e-24)
(0.056493281 5.2593348e-06 7.1439928e-25)
(0.05624775 6.5075927e-06 1.0100305e-24)
(0.055948597 7.6702162e-06 3.4964803e-24)
(0.055599555 8.7467892e-06 -4.9419176e-24)
(0.055203864 9.7544327e-06 -3.2188271e-24)
(0.054764582 1.0693179e-05 2.7828805e-24)
(0.054284497 1.15728e-05 -6.423827e-25)
(0.05376638 1.2384059e-05 1.4475568e-24)
(0.053213007 1.3142964e-05 -8.9306256e-25)
(0.052627102 1.3829895e-05 1.261186e-24)
(0.052011473 1.445831e-05 -3.400383e-25)
(0.051369373 1.5011475e-05 -5.1719167e-26)
(0.050703751 1.5503978e-05 1.1121909e-24)
(0.050017492 1.5922156e-05 -8.3579889e-25)
(0.049314219 1.6266823e-05 8.9853254e-25)
(0.048597051 1.6544714e-05 -2.7581333e-26)
(0.047869012 1.6746986e-05 -3.7856248e-25)
(0.047133665 1.6879301e-05 -7.5567737e-25)
(0.046394026 1.6946315e-05 1.3076256e-24)
(0.04565296 1.69485e-05 1.6148479e-24)
(0.044913541 1.6888684e-05 -7.0990554e-25)
(0.044178242 1.6772138e-05 -1.4414873e-24)
(0.043449539 1.6604088e-05 1.1213137e-24)
(0.042729956 1.6385253e-05 5.9300399e-25)
(0.042021319 1.612812e-05 -1.0192023e-24)
(0.041325266 1.583307e-05 6.235836e-25)
(0.040643715 1.5501924e-05 -1.0010933e-25)
(0.03997781 1.514964e-05 -2.5129679e-25)
(0.039328334 1.4775118e-05 -2.5954139e-25)
(0.038696497 1.4381217e-05 -2.6423576e-25)
(0.038082585 1.3986728e-05 -1.7083531e-25)
(0.037486492 1.3587531e-05 -2.8126802e-25)
(0.036908641 1.318675e-05 7.2245983e-25)
(0.036348574 1.2802659e-05 -1.3282331e-24)
(0.035805292 1.2432513e-05 7.449888e-25)
(0.03527854 1.2075987e-05 1.6322165e-24)
(0.034767139 1.1752225e-05 -2.2377642e-24)
(0.034269403 1.1457804e-05 -1.3099332e-24)
(0.033784427 1.1192752e-05 2.8057007e-24)
(0.033310323 1.0973756e-05 2.7564371e-24)
(0.032844957 1.0798342e-05 -1.3255131e-24)
(0.0323866 1.0672167e-05 -1.3106682e-24)
(0.031932587 1.0601412e-05 -3.994907e-24)
(0.0314808 1.0582572e-05 2.6462122e-24)
(0.031028688 1.0632026e-05 -1.1594754e-24)
(0.03057299 1.0744845e-05 2.4884284e-24)
(0.030111455 1.0917363e-05 5.7455997e-24)
(0.029641097 1.1165868e-05 -1.3162106e-24)
(0.029158396 1.1484724e-05 -9.7555556e-24)
(0.028660871 1.1868651e-05 2.2851235e-24)
(0.028145354 1.2332585e-05 -1.570476e-24)
(0.027608205 1.2869834e-05 5.4481346e-24)
(0.027046859 1.3473755e-05 1.5707951e-24)
(0.026458026 1.4161446e-05 -3.2776703e-25)
(0.025837894 1.4925757e-05 -5.4880547e-24)
(0.025183783 1.5760581e-05 2.0688087e-24)
(0.024492218 1.6683521e-05 -1.8901394e-24)
(0.023759096 1.7688932e-05 2.6091373e-24)
(0.022981556 1.8771128e-05 1.6948254e-24)
(0.022155616 1.9950875e-05 -2.0364892e-24)
(0.021276857 2.1221615e-05 -5.9318748e-25)
(0.020341902 2.2580615e-05 1.2478507e-24)
(0.019346256 2.4042435e-05 8.0386109e-25)
(0.018285468 2.5600457e-05 -3.3946427e-25)
(0.017155436 2.7255295e-05 -1.5374218e-24)
(0.015951676 2.9008166e-05 1.6558547e-24)
(0.014669891 3.0840831e-05 -1.1501431e-24)
(0.01330706 3.2750841e-05 -6.68682e-24)
(0.011858938 3.4702428e-05 2.4564049e-24)
(0.010325645 3.6688163e-05 1.0719944e-23)
(0.0087029854 3.8601848e-05 6.2872353e-24)
(0.0070010622 4.0503838e-05 -5.9852617e-24)
(0.0052082229 4.2068401e-05 -2.5040293e-23)
(0.003366922 4.3638971e-05 5.4877625e-24)
(0.0014265904 4.427865e-05 -1.2280904e-23)
(-0.00047119982 4.5375839e-05 4.2333244e-23)
(-0.0025326294 4.4110564e-05 1.1784584e-23)
(-0.0043073761 4.4496763e-05 -1.1717325e-23)
(-0.0064644064 3.9867526e-05 -1.6449907e-23)
(-0.0077740207 3.8737956e-05 -1.6122496e-23)
(-0.0099761204 3.1379594e-05 1.2542115e-23)
(-0.01045334 1.533126e-05 -1.8141594e-23)
(-0.011592892 -3.5780366e-05 6.8697973e-21)
(-0.013869773 -0.00070119404 5.3518276e-20)
(-0.016403523 -0.0017087173 4.8166403e-19)
(-0.02135441 -0.0034068248 -2.9099678e-19)
(-0.024484362 -0.0053309762 1.3800842e-19)
(-0.022600091 -0.0062511468 1.0791316e-18)
(-0.015479149 -0.0052201228 1.8613103e-19)
(-0.005652566 -0.0023690119 -1.6143993e-18)
(0.0041433839 0.0015272596 -2.0172307e-19)
(0.01229463 0.0056223438 9.301151e-19)
(0.019217811 0.0098397222 3.8251298e-19)
(0.025129947 0.014098344 5.0264214e-19)
(0.030468485 0.018451792 1.5577964e-18)
(0.035270793 0.022714455 1.1669586e-18)
(0.039447531 0.026688409 -8.9709337e-20)
(0.043106599 0.030341146 -1.1063073e-18)
(0.046339915 0.033651658 -2.8555921e-19)
(0.049237669 0.036623726 5.8268348e-19)
(0.05183823 0.039234405 4.8166006e-20)
(0.054172221 0.041468331 -5.5184705e-20)
(0.056058113 0.043162568 1.020235e-20)
(0.057353728 0.044314852 1.8767858e-20)
(0.058177103 0.045145056 5.3101378e-20)
(0.05904402 0.046156546 -8.9643714e-19)
(0.060214681 0.047466701 -1.1268731e-19)
(0.061550139 0.048997063 -5.1032453e-20)
(0.063252956 0.05092886 -1.8153227e-18)
(0.065444934 0.053374108 8.980306e-19)
(0.068333301 0.056520888 -1.3300194e-19)
(0.072132672 0.060579496 5.2762638e-19)
(0.077848923 0.066340047 -1.704199e-18)
(0.085846212 0.073562902 -3.8970623e-18)
(0.09548091 0.081298087 2.5695119e-18)
(0.10692528 0.089356631 4.3390272e-18)
(0.12078673 0.097768305 9.2642825e-19)
(0.13775871 0.10633325 9.6939597e-18)
(0.15861318 0.11453233 -6.9001115e-18)
(0.18359653 0.12075023 -1.3887614e-17)
(0.20983088 0.12100078 -5.0097901e-18)
(0.2305569 0.11016515 3.9641602e-18)
(0.22617357 0.081820355 -5.6551763e-18)
(0.18533512 0.046520451 -1.4614809e-18)
(0.12154101 0.019325175 -4.866093e-18)
(0.068382624 0.0062459835 9.8553791e-19)
(0.0069695881 0.00058588171 -2.8162302e-19)
(0.015266929 0.00051304362 -1.8849383e-21)
(-0.069847964 0.00032894517 -9.7594417e-20)
(0.040493162 -4.9367958e-05 -1.5045342e-19)
(-0.073581446 2.1108869e-05 -9.9987147e-21)
(0.031009856 -0.0014573445 -1.7246141e-19)
(-0.018894718 0.0018855718 7.3525376e-19)
(-0.0062516699 0.0011286008 -2.1654904e-20)
(-0.03645086 0.0092460078 -1.1173675e-18)
(-0.031097497 0.011081461 1.0671837e-18)
(-0.031509698 0.015002999 -1.9370499e-18)
(-0.027285837 0.015657262 1.2248444e-18)
(-0.023116918 0.015025794 1.1875876e-18)
(-0.010835837 0.007328378 5.6865494e-18)
(0.012134111 -0.010257664 -6.7684163e-18)
(0.046036837 -0.038363672 2.8021397e-18)
(0.076708495 -0.064853097 -1.2434874e-18)
(0.078124326 -0.06625774 1.1721889e-18)
(0.043076408 -0.035863485 1.1493438e-17)
(0.018493571 -0.015446113 1.0451748e-18)
(0.036251777 -0.030957509 -1.9667211e-18)
(0.043836554 -0.036224452 2.2983296e-19)
(0.028446216 -0.022483999 1.0454837e-17)
(-0.0045315605 0.0048588399 -5.6748359e-18)
(-0.047691954 0.039470757 -1.7354384e-18)
(-0.090425419 0.072781216 1.1661573e-17)
(-0.12970215 0.10275531 -5.5596822e-18)
(-0.16172009 0.12670185 8.8369159e-18)
(-0.18527969 0.14398882 1.1100891e-17)
(-0.19911798 0.15383877 2.5847329e-18)
(-0.20337794 0.1559356 -3.4963746e-18)
(-0.20008334 0.15146787 -2.8065805e-18)
(-0.19130357 0.14217543 -6.0811383e-18)
(-0.17911916 0.12987882 -6.7867982e-19)
(-0.16522085 0.11608032 -2.0073542e-18)
(-0.15091736 0.10193514 -3.8006268e-18)
(-0.13706377 0.088188497 -6.5070661e-18)
(-0.12418438 0.075266176 -1.8234767e-18)
(-0.11264092 0.063467381 -6.7565662e-19)
(-0.10255351 0.053033772 1.0499774e-18)
(-0.093528462 0.043911922 1.1173863e-18)
(-0.085150316 0.035818915 1.6072524e-19)
(-0.077261433 0.028630502 4.980201e-19)
(-0.069644149 0.022237965 -2.0521044e-19)
(-0.062156925 0.01658709 -1.0743773e-19)
(-0.054501564 0.011617653 1.2617761e-21)
(-0.046646123 0.0073737845 4.0555306e-20)
(-0.037876692 0.0038440398 -7.0957273e-20)
(-0.028817461 0.0012017357 8.4970792e-20)
(-0.016582767 -0.00035052023 -6.2226823e-22)
(-0.0025837371 -0.00045839568 -6.2164419e-24)
(0.0095667961 -0.00040546918 6.1148485e-24)
(0.020450333 -0.00035676652 -7.0211777e-24)
(0.029911131 -0.00031199115 -7.4388639e-24)
(0.038272751 -0.00027206108 1.3146724e-23)
(0.045503952 -0.00023476371 4.5672006e-23)
(0.051766602 -0.00020150344 -5.9920246e-23)
(0.057127198 -0.00017157885 4.4496555e-23)
(0.061698887 -0.00014521632 -5.7196863e-23)
(0.065566721 -0.00012203351 1.3162412e-23)
(0.068820454 -0.00010184683 7.2563166e-24)
(0.071537012 -8.4312635e-05 2.5880244e-23)
(0.073787375 -6.9158819e-05 -3.6271095e-23)
(0.075633499 -5.6095943e-05 3.4786973e-23)
(0.077130586 -4.4838874e-05 -1.8965284e-24)
(0.078325831 -3.5157236e-05 4.0717266e-24)
(0.07926024 -2.6803817e-05 -2.5035575e-23)
(0.079968744 -1.9595258e-05 -1.5026297e-23)
(0.080481078 -1.3349513e-05 2.5385051e-23)
(0.080822614 -7.926348e-06 6.1687019e-24)
(0.081014918 -3.2133318e-06 -2.0452387e-23)
(0.081076975 8.2880374e-07 1.9145512e-23)
(0.081027916 4.353275e-06 -2.2195729e-23)
(0.080879461 7.5293328e-06 1.8039612e-23)
(0.080640187 1.044296e-05 -2.4047416e-24)
(0.080317035 1.3118611e-05 -1.8945318e-24)
(0.079916124 1.5608395e-05 4.3362428e-24)
(0.079442694 1.7921332e-05 -6.7025132e-24)
(0.078901313 2.0087675e-05 5.8549095e-24)
(0.078296309 2.210945e-05 -2.0688518e-24)
(0.077631662 2.4002154e-05 -7.4288919e-25)
(0.076911334 2.575558e-05 1.4795796e-24)
(0.076139321 2.7386832e-05 -1.7884487e-24)
(0.075319563 2.8874081e-05 7.4029083e-25)
(0.074456133 3.0226754e-05 2.0653624e-26)
(0.073553724 3.142435e-05 1.1332985e-25)
(0.072616643 3.2486346e-05 1.0321828e-24)
(0.071649141 3.3390493e-05 -3.4699968e-25)
(0.070656458 3.4135748e-05 8.959761e-25)
(0.069643176 3.4734445e-05 -2.2845182e-24)
(0.068613758 3.5172919e-05 2.1018042e-24)
(0.067573377 3.5458061e-05 -8.5006793e-25)