y,U_0,U_1,U_2
0,0,0,0
0.00048240845,0.0070116179,1.4637112e-06,-6.057541e-24
0.00098049384,0.01418489,5.2437666e-06,-3.2704887e-24
0.0014947656,0.021586041,1.1982122e-05,4.4100016e-24
0.0020257498,0.029226533,2.1928574e-05,3.3275587e-24
0.0025739895,0.037118329,3.5310003e-05,8.113798e-24
0.0031400454,0.045274421,5.2443275e-05,8.2289926e-24
0.0037244966,0.053708928,7.3672179e-05,2.6429068e-24
0.0043279408,0.062437175,9.9369267e-05,6.1765424e-24
0.0049509953,0.071475751,0.00012994012,4.567836e-24
0.0055942973,0.080842514,0.00016582638,-1.4986954e-23
0.0062585048,0.090556521,0.00020750767,-2.6932248e-23
0.0069442972,0.10063784,0.00025550264,-2.4753877e-23
0.007652376,0.11110723,0.00031036811,-2.0016198e-23
0.0083834654,0.12198553,0.00037269522,1.2984889e-24
0.0091383131,0.13329295,0.00044310175,1.4425202e-23
0.0099176913,0.14504802,0.00052221909,7.4028753e-24
0.010722397,0.15726637,0.00061067317,-1.4698827e-23
0.011553254,0.1699595,0.00070905959,-3.7133923e-23
0.012411111,0.18313363,0.00081791387,-1.8031717e-23
0.013296846,0.19678894,0.00093767988,-1.7018252e-24
0.014211364,0.21091929,0.0010686905,-4.4658456e-24
0.015155603,0.22551272,0.0012111431,2.9161883e-24
0.016130526,0.24055329,0.0013650014,-7.935801e-24
0.017137132,0.25604211,0.001530209,2.5987689e-24
0.018176449,0.27200167,0.0017068279,-1.361516e-23
0.019249542,0.28843863,0.0018946779,-4.7481768e-23
0.020357507,0.30533691,0.0020933499,-3.9838747e-23
0.021501477,0.32267331,0.00230235,1.5058371e-23
0.022682624,0.34041794,0.0025210224,5.3004209e-24
0.023902154,0.35853337,0.0027485616,-5.3117757e-23
0.025161316,0.37697245,0.0029840372,-2.7834583e-23
0.026461397,0.39567457,0.0032264147,3.1150805e-23
0.027803728,0.41456087,0.0034745844,-9.9382578e-24
0.02918968,0.43353072,0.00372741,-3.4988478e-23
0.030620672,0.4524618,0.0039838218,-8.522547e-24
0.032098167,0.47121509,0.004243036,-1.2083615e-23
0.033623676,0.48964523,0.0045046544,1.0127063e-23
0.03519876,0.50762596,0.0047678503,5.7461397e-23
0.03682503,0.52516488,0.0050324447,-7.0863113e-25
0.03850415,0.542398,0.0052995471,-1.8890506e-24
0.040237836,0.55939485,0.0055689648,1.0433584e-22
0.042027862,0.57614279,0.0058400082,9.9202628e-23
0.043876059,0.59262805,0.0061126639,-5.5613555e-23
0.045784317,0.60884473,0.0063863853,-1.1459837e-22
0.047754588,0.62479437,0.0066602092,-1.0133867e-23
0.049788888,0.64046781,0.0069325629,6.939063e-23
0.051889297,0.65583799,0.0072015047,2.7836861e-23
0.054057963,0.67087369,0.0074655482,4.6685671e-23
0.056297104,0.68555252,0.0077234852,1.7132066e-24
0.058609012,0.6998593,0.0079739266,-2.5629697e-23
0.06099605,0.71377393,0.0082149771,2.0383312e-22
0.06346066,0.72726715,0.0084439896,8.5189629e-23
0.066005363,0.7403014,0.0086576775,-9.6219771e-23
0.068632762,0.75282919,0.0088522989,-2.3907168e-23
0.071345544,0.76479237,0.0090235629,5.6657297e-23
0.074146484,0.77612273,0.0091665714,4.0846441e-23
0.077038447,0.78674329,0.0092758548,7.1263504e-23
0.08002439,0.7965708,0.0093454796,-8.5763342e-24
0.083107369,0.80551976,0.0093692513,-1.7549514e-22
0.086290535,0.81350817,0.0093410269,-7.1693128e-23
0.089577146,0.82046482,0.00925513,-2.23973e-22
0.092970562,0.82633721,0.0091068266,-1.9320011e-22
0.096474255,0.83109882,0.0088927772,-1.6348225e-23
0.10009181,0.83475382,0.008611359,-8.4656999e-23
0.10382692,0.83733807,0.0082627616,-3.0146978e-22
0.10768342,0.83891657,0.0078488652,-3.4180383e-22
0.11166524,0.8395794,0.0073730684,3.1583852e-22
0.11577645,0.83943717,0.0068401807,1.9730887e-22
0.12002127,0.8386137,0.0062561268,2.6825489e-23
0.12440404,0.83723338,0.0056272026,1.2108783e-22
0.12892923,0.83540695,0.0049592125,4.7791548e-22
0.13360148,0.833223,0.004257001,3.0684432e-22
0.13842557,0.830748,0.0035244357,-3.2265259e-22
0.14340642,0.82803169,0.0027646342,3.5031906e-22
0.14854914,0.82511386,0.0019803097,-8.6019384e-23
0.15385898,0.82202973,0.0011739413,-2.3316031e-22
0.15934138,0.8188144,0.00034784926,6.7380577e-22
0.16500194,0.81550936,-0.00049445958,-5.6814417e-23
0.17084645,0.81215806,-0.0013488113,-6.5940956e-22
0.17688089,0.80879399,-0.0022127694,-1.6530238e-22
0.18311143,0.8054446,-0.0030847977,4.8602033e-22
0.18954445,0.80213724,-0.0039629198,9.30121e-22
0.19618653,0.79889707,-0.0048449623,-3.3231102e-23
0.20304445,0.79574503,-0.0057286926,1.4667882e-23
0.21012524,0.79269669,-0.0066118595,-1.8727065e-22
0.21743614,0.78976165,-0.0074921986,-4.0881923e-22
0.22498461,0.78694359,-0.0083674156,8.7765378e-22
0.23277839,0.78424057,-0.0092351561,1.3642789e-21
0.24082545,0.78164568,-0.010092969,1.2823647e-21
0.24913402,0.77914786,-0.010938269,2.8665701e-22
0.25771259,0.77673278,-0.01176831,5.0157481e-22
0.26656994,0.77438364,-0.012580155,5.2353494e-22
0.27571513,0.77208197,-0.013370668,9.7464649e-22
0.28515751,0.76980818,-0.014136507,2.4563436e-22
0.29490674,0.76754209,-0.014874133,6.2510615e-23
0.3049728,0.76526322,-0.015579826,1.0010122e-21
0.31536597,0.76295105,-0.016249707,8.5245714e-22
0.3260969,0.76058522,-0.016879783,6.4546654e-22
0.33717655,0.75814562,-0.017465978,1.0901454e-22
0.34861625,0.75561259,-0.018004192,-3.5135757e-22
0.36042772,0.75296705,-0.018490352,-6.3021537e-22
0.37262303,0.75019081,-0.018920478,5.4220185e-22
0.38521464,0.74726687,-0.019290745,-1.2313552e-22
0.39821546,0.74417984,-0.019597551,6.7026846e-22
0.41163876,0.74091646,-0.019837577,1.273378e-21
0.42549828,0.73746618,-0.020007853,-5.2358034e-22
0.4398082,0.73382186,-0.020105799,1.0920608e-21
0.45458315,0.72998041,-0.020129269,2.3485017e-21
0.46983824,0.72594348,-0.020076566,-8.8089204e-22
0.48558908,0.72171813,-0.019946446,-1.8507403e-21
0.50185179,0.71731726,-0.019738099,-1.8586346e-22
0.51864298,0.71276006,-0.019451114,3.2269324e-22
0.53597984,0.708072,-0.019085435,3.8972922e-22
0.5538801,0.70328475,-0.018641301,-2.2701498e-22
0.57236207,0.69843555,-0.018119197,-1.7027878e-21
0.59144465,0.6935664,-0.017519826,-2.3101261e-21
0.61114736,0.68872271,-0.016844098,1.3183664e-23
0.63149036,0.68395169,-0.016093183,3.0168046e-21
0.65249445,0.67930026,-0.015268609,3.3378811e-21
0.67418111,0.6748129,-0.014372417,1.8859484e-21
0.69657252,0.67052931,-0.013407393,-1.2700254e-21
0.7196916,0.66648207,-0.01237734,-1.3909508e-21
0.74356198,0.66269462,-0.011287361,1.6051405e-21
0.76820808,0.65917958,-0.010144094,3.9406688e-22
0.79365511,0.65593805,-0.008955865,-2.0904661e-21
0.8199291,0.65295935,-0.007732675,-4.7208798e-21
0.84705692,0.65022186,-0.0064858595,-6.043781e-21
0.87506632,0.64769499,-0.0052274857,8.7277799e-23
0.90398595,0.64534212,-0.0039693666,6.9603675e-21
0.93384539,0.64312465,-0.0027218228,4.4100725e-21
0.96467517,0.64100661,-0.0014920623,8.9362974e-22
0.99650683,0.63895963,-0.00028261312,2.531846e-22
1.0293729,0.63696756,0.0009096004,1.2843509e-21
1.0633071,0.63502826,0.0020936172,-6.0870107e-22
1.098344,0.63315279,0.003283052,-9.4241675e-22
1.1345196,0.63136047,0.0044931628,1.7532536e-21
1.1718707,0.62966971,0.005737082,-2.4957812e-22
1.2104356,0.6280879,0.0070216302,2.7072267e-21
1.2502538,0.62660346,0.0083447652,5.4710473e-21
1.291366,0.62518457,0.009695528,5.9188161e-21
1.3338142,0.62378599,0.011056372,8.9952795e-21
1.3776419,0.62235782,0.012405945,3.797611e-21
1.4228938,0.62084498,0.013717897,-2.6200853e-21
1.4696163,0.61916563,0.014953536,5.4786511e-22
1.5178571,0.6171914,0.016040092,8.3546071e-21
1.566098,0.61478394,0.016859488,3.7057708e-21
1.6128205,0.61188781,0.017305446,-5.5831365e-21
1.6580724,0.60864014,0.017338829,3.1591528e-22
1.7019001,0.60543735,0.016994304,6.239033e-21
1.7443483,0.60287645,0.016377083,9.0244634e-22
1.7854605,0.60158028,0.015638844,-1.4080558e-21
1.8252786,0.60197593,0.014935008,2.2908197e-22
1.8638436,0.60411951,0.01438329,-2.3418703e-21
1.9011947,0.60766011,0.014041971,-3.9603656e-21
1.9373703,0.61196721,0.013915526,-2.0099225e-21
1.9724072,0.61634587,0.013976163,-1.13705e-21
2.0063413,0.62022261,0.014185336,-1.4245995e-21
2.0392075,0.62323006,0.01450501,5.635529e-22
2.0710391,0.62518766,0.014898011,1.703724e-21
2.1018689,0.6260271,0.015321107,3.5818312e-22
2.1317283,0.62573028,0.015718265,-1.9592218e-21
2.160648,0.6243246,0.01602108,2.5964643e-22
2.1886574,0.62192629,0.016159001,-1.0575077e-22
2.2157852,0.61878113,0.016074731,-2.4798842e-21
2.2420592,0.6152571,0.015736931,-1.3119775e-21
2.2675062,0.61178608,0.015144681,-3.7178177e-22
2.2921523,0.60878777,0.01432399,1.1701357e-22
2.3160227,0.60661246,0.013320484,2.737051e-22
2.3391418,0.60551716,0.012192382,2.156912e-21
2.3615332,0.60566685,0.011005138,2.9448372e-21
2.3832198,0.60714129,0.0098267099,2.9772963e-21
2.4042239,0.60993113,0.0087220106,8.5268359e-23
2.4245669,0.61392099,0.0077462028,-1.0184904e-21
2.4442696,0.61887756,0.0069381412,2.5248197e-21
2.4633522,0.62446683,0.0063161092,1.4006469e-21
2.4818342,0.63030983,0.0058775634,-1.2077893e-21
2.4997344,0.63606187,0.0056033506,-5.4362659e-22
2.5170713,0.64148336,0.0054653089,-5.0092734e-22
2.5338625,0.64646894,0.0054345399,8.000853e-22
2.5501252,0.65102188,0.0054867562,1.8501916e-21
2.565876,0.6551962,0.0056027829,1.9517281e-21
2.5811311,0.65905064,0.0057661701,2.7352282e-21
2.5959061,0.66263555,0.0059615091,2.6225855e-24
2.610216,0.66599748,0.0061743875,-3.2018937e-21
2.6240755,0.66918307,0.0063918268,-1.5445624e-21
2.6374988,0.6722383,0.0066025093,-5.2369274e-22
2.6504996,0.67520536,0.006796792,-6.7947189e-22
2.6630913,0.67811975,0.006966674,4.5570016e-23
2.6752866,0.68100863,0.0071057741,-3.1364497e-22
2.687098,0.68389074,0.0072093348,3.7229198e-22
2.6985377,0.68677738,0.0072742179,5.24588e-22
2.7096174,0.68967427,0.007298844,1.3812844e-22
2.7203483,0.69258331,0.0072830486,3.122165e-22
2.7307415,0.69550434,0.0072278994,-4.2450081e-22
2.7408075,0.69843636,0.0071354494,-5.2478834e-22
2.7505568,0.70137833,0.0070084529,-1.1337211e-21
2.7599992,0.70432927,0.0068501021,4.2245411e-22
2.7691443,0.70728825,0.0066637893,1.5461439e-21
2.7780017,0.71025427,0.0064529632,-1.3500553e-22
2.7865803,0.71322613,0.0062210329,-2.1520957e-22
2.7948888,0.71620238,0.0059712482,-2.2296255e-22
2.8029359,0.71918114,0.005706592,-1.4343681e-22
2.8107297,0.7221597,0.0054297491,6.1266159e-22
2.8182781,0.72513455,0.0051431426,3.4479335e-22
2.825589,0.72810188,0.0048489511,7.0912535e-22
2.8326698,0.73105797,0.0045491368,2.1144352e-22
2.8395278,0.73399938,0.0042455112,-1.1090759e-21
2.8461698,0.73692311,0.0039397587,1.1952017e-22
2.8526028,0.73982694,0.0036334663,5.1276784e-22
2.8588334,0.74270968,0.0033281862,3.2608373e-22
2.8648678,0.74557132,0.003025433,1.0771668e-22
2.8707123,0.74841301,0.0027268718,-4.637397e-22
2.8763729,0.75123596,0.0024348049,-5.0726606e-22
2.8818553,0.75403629,0.0021520764,-2.2676845e-24
2.8871651,0.75679705,0.0018816035,-2.7454858e-22
2.8923079,0.7594864,0.0016257896,-4.6743449e-22
2.8972887,0.76206337,0.0013861321,5.9939642e-22
2.9021128,0.76447876,0.0011635913,6.9434476e-22
2.9067851,0.76666628,0.00095935244,1.929661e-22
2.9113102,0.7685289,0.00077508827,3.3470186e-22
2.915693,0.76992239,0.00061258056,6.9490006e-22
2.9199378,0.77064088,0.00047365159,3.2216301e-22
2.924049,0.77043262,0.00035989809,-4.3029077e-22
2.9280309,0.76906242,0.000271475,-3.5748362e-22
2.9318874,0.76638397,0.00020628171,2.906162e-22
2.9356225,0.76237827,0.00016037839,-1.8013987e-22
2.93924,0.75714173,0.00012878643,-3.9582327e-22
2.9427437,0.75084008,0.00010638345,-6.3874986e-23
2.9461371,0.74366098,8.8639862e-05,1.3601551e-22
2.9494237,0.73578196,7.1973514e-05,-9.7069684e-23
2.9526069,0.727355,5.3735573e-05,-3.2862263e-22
2.9556899,0.71850249,3.208098e-05,1.5057612e-22
2.9586758,0.70931401,6.6340517e-06,1.8171997e-22
2.9615678,0.69980189,-2.1865033e-05,4.6982847e-23
2.9643687,0.68991524,-5.246833e-05,-8.0469472e-23
2.9670815,0.67965383,-8.4405852e-05,-5.1472404e-23
2.9697089,0.66907928,-0.0001178724,1.7838503e-22
2.9722536,0.65825309,-0.0001534613,1.4972546e-22
2.9747182,0.64721929,-0.00019130816,4.0623642e-23
2.9771053,0.6360053,-0.0002311532,-7.3562387e-23
2.9794172,0.62462788,-0.00027253009,4.244863e-24
2.9816563,0.61309701,-0.00031489243,1.3480425e-22
2.983825,0.6014176,-0.00035765133,2.0463288e-23
2.9859254,0.5895904,-0.00040019462,-8.3865351e-23
2.9879597,0.57761283,-0.00044190732,-9.3119582e-24
2.98993,0.56548025,-0.00048219163,2.1465514e-23
2.9918382,0.5531871,-0.00052049445,-1.8900048e-23
2.9936864,0.54072759,-0.00055632841,3.8006125e-23
2.9954764,0.52809522,-0.0005892911,6.6935152e-23
2.9972101,0.51527924,-0.00061899243,-8.2146835e-24
2.9988893,0.50224846,-0.00064482362,-5.8901456e-23
3.0005155,0.48895079,-0.00066612466,-2.5670635e-23
3.0020906,0.47535604,-0.00068222027,1.1278255e-23
3.0036161,0.46147825,-0.00069253412,4.7122471e-23
3.0050936,0.44735104,-0.00069687032,2.2862141e-23
3.0065246,0.43300785,-0.00069522168,-2.644411e-23
3.0079106,0.418479,-0.0006876974,-9.3990979e-24
3.0092529,0.40379219,-0.00067453228,1.708737e-23
3.010553,0.38897366,-0.00065607812,4.6342758e-23
3.0118121,0.37404936,-0.00063278687,3.8942324e-23
3.0130317,0.35904588,-0.00060519249,3.4137041e-23
3.0142128,0.34399099,-0.00057389305,2.0492083e-23
3.0153568,0.32891381,-0.00053953183,-2.7859729e-23
3.0164647,0.31384472,-0.00050276866,1.5167296e-23
3.0175378,0.29881479,-0.0004642717,1.9102082e-23
3.0185772,0.28385163,-0.00042479268,-3.0780957e-23
3.0195838,0.2689572,-0.00038505136,-4.573227e-23
3.0205587,0.25411842,-0.00034569193,-3.3946214e-23
3.0215029,0.23935626,-0.00030738039,-5.1912579e-24
3.0224174,0.22472142,-0.00027069378,8.3504302e-24
3.0233032,0.21026816,-0.00023608704,1.5810311e-23
3.024161,0.19605048,-0.00020391987,-1.3475698e-23
3.0249919,0.1821182,-0.00017443839,-2.1015504e-23
3.0257966,0.16851358,-0.00014777079,-5.6713122e-24
3.026576,0.15526905,-0.00012393771,-4.8705812e-24
3.0273308,0.14240643,-0.00010287092,-5.1833135e-24
3.0280619,0.12993732,-8.4435973e-05,-1.0907327e-23
3.02877,0.11786464,-6.8454728e-05,-4.3057631e-25
3.0294558,0.1061844,-5.4725477e-05,-3.7425155e-24
3.03012,0.094887754,-4.3038638e-05,-6.8887453e-24
3.0307633,0.08396268,-3.3187885e-05,5.4775019e-24
3.0313863,0.073395387,-2.4977439e-05,-6.1379089e-24
3.0319898,0.063171373,-1.8226122e-05,-7.4868854e-24
3.0325742,0.053276099,-1.2769082e-05,1.5208255e-23
3.0331403,0.043695437,-8.4581264e-06,1.1151345e-23
3.0336885,0.034415929,-5.1607795e-06,3.9947676e-24
3.0342195,0.025424892,-2.7597224e-06,-4.6374068e-25
3.0347338,0.016710447,-1.1609482e-06,-5.6720139e-24
3.0352319,0.0082609668,-2.8022757e-07,-2.0358966e-25
3.0357069,0.00012671509,-4.2983401e-09,-3.1157114e-27
3.0357143,0,0,0
