/*--------------------------------*- C++ -*----------------------------------*\
| =========                 |                                                 |
| \\      /  F ield         | OpenFOAM: The Open Source CFD Toolbox           |
|  \\    /   O peration     | Version:  2.4.0                                 |
|   \\  /    A nd           | Web:      www.OpenFOAM.org                      |
|    \\/     M anipulation  |                                                 |
\*---------------------------------------------------------------------------*/
FoamFile
{
    version     2.0;
    format      ascii;
    class       volScalarField;
    location    "20000";
    object      k;
}
// * * * * * * * * * * * * * * * * * * * * * * * * * * * * * * * * * * * * * //

dimensions      [0 2 -2 0 0 0 0];

internalField   nonuniform List<scalar> 
9781
(
1.2337612e-06
5.9060171e-07
1.0196637e-07
9.6741439e-08
9.1699708e-08
8.6840237e-08
8.2161027e-08
7.7660637e-08
7.3336354e-08
6.918643e-08
6.5207424e-08
6.1397428e-08
5.7752304e-08
5.4270048e-08
5.0945668e-08
4.7777698e-08
4.4759953e-08
4.1891755e-08
3.916568e-08
3.6582046e-08
3.4131812e-08
3.1817168e-08
2.9626793e-08
2.7565294e-08
2.5618429e-08
2.3794213e-08
2.2074536e-08
2.0472084e-08
1.8963585e-08
1.7568099e-08
1.6255185e-08
1.505226e-08
1.3919955e-08
1.2896738e-08
1.1930909e-08
1.107588e-08
1.0263452e-08
9.5673484e-09
8.8969262e-09
8.3534553e-09
7.8161574e-09
7.4243278e-09
7.0158543e-09
6.7835963e-09
6.5085087e-09
6.4605447e-09
6.3427628e-09
6.5323026e-09
6.5819221e-09
7.0769199e-09
7.5692519e-09
7.7651402e-09
8.0583669e-09
7.9389296e-09
7.8708716e-09
7.4740928e-09
7.0822589e-09
6.4594063e-09
5.822223e-09
5.0518507e-09
4.280575e-09
3.4745007e-09
2.720081e-09
2.0337551e-09
1.9913851e-09
3.1269323e-09
4.948581e-09
7.7837319e-09
1.1922931e-08
1.776057e-08
2.5598778e-08
3.5866843e-08
4.8804294e-08
6.4805979e-08
8.3885794e-08
1.0621772e-07
1.3089171e-07
1.5679397e-07
1.8449196e-07
2.1450969e-07
2.471815e-07
2.8320763e-07
3.2302564e-07
3.6777371e-07
4.1817523e-07
4.763864e-07
5.434528e-07
6.2413651e-07
7.2171383e-07
8.5050658e-07
1.0266791e-06
1.2451454e-06
1.5176883e-06
1.8502693e-06
2.2727866e-06
2.7931342e-06
3.4718534e-06
4.3149445e-06
5.4430134e-06
6.7702933e-06
8.4823615e-06
1.0164639e-05
1.1767866e-05
1.141958e-05
9.7888693e-06
7.1131508e-06
5.1093954e-06
2.8700819e-06
2.0758107e-06
8.5082097e-07
1.0440351e-06
2.7095831e-07
4.205506e-07
3.5946634e-07
1.0292486e-07
1.0149757e-07
1.0008409e-07
9.8684853e-08
9.7299972e-08
9.5929673e-08
9.4573917e-08
9.3232822e-08
9.1906167e-08
9.0594004e-08
8.9295955e-08
8.8011937e-08
8.6741208e-08
8.5483701e-08
8.4238527e-08
8.3005692e-08
8.1783748e-08
8.0572926e-08
7.9371052e-08
7.8178819e-08
7.6993364e-08
7.5815679e-08
7.4641937e-08
7.3473751e-08
7.2305801e-08
7.1140789e-08
6.9971347e-08
6.880189e-08
6.7622165e-08
6.6438587e-08
6.5237105e-08
6.4027617e-08
6.2790427e-08
6.1540268e-08
6.0249649e-08
5.8940277e-08
5.7573873e-08
5.6181748e-08
5.4711056e-08
5.3206273e-08
5.1595274e-08
4.9939599e-08
4.8143086e-08
4.6286932e-08
4.4245558e-08
4.2099241e-08
3.9503866e-08
3.705387e-08
3.6649335e-08
3.705698e-08
3.7924515e-08
3.8938197e-08
4.009078e-08
4.1303477e-08
4.2576975e-08
4.3892895e-08
4.5255698e-08
4.6677283e-08
4.8158075e-08
4.9711864e-08
5.1345891e-08
5.3109332e-08
5.5216397e-08
5.7718233e-08
6.0461919e-08
6.3466653e-08
6.675542e-08
7.0367893e-08
7.4335139e-08
7.8694293e-08
8.3455712e-08
8.8640732e-08
9.4227155e-08
1.0017587e-07
1.0584851e-07
1.1123408e-07
1.1671317e-07
1.2246143e-07
1.2860164e-07
1.3529329e-07
1.4265998e-07
1.5091018e-07
1.6023342e-07
1.7100553e-07
1.8344033e-07
1.9853119e-07
2.1669645e-07
2.4140119e-07
2.759223e-07
3.3063071e-07
3.8724899e-07
4.5294249e-07
5.3521464e-07
6.3683149e-07
7.6845537e-07
9.3255545e-07
1.1481652e-06
1.4030785e-06
1.7229804e-06
2.0370652e-06
2.3153403e-06
2.2699906e-06
1.9862842e-06
1.5354627e-06
1.1573913e-06
7.4519157e-07
5.5726609e-07
3.6319415e-07
3.6198031e-07
2.6336667e-07
1.8013333e-06
2.018486e-06
6.4732841e-07
6.4228654e-07
6.3715657e-07
6.319425e-07
6.2664733e-07
6.2127417e-07
6.1582551e-07
6.1030405e-07
6.0471169e-07
5.9905082e-07
5.9332292e-07
5.8752946e-07
5.8167018e-07
5.7574609e-07
5.6975708e-07
5.6370388e-07
5.5758359e-07
5.5139757e-07
5.4513924e-07
5.3881143e-07
5.3240484e-07
5.2592204e-07
5.1934972e-07
5.1269139e-07
5.0592686e-07
4.9906279e-07
4.9206932e-07
4.8495907e-07
4.7768851e-07
4.7027622e-07
4.626601e-07
4.5487286e-07
4.468238e-07
4.3856555e-07
4.2996747e-07
4.2111224e-07
4.1181346e-07
4.0219562e-07
3.9199691e-07
3.8139887e-07
3.7004133e-07
3.5817534e-07
3.4532375e-07
3.3180175e-07
3.1699749e-07
3.0110939e-07
2.8209688e-07
2.6371383e-07
2.6027706e-07
2.6305958e-07
2.6910747e-07
2.7665199e-07
2.8516069e-07
2.9444932e-07
3.04178e-07
3.1445584e-07
3.2509221e-07
3.362967e-07
3.479353e-07
3.601444e-07
3.7288813e-07
3.8650964e-07
4.0197429e-07
4.1910298e-07
4.3728946e-07
4.5633423e-07
4.7610314e-07
4.9648328e-07
5.1738804e-07
5.3864507e-07
5.6008239e-07
5.8145134e-07
6.0257567e-07
6.2297461e-07
6.3893818e-07
6.5155845e-07
6.6301957e-07
6.7405538e-07
6.8521276e-07
6.9694256e-07
7.0969453e-07
7.2381594e-07
7.3994211e-07
7.5859233e-07
7.802513e-07
8.0725297e-07
8.3926827e-07
8.8681732e-07
9.5614957e-07
1.0754364e-06
1.1839026e-06
1.3048085e-06
1.4517819e-06
1.6352448e-06
1.8681763e-06
2.1617297e-06
2.5267178e-06
2.9649078e-06
3.4676826e-06
3.9607444e-06
4.2844767e-06
4.3266908e-06
3.9977928e-06
3.559465e-06
2.9443034e-06
2.4414011e-06
1.9314326e-06
1.7770784e-06
1.5688919e-06
1.6460587e-06
6.5790498e-06
7.4868379e-06
2.4141447e-06
2.3959887e-06
2.3774753e-06
2.3586199e-06
2.3394338e-06
2.319929e-06
2.3001152e-06
2.2800027e-06
2.2595994e-06
2.2389143e-06
2.2179536e-06
2.1967232e-06
2.1752228e-06
2.1534564e-06
2.1314244e-06
2.1091298e-06
2.0865628e-06
2.0637282e-06
2.0406029e-06
2.0171971e-06
1.9934777e-06
1.9694534e-06
1.9450765e-06
1.9203591e-06
1.8952278e-06
1.8697061e-06
1.8436851e-06
1.8172095e-06
1.7901203e-06
1.7624833e-06
1.7340713e-06
1.7050014e-06
1.6749406e-06
1.644079e-06
1.611936e-06
1.5788115e-06
1.5440189e-06
1.5080109e-06
1.4698224e-06
1.4301149e-06
1.3875598e-06
1.343072e-06
1.2948921e-06
1.2441644e-06
1.1886354e-06
1.1289982e-06
1.057718e-06
9.8884503e-07
9.7600058e-07
9.8642884e-07
1.0091063e-06
1.0374675e-06
1.0694449e-06
1.104401e-06
1.1410094e-06
1.1797164e-06
1.219773e-06
1.2619844e-06
1.3058272e-06
1.3518186e-06
1.399815e-06
1.4511086e-06
1.5092202e-06
1.5733766e-06
1.6413874e-06
1.7124673e-06
1.7860641e-06
1.8616994e-06
1.9390043e-06
2.0172644e-06
2.0957991e-06
2.1736223e-06
2.2500609e-06
2.3232438e-06
2.3794352e-06
2.422978e-06
2.4619527e-06
2.4990132e-06
2.5361622e-06
2.5749787e-06
2.6170859e-06
2.6636261e-06
2.7168773e-06
2.7784741e-06
2.8501146e-06
2.939838e-06
3.0460138e-06
3.2060388e-06
3.4398593e-06
3.8067372e-06
4.1563145e-06
4.5521563e-06
5.0321348e-06
5.6326712e-06
6.3923937e-06
7.3514398e-06
8.531469e-06
9.9514883e-06
1.1551352e-05
1.3118011e-05
1.4071252e-05
1.427893e-05
1.3308795e-05
1.2092176e-05
1.0120909e-05
8.7011348e-06
6.9440807e-06
6.5444887e-06
5.7351214e-06
6.137602e-06
1.7525714e-05
1.9974539e-05
6.4459762e-06
6.3976842e-06
6.3484298e-06
6.2982539e-06
6.2471873e-06
6.1952618e-06
6.1425035e-06
6.0889402e-06
6.0345929e-06
5.9794855e-06
5.9236353e-06
5.8670577e-06
5.8097521e-06
5.7517295e-06
5.6929913e-06
5.6335451e-06
5.5733653e-06
5.512465e-06
5.4507825e-06
5.3883448e-06
5.3250642e-06
5.260964e-06
5.1959168e-06
5.1299549e-06
5.0628832e-06
4.9947636e-06
4.9253061e-06
4.8546297e-06
4.7823105e-06
4.7085239e-06
4.6326633e-06
4.5550413e-06
4.4747696e-06
4.3923546e-06
4.3065141e-06
4.2180477e-06
4.1251232e-06
4.028948e-06
3.9269467e-06
3.8208826e-06
3.7072113e-06
3.5883715e-06
3.4596687e-06
3.3241533e-06
3.175813e-06
3.0164947e-06
2.826239e-06
2.6426979e-06
2.6086885e-06
2.63658e-06
2.697224e-06
2.7730936e-06
2.858637e-06
2.9521625e-06
3.0501098e-06
3.1536837e-06
3.2608716e-06
3.3738326e-06
3.4911554e-06
3.61423e-06
3.7426762e-06
3.8799663e-06
4.0354322e-06
4.2069281e-06
4.3886572e-06
4.5785283e-06
4.775045e-06
4.976932e-06
5.1831747e-06
5.3918379e-06
5.6010899e-06
5.8082873e-06
6.011637e-06
6.2059877e-06
6.3548139e-06
6.4700171e-06
6.5730666e-06
6.6709496e-06
6.769005e-06
6.8714273e-06
6.9825258e-06
7.1052908e-06
7.2457934e-06
7.4083321e-06
7.5974483e-06
7.8344079e-06
8.1149764e-06
8.5384869e-06
9.1556899e-06
1.0062388e-05
1.0963487e-05
1.1996981e-05
1.3251356e-05
1.4821565e-05
1.6806845e-05
1.9312552e-05
2.2390236e-05
2.6092722e-05
3.025071e-05
3.4316241e-05
3.6762022e-05
3.7326184e-05
3.4833622e-05
3.1734446e-05
2.6604657e-05
2.3079235e-05
1.8471858e-05
1.7455481e-05
1.5283671e-05
1.6389557e-05
3.8292849e-05
4.3651678e-05
1.4093877e-05
1.398839e-05
1.3880795e-05
1.3771181e-05
1.3659616e-05
1.354617e-05
1.3430899e-05
1.3313863e-05
1.319511e-05
1.3074692e-05
1.2952645e-05
1.2829005e-05
1.2703769e-05
1.2576963e-05
1.2448588e-05
1.2318663e-05
1.218713e-05
1.2054019e-05
1.1919194e-05
1.1782716e-05
1.1644392e-05
1.1504273e-05
1.1362081e-05
1.1217887e-05
1.1071264e-05
1.0922347e-05
1.0770503e-05
1.0615992e-05
1.0457888e-05
1.0296572e-05
1.0130721e-05
9.9610172e-06
9.7855184e-06
9.6053325e-06
9.4176554e-06
9.2242364e-06
9.0210688e-06
8.8107941e-06
8.5877794e-06
8.3558827e-06
8.1073516e-06
7.8475216e-06
7.5661246e-06
7.2698356e-06
6.9455048e-06
6.5971874e-06
6.1815834e-06
5.7813117e-06
5.7076298e-06
5.7686819e-06
5.9014192e-06
6.067517e-06
6.2547968e-06
6.4595635e-06
6.6740195e-06
6.900797e-06
7.135496e-06
7.3828461e-06
7.6397457e-06
7.9092447e-06
8.1905234e-06
8.4912202e-06
8.8316031e-06
9.2068667e-06
9.604411e-06
1.0019705e-05
1.0449464e-05
1.0890901e-05
1.134177e-05
1.1797827e-05
1.225507e-05
1.2707692e-05
1.3151767e-05
1.3575718e-05
1.3900033e-05
1.4151325e-05
1.4376304e-05
1.4590059e-05
1.4804198e-05
1.5027927e-05
1.527064e-05
1.5538841e-05
1.584584e-05
1.6200989e-05
1.6614313e-05
1.7132162e-05
1.7745841e-05
1.8672239e-05
2.0018923e-05
2.1911133e-05
2.3848547e-05
2.6088977e-05
2.8810484e-05
3.2217569e-05
3.6523889e-05
4.1956435e-05
4.8622758e-05
5.6636062e-05
6.5619749e-05
7.4388753e-05
7.9646515e-05
8.0884409e-05
7.5527971e-05
6.8874971e-05
5.7783066e-05
5.0356281e-05
4.0371573e-05
3.8172903e-05
3.3414253e-05
3.5840927e-05
7.3421008e-05
8.3693344e-05
2.704034e-05
2.6838107e-05
2.6631825e-05
2.6421664e-05
2.6207755e-05
2.5990232e-05
2.5769202e-05
2.5544783e-05
2.5317064e-05
2.5086145e-05
2.4852097e-05
2.4614987e-05
2.4374814e-05
2.413162e-05
2.3885415e-05
2.3636228e-05
2.3383956e-05
2.312865e-05
2.2870054e-05
2.2608282e-05
2.2342964e-05
2.20742e-05
2.1801455e-05
2.1524866e-05
2.1243613e-05
2.0957959e-05
2.0666685e-05
2.0370293e-05
2.0067004e-05
1.9757555e-05
1.9439401e-05
1.9113856e-05
1.8777191e-05
1.8431535e-05
1.8071506e-05
1.7700464e-05
1.7310717e-05
1.6907339e-05
1.6479519e-05
1.6034664e-05
1.5557895e-05
1.5059457e-05
1.4519641e-05
1.3951266e-05
1.3329092e-05
1.2660939e-05
1.1864383e-05
1.1098486e-05
1.0958375e-05
1.1075593e-05
1.1330487e-05
1.1649516e-05
1.2009253e-05
1.2402602e-05
1.2814573e-05
1.3250232e-05
1.3701122e-05
1.4176324e-05
1.4669874e-05
1.5187637e-05
1.5728063e-05
1.63059e-05
1.6959773e-05
1.7680253e-05
1.8443309e-05
1.9240327e-05
2.0065016e-05
2.091198e-05
2.1776904e-05
2.2651658e-05
2.3528511e-05
2.4396332e-05
2.5247562e-05
2.6059402e-05
2.6679971e-05
2.7161472e-05
2.759304e-05
2.8003189e-05
2.8414203e-05
2.8843737e-05
2.9309773e-05
2.982479e-05
3.0414377e-05
3.1096406e-05
3.1890313e-05
3.2884829e-05
3.4064365e-05
3.5844634e-05
3.8426734e-05
4.1940384e-05
4.5617874e-05
4.9893016e-05
5.5089031e-05
6.1593336e-05
6.9810582e-05
8.0169297e-05
9.2867298e-05
0.00010811343
0.00012517432
0.00014179326
0.00015173632
0.00015412541
0.00014401534
0.00013145212
0.00011037258
9.650147e-05
7.7469361e-05
7.3274452e-05
6.412612e-05
6.8776759e-05
0.00012840614
0.00014635773
4.7335623e-05
4.6981994e-05
4.6621266e-05
4.6253736e-05
4.5879632e-05
4.5499188e-05
4.5112596e-05
4.4720057e-05
4.432173e-05
4.3917791e-05
4.3508363e-05
4.3093563e-05
4.2673389e-05
4.2247918e-05
4.1817164e-05
4.1381182e-05
4.0939786e-05
4.0493072e-05
4.0040588e-05
3.9582535e-05
3.9118267e-05
3.8647958e-05
3.8170673e-05
3.768665e-05
3.7194458e-05
3.6694554e-05
3.6184807e-05
3.5666095e-05
3.5135306e-05
3.4593728e-05
3.4036911e-05
3.3467152e-05
3.2877927e-05
3.2272963e-05
3.1642838e-05
3.0993436e-05
3.0311294e-05
2.9605294e-05
2.8856512e-05
2.8077917e-05
2.7243461e-05
2.6371083e-05
2.5426276e-05
2.4431495e-05
2.3342539e-05
2.217316e-05
2.0780217e-05
1.9443071e-05
1.9199819e-05
1.9405065e-05
1.9851595e-05
2.0410648e-05
2.1041107e-05
2.1730513e-05
2.2452589e-05
2.3216221e-05
2.4006587e-05
2.4839581e-05
2.5704739e-05
2.6612359e-05
2.755975e-05
2.857288e-05
2.9718929e-05
3.0981015e-05
3.2317348e-05
3.3712932e-05
3.515681e-05
3.6639479e-05
3.8153349e-05
3.9684212e-05
4.1218407e-05
4.2736449e-05
4.4225122e-05
4.564351e-05
4.6727062e-05
4.7569025e-05
4.8324448e-05
4.9042649e-05
4.9762609e-05
5.0515138e-05
5.1331699e-05
5.2234151e-05
5.3267283e-05
5.4462296e-05
5.5853733e-05
5.7596383e-05
5.9664803e-05
6.2785943e-05
6.7303169e-05
7.3301108e-05
7.9687616e-05
8.7136114e-05
9.6191432e-05
0.0001075234
0.00012182987
0.00013984612
0.00016189978
0.00018833608
0.00021784769
0.00024651879
0.00026363257
0.00026784806
0.00025050322
0.00022893159
0.00019244821
0.00016874423
0.0001356414
0.00012834678
0.00011229872
0.00012041619
0.00020975148
0.00023903743
7.7436719e-05
7.6859247e-05
7.6270131e-05
7.5669858e-05
7.5058799e-05
7.4437338e-05
7.3805787e-05
7.3164478e-05
7.251367e-05
7.1853649e-05
7.1184621e-05
7.0506775e-05
6.9820108e-05
6.9124748e-05
6.8420718e-05
6.7708108e-05
6.6986616e-05
6.6256397e-05
6.5516717e-05
6.47679e-05
6.4008894e-05
6.3239985e-05
6.2459641e-05
6.1668256e-05
6.0863489e-05
6.0046085e-05
5.9212567e-05
5.8364366e-05
5.7496396e-05
5.6610765e-05
5.5700195e-05
5.4768444e-05
5.3804844e-05
5.2815488e-05
5.1784974e-05
5.0722921e-05
4.9607314e-05
4.8452678e-05
4.7228064e-05
4.5954682e-05
4.458993e-05
4.3163147e-05
4.1617886e-05
3.9990891e-05
3.8209834e-05
3.6297297e-05
3.4020981e-05
3.1839297e-05
3.1444258e-05
3.1779908e-05
3.2510798e-05
3.3426243e-05
3.4458791e-05
3.5587967e-05
3.6770731e-05
3.8021635e-05
3.9316422e-05
4.0681067e-05
4.2098405e-05
4.3585317e-05
4.5137462e-05
4.6797546e-05
4.8674761e-05
5.0740842e-05
5.2927885e-05
5.5211535e-05
5.7573851e-05
5.9999349e-05
6.2475454e-05
6.49788e-05
6.748707e-05
6.9968362e-05
7.2400954e-05
7.47163e-05
7.6483983e-05
7.7859732e-05
7.9095396e-05
8.0270496e-05
8.1448743e-05
8.2680462e-05
8.4016999e-05
8.5494289e-05
8.7185518e-05
8.9141381e-05
9.1419396e-05
9.4271578e-05
9.7659402e-05
0.00010276996
0.00011015076
0.00011975862
0.00013013604
0.00014225907
0.00015699709
0.00017543005
0.00019867815
0.00022791214
0.00026362754
0.00030634344
0.00035387309
0.00039988614
0.0004272621
0.00043420148
0.00040655997
0.00037216127
0.00031339225
0.00027559034
0.00022187147
0.00021006451
0.00018376837
0.0001969922
0.00032495991
0.00037022721
0.00012024101
0.00011934687
0.00011843458
0.00011750489
0.00011655838
0.00011559564
0.00011461716
0.00011362345
0.00011261492
0.00011159201
0.00011055505
0.00010950432
0.00010843982
0.00010736175
0.00010627016
0.00010516518
0.00010404634
0.00010291389
0.00010176669
0.00010060524
9.9427915e-05
9.8235156e-05
9.7024593e-05
9.5796832e-05
9.4548248e-05
9.3279996e-05
9.1986684e-05
9.0670531e-05
8.9323648e-05
8.7949306e-05
8.6536216e-05
8.5090206e-05
8.3594728e-05
8.2059232e-05
8.0459823e-05
7.8811416e-05
7.7079862e-05
7.5287683e-05
7.3386862e-05
7.1410294e-05
6.9291869e-05
6.7077102e-05
6.467838e-05
6.2152723e-05
5.9387825e-05
5.6418825e-05
5.2887901e-05
4.9508848e-05
4.8899107e-05
4.9419751e-05
5.0555104e-05
5.1977916e-05
5.358309e-05
5.5338692e-05
5.7177816e-05
5.9123001e-05
6.1136599e-05
6.3258894e-05
6.5463187e-05
6.7775659e-05
7.0189704e-05
7.2771993e-05
7.5690842e-05
7.8901423e-05
8.2298999e-05
8.58461e-05
8.9514777e-05
9.3280946e-05
9.712488e-05
0.00010101011
0.00010490203
0.00010875114
0.00011252346
0.00011610985
0.00011884639
0.00012097984
0.00012289786
0.0001247221
0.00012655153
0.00012846413
0.00013053957
0.00013283367
0.00013545974
0.00013849638
0.00014203395
0.00014646138
0.00015172386
0.0001596596
0.00017109553
0.00018573334
0.0002017435
0.00022045085
0.00024318571
0.00027159512
0.00030737453
0.00035227587
0.00040698605
0.00047221553
0.00054447881
0.00061410547
0.00065533346
0.00066610382
0.00062460257
0.0005729639
0.00048364981
0.00042668956
0.0003442223
0.000326202
0.00028536216
0.00030578201
0.00048240666
0.00054932762
0.00017910305
0.00017777698
0.00017642372
0.00017504438
0.00017363982
0.00017221093
0.00017075842
0.00016928306
0.00016778547
0.00016626629
0.00016472602
0.00016316508
0.00016158349
0.00015998153
0.00015835927
0.00015671692
0.00015505379
0.00015337024
0.00015166459
0.00014993758
0.00014818679
0.00014641289
0.00014461236
0.00014278609
0.0001409287
0.0001390419
0.00013711769
0.00013515935
0.00013315516
0.00013110999
0.00012900704
0.00012685497
0.00012462918
0.00012234369
0.000119963
0.00011750924
0.00011493164
0.00011226365
0.00010943386
0.00010649114
0.00010333715
0.00010003954
9.6467917e-05
9.270708e-05
8.8589794e-05
8.4168397e-05
7.8914154e-05
7.3892882e-05
7.2988529e-05
7.3762611e-05
7.5454184e-05
7.7575535e-05
7.9969538e-05
8.2588323e-05
8.5332137e-05
8.8234402e-05
9.1239082e-05
9.4406066e-05
9.7695557e-05
0.00010114645
0.00010474908
0.00010860329
0.00011295774
0.00011774442
0.00012280839
0.0001280942
0.0001335602
0.00013917018
0.00014489451
0.00015067868
0.00015647101
0.00016219781
0.00016780821
0.00017313532
0.00017719809
0.00018037123
0.0001832259
0.00018594141
0.00018866476
0.00019151188
0.00019460142
0.00019801622
0.00020192483
0.00020644374
0.00021170872
0.00021829506
0.00022612818
0.00023793562
0.00025491094
0.00027631395
0.00029999993
0.00032764259
0.00036121208
0.00040310504
0.00045576121
0.00052166404
0.00060167644
0.00069667224
0.00080131011
0.00090149891
0.00096042061
0.00097626162
0.00091699357
0.00084335428
0.00071418055
0.00063244657
0.00051163894
0.00048549958
0.0004248333
0.00045502433
0.00069101056
0.0007861775
0.00025967182
0.00025781611
0.00025591955
0.00025398356
0.00025200968
0.00024999917
0.00024795329
0.00024587309
0.00024375967
0.0002416139
0.00023943674
0.00023722887
0.00023499094
0.00023272295
0.00023042533
0.00022809818
0.0002257418
0.00022335521
0.00022093893
0.00021849056
0.00021601116
0.00021349728
0.00021094986
0.00020836385
0.00020574054
0.00020307222
0.00020036134
0.00019759641
0.00019478213
0.00019190169
0.00018896203
0.00018593909
0.00018284524
0.00017964519
0.00017635901
0.00017293573
0.00016940708
0.00016570014
0.00016186287
0.00015779271
0.00015355971
0.00014902261
0.00014427841
0.00013913972
0.00013372821
0.00012780332
0.00012144014
0.00011388358
0.00010667099
0.00010537194
0.00010648313
0.00010891845
0.00011197529
0.00011542652
0.0001192026
0.00012315986
0.00012734609
0.00013168074
0.00013624977
0.00014099587
0.00014597475
0.00015117271
0.00015673441
0.00016301434
0.00016991304
0.00017720921
0.00018482318
0.00019269483
0.00020077153
0.00020901023
0.00021733214
0.00022566244
0.00023389519
0.00024195679
0.00024960047
0.00025542777
0.00025998816
0.00026409229
0.00026799635
0.00027191154
0.00027600434
0.00028044506
0.00028535296
0.00029096979
0.00029746174
0.0003050262
0.00031448361
0.00032573654
0.00034269067
0.0003670013
0.0003972217
0.00043105429
0.00047043025
0.00051819333
0.00057768952
0.00065227004
0.00074528071
0.00085768052
0.0009903947
0.0011355177
0.0012733519
0.0013536624
0.001375784
0.0012947275
0.0011943306
0.0010155305
0.00090327315
0.00073349091
0.00069728653
0.00061062103
0.00065363151
0.00095961541
0.0010902088
0.00036310122
0.00036053145
0.00035790393
0.00035522067
0.00035248383
0.00034969512
0.00034685633
0.00034396891
0.0003410344
0.00033805402
0.00033502911
0.00033196063
0.00032884949
0.00032569572
0.00032249988
0.00031926217
0.00031598298
0.00031266097
0.00030929688
0.00030588737
0.00030243391
0.00029893173
0.0002953821
0.00029177806
0.00028812135
0.00028440127
0.00028062119
0.00027676515
0.00027283965
0.00026882131
0.00026471974
0.00026050144
0.00025618356
0.00025171697
0.00024712954
0.00024235026
0.00023742317
0.00023224672
0.00022688749
0.00022120256
0.00021528929
0.0002089507
0.00020232166
0.00019514073
0.00018757722
0.00017929501
0.00017039845
0.00015983972
0.00014977192
0.00014795441
0.00014950235
0.00015290819
0.00015718817
0.0001620231
0.00016731467
0.00017286193
0.00017873101
0.0001848096
0.00019121723
0.00019787385
0.00020485694
0.00021214741
0.00021994905
0.00022875224
0.00023841584
0.00024863272
0.00025929147
0.00027030753
0.00028160657
0.00029312767
0.00030475973
0.00031639779
0.0003278937
0.00033914413
0.00034979374
0.00035791079
0.00036427735
0.00037000632
0.00037545548
0.00038091943
0.00038663048
0.00039282564
0.00039967149
0.00040750429
0.00041655405
0.00042709899
0.00044027321
0.00045595345
0.0004795638
0.00051331639
0.00055469481
0.0006015749
0.00065589242
0.00072167058
0.00080340486
0.00090549996
0.001032243
0.0011845086
0.0013630441
0.0015565276
0.0017384587
0.0018431923
0.0018725359
0.0017658373
0.0016343335
0.0013965442
0.0012484451
0.0010187799
0.00097076193
0.00085134717
0.00091059204
0.0012960254
0.0014691816
0.00049840982
0.00049503606
0.00049157977
0.00048804371
0.00048443064
0.00048074342
0.00047698442
0.00047315602
0.00046926021
0.00046529909
0.0004612743
0.00045718768
0.00045304053
0.00044883411
0.00044456846
0.00044024437
0.0004358621
0.00043142222
0.00042692293
0.0004223652
0.00041774456
0.000413063
0.00040831407
0.00040349949
0.00039860982
0.00039364744
0.00038859784
0.00038346557
0.00037822902
0.00037289691
0.0003674376
0.00036186401
0.00035613075
0.00035026093
0.00034418796
0.00033794939
0.00033144899
0.00032474616
0.00031770315
0.00031040989
0.00030267241
0.00029462228
0.000285992
0.00027696395
0.00026718275
0.00025687757
0.0002455907
0.00023346281
0.00021907579
0.00020536802
0.00020288079
0.00020498085
0.00020962509
0.00021546983
0.00022207744
0.00022931183
0.00023689919
0.00024492836
0.00025324684
0.00026201631
0.00027112801
0.00028068646
0.00029066615
0.00030134662
0.00031338857
0.00032659675
0.00034055559
0.00035511273
0.00037015203
0.00038557087
0.00040128434
0.00041713981
0.00043299403
0.00044864457
0.00046394961
0.00047840929
0.00048943047
0.00049809685
0.00050589036
0.00051330207
0.00052073198
0.00052849587
0.00053691533
0.00054621636
0.00055685481
0.00056914024
0.00058345374
0.00060131989
0.00062258715
0.00065458567
0.00070016662
0.00075525869
0.00081848188
0.000891262
0.00097920405
0.0010881278
0.001223577
0.0013907713
0.0015901915
0.0018220341
0.002070625
0.0023015904
0.0024325977
0.0024695677
0.0023338429
0.0021676575
0.0018628975
0.0016746708
0.0013750243
0.0013139042
0.0011549883
0.0012339935
0.0017057217
0.0019276452
0.00066408905
0.00065967892
0.00065515713
0.00065052744
0.00064579348
0.000640959
0.0006360271
0.00063100095
0.00062588316
0.00062067651
0.00061538318
0.00061000561
0.00060454554
0.00059900461
0.00059338293
0.00058768155
0.00058190082
0.00057604152
0.00057010127
0.0005640814
0.000557976
0.0005517877
0.000545508
0.00053913916
0.00053266875
0.00052609984
0.00051941331
0.00051261508
0.00050567664
0.00049860938
0.0004913715
0.00048397991
0.00047637463
0.00046858593
0.00046052579
0.00045224347
0.00044361171
0.00043470851
0.0004253516
0.0004156592
0.00040537447
0.00039467054
0.00038319284
0.00037118166
0.00035816526
0.00034444596
0.00032941471
0.00031325571
0.00029409232
0.00027584106
0.00027250198
0.00027528315
0.00028147389
0.0002892791
0.00029811186
0.00030778727
0.00031794087
0.00032868875
0.0003398289
0.00035157456
0.00036378149
0.00037658632
0.00038995736
0.0004042679
0.00042038716
0.00043805115
0.0004567102
0.0004761599
0.00049624371
0.00051682267
0.00053778106
0.00055891335
0.00058002766
0.00060085418
0.0006212026
0.00064038215
0.00065500771
0.00066654191
0.00067690177
0.00068675122
0.00069662133
0.00070693127
0.00071810715
0.00073044843
0.00074455728
0.00076083977
0.00077980545
0.0008034512
0.00083159501
0.00087389774
0.0009338992
0.001005347
0.0010885172
0.0011834199
0.0012977746
0.001438845
0.0016133054
0.0018271776
0.0020801098
0.0023712373
0.0026796293
0.0029622669
0.003119848
0.0031640939
0.002996704
0.0027932711
0.0024158174
0.0021846713
0.0018069736
0.001732118
0.0015277544
0.0016297194
0.0021904737
0.0024655001
0.00087167906
0.00086622249
0.00086061231
0.0008548542
0.00084895305
0.00084291349
0.0008367403
0.00083043746
0.00082400905
0.0008174584
0.0008107891
0.00080400396
0.00079710611
0.00079009781
0.00078298119
0.00077575641
0.00076842482
0.0007609869
0.00075344365
0.00074579205
0.00073803379
0.0007301613
0.00072217792
0.00071407278
0.00070584866
0.00069748964
0.00068899954
0.00068035378
0.00067155982
0.00066258096
0.0006534316
0.00064405791
0.00063448133
0.00062462453
0.00061452607
0.00060407232
0.00059332622
0.0005821234
0.00057056362
0.00055841128
0.00054581785
0.000532451
0.00051853283
0.00050360394
0.00048797305
0.00047102782
0.00045315718
0.00043356807
0.00041249469
0.00038750484
0.00036370381
0.00035929743
0.00036289768
0.00037097775
0.00038118809
0.00039275754
0.00040543898
0.00041875803
0.00043286201
0.00044748968
0.00046291544
0.00047895239
0.00049577365
0.00051334367
0.00053214742
0.00055330324
0.00057646164
0.00060091045
0.00062638039
0.00065266399
0.00067957565
0.00070696117
0.00073454919
0.0007620873
0.00078922363
0.00081570734
0.00084060052
0.00085960483
0.00087464212
0.00088812533
0.00090093723
0.00091377154
0.00092717133
0.00094168789
0.00095770958
0.00097601407
0.00099712066
0.0010216934
0.001052285
0.0010886831
0.0011433194
0.0012204129
0.0013107929
0.0014176035
0.0015382111
0.0016830119
0.0018607762
0.0020791819
0.0023447888
0.0026558812
0.0030099402
0.0033800635
0.0037142766
0.0038971286
0.003947483
0.0037467152
0.0035045146
0.0030514259
0.0027762108
0.0023154665
0.0022269236
0.0019728556
0.0021000644
0.002747384
0.0030770796
0.0011138889
0.0011071409
0.001100194
0.0010930553
0.0010857309
0.0010782265
0.001070548
0.0010627005
0.0010546889
0.0010465176
0.0010381908
0.0010297122
0.0010210857
0.001012314
0.0010033999
0.0009943436
0.00098514674
0.00097580996
0.00096633451
0.00095671658
0.00094695828
0.00093705014
0.00092699626
0.000916783
0.00090641376
0.00089586855
0.00088515196
0.00087423317
0.00086312122
0.00085177001
0.00084019721
0.00082833511
0.00081621013
0.00080372486
0.00079092705
0.0007776735
0.00076404237
0.00074982631
0.00073514954
0.00071971449
0.00070371019
0.00068671633
0.0006690106
0.00065001096
0.00063010405
0.00060851223
0.00058572336
0.00056072617
0.0005338094
0.00050188326
0.00047145939
0.00046573674
0.0004702949
0.00048062989
0.00049372627
0.00050859043
0.00052489707
0.00054204205
0.00056020691
0.00057906171
0.00059895088
0.000619637
0.00064133504
0.00066400725
0.00068826881
0.00071552694
0.00074532816
0.00077676797
0.0008094967
0.00084324432
0.00087776685
0.00091286165
0.00094817746
0.00098338912
0.0010180462
0.0010518229
0.0010834691
0.00110768
0.0011269083
0.001144116
0.0011604533
0.0011768119
0.0011938818
0.0012123602
0.0012327398
0.0012560018
0.0012827955
0.0013139662
0.0013526997
0.0013987548
0.0014677607
0.0015645175
0.0016761648
0.0018100707
0.0019596374
0.0021383278
0.0023564614
0.0026224628
0.0029430547
0.003314618
0.0037324019
0.0041631748
0.0045462416
0.0047517909
0.0048064218
0.0045715315
0.0042899232
0.0037610392
0.0034419919
0.0028968284
0.0027951157
0.0024894906
0.002642702
0.0033686898
0.0037513422
0.001403299
0.0013954359
0.0013873118
0.0013789362
0.0013703173
0.0013614626
0.0013523791
0.0013430739
0.001333553
0.0013238225
0.0013138874
0.0013037532
0.0012934241
0.0012829049
0.001272199
0.0012613096
0.001250237
0.0012389831
0.0012275488
0.0012159355
0.0012041385
0.0011921603
0.0011799893
0.0011676304
0.0011550669
0.0011423028
0.0011293134
0.0011161042
0.0011026373
0.0010889234
0.0010749059
0.0010606058
0.0010459398
0.0010309397
0.0010154856
0.00099963487
0.00098321129
0.00096630923
0.00094867322
0.00093045368
0.00091128349
0.00089139222
0.00087026039
0.00084822606
0.00082456826
0.00079975871
0.00077283118
0.00074438197
0.00071314807
0.00067947374
0.00063951105
0.00060138566
0.00059406769
0.00059971126
0.00061266936
0.0006291464
0.00064788662
0.00066846809
0.00069013797
0.00071311316
0.00073698659
0.00076217969
0.00078839598
0.00081590033
0.00084465161
0.00087541303
0.0009099167
0.0009475841
0.00098728913
0.0010285844
0.0010711241
0.0011145933
0.0011587297
0.0012030864
0.001247253
0.0012906646
0.001332903
0.0013723323
0.0014026007
0.0014267412
0.0014483018
0.0014687513
0.0014892152
0.0015105554
0.0015336338
0.0015590626
0.0015880514
0.0016213945
0.0016601436
0.0017081808
0.0017652403
0.001850523
0.0019691975
0.0021040008
0.0022678868
0.0024490629
0.0026641298
0.002925017
0.0032405289
0.0036171308
0.0040488503
0.0045282716
0.0050159338
0.0054431776
0.0056682197
0.0057249425
0.0054561245
0.0051349944
0.0045324389
0.0041705799
0.0035430857
0.0034287619
0.0030724295
0.0032504477
0.0040425589
0.0044732301
0.0017325246
0.001723647
0.0017144384
0.0017049082
0.0016950673
0.0016849256
0.0016744916
0.0016637738
0.0016527802
0.001641518
0.0016299942
0.0016182149
0.0016061864
0.0015939136
0.001581402
0.0015686558
0.0015556787
0.0015424708
0.0015290346
0.0015153708
0.001501481
0.0014873596
0.0014730094
0.0014584165
0.0014435866
0.0014284995
0.0014131595
0.0013975375
0.0013816393
0.0013654194
0.0013488901
0.0013319835
0.0013147237
0.0012970111
0.001278882
0.0012601928
0.0012410103
0.0012211227
0.0012006408
0.0011792573
0.001157149
0.0011338739
0.0011097028
0.0010840088
0.0010571921
0.0010283801
0.00099813275
0.00096527604
0.00093051934
0.00089231828
0.00085106838
0.00080207333
0.00075524832
0.00074603418
0.00075286345
0.0007687871
0.00078912047
0.00081230707
0.00083780765
0.00086470475
0.0008932486
0.00092294926
0.00095430768
0.00098696259
0.0010212354
0.0010570797
0.0010954212
0.0011383436
0.0011851223
0.001234382
0.001285559
0.0013382182
0.0013919594
0.0014464494
0.0015011309
0.0015554943
0.0016088463
0.0016606549
0.0017088265
0.0017459915
0.0017757734
0.001802326
0.001827484
0.0018526396
0.0018788522