/*--------------------------------*- C++ -*----------------------------------*\
| =========                 |                                                 |
| \\      /  F ield         | OpenFOAM: The Open Source CFD Toolbox           |
|  \\    /   O peration     | Version:  2.4.0                                 |
|   \\  /    A nd           | Web:      www.OpenFOAM.org                      |
|    \\/     M anipulation  |                                                 |
\*---------------------------------------------------------------------------*/
FoamFile
{
    version     2.0;
    format      ascii;
    class       surfaceScalarField;
    location    "20000";
    object      phi;
}
// * * * * * * * * * * * * * * * * * * * * * * * * * * * * * * * * * * * * * //

dimensions      [0 3 -1 0 0 0 0];

internalField   nonuniform List<scalar> 
19176
(
3.0674526e-07
-4.5494318e-08
-6.6866398e-08
-1.5634869e-07
-4.3275775e-09
-1.5205607e-07
-4.2926127e-09
-1.4780041e-07
-4.2556265e-09
-1.4358374e-07
-4.2167217e-09
-1.3940786e-07
-4.1757599e-09
-1.3527469e-07
-4.1331436e-09
-1.3118583e-07
-4.0888198e-09
-1.2714317e-07
-4.0425992e-09
-1.2314809e-07
-3.9949902e-09
-1.1920247e-07
-3.9455371e-09
-1.1530746e-07
-3.8949223e-09
-1.1146485e-07
-3.8425242e-09
-1.0767567e-07
-3.7891087e-09
-1.0394187e-07
-3.7337611e-09
-1.0026411e-07
-3.6776959e-09
-9.664472e-08
-3.619214e-09
-9.3083921e-08
-3.5608187e-09
-8.9584463e-08
-3.499412e-09
-8.6146196e-08
-3.4381755e-09
-8.2772731e-08
-3.3733962e-09
-7.94631e-08
-3.3095794e-09
-7.6222161e-08
-3.2408638e-09
-7.3047907e-08
-3.1741931e-09
-6.9947135e-08
-3.1006863e-09
-6.6916424e-08
-3.0306572e-09
-6.3965457e-08
-2.9509137e-09
-6.1088904e-08
-2.8765003e-09
-5.830047e-08
-2.7883637e-09
-5.5591607e-08
-2.7088569e-09
-5.2982314e-08
-2.6092582e-09
-5.0460077e-08
-2.5222e-09
-4.8053233e-08
-2.4068053e-09
-4.5743397e-08
-2.3098118e-09
-4.3570892e-08
-2.1724664e-09
-4.1509223e-08
-2.0615943e-09
-3.9615675e-08
-1.8934908e-09
-3.7851496e-08
-1.7641005e-09
-3.6298527e-08
-1.5529102e-09
-3.4900476e-08
-1.3979498e-09
-3.3774538e-08
-1.1258768e-09
-3.2838149e-08
-9.3633331e-10
-3.2261111e-08
-5.7696502e-10
-3.1921095e-08
-3.3990946e-10
-3.2070077e-08
1.4910876e-10
-3.2516178e-08
4.4628016e-10
-3.3567274e-08
1.0513184e-09
-3.4910553e-08
1.3433899e-09
-3.7121148e-08
2.2107938e-09
-3.8131158e-08
1.0100954e-09
-3.8875668e-08
7.4459529e-10
-3.8704889e-08
-1.7067591e-10
-3.806699e-08
-6.3772224e-10
-3.6699176e-08
-1.3676467e-09
-3.4867726e-08
-1.8313447e-09
-3.2411243e-08
-2.4563662e-09
-2.9498535e-08
-2.9125798e-09
-2.6017095e-08
-3.481305e-09
-2.2064538e-08
-3.9524489e-09
-1.754147e-08
-4.5229623e-09
-1.2502331e-08
-5.0391182e-09
-6.8516442e-09
-5.6507867e-09
-5.9774071e-10
-6.2536526e-09
6.4599901e-09
-7.0576404e-09
1.4256689e-08
-7.796772e-09
2.2749932e-08
-8.4930375e-09
3.1880547e-08
-9.13071e-09
4.1627992e-08
-9.7471681e-09
5.1955158e-08
-1.0327132e-08
6.2831185e-08
-1.0876901e-08
7.4213692e-08
-1.1383529e-08
8.6022277e-08
-1.1808618e-08
9.8180795e-08
-1.2158529e-08
1.1052047e-07
-1.2339718e-08
1.2280251e-07
-1.2282022e-08
1.3441456e-07
-1.1611967e-08
1.4530815e-07
-1.0893592e-08
1.5575723e-07
-1.044913e-08
1.6595618e-07
-1.0199236e-08
1.7602692e-07
-1.0071016e-08
1.86114e-07
-1.0087026e-08
1.9631643e-07
-1.0202278e-08
2.0680414e-07
-1.0487641e-08
2.1771427e-07
-1.0910053e-08
2.2928451e-07
-1.1570232e-08
2.4175065e-07
-1.2465968e-08
2.5568209e-07
-1.3931487e-08
2.7195095e-07
-1.6268571e-08
2.9273884e-07
-2.0787791e-08
3.178588e-07
-2.5119784e-08
3.4674472e-07
-2.888579e-08
3.798656e-07
-3.3120679e-08
4.1793181e-07
-3.8065945e-08
4.6231931e-07
-4.4386838e-08
5.1410913e-07
-5.1789292e-08
5.7579552e-07
-6.1685574e-08
6.4877422e-07
-7.297672e-08
7.3537729e-07
-8.6603456e-08
8.3346694e-07
-9.8088078e-08
9.4254363e-07
-1.0907889e-07
1.0438016e-06
-1.0125762e-07
1.1051382e-06
-6.1335667e-08
1.0718963e-06
3.3240958e-08
9.7551588e-07
9.63798e-08
8.2788201e-07
1.4763215e-07
6.7869462e-07
1.4918632e-07
5.2376118e-07
1.5493167e-07
4.141379e-07
1.0962293e-07
3.1277388e-07
1.0136222e-07
2.8308253e-07
2.9692179e-08
2.1415253e-08
9.9122665e-07
-1.7556122e-07
-2.2267615e-07
-4.8190157e-07
-1.777151e-08
-4.6856657e-07
-1.7627604e-08
-4.5534677e-07
-1.7475379e-08
-4.4224834e-07
-1.7315204e-08
-4.2927701e-07
-1.7146955e-08
-4.164385e-07
-1.6971615e-08
-4.0373809e-07
-1.6789196e-08
-3.9118121e-07
-1.6599403e-08
-3.7877267e-07
-1.6403434e-08
-3.6651768e-07
-1.6200432e-08
-3.5442048e-07
-1.599201e-08
-3.4248589e-07
-1.577702e-08
-3.3071806e-07
-1.5556858e-08
-3.1912179e-07
-1.5329971e-08
-3.0770074e-07
-1.5098672e-08
-2.9646022e-07
-1.4859552e-08
-2.854033e-07
-1.4617749e-08
-2.7453564e-07
-1.4367028e-08
-2.6386038e-07
-1.4113333e-08
-2.5338434e-07
-1.3849365e-08
-2.4311001e-07
-1.3583862e-08
-2.3304579e-07
-1.3304998e-08
-2.2319372e-07
-1.3026188e-08
-2.1356493e-07
-1.272939e-08
-2.0416106e-07
-1.243446e-08
-1.9499736e-07
-1.2114554e-08
-1.8607541e-07
-1.1798389e-08
-1.7741587e-07
-1.1447822e-08
-1.6901889e-07
-1.1105822e-08
-1.6091444e-07
-1.0713658e-08
-1.5310256e-07
-1.0334039e-08
-1.4562449e-07
-9.8848203e-09
-1.3847954e-07
-9.4547271e-09
-1.3172521e-07
-8.9267471e-09
-1.2536071e-07
-8.4259925e-09
-1.1946602e-07
-7.7881067e-09
-1.1403854e-07
-7.1914769e-09
-1.0919094e-07
-6.4004257e-09
-1.0491831e-07
-5.6704528e-09
-1.0138042e-07
-4.6636847e-09
-9.8565877e-08
-3.7507892e-09
-9.6707603e-08
-2.4351336e-09
-9.5778409e-08
-1.2689694e-09
-9.6136955e-08
5.0781059e-10
-9.769306e-08
2.0025975e-09
-1.0080837e-07
4.1668891e-09
-1.0524836e-07
5.7835161e-09
-1.1187158e-07
8.834262e-09
-1.1521173e-07
4.3503641e-09
-1.1725613e-07
2.7891295e-09
-1.1683352e-07
-5.9313518e-10
-1.1464439e-07
-2.8266592e-09
-1.1045571e-07
-5.5561363e-09
-1.0461174e-07
-7.6751741e-09
-9.7013148e-08
-1.005481e-08
-8.7852398e-08
-1.2073172e-08
-7.7057573e-08
-1.4275966e-08
-6.4701163e-08
-1.6308732e-08
-5.0671788e-08
-1.8552198e-08
-3.4974217e-08
-2.073661e-08
-1.7457736e-08
-2.3167305e-08
1.9780514e-09
-2.5689147e-08
2.3834636e-08
-2.8914088e-08
4.7992099e-08
-3.1954267e-08
7.4260787e-08
-3.4761459e-08
1.0249845e-07
-3.7368409e-08
1.3261596e-07
-3.9864324e-08
1.6451239e-07
-4.2223447e-08
1.9809014e-07
-4.4455138e-08
2.3320824e-07
-4.6502277e-08
2.6964272e-07
-4.8243069e-08
3.071274e-07
-4.9643127e-08
3.4519471e-07
-5.0407005e-08
3.8302946e-07
-5.0116727e-08
4.188841e-07
-4.7466511e-08
4.5254492e-07
-4.4554371e-08
4.848599e-07
-4.2764089e-08
5.1638206e-07
-4.1721497e-08
5.4751922e-07
-4.1208272e-08
5.7868348e-07
-4.1251176e-08
6.1021539e-07
-4.1734004e-08
6.4257874e-07
-4.285086e-08
6.7626212e-07
-4.4593317e-08
7.1189598e-07
-4.7204077e-08
7.503384e-07
-5.0908186e-08
7.9314812e-07
-5.674121e-08
8.4325768e-07
-6.637776e-08
9.0689273e-07
-8.4422692e-08
9.8376807e-07
-1.0199492e-07
1.0722917e-06
-1.1740926e-07
1.1736717e-06
-1.3450044e-07
1.2904582e-06
-1.5485224e-07
1.4262018e-06
-1.8012968e-07
1.5851365e-06
-2.1072342e-07
1.7734029e-06
-2.4995116e-07
1.9972345e-06
-2.968063e-07
2.2605755e-06
-3.499449e-07
2.5616698e-06
-3.9918095e-07
2.8916746e-06
-4.3908607e-07
3.2041412e-06
-4.1372385e-07
3.3885853e-06
-2.457788e-07
3.3071601e-06
1.1466494e-07
3.0164298e-06
3.8710951e-07
2.588681e-06
5.753791e-07
2.122158e-06
6.1570822e-07
1.6722229e-06
6.0486487e-07
1.3047008e-06
4.7714466e-07
1.0309055e-06
3.7515549e-07
8.8128553e-07
1.7931315e-07
4.154225e-08
1.7636365e-06
-3.8926606e-07
-4.5305046e-07
-8.3080175e-07
-4.1104295e-08
-8.0765854e-07
-4.0770794e-08
-7.8471582e-07
-4.0418052e-08
-7.6198413e-07
-4.0046935e-08
-7.3947354e-07
-3.965741e-08
-7.1719378e-07
-3.9251327e-08
-6.951542e-07
-3.8828735e-08
-6.7336394e-07
-3.8389582e-08
-6.5183164e-07
-3.7935625e-08
-6.3056597e-07
-3.7466002e-08
-6.0957474e-07
-3.6983126e-08
-5.8886575e-07
-3.648591e-08
-5.684469e-07
-3.5975626e-08
-5.4832568e-07
-3.5451127e-08
-5.2850952e-07
-3.4914755e-08
-5.0900631e-07
-3.4362563e-08
-4.898231e-07
-3.3800967e-08
-4.7096767e-07
-3.3222406e-08
-4.5244804e-07
-3.2632863e-08
-4.3427295e-07
-3.2024369e-08
-4.1645061e-07
-3.1406143e-08
-3.9899099e-07
-3.076453e-08
-3.819034e-07
-3.0113709e-08
-3.6520021e-07
-2.9432485e-08
-3.488929e-07
-2.8741706e-08
-3.329976e-07
-2.8009791e-08
-3.1752973e-07
-2.7266195e-08
-3.0250994e-07
-2.6467523e-08
-2.8795715e-07
-2.5658596e-08
-2.7390099e-07
-2.4769772e-08
-2.6036868e-07
-2.3866306e-08
-2.4739924e-07
-2.285421e-08
-2.3503082e-07
-2.1823107e-08
-2.2331599e-07
-2.0641524e-08
-2.1231027e-07
-1.9431624e-08
-2.0208408e-07
-1.8014218e-08
-1.9271511e-07
-1.6560346e-08
-1.843001e-07
-1.4815353e-08
-1.7694905e-07
-1.3021383e-08
-1.7079662e-07
-1.0816031e-08
-1.65994e-07
-8.5533321e-09
-1.6273963e-07
-5.6893999e-09
-1.6123243e-07
-2.7760366e-09
-1.6179784e-07
1.0733779e-09
-1.6463313e-07
4.8380943e-09
-1.6995631e-07
9.4903297e-09
-1.7787712e-07
1.3704455e-08
-1.8917892e-07
2.0136305e-08
-1.9509494e-07
1.0266495e-08
-1.9841049e-07
6.1047846e-09
-1.97716e-07
-1.2874924e-09
-1.9374175e-07
-6.8007179e-09
-1.8649339e-07
-1.2804325e-08
-1.762307e-07
-1.7937731e-08
-1.6306096e-07
-2.322441e-08
-1.4708754e-07
-2.8046435e-08
-1.2837582e-07
-3.2987525e-08
-1.0689385e-07
-3.7790593e-08
-8.2582994e-08
-4.2862912e-08
-5.5338431e-08
-4.7981079e-08
-2.4999531e-08
-5.3506241e-08
8.6976738e-09
-5.938605e-08
4.6533819e-08
-6.6750095e-08
8.8358454e-08
-7.3778936e-08
1.3380309e-07
-8.0205799e-08
1.8265494e-07
-8.6220275e-08
2.3473733e-07
-9.1946302e-08
2.8988615e-07
-9.7372087e-08
3.4793263e-07
-1.0250191e-07
4.0862227e-07
-1.0719242e-07
4.7159113e-07
-1.1121188e-07
5.3634598e-07
-1.1439783e-07
6.0211607e-07
-1.1617701e-07
6.6745584e-07
-1.1545644e-07
7.294545e-07
-1.0946503e-07
7.8769701e-07
-1.0279678e-07
8.4364083e-07
-9.8707825e-08
8.9821973e-07
-9.6300415e-08
9.5214411e-07
-9.5132726e-08
1.0060807e-06
-9.5187693e-08
1.0606671e-06
-9.6320146e-08
1.1166504e-06
-9.8834012e-08
1.1749273e-06
-1.0286999e-07
1.2365102e-06
-1.0878701e-07
1.3029953e-06
-1.173931e-07
1.3768954e-06
-1.3064126e-07
1.4634907e-06
-1.5297273e-07
1.5730485e-06
-1.9398036e-07
1.7053282e-06
-2.342745e-07
1.8576915e-06
-2.6977251e-07
2.0320972e-06
-3.089059e-07
2.2330977e-06
-3.5585253e-07
2.4663618e-06
-4.1339311e-07
2.7396517e-06
-4.8401288e-07
3.0625087e-06
-5.7280746e-07
3.4467537e-06
-6.8104931e-07
3.8968523e-06
-8.0004422e-07
4.4128473e-06
-9.1517466e-07
4.9746537e-06
-1.0008953e-06
5.510204e-06
-9.4927401e-07
5.824947e-06
-5.605211e-07
5.705826e-06
2.3378436e-07
5.2199918e-06
8.7294304e-07
4.5113954e-06
1.2839733e-06
3.7105282e-06
1.4165743e-06
2.9573276e-06
1.3580634e-06
2.304513e-06
1.1299589e-06
1.8568874e-06
8.2277896e-07
1.5571474e-06
4.7905423e-07
4.8758671e-08
2.6264052e-06
-6.8538604e-07
-7.5917745e-07
-1.203808e-06
-7.5143381e-08
-1.1700462e-06
-7.4532528e-08
-1.1365777e-06
-7.3886515e-08
-1.1034178e-06
-7.3206952e-08
-1.070581e-06
-7.2494056e-08
-1.0380815e-06
-7.1750743e-08
-1.0059331e-06
-7.0977177e-08
-9.7414878e-07
-7.0173792e-08
-9.4274144e-07
-6.9342867e-08
-9.1172342e-07
-6.8483923e-08
-8.8110641e-07
-6.7600031e-08
-8.5090147e-07
-6.6690751e-08
-8.211205e-07
-6.5756513e-08
-7.9177399e-07
-6.4797574e-08
-7.628734e-07
-6.3815276e-08
-7.344295e-07
-6.2806294e-08
-7.0645354e-07
-6.1776942e-08
-6.7895578e-07
-6.0720114e-08
-6.5194941e-07
-5.9639144e-08
-6.2544545e-07
-5.8528248e-08
-5.9945814e-07
-5.7393412e-08
-5.7399941e-07
-5.6223183e-08
-5.4908624e-07
-5.5026809e-08
-5.2473272e-07
-5.3785914e-08
-5.0096066e-07
-5.2513702e-08
-4.7778766e-07
-5.1182734e-08
-4.5524364e-07
-4.9810148e-08
-4.3334992e-07
-4.8361155e-08
-4.1214512e-07
-4.686338e-08
-3.9165941e-07
-4.5255438e-08
-3.7194847e-07
-4.3577197e-08
-3.5305018e-07
-4.1752445e-08
-3.350434e-07
-3.9829858e-08
-3.1797709e-07
-3.7707781e-08
-3.0196564e-07
-3.5442964e-08
-2.8707169e-07
-3.2908081e-08
-2.7345683e-07
-3.01751e-08
-2.6120408e-07
-2.7068011e-08
-2.5054347e-07
-2.3681858e-08
-2.415875e-07
-1.9771902e-08
-2.346571e-07
-1.5483647e-08
-2.2992035e-07
-1.0426038e-08
-2.2781197e-07
-4.8842697e-09
-2.286302e-07
1.8917725e-09
-2.3287218e-07
9.0803039e-09
-2.406248e-07
1.7243219e-08
-2.5235875e-07
2.5438555e-08
-2.6870136e-07
3.6479189e-08
-2.7736572e-07
1.8930987e-08
-2.8198534e-07
1.0724557e-08
-2.8092476e-07
-2.3479189e-09
-2.7496025e-07
-1.2765022e-08
-2.6434595e-07
-2.341843e-08
-2.4926086e-07
-3.3022675e-08
-2.3002825e-07
-4.2456853e-08
-2.0666168e-07
-5.1412834e-08
-1.7936942e-07
-6.0279606e-08
-1.4800979e-07
-6.9150096e-08
-1.1257957e-07
-7.8292979e-08
-7.2859809e-08
-8.7700713e-08
-2.8676922e-08
-9.7689109e-08
2.0408415e-08
-1.084711e-07
7.5471156e-08
-1.2181268e-07
1.3632516e-07
-1.3463294e-07
2.0241402e-07
-1.4629439e-07
2.7344491e-07
-1.5725114e-07
3.4915304e-07
-1.6765405e-07
4.2930494e-07
-1.7752381e-07
5.1365082e-07
-1.868478e-07
6.0181784e-07
-1.9535965e-07
6.9328241e-07
-2.0267638e-07
7.873282e-07
-2.0844346e-07
8.8285282e-07
-2.1170156e-07
9.7772605e-07
-2.1032962e-07
1.0678246e-06
-1.9956352e-07
1.1525504e-06
-1.8752245e-07
1.2339592e-06
-1.8011656e-07
1.3133835e-06
-1.757246e-07
1.3918747e-06
-1.7362387e-07
1.4703652e-06
-1.7367811e-07
1.5498025e-06
-1.7575715e-07
1.631217e-06
-1.8024834e-07
1.7159678e-06
-1.8762066e-07
1.8054594e-06
-1.9827866e-07
1.9020551e-06
-2.1398864e-07
2.0093665e-06
-2.3795256e-07
2.1350713e-06
-2.7867725e-07
2.2936944e-06
-3.5260329e-07
2.4850105e-06
-4.2559035e-07
2.7054657e-06
-4.9022762e-07
2.9576902e-06
-5.6113017e-07
3.2483932e-06
-6.4655524e-07
3.5854181e-06
-7.5041726e-07
3.9802784e-06
-8.7887264e-07
4.4458994e-06
-1.0384276e-06
4.9997431e-06
-1.2348912e-06
5.6470653e-06
-1.4473668e-06
6.3891544e-06
-1.6572627e-06
7.1943737e-06
-1.8061167e-06
7.9636837e-06
-1.7185837e-06
8.4191238e-06
-1.0159603e-06
8.2716235e-06
3.8128335e-07
7.5959443e-06
1.5486216e-06
6.603129e-06
2.2767866e-06
5.4585902e-06
2.5611121e-06
4.3860746e-06
2.4305769e-06
3.4315753e-06
2.084458e-06
2.7931004e-06
1.4612516e-06
2.3323212e-06
9.3983446e-07
5.0794164e-08
3.5884106e-06
-1.06152e-06
-1.1416865e-06
-1.6016189e-06
-1.2075275e-07
-1.5563822e-06
-1.1976917e-07
-1.5115395e-06
-1.1872918e-07
-1.4671111e-06
-1.1763538e-07
-1.4231167e-06
-1.1648835e-07
-1.3795751e-06
-1.1529235e-07
-1.3365045e-06
-1.1404767e-07
-1.2939226e-06
-1.1275559e-07
-1.2518466e-06
-1.1141882e-07
-1.2102928e-06
-1.100376e-07
-1.1692771e-06
-1.0861562e-07
-1.1288141e-06
-1.0715364e-07
-1.08892e-06
-1.0565049e-07
-1.0496086e-06
-1.0410892e-07
-1.0108957e-06
-1.0252815e-07
-9.7279515e-07
-1.0090664e-07
-9.3532284e-07
-9.9249251e-08
-8.9849175e-07
-9.7551151e-08
-8.6232056e-07
-9.581023e-08
-8.26823e-07
-9.4025726e-08
-7.9201964e-07
-9.2196723e-08
-7.579248e-07
-9.0317931e-08
-7.2456357e-07
-8.8387972e-08
-6.9195225e-07
-8.639713e-08
-6.6012353e-07
-8.4342355e-08
-6.2909709e-07
-8.2209116e-08
-5.9891805e-07
-7.9989117e-08
-5.696092e-07
-7.7669919e-08
-5.4122977e-07
-7.5242797e-08
-5.1381144e-07
-7.2673718e-08
-4.8743969e-07
-6.9948899e-08
-4.6215251e-07
-6.7039565e-08
-4.3807124e-07
-6.3911095e-08
-4.1524288e-07
-6.0536082e-08
-3.9384321e-07
-5.6842539e-08
-3.7392913e-07
-5.2822073e-08
-3.5574967e-07
-4.8354454e-08
-3.3937687e-07
-4.3440723e-08
-3.251657e-07
-3.7892896e-08
-3.1321018e-07
-3.1727339e-08
-3.0400778e-07
-2.4685964e-08
-2.9770139e-07
-1.6732324e-08
-2.9497073e-07
-7.6147862e-09
-2.9609416e-07
3.0153617e-09
-3.0188055e-07
1.4866912e-08
-3.1230138e-07
2.7664317e-08
-3.2820395e-07
4.1341257e-08
-3.4996564e-07
5.8241136e-08
-3.6155329e-07
3.0518749e-08
-3.6750114e-07
1.6672522e-08
-3.6596436e-07
-3.884574e-09
-3.5778479e-07
-2.0944407e-08
-3.4347102e-07
-3.7732025e-08
-3.2313353e-07
-5.3360039e-08
-2.9731271e-07
-6.8277526e-08
-2.6593536e-07
-8.2790023e-08
-2.293583e-07
-9.685651e-08
-1.8732677e-07
-1.1118152e-07
-1.3989401e-07
-1.257256e-07
-8.6721381e-08
-1.4087322e-07
-2.7620823e-08
-1.5678967e-07
3.803496e-08
-1.7412661e-07
1.1162939e-07
-1.9540696e-07
1.9293688e-07
-2.1594045e-07
2.8120022e-07
-2.3455747e-07
3.7604566e-07
-2.5209655e-07
4.7710822e-07
-2.6871622e-07
5.8408333e-07
-2.8449868e-07
6.9663073e-07
-2.993951e-07
8.1425785e-07
-3.1298691e-07
9.3626988e-07
-3.2468833e-07
1.0616948e-06
-3.3386818e-07
1.1890912e-06
-3.3909785e-07
1.3155835e-06
-3.3682183e-07
1.4358454e-06
-3.1982528e-07
1.5490162e-06
-3.0069314e-07
1.657827e-06
-2.8892721e-07
1.7639961e-06
-2.818935e-07
1.8689043e-06
-2.7853199e-07
1.9738125e-06
-2.7858626e-07
2.0799555e-06
-2.8189992e-07
2.1887088e-06
-2.8900138e-07
2.3018693e-06
-3.0078101e-07
2.4213171e-06
-3.1772638e-07
2.5501858e-06
-3.4285722e-07
2.6932516e-06
-3.8101826e-07
2.8608116e-06
-4.4623689e-07
3.0716738e-06
-5.6346537e-07
3.3257924e-06
-6.7970879e-07
3.6185696e-06
-7.8300478e-07
3.953569e-06
-8.9612938e-07
4.3395161e-06
-1.0325021e-06
4.7866248e-06
-1.1975252e-06
5.3101789e-06
-1.4024263e-06
5.9268395e-06
-1.6550875e-06
6.6595042e-06
-1.9675542e-06
7.5142986e-06
-2.3021617e-06
8.4934083e-06
-2.6363716e-06
9.5534886e-06
-2.8661994e-06
1.056708e-05
-2.7321753e-06
1.117444e-05
-1.6233192e-06
1.1009629e-05
5.4609247e-07
1.0151964e-05
2.4062862e-06
8.8737602e-06
3.5549879e-06
7.3781311e-06
4.0567398e-06
5.9708309e-06
3.837875e-06
4.6986206e-06
3.3566679e-06
3.8512766e-06
2.3085934e-06
3.218257e-06
1.5728551e-06
5.6772591e-08
4.6593907e-06
-1.5139739e-06
-1.6005473e-06
-2.0248515e-06
-1.7884425e-07
-1.9672361e-06
-1.7738449e-07
-1.9101239e-06
-1.7584136e-07
-1.8535406e-06
-1.742187e-07
-1.7975112e-06
-1.725176e-07
-1.7420596e-06
-1.7074393e-07
-1.6872091e-06
-1.6889817e-07
-1.6329819e-06
-1.6698271e-07
-1.5794e-06
-1.6500066e-07
-1.5264841e-06
-1.6295339e-07
-1.4742545e-06
-1.6084512e-07
-1.4227297e-06
-1.5867832e-07
-1.3719305e-06
-1.5644957e-07
-1.3218743e-06
-1.5416504e-07
-1.2725815e-06
-1.5182088e-07
-1.2240696e-06
-1.4941843e-07
-1.1763591e-06
-1.4695972e-07
-1.1294663e-06
-1.444439e-07
-1.0834157e-06
-1.4186081e-07
-1.0382239e-06
-1.3921738e-07
-9.9391845e-07
-1.3650217e-07
-9.5051641e-07
-1.3371989e-07
-9.0805141e-07
-1.3085291e-07
-8.6654259e-07
-1.2790586e-07
-8.2603396e-07
-1.2485092e-07
-7.8654807e-07
-1.2169495e-07
-7.4814591e-07
-1.1839121e-07
-7.1085263e-07
-1.1496311e-07
-6.7474894e-07
-1.1134647e-07
-6.3986932e-07
-1.0755329e-07
-6.0633017e-07
-1.03488e-07
-5.7417114e-07
-9.9198533e-08
-5.4355774e-07
-9.4524453e-08
-5.14537e-07
-8.9556773e-08
-4.8734841e-07
-8.4031017e-08
-4.6204571e-07
-7.8124672e-08
-4.3896867e-07
-7.1431378e-08
-4.1818166e-07
-6.4227628e-08
-4.0016924e-07
-5.5905172e-08
-3.8501141e-07
-4.6885059e-08
-3.7338866e-07
-3.630862e-08
-3.6542492e-07
-2.4695933e-08
-3.6205348e-07
-1.0986075e-08
-3.6354155e-07
4.5036124e-09
-3.7102091e-07
2.2346502e-08
-3.8436697e-07
4.1010648e-08
-4.0481783e-07
6.1792283e-08
-4.3239258e-07
8.5816166e-08
-4.4708031e-07
4.520663e-08
-4.5436991e-07
2.3962281e-08
-4.5222939e-07
-6.0249365e-09
-4.4158678e-07
-3.1586801e-08
-4.2321675e-07
-5.6101874e-08
-3.9716417e-07
-7.9412463e-08
-3.6419551e-07
-1.0124602e-07
-3.2415635e-07
-1.22829e-07
-2.7754889e-07
-1.434638e-07
-2.240084e-07
-1.6472189e-07
-1.6364175e-07
-1.8609209e-07
-9.599003e-08
-2.0852479e-07
-2.0846307e-08
-2.3193334e-07
6.2616146e-08
-2.575888e-07
1.5610546e-07
-2.888961e-07
2.5935055e-07
-3.1918552e-07
3.7138284e-07
-3.4658952e-07
4.9174192e-07
-3.7245556e-07
6.1995764e-07
-3.969316e-07
7.5564416e-07
-4.2018499e-07
8.9837084e-07
-4.4212154e-07
1.0475076e-06
-4.6212363e-07
1.2021848e-06
-4.7936547e-07
1.3611727e-06
-4.9285587e-07
1.522638e-06
-5.00563e-07
1.6829504e-06
-4.9713419e-07
1.8354656e-06
-4.7234037e-07
1.9791768e-06
-4.4440424e-07
2.1173939e-06
-4.2714424e-07
2.2522719e-06
-4.167712e-07
2.3855526e-06
-4.1181256e-07
2.51882e-06
-4.1185349e-07
2.6536094e-06
-4.1668911e-07
2.7916967e-06
-4.2708849e-07
2.935327e-06
-4.4441118e-07
3.0868353e-06
-4.6923462e-07
3.2502125e-06
-5.0623426e-07
3.4315139e-06
-5.6231957e-07
3.6436822e-06
-6.5840487e-07
3.9100221e-06
-8.2980509e-07
4.2306847e-06
-1.0003711e-06
4.6002071e-06
-1.1525271e-06
5.0228439e-06
-1.3187659e-06
5.5097443e-06
-1.5194021e-06
6.0733143e-06
-1.7610944e-06
6.7328514e-06
-2.0619629e-06
7.5086998e-06
-2.4309351e-06
8.4292374e-06
-2.8880902e-06
9.5015902e-06
-3.3745147e-06
1.072829e-05
-3.8630706e-06
1.2054426e-05
-4.1923377e-06
1.3322341e-05
-4.0000895e-06
1.4093381e-05
-2.394358e-06
1.392423e-05
7.1524112e-07
1.2895152e-05
3.4353644e-06
1.1332985e-05
5.1171523e-06
9.4810575e-06
5.9086663e-06
7.7245419e-06
5.5943886e-06
6.1191311e-06
4.9620785e-06
5.0441074e-06
3.3836148e-06
4.2274634e-06
2.3895002e-06
7.7296356e-08
5.8498924e-06
-2.037566e-06
-2.1350046e-06
-2.47401e-06
-2.5037835e-07
-2.4030641e-06
-2.4833037e-07
-2.3327395e-06
-2.4616593e-07
-2.2630678e-06
-2.4389042e-07
-2.1940797e-06
-2.4150559e-07
-2.1258044e-06
-2.3901919e-07
-2.0582706e-06
-2.364319e-07
-1.9915056e-06
-2.337476e-07
-1.9255364e-06
-2.3096976e-07
-1.8603885e-06
-2.2810121e-07
-1.7960869e-06
-2.2514662e-07
-1.7326543e-06
-2.2211077e-07
-1.6701165e-06
-2.1898733e-07
-1.6084947e-06
-2.1578672e-07
-1.5478143e-06
-2.1250122e-07
-1.4880967e-06
-2.0913584e-07
-1.4293676e-06
-2.0568882e-07
-1.3716468e-06
-2.0216467e-07
-1.3149648e-06
-1.9854268e-07
-1.2593421e-06
-1.9484003e-07
-1.204813e-06
-1.9103122e-07
-1.1513982e-06
-1.8713465e-07
-1.09914e-06
-1.8311096e-07
-1.0480613e-06
-1.7898448e-07
-9.9821789e-07
-1.7469429e-07
-9.4963595e-07
-1.7027682e-07
-9.0239301e-07
-1.6563408e-07
-8.5651764e-07
-1.608384e-07
-8.1211296e-07
-1.5575114e-07
-7.6921749e-07
-1.5044871e-07
-7.2797981e-07
-1.4472562e-07
-6.8844303e-07
-1.3873526e-07
-6.5081836e-07
-1.3214908e-07
-6.1515518e-07
-1.252199e-07
-5.8175892e-07
-1.1742717e-07
-5.5068314e-07
-1.0920036e-07
-5.2236145e-07
-9.9752948e-08
-4.9685456e-07
-8.9734431e-08
-4.7478085e-07
-7.7978746e-08
-4.5621174e-07
-6.5454066e-08
-4.4201659e-07
-5.0503683e-08
-4.3230795e-07
-3.4404457e-08
-4.2828041e-07
-1.5013474e-08
-4.3020037e-07
6.4237553e-09
-4.3953283e-07
3.1679178e-08
-4.5608032e-07
5.7558391e-08
-4.8148424e-07
8.7196338e-08
-5.1528155e-07
1.1961375e-07
-5.3324516e-07
6.3170373e-08
-5.4187908e-07
3.2596305e-08
-5.3898774e-07
-8.9161584e-09
-5.2561153e-07
-4.4962829e-08
-5.0279771e-07
-7.8915537e-08
-4.7053758e-07
-1.1167246e-07
-4.2982856e-07
-1.4195491e-07
-3.8043642e-07
-1.7222099e-07
-3.2301357e-07
-2.008865e-07
-2.5708334e-07
-2.3065203e-07
-1.8280674e-07
-2.6036856e-07
-9.960007e-08
-2.9173134e-07
-7.2368464e-09
-3.2429654e-07
9.5322518e-08
-3.6014794e-07
2.1012623e-07
-4.0369968e-07
3.3685326e-07
-4.4591255e-07
4.7431148e-07
-4.840475e-07
6.2194837e-07
-5.2009239e-07
7.7918569e-07
-5.5416858e-07
9.4553833e-07
-5.8653739e-07
1.1204966e-06
-6.1707961e-07
1.3032789e-06
-6.4490591e-07
1.4928091e-06
-6.6889561e-07
1.6875978e-06
-6.8764435e-07
1.8854062e-06
-6.9837127e-07
2.0817949e-06
-6.9352279e-07
2.2688231e-06
-6.5936835e-07
2.4452123e-06
-6.2079324e-07
2.6149277e-06
-5.9685944e-07
2.7805776e-06
-5.8242082e-07
2.9442876e-06
-5.7552242e-07
3.1079122e-06
-5.7547803e-07
3.2734329e-06
-5.8220952e-07
3.442869e-06
-5.9652432e-07
3.6190617e-06
-6.2060368e-07
3.8048263e-06
-6.5499913e-07
4.0050635e-06
-7.0647129e-07
4.227086e-06
-7.8434198e-07
4.4867562e-06
-9.1807466e-07
4.8119056e-06
-1.1549543e-06
5.202987e-06
-1.3914524e-06
5.6535625e-06
-1.6031024e-06
6.1689907e-06
-1.8341939e-06
6.7623373e-06
-2.1127484e-06
7.4489132e-06
-2.4476696e-06
8.2515987e-06
-2.864648e-06
9.1947408e-06
-3.3740763e-06
1.0312058e-05
-4.0054062e-06
1.1611771e-05
-4.6742279e-06
1.3096187e-05
-5.3474861e-06
1.4698709e-05
-5.7948612e-06
1.6231051e-05
-5.5324318e-06
1.717797e-05
-3.3412767e-06
1.7019102e-05
8.741075e-07
1.5831777e-05
4.6226889e-06
1.3989907e-05
6.9590202e-06
1.1779172e-05
8.1194002e-06
9.6603555e-06
7.7132025e-06
7.7073143e-06
6.9151194e-06
6.3851951e-06
4.7057317e-06
5.3734279e-06
3.4012685e-06
1.244213e-07
7.1713421e-06
-2.6255612e-06
-2.7433446e-06
-2.9494426e-06
-3.3636387e-07
-2.8641664e-06
-3.3360652e-07
-2.7796391e-06
-3.3069316e-07
-2.6958986e-06
-3.2763092e-07
-2.6129817e-06
-3.2442239e-07
-2.5309234e-06
-3.2107752e-07
-2.4497579e-06
-3.1759732e-07
-2.3695181e-06
-3.1398733e-07
-2.2902364e-06
-3.1025137e-07
-2.2119433e-06
-3.0639426e-07
-2.1346688e-06
-3.0242099e-07
-2.0584404e-06
-2.9833904e-07
-1.983289e-06
-2.9413867e-07
-1.9092402e-06
-2.8983549e-07
-1.8363245e-06
-2.8541679e-07
-1.7645678e-06
-2.8089246e-07
-1.6940011e-06
-2.7625553e-07
-1.6246482e-06
-2.7151752e-07
-1.5565462e-06
-2.6664458e-07
-1.4897196e-06
-2.6166659e-07
-1.4242101e-06
-2.5654069e-07
-1.3600425e-06
-2.513022e-07
-1.2972685e-06
-2.4588488e-07
-1.2359151e-06
-2.4033784e-07
-1.1760505e-06
-2.3455883e-07
-1.1177055e-06
-2.2862173e-07
-1.0609748e-06
-2.2236467e-07
-1.0058917e-06
-2.1592145e-07
-9.5258239e-07
-2.0906044e-07
-9.0109107e-07
-2.0193997e-07
-8.5159963e-07
-1.9421701e-07
-8.0415652e-07
-1.861783e-07
-7.5902038e-07
-1.7728518e-07
-7.1624543e-07
-1.6799479e-07
-6.7620515e-07
-1.5746734e-07
-6.3895642e-07
-1.4644898e-07
-6.0502952e-07
-1.3367972e-07
-5.7448614e-07
-1.2027769e-07
-5.4808241e-07
-1.0438233e-07
-5.2588748e-07
-8.7648873e-08
-5.0896492e-07
-6.7426141e-08
-4.9742473e-07
-4.5944507e-08
-4.9272966e-07
-1.9708379e-08
-4.951573e-07
8.8515895e-09
-5.0651522e-07
4.3037333e-08
-5.2656042e-07
7.7603867e-08
-5.5734815e-07
1.1798424e-07
-5.97792e-07
1.600579e-07
-6.1920713e-07
8.4585674e-08
-6.2917278e-07
4.2562122e-08
-6.2536114e-07
-1.2727637e-08
-6.0895597e-07
-6.1367786e-08
-5.812826e-07
-1.0658873e-07
-5.4228934e-07
-1.5066557e-07
-4.9320932e-07
-1.9103475e-07
-4.3373605e-07
-2.3169408e-07
-3.6467278e-07
-2.699496e-07
-2.8542798e-07
-3.0989672e-07
-1.9621747e-07
-3.4957891e-07
-9.6331737e-08
-3.9161694e-07
1.4476147e-08
-4.3510435e-07
1.3747354e-07
-4.8314511e-07
2.7506839e-07
-5.4129435e-07
4.2687742e-07
-5.9772154e-07
5.9147973e-07
-6.4864961e-07
7.6821715e-07
-6.9682972e-07
9.5639905e-07
-7.4235018e-07
1.1554591e-06
-7.8559729e-07
1.3647608e-06
-8.26381e-07
1.5833748e-06
-8.6351979e-07
1.8100335e-06
-8.9555421e-07
2.0429404e-06
-9.2055111e-07
2.2794419e-06
-9.3487264e-07
2.5142407e-06
-9.2832162e-07
2.7380379e-06
-8.8316535e-07
2.949345e-06
-8.3210019e-07
3.1527724e-06
-8.0028668e-07
3.3513684e-06
-7.8101654e-07
3.5475979e-06
-7.7175171e-07
3.7437445e-06
-7.716245e-07
3.9420372e-06
-7.8050202e-07
4.1450439e-06
-7.9953088e-07
4.3559818e-06
-8.315413e-07
4.5782467e-06
-8.7726402e-07
4.8177464e-06
-9.4597073e-07
5.0831242e-06
-1.0497197e-06
5.3932078e-06
-1.2281579e-06
5.7805071e-06
-1.5422533e-06
6.2457681e-06
-1.856713e-06
6.7819084e-06
-2.1392426e-06
7.3950803e-06
-2.4473655e-06
8.1007198e-06
-2.8183876e-06
8.9165954e-06
-3.2635443e-06
9.8695069e-06
-3.817559e-06
1.0988073e-05
-4.4926411e-06
1.231069e-05
-5.3280219e-06
1.3847022e-05
-6.2105606e-06
1.5598663e-05
-7.0991266e-06
1.7487271e-05
-7.6834703e-06
1.9293154e-05
-7.3383151e-06
2.0428712e-05
-4.476833e-06
2.029647e-05
1.0063473e-06
1.8966959e-05
5.9521996e-06
1.6852876e-05
9.0731007e-06
1.4283797e-05
1.0688478e-05
1.1791671e-05
1.0205327e-05
9.4778006e-06
9.2289898e-06
7.8888816e-06
6.2946483e-06
6.6706313e-06
4.6195198e-06
2.1170299e-07
8.6358046e-06
-3.2694935e-06
-3.4228263e-06
-3.4512778e-06
-4.3785592e-07
-3.3506259e-06
-4.3425844e-07
-3.2508605e-06
-4.304585e-07
-3.1520261e-06
-4.2646523e-07
-3.054166e-06
-4.222824e-07
-2.9573214e-06
-4.179221e-07
-2.8615327e-06
-4.1338599e-07
-2.7668384e-06
-4.0868152e-07
-2.6732767e-06
-4.03813e-07
-2.5808836e-06
-3.9878726e-07
-2.4896945e-06
-3.9360991e-07
-2.3997419e-06
-3.8829152e-07
-2.3110623e-06
-3.8281825e-07
-2.2236859e-06
-3.772118e-07
-2.1376489e-06
-3.7145373e-07
-2.0529818e-06
-3.6555942e-07
-1.9697214e-06
-3.5951586e-07
-1.8878962e-06
-3.5334268e-07
-1.80755e-06
-3.4699071e-07
-1.7287118e-06
-3.4050472e-07
-1.6514313e-06
-3.3382113e-07
-1.5757379e-06
-3.2699556e-07
-1.5016931e-06
-3.1992956e-07
-1.429329e-06
-3.1270188e-07
-1.3587266e-06
-3.0516114e-07
-1.2899226e-06
-2.9742574e-07
-1.2230292e-06
-2.8925798e-07
-1.1580857e-06
-2.8086485e-07
-1.0952424e-06
-2.7190374e-07
-1.0345509e-06
-2.6263142e-07
-9.7622731e-07
-2.5254049e-07
-9.2032791e-07
-2.4207763e-07
-8.6715999e-07
-2.3045305e-07
-8.1678579e-07
-2.1836892e-07
-7.6964865e-07
-2.0460437e-07
-7.2581271e-07
-1.9028481e-07
-6.8590758e-07
-1.7358473e-07
-6.5000127e-07
-1.561839e-07
-6.1899103e-07
-1.3539243e-07
-5.9295122e-07
-1.1368857e-07
-5.7314413e-07
-8.7233139e-08
-5.5968756e-07
-5.9400949e-08
-5.5431824e-07
-2.507754e-08
-5.5733863e-07
1.1872164e-08
-5.7090723e-07
5.6606146e-08
-5.9476727e-07
1.0146416e-07
-6.3139606e-07
1.5461317e-07
-6.7892377e-07
2.075859e-07
-7.0396084e-07
1.0962289e-07
-7.1522861e-07
5.3829997e-08
-7.1030598e-07
-1.7650143e-08
-6.9054889e-07
-8.1124717e-08
-6.575661e-07
-1.3957138e-07
-6.1128337e-07
-1.9694818e-07
-5.5316719e-07
-2.491508e-07
-4.8284494e-07
-3.0201619e-07
-4.0127225e-07
-3.5152215e-07
-3.0774625e-07
-4.0342263e-07
-2.0253362e-07
-4.5479143e-07
-8.479685e-08
-5.093536e-07
4.5726656e-08
-5.6562783e-07
1.9055233e-07
-6.2797059e-07
3.5246545e-07
-7.0320734e-07
5.3100789e-07
-7.7626397e-07
7.2452497e-07
-8.4216649e-07
9.3225062e-07
-9.0455529e-07
1.1533677e-06
-9.6346695e-07
1.3872126e-06
-1.019442e-06
1.6330278e-06
-1.0721959e-06
1.88973e-06
-1.120222e-06
2.1558436e-06
-1.1616678e-06
2.4292587e-06
-1.1939659e-06
2.7068594e-06
-1.2124732e-06
2.9824678e-06
-1.20393e-06
3.2454074e-06
-1.1461048e-06
3.4940055e-06
-1.080698e-06
3.7334102e-06
-1.0396911e-06
3.9671459e-06
-1.0147519e-06
4.1981398e-06
-1.0027455e-06
4.4289428e-06
-1.0024274e-06
4.6622669e-06
-1.0138259e-06
4.9010222e-06
-1.0382859e-06
5.1489629e-06
-1.0794818e-06
5.4101561e-06
-1.1384571e-06
5.6913323e-06
-1.2271467e-06
6.0026952e-06
-1.3610824e-06
6.3662248e-06
-1.5916871e-06
6.8189908e-06
-1.9950191e-06
7.3623821e-06
-2.4001041e-06
7.988382e-06
-2.7652424e-06
8.7043364e-06
-3.1633197e-06
9.5277957e-06
-3.6418465e-06
1.0479334e-05
-4.215082e-06
1.1589625e-05
-4.9278489e-06
1.289109e-05
-5.7941055e-06
1.4427098e-05
-6.8640288e-06
1.6208871e-05
-7.9923335e-06
1.8236112e-05
-9.1263679e-06
2.0419509e-05
-9.8668692e-06
2.2507543e-05
-9.4263481e-06
2.38443e-05
-5.81359e-06
2.3756615e-05
1.0940304e-06
2.2303793e-05
7.4050208e-06
1.9928472e-05
1.1448419e-05
1.7005238e-05
1.3611711e-05
1.4131258e-05
1.3079303e-05
1.1445447e-05
1.1914801e-05
9.570224e-06
8.1698687e-06
8.1342538e-06