/*--------------------------------*- C++ -*----------------------------------*\
| =========                 |                                                 |
| \\      /  F ield         | OpenFOAM: The Open Source CFD Toolbox           |
|  \\    /   O peration     | Version:  2.4.0                                 |
|   \\  /    A nd           | Web:      www.OpenFOAM.org                      |
|    \\/     M anipulation  |                                                 |
\*---------------------------------------------------------------------------*/
FoamFile
{
    version     2.0;
    format      ascii;
    class       volScalarField;
    location    "400";
    object      omega;
}
// * * * * * * * * * * * * * * * * * * * * * * * * * * * * * * * * * * * * * //

dimensions      [0 0 -1 0 0 0 0];

internalField   nonuniform List<scalar> 
78300
(
288636.63
288686.54
288700.32
288833.65
289515.6
291432.02
295479.08
302673.01
314010.37
329813.04
346787.82
362441.63
375829.98
386411.76
393919.79
398343.7
399991.89
399060.36
395721.33
390174.45
382632.29
373308
362413.46
350675.33
339521.98
329123.31
319421.78
310364.21
301901.89
293992.53
286594.56
279672.29
273192.3
267123.9
261439.18
256109.32
250877.53
245350.68
239525.68
233441.11
227134.93
220644.17
214005.21
207254.37
200428.97
193566.99
186709.47
179903.22
173262.16
167044.3
161298.04
156019.07
151204.62
146855.25
142973.85
139564.67
136634.53
134192.24
132247.52
130811.23
129895.27
129511.99
129657.27
129783.85
129783.85
129783.85
129783.85
129783.85
129783.85
129783.85
129783.85
129783.85
129783.85
129783.85
129783.85
129783.85
129783.85
129783.85
129783.85
129783.85
129783.85
129783.85
129783.85
129783.85
129783.85
129783.85
129783.85
129783.85
129783.85
129783.85
129783.85
129783.85
129783.85
129783.85
129783.85
129783.85
129783.85
129783.85
129783.85
129783.85
129783.85
129783.85
129783.85
129783.85
129783.85
129783.85
129783.85
129783.85
129783.85
129783.85
129783.85
129783.85
129783.85
129783.85
129783.85
129783.85
129783.85
129783.85
129783.85
129783.85
129783.85
129783.85
129783.84
129783.85
129783.85
129783.85
129783.85
129783.84
129783.85
129783.85
129783.85
129783.85
129783.85
129783.85
129783.85
129783.85
129783.84
129783.85
129783.85
129783.84
129783.85
129783.85
129783.85
129783.85
129783.85
129783.84
129783.85
129783.85
129783.85
129783.85
129783.85
129783.85
129783.85
129783.85
129783.84
129783.85
129783.85
129783.85
129783.84
129783.85
129783.85
129783.84
129783.85
129783.85
129783.84
129783.85
129783.85
129783.84
129783.85
129783.85
129783.85
129783.85
129783.85
129783.85
129783.85
129783.84
129783.85
129783.85
129783.85
129783.85
129783.85
129783.85
129783.85
129783.85
129783.85
129783.85
129783.85
129783.85
129783.85
129783.85
129783.85
129783.85
129783.85
129783.85
129783.84
129783.85
129783.85
129783.84
129783.85
129783.85
129783.85
129783.85
129783.85
129783.84
129783.85
129783.85
129783.84
129657.28
129512.01
129895.29
130811.3
132247.51
134192.34
136634.64
139564.65
142973.98
146855.32
151204.67
156018.82
161297.58
167043.87
173262.26
179902.7
186708.68
193567.05
200429.57
207253.32
214004.05
220644.49
227134.65
233439.26
239524.1
245352.66
250877.67
256108.08
261440.19
267124.37
273191.43
279670.54
286594.56
293991.4
301901.42
310366.51
319421.34
329122.77
339524.25
350675.48
362412.53
373310.22
382630.09
390168.82
395719.59
399058.71
399989.89
398342.36
393921.49
386411.4
375828.68
362441.02
346789.97
329814.86
314010.09
302672.88
295478.99
291431.81
289515.62
288834.57
288701.21
288686.52
288636.62
56899.421
48872.921
56904.184
48896.526
40283.091
49287.422
49991.575
51201.358
43606.056
53537.181
56295.078
58837.594
61013.169
62733.515
63955.005
64675.644
64945.525
64796.441
64256.417
63357.802
62135.128
60622.976
58855.5
56949.972
55138.603
53449.699
51874.043
50402.978
49028.634
47744.079
46542.587
45418.28
44365.78
43380.078
42456.669
41591.026
40741.747
39844.806
38899.486
37912.076
36888.721
35835.486
34758.385
33663.471
32556.994
31445.516
30356.728
35138.694
24354.933
32570.578
22709.252
30381.668
29415.563
20716.48
20187.079
27085.687
23125.862
22711.278
22382.079
22138.961
21983.941
21919.082
21939.319
18365.271
18367.749
25152.743
25144.31
18358.474
18356.576
18356.37
18356.262
18356.168
18356.12
18356.08
18356.067
18356.061
18356.079
18356.222
18368.195
25154.767
25157.132
25157.1
25157.061
25157.018
25156.971
25156.92
25156.864
25156.804
25156.738
25156.659
25156.358
25137.02
18358.393
18356.84
18356.972
18357.293
18371.484
25153.423
25155.667
25155.495
25155.296
25155.06
25154.759
25154.324
25153.435
25140.997
21962.603
21961.607
21961.605
21961.604
21961.603
21961.601
21961.6
21961.599
21961.598
21961.596
21961.595
21961.594
21961.593
21961.592
21961.59
21961.589
21961.588
21961.587
21961.585
21961.585
21961.583
21961.582
21961.581
21961.58
21961.579
21961.578
21961.577
21961.576
21961.574
21961.574
21961.572
21961.572
21961.571
21961.57
21961.569
21961.568
21961.567
21961.566
21961.566
21961.565
21961.564
21961.564
21961.563
21961.562
21961.562
21961.561
21961.561
21961.56
21961.559
21961.559
21961.558
21961.558
21961.557
21961.557
21961.557
21961.556
21961.557
21961.556
21961.555
21961.556
21961.555
21961.555
21961.555
21961.555
21961.554
21961.554
21961.554
21961.554
21961.554
21961.554
21961.554
21961.554
21961.554
21961.554
21961.554
21961.554
21961.554
21961.555
21961.555
21961.555
21961.555
21961.555
21961.556
21961.556
21961.556
21961.556
21961.557
21961.557
21961.557
21961.558
21961.559
21961.559
21961.561
21961.561
21961.562
21961.564
21961.565
21961.567
21961.569
21961.573
21962.075
21942.384
21919.049
21983.957
22138.99
22382.101
22711.31
23124.744
23620.736
24197.886
24854.902
25591.134
26406.056
27299.592
28272.252
29324.775
30448.545
31600.089
32760.341
33921.3
35075.785
36217.757
37341.022
38438.832
39505.254
40534.393
41519.974
42454.404
43339.366
44241.765
45203.789
46230.698
47327.752
48496.043
40884.929
41953.381
43108.181
44343.182
45665.952
47083.699
48602.963
50200.891
51683.287
52950.632
53975.693
54717.577
54409.932
54475.502
54236.19
53662.724
62657.427
61008.936
58837.514
56296.139
53540.799
50978.258
49141.969
47978.08
40566.047
40260.636
40166.975
40151.419
40151.328
48824.069
23900.272
16196.362
23894.728
16204.586
10527.612
16268.69
16529.811
16913.198
11317.051
17966.059
18879.833
19732.917
20463.235
21041.028
21451.488
21693.934
21785.111
21735.726
21555.171
21254.28
20844.643
20337.882
19745.343
19106.219
18498.461
17931.763
17403.051
16909.441
16448.284
16017.252
15614.1
15236.856
14883.706
14552.97
14243.136
13952.727
13667.882
13367.093
13050.081
12718.935
12375.712
12022.434
11661.106
11293.752
10922.435
10549.455
10210.064
14284.017
6599.7499
13180.585
6188.1066
12264.416
11800.008
5673.8522
5559.971
10816.231
7645.322
7510.7623
7401.879
7321.4749
7270.2187
7248.8228
7251.8966
5088.123
5092.7568
9991.3373
9978.8098
5085.5835
5082.2087
5082.1008
5082.0461
5081.9995
5081.9771
5081.9593
5081.9553
5081.9558
5081.971
5082.1542
5097.6769
9993.4786
9999.1982
9999.165
9999.1235
9999.0796
9999.0313
9998.9796
9998.9237
9998.8641
9998.7991
9998.7161
9998.1657
9963.0775
5085.1449
5082.4186
5082.4936
5082.8122
5101.5028
9992.7859
9997.7834
9997.627
9997.4447
9997.2291
9996.9561
9996.5596
9995.6056
9974.8776
7263.9025
7262.0342
7262.0299
7262.0269
7262.0242
7262.0213
7262.0186
7262.0158
7262.0129
7262.01
7262.0071
7262.0042
7262.0012
7261.9983
7261.9952
7261.9922
7261.9891
7261.9863
7261.9831
7261.9802
7261.9772
7261.9742
7261.9713
7261.9683
7261.9655
7261.9626
7261.9597
7261.957
7261.9542
7261.9516
7261.9488
7261.9463
7261.9438
7261.9412
7261.9387
7261.9364
7261.934
7261.9317
7261.9296
7261.9273
7261.9254
7261.9232
7261.9212
7261.9193
7261.9176
7261.9158
7261.914
7261.9125
7261.9107
7261.9094
7261.9079
7261.9065
7261.9051
7261.904
7261.9026
7261.9015
7261.9005
7261.8994
7261.8984
7261.8976
7261.8968
7261.8958
7261.8953
7261.8946
7261.8939
7261.8933
7261.8929
7261.8923
7261.892
7261.8915
7261.8913
7261.891
7261.8908
7261.8905
7261.8905
7261.8905
7261.8904
7261.8904
7261.8904
7261.8906
7261.8907
7261.891
7261.8914
7261.8916
7261.8921
7261.8927
7261.8933
7261.8941
7261.8949
7261.896
7261.897
7261.8984
7261.9
7261.9018
7261.9038
7261.9063
7261.909
7261.9122
7261.9157
7261.9216
7262.2177
7256.1549
7248.757
7270.2342
7321.5064
7401.9194
7510.8105
7647.5605
7811.6213
8002.5284
8219.8518
8463.3756
8732.9212
9028.4696
9350.1815
9698.2991
10069.927
10450.686
10834.297
11218.119
11599.809
11977.353
12348.692
12711.607
13064.131
13404.304
13730.08
14038.971
14331.548
14629.981
14948.18
15287.819
15650.922
16056.298
10675.132
10908.358
11187.711
11486.1
11805.154
12146.589
12511.838
12895.111
13249.853
13552.888
13798.142
13958.495
12602.315
12519.316
12437.165
12322.217
20865.231
20455.494
19733.257
18881.629
17958.53
17100.775
16486.398
16099.895
10625.076
10497.879
10473.553
10470.907
10472.887
16116.145
14268.632
7506.5973
14257.895
7512.0714
3633.901
7470.1062
7620.3952
7778.9571
3850.6349
8356.9015
8767.1675
9163.315
9502.6698
9771.3296
9962.2556
10075.152
10117.756
10095.076
10011.452
9871.9383
9681.9038
9446.7563
9171.7257
8874.9433
8592.6289
8329.3737
8083.7619
7854.4593
7640.2301
7439.997
7252.7153
7077.4713
6913.4195
6759.7817
6615.8518
6480.9534
6348.6756
6209.0191
6061.829
5908.0695
5748.6915
5584.6356
5416.8294
5246.2076
5073.7232
4900.6067
4766.1112
8090.6755
2443.1497
7416.2106
2314.653
6879.546
6545.8338
2140.1376
2121.5918
5966.5014
3521.9723
3462.5398
3412.3443
3375.2888
3351.6802
3341.8832
3340.2342
1960.257
1965.6961
5464.8924
5448.3078
1959.5441
1956.1233
1956.0679
1956.0432
1956.0231
1956.0162
1956.0118
1956.0149
1956.0204
1956.0359
1956.2354
1972.2535
5466.8158
5474.2613
5474.2308
5474.1901
5474.1478
5474.102
5474.0538
5474.0022
5473.9477
5473.8885
5473.8057
5472.9808
5426.3913
1959.0864
1956.3409
1956.3869
1956.6964
1976.0378
5466.613
5473.0069
5472.8789
5472.7274
5472.5502
5472.3277
5472.0012
5471.0225
5444.2799
3349.8793
3347.7021
3347.6949
3347.6897
3347.6848
3347.6799
3347.6748
3347.6697
3347.6645
3347.6592
3347.6538
3347.6483
3347.6427
3347.6371
3347.6314
3347.6257
3347.6199
3347.6142
3347.6084
3347.6027
3347.5969
3347.5911
3347.5854
3347.5797
3347.574
3347.5684
3347.5629
3347.5574
3347.5519
3347.5466
3347.5413
3347.5361
3347.531
3347.526
3347.521
3347.5162
3347.5115
3347.5069
3347.5024
3347.498
3347.4937
3347.4895
3347.4855
3347.4816
3347.4778
3347.4741
3347.4705
3347.4671
3347.4637
3347.4606
3347.4575
3347.4546
3347.4517
3347.449
3347.4464
3347.4439
3347.4416
3347.4393
3347.4372
3347.4352
3347.4333
3347.4315
3347.4298
3347.4283
3347.4268
3347.4254
3347.4241
3347.423
3347.4219
3347.4209
3347.4201
3347.4193
3347.4186
3347.418
3347.4175
3347.4171
3347.4167
3347.4165
3347.4164
3347.4163
3347.4164
3347.4165
3347.4168
3347.4172
3347.4177
3347.4184
3347.4192
3347.4203
3347.4214
3347.4228
3347.4245
3347.4264
3347.4287
3347.4313
3347.4344
3347.438
3347.442
3347.4468
3347.452
3347.4596
3347.6539
3345.0582
3341.7846
3351.6897
3375.3212
3412.3933
3462.5945
3525.6409
3601.281
3689.295
3789.4878
3901.7594
4026.0288
4162.2852
4310.5996
4471.0813
4642.3711
4817.8522
4994.6372
5171.5092
5347.4025
5521.3762
5692.4852
5859.7136
6022.1579
6178.9009
6329.0018
6471.3245
6606.1656
6743.7515
6890.4691
7047.0769
7214.6681
7425.9687
3679.1846
3724.101
3804.8528
3890.8691
3982.4634
4080.058
4183.9679
4292.3562
4392.1578
4477.3707
4546.6909
4589.7143
3910.6882
3864.711
3839.0802
3805.4171
9521.0476
9491.3523
9164.8546
8770.9998
8343.9265
7947.294
7663.1145
7487.9893
3687.1377
3606.4552
3597.7221
3597.3774
3599.4444
7398.1597
9913.4047
4205.334
9899.8438
4210.9915
1537.5765
4118.1226
4228.8877
4300.4918
1594.0763
4669.7633
4884.3961
5105.033
5294.1996
5444.1096
5550.6709
5613.7598
5637.6428
5625.1555
5578.686
5501.0783
5395.3086
5264.402
5111.25
4945.9173
4788.5862
4641.8698
4504.9861
4377.1935
4257.8008
4146.2102
4041.8373
3944.1737
3852.7479
3767.1267
3686.9137
3611.7359
3538.0373
3460.2443
3378.2517
3292.5947
3203.8046
3112.4039
3018.9068
2923.8334
2827.7144
2731.4344
2674.4998
5292.5069
1139.4347
4816.1712
1094.2375
4454.785
4181.3942
1021.5088
1028.9069
3790.6514
1952.1053
1921.0869
1893.2383
1872.6945
1859.6209
1854.2585
1851.0236
960.84134
966.51905
3438.7675
3419.4675
960.92667
957.92875
957.90456
957.8986
957.89544
957.89928
957.90448
957.91349
957.92386
957.94109
958.14486
973.504
3440.3512
3448.1729
3448.1459
3448.1071
3448.0674
3448.0251
3447.981
3447.9344
3447.8855
3447.8327
3447.7497
3446.6605
3394.3973
960.58103
958.18446
958.21418
958.51051
977.03759
3440.4232
3447.0857
3446.9849
3446.8635
3446.7235
3446.5498
3446.2905
3445.2871
3415.5101
1859.6199
1857.4625
1857.4521
1857.444
1857.4363
1857.4284
1857.4204
1857.4122
1857.4038
1857.3952
1857.3864
1857.3775
1857.3684
1857.3593
1857.35
1857.3406
1857.3312
1857.3217
1857.3122
1857.3027
1857.2932
1857.2837
1857.2742
1857.2647
1857.2553
1857.246
1857.2368
1857.2276
1857.2185
1857.2096
1857.2008
1857.192
1857.1835
1857.175
1857.1668
1857.1587
1857.1507
1857.1429
1857.1353
1857.1279
1857.1206
1857.1136
1857.1067
1857.1
1857.0936
1857.0873
1857.0812
1857.0753
1857.0696
1857.0642
1857.0589
1857.0538
1857.0489
1857.0442
1857.0397
1857.0354
1857.0313
1857.0274
1857.0237
1857.0202
1857.0168
1857.0136
1857.0107
1857.0079
1857.0052
1857.0028
1857.0005
1856.9983
1856.9964
1856.9946
1856.9929
1856.9914
1856.9901
1856.9889
1856.9878
1856.9869
1856.9862
1856.9856
1856.9851
1856.9848
1856.9847
1856.9847
1856.9849
1856.9853
1856.9859
1856.9867
1856.9877
1856.989
1856.9905
1856.9923
1856.9946
1856.9971
1857.0002
1857.0038
1857.0079
1857.0128
1857.0183
1857.0248
1857.0319
1857.0412
1857.1829
1855.8574
1854.1168
1859.6144
1872.7195
1893.285
1921.1359
1956.1144
1998.0796
2046.9108
2102.4987
2164.7864
2233.731
2309.3244
2391.6057
2480.6336
2575.643
2672.9663
2771.0047
2869.0879
2966.6291
3063.1016
3157.9846
3250.7167
3340.7961
3427.7163
3510.9509
3589.8804
3664.6839
3741.0334
3822.4609
3909.3727
4002.4651
4143.401
1552.984
1547.4947
1571.4687
1596.8154
1623.4426
1651.3968
1680.6662
1710.596
1737.8532
1761.3596
1781.1306
1794.0173
1446.0341
1421.5819
1414.961
1402.97
5147.1907
5279.5952
5108.3362
4891.0268
4654.9901
4435.7517
4278.3729
4184.7893
1574.6242
1515.6275
1511.3396
1511.17
1512.8086
4075.6493
7327.5405
2654.6442
7313.1706
2661.3225
794.04686
2540.6932
2632.4697
2663.5732
802.36922
2925.154
3046.5305
3184.0585
3302.0945
3395.7817
3462.3821
3501.8709
3516.865
3509.1783
3480.2681
3431.9389
3366.0298
3284.4436
3188.9678
3085.8585
2987.6995
2896.1591
2810.7535
2731.0221
2656.5314
2586.9098
2521.7918
2460.8608
2403.8216
2350.4038
2300.3584
2253.4551
2207.485
2158.971
2107.837
2054.4147
1999.035
1942.0235
1883.7004
1824.39
1764.4234
1704.5651
1682.0224
3684.7732
651.00585
3329.8824
633.25538
3072.8099
2843.5613
595.63836
609.49151
2565.8106
1213.2531
1195.1991
1177.8732
1165.1096
1157.004
1153.7481
1150.1759
573.71711
579.37992
2306.2704
2285.9846
574.12892
571.63988
571.63564
571.6427
571.65151
571.66368
571.67658
571.69111
571.70626
571.72625
571.9307
586.288
2307.499
2314.8033
2314.78
2314.744
2314.7077
2314.6695
2314.63
2314.5885
2314.5453
2314.4987
2314.4144
2313.1063
2260.5257
573.93696
571.95223
571.97251
572.25727
589.52858
2307.6819
2313.8704
2313.7921
2313.6962
2313.5877
2313.4552
2313.2516
2312.2265
2282.1674
1157.8214
1155.8629
1155.8488
1155.8371
1155.8258
1155.8143
1155.8024
1155.7903
1155.7778
1155.7651
1155.7521
1155.7389
1155.7254
1155.7118
1155.698
1155.6841
1155.67
1155.6559
1155.6417
1155.6275
1155.6133
1155.5991
1155.5849
1155.5708
1155.5567
1155.5428
1155.5289
1155.5152
1155.5016
1155.4882
1155.475
1155.4619
1155.4491
1155.4364
1155.424
1155.4118
1155.3998
1155.3881
1155.3767
1155.3655
1155.3546
1155.344
1155.3336
1155.3236
1155.3138
1155.3043
1155.2951
1155.2863
1155.2777
1155.2694
1155.2614
1155.2537
1155.2463
1155.2392
1155.2324
1155.2258
1155.2196
1155.2136
1155.208
1155.2026
1155.1975
1155.1926
1155.1881
1155.1838
1155.1797
1155.1759
1155.1724
1155.1691
1155.1661
1155.1633
1155.1607
1155.1583
1155.1562
1155.1543
1155.1526
1155.1512
1155.15
1155.1489
1155.1481
1155.1476
1155.1472
1155.1471
1155.1473
1155.1476
1155.1483
1155.1493
1155.1506
1155.1521
1155.1541
1155.1565
1155.1594
1155.1627
1155.1668
1155.1713
1155.1768
1155.183
1155.1903
1155.1986
1155.2079
1155.2192
1155.3306
1154.5822
1153.5466
1156.9679
1165.1151
1177.9058
1195.2295
1216.9875
1243.0924
1273.4688
1308.0484
1346.7951
1389.6831
1436.706
1487.8881
1543.2641
1602.3514
1662.8714
1723.8308
1784.8161
1845.4644
1905.4479
1964.4437
2022.1033
2078.114
2132.1625
2183.9218
2233.0138
2279.5627
2327.0886
2377.775
2431.8738
2489.8294
2598.1275
798.12011
778.85984
784.72348
790.87436
797.11165
803.44383
809.86464
816.18254
821.9145
827.16303
832.11718
836.91767
663.89345
650.41115
648.58455
639.82969
3077.9184
3284.8037
3189.5152
3056.437
2911.312
2776.3913
2679.1281
2624.0741
823.53218
777.54888
774.6201
774.13918
775.262
2511.3772
5545.9741
1817.7669
5532.447
1825.5568
500.31352
1690.8649
1770.2414
1780.7264
494.25443
1978.6824
2049.7848
2142.2141
2221.646
2284.8367
2329.7507
2356.4311
2366.5897
2361.4939
2342.0906
2309.6274
2265.3238
2210.4754
2146.2723
2076.9107
2010.8504
1949.2425
1891.7628
1838.104
1787.9724
1741.1192
1697.2971
1656.2942
1617.9105
1581.9639
1548.2853
1516.7202
1485.7885
1453.1527
1418.7535
1382.8125
1345.5521
1307.1905
1267.9436
1228.0291
1187.6717
1147.5893
1141.2121
2637.5132
441.61203
2368.7113
433.14221
2182.095
1991.9094
408.66785
422.82443
1790.6573
814.31431
802.8643
791.22589
782.6718
777.25827
775.15984
771.86452
399.20279
404.68992
1596.7502
1577.0249
399.72252
397.71274
397.72256
397.73953
397.75775
397.7771
397.79679
397.81673
397.83675
397.86001
398.06418
411.27391
1597.6738
1603.9939
1603.9746
1603.9427
1603.9107
1603.8772
1603.8427
1603.8066
1603.7691
1603.7282
1603.6423
1602.183
1553.2035
399.69268
398.09191
398.10609
398.38103
414.21267
1597.8688
1603.1998
1603.1388
1603.063
1602.9792
1602.8788
1602.7178
1601.6811
1573.3761
778.47838
776.79848
776.78005
776.76403
776.74837
776.7323
776.71585
776.69892
776.6816
776.66385
776.64575
776.62733
776.6086
776.58963
776.57042
776.55104
776.5315
776.51187
776.49214
776.47238
776.4526
776.43283
776.41312
776.39348
776.37395
776.35454
776.33529
776.31622
776.29735
776.27871
776.2603
776.24215
776.22427
776.20669
776.18942
776.17247
776.15585
776.13959
776.12368
776.10814
776.09299
776.07822
776.06384
776.04987
776.0363
776.02313
776.01039
775.99804
775.9861
775.97459
775.96348
775.95279
775.9425
775.93263
775.92315
775.91406
775.90544
775.89715
775.88928
775.88181
775.87472
775.868
775.86165
775.85567
775.85006
775.8448
775.83989
775.83533
775.8311
775.8272
775.82363
775.82037
775.81743
775.81479
775.81247
775.81044
775.80873
775.80729
775.80619
775.80536
775.80488
775.80466
775.80485
775.80529
775.80619
775.80736
775.80906
775.81105
775.81369
775.81666
775.82046
775.82466
775.8299
775.83568
775.84274
775.85056
775.85983
775.87022
775.88202
775.89559
775.9884
775.54118
774.87751
777.17602
782.64229
791.2293
802.86138
817.47168
835.00215
855.40092
878.62317
904.6436
933.44515
965.02284
999.3931
1036.5776
1076.2484
1116.8761
1157.7951
1198.7312
1239.4407
1279.7056
1319.3092
1358.0157
1395.6187
1431.9085
1466.6655
1499.6403
1530.9273
1562.8827
1596.9637
1633.3387
1672.2627
1761.7867
499.4219
477.59042
477.82216
478.20427
478.48375
478.68598
478.82377
478.82544
478.85172
479.17071
479.92992
482.79699
397.61727
389.59444
389.0231
379.97463
1967.5307
2202.5285
2150.0562
2063.1946
1967.7487
1878.898
1814.4061
1780.0004
526.03663
488.32951
485.72472
484.83436
485.46268
1668.3389
4228.9484
1319.4959
4217.4378
1328.1611
373.06685
1189.0497
1258.112
1257.8402
363.16118
1413.6809
1455.6134
1521.1329
1577.5309
1622.5414
1654.5204
1673.5609
1680.8278
1677.2696
1663.5231
1640.5099
1609.0774
1570.1615
1524.5962
1475.354
1428.4333
1384.674
1343.8466
1305.7351
1270.1292
1236.8538
1205.7315
1176.6127
1149.3544
1123.8272
1099.9093
1077.4907
1055.5244
1032.3535
1007.9299
982.40949
955.95009
928.70601
900.83034
872.47802
843.81083
815.51972
816.5751
1912.8719
339.75301
1708.9227
334.09242
1572.5572
1417.8361
314.78647
327.20449
1271.0911
577.38322
569.54887
561.29358
555.2474
551.44184
550.05195
547.34494
308.44698
313.61165
1126.4368
1108.388
308.97262
307.38802
307.40865
307.43382
307.45999
307.48586
307.51184
307.53712
307.56202
307.58852
307.79031
319.7077
1127.1346
1132.3151
1132.3003
1132.2736
1132.2468
1132.2186
1132.1895
1132.159
1132.1271
1132.0916
1132.0041
1130.4706
1087.4235
309.09967
307.83638
307.84564
308.10899
322.32902
1127.2945
1131.6451
1131.5963
1131.5355
1131.47
1131.3933
1131.2623
1130.2295
1104.9153
552.87915
551.49497
551.47156
551.45039
551.42953
551.40814
551.38622
551.36371
551.34066
551.31709
551.29307
551.26862
551.2438
551.21866
551.19324
551.1676
551.14178
551.11583
551.08978
551.0637
551.0376
551.01154
550.98555
550.95968
550.93395
550.9084
550.88307
550.85799
550.83317
550.80866
550.78446
550.76062
550.73714
550.71406
550.69139
550.66915
550.64736
550.62602
550.60517
550.58481
550.56496
550.54561
550.52679
550.5085
550.49074
550.47352
550.45684
550.44071
550.42511
550.41007
550.39557
550.38161
550.36819
550.35531
550.34296
550.33112
550.31991
550.30912
550.29889
550.28918
550.27997
550.27126
550.26305
550.25531
550.24805
550.24126
550.23494
550.22906
550.22364
550.21863
550.21407
550.20991
550.20618
550.20284
550.19992
550.19738
550.19526
550.19349
550.19217
550.19119
550.19067
550.19049
550.19083
550.19149
550.19274
550.19432
550.19659
550.1992
550.20265
550.20648
550.21136
550.2167
550.22337
550.23062
550.23951
550.24923
550.2608
550.27361
550.28822
550.30449
550.38549
550.11147
549.66324
551.29335
555.16417
561.24989
569.49536
579.85304
592.28241
606.74532
623.21084
641.66029
662.08218
684.47178
708.84134
735.20479
763.32693
792.12301
821.12342
850.13663
878.98991
907.5292
935.60137
963.03974
989.7001
1015.4346
1040.0879
1063.4865
1085.7068
1108.4126
1132.6277
1158.4711
1186.0563
1262.5236
370.2768
349.31329
348.06491
347.0608
345.98167
344.85754
343.70327
342.45839
341.35089
340.61741
340.36162
342.95811
300.39184
295.08088
294.88679
285.25125
1322.161
1557.6554
1531.4452
1472.522
1406.9551
1345.879
1301.147
1278.7851
397.07772
364.7545
362.05791
360.74835
360.89664
1170.587
3226.542
1000.0342
3217.7003
1009.2008
312.42433
872.83982
932.22203
926.5005
302.00421
1051.7993
1076.0917
1124.3941
1166.0615
1199.4595
1223.1716
1237.3294
1242.7431
1240.1628
1230.0228
1213.0405
1189.8236
1161.0806
1127.4181
1091.0294
1056.3379
1023.9835
993.79662
965.62029
939.29662
914.69787
891.69163
870.1679
850.02012
831.15217
813.47237
796.89839
780.65979
763.53495
745.48346
726.61942
707.05922
686.91647
666.30425
645.33717
624.13782
603.36748
607.40305
1397.5622
282.93143
1243.4184
277.66317
1143.5953
1020.2766
260.49722
270.53082
913.05115
426.52279
420.78232
414.68596
410.24373
407.47053
406.55391
404.57117
253.92762
258.63061
805.84934
790.12443
254.41278
253.19795
253.22745
253.2596
253.2927
253.32454
253.35634
253.38672
253.41624
253.44541
253.64005
264.11463
806.40421
810.48099
810.47106
810.45025
810.42916
810.40668
810.38321
810.35815
810.33166
810.30123
810.21247
808.67953
772.5549
254.68258
253.70984
253.71393
253.95932
266.39602
806.51286
809.91923
809.87859
809.82833
809.77552
809.71507
809.60332
808.59104
786.82306
409.04195
407.93445
407.90532
407.87821
407.85136
407.82384
407.79568
407.76679
407.73725
407.7071
407.67639
407.64518
407.61354
407.58153
407.54919
407.51661
407.48382
407.4509
407.41788
407.38484
407.35182
407.31886
407.28602
407.25334
407.22087
407.18864
407.15671
407.1251
407.09386
407.063
407.03257
407.00259
406.9731
406.9441
406.91565
406.88774
406.86041
406.83368
406.80755
406.78206
406.75721
406.73301
406.70947
406.68661
406.66443
406.64293
406.62213
406.60201
406.58258
406.56384
406.5458
406.52844
406.51177
406.49578
406.48047
406.46578
406.45192
406.43857
406.42593
406.41395
406.40261
406.39189
406.3818
406.37232
406.36344
406.35515
406.34746
406.34032
406.33376
406.32772
406.32225
406.31729
406.31286
406.30893
406.30554
406.30261
406.30021
406.29826
406.29687
406.2959
406.29551
406.29554
406.29622
406.2973
406.2991
406.30131
406.30436
406.30784
406.31233
406.31728
406.32351
406.33027
406.33864
406.34769
406.35871
406.37067
406.3849
406.40049
406.41829
406.43771
406.5113
406.34437
406.02968
407.23292
410.08519
414.57441
420.65875
428.30287
437.47746
448.15321
460.30811
473.92745
489.00348
505.53179
523.5218
542.98247
563.73864
584.98804
606.38756
627.7971
649.09018
670.1528
690.87309
711.12916
730.81495
749.82266
768.03895
785.33877
801.78688
818.60295
836.53477
855.67257
876.02408
942.04873
309.16855
289.9511
288.53518
287.48468
286.4045
285.3235
284.25395
283.12203
282.10078
281.37484
281.02134
283.728
261.93674
258.02446
257.96781
247.96858
927.17794
1146.6135
1137.1322
1096.2781
1049.9565
1006.8902
975.04243
960.18103
335.90491
307.29371
304.31433
302.58894
302.24232
857.27586
2456.5909
782.92834
2450.5878
792.18849
279.95341
663.83299
713.83159
705.60295
270.11112
807.20078
820.6154
857.29734
889.03386
914.61464
932.75854
943.62827
947.79036
945.86532
938.14802
925.22179
907.53148
885.63395
859.98282
832.24875
805.79295
781.11953
758.09903
736.61417
716.54244
697.78805
680.2487
663.84137
648.4836
634.10185
620.62461
607.98736
595.60542
582.55132
568.78996
554.40727
539.49177
524.12965
508.40708
492.41148
476.2396
460.51336
465.237
1026.8658
246.12825
911.00688
240.37759
837.858
741.41017
224.23648
231.7791
662.91552
325.23533
320.77461
316.13216
312.77345
310.70299
310.12545
308.89355
216.4005
220.52833
584.09534
570.94222
216.82718
215.92837
215.96523
216.0033
216.04235
216.07948
216.11644
216.15141
216.18496
216.21566
216.39585
225.31752
584.57829
587.68562
587.68069
587.66604
587.65076
587.63389
587.61573
587.59579
587.57414
587.54797
587.45866
585.99018
556.81211
217.21712
216.48963
216.48732
216.70466
227.23951
584.6339
587.21336
587.17738
587.13373
587.08884
587.0383
586.93688
585.95938
567.79786
312.36727
311.49932
311.46371
311.4299
311.3963
311.36194
311.32681
311.29086
311.25416
311.21676
311.17874
311.14016
311.10111
311.06164
311.02184
310.98177
310.94151
310.90112
310.86067
310.82022
310.77983
310.73956
310.69947
310.65961
310.62003
310.58079
310.54193
310.50349
310.46552
310.42806
310.39113
310.35477
310.31903
310.28392
310.24948
310.21573
310.18269
310.1504
310.11886
310.0881
310.05814
310.02899
310.00065
309.97314
309.94647
309.92064
309.89566
309.87152
309.84824
309.8258
309.8042
309.78345
309.76354
309.74447
309.72623
309.70874
309.69229
309.67643
309.66146
309.64729
309.63389
309.62126
309.6094
309.59827
309.58789
309.57823
309.56929
309.56103
309.55347
309.54657
309.54034
309.53473
309.52978
309.52544
309.52174
309.51862
309.51614
309.51421
309.51295
309.51221
309.51217
309.51264
309.51388
309.51561
309.51822
309.52131
309.52541
309.53
309.53583
309.54217
309.55006
309.55854
309.56895
309.5801
309.59363
309.60818
309.62546
309.64422
309.66564
309.68866
309.75793
309.66114
309.43346
310.34901
312.51518
315.92957
320.55934
326.37719
333.36149
341.48897
350.74361
361.11327
372.59273
385.17787
398.87616
413.69347
429.4954
445.6686
461.9565
478.25289
494.46231
510.49826
526.27643
541.70503
556.70406
571.19247
585.08546
598.29127
610.86621
623.73054
637.44634
652.08499
667.58161
724.5678
276.78358
259.53855
258.35559
257.63778
256.91693
256.21902
255.55495
254.83791
254.17419
253.70994
253.50435
256.36293
244.99999
241.8792
241.89324
231.7944
676.97592
871.20177
872.30281
843.66834
810.36237
779.63296
756.74013
746.84762
303.5582
277.84191
274.50251
272.3683
271.48221
650.73856
1865.4318
628.31402
1862.0413
637.28309
259.75444
520.55214
561.53564
552.40618
250.86792
634.745
641.42419
669.92355
694.68198
714.77931
729.01564
737.57829
740.85952
739.39207
733.37027
723.28635
709.4696
692.37188
672.3396
650.67818
630.00193
610.71927
592.72852
575.94033
560.25694
545.60518
531.90368
519.08827
507.09351
495.86163
485.33504
475.46136
465.78578
455.58774
444.83632
433.59757
421.94056
409.93206
397.63939
385.13109
372.4859
360.27598
364.56272
759.04197
218.65318
672.41748
212.18858
618.68809
544.50139
196.74375
201.93964
486.82958
254.33638
250.70609
247.08558
244.49177
242.923
242.60405
242.08173
187.57624
191.05896
429.32241
418.69816
187.94178
187.30642
187.34923
187.39206
187.43595
187.47742
187.51861
187.55731
187.59388
187.62446
187.78161
195.1191
429.78532
432.09365
432.09339
432.0845
432.07453
432.06262
432.04906
432.03339
432.01564
431.99264
431.90342
430.54778
407.73956
188.42062
187.89438
187.88374
188.0614
196.67275
429.78874
431.68755
431.6533
431.61291
431.57185
431.52583
431.4273
430.49443
415.68702
244.65186
243.98
243.93719
243.896
243.85501
243.81317
243.7705
243.72692
243.68253
243.63739
243.59158
243.5452
243.49831
243.45101
243.40338
243.3555
243.30746
243.25932
243.21117
243.16308
243.11511
243.06734
243.01983
242.97263
242.92582
242.87945
242.83357
242.78823
242.74348
242.69935
242.6559
242.61316
242.57116
242.52994
242.48954
242.44998
242.41128
242.37348
242.3366
242.30066
242.26567
242.23165
242.19861
242.16657
242.13552
242.10548
242.07645
242.04844
242.02143
241.99543
241.97045
241.94646
241.92348
241.90149
241.88048
241.86037
241.8415
241.82333
241.8062
241.79002
241.77478
241.76043
241.74699
241.73443
241.72275
241.71193
241.70195
241.69279
241.68445
241.67689
241.67013
241.66411
241.65887
241.65434
241.65058
241.64749
241.64518
241.6435
241.64263
241.64236
241.64293
241.64409
241.64617
241.64882
241.6525
241.65674
241.66217
241.66818
241.67562
241.68367
241.69351
241.70404
241.71681
241.73042
241.74679
241.76431
241.78501
241.80734
241.83279
241.85989
241.92713
241.87856
241.70977
242.42296
244.10703
246.76674
250.37551
254.91172
260.35922
266.69883
273.91896
282.00909
290.96583
300.78526
311.47357
323.03468
335.36256
347.97614
360.68021
373.39206
386.03791
398.55089
410.86605
422.91239
434.62868
445.9527
456.81996
467.1619
477.02894
487.13096
497.8998
509.39375
521.5039
570.40067
256.72602
241.64671
240.83967
240.56067
240.28223