/*--------------------------------*- C++ -*----------------------------------*\
| =========                 |                                                 |
| \\      /  F ield         | OpenFOAM: The Open Source CFD Toolbox           |
|  \\    /   O peration     | Version:  2.4.0                                 |
|   \\  /    A nd           | Web:      www.OpenFOAM.org                      |
|    \\/     M anipulation  |                                                 |
\*---------------------------------------------------------------------------*/
FoamFile
{
    version     2.0;
    format      ascii;
    class       volScalarField;
    location    "180";
    object      nut;
}
// * * * * * * * * * * * * * * * * * * * * * * * * * * * * * * * * * * * * * //

dimensions      [0 2 -1 0 0 0 0];

internalField   nonuniform List<scalar> 
78300
(
3.6056368e-12
2.1206711e-12
5.3800633e-12
3.4788775e-12
4.1669107e-12
1.4691007e-12
6.2150705e-13
4.1535149e-14
2.8349313e-13
5.8298418e-13
3.4266862e-13
2.7204334e-13
1.4122044e-13
1.1114291e-13
7.5890486e-14
6.9832643e-14
5.4929392e-14
5.2707265e-14
4.4502017e-14
4.1924989e-14
3.6226563e-14
3.3633698e-14
2.9862712e-14
2.8525867e-14
2.7098206e-14
2.69349e-14
2.6906607e-14
2.7938353e-14
2.9347466e-14
3.1919211e-14
3.5189403e-14
3.9877532e-14
4.56961e-14
5.3242554e-14
6.2261752e-14
7.2883845e-14
8.4114388e-14
9.6086984e-14
1.089085e-13
1.2231089e-13
1.3621627e-13
1.5016357e-13
1.6402714e-13
1.7707382e-13
1.887633e-13
1.9821046e-13
2.0575375e-13
2.1034598e-13
2.1642709e-13
2.2090582e-13
2.2313564e-13
2.2428531e-13
2.2177728e-13
2.1484338e-13
2.0731844e-13
1.9291334e-13
1.8084983e-13
1.6076519e-13
1.4934463e-13
1.2913783e-13
1.2983075e-13
1.2176594e-13
1.7852836e-13
3.2394159e-13
4.4896882e-13
5.9822985e-13
7.3420635e-13
8.8219037e-13
1.0181855e-12
1.1595878e-12
1.2906672e-12
1.423572e-12
1.5479804e-12
1.6660241e-12
1.7901624e-12
1.906939e-12
2.0183443e-12
2.1280447e-12
2.2332331e-12
2.3362446e-12
2.4352487e-12
2.5316959e-12
2.6243625e-12
2.7141146e-12
2.8001349e-12
2.8828617e-12
2.9613966e-12
3.0246086e-12
3.0956536e-12
3.1627494e-12
3.2258447e-12
3.2848306e-12
3.3396058e-12
3.390153e-12
3.4363916e-12
3.4783723e-12
3.5160714e-12
3.549626e-12
3.5790147e-12
3.6045481e-12
3.6423291e-12
3.6621422e-12
3.6786714e-12
3.6916316e-12
3.6860782e-12
3.6841574e-12
3.6778621e-12
3.6665392e-12
3.6511308e-12
3.6316048e-12
3.6082568e-12
3.5811421e-12
3.5504226e-12
3.5162279e-12
3.4787745e-12
3.4381966e-12
3.3946446e-12
3.3482098e-12
3.2990794e-12
3.2474321e-12
3.1934884e-12
3.1373924e-12
3.079302e-12
3.0194222e-12
2.9579612e-12
2.895115e-12
2.8310097e-12
2.7658307e-12
2.6997329e-12
2.6329029e-12
2.5654643e-12
2.497579e-12
2.429369e-12
2.3609925e-12
2.2925972e-12
2.2242922e-12
2.1561599e-12
2.0882797e-12
2.0208079e-12
1.953853e-12
1.8875066e-12
1.8218395e-12
1.7569832e-12
1.6929979e-12
1.6299831e-12
1.5679871e-12
1.5070685e-12
1.4472729e-12
1.388675e-12
1.3313633e-12
1.2753683e-12
1.220703e-12
1.167375e-12
1.1154613e-12
1.0649879e-12
1.0159638e-12
9.6833466e-13
9.2212824e-13
8.773454e-13
8.3400478e-13
7.9201901e-13
7.5142581e-13
7.1226677e-13
6.7464744e-13
6.384468e-13
6.0354494e-13
5.6996084e-13
5.3776227e-13
5.0690461e-13
4.7737236e-13
4.4902999e-13
4.2195039e-13
3.9601144e-13
3.713394e-13
3.4777519e-13
3.2549908e-13
3.042898e-13
2.843023e-13
2.6522668e-13
2.4731729e-13
2.302876e-13
2.1441783e-13
1.9928164e-13
1.8523581e-13
1.7185199e-13
1.5957256e-13
1.4780463e-13
1.3709091e-13
1.2677131e-13
1.1755356e-13
1.0859995e-13
1.0077754e-13
9.3090891e-14
8.661482e-14
8.0109764e-14
7.4877468e-14
6.9424638e-14
6.5380965e-14
6.0947805e-14
5.8126071e-14
5.4702778e-14
5.3140213e-14
5.0752522e-14
5.0608436e-14
4.945998e-14
5.1096713e-14
5.1316954e-14
5.5234602e-14
5.9057132e-14
6.0308743e-14
6.2270954e-14
6.0486198e-14
5.9325255e-14
5.5119101e-14
5.1358746e-14
4.5557388e-14
4.0155485e-14
3.3725954e-14
2.781171e-14
2.1769035e-14
1.6519899e-14
1.1875965e-14
1.1023183e-14
1.6717513e-14
2.5472526e-14
3.8780266e-14
5.7420595e-14
8.2974193e-14
1.1599612e-13
1.5803115e-13
2.0924366e-13
2.7088112e-13
3.4240164e-13
4.2412125e-13
5.1225731e-13
6.0118893e-13
6.9272127e-13
7.8743679e-13
8.8691429e-13
9.913281e-13
1.1032485e-12
1.2225072e-12
1.3537539e-12
1.4969283e-12
1.6597907e-12
1.8443578e-12
2.0661424e-12
2.3477787e-12
2.7434541e-12
3.1791707e-12
3.816408e-12
4.5339083e-12
5.5760811e-12
6.7736589e-12
8.5652608e-12
1.0698307e-11
1.3938452e-11
1.7826842e-11
2.3504346e-11
2.9267078e-11
3.5991259e-11
3.635404e-11
3.2716256e-11
2.4035097e-11
1.7742681e-11
9.8039556e-12
7.0522085e-12
2.8686682e-12
3.1845147e-12
9.5486484e-13
3.210441e-12
6.3592996e-12
4.5073631e-12
7.4016319e-12
1.5614552e-11
3.8286687e-12
2.0812056e-12
7.448982e-13
4.7461953e-13
6.0680929e-13
3.4370989e-13
2.6856243e-13
1.4162366e-13
1.1159051e-13
7.7702666e-14
7.1432223e-14
5.7215256e-14
5.4951906e-14
4.7250575e-14
4.4821092e-14
3.9555381e-14
3.7213887e-14
3.3861207e-14
3.2885134e-14
3.197582e-14
3.2357175e-14
3.2997129e-14
3.4770768e-14
3.7083261e-14
4.0686201e-14
4.5207172e-14
5.135852e-14
5.8945461e-14
6.8580685e-14
8.0106243e-14
9.3674085e-14
1.0836817e-13
1.2434202e-13
1.41881e-13
1.6087911e-13
1.8144508e-13
2.0310646e-13
2.2556712e-13
2.4817537e-13
2.7046615e-13
2.9128294e-13
3.071164e-13
1.8125593e-13
5.6614086e-13
6.0643271e-13
2.156702e-13
7.0131717e-13
4.162171e-13
4.3224016e-13
4.471575e-13
4.5438504e-13
4.6117611e-13
4.5691633e-13
4.5601051e-13
4.4214599e-13
4.4439562e-13
4.3921076e-13
5.0708147e-13
7.1443464e-13
9.0748914e-13
1.84154e-12
2.2016333e-12
2.542695e-12
2.8723555e-12
3.1975085e-12
3.5156016e-12
3.8314337e-12
4.1122383e-12
1.7127063e-12
4.7237328e-12
5.0230947e-12
5.310768e-12
5.595517e-12
5.8755839e-12
6.152685e-12
6.4254291e-12
6.6949506e-12
6.9602446e-12
7.2221314e-12
7.4804035e-12
7.7384857e-12
7.9164586e-12
3.1260483e-12
3.2108694e-12
3.2912079e-12
3.3693359e-12
3.4441157e-12
3.5160696e-12
3.5848833e-12
3.6507681e-12
3.7137706e-12
3.7741898e-12
3.8326559e-12
3.8921534e-12
3.987331e-12
1.0760706e-11
1.095809e-11
1.114071e-11
1.1207078e-11
6.8774518e-12
6.9207589e-12
6.9758598e-12
7.0183629e-12
7.0576479e-12
7.0901675e-12
7.1177409e-12
7.1397072e-12
7.1564667e-12
7.1680067e-12
7.1745461e-12
7.1762044e-12
7.1730903e-12
7.1652694e-12
7.1529083e-12
7.1361464e-12
7.1152429e-12
7.0902939e-12
7.061497e-12
7.0289984e-12
6.9930806e-12
6.9539012e-12
6.911647e-12
6.8664596e-12
6.8185637e-12
6.768129e-12
6.7153295e-12
6.6603708e-12
6.603328e-12
6.544352e-12
6.4837692e-12
6.4216299e-12
6.3579558e-12
6.292799e-12
6.2265052e-12
6.1596317e-12
6.0919791e-12
6.0230101e-12
5.953658e-12
5.8837024e-12
5.813388e-12
5.7427612e-12
5.6719448e-12
5.6009673e-12
5.5299788e-12
5.4590787e-12
5.3883948e-12
5.3179318e-12
5.2477277e-12
5.1778837e-12
5.1085004e-12
5.0396491e-12
4.9712704e-12
4.9034059e-12
4.8360854e-12
4.7693829e-12
4.7031891e-12
4.6375023e-12
4.5723732e-12
4.5080945e-12
4.44469e-12
4.3818676e-12
4.3195719e-12
4.2580023e-12
4.1971568e-12
4.1370937e-12
4.0776079e-12
4.0187362e-12
3.9603269e-12
3.9025057e-12
3.8451074e-12
3.788378e-12
3.7321545e-12
3.6766448e-12
3.6214564e-12
3.5667437e-12
3.5122753e-12
3.4583904e-12
3.4046285e-12
3.3512191e-12
3.2976623e-12
3.2445772e-12
3.1911186e-12
3.1379474e-12
3.0838708e-12
3.0300624e-12
2.974931e-12
2.9199444e-12
2.8630372e-12
2.8062626e-12
2.7469865e-12
2.6876794e-12
2.624902e-12
2.5617524e-12
2.4940569e-12
2.4257557e-12
2.351763e-12
2.2766688e-12
2.1944125e-12
2.1101423e-12
2.0170198e-12
1.9193307e-12
1.8013793e-12
1.6910635e-12
1.674631e-12
1.6876387e-12
1.7154355e-12
1.7417034e-12
1.7675688e-12
1.7882624e-12
1.8049042e-12
1.8162541e-12
1.8233035e-12
1.8265158e-12
1.826415e-12
1.8237022e-12
1.8189081e-12
1.8139365e-12
1.8161932e-12
1.8294722e-12
1.8485754e-12
1.8742216e-12
1.9064737e-12
1.9464788e-12
1.9943671e-12
2.0512065e-12
2.1165663e-12
2.191107e-12
2.2740038e-12
2.3645806e-12
2.4477705e-12
2.5200836e-12
2.5883366e-12
2.6556504e-12
2.7247218e-12
2.7973535e-12
2.8763344e-12
2.9629474e-12
3.0613331e-12
3.174294e-12
3.3050397e-12
3.4687965e-12
3.6534945e-12
3.9411534e-12
9.9038843e-12
2.3441551e-12
1.0880685e-11
3.252679e-12
1.3953087e-11
4.7933195e-12
1.9632014e-11
2.3936214e-11
1.7199402e-11
2.2057983e-11
2.8853698e-11
3.5768993e-11
4.3259334e-11
4.4222736e-11
4.076094e-11
3.1668614e-11
2.507051e-11
7.801374e-12
2.150656e-11
2.7127654e-12
2.7407028e-12
4.4542034e-12
1.6232896e-11
1.0136509e-10
1.8866654e-11
9.9378721e-11
2.5815927e-10
5.7527873e-11
3.4551994e-11
1.5727647e-11
5.2980898e-12
1.7996619e-12
7.6912653e-13
5.187344e-13
3.133754e-13
2.5178609e-13
2.0392549e-13
1.8700835e-13
1.6879373e-13
1.6336863e-13
1.5586682e-13
1.5344741e-13
1.5000087e-13
1.4971521e-13
1.5029668e-13
1.5511618e-13
1.6298575e-13
1.7422856e-13
1.883666e-13
2.0642174e-13
2.2872905e-13
2.5632865e-13
2.9012691e-13
3.3157583e-13
3.8199169e-13
4.4302132e-13
5.1613042e-13
6.0203052e-13
7.0019077e-13
8.1139012e-13
9.3960618e-13
1.0876733e-12
1.2593905e-12
1.4535493e-12
1.6662851e-12
1.8977662e-12
2.1486821e-12
2.4121249e-12
2.6047675e-12
8.1872004e-13
7.5088522e-12
8.250584e-12
1.3235689e-12
1.0376281e-11
5.1017386e-12
5.5937901e-12
6.0626788e-12
6.4886277e-12
6.8617876e-12
7.1386567e-12
7.3298022e-12
7.3964002e-12
7.4335839e-12
7.4675717e-12
7.9198092e-12
9.8209825e-12
1.1781607e-11
2.6989267e-11
3.1668551e-11
3.5659601e-11
3.9723494e-11
4.3550641e-11
4.7482841e-11
5.1318181e-11
5.456673e-11
1.1881817e-11
6.23564e-11
6.6251436e-11
6.9990323e-11
7.3705662e-11
7.7428385e-11
8.1138566e-11
8.4850807e-11
8.8554314e-11
9.2257189e-11
9.5956273e-11
9.9667614e-11
1.0345858e-10
1.0549548e-10
2.1911609e-11
2.2644034e-11
2.3351019e-11
2.4067564e-11
2.4772151e-11
2.5476558e-11
2.6174596e-11
2.6871439e-11
2.7567151e-11
2.8267769e-11
2.898364e-11
2.9774078e-11
3.1330762e-11
1.5331479e-10
1.5744909e-10
1.6136535e-10
1.6340274e-10
8.4077822e-11
8.5060364e-11
8.6395026e-11
8.7543844e-11
8.8696899e-11
8.977632e-11
9.0816896e-11
9.1802984e-11
9.2740451e-11
9.3626613e-11
9.4462344e-11
9.5247784e-11
9.5982567e-11
9.6666469e-11
9.7299704e-11
9.7882075e-11
9.8415231e-11
9.8898642e-11
9.9333771e-11
9.9720053e-11
1.0005991e-10
1.003532e-10
1.0060173e-10
1.0080521e-10
1.0096575e-10
1.0108366e-10
1.0116051e-10
1.0119785e-10
1.011951e-10
1.0115267e-10
1.0107506e-10
1.0096136e-10
1.0081054e-10
1.0062227e-10
1.0040133e-10
1.0015803e-10
9.9886273e-11
9.9572871e-11
9.9236036e-11
9.8869782e-11
9.8477689e-11
9.8059886e-11
9.761801e-11
9.7151852e-11
9.6663343e-11
9.6153062e-11
9.5623265e-11
9.5073809e-11
9.4505412e-11
9.3918873e-11
9.3315945e-11
9.2698042e-11
9.2064843e-11
9.1416769e-11
9.0754449e-11
9.0079185e-11
8.9390171e-11
8.8686666e-11
8.7969038e-11
8.7241796e-11
8.6507708e-11
8.5762527e-11
8.5004676e-11
8.4237321e-11
8.3461228e-11
8.267798e-11
8.1885545e-11
8.1083388e-11
8.0270407e-11
7.9447053e-11
7.8612613e-11
7.7769189e-11
7.6917268e-11
7.605859e-11
7.5190186e-11
7.4310788e-11
7.342055e-11
7.2521819e-11
7.1612268e-11
7.0690398e-11
6.9753047e-11
6.8805751e-11
6.7840755e-11
6.6862666e-11
6.5857285e-11
6.4837504e-11
6.378359e-11
6.2712015e-11
6.1595458e-11
6.0459505e-11
5.9268764e-11
5.8053867e-11
5.6766292e-11
5.5444501e-11
5.4029368e-11
5.2571122e-11
5.0998114e-11
4.9366434e-11
4.7591604e-11
4.573086e-11
4.3692896e-11
4.1502664e-11
3.889187e-11
3.6383897e-11
3.5952631e-11
3.6217617e-11
3.6796893e-11
3.7411587e-11
3.8005988e-11
3.8542192e-11
3.8980517e-11
3.9339387e-11
3.9595781e-11
3.978625e-11
3.9893875e-11
3.994607e-11
3.9937641e-11
3.991422e-11
3.9980296e-11
4.0168851e-11
4.0429606e-11
4.0750772e-11
4.1119071e-11
4.1531171e-11
4.1979602e-11
4.2459405e-11
4.2958027e-11
4.3467323e-11
4.3978952e-11
4.4471018e-11
4.4681517e-11
4.463835e-11
4.4458102e-11
4.4198555e-11
4.3889848e-11
4.3568922e-11
4.3250013e-11
4.2964384e-11
4.2717835e-11
4.2572867e-11
4.2458356e-11
4.2671316e-11
4.2665558e-11
4.361818e-11
1.6307176e-10
5.3210059e-12
1.563237e-10
5.9738221e-12
1.815541e-10
7.7236855e-12
2.3397437e-10
2.805815e-10
9.9864719e-11
1.2864344e-10
1.647351e-10
2.018064e-10
2.3300281e-10
2.4679833e-10
2.4263768e-10
2.1481698e-10
1.9460711e-10
2.6642384e-11
3.1937582e-10
1.5965092e-11
1.2521348e-11
8.0789517e-11
1.0917274e-10
8.1076154e-10
1.2369321e-10
7.867893e-10
2.1625706e-09
4.6039858e-10
2.7790219e-10
1.2801977e-10
4.1696004e-11
1.0937185e-11
4.0997068e-12
2.5156287e-12
1.6552493e-12
1.344501e-12
1.1729347e-12
1.074607e-12
1.0180105e-12
9.8817165e-13
9.7708952e-13
9.7322759e-13
9.7959855e-13
9.927909e-13
1.0197942e-12
1.0660951e-12
1.1371526e-12
1.2275986e-12
1.3402788e-12
1.4778512e-12
1.6470247e-12
1.8514238e-12
2.101004e-12
2.4030596e-12
2.7697686e-12
3.2106978e-12
3.7390335e-12
4.3597111e-12
5.0744787e-12
5.8886996e-12
6.8332959e-12
7.93246e-12
9.2170705e-12
1.0680497e-11
1.2292723e-11
1.4059424e-11
1.5989849e-11
1.8035149e-11
1.9461292e-11
5.7382614e-12
5.9504905e-11
6.4685757e-11
9.6909983e-12
8.204841e-11
4.0186352e-11
4.432564e-11
4.8187686e-11
5.1739622e-11
5.4848736e-11
5.7219005e-11
5.8841835e-11
5.9499247e-11
5.979824e-11
6.0120048e-11
6.3477036e-11
7.8128204e-11
9.3391483e-11
2.1050481e-10
2.4646904e-10
2.7686916e-10
3.0804074e-10
3.3726856e-10
3.6745102e-10
3.9683811e-10
4.2112141e-10
8.9831063e-11
4.8132107e-10
5.1162081e-10
5.4045423e-10
5.691154e-10
5.9788005e-10
6.265656e-10
6.5530712e-10
6.8400391e-10
7.1273306e-10
7.4146084e-10
7.7032391e-10
7.9984913e-10
8.1389539e-10
1.6554344e-10
1.7106936e-10
1.7651276e-10
1.8204687e-10
1.8749912e-10
1.9296443e-10
1.9839315e-10
2.0382707e-10
2.0926653e-10
2.1476005e-10
2.2038995e-10
2.2664455e-10
2.3970178e-10
1.1915437e-09
1.2251224e-09
1.2566777e-09
1.2737132e-09
6.6365905e-10
6.7154539e-10
6.824448e-10
6.9186e-10
7.0133295e-10
7.1022986e-10
7.1883228e-10
7.2701254e-10
7.3481751e-10
7.422246e-10
7.4923968e-10
7.5586314e-10
7.6209113e-10
7.6792134e-10
7.7335445e-10
7.7838781e-10
7.8303359e-10
7.872867e-10
7.9115811e-10
7.9464212e-10
7.9775715e-10
8.0050105e-10
8.0288775e-10
8.049138e-10
8.0659564e-10
8.0793452e-10
8.0894263e-10
8.0963184e-10
8.0999638e-10
8.1003894e-10
8.097952e-10
8.0925722e-10
8.0841605e-10
8.0726869e-10
8.0585294e-10
8.042523e-10
8.0241662e-10
8.0023804e-10
7.978641e-10
7.9524575e-10
7.9241154e-10
7.8936226e-10
7.8611094e-10
7.8265552e-10
7.7901138e-10
7.7518271e-10
7.7118771e-10
7.6702513e-10
7.6270072e-10
7.5822066e-10
7.5359897e-10
7.4884717e-10
7.4396293e-10
7.389495e-10
7.3381203e-10
7.2856102e-10
7.2319037e-10
7.1769388e-10
7.1207425e-10
7.0636763e-10
7.0059721e-10
6.9472914e-10
6.8875047e-10
6.8268648e-10
6.7654384e-10
6.7033541e-10
6.6404541e-10
6.5766913e-10
6.5119828e-10
6.4463577e-10
6.3797675e-10
6.312373e-10
6.2442264e-10
6.1754599e-10
6.1058503e-10
6.0352796e-10
5.9637768e-10
5.8915166e-10
5.8183339e-10
5.7440871e-10
5.6685421e-10
5.5921253e-10
5.5142386e-10
5.4352267e-10
5.3539705e-10
5.27148e-10
5.1861961e-10
5.099411e-10
5.0089561e-10
4.9168545e-10
4.8202942e-10
4.7216966e-10
4.617195e-10
4.5098295e-10
4.3948874e-10
4.2763461e-10
4.1484965e-10
4.0157674e-10
3.8714319e-10
3.7199781e-10
3.554155e-10
3.3757891e-10
3.1633983e-10
2.9593834e-10
2.9243216e-10
2.9458624e-10
2.9929763e-10
3.0431939e-10
3.0917339e-10
3.1357093e-10
3.171686e-10
3.2013143e-10
3.2225739e-10
3.2385238e-10
3.2476955e-10
3.2523589e-10
3.2520497e-10
3.2505082e-10
3.2560362e-10
3.2711114e-10
3.2918629e-10
3.3172718e-10
3.3461936e-10
3.378283e-10
3.4128998e-10
3.4495409e-10
3.4871754e-10
3.5250861e-10
3.5626088e-10
3.597873e-10
3.6098314e-10
3.6011912e-10
3.5813015e-10
3.5548022e-10
3.5240651e-10
3.4920642e-10
3.459811e-10
3.4298592e-10
3.4024256e-10
3.3825856e-10
3.3641917e-10
3.3711615e-10
3.3588498e-10
3.3986303e-10
1.4027231e-09
2.9434792e-11
1.3253982e-09
3.0706687e-11
1.5262685e-09
3.7566971e-11
1.9309712e-09
2.3529045e-09
7.1895633e-10
9.1959913e-10
1.1724055e-09
1.4325976e-09
1.6402102e-09
1.7473649e-09
1.7356695e-09
1.5661691e-09
1.4455307e-09
1.6920289e-10
2.6400715e-09
1.1010122e-10
8.2663262e-11
6.5059261e-10
5.0650228e-10
3.8807022e-09
5.7284489e-10
3.7581576e-09
1.0376192e-08
2.2166838e-09
1.3374818e-09
6.1763488e-10
2.0085353e-10
5.061292e-11
1.8552969e-11
1.117596e-11
7.4613244e-12
6.0681143e-12
5.3556221e-12
4.9055488e-12
4.6802167e-12
4.5448159e-12
4.5164253e-12
4.5058719e-12
4.5531572e-12
4.6236902e-12
4.7631293e-12
4.9868645e-12
5.3284819e-12
5.7586411e-12
6.2940932e-12
6.9446847e-12
7.7443409e-12
8.7079154e-12
9.8840894e-12
1.1305388e-11
1.3030551e-11
1.5103277e-11
1.7587142e-11
2.0505511e-11
2.3870082e-11
2.7705443e-11
3.2157957e-11
3.7343586e-11
4.3410169e-11
5.0328748e-11
5.7956903e-11
6.632343e-11
7.5475695e-11
8.5184656e-11
9.1676412e-11
2.8074634e-11
2.7260468e-10
2.9232571e-10
4.7759215e-11
3.7220248e-10
1.9248145e-10
2.1290389e-10
2.3153826e-10
2.4870163e-10
2.6372626e-10
2.7521299e-10
2.8307213e-10
2.8629983e-10
2.8773806e-10
2.8930833e-10
3.0529745e-10
3.7544119e-10
4.4866533e-10
9.4748832e-10
1.1065442e-09
1.241406e-09
1.3805376e-09
1.5109131e-09
1.6457941e-09
1.7770611e-09
1.8827111e-09
4.5030515e-10
2.1537597e-09
2.2903033e-09
2.4193172e-09
2.5475643e-09
2.6763155e-09
2.8047273e-09
2.9334256e-09
3.0619442e-09
3.1906428e-09
3.3193628e-09
3.4487282e-09
3.581048e-09
3.6357322e-09
8.2831843e-10
8.5555919e-10
8.828115e-10
9.1052147e-10
9.3782207e-10
9.6518893e-10
9.9237191e-10
1.0195796e-09
1.0468117e-09
1.0743093e-09
1.1024788e-09
1.1338347e-09
1.2024658e-09
5.3436373e-09
5.498635e-09
5.644494e-09
5.7351996e-09
3.1857335e-09
3.2232014e-09
3.2757018e-09
3.3210737e-09
3.3667358e-09
3.409637e-09
3.4511319e-09
3.4906058e-09
3.5282837e-09
3.5640566e-09
3.597952e-09
3.6299713e-09
3.6600958e-09
3.6883138e-09
3.714628e-09
3.7390252e-09
3.7615633e-09
3.7822174e-09
3.8010395e-09
3.8180018e-09
3.8331923e-09
3.8466e-09
3.8582915e-09
3.8682497e-09
3.8765531e-09
3.8832075e-09
3.8882707e-09
3.8917992e-09
3.8937666e-09
3.8941826e-09
3.8932203e-09
3.8908407e-09
3.8870005e-09
3.8816848e-09
3.8750753e-09
3.8675734e-09
3.8589381e-09
3.8486491e-09
3.8374166e-09
3.8250042e-09
3.8115493e-09
3.7970552e-09
3.7815846e-09
3.7651275e-09
3.7477578e-09
3.7294953e-09
3.7104274e-09
3.6905482e-09
3.6698855e-09
3.6484687e-09
3.626365e-09
3.6036303e-09
3.5802532e-09
3.5562496e-09
3.5316439e-09
3.506487e-09
3.4807494e-09
3.4544014e-09
3.427456e-09
3.4000866e-09
3.3724055e-09
3.34425e-09
3.3155577e-09
3.2864503e-09
3.2569598e-09
3.2271481e-09
3.1969401e-09
3.1663126e-09
3.135226e-09
3.1036942e-09
3.071694e-09
3.0393024e-09
3.0065452e-09
2.973486e-09
2.9400177e-09
2.906083e-09
2.8716967e-09
2.8369422e-09
2.8017409e-09
2.766024e-09
2.7296797e-09
2.6929124e-09
2.6554353e-09
2.6174135e-09
2.5783094e-09
2.538608e-09
2.49756e-09
2.4557861e-09
2.412244e-09
2.3679059e-09
2.32142e-09
2.2739499e-09
2.2236365e-09
2.1719406e-09
2.1165964e-09
2.059515e-09
1.9979519e-09
1.9340346e-09
1.8645295e-09
1.7915912e-09
1.7117355e-09
1.6258366e-09
1.523619e-09
1.4255309e-09
1.4087619e-09
1.4191515e-09
1.4418709e-09
1.4661016e-09
1.4895255e-09
1.5107593e-09
1.5281397e-09
1.5424676e-09
1.5527633e-09
1.5605056e-09
1.5649777e-09
1.5672792e-09
1.5671864e-09
1.5665095e-09
1.5692239e-09
1.5764942e-09
1.586477e-09
1.5986847e-09
1.6125594e-09
1.6279402e-09
1.6445103e-09
1.6620199e-09
1.6799722e-09
1.6980203e-09
1.7158501e-09
1.732514e-09
1.7379184e-09
1.7334524e-09
1.7235907e-09
1.7105491e-09
1.6954635e-09
1.6797671e-09
1.663937e-09
1.6491934e-09
1.6356356e-09
1.6257054e-09
1.6164493e-09
1.6193166e-09
1.6131517e-09
1.6187061e-09
6.9811092e-09
1.2918728e-10
6.552365e-09
1.3373059e-10
7.5400067e-09
1.6360981e-10
9.3903184e-09
1.1775967e-08
3.4216617e-09
4.3250007e-09
5.5034631e-09
6.717211e-09
7.6766956e-09
8.180275e-09
8.1349713e-09
7.3595861e-09
6.8222366e-09
7.8375817e-10
1.2534645e-08
5.1613962e-10
3.8069521e-10
3.1163942e-09
1.854052e-09
1.3555322e-08
2.0976087e-09
1.3087634e-08
3.3839135e-08
7.8040169e-09
4.702998e-09
2.1755218e-09
7.086796e-10
1.7662665e-10
6.4347526e-11
3.8555479e-11
2.5799614e-11
2.0974485e-11
1.8548954e-11
1.6987728e-11
1.622768e-11
1.5758764e-11
1.5674769e-11
1.5643096e-11
1.5818789e-11
1.606974e-11
1.656221e-11
1.7343126e-11
1.8534962e-11
2.0033513e-11
2.1898843e-11
2.416336e-11
2.6946615e-11
3.029876e-11
3.4390244e-11
3.933303e-11
4.5332407e-11
5.253962e-11
6.1177477e-11
7.1327093e-11
8.3033835e-11
9.6381525e-11
1.1187801e-10
1.2992888e-10
1.5105259e-10
1.7515339e-10
2.0173441e-10
2.3089552e-10
2.6280814e-10
2.966721e-10
3.1871988e-10
1.0634847e-10
8.6554086e-10
9.193378e-10
1.8106658e-10
1.1761322e-09
6.7493257e-10
7.4814738e-10
8.1371315e-10
8.7413391e-10
9.270343e-10
9.6750457e-10
9.9519435e-10
1.0065936e-09
1.0116462e-09
1.0171653e-09
1.0731688e-09
1.3194518e-09
1.57672e-09
3.0080478e-09
3.49964e-09
3.919864e-09
4.3570214e-09
4.7666058e-09
5.191157e-09
5.6041716e-09
5.9305952e-09
1.7186171e-09
6.7894904e-09
7.2206579e-09
7.6271706e-09
8.0312613e-09
8.4370198e-09
8.8417344e-09
9.2474232e-09
9.6525876e-09
1.0058395e-08
1.0464332e-08
1.0872393e-08
1.1289618e-08
1.1444062e-08
3.1563935e-09
3.2590934e-09
3.3627972e-09
3.4682163e-09
3.5720531e-09
3.6761075e-09
3.7794232e-09
3.8827824e-09
3.9861734e-09
4.0904925e-09
4.1972491e-09
4.3161723e-09
4.5850378e-09
1.6879339e-08
1.7381257e-08
1.7860668e-08
1.8229709e-08
1.1187621e-08
1.1318255e-08
1.1502745e-08
1.166223e-08
1.1822743e-08
1.1973573e-08
1.2119477e-08
1.2258294e-08
1.2390815e-08
1.2516656e-08
1.2635913e-08
1.2748591e-08
1.2854623e-08
1.2953968e-08
1.3046635e-08
1.3132575e-08
1.3211993e-08
1.3284798e-08
1.3351174e-08
1.3411023e-08
1.3464652e-08
1.3512021e-08
1.3553364e-08
1.3588621e-08
1.3618066e-08
1.3641718e-08
1.3659781e-08
1.3672449e-08
1.3679639e-08
1.3681372e-08
1.3678259e-08
1.3670166e-08
1.3656939e-08
1.3638524e-08
1.3615557e-08
1.3589452e-08
1.3559361e-08
1.3523454e-08
1.3484225e-08
1.3440846e-08
1.3393797e-08
1.3343091e-08
1.3288946e-08
1.3231329e-08
1.3170498e-08
1.3106523e-08
1.3039711e-08
1.2970041e-08
1.289761e-08
1.2822521e-08
1.2745012e-08
1.2665278e-08
1.258328e-08
1.2499072e-08
1.2412742e-08
1.2324467e-08
1.2234145e-08
1.2141672e-08
1.2047091e-08
1.1951014e-08
1.1853834e-08
1.1754982e-08
1.1654237e-08
1.1552026e-08
1.1448463e-08
1.1343766e-08
1.123767e-08
1.1130094e-08
1.10209e-08
1.0910135e-08
1.079772e-08
1.0683924e-08
1.0568838e-08
1.0452685e-08
1.0335091e-08
1.0215854e-08
1.0095024e-08
9.9728968e-09
9.8491955e-09
9.7236786e-09
9.5959529e-09
9.466737e-09
9.3350231e-09
9.2013923e-09
9.0639546e-09
8.924414e-09
8.7801384e-09
8.633309e-09
8.480262e-09
8.3244147e-09
8.1610156e-09
7.994156e-09
7.8173e-09
7.635584e-09
7.4410413e-09
7.2403922e-09
7.0239866e-09
6.7993067e-09
6.5549831e-09
6.2985923e-09
6.0178882e-09
5.715956e-09
5.3568881e-09
5.0126958e-09
4.954186e-09
4.9907658e-09
5.0707465e-09
5.1560738e-09
5.238571e-09
5.3133793e-09
5.3746403e-09
5.4251678e-09
5.4615175e-09
5.4888972e-09
5.5047704e-09
5.5130142e-09
5.512848e-09
5.510665e-09
5.520382e-09
5.5460233e-09
5.5811438e-09
5.6240571e-09
5.6727937e-09
5.7267927e-09
5.7849286e-09
5.8463176e-09
5.9092218e-09
5.972408e-09
6.0347702e-09
6.092821e-09
6.1112048e-09
6.0950928e-09
6.0601441e-09
6.0140596e-09
5.960798e-09
5.9054227e-09
5.8495887e-09
5.7975666e-09
5.7497362e-09
5.7146315e-09
5.6819661e-09
5.6917452e-09
5.6711421e-09
5.6411625e-09
2.3561828e-08
4.5777626e-10
2.1953702e-08
4.7317022e-10
2.5244692e-08
5.8320204e-10
3.088256e-08
4.0137226e-08
1.2084818e-08
1.5053833e-08
1.9114291e-08
2.3298101e-08
2.6586701e-08
2.8313848e-08
2.8161101e-08
2.550332e-08
2.3713843e-08
2.8732138e-09
4.0215999e-08
1.9041617e-09
1.3858105e-09
1.0883789e-08
5.8352078e-09
3.8449717e-08
6.6022965e-09
3.6983983e-08
8.3650444e-08
2.2325021e-08
1.3438373e-08
6.2279694e-09
2.0337556e-09
5.0468209e-10
1.832324e-10
1.0945491e-10
7.3248688e-11
5.9509301e-11
5.2644476e-11
4.8206962e-11
4.6061219e-11
4.4728924e-11
4.4500465e-11
4.4414706e-11
4.4922027e-11
4.5638922e-11
4.7040693e-11
4.9255859e-11
5.2637751e-11
5.6890265e-11
6.2184307e-11
6.8610038e-11
7.6507978e-11
8.6019017e-11
9.7627541e-11
1.1165028e-10
1.2867066e-10
1.4911859e-10
1.7362647e-10
2.0242616e-10
2.356538e-10
2.7354853e-10
3.175396e-10
3.6878363e-10
4.2876244e-10
4.9721745e-10
5.7273472e-10
6.5559292e-10
7.4629348e-10
8.4255256e-10
9.0484647e-10
3.3877276e-10
2.1551228e-09
2.2835165e-09
5.7492359e-10
2.9384919e-09
1.9253637e-09
2.1373779e-09
2.3248402e-09
2.497656e-09
2.6489917e-09
2.7648061e-09
2.8440559e-09
2.8766991e-09
2.8911148e-09
2.9068054e-09
3.0662545e-09
3.7694974e-09
4.5036533e-09
7.6446138e-09
8.8559563e-09
9.9025473e-09
1.1001141e-08
1.2030359e-08
1.3099251e-08
1.4138597e-08
1.4959224e-08
5.438246e-09
1.7128023e-08
1.8210846e-08
1.9235267e-08
2.0253547e-08
2.1276193e-08
2.2296253e-08
2.331892e-08
2.4340353e-08
2.5363573e-08
2.6387261e-08
2.7416499e-08
2.8468275e-08
2.8851074e-08
9.977717e-09
1.0300568e-08
1.062775e-08
1.0960226e-08
1.1287606e-08
1.1615529e-08
1.1940959e-08
1.2266322e-08
1.2591535e-08
1.2919347e-08
1.3254386e-08
1.3627521e-08
1.4483369e-08
4.2657153e-08
4.3946803e-08
4.5208556e-08
4.6401456e-08
3.1925333e-08
3.2298115e-08
3.2824802e-08
3.3280284e-08
3.3738716e-08
3.4169576e-08
3.4586415e-08
3.4983078e-08
3.5361814e-08
3.5721532e-08
3.6062499e-08
3.6384728e-08
3.6688027e-08
3.6972275e-08
3.7237496e-08
3.7483551e-08
3.7711015e-08
3.7919633e-08
3.8109924e-08
3.8281604e-08
3.8435546e-08
3.8571638e-08
3.869054e-08
3.8792078e-08
3.8877034e-08
3.8945458e-08
3.8997928e-08
3.9034987e-08
3.9056439e-08
3.9062281e-08
3.9054283e-08
3.9032065e-08
3.8995178e-08
3.8943467e-08
3.8878744e-08
3.8805042e-08
3.8719956e-08
3.8618241e-08
3.8507023e-08
3.8383932e-08
3.8250342e-08
3.8106285e-08
3.7952392e-08
3.7788556e-08
3.7615519e-08
3.7433479e-08
3.7243312e-08
3.7044959e-08
3.6838696e-08
3.662482e-08
3.6404004e-08
3.6176808e-08
3.594312e-08
3.5703098e-08
3.545699e-08
3.5205303e-08
3.4947747e-08
3.4684022e-08
3.4414254e-08
3.4140188e-08
3.386295e-08
3.3580915e-08
3.3293452e-08
3.3001781e-08
3.2706229e-08
3.2407415e-08
3.2104588e-08
3.1797517e-08
3.1485807e-08
3.1169593e-08
3.0848647e-08
3.0523739e-08
3.0195132e-08
2.9863463e-08
2.9527664e-08
2.9187156e-08
2.8842087e-08
2.8493299e-08
2.8140002e-08
2.778151e-08
2.7416696e-08
2.7047616e-08
2.667139e-08
2.6289681e-08
2.5897087e-08
2.5498482e-08
2.5086339e-08
2.4666898e-08
2.4229686e-08
2.3784471e-08
2.3317674e-08
2.2840992e-08
2.2335743e-08
2.1816615e-08
2.1260834e-08
2.0687614e-08
2.006937e-08
1.9427499e-08
1.8729499e-08
1.7997039e-08
1.719512e-08
1.6332616e-08
1.5307528e-08
1.4325948e-08
1.4160031e-08
1.4264681e-08
1.4493509e-08
1.4737698e-08
1.4973831e-08
1.5188019e-08
1.5363489e-08
1.5508305e-08
1.5612598e-08
1.5691265e-08
1.5737037e-08
1.5761015e-08
1.5760975e-08
1.5755284e-08
1.5783551e-08
1.5857059e-08
1.5957494e-08
1.60801e-08
1.6219279e-08
1.6373364e-08
1.6539152e-08
1.6714156e-08
1.6893338e-08
1.7073186e-08
1.7250532e-08
1.7414976e-08
1.7465829e-08
1.7418724e-08
1.731821e-08
1.7185973e-08
1.7033342e-08
1.6874758e-08
1.6714916e-08
1.6565985e-08
1.6429115e-08
1.632855e-08
1.6235223e-08
1.6262663e-08
1.620768e-08
1.5984199e-08
5.9270412e-08
1.4173191e-09
5.4788029e-08
1.4647595e-09
6.2871514e-08
1.8146081e-09
7.56826e-08
1.0165632e-07
3.4825286e-08
4.2700672e-08
5.4066341e-08
6.5775207e-08
7.4915313e-08
7.9696199e-08
7.9257774e-08
7.1848365e-08
6.7014086e-08
9.0254476e-09
9.7613485e-08
6.0263679e-09
4.3457983e-09
3.0844592e-08
1.6473523e-08
9.4193456e-08
1.8631839e-08
9.0215329e-08
1.7106768e-07
5.5115273e-08
3.3164688e-08
1.5405616e-08
5.0455461e-09
1.2497105e-09
4.524101e-10
2.695553e-10
1.8030843e-10
1.4637594e-10
1.2948123e-10
1.185505e-10
1.1327457e-10
1.0999307e-10
1.0943832e-10
1.092321e-10
1.1048703e-10
1.1225383e-10
1.1569826e-10
1.211328e-10
1.2943407e-10
1.3987688e-10
1.5287962e-10
1.6866113e-10
1.8805937e-10
2.1141824e-10
2.3992816e-10
2.7436601e-10
3.1616852e-10
3.6638864e-10
4.2658052e-10
4.9732583e-10
5.7895634e-10
6.7209252e-10
7.8019032e-10
9.0611054e-10
1.0535182e-09
1.2218118e-09
1.4075086e-09
1.6112767e-09
1.8343822e-09
2.071203e-09
2.226771e-09
9.4907779e-10
4.5879202e-09
4.8818241e-09
1.600174e-09
6.3198967e-09
4.7498673e-09
5.2768197e-09
5.7399663e-09
6.1670706e-09
6.541168e-09
6.8275389e-09
7.0235209e-09
7.1042479e-09
7.1397339e-09
7.1781045e-09
7.5699048e-09
9.3050628e-09
1.1112657e-08
1.6851783e-08
1.9444613e-08
2.1709598e-08
2.4106263e-08
2.635133e-08
2.8686796e-08
3.0956293e-08
3.2779396e-08
1.4948501e-08
3.7508741e-08
3.9857811e-08
4.2097442e-08
4.4323517e-08
4.6559384e-08
4.8789643e-08
5.1025834e-08
5.3259464e-08
5.5497278e-08
5.773636e-08
5.9987891e-08
6.2287028e-08
6.3197671e-08
2.7415855e-08
2.8301672e-08
2.919862e-08
3.0109711e-08
3.1006541e-08
3.1904435e-08
3.2795031e-08
3.3684851e-08
3.4573538e-08
3.546839e-08
3.6381697e-08
3.7397685e-08
3.9716378e-08
9.3522733e-08
9.636969e-08
9.92324e-08
1.0242479e-07
7.8666546e-08
7.9591962e-08
8.0890612e-08
8.2014406e-08
8.3145511e-08
8.4208905e-08
8.5237899e-08
8.6217357e-08
8.7152804e-08
8.804154e-08
8.8884225e-08
8.968088e-08
9.0431022e-08
9.113435e-08
9.1790905e-08
9.2400342e-08
9.2964061e-08
9.3481429e-08
9.3953709e-08
9.438019e-08
9.4763012e-08
9.5101891e-08
9.539844e-08
9.5652219e-08
9.5865143e-08
9.603733e-08
9.6170186e-08
9.6265004e-08
9.6321452e-08
9.6339303e-08
9.6322997e-08
9.6271613e-08
9.6184025e-08
9.6059824e-08
9.5903464e-08
9.5724903e-08
9.5518235e-08
9.5270471e-08
9.4999182e-08
9.469854e-08
9.4371915e-08
9.4019389e-08
9.3642506e-08
9.324101e-08
9.2816721e-08
9.2370128e-08
9.1903387e-08
9.1416352e-08
9.0909709e-08
9.0384181e-08
8.9841428e-08
8.928284e-08
8.8708134e-08
8.8117706e-08
8.7512163e-08
8.6892761e-08
8.6258785e-08
8.56095e-08
8.4945202e-08
8.4270212e-08
8.3587304e-08
8.2892479e-08
8.2184178e-08
8.1465411e-08
8.0736982e-08
8.0000432e-08
7.9253907e-08
7.8496839e-08
7.7728252e-08
7.6948487e-08
7.6156976e-08
7.5355629e-08
7.4545085e-08
7.3726932e-08
7.2898527e-08
7.2058457e-08
7.1207074e-08
7.0346467e-08
6.9474684e-08
6.8590043e-08
6.768975e-08
6.6778895e-08
6.585036e-08
6.4908266e-08
6.3939271e-08
6.2955411e-08
6.1938104e-08
6.0902765e-08
5.9823525e-08
5.8724522e-08
5.7572211e-08
5.6395498e-08
5.514824e-08
5.3866727e-08
5.2494701e-08
5.1079643e-08
4.9553407e-08
4.7968873e-08
4.6245749e-08
4.4437598e-08
4.2457971e-08
4.0328945e-08
3.7800139e-08
3.5381141e-08
3.4974504e-08
3.523315e-08
3.5798856e-08