/*--------------------------------*- C++ -*----------------------------------*\
| =========                 |                                                 |
| \\      /  F ield         | OpenFOAM: The Open Source CFD Toolbox           |
|  \\    /   O peration     | Version:  2.4.0                                 |
|   \\  /    A nd           | Web:      www.OpenFOAM.org                      |
|    \\/     M anipulation  |                                                 |
\*---------------------------------------------------------------------------*/
FoamFile
{
    version     2.0;
    format      ascii;
    class       volScalarField;
    location    "180";
    object      p;
}
// * * * * * * * * * * * * * * * * * * * * * * * * * * * * * * * * * * * * * //

dimensions      [0 2 -2 0 0 0 0];

internalField   nonuniform List<scalar> 
78300
(
-0.12129272
-0.065051682
-0.077691061
-0.063759858
-0.07087848
-0.058453935
-0.053719005
-0.036748151
-0.026051522
-0.015288741
-0.011859896
-0.0077701277
-0.0066842732
-0.0049048649
-0.0044384176
-0.0033547199
-0.0029545556
-0.0022139149
-0.0018410887
-0.0013060103
-0.0010041448
-0.00065401755
-0.00046613504
-0.00027962104
-0.00019077755
-0.00011052061
-8.2457408e-05
-8.1112606e-05
-0.00010303526
-0.00014690702
-0.00020027308
-0.0002640173
-0.00033004565
-0.00038554497
-0.00042620835
-0.00042888056
-0.00039735951
-0.00034726162
-0.00027330954
-0.00015939625
-2.9033769e-10
0.00024586572
0.00039422262
0.00060239019
0.0007994336
0.00094163052
0.0011328366
0.0012900383
0.0014376892
0.0015575294
0.001642014
0.0017001569
0.00170699
0.0016791099
0.0015828815
0.0014471863
0.0012128717
0.00093840828
0.0005225295
7.8238774e-05
-0.00057344279
-0.0012177815
-0.0021866642
-0.0028214144
-0.0034091841
-0.0038072625
-0.0041601584
-0.0043643727
-0.0045114209
-0.0045406324
-0.0045102626
-0.0043847144
-0.0042012824
-0.0039392544
-0.0036212757
-0.0032341089
-0.0027936136
-0.0022917842
-0.0017384379
-0.0011295351
-0.00047116711
0.00023936886
0.0009978983
0.0018048746
0.0026571605
0.0035553805
0.0044976251
0.0054824795
0.0065080714
0.0075751369
0.0086826438
0.0098295156
0.011014736
0.012237426
0.013496448
0.01479033
0.016117286
0.017475778
0.018863866
0.020278883
0.021722346
0.023193275
0.024688788
0.026207377
0.02774413
0.029298828
0.030874585
0.032467987
0.034078338
0.035703437
0.037343128
0.038996717
0.040662861
0.042339308
0.044024918
0.045719839
0.047424101
0.049135673
0.050852588
0.052571549
0.054292473
0.05601378
0.057734778
0.059451758
0.061164797
0.062872894
0.064576984
0.066274155
0.067964965
0.069648307
0.071324416
0.072992324
0.074651414
0.076301146
0.077940762
0.079571985
0.081193468
0.082804819
0.084402913
0.085988194
0.087558438
0.089113716
0.090653041
0.092175874
0.093682102
0.095171409
0.096643737
0.098097233
0.099531549
0.10094549
0.10234263
0.10372183
0.10508376
0.10642634
0.10775311
0.1090656
0.1103647
0.11164844
0.11291673
0.11417168
0.11541164
0.11663352
0.11783317
0.11901596
0.1201899
0.12135076
0.1224925
0.12361636
0.12472503
0.1258211
0.12690184
0.12796336
0.12900537
0.13002493
0.1310237
0.13200022
0.13296206
0.13390873
0.13484422
0.13575917
0.13666277
0.13755268
0.13843835
0.13930651
0.14016756
0.14101672
0.14186439
0.14269717
0.14352129
0.1443292
0.14513068
0.14591313
0.14668817
0.14744543
0.14820246
0.1489403
0.14967722
0.15038659
0.1510983
0.15178269
0.15248149
0.15315119
0.15384341
0.15450116
0.15519133
0.15583962
0.15653121
0.15717068
0.15787531
0.158538
0.15926674
0.15996823
0.16072727
0.16146976
0.16226103
0.16304305
0.16386575
0.16468219
0.16553019
0.16636944
0.16722798
0.16806973
0.16891436
0.16972103
0.17049477
0.17120189
0.17183272
0.17235542
0.17275512
0.17301079
0.17309661
0.17301092
0.17272573
0.17221783
0.17145305
0.17046875
0.1692866
0.16790666
0.16631991
0.16450096
0.16242659
0.16004149
0.15733633
0.15422267
0.15068934
0.14658302
0.14187346
0.13630098
0.12955039
0.1210878
0.11120604
0.099040863
0.085221432
0.068352753
0.049766424
0.026370019
0.0011568955
-0.030509535
-0.063503402
-0.10483541
-0.14350616
-0.18744604
-0.21123383
-0.23286526
-0.23011103
-0.23355431
-0.21247779
-0.21114884
-0.18085944
-0.18526293
-0.12129657
-0.065055138
-0.077692691
-0.063760158
-0.070872798
-0.058457026
-0.053723453
-0.036773804
-0.02607704
-0.015315517
-0.011875372
-0.007785105
-0.0066919115
-0.0049123282
-0.0044428367
-0.0033599312
-0.0029581757
-0.0022179984
-0.0018441742
-0.0013092197
-0.0010065543
-0.00065621466
-0.00046761987
-0.00028080924
-0.00019150857
-0.00011097355
-8.2712181e-05
-8.1062215e-05
-0.00010289539
-0.00014653229
-0.00019987015
-0.00026350647
-0.00032951574
-0.00038508781
-0.00042588805
-0.00042882301
-0.00039755037
-0.00034763986
-0.00027388253
-0.00016034974
-1.1895981e-06
0.00024420474
0.00039309962
0.00060127235
0.00079790315
0.00094058471
0.0011315133
0.0012890499
0.0014367455
0.0015567847
0.0016414471
0.0016998001
0.0017067902
0.0016791069
0.0015829871
0.0014474678
0.0012131939
0.00093884934
0.00052290914
7.8653005e-05
-0.00057317353
-0.0012174786
-0.0021859731
-0.0028205427
-0.0034084778
-0.0038065537
-0.004159488
-0.0043636965
-0.0045107642
-0.0045399687
-0.0045096067
-0.0043840505
-0.0042006193
-0.0039385834
-0.0036206041
-0.0032334271
-0.0027929286
-0.0022910909
-0.0017377416
-0.0011288329
-0.00047046207
0.00024007744
0.00099860866
0.0018055852
0.0026578707
0.0035560891
0.0044983324
0.0054831835
0.0065087685
0.0075758296
0.008683329
0.0098301931
0.011015405
0.012238084
0.013497096
0.014790964
0.016117908
0.017476383
0.018864457
0.020279456
0.021722905
0.023193825
0.02468932
0.026207892
0.027744612
0.029299283
0.030875013
0.032468396
0.03407872
0.035703801
0.037343462
0.038997032
0.040663149
0.042339576
0.044025157
0.045720057
0.047424294
0.049135838
0.050852729
0.052571663
0.054292561
0.056013841
0.057734817
0.059451771
0.061164785
0.06287286
0.064576924
0.066274074
0.067964859
0.069648182
0.071324267
0.072992155
0.074651223
0.076300935
0.077940532
0.079571734
0.0811932
0.082804527
0.084402608
0.085987866
0.087558096
0.089113352
0.090652666
0.09217548
0.093681695
0.095170983
0.096643301
0.098096783
0.099531085
0.10094502
0.10234214
0.10372134
0.10508325
0.10642584
0.10775259
0.10906507
0.11036416
0.11164789
0.11291618
0.11417112
0.11541107
0.11663294
0.11783259
0.11901538
0.12018931
0.12135017
0.12249191
0.12361575
0.12472443
0.12582048
0.12690123
0.12796274
0.12900475
0.13002432
0.13102308
0.13199961
0.13296144
0.13390812
0.13484361
0.13575856
0.13666216
0.13755208
0.13843774
0.13930591
0.14016696
0.14101611
0.14186378
0.14269657
0.1435207
0.1443286
0.14513009
0.14591254
0.1466876
0.14744485
0.14820189
0.14893973
0.14967667
0.15038604
0.15109777
0.15178217
0.15248098
0.15315069
0.15384293
0.15450069
0.15519089
0.15583919
0.1565308
0.1571704
0.15787534
0.1585384
0.1592675
0.15996937
0.16072881
0.16147167
0.16226334
0.16304572
0.16386881
0.16468559
0.16553392
0.16637344
0.16723222
0.16807412
0.1689188
0.16972539
0.17049888
0.17120559
0.17183583
0.17235777
0.17275652
0.17301107
0.17309564
0.17300848
0.17272176
0.17221221
0.17144589
0.17046027
0.16927677
0.16789543
0.16630717
0.16448652
0.16241022
0.16002298
0.1573153
0.15419881
0.15066195
0.14655158
0.14183667
0.13625746
0.1294963
0.12102389
0.11113003
0.098953719
0.085119492
0.068238443
0.04963432
0.026224725
0.00099046502
-0.030683052
-0.063691464
-0.10501098
-0.14366642
-0.1875407
-0.21127734
-0.23286456
-0.23009901
-0.2335338
-0.21246414
-0.21113982
-0.18085514
-0.18526328
-0.12130067
-0.065058447
-0.077694843
-0.063759893
-0.070866664
-0.058459772
-0.053727815
-0.03680068
-0.026103932
-0.015344096
-0.011892107
-0.0078013273
-0.0067001874
-0.0049204203
-0.0044475996
-0.0033655673
-0.0029621308
-0.0022223916
-0.0018475022
-0.0013126812
-0.0010091629
-0.00065859152
-0.00046923229
-0.00028210065
-0.00019230265
-0.00011144681
-8.3032934e-05
-8.0987972e-05
-0.00010279302
-0.00014611347
-0.00019947323
-0.00026295427
-0.00032894165
-0.00038458825
-0.00042553988
-0.00042877859
-0.00039778839
-0.00034806222
-0.00027449544
-0.00016145537
-2.5745911e-06
0.00024216546
0.00039199104
0.00060021503
0.00079621423
0.00093964619
0.0011300759
0.0012880391
0.0014357015
0.0015559566
0.0016408158
0.0016994017
0.0017065612
0.0016790917
0.0015830877
0.0014477605
0.0012135285
0.00093931746
0.00052330986
7.9103764e-05
-0.00057287638
-0.0012171105
-0.0021851813
-0.0028195408
-0.003407666
-0.0038057417
-0.0041587258
-0.0043629298
-0.0045100243
-0.0045392224
-0.004508873
-0.0043833089
-0.0041998815
-0.0039378377
-0.0036198607
-0.0032326724
-0.0027921725
-0.002290326
-0.0017369751
-0.0011280605
-0.00046968787
0.00024085477
0.00099938696
0.0018063624
0.0026586466
0.0035568621
0.0044991034
0.0054839502
0.0065095259
0.0075765822
0.0086840725
0.0098309276
0.011016131
0.012238796
0.013497797
0.014791646
0.016118579
0.017477033
0.018865092
0.020280068
0.021723502
0.023194412
0.024689888
0.026208444
0.027745125
0.029299767
0.030875465
0.03246883
0.034079122
0.035704187
0.037343814
0.038997366
0.040663451
0.042339858
0.044025407
0.045720285
0.047424494
0.049136008
0.050852875
0.052571775
0.054292648
0.056013896
0.057734848
0.059451774
0.061164759
0.062872811
0.064576846
0.066273974
0.067964731
0.069648036
0.071324092
0.07299196
0.074651004
0.076300696
0.077940273
0.079571449
0.081192899
0.082804197
0.084402266
0.085987496
0.087557713
0.089112943
0.090652246
0.092175037
0.093681239
0.095170505
0.096642814
0.098096282
0.099530569
0.1009445
0.1023416
0.10372079
0.10508269
0.10642528
0.10775201
0.1090645
0.11036357
0.11164729
0.11291558
0.11417049
0.11541045
0.1166323
0.11783196
0.11901475
0.12018867
0.12134952
0.12249125
0.12361508
0.12472377
0.1258198
0.12690055
0.12796206
0.12900407
0.13002364
0.13102239
0.13199894
0.13296077
0.13390746
0.13484293
0.1357579
0.13666149
0.13755142
0.13843707
0.13930525
0.1401663
0.14101545
0.14186313
0.14269591
0.14352005
0.14432795
0.14512945
0.1459119
0.14668697
0.14744422
0.14820127
0.14893911
0.14967607
0.15038545
0.15109719
0.1517816
0.15248043
0.15315014
0.15384241
0.15450018
0.15519041
0.15583872
0.15653037
0.15717009
0.15787537
0.15853882
0.15926833
0.15997059
0.16073045
0.16147371
0.16226582
0.16304859
0.16387209
0.16468922
0.16553792
0.16637772
0.16723675
0.16807881
0.16892353
0.16973005
0.17050325
0.17120953
0.17183913
0.17236025
0.17275797
0.17301131
0.17309453
0.17300578
0.17271742
0.17220608
0.17143811
0.17045106
0.16926614
0.16788329
0.16629342
0.16447092
0.16239253
0.16000296
0.15729256
0.15417302
0.1506323
0.1465176
0.14179687
0.1362104
0.12943785
0.1209547
0.11104788
0.098859403
0.085009405
0.068114861
0.049491978
0.026068051
0.00081102991
-0.030869897
-0.063893446
-0.10519879
-0.14383679
-0.18763979
-0.21132131
-0.23286169
-0.23008417
-0.23351077
-0.21244819
-0.21113003
-0.1808496
-0.18526395
-0.12130435
-0.065061306
-0.077696776
-0.063759302
-0.070860566
-0.05846252
-0.053732196
-0.036827166
-0.02613018
-0.015372198
-0.011908649
-0.0078174306
-0.0067083499
-0.0049284706
-0.0044522866
-0.0033711678
-0.0029661065
-0.0022267334
-0.001850795
-0.0013161097
-0.0010117525
-0.0006609495
-0.00047083574
-0.00028338757
-0.00019309048
-0.00011189096
-8.3407089e-05
-8.0885735e-05
-0.0001027549
-0.00014568075
-0.00019913402
-0.00026241303
-0.00032838004
-0.00038409798
-0.00042520665
-0.00042877437
-0.00039808421
-0.0003485183
-0.00027511081
-0.00016265947
-4.0901656e-06
0.00023979092
0.00039100992
0.00059933932
0.00079446899
0.00093895072
0.0011286306
0.0012871054
0.0014346299
0.001555102
0.0016401659
0.0016989926
0.0017063256
0.0016790708
0.0015831844
0.0014480505
0.0012138632
0.00093978712
0.0005237172
7.9563731e-05
-0.00057256078
-0.0012167228
-0.0021844151
-0.0028185651
-0.0034068692
-0.0038049465
-0.0041579792
-0.004362179
-0.0045092997
-0.0045384908
-0.0045081536
-0.0043825807
-0.0041991567
-0.0039371041
-0.0036191303
-0.0032319291
-0.0027914281
-0.0022895713
-0.0017362195
-0.0011272982
-0.00046892378
0.00024162229
0.0010001556
0.0018071293
0.0026594123
0.0035576247
0.0044998641
0.0054847068
0.0065102727
0.0075773251
0.0086848062
0.0098316529
0.011016849
0.012239498
0.01349849
0.014792318
0.01611924
0.017477672
0.018865717
0.020280668
0.021724087
0.023194991
0.024690446
0.026208988
0.027745628
0.029300243
0.030875906
0.032469256
0.034079516
0.035704568
0.037344157
0.038997695
0.040663748
0.042340139
0.044025653
0.045720512
0.047424694
0.049136177
0.050853019
0.052571885
0.054292733
0.056013948
0.057734878
0.059451775
0.061164732
0.062872761
0.064576767
0.066273875
0.067964602
0.069647891
0.071323917
0.072991767
0.074650787
0.076300458
0.077940016
0.079571166
0.081192601
0.082803866
0.084401928
0.085987126
0.087557332
0.089112534
0.090651828
0.092174594
0.093680785
0.095170024
0.096642328
0.098095781
0.099530052
0.10094398
0.10234105
0.10372026
0.10508213
0.10642473
0.10775143
0.10906392
0.11036299
0.1116467
0.11291498
0.11416987
0.11540983
0.11663166
0.11783133
0.11901412
0.12018803
0.12134887
0.1224906
0.12361441
0.12472311
0.12581912
0.12689988
0.12796138
0.12900338
0.13002296
0.13102171
0.13199828
0.13296009
0.1339068
0.13484226
0.13575725
0.13666083
0.13755077
0.13843641
0.1393046
0.14016565
0.1410148
0.14186248
0.14269526
0.1435194
0.1443273
0.14512881
0.14591126
0.14668635
0.1474436
0.14820066
0.14893849
0.14967547
0.15038485
0.15109662
0.15178103
0.15247989
0.15314961
0.1538419
0.15449967
0.15518994
0.15583826
0.15652994
0.15716978
0.15787539
0.15853923
0.15926914
0.15997179
0.16073208
0.16147574
0.16226828
0.16305144
0.16387535
0.16469284
0.16554188
0.16638197
0.16724125
0.16808346
0.16892822
0.16973468
0.17050758
0.17121344
0.17184239
0.1723627
0.17275938
0.17301153
0.17309344
0.1730031
0.17271311
0.17219997
0.17143036
0.1704419
0.16925558
0.16787123
0.16627978
0.16445542
0.16237493
0.15998302
0.1572699
0.15414735
0.15060276
0.14648375
0.14175722
0.13616355
0.12937973
0.12088569
0.11096618
0.098765354
0.084900046
0.067991795
0.049351009
0.025912881
0.00063328067
-0.031054571
-0.064092101
-0.10538227
-0.14400154
-0.18773291
-0.21136023
-0.23285532
-0.23006725
-0.23348667
-0.21243163
-0.21112005
-0.18084385
-0.18526445
-0.12130777
-0.065063912
-0.07769833
-0.063758466
-0.07085413
-0.058465413
-0.053736799
-0.036854419
-0.026156781
-0.015400843
-0.011925544
-0.0078339647
-0.0067166861
-0.0049367578
-0.0044570751
-0.0033769283
-0.0029702334
-0.0022311897
-0.0018541772
-0.001319632
-0.0010144167
-0.00066337419
-0.00047248647
-0.0002847148
-0.00019389965
-0.00011232739
-8.3831557e-05
-8.0757853e-05
-0.00010276125
-0.00014522295
-0.00019882614
-0.00026186453
-0.00032781256
-0.0003836023
-0.00042487688
-0.00042880363
-0.00039843911
-0.00034902388
-0.00027575245
-0.00016396387
-5.7350181e-06
0.00023707568
0.00039007321
0.00059854471
0.0007926062
0.00093839283
0.0011271217
0.0012861873
0.0014334989
0.0015541955
0.0016394767
0.0016985578
0.0017060743
0.001679042
0.0015832804
0.0014483474
0.0012142113
0.00094027518
0.0005241478
8.0047546e-05
-0.00057221645
-0.0012163143
-0.0021836671
-0.0028176049
-0.0034060763
-0.0038041571
-0.0041572358
-0.0043614312
-0.004508576
-0.0045377589
-0.0045074324
-0.0043818494
-0.0041984276
-0.0039363644
-0.0036183932
-0.0032311774
-0.0027906748
-0.0022888061
-0.0017354533
-0.0011265242
-0.00046814765
0.00024240245
0.0010009372
0.001807909
0.0026601912
0.0035584003
0.0045006375
0.0054854763
0.0065110327
0.0075780822
0.0086855537
0.0098323923
0.011017581
0.012240215
0.013499197
0.014793003
0.016119916
0.017478323
0.018866354
0.02028128
0.021724684
0.02319558
0.024691015
0.026209544
0.02774614
0.029300728
0.030876354
0.032469693
0.034079916
0.035704959
0.037344507
0.038998033
0.040664052
0.042340428
0.044025906
0.045720747
0.047424901
0.049136352
0.05085317
0.052571999
0.054292822
0.056014001
0.057734911
0.059451777
0.061164704
0.062872712
0.064576686
0.066273775
0.067964471
0.069647745
0.07132374
0.072991571
0.074650566
0.076300217
0.077939757
0.079570879
0.081192299
0.082803529
0.084401585
0.085986748
0.087556944
0.089112113
0.090651401
0.092174139
0.093680319
0.09516953
0.09664183
0.098095266
0.09952952
0.10094345
0.10234049
0.10371971
0.10508155
0.10642418
0.10775084
0.10906334
0.11036239
0.11164609
0.11291437
0.11416923
0.1154092
0.116631
0.11783069
0.11901347
0.12018738
0.12134821
0.12248993
0.12361372
0.12472245
0.12581842
0.12689919
0.12796067
0.12900268
0.13002226
0.131021
0.1319976
0.1329594
0.13390613
0.13484158
0.13575658
0.13666015
0.1375501
0.13843574
0.13930394
0.14016498
0.14101413
0.14186182
0.14269459
0.14351874
0.14432663
0.14512816
0.14591061
0.14668571
0.14744296
0.14820004
0.14893786
0.14967486
0.15038424
0.15109603
0.15178045
0.15247933
0.15314905
0.15384138
0.15449915
0.15518945
0.15583777
0.1565295
0.15716946
0.15787541
0.15853964
0.15926996
0.15997302
0.16073376
0.16147782
0.16227082
0.16305437
0.16387871
0.16469656
0.16554598
0.16638635
0.16724589
0.16808826
0.16893304
0.16973947
0.17051204
0.17121748
0.17184576
0.17236524
0.17276084
0.17301176
0.17309232
0.17300035
0.17270869
0.17219368
0.17142238
0.17043246
0.16924471
0.16785882
0.16626576
0.16443946
0.16235681
0.15996246
0.15724653
0.15412085
0.15057225
0.14644884
0.14171629
0.13611519
0.12931988
0.12081438
0.11088202
0.098668232
0.084787572
0.067864966
0.049206394
0.025753917
0.00045135203
-0.031243077
-0.06429385
-0.10556678
-0.144165
-0.18782116
-0.21139349
-0.23284347
-0.23004661
-0.23345996
-0.21241382
-0.21110928
-0.18083789
-0.1852646
-0.12131089
-0.06506626
-0.077699466
-0.063757268
-0.070847168
-0.058468227
-0.053741507
-0.036882443
-0.026183757
-0.015430025
-0.011942811
-0.0078509506
-0.0067252301
-0.0049453021
-0.0044619884
-0.0033828587
-0.0029745189
-0.002235778
-0.0018576644
-0.0013232609
-0.0010171656
-0.00066587428
-0.00047419076
-0.00028608632
-0.00019473338
-0.00011276096
-8.4298099e-05
-8.0607893e-05
-0.00010280043
-0.00014474096
-0.0001985385
-0.00026130623
-0.00032723608
-0.00038309816
-0.00042454572
-0.00042885649
-0.0003988407
-0.00034957242
-0.00027641703
-0.00016533948
-7.4557615e-06
0.00023405302
0.00038914002
0.00059778001
0.00079062307
0.00093791865
0.0011255441
0.0012852638
0.0014323082
0.001553235
0.0016387442
0.0016980918
0.001705801
0.0016789995
0.00158337
0.0014486459
0.0012145682
0.00094077789
0.00052459838
8.0552423e-05
-0.00057184648
-0.0012158877
-0.0021829385
-0.0028166579
-0.003405285
-0.003803371
-0.0041564935
-0.0043606841
-0.0045078509
-0.0045370246
-0.0045067072
-0.0043811127
-0.0041976924
-0.0039356163
-0.0036176469
-0.0032304153
-0.0027899105
-0.0022880285
-0.0017346744
-0.0011257365
-0.00046735748
0.00024319722
0.0010017337
0.0018087035
0.002660985
0.0035591909
0.0045014244
0.0054862597
0.0065118077
0.0075788551
0.0086863169
0.0098331476
0.01101833
0.012240948
0.01349992
0.014793702
0.016120606
0.017478987
0.018867004
0.020281907
0.021725295
0.023196183
0.024691596
0.026210112
0.027746661
0.029301223
0.03087681
0.032470139
0.034080325
0.03570536
0.037344865
0.03899838
0.040664364
0.042340727
0.044026166
0.045720991
0.047425116
0.049136533
0.050853327
0.052572117
0.054292914
0.056014057
0.057734945
0.05945178
0.061164676
0.062872663
0.064576602
0.066273673
0.067964337
0.069647597
0.071323558
0.072991371
0.07465034
0.076299972
0.077939493
0.079570585
0.081191992
0.082803182
0.084401235
0.085986359
0.087556547
0.089111681
0.090650963
0.09217367
0.09367984
0.095169019
0.096641317
0.098094737
0.099528972
0.10094291
0.10233991
0.10371914
0.10508096
0.10642361
0.10775023
0.10906275
0.11036177
0.11164546
0.11291375
0.11416857
0.11540855
0.11663032
0.11783003
0.11901281
0.12018671
0.12134752
0.12248924
0.12361301
0.12472176
0.12581769
0.12689848
0.12795994
0.12900194
0.13002154
0.13102027
0.13199691
0.13295869
0.13390544
0.13484087
0.1357559
0.13665946
0.13754943
0.13843505
0.13930326
0.1401643
0.14101345
0.14186114
0.1426939
0.14351807
0.14432595
0.1451275
0.14590994
0.14668506
0.14744229
0.1481994
0.1489372
0.14967423
0.15038361
0.15109543
0.15177985
0.15247876
0.15314848
0.15384084
0.15449861
0.15518895
0.15583727
0.15652903
0.15716911
0.15787542
0.15854006
0.15927081
0.15997428
0.16073548
0.16147997
0.16227344
0.1630574
0.16388218
0.16470042
0.16555021
0.16639089
0.16725068
0.16809323
0.16893802
0.16974443
0.17051665
0.17122167
0.17184923
0.17236787
0.17276235
0.173012
0.17309119
0.17299752
0.17270414
0.17218718
0.17141414
0.1704227
0.1692335
0.16784601
0.16625129
0.16442298
0.16233808
0.15994119
0.15722235
0.15409346
0.1505407
0.14641272
0.14167395
0.13606516
0.12925819
0.1207405
0.11079529
0.098567746
0.084671801
0.067734035
0.049057941
0.025591153
0.00026526234
-0.031435235
-0.064498271
-0.10575125
-0.14432535
-0.18790197
-0.21141838
-0.2328238
-0.23002053
-0.23342952
-0.21239421
-0.21109736
-0.18083163
-0.18526439
-0.12131375
-0.065068313
-0.077700127
-0.063755592
-0.070839496
-0.058470723
-0.0537462
-0.036911189
-0.02621107
-0.015459666
-0.011960405
-0.0078683642
-0.0067339857
-0.0049540973
-0.0044670342
-0.0033889542
-0.0029789572
-0.002240503
-0.001861261
-0.0013269981
-0.0010200015
-0.00066845112
-0.00047594997
-0.00028750231
-0.00019559254
-0.00011319603
-8.4798438e-05
-8.0440304e-05
-0.00010286226
-0.00014423765
-0.00019826205
-0.00026073724
-0.00032664894
-0.0003825837
-0.00042420949
-0.00042892424
-0.00039927677
-0.00035015602
-0.00027710083
-0.00016676185
-9.2152851e-06
0.00023075709
0.00038817735
0.00059700423
0.00078852777
0.00093748139
0.0011238976
0.0012843172
0.0014310579
0.0015522183
0.001637964
0.001697588
0.0017054987
0.0016789359
0.0015834465
0.0014489394
0.0012149281
0.00094128975
0.00052506415
8.107364e-05
-0.00057145505
-0.001215449
-0.0021822368
-0.0028157289
-0.0034044988
-0.0038025915
-0.004155755
-0.0043599402
-0.0045071267
-0.0045362899
-0.0045059797
-0.0043803725
-0.0041969531
-0.0039348612
-0.003616892
-0.0032296441
-0.0027891363
-0.0022872397
-0.0017338841
-0.0011249364
-0.00046655441
0.00024400546
0.0010025439
0.0018095118
0.0026617929
0.0035599954
0.0045022223
0.0054870545
0.006512597
0.0075796429
0.0086870949
0.009833918
0.011019093
0.012241695
0.013500658
0.014794414
0.01612131
0.017479664
0.018867667
0.02028255
0.021725922
0.023196798
0.024692188
0.026210691
0.027747189
0.029301728
0.030877274
0.032470594
0.034080742
0.035705771
0.03734523
0.038998736
0.040664683
0.042341033
0.044026433
0.045721242
0.047425337
0.049136719
0.050853488
0.052572238
0.054293008
0.056014113
0.057734979
0.059451783
0.061164646
0.062872612
0.064576516
0.066273569
0.067964199
0.069647447
0.071323372
0.072991167
0.07465011
0.076299721
0.077939225
0.079570284
0.081191679
0.082802826
0.084400877
0.085985959
0.087556139
0.089111235
0.090650512
0.092173188
0.093679347
0.095168494
0.096640789
0.098094192
0.099528408
0.10094235
0.10233931
0.10371857
0.10508035
0.10642303
0.10774961
0.10906214
0.11036115
0.11164482
0.11291311
0.11416789
0.11540789
0.11662963
0.11782935
0.11901214
0.12018602
0.12134682
0.12248854
0.12361227
0.12472105
0.12581694
0.12689774
0.12795919
0.12900119
0.1300208
0.13101952
0.13199619
0.13295795
0.13390474
0.13484014
0.13575521
0.13665874
0.13754873
0.13843434
0.13930257
0.14016359
0.14101275
0.14186044
0.14269319
0.14351737
0.14432524
0.14512681
0.14590924
0.14668439
0.14744161
0.14819874
0.14893652
0.14967358
0.15038296
0.15109481
0.15177924
0.15247817
0.15314789
0.15384028
0.15449805
0.15518843
0.15583675
0.15652855
0.15716874
0.15787543
0.15854048
0.15927168
0.15997558
0.16073726
0.16148218
0.16227614
0.16306052
0.16388577
0.16470439
0.16555458
0.16639557
0.16725563
0.16809836
0.16894317
0.16974955
0.1705214
0.17122599
0.17185282
0.17237058
0.1727639
0.17301226
0.17309003
0.17299461
0.17269944
0.17218047
0.17140563
0.17041263
0.16922192
0.16783278
0.16623636
0.16440596
0.16231874
0.15991922
0.15719737
0.15406515
0.15050807
0.1463754
0.14163016
0.1360134
0.12919468
0.12066407
0.110706
0.098463954
0.084552827
0.067599109
0.048905791
0.025424992
7.5583452e-05
-0.031630302
-0.064704164
-0.10593416
-0.14448019
-0.1879723
-0.21143185
-0.23279378
-0.22998714
-0.23339419
-0.21237221
-0.21108395
-0.18082494
-0.18526374
-0.12131627
-0.065070065
-0.077700237
-0.063753315
-0.070830889
-0.05847263
-0.053750729
-0.036940627
-0.026238718
-0.015489714
-0.011978297
-0.0078861885
-0.0067429577
-0.0049631438
-0.0044722203
-0.0033952142
-0.0029835451
-0.0022453711
-0.0018649726
-0.0013308475
-0.0010229272
-0.00067110751
-0.00047776617
-0.00028896383
-0.00019647814
-0.00011363761
-8.5324969e-05
-8.0259778e-05
-0.00010293725
-0.00014371599
-0.00019798821
-0.00026015619
-0.00032604916
-0.0003820569
-0.00042386492
-0.00042899986
-0.00039973791
-0.00035076883
-0.00027780398
-0.00016821522
-1.0999634e-05
0.00022722216
0.00038715925
0.00059618309
0.00078633145
0.00093703667
0.0011221804
0.0012833287
0.001429744
0.0015511395
0.0016371285
0.0016970379
0.0017051584
0.0016788424
0.0015835013
0.0014492199
0.0012152838
0.00094180404
0.00052553932
8.1605289e-05
-0.0005710488
-0.0012150055
-0.0021815706
-0.0028148237
-0.0034037216
-0.0038018219
-0.0041550236
-0.0043592025
-0.0045064059
-0.0045355569
-0.0045052519
-0.0043796304
-0.004196212
-0.0039341003
-0.0036161287
-0.0032288649
-0.0027883532
-0.0022864407
-0.0017330831
-0.0011241247
-0.00046573927
0.00024482638
0.001003367
0.0018103332
0.0026626141
0.0035608131
0.004503029
0.0054878586
0.0065134001
0.007580445
0.008687887
0.0098347028
0.011019871
0.012242456
0.01350141
0.01479514
0.016122027
0.017480352
0.018868343
0.020283211
0.021726567
0.023197424
0.024692791
0.026211277
0.027747722
0.029302242
0.030877747
0.032471059
0.034081166
0.03570619
0.037345602
0.038999099
0.040665009
0.042341347
0.044026705
0.045721499
0.047425563
0.04913691
0.050853652
0.052572361
0.054293103
0.05601417
0.057735013
0.059451785
0.061164615
0.06287256
0.064576427
0.066273462
0.067964056
0.069647292
0.071323181
0.072990957
0.074649873
0.076299463
0.077938949
0.079569976
0.081191357
0.082802459
0.084400509
0.085985548
0.08755572
0.089110777
0.09065005
0.092172692
0.09367884
0.095167952
0.096640246
0.098093631
0.099527827
0.10094178
0.10233869
0.10371797
0.10507972
0.10642243
0.10774897
0.10906151
0.1103605
0.11164416
0.11291245
0.11416719
0.1154072
0.11662891
0.11782865
0.11901145
0.12018532
0.1213461
0.12248781
0.12361152
0.12472033
0.12581617
0.12689699
0.12795841
0.12900041
0.13002004
0.13101874
0.13199545
0.13295719
0.13390401
0.13483939
0.13575449
0.136658
0.13754802
0.13843361
0.13930186
0.14016287
0.14101203
0.14185972
0.14269246
0.14351666
0.14432452
0.14512611
0.14590853
0.1466837
0.14744091
0.14819806
0.14893583
0.14967291
0.15038228
0.15109417
0.15177861
0.15247757
0.15314729
0.15383971
0.15449747
0.15518789
0.15583622
0.15652806
0.15716835
0.15787542
0.15854091
0.15927256
0.15997692
0.16073908
0.16148446
0.16227892
0.16306375
0.16388947
0.1647085
0.16555909
0.16640041
0.16726074
0.16810366
0.16894848
0.16975485
0.17052632
0.17123046
0.17185653
0.17237339
0.17276551
0.17301252
0.17308883
0.17299161
0.17269459
0.17217354
0.17139685
0.17040224
0.16920997
0.16781913
0.16622095
0.16438838
0.16229875
0.15989651
0.15717154
0.15403588
0.15047433
0.1463368
0.1415849
0.13595984
0.12912934
0.12058496
0.11061416
0.098356737
0.084430715
0.067460205
0.048749953
0.025255733
-0.00011720585
-0.031827612
-0.064910563
-0.10611382
-0.1446272
-0.18802902
-0.21143074
-0.23275063
-0.22994433
-0.23335261
-0.21234717
-0.21106861
-0.18081768
-0.18526262
-0.12131847
-0.065071497
-0.077699712
-0.063750288
-0.070821088
-0.05847363
-0.053754906
-0.036970718
-0.026266732
-0.015520124
-0.011996451
-0.0079044132
-0.0067521491
-0.004972442
-0.0044775544
-0.0034016419
-0.0029882788
-0.0022503898
-0.0018688041
-0.0013348134
-0.0010259461
-0.00067384658
-0.00047964148
-0.000290472
-0.00019739114
-0.00011409024
-8.5870748e-05
-8.0070709e-05
-0.00010301667
-0.00014317868
-0.00019770904
-0.00025956146
-0.00032543473
-0.00038151585
-0.00042350935
-0.00042907791
-0.00040021732
-0.00035140723
-0.00027852927
-0.00016969074
-1.2809239e-05
0.00022348272
0.00038606619
0.00059528806
0.0007840444
0.00093654384
0.0011203883
0.0012822788
0.0014283594
0.00154999
0.0016362281
0.0016964305
0.0017047691
0.001678708
0.0015835241
0.0014494773
0.0012156263
0.00094231227
0.00052601628
8.2139805e-05
-0.00057063486
-0.0012145666
-0.0021809496
-0.0028139486
-0.0034029575
-0.0038010661
-0.0041543026
-0.0043584739
-0.0045056908
-0.0045348279
-0.0045045253
-0.0043788881
-0.0041954711
-0.0039333347
-0.003615357
-0.0032280785
-0.0027875618
-0.0022856322
-0.001732272
-0.0011233021
-0.00046491258
0.00024565952
0.0010042026
0.0018111674
0.0026634484
0.0035616437
0.0045038422
0.0054886697
0.0065142168
0.0075812612
0.008688693
0.0098355018
0.011020663
0.012243231
0.013502175
0.014795878
0.016122758
0.017481053
0.018869032
0.020283894
0.021727234
0.023198063
0.024693405
0.026211867
0.027748258
0.029302765
0.030878227
0.032471531
0.034081599
0.035706616
0.037345981
0.038999469
0.040665341
0.042341665
0.044026982
0.04572176
0.047425793
0.049137103
0.050853818
0.052572486
0.054293198
0.056014226
0.057735046
0.059451784
0.061164579
0.062872505
0.064576333
0.06627335
0.067963908
0.069647132
0.071322983
0.07299074
0.074649629
0.076299197
0.077938665
0.079569657
0.081191026
0.082802081
0.08440013
0.085985124
0.087555288
0.089110304
0.090649572
0.092172181
0.093678316
0.095167394
0.096639685
0.098093053
0.099527227
0.10094118
0.10233806
0.10371736
0.10507908
0.10642182
0.10774831
0.10906087
0.11035984
0.11164349
0.11291178
0.11416648
0.1154065
0.11662817
0.11782794
0.11901074
0.12018459
0.12134536
0.12248707
0.12361074
0.12471959
0.12581538
0.12689621
0.12795761
0.1289996
0.13001925
0.13101794
0.1319947
0.13295641
0.13390327
0.13483862
0.13575376
0.13665725
0.13754729
0.13843286
0.13930113
0.14016213
0.14101129
0.14185898
0.14269171
0.14351592
0.14432377
0.14512538
0.1459078
0.14668299
0.14744019
0.14819737
0.14893511
0.14967222
0.15038159
0.15109351
0.15177796
0.15247694
0.15314667
0.15383912
0.15449688
0.15518734
0.15583567
0.15652754
0.15716794
0.1578754
0.15854134
0.15927347
0.15997829
0.16074095
0.16148681
0.16228178
0.16306707
0.16389328
0.16471274
0.16556375
0.16640541
0.16726603
0.16810913
0.16895397
0.16976032
0.1705314
0.17123507
0.17186037
0.1723763
0.17276717
0.1730128