/*--------------------------------*- C++ -*----------------------------------*\
| =========                 |                                                 |
| \\      /  F ield         | OpenFOAM: The Open Source CFD Toolbox           |
|  \\    /   O peration     | Version:  2.4.0                                 |
|   \\  /    A nd           | Web:      www.OpenFOAM.org                      |
|    \\/     M anipulation  |                                                 |
\*---------------------------------------------------------------------------*/
FoamFile
{
    version     2.0;
    format      ascii;
    class       volVectorField;
    location    "180";
    object      U;
}
// * * * * * * * * * * * * * * * * * * * * * * * * * * * * * * * * * * * * * //

dimensions      [0 1 -1 0 0 0 0];

internalField   nonuniform List<vector> 
78300
(
(0.0060053351 2.5896199e-05 1.3367985e-21)
(0.0045798574 2.3286364e-05 -1.2944208e-21)
(0.0073471113 -4.6482409e-05 1.1180936e-21)
(0.0058920059 -0.00018134537 -3.0611234e-20)
(0.0064355546 -0.00043639261 -8.7155638e-21)
(0.0038134487 -0.00044701095 1.6700998e-20)
(0.0024640365 -0.0004464241 9.7191239e-21)
(-0.0005875922 0.00014052975 -3.3217832e-20)
(-0.0016714156 0.00054739643 -1.1568111e-20)
(-0.0023908104 0.0010074025 1.1790383e-20)
(-0.0018217177 0.00091826427 7.1649692e-21)
(-0.0016090878 0.00092983673 -1.7434093e-20)
(-0.0011488789 0.00073402954 2.7363805e-21)
(-0.0010081881 0.00069807749 -1.2255257e-20)
(-0.00082402796 0.00060614056 9.2781812e-21)
(-0.00078109989 0.00060297168 -1.2519783e-20)
(-0.00068452213 0.00054793149 -3.8464706e-21)
(-0.00066213589 0.00054544587 1.6513359e-21)
(-0.00060090897 0.00050487568 -5.7644338e-21)
(-0.000575869 0.0004903903 3.654231e-21)
(-0.00052862781 0.00045295867 4.2622717e-21)
(-0.00050299893 0.00043110537 -2.9032285e-21)
(-0.00046820039 0.00039862923 -8.9287667e-22)
(-0.00045216279 0.00038070236 2.9603884e-22)
(-0.00043560888 0.00036257592 5.651599e-22)
(-0.00042942107 0.00035356944 9.0690437e-23)
(-0.00042447834 0.00034598206 9.5629163e-23)
(-0.00042788973 0.00034555715 -3.3373737e-22)
(-0.00043398003 0.00034741879 -3.5177545e-22)
(-0.00044795094 0.00035586389 -3.3266293e-22)
(-0.00046565827 0.00036729729 4.5603848e-22)
(-0.00049082774 0.00038483419 1.216365e-21)
(-0.00052037697 0.00040581881 5.5323466e-22)
(-0.00055639579 0.00043199447 8.5462071e-22)
(-0.00059610363 0.00046112158 -1.0267064e-21)
(-0.00063904081 0.00049296969 7.192742e-22)
(-0.000680237 0.00052318646 -1.1767519e-21)
(-0.00072050604 0.00055101414 -3.9254714e-23)
(-0.0007604241 0.00057629543 -1.880469e-21)
(-0.00079918183 0.0005980442 3.1250811e-22)
(-0.00083674554 0.00061592642 -3.091272e-24)
(-0.00087157183 0.00062943362 -3.182751e-22)
(-0.0009038366 0.00063826053 -7.9030212e-22)
(-0.00093252671 0.00064036737 -1.3756306e-21)
(-0.00095627 0.00063591954 2.8882419e-21)
(-0.00097379847 0.00062343163 3.6717699e-21)
(-0.00098669249 0.00060389238 -1.515417e-21)
(-0.00099315844 0.00057716674 -4.671101e-21)
(-0.0010006148 0.00054774268 5.018225e-21)
(-0.0010064504 0.000516109 -4.2965045e-21)
(-0.0010098359 0.0004822535 -9.8590965e-21)
(-0.0010061825 0.00044441084 1.3337331e-21)
(-0.00099937774 0.00040495982 -1.8864597e-21)
(-0.00098085059 0.00036103933 -7.2033713e-21)
(-0.00096116679 0.00031757874 -2.2626087e-21)
(-0.00092507173 0.00027020268 1.8795445e-21)
(-0.00089405871 0.00022643655 1.2696952e-21)
(-0.00084137068 0.0001799118 2.3087457e-21)
(-0.00081011997 0.0001409387 2.3403627e-23)
(-0.00075225146 0.00010045996 -2.046116e-22)
(-0.00075505306 7.005546e-05 -3.5597676e-22)
(-0.00073156527 3.7777908e-05 -1.1086626e-22)
(-0.0008911851 1.0674485e-05 -2.2508248e-22)
(-0.0012053367 3.5538249e-07 7.1033274e-26)
(-0.0014204619 3.5526446e-07 -9.207126e-26)
(-0.0016382096 3.2024498e-07 -4.0933362e-25)
(-0.0018155612 3.4213196e-07 4.5336558e-25)
(-0.0019910221 3.2668876e-07 -4.6182885e-25)
(-0.0021394704 3.4366427e-07 2.9808957e-25)
(-0.0022837283 3.379948e-07 -3.8422617e-25)
(-0.0024096414 3.5167962e-07 2.4643148e-25)
(-0.0025309641 3.5114954e-07 4.8364097e-25)
(-0.0026395033 3.6210946e-07 -6.2586932e-25)
(-0.0027437237 3.6416936e-07 -2.3327563e-18)
(-0.0028387191 3.7333236e-07 -2.1418119e-18)
(-0.0029299078 3.7820931e-07 9.0937573e-25)
(-0.003014305 3.8628375e-07 -3.6298675e-25)
(-0.0030951589 3.9133279e-07 -2.3739129e-25)
(-0.0031707173 3.976487e-07 1.7356001e-25)
(-0.0032429923 4.0190181e-07 -1.2745291e-25)
(-0.0033109388 4.0723202e-07 7.5220363e-27)
(-0.0033757975 4.1099831e-07 5.1798224e-26)
(-0.0034369322 4.146905e-07 -3.1429954e-26)
(-0.0034951026 4.1622813e-07 -2.3308407e-25)
(-0.0035499282 4.1798512e-07 2.6839988e-25)
(-0.0036018325 4.1869498e-07 -4.1364497e-26)
(-0.0036505977 4.1919404e-07 4.1832573e-25)
(-0.0036964976 4.1757484e-07 -5.7956192e-25)
(-0.0037394967 4.1520254e-07 -4.9813971e-25)
(-0.0037796864 4.13626e-07 7.58226e-25)
(-0.0038170549 4.1094905e-07 -6.7188832e-25)
(-0.0038516416 4.0775111e-07 5.3838266e-25)
(-0.0038834555 4.0425965e-07 -3.1899249e-25)
(-0.0039125578 3.9937625e-07 -7.4075945e-26)
(-0.0039389595 3.9441514e-07 1.8071287e-26)
(-0.0039627437 3.8728179e-07 4.8993618e-25)
(-0.003983941 3.8064037e-07 -4.1502407e-26)
(-0.004002665 3.7159648e-07 7.5279217e-25)
(-0.0040189042 3.6287155e-07 4.0890465e-27)
(-0.0040329512 3.5290127e-07 -1.5022419e-24)
(-0.0040446154 3.4494024e-07 7.1680518e-25)
(-0.0040550233 3.3807459e-07 -6.9581897e-26)
(-0.0040635415 3.2792974e-07 1.0451246e-24)
(-0.0040700125 3.1695194e-07 -2.0274843e-26)
(-0.0040737332 2.9977129e-07 -2.0646622e-24)
(-0.0040723883 2.8436174e-07 -1.4917735e-25)
(-0.0040685235 2.6961587e-07 6.6339253e-26)
(-0.004061881 2.5751603e-07 1.0738163e-24)
(-0.0040529332 2.4291389e-07 -1.0860604e-25)
(-0.0040416672 2.3134921e-07 -1.3730143e-24)
(-0.0040282214 2.1681401e-07 2.5396657e-24)
(-0.0040126094 2.0488265e-07 -2.9199562e-24)
(-0.0039948968 1.9013437e-07 2.7564337e-24)
(-0.0039751306 1.7708051e-07 -5.303573e-25)
(-0.0039534042 1.6212333e-07 3.2753409e-25)
(-0.0039297622 1.4938591e-07 -1.3842564e-24)
(-0.0039042582 1.3534151e-07 7.8554424e-25)
(-0.0038769089 1.2039489e-07 2.1308768e-25)
(-0.0038477857 1.0561552e-07 -1.5341487e-25)
(-0.0038169543 8.9749146e-08 -1.5111403e-25)
(-0.003784505 7.4992862e-08 3.2135964e-17)
(-0.0037504836 5.9411054e-08 3.3145487e-17)
(-0.0037149436 4.4677794e-08 1.9445483e-24)
(-0.0036779681 2.9378021e-08 -1.5751447e-25)
(-0.0036396423 1.4280654e-08 -1.8245172e-25)
(-0.0036000471 4.8458916e-10 -1.3279221e-25)
(-0.0035592201 -1.4610241e-08 -1.0960411e-26)
(-0.0035172389 -2.782075e-08 -4.5095436e-25)
(-0.0034741622 -4.2235505e-08 -2.0756978e-25)
(-0.0034300724 -5.4642274e-08 7.2087543e-25)
(-0.0033850124 -6.8643119e-08 3.9547311e-26)
(-0.0033390529 -8.1097237e-08 3.9613895e-25)
(-0.0032922408 -9.4060552e-08 -6.5596049e-25)
(-0.0032446502 -1.063184e-07 9.182214e-26)
(-0.0031963499 -1.1801566e-07 2.1305398e-26)
(-0.0031473864 -1.3080661e-07 4.1757185e-26)
(-0.0030977888 -1.4196548e-07 4.0931655e-27)
(-0.0030475859 -1.5527751e-07 2.6822734e-25)
(-0.0029968643 -1.6505794e-07 -1.1858851e-25)
(-0.0029456768 -1.7766721e-07 -6.4189967e-25)
(-0.0028940733 -1.8716437e-07 1.2343447e-24)
(-0.0028420926 -1.9874643e-07 -1.7878463e-24)
(-0.0027898141 -2.0744778e-07 2.9849035e-26)
(-0.0027372733 -2.1779232e-07 9.5409661e-25)
(-0.0026845375 -2.2622309e-07 -2.7111033e-25)
(-0.0026316368 -2.3608506e-07 6.4915041e-25)
(-0.0025786123 -2.4330728e-07 -2.737746e-25)
(-0.0025254978 -2.5098405e-07 -1.7492277e-26)
(-0.0024723554 -2.5825314e-07 -3.1088475e-25)
(-0.0024192656 -2.6317393e-07 -3.196454e-25)
(-0.0023662599 -2.7197844e-07 -3.0318323e-25)
(-0.0023133576 -2.7595825e-07 1.1518929e-24)
(-0.0022605736 -2.835004e-07 7.5023853e-25)
(-0.0022079953 -2.8601568e-07 1.2324776e-24)
(-0.0021556638 -2.944385e-07 -4.8815838e-25)
(-0.0021036068 -2.9921172e-07 -1.3823889e-24)
(-0.0020517851 -3.0641231e-07 -3.3493472e-24)
(-0.0020002493 -3.122899e-07 6.6063014e-17)
(-0.0019490219 -3.1708797e-07 3.1644741e-20)
(-0.0018981492 -3.2532159e-07 -6.7588177e-17)
(-0.0018475552 -3.2870514e-07 -5.1522114e-24)
(-0.0017973095 -3.3314974e-07 7.5237523e-25)
(-0.0017474955 -3.3280205e-07 -8.9865274e-24)
(-0.0016982887 -3.3676918e-07 9.3004142e-24)
(-0.0016495774 -3.4374357e-07 8.6246229e-25)
(-0.0016012439 -3.4829581e-07 -8.4786676e-24)
(-0.00155335 -3.4960713e-07 4.7030801e-24)
(-0.0015060365 -3.5345557e-07 -5.179236e-24)
(-0.0014592881 -3.5434022e-07 7.6389678e-24)
(-0.0014131344 -3.6107217e-07 -1.9549725e-24)
(-0.0013674143 -3.6105254e-07 -3.836693e-24)
(-0.0013222992 -3.6144847e-07 1.2327864e-24)
(-0.0012776383 -3.5955596e-07 4.9772248e-24)
(-0.0012337119 -3.5479955e-07 -5.7733776e-24)
(-0.0011902982 -3.5216241e-07 5.0485125e-24)
(-0.0011478083 -3.4624808e-07 -5.5126273e-24)
(-0.0011058953 -3.4804087e-07 2.8278994e-24)
(-0.0010649553 -3.4627888e-07 3.2281288e-24)
(-0.0010244242 -3.4801904e-07 5.2341182e-24)
(-0.00098493707 -3.426058e-07 -5.996634e-24)
(-0.00094593858 -3.4529004e-07 -4.1227324e-24)
(-0.00090818703 -3.4586668e-07 5.3046223e-24)
(-0.00087074122 -3.506769e-07 -1.1291567e-23)
(-0.00083461087 -3.4804064e-07 1.0509345e-23)
(-0.00079876672 -3.5216729e-07 -6.2311756e-24)
(-0.0007645486 -3.5539552e-07 5.4274025e-24)
(-0.00073036715 -3.6086927e-07 -6.3116733e-24)
(-0.00069797396 -3.5984644e-07 -4.3455214e-24)
(-0.00066542192 -3.5945166e-07 3.4424621e-24)
(-0.00063516903 -3.5753542e-07 -4.3987057e-24)
(-0.00060449137 -3.563964e-07 1.1330915e-23)
(-0.00057665711 -3.5072572e-07 -6.8853662e-24)
(-0.00054810245 -3.4870582e-07 6.0309701e-24)
(-0.00052323745 -3.4560456e-07 -1.0328996e-23)
(-0.0004971695 -3.4701367e-07 9.6804025e-25)
(-0.0004757075 -3.4114958e-07 3.5796578e-24)
(-0.00045236714 -3.3722044e-07 4.0172903e-24)
(-0.00043503364 -3.2325112e-07 -1.5316923e-23)
(-0.00041517866 -3.1997002e-07 8.9371978e-17)
(-0.00040323837 -3.0785062e-07 8.9892681e-17)
(-0.00038785249 -3.1124863e-07 -4.5692682e-24)
(-0.00038264609 -2.9780779e-07 -6.7988149e-24)
(-0.00037293184 -3.0209148e-07 5.9314817e-24)
(-0.00037629552 -2.836495e-07 1.0785401e-24)
(-0.00037427432 -2.8782946e-07 -1.9624533e-24)
(-0.00038859866 -2.6252961e-07 -9.2169941e-17)
(-0.00039569407 -2.7005666e-07 -9.271146e-17)
(-0.00042215981 -5.0524325e-06 -1.6602985e-20)
(-0.00044191586 -2.2751179e-05 1.723051e-19)
(-0.00044697976 -4.1106651e-05 7.8187621e-20)
(-0.0004549963 -6.0165585e-05 -5.0709545e-19)
(-0.00044479556 -7.6499458e-05 -8.4435739e-20)
(-0.00043779471 -9.2541203e-05 -5.6537183e-19)
(-0.00041524664 -0.00010384923 3.7818581e-20)
(-0.00039437753 -0.00011370447 -5.9040584e-21)
(-0.00036069061 -0.00011746804 2.098307e-19)
(-0.0003268438 -0.00011844007 -1.6503956e-19)
(-0.00028221797 -0.00011229558 5.3814992e-19)
(-0.00023540973 -0.00010177517 -3.6682752e-19)
(-0.00017882666 -8.3040283e-05 -9.9739955e-20)
(-0.00011804374 -5.8063634e-05 -1.8332173e-19)
(-4.7664525e-05 -2.3506352e-05 1.0419988e-18)
(2.9493773e-05 1.9755295e-05 2.2816557e-19)
(0.00011927594 7.5617588e-05 -8.9027938e-19)
(0.00021654445 0.00014107102 -9.7721987e-19)
(0.00032479431 0.00021823992 -1.5618046e-19)
(0.0004407077 0.00030467375 7.524722e-20)
(0.00056700504 0.00040194814 -1.0497612e-18)
(0.00070113903 0.00050784627 -7.0078006e-20)
(0.00084520717 0.00062331999 -1.905861e-19)
(0.00099665986 0.00074589132 -1.2483817e-18)
(0.0011567535 0.0008757301 1.8936942e-19)
(0.0013226985 0.001009645 1.0241235e-18)
(0.0014944144 0.001146501 7.42013e-19)
(0.0016650634 0.0012804675 -2.7765797e-19)
(0.0018267808 0.0014078535 -1.3739425e-19)
(0.0019845595 0.0015344128 -1.2730374e-19)
(0.0021405454 0.0016620362 2.5957096e-19)
(0.0022976979 0.0017933441 9.1138864e-19)
(0.0024566764 0.0019291109 -9.8957075e-19)
(0.0026209344 0.0020723756 2.6511931e-19)
(0.0027901493 0.0022234035 2.7480441e-20)
(0.0029695218 0.0023868849 2.498726e-19)
(0.0031584423 0.002562722 1.4777771e-19)
(0.0033645893 0.0027578868 -6.9235635e-20)
(0.0035886346 0.0029736702 3.4868105e-19)
(0.0038442205 0.0032223474 -4.1663586e-20)
(0.0041486178 0.0035164382 -7.2603311e-19)
(0.0045242246 0.0038593631 -1.732795e-20)
(0.004955162 0.0042254461 -4.6931897e-19)
(0.0054837863 0.0046453328 4.3476868e-19)
(0.006073035 0.0050756926 3.557807e-20)
(0.0068037596 0.0055727754 5.2285472e-20)
(0.007611973 0.0060615772 -1.2019657e-19)
(0.008644336 0.0066350911 7.1654065e-20)
(0.0097744008 0.0071533741 4.5425153e-20)
(0.011298137 0.0077824205 -6.141883e-21)
(0.012905886 0.0082182416 1.4876117e-19)
(0.014951743 0.0086105109 -1.047338e-19)
(0.016815257 0.0084816203 -3.7886084e-19)
(0.018764354 0.0079247059 -4.5093851e-19)
(0.018949571 0.0063116996 -8.8171781e-20)
(0.018039897 0.0045273579 1.3276434e-19)
(0.015500098 0.0027699256 -1.6649658e-19)
(0.013336711 0.0015704797 -1.0207379e-19)
(0.0099228771 0.00067976907 -2.1621367e-20)
(0.0083945932 0.00026342602 -3.2012885e-20)
(0.0053516679 3.7810621e-05 -1.9383668e-20)
(0.0056473456 -3.1084754e-05 -1.1059959e-20)
(0.00304523 -1.3787242e-05 -1.8907199e-21)
(0.018177515 6.875601e-05 1.4667577e-21)
(0.014415028 6.186236e-05 3.715254e-21)
(0.022221384 -0.00014767504 -4.1003302e-21)
(0.018024369 -0.00054814562 3.5858177e-20)
(0.019544705 -0.0013071815 5.2292281e-22)
(0.011872486 -0.0013536716 6.1328555e-20)
(0.0077986259 -0.0013574058 -2.5500518e-20)
(-0.0013165996 0.00037492287 4.6993531e-20)
(-0.0047475527 0.0016047783 3.4900177e-20)
(-0.0070483402 0.0030000375 -2.7825814e-20)
(-0.0054385951 0.0027546095 -8.586936e-21)
(-0.0048212374 0.0027938506 2.6400162e-21)
(-0.0034591277 0.0022138052 6.1792564e-20)
(-0.0030352798 0.0021055132 9.1953108e-21)
(-0.0024852889 0.0018314187 -2.521366e-20)
(-0.0023539852 0.0018208299 1.1123502e-20)
(-0.0020655022 0.0016565588 -6.2212423e-21)
(-0.0019968834 0.0016481723 -2.2505226e-21)
(-0.0018139974 0.0015268342 -6.0018382e-21)
(-0.0017382718 0.001482782 1.5188334e-21)
(-0.0015972688 0.0013705932 -1.9643846e-21)
(-0.0015203529 0.0013046107 1.4029223e-21)
(-0.0014166238 0.0012071901 1.4381421e-21)
(-0.0013686255 0.0011531183 2.3681039e-21)
(-0.0013195262 0.0010987434 -5.1061482e-22)
(-0.0013012676 0.0010716859 -4.740556e-22)
(-0.0012870752 0.0010491695 -5.3974861e-22)
(-0.0012978999 0.001048041 2.8027639e-22)
(-0.0013168122 0.0010540617 1.5431192e-22)
(-0.001359443 0.0010797341 1.0965471e-21)
(-0.0014132596 0.0011146134 -2.2855895e-21)
(-0.0014895487 0.00116773 -1.7841481e-21)
(-0.0015788832 0.0012313083 -3.9998614e-22)
(-0.0016875097 0.0013104358 -9.0993721e-22)
(-0.001807003 0.0013984284 -2.9988281e-23)
(-0.0019360126 0.0014945243 3.4235134e-21)
(-0.0020600565 0.0015857293 2.7772059e-21)
(-0.0021813922 0.001669685 1.1875776e-22)
(-0.0023013901 0.0017459153 1.8452904e-21)
(-0.0024175494 0.0018115819 1.55818e-22)
(-0.0025296269 0.0018654421 5.0049503e-25)
(-0.0026348529 0.0019063236 -1.7821471e-21)
(-0.0027331241 0.001932436 -5.0195489e-22)
(-0.0028193998 0.0019385997 -5.5052145e-22)
(-0.0028919894 0.0019252973 1.4974628e-21)
(-0.0029455878 0.0018873479 -9.3369869e-21)
(-0.0029846534 0.001828667 3.3554968e-21)
(-0.00300543 0.0017481359 -2.7000033e-21)
(-0.0030289266 0.0016595705 -3.0356401e-22)
(-0.0030480766 0.0015641755 -2.7747911e-21)
(-0.0030599504 0.0014619781 1.9655044e-21)
(-0.0030511124 0.0013478218 -1.0498663e-20)
(-0.0030329631 0.0012286722 -7.3201992e-22)
(-0.0029801445 0.0010961579 2.3139696e-21)
(-0.0029237993 0.00096475879 -6.0685238e-22)
(-0.0028192406 0.00082179128 5.7250261e-21)
(-0.0027296172 0.00068928756 -4.8428835e-21)
(-0.0025766852 0.00054884603 3.0324655e-21)
(-0.0024872071 0.0004305735 -5.0430372e-22)
(-0.0023210724 0.00030839474 6.1228562e-24)
(-0.00233522 0.00021588034 -1.2829954e-22)
(-0.0022776061 0.00011906001 -2.3922565e-21)
(-0.0027614538 3.8742873e-05 3.409638e-22)
(-0.0036976098 7.329617e-06 -7.1659685e-25)
(-0.0043430726 6.1716029e-06 -1.0159731e-26)
(-0.0049941729 5.5285053e-06 -2.2484233e-25)
(-0.0055257266 5.0289188e-06 7.5347853e-25)
(-0.0060500231 4.5558177e-06 -4.6401559e-25)
(-0.0064943729 4.1768494e-06 1.6457801e-25)
(-0.0069252667 3.8218188e-06 1.6461132e-25)
(-0.0073018542 3.537237e-06 1.5618867e-25)
(-0.0076641688 3.2706134e-06 -5.6586511e-25)
(-0.0079886151 3.053572e-06 2.301444e-25)
(-0.0082997919 2.8501522e-06 1.2712508e-25)
(-0.008583523 2.6832259e-06 9.9227539e-26)
(-0.0088556624 2.5271844e-06 -7.0471307e-25)
(-0.0091076079 2.3932111e-06 4.2443472e-25)
(-0.0093487822 2.2658556e-06 -1.6761044e-25)
(-0.0095741715 2.15273e-06 7.4006419e-26)
(-0.0097896159 2.0443412e-06 -8.6243907e-26)
(-0.0099921132 1.9457095e-06 7.952933e-26)
(-0.01018527 1.8504993e-06 3.1595667e-26)
(-0.010367283 1.7601668e-06 -2.1804897e-26)
(-0.010540362 1.6714234e-06 -8.0419848e-26)
(-0.010703407 1.5854922e-06 -1.4406008e-25)
(-0.010857639 1.5009921e-06 -2.1260921e-25)
(-0.011002463 1.4174416e-06 4.3887422e-25)
(-0.011138695 1.3349872e-06 1.0735378e-25)
(-0.01126618 1.2552528e-06 9.2011611e-25)
(-0.01138518 1.1761083e-06 -1.4723041e-24)
(-0.011495708 1.097982e-06 1.1228567e-24)
(-0.011597873 1.0201484e-06 -2.9337174e-25)
(-0.011691707 9.4335062e-07 -1.2300615e-24)
(-0.011777393 8.6777273e-07 -5.579996e-25)
(-0.01185498 7.9286238e-07 5.0844902e-25)
(-0.011924725 7.1926263e-07 3.2967133e-25)
(-0.011986729 6.4652553e-07 1.0406046e-24)
(-0.012041333 5.7514128e-07 8.7074979e-25)
(-0.012088539 5.0609655e-07 -2.5893367e-24)
(-0.012129142 4.4032708e-07 8.7063159e-25)
(-0.012162475 3.8682027e-07 5.735089e-25)
(-0.012192174 3.3997139e-07 1.5662917e-24)
(-0.012216285 2.8301064e-07 -3.3906747e-24)
(-0.012234434 2.1167534e-07 1.6523736e-24)
(-0.012244426 9.8727653e-08 7.6274538e-25)
(-0.012238912 -1.1062828e-08 1.4206533e-24)
(-0.012225805 -8.9055954e-08 -3.6372013e-24)
(-0.012204421 -1.6346601e-07 8.1576707e-25)
(-0.012176143 -2.3145424e-07 2.3528725e-25)
(-0.01214093 -2.9746587e-07 3.0487818e-24)
(-0.012099171 -3.5949493e-07 -2.6071364e-24)
(-0.012050929 -4.2187006e-07 1.0656823e-24)
(-0.011996425 -4.8254933e-07 -5.8649592e-27)
(-0.011935798 -5.4233987e-07 -3.4236759e-24)
(-0.011869291 -5.9862609e-07 6.4914229e-25)
(-0.011797022 -6.5382352e-07 7.6672728e-25)
(-0.011719186 -7.0794028e-07 4.8351409e-25)
(-0.011635868 -7.6059547e-07 1.3198075e-24)
(-0.0115473 -8.1334905e-07 1.2503816e-25)
(-0.011453653 -8.6240289e-07 -7.342134e-25)
(-0.011355169 -9.1104949e-07 4.2872302e-25)
(-0.011251999 -9.5685592e-07 -6.1955046e-25)
(-0.011144336 -1.0033292e-06 2.6720367e-25)
(-0.011032418 -1.0457319e-06 -4.1523644e-25)
(-0.010916459 -1.0864691e-06 9.3094092e-25)
(-0.010796689 -1.1244073e-06 -1.7346787e-24)
(-0.010673251 -1.1618075e-06 -3.8298184e-25)
(-0.010546384 -1.1963553e-06 6.856418e-25)
(-0.010416238 -1.2292135e-06 1.311201e-24)
(-0.010283063 -1.2603602e-06 -1.7367413e-25)
(-0.010146989 -1.2893881e-06 -3.835219e-25)
(-0.010008241 -1.3170478e-06 -7.2229659e-25)
(-0.0098669524 -1.3426801e-06 6.666627e-25)
(-0.0097233494 -1.3669544e-06 -1.6235045e-25)
(-0.0095776025 -1.3885577e-06 -1.3088029e-26)
(-0.0094298619 -1.4097716e-06 -8.3109106e-26)
(-0.0092802477 -1.4298887e-06 1.1118894e-26)
(-0.0091288767 -1.4486352e-06 3.9588772e-25)
(-0.0089759942 -1.4650265e-06 -7.199681e-25)
(-0.0088217458 -1.4798486e-06 -1.1932012e-25)
(-0.0086662873 -1.4935579e-06 -4.9666005e-25)
(-0.0085097162 -1.5049392e-06 1.4625034e-24)
(-0.0083522792 -1.5154824e-06 1.2383386e-24)
(-0.008194071 -1.5232868e-06 -2.2638032e-25)
(-0.0080352896 -1.530537e-06 -3.1092179e-24)
(-0.0078760248 -1.5354057e-06 -1.8528552e-24)
(-0.0077164247 -1.5406952e-06 2.7160168e-24)
(-0.0075565959 -1.5428049e-06 4.2059996e-24)
(-0.0073967139 -1.5435818e-06 -7.1154466e-24)
(-0.0072369579 -1.5420013e-06 1.7577675e-24)
(-0.0070774233 -1.5405193e-06 -1.5940756e-25)
(-0.0069182127 -1.5389814e-06 3.5221897e-24)
(-0.0067593875 -1.5353967e-06 -2.584298e-24)
(-0.0066011624 -1.5304937e-06 1.2722612e-24)
(-0.006443606 -1.524526e-06 1.7868759e-24)
(-0.0062868426 -1.5210766e-06 3.9247928e-24)
(-0.0061308115 -1.5166436e-06 -9.8377205e-24)
(-0.0059756783 -1.5103297e-06 3.9471295e-24)
(-0.0058214488 -1.5035996e-06 -1.4726357e-25)
(-0.0056682855 -1.4967547e-06 -6.0159093e-24)
(-0.0055160445 -1.489867e-06 -2.1651986e-25)
(-0.005364973 -1.4777167e-06 1.0817776e-23)
(-0.0052151865 -1.4622841e-06 3.2747202e-24)
(-0.0050670187 -1.4495043e-06 -7.7088696e-24)
(-0.00492029 -1.4439236e-06 9.6814733e-24)
(-0.0047748686 -1.4340759e-06 1.3108796e-24)
(-0.0046308545 -1.4176951e-06 -8.6120211e-24)
(-0.00448853 -1.4011674e-06 1.5279406e-23)
(-0.004347831 -1.3884812e-06 -1.1268698e-23)
(-0.0042089283 -1.375313e-06 1.4975672e-24)
(-0.0040714469 -1.3610406e-06 2.091135e-24)
(-0.0039358567 -1.341101e-06 -1.0713737e-23)
(-0.0038017001 -1.3198495e-06 1.1949472e-23)
(-0.003669775 -1.2949226e-06 2.3427506e-24)
(-0.0035394061 -1.2690455e-06 -6.0930199e-24)
(-0.003411717 -1.242947e-06 -6.1840597e-24)
(-0.0032856708 -1.2220438e-06 -1.1963312e-23)
(-0.0031624928 -1.202292e-06 2.1773081e-23)
(-0.0030406541 -1.1830842e-06 1.5163157e-23)
(-0.0029219523 -1.1556091e-06 -3.2848875e-23)
(-0.0028046394 -1.1357679e-06 3.2727875e-23)
(-0.0026909555 -1.1153494e-06 -9.7530114e-24)
(-0.0025782855 -1.1017105e-06 -1.5183789e-23)
(-0.0024696044 -1.0747371e-06 -1.2519275e-23)
(-0.0023617365 -1.0574893e-06 -4.9222389e-25)
(-0.0022586508 -1.0365876e-06 2.8340822e-23)
(-0.0021557742 -1.0242596e-06 -2.0994393e-23)
(-0.0020583642 -9.9568658e-07 1.321182e-23)
(-0.0019605615 -9.7140445e-07 -2.1091947e-23)
(-0.0018696027 -9.3844512e-07 2.3481572e-23)
(-0.0017774895 -9.1176343e-07 -1.2975806e-23)
(-0.0016938956 -8.6992085e-07 7.7456244e-24)
(-0.0016082122 -8.3613078e-07 2.6035112e-24)
(-0.0015334478 -7.9171423e-07 -1.3195672e-23)
(-0.0014552077 -7.5929247e-07 1.3728406e-23)
(-0.0013907472 -7.043275e-07 -1.9160112e-25)
(-0.0013209215 -6.5739258e-07 5.3368342e-24)
(-0.0012689994 -5.800997e-07 -2.4944561e-23)
(-0.0012096802 -5.2217575e-07 1.6864754e-23)
(-0.0011738269 -4.3239593e-07 5.3990348e-24)
(-0.0011278794 -3.7111293e-07 -2.5301546e-23)
(-0.0011122289 -2.5823572e-07 2.4929456e-23)
(-0.001083408 -1.7959905e-07 1.7271538e-23)
(-0.0010935212 -2.6164913e-08 -2.556433e-23)
(-0.0010879244 7.7253754e-08 2.014843e-23)
(-0.0011310244 2.6784102e-07 -2.8585111e-23)
(-0.0011531663 3.7741739e-07 -3.0368181e-23)
(-0.0012330911 -1.3592297e-05 4.3077287e-20)
(-0.0012923697 -6.6200963e-05 1.8756805e-20)
(-0.0013072681 -0.00012064731 9.0716212e-21)
(-0.0013303969 -0.00017718146 6.0219319e-19)
(-0.0012992113 -0.00022553635 3.0091808e-19)
(-0.0012771775 -0.00027288587 1.3851869e-18)
(-0.0012088075 -0.00030605698 1.224829e-18)
(-0.0011451709 -0.00033472487 -3.1857858e-19)
(-0.0010433069 -0.00034513402 -3.9654528e-19)
(-0.00094078723 -0.00034702795 8.7607335e-20)
(-0.00080610163 -0.00032757698 -2.8372111e-19)
(-0.00066479116 -0.00029486912 2.27684e-19)
(-0.00049430805 -0.00023750875 -2.5360839e-19)
(-0.00031121746 -0.00016130534 -1.1271969e-19)
(-9.9471255e-05 -5.6342969e-05 -8.2504824e-19)
(0.00013253878 7.4837505e-05 1.9331201e-18)
(0.00040211396 0.00024372322 7.3396668e-19)
(0.00069399232 0.00044146238 4.767211e-20)
(0.0010184818 0.00067424359 -5.0425413e-19)
(0.0013657151 0.00093486473 -5.9230655e-19)
(0.0017437886 0.0012279109 1.258452e-18)
(0.0021452358 0.0015468491 -2.2773634e-18)
(0.0025762003 0.0018944045 5.0748e-19)
(0.0030292974 0.002263241 -2.5146412e-19)
(0.0035081891 0.0026538052 4.1163327e-19)
(0.0040043495 0.0030565792 -9.3726421e-19)
(0.0045173044 0.0034680892 -2.6628951e-19)
(0.0050271537 0.0038709982 -6.0290595e-19)
(0.0055112012 0.0042545827 3.8316907e-19)
(0.0059839878 0.004635819 -8.2987771e-19)
(0.0064515725 0.0050203562 -4.5361924e-19)
(0.0069225519 0.0054159514 -8.1241163e-19)
(0.0073988581 0.0058250593 4.0498142e-20)
(0.0078905657 0.0062566515 9.7548109e-19)
(0.0083970007 0.0067116633 -3.7624879e-19)
(0.0089334162 0.0072039401 4.3891733e-19)
(0.0094982403 0.0077334253 -2.7963079e-19)
(0.010113868 0.0083207537 -1.3630096e-18)
(0.010782697 0.0089700735 2.5337631e-19)
(0.011544886 0.0097178147 1.5327318e-19)
(0.012450597 0.010601334 1.2875803e-18)
(0.013561401 0.011626602 -2.2399999e-19)
(0.014840199 0.012723975 2.2956053e-19)
(0.016407484 0.01397982 -3.8438535e-20)
(0.018158338 0.015269554 -1.358897e-19)
(0.020325756 0.016753652 -3.6445687e-19)
(0.022729123 0.01821659 5.0472181e-20)
(0.025786713 0.019923685 -6.4633237e-20)
(0.029140074 0.021469671 7.0598787e-20)
(0.03365112 0.02333468 2.2382458e-21)
(0.038420313 0.02462931 -1.8068958e-19)
(0.044458743 0.025772457 2.6758331e-19)
(0.049984115 0.0253767 1.0153968e-19)
(0.055741736 0.023691494 5.4314014e-19)
(0.056441626 0.018917043 -2.7783774e-19)
(0.053948813 0.013618599 2.7813655e-19)
(0.046682982 0.008392604 -1.2984069e-19)
(0.040370614 0.0047905097 -3.7624576e-19)
(0.030386824 0.0021094033 -9.5413944e-20)
(0.025757854 0.00083453717 8.9658291e-21)
(0.016783351 0.00013658676 3.0690552e-20)
(0.017466475 -8.1077632e-05 5.7636184e-21)
(0.010024017 -4.4551232e-05 6.844251e-21)
(0.030799988 9.9836119e-05 1.372637e-21)
(0.02502285 8.9866452e-05 -1.271944e-21)
(0.037472121 -0.00026034018 -4.3875676e-22)
(0.030753273 -0.00092644055 -1.8039565e-20)
(0.03307954 -0.0021843123 5.3105846e-20)
(0.020542248 -0.0022970564 -4.0880538e-20)
(0.013634064 -0.0023134583 2.5294162e-20)
(-0.0015665237 0.00052384961 -9.9874793e-20)
(-0.0075978839 0.0026036876 4.8206514e-20)
(-0.011652543 0.0049671601 1.1272997e-21)
(-0.0090955157 0.0046019699 1.2065055e-20)
(-0.0080829139 0.0046754814 -1.4232419e-20)
(-0.0058249101 0.0037213723 -6.141235e-20)
(-0.0051091062 0.0035394645 1.7967585e-20)
(-0.0041900991 0.0030852943 2.7053533e-20)
(-0.0039655493 0.0030653165 -2.9715578e-21)
(-0.0034834941 0.0027925807 2.5826363e-21)
(-0.0033658358 0.0027767731 4.7860049e-21)
(-0.0030601882 0.0025747487 1.2826523e-20)
(-0.0029320027 0.0024999103 -6.2268269e-21)
(-0.0026963183 0.0023126487 -5.5735801e-21)
(-0.0025668886 0.0022015707 -8.0417779e-22)
(-0.0023935645 0.0020388575 1.6735814e-21)
(-0.0023128945 0.0019480276 -2.6222831e-21)
(-0.0022310892 0.0018572825 5.5649253e-23)
(-0.0022007039 0.0018121188 -5.6783501e-22)
(-0.0021776596 0.0017749261 4.0974389e-22)
(-0.0021963853 0.0017735289 2.6489436e-22)
(-0.0022289853 0.0017843627 1.717098e-23)
(-0.0023012671 0.0018281147 5.1727109e-22)
(-0.0023925136 0.001887476 -2.5701989e-22)
(-0.0025213815 0.0019773603 -2.9735909e-22)
(-0.0026721678 0.002084877 -1.4063119e-21)
(-0.0028551532 0.0022183226 6.4717218e-23)
(-0.0030562414 0.0023665804 -3.9834109e-21)
(-0.0032731153 0.0025282013 -3.0786935e-21)
(-0.0034818962 0.0026816312 -6.3344189e-22)
(-0.0036861281 0.0028228248 1.7647826e-22)
(-0.0038878891 0.0029509244 2.5818094e-22)
(-0.004083064 0.0030611778 -6.9330316e-22)
(-0.004270969 0.0031515642 5.3445267e-24)
(-0.0044484244 0.0032199332 2.8303738e-21)
(-0.0046142128 0.0032636281 2.2294301e-21)
(-0.0047593579 0.0032737003 1.3621892e-23)
(-0.0048825331 0.0032509061 -1.2035318e-20)
(-0.0049734878 0.0031871015 4.7246389e-21)
(-0.005040099 0.0030882951 6.5159029e-21)
(-0.0050767165 0.0029531745 5.9530363e-21)
(-0.0051178079 0.0028043316 9.9920285e-22)
(-0.0051520077 0.0026439557 -2.7363435e-21)
(-0.0051741426 0.0024719747 1.0319582e-20)
(-0.0051621598 0.0022800251 2.7640509e-21)
(-0.0051346813 0.0020793972 1.2761891e-21)
(-0.0050499614 0.001856524 1.135722e-20)
(-0.0049590673 0.0016349956 -6.4647642e-21)
(-0.004789121 0.0013944724 -6.8341889e-21)
(-0.0046434058 0.0011707086 1.7618616e-21)
(-0.0043946025 0.00093427994 -1.7749181e-21)
(-0.0042502139 0.00073393401 1.0300525e-21)
(-0.0039829625 0.0005280907 3.3808208e-22)
(-0.0040139665 0.00037073675 -1.4431987e-22)
(-0.0039369674 0.00020831327 1.4741158e-22)
(-0.0047554777 7.5153768e-05 -4.9100359e-22)
(-0.0063148653 2.2024963e-05 6.8580237e-25)
(-0.0073985081 1.8341121e-05 -9.4296249e-27)
(-0.0084866512 1.653768e-05 -1.8145603e-25)
(-0.009377626 1.4908631e-05 4.9357172e-25)
(-0.010253486 1.3556556e-05 -2.098482e-25)
(-0.010997391 1.2336136e-05 -2.3120307e-25)
(-0.01171706 1.1306955e-05 5.1704512e-25)
(-0.012347029 1.0398751e-05 -2.4597577e-25)
(-0.012952093 9.6180856e-06 -2.4089086e-25)
(-0.013494536 8.9319281e-06 -2.2379062e-25)
(-0.014014151 8.3297178e-06 1.5868594e-25)
(-0.014488157 7.8013294e-06 5.9634972e-26)
(-0.014942414 7.335805e-06 1.0949366e-25)
(-0.015363141 6.913614e-06 -1.7789581e-25)
(-0.01576555 6.5292188e-06 1.9874958e-26)
(-0.016141677 6.1747928e-06 -2.1870491e-25)
(-0.016500958 5.8459468e-06 1.3559945e-25)
(-0.01683862 5.5377464e-06 -3.9638661e-26)
(-0.017160493 5.246251e-06 9.4883507e-26)
(-0.017463729 4.9666558e-06 -4.4014335e-26)
(-0.017751903 4.6966775e-06 -6.1904727e-26)
(-0.018023265 4.4331536e-06 4.5757046e-25)
(-0.018279784 4.1757826e-06 -3.3662911e-25)
(-0.018520537 3.9230255e-06 2.8945444e-25)
(-0.018746911 3.6765425e-06 -1.7867475e-25)
(-0.018958524 3.434329e-06 -1.0546597e-25)
(-0.019155847 3.195814e-06 4.4652311e-25)
(-0.019338954 2.9597171e-06 5.6606652e-25)
(-0.019508016 2.7257077e-06 -2.0489543e-24)
(-0.019663097 2.4953109e-06 1.6222271e-24)
(-0.019804499 2.2679664e-06 -4.5398582e-25)
(-0.019932323 2.0450827e-06 -1.6214223e-24)
(-0.020047001 1.8260761e-06 6.8773515e-25)
(-0.020148714 1.6135491e-06 2.4376263e-24)
(-0.020238035 1.4047048e-06 -4.3490872e-25)
(-0.020315013 1.2055045e-06 -7.0274198e-25)
(-0.020380882 1.0106652e-06 -6.2330901e-25)
(-0.020434316 8.5647838e-07 -7.151393e-25)
(-0.020481932 7.2621692e-07 1.487233e-24)
(-0.020520284 5.6427784e-07 -7.6159052e-25)
(-0.020548913 3.6404531e-07 -1.1084394e-24)
(-0.020564037 3.1506857e-08 1.765324e-24)
(-0.020552649 -2.9117063e-07 -9.2103005e-25)
(-0.020528508 -5.1686167e-07 -1.0213919e-24)
(-0.020490568 -7.2815985e-07 1.0024164e-24)
(-0.020441099 -9.2344827e-07 1.7530867e-24)
(-0.020380035 -1.1111354e-06 2.3061188e-25)
(-0.020308008 -1.2933895e-06 -1.4917239e-24)
(-0.020225141 -1.4702568e-06 -1.2579246e-24)
(-0.020131818 -1.643756e-06 4.149644e-24)
(-0.020028274 -1.8110884e-06 -6.58455e-24)
(-0.01991489 -1.973205e-06 5.6078558e-24)
(-0.019791857 -2.129234e-06 -4.8087781e-24)
(-0.019659521 -2.2827523e-06 1.8984186e-24)
(-0.019518051 -2.4314695e-06 9.0195544e-25)
(-0.019367844 -2.5767982e-06 2.3311416e-25)
(-0.019209173 -2.7146493e-06 -1.688149e-24)
(-0.019042424 -2.8480533e-06 1.0458264e-24)
(-0.01886786 -2.9754111e-06 -9.9726939e-25)