/*--------------------------------*- C++ -*----------------------------------*\
| =========                 |                                                 |
| \\      /  F ield         | OpenFOAM: The Open Source CFD Toolbox           |
|  \\    /   O peration     | Version:  2.4.0                                 |
|   \\  /    A nd           | Web:      www.OpenFOAM.org                      |
|    \\/     M anipulation  |                                                 |
\*---------------------------------------------------------------------------*/
FoamFile
{
    version     2.0;
    format      ascii;
    class       volScalarField;
    location    "40";
    object      p;
}
// * * * * * * * * * * * * * * * * * * * * * * * * * * * * * * * * * * * * * //

dimensions      [0 2 -2 0 0 0 0];

internalField   nonuniform List<scalar> 
78300
(
-0.090791404
-0.058646605
-0.069426523
-0.064274938
-0.071684666
-0.065759902
-0.062598539
-0.049045198
-0.037249053
-0.025445967
-0.020001548
-0.016099032
-0.014417377
-0.012578852
-0.011553821
-0.010217161
-0.0092189942
-0.0077966811
-0.0065562073
-0.0052455863
-0.0041696539
-0.0031693483
-0.0023951093
-0.0017375794
-0.001244975
-0.00084958286
-0.00057805528
-0.00038573768
-0.00027157959
-0.00021990446
-0.00020693782
-0.00023259171
-0.00027437523
-0.00031625451
-0.00034664314
-0.00033932037
-0.00030158695
-0.0002517436
-0.00018186006
-7.9046825e-05
-5.1479763e-08
0.00036499939
0.00065349333
0.00095955896
0.0011678765
0.0013267944
0.0015458282
0.0017377832
0.0019122068
0.0020678202
0.0021969236
0.0023096986
0.0023909567
0.0024674804
0.0025191354
0.0025814333
0.0026211807
0.00269213
0.0027406296
0.0028459853
0.0029208997
0.0030861099
0.0032068487
0.0035274439
0.0038838381
0.0043537732
0.0048460069
0.0054227174
0.0060202198
0.0066773578
0.0073489673
0.0080584534
0.0087729627
0.0095037237
0.010229534
0.01095493
0.011664126
0.012358047
0.013029985
0.013685072
0.014313873
0.014918859
0.015494096
0.016040062
0.01655329
0.017029663
0.017463645
0.017849674
0.018187137
0.018475521
0.018715993
0.018913122
0.019070732
0.01919816
0.019301479
0.019387858
0.019464494
0.019535758
0.019607391
0.019680409
0.019756422
0.019834168
0.019910516
0.019983728
0.020047981
0.020100071
0.020131627
0.020133956
0.020096251
0.020005135
0.01984843
0.019609199
0.019275319
0.018828412
0.018257398
0.017536056
0.016629487
0.015467664
0.013992506
0.012163869
0.0099606416
0.0074419401
0.0047405737
0.0020181193
-0.00060366782
-0.0030570932
-0.0053169389
-0.0073775316
-0.0092524325
-0.01095879
-0.012523961
-0.01396511
-0.015302747
-0.016548523
-0.017722007
-0.018834708
-0.019895313
-0.020909876
-0.021884208
-0.022833475
-0.023760106
-0.024668336
-0.025555772
-0.026429746
-0.027289059
-0.028134574
-0.028954227
-0.029746108
-0.03050798
-0.031236623
-0.031939389
-0.032598427
-0.033228907
-0.033822453
-0.034399174
-0.034942098
-0.035466583
-0.035965598
-0.036447173
-0.036905268
-0.037339334
-0.03774556
-0.038114128
-0.038450816
-0.038760288
-0.039038561
-0.039287926
-0.039513876
-0.039717479
-0.039892902
-0.040032788
-0.040136267
-0.040211971
-0.040266043
-0.040305897
-0.040328841
-0.040336443
-0.040331656
-0.040312006
-0.04027871
-0.040227238
-0.040157196
-0.040059864
-0.039929288
-0.0397609
-0.039552039
-0.039299302
-0.038994765
-0.038635893
-0.038216017
-0.037734702
-0.03717815
-0.036546029
-0.035817421
-0.034995897
-0.0340526
-0.032992932
-0.031767989
-0.030401911
-0.028819481
-0.027072356
-0.025035362
-0.022805353
-0.020179649
-0.017332057
-0.01391231
-0.010247688
-0.0064559358
-0.0050226035
-0.0036961604
-0.0030380702
-0.0023565612
-0.0019534261
-0.0014758914
-0.00108645
-0.0005793959
-4.3488999e-05
0.00064654139
0.0014356758
0.0024053045
0.0035152495
0.0048127366
0.0062687312
0.0079879541
0.010048772
0.012390152
0.015118095
0.018220238
0.021690596
0.025481007
0.029602176
0.033965895
0.038551129
0.043345637
0.048409297
0.053585721
0.058780931
0.063925282
0.068971848
0.07393736
0.078699389
0.083009306
0.087148554
0.090526012
0.093527906
0.095813337
0.098204302
0.10120855
0.10455901
0.10818606
0.11284315
0.11706951
0.11918118
0.11450088
0.1052914
0.090157264
0.07284956
0.049830864
0.026092084
-0.0029486588
-0.031854894
-0.068289198
-0.095868225
-0.12215728
-0.1321075
-0.14405261
-0.1379443
-0.14099653
-0.12495557
-0.12871487
-0.090794561
-0.058649851
-0.069427785
-0.064274107
-0.071677804
-0.065757129
-0.062598339
-0.049063934
-0.037274167
-0.025474866
-0.020020138
-0.016113088
-0.014425498
-0.012585076
-0.011558855
-0.010223195
-0.0092246083
-0.0078039687
-0.0065635756
-0.0052530303
-0.0041761831
-0.0031751151
-0.0023996677
-0.0017412015
-0.0012476564
-0.00085148005
-0.0005792553
-0.00038632541
-0.00027174242
-0.00021959364
-0.00020644006
-0.00023183724
-0.00027350462
-0.00031539359
-0.00034590761
-0.00033885035
-0.00030134594
-0.00025168306
-0.00018209823
-7.9712098e-05
2.10513e-06
0.00036394669
0.00065239609
0.00095836391
0.0011667303
0.0013260208
0.0015447141
0.0017368234
0.0019112465
0.002066956
0.0021961516
0.002309054
0.0023903941
0.0024670115
0.0025187038
0.002581076
0.0026208421
0.0026918658
0.0027404003
0.00284586
0.0029208757
0.0030862747
0.0032073732
0.0035280667
0.0038843863
0.0043543046
0.0048465161
0.0054232123
0.006020691
0.0066778027
0.007349384
0.0080588352
0.008773299
0.0095040195
0.010229777
0.01095513
0.011664273
0.012358161
0.013030056
0.013685116
0.014313877
0.014918848
0.015494049
0.016040014
0.016553217
0.017029585
0.017463544
0.017849563
0.018187015
0.018475389
0.018715874
0.018913
0.01907064
0.019198087
0.01930144
0.019387857
0.019464529
0.019535838
0.019607503
0.01968055
0.019756585
0.019834335
0.019910692
0.019983881
0.020048121
0.020100164
0.020131677
0.020133946
0.020096182
0.020005006
0.019848241
0.019608963
0.019275035
0.018828109
0.018257063
0.017535701
0.016629125
0.015467399
0.013992487
0.012164205
0.0099614243
0.0074431245
0.00474199
0.0020195901
-0.00060226013
-0.0030557863
-0.0053157609
-0.007376486
-0.0092515026
-0.01095798
-0.012523225
-0.013964466
-0.015302151
-0.016547997
-0.017721498
-0.018834246
-0.019894866
-0.020909465
-0.0218838
-0.022833088
-0.023759726
-0.02466795
-0.025555403
-0.026429342
-0.02728868
-0.028134135
-0.028953835
-0.029745678
-0.030507556
-0.031236198
-0.031938938
-0.03259802
-0.03322846
-0.033822068
-0.034398729
-0.034941707
-0.035466157
-0.035965201
-0.036446761
-0.036904844
-0.037338927
-0.037745119
-0.038113718
-0.038450424
-0.0387599
-0.039038181
-0.03928755
-0.039513488
-0.039717125
-0.03989253
-0.040032448
-0.040135942
-0.040211665
-0.04026576
-0.040305622
-0.040328575
-0.040336196
-0.040331398
-0.040311784
-0.040278463
-0.040227029
-0.040156956
-0.040059664
-0.03992907
-0.039760714
-0.039551846
-0.039299135
-0.038994608
-0.038635753
-0.038215899
-0.037734599
-0.037178076
-0.036545965
-0.035817394
-0.034995901
-0.034052652
-0.032993049
-0.031768191
-0.03040221
-0.028819905
-0.027072944
-0.025036131
-0.022806406
-0.020180999
-0.017333979
-0.013915061
-0.010252587
-0.0064610092
-0.0050249562
-0.0036966848
-0.0030378938
-0.0023555999
-0.0019521468
-0.0014740531
-0.001084268
-0.0005766085
-4.0168407e-05
0.0006506232
0.0014405302
0.0024110684
0.0035219696
0.0048205161
0.0062778568
0.0079992165
0.01006184
0.01240552
0.015135664
0.018240439
0.021712807
0.025505595
0.029628486
0.033994194
0.038580493
0.043376211
0.048440571
0.053617019
0.05881185
0.063955575
0.069001391
0.073966121
0.07872678
0.083035814
0.087172591
0.090549236
0.093547697
0.095832965
0.098221171
0.10122337
0.10457005
0.10819354
0.11284433
0.11706284
0.11915797
0.11446142
0.10523223
0.090084046
0.072760627
0.049726351
0.025970837
-0.0030730524
-0.031979955
-0.068379084
-0.095921837
-0.12217547
-0.13210984
-0.1440432
-0.13793595
-0.14098933
-0.12495189
-0.12871476
-0.090797951
-0.058653116
-0.069429395
-0.064272916
-0.071670285
-0.065753506
-0.0625976
-0.049083279
-0.037300409
-0.025505401
-0.02004012
-0.016128284
-0.014434188
-0.012591613
-0.011564552
-0.010229828
-0.0092304979
-0.0078117733
-0.0065715319
-0.0052610392
-0.0041832152
-0.0031813307
-0.002404593
-0.0017451203
-0.00125057
-0.0008535392
-0.00058058488
-0.00038697156
-0.00027198309
-0.00021926719
-0.00020597315
-0.00023104326
-0.00027257185
-0.00031445289
-0.0003450996
-0.00033834205
-0.00030106363
-0.0002515457
-0.00018229175
-8.041424e-05
5.761114e-06
0.00036275899
0.0006512349
0.0009570871
0.0011655374
0.0013254023
0.0015435092
0.0017357901
0.0019101515
0.0020659613
0.0021952654
0.0023083225
0.0023897614
0.0024664836
0.0025182155
0.0025806689
0.0026204533
0.00269156
0.002740134
0.0028457139
0.0029208437
0.0030864564
0.003207944
0.0035287505
0.0038849853
0.0043548819
0.0048470665
0.0054237404
0.0060211934
0.0066782721
0.0073498225
0.0080592326
0.0087736432
0.0095043187
0.010230014
0.010955321
0.0116644
0.012358255
0.013030099
0.013685134
0.014313848
0.014918809
0.015493966
0.01603994
0.016553115
0.017029487
0.01746342
0.017849432
0.018186874
0.018475235
0.01871574
0.018912858
0.019070536
0.019198001
0.019301392
0.019387854
0.019464565
0.019535926
0.019607625
0.019680706
0.019756766
0.019834519
0.019910891
0.01998405
0.020048281
0.020100268
0.020131735
0.020133936
0.020096108
0.020004865
0.019848033
0.019608707
0.019274725
0.018827784
0.018256704
0.017535331
0.016628756
0.015467154
0.013992536
0.012164657
0.0099623807
0.0074445216
0.0047436292
0.0020212745
-0.00060066187
-0.0030543067
-0.0053144315
-0.0073753085
-0.0092504536
-0.010957072
-0.012522393
-0.013963746
-0.015301478
-0.016547413
-0.017720922
-0.018833732
-0.019894365
-0.020909014
-0.021883349
-0.022832665
-0.023759312
-0.024667527
-0.025555005
-0.026428891
-0.027288268
-0.028133628
-0.028953407
-0.029745191
-0.03050708
-0.031235723
-0.031938422
-0.032597577
-0.033227953
-0.033821665
-0.034398229
-0.034941295
-0.035465691
-0.03596478
-0.036446317
-0.03690438
-0.037338487
-0.037744625
-0.03811327
-0.038450002
-0.03875948
-0.039037769
-0.03928714
-0.039513056
-0.039716742
-0.039892114
-0.040032077
-0.040135588
-0.040211334
-0.040265459
-0.040305327
-0.040328287
-0.040335933
-0.04033111
-0.040311546
-0.040278177
-0.040226796
-0.040156665
-0.040059432
-0.039928801
-0.039760489
-0.039551605
-0.03929893
-0.038994411
-0.038635578
-0.038215753
-0.037734467
-0.037177984
-0.036545878
-0.035817353
-0.034995891
-0.034052697
-0.032993165
-0.031768406
-0.030402526
-0.028820362
-0.027073577
-0.025036965
-0.022807555
-0.020182468
-0.017336092
-0.013918086
-0.010258022
-0.0064666023
-0.0050276929
-0.003697386
-0.0030378349
-0.0023546697
-0.0019508715
-0.0014721648
-0.0010820015
-0.00057368065
-3.663759e-05
0.00065498946
0.0014457518
0.0024172704
0.0035292114
0.0048289075
0.006287645
0.0080113355
0.010075781
0.012422029
0.015154418
0.01826215
0.021736576
0.025532021
0.029656621
0.03402457
0.038611932
0.043409023
0.048474168
0.053650645
0.058845058
0.06398808
0.069033121
0.073997051
0.078756055
0.083064246
0.087197863
0.090573922
0.093567873
0.095853739
0.098238865
0.10123947
0.10458273
0.10820337
0.11284854
0.11705879
0.11913352
0.1144166
0.10516421
0.09000075
0.072663537
0.049611955
0.025841174
-0.0032051625
-0.032112404
-0.06847413
-0.095977572
-0.1221936
-0.13211117
-0.14403232
-0.13792616
-0.14098135
-0.1249474
-0.12871484
-0.090801064
-0.058656047
-0.06943081
-0.064271552
-0.071662675
-0.065749693
-0.062596815
-0.04910223
-0.037325969
-0.025535173
-0.02005978
-0.01614335
-0.014442653
-0.012597852
-0.011570522
-0.010236584
-0.0092361368
-0.0078194532
-0.0065794261
-0.0052689641
-0.0041901735
-0.0031874884
-0.0024094813
-0.0017490123
-0.0012534757
-0.00085559242
-0.00058194323
-0.00038762283
-0.00027229758
-0.00021894962
-0.00020560258
-0.00023028875
-0.00027166593
-0.00031351879
-0.00034429599
-0.00033785533
-0.00030077644
-0.00025133715
-0.000182422
-8.1085498e-05
1.0915383e-05
0.00036150806
0.00065011476
0.00095582955
0.0011643948
0.0013250723
0.0015423229
0.001734783
0.0019090044
0.0020649056
0.0021943275
0.0023075585
0.0023891109
0.0024659419
0.0025177141
0.0025802461
0.0026200467
0.0026912342
0.0027398502
0.0028455511
0.0029208013
0.0030866243
0.0032084886
0.003529415
0.0038855745
0.0043554472
0.00484761
0.0054242591
0.0060216896
0.0066787312
0.0073502553
0.0080596232
0.0087739798
0.0095046121
0.010230243
0.010955507
0.011664517
0.012358343
0.013030131
0.013685146
0.014313809
0.014918769
0.015493874
0.01603987
0.016553015
0.017029402
0.017463306
0.017849314
0.018186746
0.01847509
0.01871562
0.018912718
0.019070442
0.019197919
0.019301346
0.019387852
0.019464598
0.019536014
0.019607745
0.01968086
0.019756947
0.0198347
0.019911092
0.019984216
0.020048445
0.020100372
0.020131798
0.020133931
0.020096041
0.020004734
0.019847836
0.019608468
0.01927443
0.018827485
0.018256371
0.017535001
0.016628441
0.015466978
0.013992669
0.012165192
0.0099634129
0.0074459681
0.0047452854
0.0020229524
-0.00059908894
-0.0030528558
-0.0053131323
-0.007374161
-0.0092494276
-0.010956194
-0.012521574
-0.013963049
-0.015300817
-0.016546851
-0.017720353
-0.018833235
-0.019893875
-0.020908584
-0.021882913
-0.022832263
-0.023758921
-0.024667119
-0.025554632
-0.026428444
-0.027287876
-0.028133104
-0.028952993
-0.029744695
-0.030506601
-0.031235248
-0.031937889
-0.032597149
-0.033227436
-0.033821295
-0.034397723
-0.034940914
-0.035465235
-0.035964387
-0.036445889
-0.036903926
-0.037338066
-0.037744124
-0.038112832
-0.038449598
-0.038759076
-0.039037372
-0.039286741
-0.039512623
-0.039716373
-0.039891692
-0.040031714
-0.040135243
-0.040211016
-0.040265179
-0.040305049
-0.040328013
-0.040335687
-0.040330824
-0.040311324
-0.04027788
-0.040226567
-0.04015635
-0.040059193
-0.039928507
-0.039760251
-0.03955134
-0.03929871
-0.038994199
-0.038635393
-0.038215605
-0.037734335
-0.037177903
-0.036545796
-0.035817329
-0.034995897
-0.034052767
-0.032993308
-0.031768661
-0.030402876
-0.028820866
-0.027074254
-0.025037853
-0.022808763
-0.020184004
-0.017338284
-0.0139212
-0.010263503
-0.0064721811
-0.0050305696
-0.0036982713
-0.0030379585
-0.002353934
-0.0019497869
-0.0014704717
-0.0010799161
-0.00057093041
-3.325738e-05
0.00065921341
0.0014508681
0.0024233678
0.0035363591
0.0048371869
0.0062972435
0.0080233034
0.010089414
0.012438334
0.015172803
0.018283641
0.02175997
0.025558182
0.029684284
0.034054614
0.038642943
0.043441476
0.048507458
0.053684019
0.058878044
0.064020337
0.069064663
0.074027869
0.078785
0.083092509
0.087222315
0.090598126
0.093586494
0.095874004
0.098256028
0.10125582
0.10459652
0.1082157
0.11285665
0.11705897
0.11911035
0.11436961
0.10509148
0.089912655
0.0725658
0.049496893
0.025714475
-0.0033329279
-0.032239916
-0.06856488
-0.096029453
-0.12220913
-0.13211099
-0.1440205
-0.13791597
-0.14097313
-0.12494287
-0.12871487
-0.090804021
-0.058658787
-0.069431896
-0.064269868
-0.071654495
-0.065745521
-0.062595948
-0.049121668
-0.037351952
-0.025565376
-0.020079807
-0.016158789
-0.014451226
-0.012604094
-0.011576871
-0.010243658
-0.009241804
-0.0078273231
-0.00658756
-0.0052771129
-0.0041973281
-0.0031938229
-0.002414516
-0.0017530225
-0.0012564759
-0.0008577074
-0.00058336503
-0.00038828902
-0.00027267035
-0.00021862208
-0.00020528439
-0.00022953445
-0.00027074963
-0.00031256183
-0.00034347273
-0.00033737327
-0.00030048881
-0.00025108669
-0.00018252723
-8.1726257e-05
1.6966008e-05
0.00036017173
0.0006489897
0.00095452986
0.0011632153
0.0013249177
0.0015410998
0.0017337551
0.0019077824
0.0020637739
0.0021933257
0.0023067488
0.0023884281
0.002465373
0.002517187
0.0025797972
0.0026196134
0.0026908809
0.0027395422
0.0028453654
0.0029207451
0.0030867783
0.0032090199
0.0035300754
0.003886169
0.0043560157
0.0048481622
0.0054247855
0.0060221952
0.0066791964
0.0073506981
0.0080600228
0.0087743245
0.009504915
0.010230478
0.010955701
0.011664638
0.012358439
0.013030164
0.013685164
0.014313771
0.014918737
0.015493784
0.016039811
0.016552924
0.017029333
0.017463205
0.017849213
0.018186632
0.018474955
0.018715512
0.018912582
0.019070355
0.019197839
0.019301301
0.019387853
0.019464631
0.019536105
0.019607865
0.019681015
0.019757132
0.019834882
0.0199113
0.019984384
0.020048619
0.020100482
0.02013187
0.020133933
0.020095982
0.020004611
0.019847646
0.019608242
0.019274145
0.018827206
0.018256056
0.017534702
0.016628171
0.015466865
0.013992886
0.012165823
0.0099645421
0.007447493
0.0047469903
0.0020246544
-0.00059751168
-0.0030514065
-0.0053118384
-0.0073730211
-0.0092484048
-0.010955325
-0.012520754
-0.013962359
-0.015300153
-0.016546298
-0.017719779
-0.01883274
-0.019893384
-0.020908161
-0.021882479
-0.02283187
-0.023758539
-0.024666715
-0.02555427
-0.026427989
-0.027287489
-0.028132554
-0.028952578
-0.029744181
-0.030506105
-0.031234759
-0.031937326
-0.032596719
-0.033226896
-0.03382094
-0.034397197
-0.034940546
-0.035464773
-0.035964006
-0.036445464
-0.036903467
-0.037337649
-0.037743605
-0.03811239
-0.038449198
-0.038758673
-0.039036976
-0.03928634
-0.039512181
-0.039716005
-0.039891258
-0.040031347
-0.040134897
-0.0402107
-0.040264908
-0.040304778
-0.040327744
-0.040335451
-0.040330534
-0.040311111
-0.040277571
-0.04022634
-0.040156012
-0.040058947
-0.039928187
-0.039759999
-0.039551052
-0.039298478
-0.038993974
-0.0386352
-0.038215458
-0.037734206
-0.037177836
-0.036545725
-0.035817328
-0.034995929
-0.034052872
-0.032993491
-0.03176897
-0.030403282
-0.028821443
-0.027075009
-0.025038839
-0.022810083
-0.020185675
-0.017340645
-0.013924534
-0.01026926
-0.0064780482
-0.0050337688
-0.0036994715
-0.0030383592
-0.00235346
-0.0019489427
-0.0014690019
-0.0010780254
-0.00056834878
-3.0000796e-05
0.00066335049
0.0014559592
0.0024294802
0.0035435808
0.0048455781
0.0063069565
0.0080355032
0.010103255
0.012455022
0.01519153
0.018305694
0.021783901
0.025585075
0.029712608
0.0340855
0.038674784
0.043474878
0.048541773
0.053718429
0.058912065
0.064053578
0.06909719
0.074059697
0.078814759
0.083121708
0.087247119
0.090622971
0.093604782
0.095894737
0.098273523
0.10127293
0.10461152
0.10823009
0.11286777
0.11706217
0.11908724
0.11431979
0.10501328
0.089818384
0.072464584
0.049377904
0.025586131
-0.0034611273
-0.032366971
-0.068653544
-0.09607832
-0.12222138
-0.1321084
-0.14400671
-0.1379048
-0.14096422
-0.12493822
-0.12871473
-0.090806815
-0.05866133
-0.069432582
-0.064267636
-0.071645462
-0.065740699
-0.062594779
-0.04914154
-0.037378425
-0.025596073
-0.020100228
-0.016174615
-0.01445995
-0.012610396
-0.011583567
-0.010251046
-0.0092475636
-0.0078354221
-0.0065959619
-0.0052855216
-0.0042047103
-0.0032003598
-0.0024197158
-0.0017571635
-0.0012595773
-0.00085988885
-0.00058484575
-0.00038896936
-0.0002730865
-0.00021827879
-0.00020499759
-0.00022876888
-0.00026981473
-0.00031157824
-0.00034262663
-0.00033689004
-0.00030020302
-0.00025081095
-0.00018262868
-8.2326431e-05
2.3468373e-05
0.00035875625
0.00064784846
0.00095316718
0.0011619686
0.0013248763
0.001539832
0.0017326976
0.0019064932
0.0020625754
0.0021922669
0.0023058956
0.0023877121
0.0024647753
0.0025166323
0.0025793205
0.0026191522
0.0026904995
0.0027392088
0.0028451546
0.0029206723
0.0030869159
0.0032095379
0.0035307314
0.0038867676
0.004356586
0.004848721
0.0054253167
0.0060227077
0.0066796662
0.0073511486
0.0080604296
0.0087746757
0.0095052262
0.010230718
0.010955903
0.011664763
0.012358541
0.013030199
0.013685187
0.014313735
0.014918713
0.015493696
0.016039764
0.016552842
0.017029283
0.017463118
0.017849129
0.018186532
0.018474831
0.018715415
0.018912449
0.019070275
0.019197761
0.019301258
0.019387855
0.019464664
0.0195362
0.019607988
0.019681174
0.019757321
0.019835068
0.019911517
0.019984557
0.020048802
0.020100597
0.02013195
0.020133942
0.02009593
0.020004499
0.019847464
0.019608029
0.019273872
0.018826945
0.018255758
0.017534435
0.016627946
0.015466818
0.013993191
0.012166559
0.0099657789
0.0074491075
0.0047487528
0.0020263867
-0.00059592403
-0.0030499543
-0.0053105452
-0.0073718846
-0.0092473817
-0.010954461
-0.01251993
-0.01396167
-0.015299484
-0.016545748
-0.017719198
-0.018832244
-0.019892888
-0.020907738
-0.021882045
-0.022831478
-0.023758161
-0.02466631
-0.025553913
-0.026427526
-0.027287103
-0.028131979
-0.028952159
-0.029743648
-0.03050559
-0.031234256
-0.031936733
-0.032596283
-0.033226332
-0.033820593
-0.034396651
-0.034940185
-0.035464304
-0.035963633
-0.036445038
-0.036903005
-0.037337233
-0.03774307
-0.038111945
-0.0384488
-0.038758269
-0.03903658
-0.039285936
-0.03951173
-0.039715638
-0.039890814
-0.040030975
-0.04013455
-0.040210384
-0.040264644
-0.040304512
-0.040327478
-0.040335223
-0.040330242
-0.040310906
-0.040277254
-0.040226113
-0.040155656
-0.040058693
-0.039927847
-0.039759735
-0.039550746
-0.039298235
-0.03899374
-0.038635002
-0.038215312
-0.037734082
-0.037177782
-0.036545667
-0.035817349
-0.034995988
-0.034053011
-0.032993716
-0.031769333
-0.030403744
-0.028822094
-0.027075846
-0.025039927
-0.022811523
-0.020187494
-0.017343194
-0.013928126
-0.010275395
-0.0064843928
-0.0050374532
-0.0037011326
-0.0030391725
-0.0023533731
-0.0019484567
-0.0014678671
-0.0010764371
-0.00056603899
-2.697056e-05
0.00066730139
0.0014609259
0.0024355159
0.0035507885
0.0048540048
0.0063167377
0.0080478892
0.010117293
0.012472097
0.015210658
0.018328351
0.021808453
0.025612766
0.0297417
0.034117331
0.03870758
0.04350936
0.0485772
0.053753985
0.058947204
0.064087892
0.069130796
0.0740926
0.078845442
0.083151914
0.087272472
0.09064859
0.093623069
0.095916114
0.098291486
0.10129079
0.10462753
0.10824605
0.11288099
0.11706738
0.11906383
0.11426742
0.1049304
0.089718785
0.072360037
0.049255277
0.025455891
-0.0035898726
-0.032493152
-0.068738943
-0.096122711
-0.12222878
-0.13210208
-0.14399006
-0.13789209
-0.14095439
-0.12493329
-0.12871438
-0.090809474
-0.058663652
-0.069432781
-0.064264622
-0.071635298
-0.065734937
-0.062593091
-0.049161751
-0.037405393
-0.025627249
-0.020121006
-0.016190798
-0.014468828
-0.012616783
-0.011590562
-0.010258729
-0.0092534627
-0.0078437648
-0.0066046364
-0.0052942007
-0.0042123302
-0.0032071046
-0.0024250838
-0.0017614355
-0.0012627778
-0.00086213621
-0.00058637856
-0.00038966205
-0.00027353206
-0.00021791698
-0.00020472509
-0.00022798453
-0.00026885585
-0.00031056601
-0.00034175579
-0.00033640086
-0.00029991911
-0.00025052036
-0.00018273955
-8.288068e-05
3.0095002e-05
0.00035726206
0.0006466664
0.00095173344
0.0011606417
0.0013248966
0.0015385172
0.0017316054
0.0019051443
0.0020613178
0.0021911561
0.0023049998
0.0023869616
0.0024641471
0.0025160486
0.0025788151
0.0026186623
0.0026900892
0.0027388486
0.0028449166
0.0029205795
0.0030870334
0.0032100389
0.0035313797
0.0038873666
0.004357155
0.0048492828
0.0054258494
0.0060232237
0.006680138
0.0073516034
0.0080608411
0.0087750312
0.0095055441
0.010230963
0.010956112
0.011664893
0.012358651
0.013030238
0.013685216
0.014313703
0.014918698
0.015493615
0.01603973
0.016552773
0.017029251
0.017463047
0.017849063
0.018186448
0.018474719
0.018715328
0.018912321
0.0190702
0.019197686
0.019301215
0.01938786
0.019464697
0.019536297
0.019608111
0.019681336
0.019757515
0.019835259
0.019911741
0.019984734
0.020048995
0.020100719
0.020132039
0.020133961
0.020095889
0.020004397
0.019847293
0.019607832
0.019273612
0.018826706
0.018255482
0.017534202
0.016627769
0.015466842
0.013993591
0.012167406
0.0099671303
0.0074508157
0.0047505729
0.0020281456
-0.00059432945
-0.0030485031
-0.0053092561
-0.0073707545
-0.0092463615
-0.010953605
-0.012519104
-0.013960983
-0.015298811
-0.016545198
-0.01771861
-0.018831743
-0.019892388
-0.020907314
-0.02188161
-0.022831087
-0.023757784
-0.024665903
-0.025553557
-0.026427056
-0.027286713
-0.028131386
-0.028951731
-0.029743098
-0.030505056
-0.031233739
-0.031936114
-0.032595839
-0.033225748
-0.033820249
-0.034396088
-0.034939828
-0.035463828
-0.035963266
-0.03644461
-0.03690254
-0.037336818
-0.037742524
-0.038111496
-0.038448403
-0.038757863
-0.039036182
-0.039285527
-0.039511276
-0.039715269
-0.039890362
-0.040030599
-0.040134201
-0.040210068
-0.040264386
-0.040304251
-0.040327217
-0.040335002
-0.04032995
-0.040310708
-0.040276931
-0.040225888
-0.040155287
-0.040058435
-0.039927494
-0.039759463
-0.039550427
-0.039297985
-0.038993499
-0.038634801
-0.038215169
-0.037733963
-0.037177741
-0.036545624
-0.035817393
-0.034996075
-0.034053186
-0.032993984
-0.031769751
-0.030404266
-0.028822821
-0.02707677
-0.025041123
-0.022813092
-0.020189473
-0.017345951
-0.01393201
-0.010282006
-0.0064914009
-0.0050417918
-0.003703416
-0.003040552
-0.0023538186
-0.0019484686
-0.0014671998
-0.0010752799
-0.00056412647
-2.4290134e-05
0.00067094504
0.0014656482
0.0024413576
0.003557869
0.0048623586
0.0063265019
0.0080603838
0.010131494
0.012489518
0.01523018
0.018351585
0.02183363
0.025641244
0.029771588
0.034150102
0.038741359
0.043544934
0.04861377
0.053790679
0.058983465
0.064123297
0.069165489
0.074126568
0.078877086
0.083183107
0.087298477
0.090675023
0.093641589
0.095938187
0.098309995
0.10130937
0.10464439
0.10826317
0.11289568
0.11707386
0.11903992
0.11421284
0.10484351
0.089614713
0.072252456
0.049129536
0.025324005
-0.0037189287
-0.032617579
-0.068819477
-0.096160853
-0.12222959
-0.13209063
-0.14396966
-0.13787724
-0.14094337
-0.12492794
-0.12871379
-0.09081197
-0.058665739
-0.06943239
-0.064260566
-0.071623689
-0.065727907
-0.062590627
-0.049182198
-0.037432882
-0.025658916
-0.020142119
-0.01620732
-0.014477869
-0.012623284
-0.011597816
-0.010266696
-0.0092595475
-0.0078523693
-0.0066135945
-0.0053031652
-0.0042202003
-0.0032140668
-0.0024306256
-0.0017658415
-0.0012660768
-0.00086444993
-0.0005879583
-0.00039036613
-0.00027399461
-0.00021753515
-0.00020445144
-0.00022717464
-0.00026786769
-0.00030952254
-0.0003408578
-0.00033590123
-0.00029963644
-0.00025022245
-0.00018286791
-8.3389026e-05
3.6609238e-05
0.00035568832
0.00064542188
0.00095021557
0.0011592297
0.0013249314
0.0015371518
0.0017304712
0.0019037385
0.0020600037
0.0021899939
0.0023040593
0.002386173
0.0024634847
0.0025154327
0.0025782783
0.0026181418
0.0026896483
0.0027384595
0.0028446483
0.0029204629
0.0030871265
0.0032105196
0.0035320171
0.0038879627
0.0043577199
0.0048498441
0.0054263808
0.0060237399
0.0066806097
0.0073520599
0.0080612553
0.0087753892
0.0095058673
0.01023121
0.010956328
0.011665028
0.01235877
0.013030281
0.013685252
0.014313678
0.014918694
0.015493542
0.016039712
0.01655272
0.017029239
0.017462994
0.017849017
0.01818638
0.018474621
0.018715253
0.018912199
0.019070131
0.019197614
0.019301174
0.019387866
0.01946473
0.019536398
0.019608237
0.019681503
0.019757715
0.019835454
0.019911973
0.019984918
0.020049196
0.02010085
0.020132137
0.020133989
0.020095858
0.020004309
0.019847134
0.019607652
0.019273368
0.01882649
0.018255228
0.017534005
0.016627645
0.015466943
0.013994092
0.012168374
0.0099686034
0.0074526219
0.0047524495
0.0020299266
-0.00059273185
-0.0030470575
-0.0053079749
-0.0073696342
-0.0092453472
-0.010952755
-0.012518278
-0.013960299
-0.015298135
-0.016544649
-0.017718016
-0.018831238
-0.019891883
-0.020906886
-0.021881172
-0.022830692
-0.023757406
-0.024665491
-0.025553198
-0.026426578
-0.027286316
-0.028130776
-0.028951292
-0.029742533
-0.030504503
-0.03123321
-0.03193547
-0.032595385
-0.033225144
-0.033819906
-0.034395508
-0.03493947
-0.035463345
-0.035962901
-0.036444179
-0.036902073
-0.037336402
-0.037741967
-0.038111043
-0.038448006
-0.038757454
-0.039035782
-0.039285115
-0.039510819
-0.039714899
-0.039889906
-0.040030218
-0.040133853
-0.04020975
-0.040264133
-0.040303993
-0.040326959
-0.040334787
-0.040329658
-0.040310515
-0.040276605
-0.040225664
-0.040154912
-0.040058174
-0.039927131
-0.039759184
-0.0395501
-0.039297731
-0.038993255
-0.0386346
-0.03821503
-0.037733853
-0.037177715
-0.036545598
-0.03581746
-0.034996193
-0.034053399
-0.032994297
-0.031770225
-0.030404853
-0.028823628
-0.027077787
-0.025042434
-0.022814799
-0.020191627
-0.017348938
-0.013936234
-0.010289207
-0.0064992879
-0.0050469768
-0.0037065064
-0.0030426719
-0.002354962
-0.001949136
-0.0014671501
-0.0010746994
-0.00056274963
-2.209512e-05
0.00067415171
0.0014699974
0.0024468844
0.0035647058
0.0048705323
0.006336165
0.0080729073
0.010145825
0.012507242
0.015250092
0.01837538
0.021859445
0.025670505
0.02980232
0.034183835
0.038776159
0.043581637
0.048651497
0.053828547
0.059020885
0.064159831
0.069201293
0.074161626
0.078909725
0.08321531
0.087325252
0.0907023
0.093660552
0.095961001
0.098329108
0.10132864
0.10466198
0.10828116
0.11291135
0.11708107
0.11901537
0.11415626
0.10475313
0.089506866
0.072142003
0.049001063
0.025190575
-0.0038478859
-0.032739435
-0.068893567
-0.096190955
-0.12222195
-0.13207251
-0.14394451
-0.13785957
-0.14093086
-0.12492199
-0.1287129
-0.09081432
-0.058667584
-0.069431296
-0.064255184
-0.071610272
-0.065719232
-0.062587083
-0.049202754
-0.037460925
-0.0256911
-0.020163545
-0.016224166
-0.014487076
-0.01262992
-0.011605294
-0.010274938
-0.0092658588
-0.0078612553
-0.0066228488
-0.0053124311
-0.0042283343
-0.0032212563
-0.0024363477
-0.0017703849
-0.0012694748
-0.00086683069
-0.00058957603
-0.00039108128
-0.00027446328
-0.00021713251
-0.00020416297
-0.00022633338
-0.00026684544
-0.00030844526
-0.00033993054
-0.00033538756
-0.00029935466
-0.0002499237
-0.00018301906
-8.3856161e-05
4.284071e-05
0.00035403358
0.00064409746
0.00094860445
0.0011577314
0.0013249385
0.0015357301
0.0017292856
0.0019022741
0.0020586317
0.0021887776
0.0023030696
0.0023853407
0.002462783
0.0025147802
0.0025777066
0.0026175876
0.0026891738
0.0027380383
0.0028443463
0.0029203184
0.0030871909
0.0032109761
0.0035326406
0.003888553
0.0043582779
0.0048504019
0.0054269083
0.0060242534
0.0066810793
0.0073525155
0.00806167
0.0087757479
0.0095061941
0.01023146
0.01095655
0.011665169
0.012358896
0.013030329
0.013685297
0.014313661
0.014918701
0.015493481
0.016039709
0.016552682
0.017029248
0.017462958
0.017848993
0.018186329
0.018474539
0.01871519
0.018912086
0.019070067
0.019197546
0.019301134
0.019387875
0.019464764
0.019536501
0.019608365
0.019681673
0.019757919
0.019835657
0.019912213
0.019985109
0.020049407
0.02010099
0.020132245
0.020134029
0.020095839
0.020004237
0.01984699
0.01960749
0.019273144
0.018826299
0.018255002
0.017533849
0.01662758
0.015467128
0.013994701
0.012169473
0.009970206
0.0074545306
0.0047543812
0.0020317247