/*--------------------------------*- C++ -*----------------------------------*\
| =========                 |                                                 |
| \\      /  F ield         | OpenFOAM: The Open Source CFD Toolbox           |
|  \\    /   O peration     | Version:  2.4.0                                 |
|   \\  /    A nd           | Web:      www.OpenFOAM.org                      |
|    \\/     M anipulation  |                                                 |
\*---------------------------------------------------------------------------*/
FoamFile
{
    version     2.0;
    format      ascii;
    class       volScalarField;
    location    "900";
    object      kPrime2Mean;
}
// * * * * * * * * * * * * * * * * * * * * * * * * * * * * * * * * * * * * * //

dimensions      [0 4 -4 0 0 0 0];

internalField   nonuniform List<scalar> 
78300
(
1.2696789e-14
1.3032524e-14
1.7108106e-14
1.3947199e-14
9.6574053e-15
3.027788e-15
3.5829532e-16
9.343671e-18
5.8881965e-17
1.6570818e-16
3.0148204e-16
4.2994592e-16
6.1325815e-16
3.7002372e-16
1.7153657e-16
2.7439153e-16
1.4365634e-16
7.7557948e-17
3.8876189e-17
3.1856921e-17
1.8054762e-17
1.5405893e-17
1.1421519e-17
1.00871e-17
8.7406096e-18
7.2127762e-18
6.5720559e-18
6.2258257e-18
6.0318147e-18
6.0940037e-18
6.2218763e-18
6.4836834e-18
6.9410774e-18
7.5109815e-18
8.2637167e-18
9.0560701e-18
9.8153723e-18
1.037779e-17
1.0495545e-17
9.6975521e-18
1.0147841e-17
1.0730409e-17
1.0874925e-17
1.1205967e-17
1.1230622e-17
1.1142249e-17
1.0874715e-17
1.049314e-17
1.0163919e-17
9.894204e-18
9.5658919e-18
9.3458409e-18
9.2473254e-18
8.9570368e-18
8.8027645e-18
8.3701759e-18
7.9401742e-18
7.4989137e-18
7.0774427e-18
6.5595033e-18
6.4961239e-18
6.3163864e-18
9.0378255e-18
1.8906331e-17
2.9804893e-17
4.1759425e-17
5.5831095e-17
7.0781078e-17
8.6476453e-17
1.0233157e-16
1.1815649e-16
1.3503949e-16
1.5291618e-16
1.7131864e-16
1.9022109e-16
2.0941759e-16
2.2910933e-16
2.4893665e-16
2.6879923e-16
2.8854707e-16
3.0811569e-16
3.2745827e-16
3.4633192e-16
3.648103e-16
3.8270891e-16
3.9999343e-16
4.1662403e-16
4.3246304e-16
4.4758445e-16
4.6194463e-16
4.7546628e-16
4.8825854e-16
5.0019193e-16
5.1134138e-16
5.2160784e-16
5.3103498e-16
5.3959841e-16
5.4723817e-16
5.5392551e-16
5.5968132e-16
5.6443536e-16
5.6815772e-16
5.7085355e-16
5.7252893e-16
5.7323947e-16
5.7295131e-16
5.7166814e-16
5.6939201e-16
5.6623676e-16
5.6211942e-16
5.5722769e-16
5.5159557e-16
5.4514145e-16
5.3793314e-16
5.3006106e-16
5.2165119e-16
5.1270329e-16
5.031819e-16
4.9307469e-16
4.8270459e-16
4.7201415e-16
4.6100553e-16
4.4973634e-16
4.3820131e-16
4.2660406e-16
4.1486172e-16
4.0311266e-16
3.9124396e-16
3.7944344e-16
3.6764305e-16
3.5596823e-16
3.4440993e-16
3.3290951e-16
3.2154898e-16
3.1037974e-16
2.9941414e-16
2.885506e-16
2.7791687e-16
2.6747717e-16
2.5727775e-16
2.472534e-16
2.3749114e-16
2.2792766e-16
2.1862831e-16
2.0964305e-16
2.0088687e-16
1.9226621e-16
1.8399547e-16
1.7590241e-16
1.6801757e-16
1.604034e-16
1.5304427e-16
1.4585694e-16
1.3891426e-16
1.3213581e-16
1.2566268e-16
1.1928468e-16
1.1318956e-16
1.0721034e-16
1.0162185e-16
9.6277321e-17
9.1637351e-17
8.6145598e-17
8.1534056e-17
7.7055302e-17
7.2664799e-17
6.8470697e-17
6.441638e-17
6.0543851e-17
5.6831441e-17
5.3332507e-17
4.9958389e-17
4.6733438e-17
4.367817e-17
4.0792622e-17
3.8016824e-17
3.5400322e-17
3.2941339e-17
3.0578701e-17
2.8345389e-17
2.6256997e-17
2.4298327e-17
2.2446835e-17
2.0712128e-17
1.9071771e-17
1.756225e-17
1.6146396e-17
1.4818052e-17
1.3586851e-17
1.2441484e-17
1.1357795e-17
1.0357411e-17
9.4426351e-18
8.5955051e-18
7.816383e-18
7.1080102e-18
6.4688758e-18
5.8733263e-18
5.3485823e-18
4.8898557e-18
4.4635302e-18
4.103994e-18
3.7632851e-18
3.4936709e-18
3.2467875e-18
3.0186735e-18
2.7201132e-18
2.2922956e-18
1.9252365e-18
1.9031049e-18
1.9000234e-18
2.0506957e-18
2.1090685e-18
2.5051587e-18
3.5021009e-18
6.2595278e-18
7.6546012e-17
1.6403817e-16
2.1114585e-15
1.3906384e-14
5.5411973e-14
9.1462498e-14
4.9503602e-13
1.5033085e-12
4.7224537e-12
6.9591094e-12
1.4032123e-11
1.745424e-11
7.3595959e-11
9.3570531e-11
1.507253e-10
7.0788966e-11
3.0912105e-10
1.7219768e-10
4.2600146e-10
6.0910225e-10
4.6902854e-10
4.3939481e-10
1.299174e-09
8.5036175e-10
1.2156513e-09
1.0047962e-08
1.1002987e-08
2.2579341e-08
2.0119872e-08
1.4681483e-07
5.2697529e-07
5.4415279e-07
5.7996153e-07
2.0404793e-06
4.6554923e-06
7.2664134e-06
1.3105878e-05
1.1402553e-05
1.4922432e-05
1.9053973e-06
3.6581257e-06
1.0629983e-06
1.06049e-07
6.1235575e-07
8.5873197e-09
2.6503153e-10
3.5767887e-11
2.5005682e-12
5.2019859e-13
1.7732696e-13
6.5903732e-14
2.9189196e-14
1.7036087e-14
1.1854739e-14
1.7531864e-15
1.8688672e-15
1.7643312e-15
1.3544624e-15
8.3084402e-16
3.2209427e-16
7.7874487e-17
9.0981781e-18
2.6504059e-18
4.6160311e-18
7.3260991e-18
1.0272651e-17
1.4348683e-17
8.7222828e-18
4.0457114e-18
6.4198318e-18
3.3430885e-18
1.7932634e-18
8.8984741e-19
7.2486512e-19
4.0573984e-19
3.4715609e-19
2.5623333e-19
2.2692739e-19
1.9687723e-19
1.6138973e-19
1.4707138e-19
1.3925152e-19
1.3498047e-19
1.3646149e-19
1.3953278e-19
1.456789e-19
1.5628811e-19
1.696599e-19
1.8740047e-19
2.0644233e-19
2.2505116e-19
2.3947097e-19
2.4336999e-19
2.2491148e-19
2.3324111e-19
2.4597302e-19
2.5030368e-19
2.5777712e-19
2.5802063e-19
2.5503199e-19
2.4750772e-19
2.370924e-19
2.2735013e-19
2.1835412e-19
2.0767563e-19
1.9898098e-19
1.9244054e-19
1.8216405e-19
1.7501541e-19
1.6400239e-19
1.5435118e-19
1.4598428e-19
1.4169057e-19
1.3731473e-19
1.45561e-19
1.5106808e-19
2.2674527e-19
4.7559009e-19
7.6286132e-19
1.0920467e-18
1.4794296e-18
1.9053712e-18
2.3693304e-18
2.8581201e-18
3.3675134e-18
3.9198637e-18
4.5221834e-18
5.1658613e-18
5.8487722e-18
6.5665079e-18
7.3235382e-18
8.1108757e-18
8.9272863e-18
9.7649657e-18
1.0621246e-17
1.1493852e-17
1.237491e-17
1.3263727e-17
1.4155749e-17
1.5047538e-17
1.5936672e-17
1.6817057e-17
1.7688785e-17
1.8549617e-17
1.939532e-17
2.0227212e-17
2.1040151e-17
2.1834598e-17
2.2605058e-17
2.3349762e-17
2.4067993e-17
2.4755306e-17
2.540863e-17
2.6026341e-17
2.6604536e-17
2.7140284e-17
2.7632317e-17
2.8078729e-17
2.8480311e-17
2.8833362e-17
2.9137119e-17
2.9388834e-17
2.9592097e-17
2.9741954e-17
2.9844169e-17
2.9900888e-17
2.990749e-17
2.9864441e-17
2.9774942e-17
2.9644211e-17
2.9473124e-17
2.92605e-17
2.9003188e-17
2.8714609e-17
2.8394943e-17
2.8044163e-17
2.7664931e-17
2.7256618e-17
2.6827386e-17
2.6375801e-17
2.590853e-17
2.5421651e-17
2.4921604e-17
2.4407679e-17
2.3885547e-17
2.3357194e-17
2.2819456e-17
2.2275417e-17
2.1729422e-17
2.1183894e-17
2.0633874e-17
2.0084087e-17
1.9535342e-17
1.8989732e-17
1.8445376e-17
1.7905077e-17
1.7367765e-17
1.6835887e-17
1.6315244e-17
1.5804409e-17
1.5295311e-17
1.480009e-17
1.4312032e-17
1.3829356e-17
1.3357794e-17
1.2898929e-17
1.2446188e-17
1.200139e-17
1.1560602e-17
1.1130677e-17
1.0698427e-17
1.0266711e-17
9.8267581e-18
9.3917775e-18
8.9712388e-18
8.6482733e-18
8.3220935e-18
8.0150603e-18
7.7042356e-18
7.3799064e-18
7.0568737e-18
6.7398088e-18
6.4302607e-18
6.1287882e-18
5.8406395e-18
5.5624168e-18
5.2923048e-18
5.0308202e-18
4.7826045e-18
4.5411456e-18
4.3073775e-18
4.0856232e-18
3.8700653e-18
3.6598313e-18
3.4581894e-18
3.2660314e-18
3.0815725e-18
2.9049575e-18
2.7326243e-18
2.5687018e-18
2.414785e-18
2.267137e-18
2.1265543e-18
1.9950615e-18
1.8673623e-18
1.7433584e-18
1.6260056e-18
1.5139655e-18
1.4071253e-18
1.3050337e-18
1.2116801e-18
1.1194564e-18
1.0313816e-18
9.5297819e-19
8.8135964e-19
8.1676749e-19
7.5998112e-19
7.1262582e-19
6.8498961e-19
6.6825394e-19
6.636594e-19
6.0765139e-19
4.6640876e-19
3.8239985e-19
3.3753353e-19
3.2279109e-19
3.0548335e-19
3.1332292e-19
3.6839077e-19
5.0391866e-19
2.1665699e-18
4.3482901e-18
5.1086302e-17
3.2745955e-16
1.3090894e-15
2.1675112e-15
1.1529591e-14
3.4759702e-14
1.0920364e-13
1.623344e-13
3.2478912e-13
4.0459027e-13
1.692644e-12
2.1593101e-12
3.4821125e-12
1.6531369e-12
7.1623948e-12
3.9948025e-12
9.7212114e-12
1.3976032e-11
1.0756889e-11
1.0159101e-11
2.9758327e-11
1.955371e-11
2.7892853e-11
2.3153072e-10
2.5479894e-10
5.1510565e-10
4.6455899e-10
3.4023495e-09
1.225162e-08
1.2707236e-08
1.344216e-08
4.7760564e-08
1.1035593e-07
1.7203536e-07
3.178753e-07
2.7707656e-07
3.5803087e-07
4.4829369e-08
8.5665327e-08
2.4875465e-08
2.4595226e-09
1.4343751e-08
1.9973881e-10
6.259855e-12
8.892673e-13
8.5981017e-14
2.6149006e-14
1.1091692e-14
5.5970671e-15
3.0862012e-15
2.0915477e-15
1.5632874e-15
5.218683e-14
4.9862228e-14
3.9960002e-14
2.7626427e-14
1.5439427e-14
6.8825446e-15
2.3402217e-15
5.7044758e-16
1.0064009e-16
1.5790821e-17
3.6738256e-18
2.1677373e-18
1.8375159e-18
1.0996535e-18
5.5638013e-19
7.5151437e-19
4.0749249e-19
2.3482288e-19
1.3417883e-19
1.0781569e-19
6.8984231e-20
5.7540289e-20
4.4755953e-20
3.8954561e-20
3.4179705e-20
2.9114022e-20
2.7020097e-20
2.626263e-20
2.6457711e-20
2.7828038e-20
3.0134499e-20
3.3595715e-20
3.8569966e-20
4.5282061e-20
5.4192712e-20
6.5055959e-20
7.68511e-20
8.7704954e-20
9.3381561e-20
8.9343987e-20
8.9258231e-20
9.8130074e-20
1.0965392e-19
1.1912519e-19
1.277004e-19
1.3720874e-19
1.4802233e-19
1.6205074e-19
1.8137322e-19
2.0796493e-19
2.4477698e-19
2.9509377e-19
3.6055165e-19
4.4384525e-19
5.3839211e-19
6.4097192e-19
7.5747182e-19
8.5202929e-19
9.2357015e-19
9.5152676e-19
9.6052668e-19
9.6249211e-19
1.0842358e-18
1.5931685e-18
2.4146151e-18
3.4049622e-18
4.5875175e-18
5.9530932e-18
7.5492774e-18
9.4243057e-18
1.1604797e-17
1.4098346e-17
1.6919124e-17
2.0097047e-17
2.3630506e-17
2.7521627e-17
3.1774331e-17
3.6377304e-17
4.1333664e-17
4.6631283e-17
5.2244535e-17
5.8158673e-17
6.4352133e-17
7.0801031e-17
7.7498137e-17
8.4429157e-17
9.1574316e-17
9.8909738e-17
1.0641256e-16
1.1406723e-16
1.2185195e-16
1.2974384e-16
1.3772016e-16
1.4575637e-16
1.5382382e-16
1.6187656e-16
1.6989562e-16
1.7785232e-16
1.8571108e-16
1.9343972e-16
2.0101132e-16
2.0839573e-16
2.1557941e-16
2.2252999e-16
2.2923467e-16
2.356548e-16
2.4176139e-16
2.4752265e-16
2.5292361e-16
2.5792985e-16
2.6253527e-16
2.6676009e-16
2.7057584e-16
2.7394111e-16
2.7686532e-16
2.7937067e-16
2.8147575e-16
2.8317282e-16
2.8442232e-16
2.8524604e-16
2.8570278e-16
2.8578972e-16
2.8552223e-16
2.8488376e-16
2.8389545e-16
2.8258607e-16
2.8099283e-16
2.7911325e-16
2.7694229e-16
2.7450865e-16
2.7184495e-16
2.6898817e-16
2.6591724e-16
2.6262837e-16
2.5917696e-16
2.5560079e-16
2.5186976e-16
2.4797895e-16
2.4397817e-16
2.39871e-16
2.3565922e-16
2.3134198e-16
2.2693183e-16
2.2242908e-16
2.1792462e-16
2.1347273e-16
2.0895262e-16
2.0444407e-16
1.9997562e-16
1.9544617e-16
1.9094349e-16
1.8653025e-16
1.8212195e-16
1.7767979e-16
1.7318869e-16
1.6866959e-16
1.6400785e-16
1.5905282e-16
1.5376698e-16
1.4818006e-16
1.4272786e-16
1.3910497e-16
1.3644186e-16
1.3320733e-16
1.2969053e-16
1.2574957e-16
1.2162388e-16
1.1752509e-16
1.1341426e-16
1.0934266e-16
1.0538728e-16
1.0157362e-16
9.7803464e-17
9.4082562e-17
9.0523221e-17
8.7037926e-17
8.356903e-17
8.0264302e-17
7.7027022e-17
7.3771989e-17
7.0575161e-17
6.7487521e-17
6.449228e-17
6.1575863e-17
5.8652986e-17
5.5789926e-17
5.3112674e-17
5.05042e-17
4.7974135e-17
4.5608566e-17
4.3275261e-17
4.0914355e-17
3.8636738e-17
3.641713e-17
3.4252812e-17
3.2119952e-17
3.0167318e-17
2.8169386e-17
2.6160797e-17
2.4373803e-17
2.2763738e-17
2.1286063e-17
2.0070744e-17
1.9090907e-17
1.883343e-17
1.9070938e-17
1.9990948e-17
1.924179e-17
1.4669572e-17
1.1463771e-17
9.8202456e-18
9.2298638e-18
8.9690853e-18
9.3707884e-18
1.1537122e-17
1.5548048e-17
2.0375022e-17
4.7028534e-17
1.0811856e-16
4.2052152e-16
1.1761099e-15
2.5379038e-15
5.5816781e-15
1.4858794e-14
4.3465903e-14
7.7212499e-14
8.4459267e-14
1.8273041e-13
3.1377533e-13
4.9987832e-13
6.6062061e-13
4.1642075e-13
1.0863979e-12
7.2773966e-13
1.1717508e-12
1.6840149e-12
1.2739237e-12
1.3570867e-12
3.5040085e-12
2.5346746e-12
3.7824241e-12
2.4338102e-11
2.7856752e-11
5.0118137e-11
4.8273925e-11
3.417474e-10
1.2050171e-09
1.2684554e-09
1.3482672e-09
4.9461347e-09
1.0953138e-08
1.8299615e-08
3.2978654e-08
2.7931639e-08
3.949013e-08
5.2408646e-09
9.0455592e-09
2.7657039e-09
3.1072962e-10
1.4661837e-09
3.2026678e-11
5.3326001e-12
2.0449265e-12
8.7630658e-13
4.2480032e-13
2.2443132e-13
1.2861761e-13
8.3106265e-14
5.8111541e-14
5.0023022e-14
7.2001108e-13
6.8288619e-13
5.4366172e-13
3.7331342e-13
2.0767264e-13
9.3239006e-14
3.223527e-14
8.1047148e-15
1.4370288e-15
1.9550657e-16
2.8595354e-17
8.1418114e-18
2.5386545e-18
1.3303037e-18
7.9092018e-19
6.7927116e-19
4.1668845e-19
3.037247e-19
2.3760522e-19
1.9192034e-19
1.5405385e-19
1.2703703e-19
1.0758627e-19
9.5582705e-20
8.6651989e-20
8.1185719e-20
8.1628964e-20
8.6855824e-20
9.7070846e-20
1.1155608e-19
1.3329225e-19
1.6305735e-19
2.0318981e-19
2.563963e-19
3.2515384e-19
4.0879841e-19
4.9915749e-19
5.79526e-19
6.2213253e-19
6.1664102e-19
6.4218719e-19
7.5256004e-19
8.8289003e-19
1.0030173e-18
1.1354597e-18
1.3066857e-18
1.5208911e-18
1.7967915e-18
2.1612029e-18
2.6451093e-18
3.2928221e-18
4.1478682e-18
5.2323804e-18
6.5693494e-18
8.063814e-18
9.6224219e-18
1.1347882e-17
1.2710589e-17
1.3632664e-17
1.3863275e-17
1.3724631e-17
1.3492089e-17
1.4721202e-17
2.0890415e-17
3.1141185e-17
4.3290256e-17
5.7837018e-17
7.4479693e-17
9.385054e-17
1.1668539e-16
1.433834e-16
1.7405971e-16
2.0868403e-16
2.4766281e-16
2.9101698e-16
3.3878139e-16
3.9100509e-16
4.4756679e-16
5.0848835e-16
5.7372533e-16
6.4294134e-16
7.1595805e-16
7.9254107e-16
8.7240428e-16
9.5546306e-16
1.041586e-15
1.1305291e-15
1.2220359e-15
1.315813e-15
1.4116712e-15
1.5093666e-15
1.608592e-15
1.7090845e-15
1.810517e-15
1.9125673e-15
2.0146391e-15
2.116462e-15
2.2177087e-15
2.317932e-15
2.4167209e-15
2.5137536e-15
2.6086555e-15
2.7012648e-15
2.7911614e-15
2.8781674e-15
2.961803e-15
3.0416667e-15
3.1173742e-15
3.1886712e-15
3.2551476e-15
3.3166624e-15
3.3734713e-15
3.4252402e-15
3.4713927e-15
3.5120276e-15
3.5473955e-15
3.5777421e-15
3.6029682e-15
3.6225794e-15
3.6367031e-15
3.6461584e-15
3.6509061e-15
3.6511289e-15
3.6466012e-15
3.6375186e-15
3.6242943e-15
3.6073634e-15
3.5867347e-15
3.562263e-15
3.534347e-15
3.5033769e-15
3.4698299e-15
3.4334546e-15
3.3941566e-15
3.3526521e-15
3.3094308e-15
3.2641342e-15
3.2166328e-15
3.1676086e-15
3.1170827e-15
3.0650958e-15
3.0116072e-15
2.9567934e-15
2.900629e-15
2.8443053e-15
2.7886043e-15
2.7319395e-15
2.6752556e-15
2.6190582e-15
2.5619403e-15
2.5050579e-15
2.4492709e-15
2.3934831e-15
2.3371198e-15
2.2800245e-15
2.2223916e-15
2.1627961e-15
2.0990686e-15
2.0308098e-15
1.9582439e-15
1.8873791e-15
1.8408708e-15
1.8079856e-15
1.7667327e-15
1.7215402e-15
1.6705851e-15
1.6170086e-15
1.5637369e-15
1.5101823e-15
1.457066e-15
1.405395e-15
1.3555866e-15
1.306273e-15
1.2575352e-15
1.2108799e-15
1.1651794e-15
1.119594e-15
1.076157e-15
1.033586e-15
9.9068198e-16
9.4846973e-16
9.0765914e-16
8.6804295e-16
8.2942454e-16
7.9064652e-16
7.5258033e-16
7.1699892e-16
6.8229651e-16
6.4859609e-16
6.1709032e-16
5.859855e-16
5.5442241e-16
5.239377e-16
4.9418872e-16
4.6514066e-16
4.3645839e-16
4.1020169e-16
3.8327772e-16
3.5612191e-16
3.3196564e-16
3.1022225e-16
2.9025174e-16
2.739036e-16
2.6076793e-16
2.5763772e-16
2.6144317e-16
2.7485904e-16
2.6536808e-16
2.0237211e-16
1.5785697e-16
1.3508909e-16
1.2695902e-16
1.2366318e-16
1.295569e-16
1.6027369e-16
2.165063e-16
2.8295487e-16
6.5838162e-16
1.4505353e-15
5.4261819e-15
1.4366331e-14
3.2072859e-14
6.1729149e-14
1.5488551e-13
4.5747505e-13
8.3785938e-13
7.2340249e-13
2.0055073e-12
2.0879596e-12
3.6941417e-12
4.158106e-12
3.1078762e-12
4.9770968e-12
3.8999263e-12
3.4244527e-12
4.8392761e-12
3.4288219e-12
4.3375806e-12
8.4771258e-12
7.597414e-12
1.3785101e-11
2.3331327e-11
2.9829782e-11
2.7825691e-11
4.5151134e-11
1.5553039e-10
2.9990065e-10
5.0424623e-10
5.3735632e-10
1.6268937e-09
2.6953708e-09
6.3808738e-09
9.4764404e-09
8.6132082e-09
1.2545165e-08
6.168537e-09
4.7759766e-09
2.1597004e-09
6.4258814e-10
7.1187788e-10
1.4337159e-10
6.1980996e-11
2.6361056e-11
1.1796515e-11
5.7541808e-12
3.06596e-12
1.7616203e-12
1.1435232e-12
7.9967088e-13
6.9357833e-13
5.1264241e-12
4.8573648e-12
3.8648751e-12
2.6523209e-12
1.4752431e-12
6.6325055e-13
2.2993035e-13
5.8089524e-14
1.0330088e-14
1.3796014e-15
1.9074253e-16
4.9066842e-17
1.2548422e-17
6.217786e-18
3.7190076e-18
2.9043949e-18
1.8428135e-18
1.4204486e-18
1.1949361e-18
9.7640513e-19
8.1553011e-19
6.7720647e-19
5.8211193e-19
5.2612724e-19
4.8167986e-19
4.6238318e-19
4.7637403e-19
5.1908631e-19
5.9399629e-19
6.9471665e-19
8.4392273e-19
1.0466355e-18
1.3186015e-18
1.677384e-18
2.1389914e-18
2.6985322e-18
3.301396e-18
3.8330527e-18
4.1141288e-18
4.0993375e-18
4.3056503e-18
5.0915005e-18
6.0018489e-18
6.8561584e-18
7.8105554e-18
9.0582208e-18
1.0627876e-17
1.264784e-17
1.5310431e-17
1.88392e-17
2.3550973e-17
2.9758328e-17
3.7619193e-17
4.7282231e-17
5.8075743e-17
6.9288721e-17
8.1672794e-17
9.1433531e-17
9.7960621e-17
9.9491499e-17
9.8314476e-17
9.646679e-17
1.0493734e-16
1.4841212e-16
2.2081409e-16
3.0644192e-16
4.0899346e-16
5.2616791e-16
6.6245179e-16
8.2312515e-16
1.0110485e-15
1.2270697e-15
1.4708038e-15
1.7451308e-15
2.0502313e-15
2.3863531e-15
2.753844e-15
3.1518614e-15
3.5805416e-15
4.0396556e-15
4.5268203e-15
5.0407835e-15
5.5799176e-15
6.1422202e-15
6.7270957e-15
7.3336572e-15
7.9601875e-15
8.6049114e-15
9.2657593e-15
9.9414021e-15
1.0630143e-14
1.1329804e-14
1.2038547e-14
1.2754057e-14
1.3474089e-14
1.4194427e-14
1.4913137e-14
1.5627953e-14
1.633573e-14
1.703357e-14
1.7719229e-14
1.8390069e-14
1.9044941e-14
1.968084e-14
2.0296494e-14
2.0888507e-14
2.1454013e-14
2.1990325e-14
2.2495592e-14
2.2966952e-14
2.3403382e-14
2.3806682e-14
2.4174513e-14
2.4502781e-14
2.4792166e-14
2.5044409e-14
2.5261252e-14
2.5441989e-14
2.5583158e-14
2.5685549e-14
2.5754976e-14
2.5791167e-14
2.5795403e-14
2.5766088e-14
2.5704541e-14
2.5613715e-14
2.549665e-14
2.535344e-14
2.5183001e-14
2.4988173e-14
2.4771693e-14
2.4536926e-14
2.4282113e-14
2.4006563e-14
2.3715333e-14
2.3411881e-14
2.30937e-14
2.275983e-14
2.2415114e-14
2.2059687e-14
2.1693845e-14
2.1317284e-14
2.0931259e-14
2.053558e-14
2.013867e-14
1.9746102e-14
1.9346676e-14
1.8946989e-14
1.8550708e-14
1.8147829e-14
1.7746537e-14
1.7352937e-14
1.6959284e-14
1.6561459e-14
1.6158386e-14
1.5751374e-14
1.5330388e-14
1.4879935e-14
1.439724e-14
1.3883798e-14
1.3382376e-14
1.3053576e-14
1.2822155e-14
1.2530869e-14
1.221145e-14
1.1851073e-14
1.147197e-14
1.1094989e-14
1.0715906e-14
1.0339876e-14
9.9740128e-15
9.621338e-15
9.2721185e-15
8.9269309e-15
8.5964524e-15
8.2727289e-15
7.9497519e-15
7.6419755e-15
7.3403177e-15
7.0362371e-15
6.7370018e-15
6.4476646e-15
6.1667725e-15
5.8929193e-15
5.6178865e-15
5.3478374e-15
5.0954149e-15
4.8492068e-15
4.6100756e-15
4.3865064e-15
4.1657665e-15
3.9417167e-15
3.7252931e-15
3.5140531e-15
3.3077659e-15
3.1040294e-15
2.9175175e-15
2.7262298e-15
2.5332311e-15
2.3615301e-15
2.2070047e-15
2.0650568e-15
1.9489093e-15
1.8556039e-15
1.8335712e-15
1.8610365e-15
1.9572495e-15
1.8911588e-15
1.4426856e-15
1.1251017e-15
9.6269778e-16
9.0477195e-16
8.8153134e-16
9.2405078e-16
1.1439922e-15
1.5444839e-15
2.0215817e-15
4.702455e-15
1.0365416e-14
3.8520271e-14
1.0203456e-13
2.2819732e-13
4.3741697e-13
1.0907173e-12
3.2428775e-12
5.9033331e-12
5.0840578e-12
1.4177975e-11
1.4527967e-11
2.5481433e-11
2.8473065e-11
2.1312942e-11
3.3702612e-11
2.6136169e-11
2.2671756e-11
3.1952344e-11
2.2568366e-11
2.8313015e-11
5.4194184e-11
4.9220986e-11
9.1350848e-11
1.24305e-10
1.5676405e-10
1.2219555e-10
2.475548e-10
5.7820068e-10
3.6083623e-10
5.2488922e-10
1.6480515e-09
4.1099374e-09
3.0837262e-09
1.3041458e-08
1.0487874e-08
2.0251446e-08
9.2671605e-09
3.1916653e-08
1.7936206e-08
8.0794641e-09
3.2789389e-09
2.0924939e-09
8.4571772e-10
4.0178596e-10
1.7967452e-10
8.2743405e-11
4.0701271e-11
2.1782648e-11
1.2541936e-11
8.1420678e-12
5.6949386e-12
4.9441178e-12
2.4480037e-11
2.3185305e-11
1.844861e-11
1.2662209e-11
7.0460107e-12
3.1712819e-12
1.1012083e-12
2.7892534e-13
4.9747275e-14
6.6080411e-15
8.9936466e-16
2.260763e-16
5.5812249e-17
2.73134e-17
1.6264565e-17
1.2661077e-17
8.1075165e-18
6.2915213e-18
5.368365e-18
4.4019135e-18
3.6986673e-18
3.077391e-18
2.6482991e-18
2.4037836e-18
2.2040476e-18
2.125436e-18
2.1996028e-18
2.4070299e-18
2.766008e-18
3.2446989e-18
3.9523296e-18
4.9126688e-18
6.2001265e-18
7.89712e-18
1.0079184e-17
1.2723609e-17
1.5574162e-17
1.8088851e-17
1.9424309e-17
1.9375927e-17
2.0369077e-17
2.4118705e-17
2.8459863e-17
3.2547254e-17
3.7118981e-17
4.3104523e-17
5.0643148e-17
6.034251e-17
7.3122594e-17
9.005393e-17
1.1265404e-16
1.4242419e-16
1.8012023e-16
2.264422e-16
2.7819553e-16
3.3193445e-16
3.9125624e-16
4.3803803e-16
4.6927122e-16
4.7657158e-16
4.7084732e-16
4.6191748e-16
5.0226557e-16
7.0973097e-16
1.0553728e-15
1.4640324e-15
1.9534374e-15
2.5124784e-15
3.1625939e-15
3.9290235e-15
4.8254312e-15
5.8559037e-15
7.018467e-15
8.3268486e-15
9.7819355e-15
1.1384902e-14
1.3137399e-14
1.5035427e-14
1.7079602e-14
1.9268891e-14
2.1591922e-14
2.4042725e-14
2.6613547e-14
2.929486e-14
3.2083816e-14
3.4976221e-14
3.7963877e-14
4.1038354e-14
4.4189784e-14
4.7411834e-14
5.0696432e-14
5.4033177e-14
5.741333e-14
6.0825851e-14
6.4260046e-14
6.7695821e-14
7.1123918e-14
7.4533651e-14
7.7910068e-14
8.1239403e-14
8.4511029e-14
8.7712348e-14
9.0837785e-14
9.387277e-14
9.6811202e-14
9.9636769e-14
1.0233578e-13
1.0489545e-13
1.0730693e-13
1.0955661e-13
1.1163976e-13
1.1356491e-13
1.1532089e-13
1.1688825e-13
1.1827021e-13
1.1947502e-13
1.2051099e-13
1.2137474e-13
1.2204989e-13
1.2254016e-13
1.2287315e-13
1.2304763e-13
1.2306969e-13
1.2293177e-13
1.2264009e-13
1.2220874e-13
1.2165217e-13
1.2097089e-13
1.201597e-13
1.1923213e-13
1.1820126e-13
1.1708306e-13
1.1586919e-13
1.1455639e-13
1.1316872e-13
1.1172265e-13
1.1020627e-13
1.08615e-13
1.0697191e-13
1.0527766e-13
1.0353365e-13
1.0173843e-13
9.9897979e-14
9.8011467e-14
9.6118971e-14
9.4247016e-14
9.2342433e-14
9.0436487e-14
8.8546691e-14
8.6625411e-14
8.4711662e-14
8.2834495e-14
8.0957026e-14
7.905958e-14
7.713706e-14
7.5195594e-14
7.3187334e-14
7.1038348e-14
6.8735371e-14
6.6285618e-14
6.3893384e-14
6.2324025e-14
6.1220681e-14
5.9831588e-14
5.8307675e-14
5.658821e-14
5.4779213e-14
5.2980272e-14
5.1171211e-14
4.9376701e-14
4.7630582e-14
4.5947341e-14
4.4280596e-14
4.2633084e-14
4.105565e-14
3.9510463e-14
3.7968826e-14
3.6499625e-14
3.5059593e-14
3.3608026e-14
3.2179533e-14
3.0798205e-14
2.9457152e-14
2.8149656e-14
2.6836537e-14
2.5547141e-14
2.4341825e-14
2.3166188e-14
2.2024314e-14
2.0956642e-14
1.99025e-14
1.8832569e-14
1.7799015e-14
1.6790123e-14
1.5804898e-14
1.4831794e-14
1.3940902e-14
1.302721e-14
1.2105323e-14
1.128501e-14
1.0546823e-14
9.8686416e-15
9.3137483e-15
8.8679358e-15
8.7626169e-15
8.8940152e-15
9.3547269e-15
9.0441723e-15
6.901985e-15
5.3824946e-15
4.6052946e-15
4.3282071e-15
4.2172761e-15
4.4221556e-15
5.4763064e-15
7.3858956e-15
9.6814542e-15
2.2490477e-14
4.9654559e-14
1.8340343e-13
4.8762863e-13
1.0910922e-12
2.0863118e-12
5.1852579e-12
1.5476499e-11
2.8017219e-11
2.4215132e-11
6.7280839e-11
6.8850163e-11
1.1998033e-10
1.3371536e-10
1.0022364e-10
1.5895371e-10
1.2217163e-10
1.069377e-10
1.5000485e-10
1.0626329e-10
1.3284712e-10
2.5271817e-10
2.3016759e-10
4.273881e-10
5.7012172e-10
7.0653233e-10
5.5515177e-10
1.1590134e-09
2.5443308e-09
1.2313239e-09
1.7675989e-09
7.1500734e-09
1.7339751e-08
1.0287599e-08
5.0173401e-08
3.4892171e-08
8.4519676e-08
2.5424726e-08
1.4016481e-07
7.6418612e-08
3.127311e-08
1.32997e-08
7.7955576e-09
3.6529073e-09
1.7682186e-09
8.1552325e-10
3.8666449e-10
1.9278044e-10
1.037876e-10
5.9906131e-11
3.8901888e-11
2.7217635e-11
2.3637874e-11
8.9957075e-11
8.5161338e-11
6.7773215e-11
4.6534278e-11
2.5915651e-11
1.1681115e-11
4.0636404e-12
1.0318585e-12
1.8465246e-13
2.4467542e-14
3.3044733e-15
8.2252138e-16
2.008328e-16
9.7789597e-17
5.8128586e-17
4.5381133e-17
2.9241458e-17
2.2730296e-17
1.9502144e-17
1.601075e-17
1.3473891e-17
1.1216538e-17
9.6466712e-18
8.7657071e-18
8.0381013e-18
7.7581032e-18
8.0342622e-18
8.797665e-18
1.0117958e-17
1.1875302e-17
1.4472085e-17
1.799605e-17
2.2719711e-17
2.8945255e-17
3.6950831e-17
4.6656862e-17
5.7130773e-17
6.6389022e-17
7.1335821e-17
7.1189965e-17
7.4803586e-17
8.8573799e-17
1.0456326e-16
1.1963062e-16
1.3647242e-16
1.585214e-16
1.8630391e-16
2.2204621e-16
2.6913347e-16
3.3150656e-16
4.1476238e-16
5.2445094e-16
6.6335774e-16
8.3404813e-16
1.0248276e-15
1.2229494e-15
1.4415819e-15
1.6141937e-15
1.7294514e-15
1.7566583e-15
1.7358058e-15
1.7032223e-15
1.8522438e-15
2.6159547e-15
3.8882499e-15
5.3924934e-15
7.1936645e-15
9.2508779e-15
1.1643032e-14
1.4462875e-14
1.7760577e-14
2.1551254e-14
2.582755e-14
3.0639806e-14
3.5991287e-14
4.1886255e-14
4.8330706e-14
5.5309984e-14
6.2826227e-14
7.0875607e-14
7.9416347e-14
8.8426464e-14
9.7877417e-14
1.0773423e-13
1.1798639e-13
1.2861851e-13
1.396004e-13
1.5090114e-13
1.624845e-13
1.7432719e-13
1.8639957e-13
1.9866343e-13
2.1108666e-13
2.236288e-13
2.3625046e-13
2.4887792e-13
2.6147708e-13
2.7400926e-13
2.8641963e-13
2.9865787e-13
3.1068534e-13
3.2245551e-13
3.3394735e-13
3.4510629e-13
3.5590986e-13
3.6629745e-13
3.7621898e-13
3.8562746e-13
3.9449038e-13
4.0275808e-13
4.1041392e-13
4.1748889e-13
4.2394194e-13
4.2970202e-13
4.3478081e-13
4.3920849e-13
4.4301571e-13
4.4618989e-13
4.4867156e-13
4.5047429e-13
4.5169889e-13
4.5234099e-13
4.524231e-13
4.5191764e-13
4.5084717e-13
4.4926358e-13
4.4721979e-13
4.4471777e-13
4.4173844e-13
4.3833149e-13
4.3454501e-13
4.3043745e-13
4.2597821e-13
4.2115559e-13
4.1605788e-13
4.1074522e-13
4.0517418e-13
3.9932804e-13
3.9329127e-13
3.8706641e-13
3.8065858e-13
3.7406245e-13
3.6730003e-13
3.6036859e-13
3.5341488e-13
3.4653591e-13
3.3953761e-13
3.3253412e-13
3.2558946e-13
3.1852937e-13
3.1149697e-13
3.0459853e-13
2.9769884e-13
2.9072565e-13
2.836603e-13
2.7652488e-13
2.691436e-13
2.6124511e-13
2.5278041e-13
2.4377674e-13
2.3498553e-13
2.2921388e-13
2.2515873e-13
2.2005522e-13
2.1445366e-13
2.0813322e-13
2.0148328e-13
1.9487005e-13
1.8821944e-13
1.8162237e-13
1.752027e-13
1.6901381e-13
1.6288576e-13
1.568285e-13
1.5102832e-13
1.4534672e-13
1.3967835e-13
1.342757e-13
1.2898012e-13
1.2364251e-13
1.1838964e-13
1.1330985e-13
1.0837799e-13
1.0356937e-13
9.8740284e-14
9.3998297e-14
8.9565054e-14
8.5241063e-14
8.1041192e-14
7.7113691e-14
7.323606e-14
6.9300672e-14
6.5498948e-14
6.1787567e-14
5.8163391e-14
5.4583656e-14
5.1306007e-14
4.7944661e-14
4.4553326e-14
4.153486e-14
3.8818852e-14
3.6323282e-14
3.4281337e-14
3.2640582e-14
3.2252125e-14
3.2735158e-14
3.4431784e-14
3.3307649e-14
2.5429294e-14
1.983199e-14
1.6967584e-14
1.5946413e-14
1.5537723e-14
1.6297332e-14
2.0185011e-14
2.718868e-14
3.5691755e-14
8.2761323e-14
1.8301496e-13
6.7165111e-13
1.7941e-12
4.0146813e-12
7.6541012e-12
1.8957472e-11
5.675914e-11
1.0220977e-10
8.873691e-11
2.4487199e-10
2.5071572e-10
4.3376193e-10
4.8215352e-10
3.6274805e-10
5.7756086e-10
4.4006273e-10
3.8922887e-10
5.4227371e-10
3.8587345e-10
4.8225556e-10
9.1310572e-10
8.32528e-10
1.541252e-09
2.0470467e-09
2.5271417e-09
1.9845446e-09
4.2825111e-09
8.9584751e-09
4.1572324e-09
6.1040654e-09
2.5900937e-08
6.055201e-08
3.3667307e-08
1.7083974e-07
1.1863253e-07
2.7350445e-07
8.1186628e-08
4.7684992e-07
2.6482968e-07
9.4669122e-08
4.4049442e-08
2.4565815e-08
1.2583096e-08
6.1466767e-09
2.875455e-09
1.3878722e-09
7.0084897e-10
3.8009371e-10
2.201162e-10
1.4307624e-10
1.0014801e-10
8.7005441e-11
2.7490797e-10
2.6009531e-10
2.0702433e-10
1.4223615e-10
7.9313627e-11
3.5823935e-11
1.2492288e-11
3.1812352e-12
5.7157661e-13
7.5609721e-14
1.0157569e-14
2.5118268e-15
6.100844e-16
2.9606877e-16
1.7583936e-16
1.376553e-16
8.9129297e-17
6.9325166e-17
5.9664478e-17
4.9011732e-17
4.1271107e-17
3.4363968e-17
2.9530317e-17
2.6841144e-17
2.4609702e-17
2.3750535e-17
2.4590058e-17
2.6921173e-17
3.0962053e-17
3.633865e-17
4.4283228e-17
5.5066487e-17
6.952059e-17
8.857135e-17
1.1307407e-16
1.4279801e-16
1.7491229e-16
2.0336684e-16
2.1867025e-16
2.1829433e-16
2.2919171e-16
2.7128839e-16
3.20366e-16
3.6662645e-16
4.1827898e-16
4.8587042e-16
5.7106568e-16
6.8066195e-16
8.2503042e-16
1.0162455e-15
1.2714931e-15
1.6078574e-15
2.0338935e-15
2.5574013e-15
3.1427816e-15
3.7508684e-15
4.4216188e-15
4.951943e-15
5.3062777e-15
5.3912685e-15
5.3287302e-15
5.2308048e-15
5.6908036e-15
8.03307e-15
1.1933855e-14
1.6545835e-14
2.2066652e-14
2.8371453e-14
3.5701839e-14
4.4341249e-14
5.4442817e-14
6.6053064e-14
7.9149395e-14
9.3885218e-14
1.1027041e-13
1.2831772e-13
1.4804511e-13
1.6940786e-13
1.9241196e-13
2.1704533e-13
2.4318026e-13
2.7074929e-13
2.9966483e-13
3.2982006e-13
3.6118253e-13
3.9370529e-13
4.2729574e-13
4.6185949e-13
4.9728586e-13
5.3350369e-13
5.7042229e-13
6.0792499e-13
6.4591369e-13
6.8426502e-13
7.2285825e-13
7.6146852e-13
7.9999147e-13
8.3831117e-13
8.7626022e-13
9.1368622e-13
9.5047219e-13
9.8647505e-13
1.0216279e-12
1.0557607e-12
1.0888045e-12
1.1205714e-12
1.1509102e-12
1.1796763e-12
1.2067711e-12
1.2320445e-12
1.2554481e-12
1.2770751e-12
1.2968e-12
1.3144072e-12
1.3299319e-12
1.3434664e-12
1.3551043e-12
1.3648066e-12
1.3723941e-12
1.3779085e-12
1.3816549e-12
1.383621e-12
1.3838757e-12
1.3823359e-12
1.3790693e-12
1.3742346e-12
1.3679932e-12
1.3603513e-12
1.3512508e-12
1.3408434e-12
1.3292762e-12
1.3167268e-12
1.3031021e-12
1.2883672e-12
1.2727914e-12
1.2565574e-12
1.2395333e-12
1.2216686e-12
1.2032203e-12
1.1841967e-12
1.1646131e-12
1.1444534e-12
1.1237849e-12
1.1026006e-12
1.081347e-12
1.0603188e-12
1.0389278e-12
1.0175202e-12
9.9629032e-13
9.7470837e-13
9.5321105e-13
9.3212121e-13
9.110268e-13
8.8970711e-13
8.6810545e-13
8.4628755e-13
8.237161e-13
7.9956292e-13
7.736772e-13
7.4614519e-13
7.1926725e-13
7.016049e-13
6.8920454e-13
6.7360681e-13
6.5647505e-13
6.371438e-13
6.1680334e-13
5.9657378e-13
5.7622921e-13
5.5604844e-13
5.3640828e-13
5.1747247e-13
4.9872338e-13
4.8019118e-13
4.6244312e-13
4.4505775e-13
4.2771353e-13
4.1117985e-13
3.9497288e-13
3.7863875e-13
3.625636e-13
3.4701655e-13
3.3192146e-13
3.1720279e-13
3.0242229e-13
2.8790786e-13
2.7433642e-13
2.6109969e-13
2.4824272e-13
2.3621723e-13
2.2434474e-13
2.1229677e-13
2.0065737e-13
1.8929312e-13
1.781964e-13
1.6723525e-13
1.5719754e-13
1.4690425e-13
1.3651996e-13
1.2727429e-13
1.1895592e-13
1.1131144e-13
1.0505632e-13
1.0002964e-13
9.8836515e-14
1.0031405e-13