/*--------------------------------*- C++ -*----------------------------------*\
| =========                 |                                                 |
| \\      /  F ield         | OpenFOAM: The Open Source CFD Toolbox           |
|  \\    /   O peration     | Version:  2.4.0                                 |
|   \\  /    A nd           | Web:      www.OpenFOAM.org                      |
|    \\/     M anipulation  |                                                 |
\*---------------------------------------------------------------------------*/
FoamFile
{
    version     2.0;
    format      ascii;
    class       volScalarField;
    location    "900";
    object      nut;
}
// * * * * * * * * * * * * * * * * * * * * * * * * * * * * * * * * * * * * * //

dimensions      [0 2 -1 0 0 0 0];

internalField   nonuniform List<scalar> 
78300
(
2.5162067e-12
2.6476693e-12
3.4491004e-12
3.232327e-12
2.6983996e-12
1.2776032e-12
2.7583379e-13
2.9447716e-14
3.5810696e-13
5.2319749e-13
4.1892306e-13
2.5359718e-13
1.4521169e-13
1.0318262e-13
7.2088439e-14
5.8513342e-14
5.9499817e-14
5.440773e-14
5.4110232e-14
5.7278117e-14
5.4000057e-14
5.2405274e-14
4.9603487e-14
4.6576401e-14
4.4832761e-14
4.2257683e-14
4.1881075e-14
4.2486968e-14
4.3201736e-14
4.4809991e-14
4.7377841e-14
5.1109421e-14
5.6211766e-14
6.2813079e-14
7.0968721e-14
8.0523787e-14
9.0599339e-14
1.0141281e-13
1.1154912e-13
1.2227901e-13
1.3289167e-13
1.4728167e-13
1.5894e-13
1.7210929e-13
1.8222705e-13
1.9135956e-13
1.978142e-13
2.0211824e-13
2.0611329e-13
2.0944341e-13
2.1065451e-13
2.09915e-13
2.0804828e-13
2.0117074e-13
1.9276098e-13
1.8138662e-13
1.6859991e-13
1.5102228e-13
1.3840566e-13
1.2148769e-13
1.1966833e-13
1.1304063e-13
1.641449e-13
2.9236256e-13
4.0385411e-13
5.2746599e-13
6.4718315e-13
7.6722481e-13
8.8785949e-13
1.0065152e-12
1.1181817e-12
1.2207684e-12
1.3239193e-12
1.4200193e-12
1.514508e-12
1.6036822e-12
1.690384e-12
1.7733842e-12
1.853325e-12
1.9304225e-12
2.0050847e-12
2.076455e-12
2.1449378e-12
2.2110333e-12
2.274452e-12
2.3352989e-12
2.3935712e-12
2.4492163e-12
2.5022592e-12
2.5525633e-12
2.6000351e-12
2.6447285e-12
2.6865499e-12
2.7255356e-12
2.7616207e-12
2.794812e-12
2.8250989e-12
2.8524205e-12
2.8768038e-12
2.8980957e-12
2.9164323e-12
2.9316667e-12
2.9439228e-12
2.953134e-12
2.9593564e-12
2.9625888e-12
2.9628251e-12
2.9600608e-12
2.9542413e-12
2.9455206e-12
2.9338801e-12
2.9194328e-12
2.902278e-12
2.8823812e-12
2.8599863e-12
2.8348789e-12
2.8072828e-12
2.7772087e-12
2.7449786e-12
2.7106478e-12
2.6742544e-12
2.6358627e-12
2.5955954e-12
2.5537068e-12
2.5101174e-12
2.4650933e-12
2.4186372e-12
2.3710408e-12
2.3222891e-12
2.2725972e-12
2.2220169e-12
2.170762e-12
2.1188612e-12
2.0664809e-12
2.0136992e-12
1.9606837e-12
1.9075018e-12
1.8542732e-12
1.8010937e-12
1.7480405e-12
1.6952119e-12
1.6426649e-12
1.590558e-12
1.5389078e-12
1.4877074e-12
1.4370671e-12
1.387077e-12
1.3379446e-12
1.2895449e-12
1.241994e-12
1.1953145e-12
1.1496517e-12
1.104944e-12
1.0611803e-12
1.0186678e-12
9.7681487e-13
9.3671753e-13
8.9633744e-13
8.583144e-13
8.1851524e-13
7.8006683e-13
7.3986517e-13
7.0092033e-13
6.7055276e-13
6.4034918e-13
6.1224756e-13
5.8297062e-13
5.5579558e-13
5.2827074e-13
5.023226e-13
4.7675007e-13
4.5230101e-13
4.2858885e-13
4.0577063e-13
3.8382933e-13
3.6293237e-13
3.4294863e-13
3.2381453e-13
3.0554705e-13
2.880826e-13
2.7145795e-13
2.5562019e-13
2.4048392e-13
2.2618608e-13
2.1257941e-13
1.9969082e-13
1.8744302e-13
1.7593327e-13
1.6497818e-13
1.5490094e-13
1.4542377e-13
1.3616475e-13
1.2769188e-13
1.1992534e-13
1.1264922e-13
1.0592438e-13
9.9692966e-14
9.4232636e-14
8.9537063e-14
8.4970788e-14
8.0820562e-14
7.7635455e-14
7.4835967e-14
7.3322487e-14
7.1820346e-14
7.1359779e-14
7.1306946e-14
7.1050316e-14
7.2978513e-14
7.3507848e-14
7.6659064e-14
7.406037e-14
7.5097974e-14
7.0149359e-14
7.0764406e-14
6.1133687e-14
6.0763431e-14
4.8605669e-14
4.158417e-14
2.9163998e-14
3.6399339e-14
3.335558e-14
6.0134188e-14
1.4737328e-14
1.0929379e-14
1.0518774e-14
2.7654712e-14
5.644169e-14
4.041163e-14
1.4569116e-13
3.3051507e-14
1.5884865e-12
2.3883303e-12
2.3230999e-12
6.1628784e-13
2.7638339e-14
1.6324594e-12
5.6751869e-13
3.3907467e-12
6.1787708e-13
3.6650831e-11
1.0261891e-12
1.5495864e-12
2.4286891e-13
2.8743378e-13
5.6450142e-12
3.8390372e-12
1.3648538e-10
1.2670251e-11
4.5358179e-12
3.0927831e-11
3.6874485e-12
8.4772047e-12
7.590852e-12
9.4364982e-14
8.5783313e-12
7.7803014e-12
1.4580133e-11
1.3509524e-11
2.2081329e-11
2.0180215e-11
2.1256663e-11
2.2230561e-11
1.8884856e-11
1.4463176e-11
8.9516046e-12
5.9302929e-12
3.7899099e-12
3.109982e-12
1.9651199e-12
5.4755292e-12
5.7493352e-12
6.3879977e-12
5.8479355e-12
4.7903749e-12
2.8405612e-12
1.3030865e-12
5.7917258e-13
5.5331289e-13
5.5113641e-13
4.2836251e-13
2.5785314e-13
1.4006502e-13
1.0164729e-13
6.9626755e-14
5.7103157e-14
5.774485e-14
5.3337287e-14
5.3076283e-14
5.5889122e-14
5.3154695e-14
5.1879878e-14
4.9598736e-14
4.7219284e-14
4.6063343e-14
4.426589e-14
4.4526381e-14
4.5758603e-14
4.725564e-14
4.9710403e-14
5.321244e-14
5.7973781e-14
6.422754e-14
7.2132607e-14
8.1789686e-14
9.3109925e-14
1.0534675e-13
1.1873851e-13
1.3205997e-13
1.4638377e-13
1.6115595e-13
1.8032633e-13
1.9829576e-13
2.1857664e-13
2.372833e-13
2.5619933e-13
2.7394245e-13
2.909543e-13
3.09078e-13
3.2813978e-13
3.46705e-13
3.6457159e-13
3.8221408e-13
3.9570667e-13
4.0729613e-13
4.1496083e-13
4.1948341e-13
4.164696e-13
4.1407513e-13
4.0361356e-13
4.0455508e-13
4.0181684e-13
4.6298753e-13
6.2842701e-13
7.9545905e-13
9.7029784e-13
1.1412161e-12
1.3106688e-12
1.4791535e-12
1.6455098e-12
1.8055722e-12
1.9558155e-12
2.104935e-12
2.2474814e-12
2.3878106e-12
2.5228867e-12
2.6551786e-12
2.7838278e-12
2.9094654e-12
3.0322796e-12
3.1525533e-12
3.2695771e-12
3.3837304e-12
3.4954619e-12
3.6044974e-12
3.7109048e-12
3.8146425e-12
3.9156507e-12
4.0139582e-12
4.1094285e-12
4.2018558e-12
4.2911952e-12
4.3773321e-12
4.4602335e-12
4.5397908e-12
4.6159713e-12
4.6887425e-12
4.7580363e-12
4.8237967e-12
4.8858391e-12
4.9442286e-12
4.9987844e-12
5.0495779e-12
5.0965534e-12
5.1397387e-12
5.1790609e-12
5.2145087e-12
5.2460592e-12
5.2735612e-12
5.2971027e-12
5.3166253e-12
5.3322272e-12
5.3439892e-12
5.3519423e-12
5.3563523e-12
5.3570607e-12
5.3541507e-12
5.3474208e-12
5.3371614e-12
5.3236877e-12
5.3071397e-12
5.2873861e-12
5.2645172e-12
5.238838e-12
5.2103206e-12
5.1791947e-12
5.1454482e-12
5.1093766e-12
5.0710086e-12
5.0305741e-12
4.988125e-12
4.9439263e-12
4.8980274e-12
4.8505799e-12
4.8016612e-12
4.7515072e-12
4.7002089e-12
4.6479064e-12
4.5947409e-12
4.540837e-12
4.4862272e-12
4.4309723e-12
4.3752565e-12
4.3192917e-12
4.2631344e-12
4.2066282e-12
4.1498296e-12
4.0931929e-12
4.036712e-12
3.9802856e-12
3.9240452e-12
3.868367e-12
3.8131832e-12
3.7585009e-12
3.7045998e-12
3.6515039e-12
3.6000793e-12
3.5485464e-12
3.4997045e-12
3.4495738e-12
3.3990958e-12
3.3421214e-12
3.2787665e-12
3.2214041e-12
3.1696653e-12
3.1241677e-12
3.0790192e-12
3.0355253e-12
2.9914022e-12
2.9482216e-12
2.9049718e-12
2.8622211e-12
2.82e-12
2.7779303e-12
2.7355754e-12
2.6940806e-12
2.6535696e-12
2.6135013e-12
2.5739118e-12
2.5348602e-12
2.496172e-12
2.4577935e-12
2.419507e-12
2.3817262e-12
2.3443755e-12
2.3071467e-12
2.2696441e-12
2.2321327e-12
2.194587e-12
2.1574804e-12
2.1203856e-12
2.0817653e-12
2.0420786e-12
2.0025126e-12
1.9625002e-12
1.9214202e-12
1.8780782e-12
1.8344534e-12
1.7904464e-12
1.743469e-12
1.6926868e-12
1.640121e-12
1.5858911e-12
1.5298567e-12
1.469597e-12
1.4077009e-12
1.3405416e-12
1.27231e-12
1.2450945e-12
1.2473388e-12
1.2684692e-12
1.2790546e-12
1.2930569e-12
1.3053589e-12
1.3265362e-12
1.317657e-12
1.334237e-12
1.3284288e-12
1.2860686e-12
1.3129517e-12
1.3083435e-12
1.0383303e-12
1.6899571e-12
1.2657713e-12
1.1432751e-12
1.6516404e-12
1.8311496e-12
7.9299391e-13
6.5189664e-13
1.8351588e-12
1.3343267e-12
2.3292287e-12
3.4273018e-12
2.4207469e-12
7.624052e-13
3.6680487e-13
1.9635119e-12
9.1096978e-13
3.7813125e-12
1.950246e-12
3.7126184e-11
1.9826773e-12
2.6526232e-12
1.1429851e-12
1.0876593e-12
6.0724819e-12
6.7531049e-12
2.537703e-10
2.5809767e-11
5.5611338e-12
2.9627618e-11
4.5908645e-12
1.0237693e-11
7.6754279e-12
1.36703e-12
1.1047455e-11
9.8057632e-12
1.6447791e-11
1.3919008e-11
2.1844147e-11
1.9986178e-11
2.2649753e-11
2.4737135e-11
2.195012e-11
1.781653e-11
1.2002156e-11
8.814384e-12
6.6104381e-12
5.7982758e-12
4.7657299e-12
7.45886e-11
7.8247674e-11
7.7577003e-11
6.965403e-11
5.6109693e-11
3.9216145e-11
2.3720166e-11
1.2280917e-11
5.6520332e-12
2.5425486e-12
1.3225597e-12
7.2329936e-13
3.7908125e-13
2.724731e-13
2.0968981e-13
1.8287836e-13
1.7936934e-13
1.7518025e-13
1.7581325e-13
1.8000144e-13
1.794558e-13
1.804842e-13
1.8157225e-13
1.8482493e-13
1.9157381e-13
1.9963995e-13
2.121178e-13
2.2856902e-13
2.4842258e-13
2.7294391e-13
3.0298459e-13
3.3943988e-13
3.8361254e-13
4.3662019e-13
4.9969023e-13
5.7364195e-13
6.5825535e-13
7.5484853e-13
8.6252108e-13
9.8099903e-13
1.1126835e-12
1.2710286e-12
1.4528698e-12
1.6582352e-12
1.8852008e-12
2.135073e-12
2.4081934e-12
2.7050274e-12
3.0318816e-12
3.3918466e-12
3.7796819e-12
4.1887323e-12
4.6137785e-12
5.0397925e-12
5.4507725e-12
5.8297722e-12
6.1656274e-12
6.423285e-12
6.6031459e-12
6.6838339e-12
6.7382209e-12
6.7998361e-12
7.2095913e-12
8.5020955e-12
1.0138218e-11
1.1723626e-11
1.329368e-11
1.4825612e-11
1.6327149e-11
1.7816196e-11
1.9294224e-11
2.0723874e-11
2.2117865e-11
2.3496939e-11
2.4856408e-11
2.6197965e-11
2.7523484e-11
2.8836758e-11
3.0139954e-11
3.1433069e-11
3.2714926e-11
3.3985695e-11
3.524635e-11
3.6497435e-11
3.7738315e-11
3.8968553e-11
4.0187251e-11
4.1394084e-11
4.2589193e-11
4.3772121e-11
4.4940014e-11
4.6090863e-11
4.7223878e-11
4.8337647e-11
4.943105e-11
5.0503172e-11
5.155349e-11
5.2581614e-11
5.3585797e-11
5.4564867e-11
5.5517712e-11
5.6443088e-11
5.7340209e-11
5.8209084e-11
5.9049194e-11
5.9859033e-11
6.0638546e-11
6.1387201e-11
6.2102742e-11
6.2784206e-11
6.3430719e-11
6.4042308e-11
6.4618956e-11
6.5162004e-11
6.5672791e-11
6.6151817e-11
6.6596691e-11
6.7002892e-11
6.7370802e-11
6.7706388e-11
6.8012016e-11
6.8283624e-11
6.8521006e-11
6.8726092e-11
6.8899844e-11
6.9042358e-11
6.9153369e-11
6.9233965e-11
6.9285132e-11
6.9307933e-11
6.9302592e-11
6.9271e-11
6.9213748e-11
6.9131086e-11
6.9023305e-11
6.8892493e-11
6.873947e-11
6.8565096e-11
6.8370739e-11
6.8157732e-11
6.7924969e-11
6.7672772e-11
6.7402232e-11
6.7117799e-11
6.6820771e-11
6.6505701e-11
6.6172141e-11
6.5826332e-11
6.5470433e-11
6.5100064e-11
6.4717765e-11
6.4329079e-11
6.3933769e-11
6.3532051e-11
6.3124626e-11
6.2722757e-11
6.2325395e-11
6.1931164e-11
6.155244e-11
6.1178683e-11
6.0771676e-11
6.0253612e-11
5.9571434e-11
5.8862999e-11
5.8276447e-11
5.7788414e-11
5.7330366e-11
5.6869776e-11
5.640195e-11
5.5925782e-11
5.5441069e-11
5.4946763e-11
5.4450586e-11
5.394129e-11
5.3409511e-11
5.2877473e-11
5.2350335e-11
5.1817323e-11
5.1278905e-11
5.0737578e-11
5.0188784e-11
4.9632336e-11
4.9064984e-11
4.8493338e-11
4.7918451e-11
4.7333024e-11
4.6729693e-11
4.6112581e-11
4.5484594e-11
4.4849443e-11
4.420478e-11
4.3521351e-11
4.2800144e-11
4.2068554e-11
4.1318042e-11
4.0533794e-11
3.9690391e-11
3.882659e-11
3.7940057e-11
3.6985738e-11
3.5939565e-11
3.4836151e-11
3.3688878e-11
3.2477633e-11
3.1173348e-11
2.981367e-11
2.8329822e-11
2.6826051e-11
2.6188633e-11
2.6228939e-11
2.663837e-11
2.6920201e-11
2.7211276e-11
2.7574996e-11
2.8033586e-11
2.8014468e-11
2.8387352e-11
2.8477084e-11
2.7672996e-11
2.8507828e-11
2.8267773e-11
2.2373424e-11
3.629214e-11
2.7696146e-11
2.5112376e-11
3.6366418e-11
3.9939275e-11
1.6430312e-11
1.3576638e-11
3.823898e-11
2.8785564e-11
2.2197981e-11
2.232911e-11
1.9708611e-11
9.8739014e-12
7.4268977e-12
1.0158433e-11
9.6263096e-12
2.1142937e-11
2.9170298e-11
6.6375112e-11
1.9572046e-11
2.2905608e-11
2.1512049e-11
1.9507186e-11
2.1593446e-11
2.3873621e-11
1.0301818e-10
3.3226819e-11
3.4196461e-11
4.800359e-11
1.7150021e-11
4.0197623e-11
2.3009854e-11
2.956705e-11
7.1977265e-11
7.3716298e-11
7.6613405e-11
5.7809118e-11
5.8625245e-11
6.997979e-11
1.0816046e-10
1.359123e-10
1.3608365e-10
1.2211636e-10
1.0024566e-10
8.5299897e-11
7.6127019e-11
7.0762375e-11
6.9112137e-11
5.9298207e-10
6.2202631e-10
6.1200602e-10
5.4873566e-10
4.4146827e-10
3.1201566e-10
1.9160644e-10
9.9933923e-11
4.4102384e-11
1.7799524e-11
8.1790338e-12
4.2988568e-12
2.2541828e-12
1.6087827e-12
1.2990942e-12
1.1589901e-12
1.1242535e-12
1.1187186e-12
1.1256042e-12
1.1424202e-12
1.1561441e-12
1.1734334e-12
1.1979313e-12
1.2414305e-12
1.3062527e-12
1.386513e-12
1.4899709e-12
1.620716e-12
1.7780819e-12
1.9684085e-12
2.1982304e-12
2.4737028e-12
2.804214e-12
3.1981146e-12
3.665113e-12
4.2127245e-12
4.844211e-12
5.5691021e-12
6.3883156e-12
7.2917366e-12
8.3033343e-12
9.5102024e-12
1.0923786e-11
1.2520655e-11
1.4310693e-11
1.6292952e-11
1.8479732e-11
2.0871957e-11
2.3510114e-11
2.642168e-11
2.9571991e-11
3.2907036e-11
3.6379245e-11
3.9888185e-11
4.3283143e-11
4.6434822e-11
4.9243607e-11
5.1443088e-11
5.2980533e-11
5.373417e-11
5.4187822e-11
5.4726034e-11
5.7768913e-11
6.7562134e-11
8.0249076e-11
9.2455144e-11
1.0455803e-10
1.1634873e-10
1.2789043e-10
1.3934052e-10
1.5073925e-10
1.6179667e-10
1.7256002e-10
1.8324234e-10
1.9377376e-10
2.0418963e-10
2.1448878e-10
2.2470925e-10
2.34865e-10
2.4495452e-10
2.5496613e-10
2.6490622e-10
2.7478033e-10
2.8458993e-10
2.943316e-10
3.0400118e-10
3.1359138e-10
3.2309989e-10
3.3252768e-10
3.418718e-10
3.5110953e-10
3.6022426e-10
3.6921009e-10
3.780553e-10
3.8675119e-10
3.9529025e-10
4.036683e-10
4.1188248e-10
4.1991843e-10
4.2776751e-10
4.3541982e-10
4.4286619e-10
4.5009944e-10
4.5712006e-10
4.6392348e-10
4.704975e-10
4.7684132e-10
4.8295083e-10
4.8880814e-10
4.9440451e-10
4.9973296e-10
5.0479306e-10
5.0958415e-10
5.1411736e-10
5.1840208e-10
5.2244359e-10
5.2622102e-10
5.2969786e-10
5.328754e-10
5.3580179e-10
5.3849591e-10
5.4092443e-10
5.4308505e-10
5.4499196e-10
5.4665346e-10
5.4806879e-10
5.4923584e-10
5.5016174e-10
5.5085468e-10
5.51322e-10
5.5156534e-10
5.5159874e-10
5.5142696e-10
5.5105103e-10
5.5047293e-10
5.4970868e-10
5.4876452e-10
5.4764686e-10
5.4636623e-10
5.4493301e-10
5.433377e-10
5.415826e-10
5.396757e-10
5.3765314e-10
5.3552536e-10
5.3324757e-10
5.3081564e-10
5.2827914e-10
5.2565632e-10
5.229109e-10
5.2006351e-10
5.1715827e-10
5.1419369e-10
5.1117155e-10
5.0809607e-10
5.050619e-10
5.0205449e-10
4.9907451e-10
4.9620708e-10
4.9339017e-10
4.9029405e-10
4.8630357e-10
4.8096951e-10
4.7537535e-10
4.7077343e-10
4.6695942e-10
4.6339675e-10
4.5980101e-10
4.5614871e-10
4.5241944e-10
4.4861845e-10
4.4473316e-10
4.4082832e-10
4.368116e-10
4.326071e-10
4.2839452e-10
4.2421655e-10
4.1998596e-10
4.1570652e-10
4.113988e-10
4.0702556e-10
4.0258559e-10
3.9805292e-10
3.9348051e-10
3.8887775e-10
3.8418515e-10
3.7934325e-10
3.7438501e-10
3.6933521e-10
3.6422161e-10
3.5902813e-10
3.5351718e-10
3.4769462e-10
3.4178339e-10
3.3571528e-10
3.2936964e-10
3.2253985e-10
3.1553942e-10
3.0834945e-10
3.0060747e-10
2.9211558e-10
2.8315212e-10
2.7382933e-10
2.6397845e-10
2.5337064e-10
2.4230564e-10
2.3023462e-10
2.1801481e-10
2.1282773e-10
2.1315447e-10
2.1647376e-10
2.1878558e-10
2.2115584e-10
2.2415101e-10
2.2788235e-10
2.2778599e-10
2.3082781e-10
2.3160171e-10
2.2512499e-10
2.320018e-10
2.298302e-10
1.822649e-10
2.9531055e-10
2.2524403e-10
2.0471133e-10
2.963907e-10
3.2437418e-10
1.3274985e-10
1.1103813e-10
3.1063321e-10
2.3338192e-10
1.7171545e-10
1.586516e-10
1.4311632e-10
7.9352841e-11
6.1262671e-11
7.0606071e-11
7.3639579e-11
1.4479984e-10
2.3455742e-10
2.9971653e-10
1.5534982e-10
1.7241336e-10
1.7630433e-10
1.5828672e-10
1.3904978e-10
1.7415721e-10
1.3355978e-10
7.778612e-11
2.5794779e-10
1.6849171e-10
1.1814408e-10
2.6187169e-10
1.3907596e-10
2.3622439e-10
5.2364749e-10
5.5367872e-10
5.2578169e-10
3.9269595e-10
3.4384445e-10
4.5661846e-10
7.572155e-10
9.7866286e-10
9.9940722e-10
9.0663937e-10
7.6493115e-10
6.6047138e-10
5.9808795e-10
5.5835758e-10
5.5154853e-10
2.8490053e-09
2.9884205e-09
2.9376458e-09
2.6333757e-09
2.1181078e-09
1.4989158e-09
9.2228725e-10
4.8178625e-10
2.1192741e-10
8.4558604e-11
3.7942264e-11
1.9773748e-11
1.044724e-11
7.4497805e-12
6.0477014e-12
5.4214475e-12
5.2492607e-12
5.236685e-12
5.27057e-12
5.3433502e-12
5.4188317e-12
5.5067386e-12
5.632379e-12
5.8499214e-12
6.1665594e-12
6.5597535e-12
7.0582786e-12
7.6858892e-12
8.4409298e-12
9.3521226e-12
1.0450655e-11
1.1765614e-11
1.3341556e-11
1.5218325e-11
1.7442576e-11
2.0051156e-11
2.3062472e-11
2.6521752e-11
3.0437985e-11
3.475813e-11
3.9597817e-11
4.5366604e-11
5.2139691e-11
5.9792223e-11
6.8384689e-11
7.7906613e-11
8.8422128e-11
9.9933825e-11
1.1263001e-10
1.266451e-10
1.4181731e-10
1.5788723e-10
1.7462332e-10
1.9155289e-10
2.0793917e-10
2.2316294e-10
2.3674022e-10
2.4739607e-10
2.5484612e-10
2.5852951e-10
2.6072265e-10
2.6332615e-10
2.7780837e-10
3.2458638e-10
3.8536395e-10
4.4379462e-10
5.0173918e-10
5.5817633e-10
6.1341522e-10
6.6822046e-10
7.2279444e-10
7.7575054e-10
8.2728694e-10
8.7845427e-10
9.288978e-10
9.7880034e-10
1.0281472e-09
1.0771259e-09
1.1258008e-09
1.1741639e-09
1.2221588e-09
1.2698187e-09
1.3171686e-09
1.3642143e-09
1.4109404e-09
1.4573265e-09
1.5033376e-09
1.548963e-09
1.5942073e-09
1.6390563e-09
1.6834009e-09
1.7271614e-09
1.7703095e-09
1.8127886e-09
1.8545573e-09
1.8955793e-09
1.9358348e-09
1.9753099e-09
2.0139355e-09
2.0516705e-09
2.0884668e-09
2.1242808e-09
2.1590776e-09
2.1928597e-09
2.225605e-09
2.2572552e-09
2.2878025e-09
2.3172304e-09
2.3454531e-09
2.3724281e-09
2.3981219e-09
2.4225321e-09
2.4456555e-09
2.4675458e-09
2.488247e-09
2.5077847e-09
2.5260576e-09
2.5428908e-09
2.5582902e-09
2.5724871e-09
2.5855711e-09
2.597382e-09
2.6079087e-09
2.6172187e-09
2.6253521e-09
2.6323041e-09
2.6380648e-09
2.6426677e-09
2.6461523e-09
2.6485532e-09
2.6498782e-09
2.6501941e-09
2.6495235e-09
2.6478714e-09
2.6452469e-09
2.6417265e-09
2.63734e-09
2.6321182e-09
2.6261113e-09
2.6193686e-09
2.6118445e-09
2.6035501e-09
2.5945236e-09
2.5849384e-09
2.5748445e-09
2.5640263e-09
2.5524641e-09
2.5403958e-09
2.5279089e-09
2.5148294e-09
2.5012563e-09
2.4874012e-09
2.4732572e-09
2.458833e-09
2.4441492e-09
2.4296614e-09
2.4152975e-09
2.4010676e-09
2.3873733e-09
2.3739242e-09
2.3591245e-09
2.3400163e-09
2.3144287e-09
2.2875834e-09
2.2655199e-09
2.2472337e-09
2.230162e-09
2.2129243e-09
2.1954155e-09
2.1775311e-09
2.1593001e-09
2.1406603e-09
2.1219232e-09
2.1026443e-09
2.08246e-09
2.0622332e-09
2.0421694e-09
2.0218501e-09
2.0012932e-09
1.9805973e-09
1.9595834e-09
1.9382462e-09
1.9164606e-09
1.8944809e-09
1.8723525e-09
1.8497895e-09
1.826506e-09
1.8026601e-09
1.7783718e-09
1.7537734e-09
1.7287882e-09
1.702274e-09
1.6742579e-09
1.6458118e-09
1.6166079e-09
1.5860669e-09
1.5531943e-09
1.5194956e-09
1.4848814e-09
1.4476106e-09
1.4067279e-09
1.3635709e-09
1.3186806e-09
1.271244e-09
1.2201639e-09
1.1668756e-09
1.1087846e-09
1.0500529e-09
1.0251448e-09
1.0267244e-09
1.0427249e-09
1.0538836e-09
1.0653316e-09
1.0798024e-09
1.0977793e-09
1.0973725e-09
1.1120436e-09
1.1156928e-09
1.0847054e-09
1.1178356e-09
1.1063712e-09
8.7947628e-10
1.423185e-09
1.0842943e-09
9.8771019e-10
1.4291994e-09
1.558809e-09
6.3605996e-10
5.3882685e-10
1.4958115e-09
1.1203461e-09
8.2174523e-10
7.4581915e-10
6.6260191e-10
3.8656691e-10
2.9815888e-10
3.2893553e-10
3.510474e-10
6.8147822e-10
1.1429575e-09
1.3211942e-09
7.4148977e-10
8.2049261e-10
8.504434e-10
7.6362708e-10
6.5208201e-10
8.6622409e-10
5.7138786e-10
3.0459712e-10
1.2263279e-09
6.679835e-10
5.6936836e-10
1.2259702e-09
6.388988e-10
1.1206638e-09
2.4732694e-09
2.6230156e-09
2.4518288e-09
1.847478e-09
1.5798219e-09
2.1406507e-09
3.5631705e-09
4.632431e-09
4.7446685e-09
4.3040228e-09
3.652738e-09
3.1613519e-09
2.8682953e-09
2.6794828e-09
2.6509558e-09
1.0009096e-08
1.0498457e-08
1.0317111e-08
9.2472505e-09
7.4366318e-09
5.2643664e-09
3.2417186e-09
1.695412e-09
7.4623504e-10
2.9741656e-10
1.3233023e-10
6.8783424e-11
3.6473417e-11
2.59765e-11
2.1136993e-11
1.8968292e-11
1.8354653e-11
1.8318509e-11
1.8438393e-11
1.8690059e-11
1.8962597e-11
1.927532e-11
1.9721569e-11
2.0490033e-11
2.1604383e-11
2.2989058e-11
2.4739628e-11
2.6942624e-11
2.9592749e-11
3.2789706e-11
3.6642891e-11
4.1254102e-11
4.6779451e-11
5.3358806e-11
6.115618e-11
7.0302231e-11
8.0864084e-11
9.3000115e-11
1.0674568e-10
1.219113e-10
1.3889774e-10
1.5914075e-10
1.8292239e-10
2.0979655e-10
2.3998462e-10
2.7344513e-10
3.1040727e-10
3.5087721e-10
3.9550812e-10
4.4477712e-10
4.9812392e-10
5.546377e-10
6.135028e-10
6.7306528e-10
7.3072728e-10
7.8431092e-10
8.3211285e-10
8.6965147e-10
8.9589931e-10
9.0890137e-10
9.1662544e-10
9.257465e-10
9.7641978e-10
1.1404936e-09
1.3538829e-09
1.5590072e-09
1.7624276e-09
1.960531e-09
2.1544261e-09
2.3468122e-09
2.5383843e-09
2.724281e-09
2.905178e-09
3.084794e-09
3.261861e-09
3.4370371e-09
3.6102617e-09
3.7821988e-09
3.9530701e-09
4.1228459e-09
4.2913319e-09
4.4586472e-09
4.6248757e-09
4.7900383e-09
4.954082e-09
5.116935e-09
5.2784751e-09
5.4386656e-09
5.5975227e-09
5.754996e-09
5.9107025e-09
6.0643631e-09
6.2158789e-09
6.365051e-09
6.511734e-09
6.6558017e-09
6.7971846e-09
6.935833e-09
7.0715054e-09
7.2040578e-09
7.3333208e-09
7.459142e-09
7.5813984e-09
7.7000993e-09
7.8151672e-09
7.9263959e-09
8.0337459e-09
8.1371716e-09
8.2363723e-09
8.3311981e-09
8.4215322e-09
8.507366e-09
8.5886892e-09
8.6656888e-09
8.7385195e-09
8.8072675e-09
8.8715763e-09
8.9308353e-09
8.985068e-09
9.0350835e-09
9.0811929e-09
9.1228337e-09
9.1599687e-09
9.1928339e-09
9.22157e-09
9.246158e-09
9.2665639e-09
9.2829049e-09
9.2953196e-09
9.3039273e-09
9.3087571e-09
9.3100421e-09
9.3078612e-09
9.3022316e-09
9.2931857e-09
9.2809911e-09
9.2657521e-09
9.2475765e-09
9.2266403e-09
9.2031159e-09
9.1768428e-09
9.1478612e-09
9.1163053e-09
9.0827834e-09
9.0474677e-09
9.0096036e-09
8.9691235e-09
8.926861e-09
8.8831225e-09
8.837298e-09
8.7897374e-09
8.7411792e-09
8.6916012e-09
8.6410345e-09
8.5895555e-09
8.5387593e-09
8.4883935e-09
8.438503e-09
8.3904937e-09
8.3433317e-09
8.2914127e-09
8.2243188e-09
8.1344201e-09
8.0401741e-09
7.9627546e-09
7.8985564e-09
7.8386291e-09
7.7781112e-09
7.7166416e-09
7.6538456e-09
7.5898297e-09
7.5243758e-09
7.4585725e-09
7.3908602e-09
7.3199699e-09
7.2489252e-09
7.1784461e-09
7.1070674e-09
7.0348524e-09
6.9621445e-09
6.8883159e-09
6.8133504e-09
6.7368074e-09
6.6595783e-09
6.5818228e-09
6.5025371e-09
6.4207196e-09
6.336923e-09
6.2515707e-09
6.1651248e-09
6.0773145e-09
5.9841323e-09
5.885674e-09
5.7856978e-09
5.6830524e-09
5.5757092e-09
5.4601769e-09
5.3417292e-09
5.2200593e-09
5.0890587e-09
4.9453659e-09
4.7936741e-09
4.6358809e-09
4.4691363e-09
4.2895927e-09
4.102268e-09
3.8982222e-09
3.6922029e-09
3.6049352e-09
3.6105094e-09
3.6668394e-09
3.7061356e-09
3.746516e-09
3.797508e-09
3.8607363e-09
3.8594441e-09
3.911073e-09
3.9235055e-09
3.8153866e-09
3.9316136e-09
3.8875084e-09
3.0982717e-09
5.0066777e-09
3.8105341e-09
3.4787491e-09
5.0291656e-09
5.4662306e-09
2.2250233e-09
1.909895e-09
5.2564303e-09
3.9241424e-09
2.8811245e-09
2.6127099e-09
2.2913649e-09
1.3807931e-09
1.0457381e-09
1.1459733e-09
1.2381638e-09
2.4039766e-09
4.1013673e-09
4.5826336e-09
2.569976e-09
2.8724077e-09
2.991794e-09
2.6806344e-09
2.2844682e-09
3.1093247e-09
1.7823539e-09
1.0434163e-09
4.2631517e-09
2.2174304e-09
2.0164897e-09
4.2883738e-09
2.2262199e-09
3.9425508e-09
8.5991432e-09
9.1420048e-09
8.4883679e-09
6.4596186e-09
5.4724769e-09
7.4522059e-09
1.2396941e-08
1.6138819e-08
1.655047e-08
1.501254e-08
1.2786469e-08
1.1083012e-08
1.0064926e-08
9.4060636e-09
9.3135905e-09
2.8571868e-08
2.996772e-08
2.9442801e-08
2.6385791e-08
2.1216026e-08
1.5022365e-08
9.2574458e-09
4.8481088e-09
2.1369979e-09
8.5225505e-10
3.7761006e-10
1.9600704e-10
1.041291e-10
7.3929853e-11
6.0382921e-11
5.4153839e-11
5.2381577e-11
5.2281812e-11
5.2626031e-11
5.334503e-11
5.4132584e-11
5.5031107e-11
5.6308991e-11
5.8503697e-11
6.168423e-11
6.5637637e-11
7.0632103e-11
7.6918255e-11
8.4480413e-11
9.3601893e-11
1.0459512e-10
1.1775018e-10
1.3351242e-10
1.522814e-10
1.7452588e-10
2.00622e-10
2.3076526e-10
2.6540691e-10
3.0465285e-10
3.4795834e-10
3.9645127e-10
4.5423478e-10
5.2213919e-10
5.9888764e-10
6.8512171e-10
7.8071576e-10
8.8632974e-10
1.0019737e-09
1.1294943e-09
1.2702676e-09
1.4227128e-09
1.584232e-09
1.7524902e-09
1.9227711e-09
2.0876452e-09
2.2408809e-09
2.3776146e-09
2.4850285e-09
2.5601398e-09
2.5973817e-09
2.6194809e-09
2.6453565e-09
2.7894883e-09
3.2575047e-09
3.8666791e-09
4.452222e-09
5.032884e-09
5.5982808e-09
6.1516596e-09
6.7007653e-09
7.2475057e-09
7.7780227e-09
8.294221e-09
8.806778e-09
9.3120235e-09
9.8118761e-09
1.0306144e-08
1.0796737e-08
1.1284273e-08
1.1768667e-08
1.2249379e-08
1.2726752e-08
1.3201015e-08
1.3672232e-08
1.4140257e-08
1.4604884e-08
1.5065767e-08
1.5522806e-08
1.5976048e-08
1.6425345e-08
1.6869607e-08
1.7308042e-08
1.7740367e-08
1.8166017e-08
1.8584577e-08
1.8995691e-08
1.9399162e-08
1.9794846e-08
2.0182058e-08
2.0560386e-08
2.0929349e-08
2.1288514e-08
2.1637528e-08
2.197642e-08
2.230497e-08
2.2622575e-08
2.2929098e-08
2.3224442e-08
2.3507753e-08
2.3778603e-08
2.4036661e-08
2.42819e-08
2.4514295e-08
2.4734378e-08
2.4942584e-08
2.5139151e-08
2.5323057e-08
2.5492575e-08
2.5647781e-08
2.5790971e-08
2.5923022e-08
2.6042329e-08
2.6148793e-08
2.6243081e-08
2.6325596e-08
2.6396277e-08
2.6455027e-08
2.6502182e-08
2.6538134e-08
2.6563221e-08
2.6577527e-08
2.6581714e-08
2.6576003e-08
2.6560446e-08
2.6535136e-08
2.6500831e-08
2.6457826e-08
2.6406434e-08
2.6347152e-08
2.6280466e-08
2.6205924e-08
2.6123639e-08
2.6034e-08
2.5938735e-08
2.5838326e-08
2.5730629e-08
2.5615456e-08
2.5495181e-08
2.5370671e-08
2.5240196e-08
2.5104755e-08
2.4966446e-08
2.4825207e-08
2.4681133e-08
2.4534454e-08
2.4389703e-08
2.4246168e-08
2.4104003e-08
2.3967214e-08
2.3832782e-08
2.3684735e-08
2.3493219e-08
2.3236451e-08
2.2967562e-08
2.2746809e-08
2.2563626e-08
2.2392637e-08
2.2219948e-08
2.2044537e-08
2.1865321e-08
2.1682613e-08
2.1495797e-08
2.1307958e-08
2.111465e-08
2.0912283e-08
2.0709458e-08
2.0508226e-08
2.030442e-08
2.0098224e-08
1.9890605e-08
1.9679777e-08
1.9465701e-08
1.9247115e-08
1.9026559e-08
1.8804486e-08
1.8578035e-08
1.8344357e-08
1.8105019e-08
1.7861235e-08
1.761432e-08
1.7363487e-08
1.7097319e-08
1.6816095e-08
1.6530514e-08
1.6237288e-08
1.5930653e-08
1.5600648e-08
1.5262278e-08
1.4914689e-08
1.4540469e-08
1.4130008e-08
1.3696686e-08
1.3245902e-08
1.276955e-08
1.2256663e-08
1.1721478e-08
1.1139001e-08
1.0551677e-08
1.0303214e-08
1.0319182e-08
1.0480383e-08
1.0592837e-08
1.0708632e-08
1.0854639e-08
1.103538e-08
1.1032091e-08
1.1179694e-08
1.1213931e-08
1.0907732e-08
1.1238585e-08
1.1100788e-08
8.8719551e-09
1.4314235e-08
1.0884918e-08
9.9581648e-09
1.4378531e-08
1.5573334e-08
6.3257194e-09
5.5050497e-09
1.5004252e-08
1.1164844e-08
8.211512e-09
7.4497114e-09
6.4824988e-09
3.9780657e-09
2.9781396e-09
3.2629454e-09
3.5543953e-09
6.8897921e-09
1.1938357e-08
1.3023609e-08
7.250278e-09
8.1859926e-09
8.5551265e-09
7.6441476e-09
6.4972276e-09
8.9291176e-09
4.7745986e-09
2.9538907e-09
1.2191528e-08
6.1937677e-09
5.7738669e-09
1.2233583e-08
6.356941e-09
1.1397586e-08
2.4273338e-08
2.5929159e-08
2.3951545e-08
1.8378845e-08
1.5469899e-08
2.1081493e-08
3.5048305e-08
4.5617578e-08
4.6843665e-08
4.2525572e-08
3.6336365e-08
3.1553049e-08
2.8686364e-08
2.6822832e-08
2.6584877e-08
7.0413194e-08
7.3851705e-08
7.2537105e-08
6.4995251e-08
5.2253928e-08
3.7012374e-08
2.2830925e-08
1.1976713e-08
5.289498e-09
2.1117801e-09
9.3332222e-10
4.8374594e-10
2.574894e-10
1.8221574e-10
1.4923834e-10
1.3372446e-10
1.2930476e-10
1.2905558e-10
1.2991031e-10
1.3169289e-10
1.3365359e-10
1.3588221e-10
1.3903931e-10
1.4444933e-10
1.522899e-10
1.6203826e-10
1.7435072e-10
1.8985138e-10
2.0849916e-10
2.3099054e-10
2.5809707e-10
2.9053345e-10
3.2939765e-10
3.7567632e-10
4.3052724e-10
4.9488606e-10
5.6924322e-10
6.5470914e-10
7.5155511e-10
8.5842912e-10
9.7807385e-10
1.1206301e-09
1.2881922e-09
1.4776109e-09
1.6904896e-09
1.9264998e-09
2.1872819e-09
2.4728385e-09
2.7876835e-09
3.1352504e-09
3.5116793e-09
3.910575e-09
4.3261542e-09
4.746793e-09
5.1541415e-09
5.5327876e-09
5.8707388e-09
6.1363092e-09
6.3220196e-09
6.4141712e-09
6.4687845e-09
6.5319655e-09
6.8858407e-09
8.03915e-09
9.5416275e-09
1.0985668e-08
1.2417567e-08
1.3811519e-08
1.517578e-08
1.6529572e-08
1.7877369e-08
1.9185053e-08
2.0457262e-08
2.1720501e-08
2.2965586e-08
2.4197358e-08
2.5415297e-08
2.6624154e-08
2.7825412e-08
2.9018862e-08
3.0203219e-08
3.1379336e-08
3.2547752e-08
3.3708641e-08
3.4861653e-08
3.6006287e-08
3.7141695e-08
3.8267647e-08
3.9384263e-08
4.0491175e-08
4.1585696e-08
4.2665894e-08
4.3731077e-08
4.4779849e-08
4.58112e-08
4.6824261e-08
4.7818553e-08
4.8793718e-08
4.9748075e-08
5.0680618e-08
5.1590159e-08
5.2475639e-08
5.3336191e-08
5.4171888e-08
5.4982196e-08
5.5765546e-08
5.6521595e-08
5.7250171e-08
5.7949187e-08
5.8617583e-08
5.9254546e-08
5.9860014e-08
6.0433933e-08
6.0977601e-08
6.1492081e-08
6.1977922e-08
6.2432606e-08
6.2851912e-08
6.3236056e-08
6.3590657e-08
6.3917838e-08
6.4213651e-08
6.447786e-08
6.4712105e-08
6.4917368e-08
6.5093481e-08
6.5240213e-08
6.5358378e-08
6.5448945e-08
6.5512732e-08
6.554995e-08
6.5562213e-08
6.5550062e-08
6.5513625e-08
6.5453135e-08
6.5370441e-08
6.526627e-08
6.5141393e-08
6.4997024e-08
6.483435e-08
6.4652261e-08
6.4451046e-08
6.4231665e-08
6.3998361e-08
6.3752295e-08
6.3488207e-08
6.3205651e-08
6.2910457e-08
6.2604746e-08
6.2284285e-08
6.1951535e-08
6.1611638e-08
6.1264453e-08
6.0910222e-08
6.0549557e-08
6.0193568e-08
5.9840532e-08
5.94909e-08
5.9154534e-08
5.8823796e-08
5.8459373e-08
5.7987275e-08
5.7353806e-08
5.6691275e-08
5.614775e-08
5.5696362e-08
5.5275033e-08
5.484947e-08
5.4417161e-08
5.3975416e-08
5.352502e-08
5.3064472e-08
5.260132e-08
5.212462e-08
5.1625601e-08
5.1125402e-08
5.0629054e-08
5.0126339e-08
4.9617711e-08
4.9105523e-08
4.8585385e-08
4.8057226e-08
4.751792e-08
4.6973714e-08
4.6425717e-08
4.5866896e-08
4.529024e-08
4.4699593e-08
4.4097967e-08
4.3488586e-08
4.2869464e-08
4.2212526e-08
4.1518463e-08
4.081358e-08
4.0089763e-08
3.9332876e-08
3.8518377e-08
3.7683121e-08
3.6825054e-08
3.5901309e-08
3.4888168e-08
3.3818558e-08
3.2705754e-08
3.1529832e-08
3.0263805e-08
2.8942523e-08
2.7505684e-08
2.6058773e-08
2.5447483e-08