/*--------------------------------*- C++ -*----------------------------------*\
| =========                 |                                                 |
| \\      /  F ield         | OpenFOAM: The Open Source CFD Toolbox           |
|  \\    /   O peration     | Version:  2.4.0                                 |
|   \\  /    A nd           | Web:      www.OpenFOAM.org                      |
|    \\/     M anipulation  |                                                 |
\*---------------------------------------------------------------------------*/
FoamFile
{
    version     2.0;
    format      ascii;
    class       volScalarField;
    location    "900";
    object      omega_0;
}
// * * * * * * * * * * * * * * * * * * * * * * * * * * * * * * * * * * * * * //

dimensions      [0 0 -1 0 0 0 0];

internalField   nonuniform List<scalar> 
78300
(
288636.63
288686.54
288700.32
288833.65
289515.6
291432.02
295479.08
302673.01
314010.37
329813.04
346787.82
362441.63
375829.98
386411.76
393919.79
398343.7
399991.89
399060.36
395721.33
390174.45
382632.29
373308
362413.46
350675.33
339521.98
329123.31
319421.78
310364.21
301901.89
293992.53
286594.56
279672.29
273192.3
267123.9
261439.18
256109.32
250877.53
245350.68
239525.68
233441.11
227134.93
220644.17
214005.21
207254.37
200428.97
193566.99
186709.47
179903.22
173262.16
167044.3
161298.04
156019.07
151204.62
146855.25
142973.85
139564.67
136634.53
134192.24
132247.52
130811.23
129895.27
129511.99
129657.27
129783.85
129783.85
129783.85
129783.85
129783.85
129783.85
129783.85
129783.85
129783.85
129783.85
129783.85
129783.85
129783.85
129783.85
129783.85
129783.85
129783.85
129783.85
129783.85
129783.85
129783.85
129783.85
129783.85
129783.85
129783.85
129783.85
129783.85
129783.85
129783.85
129783.85
129783.85
129783.85
129783.85
129783.85
129783.85
129783.85
129783.85
129783.85
129783.85
129783.85
129783.85
129783.85
129783.85
129783.85
129783.85
129783.85
129783.85
129783.85
129783.85
129783.85
129783.85
129783.85
129783.85
129783.85
129783.85
129783.85
129783.85
129783.85
129783.85
129783.84
129783.85
129783.85
129783.85
129783.85
129783.84
129783.85
129783.85
129783.85
129783.85
129783.85
129783.85
129783.85
129783.85
129783.84
129783.85
129783.85
129783.84
129783.85
129783.85
129783.85
129783.85
129783.85
129783.84
129783.85
129783.85
129783.85
129783.85
129783.85
129783.85
129783.85
129783.85
129783.84
129783.85
129783.85
129783.85
129783.84
129783.85
129783.85
129783.84
129783.85
129783.85
129783.84
129783.85
129783.85
129783.84
129783.85
129783.85
129783.85
129783.85
129783.85
129783.85
129783.85
129783.84
129783.85
129783.85
129783.85
129783.85
129783.85
129783.85
129783.85
129783.85
129783.85
129783.85
129783.85
129783.85
129783.85
129783.85
129783.85
129783.85
129783.85
129783.85
129783.84
129783.85
129783.85
129783.84
129783.85
129783.85
129783.85
129783.85
129783.85
129783.84
129783.85
129783.85
129783.84
129657.28
129512.01
129895.29
130811.3
132247.51
134192.34
136634.64
139564.65
142973.98
146855.32
151204.67
156018.82
161297.58
167043.87
173262.26
179902.7
186708.68
193567.05
200429.57
207253.32
214004.05
220644.49
227134.65
233439.26
239524.1
245352.66
250877.68
256108.08
261440.19
267124.37
273191.43
279670.55
286594.56
293991.42
301901.42
310366.52
319421.34
329122.77
339524.26
350675.5
362412.64
373310.24
382630.09
390168.84
395719.59
399058.72
399989.89
398342.36
393921.49
386411.4
375828.68
362441.01
346789.96
329814.85
314010.09
302672.87
295478.99
291431.81
289515.62
288834.57
288701.21
288686.52
288636.62
48842.313
48850.039
48851.746
48873.926
48989.167
49313.064
49997.064
51212.869
53128.976
55800.569
56987.478
59050.451
63218.765
64019.814
66588.27
67400.63
67679.755
67522.988
66958.4
66020.58
64745.27
63168.35
61325.642
59339.772
57452.426
55692.712
54050.983
52518.211
51086.2
49747.755
48495.868
47324.46
46227.897
45200.973
44238.957
43337.039
42451.899
41516.906
40531.453
39502.209
38435.269
37337.205
36214.046
35071.946
33917.188
32756.237
31596.042
30444.503
29320.778
28268.593
27296.214
26402.872
25588.155
24852.142
24195.303
23618.383
23122.543
22709.254
22380.167
22137.132
21982.16
21917.341
21941.462
21962.055
21961.778
21961.761
21961.747
21961.737
21961.731
21961.719
21961.71
21961.703
21961.699
21961.694
21961.691
21961.688
21961.685
21961.682
21961.68
21961.679
21961.677
21961.675
21961.673
21961.672
21961.671
21961.67
21961.669
21961.668
21961.666
21961.665
21961.664
21961.663
21961.661
21961.66
21961.659
21961.658
21961.656
21961.655
21961.654
21961.652
21961.651
21961.649
21961.648
21961.646
21961.645
21961.643
21961.642
21961.641
21961.64
21961.638
21961.638
21961.637
21961.636
21961.634
21961.634
21961.632
21961.63
21961.63
21961.628
21961.627
21961.626
21961.624
21961.624
21961.622
21961.621
21961.619
21961.618
21961.616
21961.616
21961.615
21961.613
21961.612
21961.611
21961.61
21961.609
21961.607
21961.607
21961.606
21961.604
21961.603
21961.603
21961.602
21961.6
21961.6
21961.599
21961.598
21961.597
21961.597
21961.595
21961.595
21961.595
21961.594
21961.594
21961.593
21961.592
21961.592
21961.591
21961.591
21961.59
21961.589
21961.587
21961.586
21961.588
21961.59
21961.589
21961.589
21961.589
21961.588
21961.588
21961.588
21961.588
21961.587
21961.587
21961.587
21961.587
21961.587
21961.587
21961.587
21961.587
21961.588
21961.587
21961.587
21961.587
21961.587
21961.588
21961.588
21961.588
21961.588
21961.589
21961.589
21961.588
21961.589
21961.59
21961.59
21961.59
21961.592
21961.592
21961.593
21961.593
21961.594
21961.595
21961.596
21961.598
21961.6
21961.601
21961.604
21961.848
21941.272
21917.304
21982.176
22137.162
22380.188
22709.283
23122.574
23618.398
24195.36
24852.173
25588.175
26402.93
27296.049
28268.787
29320.843
30444.398
31595.818
32756.45
33917.397
35071.986
36213.334
37337.155
38437.858
39497.868
40529.867
39923.819
40703.328
42592.142
44161.563
43279.304
46661.086
45552.291
50391.872
48444.81
50856.46
50476.008
52047.662
55697.006
55524.863
57011.909
58787.166
61166.212
63159.979
62836.063
66964.735
64791.826
65208.41
68472.867
64207.51
65248.167
61401.343
61332.839
57363.223
55814.418
53042.405
51211.439
49993.972
48804.839
48983.535
48872.816
48853.014
48850.803
48843.051
16150.55
16152.742
16153.094
16160.508
16198.992
16306.239
16532.098
16933.178
17565.08
18447.712
19043.319
19801.206
20889.992
21237.164
22062.15
22284.363
22377.363
22326.01
22139.887
21830.228
21409.006
20888.037
20279.078
19622.557
18998.422
18416.481
17873.526
17366.62
16893.058
16450.402
16036.401
15649.007
15286.362
14946.744
14628.589
14330.349
14037.728
13728.665
13402.906
13062.745
12710.024
12347.032
11975.732
11598.164
11216.397
10832.574
10448.997
10068.267
9696.6853
9348.7143
9027.1328
8731.679
8462.231
8218.8061
8001.5659
7810.7568
7646.7632
7510.0749
7401.2382
7320.8726
7269.6407
7248.2724
7256.1075
7262.4925
7262.2268
7262.2029
7262.1818
7262.1665
7262.1579
7262.1428
7262.1295
7262.1196
7262.1145
7262.1086
7262.1044
7262.1004
7262.0975
7262.095
7262.0928
7262.0915
7262.0899
7262.0882
7262.0871
7262.0861
7262.0852
7262.0842
7262.0833
7262.0823
7262.0813
7262.0802
7262.0789
7262.0777
7262.0763
7262.0749
7262.0733
7262.0717
7262.07
7262.0682
7262.0663
7262.0642
7262.062
7262.0598
7262.0574
7262.0549
7262.0522
7262.0496
7262.0472
7262.0452
7262.0431
7262.0409
7262.0386
7262.0363
7262.0338
7262.0313
7262.0287
7262.0259
7262.0229
7262.0202
7262.0173
7262.0145
7262.0114
7262.0083
7262.0053
7262.0023
7261.9992
7261.996
7261.9929
7261.9897
7261.9868
7261.9836
7261.9807
7261.9775
7261.9746
7261.9716
7261.9686
7261.9658
7261.9628
7261.9601
7261.9574
7261.9546
7261.952
7261.9495
7261.9469
7261.9445
7261.942
7261.9397
7261.9376
7261.9354
7261.9332
7261.9312
7261.9294
7261.9275
7261.9258
7261.9241
7261.9224
7261.9209
7261.9194
7261.9176
7261.9156
7261.9129
7261.9096
7261.9073
7261.9096
7261.9133
7261.9118
7261.9105
7261.9094
7261.908
7261.9073
7261.9063
7261.9056
7261.9049
7261.9043
7261.9036
7261.9033
7261.903
7261.9029
7261.9025
7261.9023
7261.9022
7261.9021
7261.902
7261.902
7261.902
7261.9021
7261.9022
7261.9024
7261.9026
7261.9032
7261.9034
7261.9035
7261.904
7261.9049
7261.9056
7261.9062
7261.9072
7261.9084
7261.9102
7261.9111
7261.912
7261.914
7261.9165
7261.9194
7261.9222
7261.9243
7261.9284
7262.1402
7255.7887
7248.1924
7269.6568
7320.9056
7401.2788
7510.1174
7646.8023
7810.7805
8001.6028
8218.8306
8462.2433
8731.7033
9027.0354
9348.8274
9696.8592
10068.006
10448.832
10832.48
11216.559
11597.87
11975.692
12346.995
12711.351
13060.782
13400.881
13427.211
13743.945
14290.418
14336.971
14696.137
15565.833
14824.331
16655.846
16279.103
16772.981
16837.764
17420.804
18327.148
18456
18356.904
19001.807
19688.602
20972.75
20853.802
21904.746
21623.775
21980.767
23101.439
21409.485
21683.062
20588.9
20340.069
19112.59
18420.999
17600.396
16933.848
16526.143
16197.889
16199.616
16162.012
16155.129
16154.257
16151.677
7445.0508
7445.8447
7446.0528
7449.8117
7468.1138
7517.8874
7621.8738
7806.053
8095.9605
8501.7508
8829.2024
9201.0151
9653.4298
9807.8034
10182.04
10270.507
10313.927
10290.452
10205.113
10062.631
9868.7068
9628.8281
9348.3387
9045.7893
8758.0549
8489.7749
8239.4404
8005.7369
7787.4125
7583.3319
7392.4652
7213.865
7046.674
6890.1007
6743.4207
6605.9321
6471.0801
6328.6815
6178.5891
6021.8387
5859.3272
5692.0575
5520.9522
5346.9521
5171.0055
4994.1103
4817.3221
4641.8354
4470.5464
4310.1092
4161.8349
4025.6059
3901.3601
3789.1155
3688.9447
3600.9595
3525.3376
3462.3103
3412.1293
3375.088
3351.4894
3341.7186
3345.355
3348.1009
3347.8685
3347.8426
3347.8185
3347.8029
3347.7945
3347.7801
3347.7653
3347.7561
3347.7528
3347.748
3347.7454
3347.743
3347.742
3347.7411
3347.7409
3347.7413
3347.7414
3347.7414
3347.742
3347.7426
3347.7431
3347.7436
3347.744
3347.7443
3347.7444
3347.7442
3347.7438
3347.7433
3347.7425
3347.7416
3347.7404
3347.739
3347.7374
3347.7356
3347.7335
3347.7311
3347.7285
3347.7256
3347.7225
3347.7192
3347.7156
3347.7118
3347.7083
3347.705
3347.7015
3347.6977
3347.6938
3347.6897
3347.6854
3347.6808
3347.6762
3347.6712
3347.6661
3347.661
3347.6557
3347.6504
3347.6448
3347.6391
3347.6335
3347.6277
3347.6219
3347.616
3347.6101
3347.6042
3347.5983
3347.5924
3347.5865
3347.5807
3347.5748
3347.569
3347.5633
3347.5577
3347.5521
3347.5466
3347.5412
3347.5359
3347.5306
3347.5255
3347.5205
3347.5156
3347.5107
3347.506
3347.5016
3347.4972
3347.4929
3347.4888
3347.4849
3347.481
3347.4774
3347.4738
3347.4705
3347.4671
3347.4639
3347.4604
3347.4565
3347.4517
3347.4459
3347.4416
3347.4444
3347.4486
3347.4459
3347.4434
3347.4409
3347.4385
3347.4366
3347.4347
3347.433
3347.4315
3347.43
3347.4287
3347.4277
3347.4269
3347.426
3347.4253
3347.4246
3347.424
3347.4235
3347.423
3347.4227
3347.4226
3347.4224
3347.4223
3347.4224
3347.4226
3347.423
3347.4233
3347.4233
3347.4238
3347.4251
3347.426
3347.4269
3347.4281
3347.4298
3347.4326
3347.4339
3347.435
3347.4381
3347.4417
3347.4461
3347.45
3347.4534
3347.4591
3347.6245
3344.9309
3341.599
3351.5014
3375.1242
3412.1807
3462.3631
3525.3861
3600.991
3688.9761
3789.1345
3901.3621
4025.6004
4161.7613
4310.1886
4470.7521
4641.4291
4817.0413
4993.9409
5171.0368
5346.6252
5521.1012
5692.0683
5859.658
6020.787
6176.4071
6194.3665
6375.9882
6493.1887
6641.1278
6822.9048
7128.1226
6825.5612
7490.846
7415.9081
7812.4877
7814.142
8140.365
8454.4577
8480.6735
8456.9647
8839.3731
9162.3631
9956.2666
9875.2199
10047.322
10004.342
10154.708
10624.368
9894.9373
10019.217
9561.0299
9363.9402
8850.6699
8494.2891
8126.9184
7808.4362
7623.5017
7488.934
7471.7121
7452.6492
7448.8179
7448.0747
7446.4311
4130.833
4131.1279
4131.4208
4133.9643
4144.7237
4172.7254
4230.3359
4331.9212
4491.5774
4715.5164
4911.0438
5117.1565
5367.0368
5472.9571
5639.7725
5696.7679
5721.0883
5708.1883
5661.0903
5582.1974
5474.7404
5341.8129
5186.3297
5018.5341
4858.8963
4710.0517
4571.1541
4441.4826
4320.3519
4207.1265
4101.2294
4002.1387
3909.3793
3822.5111
3741.1302
3664.8522
3590.0604
3511.1001
3427.8765
3340.9395
3250.8276
3158.0665
3063.1713
2966.6618
2869.069
2770.9476
2672.8816
2575.5354
2480.5069
2391.4812
2309.2003
2233.6041
2164.6501
2102.3593
2046.7682
1997.9382
1955.9674
1920.9908
1893.1476
1872.6088
1859.5392
1854.2064
1856.3298
1857.7719
1857.5687
1857.5436
1857.5193
1857.5063
1857.5008
1857.4892
1857.4752
1857.4689
1857.4692
1857.4673
1857.4681
1857.4688
1857.471
1857.4733
1857.4761
1857.4797
1857.4827
1857.4853
1857.4886
1857.4918
1857.4947
1857.4974
1857.4999
1857.5021
1857.504
1857.5054
1857.5064
1857.5071
1857.5073
1857.5072
1857.5067
1857.5058
1857.5046
1857.5028
1857.5006
1857.4979
1857.4949
1857.4913
1857.4874
1857.4831
1857.4783
1857.4729
1857.4682
1857.4631
1857.4577
1857.4519
1857.4457
1857.4393
1857.4325
1857.4253
1857.4179
1857.41
1857.4018
1857.3935
1857.3851
1857.3765
1857.3675
1857.3584
1857.3492
1857.3398
1857.3303
1857.3207
1857.3111
1857.3014
1857.2918
1857.282
1857.2724
1857.2627
1857.2531
1857.2436
1857.2341
1857.2248
1857.2155
1857.2064
1857.1974
1857.1885
1857.1798
1857.1713
1857.1629
1857.1546
1857.1465
1857.1386
1857.131
1857.1237
1857.1164
1857.1094
1857.1028
1857.0962
1857.09
1857.0839
1857.0782
1857.0724
1857.0668
1857.0611
1857.0546
1857.0472
1857.0384
1857.0315
1857.0345
1857.0386
1857.0342
1857.0301
1857.0259
1857.0221
1857.0187
1857.0155
1857.0125
1857.0098
1857.0072
1857.0048
1857.003
1857.0014
1856.9998
1856.9982
1856.9969
1856.9957
1856.9946
1856.9936
1856.9929
1856.9924
1856.9918
1856.9914
1856.9913
1856.9914
1856.9916
1856.9918
1856.9918
1856.9924
1856.9939
1856.995
1856.9962
1856.9977
1856.9999
1857.0036
1857.0053
1857.007
1857.0111
1857.016
1857.0218
1857.0272
1857.0319
1857.0395
1857.1676
1855.7983
1854.0398
1859.539
1872.6403
1893.2004
1921.0457
1956.0174
1997.9647
2046.7899
2102.3654
2164.6328
2233.5705
2309.1172
2391.5465
2480.6928
2575.0293
2672.4225
2770.8536
2869.0469
2966.2402
3063.4203
3158.1108
3250.4939
3340.1368
3425.5699
3421.3872
3536.5359
3559.8904
3746.7782
3763.5052
3910.0387
3818.2353
4082.2482
4079.8218
4378.1306
4370.9477
4535.3578
4707.5776
4722.3215
4764.1727
5016.8146
5167.0245
5587.5001
5458.3288
5606.6728
5582.1921
5611.8374
5781.3585
5526.4638
5537.8199
5318.4864
5179.8978
4928.7187
4724.6691
4501.2234
4336.3656
4236.2833
4165.6905
4149.958
4138.0244
4134.9613
4134.0784
4132.4315
2570.7245
2570.7818
2571.1967
2573.2729
2580.5482
2598.339
2634.0647
2696.6717
2794.8967
2933.0331
3057.9793
3188.0605
3339.176
3419.8221
3501.9594
3543.336
3558.5307
3550.6025
3521.4174
3472.4308
3405.6588
3323.0546
3226.4041
3122.0549
3022.7433
2930.1456
2843.7333
2763.0555
2687.7011
2617.2659
2551.3879
2489.745
2432.0418
2378.003
2327.3763
2279.9252
2233.4113
2184.312
2132.5629
2078.5061
2022.4724
1964.785
1905.7687
1845.7433
1785.0392
1724.0056
1663.0036
1602.4497
1543.333
1487.9395
1436.7394
1389.6982
1346.7846
1308.0197
1273.4243
1243.0356
1216.9131
1195.1486
1177.8275
1165.0653
1156.9611
1153.7376
1155.1991
1156.0667
1155.8844
1155.8623
1155.8403
1155.832
1155.8315
1155.8245
1155.8134
1155.8114
1155.8169
1155.8193
1155.8248
1155.8298
1155.8365
1155.843
1155.8499
1155.8574
1155.8642
1155.8704
1155.877
1155.8834
1155.8894
1155.8949
1155.9
1155.9046
1155.9087
1155.912
1155.9146
1155.9168
1155.9183
1155.9192
1155.9194
1155.919
1155.918
1155.9163
1155.9139
1155.9108
1155.907
1155.9026
1155.8975
1155.8919
1155.8855
1155.8782
1155.8715
1155.8642
1155.8563
1155.8478
1155.8388
1155.8293
1155.8192
1155.8087
1155.7978
1155.7862
1155.7742
1155.7619
1155.7494
1155.7367
1155.7234
1155.7099
1155.6962
1155.6824
1155.6683
1155.6541
1155.6398
1155.6255
1155.6111
1155.5966
1155.5823
1155.5679
1155.5536
1155.5394
1155.5253
1155.5113
1155.4975
1155.4839
1155.4705
1155.4572
1155.4442
1155.4314
1155.4189
1155.4065
1155.3943
1155.3825
1155.3711
1155.3601
1155.3492
1155.3387
1155.3286
1155.3188
1155.3093
1155.3001
1155.2914
1155.2828
1155.2743
1155.2658
1155.2563
1155.2457
1155.2335
1155.2235
1155.2263
1155.2299
1155.2235
1155.2175
1155.2112
1155.2056
1155.2005
1155.1957
1155.1912
1155.1871
1155.1831
1155.1795
1155.1766
1155.174
1155.1714
1155.169
1155.1668
1155.1648
1155.1632
1155.1615
1155.1603
1155.1593
1155.1583
1155.1576
1155.1572
1155.1571
1155.1572
1155.1574
1155.1573
1155.1579
1155.1597
1155.1611
1155.1626
1155.1646
1155.1674
1155.1716
1155.174
1155.1766
1155.1818
1155.188
1155.1955
1155.2025
1155.2087
1155.2184
1155.3214
1154.5487
1153.5115
1156.9368
1165.0813
1177.8713
1195.1948
1216.9531
1243.0454
1273.4272
1308.0012
1346.7353
1389.6302
1436.6245
1487.9827
1543.5008
1601.8221
1662.3721
1723.956
1784.9658
1845.1741
1906.1345
1964.7951
2021.5924
2077.699
2130.1378
2133.7681
2206.4812
2220.3499
2341.7539
2339.6469
2423.475
2409.4332
2526.8684
2542.022
2730.6047
2740.0224
2827.3574
2927.5788
2964.2281
3018.9646
3170.0542
3265.4044
3438.8686
3377.3845
3525.0027
3493.4976
3494.8115
3533.7254
3457.9053
3433.1277
3314.5133
3223.1866
3075.579
2946.5955
2800.0374
2703.8291
2642.3953
2599.2301
2587.5238
2578.6702
2575.6413
2574.4914
2572.5528
1728.1647
1728.0681
1728.5895
1730.482
1735.9097
1748.1886
1772.0048
1813.4147
1878.3052
1969.9274
2055.1704
2145.4662
2241.0773
2298.7967
2350.8026
2379.5656
2389.8238
2384.5685
2365.0329
2332.1855
2287.3853
2231.96
2167.0902
2097.0274
2030.3229
1968.1295
1910.0879
1855.894
1805.2844
1757.9803
1713.7357
1672.3368
1633.5847
1597.2936
1563.2926
1531.4236
1500.1909
1467.2261
1432.4802
1396.1938
1358.5774
1319.8397
1280.209
1239.9002
1199.1284
1158.1357
1117.1623
1076.4912
1036.7842
999.56934
965.17024
933.56322
904.72498
878.67567
855.42916
835.00884
817.4526
802.83043
791.19869
782.64417
777.23043
775.1649
776.30544
776.88739
776.72113
776.70414
776.68649
776.68474
776.69109
776.69011
776.68334
776.68702
776.6988
776.70676
776.71789
776.72825
776.7402
776.75166
776.76341
776.77552
776.78664
776.79692
776.80747
776.81754
776.8269
776.83556
776.84357
776.85078
776.85713
776.86244
776.86688
776.87048
776.87313
776.87491
776.87576
776.87572
776.87477
776.8728
776.8699
776.86598
776.86115
776.85535
776.84869
776.84116
776.83262
776.82297
776.8136
776.80339
776.79232
776.78046
776.76789
776.7546
776.74063
776.72597
776.71065
776.69459
776.67791
776.66084
776.64347
776.62572
776.60722
776.5885
776.56954
776.55032
776.53073
776.51102
776.49122
776.47133
776.45136
776.43136
776.41144
776.39153
776.37171
776.35198
776.33247
776.31312
776.294
776.27509
776.25647
776.23806
776.22
776.20226
776.18492
776.16782
776.15094
776.13458
776.1188
776.10345
776.08831
776.07374
776.05973
776.04608
776.03292
776.02014
776.00799
775.99602
775.98425
775.97254
775.95963
775.94573
775.92957
775.91623
775.91855
775.92115
775.91243
775.9044
775.89588
775.88829
775.88122
775.87462
775.86845
775.8627
775.85722
775.85222
775.84813
775.84444
775.84078
775.83739
775.83432
775.83153
775.82918
775.82683
775.82505
775.82362
775.82226
775.82119
775.82059
775.82035
775.82037
775.82047
775.82038
775.82117
775.82326
775.8251
775.827
775.82953
775.83312
775.83793
775.84117
775.84485
775.85144
775.85914
775.86841
775.87721
775.8853
775.89721
775.98338
775.5203
774.86301
777.16713
782.63095
791.22028
802.85535
817.4692
834.98886
855.40043
878.61919
904.62976
933.44887
965.00465
999.5741
1036.9424
1075.6937
1116.3759
1158.0772
1198.9865
1239.1668
1280.6653
1319.7787
1357.196
1395.27
1430.0191
1444.3682
1490.5637
1506.6956
1563.4809
1580.4161
1633.625
1641.2756
1694.7835
1718.663
1837.3094
1849.9953
1903.6109
1959.3287
2006.5824
2050.8394
2147.7484
2213.4102
2273.058
2282.0952
2396.1684
2355.1335
2358.6284
2356.4747
2323.9061
2305.7492
2232.9397
2171.2108
2073.186
1985.6114
1887.5402
1823.6778
1782.9416
1754.406
1745.0229
1737.4158
1734.0995
1732.5838
1730.253
1227.8492
1227.618
1228.2069
1230.035
1234.3798
1243.3694
1260.0065
1288.6564
1333.5679
1397.3918
1458.7355
1523.8467
1588.7762
1629.18
1667.6638
1687.5268
1694.8748
1691.1905
1677.3919
1654.1259
1622.3764
1583.1016
1537.1212
1487.4453
1440.1328
1396.0229
1354.8559
1316.4147
1280.5224
1246.9772
1215.6006
1186.244
1158.7649
1133.031
1108.92
1086.3191
1064.173
1040.8009
1016.1633
990.44115
963.77815
936.30691
908.20098
879.6157
850.69341
821.61626
792.55089
763.70222
735.53789
709.13432
684.72753
662.29943
641.83195
623.34449
606.84723
592.35542
579.89383
569.52029
561.27402
555.22623
551.41893
550.05922
551.03786
551.46816
551.31591
551.30578
551.29424
551.30058
551.315
551.3212
551.32004
551.33035
551.34924
551.36354
551.38103
551.39735
551.41511
551.43209
551.44909
551.46614
551.4819
551.49657
551.51122
551.52509
551.53794
551.54977
551.56068
551.57044
551.57903
551.58622
551.59223
551.59706
551.60061
551.60298
551.6041
551.604
551.60268
551.60002
551.59611
551.59087
551.58441
551.57666
551.5678
551.55774
551.54636
551.53368
551.52096
551.50711
551.49215
551.47617
551.45925
551.4414
551.42267
551.40307
551.38261
551.36123
551.33904
551.31634
551.29327
551.26968
551.2452
551.22043
551.19535
551.16994
551.1441
551.1181
551.09199
551.06578
551.03948
551.01316
550.98695
550.96077
550.93473
550.90882
550.8832
550.8578
550.83271
550.8079
550.78349
550.75936
550.73569
550.71245
550.68973
550.66735
550.64528
550.62387
550.60323
550.58311
550.56333
550.54428
550.52593
550.50807
550.49084
550.47414
550.45822
550.44257
550.42721
550.41201
550.39547
550.37796
550.35769
550.34097
550.34232
550.34352
550.33253
550.32232
550.31145
550.30174
550.29261
550.2841
550.27614
550.26871
550.26166
550.2552
550.24987
550.24505
550.24032
550.23593
550.23198
550.22839
550.22535
550.22237
550.22009
550.21824
550.21652
550.21518
550.21443
550.21415
550.21417
550.21431
550.21434
550.21541
550.218
550.22034
550.22286
550.22609
550.23061
550.23622
550.2405
550.24553
550.25367
550.26317
550.27437
550.28525
550.29571
550.31013
550.38481
550.09891
549.66202
551.29899
555.16724
561.25762
569.5085
579.8713
592.29051
606.77154
623.23428
641.67535
662.12332
684.49354
709.08376
735.6873
762.69349
791.61204
821.51898
850.46186
878.7038
908.66887
936.16121
961.88386
989.36929
1013.6635
1032.0486
1062.9
1078.7632
1101.7077
1127.4253
1164.9327
1177.9893
1197.0073
1227.9702
1312.7834
1316.1494
1351.4099
1384.4923
1429.9616
1457.6931
1531.5992
1579.2434
1593.8359
1635.7056
1721.5129
1672.7895
1678.403
1672.3078
1642.8404
1638.4546
1590.6289
1546.1375
1478.4941
1416.8016
1347.5691
1302.0671
1273.9388
1254.1936
1245.9005
1238.7105
1234.9432
1232.9839
1230.2342
909.65416
909.27852
909.88044
911.69032
915.34704
922.22094
934.18127
954.52812
986.52438
1032.4797
1078.195
1125.9949
1173.3783
1202.7517
1231.8624
1246.2825
1251.7827
1249.0844
1238.9481
1221.7817
1198.3415
1169.3563
1135.4149
1098.7369
1063.7907
1031.2127
1000.8088
972.41457
945.90847
921.13887
897.97011
876.29508
856.00705
837.00776
819.20548
802.51562
786.16323
768.9068
750.7138
731.7257
712.04658
691.75867
670.99997
649.88837
628.51939
607.03835
585.56422
564.25292
543.44878
523.93958
505.9049
489.32974
474.20015
460.53445
448.34081
437.62965
428.41713
420.75398
414.66868
410.22389
407.44821
406.55443
407.45367
407.80158
407.66272
407.66084
407.65686
407.67238
407.6958
407.7099
407.71514
407.73272
407.75917
407.78027
407.80446
407.82703
407.85082
407.87348
407.89582
407.91781
407.93822
407.95725
407.97589
407.99339
408.00954
408.02431
408.03782
408.04983
408.06029
408.06897
408.0761
408.0817
408.08565
408.08808
408.0889
408.08817
408.08587
408.08188
408.0763
408.06905
408.06026
408.04986
408.03804
408.02471
408.00968
407.99325
407.97639
407.95811
407.93847
407.91757
407.89552
407.87231
407.84803
407.82268
407.7963
407.76881
407.74034
407.71126
407.68173
407.65155
407.62036
407.58881
407.5569
407.5246
407.49182
407.45887
407.42581
407.39264
407.35939
407.32615
407.29307
407.26006
407.22724
407.19462
407.16237
407.13042
407.09887
407.06771
407.03705
407.00677
406.97708
406.94795
406.91948
406.89145
406.86385
406.83708
406.81124
406.78607
406.76136
406.73756
406.71464
406.69234
406.67082
406.64998
406.6301
406.61059
406.59147
406.57262
406.55232
406.53106
406.50663
406.48663
406.48667
406.48621
406.47304
406.46063
406.44743
406.43555
406.42434
406.41392
406.40415
406.39505
406.38643
406.37856
406.37204
406.36614
406.36037
406.35507
406.35029
406.34598
406.34233
406.3388
406.33613
406.33398
406.33201
406.33053
406.32977
406.32958
406.32975
406.3301
406.3304
406.33193
406.33519
406.33824
406.34156
406.3457
406.35139
406.35803
406.36357
406.37022
406.38017
406.39178
406.40516
406.41845
406.43172
406.44899
406.51585
406.33904
406.03927
407.25051
410.09997
414.59592
420.68781
428.33781
437.50243
448.20069
460.35277
473.96513
489.07459
505.58415
523.81646
543.58224
563.00167
584.46088
606.89581
628.17099
648.77139
671.45348
691.56767
709.65281
730.50005
748.16307
765.55053
788.16136
801.37583
811.08205
835.44927
864.11351
878.58647
877.97187
913.44339
982.18444
974.63344
997.52419
1019.4135
1059.9868
1071.658
1138.2207
1176.2754
1168.0723
1217.3925
1289.7567
1235.5351
1240.1397
1238.2705
1207.6966
1212.5919
1181.1172
1147.964
1100.6563
1056.4783
1004.1504
970.86536
951.062
936.88637
929.39338
922.27942
917.98752
915.53206
912.37294
696.6238
696.07931
696.63131
698.43109
701.61755
707.0502
715.77369
730.37002
753.48911
787.27122
822.06605
858.04355
894.0849
916.61642
938.54621
949.65776
953.90972
951.86423
944.19046
931.11908
913.25668
891.18264
865.33133
837.39073
810.75988
785.93611
762.77116
741.1334
720.9397
702.07202
684.42401
667.916
652.46528
637.9962
624.43783
611.72348
599.26622
586.12105
572.26077
557.79916
542.81478
527.35625
511.53659
495.44801
479.15544
462.78008
446.40835
430.16388
414.3082
399.43464
385.68436
373.04414
361.50374
351.07982
341.77966
333.6108
326.5834
320.74399
316.11406
312.75189
310.67786
310.11211
310.97774
311.28181
311.15641
311.16377
311.16833
311.1937
311.22658
311.24883
311.26079
311.28589
311.31993
311.34791
311.37872
311.40747
311.4371
311.46525
311.49264
311.51924
311.54396
311.56697
311.58918
311.60983
311.62877
311.64595
311.66148
311.67513
311.68682
311.69633
311.7039
311.70956
311.71319
311.71491
311.71469
311.71253
311.70845
311.70233
311.69426
311.68419
311.67223
311.65835
311.64274
311.62529
311.60571
311.58476
311.56294
311.53942
311.51428
311.48767
311.45969
311.43035
311.39976
311.36793
311.33489
311.30059
311.26514
311.22901
311.19237
311.15495
311.11645
311.07754
311.03822
310.99848
310.95824
310.91783
310.87733
310.83673
310.79609
310.75552
310.71515
310.67493
310.63497
310.59529
310.55609
310.51728
310.479
310.44121
310.40405
310.36739
310.33146
310.29622
310.26181
310.22797
310.19468
310.16239
310.13123
310.10088
310.07116
310.04252
310.01493
309.98812
309.96225
309.93723
309.91334
309.88993
309.86703
309.84449
309.82047
309.79545
309.767
309.74391
309.74236
309.74017
309.72506
309.71052
309.69509
309.6811
309.66791
309.65564
309.64416
309.6335
309.62341
309.61422
309.60663
309.59978
309.59311
309.58701
309.58156
309.57666
309.57255
309.56865
309.56574
309.56345
309.56141
309.55995
309.55936
309.55945
309.55998
309.56072
309.56149
309.56372
309.56787
309.57185
309.57622
309.58149
309.5886
309.59658
309.60364
309.61215
309.62424
309.63829
309.65414
309.67018
309.68673
309.70722
309.76892
309.66328
309.45348
310.37808
312.54113
315.96421
320.60359
326.42776
333.40203
341.55599
350.80727
361.17154
372.69146
385.25694
399.21968
414.41259
428.64467
445.12063
462.58001
478.66343
494.09398
511.97282
527.12124
539.93477
556.41703
569.78403
584.43267
602.30869
612.42091
617.14112
637.94882
660.6704
672.36497
664.46947
701.52094
759.71058
745.64474
759.81776
774.46074
811.16169
810.19726
871.52976
908.01858
882.83707
932.34977
998.49557
942.19756
944.65541
944.61593
915.32702
925.58149
905.70421
881.27497
847.41036
815.71154
774.01472
749.21762
735.2306
724.82435
718.17741
711.04336
706.22656
703.24898
699.70897
548.28067
547.53443
547.97021
549.74524
552.58836
556.99619
563.37319
573.77859
590.46911
615.55181
642.39786
670.31868
698.18676
716.12594
732.92745
741.81384
745.18409
743.59112
737.64013
727.43378
713.47445
696.23798
676.0534
654.23525
633.43258
614.04413
595.95393
579.05264
563.28452
548.55467
534.77789
521.8931
509.83465
498.54263
487.96044
478.03358
468.30626
458.04203
447.21797
435.92823
424.23353
412.15943
399.80053
387.23072
374.4944
361.69589
348.89875
336.20451
323.81679
312.1922
301.44457
291.56209
282.53715
274.38517
267.11294
260.72635
255.23127
250.67175
247.06459
244.46636
242.89244
242.57074
243.42911
243.71175
243.60008
243.61714
243.63073
243.66607
243.70836
243.73846
243.75701
243.78944
243.83064
243.86512
243.90203
243.93646
243.97136
244.00438
244.03618
244.06668
244.09501
244.12127
244.14625
244.16926
244.19016
244.20889
244.22558
244.23996
244.25198
244.26139
244.26847
244.27324
244.2756
244.27567
244.27343
244.2689
244.26209
244.25288
244.24138
244.22755
244.21149
244.1932
244.17289
244.15041
244.12534
244.09911
244.07149
244.04191
244.0105
243.97741
243.94277
243.9066
243.86902
243.83005
243.78972
243.748
243.70503
243.66132
243.61704
243.57192
243.52565
243.47896
243.43185
243.3843
243.33628
243.28811
243.23988
243.1916
243.14335
243.09523
243.04741
242.99981
242.95257
242.90572
242.85946
242.81372
242.76863
242.72417
242.68047
242.63741
242.59523
242.55391
242.51357
242.47396
242.43503
242.39729
242.36088
242.32543
242.29077
242.2574
242.22525
242.19404
242.16393
242.13484
242.10706
242.07987
242.05332
242.02721
241.99964
241.97097
241.9388
241.91292
241.90966
241.90585
241.88913
241.87264
241.85517
241.83926
241.82424
241.81031
241.79729
241.78524
241.77387
241.76357
241.75511
241.7475
241.74012
241.73344
241.7275
241.72223
241.71786
241.71379
241.71086
241.70864
241.70674
241.70553
241.70533
241.70593
241.70704
241.70841
241.70988
241.71305
241.71834
241.72351
241.72916
241.73584
241.74465
241.75427
241.76313
241.77378
241.78833
241.80516
241.82379
241.84294
241.86322
241.88728
241.94587
241.88898
241.74071
242.46398
244.14457
246.81491
250.43533
254.9782
260.41538
266.78538
274.00116
282.08772
291.09217
300.88973
311.86463
323.87611
334.39529
347.40403
361.42007
373.83078
385.60946
400.22556
411.86633
420.85001
434.38262
444.87206
456.92927
471.53096
479.13407
481.26366
499.53288
517.73585
525.17644
517.23847
553.74647
602.15095
586.03901
594.32839