/*--------------------------------*- C++ -*----------------------------------*\
| =========                 |                                                 |
| \\      /  F ield         | OpenFOAM: The Open Source CFD Toolbox           |
|  \\    /   O peration     | Version:  2.4.0                                 |
|   \\  /    A nd           | Web:      www.OpenFOAM.org                      |
|    \\/     M anipulation  |                                                 |
\*---------------------------------------------------------------------------*/
FoamFile
{
    version     2.0;
    format      ascii;
    class       volVectorField;
    location    "900";
    object      UMean;
}
// * * * * * * * * * * * * * * * * * * * * * * * * * * * * * * * * * * * * * //

dimensions      [0 1 -1 0 0 0 0];

internalField   nonuniform List<vector> 
78300
(
(0.0054267288 2.3728905e-05 1.1921434e-21)
(0.0055556391 2.5209675e-05 -3.3167321e-22)
(0.0063826784 -4.0569865e-05 4.4343034e-22)
(0.0061001087 -0.00018854605 -2.4114077e-20)
(0.0055391409 -0.00037335919 -5.8890581e-21)
(0.0037501673 -0.00044126561 1.6449187e-20)
(0.0017396201 -0.00031532873 9.0870465e-21)
(-0.00046046709 0.00010598601 -3.5926682e-20)
(-0.0018815732 0.00061578434 -1.3926541e-20)
(-0.0022228761 0.00093026602 1.682472e-20)
(-0.0019802988 0.00098490709 9.5752778e-21)
(-0.0016141225 0.00092106536 -2.0927309e-20)
(-0.0012394043 0.00078374248 2.5443103e-21)
(-0.0010208726 0.0007033683 -1.1527952e-20)
(-0.00089745644 0.00065283858 7.3062964e-21)
(-0.00082073747 0.0006267024 -1.3849733e-20)
(-0.00074584661 0.00059322599 -4.0864928e-21)
(-0.00070219658 0.00057651341 2.1703642e-21)
(-0.00066593708 0.00055814725 -7.672869e-21)
(-0.00062921795 0.0005337465 6.1187035e-21)
(-0.00059375908 0.00050816976 7.6422636e-21)
(-0.00056023715 0.00047929937 -6.6943958e-21)
(-0.00053093199 0.00045112767 -2.3997532e-21)
(-0.00050960084 0.00042869291 1.0817177e-21)
(-0.00049543729 0.0004119896 2.41728e-21)
(-0.00048620055 0.00040019696 5.6642664e-22)
(-0.00048288135 0.0003927815 7.3137744e-22)
(-0.00048369612 0.0003904358 -2.2400984e-21)
(-0.00049080592 0.00039273916 -1.9012758e-21)
(-0.00050239325 0.00039899197 -1.2419339e-21)
(-0.00051942377 0.0004096862 1.2896183e-21)
(-0.00054198275 0.00042478828 2.7004313e-21)
(-0.00057008791 0.00044442721 1.008656e-21)
(-0.00060310465 0.00046811676 1.3507222e-21)
(-0.00064045995 0.00049534525 -1.4282977e-21)
(-0.00068006542 0.00052456885 9.2914801e-22)
(-0.00071808873 0.00055214004 -1.4606792e-21)
(-0.00075432927 0.00057671741 -4.5991781e-23)
(-0.00078873798 0.0005968856 -2.0505314e-21)
(-0.00081620407 0.0006098509 2.9337887e-22)
(-0.00084542799 0.00062213522 -1.0142779e-24)
(-0.00088023356 0.00063539109 -2.6557333e-22)
(-0.00091310615 0.00064398341 -7.6769414e-22)
(-0.0009411087 0.00064559043 -1.3571024e-21)
(-0.00096362468 0.00063997083 2.9318279e-21)
(-0.0009800714 0.00062661252 3.9847534e-21)
(-0.00099106975 0.0006062337 -1.6227201e-21)
(-0.00099607821 0.00057838717 -4.8991567e-21)
(-0.0010010953 0.00054778271 5.1584938e-21)
(-0.0010051094 0.00051521486 -4.309143e-21)
(-0.0010056093 0.00048002172 -9.5919382e-21)
(-0.0010026528 0.0004425479 1.2400053e-21)
(-0.00099436194 0.00040274243 -1.7878957e-21)
(-0.00097757486 0.00035980527 -6.6491026e-21)
(-0.00095662627 0.00031610078 -2.2894092e-21)
(-0.00092538343 0.00027039723 1.5664582e-21)
(-0.00089221235 0.00022599889 1.4023368e-21)
(-0.00084710323 0.00018130697 1.5528105e-21)
(-0.00081213633 0.00014131745 3.8768363e-23)
(-0.00076297325 0.00010205644 1.0061837e-21)
(-0.0007582789 7.0418748e-05 -2.483652e-22)
(-0.0007401314 3.8157584e-05 -1.8999032e-22)
(-0.00088449367 1.0396166e-05 -2.7835258e-22)
(-0.0011784913 7.3517546e-08 4.7016927e-26)
(-0.0013827543 2.1474905e-07 -7.4149579e-26)
(-0.0015778296 1.8886045e-07 -2.5220886e-25)
(-0.0017457226 3.1116503e-07 2.9645035e-25)
(-0.0019022236 3.2915539e-07 -2.5287416e-25)
(-0.0020405561 4.2854888e-07 1.3669642e-25)
(-0.0021683391 3.3751861e-07 -1.7164412e-25)
(-0.0022820089 3.5948385e-07 9.0641302e-26)
(-0.0023876367 3.1936454e-07 1.7990164e-25)
(-0.0024830756 3.1969276e-07 -2.1286833e-25)
(-0.0025719193 3.1636719e-07 -8.439522e-19)
(-0.0026537234 3.3171428e-07 -4.9471233e-19)
(-0.0027301281 3.2623414e-07 2.0707932e-25)
(-0.0028009616 3.2653282e-07 -1.0276806e-25)
(-0.0028672823 3.3445665e-07 -2.547447e-26)
(-0.0029293505 3.4572933e-07 -8.462107e-26)
(-0.0029876077 3.4311779e-07 5.7493889e-26)
(-0.0030421533 3.4491592e-07 -8.5859489e-26)
(-0.0030933858 3.4742733e-07 2.7633573e-25)
(-0.0031414799 3.5097748e-07 -1.625904e-25)
(-0.0031866024 3.486292e-07 -3.6617254e-25)
(-0.0032288409 3.4756813e-07 3.9429642e-25)
(-0.0032683704 3.4794863e-07 -5.5730142e-26)
(-0.0033052799 3.4650782e-07 4.682885e-25)
(-0.0033396079 3.420602e-07 -6.2820829e-25)
(-0.0033714351 3.3755888e-07 -4.9071623e-25)
(-0.0034008576 3.3548426e-07 7.5851671e-25)
(-0.0034279012 3.3011571e-07 -6.3892843e-25)
(-0.0034526108 3.242023e-07 5.0409558e-25)
(-0.0034750625 3.2013299e-07 -2.904033e-25)
(-0.0034952876 3.1254018e-07 -6.0241944e-26)
(-0.0035133234 3.0620344e-07 2.1760182e-26)
(-0.0035292301 2.9807298e-07 4.2427551e-25)
(-0.0035430623 2.9105491e-07 -3.6182048e-26)
(-0.0035548543 2.8418217e-07 6.2724313e-25)
(-0.0035646354 2.7696782e-07 -3.2419067e-27)
(-0.0035724548 2.6983795e-07 -1.2383678e-24)
(-0.0035783316 2.6282657e-07 5.8780091e-25)
(-0.0035822688 2.5632027e-07 -5.6640492e-26)
(-0.0035843244 2.4778725e-07 8.3686396e-25)
(-0.0035845512 2.396487e-07 -2.1388849e-26)
(-0.0035829757 2.3349006e-07 -1.6446104e-24)
(-0.0035796044 2.2437844e-07 -1.1278968e-25)
(-0.0035744996 2.1654162e-07 5.7148156e-26)
(-0.0035677124 2.0612152e-07 8.3966417e-25)
(-0.003559294 1.9839455e-07 -8.3854642e-26)
(-0.0035492391 1.8866934e-07 -1.0587277e-24)
(-0.0035376178 1.8157891e-07 1.9600926e-24)
(-0.00352449 1.7126474e-07 -2.2377026e-24)
(-0.0035098908 1.6333234e-07 2.1109126e-24)
(-0.003493841 1.5286895e-07 -4.0631411e-25)
(-0.0034763883 1.444895e-07 2.4775641e-25)
(-0.0034575972 1.3399993e-07 -1.0491249e-24)
(-0.0034374873 1.2389433e-07 5.9512913e-25)
(-0.0034160029 1.1404626e-07 1.6092492e-25)
(-0.0033931945 1.0566192e-07 -1.1586283e-25)
(-0.0033693494 9.3924405e-08 -1.1336665e-25)
(-0.0033444424 8.4992688e-08 2.402736e-17)
(-0.0033183242 7.4155864e-08 2.4748982e-17)
(-0.0032911076 6.5196361e-08 1.4513697e-24)
(-0.0032629438 5.4386147e-08 -1.1765766e-25)
(-0.0032338427 4.4668428e-08 -1.3561706e-25)
(-0.0032037477 3.3528242e-08 -9.8516261e-26)
(-0.0031727397 2.4176048e-08 -8.1727472e-27)
(-0.0031409351 1.3876675e-08 -3.3277041e-25)
(-0.0031083578 4.2111416e-09 -1.5265491e-25)
(-0.0030749912 -7.2237982e-09 5.3135735e-25)
(-0.0030408899 -1.7025854e-08 2.9025428e-26)
(-0.0030061445 -2.8233869e-08 2.9079097e-25)
(-0.0029707904 -3.8895575e-08 -4.8154289e-25)
(-0.0029348078 -5.1092208e-08 6.745828e-26)
(-0.0028982422 -6.1112185e-08 1.5636583e-26)
(-0.0028611877 -7.1870035e-08 3.0555182e-26)
(-0.0028236831 -8.1994174e-08 2.9706038e-27)
(-0.0027857176 -9.3069402e-08 1.9616473e-25)
(-0.0027473475 -1.0248384e-07 -8.6776814e-26)
(-0.0027086472 -1.1260173e-07 -4.6885123e-25)
(-0.0026696163 -1.217428e-07 9.0080967e-25)
(-0.0026302955 -1.3197023e-07 -1.305852e-24)
(-0.0025906933 -1.4070439e-07 2.2056395e-26)
(-0.0025508657 -1.499642e-07 6.9696954e-25)
(-0.0025108175 -1.5881424e-07 -1.9799594e-25)
(-0.0024704798 -1.6873769e-07 4.7356833e-25)
(-0.0024300084 -1.748052e-07 -1.9962383e-25)
(-0.0023894205 -1.8117134e-07 -1.2754616e-26)
(-0.0023488236 -1.8838779e-07 -2.2655554e-25)
(-0.0023081149 -1.972769e-07 -2.3281413e-25)
(-0.0022673255 -2.0422532e-07 -2.210151e-25)
(-0.0022266023 -2.105451e-07 8.387004e-25)
(-0.0021859163 -2.1691714e-07 5.4635109e-25)
(-0.0021452954 -2.2579396e-07 8.9903292e-25)
(-0.0021046776 -2.304762e-07 -3.5531315e-25)
(-0.0020643279 -2.3604205e-07 -1.0075356e-24)
(-0.0020240459 -2.4184949e-07 -2.4411689e-24)
(-0.0019839945 -2.5022977e-07 4.8196682e-17)
(-0.0019438324 -2.5633237e-07 2.3071097e-20)
(-0.0019037342 -2.668001e-07 -4.9235974e-17)
(-0.0018623751 -2.9148771e-07 -3.7197164e-24)
(-0.001818787 -3.3387192e-07 5.3534839e-25)
(-0.001773311 -3.8699867e-07 -6.4275423e-24)
(-0.0017351866 -2.9099597e-07 6.7059871e-24)
(-0.0016978172 -2.7175568e-07 6.283189e-25)
(-0.001662069 -2.7539961e-07 -6.1830458e-24)
(-0.0016247443 -2.7709928e-07 3.4307991e-24)
(-0.0015880323 -2.8790743e-07 -3.771237e-24)
(-0.0015507001 -2.8576623e-07 5.5783133e-24)
(-0.0015140032 -2.8866825e-07 -1.4262211e-24)
(-0.0014771119 -2.9216377e-07 -2.7974878e-24)
(-0.0014406971 -2.9452853e-07 8.9847475e-25)
(-0.0014043821 -2.9888273e-07 3.6249148e-24)
(-0.001368518 -3.000447e-07 -4.2066643e-24)
(-0.0013328579 -3.0145003e-07 3.6745672e-24)
(-0.0012977477 -3.0169793e-07 -4.0220439e-24)
(-0.0012630453 -3.0281515e-07 2.0629363e-24)
(-0.0012287708 -3.0397097e-07 2.3607006e-24)
(-0.0011948425 -3.0497708e-07 3.8154995e-24)
(-0.0011613801 -3.039555e-07 -4.3800266e-24)
(-0.0011284238 -3.0398664e-07 -3.0075249e-24)
(-0.001095967 -3.042811e-07 3.8869205e-24)
(-0.0010639248 -3.0457897e-07 -8.2477023e-24)
(-0.0010324507 -3.0332427e-07 7.6986545e-24)
(-0.0010015031 -3.013989e-07 -4.5666944e-24)
(-0.00097112249 -3.0077017e-07 3.9711347e-24)
(-0.00094119263 -2.9869525e-07 -4.6224037e-24)
(-0.00091199785 -2.9667075e-07 -3.1825973e-24)
(-0.00088328323 -2.9770633e-07 2.5221941e-24)
(-0.00085524306 -3.0141607e-07 -3.2046654e-24)
(-0.0008277961 -2.9199931e-07 8.2860977e-24)
(-0.00080135214 -2.8914834e-07 -5.0524536e-24)
(-0.00077547205 -2.8738275e-07 4.4115446e-24)
(-0.00075078777 -2.8315662e-07 -7.5620004e-24)
(-0.00072668205 -2.8223064e-07 7.0565345e-25)
(-0.00070412351 -2.8002091e-07 2.6176832e-24)
(-0.00068211013 -2.8127593e-07 2.9323802e-24)
(-0.00066213257 -2.7376665e-07 -1.1067332e-23)
(-0.00064285544 -2.6345368e-07 6.5246219e-17)
(-0.00062641802 -2.5139647e-07 6.5998429e-17)
(-0.00061047316 -2.5024757e-07 -3.3172346e-24)
(-0.00059872836 -2.307841e-07 -4.9812427e-24)
(-0.00058702471 -2.387448e-07 4.2914077e-24)
(-0.00058131999 -2.0563284e-07 7.8782905e-25)
(-0.00057491338 -2.0902748e-07 -1.4163138e-24)
(-0.00057633638 -1.7681038e-07 -6.5900666e-17)
(-0.0005731011 -2.2531149e-07 -6.5575538e-17)
(-0.0005706388 -6.5752837e-06 -1.1606261e-20)
(-0.00056993648 -2.9367283e-05 1.2066404e-19)
(-0.00057208095 -5.2766996e-05 5.4578946e-20)
(-0.00057653601 -7.6500302e-05 -3.508344e-19)
(-0.00057406749 -9.9178146e-05 -5.9461559e-20)
(-0.00056955684 -0.00012086451 -3.93568e-19)
(-0.00056039025 -0.00014064456 2.6150397e-20)
(-0.00054494458 -0.00015752185 -3.9502207e-21)
(-0.00052727684 -0.00017195611 1.389117e-19)
(-0.00049879345 -0.00018212943 -1.0481873e-19)
(-0.00046911045 -0.0001871562 3.3563805e-19)
(-0.00043891858 -0.00019243882 -2.1750282e-19)
(-0.00041492321 -0.00019394056 -5.6243505e-20)
(-0.00037987817 -0.00018431836 -9.800602e-20)
(-0.00033531776 -0.0001885224 5.2893234e-19)
(-0.00028263659 -0.00017386641 1.120338e-19)
(-0.00017698992 -0.00011859414 -4.2422673e-19)
(-7.5366095e-05 -5.3828317e-05 -4.6437073e-19)
(-0.00011428944 -4.5971663e-05 -7.0918776e-20)
(3.5521793e-05 2.8043983e-05 3.3272864e-20)
(2.0529113e-05 4.7958987e-05 -4.6607138e-19)
(8.2297456e-05 7.2641119e-05 -3.3274847e-20)
(0.0002695256 0.00024929579 -8.8537583e-20)
(0.00053806283 0.00048061142 -5.8604869e-19)
(0.0002399598 0.00023143758 7.3397111e-20)
(0.00044575166 0.00049621887 3.8618647e-19)
(0.00093985626 0.00068646712 3.7613453e-19)
(0.00079326947 0.00054144229 -1.0947901e-19)
(0.00088748857 0.00059649074 -6.0185175e-20)
(0.00092424939 0.00079371803 -5.382745e-20)
(0.0011745694 0.00092578188 1.2049186e-19)
(0.0010199813 0.0007462729 4.5330925e-19)
(0.0014901473 0.0013307717 -4.5800475e-19)
(0.0010113304 0.00089819584 1.298288e-19)
(0.0020594113 0.0013587518 1.2393118e-20)
(0.0023344914 0.0017059146 1.2174216e-19)
(0.0020489906 0.0017533227 7.0714805e-20)
(0.0022587359 0.0019809835 -2.46041e-20)
(0.0024589041 0.0021384862 1.2138756e-19)
(0.0031567687 0.0026531188 -1.2545158e-20)
(0.0026160018 0.0026579724 -2.271075e-19)
(0.0023527846 0.0021127451 -5.6609002e-21)
(0.0035197034 0.0030691546 -1.129486e-19)
(0.00442826 0.0034842137 1.4987443e-19)
(0.0038307256 0.0025880616 1.3707144e-20)
(0.0049627307 0.0035264432 2.989214e-20)
(0.005378073 0.0043309515 -4.1753854e-20)
(0.005973362 0.0043912655 2.2012181e-20)
(0.0063702009 0.0049520331 4.6120308e-20)
(0.0082666266 0.0047054185 3.1986364e-20)
(0.0098217608 0.00617712 7.1563459e-20)
(0.011541112 0.006703805 -2.2653535e-20)
(0.013533919 0.0068690245 -1.1633303e-19)
(0.016257612 0.0067507124 -1.793494e-19)
(0.017436817 0.0058159952 -3.9047994e-20)
(0.01674514 0.0042089967 6.6675989e-20)
(0.014585781 0.0026128132 -8.3331781e-20)
(0.012289116 0.0014472033 -5.6368628e-20)
(0.0097409846 0.00067044159 -1.1915259e-20)
(0.0079890216 0.00025055082 -2.2311658e-20)
(0.0060840557 4.3338082e-05 -1.2215117e-20)
(0.0057533048 -3.0333215e-05 -6.0597931e-21)
(0.0043172964 -1.7351442e-05 -6.7171088e-22)
(0.016621458 6.3539343e-05 1.247096e-21)
(0.01700633 6.9577639e-05 9.0785663e-22)
(0.019378433 -0.00012657025 -1.559908e-21)
(0.018572276 -0.00056650176 2.7055581e-20)
(0.016889461 -0.0011191135 3.4060442e-22)
(0.011627004 -0.0013279086 5.7709341e-20)
(0.0056266041 -0.00096710258 -2.2710163e-20)
(-0.00098864406 0.00028247117 4.7443196e-20)
(-0.0053919608 0.0018157198 3.9014071e-20)
(-0.0065599674 0.0027779763 -3.633708e-20)
(-0.0059005605 0.0029741667 -1.0087724e-20)
(-0.0048359922 0.0027813782 2.9544438e-21)
(-0.0037263768 0.002378011 5.5427336e-20)
(-0.0030803905 0.0021254928 9.1110492e-21)
(-0.0026990893 0.0019847134 -2.1139604e-20)
(-0.0024703733 0.0019016651 1.2438094e-20)
(-0.0022481252 0.0017992265 -6.5483031e-21)
(-0.002116892 0.0017477488 -2.8907299e-21)
(-0.0020091152 0.0016895234 -7.816743e-21)
(-0.0018973731 0.0016172673 2.4273846e-21)
(-0.001792435 0.0015386129 -3.351927e-21)
(-0.0016925931 0.0014509174 3.0611926e-21)
(-0.0016041372 0.0013673115 3.5552593e-21)
(-0.0015412598 0.001299123 8.0720541e-21)
(-0.0014990141 0.0012492373 -2.0408343e-21)
(-0.0014722759 0.0012131386 -2.8188041e-21)
(-0.001462215 0.00119165 -3.9903796e-21)
(-0.0014657715 0.0011841512 1.845323e-21)
(-0.0014875893 0.0011912221 8.110738e-22)
(-0.001523064 0.0012101739 3.9363057e-21)
(-0.0015748104 0.0012426447 -6.3212002e-21)
(-0.0016429972 0.00128857 -3.8686969e-21)
(-0.0017278737 0.0013479589 -7.0566002e-22)
(-0.0018274072 0.0014194827 -1.3902475e-21)
(-0.0019397577 0.0015016532 -3.8590617e-23)
(-0.0020586743 0.0015898446 4.2638512e-21)
(-0.0021728621 0.0016732461 3.2707148e-21)
(-0.002282052 0.001747139 1.2891271e-22)
(-0.0023853622 0.0018082389 1.8733653e-21)
(-0.0024680929 0.0018485274 1.3293145e-22)
(-0.0025568059 0.0018849839 2.3131693e-25)
(-0.0026608732 0.001924448 -1.3976102e-21)
(-0.0027596041 0.0019502486 -4.5999212e-22)
(-0.0028437742 0.0019546886 -5.1606657e-22)
(-0.0029118224 0.0019375508 1.4272729e-21)
(-0.002961956 0.001897182 -9.5094498e-21)
(-0.002996176 0.0018355851 3.3628946e-21)
(-0.0030126471 0.0017519474 -2.6603134e-21)
(-0.003029076 0.0016598881 -2.9367161e-22)
(-0.0030426363 0.0015616599 -2.6181125e-21)
(-0.0030458291 0.0014554846 1.8111759e-21)
(-0.0030386792 0.0013423827 -9.3079768e-21)
(-0.0030159103 0.0012219292 -6.5637207e-22)
(-0.0029681397 0.0010920643 2.0122168e-21)
(-0.0029078066 0.00095987622 -5.70534e-22)
(-0.0028173723 0.00082169205 4.4528779e-21)
(-0.0027210907 0.0006873864 -4.9339909e-21)
(-0.0025903493 0.00055223609 1.890003e-21)
(-0.0024893179 0.00043103359 -7.7044107e-22)
(-0.0023487983 0.00031240773 -3.1071101e-23)
(-0.0023393676 0.00021634193 -7.4754087e-23)
(-0.0022976876 0.00011995084 -3.77198e-21)
(-0.0027354139 3.8139718e-05 3.8449671e-22)
(-0.0036089087 7.0440829e-06 -4.3209819e-25)
(-0.0042221306 5.9204305e-06 -6.430223e-27)
(-0.0048055602 5.2333805e-06 -1.2686935e-25)
(-0.0053082305 5.006256e-06 4.4966737e-25)
(-0.0057759081 4.5187622e-06 -2.374745e-25)
(-0.0061895051 4.345258e-06 7.10129e-26)
(-0.006571101 3.6888908e-06 6.8537117e-26)
(-0.0069108037 3.425101e-06 4.6369949e-26)
(-0.0072261324 3.0116755e-06 -2.1256266e-25)
(-0.0075111979 2.7625462e-06 7.6067876e-26)
(-0.0077763859 2.5102363e-06 3.6259062e-26)
(-0.0080205617 2.3709016e-06 4.8164611e-27)
(-0.0082485038 2.165045e-06 -1.735856e-25)
(-0.0084598268 2.012774e-06 8.556197e-26)
(-0.0086576095 1.8724809e-06 -1.3815844e-26)
(-0.0088426369 1.7860487e-06 -8.9870299e-27)
(-0.0090162233 1.6540588e-06 1.0900324e-25)
(-0.0091787053 1.5544645e-06 2.1632566e-27)
(-0.0093312479 1.451661e-06 -3.0304411e-26)
(-0.0094743655 1.3749857e-06 -7.5825451e-26)
(-0.0096085605 1.2794755e-06 -1.1128367e-25)
(-0.0097341145 1.2000067e-06 -1.5613597e-25)
(-0.0098515369 1.1201743e-06 -2.0341517e-25)
(-0.0099610838 1.0482644e-06 4.8153936e-25)
(-0.010062882 9.7064149e-07 1.0165298e-25)
(-0.010157185 8.988601e-07 8.3242524e-25)
(-0.010244269 8.3170489e-07 -1.3386114e-24)
(-0.010324207 7.6306615e-07 9.7827107e-25)
(-0.010397137 6.9672083e-07 -2.5801047e-25)
(-0.010463284 6.4242534e-07 -1.029634e-24)
(-0.010522748 5.7470847e-07 -4.387757e-25)
(-0.010575648 5.2079648e-07 4.2557931e-25)
(-0.010622164 4.5891023e-07 2.6767553e-25)
(-0.010662464 4.0301905e-07 8.1070784e-25)
(-0.010696651 3.4588575e-07 6.6027266e-25)
(-0.010724817 2.8947316e-07 -1.9662901e-24)
(-0.010747107 2.3303283e-07 6.6183123e-25)
(-0.010763581 1.7363965e-07 4.2909119e-25)
(-0.010774254 1.1991117e-07 1.1612984e-24)
(-0.010779288 6.1798886e-08 -2.4925307e-24)
(-0.010778838 8.8015732e-09 1.2115204e-24)
(-0.010772982 -4.2343569e-08 5.5393918e-25)
(-0.010761746 -9.4289694e-08 1.0204585e-24)
(-0.01074532 -1.4154668e-07 -2.6210437e-24)
(-0.01072386 -1.905489e-07 5.8556594e-25)
(-0.010697521 -2.3788546e-07 1.6872985e-25)
(-0.010666296 -2.8408216e-07 2.1541343e-24)
(-0.010630385 -3.2807088e-07 -1.8444203e-24)
(-0.010589964 -3.7179473e-07 7.4646995e-25)
(-0.010545146 -4.14701e-07 -6.8510236e-27)
(-0.010495998 -4.5717175e-07 -2.3915341e-24)
(-0.010442661 -4.9885989e-07 4.5551912e-25)
(-0.010385323 -5.3876718e-07 5.346302e-25)
(-0.010324047 -5.7977417e-07 3.361182e-25)
(-0.01025868 -6.180393e-07 9.1337074e-25)
(-0.010189374 -6.5430475e-07 8.4417494e-26)
(-0.010116942 -6.8985126e-07 -5.054837e-25)
(-0.010041319 -7.258371e-07 2.9262874e-25)
(-0.0099620996 -7.60859e-07 -4.2415124e-25)
(-0.0098796084 -7.9099941e-07 1.8212797e-25)
(-0.0097942781 -8.2247658e-07 -2.8270959e-25)
(-0.0097061442 -8.5297468e-07 6.3131885e-25)
(-0.0096150604 -8.8294726e-07 -1.1765379e-24)
(-0.0095212543 -9.0875169e-07 -2.5862583e-25)
(-0.0094250599 -9.3508021e-07 4.6423553e-25)
(-0.0093265601 -9.595754e-07 8.8545814e-25)
(-0.0092257212 -9.8434542e-07 -1.1770016e-25)
(-0.0091226957 -1.005817e-06 -2.5894498e-25)
(-0.0090177436 -1.0254239e-06 -4.8574094e-25)
(-0.0089109796 -1.0444377e-06 4.4804612e-25)
(-0.0088023562 -1.0634958e-06 -1.0917986e-25)
(-0.0086919969 -1.0794986e-06 -8.7946627e-27)
(-0.0085801717 -1.0938543e-06 -5.568061e-26)
(-0.0084670078 -1.108095e-06 7.4856991e-27)
(-0.0083524844 -1.1217168e-06 2.6510518e-25)
(-0.008236762 -1.1325956e-06 -4.8168369e-25)
(-0.0081200544 -1.1431163e-06 -7.9623893e-26)
(-0.0080023715 -1.1521882e-06 -3.3161944e-25)
(-0.0078838339 -1.1621366e-06 9.7808168e-25)
(-0.0077644664 -1.1678634e-06 8.2663478e-25)
(-0.0076444313 -1.1777442e-06 -1.5171456e-25)
(-0.007523744 -1.1853854e-06 -2.0790795e-24)
(-0.0074022196 -1.1932206e-06 -1.2369967e-24)
(-0.007280286 -1.1918618e-06 1.8132213e-24)
(-0.0071579924 -1.1929455e-06 2.8063495e-24)
(-0.0070356638 -1.1950097e-06 -4.7477093e-24)
(-0.0069130251 -1.1968121e-06 1.1720319e-24)
(-0.0067901618 -1.1994363e-06 -1.0645804e-25)
(-0.0066674903 -1.1964386e-06 2.3480483e-24)
(-0.0065449406 -1.1953084e-06 -1.722839e-24)
(-0.0064225983 -1.1983085e-06 8.4938133e-25)
(-0.0063002841 -1.190493e-06 1.1919197e-24)
(-0.0061787489 -1.1866305e-06 2.6196533e-24)
(-0.0060574253 -1.181393e-06 -6.5640787e-24)
(-0.0059367723 -1.1870186e-06 2.6363432e-24)
(-0.0058157914 -1.185659e-06 -9.8325751e-26)
(-0.0056949275 -1.205446e-06 -4.0131373e-24)
(-0.0055702779 -1.2978097e-06 -1.4491619e-25)
(-0.0054387607 -1.3967258e-06 7.0818088e-24)
(-0.0053025158 -1.4421078e-06 2.144063e-24)
(-0.0051885507 -1.152277e-06 -5.0904967e-24)
(-0.0050761535 -1.0683173e-06 6.4556559e-24)
(-0.0049682811 -1.0742429e-06 8.7552738e-25)
(-0.0048558592 -1.0732124e-06 -5.7528313e-24)
(-0.0047452293 -1.0932119e-06 1.0187588e-23)
(-0.0046328423 -1.0721369e-06 -7.5346253e-24)
(-0.0045223215 -1.0670498e-06 1.0005175e-24)
(-0.0044112726 -1.0631653e-06 1.3961465e-24)
(-0.0043016344 -1.0536938e-06 -7.1538518e-24)
(-0.0041923279 -1.0537767e-06 7.9674179e-24)
(-0.0040843653 -1.0434595e-06 1.5645036e-24)
(-0.0039770435 -1.0345211e-06 -4.0600037e-24)
(-0.0038713643 -1.0210024e-06 -4.1334194e-24)
(-0.0037669263 -1.0090592e-06 -7.9990125e-24)
(-0.0036637882 -9.9320207e-07 1.4571911e-23)
(-0.0035617071 -9.8378456e-07 1.011937e-23)
(-0.0034610203 -9.7003682e-07 -2.1985888e-23)
(-0.0033618636 -9.5209747e-07 2.1870418e-23)
(-0.0032642254 -9.3622245e-07 -6.5400163e-24)
(-0.003167849 -9.1925122e-07 -1.0160535e-23)
(-0.0030731791 -9.0082912e-07 -8.4078696e-24)
(-0.0029801097 -8.7546621e-07 -3.3760574e-25)
(-0.0028887652 -8.515327e-07 1.8996519e-23)
(-0.0027988005 -8.2735991e-07 -1.4086805e-23)
(-0.0027110337 -8.0335681e-07 8.8574809e-24)
(-0.0026247454 -7.8104039e-07 -1.4169903e-23)
(-0.0025405058 -7.7380692e-07 1.5671535e-23)
(-0.002458061 -7.2519148e-07 -8.695418e-24)
(-0.0023785989 -7.0127633e-07 5.2048894e-24)
(-0.0023008771 -6.7293366e-07 1.7446436e-24)
(-0.002226744 -6.4283307e-07 -8.8547896e-24)
(-0.0021544089 -6.0951304e-07 9.1985834e-24)
(-0.0020867073 -5.6481724e-07 -1.284532e-25)
(-0.0020207506 -5.2750605e-07 3.5722328e-24)
(-0.0019608826 -4.7958768e-07 -1.6536433e-23)
(-0.0019032006 -4.1285241e-07 1.1289401e-23)
(-0.0018539452 -3.3056175e-07 3.63546e-24)
(-0.001806338 -2.5406831e-07 -1.6860973e-23)
(-0.0017712172 -1.5816524e-07 1.6755713e-23)
(-0.0017364708 -9.5872561e-08 1.1461913e-23)
(-0.0017195283 6.4893379e-08 -1.7148259e-23)
(-0.0017009095 1.2547419e-07 1.3370389e-23)
(-0.0017054386 2.6963192e-07 -1.8827947e-23)
(-0.0016968448 9.3708965e-08 -1.9795607e-23)
(-0.0016911207 -1.9280207e-05 2.7749395e-20)
(-0.0016902915 -8.7003483e-05 1.2034085e-20)
(-0.0016969415 -0.00015694135 5.816606e-21)
(-0.0017098396 -0.00022794073 3.8436714e-19)
(-0.0017020666 -0.00029575083 1.9565306e-19)
(-0.0016877208 -0.00036064741 8.9208277e-19)
(-0.0016592705 -0.00042008717 7.8823152e-19)
(-0.001611997 -0.00047013483 -1.9929595e-19)
(-0.0015571599 -0.00051428023 -2.4703334e-19)
(-0.0014715806 -0.00054444514 5.2762433e-20)
(-0.0013815503 -0.0005611499 -1.691959e-19)
(-0.001289123 -0.00057512053 1.2988265e-19)
(-0.0012149056 -0.00058096303 -1.3897042e-19)
(-0.0011058582 -0.00054772986 -5.861975e-20)
(-0.00097691181 -0.00056490451 -4.0960172e-19)
(-0.00082952158 -0.00050215016 9.4570182e-19)
(-0.0005102769 -0.00035719608 3.4411286e-19)
(-0.00021397009 -0.00015096865 2.2900299e-20)
(-0.00029756048 -0.00012823351 -2.2976852e-19)
(0.00013454111 0.00012782854 -2.6427193e-19)
(0.00010419613 0.00015550293 5.6068256e-19)
(0.00029354043 0.00028890595 -1.1145706e-18)
(0.00088431607 0.00077162638 2.3956569e-19)
(0.0016851508 0.0013694797 -1.2380962e-19)
(0.00083877898 0.00064522533 1.734729e-19)
(0.0015506579 0.0014736406 -3.9574213e-19)
(0.002837318 0.0020630243 -1.395658e-19)
(0.0024307473 0.0016618652 -2.6261314e-19)
(0.002647639 0.0019033673 1.8387409e-19)
(0.002868246 0.0024807295 -4.029161e-19)
(0.0035919539 0.0028643648 -2.2475265e-19)
(0.0031480587 0.0023681543 -4.4193635e-19)
(0.0046314661 0.0038625376 2.0785392e-20)
(0.003146416 0.0028498674 5.3793837e-19)
(0.0059167376 0.0043228181 -1.9029245e-19)
(0.0069093707 0.0050646413 2.6247725e-19)
(0.0062165405 0.0051547213 -1.5235067e-19)
(0.0069436855 0.0056796465 -5.7926975e-19)
(0.0071898066 0.0067040361 1.1587279e-19)
(0.0095289414 0.0077738859 7.1352565e-20)
(0.0083667452 0.0073702161 4.3304454e-19)
(0.0075408298 0.0061600265 -1.0303396e-19)
(0.010758663 0.0092277101 7.3698974e-20)
(0.013170545 0.010233149 -1.0408194e-20)
(0.011153679 0.008555934 -6.536193e-20)
(0.014572702 0.010925924 -2.6857706e-19)
(0.015777329 0.01314961 2.5963474e-20)
(0.01787 0.01320106 -3.3657579e-20)
(0.019505727 0.014930669 5.9752182e-20)
(0.024069683 0.015263547 7.7120268e-21)
(0.029048115 0.018902778 -3.5819497e-20)
(0.034377245 0.020016807 6.8533635e-20)
(0.04039899 0.020448271 4.4028641e-20)
(0.048254941 0.020320673 2.3617957e-19)
(0.051831362 0.017392975 -1.2983772e-19)
(0.050002546 0.012645372 1.4085759e-19)
(0.043873378 0.0078962015 -6.4063309e-20)
(0.037192404 0.0044096682 -2.0339758e-19)
(0.029730775 0.0020674756 -5.1051248e-20)
(0.024492056 0.00079221426 5.9892591e-21)
(0.018856987 0.00014881346 1.8497718e-20)
(0.017713845 -8.0796142e-05 3.0151679e-21)
(0.013501232 -5.0738439e-05 2.3205994e-21)
(0.028383146 9.5287176e-05 1.1575924e-21)
(0.029046209 0.00011355499 -3.0855289e-22)
(0.032837942 -0.00021938504 -1.6585622e-22)
(0.031532298 -0.00095180305 -1.3541031e-20)
(0.028707961 -0.0018757371 3.4392297e-20)
(0.020027137 -0.0022434657 -3.8159022e-20)
(0.010007376 -0.0016663809 2.2334501e-20)
(-0.0011118412 0.00038705267 -9.9611511e-20)
(-0.0086947323 0.0029644666 5.3359233e-20)
(-0.010858666 0.0046106554 1.4894554e-21)
(-0.0098583682 0.0049738175 1.4056023e-20)
(-0.0081132764 0.0046668439 -1.6078186e-20)
(-0.0062755311 0.0039996039 -5.5736895e-20)
(-0.0051900724 0.0035857426 1.8135811e-20)
(-0.0045503065 0.0033440695 2.3348977e-20)
(-0.0041628995 0.0032081592 -3.3391819e-21)
(-0.0037922827 0.0030352403 2.7824094e-21)
(-0.0035730159 0.0029449734 6.2411861e-21)
(-0.0033885896 0.0028498211 1.6664662e-20)
(-0.0032015346 0.0027271986 -9.8655748e-21)
(-0.0030252692 0.0025951308 -9.482432e-21)
(-0.0028569285 0.0024489859 -1.7298937e-21)
(-0.0027096702 0.0023078683 4.1127046e-21)
(-0.0026043959 0.0021937848 -8.8857301e-21)
(-0.0025339065 0.0021104525 2.2404732e-22)
(-0.002489142 0.0020505123 -3.3261056e-21)
(-0.0024726589 0.0020149767 3.0404256e-21)
(-0.0024794842 0.0020026077 1.7609623e-21)
(-0.0025166076 0.0020148988 9.0155846e-23)
(-0.0025768577 0.0020472437 1.8683827e-21)
(-0.0026645024 0.0021022954 -7.1471852e-22)
(-0.0027796683 0.002180041 -6.4719465e-22)
(-0.0029227664 0.0022803547 -2.4802562e-21)
(-0.0030903807 0.0024009334 1.0022644e-22)
(-0.0032793439 0.0025392016 -5.3513567e-21)
(-0.0034791955 0.0026873934 -3.8103052e-21)
(-0.0036713077 0.0028274773 -7.4024411e-22)
(-0.0038547366 0.002951908 1.918578e-22)
(-0.0040280005 0.0030551458 2.5969327e-22)
(-0.0041683142 0.0031230055 -5.9347605e-22)
(-0.0043175043 0.0031855976 3.1421639e-24)
(-0.0044921437 0.0032505019 2.2282451e-21)
(-0.0046579761 0.0032932844 2.0294237e-21)
(-0.0047993623 0.0033001096 1.1710157e-23)
(-0.0049142297 0.0032706212 -1.1360597e-20)
(-0.0049992515 0.0032024257 4.7591234e-21)
(-0.0050579703 0.0030988449 6.4567915e-21)
(-0.0050874304 0.0029586973 5.8121123e-21)
(-0.005116838 0.0028037904 9.5995818e-22)
(-0.005141439 0.0026384783 -2.5606381e-21)
(-0.0051488836 0.0024599591 9.4513567e-21)
(-0.0051390902 0.0022697079 2.4451177e-21)
(-0.005103569 0.0020668034 1.1384083e-21)
(-0.0050267714 0.0018483317 9.7874871e-21)
(-0.0049289878 0.0016256072 -5.9877402e-21)
(-0.0047818569 0.0013929946 -5.2363339e-21)
(-0.0046249705 0.001166549 1.767772e-21)
(-0.0044122144 0.00093880507 -1.0788339e-21)
(-0.0042483808 0.00073398374 1.5472555e-21)
(-0.004022708 0.00053387529 -1.4804183e-21)
(-0.0040136628 0.00037087851 -8.1981093e-23)
(-0.0039618313 0.00020901086 2.2879213e-22)
(-0.0047024963 7.3062691e-05 -5.4347882e-22)
(-0.0061555205 2.0680036e-05 4.0906576e-25)
(-0.0071844825 1.700735e-05 -9.8916959e-27)
(-0.0081602555 1.5200001e-05 -9.9999446e-26)
(-0.009001745 1.4020178e-05 2.8903407e-25)
(-0.0097833614 1.2678347e-05 -1.0720944e-25)
(-0.010474879 1.1793016e-05 -1.0092253e-25)
(-0.011112241 1.037277e-05 2.1729936e-25)
(-0.011680022 9.5151589e-06 -9.3130643e-26)
(-0.012206577 8.5492271e-06 -9.4679721e-26)
(-0.012682812 7.8360147e-06 -7.6466823e-26)
(-0.013125581 7.1979759e-06 5.3759145e-26)
(-0.013533276 6.7192048e-06 6.154472e-27)
(-0.013913696 6.199576e-06 1.0474371e-26)
(-0.014266376 5.7644287e-06 -5.0341442e-26)
(-0.014596342 5.3868074e-06 -1.6427833e-26)
(-0.014904938 5.0775146e-06 6.1117516e-26)
(-0.015194341 4.7321445e-06 -8.2268583e-26)
(-0.015465159 4.4350492e-06 5.2095648e-26)
(-0.015719302 4.1565168e-06 2.8359529e-25)
(-0.015957635 3.9106366e-06 -2.1965368e-25)
(-0.016180996 3.6497177e-06 -1.0323275e-25)
(-0.016389872 3.4137126e-06 5.3590187e-25)
(-0.016585097 3.1885574e-06 -4.0110863e-25)
(-0.016767104 2.9721655e-06 2.8290432e-25)
(-0.016936116 2.7511157e-06 -1.8669452e-25)
(-0.017092557 2.541903e-06 -1.0260688e-25)
(-0.017236882 2.3440589e-06 3.8707109e-25)
(-0.01736922 2.1441967e-06 4.6698135e-25)
(-0.01748981 1.9492626e-06 -1.706099e-24)
(-0.017599023 1.7683665e-06 1.3447114e-24)
(-0.017697031 1.5742535e-06 -3.7137698e-25)
(-0.017784039 1.3978551e-06 -1.2830359e-24)
(-0.017860345 1.2151933e-06 5.4512092e-25)
(-0.01792623 1.0417633e-06 1.8655278e-24)
(-0.01798187 8.6954899e-07 -3.4122943e-25)
(-0.018027422 7.0179641e-07 -5.3283895e-25)
(-0.018063126 5.3617916e-07 -4.6513668e-25)
(-0.018089087 3.693259e-07 -5.2448518e-25)
(-0.018105338 2.079729e-07 1.0921608e-24)
(-0.018112148 5.0359435e-08 -5.5363258e-25)
(-0.018109775 -1.0556941e-07 -7.9590303e-25)
(-0.018098352 -2.5483931e-07 1.2685121e-24)
(-0.01807793 -4.0354713e-07 -6.565376e-25)
(-0.018048826 -5.4306551e-07 -7.2212225e-25)
(-0.018011299 -6.8464055e-07 7.0768711e-25)
(-0.017965606 -8.2082021e-07 1.2261696e-24)
(-0.017911744 -9.5642773e-07 1.5634696e-25)
(-0.017850047 -1.0823079e-06 -1.0405528e-24)
(-0.017780807 -1.2088742e-06 -8.6921014e-25)
(-0.01770421 -1.3291176e-06 2.8623955e-24)
(-0.017620379 -1.4505169e-06 -4.5353101e-24)
(-0.017529547 -1.5642647e-06 3.8444697e-24)
(-0.017432021 -1.6771363e-06 -3.2883016e-24)
(-0.017327911 -1.7897907e-06 1.2992739e-24)
(-0.017216982 -1.8991126e-06 6.1626076e-25)
(-0.017099493 -1.9952443e-06 1.5802336e-25)
(-0.016976763 -2.0893191e-06 -1.142138e-24)