/*--------------------------------*- C++ -*----------------------------------*\
| =========                 |                                                 |
| \\      /  F ield         | OpenFOAM: The Open Source CFD Toolbox           |
|  \\    /   O peration     | Version:  2.4.0                                 |
|   \\  /    A nd           | Web:      www.OpenFOAM.org                      |
|    \\/     M anipulation  |                                                 |
\*---------------------------------------------------------------------------*/
FoamFile
{
    version     2.0;
    format      ascii;
    class       volScalarField;
    location    "700";
    object      k;
}
// * * * * * * * * * * * * * * * * * * * * * * * * * * * * * * * * * * * * * //

dimensions      [0 2 -2 0 0 0 0];

internalField   nonuniform List<scalar> 
78300
(
8.3067659e-07
8.7705584e-07
1.1382722e-06
1.0086994e-06
8.4357271e-07
3.7662284e-07
7.9709684e-08
1.2830055e-08
1.2584828e-07
1.7373493e-07
1.3888298e-07
1.0200887e-07
7.0871883e-08
6.3799658e-08
5.2868899e-08
4.3647642e-08
3.4570252e-08
3.0778158e-08
2.6268734e-08
2.186658e-08
1.8584604e-08
1.6068854e-08
1.4202374e-08
1.3150705e-08
1.2705561e-08
1.2348179e-08
1.2340346e-08
1.2144332e-08
1.2515043e-08
1.3113735e-08
1.39132e-08
1.4983265e-08
1.6360674e-08
1.8046743e-08
2.0036607e-08
2.2280657e-08
2.4482694e-08
2.6716135e-08
2.8336735e-08
3.0045092e-08
3.014411e-08
3.1555519e-08
3.4464348e-08
3.5708199e-08
3.6572058e-08
3.6794416e-08
3.6503985e-08
3.5768146e-08
3.4837667e-08
3.3869366e-08
3.2973424e-08
3.1772689e-08
3.0084117e-08
2.8270285e-08
2.6167408e-08
2.3735408e-08
2.1449841e-08
1.8698704e-08
1.6740284e-08
1.4404752e-08
1.4024754e-08
1.3314762e-08
1.9033309e-08
3.4585121e-08
4.7927836e-08
6.3100324e-08
7.7582429e-08
9.2796597e-08
1.0727505e-07
1.2192734e-07
1.3582973e-07
1.4953199e-07
1.6259502e-07
1.7535933e-07
1.876223e-07
1.9959215e-07
2.1126515e-07
2.2259189e-07
2.3364808e-07
2.4446741e-07
2.5494991e-07
2.6516923e-07
2.7512289e-07
2.8478681e-07
2.9414434e-07
3.0316956e-07
3.11868e-07
3.2022524e-07
3.2820874e-07
3.3580401e-07
3.4299991e-07
3.4977242e-07
3.5607894e-07
3.6193952e-07
3.6733282e-07
3.722649e-07
3.7670689e-07
3.8066221e-07
3.841176e-07
3.8707801e-07
3.8952878e-07
3.9148654e-07
3.9292877e-07
3.9386455e-07
3.9430886e-07
3.9425221e-07
3.937272e-07
3.9272295e-07
3.9127229e-07
3.8937532e-07
3.8704551e-07
3.843046e-07
3.8117595e-07
3.7767605e-07
3.738134e-07
3.6963844e-07
3.6512913e-07
3.6036091e-07
3.5523258e-07
3.4981052e-07
3.4420801e-07
3.3837537e-07
3.3235496e-07
3.2614946e-07
3.1980532e-07
3.1331468e-07
3.0670649e-07
2.9998884e-07
2.9320343e-07
2.8634815e-07
2.7944864e-07
2.7251408e-07
2.6556598e-07
2.5861256e-07
2.5166586e-07
2.4473769e-07
2.378471e-07
2.3100212e-07
2.2421457e-07
2.1749153e-07
2.1084112e-07
2.0427914e-07
1.9779335e-07
1.9142596e-07
1.8511926e-07
1.7895177e-07
1.7284857e-07
1.6685664e-07
1.6100995e-07
1.5525962e-07
1.4963647e-07
1.4414845e-07
1.3878572e-07
1.3356015e-07
1.2844621e-07
1.2345414e-07
1.1858376e-07
1.1385052e-07
1.0922044e-07
1.0480171e-07
1.0036869e-07
9.573479e-08
9.1423922e-08
8.7469167e-08
8.3789773e-08
8.0337082e-08
7.6895307e-08
7.3608714e-08
7.0316065e-08
6.7185887e-08
6.4063217e-08
6.1134447e-08
5.820406e-08
5.541584e-08
5.2709349e-08
5.0167631e-08
4.7677653e-08
4.5302694e-08
4.3010232e-08
4.0813535e-08
3.8702993e-08
3.668324e-08
3.4748333e-08
3.2901686e-08
3.1134305e-08
2.9449443e-08
2.7840631e-08
2.6310891e-08
2.487036e-08
2.3462125e-08
2.2144211e-08
2.0919703e-08
1.9741482e-08
1.8645895e-08
1.7605667e-08
1.6653693e-08
1.5754861e-08
1.4932155e-08
1.4178658e-08
1.3506816e-08
1.2913395e-08
1.2413668e-08
1.1988107e-08
1.169309e-08
1.1507289e-08
1.1287589e-08
1.1304305e-08
1.0828756e-08
1.1053271e-08
1.1003677e-08
1.1558517e-08
1.1025793e-08
1.1721298e-08
1.0872977e-08
1.1980966e-08
9.4218778e-09
1.1778728e-08
7.3208308e-09
9.0418015e-09
6.574701e-09
1.412127e-08
3.7875185e-09
1.2344815e-08
2.1995094e-09
1.0128044e-09
4.8222022e-09
3.4572033e-08
6.4840616e-08
1.6115963e-07
1.4670443e-07
3.5451962e-08
1.2975509e-08
1.2534351e-08
2.8817085e-08
3.1388535e-08
4.5738351e-08
2.7364096e-07
2.815268e-07
5.4587693e-07
3.0283183e-07
3.6912729e-07
1.6562887e-07
1.2011835e-06
2.049891e-06
2.0969619e-07
2.1439415e-07
2.2083514e-07
1.0106278e-06
2.3444952e-06
3.4947557e-07
4.5199301e-07
3.4852887e-06
1.2987864e-05
4.1161241e-06
0.0074511377
0.021998519
0.00016722762
1.7687566e-05
1.040877e-05
1.1150726e-05
7.2385434e-06
8.7227121e-06
6.9454115e-06
5.0277189e-06
3.5811172e-06
2.1922274e-06
1.4711337e-06
8.2868024e-07
7.5259112e-07
4.1398979e-07
2.7321842e-07
2.9404691e-07
3.320286e-07
2.9712609e-07
2.4317987e-07
1.3899062e-07
6.254314e-08
2.8472685e-08
3.0618765e-08
3.06806e-08
2.2874444e-08
1.6507223e-08
1.1252394e-08
1.0125035e-08
8.3552925e-09
6.9354191e-09
5.5248205e-09
4.9380357e-09
4.2722525e-09
3.6120016e-09
3.1233324e-09
2.7505275e-09
2.476351e-09
2.3226242e-09
2.2645361e-09
2.2396745e-09
2.2575496e-09
2.2543516e-09
2.3413691e-09
2.468932e-09
2.6337839e-09
2.8477078e-09
3.1176598e-09
3.445128e-09
3.8309096e-09
4.267924e-09
4.7116594e-09
5.1740692e-09
5.5632946e-09
5.9753674e-09
6.1605963e-09
6.5545883e-09
7.2004175e-09
7.6170644e-09
7.9936994e-09
8.290549e-09
8.5217456e-09
8.6970605e-09
8.8590561e-09
9.0359895e-09
9.2396291e-09
9.4085155e-09
9.5065085e-09
9.5773648e-09
9.5876466e-09
9.512101e-09
9.4092622e-09
9.1702444e-09
8.9758011e-09
8.646585e-09
8.5874622e-09
8.5242734e-09
9.7341612e-09
1.3198518e-08
1.6685508e-08
2.0383064e-08
2.3969185e-08
2.7637239e-08
3.1179713e-08
3.4728942e-08
3.8156146e-08
4.1538783e-08
4.4799921e-08
4.7995303e-08
5.1104287e-08
5.4159978e-08
5.7163034e-08
6.0106155e-08
6.3000373e-08
6.5851186e-08
6.8645307e-08
7.1392432e-08
7.4091379e-08
7.6738865e-08
7.9331968e-08
8.1865102e-08
8.4337467e-08
8.6746298e-08
8.908514e-08
9.1350289e-08
9.3539276e-08
9.5646739e-08
9.766445e-08
9.9594447e-08
1.0143151e-07
1.0317627e-07
1.0482355e-07
1.0637242e-07
1.0782067e-07
1.0916803e-07
1.1041197e-07
1.1155423e-07
1.1259095e-07
1.1352223e-07
1.1434934e-07
1.1506997e-07
1.1568841e-07
1.1620313e-07
1.1661908e-07
1.1693637e-07
1.1715597e-07
1.172811e-07
1.1731666e-07
1.1726578e-07
1.1712969e-07
1.1691587e-07
1.1662126e-07
1.1626096e-07
1.1581884e-07
1.1529836e-07
1.1472207e-07
1.1408605e-07
1.1339322e-07
1.1264592e-07
1.1185362e-07
1.110159e-07
1.1013521e-07
1.0921305e-07
1.0825803e-07
1.0727177e-07
1.0625775e-07
1.0521778e-07
1.0415642e-07
1.0307589e-07
1.0197795e-07
1.0086439e-07
9.973912e-08
9.8604348e-08
9.7462844e-08
9.6316412e-08
9.5167228e-08
9.4019189e-08
9.2870808e-08
9.1730363e-08
9.0588396e-08
8.9456619e-08
8.8323089e-08
8.7191275e-08
8.6072514e-08
8.4960888e-08
8.38578e-08
8.276729e-08
8.168906e-08
8.0627146e-08
7.9577413e-08
7.8539713e-08
7.7511364e-08
7.6492594e-08
7.5472757e-08
7.4467933e-08
7.3451226e-08
7.2322813e-08
7.1158549e-08
7.0096872e-08
6.9132897e-08
6.8258868e-08
6.7397211e-08
6.6545627e-08
6.5681609e-08
6.4830412e-08
6.3970938e-08
6.3130238e-08
6.2284645e-08
6.1445044e-08
6.0603585e-08
5.9781905e-08
5.89643e-08
5.8152675e-08
5.7348614e-08
5.6547895e-08
5.5749097e-08
5.4955084e-08
5.4162217e-08
5.3373097e-08
5.2584882e-08
5.1797377e-08
5.1005992e-08
5.0208711e-08
4.9411553e-08
4.860238e-08
4.7780057e-08
4.6956077e-08
4.6112307e-08
4.5247974e-08
4.4356708e-08
4.3442349e-08
4.2494131e-08
4.1515706e-08
4.0500395e-08
3.9442556e-08
3.8323837e-08
3.7168076e-08
3.5952756e-08
3.4697357e-08
3.3375825e-08
3.2019338e-08
3.0594884e-08
2.8970454e-08
2.8247765e-08
2.8240546e-08
2.8772787e-08
2.9357357e-08
3.0234997e-08
3.0847826e-08
3.1960633e-08
3.228891e-08
3.3947571e-08
3.4446323e-08
3.5002289e-08
3.2994503e-08
3.9748293e-08
3.4163906e-08
4.3465376e-08
4.4676963e-08
2.5465087e-08
3.6941598e-08
1.3134458e-07
1.5539605e-07
1.0162094e-07
5.5962542e-08
2.6054842e-08
1.1339584e-08
2.0425713e-08
1.4870459e-07
1.5533827e-07
5.214763e-08
8.7209595e-08
1.9975449e-07
1.8301302e-07
9.6614679e-08
7.5527279e-08
4.9606896e-08
2.8260355e-07
3.6787727e-07
7.0891748e-08
2.4146813e-07
1.7960904e-07
2.4943372e-07
4.3344711e-07
7.4707322e-08
1.4204219e-07
7.9791744e-07
2.4146064e-06
1.1774001e-06
0.0010999588
0.00327022
3.1052999e-05
4.0329381e-06
2.0142806e-06
1.8963176e-06
1.2470497e-06
1.4420781e-06
1.174545e-06
8.9787013e-07
6.7861118e-07
4.5128588e-07
3.3262364e-07
2.3266644e-07
2.2479798e-07
1.8837565e-07
1.1398789e-06
1.2455343e-06
1.2530986e-06
1.132133e-06
9.0802141e-07
6.275793e-07
3.7530262e-07
1.9510954e-07
9.4015506e-08
4.4459988e-08
2.3095576e-08
1.4095393e-08
8.8198934e-09
7.2774704e-09
6.066284e-09
5.3489318e-09
4.6865551e-09
4.3355178e-09
4.0596912e-09
3.8082466e-09
3.6367397e-09
3.5090914e-09
3.432748e-09
3.4227792e-09
3.485248e-09
3.5969495e-09
3.7528432e-09
3.9376768e-09
4.1918528e-09
4.5061815e-09
4.8868241e-09
5.3469504e-09
5.8988706e-09
6.5536601e-09
7.3200184e-09
8.1981479e-09
9.1693289e-09
1.0245531e-08
1.1411876e-08
1.2669249e-08
1.3920642e-08
1.5353857e-08
1.7058129e-08
1.8823468e-08
2.0684068e-08
2.2625236e-08
2.4619429e-08
2.6665127e-08
2.8815228e-08
3.1109677e-08
3.3518088e-08
3.5992898e-08
3.8455822e-08
4.0847429e-08
4.3095275e-08
4.5057825e-08
4.6665892e-08
4.7759176e-08
4.8360398e-08
4.8363016e-08
4.8323336e-08
4.8593405e-08
5.1536852e-08
6.0807231e-08
7.2524004e-08
8.3895669e-08
9.5161084e-08
1.0627187e-07
1.1723232e-07
1.2805891e-07
1.3875839e-07
1.493438e-07
1.5970273e-07
1.6988216e-07
1.7995574e-07
1.8993936e-07
1.9984464e-07
2.0966779e-07
2.194136e-07
2.2908722e-07
2.3869281e-07
2.4822728e-07
2.5768448e-07
2.6706446e-07
2.7636322e-07
2.8556753e-07
2.9466562e-07
3.0365167e-07
3.1251149e-07
3.2123402e-07
3.2981201e-07
3.3822931e-07
3.4647071e-07
3.5452986e-07
3.6239202e-07
3.7005566e-07
3.7751308e-07
3.8475486e-07
3.9177816e-07
3.9857629e-07
4.0514463e-07
4.1147953e-07
4.1757552e-07
4.2342186e-07
4.2901161e-07
4.3433862e-07
4.3940143e-07
4.4420078e-07
4.4873893e-07
4.5301681e-07
4.5702798e-07
4.6077266e-07
4.6426258e-07
4.6750506e-07
4.7049962e-07
4.7324914e-07
4.7575372e-07
4.7804458e-07
4.8010911e-07
4.819028e-07
4.8347206e-07
4.8484291e-07
4.8599291e-07
4.8693507e-07
4.8769095e-07
4.8826579e-07
4.886478e-07
4.8883884e-07
4.888597e-07
4.8872438e-07
4.8843229e-07
4.8798687e-07
4.8739956e-07
4.8667729e-07
4.8582054e-07
4.8483003e-07
4.8371523e-07
4.8248439e-07
4.8114578e-07
4.7970522e-07
4.7816991e-07
4.7655258e-07
4.7485414e-07
4.730922e-07
4.7125629e-07
4.693502e-07
4.6736352e-07
4.6527369e-07
4.6312845e-07
4.60936e-07
4.5867484e-07
4.56366e-07
4.5401834e-07
4.5164849e-07
4.4925266e-07
4.4681906e-07
4.4432794e-07
4.4176726e-07
4.3909013e-07
4.3630596e-07
4.3345665e-07
4.2998568e-07
4.2592167e-07
4.2224406e-07
4.1899002e-07
4.1616562e-07
4.1341862e-07
4.1058292e-07
4.0766421e-07
4.0467125e-07
4.0160996e-07
3.9848426e-07
3.953252e-07
3.9206291e-07
3.8870302e-07
3.8531784e-07
3.8190984e-07
3.7842664e-07
3.7491358e-07
3.7132648e-07
3.6766472e-07
3.6394428e-07
3.6014477e-07
3.5628191e-07
3.5234409e-07
3.4832627e-07
3.4420139e-07
3.3995208e-07
3.3561155e-07
3.3114946e-07
3.2649695e-07
3.2173622e-07
3.1678327e-07
3.1159445e-07
3.0615152e-07
3.0044889e-07
2.944444e-07
2.881399e-07
2.8149343e-07
2.7445245e-07
2.6688598e-07
2.5895168e-07
2.5050566e-07
2.4163251e-07
2.3216454e-07
2.2247611e-07
2.1205146e-07
2.0068691e-07
1.9518361e-07
1.9518772e-07
1.9851836e-07
2.0335253e-07
2.0905844e-07
2.144129e-07
2.2142843e-07
2.2646863e-07
2.3617245e-07
2.4441252e-07
2.4667254e-07
2.3457943e-07
2.7615614e-07
2.4599239e-07
3.0522931e-07
3.2428181e-07
1.8507821e-07
2.6685082e-07
9.2634285e-07
1.0672015e-06
5.7029151e-07
2.5723319e-07
1.5354413e-07
6.9550561e-08
1.3787592e-07
1.054996e-06
1.0999096e-06
3.2794301e-07
3.7066567e-07
1.2364856e-06
7.6998764e-07
3.9603088e-07
1.6501914e-07
1.9548176e-07
7.9016365e-07
3.8046137e-07
2.8661874e-07
1.5455801e-06
1.0723137e-06
7.4290123e-07
4.5526549e-07
1.9650657e-07
5.7529811e-07
2.1936887e-06
3.7490832e-06
1.8301641e-06
0.00032462025
0.00097467054
5.4605537e-05
1.1149218e-05
4.1001487e-06
2.6875951e-06
1.8240678e-06
1.618126e-06
1.4918859e-06
1.3880448e-06
1.2331278e-06
1.037328e-06
9.0618795e-07
8.485017e-07
8.6752883e-07
9.5037134e-07
4.1540581e-06
4.5445453e-06
4.5352802e-06
4.1010555e-06
3.2846662e-06
2.3006182e-06
1.3976686e-06
7.3132078e-07
3.3524728e-07
1.4166402e-07
6.6337504e-08
3.7750849e-08
2.2704441e-08
1.7702841e-08
1.4986131e-08
1.3644772e-08
1.2549401e-08
1.1789461e-08
1.1393e-08
1.1097563e-08
1.0934283e-08
1.0821155e-08
1.0806843e-08
1.0932527e-08
1.1233706e-08
1.1683985e-08
1.2276571e-08
1.3002231e-08
1.3901135e-08
1.499252e-08
1.6303277e-08
1.7872479e-08
1.9741646e-08
2.1952365e-08
2.4536042e-08
2.7502275e-08
3.0824006e-08
3.4535613e-08
3.8673163e-08
4.3146828e-08
4.782194e-08
5.2996861e-08
5.8962482e-08
6.5407584e-08
7.2263335e-08
7.9516417e-08
8.7045613e-08
9.4833486e-08
1.0304188e-07
1.1179655e-07
1.2096597e-07
1.3043202e-07
1.399277e-07
1.4917406e-07
1.5792399e-07
1.6565311e-07
1.7202914e-07
1.7654072e-07
1.7908857e-07
1.794424e-07
1.7935183e-07
1.8047007e-07
1.9067266e-07
2.2317144e-07
2.651824e-07
3.0563951e-07
3.4579756e-07
3.8526958e-07
4.2428741e-07
4.6277689e-07
5.0089489e-07
5.3861544e-07
5.7558008e-07
6.1191249e-07
6.4792433e-07
6.8364006e-07
7.1910529e-07
7.5431233e-07
7.892686e-07
8.2398898e-07
8.5850288e-07
8.9278855e-07
9.2682329e-07
9.6061048e-07
9.9413782e-07
1.0273594e-06
1.0602304e-06
1.0927308e-06
1.124812e-06
1.156435e-06
1.1875738e-06
1.218171e-06
1.248176e-06
1.2775618e-06
1.3062767e-06
1.334314e-06
1.3616492e-06
1.3882467e-06
1.4140977e-06
1.4391764e-06
1.4634674e-06
1.4869546e-06
1.5096207e-06
1.5314232e-06
1.552334e-06
1.5723301e-06
1.5914031e-06
1.6095575e-06
1.6267968e-06
1.6431246e-06
1.658515e-06
1.6729655e-06
1.6865164e-06
1.6991935e-06
1.7109931e-06
1.7219191e-06
1.731975e-06
1.7412664e-06
1.7497613e-06
1.7572824e-06
1.7639866e-06
1.7699801e-06
1.7751727e-06
1.7796124e-06
1.7833729e-06
1.7864753e-06
1.7888714e-06
1.7905667e-06
1.7916335e-06
1.7921242e-06
1.7920334e-06
1.7913724e-06
1.7901811e-06
1.788484e-06
1.7862813e-06
1.783574e-06
1.7803946e-06
1.7767736e-06
1.7727399e-06
1.7683145e-06
1.7635231e-06
1.7584114e-06
1.7529841e-06
1.7473014e-06
1.7413321e-06
1.7350789e-06
1.7285138e-06
1.7215452e-06
1.7143472e-06
1.7069581e-06
1.6992928e-06
1.6914288e-06
1.683401e-06
1.6752701e-06
1.6670254e-06
1.658621e-06
1.6499827e-06
1.641064e-06
1.6316925e-06
1.6218903e-06
1.611849e-06
1.5994981e-06
1.5848773e-06
1.5716564e-06
1.5599806e-06
1.5498861e-06
1.5400803e-06
1.5299178e-06
1.519446e-06
1.5086717e-06
1.4976398e-06
1.4863379e-06
1.4749114e-06
1.4630762e-06
1.4508631e-06
1.4385313e-06
1.4261067e-06
1.413383e-06
1.4005353e-06
1.3873959e-06
1.3739641e-06
1.3602988e-06
1.3463246e-06
1.3320998e-06
1.3175824e-06
1.3027528e-06
1.2875105e-06
1.2717898e-06
1.2557139e-06
1.2391771e-06
1.2219123e-06
1.204228e-06
1.1858159e-06
1.1665068e-06
1.1462364e-06
1.1249787e-06
1.1025811e-06
1.0790465e-06
1.0542185e-06
1.0278988e-06
9.9959631e-07
9.699e-07
9.3827267e-07
9.0502369e-07
8.6952824e-07
8.3320942e-07
7.9413575e-07
7.5168738e-07
7.3108327e-07
7.3111305e-07
7.4355143e-07
7.6178656e-07
7.831183e-07
8.033507e-07
8.2954667e-07
8.48857e-07
8.8499163e-07
9.1650857e-07
9.245845e-07
8.7991467e-07
1.0347588e-06
9.2320776e-07
1.1447569e-06
1.2150071e-06
6.9370111e-07
1.0108202e-06
3.4799635e-06
3.9863924e-06
2.1040062e-06
9.3815841e-07
5.6827961e-07
2.5834376e-07
5.247685e-07
3.9641321e-06
4.1079912e-06
1.2122943e-06
1.3681579e-06
4.6052327e-06
2.7933243e-06
1.4350559e-06
5.5810839e-07
7.2551731e-07
2.7659e-06
9.6193996e-07
1.054896e-06
5.7746959e-06
4.0007318e-06
2.7064508e-06
1.2465156e-06
6.8792031e-07
2.0985621e-06
7.7539612e-06
1.1987882e-05
5.6441231e-06
0.0001532875
0.00053630353
0.00018001929
3.9206418e-05
1.3850635e-05
8.5343676e-06
5.852235e-06
4.805205e-06
4.5978446e-06
4.4707854e-06
4.0816427e-06
3.5715143e-06
3.1790575e-06
3.0633596e-06
3.1444639e-06
3.5048046e-06
1.1058208e-05
1.2100549e-05
1.2067854e-05
1.0915805e-05
8.7435485e-06
6.1346397e-06
3.734665e-06
1.9567124e-06
8.9293744e-07
3.7246889e-07
1.7199236e-07
9.6737788e-08
5.7862212e-08
4.4469095e-08
3.7904839e-08
3.468245e-08
3.21561e-08
3.0279732e-08
2.9393747e-08
2.8782258e-08
2.8477927e-08
2.8275385e-08
2.8310552e-08
2.8689775e-08
2.950701e-08
3.0717648e-08
3.2302212e-08
3.4249008e-08
3.6632665e-08
3.9521419e-08
4.2987633e-08
4.7132776e-08
5.2066821e-08
5.7900798e-08
6.4717892e-08
7.2547756e-08
8.1330217e-08
9.1153802e-08
1.0214069e-07
1.1402818e-07
1.2651139e-07
1.4027914e-07
1.5609648e-07
1.7327087e-07
1.915586e-07
2.1093672e-07
2.3107714e-07
2.5192747e-07
2.7390725e-07
2.9734664e-07
3.2189236e-07
3.4724737e-07
3.7270542e-07
3.9750463e-07
4.2099148e-07
4.4176584e-07
4.5891817e-07
4.7110538e-07
4.780088e-07
4.7906098e-07
4.7884578e-07
4.818725e-07
5.0888297e-07
5.950311e-07
7.0671172e-07
8.1419148e-07
9.2089979e-07
1.0257456e-06
1.1294085e-06
1.2316519e-06
1.3329306e-06
1.4331537e-06
1.5313837e-06
1.6279371e-06
1.7236562e-06
1.8185944e-06
1.9128756e-06
2.0064806e-06
2.0994265e-06
2.191752e-06
2.2835394e-06
2.3747277e-06
2.4652565e-06
2.5551358e-06
2.6443336e-06
2.7327281e-06
2.820199e-06
2.9066937e-06
2.9920837e-06
3.0762656e-06
3.1591704e-06
3.2406448e-06
3.3205564e-06
3.3988314e-06
3.4753335e-06
3.5500438e-06
3.6228986e-06
3.6938023e-06
3.7627324e-06
3.8296191e-06
3.8944218e-06
3.9570971e-06
4.0175994e-06
4.075815e-06
4.1316669e-06
4.1850905e-06
4.2360672e-06
4.284609e-06
4.3307241e-06
4.3744217e-06
4.4156327e-06
4.4543493e-06
4.4906785e-06
4.5246879e-06
4.5563676e-06
4.5857255e-06
4.6127731e-06
4.6377886e-06
4.6606906e-06
4.6810028e-06
4.6991391e-06
4.7153856e-06
4.7295009e-06
4.7416123e-06
4.7519143e-06
4.7604633e-06
4.7671304e-06
4.7719301e-06
4.775053e-06
4.7766398e-06
4.7766747e-06
4.7751875e-06
4.7722842e-06
4.7680296e-06
4.7624237e-06
4.7554689e-06
4.7472517e-06
4.7378526e-06
4.7273491e-06
4.7157963e-06
4.7032629e-06
4.6898699e-06
4.6756309e-06
4.6607045e-06
4.6450095e-06
4.6285495e-06
4.6112546e-06
4.5928773e-06
4.5738815e-06
4.5543711e-06
4.5341176e-06
4.5133278e-06
4.4920958e-06
4.4705825e-06
4.4487601e-06
4.4265059e-06
4.4036209e-06
4.3799807e-06
4.3551267e-06
4.329118e-06
4.3024744e-06
4.269661e-06
4.2307769e-06
4.1956193e-06
4.1645711e-06
4.1377389e-06
4.1116789e-06
4.0846584e-06
4.0568142e-06
4.0281547e-06
3.9988063e-06
3.9687301e-06
3.9383215e-06
3.9068136e-06
3.8742932e-06
3.8414491e-06
3.8083563e-06
3.7744593e-06
3.7402273e-06
3.7052129e-06
3.6694138e-06
3.632987e-06
3.5957321e-06
3.557804e-06
3.5190911e-06
3.4795408e-06
3.4388849e-06
3.3969477e-06
3.3540586e-06
3.3099368e-06
3.263866e-06
3.2166708e-06
3.1675298e-06
3.1159899e-06
3.0618797e-06
3.0051287e-06
2.9453305e-06
2.8824921e-06
2.8161954e-06
2.7459111e-06
2.6703263e-06
2.5910147e-06
2.5065401e-06
2.4177272e-06
2.3229119e-06
2.2258916e-06
2.1216257e-06
2.0086029e-06
1.9537814e-06
1.9538792e-06
1.9871443e-06
2.0359295e-06
2.0929583e-06
2.1470917e-06
2.2171144e-06
2.2688836e-06
2.3655416e-06
2.4497548e-06
2.4708537e-06
2.3525802e-06
2.7658583e-06
2.4685397e-06
3.0613671e-06
3.2411798e-06
1.851583e-06
2.7288617e-06
9.3177349e-06
1.0616853e-05
5.5789501e-06
2.4829644e-06
1.5084443e-06
6.8711346e-07
1.4259665e-06
1.0613623e-05
1.0924911e-05
3.2053937e-06
3.6680087e-06
1.2259148e-05
7.3861573e-06
3.7952864e-06
1.4602084e-06
1.9572311e-06
7.2713185e-06
2.4117962e-06
2.8561209e-06
1.5438593e-05
1.0685104e-05
7.2450044e-06
3.1652182e-06
1.8325206e-06
5.6267146e-06
2.0702585e-05
3.108274e-05
1.4166291e-05
0.00012157871
0.00057702446
0.00046774257
0.00010352182
3.6428266e-05
2.2282202e-05
1.5363749e-05
1.2453322e-05
1.1994047e-05
1.1721817e-05
1.073436e-05
9.4566628e-06
8.4296614e-06
8.1520194e-06
8.3680736e-06
9.3442546e-06
2.4145965e-05
2.6426774e-05
2.6359242e-05
2.3851552e-05
1.9111548e-05
1.3418507e-05
8.1757014e-06
4.2872497e-06
1.9561147e-06
8.143172e-07
3.7491684e-07
2.1012541e-07
1.2561255e-07
9.5944041e-08
8.2059173e-08
7.5143872e-08
6.9818575e-08
6.5773246e-08
6.389815e-08
6.2627763e-08
6.2012408e-08
6.1607909e-08
6.1711044e-08
6.2552452e-08
6.4336884e-08
6.698483e-08
7.0446483e-08
7.4702652e-08
7.9902863e-08
8.6203507e-08
9.3762654e-08
1.0280085e-07
1.1355826e-07
1.2627763e-07
1.4114097e-07
1.5821669e-07
1.7737921e-07
1.988193e-07
2.2281468e-07
2.4878641e-07
2.7608286e-07
3.0616102e-07
3.4069797e-07
3.7824383e-07
4.1823509e-07
4.6062777e-07
5.0470365e-07
5.50341e-07
5.9844575e-07
6.4973949e-07
7.034564e-07
7.5895556e-07
8.1469533e-07
8.6900233e-07
9.204491e-07
9.6597237e-07
1.0035719e-06
1.0303173e-06
1.0454848e-06
1.0478599e-06
1.0474331e-06
1.0541037e-06
1.1130627e-06
1.3010776e-06
1.5450181e-06
1.7798016e-06
2.0129077e-06
2.2419266e-06
2.4683693e-06
2.6917021e-06
2.9129337e-06
3.1318522e-06
3.3464241e-06
3.5573385e-06
3.7664376e-06
3.97383e-06
4.1797907e-06
4.3842777e-06
4.5873273e-06
4.789024e-06
4.9895493e-06
5.1887685e-06
5.38655e-06
5.5829164e-06
5.7777984e-06
5.9709288e-06
6.1620451e-06
6.3510318e-06
6.53761e-06
6.7215539e-06
6.902712e-06
7.0807496e-06
7.2553786e-06
7.4264365e-06
7.593627e-06
7.7569075e-06
7.9161401e-06
8.0711156e-06
8.2217844e-06
8.3679938e-06
8.5096549e-06
8.6466725e-06
8.778948e-06
8.9062323e-06
9.028351e-06
9.1451588e-06
9.2566253e-06
9.3627763e-06
9.4636288e-06
9.5592027e-06
9.6493477e-06
9.7340471e-06
9.8135338e-06
9.8879538e-06
9.9572858e-06
1.0021546e-05
1.0080762e-05
1.0135539e-05
1.0185701e-05
1.0230207e-05
1.0269957e-05
1.0305578e-05
1.0336544e-05
1.0363134e-05
1.0385768e-05
1.0404569e-05
1.0419259e-05
1.0429869e-05
1.0436815e-05
1.0440401e-05
1.0440595e-05
1.0437462e-05
1.0431233e-05
1.0422048e-05
1.0409909e-05
1.0394819e-05
1.037697e-05
1.0356535e-05
1.0333685e-05
1.0308539e-05
1.0281248e-05
1.0252076e-05
1.0221052e-05
1.0188522e-05
1.0154308e-05
1.0118418e-05
1.0080704e-05
1.0040622e-05
9.9991856e-06
9.9566217e-06
9.9124311e-06
9.8670658e-06
9.8207319e-06
9.7737796e-06
9.7261488e-06
9.6775693e-06
9.6276058e-06
9.5759869e-06
9.5217133e-06
9.4649226e-06
9.4067494e-06
9.3350758e-06
9.2501413e-06
9.1733507e-06
9.1055216e-06
9.0469027e-06
8.9899767e-06
8.9309449e-06
8.8701182e-06
8.8075051e-06
8.7433832e-06
8.6776719e-06
8.6112342e-06
8.5423857e-06
8.4713238e-06
8.399552e-06
8.3272375e-06
8.2531615e-06
8.1783516e-06
8.1018296e-06
8.0235914e-06
7.9439786e-06
7.8625544e-06
7.7796561e-06
7.6950408e-06
7.6085934e-06
7.5197274e-06
7.4280581e-06
7.334307e-06
7.2378601e-06
7.13715e-06
7.0339797e-06
6.9265547e-06
6.813885e-06
6.6955958e-06
6.5715307e-06
6.4408033e-06
6.3034286e-06
6.158491e-06
6.0048345e-06
5.8395874e-06
5.6661914e-06
5.4815016e-06
5.2873219e-06
5.0800252e-06
4.8678874e-06
4.6401777e-06
4.3938712e-06
4.274528e-06
4.2747774e-06
4.34763e-06
4.454406e-06
4.5792419e-06
4.6977146e-06
4.8509865e-06
4.9643891e-06
5.1762051e-06
5.3599854e-06
5.4052638e-06
5.1488425e-06
6.0522518e-06
5.402785e-06
6.7012514e-06
7.0744815e-06
4.0438922e-06
6.0288861e-06
2.0412684e-05
2.3124195e-05
1.2109326e-05
5.3846269e-06
3.27755e-06
1.495696e-06
3.1692693e-06
2.3246851e-05
2.3756178e-05
6.9379077e-06
8.0752289e-06
2.6628324e-05
1.5996981e-05
8.2284459e-06
3.1563392e-06
4.3058815e-06
1.5712536e-05
5.1363114e-06
6.3473792e-06
3.3798394e-05
2.3286829e-05
1.585349e-05
6.8107103e-06
4.0180141e-06
1.2375253e-05
4.5384779e-05
6.6732505e-05
3.0273083e-05
0.00016145741
0.00093119121
0.001005426
0.00022375677
7.9036714e-05
4.8298346e-05
3.3454658e-05
2.7037285e-05
2.6075722e-05
2.5508035e-05
2.3387076e-05
2.0659789e-05
1.8414609e-05
1.7817207e-05
1.8279614e-05
2.0417621e-05
4.6262332e-05
5.0643587e-05
5.0531964e-05
4.5747604e-05
3.667508e-05
2.5768177e-05
1.5711653e-05
8.2462947e-06
3.7643322e-06
1.5668024e-06
7.2050185e-07
4.0293908e-07
2.4093651e-07
1.8330279e-07
1.5705694e-07
1.438394e-07
1.3379828e-07
1.2605746e-07
1.2247897e-07
1.2006958e-07
1.1891081e-07
1.1815293e-07
1.1835987e-07
1.1997195e-07
1.2338404e-07
1.2845825e-07
1.3509148e-07
1.4324997e-07
1.5321341e-07
1.6528527e-07
1.7976842e-07
1.9708501e-07
2.1769557e-07
2.4206596e-07
2.7054638e-07
3.0327315e-07
3.4001104e-07
3.8112141e-07
4.2714241e-07
4.7696903e-07
5.293506e-07
5.8704141e-07
6.5327931e-07
7.2533088e-07
8.0208831e-07
8.8347221e-07
9.6810558e-07
1.0557435e-06
1.1481062e-06
1.2465807e-06
1.3497146e-06
1.456284e-06
1.5633323e-06
1.6676444e-06
1.7664792e-06
1.8539564e-06
1.926228e-06
1.9776736e-06
2.006878e-06
2.0115498e-06
2.0108385e-06
2.0237662e-06
2.1368896e-06
2.4972904e-06
2.9651026e-06
3.4154505e-06
3.8625766e-06
4.3018428e-06
4.7361646e-06
5.1645075e-06
5.5888139e-06
6.0086621e-06
6.4201779e-06
6.824687e-06
7.2257157e-06
7.6234624e-06
8.0184638e-06
8.4106369e-06
8.8000525e-06
9.1868723e-06
9.5714459e-06
9.953514e-06
1.0332825e-05
1.0709423e-05
1.1083177e-05
1.1453571e-05
1.1820104e-05
1.2182553e-05
1.2540385e-05
1.289317e-05
1.3240614e-05
1.3582077e-05
1.3917007e-05
1.4245092e-05
1.4565766e-05
1.4878944e-05
1.5184366e-05
1.5481629e-05
1.5770637e-05
1.6051097e-05
1.6322838e-05
1.6585678e-05
1.6839428e-05
1.708361e-05
1.731787e-05
1.7541932e-05
1.7755757e-05
1.7959392e-05
1.8152871e-05
1.8336228e-05
1.850918e-05
1.8671696e-05
1.8824219e-05
1.8967027e-05
1.910008e-05
1.9223407e-05
1.9337067e-05
1.9442215e-05
1.9538515e-05
1.9623973e-05
1.970031e-05
1.9768724e-05
1.982822e-05
1.9879325e-05
1.9922841e-05
1.9959004e-05
1.9987283e-05
2.0007741e-05
2.0021171e-05
2.0028157e-05
2.0028634e-05
2.0022731e-05
2.0010887e-05
1.9993372e-05
1.9970189e-05
1.9941348e-05
1.9907211e-05
1.9868114e-05
1.9824383e-05
1.9776247e-05
1.9723994e-05
1.9668129e-05
1.9608711e-05
1.9546398e-05
1.9480849e-05
1.9412083e-05
1.9339819e-05
1.9263013e-05
1.9183606e-05
1.9102035e-05
1.9017341e-05
1.8930392e-05
1.8841583e-05
1.8751585e-05
1.8660279e-05
1.8567146e-05
1.847135e-05
1.8372371e-05
1.8268301e-05
1.8159424e-05
1.8047903e-05
1.7910462e-05
1.7747626e-05
1.760041e-05
1.7470336e-05
1.735791e-05
1.724874e-05
1.7135523e-05
1.7018877e-05
1.6898799e-05
1.6775822e-05
1.6649804e-05
1.6522393e-05
1.6390346e-05
1.6254055e-05
1.61164e-05
1.5977708e-05
1.5835633e-05
1.5692147e-05
1.5545377e-05
1.5395315e-05
1.5242613e-05
1.5086437e-05
1.4927429e-05
1.4765127e-05
1.4599309e-05
1.4428851e-05
1.4253012e-05
1.407318e-05
1.3888176e-05
1.3694992e-05
1.3497086e-05
1.3291018e-05
1.3074891e-05
1.2847987e-05
1.261e-05
1.2359234e-05
1.2095717e-05
1.181769e-05
1.1522937e-05
1.1205948e-05
1.0873328e-05
1.0519031e-05
1.0146521e-05
9.7488665e-06
9.3418717e-06
8.9055184e-06
8.4345551e-06
8.2066231e-06
8.2071671e-06
8.3471711e-06
8.5521937e-06
8.7919849e-06
9.0194503e-06
9.3138319e-06
9.5317475e-06
9.9391097e-06
1.0290796e-05
1.0376232e-05
9.8885327e-06
1.1621486e-05
1.0376179e-05
1.2870756e-05
1.354412e-05
7.7470112e-06
1.1686801e-05
3.9216043e-05
4.4141785e-05
2.3044162e-05
1.0240558e-05
6.2455275e-06
2.8554031e-06
6.1771086e-06
4.4645337e-05
4.5269878e-05
1.3176212e-05
1.5629701e-05
5.061095e-05
3.0354433e-05
1.5645169e-05
5.9992838e-06
8.2931375e-06
2.9790832e-05
9.6457451e-06
1.2389965e-05
6.4901132e-05
4.4441728e-05
3.0320234e-05
1.2937859e-05
7.7351406e-06
2.3858116e-05
8.7139278e-05
0.00012565883
5.7654081e-05
0.00025497849
0.0012472867
0.001893112
0.00042193007
0.00015040637
9.2032326e-05
6.399414e-05
5.1698311e-05
4.9859385e-05
4.8814527e-05
4.481049e-05
3.9664181e-05
3.5347499e-05
3.4191645e-05
3.5050743e-05
3.9148358e-05
8.0842645e-05
8.8523016e-05
8.8368856e-05
8.0056565e-05
6.422605e-05
4.5166667e-05
2.7563503e-05
1.4481305e-05
6.6148366e-06
2.7535902e-06
1.2651199e-06
7.062541e-07
4.2244092e-07
3.204387e-07
2.7480733e-07
2.5167691e-07
2.3429941e-07
2.2074944e-07
2.1447582e-07
2.10267e-07
2.0824671e-07
2.0692964e-07
2.0729192e-07
2.1010033e-07
2.1605233e-07
2.2492044e-07
2.3651831e-07
2.5078664e-07
2.6821036e-07
2.8932212e-07
3.1465173e-07
3.4493718e-07
3.809843e-07
4.236089e-07
4.7342612e-07
5.30683e-07
5.9497602e-07
6.6692901e-07
7.474868e-07
8.3473251e-07
9.2646366e-07
1.0274505e-06
1.143402e-06
1.2695871e-06
1.4040332e-06
1.5466072e-06
1.6949015e-06
1.848468e-06
2.0102891e-06
2.1827983e-06
2.3634817e-06
2.5502027e-06
2.7377863e-06
2.9206008e-06
3.093841e-06
3.2472092e-06
3.3739539e-06
3.4642429e-06
3.5155569e-06
3.5239711e-06
3.5229828e-06
3.5459369e-06
3.7441998e-06
4.3747352e-06
5.1934316e-06
5.9817656e-06
6.7644277e-06
7.5332888e-06
8.2934697e-06
9.0431514e-06
9.7857387e-06
1.0520467e-05
1.1240613e-05
1.1948506e-05
1.2650298e-05
1.3346321e-05
1.4037532e-05
1.4723782e-05
1.5405197e-05
1.6082061e-05
1.6754987e-05
1.7423521e-05
1.8087223e-05
1.8746174e-05
1.9400148e-05
2.0048238e-05
2.0689566e-05
2.1323745e-05
2.1949848e-05
2.2567122e-05
2.3175052e-05
2.3772518e-05
2.4358559e-05
2.4932628e-05
2.549374e-05
2.6041742e-05
2.6576182e-05
2.7096357e-05
2.7602098e-05
2.8092888e-05
2.8568431e-05
2.9028407e-05
2.9472488e-05
2.9899843e-05
3.0309784e-05
3.0701871e-05
3.1076059e-05
3.1432433e-05
3.1771045e-05
3.2091957e-05
3.2394677e-05
3.2679154e-05
3.2946159e-05
3.3196172e-05
3.3429124e-05
3.3645064e-05
3.3844105e-05
3.4028259e-05
3.4196936e-05
3.4346664e-05
3.448043e-05
3.4600332e-05
3.4704646e-05
3.4794287e-05
3.4870647e-05
3.4934135e-05
3.4983833e-05
3.5019857e-05
3.5043586e-05
3.5056033e-05
3.5057092e-05
3.5046986e-05
3.5026483e-05
3.4996052e-05
3.4955701e-05
3.4905447e-05
3.4845926e-05
3.4777723e-05
3.4701407e-05
3.4617379e-05
3.4526142e-05
3.442858e-05
3.4324792e-05
3.4215929e-05
3.4101388e-05
3.3981206e-05
3.3854912e-05
3.372067e-05
3.3581871e-05
3.3439276e-05
3.3291214e-05
3.3139201e-05
3.298393e-05
3.2826565e-05
3.2666901e-05
3.2504024e-05
3.2336467e-05
3.2163326e-05
3.1981279e-05
3.179086e-05
3.1595821e-05
3.1355386e-05
3.1070612e-05
3.0813163e-05
3.0585609e-05
3.0388884e-05
3.0197878e-05
2.9999774e-05
2.9795695e-05
2.9585602e-05
2.9370423e-05
2.9149941e-05
2.8927018e-05
2.8695961e-05
2.845748e-05
2.8216612e-05
2.7973929e-05
2.772532e-05
2.7474233e-05
2.7217398e-05
2.6954802e-05
2.6687579e-05
2.6414277e-05
2.613601e-05
2.5851975e-05
2.5561785e-05
2.526347e-05
2.4955734e-05
2.4641004e-05
2.4317221e-05
2.3979124e-05
2.3632752e-05
2.327209e-05
2.2893834e-05
2.2496716e-05
2.2080194e-05
2.1641306e-05
2.1180107e-05
2.0693503e-05
2.0177627e-05
1.9622827e-05
1.9040669e-05
1.8420544e-05
1.7768524e-05
1.7072526e-05
1.6360062e-05
1.5597077e-05
1.4775396e-05