/*--------------------------------*- C++ -*----------------------------------*\
| =========                 |                                                 |
| \\      /  F ield         | OpenFOAM: The Open Source CFD Toolbox           |
|  \\    /   O peration     | Version:  2.4.0                                 |
|   \\  /    A nd           | Web:      www.OpenFOAM.org                      |
|    \\/     M anipulation  |                                                 |
\*---------------------------------------------------------------------------*/
FoamFile
{
    version     2.0;
    format      ascii;
    class       volScalarField;
    location    "700";
    object      omega;
}
// * * * * * * * * * * * * * * * * * * * * * * * * * * * * * * * * * * * * * //

dimensions      [0 0 -1 0 0 0 0];

internalField   nonuniform List<scalar> 
78300
(
288636.63
288686.54
288700.32
288833.65
289515.6
291432.02
295479.08
302673.01
314010.37
329813.04
346787.82
362441.63
375829.98
386411.76
393919.79
398343.7
399991.89
399060.36
395721.33
390174.45
382632.29
373308
362413.46
350675.33
339521.98
329123.31
319421.78
310364.21
301901.89
293992.53
286594.56
279672.29
273192.3
267123.9
261439.18
256109.32
250877.53
245350.68
239525.68
233441.11
227134.93
220644.17
214005.21
207254.37
200428.97
193566.99
186709.47
179903.22
173262.16
167044.3
161298.04
156019.07
151204.62
146855.25
142973.85
139564.67
136634.53
134192.24
132247.52
130811.23
129895.27
129511.99
129657.27
129783.85
129783.85
129783.85
129783.85
129783.85
129783.85
129783.85
129783.85
129783.85
129783.85
129783.85
129783.85
129783.85
129783.85
129783.85
129783.85
129783.85
129783.85
129783.85
129783.85
129783.85
129783.85
129783.85
129783.85
129783.85
129783.85
129783.85
129783.85
129783.85
129783.85
129783.85
129783.85
129783.85
129783.85
129783.85
129783.85
129783.85
129783.85
129783.85
129783.85
129783.85
129783.85
129783.85
129783.85
129783.85
129783.85
129783.85
129783.85
129783.85
129783.85
129783.85
129783.85
129783.85
129783.85
129783.85
129783.85
129783.85
129783.85
129783.85
129783.84
129783.85
129783.85
129783.85
129783.85
129783.84
129783.85
129783.85
129783.85
129783.85
129783.85
129783.85
129783.85
129783.85
129783.84
129783.85
129783.85
129783.84
129783.85
129783.85
129783.85
129783.85
129783.85
129783.84
129783.85
129783.85
129783.85
129783.85
129783.85
129783.85
129783.85
129783.85
129783.84
129783.85
129783.85
129783.85
129783.84
129783.85
129783.85
129783.84
129783.85
129783.85
129783.84
129783.85
129783.85
129783.84
129783.85
129783.85
129783.85
129783.85
129783.85
129783.85
129783.85
129783.84
129783.85
129783.85
129783.85
129783.85
129783.85
129783.85
129783.85
129783.85
129783.85
129783.85
129783.85
129783.85
129783.85
129783.85
129783.85
129783.85
129783.85
129783.85
129783.84
129783.85
129783.85
129783.84
129783.85
129783.85
129783.85
129783.85
129783.85
129783.84
129783.85
129783.85
129783.84
129657.28
129512.01
129895.29
130811.3
132247.51
134192.34
136634.64
139564.65
142973.98
146855.32
151204.67
156018.82
161297.58
167043.87
173262.26
179902.7
186708.68
193567.05
200429.57
207253.32
214004.05
220644.49
227134.65
233439.26
239524.1
245352.66
250877.67
256108.08
261440.19
267124.37
273191.43
279670.54
286594.56
293991.4
301901.42
310366.52
319421.34
329122.77
339524.25
350675.48
362412.53
373310.22
382630.09
390168.82
395719.59
399058.73
399989.9
398347.11
393933.36
386411.69
375828.7
362441.02
346789.97
329814.85
314010.09
302672.87
295478.99
291431.81
289515.62
288834.57
288701.21
288686.52
288636.62
48842.145
48849.958
48851.75
48874.018
48989.314
49313.166
49997.128
51212.92
53128.964
55655.855
58317.73
60463.288
63402.98
64161.403
66001.644
66972.863
67682.254
67523.357
66957.901
66020.617
64745.271
63168.282
61325.642
59339.758
57453.881
55692.7
54051.002
52518.22
51086.212
49747.761
48495.871
47324.459
46227.916
45200.98
44238.959
43337.04
42451.895
41516.898
40531.488
39502.273
38435.213
37337.136
36214.056
35071.945
33917.182
32756.235
31596.04
30444.493
29320.785
28268.587
27296.205
26402.877
25588.154
24852.14
24195.301
23618.382
23122.542
22709.253
22380.166
22137.132
21982.16
21917.337
21941.454
21962.05
21961.773
21961.758
21961.745
21961.735
21961.728
21961.717
21961.711
21961.705
21961.7
21961.696
21961.692
21961.69
21961.688
21961.686
21961.684
21961.683
21961.681
21961.68
21961.678
21961.678
21961.676
21961.675
21961.674
21961.673
21961.671
21961.67
21961.668
21961.667
21961.665
21961.664
21961.662
21961.661
21961.659
21961.658
21961.656
21961.654
21961.652
21961.65
21961.648
21961.646
21961.644
21961.643
21961.641
21961.64
21961.639
21961.637
21961.636
21961.635
21961.634
21961.632
21961.632
21961.63
21961.628
21961.628
21961.626
21961.625
21961.623
21961.622
21961.621
21961.619
21961.618
21961.617
21961.616
21961.614
21961.614
21961.612
21961.611
21961.61
21961.609
21961.608
21961.607
21961.606
21961.605
21961.605
21961.603
21961.603
21961.602
21961.602
21961.6
21961.6
21961.599
21961.598
21961.598
21961.597
21961.596
21961.596
21961.596
21961.594
21961.595
21961.594
21961.593
21961.593
21961.592
21961.592
21961.592
21961.591
21961.591
21961.588
21961.59
21961.591
21961.591
21961.591
21961.59
21961.59
21961.59
21961.589
21961.59
21961.589
21961.589
21961.589
21961.589
21961.589
21961.589
21961.589
21961.589
21961.589
21961.588
21961.589
21961.589
21961.589
21961.589
21961.589
21961.589
21961.589
21961.59
21961.59
21961.589
21961.59
21961.59
21961.591
21961.591
21961.592
21961.592
21961.592
21961.593
21961.594
21961.595
21961.596
21961.598
21961.599
21961.6
21961.603
21961.844
21941.265
21917.303
21982.176
22137.164
22380.188
22709.284
23122.577
23618.398
24195.353
24852.166
25588.17
26402.9
27296.204
28268.551
29320.811
30444.422
31595.791
32756.418
33917.788
35071.334
36213.064
37337.192
38436.66
39502.489
40531.86
41516.007
42451.965
43336.356
44246.168
45275.185
46180.933
47313.794
48495.885
48284.549
51278.691
51226.15
51897.819
55628.195
57491.231
59676.063
61919.124
60584.418
64740.37
66038.306
66233.272
64720.918
67231.509
65644.43
65848.865
64400.704
64621.282
61324.388
56807.288
55808.084
52544.84
51214.25
50055.501
48825.459
48972.556
48631.461
48852.789
48850.773
48842.609
16150.272
16152.671
16153.139
16160.69
16199.264
16306.359
16532.193
16933.285
17564.958
18397.788
19322.315
20165.784
20979.394
21429.454
22005.592
22285.899
22376.822
22326.096
22139.613
21830.206
21408.994
20887.977
20279.072
19622.47
18999.156
18416.497
17873.54
17366.629
16893.075
16450.421
16036.41
15649.011
15286.381
14946.753
14628.592
14330.351
14037.724
13728.652
13402.952
13062.737
12709.977
12347.002
11975.743
11598.163
11216.391
10832.569
10448.991
10068.258
9696.6848
9348.7106
9027.1241
8731.6801
8462.2284
8218.8046
8001.5628
7810.7536
7646.7613
7510.073
7401.2362
7320.8713
7269.641
7248.2651
7256.0949
7262.483
7262.2186
7262.1966
7262.177
7262.1629
7262.1512
7262.1383
7262.1296
7262.1217
7262.1154
7262.1104
7262.1067
7262.1041
7262.1018
7262.1001
7262.0985
7262.0979
7262.0967
7262.0962
7262.0954
7262.0948
7262.094
7262.0932
7262.0924
7262.0914
7262.0903
7262.089
7262.0876
7262.0859
7262.0842
7262.0823
7262.0803
7262.0782
7262.0758
7262.0734
7262.0707
7262.0681
7262.0651
7262.0621
7262.059
7262.0556
7262.0522
7262.0495
7262.0471
7262.0446
7262.0421
7262.0394
7262.0366
7262.0338
7262.0309
7262.028
7262.0251
7262.022
7262.0189
7262.0158
7262.0125
7262.0093
7262.0063
7262.003
7262
7261.9969
7261.9938
7261.9907
7261.9876
7261.9845
7261.9817
7261.9786
7261.9759
7261.9729
7261.9702
7261.9674
7261.9647
7261.9622
7261.9594
7261.9571
7261.9546
7261.9522
7261.95
7261.9478
7261.9455
7261.9434
7261.9414
7261.9393
7261.9374
7261.9354
7261.9336
7261.9319
7261.9304
7261.9287
7261.9272
7261.9257
7261.9241
7261.9228
7261.9214
7261.9202
7261.919
7261.9179
7261.9151
7261.9124
7261.9139
7261.9142
7261.9144
7261.9142
7261.913
7261.9119
7261.9111
7261.91
7261.9095
7261.9087
7261.9079
7261.9074
7261.9073
7261.9069
7261.9065
7261.9062
7261.9058
7261.9056
7261.9053
7261.9052
7261.9051
7261.905
7261.9049
7261.905
7261.905
7261.9052
7261.9052
7261.905
7261.9057
7261.9061
7261.9063
7261.9068
7261.9074
7261.9083
7261.909
7261.9099
7261.9113
7261.9126
7261.9146
7261.9164
7261.919
7261.922
7261.923
7261.9266
7262.1344
7255.7792
7248.1899
7269.6536
7320.9064
7401.278
7510.1223
7646.8062
7810.7871
8001.601
8218.8183
8462.2208
8731.7065
9027.2218
9348.6791
9696.6662
10068.202
10448.696
10832.798
11217.13
11597.252
11974.243
12346.913
12711.28
13063.621
13403.886
13728.546
14037.159
14329.568
14635.928
14879.197
15349.475
15642.647
16036.857
16144.569
17230.493
17225.928
17404.413
18442.871
18977.573
19956.432
20677.966
20302.381
21420.544
21841.395
22025.852
21701.414
22073.567
21734.916
21702.131
20984.915
21373.044
20294.274
19265.091
18460.594
17334.266
16935.618
16557.411
16192.906
16195.056
16105.375
16154.767
16154.124
16151.007
7444.6689
7445.8217
7446.1889
7450.047
7468.443
7518.0442
7621.998
7806.18
8095.7846
8477.8723
8914.4144
9322.444
9668.0939
9885.468
10169.777
10288.405
10311.994
10290.938
10204.888
10062.537
9868.6674
9628.7912
9348.3292
9045.7027
8758.4127
8489.8151
8239.458
8005.7485
7787.436
7583.3557
7392.4811
7213.8744
7046.6901
6890.1105
6743.4251
6605.9349
6471.0775
6328.6711
6178.6067
6021.7851
5859.296
5692.0764
5520.9629
5346.9486
5170.9996
4994.103
4817.3158
4641.8289
4470.538
4310.1067
4161.8299
4025.6018
3901.3575
3789.1133
3688.9391
3600.9545
3525.3342
3462.307
3412.1261
3375.0854
3351.4892
3341.7086
3345.3376
3348.0874
3347.8568
3347.8329
3347.811
3347.7963
3347.7839
3347.772
3347.7642
3347.7571
3347.7521
3347.7488
3347.7469
3347.7464
3347.7462
3347.7466
3347.7476
3347.7488
3347.7498
3347.7513
3347.7528
3347.7539
3347.755
3347.7558
3347.7566
3347.757
3347.7572
3347.757
3347.7568
3347.7557
3347.7546
3347.7531
3347.7515
3347.7494
3347.7471
3347.7443
3347.7414
3347.738
3347.7345
3347.7305
3347.7264
3347.7218
3347.7169
3347.713
3347.7091
3347.7049
3347.7005
3347.6959
3347.6912
3347.6862
3347.6811
3347.6759
3347.6705
3347.6651
3347.6596
3347.6537
3347.6477
3347.6418
3347.6361
3347.6302
3347.6243
3347.6184
3347.6125
3347.6066
3347.6007
3347.5949
3347.5892
3347.5834
3347.5778
3347.5722
3347.5667
3347.5613
3347.556
3347.5507
3347.5456
3347.5406
3347.5357
3347.5309
3347.5263
3347.5217
3347.5173
3347.5129
3347.5087
3347.5045
3347.5004
3347.4965
3347.4928
3347.4891
3347.4857
3347.4823
3347.4791
3347.4759
3347.4727
3347.4697
3347.4668
3347.4641
3347.4616
3347.4589
3347.4537
3347.45
3347.4509
3347.4505
3347.4504
3347.4491
3347.4467
3347.4447
3347.4427
3347.4408
3347.4393
3347.4377
3347.436
3347.4348
3347.4342
3347.4332
3347.4321
3347.4313
3347.4304
3347.4297
3347.429
3347.4284
3347.428
3347.4275
3347.4272
3347.4269
3347.4267
3347.4268
3347.4265
3347.4263
3347.427
3347.4273
3347.4276
3347.4282
3347.429
3347.43
3347.431
3347.4324
3347.4343
3347.4362
3347.439
3347.4417
3347.4456
3347.4498
3347.4519
3347.456
3347.6161
3344.9185
3341.5948
3351.4963
3375.1235
3412.1803
3462.3692
3525.3921
3600.9996
3688.9841
3789.1154
3901.3276
4025.6299
4161.9654
4310.0457
4470.5081
4641.7436
4816.9072
4994.3719
5171.8462
5345.6718
5518.873
5691.6364
5860.3742
6023.1824
6179.9298
6330.0519
6469.817
6604.896
6746.3496
6798.1896
7085.5947
7214.9026
7393.5705
7478.6618
7963.2242
7953.2754
8081.7107
8532.6723
8733.8803
9212.0707
9696.1511
9458.5877
9876.3675
10071.749
10268.208
10091.65
10215.933
9955.3048
10155.508
9725.8243
9872.6371
9367.1748
8970.5506
8515.565
7998.6952
7809.9652
7618.5145
7480.4339
7468.8334
7433.3485
7448.395
7447.8347
7445.596
4130.3583
4131.1629
4131.674
4134.2614
4145.0943
4172.9424
4230.4982
4332.0591
4491.4116
4704.7926
4947.2539
5169.4455
5361.4061
5475.7982
5636.5681
5699.5279
5719.8959
5708.5545
5660.8963
5582.0676
5474.677
5341.7872
5186.32
5018.4836
4859.0652
4710.1027
4571.1767
4441.5026
4320.3821
4207.1531
4101.2505
4002.1533
3909.3937
3822.5213
3741.1362
3664.8554
3590.0598
3511.0943
3427.872
3340.8686
3250.7995
3158.1014
3063.1818
2966.6563
2869.0619
2770.9386
2672.8746
2575.528
2480.4943
2391.4777
2309.1963
2233.5964
2164.6465
2102.356
2046.7603
1997.9309
1955.9621
1920.9861
1893.1429
1872.6044
1859.538
1854.1932
1856.3074
1857.7541
1857.5528
1857.5299
1857.5084
1857.4959
1857.4852
1857.4769
1857.4719
1857.4678
1857.4662
1857.4665
1857.4678
1857.4712
1857.4747
1857.4786
1857.4834
1857.4879
1857.4923
1857.4971
1857.5017
1857.5059
1857.5097
1857.5131
1857.5163
1857.519
1857.5211
1857.5227
1857.524
1857.5242
1857.5243
1857.5236
1857.5226
1857.5209
1857.5187
1857.5159
1857.5126
1857.5087
1857.5043
1857.4994
1857.494
1857.488
1857.4814
1857.4758
1857.4698
1857.4635
1857.4568
1857.4496
1857.4421
1857.4344
1857.4264
1857.4181
1857.4096
1857.4009
1857.392
1857.3827
1857.373
1857.3636
1857.3543
1857.3447
1857.3351
1857.3254
1857.3158
1857.3061
1857.2964
1857.2868
1857.2774
1857.2679
1857.2586
1857.2493
1857.2402
1857.2311
1857.2223
1857.2135
1857.205
1857.1965
1857.1883
1857.1802
1857.1723
1857.1646
1857.1571
1857.1497
1857.1425
1857.1355
1857.1285
1857.1219
1857.1156
1857.1092
1857.1033
1857.0975
1857.0919
1857.0864
1857.081
1857.0757
1857.0708
1857.066
1857.0615
1857.0568
1857.0488
1857.0433
1857.0432
1857.0421
1857.0412
1857.0383
1857.0344
1857.031
1857.0276
1857.0244
1857.0217
1857.019
1857.0161
1857.0139
1857.0124
1857.0107
1857.0086
1857.007
1857.0055
1857.004
1857.0027
1857.0016
1857.0006
1856.9997
1856.9989
1856.9983
1856.9977
1856.9976
1856.997
1856.9965
1856.9973
1856.9975
1856.9977
1856.9984
1856.9994
1857.0006
1857.0018
1857.0038
1857.0062
1857.0089
1857.0125
1857.0161
1857.0213
1857.0271
1857.0304
1857.0353
1857.1569
1855.7832
1854.0348
1859.5333
1872.6389
1893.2012
1921.0528
1956.0269
1997.972
2046.8058
2102.3421
2164.5923
2233.6182
2309.3465
2391.3723
2480.4458
2575.3951
2672.3291
2771.2569
2870.0256
2964.9578
3060.4359
3157.4545
3252.1439
3342.6708
3429.5155
3512.8621
3588.5483
3663.3184
3743.6717
3755.652
3908.2891
4004.2826
4102.7552
4151.5098
4347.6321
4392.7315
4518.6487
4736.573
4847.3939
5054.1905
5380.5193
5292.9199
5473.6771
5591.1293
5719.4012
5624.1828
5739.4873
5546.9066
5580.2885
5477.1658
5492.7558
5203.8327
4962.33
4727.0337
4463.5443
4338.6226
4225.8072
4161.0192
4148.3784
4130.5111
4134.5293
4133.7301
4131.4444
2570.1758
2570.8787
2571.5775
2573.6589
2580.9785
2598.6247
2634.2734
2696.8262
2794.7591
2928.9804
3077.9712
3211.2557
3334.788
3404.0832
3499.9998
3538.5487
3558.0635
3550.6585
3521.24
3472.2859
3405.5789
3323.0266
3226.3959
3122.0365
3022.8218
2930.1947
2843.7619
2763.0857
2687.7375
2617.2959
2551.4131
2489.7641
2432.0568
2378.0144
2327.3836
2279.9291
2233.4118
2184.3092
2132.5493
2078.4373
2022.4354
1964.8152
1905.7804
1845.7355
1785.0305
1723.9948
1662.9947
1602.4401
1543.3178
1487.9342
1436.7342
1389.6876
1346.7793
1308.0149
1273.414
1243.0255
1216.9056
1195.1418
1177.8205
1165.0587
1156.9582
1153.7206
1155.1714
1156.0443
1155.8636
1155.8439
1155.8253
1155.8169
1155.8103
1155.8073
1155.8071
1155.8077
1155.8109
1155.8162
1155.8223
1155.8309
1155.8393
1155.8479
1155.8575
1155.8665
1155.8752
1155.8842
1155.8927
1155.9007
1155.9079
1155.9146
1155.9207
1155.9261
1155.9307
1155.9345
1155.9375
1155.9394
1155.9405
1155.9409
1155.9405
1155.9393
1155.9371
1155.9341
1155.9302
1155.9256
1155.9201
1155.9139
1155.9068
1155.899
1155.8903
1155.8823
1155.8737
1155.8646
1155.8548
1155.8444
1155.8336
1155.8223
1155.8106
1155.7984
1155.7859
1155.7731
1155.7601
1155.7464
1155.7322
1155.7183
1155.7045
1155.6903
1155.676
1155.6618
1155.6475
1155.6331
1155.6187
1155.6045
1155.5903
1155.5762
1155.5623
1155.5485
1155.5348
1155.5213
1155.508
1155.4949
1155.4821
1155.4695
1155.4571
1155.445
1155.4331
1155.4215
1155.4102
1155.399
1155.3882
1155.3775
1155.367
1155.3571
1155.3474
1155.3379
1155.3288
1155.3201
1155.3115
1155.3032
1155.2949
1155.287
1155.2794
1155.2721
1155.2653
1155.258
1155.2469
1155.239
1155.2378
1155.2355
1155.2333
1155.2287
1155.2229
1155.2178
1155.2126
1155.2079
1155.2038
1155.1997
1155.1952
1155.192
1155.1894
1155.1866
1155.1835
1155.181
1155.1785
1155.1762
1155.1742
1155.1724
1155.1708
1155.1693
1155.168
1155.1669
1155.166
1155.1656
1155.1646
1155.1639
1155.1647
1155.1648
1155.165
1155.1658
1155.1669
1155.1685
1155.17
1155.1725
1155.1755
1155.1791
1155.1837
1155.1885
1155.1951
1155.2025
1155.2075
1155.2136
1155.3086
1154.5314
1153.5061
1156.931
1165.0798
1177.8733
1195.2029
1216.9667
1243.0511
1273.4492
1307.9752
1346.692
1389.6892
1436.8924
1487.7723
1543.2403
1602.246
1662.2984
1724.3562
1786.1134
1843.5616
1902.3362
1964.071
2024.1419
2080.5851
2134.5828
2186.0869
2231.6175
2277.7947
2331.4716
2340.4069
2418.1417
2490.7991
2553.2021
2582.7922
2663.3993
2729.0355
2828.3391
2944.4726
3017.4844
3103.5263
3294.7273
3304.9465
3404.7008
3479.2129
3546.178
3505.6866
3617.1665
3495.8367
3731.0437
3460.2465
3428.0761
3244.3058
3073.3703
2944.1911
2798.2404
2706.988
2637.7926
2598.102
2586.5683
2575.5322
2575.225
2574.0438
2571.4332
1727.5661
1728.2327
1729.1025
1730.9853
1736.4282
1748.5494
1772.2683
1813.5946
1878.1849
1968.6825
2067.2389
2154.5222
2240.0639
2287.4723
2347.4797
2373.4557
2389.5196
2384.4395
2364.8493
2332.0263
2287.293
2231.9226
2167.0838
2097.0272
2030.3643
1968.1771
1910.1225
1855.9333
1805.3269
1758.0144
1713.7648
1672.3596
1633.6016
1597.3065
1563.301
1531.4282
1500.1918
1467.2241
1432.4635
1396.1332
1358.5282
1319.86
1280.2224
1239.8892
1199.1178
1158.1226
1117.1508
1076.4789
1036.7663
999.56171
965.16259
933.54959
904.71724
878.66913
855.41608
834.99563
817.44243
802.82109
791.18883
782.63498
777.22514
775.14354
776.27186
776.8597
776.69497
776.68046
776.66676
776.66436
776.66355
776.66753
776.67365
776.68019
776.68954
776.70107
776.71316
776.72785
776.74213
776.75636
776.77141
776.78561
776.79942
776.81309
776.82608
776.83828
776.84937
776.8596
776.86902
776.87737
776.88447
776.89051
776.89532
776.89878
776.9011
776.9023
776.90237
776.90126
776.89884
776.8953
776.89055
776.88469
776.87771
776.86959
776.86033
776.85003
776.83862
776.82764
776.81578
776.80309
776.78958
776.77523
776.76017
776.74454
776.7283
776.71146
776.69415
776.67643
776.65838
776.6395
776.61987
776.60066
776.58151
776.56185
776.54209
776.52232
776.50251
776.48259
776.46269
776.44295
776.42336
776.40384
776.38448
776.36534
776.3464
776.32767
776.30919
776.29104
776.27319
776.25568
776.23846
776.2216
776.20512
776.18896
776.17321
776.15771
776.1426
776.12781
776.11314
776.09935
776.08587
776.07257
776.0599
776.04765
776.03575
776.02406
776.0126
776.00154
775.99099
775.98079
775.97117
775.96103
775.94637
775.93584
775.93325
775.92946
775.92584
775.91924
775.91115
775.90417
775.89706
775.89056
775.88477
775.87911
775.87304
775.86846
775.86472
775.86081
775.85647
775.85296
775.84945
775.84628
775.8434
775.84084
775.83854
775.83649
775.83462
775.83309
775.83176
775.83114
775.82973
775.82884
775.82967
775.82979
775.82996
775.83096
775.83241
775.83435
775.83636
775.83955
775.84331
775.84779
775.85368
775.85978
775.86794
775.87723
775.88416
775.89205
775.96863
775.50073
774.85711
777.16142
782.62972
791.22342
802.86388
817.48728
834.9939
855.42828
878.58982
904.58454
933.51592
965.31899
999.32622
1036.6462
1076.2072
1116.2922
1158.5177
1200.3064
1237.1884
1276.0424
1319.0118
1360.5291
1398.6033
1434.9103
1469.1487
1497.9312
1528.684
1568.5075
1579.5547
1620.9913
1673.2127
1715.8443
1738.023
1782.2291
1835.0343
1907.8774
1980.1656
2024.8735
2070.4336
2174.8503
2220.5991
2290.2754
2336.1055
2369.1431
2357.8154
2447.3159
2346.3782
2388.1262
2380.2654
2323.9444
2187.2895
2064.9688
1983.6348
1893.3643
1827.4218
1782.9261
1754.2506
1744.1612
1735.9339
1733.7236
1732.0717
1729.0407
1227.2289
1227.858
1228.8554
1230.6796
1235.0142
1243.8164
1260.3337
1288.8698
1333.452
1397.0419
1466.0535
1527.4501
1589.1013
1624.1707
1663.7639
1682.592
1694.5223
1691.003
1677.1839
1653.9463
1622.272
1583.0529
1537.1161
1487.4527
1440.1644
1396.0731
1354.8957
1316.4618
1280.5709
1247.0157
1215.6337
1186.2701
1158.7842
1133.0454
1108.9292
1086.3242
1064.174
1040.7986
1016.1445
990.38519
963.71925
936.31955
908.21534
879.6008
850.68072
821.60028
792.53628
763.68674
735.51714
709.12375
684.71694
662.28247
641.82117
623.33548
606.83095
592.33868
579.88055
569.5078
561.26068
555.21383
551.41046
550.03291
550.99812
551.43456
551.28382
551.27627
551.26922
551.27438
551.28094
551.29305
551.30667
551.32021
551.33662
551.35526
551.3742
551.39568
551.41644
551.43683
551.45776
551.47768
551.49686
551.51555
551.53323
551.5498
551.56483
551.57867
551.59132
551.60251
551.61204
551.62013
551.62657
551.63125
551.63439
551.63604
551.63615
551.63473
551.63157
551.62695
551.62072
551.61305
551.60388
551.59325
551.58111
551.56757
551.55279
551.53803
551.52212
551.50513
551.48708
551.46796
551.44792
551.42714
551.40557
551.38326
551.36032
551.33685
551.31296
551.28807
551.26226
551.23693
551.21164
551.18574
551.15972
551.1337
551.10763
551.08144
551.05529
551.02935
551.00358
550.97794
550.95251
550.92737
550.9025
550.87792
550.85365
550.82983
550.80639
550.78341
550.76081
550.73868
550.71703
550.69582
550.67515
550.65481
550.63497
550.61557
550.59636
550.57825
550.56055
550.54312
550.52646
550.51037
550.49472
550.4794
550.46439
550.4499
550.43605
550.42266
550.41
550.39676
550.37835
550.36491
550.36088
550.3554
550.35011
550.34134
550.33087
550.32179
550.31262
550.30421
550.29667
550.28931
550.28153
550.27555
550.27056
550.26544
550.25986
550.25529
550.25075
550.24665
550.24294
550.23964
550.23668
550.23404
550.23167
550.22971
550.22803
550.22723
550.22554
550.22448
550.22549
550.22567
550.22598
550.22728
550.22918
550.23166
550.2343
550.23834
550.2431
550.2487
550.25606
550.26371
550.27371
550.28506
550.29429
550.30441
550.36793
550.07702
549.6551
551.29308
555.16653
561.26166
569.51683
579.89376
592.29609
606.80545
623.19979
641.62813
662.19865
684.85674
708.79407
735.33967
763.3188
791.50303
822.02193
851.95107
876.32372
903.25923
935.32569
965.96702
993.17383
1018.9746
1043.0042
1061.3368
1082.9363
1114.7433
1125.4633
1148.0201
1187.4872
1218.0564
1236.8649
1268.7243
1301.6967
1359.741
1410.3717
1432.3407
1467.6763
1526.6179
1575.9873
1628.1129
1656.7087
1673.4484
1674.0347
1740.3281
1688.9962
1640.2349
1765.5921
1676.4007
1560.7112
1472.5467
1415.1389
1352.9821
1306.2409
1275.4829
1253.7995
1244.9224
1237.8724
1234.6452
1232.4606
1228.9846
909.04021
909.60089
910.66694
912.49437
916.12023
922.76957
934.58088
954.78283
986.40908
1032.2883
1082.7178
1128.178
1173.8609
1200.9491
1228.5349
1242.9272
1251.4013
1248.882
1238.7071
1221.5771
1198.2239
1169.2975
1135.4101
1098.7472
1063.8235
1031.2689
1000.8537
972.46878
945.9629
921.18212
898.00727
876.32443
856.02887
837.02346
819.21544
802.52102
786.16415
768.90415
750.69289
731.66847
711.98093
691.76671
671.01363
649.86911
628.50418
607.01899
585.54624
564.23394
543.42461
523.92559
505.89092
489.30924
474.18582
460.52231
448.32097
437.60902
428.40027
420.73784
414.65137
410.2077
407.43612
406.52271
407.4075
407.76155
407.62428
407.62514
407.62622
407.64014
407.6552
407.67622
407.69817
407.71935
407.7434
407.7697
407.79595
407.82454
407.85202
407.87878
407.90568
407.9314
407.95595
407.97958
408.00184
408.02258
408.04133
408.05847
408.07402
408.08766
408.0992
408.10885
408.1164
408.12174
408.12513
408.12659
408.12611
408.12367
408.11909
408.11265
408.1042
408.09395
408.08183
408.0679
408.05207
408.03443
408.01552
407.99618
407.97541
407.95331
407.92991
407.90522
407.87942
407.8527
407.82503
407.79646
407.76713
407.73717
407.7067
407.67508
407.64239
407.61025
407.57814
407.54536
407.51243
407.47952
407.44658
407.41352
407.38053
407.34782
407.31533
407.28304
407.25101
407.21938
407.18809
407.15718
407.12667
407.09673
407.06729
407.0384
407.01003
406.98224
406.95507
406.92845
406.90251
406.87699
406.85212
406.82781
406.80376
406.78106
406.75886
406.73704
406.71617
406.696
406.6764
406.65723
406.63847
406.62036
406.60303
406.58629
406.57042
406.55395
406.53166
406.51532
406.50979
406.5025
406.49544
406.48441
406.47148
406.46022
406.44895
406.43859
406.42927
406.42019
406.41069
406.4033
406.39707
406.39075
406.38394
406.37835
406.37282
406.36784
406.36336
406.35937
406.35583
406.35269
406.3499
406.34761
406.3457
406.34481
406.34297
406.34189
406.34321
406.34361
406.34423
406.346
406.34854
406.35175
406.35525
406.36034
406.36633
406.37331
406.38243
406.39188
406.40407
406.41776
406.42962
406.44241
406.49667
406.31468
406.03084
407.2441
410.09991
414.6007
420.69525
428.3643
437.50967
448.24071
460.31169
473.91549
489.15991
505.99646
523.47931
543.17389
563.74908
584.32452
607.46253
629.82619
645.9658
665.23767
690.58604
714.45487
734.77652
753.88044
771.43909
782.70642
798.41396
825.48264
833.36355
844.72185
877.81658
900.8072
917.06565
940.35374
959.43444
1011.3229
1048.2545
1053.7854
1085.5704
1123.4795
1167.3022
1205.5006
1224.5835
1232.6489
1235.4285
1289.7989
1284.6366
1221.5208
1396.8423
1264.7442
1162.6615
1098.1337
1054.5531
1008.6029
975.51932
952.77942
936.26952
928.28464
921.74614
917.81202
915.05415
911.14627
696.04065
696.48732
697.55548
699.40542
702.54624
707.71711
716.25475
730.67427
753.37861
787.05064
825.044
859.86967
894.51677
915.99921
936.20136
947.50017
953.52907
951.64613
943.91501
930.8876
913.12448
891.11551
865.32615
837.40296
810.79757
785.99974
762.822
741.19457
721.00005
702.12045
684.46528
667.94867
652.48956
638.01309
624.44833
611.72889
599.26672
586.11795
572.2377
557.73667
542.7442
527.36151
511.5478
495.42397
479.13728
462.75693
446.38666
430.14107
414.28014
399.41682
385.66656
373.01994
361.48538
351.06403
341.75592
333.58596
326.56253
320.72374
316.09237
312.73135
310.66121
310.07458
310.92498
311.23501
311.1114
311.12173
311.13201
311.15547
311.17971
311.21001
311.24062
311.26969
311.30155
311.33562
311.36925
311.40484
311.43889
311.47181
311.50444
311.53564
311.56515
311.5933
311.61963
311.64401
311.6659
311.68572
311.7035
311.71888
311.73169
311.74214
311.75
311.75519
311.75799
311.75841
311.75647
311.75213
311.74524
311.73609
311.72453
311.71081
311.69484
311.67671
311.65632
311.63362
311.60983
311.58506
311.5586
311.53058
311.50104
311.47002
311.4377
311.40431
311.36982
311.33432
311.29794
311.26084
311.22316
311.18419
311.14405
311.10455
311.0651
311.02492
310.9846
310.94434
310.90407
310.86372
310.82348
310.78361
310.74404
310.70474
310.66578
310.62733
310.58932
310.55179
310.51478
310.47846
310.44276
310.40776
310.37339
310.33975
310.30686
310.27465
310.24326
310.21241
310.18236
310.15298
310.124
310.09657
310.06977
310.04347
310.0183
309.99396
309.97033
309.94724
309.92467
309.90289
309.88205
309.86191
309.8428
309.82306
309.79696
309.77785
309.77083
309.76171
309.75292
309.73959
309.72422
309.7108
309.69749
309.68523
309.67417
309.66342
309.65229
309.64357
309.63618
309.62873
309.6208
309.61428
309.60786
309.60212
309.59698
309.59244
309.58844
309.58494
309.58188
309.5794
309.57742
309.5766
309.5748
309.57388
309.57569
309.57648
309.57762
309.58008
309.58348
309.58767
309.59227
309.59867
309.60617
309.61481
309.626
309.63757
309.65227
309.66866
309.68351
309.69937
309.74719
309.63625
309.44308
310.37086
312.54177
315.96959
320.60957
326.45779
333.41183
341.60181
350.7587
361.11912
372.78802
385.71833
398.83037
413.93883
429.51703
444.96133
463.21793
480.47622
490.84573
504.90868
525.94968
545.4281
561.16163
575.77238
588.99427
595.15866
606.81298
631.14667
635.1914
639.56789
669.53518
687.64226
701.56678
716.55416
728.29394
777.84188
804.81854
799.15141
827.10185
855.80468
893.77622
921.17783
934.96468
936.91512
938.76886
988.93955
1025.2872
967.77773
1161.2006
985.98429
895.92274
847.66885
813.37479
778.09272
754.42224
736.96995
724.29464
716.99954
710.72081
706.21606
702.86683
698.56127
547.7462
548.02545
549.02652
550.89286
553.68185
557.79633
563.94483
574.14152
590.37151
615.28854
644.53095
671.81153
698.64477
716.03713
731.46193
740.38365
744.79899
743.34905
737.33103
727.1757
713.32701
696.16416
676.04745
654.24977
633.47588
614.11531
596.01202
579.12083
563.3508
548.60844
534.82332
521.9291
509.86121
498.56051
487.97125
478.03863
468.30593
458.03815
447.1927
435.85896
424.15885
412.16235
399.80776
387.20154
374.47282
361.66859
348.87303
336.17753
323.78443
312.1702
301.42261
291.53376
282.51444
274.36532
267.08503
260.69703
255.20604
250.64699
247.0382
244.44098
242.87042
242.52708
243.36972
243.65804
243.54847
243.56886
243.58895
243.6222
243.65578
243.69524
243.73436
243.77108
243.81048
243.85195
243.89256
243.93463
243.97465
244.0131
244.05079
244.08671
244.1204
244.15223
244.18178
244.20889
244.23297
244.25451
244.27352
244.28962
244.30268
244.31286
244.31997
244.32396
244.3251
244.32342
244.31896
244.31168
244.30143
244.28854
244.27286
244.25467
244.23389
244.2106
244.18471
244.15607
244.12653
244.0955
244.06255
244.02785
243.99144
243.95337
243.91387
243.87318
243.83128
243.78827
243.7443
243.69956
243.65419
243.60744
243.55946
243.51224
243.46508
243.41718
243.36919
243.3213
243.27347
243.2256
243.17792
243.13072
243.08391
243.03746
242.99147
242.94609
242.90126
242.85705
242.81347
242.77073
242.72875
242.68762
242.64723
242.60774
242.56914
242.53136
242.49455
242.4584
242.4232
242.38881
242.35494
242.32285
242.29152
242.26081
242.2314
242.20298
242.17541
242.14848
242.1222
242.09684
242.07257
242.04912
242.02688
242.00398
241.97425
241.95265
241.94427
241.93341
241.92298
241.90745
241.88976
241.87428
241.85907
241.84506
241.83241
241.82013
241.80753
241.79762
241.78922
241.78081
241.77192
241.76463
241.7575
241.75116
241.74554
241.74063
241.73636
241.73268
241.72953
241.72707
241.7252
241.72466
241.72311
241.72257
241.72507
241.72649
241.72839
241.73177
241.73628
241.74171
241.74769
241.75569
241.76496
241.77557
241.78915
241.80318
241.82074
241.84019
241.85841
241.87772
241.9213
241.85906
241.72794
242.45563
244.14586
246.82067
250.43939
255.01115
260.4283
266.83638
273.94485
282.03234
291.19982
301.39991
311.42075
323.33478
335.39199
347.22882
362.14241
375.78947
381.90406
392.26732
410.47144
427.03875
439.59471
451.07041
461.2493
463.52278
472.23674
495.09185
495.44429
495.36164
523.51528
538.35059
550.17286
557.98681
565.91823
614.51269
634.14725
620.67806