/*--------------------------------*- C++ -*----------------------------------*\
| =========                 |                                                 |
| \\      /  F ield         | OpenFOAM: The Open Source CFD Toolbox           |
|  \\    /   O peration     | Version:  2.4.0                                 |
|   \\  /    A nd           | Web:      www.OpenFOAM.org                      |
|    \\/     M anipulation  |                                                 |
\*---------------------------------------------------------------------------*/
FoamFile
{
    version     2.0;
    format      ascii;
    class       volScalarField;
    location    "700";
    object      p;
}
// * * * * * * * * * * * * * * * * * * * * * * * * * * * * * * * * * * * * * //

dimensions      [0 2 -2 0 0 0 0];

internalField   nonuniform List<scalar> 
78300
(
-0.10015913
-0.051586023
-0.053071387
-0.049664602
-0.05148511
-0.042721835
-0.036446424
-0.024065296
-0.013836218
-0.007300357
-0.0031156818
-0.00015808618
0.0054524614
0.00069896526
0.0062505952
0.0001364008
9.2763839e-05
0.0019739511
8.5866947e-05
0.00031927059
0.00063365463
0.00093203115
0.00083732325
0.0017761413
0.0026573642
0.0011802764
5.673876e-05
-0.0001381895
-0.00052920593
-0.00074154827
-0.0010848947
-0.0013200582
-0.0016012305
-0.0017574544
-0.0018838071
-0.0019607717
-0.0019685535
-0.001803172
-0.0014899678
-0.0010205359
4.38537e-09
-0.00017643987
-0.00022754609
-7.086757e-05
0.0001129478
0.00021846523
0.00038020885
0.00055404193
0.00077044264
0.0010104726
0.0011606152
0.0012700325
0.0013310749
0.0014172465
0.0013639121
0.0013346252
0.0012061886
0.0010416238
0.00073719211
0.00041899026
-0.00015333663
-0.00059621923
-0.0015863808
-0.0020719589
-0.0026693871
-0.0031012122
-0.0035181256
-0.0038673613
-0.0041587192
-0.0042953996
-0.0044307908
-0.0045127074
-0.0045649243
-0.0045695654
-0.0045249249
-0.0044492247
-0.0043397156
-0.0041950124
-0.0039923319
-0.0037669491
-0.0035115343
-0.0032257673
-0.0028860812
-0.0025237718
-0.0021210515
-0.0016796571
-0.0011781622
-0.0006427296
-5.8700417e-05
0.00057094608
0.0012618864
0.0019899108
0.0027575177
0.0035424664
0.0043531654
0.0051763962
0.0060294711
0.0069000622
0.0078145796
0.008758264
0.0097555116
0.010796067
0.011891951
0.013028582
0.014198357
0.015382309
0.016578148
0.0177773
0.018990495
0.020214219
0.021461121
0.022707732
0.02396504
0.025226881
0.026513164
0.027805562
0.029121418
0.030466332
0.031835824
0.033203948
0.034558895
0.035916052
0.037276922
0.038625144
0.039961071
0.04129163
0.042620064
0.043921539
0.045202914
0.0464641
0.047720789
0.048947332
0.050163231
0.051364578
0.052566613
0.053732013
0.054877558
0.05599635
0.057115098
0.05820677
0.059295765
0.060372552
0.061459547
0.06253805
0.063624082
0.064721167
0.065815112
0.06688772
0.067927597
0.068937474
0.069926736
0.070883531
0.071822682
0.072737989
0.073641628
0.074524917
0.075395303
0.076244957
0.077089234
0.077912711
0.078747507
0.079712411
0.080679367
0.08152682
0.082276764
0.083017016
0.083754364
0.08445846
0.085137211
0.085805333
0.086446138
0.087061827
0.087642429
0.088181412
0.088677649
0.089126836
0.089554809
0.089952584
0.0903378
0.090679595
0.09100857
0.091310054
0.091612193
0.091884858
0.092160063
0.09242552
0.092703136
0.092964848
0.093232288
0.093504593
0.093774938
0.094014243
0.09423414
0.094435603
0.094629278
0.094801723
0.094970006
0.095140438
0.095294299
0.09542751
0.095544302
0.095653563
0.0957525
0.095855377
0.095987614
0.096158418
0.096367085
0.096640802
0.097062882
0.097688296
0.098286025
0.099236413
0.10010463
0.10145754
0.10215175
0.10365079
0.10475498
0.10649895
0.10695648
0.10903407
0.11071186
0.11347565
0.11307916
0.11358744
0.11169326
0.11245134
0.12288485
0.12972248
0.13638055
0.14110456
0.15179796
0.16473286
0.16732116
0.16854819
0.16010364
0.16562293
0.1939682
0.1615723
0.15763924
0.10297981
0.039425824
-0.11367275
-0.14512813
-0.23205096
-0.43563927
-0.64095181
-0.57155138
-0.50102993
-0.2380417
0.0032118089
0.46014158
1.2943666
0.54037296
-1.3624309
-0.69857701
-0.78645197
0.48547942
2.8330767
2.0415734
1.5454733
0.66969976
0.04006337
-0.1863018
-0.23367463
-0.21855999
-0.21589831
-0.18803177
-0.18963948
-0.17226796
-0.16032297
-0.10016449
-0.051597297
-0.05307158
-0.049655375
-0.051469791
-0.042706997
-0.036432096
-0.02406895
-0.013818452
-0.0073162679
-0.0033256333
-0.00047440923
0.0054959672
0.00073910703
0.0057760942
4.0867799e-05
-1.3515661e-05
0.0016321988
7.9871093e-05
0.00032178973
0.00061767023
0.00088041633
0.00089575196
0.0017868117
0.002921643
0.0011298239
0.00010773708
-0.00012974471
-0.0005206531
-0.00073482143
-0.0010756917
-0.0013120744
-0.0015898548
-0.0017530632
-0.001878991
-0.0019569298
-0.0019663041
-0.0018040857
-0.0014924627
-0.0010252588
-2.5405593e-05
-0.00018101096
-0.00022143234
-7.500641e-05
0.00011058134
0.00021754975
0.000380357
0.00055205145
0.00076810512
0.0010044722
0.0011577794
0.0012674889
0.001330571
0.0014160489
0.0013621669
0.0013334921
0.0012064748
0.0010431179
0.00073788363
0.00042015817
-0.00015283376
-0.00059598887
-0.0015862152
-0.0020717534
-0.0026694413
-0.0031012536
-0.0035182
-0.003867235
-0.0041581645
-0.0042953651
-0.0044308519
-0.0045128481
-0.0045650708
-0.0045696444
-0.004525045
-0.0044493321
-0.0043398985
-0.0041950195
-0.0039925152
-0.0037670024
-0.003511606
-0.0032257528
-0.0028861262
-0.002523777
-0.0021210599
-0.0016795841
-0.0011781137
-0.00064263725
-5.8610244e-05
0.00057112537
0.0012620396
0.0019901021
0.002757648
0.0035426004
0.0043532514
0.0051765048
0.0060295298
0.0069001792
0.0078146779
0.0087584354
0.0097556755
0.010796303
0.011892202
0.013028859
0.014198621
0.015382523
0.016578284
0.01777742
0.018990572
0.020214322
0.02146117
0.022707786
0.02396505
0.025226929
0.026513175
0.027805597
0.029121447
0.030466393
0.031835847
0.033203924
0.034558851
0.035916013
0.03727685
0.038625044
0.039960946
0.041291514
0.0426199
0.043921372
0.045202715
0.046463931
0.047720571
0.048947148
0.050163013
0.051364402
0.052566375
0.05373182
0.054877327
0.055996175
0.057114874
0.058206603
0.059295561
0.06037239
0.061459352
0.062537878
0.063623885
0.064720922
0.065814838
0.066887478
0.067927368
0.068937259
0.069926508
0.070883354
0.071822494
0.072737817
0.073641437
0.07452477
0.075395144
0.076244766
0.077089034
0.077912473
0.078747202
0.07971189
0.080678674
0.081526377
0.082276602
0.083016853
0.083754193
0.084458188
0.085136957
0.085805115
0.086445975
0.087061725
0.087642387
0.088181442
0.08867772
0.089126997
0.089554938
0.089952761
0.090337928
0.090679877
0.091008832
0.091310393
0.091612503
0.091885266
0.092160444
0.092425936
0.09270352
0.092965317
0.093232734
0.0935049
0.093775212
0.094014734
0.094234688
0.09443622
0.094629908
0.094802409
0.094970521
0.095140854
0.095294724
0.095427899
0.095544699
0.095653689
0.095752548
0.095855208
0.095986272
0.096158839
0.096366663
0.096641709
0.097063093
0.097687493
0.098286167
0.09923739
0.10010079
0.10144574
0.10215596
0.10366034
0.10474855
0.10649325
0.10696736
0.1090492
0.11070989
0.11347052
0.1130551
0.11351581
0.11161045
0.11245868
0.12277034
0.12961846
0.13616644
0.14134085
0.1518923
0.16477389
0.16729075
0.16786505
0.15995809
0.16425425
0.1936707
0.16187577
0.15775739
0.10315566
0.039710979
-0.10748804
-0.14341103
-0.22824148
-0.43361442
-0.6396926
-0.57232616
-0.50444436
-0.25432813
0.00021811672
0.45621548
1.306156
0.54697313
-1.3432625
-1.2010538
0.61109061
0.62244954
2.8051108
2.0320518
1.5235086
0.66788359
0.038289297
-0.18623991
-0.23402134
-0.21861599
-0.21580841
-0.1880216
-0.18963638
-0.1722565
-0.16032394
-0.10016939
-0.051611482
-0.053071503
-0.049641823
-0.051446483
-0.042687578
-0.036411155
-0.02407426
-0.013788896
-0.0073272163
-0.003550106
-0.00076648961
0.0054345744
0.00080063261
0.0052469945
-4.5244283e-05
-0.00011558012
0.0012994261
6.7013636e-05
0.00032716527
0.0005905682
0.00081987767
0.00095756028
0.0017813013
0.0031974246
0.0010640978
0.00016260167
-0.00011917899
-0.00051041275
-0.00072717014
-0.0010669484
-0.0013047657
-0.0015812448
-0.0017485214
-0.0018740577
-0.0019531068
-0.0019639312
-0.001809955
-0.0014954615
-0.0010304702
-5.2451167e-05
-0.0001875613
-0.00021562334
-7.654286e-05
0.000109843
0.00021676807
0.00037952452
0.00055000349
0.00076522565
0.00099953315
0.0011546746
0.00126406
0.0013301938
0.0014146126
0.0013595017
0.0013324939
0.0012072094
0.0010450682
0.00073906607
0.00042146253
-0.00015224568
-0.00059570255
-0.0015860611
-0.0020714372
-0.0026695061
-0.0031012509
-0.0035182734
-0.0038670882
-0.0041576814
-0.0042953264
-0.0044309452
-0.0045129997
-0.004565245
-0.0045697336
-0.0045252081
-0.0044494623
-0.0043401686
-0.004195031
-0.0039928275
-0.0037670697
-0.0035117053
-0.0032257333
-0.0028861966
-0.0025237786
-0.0021210783
-0.0016794925
-0.0011780765
-0.00064253222
-5.8515202e-05
0.00057132924
0.0012621985
0.0019903088
0.002757766
0.0035427434
0.0043533368
0.0051766423
0.0060296012
0.0069003419
0.0078147974
0.0087586445
0.0097558494
0.010796555
0.011892433
0.013029116
0.014198872
0.015382681
0.016578374
0.017777519
0.018990623
0.020214424
0.021461201
0.022707839
0.023965045
0.025226985
0.026513177
0.027805641
0.029121476
0.03046645
0.031835852
0.033203885
0.034558788
0.03591595
0.037276746
0.038624915
0.039960785
0.041291366
0.042619683
0.043921165
0.045202462
0.04646373
0.047720296
0.048946933
0.050162748
0.051364203
0.052566083
0.053731601
0.054877051
0.055995989
0.057114612
0.058206431
0.059295334
0.060372233
0.061459144
0.06253771
0.063623686
0.064720672
0.065814543
0.066887211
0.067927114
0.068937027
0.069926249
0.070883166
0.071822286
0.072737638
0.073641225
0.07452462
0.075394977
0.076244562
0.077088826
0.077912211
0.078746889
0.07971141
0.080677894
0.081525843
0.082276426
0.083016659
0.083753994
0.084457867
0.08513667
0.085804856
0.086445775
0.087061588
0.087642301
0.088181448
0.088677752
0.089127155
0.089555043
0.089952944
0.090338031
0.090680175
0.091009085
0.091310765
0.091612817
0.091885723
0.09216085
0.092426413
0.092703943
0.092965844
0.093233228
0.09350528
0.093775535
0.094015287
0.094235312
0.094436966
0.094630644
0.094803235
0.094971216
0.095141361
0.095295211
0.095428498
0.095545317
0.095653927
0.095752563
0.095854569
0.095983663
0.096158576
0.096365614
0.096642791
0.097063372
0.097686292
0.098286324
0.099239076
0.1000955
0.10142822
0.10215988
0.10367526
0.10473939
0.10648478
0.10698254
0.10907002
0.11070419
0.11346354
0.1130188
0.11342449
0.11150502
0.11246846
0.12261367
0.1294913
0.13590986
0.14163061
0.15199875
0.1648075
0.16716883
0.16707166
0.15978919
0.16281075
0.19252167
0.16218248
0.15796313
0.10353454
0.040697282
-0.097192774
-0.14089525
-0.22367365
-0.43060585
-0.6376917
-0.57288228
-0.515238
-0.28599247
-0.0051729152
0.44964536
1.305185
0.55419245
-1.3069467
-1.2989546
1.4047881
0.72550232
2.7601276
2.0212774
1.5066877
0.66644621
0.036462881
-0.18593339
-0.23445318
-0.21867742
-0.21569701
-0.18801383
-0.18963208
-0.17224209
-0.16032512
-0.10017285
-0.051625984
-0.05307123
-0.049626306
-0.051417036
-0.042664256
-0.036381305
-0.024073391
-0.013756644
-0.0073287345
-0.0037509075
-0.00087210002
0.0052267413
0.00084291541
0.0047678702
-0.00010491743
-0.00019832861
0.0010012479
5.0388999e-05
0.00033252679
0.00055283691
0.00077815482
0.0010045885
0.0017433282
0.0033513641
0.00098482403
0.00021075746
-0.00010754457
-0.00049941786
-0.000719537
-0.0010576241
-0.0012984271
-0.0015754504
-0.0017432331
-0.0018684887
-0.001948498
-0.0019606405
-0.0018150034
-0.0014992511
-0.0010344308
-7.993033e-05
-0.00019528328
-0.00021089445
-7.790297e-05
0.00010764832
0.0002161357
0.00037866185
0.000548855
0.00076215823
0.00099264203
0.00115261
0.0012611154
0.0013300084
0.0014129488
0.0013589871
0.0013338924
0.0012089726
0.0010472267
0.00074059866
0.00042287428
-0.00015161846
-0.0005954423
-0.0015861272
-0.0020713199
-0.0026697643
-0.0031013695
-0.0035184992
-0.003867063
-0.0041573154
-0.0042954112
-0.0044311845
-0.0045132629
-0.0045655362
-0.0045699204
-0.004525503
-0.0044496966
-0.0043406102
-0.0041951221
-0.0039933551
-0.0037672226
-0.0035119037
-0.0032257758
-0.0028863621
-0.0025238391
-0.0021211687
-0.001679439
-0.0011781088
-0.00064246736
-5.8469499e-05
0.00057150879
0.0012623085
0.0019904781
0.0027578123
0.0035428356
0.0043533573
0.0051767484
0.0060296163
0.0069004867
0.0078148782
0.0087588518
0.0097560013
0.010796806
0.011892647
0.013029355
0.014199068
0.015382803
0.016578431
0.017777599
0.018990643
0.020214518
0.021461201
0.022707888
0.02396502
0.02522705
0.026513171
0.027805699
0.029121515
0.030466519
0.031835855
0.033203842
0.034558723
0.035915887
0.037276633
0.038624781
0.039960616
0.04129122
0.042619447
0.043920954
0.045202195
0.04646354
0.047720007
0.048946734
0.050162483
0.051364035
0.052565786
0.053731409
0.054876782
0.05599585
0.057114368
0.058206316
0.059295144
0.060372145
0.061458988
0.062537613
0.063623553
0.06472048
0.065814289
0.066886983
0.067926897
0.068936839
0.069926021
0.07088303
0.071822119
0.072737517
0.073641056
0.074524532
0.075394865
0.076244413
0.077088676
0.077911994
0.078746649
0.079710964
0.080677075
0.081525313
0.082276293
0.083016491
0.083753824
0.084457545
0.085136401
0.085804605
0.086445588
0.087061465
0.087642218
0.088181477
0.088677793
0.089127361
0.089555173
0.089953192
0.090338163
0.090680553
0.091009392
0.091311246
0.091613211
0.09188632
0.092161374
0.092427053
0.092704512
0.092966554
0.093233888
0.093505825
0.093776012
0.094015995
0.094236091
0.094437928
0.094631542
0.094804254
0.094972178
0.095142076
0.095295931
0.095429484
0.095546393
0.095654907
0.09575319
0.095853842
0.095979983
0.096157546
0.096364217
0.09664403
0.097063714
0.097684846
0.098286393
0.099240753
0.10008932
0.10140776
0.10216247
0.10369358
0.10472812
0.10647364
0.1070001
0.1090929
0.1106919
0.11345645
0.11297449
0.11332429
0.11138849
0.11247784
0.12244921
0.12934641
0.13566163
0.14190429
0.15208589
0.16483245
0.16696965
0.16637082
0.15962106
0.16169902
0.18896976
0.16241432
0.15821448
0.10415907
0.04247603
-0.08248538
-0.13724009
-0.21899891
-0.42704304
-0.6345631
-0.57251561
-0.53128085
-0.32484672
-0.013276288
0.44021523
1.2804118
0.55740877
-1.2452709
-1.1181477
1.533009
0.7910075
2.7001964
2.0094726
1.4936092
0.66534101
0.034894483
-0.18559232
-0.23501853
-0.21877688
-0.2155639
-0.18801483
-0.18962575
-0.17222673
-0.16032606
-0.10017599
-0.051638451
-0.053070453
-0.049610001
-0.051384116
-0.042637072
-0.036348718
-0.024068493
-0.013731514
-0.0073208742
-0.0038942104
-0.00098168739
0.0048226305
0.00077859286
0.0043877573
-0.00017860275
-0.00024775658
0.00078606531
3.5800259e-05
0.00033485729
0.00050707407
0.00074926389
0.0010464185
0.0016797069
0.0033100896
0.00086912592
0.00025450363
-9.4860888e-05
-0.00048825084
-0.00071250612
-0.0010483238
-0.0012930403
-0.0015713234
-0.0017387272
-0.0018635165
-0.0019441023
-0.001957543
-0.0018194617
-0.0015049724
-0.001037048
-0.00010647097
-0.00020345909
-0.00020701165
-8.0377802e-05
0.00010507729
0.00021513154
0.00037785396
0.00054821205
0.00075851114
0.000989989
0.0011505785
0.0012588092
0.0013295861
0.0014112665
0.0013598071
0.001335796
0.0012110825
0.0010494751
0.00074224219
0.00042433077
-0.00015098104
-0.00059519557
-0.0015863123
-0.0020713425
-0.0026701233
-0.0031015657
-0.0035188205
-0.0038670949
-0.0041569528
-0.0042955522
-0.004431511
-0.0045135975
-0.0045659018
-0.0045701639
-0.0045258843
-0.004449994
-0.0043411643
-0.0041952564
-0.0039940314
-0.0037674264
-0.0035121658
-0.0032258496
-0.0028865896
-0.0025239307
-0.0021213016
-0.0016793961
-0.0011781798
-0.00064241533
-5.8447207e-05
0.00057169152
0.0012623956
0.0019906367
0.002757813
0.0035428953
0.0043533305
0.005176834
0.0060295886
0.0069006247
0.0078149401
0.0087590782
0.0097561532
0.010797083
0.011892876
0.013029612
0.014199205
0.015382923
0.016578475
0.017777679
0.01899065
0.020214618
0.021461188
0.022707943
0.023964989
0.025227133
0.026513168
0.02780578
0.029121569
0.030466611
0.031835865
0.033203799
0.034558658
0.035915826
0.037276512
0.038624641
0.039960437
0.041291072
0.042619189
0.043920732
0.045201908
0.046463352
0.047719697
0.048946543
0.050162211
0.051363887
0.052565475
0.053731233
0.054876512
0.055995747
0.057114133
0.058206245
0.05929498
0.060372113
0.061458871
0.062537575
0.063623473
0.064720334
0.065814063
0.066886778
0.067926701
0.068936682
0.069925809
0.070882927
0.071821975
0.072737437
0.073640915
0.074524486
0.075394788
0.076244306
0.077088572
0.077911806
0.078746458
0.079710472
0.080676248
0.081524821
0.082276182
0.083016333
0.083753662
0.084457217
0.085136142
0.085804351
0.0864454
0.087061334
0.087642117
0.088181507
0.088677827
0.089127599
0.089555318
0.089953492
0.090338318
0.090681
0.091009747
0.091311824
0.091613675
0.091887041
0.092162003
0.092427836
0.092705201
0.092967418
0.093234683
0.093506498
0.093776604
0.094016819
0.09423699
0.09443906
0.094632553
0.094805404
0.094973297
0.095142915
0.095296787
0.095430636
0.095547657
0.095656246
0.095754466
0.09585374
0.095975721
0.096155756
0.096362652
0.096645341
0.097064087
0.097683415
0.098286513
0.099242469
0.10008295
0.10138869
0.10216305
0.10371309
0.10471721
0.1064627
0.10701878
0.10911456
0.1106791
0.1134512
0.11292718
0.11322323
0.11126494
0.1124862
0.12228438
0.12919895
0.135459
0.1421018
0.15217161
0.1648553
0.16674166
0.165753
0.15945763
0.16102825
0.18375602
0.16253006
0.15843799
0.10485422
0.044648862
-0.064877951
-0.13197321
-0.21432116
-0.4231419
-0.63012994
-0.57233423
-0.54295069
-0.35926239
-0.023333951
0.42883949
1.2252764
0.55695442
-1.1649742
-0.76917936
1.2479013
0.82529763
2.6346443
1.9967146
1.4817293
0.66459115
0.033479881
-0.18552937
-0.23568377
-0.21888309
-0.21541772
-0.18802554
-0.18961754
-0.17221071
-0.16032702
-0.10017928
-0.051648732
-0.053069089
-0.049594006
-0.051348933
-0.04260672
-0.036316608
-0.02406191
-0.013713906
-0.007307975
-0.0039654718
-0.001035421
0.0042584277
0.00067010919
0.0040475892
-0.00020485209
-0.00027171177
0.00070144118
2.8377609e-05
0.000333175
0.00046155577
0.00073374711
0.0010721784
0.00160227
0.0031354957
0.00075537922
0.00028359236
-8.2919293e-05
-0.00047814174
-0.00070676331
-0.0010401195
-0.0012889837
-0.0015692864
-0.0017357062
-0.0018593399
-0.0019402174
-0.0019552943
-0.0018247912
-0.0015129898
-0.0010391553
-0.00013145757
-0.00021172392
-0.00020402224
-8.14167e-05
0.00010357048
0.00021402434
0.00037712531
0.00054738277
0.00075457508
0.00098489713
0.0011489267
0.0012569165
0.0013285225
0.0014104969
0.0013613026
0.0013379907
0.0012134096
0.0010517415
0.00074395177
0.00042578332
-0.00015035519
-0.00059495531
-0.0015865598
-0.0020714191
-0.0026705231
-0.0031017775
-0.0035191833
-0.0038671585
-0.0041566208
-0.0042957076
-0.004431876
-0.0045139559
-0.004566298
-0.0045704203
-0.0045263051
-0.0044503112
-0.0043417573
-0.0041953947
-0.0039947646
-0.0037676415
-0.0035124502
-0.0032259188
-0.0028868388
-0.0025240177
-0.0021214395
-0.0016793322
-0.0011782537
-0.00064234446
-5.8413294e-05
0.00057190526
0.0012624928
0.0019908138
0.0027578036
0.0035429577
0.0043532947
0.0051769349
0.0060295586
0.0069007907
0.0078150184
0.0087593487
0.0097563328
0.010797405
0.011893136
0.013029899
0.014199337
0.015383052
0.016578522
0.017777774
0.018990663
0.02021474
0.021461179
0.022708018
0.023964966
0.025227245
0.026513179
0.02780589
0.029121646
0.030466729
0.031835887
0.033203761
0.034558597
0.03591577
0.037276388
0.038624498
0.039960251
0.041290922
0.04261891
0.0439205
0.045201601
0.046463164
0.047719367
0.048946352
0.050161927
0.05136375
0.052565148
0.053731065
0.054876234
0.055995666
0.057113899
0.058206204
0.059294831
0.06037212
0.061458779
0.062537575
0.063623427
0.064720217
0.065813851
0.066886581
0.067926509
0.068936535
0.069925596
0.070882835
0.071821834
0.072737375
0.07364078
0.074524457
0.075394723
0.076244217
0.077088486
0.077911622
0.078746292
0.079709936
0.08067541
0.081524345
0.082276064
0.083016156
0.083753482
0.084456861
0.08513587
0.085804067
0.086445183
0.087061167
0.08764197
0.088181504
0.088677821
0.089127827
0.089555437
0.089953799
0.090338455
0.090681467
0.091010103
0.091312443
0.091614158
0.091887823
0.092162675
0.092428695
0.092705946
0.092968364
0.093235548
0.093507241
0.09377725
0.094017699
0.094237943
0.094440276
0.094633621
0.094806628
0.094974499
0.095143818
0.095297709
0.095431871
0.095549011
0.095657743
0.095755964
0.095855099
0.095971346
0.096153531
0.096361293
0.09664667
0.097064464
0.097682267
0.098286784
0.099244296
0.10007673
0.10136848
0.10215945
0.10373392
0.10470678
0.10645102
0.10703826
0.10913691
0.11066692
0.11344684
0.11287903
0.11312288
0.11113564
0.11248831
0.12211953
0.12905523
0.13532365
0.14221859
0.15225055
0.16487323
0.16652884
0.16527497
0.15924568
0.16056667
0.17808257
0.16254163
0.15862035
0.1055451
0.046846685
-0.046552834
-0.1263046
-0.20927084
-0.41928711
-0.62467804
-0.57244365
-0.54837085
-0.3860946
-0.034050975
0.4161326
1.1406151
0.55195926
-1.075736
-0.47103465
0.72942646
0.86483994
2.5725402
1.9831685
1.4770309
0.66441142
0.032331935
-0.18585297
-0.23638703
-0.21898964
-0.21526082
-0.1880431
-0.18960673
-0.17219234
-0.16032799
-0.10018238
-0.051657273
-0.053067064
-0.049578298
-0.051311456
-0.042573967
-0.036283169
-0.024054995
-0.013693489
-0.0072971148
-0.0039942692
-0.0010523439
0.0036702012
0.00055336142
0.0036747911
-0.00022442877
-0.00029573699
0.00058315649
3.055617e-05
0.00033019514
0.00042370134
0.00073176492
0.0010922865
0.0015303129
0.0029512001
0.00066845533
0.00029634382
-7.2306668e-05
-0.00046895229
-0.00070221673
-0.0010326163
-0.001285082
-0.0015671766
-0.0017305921
-0.0018517131
-0.0019331262
-0.0019507301
-0.0018310412
-0.0015218442
-0.0010405582
-0.00015518498
-0.00021991796
-0.00020139564
-8.1096538e-05
0.00010360931
0.00021485393
0.0003771016
0.0005458748
0.00075049927
0.00098056587
0.0011473423
0.0012552737
0.0013269938
0.0014112279
0.0013631848
0.0013403386
0.0012158281
0.0010539841
0.00074568397
0.00042724136
-0.00014973265
-0.00059472339
-0.0015868702
-0.0020715454
-0.0026709639
-0.0031020101
-0.0035195873
-0.0038672472
-0.0041563113
-0.0042958808
-0.0044322806
-0.0045143438
-0.0045667307
-0.0045706958
-0.0045267664
-0.0044506527
-0.004342368
-0.0041955423
-0.003995515
-0.0037678721
-0.0035127586
-0.0032259895
-0.002887111
-0.0025241057
-0.0021215853
-0.0016792536
-0.0011783326
-0.00064225964
-5.8370216e-05
0.00057214431
0.001262598
0.0019910055
0.0027577839
0.0035430206
0.0043532498
0.0051770473
0.0060295258
0.00690098
0.0078151111
0.0087596572
0.0097565388
0.010797767
0.011893427
0.013030216
0.014199484
0.015383191
0.016578574
0.017777883
0.018990682
0.02021488
0.021461173
0.022708111
0.02396495
0.02522738
0.026513202
0.027806026
0.029121744
0.030466869
0.03183592
0.033203727
0.03455854
0.035915715
0.037276258
0.038624351
0.039960057
0.041290767
0.042618611
0.043920255
0.045201274
0.046462971
0.047719015
0.048946159
0.050161632
0.051363619
0.052564805
0.0537309
0.054875948
0.055995602
0.057113664
0.058206187
0.059294694
0.06037216
0.06145871
0.062537609
0.063623412
0.064720124
0.065813651
0.066886389
0.067926321
0.068936397
0.069925381
0.070882753
0.071821696
0.072737329
0.073640652
0.074524442
0.075394668
0.076244144
0.077088418
0.077911444
0.078746144
0.079709358
0.080674566
0.081523877
0.082275941
0.083015966
0.083753286
0.08445648
0.085135585
0.085803758
0.086444941
0.087060967
0.087641784
0.088181472
0.08867778
0.089128046
0.089555536
0.089954111
0.090338577
0.090681951
0.091010461
0.091313099
0.091614659
0.091888656
0.092163384
0.092429617
0.092706737
0.092969376
0.093236473
0.093508043
0.093777939
0.094018627
0.094238943
0.094441559
0.094634741
0.094807916
0.094975762
0.095144767
0.095298676
0.095433159
0.095550421
0.095659324
0.095757566
0.095856919
0.09596764
0.096151288
0.09636044
0.096648022
0.09706483
0.097681226
0.098287187
0.099246254
0.10007062
0.10134849
0.10215548
0.10375571
0.10469692
0.10643907
0.10705761
0.10916181
0.11065349
0.11344403
0.11283017
0.11302143
0.1110006
0.11248383
0.12195407
0.12891369
0.13521394
0.14230216
0.15232764
0.16488287
0.16635342
0.16506436
0.15897619
0.16022688
0.17274952
0.16248623
0.15876309
0.10622811
0.048898181
-0.030074539
-0.12106688
-0.20439846
-0.41547151
-0.61854037
-0.57208363
-0.54996871
-0.40307409
-0.044931256
0.40219453
1.0366331
0.54487014
-0.99106183
-0.37850448
0.41927289
0.9529468
2.5212126
1.9685529
1.4773694
0.66436125
0.031466329
-0.1865818
-0.23710291
-0.21909299
-0.21509188
-0.18806392
-0.18959322
-0.17217057
-0.1603282
-0.10018507
-0.051664643
-0.053064262
-0.049562584
-0.051271144
-0.042538708
-0.036247041
-0.024047356
-0.013669171
-0.0072910463
-0.0040170928
-0.0010709606
0.0031026717
0.00041795153
0.0032398959
-0.00023454662
-0.00031341844
0.00048676889
3.4866115e-05
0.00032686239
0.00039703491
0.00073135422
0.0011033612
0.0014832884
0.0027736168
0.00061933763
0.00030405214
-6.3119883e-05
-0.0004604474
-0.00069862167
-0.0010237428
-0.0012789464
-0.0015586271
-0.0017199903
-0.001840475
-0.0019229241
-0.0019434422
-0.0018341775
-0.0015296345
-0.0010415748
-0.00017792219
-0.00022779623
-0.00019880745
-8.0206057e-05
0.0001041969
0.00021681862
0.00037785387
0.00054392505
0.00074564394
0.00097643306
0.0011455979
0.0012537073
0.0013263924
0.0014119578
0.0013652329
0.0013427457
0.0012182668
0.0010562173
0.00074743177
0.00042870795
-0.00014904617
-0.00059450678
-0.0015872515
-0.0020717294
-0.0026714511
-0.0031022704
-0.0035200356
-0.003867365
-0.0041560234
-0.0042960776
-0.0044327261
-0.0045147647
-0.0045672021
-0.004570995
-0.0045272691
-0.0044510223
-0.0043429872
-0.0041957039
-0.0039962611
-0.0037681217
-0.0035130924
-0.0032260665
-0.0028874069
-0.0025241989
-0.002121741
-0.0016791659
-0.0011784182
-0.00064216604
-5.8321383e-05
0.00057240274
0.0012627079
0.0019912066
0.002757753
0.0035430807
0.0043531948
0.0051771667
0.0060294889
0.0069011871
0.0078152153
0.008759997
0.0097567669
0.010798163
0.011893745
0.01303056
0.01419964
0.01538334
0.016578629
0.017778003
0.018990703
0.020215034
0.021461169
0.022708216
0.023964939
0.025227535
0.026513236
0.027806183
0.02912186
0.030467028
0.031835963
0.033203696
0.034558484
0.035915662
0.037276123
0.038624198
0.039959855
0.041290607
0.042618293
0.043919998
0.04520093
0.046462773
0.047718645
0.048945963
0.050161327
0.051363493
0.052564448
0.053730737
0.054875654
0.055995553
0.05711343
0.058206192
0.059294569
0.060372229
0.06145866
0.062537675
0.063623424
0.064720053
0.065813461
0.066886202
0.067926136
0.068936266
0.069925167
0.07088268
0.071821562
0.072737297
0.07364053
0.074524442
0.075394625
0.076244087
0.077088366
0.077911271
0.07874601
0.079708737
0.080673712
0.08152342
0.082275814
0.083015763
0.083753076
0.084456078
0.085135288
0.085803426
0.086444676
0.08706074
0.087641564
0.088181416
0.088677711
0.089128257
0.08955562
0.08995443
0.09033869
0.090682453
0.091010827
0.09131379
0.091615182
0.09188954
0.092164133
0.092430602
0.092707578
0.092970455
0.093237456
0.093508903
0.093778674
0.094019603
0.094239992
0.094442907
0.094635912
0.094809266
0.094977085
0.095145761
0.095299684
0.095434491
0.095551876
0.09566096
0.095759233
0.09585893
0.095966453
0.096149109
0.096360083
0.096649369
0.097065172
0.097680208
0.098287671
0.099247767
0.10006451
0.10132974
0.10215223
0.1037781
0.10468712
0.10642692
0.10707582
0.10918669
0.11063743
0.11344143
0.11277993
0.1129177
0.11086196
0.11247301
0.12178801
0.12877166
0.13510518
0.14237917
0.15240563
0.16488257
0.16622991
0.16521503
0.15868512
0.15967026
0.16859683
0.16243579
0.15887127
0.1069086
0.050902792
-0.017423621
-0.11645082
-0.20016425
-0.41166025
-0.61196876
-0.5714328
-0.55024562
-0.41365018
-0.055739634
0.3876815
0.92619013
0.53732324
-0.92061171
-0.38840972
0.34181604
1.1191814
2.4860921
1.9537814
1.4796948
0.66418015
0.03082967
-0.18766015
-0.23781419
-0.21919121
-0.21490944
-0.18808546
-0.1895768
-0.17214515
-0.16032796
-0.10018732
-0.051671361
-0.053060573
-0.049546595
-0.051227146
-0.042500976
-0.03620789
-0.024038841
-0.01364324
-0.007281374
-0.004034391
-0.0010880773
0.0025742846
0.00030800148
0.0027484727
-0.00023500767
-0.00032527171
0.00041786597
3.1702463e-05
0.00032374476
0.00038152354
0.00072858385
0.0011081329
0.0014649951
0.0026054875
0.0006097006
0.00030384026
-5.5510585e-05
-0.0004525519
-0.0006936377
-0.0010132939
-0.0012709515
-0.0015461558
-0.0017074859
-0.0018278696
-0.0019114805
-0.0019348183
-0.001834979
-0.0015354477
-0.0010422333
-0.00020020977
-0.00023513694
-0.00019617327
-7.9190755e-05
0.00010477676
0.00021888188
0.0003791981
0.00054437365
0.0007401719
0.00097135675
0.0011434778
0.0012521255
0.0013270147
0.0014124858
0.0013673405
0.0013451713
0.0012207003
0.001058448
0.00074918995
0.00043017915
-0.00014839285
-0.00059431356
-0.0015877099
-0.0020719757
-0.0026719868
-0.003102564
-0.0035205293
-0.0038675144
-0.0041557577
-0.0042963004
-0.0044332116
-0.0045152206
-0.0045677126
-0.0045713209
-0.0045278117
-0.0044514214
-0.0043436099
-0.004195882
-0.0039969904
-0.0037683917
-0.0035134509
-0.0032261528
-0.0028877252
-0.0025242999
-0.0021219069
-0.0016790728
-0.0011785104
-0.00064206667
-5.8268037e-05
0.00057267672
0.0012628221
0.0019914147
0.0027577122
0.0035431365
0.0043531304
0.00517729
0.0060294482
0.0069014081
0.0078153297
0.0087603631
0.0097570148
0.010798588
0.011894088
0.013030925
0.014199806
0.015383496
0.016578686
0.017778131
0.018990728
0.020215199
0.021461167
0.022708332
0.023964933
0.025227706
0.02651328
0.027806358
0.029121991
0.030467204
0.031836014
0.033203667
0.034558429
0.035915608
0.037275983
0.038624039
0.039959645
0.041290439
0.042617959
0.043919727
0.045200568
0.046462567
0.047718259
0.048945762
0.050161012
0.051363368
0.052564078
0.053730575
0.054875356
0.055995514
0.057113197
0.058206213
0.059294456
0.060372323
0.06145863
0.062537767
0.06362346
0.064720001
0.065813281
0.06688602
0.067925954
0.068936142
0.069924952
0.070882614
0.071821432
0.072737277
0.073640414
0.074524454
0.075394591
0.076244042
0.077088327
0.077911101
0.078745883
0.079708073
0.080672848
0.081522971
0.082275682
0.083015549
0.083752851
0.084455654
0.085134978
0.085803072
0.086444391
0.087060487
0.087641314
0.088181336
0.088677617
0.089128462
0.089555691
0.089954755
0.090338797
0.090682971
0.091011202
0.091314513
0.091615729
0.091890471