/*--------------------------------*- C++ -*----------------------------------*\
| =========                 |                                                 |
| \\      /  F ield         | OpenFOAM: The Open Source CFD Toolbox           |
|  \\    /   O peration     | Version:  2.4.0                                 |
|   \\  /    A nd           | Web:      www.OpenFOAM.org                      |
|    \\/     M anipulation  |                                                 |
\*---------------------------------------------------------------------------*/
FoamFile
{
    version     2.0;
    format      ascii;
    class       volScalarField;
    location    "700";
    object      pMean;
}
// * * * * * * * * * * * * * * * * * * * * * * * * * * * * * * * * * * * * * //

dimensions      [0 2 -2 0 0 0 0];

internalField   nonuniform List<scalar> 
78300
(
-0.1134361
-0.070713104
-0.074768789
-0.069522541
-0.069478749
-0.06208559
-0.053087827
-0.039749367
-0.027089953
-0.018755318
-0.013756872
-0.010467773
-0.0081702239
-0.0069659899
-0.005613128
-0.0047445348
-0.0039791934
-0.0034472444
-0.0028884032
-0.0024001036
-0.0019703418
-0.0016092415
-0.0013239637
-0.0011130062
-0.00094966995
-0.00084327122
-0.00075367336
-0.00071039673
-0.0006863034
-0.00068235167
-0.00068952099
-0.00070461783
-0.00071726974
-0.00071911333
-0.00070130628
-0.00065389461
-0.00057078382
-0.0004617212
-0.000319679
-0.00016582603
4.1609471e-10
0.00022809091
0.00044438552
0.00067833943
0.00092181695
0.0011629348
0.0013887731
0.0015932528
0.0017574142
0.0018968954
0.0019978543
0.0020738717
0.0021087524
0.0021057901
0.0020406997
0.0019433553
0.0017463884
0.0015300046
0.0011525173
0.00080140649
0.00016901545
-0.00030574177
-0.0013603329
-0.0018275199
-0.0023348028
-0.00264059
-0.0029123775
-0.0030412848
-0.0031108194
-0.0030729252
-0.0029762429
-0.0027952604
-0.0025577724
-0.0022532666
-0.0018954636
-0.001480356
-0.001015974
-0.00050242632
5.6967135e-05
0.00066156096
0.0013083716
0.0019961994
0.0027231777
0.0034885922
0.0042904804
0.0051277633
0.0059990239
0.0069036256
0.0078400556
0.0088072404
0.0098040224
0.010829758
0.011883358
0.01296412
0.014070685
0.015202465
0.016357845
0.01753625
0.018735972
0.019956391
0.021195826
0.022453646
0.02372836
0.025019381
0.026325965
0.027647288
0.028982321
0.030330466
0.031690281
0.033061258
0.0344418
0.035831578
0.037229257
0.038634336
0.040045255
0.041461704
0.04288226
0.044306643
0.045733699
0.047161622
0.048590955
0.050021577
0.05145209
0.052881421
0.054309437
0.055735841
0.057159339
0.05857969
0.059996287
0.061408906
0.062816174
0.064218212
0.06561422
0.067004016
0.068386394
0.069761655
0.071129143
0.072488796
0.073839449
0.07518137
0.076513865
0.077836787
0.079149451
0.080451781
0.081743572
0.083024431
0.084294221
0.085552384
0.086799668
0.088036348
0.089261259
0.090474903
0.09167729
0.092868073
0.094047063
0.095213866
0.096369883
0.097513707
0.098647856
0.099770524
0.10088633
0.10199662
0.10312464
0.10419345
0.10522505
0.10625905
0.10727544
0.1082892
0.10928797
0.11027952
0.11125777
0.11222733
0.1131842
0.11413183
0.11506748
0.11599319
0.11690713
0.11781104
0.11870299
0.11958451
0.12045479
0.12131472
0.12216288
0.12300033
0.12382642
0.12464149
0.12544465
0.12623626
0.12701656
0.12778453
0.12854125
0.1292856
0.130021
0.1307433
0.13145708
0.13215594
0.1328478
0.13352156
0.13419052
0.13483925
0.13548874
0.13611409
0.13674633
0.13734641
0.13796216
0.13853137
0.13912831
0.13965589
0.14019391
0.14067235
0.14119518
0.14168445
0.14221386
0.14272671
0.14327414
0.14381353
0.14436948
0.14490814
0.14545141
0.1459549
0.14655459
0.14689528
0.14742237
0.14767013
0.15006044
0.15027195
0.14969456
0.15274082
0.15641034
0.15391342
0.15223293
0.15351765
0.15537384
0.15408411
0.15089241
0.15512031
0.15550773
0.15571271
0.14695124
0.15173507
0.15474128
0.14761676
0.15021693
0.15584302
0.14870517
0.15317818
0.14126039
0.12161025
0.11799227
0.10034578
0.095999134
0.083877786
0.068683611
0.07182324
0.038445801
0.032383838
0.01255714
-0.011945931
-0.052451946
-0.084614953
-0.12515266
-0.17195167
-0.19910071
-0.21766853
-0.21944021
-0.21639656
-0.20030855
-0.1934513
-0.1691194
-0.16933154
-0.11343998
-0.070719982
-0.074770036
-0.069522342
-0.069473631
-0.06208597
-0.053096462
-0.039772156
-0.027119494
-0.018782718
-0.013780318
-0.010483558
-0.0081834799
-0.0069762051
-0.0056228358
-0.0047520995
-0.003985319
-0.0034528772
-0.0028923378
-0.0024043445
-0.0019742334
-0.0016124728
-0.001326423
-0.0011148932
-0.00095091129
-0.00084403802
-0.00075467772
-0.00071104833
-0.00068668995
-0.00068263833
-0.00068979371
-0.00070480239
-0.00071737436
-0.00071933384
-0.00070169156
-0.00065450856
-0.0005716313
-0.00046278218
-0.00032102303
-0.0001676894
-1.0417848e-06
0.00022660894
0.00044272993
0.00067659922
0.00091999559
0.0011610982
0.0013870761
0.0015918273
0.0017559231
0.0018957022
0.0019968779
0.0020730423
0.0021081233
0.0021054627
0.0020405576
0.0019434378
0.0017465315
0.0015303417
0.0011527859
0.00080181599
0.00016928515
-0.00030542702
-0.0013595778
-0.0018266419
-0.002334
-0.0026398258
-0.0029115619
-0.0030404981
-0.0031099957
-0.0030721797
-0.0029754991
-0.0027945639
-0.0025570921
-0.0022525903
-0.0018947952
-0.0014796928
-0.0010153184
-0.00050176378
5.762599e-05
0.00066221612
0.001309021
0.0019968507
0.0027238247
0.0034892352
0.0042911184
0.0051284
0.0059996559
0.0069042519
0.0078406749
0.0088078563
0.0098046309
0.010830358
0.011883947
0.012964698
0.01407125
0.015203017
0.016358384
0.017536775
0.018736483
0.019956887
0.021196309
0.022454114
0.023728813
0.025019818
0.026326382
0.027647687
0.028982699
0.030330822
0.031690617
0.033061574
0.034442095
0.035831849
0.037229508
0.038634565
0.040045464
0.041461891
0.042882426
0.04430679
0.045733825
0.047161726
0.048591038
0.05002164
0.051452133
0.052881442
0.054309439
0.055735822
0.057159302
0.058579633
0.059996211
0.06140881
0.06281606
0.06421808
0.065614072
0.067003849
0.068386211
0.069761456
0.071128928
0.072488564
0.073839202
0.075181107
0.076513589
0.077836495
0.079149145
0.08045146
0.081743236
0.083024079
0.084293857
0.08555201
0.086799284
0.08803595
0.089260852
0.090474486
0.091676863
0.092867634
0.094046615
0.095213409
0.096369416
0.09751323
0.098647366
0.099770016
0.10088579
0.10199603
0.10312407
0.10419292
0.10522453
0.10625852
0.1072749
0.10828865
0.10928741
0.11027896
0.11125721
0.11222677
0.11318363
0.11413126
0.11506691
0.11599262
0.11690655
0.11781046
0.11870241
0.11958393
0.1204542
0.12131413
0.12216228
0.12299974
0.12382582
0.12464089
0.12544404
0.12623565
0.12701595
0.12778391
0.12854064
0.12928498
0.13002039
0.13074269
0.13145647
0.13215532
0.13284719
0.13352094
0.13418991
0.13483865
0.13548813
0.1361135
0.13674573
0.13734583
0.13796156
0.1385308
0.13912769
0.1396555
0.14019388
0.14067284
0.14119614
0.14168595
0.1422159
0.14272911
0.14327714
0.14381692
0.14437384
0.14491436
0.14545274
0.14596289
0.14656018
0.14689789
0.14743554
0.1476643
0.15006119
0.15027441
0.14973203
0.15277604
0.15635163
0.15394886
0.15226943
0.15350466
0.15533542
0.15403016
0.15096011
0.15515661
0.15548324
0.15566471
0.14687574
0.1518886
0.15469061
0.14747727
0.15017389
0.15589525
0.14886335
0.15315466
0.14131356
0.12165335
0.11812352
0.10019607
0.095383094
0.08473181
0.069511326
0.072069839
0.039122679
0.032512184
0.012397295
-0.011858105
-0.052645749
-0.08474362
-0.12528094
-0.17201799
-0.19913935
-0.21765613
-0.21942434
-0.21637536
-0.20029489
-0.19344208
-0.16911406
-0.16932883
-0.1134442
-0.070728438
-0.074771384
-0.069522252
-0.069466939
-0.062085656
-0.053102402
-0.039796623
-0.027149399
-0.018813278
-0.013807509
-0.010502049
-0.0081985589
-0.0069863073
-0.0056339786
-0.0047614531
-0.0039943618
-0.0034600448
-0.0028966644
-0.0024091031
-0.0019784513
-0.001615752
-0.0013292007
-0.0011169008
-0.00095214285
-0.00084462266
-0.00075590669
-0.00071178264
-0.00068712974
-0.00068302998
-0.0006900878
-0.00070502407
-0.00071750501
-0.00071961665
-0.00070216919
-0.0006552244
-0.00057257214
-0.00046385521
-0.00032246789
-0.00016948572
-2.2468086e-06
0.0002248105
0.00044086581
0.00067466563
0.00091798669
0.0011590369
0.0013852242
0.0015902584
0.0017542661
0.0018943953
0.0019958123
0.0020720996
0.0021073691
0.0021050881
0.002040377
0.0019435072
0.0017466513
0.0015307038
0.0011530528
0.00080229213
0.00016958304
-0.0003050299
-0.0013586978
-0.0018255019
-0.002333044
-0.0026389111
-0.0029105967
-0.0030395638
-0.0031090237
-0.0030713085
-0.0029746366
-0.002793763
-0.0025563166
-0.0022518205
-0.0018940403
-0.0014789464
-0.0010145855
-0.00050102257
5.83591e-05
0.00066294231
0.0013097371
0.0019975683
0.0027245346
0.0034899387
0.004291814
0.0051290935
0.0060003428
0.0069049312
0.0078413452
0.0088085232
0.0098052894
0.010831007
0.011884583
0.01296532
0.014071858
0.015203608
0.016358959
0.017537335
0.018737028
0.019957414
0.02119682
0.02245461
0.023729293
0.02502028
0.026326824
0.027648106
0.028983095
0.030331195
0.031690967
0.033061902
0.034442402
0.035832132
0.037229768
0.038634802
0.040045679
0.041462082
0.042882596
0.044306938
0.045733953
0.047161829
0.048591118
0.050021696
0.051452167
0.052881453
0.054309427
0.055735788
0.057159247
0.058579555
0.059996113
0.061408689
0.06281592
0.064217919
0.065613892
0.067003649
0.068385993
0.06976122
0.071128675
0.072488292
0.073838914
0.075180803
0.076513268
0.077836157
0.079148792
0.080451092
0.081742852
0.083023676
0.084293443
0.085551586
0.086798849
0.088035501
0.089260392
0.090474016
0.091676383
0.09286714
0.094046112
0.095212898
0.096368894
0.097512696
0.098646819
0.099769446
0.10088519
0.10199537
0.10312341
0.10419233
0.10522395
0.10625794
0.10727431
0.10828805
0.1092868
0.11027835
0.11125659
0.11222614
0.11318301
0.11413063
0.11506628
0.11599199
0.11690592
0.11780983
0.11870177
0.11958329
0.12045356
0.12131349
0.12216164
0.12299909
0.12382517
0.12464023
0.12544337
0.12623498
0.12701527
0.12778323
0.12853996
0.12928431
0.13001972
0.13074202
0.1314558
0.13215465
0.13284651
0.13352027
0.13418924
0.13483799
0.13548748
0.13611285
0.13674509
0.13734521
0.13796093
0.13853022
0.13912704
0.13965501
0.14019385
0.14067338
0.14119718
0.14168766
0.14221821
0.14273172
0.14328043
0.14382058
0.14437895
0.14492176
0.14545482
0.1459726
0.14656416
0.14690289
0.14745233
0.14765312
0.15005678
0.1502712
0.1497808
0.15281411
0.1562625
0.15400496
0.15233269
0.15348031
0.15528828
0.153958
0.15105138
0.15517918
0.15544378
0.15560392
0.14682983
0.15213907
0.15458404
0.14729873
0.15010405
0.1559147
0.14910608
0.1531969
0.1415714
0.12198944
0.1183366
0.10007319
0.094559994
0.085598476
0.070718929
0.07244637
0.040319969
0.032564448
0.012183141
-0.011592391
-0.052849919
-0.084754424
-0.12537684
-0.17206409
-0.19915346
-0.2176293
-0.21940205
-0.21634907
-0.20027858
-0.19343117
-0.16910862
-0.16932584
-0.11344728
-0.070736155
-0.074772386
-0.069522507
-0.069459672
-0.0620861
-0.053103168
-0.039820972
-0.027178779
-0.018844107
-0.013835964
-0.010521809
-0.0082146787
-0.0069944248
-0.0056463418
-0.0047727509
-0.0040063617
-0.0034685136
-0.0029010602
-0.0024137776
-0.0019824702
-0.0016187231
-0.0013321197
-0.0011190489
-0.00095329537
-0.00084503407
-0.00075736156
-0.00071265067
-0.00068767449
-0.00068353906
-0.00069042366
-0.00070538343
-0.00071772052
-0.00071994562
-0.00070269928
-0.00065606142
-0.00057361085
-0.00046492069
-0.00032396933
-0.00017103548
-3.7876572e-06
0.00022280895
0.00043891446
0.0006727042
0.00091595885
0.0011568666
0.0013833291
0.0015886725
0.0017525256
0.0018930784
0.0019946937
0.0020710936
0.0021065279
0.0021046874
0.0020401834
0.0019435855
0.0017467931
0.0015311129
0.0011533315
0.00080282618
0.00016992256
-0.00030463007
-0.0013579337
-0.0018244245
-0.0023321588
-0.0026380589
-0.0029096773
-0.0030386651
-0.0031080755
-0.0030704647
-0.0029737974
-0.0027929884
-0.0025555675
-0.0022510732
-0.0018933085
-0.0014782208
-0.0010138733
-0.00050029711
5.9076437e-05
0.00066365351
0.0013104379
0.0019982731
0.0027252315
0.0034906299
0.0042924972
0.0051297756
0.0060010188
0.0069056001
0.0078420052
0.0088091808
0.0098059393
0.010831647
0.01188521
0.012965933
0.014072455
0.015204188
0.016359524
0.017537883
0.018737559
0.019957928
0.021197318
0.022455094
0.023729763
0.025020733
0.026327257
0.027648518
0.028983486
0.030331561
0.031691313
0.033062227
0.034442706
0.035832411
0.037230027
0.038635037
0.040045895
0.041462273
0.042882767
0.044307089
0.045734084
0.047161935
0.048591202
0.050021758
0.051452208
0.05288147
0.054309423
0.055735761
0.057159201
0.058579487
0.059996025
0.061408577
0.062815791
0.064217769
0.065613724
0.067003458
0.068385787
0.069760994
0.071128433
0.07248803
0.073838637
0.075180508
0.076512958
0.077835829
0.079148448
0.080450733
0.081742476
0.083023282
0.084293038
0.085551171
0.086798423
0.088035059
0.089259941
0.090473555
0.091675911
0.092866654
0.094045617
0.095212393
0.096368379
0.097512169
0.098646276
0.09976888
0.10088459
0.10199469
0.10312272
0.10419174
0.10522337
0.10625736
0.10727372
0.10828744
0.10928619
0.11027774
0.11125598
0.11222553
0.1131824
0.11413002
0.11506566
0.11599137
0.1169053
0.1178092
0.11870113
0.11958266
0.12045292
0.12131284
0.12216099
0.12299844
0.12382451
0.12463956
0.12544271
0.12623431
0.1270146
0.12778255
0.12853928
0.12928364
0.13001904
0.13074135
0.13145513
0.13215398
0.13284584
0.1335196
0.13418857
0.13483733
0.13548682
0.13611221
0.13674445
0.13734459
0.1379603
0.13852964
0.13912641
0.1396545
0.1401938
0.14067392
0.14119823
0.14168943
0.1422206
0.14273446
0.1432839
0.14382439
0.14438432
0.14492946
0.14546045
0.14598354
0.14656709
0.14691169
0.14747569
0.14764066
0.15005091
0.15025817
0.149837
0.15284958
0.15615496
0.1540746
0.15241965
0.15344895
0.15524341
0.15385218
0.15115113
0.15516409
0.15538872
0.15558124
0.146874
0.15245539
0.15439594
0.1471413
0.15000462
0.15584248
0.14935657
0.15336424
0.14204738
0.12279276
0.11875984
0.10021088
0.093568084
0.086301152
0.072001856
0.073144998
0.041922559
0.032519849
0.011982619
-0.011337247
-0.053007988
-0.084664455
-0.12545725
-0.17208674
-0.19914084
-0.21759074
-0.21937374
-0.21631993
-0.20026169
-0.19341932
-0.16910566
-0.16932289
-0.11344936
-0.070742094
-0.074772903
-0.069522753
-0.069451955
-0.062086793
-0.053101711
-0.039845281
-0.027212718
-0.018875107
-0.013864354
-0.01054204
-0.0082318855
-0.0070010376
-0.0056592105
-0.0047841244
-0.0040188955
-0.0034770564
-0.0029060405
-0.0024183175
-0.0019859612
-0.0016216998
-0.0013350932
-0.0011215653
-0.0009548729
-0.00084542236
-0.00075886273
-0.00071351949
-0.00068824017
-0.00068413768
-0.00069072676
-0.00070573396
-0.00071795844
-0.00072027643
-0.00070325104
-0.00065689672
-0.00057468416
-0.00046600023
-0.00032548972
-0.00017244219
-5.4971854e-06
0.00022068969
0.00043691162
0.00067074259
0.00091391267
0.0011546775
0.0013813808
0.0015870339
0.0017507926
0.0018917567
0.0019935975
0.0020700789
0.0021056576
0.0021042913
0.0020399608
0.0019437077
0.0017469318
0.0015315431
0.0011536373
0.00080339608
0.00017028942
-0.00030422329
-0.0013572377
-0.0018234265
-0.002331308
-0.0026372373
-0.0029087799
-0.0030377836
-0.0031071372
-0.0030696352
-0.0029729672
-0.0027922255
-0.0025548282
-0.0022503361
-0.0018925843
-0.0014775026
-0.0010131677
-0.00049957743
5.9789547e-05
0.00066436076
0.0013111352
0.0019989746
0.0027259261
0.0034913186
0.0042931782
0.0051304554
0.0060016931
0.0069062673
0.0078426634
0.0088098366
0.0098065878
0.010832286
0.011885837
0.012966545
0.014073051
0.015204768
0.016360088
0.017538431
0.018738092
0.019958443
0.021197818
0.022455579
0.023730234
0.025021187
0.026327693
0.027648931
0.028983878
0.03033193
0.031691662
0.033062554
0.034443013
0.035832693
0.037230288
0.038635274
0.040046112
0.041462466
0.042882939
0.044307242
0.045734218
0.047162043
0.048591289
0.050021822
0.051452252
0.05288149
0.054309423
0.055735737
0.057159159
0.058579422
0.059995939
0.061408469
0.062815665
0.064217621
0.065613558
0.067003271
0.068385583
0.06976077
0.071128193
0.07248777
0.073838362
0.075180214
0.076512649
0.077835501
0.079148106
0.080450373
0.081742099
0.083022887
0.084292632
0.085550756
0.086797997
0.088034618
0.08925949
0.090473093
0.091675438
0.092866166
0.094045121
0.095211887
0.096367862
0.097511638
0.098645731
0.099768311
0.10088398
0.10199402
0.10312204
0.10419114
0.10522279
0.10625677
0.10727313
0.10828684
0.10928558
0.11027713
0.11125536
0.11222491
0.11318178
0.11412939
0.11506504
0.11599074
0.11690467
0.11780856
0.1187005
0.11958202
0.12045229
0.1213122
0.12216035
0.12299779
0.12382386
0.1246389
0.12544204
0.12623363
0.12701392
0.12778186
0.1285386
0.12928297
0.13001837
0.13074068
0.13145446
0.1321533
0.13284515
0.13351891
0.1341879
0.13483667
0.13548616
0.13611156
0.1367438
0.13734397
0.13795966
0.13852907
0.13912577
0.13965397
0.14019375
0.14067448
0.14119927
0.14169121
0.14222302
0.14273729
0.14328765
0.1438284
0.14438995
0.14493641
0.1454713
0.14599535
0.14656706
0.14692634
0.14749998
0.14763532
0.15003596
0.15024222
0.14989602
0.1528864
0.156047
0.15417274
0.15250669
0.15339023
0.15520061
0.15374014
0.15123556
0.1551142
0.15532208
0.15554714
0.14700365
0.1527876
0.15413499
0.14700943
0.14995468
0.15563035
0.14959392
0.15368927
0.14251261
0.12408597
0.11929997
0.10100027
0.092655576
0.086541134
0.072497599
0.074063277
0.04385212
0.032189027
0.01187468
-0.011138895
-0.053041452
-0.084685703
-0.12560598
-0.17209252
-0.1991131
-0.21754591
-0.21934014
-0.21628777
-0.20024343
-0.19340647
-0.16910466
-0.16932025
-0.1134512
-0.070746459
-0.074772847
-0.069522662
-0.069443675
-0.062087482
-0.053102302
-0.03987016
-0.027250541
-0.018906646
-0.013892195
-0.0105621
-0.0082501314
-0.007006196
-0.0056725269
-0.0047956536
-0.0040312987
-0.0034856181
-0.0029113714
-0.0024228544
-0.0019893837
-0.0016250463
-0.0013382866
-0.0011244975
-0.00095692797
-0.00084600271
-0.00076038354
-0.00071447668
-0.0006889546
-0.00068476108
-0.00069110025
-0.00070612271
-0.00071827464
-0.00072063319
-0.00070385658
-0.00065777418
-0.00057583048
-0.00046721633
-0.00032708472
-0.00017391309
-7.3146183e-06
0.0002184351
0.00043482067
0.00066865884
0.00091182683
0.0011524222
0.0013793661
0.0015853023
0.0017490218
0.0018903741
0.0019924916
0.0020690246
0.0021047608
0.0021038709
0.0020397518
0.0019437718
0.0017470763
0.0015319841
0.001153959
0.00080397814
0.00017067678
-0.00030380667
-0.0013565725
-0.0018224683
-0.0023304633
-0.0026364206
-0.0029078863
-0.0030369034
-0.0031061986
-0.0030688051
-0.0029721323
-0.0027914585
-0.0025540825
-0.0022495934
-0.0018918516
-0.0014767764
-0.001012453
-0.0004988488
6.0513069e-05
0.00066507833
0.0013118434
0.0019996868
0.0027266322
0.0034920185
0.0042938709
0.0051311465
0.0060023793
0.0069069459
0.0078433336
0.0088105038
0.0098072483
0.010832936
0.011886476
0.012967169
0.01407366
0.015205358
0.016360664
0.017538989
0.018738635
0.019958968
0.021198329
0.022456074
0.023730716
0.025021652
0.02632814
0.027649355
0.028984281
0.030332307
0.031692018
0.033062888
0.034443328
0.035832981
0.037230555
0.038635516
0.040046334
0.041462663
0.042883115
0.044307399
0.045734355
0.047162153
0.048591378
0.050021888
0.051452297
0.05288151
0.054309422
0.055735714
0.057159116
0.058579355
0.059995853
0.061408358
0.062815537
0.06421747
0.065613388
0.067003079
0.068385375
0.069760542
0.071127948
0.072487504
0.07383808
0.075179913
0.076512333
0.077835165
0.079147755
0.080450004
0.081741713
0.083022483
0.084292217
0.08555033
0.086797561
0.088034166
0.089259028
0.090472619
0.091674954
0.092865667
0.094044613
0.095211368
0.096367331
0.097511094
0.098645171
0.099767728
0.10088336
0.10199334
0.10312134
0.10419053
0.10522219
0.10625617
0.10727252
0.10828621
0.10928495
0.1102765
0.11125473
0.11222427
0.11318115
0.11412876
0.1150644
0.1159901
0.11690403
0.11780791
0.11869985
0.11958136
0.12045163
0.12131154
0.12215968
0.12299711
0.12382319
0.12463822
0.12544136
0.12623293
0.12701322
0.12778115
0.12853791
0.12928228
0.13001768
0.13073999
0.13145377
0.13215261
0.13284445
0.13351821
0.13418721
0.13483599
0.13548548
0.13611089
0.13674314
0.13734333
0.137959
0.13852846
0.1391251
0.13965342
0.14019369
0.14067503
0.14120032
0.14169302
0.14222549
0.14274027
0.14329157
0.14383257
0.14439559
0.14494297
0.14548809
0.14600764
0.14656854
0.14694708
0.14752035
0.14763434
0.1500171
0.15021808
0.14995527
0.1529146
0.15594015
0.15425166
0.15257918
0.15333721
0.1551397
0.1536471
0.15132988
0.15502245
0.15523884
0.15552875
0.14719178
0.15310981
0.1538516
0.1469527
0.14997901
0.15532716
0.14982411
0.15410173
0.14277365
0.12558515
0.11981702
0.10199191
0.092400775
0.086322718
0.072493619
0.074878856
0.045862645
0.031648884
0.011709815
-0.011109834
-0.052916595
-0.084881623
-0.1258286
-0.1720973
-0.19908323
-0.21749601
-0.21929912
-0.21625098
-0.20022284
-0.19339238
-0.16910373
-0.16931791
-0.11345302
-0.070749722
-0.074772129
-0.069521928
-0.069434593
-0.062088043
-0.053104957
-0.039895676
-0.027288094
-0.018941783
-0.013919865
-0.010582346
-0.008268836
-0.0070108608
-0.0056857796
-0.0048074171
-0.0040428122
-0.0034936604
-0.002916692
-0.0024277148
-0.0019928679
-0.0016289315
-0.0013416859
-0.001127643
-0.00095920866
-0.00084697479
-0.00076183464
-0.00071556642
-0.0006897576
-0.00068534177
-0.00069152661
-0.00070654595
-0.00071860733
-0.00072099181
-0.00070445856
-0.00065866768
-0.00057700214
-0.00046854075
-0.00032885839
-0.0001754728
-9.1035053e-06
0.00021606829
0.0004326273
0.00066644614
0.00090965812
0.0011501016
0.0013772815
0.0015834927
0.0017471747
0.0018889378
0.0019913398
0.0020679314
0.0021038065
0.0021034143
0.0020395493
0.0019438131
0.001747221
0.0015324241
0.0011542882
0.00080456553
0.00017107779
-0.00030338415
-0.0013559282
-0.0018215279
-0.0023296188
-0.0026356053
-0.0029069935
-0.0030360238
-0.0031052595
-0.0030679728
-0.0029712908
-0.0027906852
-0.0025533277
-0.0022488423
-0.0018911075
-0.0014760397
-0.0010117263
-0.00049810873
6.124983e-05
0.00066580881
0.0013125655
0.0020004123
0.0027273528
0.0034927324
0.0042945781
0.0051318516
0.0060030803
0.0069076389
0.0078440183
0.0088111852
0.0098079234
0.010833601
0.011887129
0.012967807
0.014074284
0.015205963
0.016361254
0.017539561
0.018739191
0.019959506
0.021198852
0.022456581
0.023731209
0.025022128
0.026328597
0.027649789
0.028984693
0.030332693
0.031692384
0.03306323
0.03444365
0.035833276
0.037230829
0.038635764
0.040046562
0.041462864
0.042883296
0.044307559
0.045734496
0.047162266
0.048591468
0.050021957
0.051452344
0.052881531
0.054309421
0.05573569
0.057159073
0.058579287
0.059995764
0.061408245
0.062815405
0.064217315
0.065613214
0.067002881
0.068385161
0.069760307
0.071127696
0.07248723
0.07383779
0.075179603
0.076512008
0.077834819
0.079147394
0.080449624
0.081741315
0.083022067
0.08429179
0.085549892
0.086797112
0.088033701
0.089258552
0.090472132
0.091674456
0.092865152
0.09404409
0.095210832
0.096366785
0.097510533
0.098644594
0.099767128
0.10088272
0.10199264
0.10312062
0.1041899
0.10522157
0.10625556
0.10727189
0.10828557
0.10928431
0.11027585
0.11125408
0.11222362
0.1131805
0.1141281
0.11506375
0.11598944
0.11690337
0.11780724
0.11869918
0.11958069
0.12045096
0.12131085
0.122159
0.12299642
0.12382249
0.12463751
0.12544065
0.12623221
0.1270125
0.12778042
0.12853719
0.12928156
0.13001696
0.13073927
0.13145306
0.13215189
0.13284373
0.13351748
0.1341865
0.1348353
0.13548479
0.13611021
0.13674246
0.13734266
0.13795833
0.13852782
0.13912441
0.13965285
0.14019362
0.14067559
0.14120138
0.14169488
0.14222802
0.14274337
0.14329558
0.14383685
0.14440119
0.14494972
0.14550787
0.14602058
0.14657564
0.14697137
0.14753746
0.1476524
0.14999886
0.1501903
0.15001605
0.15294547
0.15583538
0.1543023
0.15264256
0.15327694
0.15506651
0.15356699
0.15146227
0.15491433
0.15518364
0.15550325
0.14736616
0.15338715
0.15354263
0.14695272
0.14997132
0.15497565
0.15006053
0.15440553
0.14279898
0.12702971
0.12032659
0.10279202
0.092623066
0.085957368
0.072321558
0.075474803
0.047631201
0.031330564
0.011367144
-0.01132736
-0.052685986
-0.085296325
-0.12612177
-0.172093
-0.19904519
-0.21743494
-0.21924862
-0.21620805
-0.20019902
-0.19337674
-0.16910164
-0.16931565
-0.11345468
-0.070752288
-0.074770639
-0.069520284
-0.069424405
-0.062088088
-0.053107929
-0.03992182
-0.027324599
-0.018981175
-0.013947732
-0.010602922
-0.0082874283
-0.0070164938
-0.005698748
-0.0048195654
-0.0040538126
-0.0035007056
-0.0029220405
-0.0024330543
-0.0019966191
-0.0016332636
-0.0013451908
-0.0011307477
-0.00096159484
-0.00084822764
-0.00076325255
-0.00071669618
-0.00069061766
-0.00068590453
-0.00069198467
-0.00070698133
-0.00071898388
-0.00072138433
-0.00070508632
-0.00065960688
-0.00057823456
-0.0004699575
-0.00033078021
-0.00017723587
-1.0843133e-05
0.0002136469
0.00043034435
0.00066408963
0.00090738326
0.0011476973
0.0013750842
0.0015815562
0.0017452987
0.0018874329
0.0019901036
0.0020667705
0.0021028213
0.0021028804
0.0020392632
0.001943831
0.0017473478
0.0015328516
0.0011546204
0.0008051498
0.0001714887
-0.00030296441
-0.0013553092
-0.0018206063
-0.0023287776
-0.0026347957
-0.0029061047
-0.0030351485
-0.0031043235
-0.0030671412
-0.0029704452
-0.0027899077
-0.0025525655
-0.0022480844
-0.0018903535
-0.001475294
-0.0010109887
-0.00049735856
6.1998645e-05
0.00066655108
0.0013133005
0.00200115
0.002728087
0.0034934594
0.0042952991
0.0051325701
0.0060037953
0.0069083453
0.0078447169
0.0088118801
0.0098086123
0.01083428
0.011887797
0.012968458
0.014074921
0.01520658
0.016361857
0.017540146
0.01873976
0.019960054
0.021199386
0.022457098
0.023731712
0.025022613
0.026329063
0.027650232
0.028985115
0.030333088
0.031692757
0.03306358
0.034443979
0.035833578
0.037231109
0.038636018
0.040046795
0.04146307
0.04288348
0.044307723
0.045734639
0.047162382
0.048591561
0.050022026
0.05145239
0.052881552
0.05430942
0.055735664
0.057159027
0.058579217
0.059995673
0.061408128
0.062815269
0.064217155
0.065613035
0.067002678
0.068384941
0.069760065
0.071127436
0.072486947
0.073837492
0.075179284
0.076511672
0.077834463
0.079147022
0.080449232
0.081740905
0.083021639
0.08429135
0.085549442
0.08679665
0.088033223
0.089258063
0.09047163
0.091673943
0.092864623
0.094043552
0.095210281
0.096366222
0.097509955
0.098644
0.099766512
0.10088207
0.10199194
0.10311989
0.10418925
0.10522094
0.10625492
0.10727124
0.10828491
0.10928364
0.11027519
0.11125341
0.11222295
0.11317983
0.11412743
0.11506307
0.11598876
0.11690269
0.11780656
0.11869849
0.11958
0.12045026
0.12131015
0.1221583
0.12299571
0.12382178
0.12463678
0.12543992
0.12623147
0.12701175
0.12777967
0.12853645
0.12928083
0.13001623
0.13073854
0.13145233
0.13215114
0.13284299
0.13351674
0.13418577
0.13483458
0.13548408
0.1361095
0.13674177
0.13734198
0.13795763
0.13852716
0.1391237
0.13965223
0.14019353
0.14067612
0.14120246
0.1416967
0.14223056
0.14274654
0.14329966
0.14384133
0.14440667
0.14495659
0.14552703
0.14603333
0.14658536
0.14699797
0.14755514
0.14766754
0.14998401
0.15015675
0.15009746
0.15297686
0.15570635
0.15434022
0.15269948
0.15321593
0.1549605
0.15349655
0.15162162
0.15480099
0.15512963
0.15547621
0.14750287
0.15357763
0.15329221
0.14695864
0.14993033
0.15464547
0.15026041
0.15448566
0.14269163
0.12806254
0.12043017
0.10334794
0.09272911
0.085483214
0.072064318
0.075446379
0.049075575
0.030848531
0.010887435
-0.011787212
-0.05243233
-0.085844317
-0.12646982
-0.17208361
-0.19900771
-0.21735862
-0.2191873
-0.21615751
-0.2001712
-0.19335913
-0.16909791
-0.16931298
-0.11345611
-0.070754433
-0.074768252
-0.069517483
-0.069412719
-0.062087355
-0.053110392
-0.039948531
-0.027360718
-0.019012981
-0.013976498
-0.010624425
-0.0083064337
-0.0070240743
-0.0057116789
-0.0048318935
-0.0040646757
-0.0035067729
-0.0029277407
-0.002438935
-0.0020007051
-0.0016378418
-0.0013487589
-0.0011337404
-0.00096403283
-0.00084962876
-0.00076465513
-0.00071783657
-0.00069145059
-0.00068645748
-0.00069244746
-0.00070744513
-0.00071938819
-0.0007218104
-0.00070575753
-0.00066060148
-0.00057955633
-0.00047148257
-0.00033291524
-0.00017917391
-1.2471906e-05
0.00021118785
0.00042797922
0.0006615934
0.00090498866
0.0011452005
0.0013727974
0.0015794642
0.0017433004
0.0018858501
0.0019887955
0.0020655651
0.0021017969
0.0021023147
0.0020389548
0.0019437926
0.0017474545
0.0015332595
0.0011549496
0.00080572413
0.00017189446
-0.00030255887
-0.0013547248
-0.0018197107
-0.0023279446
-0.0026339967
-0.0029052236
-0.0030342816
-0.0031033941
-0.0030663135
-0.0029695982
-0.0027891284
-0.0025517979
-0.0022473216
-0.0018895914
-0.0014745407
-0.0010102417
-0.00049659959
6.2758272e-05
0.00066730404
0.0013140475
0.0020018992
0.0027288339
0.0034941989
0.0042960331
0.0051333012
0.0060045236
0.0069090648
0.0078454287
0.0088125878
0.0098093145
0.010834972
0.011888478
0.012969123
0.014075571
0.01520721
0.016362472
0.017540742
0.01874034
0.019960614
0.021199931
0.022457625
0.023732225
0.025023108
0.026329539
0.027650684
0.028985545
0.030333491
0.031693139
0.033063937
0.034444316
0.035833885
0.037231395
0.038636277
0.040047032
0.041463279
0.042883667
0.04430789
0.045734784
0.047162499
0.048591654
0.050022096
0.051452437
0.052881572
0.054309418
0.055735637
0.057158979
0.058579144
0.059995578
0.061408007
0.062815129
0.06421699
0.065612851
0.067002468
0.068384714
0.069759815
0.071127169
0.072486657
0.073837185
0.075178955
0.076511327
0.077834096
0.079146639
0.080448828
0.081740483
0.083021199
0.084290898
0.085548978
0.086796174
0.088032731
0.08925756
0.090471113
0.091673414
0.092864078
0.094042998
0.095209714
0.096365643
0.09750936
0.098643388
0.099765879
0.10088139
0.10199122
0.10311915
0.10418858
0.10522028
0.10625426
0.10727058
0.10828424
0.10928296
0.11027451
0.11125272
0.11222226
0.11317914
0.11412674
0.11506238
0.11598806
0.11690199
0.11780585
0.11869778
0.11957928
0.12044955
0.12130942
0.12215757
0.12299497
0.12382104
0.12463603
0.12543917
0.1262307
0.12701099
0.12777889
0.12853568
0.12928007
0.13001547
0.13073778
0.13145158
0.13215038
0.13284223
0.13351597
0.13418503
0.13483384
0.13548335
0.13610879
0.13674106
0.13734127
0.13795693
0.13852648
0.13912295
0.1396516
0.14019343
0.14067665
0.14120354
0.14169855
0.14223314
0.14274976
0.14330376
0.14384572
0.14441269
0.14496461
0.14554316
0.14604711
0.14659731
0.14702456
0.14758272
0.1476693
0.14997171
0.15012287
0.15018466
0.1530075
0.15554443
0.15437848
0.15274729