/*--------------------------------*- C++ -*----------------------------------*\
| =========                 |                                                 |
| \\      /  F ield         | OpenFOAM: The Open Source CFD Toolbox           |
|  \\    /   O peration     | Version:  2.4.0                                 |
|   \\  /    A nd           | Web:      www.OpenFOAM.org                      |
|    \\/     M anipulation  |                                                 |
\*---------------------------------------------------------------------------*/
FoamFile
{
    version     2.0;
    format      ascii;
    class       volVectorField;
    location    "700";
    object      U_0;
}
// * * * * * * * * * * * * * * * * * * * * * * * * * * * * * * * * * * * * * //

dimensions      [0 1 -1 0 0 0 0];

internalField   nonuniform List<vector> 
78300
(
(0.0055334151 2.483497e-05 1.8296636e-21)
(0.0055132747 2.4820502e-05 0)
(0.0062852401 -4.0303823e-05 8.0615499e-24)
(0.0058786776 -0.00018025968 0)
(0.0054175201 -0.00035853993 0)
(0.003611749 -0.0004250073 3.1067553e-20)
(0.0016259595 -0.00029476391 1.7860917e-20)
(-0.00059020759 0.00013655369 -7.6185254e-20)
(-0.001976633 0.00064820896 -3.0368049e-20)
(-0.0022614502 0.00094353389 4.3666359e-20)
(-0.0019281966 0.001001185 3.0092514e-20)
(-0.0015399762 0.0010408389 -1.0327805e-19)
(-0.0013445803 0.00086042756 1.6592773e-20)
(-0.0010649907 0.0010865442 -9.3381524e-20)
(-0.0010170145 0.00086728581 6.4813689e-20)
(-0.00096134238 0.00079165154 -1.0004707e-19)
(-0.00084783075 0.00071198862 -5.6537015e-21)
(-0.00062524022 0.00084142657 2.0265561e-21)
(-0.00075028988 0.00060931011 -4.788893e-20)
(-0.00067384507 0.00056264471 3.5696941e-20)
(-0.00062015644 0.00051910812 4.6589191e-20)
(-0.00058059895 0.00048597869 -4.36442e-20)
(-0.00056472453 0.00043825924 0)
(-0.00052146618 0.00042937647 9.6864951e-21)
(-0.00042350041 0.00052126598 0)
(-0.00051074932 0.00045238283 5.4287696e-21)
(-0.00052595303 0.00041353023 6.245128e-21)
(-0.00050816586 0.00040545855 -1.8957684e-20)
(-0.00051954063 0.00041105954 -1.3711036e-20)
(-0.00053303817 0.00041886891 -8.0656251e-21)
(-0.00055066079 0.00043011213 6.9380786e-21)
(-0.00057479284 0.00044358621 1.1802877e-20)
(-0.00060215101 0.00045979658 3.578049e-21)
(-0.00062880457 0.00048482415 3.8381468e-21)
(-0.00066454083 0.0005096147 -3.1616674e-21)
(-0.0007013189 0.00053664169 1.5125834e-21)
(-0.00073570585 0.00056176872 -1.394687e-21)
(-0.00076972527 0.00058377263 -7.8402046e-24)
(-0.00078857822 0.00060280303 1.1379562e-22)
(-0.00080852156 0.00062177677 -1.2258557e-22)
(-0.0008228979 0.00061791903 0)
(-0.00085253433 0.00061109663 -6.1545028e-22)
(-0.00089872552 0.00063181981 -2.2237508e-21)
(-0.00091947885 0.0006301024 -3.4871994e-21)
(-0.00094088409 0.00062374689 7.4414116e-21)
(-0.00095432156 0.00060943471 9.8992795e-21)
(-0.00096213884 0.00058811626 -3.9100708e-21)
(-0.00096479636 0.00055996827 -1.1701725e-20)
(-0.00096420903 0.00052814908 1.0429017e-20)
(-0.00096315774 0.00049483334 -9.5643832e-21)
(-0.00096558269 0.00046019229 -2.1457713e-20)
(-0.00096023082 0.00042324467 2.8563557e-21)
(-0.00094495071 0.00038258403 -1.4776545e-23)
(-0.00092649688 0.00034212142 -5.0019548e-21)
(-0.00090125758 0.00029828402 -5.2008174e-21)
(-0.00086606431 0.00025373778 4.5605825e-21)
(-0.00083055327 0.0002114239 3.4598871e-21)
(-0.00078098558 0.00016783539 7.5631952e-21)
(-0.00074343209 0.000130031 1.218763e-22)
(-0.0006925073 9.2797594e-05 -6.1755409e-21)
(-0.00068606627 6.3797978e-05 1.1145847e-21)
(-0.00066967812 3.446298e-05 1.2418119e-22)
(-0.00080587654 9.2497674e-06 4.9750465e-23)
(-0.0010922394 -5.7339336e-08 1.9727966e-26)
(-0.0012875536 -1.8226557e-08 6.1554507e-27)
(-0.0014788224 2.7006282e-07 -6.0335977e-26)
(-0.0016407416 2.1746708e-07 7.4436828e-26)
(-0.0017954483 2.8348138e-07 -5.4526399e-26)
(-0.0019304361 8.261545e-07 0)
(-0.0020583764 1.1352125e-07 -5.7186184e-26)
(-0.0021731537 1.8530829e-07 4.1446829e-26)
(-0.0022804437 2.6086063e-07 4.3376673e-26)
(-0.0023781009 2.4471033e-07 -2.8506987e-26)
(-0.0024702122 2.4084218e-07 5.8431227e-20)
(-0.002555068 2.3809764e-07 2.5920136e-19)
(-0.0026355204 2.3433521e-07 -2.6188258e-25)
(-0.002711574 2.5136836e-07 8.0624572e-26)
(-0.0027833895 2.7047231e-07 1.6343422e-25)
(-0.0028518792 3.298372e-07 -2.7708719e-25)
(-0.0029172711 2.8097928e-07 2.3553067e-25)
(-0.0029792239 2.9391671e-07 -1.982238e-25)
(-0.0030383732 3.106525e-07 6.1418361e-25)
(-0.0030948613 3.259357e-07 -3.2485452e-25)
(-0.0031487426 3.2390533e-07 -6.5942717e-25)
(-0.0032000374 3.3240126e-07 6.9667375e-25)
(-0.0032486925 3.2365845e-07 -9.7244131e-26)
(-0.0032948573 3.2857679e-07 7.131408e-25)
(-0.0033385905 3.1167035e-07 -9.7402167e-25)
(-0.0033798438 3.1430135e-07 -7.1969784e-25)
(-0.0034185942 3.1602401e-07 1.1079432e-24)
(-0.00345488 3.3789725e-07 -9.0032871e-25)
(-0.003488745 3.1347299e-07 7.1603298e-25)
(-0.003520035 3.2896482e-07 -3.9294725e-25)
(-0.0035489056 3.2034021e-07 -7.7350956e-26)
(-0.0035752652 3.3536339e-07 3.2649334e-26)
(-0.0035991722 3.1973817e-07 5.7145946e-25)
(-0.003620551 3.2728492e-07 -4.8790726e-26)
(-0.0036394055 3.0807859e-07 8.3569661e-25)
(-0.0036557152 3.0102523e-07 -7.5916712e-27)
(-0.0036695301 2.7832416e-07 -1.6380661e-24)
(-0.0036808326 2.6987949e-07 7.7598979e-25)
(-0.0036897439 2.6983976e-07 -7.4011005e-26)
(-0.0036961606 2.5911996e-07 1.0946791e-24)
(-0.0037002706 2.5809541e-07 -3.1588874e-26)
(-0.0037021706 2.6542154e-07 -2.1299015e-24)
(-0.0037017533 2.1326107e-07 -1.4330041e-25)
(-0.0036991585 2.2365892e-07 7.5690554e-26)
(-0.0036942795 1.9351683e-07 1.0873421e-24)
(-0.003687289 1.9574996e-07 -1.082343e-25)
(-0.0036781475 1.8976252e-07 -1.366576e-24)
(-0.0036668861 1.9605279e-07 2.52528e-24)
(-0.0036536379 1.7347243e-07 -2.8880657e-24)
(-0.0036384953 1.7336966e-07 2.7200519e-24)
(-0.0036214321 1.6296915e-07 -5.2296474e-25)
(-0.003602506 1.5805476e-07 3.1943627e-25)
(-0.0035819362 1.4302762e-07 -1.3513006e-24)
(-0.0035595459 1.2968074e-07 7.6576291e-25)
(-0.0035358006 1.3834466e-07 2.0625793e-25)
(-0.0035100627 1.3602431e-07 -1.4873514e-25)
(-0.0034827371 1.0208002e-07 -1.4549666e-25)
(-0.0034544486 8.9830872e-08 3.0856708e-17)
(-0.0034246964 9.2708642e-08 3.1738202e-17)
(-0.0033936836 8.775122e-08 1.8581426e-24)
(-0.0033614525 6.4209459e-08 -1.5098319e-25)
(-0.0033282296 5.1733686e-08 -1.7399621e-25)
(-0.003293892 4.4960991e-08 -1.2625413e-25)
(-0.0032585697 4.1121953e-08 -1.0459664e-26)
(-0.0032223038 2.227478e-08 -4.2656342e-25)
(-0.0031852707 1.280719e-08 -1.9578589e-25)
(-0.0031473963 -4.4153037e-09 6.8109564e-25)
(-0.0031087938 -1.0039331e-08 3.724663e-26)
(-0.0030694987 -3.1579985e-08 3.7351958e-25)
(-0.003029593 -4.0051702e-08 -6.1857095e-25)
(-0.0029891423 -6.0654161e-08 8.6566849e-26)
(-0.002948196 -6.21679e-08 2.0074503e-26)
(-0.0029068133 -8.3351288e-08 3.9321845e-26)
(-0.0028650678 -8.9979971e-08 3.8504593e-27)
(-0.0028229564 -1.1243423e-07 2.5253436e-25)
(-0.0027805291 -1.1526826e-07 -1.1166505e-25)
(-0.0027378235 -1.3675743e-07 -6.0429442e-25)
(-0.0026948929 -1.4158264e-07 1.1619584e-24)
(-0.0026517989 -1.6107281e-07 -1.6827734e-24)
(-0.0026085038 -1.6426113e-07 2.8374868e-26)
(-0.0025652572 -1.7654556e-07 8.9767663e-25)
(-0.0025216864 -1.8152706e-07 -2.5480787e-25)
(-0.0024784262 -1.9829885e-07 6.0985911e-25)
(-0.0024349547 -2.0130429e-07 -2.5717453e-25)
(-0.002391552 -1.9453662e-07 -1.6447834e-26)
(-0.0023485217 -2.0433978e-07 -2.9153293e-25)
(-0.0023053975 -2.1393616e-07 -2.9966788e-25)
(-0.0022624466 -2.1939678e-07 -2.8428194e-25)
(-0.0022197419 -2.263367e-07 1.0800675e-24)
(-0.0021771682 -2.3041828e-07 7.0377262e-25)
(-0.0021348482 -2.4726422e-07 1.1566065e-24)
(-0.0020926014 -2.4860522e-07 -4.5753925e-25)
(-0.0020505195 -2.546443e-07 -1.2972494e-24)
(-0.0020086509 -2.5687079e-07 -3.1449717e-24)
(-0.0019669207 -2.7807179e-07 6.2042684e-17)
(-0.0019254108 -2.7250726e-07 2.9723075e-20)
(-0.0018850004 -2.5133811e-07 -6.3485179e-17)
(-0.0018424061 -2.4283562e-07 -4.8374895e-24)
(-0.0017989987 -5.8163126e-07 7.105735e-25)
(-0.0017572124 -6.8885812e-07 -8.4222242e-24)
(-0.001717031 -3.5373181e-07 8.7124855e-24)
(-0.00167994 -2.9741556e-07 8.0812193e-25)
(-0.0016432808 -2.9816607e-07 -7.9429905e-24)
(-0.0016064542 -3.0351581e-07 4.4066413e-24)
(-0.001570645 -3.4630427e-07 -4.855448e-24)
(-0.0015337813 -3.6004083e-07 7.163453e-24)
(-0.0014979418 -3.4287795e-07 -1.8329373e-24)
(-0.0014613217 -3.4520607e-07 -3.6018408e-24)
(-0.0014262238 -3.2940465e-07 1.1568835e-24)
(-0.0013902451 -3.4276976e-07 4.681635e-24)
(-0.0013552343 -3.3324849e-07 -5.4338354e-24)
(-0.0013203451 -3.5585001e-07 4.7607509e-24)
(-0.0012867166 -3.6676707e-07 -5.2049602e-24)
(-0.0012528202 -3.7580874e-07 2.6738362e-24)
(-0.0012196687 -4.0559151e-07 3.0633424e-24)
(-0.0011868049 -4.1094421e-07 4.9818394e-24)
(-0.001154425 -4.2647047e-07 -5.6936885e-24)
(-0.001122416 -4.2820488e-07 -3.9286098e-24)
(-0.0010909328 -4.403955e-07 5.0707827e-24)
(-0.0010598987 -4.3467359e-07 -1.0811825e-23)
(-0.0010293759 -4.1938886e-07 1.00771e-23)
(-0.00099928211 -4.1304059e-07 -5.9881763e-24)
(-0.00096975618 -4.2562729e-07 5.226027e-24)
(-0.00094076473 -4.0551404e-07 -6.0893611e-24)
(-0.00091232814 -4.0638811e-07 -4.2088851e-24)
(-0.00088475008 -3.9158642e-07 3.3220834e-24)
(-0.0008571005 -4.0188354e-07 -4.2748823e-24)
(-0.00083066681 -4.0995231e-07 1.0997695e-23)
(-0.00080530789 -3.9914888e-07 -6.6986297e-24)
(-0.00078014554 -3.941526e-07 5.8733181e-24)
(-0.00075613987 -4.0859143e-07 -1.0086923e-23)
(-0.00073272773 -4.2836743e-07 9.3216758e-25)
(-0.00071070039 -4.0092487e-07 3.4954071e-24)
(-0.00068924061 -3.3652522e-07 3.9374913e-24)
(-0.00066930454 -4.3284575e-07 -1.5066949e-23)
(-0.00065089691 -4.5895962e-07 8.7983762e-17)
(-0.00063405208 -3.7285576e-07 8.8658858e-17)
(-0.00061891194 -3.7375946e-07 -4.4994742e-24)
(-0.00060620229 -3.6718341e-07 -6.7244944e-24)
(-0.00059545543 -4.1850482e-07 5.8849708e-24)
(-0.00058838734 -3.9999555e-07 1.0802655e-24)
(-0.00058429746 -4.3918456e-07 -1.9442145e-24)
(-0.00057812413 -6.7734402e-07 -9.1809564e-17)
(-0.00057929196 -3.1093279e-07 -9.2406075e-17)
(-0.00056507133 -6.5268564e-06 -1.6568031e-20)
(-0.00057106717 -2.9420592e-05 1.7180656e-19)
(-0.000566017 -5.2340706e-05 7.7967004e-20)
(-0.00057684715 -7.6790975e-05 -5.0538601e-19)
(-0.00055517816 -9.6750131e-05 -8.3148157e-20)
(-0.00057034405 -0.00012155298 -5.6323494e-19)
(-0.00053801687 -0.00013599217 3.4465294e-20)
(-0.0005594776 -0.00016333117 -3.0777744e-21)
(-0.00047930214 -0.00015949428 0)
(-0.00054776749 -0.00019369023 0)
(-0.00039223943 -0.00015445232 1.5113435e-20)
(-0.00043973332 -0.00019366845 -1.1085516e-20)
(-0.00034678442 -0.00016307029 -2.7961766e-21)
(-0.00055123004 -0.00028172795 0)
(-0.00022415504 -0.00011112672 1.070081e-18)
(-0.00050222814 -0.00027794529 1.9928721e-19)
(-6.4891798e-05 -3.9676367e-05 -9.3567349e-19)
(3.8098949e-05 2.6449493e-05 -8.8586267e-19)
(-0.00027650606 -0.00015970977 -1.2308807e-20)
(-0.0007604809 -0.0005333878 7.9496377e-20)
(0.0011779308 0.00082272788 -1.1032984e-18)
(0.0019208821 0.0013585523 -7.229036e-20)
(0.0017901748 0.0012899761 -1.9004896e-19)
(0.00089006501 0.00065950479 -1.1701104e-18)
(0.00053807719 0.00036789073 1.6680804e-19)
(-0.00042160809 -0.00041269921 3.8553704e-19)
(-0.00058831625 -0.00021219384 6.5548591e-19)
(0.00061169622 0.00066485783 -7.216206e-21)
(-0.00063466357 0.0015755337 -4.3883619e-20)
(-0.0021088627 -0.0018482889 -1.5879283e-21)
(0.0025043731 0.0018639941 1.5549217e-19)
(0.0031735504 0.0027866272 1.0387825e-18)
(0.0020512253 0.001957274 -8.9172434e-19)
(0.0020130925 0.002339219 4.5192258e-19)
(0.0017913114 0.00093060178 3.2892028e-20)
(0.0045017632 0.0042359782 5.5259783e-19)
(0.0070001775 0.0053134292 4.4230063e-19)
(-0.0028177959 -0.0019830572 -2.6367443e-19)
(-0.0020343256 -0.0017487736 1.5471328e-18)
(-0.00015040275 0.0036972881 -1.2611348e-19)
(0.0051821158 0.0015506903 0)
(0.0096713378 0.00059481561 -5.6446189e-20)
(0.0038491841 0.0010052949 -9.624e-19)
(0.006566601 0.0024626334 -2.4223425e-19)
(0.0066629683 -0.010598312 -2.5988459e-20)
(0.012927576 -0.0025432435 -2.6473737e-19)
(0.0045909917 0.011996538 -1.4964109e-18)
(-0.27040217 0.33817293 2.6960001e-18)
(0.54029661 -0.70134062 4.1768273e-18)
(0.093708491 -0.069674407 0)
(0.022474915 -0.0079108654 1.238926e-18)
(0.014321016 0.0076637507 0)
(0.0056903129 0.014736985 -7.1747394e-18)
(0.010234701 0.0061744637 -3.4747519e-18)
(0.014604254 0.0056195709 -2.6981301e-19)
(0.014996165 0.0036408147 1.6740912e-19)
(0.013556287 0.00240855 -1.3488268e-19)
(0.011569311 0.0013922385 -6.6867347e-21)
(0.009063342 0.00062693056 0)
(0.0073980981 0.00022639604 -3.7949239e-20)
(0.0054537754 3.8317691e-05 -2.2020966e-20)
(0.0052809982 -2.6089938e-05 -4.087932e-21)
(0.0039506579 -1.7984434e-05 -4.0827794e-22)
(0.016791657 5.8739721e-05 1.9109401e-21)
(0.016837727 6.8040737e-05 3.6044296e-24)
(0.01908991 -0.00012419026 -2.0835192e-23)
(0.017852544 -0.00054773061 1.7695049e-22)
(0.016451192 -0.0010776522 7.8335326e-25)
(0.011251861 -0.001274212 1.0864568e-19)
(0.0052949918 -0.00089090082 -4.4654615e-20)
(-0.0013698678 0.00040138609 1.0281564e-19)
(-0.0056683709 0.0019199978 8.7517466e-20)
(-0.0066721737 0.0028472704 -9.8499137e-20)
(-0.005839192 0.0029619841 -3.4592859e-20)
(-0.0048151845 0.0028715622 1.3114588e-20)
(-0.004038391 0.002575481 3.5550977e-19)
(-0.0035556815 0.0027102689 6.749505e-20)
(-0.0032297245 0.0023966766 -1.6957174e-19)
(-0.0029465966 0.0023040397 8.5046149e-20)
(-0.0025846635 0.0021417933 -2.083339e-20)
(-0.0020942696 0.0023140376 -5.6457062e-21)
(-0.0022105712 0.0018572484 -4.7925102e-20)
(-0.0020106659 0.0017191501 1.4229162e-20)
(-0.0018434987 0.0016018557 -2.0610313e-20)
(-0.00172273 0.0014978266 2.0346552e-20)
(-0.001696598 0.0013445008 1.2979883e-20)
(-0.0015716321 0.0013348872 7.4354966e-20)
(-0.0013736577 0.001475343 -7.8205036e-21)
(-0.0015494528 0.0013016426 -2.6605003e-20)
(-0.0015574677 0.0012616961 -3.367388e-20)
(-0.0015347091 0.001240291 1.5266481e-20)
(-0.0015665413 0.0012572836 5.7108283e-21)
(-0.0016080336 0.0012800967 2.5354523e-20)
(-0.0016605613 0.0013135911 -3.3127369e-20)
(-0.0017281475 0.0013595553 -1.6478742e-20)
(-0.0018061512 0.0014156129 -2.447947e-21)
(-0.0018958538 0.0014806464 -3.8745073e-21)
(-0.0020011061 0.0015561279 -8.578377e-23)
(-0.0021113163 0.00163729 6.8217911e-21)
(-0.0022156973 0.001712682 3.1160463e-21)
(-0.0023196281 0.0017796566 4.3764383e-23)
(-0.0023917929 0.0018383301 -1.6840929e-22)
(-0.0024598736 0.0018761947 -6.6539177e-23)
(-0.0025083999 0.001840066 -3.9098368e-24)
(-0.0025704132 0.001852481 -3.2728591e-21)
(-0.0027092806 0.0019170978 -1.3241752e-21)
(-0.0027792014 0.0019111055 -1.3062094e-21)
(-0.002841062 0.0018913735 3.6274562e-21)
(-0.0028825412 0.0018486687 -2.3503562e-20)
(-0.0029077039 0.0017828469 8.0654098e-21)
(-0.0029172757 0.0016991818 -6.3131628e-21)
(-0.0029214306 0.0016029983 -6.0534843e-22)
(-0.0029222407 0.0015007933 -5.7095096e-21)
(-0.0029266974 0.0013980031 3.9520542e-21)
(-0.0029108522 0.0012872697 -2.0709847e-20)
(-0.0028701776 0.0011653198 -4.240007e-23)
(-0.0028165043 0.0010427581 1.1108072e-21)
(-0.0027450324 0.00090776221 -1.2768393e-21)
(-0.0026430709 0.00077282575 1.2719571e-20)
(-0.002539836 0.00064301831 -1.2060521e-20)
(-0.0023952491 0.00051147439 9.0589867e-21)
(-0.0022864429 0.00039669973 -2.3798527e-21)
(-0.0021406327 0.00028473081 1.8856736e-22)
(-0.0021250663 0.00019665295 3.6627161e-22)
(-0.0020896925 0.00010900863 2.4467038e-21)
(-0.0025010871 3.4800731e-05 -6.8827846e-23)
(-0.0033506628 6.5764168e-06 7.0683762e-26)
(-0.00393795 5.283778e-06 -5.6589523e-27)
(-0.0045097123 4.8555895e-06 -3.4947021e-26)
(-0.0049954297 4.535932e-06 1.1628916e-25)
(-0.0054572174 4.5095475e-06 -4.9330287e-26)
(-0.0058620477 5.6014732e-06 1.6089113e-27)
(-0.0062439154 3.4021626e-06 1.9627868e-26)
(-0.0065877953 3.1587348e-06 8.3810739e-27)
(-0.0069084262 2.8812403e-06 -5.8443231e-26)
(-0.0072003516 2.5480261e-06 7.428482e-27)
(-0.0074758098 2.4387526e-06 -1.9378828e-26)
(-0.007729388 2.2549418e-06 -4.5614822e-26)
(-0.0079695463 2.0709514e-06 1.7055528e-25)
(-0.0081966415 1.9576773e-06 -1.5789863e-25)
(-0.0084113263 1.9027157e-06 1.2096964e-25)
(-0.0086155408 1.7547666e-06 -6.7358782e-26)
(-0.0088102075 1.6622414e-06 3.1921139e-25)
(-0.0089949267 1.5781243e-06 -6.2806328e-26)
(-0.0091712355 1.5534549e-06 -1.0468112e-25)
(-0.0093394506 1.4779744e-06 -1.5019508e-25)
(-0.0094997328 1.3717067e-06 -1.9980064e-25)
(-0.0096522972 1.2970836e-06 -2.532384e-25)
(-0.0097970259 1.2430859e-06 -3.0942997e-25)
(-0.0099342397 1.1635478e-06 7.6282456e-25)
(-0.010064005 1.0581399e-06 1.5377116e-25)
(-0.010186336 9.7669555e-07 1.2248877e-24)
(-0.010301263 9.7022902e-07 -1.9440636e-24)
(-0.010408669 9.1222362e-07 1.384796e-24)
(-0.010508593 8.3978346e-07 -3.7348825e-25)
(-0.010600626 7.7844786e-07 -1.3973234e-24)
(-0.010685238 6.6651752e-07 -5.8314564e-25)
(-0.010762294 6.1183857e-07 5.783256e-25)
(-0.010832013 5.1153657e-07 3.6360482e-25)
(-0.010894189 4.5351127e-07 1.079487e-24)
(-0.010948946 3.8269003e-07 8.7417157e-25)
(-0.010996195 3.0927241e-07 -2.6045654e-24)
(-0.011036056 2.3881479e-07 8.7413823e-25)
(-0.011068519 1.5546033e-07 5.6344728e-25)
(-0.011093937 1.4164987e-07 1.507752e-24)
(-0.011111897 6.6650905e-08 -3.2519395e-24)
(-0.011122744 2.4342218e-08 1.5754825e-24)
(-0.011126758 -3.4301249e-08 7.1333991e-25)
(-0.011123688 -1.2438159e-07 1.3128343e-24)
(-0.011114075 -1.8561885e-07 -3.3671211e-24)
(-0.011097631 -2.7933784e-07 7.5534176e-25)
(-0.011074946 -3.3188829e-07 2.1740794e-25)
(-0.011046006 -3.4462413e-07 2.7675522e-24)
(-0.011010695 -3.9225772e-07 -2.3655257e-24)
(-0.01096936 -4.7806965e-07 9.5860285e-25)
(-0.010922452 -5.2175565e-07 -8.8221711e-27)
(-0.010869992 -5.5941143e-07 -3.0629164e-24)
(-0.01081206 -6.0380739e-07 5.8484378e-25)
(-0.010749172 -6.5739563e-07 6.8545394e-25)
(-0.01068102 -7.0044288e-07 4.3049394e-25)
(-0.010609145 -6.1123336e-07 1.164991e-24)
(-0.010531094 -6.6572949e-07 1.0691126e-25)
(-0.010447743 -8.2985668e-07 -6.4590923e-25)
(-0.010361651 -8.6438708e-07 3.7365141e-25)
(-0.010271526 -8.4063645e-07 -5.4139554e-25)
(-0.010177476 -8.7962531e-07 2.3186932e-25)
(-0.010079606 -9.7286013e-07 -3.607129e-25)
(-0.0099789297 -1.0031974e-06 8.0562739e-25)
(-0.0098750958 -1.0102627e-06 -1.4998338e-24)
(-0.0097681464 -1.0378993e-06 -3.2921995e-25)
(-0.0096582466 -1.0911739e-06 5.9187751e-25)
(-0.0095461849 -1.1135012e-06 1.1289433e-24)
(-0.0094317569 -1.1338265e-06 -1.4991071e-25)
(-0.0093151178 -1.1493232e-06 -3.2995231e-25)
(-0.0091964094 -1.1714607e-06 -6.2053733e-25)
(-0.0090760287 -1.1848155e-06 5.7258632e-25)
(-0.0089541221 -1.1991874e-06 -1.3940113e-25)
(-0.0088306101 -1.2064307e-06 -1.123228e-26)
(-0.0087056753 -1.219463e-06 -7.1283502e-26)
(-0.0085797556 -1.2258623e-06 9.5424791e-27)
(-0.0084529067 -1.2365274e-06 3.3949956e-25)
(-0.0083251624 -1.2383331e-06 -6.1738432e-25)
(-0.0081966187 -1.2451738e-06 -1.0229867e-25)
(-0.0080675325 -1.2456663e-06 -4.25793e-25)
(-0.0079380989 -1.2548347e-06 1.2538514e-24)
(-0.0078081319 -1.2515075e-06 1.0610786e-24)
(-0.007678288 -1.2517507e-06 -1.9451273e-25)
(-0.0075475935 -1.2506181e-06 -2.662491e-24)
(-0.0074178871 -1.2992401e-06 -1.5837379e-24)
(-0.0072871631 -1.2955933e-06 2.3237285e-24)
(-0.0071563439 -1.2333557e-06 3.5934795e-24)
(-0.0070267149 -1.2257678e-06 -6.0778116e-24)
(-0.0068968516 -1.2163361e-06 1.5014359e-24)
(-0.006767454 -1.2058291e-06 -1.3617604e-25)
(-0.0066388544 -1.1901172e-06 3.0080644e-24)
(-0.0065106955 -1.1790456e-06 -2.2075089e-24)
(-0.006383364 -1.1803796e-06 1.0869338e-24)
(-0.0062562727 -1.1709701e-06 1.5274045e-24)
(-0.0061297072 -1.1687881e-06 3.356223e-24)
(-0.0060037163 -1.1615935e-06 -8.4123264e-24)
(-0.0058783347 -1.15013e-06 3.375752e-24)
(-0.0057539536 -1.1399116e-06 -1.2599081e-25)
(-0.005632026 -1.1359086e-06 -5.1465658e-24)
(-0.0055051332 -1.1849576e-06 -1.8273394e-25)
(-0.0053758401 -2.3201064e-06 9.2458048e-24)
(-0.0052491447 -2.0120976e-06 2.79774e-24)
(-0.0051267189 -9.6724328e-07 -6.5766828e-24)
(-0.005015366 -1.0922564e-06 8.2597471e-24)
(-0.0049058912 -1.0433027e-06 1.1186896e-24)
(-0.0047944494 -1.0421214e-06 -7.3504867e-24)
(-0.0046864704 -1.0778353e-06 1.3045145e-23)
(-0.0045753797 -1.0800353e-06 -9.6233372e-24)
(-0.0044674054 -1.072466e-06 1.2789445e-24)
(-0.0043570024 -1.032428e-06 1.7879492e-24)
(-0.0042510995 -9.948028e-07 -9.1696664e-24)
(-0.0041423854 -9.7668648e-07 1.0230382e-23)
(-0.0040365165 -8.7899663e-07 2.0127562e-24)
(-0.003931012 -8.5304781e-07 -5.2295144e-24)
(-0.0038293936 -7.9185141e-07 -5.3253893e-24)
(-0.0037271413 -7.7670367e-07 -1.0328837e-23)
(-0.0036271638 -7.8839632e-07 1.8780477e-23)
(-0.0035279954 -7.6852418e-07 1.3129768e-23)
(-0.0034302581 -7.1064994e-07 -2.8462693e-23)
(-0.003333777 -6.7745069e-07 2.8419531e-23)
(-0.0032389552 -6.5477629e-07 -8.4639726e-24)
(-0.0031454948 -6.1171811e-07 -1.3237902e-23)
(-0.0030536225 -5.2522276e-07 -1.0961252e-23)
(-0.0029632166 -4.7883188e-07 -4.6555287e-25)
(-0.0028745674 -4.8647334e-07 2.4844019e-23)
(-0.0027874821 -4.259693e-07 -1.8448901e-23)
(-0.0027020673 -3.4647162e-07 1.1617285e-23)
(-0.0026194183 -3.5455694e-07 -1.8609305e-23)
(-0.0025363531 -4.6224028e-07 2.0720747e-23)
(-0.0024566215 -3.7412755e-07 -1.1481317e-23)
(-0.0023801829 -2.7739849e-07 6.8511537e-24)
(-0.0023044514 -2.1718947e-07 2.3076944e-24)
(-0.0022322202 -2.2287686e-07 -1.1739692e-23)
(-0.0021617428 -1.7556464e-07 1.2213508e-23)
(-0.0020955908 -4.4177623e-08 -1.7069179e-25)
(-0.0020314113 7.353769e-08 4.7728815e-24)
(-0.0019716386 -1.0021193e-07 -2.2338451e-23)
(-0.0019161368 -5.6022898e-09 1.5104135e-23)
(-0.0018657124 3.2161756e-07 4.8495196e-24)
(-0.0018205825 4.7605977e-07 -2.2783253e-23)
(-0.001783057 7.1985623e-07 2.2456171e-23)
(-0.0017513235 8.5670061e-07 1.5613157e-23)
(-0.00173101 1.0176468e-06 -2.3112895e-23)
(-0.0017196817 1.099313e-06 1.8256819e-23)
(-0.0017063799 1.6328072e-06 -2.5926443e-23)
(-0.0017127613 1.4306907e-06 -2.7598884e-23)
(-0.0016753541 -1.8691836e-05 3.9147425e-20)
(-0.0016971156 -8.7231324e-05 1.7030814e-20)
(-0.0016848836 -0.00015644677 8.2393089e-21)
(-0.0017192279 -0.00023099936 5.4689262e-19)
(-0.0016585789 -0.00029210039 2.7370097e-19)
(-0.0016994558 -0.00036689484 1.2596443e-18)
(-0.0016095985 -0.00040980927 9.9377326e-19)
(-0.0016761901 -0.00049448384 -1.486835e-19)
(-0.0014345752 -0.00049159474 -4.1368534e-23)
(-0.0016381744 -0.00057993094 4.303349e-21)
(-0.0011847612 -0.00047326157 -8.9256218e-21)
(-0.0013332396 -0.00059309196 3.1141772e-21)
(-0.0010517269 -0.00049876779 -7.0823881e-21)
(-0.0016779345 -0.00085857123 -1.2466535e-21)
(-0.00064371906 -0.00034832786 -7.8594167e-19)
(-0.0015110585 -0.00085874999 1.574254e-18)
(-0.00013080777 -0.00012504576 7.1881923e-19)
(0.00012868822 6.6825577e-05 3.9057743e-20)
(-0.00083597505 -0.00049966139 -4.9511335e-20)
(-0.002241866 -0.0016304299 -5.871606e-19)
(0.0036235726 0.0024975618 1.2413977e-18)
(0.0058071568 0.0041239916 -2.2116742e-18)
(0.0053486894 0.0039350755 4.7728743e-19)
(0.0026127099 0.0019465734 -2.2117235e-19)
(0.0013959305 0.001077013 3.4205256e-19)
(-0.0015648671 -0.0011490434 -3.624502e-19)
(-0.0018277822 -0.00085623653 -2.2207327e-19)
(0.0019828194 0.0017868654 -1.6465373e-19)
(-0.00016414727 0.0035183628 1.5210823e-19)
(-0.0062722326 -0.0055307981 0)
(0.0073762822 0.0058196385 -2.6093491e-19)
(0.0099622943 0.0082518881 -8.8015727e-19)
(0.0068150949 0.0059371438 3.4750719e-20)
(0.00737696 0.0067913534 1.5823932e-18)
(0.0055562306 0.0030517593 -4.867723e-19)
(0.014692619 0.012181541 1.0800691e-18)
(0.021273398 0.016597919 -7.8183786e-19)
(-0.0084058383 -0.0054829465 -4.8784804e-18)
(-0.0054942043 -0.0041649281 1.0767436e-18)
(0.0030239639 0.0077094899 4.8336926e-19)
(0.013242142 0.0087491173 5.4149105e-19)
(0.017462699 0.012170915 -7.0963711e-19)
(0.0083940992 0.0036291857 4.5513218e-19)
(0.013937853 0.0046330424 3.7420124e-20)
(0.0034285999 -0.0096491346 0)
(0.030234348 0.013844657 1.7454998e-18)
(0.020551498 0.036345364 6.052395e-19)
(-0.082657629 0.084073998 -1.7912836e-18)
(0.056210133 0.019872825 3.8560936e-18)
(0.1970268 -0.1118588 1.1923533e-18)
(0.0632519 -0.0065124543 -1.236099e-18)
(0.04240682 0.023112194 2.8372559e-19)
(0.03951335 0.015200423 1.8241095e-18)
(0.039858448 0.01742407 4.0023729e-18)
(0.047312032 0.016156679 -8.0836227e-19)
(0.045308206 0.010660107 3.4111984e-19)
(0.040577648 0.0071976681 -9.7503111e-20)
(0.034571755 0.0041993333 -2.6872757e-20)
(0.027303524 0.0019201045 -1.1024817e-21)
(0.022546127 0.0007082395 1.0117813e-20)
(0.016841835 0.00013377473 3.3178701e-20)
(0.016107549 -6.6342442e-05 2.0215118e-21)
(0.012143139 -5.6788549e-05 1.402144e-21)
(0.028539032 8.7931728e-05 1.7732485e-21)
(0.028772452 0.00011268041 -1.3796629e-24)
(0.0323935 -0.0002116195 -5.5220494e-25)
(0.030341045 -0.00092544518 -2.1109417e-22)
(0.027932613 -0.0018158985 8.2742885e-23)
(0.019438422 -0.0021588025 -7.1822895e-20)
(0.0094588598 -0.0015427303 4.3931532e-20)
(-0.0017557675 0.00057994737 -2.1654891e-19)
(-0.0091503027 0.0031358273 1.1994843e-19)
(-0.011055713 0.0047111073 4.042455e-21)
(-0.0098294629 0.0049832755 4.7934277e-20)
(-0.008156702 0.0048430686 -7.8585137e-20)
(-0.0068092704 0.0042650229 -3.5001035e-19)
(-0.0062491713 0.0041334551 1.2350464e-19)
(-0.0054525165 0.0040568447 1.7653661e-19)
(-0.004966938 0.0038721092 -2.2540635e-20)
(-0.0043920443 0.0035564861 1.4048307e-20)
(-0.0037838577 0.0036004433 2.3704227e-20)
(-0.0037066219 0.0031103854 1.0174517e-19)
(-0.0033931397 0.0028854059 -5.7862898e-20)
(-0.0031318434 0.0026653826 -5.770963e-20)
(-0.0029020619 0.0025171591 -1.1245252e-20)
(-0.0027909646 0.0023466559 1.8078219e-20)
(-0.0026728109 0.0022558458 -8.1844875e-20)
(-0.0024034757 0.0023859155 1.1817611e-21)
(-0.0025506977 0.0022184478 -2.5293022e-20)
(-0.0026110707 0.0021228024 2.5348127e-20)
(-0.0025962567 0.0020980817 1.4444744e-20)
(-0.0026492328 0.0021230901 6.1086041e-22)
(-0.0027186337 0.0021626878 1.2010101e-20)
(-0.0028072036 0.0022185031 -3.7991058e-21)
(-0.002921221 0.002293517 -2.7567149e-21)
(-0.0030524415 0.0023881482 -8.5869683e-21)
(-0.0032031494 0.0025016826 2.7684914e-22)
(-0.0033777627 0.0026289205 -1.1561337e-20)
(-0.003562647 0.0027643722 -6.0777643e-21)
(-0.0037388938 0.0028903772 -6.9596757e-22)
(-0.0039158467 0.0030002617 5.4129771e-23)
(-0.0040494263 0.0030944553 -4.3198446e-23)
(-0.0041561729 0.0031579354 6.0695006e-22)
(-0.0042285164 0.0031129677 -1.9787046e-23)
(-0.004338346 0.0031336326 5.1586875e-21)
(-0.0045692882 0.0032323951 5.777717e-21)
(-0.0046914383 0.0032254235 3.4943037e-23)
(-0.0047933994 0.0031906125 -2.8742238e-20)
(-0.0048635055 0.0031193321 1.1758455e-20)
(-0.0049073671 0.0030075325 1.5483321e-20)
(-0.0049242192 0.002869828 1.3698048e-20)
(-0.0049365107 0.0027057907 2.0329465e-21)
(-0.0049408116 0.002533826 -5.5690347e-21)
(-0.0049477396 0.0023617831 2.051392e-20)
(-0.0049224021 0.0021770714 5.3816358e-21)
(-0.0048595568 0.001970712 3.1724754e-24)
(-0.0047729485 0.0017633145 1.7698638e-21)
(-0.0046567506 0.0015368623 -1.3443144e-20)
(-0.0044907666 0.0013089147 -1.4960811e-20)
(-0.00432181 0.001091038 4.3227439e-21)
(-0.0040859653 0.0008693787 -5.2252967e-21)
(-0.0039087809 0.00067559458 4.7897582e-21)
(-0.0036739285 0.00048713575 9.0598194e-21)
(-0.0036542233 0.00033772857 4.0610505e-22)
(-0.0036126166 0.00019060063 -1.4798133e-22)
(-0.0043092401 6.7466611e-05 9.7882771e-23)
(-0.0057223313 1.9628851e-05 -3.4697248e-26)
(-0.0067094232 1.6022045e-05 2.109025e-26)
(-0.007665926 1.4714277e-05 -1.5106439e-26)
(-0.008480936 1.3337086e-05 7.9833571e-26)
(-0.0092526261 1.2588443e-05 -2.144535e-26)
(-0.0099307934 1.3094332e-05 -2.9200075e-27)
(-0.010568872 1.0001873e-05 6.6741333e-26)
(-0.01114488 9.2485704e-06 -4.3951528e-26)
(-0.011681154 8.4553902e-06 -3.30472e-26)
(-0.01216936 7.7063677e-06 -1.233753e-26)
(-0.012629892 7.2755819e-06 -6.6195883e-27)
(-0.013053941 6.782016e-06 -2.1552182e-26)
(-0.013455331 6.3530292e-06 -6.0430266e-26)
(-0.013834781 6.0027408e-06 3.3393791e-26)
(-0.014193554 5.7230507e-06 -5.6120775e-26)
(-0.01453433 5.5353056e-06 2.692218e-25)
(-0.014859125 5.1312436e-06 -2.9892254e-25)
(-0.015167396 4.8816742e-06 1.5420316e-25)
(-0.015461383 4.6910408e-06 6.0935587e-25)
(-0.015741723 4.4735391e-06 -4.5170247e-25)
(-0.016008729 4.2234899e-06 -1.9814648e-25)
(-0.016262699 4.0085365e-06 9.1076216e-25)
(-0.016503422 3.8083142e-06 -6.9539101e-25)
(-0.016731522 3.5985342e-06 4.2581041e-25)
(-0.016947081 3.3568942e-06 -3.0186496e-25)
(-0.017150076 3.147981e-06 -1.59709e-25)
(-0.017340578 2.9915246e-06 5.4970418e-25)
(-0.017518422 2.7826605e-06 6.4200153e-25)
(-0.017683608 2.5798327e-06 -2.3984245e-24)
(-0.017835509 2.3819499e-06 1.8303659e-24)
(-0.017974892 2.1359702e-06 -5.1003801e-25)
(-0.018101562 1.944894e-06 -1.7095782e-24)
(-0.018215942 1.7068132e-06 7.3683224e-25)
(-0.018317656 1.5125995e-06 2.4791667e-24)
(-0.018406979 1.2984751e-06 -4.6008027e-25)
(-0.018483768 1.0921438e-06 -7.087897e-25)
(-0.018548215 8.770256e-07 -6.129717e-25)
(-0.018600319 6.5847192e-07 -6.8655266e-25)
(-0.018640604 4.9239849e-07 1.4197891e-24)
(-0.018668462 2.767703e-07 -7.230367e-25)
(-0.018684334 7.467505e-08 -1.0305155e-24)
(-0.018688714 -1.372396e-07 1.6357263e-24)
(-0.018681248 -3.2567963e-07 -8.4666673e-25)
(-0.018662792 -4.9815424e-07 -9.2562408e-25)
(-0.018632958 -6.9729639e-07 9.1156136e-25)
(-0.018592675 -8.5305815e-07 1.5751893e-24)
(-0.018541956 -9.9470422e-07 1.9963379e-25)
(-0.018480659 -1.1488724e-06 -1.3335366e-24)
(-0.018409343 -1.3426035e-06 -1.1153055e-24)
(-0.018328712 -1.4886798e-06 3.6672273e-24)
(-0.018238885 -1.6318157e-06 -5.8037352e-24)
(-0.018139982 -1.7691405e-06 4.9291051e-24)
(-0.018032797 -1.9130285e-06 -4.2107756e-24)
(-0.017916907 -2.0390809e-06 1.6622921e-24)
(-0.017794728 -2.0700585e-06 7.8567955e-25)
(-0.017662386 -2.2143504e-06 2.0132245e-25)
(-0.017521226 -2.4292845e-06 -1.4569426e-24)
(-0.017375337 -2.53099e-06 9.0272177e-25)
(-0.01722277 -2.5855563e-06 -8.5466296e-25)
(-0.017063698 -2.6856622e-06 1.3669874e-24)
(-0.016898315 -2.8262931e-06 6.0481522e-25)
(-0.016728211 -2.912956e-06 -1.5473808e-24)