/*--------------------------------*- C++ -*----------------------------------*\
| =========                 |                                                 |
| \\      /  F ield         | OpenFOAM: The Open Source CFD Toolbox           |
|  \\    /   O peration     | Version:  2.4.0                                 |
|   \\  /    A nd           | Web:      www.OpenFOAM.org                      |
|    \\/     M anipulation  |                                                 |
\*---------------------------------------------------------------------------*/
FoamFile
{
    version     2.0;
    format      ascii;
    class       volVectorField;
    location    "700";
    object      UMean;
}
// * * * * * * * * * * * * * * * * * * * * * * * * * * * * * * * * * * * * * //

dimensions      [0 1 -1 0 0 0 0];

internalField   nonuniform List<vector> 
78300
(
(0.0054648126 2.3897362e-05 1.1920851e-21)
(0.0056115355 2.5529237e-05 -3.2475237e-22)
(0.0064064822 -4.0744174e-05 4.5482753e-22)
(0.0061404136 -0.00018955358 -2.4157178e-20)
(0.0055655554 -0.0003748599 -5.8145643e-21)
(0.0037695932 -0.00044365135 1.6600292e-20)
(0.0017479507 -0.0003168646 9.1450508e-21)
(-0.00045792119 0.00010519526 -3.5709908e-20)
(-0.0018884446 0.00061872531 -1.3706776e-20)
(-0.0022301041 0.00093387457 1.6941052e-20)
(-0.0019846107 0.0009904651 9.8099394e-21)
(-0.0016201005 0.00092737182 -2.2221569e-20)
(-0.0012561354 0.00079377904 2.7316671e-21)
(-0.0010291374 0.00070701492 -1.1054306e-20)
(-0.00088882093 0.00064956427 7.2508796e-21)
(-0.00081545835 0.00062385725 -1.269525e-20)
(-0.00074931405 0.00059604759 -3.9812421e-21)
(-0.00070373546 0.00057636695 2.2311372e-21)
(-0.00066594543 0.00055894063 -8.0370194e-21)
(-0.0006286396 0.00053404449 6.2610626e-21)
(-0.00059382542 0.00050798449 7.5614393e-21)
(-0.00055988269 0.00047943175 -6.4465883e-21)
(-0.00053075079 0.00045165837 -2.3431793e-21)
(-0.00051024382 0.0004294447 1.0989566e-21)
(-0.00049595643 0.00041282106 2.5023484e-21)
(-0.00048637808 0.00040007442 6.3561358e-22)
(-0.00048279112 0.00039284226 7.7348119e-22)
(-0.00048411153 0.00039072022 -2.4331673e-21)
(-0.00049065499 0.00039273891 -1.9260741e-21)
(-0.00050219973 0.00039885019 -1.2616375e-21)
(-0.00051919111 0.00040946485 1.2986495e-21)
(-0.00054165523 0.00042459638 2.7316188e-21)
(-0.00056954698 0.00044405073 1.0129087e-21)
(-0.00060241581 0.00046757138 1.3482825e-21)
(-0.00063968248 0.0004947056 -1.4390408e-21)
(-0.00067914889 0.00052379217 9.3556116e-22)
(-0.00071707415 0.00055132429 -1.4734337e-21)
(-0.00075319406 0.00057568397 -4.5754004e-23)
(-0.00078683701 0.00059554616 -1.9081362e-21)
(-0.00081390491 0.00060848943 2.9039208e-22)
(-0.00084314697 0.00062040211 -1.0846862e-24)
(-0.00087896816 0.00063447933 -2.6228543e-22)
(-0.00091158952 0.00064293255 -7.4501341e-22)
(-0.00093958443 0.00064459032 -1.3260399e-21)
(-0.0009621952 0.00063903145 2.8987746e-21)
(-0.00097857917 0.00062562811 3.9453621e-21)
(-0.00098965129 0.00060535455 -1.6113238e-21)
(-0.00099461691 0.00057758009 -4.8271036e-21)
(-0.00099978225 0.0005469385 5.0826812e-21)
(-0.0010037644 0.00051458565 -4.2387364e-21)
(-0.0010042815 0.00047944242 -9.4480828e-21)
(-0.0010014989 0.00044207296 1.2275173e-21)
(-0.00099344277 0.00040234364 -1.7736132e-21)
(-0.00097649235 0.00035940472 -6.5672765e-21)
(-0.00095587009 0.00031583896 -2.2461709e-21)
(-0.00092447676 0.00027012854 1.4923458e-21)
(-0.00089164336 0.00022585392 1.3573291e-21)
(-0.00084660714 0.00018118857 1.4283114e-21)
(-0.00081154195 0.00014120366 3.8267216e-23)
(-0.00076275121 0.00010201344 1.0332212e-21)
(-0.00075784665 7.0369867e-05 -2.6365151e-22)
(-0.00074008049 3.815564e-05 -1.7524359e-22)
(-0.0008841765 1.0402132e-05 -2.6298733e-22)
(-0.0011779104 7.6002332e-08 4.7377016e-26)
(-0.001382103 2.22321e-07 -7.57988e-26)
(-0.0015770162 1.93322e-07 -2.5417116e-25)
(-0.0017449595 3.3014891e-07 2.9333438e-25)
(-0.0019014672 3.2555566e-07 -2.5668391e-25)
(-0.0020396816 4.1866545e-07 1.3803549e-25)
(-0.0021674534 3.3747158e-07 -1.7061178e-25)
(-0.0022811732 3.6745271e-07 9.1322794e-26)
(-0.0023868426 3.1778159e-07 1.8605079e-25)
(-0.0024822384 3.1901477e-07 -2.2347435e-25)
(-0.0025711284 3.1666542e-07 -8.781415e-19)
(-0.0026529262 3.2855965e-07 -5.6283035e-19)
(-0.0027293141 3.2360836e-07 2.40106e-25)
(-0.0028001161 3.2688156e-07 -1.1112209e-25)
(-0.0028664698 3.3519654e-07 -3.0754729e-26)
(-0.0029285377 3.4378036e-07 -6.7779632e-26)
(-0.0029867702 3.4212407e-07 4.7146648e-26)
(-0.0030412991 3.4368123e-07 -7.9264099e-26)
(-0.0030925039 3.4701508e-07 2.6224306e-25)
(-0.0031405673 3.5067257e-07 -1.5374979e-25)
(-0.0031856463 3.4940833e-07 -3.6413329e-25)
(-0.0032278493 3.4824453e-07 3.8465165e-25)
(-0.0032673233 3.4794399e-07 -5.4912245e-26)
(-0.0033041654 3.4606771e-07 4.5891399e-25)
(-0.0033384446 3.4231907e-07 -6.1734841e-25)
(-0.0033702216 3.3815807e-07 -4.846624e-25)
(-0.0033995742 3.3542336e-07 7.4784377e-25)
(-0.0034265574 3.3017859e-07 -6.3295452e-25)
(-0.0034512092 3.2411278e-07 5.0101918e-25)
(-0.0034735993 3.1951174e-07 -2.8781829e-25)
(-0.0034937543 3.1183588e-07 -5.9936914e-26)
(-0.0035117305 3.0553655e-07 2.1491083e-26)
(-0.0035275858 2.9761448e-07 4.2149382e-25)
(-0.0035413526 2.9066723e-07 -3.6025651e-26)
(-0.0035530912 2.8332143e-07 6.2437613e-25)
(-0.0035628198 2.7609287e-07 -3.0893189e-27)
(-0.0035705877 2.6903675e-07 -1.2332631e-24)
(-0.0035764302 2.6203198e-07 5.8476615e-25)
(-0.0035803517 2.5468119e-07 -5.6260533e-26)
(-0.0035823959 2.4688943e-07 8.3319319e-25)
(-0.0035826218 2.3889326e-07 -2.1154554e-26)
(-0.0035810548 2.3219636e-07 -1.6344014e-24)
(-0.0035777008 2.2307282e-07 -1.1238096e-25)
(-0.0035726226 2.1583477e-07 5.6811434e-26)
(-0.0035658869 2.0564276e-07 8.365088e-25)
(-0.0035575219 1.9817441e-07 -8.3597058e-26)
(-0.0035475425 1.887315e-07 -1.0559243e-24)
(-0.0035359981 1.8142695e-07 1.9543609e-24)
(-0.0035229578 1.7130321e-07 -2.2306682e-24)
(-0.0035084573 1.6341197e-07 2.1009389e-24)
(-0.0034925208 1.5319816e-07 -4.0423505e-25)
(-0.0034751988 1.4470964e-07 2.4675544e-25)
(-0.0034565261 1.3440465e-07 -1.0463322e-24)
(-0.0034365587 1.2410192e-07 5.9340515e-25)
(-0.0034152292 1.1396961e-07 1.6016993e-25)
(-0.0033926214 1.0512717e-07 -1.1540372e-25)
(-0.0033689615 9.4223927e-08 -1.1297238e-25)
(-0.0033442398 8.5365951e-08 2.3941994e-17)
(-0.0033183248 7.4387323e-08 2.466366e-17)
(-0.0032913134 6.5057633e-08 1.4458508e-24)
(-0.0032633621 5.4627533e-08 -1.172849e-25)
(-0.0032344788 4.4967903e-08 -1.352115e-25)
(-0.003204619 3.385913e-08 -9.8190843e-26)
(-0.0031738476 2.4268648e-08 -8.1440915e-27)
(-0.0031422731 1.4227506e-08 -3.3176228e-25)
(-0.0031099295 4.4855644e-09 -1.5205664e-25)
(-0.0030768083 -6.7060431e-09 5.292184e-25)
(-0.003042953 -1.6622705e-08 2.8904245e-26)
(-0.0030084517 -2.7702715e-08 2.8971262e-25)
(-0.0029733374 -3.8499086e-08 -4.7991123e-25)
(-0.0029375939 -5.0462762e-08 6.7196209e-26)
(-0.0029012796 -6.0755711e-08 1.5575427e-26)
(-0.0028644624 -7.1438199e-08 3.0460093e-26)
(-0.0028271884 -8.1475308e-08 2.9606952e-27)
(-0.0027894566 -9.2410444e-08 1.954036e-25)
(-0.0027513046 -1.0206238e-07 -8.6477022e-26)
(-0.0027128094 -1.1203698e-07 -4.6732714e-25)
(-0.0026739869 -1.2130012e-07 8.9805516e-25)
(-0.0026348637 -1.3131954e-07 -1.3015946e-24)
(-0.0025954572 -1.400204e-07 2.1963056e-26)
(-0.0025558165 -1.4912316e-07 6.9448396e-25)
(-0.002515936 -1.583114e-07 -1.9731499e-25)
(-0.002475783 -1.6801376e-07 4.7204317e-25)
(-0.0024354481 -1.7437297e-07 -1.9895164e-25)
(-0.0023950422 -1.8139289e-07 -1.2717822e-26)
(-0.0023545832 -1.8862633e-07 -2.2590906e-25)
(-0.0023140343 -1.9722646e-07 -2.322106e-25)
(-0.0022733819 -2.0415391e-07 -2.2042837e-25)
(-0.0022327859 -2.1059199e-07 8.3638205e-25)
(-0.0021922185 -2.1721143e-07 5.4486526e-25)
(-0.0021516844 -2.2576164e-07 8.9675061e-25)
(-0.0021111857 -2.3077566e-07 -3.5438216e-25)
(-0.0020709042 -2.3686083e-07 -1.0051718e-24)
(-0.0020306874 -2.4274964e-07 -2.4355158e-24)
(-0.0019906557 -2.4979939e-07 4.8057133e-17)
(-0.0019505781 -2.560998e-07 2.3000588e-20)
(-0.0019104292 -2.6745563e-07 -4.9081905e-17)
(-0.0018692456 -2.8821663e-07 -3.714105e-24)
(-0.0018257338 -3.2914446e-07 5.3586732e-25)
(-0.0017804236 -3.8090426e-07 -6.4303019e-24)
(-0.0017424199 -2.8822754e-07 6.6954907e-24)
(-0.0017049386 -2.729941e-07 6.2660678e-25)
(-0.0016690674 -2.7814537e-07 -6.166792e-24)
(-0.0016316283 -2.7915009e-07 3.422335e-24)
(-0.0015948086 -2.9053652e-07 -3.7608869e-24)
(-0.0015573755 -2.8782553e-07 5.5629334e-24)
(-0.0015205989 -2.9028303e-07 -1.4230698e-24)
(-0.0014836373 -2.9606022e-07 -2.7914523e-24)
(-0.0014471331 -2.9709883e-07 8.969702e-25)
(-0.0014107559 -3.0086533e-07 3.617453e-24)
(-0.0013748128 -3.0246983e-07 -4.1995565e-24)
(-0.0013390927 -3.0380361e-07 3.665545e-24)
(-0.0013038719 -3.0402559e-07 -4.0165427e-24)
(-0.0012690542 -3.0445764e-07 2.0600457e-24)
(-0.0012346911 -3.0669876e-07 2.3588117e-24)
(-0.001200647 -3.0785336e-07 3.8189251e-24)
(-0.0011670724 -3.0696239e-07 -4.374089e-24)
(-0.0011339836 -3.0617007e-07 -3.0048883e-24)
(-0.0011013832 -3.0684514e-07 3.8807407e-24)
(-0.0010691896 -3.0649777e-07 -8.2327152e-24)
(-0.0010375606 -3.0535718e-07 7.6946578e-24)
(-0.0010064551 -3.0370312e-07 -4.5607134e-24)
(-0.00097592712 -3.0314449e-07 3.967149e-24)
(-0.00094588966 -3.0119794e-07 -4.61399e-24)
(-0.00091653262 -2.9907353e-07 -3.179472e-24)
(-0.00088768979 -2.9874779e-07 2.5187297e-24)
(-0.00085945191 -3.0110674e-07 -3.1990294e-24)
(-0.0008318678 -2.9369134e-07 8.2708419e-24)
(-0.00080522603 -2.8935157e-07 -5.0409383e-24)
(-0.00077917796 -2.8888924e-07 4.4009205e-24)
(-0.0007542586 -2.8598579e-07 -7.5483468e-24)
(-0.00072995014 -2.8232672e-07 7.0383719e-25)
(-0.0007072858 -2.7710322e-07 2.6141723e-24)
(-0.00068509348 -2.824364e-07 2.9302452e-24)
(-0.00066485507 -2.8252495e-07 -1.1059974e-23)
(-0.00064536596 -2.7210422e-07 6.5094264e-17)
(-0.00062882936 -2.5938007e-07 6.5903877e-17)
(-0.0006126377 -2.5393435e-07 -3.3083191e-24)
(-0.00060061778 -2.349906e-07 -4.968542e-24)
(-0.00058874651 -2.3288233e-07 4.2867551e-24)
(-0.00058269658 -2.0481504e-07 7.8722279e-25)
(-0.00057615567 -2.0789732e-07 -1.4126462e-24)
(-0.0005774372 -1.6505102e-07 -6.5884443e-17)
(-0.00057419962 -2.0307249e-07 -6.5621158e-17)
(-0.00057113688 -6.5874846e-06 -1.1591098e-20)
(-0.00057054266 -2.9397924e-05 1.2053246e-19)
(-0.00057248623 -5.2801115e-05 5.4787183e-20)
(-0.00057684437 -7.6562451e-05 -3.4998739e-19)
(-0.00057334866 -9.8975172e-05 -5.9379343e-20)
(-0.00056849358 -0.00012062468 -3.9310208e-19)
(-0.00055701277 -0.00014000308 2.6033256e-20)
(-0.00054235422 -0.00015699858 -3.9334464e-21)
(-0.00052049007 -0.00017051735 1.3929127e-19)
(-0.00050162183 -0.00018217112 -1.0496073e-19)
(-0.00046782599 -0.0001852783 3.3400878e-19)
(-0.00043487197 -0.00019519707 -2.1505954e-19)
(-0.00039654954 -0.00018284415 -5.561189e-20)
(-0.00036924989 -0.00018593767 -9.6347924e-20)
(-0.00032213697 -0.00017889334 5.3750871e-19)
(-0.00028118824 -0.00016102029 1.147587e-19)
(-0.00026270745 -0.00017846646 -4.2530952e-19)
(-0.00011554733 -7.6278465e-05 -4.7686567e-19)
(-5.6008468e-05 -3.9924382e-05 -7.243451e-20)
(-0.00028784667 -0.0001531937 3.7270707e-20)
(-0.00015191209 -4.9148108e-05 -4.6463675e-19)
(0.00024349532 0.00013870656 -3.2361784e-20)
(0.00023607892 0.00016395556 -8.5720638e-20)
(0.00029415883 0.00027218779 -5.9000037e-19)
(0.00032112107 0.00021279532 8.1282006e-20)
(0.00089376197 0.00066559417 4.2356059e-19)
(0.001110972 0.00086657936 3.140509e-19)
(0.0007719234 0.00069187147 -1.3150962e-19)
(0.00113974 0.00086798963 -6.4203884e-20)
(0.0010125241 0.00086170206 -6.4409922e-20)
(0.0012412416 0.00083897772 1.0772745e-19)
(0.0011941832 0.00087703094 3.9078502e-19)
(0.00076075613 0.00069930019 -4.7969305e-19)
(0.0015286777 0.0011130489 9.6296299e-20)
(0.0019425742 0.0015059948 1.2911588e-20)
(0.0016724479 0.0013377071 1.1226529e-19)
(0.0021818834 0.0017689148 6.4521826e-20)
(0.0017609425 0.0016177721 -3.7251833e-20)
(0.0025837547 0.0019984896 1.0045408e-19)
(0.0031040805 0.0024846688 -1.9610227e-20)
(0.0023535027 0.0018735178 -2.3610903e-19)
(0.0024278913 0.0020932455 -4.214206e-21)
(0.003949669 0.0025163545 -1.388333e-19)
(0.0042093437 0.0032990746 1.7929107e-19)
(0.0040995497 0.0035601162 8.9226582e-21)
(0.0033310559 0.0033870888 9.0056599e-21)
(0.0053897178 0.0035745923 1.2695052e-20)
(0.0054473884 0.0043431176 1.9210834e-20)
(0.0062331462 0.0051463992 2.0136829e-20)
(0.0086223271 0.0059222512 -1.1873252e-19)
(0.010264542 0.0067015784 7.5881121e-20)
(0.012089953 0.0067002829 -3.3299756e-20)
(0.014097719 0.0070906973 -1.3835685e-19)
(0.016976893 0.0071155975 -1.9062647e-19)
(0.017744591 0.0059250109 -3.986528e-20)
(0.017008603 0.0042586327 6.8052356e-20)
(0.014776332 0.0026534003 -8.5394902e-20)
(0.012430581 0.0014668214 -5.8705598e-20)
(0.009858966 0.00067844813 -1.2081385e-20)
(0.00807665 0.00025317569 -2.2400729e-20)
(0.0061635533 4.4149744e-05 -1.2419026e-20)
(0.005808474 -3.0730857e-05 -6.1121029e-21)
(0.0043859029 -1.759173e-05 -6.7353063e-22)
(0.016740237 6.4202692e-05 1.2469939e-21)
(0.017173951 7.0594216e-05 8.9049385e-22)
(0.019453919 -0.00012700621 -1.5991855e-21)
(0.018693395 -0.0005696002 2.7116254e-20)
(0.016970816 -0.0011237418 3.3598331e-22)
(0.011687577 -0.0013351152 5.8286468e-20)
(0.0056543381 -0.00097207931 -2.2868558e-20)
(-0.00097868422 0.00028001074 4.7326907e-20)
(-0.005411204 0.0018231271 3.8517444e-20)
(-0.0065807273 0.0027884382 -3.6736359e-20)
(-0.005917215 0.0029843565 -1.0418036e-20)
(-0.0048550028 0.0027979857 3.1262085e-21)
(-0.0037753442 0.0024073516 5.8613497e-20)
(-0.0031008552 0.0021404756 8.5277431e-21)
(-0.0026795178 0.0019683102 -2.0909987e-20)
(-0.0024558434 0.0018929245 1.1543635e-20)
(-0.0022571319 0.0018086388 -6.4677488e-21)
(-0.002119455 0.001748918 -2.9365326e-21)
(-0.0020096889 0.0016907106 -8.0243794e-21)
(-0.001896887 0.0016166304 2.4511525e-21)
(-0.0017920892 0.0015385392 -3.3432891e-21)
(-0.0016917469 0.0014512383 3.0149704e-21)
(-0.0016044691 0.0013680068 3.5911472e-21)
(-0.0015438987 0.001300384 8.2330014e-21)
(-0.0015017124 0.0012502442 -2.185615e-21)
(-0.001472613 0.0012129218 -3.0991721e-21)
(-0.0014620391 0.0011916468 -4.1720012e-21)
(-0.0014668227 0.001185072 1.9826305e-21)
(-0.0014871895 0.0011911082 8.3201361e-22)
(-0.0015224428 0.0012097765 4.0152889e-21)
(-0.0015741032 0.0012419368 -6.3731309e-21)
(-0.0016420916 0.0012878059 -3.9227552e-21)
(-0.0017263187 0.0013466382 -7.0880465e-22)
(-0.0018253079 0.0014177885 -1.394807e-21)
(-0.0019373405 0.0014997333 -3.8480899e-23)
(-0.0020557843 0.001587587 4.3098225e-21)
(-0.0021697863 0.0016706717 3.3048001e-21)
(-0.0022785175 0.0017441522 1.285107e-22)
(-0.0023795382 0.0018048056 1.7441395e-21)
(-0.0024614012 0.0018441178 1.3118667e-22)
(-0.0025499998 0.0018798388 1.4068424e-25)
(-0.0026570778 0.0019215773 -1.3854105e-21)
(-0.0027551034 0.0019469928 -4.4783164e-22)
(-0.0028392278 0.0019516489 -5.0212652e-22)
(-0.0029076177 0.0019345934 1.4115518e-21)
(-0.0029575137 0.0018942406 -9.4050731e-21)
(-0.0029919634 0.0018329096 3.3376771e-21)
(-0.0030083698 0.0017493687 -2.6257534e-21)
(-0.0030250571 0.0016575742 -2.8983913e-22)
(-0.0030387347 0.0015596415 -2.5842267e-21)
(-0.0030419349 0.0014537012 1.7829733e-21)
(-0.0030352625 0.0013409712 -9.2399825e-21)
(-0.0030131645 0.0012206955 -6.5408581e-22)
(-0.0029649356 0.0010908881 1.9880579e-21)
(-0.0029055607 0.00095908891 -5.6098798e-22)
(-0.0028147195 0.00082089869 4.2556942e-21)
(-0.0027194155 0.00068693707 -4.7732279e-21)
(-0.0025888878 0.00055187918 1.7388837e-21)
(-0.0024875905 0.00043069482 -7.6029592e-22)
(-0.0023481569 0.00031228394 -3.1874731e-23)
(-0.002338129 0.0002162209 -8.1546357e-23)
(-0.0022975465 0.00011994458 -3.4785839e-21)
(-0.0027344951 3.8153969e-05 3.6359352e-22)
(-0.0036072239 7.0505191e-06 -4.3787819e-25)
(-0.0042202316 5.9396846e-06 -6.4559065e-27)
(-0.0048031864 5.2513391e-06 -1.276712e-25)
(-0.0053059936 5.0518132e-06 4.4485049e-25)
(-0.005773671 4.5173818e-06 -2.401383e-25)
(-0.0061869317 4.338797e-06 7.1440795e-26)
(-0.0065685066 3.6923359e-06 6.8540542e-26)
(-0.0069083545 3.4573273e-06 4.649918e-26)
(-0.0072237921 3.0119336e-06 -2.1926245e-25)
(-0.0075087339 2.7663953e-06 7.8631407e-26)
(-0.0077740433 2.5171541e-06 3.8212007e-26)
(-0.0080181912 2.3657047e-06 8.3784786e-27)
(-0.0082460819 2.1647418e-06 -1.901347e-25)
(-0.0084573088 2.0175156e-06 9.5018028e-26)
(-0.0086551741 1.8809756e-06 -1.7158734e-26)
(-0.0088401948 1.7838499e-06 -4.6866651e-27)
(-0.0090137049 1.6556171e-06 9.8271366e-26)
(-0.0091761308 1.5542858e-06 5.5911617e-27)
(-0.0093285812 1.4541348e-06 -2.7212308e-26)
(-0.009471601 1.3767516e-06 -7.1973305e-26)
(-0.0096056638 1.2840473e-06 -1.1003017e-25)
(-0.0097311037 1.202908e-06 -1.5362392e-25)
(-0.0098483534 1.123233e-06 -2.0113674e-25)
(-0.0099576988 1.0494909e-06 4.6877335e-25)
(-0.010059348 9.7334158e-07 1.002139e-25)
(-0.010153496 9.01191e-07 8.214552e-25)
(-0.010240367 8.325194e-07 -1.3195365e-24)
(-0.010320123 7.6480391e-07 9.6952034e-25)
(-0.010392879 6.9708177e-07 -2.5615439e-25)
(-0.010458846 6.396675e-07 -1.0187506e-24)
(-0.010518108 5.7515961e-07 -4.3624568e-25)
(-0.010570837 5.1925591e-07 4.2258382e-25)
(-0.010617206 4.5897238e-07 2.6537735e-25)
(-0.010657318 4.0337426e-07 8.0624512e-25)
(-0.010691352 3.4566847e-07 6.5677105e-25)
(-0.010719367 2.8874809e-07 -1.9553311e-24)
(-0.010741512 2.340641e-07 6.5872519e-25)
(-0.010757891 1.7635901e-07 4.2678948e-25)
(-0.010768521 1.2024047e-07 1.1532617e-24)
(-0.010773528 6.2563156e-08 -2.4803155e-24)
(-0.010773082 9.799855e-09 1.2047917e-24)
(-0.010767262 -4.2255055e-08 5.5043305e-25)
(-0.010756094 -9.2260625e-08 1.0156882e-24)
(-0.010739764 -1.394905e-07 -2.6080142e-24)
(-0.010718472 -1.8748942e-07 5.830516e-25)
(-0.010692307 -2.3416904e-07 1.6812335e-25)
(-0.010661318 -2.807708e-07 2.1474764e-24)
(-0.01062565 -3.2479439e-07 -1.8382745e-24)
(-0.010585506 -3.6744053e-07 7.4362344e-25)
(-0.010540997 -4.0991384e-07 -6.7711174e-27)
(-0.0104922 -4.5216852e-07 -2.3783054e-24)
(-0.010439264 -4.9359567e-07 4.5347594e-25)
(-0.010382293 -5.3334523e-07 5.329632e-25)
(-0.01032145 -5.7433414e-07 3.3501925e-25)
(-0.010256542 -6.1415526e-07 9.0861359e-25)
(-0.010187838 -6.5046174e-07 8.4076788e-26)
(-0.010115983 -6.837087e-07 -5.0351832e-25)
(-0.010040925 -7.1916885e-07 2.9147865e-25)
(-0.0099623143 -7.5469085e-07 -4.22521e-25)
(-0.0098804459 -7.8516256e-07 1.8137197e-25)
(-0.0097957665 -8.1543881e-07 -2.8163512e-25)
(-0.0097082924 -8.4556815e-07 6.2922057e-25)
(-0.0096179126 -8.758281e-07 -1.1721628e-24)
(-0.0095248185 -9.0213968e-07 -2.5759667e-25)
(-0.0094293235 -9.2774994e-07 4.626518e-25)
(-0.0093315295 -9.5222408e-07 8.8161869e-25)
(-0.0092314258 -9.7676105e-07 -1.1717299e-25)
(-0.0091291384 -9.986574e-07 -2.5773263e-25)
(-0.0090249202 -1.0179608e-06 -4.837823e-25)
(-0.0089188746 -1.0371861e-06 4.4634916e-25)
(-0.0088109645 -1.0559444e-06 -1.0869435e-25)
(-0.0087013551 -1.0727424e-06 -8.7569495e-27)
(-0.008590242 -1.0871574e-06 -5.5485056e-26)
(-0.0084777677 -1.1012828e-06 7.4554343e-27)
(-0.0083639408 -1.1149947e-06 2.6401185e-25)
(-0.008248868 -1.1266909e-06 -4.7986824e-25)
(-0.008132771 -1.1374248e-06 -7.9338939e-26)
(-0.0080157062 -1.1469132e-06 -3.3048548e-25)
(-0.0078977532 -1.1565976e-06 9.7448005e-25)
(-0.0077789638 -1.1627524e-06 8.2361752e-25)
(-0.0076594774 -1.1723447e-06 -1.5112371e-25)
(-0.0075392835 -1.1805186e-06 -2.0710753e-24)
(-0.0074182866 -1.1879298e-06 -1.232751e-24)
(-0.0072967599 -1.1862213e-06 1.8062135e-24)
(-0.0071750148 -1.1900336e-06 2.7974059e-24)
(-0.0070531004 -1.1921143e-06 -4.7322159e-24)
(-0.0069309321 -1.1944648e-06 1.1683851e-24)
(-0.0068084725 -1.1968233e-06 -1.0616923e-25)
(-0.0066861734 -1.1948233e-06 2.3405821e-24)
(-0.0065639695 -1.194287e-06 -1.7174401e-24)
(-0.006441881 -1.1973272e-06 8.4688452e-25)
(-0.0063199101 -1.1896569e-06 1.1884917e-24)
(-0.0061985736 -1.1885793e-06 2.6128204e-24)
(-0.00607744 -1.1834873e-06 -6.5464773e-24)
(-0.0059568407 -1.1844211e-06 2.627647e-24)
(-0.0058360947 -1.1834184e-06 -9.7993653e-26)
(-0.0057150858 -1.2070535e-06 -3.9993304e-24)
(-0.0055909114 -1.2848867e-06 -1.4480111e-25)
(-0.0054595557 -1.3883046e-06 7.0865037e-24)
(-0.0053237804 -1.4287782e-06 2.144029e-24)
(-0.0052102212 -1.1423708e-06 -5.0806599e-24)
(-0.005097482 -1.0747392e-06 6.4332485e-24)
(-0.0049892409 -1.0827547e-06 8.7293226e-25)
(-0.0048764827 -1.0804933e-06 -5.7368664e-24)
(-0.0047655201 -1.1002452e-06 1.0157015e-23)
(-0.0046528286 -1.076917e-06 -7.5108422e-24)
(-0.0045420616 -1.0710974e-06 9.9793898e-25)
(-0.0044307951 -1.0729808e-06 1.3926585e-24)
(-0.0043208878 -1.0606819e-06 -7.1401931e-24)
(-0.0042113895 -1.0580125e-06 7.9476972e-24)
(-0.0041031865 -1.0505073e-06 1.5611316e-24)
(-0.003995679 -1.0405874e-06 -4.0483849e-24)
(-0.0038896699 -1.0265639e-06 -4.1263608e-24)
(-0.0037848837 -1.0143128e-06 -7.985778e-24)
(-0.0036814704 -1.0012061e-06 1.4553291e-23)
(-0.0035790373 -9.9121929e-07 1.0124441e-23)
(-0.003478013 -9.7844992e-07 -2.1954948e-23)
(-0.0033784539 -9.6169947e-07 2.1846781e-23)
(-0.0032803786 -9.4546388e-07 -6.5262857e-24)
(-0.0031835448 -9.2949495e-07 -1.0137249e-23)
(-0.0030884106 -9.1043787e-07 -8.3986512e-24)
(-0.0029948627 -8.8619153e-07 -3.3739339e-25)
(-0.0029030684 -8.6269744e-07 1.8970248e-23)
(-0.0028127732 -8.3820406e-07 -1.4052974e-23)
(-0.0027245214 -8.1364771e-07 8.8453557e-24)
(-0.0026378461 -7.8829889e-07 -1.4144333e-23)
(-0.0025530129 -7.7511947e-07 1.5632984e-23)
(-0.0024701492 -7.3129551e-07 -8.6754642e-24)
(-0.0023900939 -7.0765063e-07 5.190053e-24)
(-0.0023118668 -6.8300983e-07 1.739833e-24)
(-0.0022370334 -6.5365019e-07 -8.8357273e-24)
(-0.0021640986 -6.1220959e-07 9.1735365e-24)
(-0.0020960747 -5.6611113e-07 -1.2823153e-25)
(-0.0020295802 -5.3936829e-07 3.5680274e-24)
(-0.0019689275 -5.1476682e-07 -1.6524638e-23)
(-0.00191062 -4.2587242e-07 1.1256327e-23)
(-0.0018610779 -3.5764e-07 3.6260296e-24)
(-0.0018127395 -2.8962118e-07 -1.6800851e-23)
(-0.0017767942 -1.8160531e-07 1.6713601e-23)
(-0.0017415608 -1.0599719e-07 1.1446026e-23)
(-0.001723598 3.6757362e-08 -1.7107067e-23)
(-0.0017045863 5.6416155e-08 1.3336313e-23)
(-0.0017086861 2.8928857e-07 -1.8803567e-23)
(-0.0017000302 1.1695706e-07 -1.9804e-23)
(-0.0016925382 -1.9354548e-05 2.7714158e-20)
(-0.0016920133 -8.7091099e-05 1.2018017e-20)
(-0.0016980463 -0.0001570308 5.8348461e-21)
(-0.0017106863 -0.00022813246 3.831004e-19)
(-0.0016997661 -0.00029533737 1.9527168e-19)
(-0.0016843363 -0.00036006234 8.9067104e-19)
(-0.0016493574 -0.00041750482 7.8386514e-19)
(-0.0016044594 -0.00046847622 -1.9840634e-19)
(-0.0015386796 -0.00050923153 -2.4759276e-19)
(-0.0014799434 -0.0005440854 5.2739178e-20)
(-0.001376078 -0.00055629707 -1.6831761e-19)
(-0.0012802889 -0.00058091956 1.2852839e-19)
(-0.0011603437 -0.00055326926 -1.3780417e-19)
(-0.0010804842 -0.00055498547 -5.787056e-20)
(-0.00095034003 -0.00052672489 -4.1481699e-19)
(-0.000824747 -0.0004838042 9.6526379e-19)
(-0.00073928894 -0.00054326725 3.4745012e-19)
(-0.00032801003 -0.0002036472 2.3554507e-20)
(-0.00014732493 -0.00010240131 -2.3208942e-19)
(-0.0007918275 -0.00043963054 -2.9656686e-19)
(-0.00034468995 -9.9654754e-05 5.6387175e-19)
(0.00075045499 0.00044126524 -1.0642658e-18)
(0.00068306775 0.00055687031 2.303549e-19)
(0.00094299016 0.00082008663 -1.2462918e-19)
(0.0010875994 0.00068337852 1.8527193e-19)
(0.0026958913 0.0020346414 -4.2007769e-19)
(0.0032867512 0.0026071104 -1.2043472e-19)
(0.0024346485 0.0019848951 -2.9571901e-19)
(0.003433112 0.0025975026 1.9350847e-19)
(0.0031287059 0.002606931 -4.4875982e-19)
(0.0036599007 0.0026716343 -2.1269258e-19)
(0.0035210234 0.0027852766 -3.8965557e-19)
(0.0024714283 0.0021718527 2.0881792e-20)
(0.0046207495 0.0034626529 4.3572836e-19)
(0.005852054 0.0045149112 -1.8178715e-19)
(0.0050872445 0.004226571 2.2769664e-19)
(0.0065993776 0.0052826331 -1.4072618e-19)
(0.0054184113 0.0049869693 -8.2039533e-19)
(0.0075429549 0.0061418961 9.7080942e-20)
(0.0094677794 0.0070188745 8.9233384e-20)
(0.0069907689 0.0058629653 5.4791602e-19)
(0.0073775619 0.0064389177 -9.0292228e-20)
(0.01020707 0.009203754 9.701742e-20)
(0.012576359 0.0098358215 -1.9106156e-20)
(0.012501666 0.010591954 -6.8943148e-20)
(0.011132085 0.0093926318 -1.5018476e-19)
(0.016377033 0.010421324 4.9213051e-21)
(0.015915062 0.0137336 -4.4927905e-20)
(0.019955823 0.014069697 1.6727818e-20)
(0.025022778 0.018639518 4.4159664e-20)
(0.030790977 0.019833049 -7.7447179e-20)
(0.035818371 0.020400621 1.0385043e-19)
(0.04191831 0.021303323 4.4780078e-20)
(0.050344089 0.021209909 2.4798478e-19)
(0.052730966 0.017793981 -1.3143904e-19)
(0.050781435 0.01281421 1.4466639e-19)
(0.044451916 0.0080196868 -6.5642596e-20)
(0.037625125 0.0044652271 -2.1190429e-19)
(0.030092695 0.0020928774 -5.1729923e-20)
(0.024763721 0.00080116379 6.0098369e-21)
(0.019102635 0.00015126599 1.8802269e-20)
(0.017886734 -8.1593477e-05 3.0421842e-21)
(0.013709844 -5.1342304e-05 2.3269353e-21)
(0.028588078 9.6512629e-05 1.1574774e-21)
(0.02932682 0.00011534923 -3.0281165e-22)
(0.032969416 -0.00021998985 -1.701847e-22)
(0.031735318 -0.00095726581 -1.3572874e-20)
(0.028847023 -0.0018836424 3.3930907e-20)
(0.020131632 -0.0022550753 -3.8521281e-20)
(0.010057273 -0.001675307 2.2505391e-20)
(-0.0010923622 0.00038242438 -9.9385799e-20)
(-0.0087249221 0.0029764463 5.2648554e-20)
(-0.010892513 0.0046274252 1.4981535e-21)
(-0.0098860361 0.0049924603 1.4442504e-20)
(-0.0081462559 0.004692243 -1.692722e-20)
(-0.0063544374 0.0040497646 -5.8342448e-20)
(-0.0052237199 0.0036091353 1.7016021e-20)
(-0.0045179678 0.0033185834 2.2719359e-20)
(-0.0041418737 0.0031904962 -3.1550848e-21)
(-0.0038096717 0.003046568 2.7397182e-21)
(-0.0035764714 0.0029471536 6.3489002e-21)
(-0.0033890437 0.002852009 1.7295182e-20)
(-0.0031998131 0.002727165 -9.9763524e-21)
(-0.0030248446 0.0025948081 -9.4394196e-21)
(-0.002855941 0.0024491028 -1.7149268e-21)
(-0.0027102576 0.0023090654 4.1722739e-21)
(-0.0026083102 0.0021963164 -9.0776388e-21)
(-0.0025377778 0.0021127196 2.3853884e-22)
(-0.0024898633 0.0020500379 -3.7051096e-21)
(-0.0024724086 0.0020148811 3.1619271e-21)
(-0.0024812234 0.0020039112 1.8885832e-21)
(-0.0025160772 0.0020144591 9.1157634e-23)
(-0.0025758576 0.0020464972 1.9117296e-21)
(-0.0026631861 0.0021012262 -7.3010145e-22)
(-0.0027780532 0.0021787632 -6.5891719e-22)
(-0.0029200284 0.0022781843 -2.4913958e-21)
(-0.0030867788 0.0023980958 1.0049627e-22)
(-0.0032752047 0.0025359741 -5.3560571e-21)
(-0.0034743193 0.0026835334 -3.8440395e-21)
(-0.0036659534 0.0028232381 -7.4496136e-22)
(-0.0038487015 0.002946953 1.9184068e-22)
(-0.0040189161 0.0030490211 2.4777851e-22)
(-0.0041571855 0.0031156956 -5.7797809e-22)
(-0.0043065126 0.0031765169 2.0047945e-24)
(-0.0044856076 0.0032456593 2.1912188e-21)
(-0.0046504039 0.0032877979 1.9713072e-21)
(-0.0047917458 0.0032950093 1.1457248e-23)
(-0.0049070496 0.0032658464 -1.1233075e-20)
(-0.0049918185 0.003197582 4.7070245e-21)
(-0.0050508956 0.0030944344 6.407373e-21)
(-0.0050802212 0.0029545129 5.7391607e-21)
(-0.0051101335 0.0027999637 9.4783515e-22)
(-0.005134942 0.0026352079 -2.5293754e-21)
(-0.0051424597 0.002457009 9.3079884e-21)
(-0.0051334106 0.0022673453 2.4261529e-21)
(-0.0050989318 0.0020647688 1.1343495e-21)
(-0.0050214781 0.0018463678 9.6594733e-21)
(-0.0049252579 0.0016243197 -5.8923795e-21)
(-0.0047775073 0.0013917133 -5.0020853e-21)
(-0.004622207 0.0011658323 1.7096166e-21)
(-0.0044098163 0.00093824162 -9.9553727e-22)
(-0.0042455725 0.00073347093 1.5293825e-21)
(-0.0040216773 0.00053370834 -1.5175482e-21)
(-0.0040116879 0.0003706887 -8.9806771e-23)
(-0.0039616378 0.00020900547 2.111831e-22)
(-0.0047010221 7.3067189e-05 -5.1413593e-22)
(-0.0061527745 2.067383e-05 4.1452265e-25)
(-0.0071813709 1.70242e-05 -1.0430451e-26)
(-0.0081563673 1.5216495e-05 -1.0063543e-25)
(-0.008998063 1.408295e-05 2.8607075e-25)
(-0.0097796544 1.2671126e-05 -1.0835019e-25)
(-0.010470632 1.1774692e-05 -1.014313e-25)
(-0.011107972 1.0369538e-05 2.1736257e-25)
(-0.01167598 9.551648e-06 -9.2916755e-26)
(-0.012202696 8.5456129e-06 -9.7276519e-26)
(-0.012678733 7.8387977e-06 -7.8743915e-26)
(-0.013121686 7.20435e-06 5.5829672e-26)
(-0.013529323 6.709951e-06 8.1116933e-27)
(-0.013909649 6.1946221e-06 1.3778245e-26)
(-0.014262165 5.7670885e-06 -5.3575117e-26)
(-0.01459225 5.3936809e-06 -1.5442578e-26)
(-0.014900823 5.0714536e-06 4.6351097e-26)
(-0.015190092 4.7298059e-06 -7.0867308e-26)
(-0.015460806 4.4317292e-06 4.7127465e-26)
(-0.015714785 4.154545e-06 2.7100404e-25)
(-0.015952943 3.9071225e-06 -2.0781807e-25)
(-0.016176078 3.649713e-06 -1.0183467e-25)
(-0.016384753 3.4122617e-06 5.2618399e-25)
(-0.016579685 3.1853825e-06 -3.943922e-25)
(-0.016761355 2.9674081e-06 2.7674774e-25)
(-0.016930113 2.7493212e-06 -1.8331886e-25)
(-0.01708629 2.5393858e-06 -1.0091955e-25)
(-0.01723026 2.3391049e-06 3.8201128e-25)
(-0.017362293 2.1405209e-06 4.6313857e-25)
(-0.017482595 1.9444854e-06 -1.6953076e-24)
(-0.017591509 1.7609907e-06 1.3303393e-24)
(-0.017689186 1.5709162e-06 -3.6887756e-25)
(-0.017775912 1.3931065e-06 -1.2750086e-24)
(-0.017851978 1.2116343e-06 5.4063195e-25)
(-0.017917561 1.0395354e-06 1.8552532e-24)
(-0.017972954 8.6677021e-07 -3.3909587e-25)
(-0.018018265 6.9818487e-07 -5.2969928e-25)
(-0.01805374 5.3337884e-07 -4.6292676e-25)
(-0.018079554 3.6992449e-07 -5.2168633e-25)
(-0.018095745 2.0811556e-07 1.0843264e-24)
(-0.018102525 4.8523433e-08 -5.5081995e-25)
(-0.018100173 -1.0391194e-07 -7.9158535e-25)
(-0.018088827 -2.5271023e-07 1.2602679e-24)
(-0.018068536 -4.0059393e-07 -6.5337583e-25)
(-0.018039612 -5.3946262e-07 -7.185267e-25)
(-0.018002381 -6.7961419e-07 7.0459568e-25)
(-0.017956997 -8.1350749e-07 1.2217318e-24)
(-0.017903547 -9.479487e-07 1.5584498e-25)
(-0.017842273 -1.0735751e-06 -1.0370283e-24)
(-0.017773513 -1.1986891e-06 -8.6580094e-25)
(-0.017697453 -1.3184046e-06 2.8476708e-24)
(-0.017614224 -1.438455e-06 -4.5098821e-24)
(-0.017524075 -1.5522427e-06 3.8272862e-24)
(-0.017427183 -1.6642598e-06 -3.2776979e-24)
(-0.017323812 -1.776166e-06 1.2949496e-24)
(-0.017213666 -1.8847726e-06 6.1295431e-25)
(-0.017097194 -1.9809643e-06 1.5733194e-25)
(-0.016975441 -2.0726133e-06 -1.1376443e-24)