0.448113 	3.64088e-09 	2.87093e-10 	6.20866e-26 	1.379e-09 	1.02478e-25 	2.50931e-09
0.449383 	4.33526e-07 	3.41613e-08 	7.35221e-24 	1.64191e-07 	1.21813e-23 	2.98784e-07
0.452176 	1.23144e-06 	9.6682e-08 	1.63301e-24 	4.6622e-07 	5.90212e-24 	8.48695e-07
0.455479 	1.9024e-06 	1.4803e-07 	-2.23502e-23 	7.19618e-07 	-2.40301e-23 	1.31106e-06
0.459224 	2.41349e-06 	1.84441e-07 	-1.06247e-23 	9.11685e-07 	-1.57415e-23 	1.66287e-06
0.463359 	2.76635e-06 	2.03448e-07 	2.02914e-23 	1.04233e-06 	6.0259e-24 	1.90479e-06
0.467844 	2.99773e-06 	2.04171e-07 	-4.78976e-23 	1.1247e-06 	8.3704e-23 	2.06155e-06
0.472646 	3.14752e-06 	1.88428e-07 	-8.65671e-23 	1.17891e-06 	-1.90909e-23 	2.16267e-06
0.477744 	3.21901e-06 	1.60836e-07 	2.01892e-23 	1.25199e-06 	-9.02307e-23 	2.23436e-06
0.483125 	3.21336e-06 	1.29668e-07 	8.45792e-23 	1.37913e-06 	-7.28783e-23 	2.29598e-06
0.488779 	3.22068e-06 	1.0783e-07 	8.96688e-23 	1.49311e-06 	-3.39216e-23 	2.35721e-06
0.494703 	3.24267e-06 	8.96348e-08 	-3.74859e-23 	1.59733e-06 	-1.35997e-23 	2.42007e-06
0.500897 	3.26387e-06 	7.01077e-08 	2.05239e-22 	1.70591e-06 	-1.61786e-22 	2.48477e-06
0.507363 	3.28436e-06 	4.89574e-08 	3.05195e-23 	1.81909e-06 	1.03161e-22 	2.55159e-06
0.514105 	3.30446e-06 	2.61705e-08 	-1.8298e-22 	1.93753e-06 	1.24137e-22 	2.62088e-06
0.521128 	3.32457e-06 	1.62685e-09 	-4.03974e-25 	2.0619e-06 	-1.01394e-22 	2.69305e-06
0.52844 	3.34493e-06 	-2.51074e-08 	1.61381e-22 	2.19261e-06 	-3.44135e-23 	2.76858e-06
0.536045 	3.36613e-06 	-5.42693e-08 	-1.95749e-22 	2.33028e-06 	2.53255e-22 	2.84804e-06
0.543953 	3.38873e-06 	-8.61681e-08 	-2.03367e-22 	2.47588e-06 	2.88515e-23 	2.9321e-06
0.552171 	3.41324e-06 	-1.21364e-07 	9.51417e-23 	2.63028e-06 	-1.71221e-22 	3.02154e-06
0.560708 	3.44051e-06 	-1.6035e-07 	2.04034e-22 	2.79449e-06 	-2.32081e-23 	3.11724e-06
0.56957 	3.47163e-06 	-2.03725e-07 	-2.05902e-22 	2.96958e-06 	2.59987e-22 	3.22028e-06
0.578767 	3.50761e-06 	-2.52387e-07 	-1.73705e-22 	3.15685e-06 	-2.33697e-23 	3.33191e-06
0.588306 	3.54988e-06 	-3.07176e-07 	1.14656e-22 	3.35806e-06 	-2.86363e-22 	3.45366e-06
0.598196 	3.60035e-06 	-3.69067e-07 	3.82138e-22 	3.57503e-06 	-2.85753e-22 	3.58734e-06
0.608446 	3.66115e-06 	-4.39325e-07 	1.65383e-22 	3.81004e-06 	7.40824e-23 	3.73517e-06
0.619062 	3.73483e-06 	-5.19513e-07 	-9.87133e-23 	4.06593e-06 	2.22583e-22 	3.89988e-06
0.630053 	3.82482e-06 	-6.11309e-07 	-3.00956e-22 	4.34593e-06 	6.82925e-23 	4.08485e-06
0.641426 	3.93528e-06 	-7.16659e-07 	2.44498e-22 	4.65449e-06 	-1.83629e-22 	4.29433e-06
0.653189 	4.0713e-06 	-8.37856e-07 	-1.60486e-22 	4.99726e-06 	3.97734e-22 	4.53368e-06
0.665349 	4.23953e-06 	-9.77359e-07 	-2.64594e-22 	5.38134e-06 	2.14286e-23 	4.80974e-06
0.677913 	4.44823e-06 	-1.13775e-06 	4.03239e-23 	5.81564e-06 	-3.15113e-22 	5.13109e-06
0.690887 	4.70684e-06 	-1.32206e-06 	2.39686e-22 	6.3094e-06 	-9.55021e-23 	5.50723e-06
0.704278 	5.02362e-06 	-1.53566e-06 	-3.57655e-23 	6.87114e-06 	1.26352e-22 	5.94649e-06
0.718091 	5.40739e-06 	-1.78601e-06 	5.22671e-24 	7.50937e-06 	-1.23695e-22 	6.45743e-06
0.732332 	5.87032e-06 	-2.08029e-06 	5.99063e-23 	8.23366e-06 	1.47671e-22 	7.05097e-06
0.747006 	6.42641e-06 	-2.42659e-06 	-3.5453e-23 	9.05447e-06 	1.04856e-22 	7.73948e-06
0.762118 	7.08695e-06 	-2.8341e-06 	-1.46771e-24 	9.97613e-06 	-1.57417e-23 	8.53082e-06
0.777673 	7.86136e-06 	-3.31116e-06 	4.06529e-23 	1.09961e-05 	-1.76289e-24 	9.42789e-06
0.793673 	8.75305e-06 	-3.87006e-06 	-3.70535e-23 	1.21043e-05 	-8.49632e-23 	1.04304e-05
0.810125 	9.7668e-06 	-4.52619e-06 	5.61629e-23 	1.32906e-05 	-4.86404e-23 	1.15341e-05
0.827029 	1.09037e-05 	-5.28768e-06 	-3.14934e-22 	1.45516e-05 	-5.13535e-23 	1.27275e-05
0.84439 	1.21333e-05 	-6.11379e-06 	1.7038e-22 	1.58701e-05 	1.57811e-22 	1.39939e-05
0.862209 	1.34506e-05 	-6.80959e-06 	1.43596e-22 	1.71914e-05 	-6.5416e-24 	1.53193e-05
0.88049 	1.47979e-05 	-7.50402e-06 	8.84064e-23 	1.85341e-05 	-3.14977e-23 	1.66687e-05
0.899233 	1.61421e-05 	-8.16689e-06 	8.07952e-23 	1.98112e-05 	-4.5055e-23 	1.79766e-05
0.918439 	1.74203e-05 	-8.77357e-06 	-2.4502e-22 	2.09396e-05 	3.50584e-23 	1.91798e-05
0.938111 	1.85739e-05 	-9.30595e-06 	3.7476e-22 	2.18597e-05 	-6.54231e-23 	2.02167e-05
0.958248 	1.95559e-05 	-9.7396e-06 	-1.23678e-21 	2.25255e-05 	6.58298e-23 	2.104e-05
0.97885 	2.03383e-05 	-1.0053e-05 	8.61222e-22 	2.29164e-05 	6.27705e-24 	2.16263e-05
0.999917 	2.09157e-05 	-1.02451e-05 	-9.91863e-22 	2.30418e-05 	-1.46647e-23 	2.19786e-05
1.02145 	2.13078e-05 	-1.03283e-05 	-2.83671e-22 	2.29358e-05 	7.41078e-23 	2.21217e-05
1.04344 	2.15456e-05 	-1.03231e-05 	4.31698e-22 	2.26423e-05 	1.60828e-23 	2.20975e-05
1.06589 	2.16763e-05 	-1.0254e-05 	1.13591e-21 	2.22276e-05 	-1.0494e-22 	2.19552e-05
1.08881 	2.17276e-05 	-1.01342e-05 	-1.80894e-21 	2.1775e-05 	1.05872e-22 	2.17432e-05
1.11217 	2.16691e-05 	-9.74332e-06 	3.68418e-21 	2.13384e-05 	-6.03502e-23 	2.14983e-05
1.13599 	2.1523e-05 	-9.18069e-06 	2.26494e-21 	2.09621e-05 	-2.04739e-22 	2.12476e-05
1.16025 	2.1361e-05 	-8.69236e-06 	-2.59827e-21 	2.0651e-05 	1.18957e-25 	2.10086e-05
1.18495 	2.11992e-05 	-8.26514e-06 	-3.25242e-21 	2.038e-05 	1.75039e-22 	2.07884e-05
1.21008 	2.10339e-05 	-7.9059e-06 	1.13857e-21 	2.01417e-05 	5.02601e-23 	2.0587e-05
1.23564 	2.08652e-05 	-7.61285e-06 	2.17166e-21 	1.99362e-05 	-1.18604e-22 	2.04002e-05
1.26161 	2.06914e-05 	-7.38295e-06 	-2.79692e-21 	1.9751e-05 	3.93861e-23 	2.02211e-05
1.288 	2.05132e-05 	-7.20996e-06 	-6.87295e-22 	1.95708e-05 	4.40516e-23 	2.00419e-05
1.31477 	2.03285e-05 	-7.08338e-06 	-1.18878e-21 	1.93811e-05 	5.03382e-23 	1.98546e-05
1.34193 	2.01337e-05 	-6.99224e-06 	1.14021e-21 	1.91703e-05 	-4.76097e-24 	1.96518e-05
1.36946 	1.99249e-05 	-6.92203e-06 	1.12852e-21 	1.89297e-05 	-4.25432e-23 	1.94274e-05
1.39735 	1.9699e-05 	-6.85992e-06 	-3.55973e-23 	1.86541e-05 	-9.24906e-24 	1.91766e-05
1.42558 	1.9451e-05 	-6.79369e-06 	4.04862e-22 	1.83409e-05 	-2.46085e-23 	1.88959e-05
1.45413 	1.9178e-05 	-6.713e-06 	-1.60863e-21 	1.799e-05 	2.32131e-23 	1.85836e-05
1.48298 	1.88748e-05 	-6.61251e-06 	-6.1122e-22 	1.76034e-05 	6.47132e-23 	1.82389e-05
1.51211 	1.8541e-05 	-6.48599e-06 	4.48466e-21 	1.71842e-05 	-9.44173e-23 	1.78627e-05
1.54151 	1.81767e-05 	-6.32909e-06 	-1.33359e-21 	1.67368e-05 	4.53696e-25 	1.74566e-05
1.57115 	1.77804e-05 	-6.14291e-06 	1.72582e-21 	1.62659e-05 	-7.05256e-23 	1.70232e-05
1.60101 	1.73544e-05 	-5.92679e-06 	-6.45244e-21 	1.57767e-05 	1.35497e-22 	1.65658e-05
1.63106 	1.69026e-05 	-5.68191e-06 	5.26548e-21 	1.52748e-05 	-2.8704e-23 	1.60884e-05
1.66127 	1.64258e-05 	-5.41315e-06 	7.84887e-22 	1.47651e-05 	-7.15803e-23 	1.55953e-05
1.69162 	1.59294e-05 	-5.12445e-06 	-2.559e-21 	1.42526e-05 	9.08161e-24 	1.50909e-05
1.72209 	1.54183e-05 	-4.81742e-06 	-2.94064e-21 	1.37418e-05 	1.10384e-22 	1.458e-05
1.75264 	1.48972e-05 	-4.49768e-06 	7.14006e-21 	1.32371e-05 	-8.09061e-23 	1.4067e-05
1.78325 	1.43711e-05 	-4.16975e-06 	-1.47226e-21 	1.27425e-05 	-5.20088e-23 	1.35567e-05
1.81388 	1.3846e-05 	-3.83581e-06 	-2.83113e-21 	1.22619e-05 	5.87435e-23 	1.30536e-05
1.84451 	1.3325e-05 	-3.50091e-06 	2.60445e-21 	1.17982e-05 	-1.75034e-23 	1.25617e-05
1.8751 	1.28143e-05 	-3.16729e-06 	-1.47888e-21 	1.13539e-05 	-6.32712e-24 	1.20842e-05
1.90563 	1.2317e-05 	-2.83745e-06 	-7.66336e-22 	1.09293e-05 	1.06735e-23 	1.16229e-05
1.93607 	1.18339e-05 	-2.51355e-06 	-9.63084e-22 	1.05241e-05 	2.53966e-23 	1.11789e-05
1.96638 	1.13685e-05 	-2.1977e-06 	2.00803e-21 	1.01396e-05 	-2.23001e-25 	1.07541e-05
1.99654 	1.09243e-05 	-1.89126e-06 	1.79439e-21 	9.77752e-06 	-4.01501e-23 	1.0351e-05
2.02651 	1.05035e-05 	-1.59349e-06 	-2.35842e-21 	9.43865e-06 	6.89705e-24 	9.97115e-06
2.05627 	1.01074e-05 	-1.30512e-06 	3.27678e-24 	9.12335e-06 	1.47893e-23 	9.61538e-06
2.08579 	9.73715e-06 	-1.02628e-06 	8.84305e-23 	8.83149e-06 	7.85375e-24 	9.28412e-06
2.11504 	9.39261e-06 	-7.57056e-07 	1.38764e-21 	8.56306e-06 	-1.608e-23 	8.97776e-06
2.144 	9.07524e-06 	-4.96845e-07 	-1.16601e-21 	8.31795e-06 	-6.04949e-24 	8.69645e-06
2.17264 	8.78468e-06 	-2.45102e-07 	-7.99679e-22 	8.09592e-06 	1.78155e-23 	8.44022e-06
2.20093 	8.52134e-06 	-1.75798e-09 	1.24949e-21 	7.89691e-06 	-5.80166e-24 	8.20913e-06
2.22885 	8.28507e-06 	2.34268e-07 	-7.53349e-22 	7.72071e-06 	-5.9896e-25 	8.00302e-06
2.25639 	8.07636e-06 	4.63645e-07 	4.25343e-22 	7.5673e-06 	-1.45846e-24 	7.82186e-06
2.28351 	7.89449e-06 	6.86814e-07 	-5.36033e-22 	7.43653e-06 	4.85786e-24 	7.66551e-06
2.3102 	7.7394e-06 	9.04114e-07 	9.44713e-22 	7.32842e-06 	-7.18176e-24 	7.53387e-06
2.33644 	7.61059e-06 	1.11513e-06 	-9.14778e-22 	7.24283e-06 	-1.08855e-24 	7.42671e-06
2.36222 	7.50782e-06 	1.32081e-06 	-2.35613e-23 	7.17962e-06 	9.13717e-24 	7.34377e-06
2.38752 	7.43073e-06 	1.52125e-06 	7.49507e-22 	7.13865e-06 	-5.19037e-24 	7.28477e-06
2.41232 	7.37883e-06 	1.71602e-06 	-4.52979e-22 	7.11963e-06 	1.12035e-24 	7.24931e-06
2.43662 	7.35147e-06 	1.90516e-06 	5.86189e-22 	7.12212e-06 	-7.89704e-25 	7.23681e-06
2.4604 	7.34755e-06 	2.08894e-06 	-1.69863e-22 	7.14555e-06 	-3.98526e-24 	7.24658e-06
2.48366 	7.36627e-06 	2.26749e-06 	-3.50353e-22 	7.18917e-06 	5.22448e-25 	7.27772e-06
2.50638 	7.40648e-06 	2.43999e-06 	-3.00596e-22 	7.25199e-06 	5.86165e-24 	7.32919e-06
2.52857 	7.46667e-06 	2.60648e-06 	5.38706e-22 	7.33291e-06 	3.87971e-26 	7.39972e-06
2.55021 	7.54515e-06 	2.76645e-06 	7.89727e-23 	7.43057e-06 	-2.13185e-24 	7.48789e-06
2.5713 	7.64064e-06 	2.92029e-06 	1.56568e-22 	7.5434e-06 	-1.82216e-24 	7.59203e-06
2.59184 	7.75105e-06 	3.06776e-06 	-1.72675e-22 	7.66973e-06 	-2.75852e-24 	7.71039e-06
2.61184 	7.87449e-06 	3.20846e-06 	-4.71763e-22 	7.80779e-06 	5.91939e-24 	7.84113e-06
2.63128 	8.00893e-06 	3.34244e-06 	5.79455e-22 	7.95564e-06 	-1.17729e-24 	7.98228e-06
2.65017 	8.15246e-06 	3.4694e-06 	-2.04183e-22 	8.11137e-06 	-3.00594e-24 	8.13191e-06
2.66852 	8.30328e-06 	3.5896e-06 	-6.18969e-23 	8.27308e-06 	1.56048e-24 	8.28815e-06
2.68633 	8.45947e-06 	3.70306e-06 	4.48378e-23 	8.43893e-06 	1.11313e-24 	8.44917e-06
2.7036 	8.61956e-06 	3.81002e-06 	1.35341e-22 	8.6072e-06 	-8.3125e-25 	8.61337e-06
2.72034 	8.78227e-06 	3.91092e-06 	-1.58252e-23 	8.77641e-06 	-2.24832e-24 	8.77935e-06
2.73655 	8.9466e-06 	4.00604e-06 	-2.3653e-22 	8.9453e-06 	1.91543e-24 	8.94597e-06
2.75225 	9.11188e-06 	4.09623e-06 	1.23665e-22 	9.1129e-06 	1.8039e-24 	9.11239e-06
2.76743 	9.27765e-06 	4.18255e-06 	1.20084e-22 	9.27857e-06 	-1.43638e-24 	9.27808e-06
2.78211 	9.44371e-06 	4.26573e-06 	-2.87261e-23 	9.44204e-06 	1.24094e-25 	9.44285e-06
2.79629 	9.61025e-06 	4.34679e-06 	1.07931e-22 	9.60335e-06 	-1.11342e-25 	9.60677e-06
2.80999 	9.77755e-06 	4.42671e-06 	2.23535e-23 	9.76285e-06 	-2.33449e-24 	9.77017e-06
2.82322 	9.94611e-06 	4.50646e-06 	-2.01772e-22 	9.92115e-06 	2.63923e-25 	9.93359e-06
2.83598 	1.01165e-05 	4.58714e-06 	-5.44653e-23 	1.00791e-05 	1.35493e-24 	1.00978e-05
2.84828 	1.02894e-05 	4.66995e-06 	-3.33481e-23 	1.02377e-05 	1.50001e-24 	1.02635e-05
2.86014 	1.04656e-05 	4.75575e-06 	1.13036e-22 	1.03981e-05 	7.3329e-26 	1.04319e-05
2.87157 	1.06458e-05 	4.84463e-06 	4.28728e-23 	1.05616e-05 	-1.28164e-24 	1.06037e-05
2.88258 	1.08307e-05 	4.93679e-06 	-3.30405e-23 	1.07291e-05 	-6.59853e-25 	1.07799e-05
2.89317 	1.10207e-05 	5.03264e-06 	-5.20712e-23 	1.0902e-05 	5.71548e-25 	1.09614e-05
2.90336 	1.12164e-05 	5.13221e-06 	8.27128e-24 	1.10811e-05 	4.31379e-25 	1.11488e-05
2.91317 	1.14179e-05 	5.23504e-06 	7.11605e-24 	1.12673e-05 	-3.05243e-25 	1.13426e-05
2.9226 	1.16251e-05 	5.34115e-06 	-1.83551e-23 	1.14609e-05 	3.55436e-25 	1.1543e-05
2.93166 	1.18381e-05 	5.45047e-06 	2.57326e-23 	1.16616e-05 	-6.39013e-27 	1.17499e-05
2.94037 	1.2057e-05 	5.55922e-06 	-2.4998e-24 	1.1869e-05 	-7.06588e-25 	1.19631e-05
2.94873 	1.22807e-05 	5.66349e-06 	-3.35372e-23 	1.20822e-05 	1.12281e-25 	1.21815e-05
2.95675 	1.25063e-05 	5.76636e-06 	-6.32462e-24 	1.22993e-05 	6.21024e-25 	1.24028e-05
2.96446 	1.27287e-05 	5.86872e-06 	1.33455e-23 	1.25172e-05 	9.38622e-26 	1.2623e-05
2.97185 	1.29415e-05 	5.96776e-06 	5.22322e-24 	1.27303e-05 	-2.92367e-25 	1.28359e-05
2.97893 	1.31368e-05 	6.05991e-06 	-4.49928e-24 	1.29311e-05 	-7.63773e-26 	1.3034e-05
2.98571 	1.33056e-05 	6.14093e-06 	-1.3299e-24 	1.31104e-05 	1.04267e-25 	1.3208e-05
2.99221 	1.34373e-05 	6.20588e-06 	1.28756e-24 	1.32574e-05 	5.24319e-26 	1.33474e-05
2.99843 	1.35196e-05 	6.24878e-06 	1.22244e-24 	1.33591e-05 	1.17975e-26 	1.34393e-05
3.00436 	1.35357e-05 	6.26172e-06 	1.25338e-24 	1.33981e-05 	-2.54923e-26 	1.34669e-05
3.01002 	1.34602e-05 	6.23262e-06 	2.1193e-25 	1.3348e-05 	-2.90225e-26 	1.3404e-05
3.01541 	1.32463e-05 	6.13948e-06 	-5.00029e-26 	1.31609e-05 	-6.50219e-27 	1.32035e-05
3.02051 	1.27943e-05 	5.93559e-06 	2.31643e-26 	1.27356e-05 	-1.14845e-26 	1.27649e-05
3.02532 	1.18596e-05 	5.50666e-06 	-1.24071e-25 	1.18252e-05 	-1.89826e-27 	1.18424e-05
3.02915 	1.0212e-05 	4.74439e-06 	-5.24269e-26 	1.01942e-05 	9.2638e-27 	1.0203e-05
3.03133 	8.74243e-06 	4.06288e-06 	4.12316e-27 	8.73238e-06 	5.6964e-27 	8.73739e-06
