0.00102579 	-0.000374743 	-5.06384e-07 	-3.30258e-26
0.00322814 	-0.000858808 	-2.36822e-06 	-5.68882e-26
0.00581393 	-0.00100671 	-5.67512e-06 	-4.1865e-26
0.00789695 	-0.00105279 	-8.64463e-06 	-3.55705e-26
0.00944146 	-0.00106954 	-1.08921e-05 	-3.43532e-26
0.0119756 	-0.00108877 	-1.4655e-05 	-6.88969e-26
0.0154863 	-0.00110684 	-2.00258e-05 	2.19272e-26
0.0192532 	-0.0011223 	-2.59933e-05 	1.95661e-25
0.0232626 	-0.0011372 	-3.24962e-05 	4.62601e-26
0.0275065 	-0.00115202 	-3.94497e-05 	3.99901e-26
0.0319813 	-0.00116669 	-4.68293e-05 	1.5637e-25
0.0366872 	-0.00118108 	-5.46614e-05 	-4.16837e-25
0.0416269 	-0.00119501 	-6.2971e-05 	4.04493e-27
0.0468052 	-0.00120834 	-7.17752e-05 	9.46917e-25
0.0522283 	-0.00122089 	-8.10925e-05 	3.37497e-26
0.057904 	-0.00123248 	-9.09444e-05 	-1.33157e-24
0.0638408 	-0.00124291 	-0.000101354 	-1.8075e-24
0.0700481 	-0.00125196 	-0.000112348 	-4.77137e-25
0.0765359 	-0.0012594 	-0.000123952 	1.66666e-24
0.0833147 	-0.00126495 	-0.000136195 	2.63691e-24
0.0903958 	-0.00126833 	-0.000149106 	9.85743e-26
0.0977906 	-0.0012692 	-0.000162715 	-2.67395e-24
0.105511 	-0.00126723 	-0.000177055 	-1.49046e-24
0.11357 	-0.00126202 	-0.000192157 	-4.75452e-25
0.121979 	-0.00125316 	-0.000208056 	3.65865e-24
0.130752 	-0.00124017 	-0.000224786 	5.73836e-24
0.139902 	-0.00122256 	-0.000242381 	-4.77738e-24
0.149443 	-0.00119977 	-0.000260879 	-7.78396e-24
0.159388 	-0.0011712 	-0.000280316 	-6.63677e-25
0.169752 	-0.00113621 	-0.000300729 	5.20114e-24
0.180549 	-0.0010941 	-0.000322156 	7.80235e-24
0.191793 	-0.0010441 	-0.000344635 	1.55274e-24
0.2035 	-0.000985417 	-0.000368204 	-4.9693e-24
0.215683 	-0.000917163 	-0.000392901 	-2.03065e-24
0.228358 	-0.000838406 	-0.000418763 	4.8352e-24
0.24154 	-0.00074815 	-0.000445826 	-1.29665e-23
0.255244 	-0.000645331 	-0.000474126 	-2.07966e-23
0.269485 	-0.000528822 	-0.000503695 	1.32552e-23
0.284277 	-0.000397428 	-0.000534565 	1.70544e-23
0.299635 	-0.000249892 	-0.000566762 	-9.79033e-24
0.315573 	-8.489e-05 	-0.00060031 	-7.7146e-24
0.332106 	9.89652e-05 	-0.000635227 	1.44222e-23
0.349247 	0.000303122 	-0.000671525 	2.03455e-23
0.36701 	0.000529089 	-0.000709209 	-1.00694e-23
0.385408 	0.000778431 	-0.000748275 	-1.80393e-23
0.404452 	0.00105276 	-0.000788708 	-1.49355e-23
0.424154 	0.00135374 	-0.00083048 	6.88281e-24
0.444525 	0.00168307 	-0.000873552 	4.4169e-23
0.465576 	0.00204246 	-0.000917866 	1.19369e-23
0.487314 	0.00243391 	-0.000963336 	-1.34742e-23
0.509747 	0.0028618 	-0.00100998 	-2.91002e-23
0.532883 	0.00333552 	-0.00105815 	-1.68438e-24
0.556727 	0.00386554 	-0.00110815 	1.02304e-22
0.581282 	0.00445651 	-0.00115968 	1.66743e-23
0.606552 	0.00510683 	-0.00121202 	-1.01032e-22
0.632537 	0.00581197 	-0.00126429 	-8.47062e-23
0.659237 	0.00656716 	-0.00131566 	-3.86318e-23
0.686649 	0.00736861 	-0.00136542 	2.7601e-23
0.714769 	0.00821343 	-0.00141295 	7.81567e-23
0.74359 	0.0090989 	-0.00145767 	5.82082e-24
0.773106 	0.0100215 	-0.00149905 	3.24091e-23
0.803305 	0.0109762 	-0.00153656 	2.68235e-25
0.834175 	0.0119564 	-0.00156971 	1.66296e-23
0.865702 	0.0129536 	-0.00159807 	3.17921e-23
0.897869 	0.013958 	-0.00162133 	-4.04292e-23
0.930657 	0.0149594 	-0.00163935 	-2.16076e-23
0.964045 	0.0159472 	-0.00165211 	-9.46536e-24
0.998011 	0.0169116 	-0.0016598 	-5.29878e-23
1.03253 	0.0178442 	-0.00166272 	9.30016e-23
1.06757 	0.0187383 	-0.00166129 	-5.90851e-24
1.10311 	0.0195891 	-0.00165602 	6.45078e-23
1.13911 	0.0203939 	-0.00164738 	-2.65377e-23
1.17554 	0.0211517 	-0.00163587 	-1.54102e-22
1.21236 	0.0218629 	-0.00162191 	1.70379e-22
1.24955 	0.0225289 	-0.00160586 	1.2837e-22
1.28705 	0.0231522 	-0.00158795 	-9.86089e-23
1.32484 	0.0237363 	-0.0015682 	-1.24171e-22
1.36287 	0.024286 	-0.00154644 	1.6332e-23
1.4011 	0.0248048 	-0.00152272 	8.06088e-23
1.43948 	0.0252935 	-0.00149733 	2.21253e-23
1.47798 	0.025752 	-0.00147075 	3.16264e-23
1.51655 	0.0261806 	-0.0014434 	-6.7482e-23
1.55514 	0.02658 	-0.00141555 	-3.12751e-23
1.59372 	0.0269511 	-0.00138741 	-6.45671e-25
1.63224 	0.027295 	-0.0013591 	-8.18357e-23
1.67066 	0.0276127 	-0.00133069 	4.49756e-24
1.70892 	0.0279054 	-0.00130221 	4.57087e-23
1.747 	0.0281742 	-0.00127367 	-4.11866e-23
1.78485 	0.0284202 	-0.00124509 	5.75127e-23
1.82243 	0.0286447 	-0.00121645 	-9.26221e-24
1.8597 	0.0288486 	-0.00118777 	-2.8713e-23
1.89663 	0.0290329 	-0.00115907 	-1.57338e-23
1.93317 	0.0291981 	-0.00113036 	-3.66559e-23
1.9693 	0.0293449 	-0.00110168 	3.51098e-23
2.00498 	0.0294737 	-0.00107306 	3.00431e-24
2.04017 	0.0295847 	-0.00104454 	-1.05914e-23
2.07486 	0.0296782 	-0.00101616 	1.97298e-23
2.10902 	0.0297542 	-0.000987949 	1.02678e-23
2.14261 	0.0298129 	-0.000959945 	-2.59475e-23
2.17562 	0.0298543 	-0.00093218 	-1.62584e-23
2.20803 	0.0298783 	-0.000904679 	1.73766e-23
2.23981 	0.0298849 	-0.000877467 	5.51875e-23
2.27095 	0.0298741 	-0.000850561 	2.73545e-23
2.30144 	0.0298456 	-0.000823974 	-8.25583e-23
2.33126 	0.0297992 	-0.000797715 	1.04341e-23
2.3604 	0.029735 	-0.000771788 	8.67474e-23
2.38885 	0.0296526 	-0.000746191 	-2.33146e-23
2.41662 	0.0295519 	-0.00072092 	-3.97861e-23
2.44368 	0.0294327 	-0.000695966 	-6.97575e-24
2.47004 	0.0292949 	-0.000671315 	-1.92466e-23
2.4957 	0.0291383 	-0.000646953 	1.30596e-23
2.52065 	0.0289627 	-0.00062286 	1.02639e-23
2.54491 	0.0287682 	-0.000599016 	-3.60731e-23
2.56846 	0.0285544 	-0.000575399 	-2.6585e-24
2.59133 	0.0283213 	-0.000551986 	2.75336e-23
2.6135 	0.0280687 	-0.000528756 	-2.62577e-23
2.63499 	0.0277964 	-0.000505687 	-8.96349e-24
2.65581 	0.0275042 	-0.000482763 	3.71017e-23
2.67596 	0.0271917 	-0.000459969 	-2.38075e-23
2.69545 	0.0268588 	-0.000437299 	-4.071e-24
2.7143 	0.0265053 	-0.000414751 	6.56669e-25
2.73252 	0.0261306 	-0.000392333 	-1.65393e-23
2.75011 	0.0257347 	-0.000370061 	1.30362e-23
2.7671 	0.0253172 	-0.000347959 	2.49082e-23
2.78349 	0.024878 	-0.000326065 	-2.46093e-24
2.79929 	0.0244158 	-0.000304402 	-1.14422e-23
2.81452 	0.0239278 	-0.000282927 	-7.24837e-25
2.8292 	0.0234104 	-0.000261583 	2.75114e-24
2.84334 	0.0228623 	-0.000240399 	2.19826e-25
2.85694 	0.0222839 	-0.000219477 	3.59497e-24
2.87004 	0.0216772 	-0.00019896 	2.04443e-23
2.88263 	0.0210442 	-0.000179005 	7.58061e-24
2.89474 	0.0203872 	-0.000159768 	-6.68473e-24
2.90637 	0.0197081 	-0.000141394 	3.66628e-24
2.91755 	0.0190088 	-0.000124011 	1.53981e-25
2.92828 	0.0182907 	-0.00010773 	-1.76551e-23
2.93857 	0.0175544 	-9.26452e-05 	-8.92643e-24
2.94845 	0.0168 	-7.88216e-05 	7.26599e-24
2.95791 	0.0160258 	-6.6273e-05 	7.63301e-25
2.96697 	0.0152278 	-5.49527e-05 	-7.97747e-26
2.97563 	0.0144004 	-4.47888e-05 	3.76841e-26
2.98389 	0.0135375 	-3.57217e-05 	-2.81557e-24
2.99176 	0.0126332 	-2.77226e-05 	4.81029e-25
2.99923 	0.0116801 	-2.07875e-05 	6.10734e-24
3.00628 	0.0106638 	-1.49174e-05 	2.10077e-24
3.01289 	0.0095538 	-1.0096e-05 	-3.15647e-24
3.01902 	0.00829405 	-6.28836e-06 	-1.03352e-24
3.02273 	0.00737875 	-4.2915e-06 	-3.35388e-25
3.02539 	0.00654601 	-3.10234e-06 	-9.08491e-25
