0.00102579 	-0.000353617 	1.05567e-06 	1.58071e-23
0.00227828 	-0.000760286 	2.48276e-06 	3.08729e-23
0.0035979 	-0.00103763 	4.42372e-06 	2.70828e-23
0.00628381 	-0.00146499 	9.07421e-06 	1.92117e-23
0.0097908 	-0.00179979 	1.61489e-05 	4.45572e-23
0.0138067 	-0.00201235 	2.46622e-05 	-1.42401e-23
0.0182759 	-0.0021449 	3.39351e-05 	-6.67576e-23
0.0231526 	-0.00223552 	4.37622e-05 	5.8755e-23
0.0284024 	-0.00230963 	5.45076e-05 	7.41894e-23
0.0340013 	-0.00237892 	6.64062e-05 	6.01991e-23
0.0399337 	-0.00244575 	7.92865e-05 	7.63683e-23
0.0461911 	-0.00250971 	9.30187e-05 	-1.05486e-22
0.0527704 	-0.00257038 	0.000107571 	-1.47077e-22
0.0596722 	-0.00262744 	0.000122886 	1.12616e-22
0.0669001 	-0.00268059 	0.00013889 	-8.12383e-24
0.0744602 	-0.0027296 	0.000155513 	-3.26728e-22
0.0823599 	-0.00277424 	0.000172684 	-3.27229e-22
0.0906081 	-0.00281432 	0.00019033 	-5.94886e-23
0.0992145 	-0.00284961 	0.000208381 	6.99305e-22
0.108189 	-0.0028799 	0.000226763 	1.22132e-22
0.117544 	-0.00290499 	0.000245401 	1.44157e-22
0.127289 	-0.00292464 	0.000264217 	-5.57392e-22
0.137436 	-0.00293862 	0.000283132 	-3.78824e-22
0.147997 	-0.00294665 	0.000302061 	-1.35429e-22
0.158985 	-0.00294848 	0.000320918 	1.5307e-22
0.17041 	-0.0029438 	0.00033961 	2.49662e-22
0.182286 	-0.00293229 	0.000358039 	7.03729e-23
0.194623 	-0.0029136 	0.0003761 	-1.88612e-22
0.207435 	-0.00288734 	0.000393677 	-1.03111e-21
0.220732 	-0.0028531 	0.00041065 	8.96592e-22
0.234527 	-0.00281042 	0.000426881 	-5.4369e-22
0.248831 	-0.00275878 	0.000442222 	9.72578e-23
0.263656 	-0.00269762 	0.00045651 	4.55428e-22
0.279011 	-0.00262634 	0.000469561 	8.81697e-22
0.294908 	-0.00254423 	0.000481173 	3.62707e-22
0.311357 	-0.00245052 	0.000491118 	-2.80017e-22
0.328368 	-0.00234435 	0.000499144 	-6.93022e-23
0.34595 	-0.00222475 	0.000504969 	-1.82989e-21
0.364111 	-0.0020906 	0.000508279 	2.08194e-21
0.38286 	-0.00194064 	0.000508728 	-1.28774e-21
0.402204 	-0.00177339 	0.000505933 	-6.85637e-22
0.422149 	-0.00158715 	0.000499478 	1.1272e-21
0.442701 	-0.00137991 	0.000488916 	2.68269e-22
0.463865 	-0.00114929 	0.00047378 	-5.96307e-22
0.485646 	-0.000892431 	0.000453604 	2.92914e-21
0.508046 	-0.000605919 	0.000427953 	-3.03038e-21
0.531067 	-0.000285645 	0.000396454 	7.44865e-22
0.554711 	7.31911e-05 	0.000358806 	-4.23e-22
0.578978 	0.00047576 	0.000314792 	-2.07083e-22
0.603865 	0.000927146 	0.000264295 	3.69062e-21
0.629372 	0.00143223 	0.000207336 	-3.25416e-21
0.655494 	0.00199576 	0.000144118 	3.34148e-21
0.682226 	0.00262272 	7.46852e-05 	-4.23192e-21
0.709562 	0.00332599 	-2.37981e-06 	4.87011e-21
0.737495 	0.0041323 	-9.00987e-05 	-5.29115e-21
0.766016 	0.0050666 	-0.000190678 	-1.17947e-21
0.795114 	0.00613642 	-0.000302886 	-2.67965e-22
0.824778 	0.00733596 	-0.000422646 	4.01983e-21
0.854995 	0.00865277 	-0.000544677 	-5.84878e-21
0.88575 	0.0100705 	-0.000663171 	5.6778e-21
0.917028 	0.0115657 	-0.000772605 	3.06879e-21
0.948812 	0.0131045 	-0.000867612 	-1.89581e-21
0.981083 	0.0146396 	-0.00094446 	-2.00984e-21
1.01382 	0.0161146 	-0.00100126 	2.08204e-21
1.047 	0.0174783 	-0.00103953 	-4.195e-21
1.08061 	0.0187074 	-0.00106288 	2.24088e-21
1.11462 	0.019824 	-0.00107476 	-2.05641e-21
1.149 	0.0208524 	-0.00107892 	3.45006e-21
1.18372 	0.0217951 	-0.00107716 	-2.78372e-21
1.21877 	0.0226531 	-0.00107212 	-7.24865e-23
1.25411 	0.0234307 	-0.00106528 	1.21685e-21
1.28971 	0.0241345 	-0.00105754 	9.61183e-22
1.32555 	0.0247727 	-0.00104944 	-2.34873e-21
1.36158 	0.0253539 	-0.00104123 	1.56807e-21
1.39779 	0.0258862 	-0.00103299 	1.10863e-22
1.43413 	0.0263765 	-0.00102463 	-3.18385e-22
1.47057 	0.026831 	-0.00101597 	7.02349e-22
1.50709 	0.0272543 	-0.00100683 	-5.85617e-22
1.54363 	0.0276504 	-0.000997046 	-7.57495e-23
1.58018 	0.0280225 	-0.000986504 	-5.38464e-22
1.61669 	0.0283724 	-0.000975118 	1.39082e-21
1.65314 	0.0287021 	-0.000962818 	-1.23311e-21
1.68948 	0.0290122 	-0.000949561 	1.12562e-21
1.72569 	0.0293032 	-0.00093535 	-6.61818e-23
1.76172 	0.0295755 	-0.000920223 	-5.89842e-22
1.79755 	0.0298291 	-0.000904249 	-8.6833e-22
1.83314 	0.0300639 	-0.00088752 	1.27128e-21
1.86846 	0.03028 	-0.000870142 	-1.64661e-22
1.90347 	0.0304775 	-0.000852233 	-5.95346e-22
1.93816 	0.0306565 	-0.000833911 	2.69923e-22
1.97249 	0.0308171 	-0.000815294 	1.44822e-22
2.00642 	0.0309597 	-0.000796488 	-4.83378e-23
2.03994 	0.0310844 	-0.000777592 	5.3542e-22
2.07301 	0.0311916 	-0.000758688 	-4.31344e-22
2.10562 	0.0312816 	-0.000739849 	1.52267e-22
2.13774 	0.0313546 	-0.000721132 	-1.3349e-22
2.16934 	0.0314109 	-0.000702585 	-2.93956e-22
2.20042 	0.0314507 	-0.000684245 	5.68673e-22
2.23094 	0.0314743 	-0.000666142 	-2.10613e-22
2.2609 	0.0314818 	-0.000648294 	-2.33299e-23
2.29028 	0.0314733 	-0.000630717 	-4.04661e-22
2.31906 	0.0314489 	-0.000613421 	3.81731e-22
2.34723 	0.0314087 	-0.000596415 	3.24575e-22
2.37479 	0.0313526 	-0.000579703 	-3.15507e-23
2.40172 	0.0312808 	-0.000563287 	-3.17165e-23
2.42802 	0.0311934 	-0.00054717 	-1.12069e-22
2.45368 	0.0310902 	-0.000531352 	-3.82343e-22
2.47869 	0.0309715 	-0.000515833 	1.70776e-22
2.50307 	0.0308373 	-0.000500615 	1.38793e-22
2.5268 	0.0306879 	-0.000485694 	-8.74819e-23
2.54988 	0.0305233 	-0.000471067 	-1.51891e-22
2.57232 	0.0303438 	-0.000456728 	2.03138e-23
2.59412 	0.0301497 	-0.000442668 	8.91318e-23
2.61529 	0.0299412 	-0.000428875 	7.32189e-23
2.63582 	0.0297186 	-0.000415331 	-1.4336e-22
2.65573 	0.0294821 	-0.000402017 	-1.75371e-23
2.67502 	0.0292316 	-0.000388907 	3.37005e-23
2.6937 	0.0289675 	-0.00037597 	3.85793e-23
2.71178 	0.0286895 	-0.000363173 	9.59477e-23
2.72926 	0.0283976 	-0.000350478 	-7.22918e-23
2.74617 	0.0280915 	-0.000337846 	-2.88673e-23
2.7625 	0.0277706 	-0.000325236 	-2.91053e-23
2.77827 	0.0274344 	-0.000312606 	2.14686e-23
2.79349 	0.027082 	-0.000299918 	6.37705e-23
2.80818 	0.0267125 	-0.000287136 	-2.65622e-23
2.82234 	0.0263249 	-0.00027423 	-4.53004e-23
2.83599 	0.0259178 	-0.000261178 	1.40872e-23
2.84914 	0.0254899 	-0.000247968 	1.24771e-23
2.8618 	0.0250397 	-0.000234602 	-8.65385e-24
2.87399 	0.0245655 	-0.000221086 	1.47518e-23
2.88571 	0.024065 	-0.000207401 	2.68058e-23
2.89699 	0.0235344 	-0.000193482 	-1.22307e-23
2.90784 	0.0229693 	-0.00017926 	-8.78168e-24
2.91826 	0.022366 	-0.000164725 	5.96957e-24
2.92827 	0.021722 	-0.000149944 	5.28543e-24
2.93788 	0.0210351 	-0.00013504 	-2.10231e-25
2.94711 	0.0203039 	-0.000120168 	-2.22705e-24
2.95595 	0.0195272 	-0.000105507 	-6.74118e-24
2.96444 	0.0187036 	-9.1242e-05 	-4.91141e-24
2.97256 	0.0178315 	-7.75529e-05 	-1.29945e-23
2.98034 	0.0169083 	-6.46107e-05 	-1.5252e-23
2.98777 	0.0159297 	-5.25699e-05 	2.29416e-23
2.99486 	0.0148893 	-4.15658e-05 	2.91796e-23
3.00161 	0.0137764 	-3.17137e-05 	-3.79089e-24
3.00801 	0.0125733 	-2.31079e-05 	-1.29592e-23
3.01404 	0.0112495 	-1.58219e-05 	-7.78201e-26
3.0197 	0.00975021 	-9.90891e-06 	1.61112e-24
3.02494 	0.00797006 	-5.40063e-06 	-2.24442e-24
3.0292 	0.00599179 	-2.59268e-06 	-1.29409e-24
3.03147 	0.0046884 	-1.41045e-06 	2.42557e-25
