0.0010258 	2.32779e-06 	-1.0769e-06 	-1.14132e-25 	2.30422e-06 	1.16121e-24 	2.31613e-06
0.00334978 	5.57824e-06 	-2.57365e-06 	-2.86177e-25 	5.49221e-06 	1.30131e-24 	5.53589e-06
0.00630145 	6.91417e-06 	-3.16614e-06 	-1.12467e-24 	6.71141e-06 	3.15716e-25 	6.8137e-06
0.00983054 	7.5601e-06 	-3.41398e-06 	-1.34149e-23 	7.15678e-06 	1.4877e-27 	7.35764e-06
0.0138765 	7.95986e-06 	-3.52719e-06 	-1.11539e-23 	7.29743e-06 	-5.65457e-24 	7.62528e-06
0.0183825 	8.24512e-06 	-3.53851e-06 	2.4452e-23 	7.35752e-06 	-7.42461e-24 	7.79832e-06
0.0233014 	8.4561e-06 	-3.47911e-06 	3.26176e-23 	7.43665e-06 	2.44828e-24 	7.94639e-06
0.0285978 	8.64642e-06 	-3.47798e-06 	-1.95877e-24 	7.54332e-06 	3.44514e-24 	8.09643e-06
0.0342466 	8.84696e-06 	-3.55244e-06 	5.16255e-24 	7.6615e-06 	-2.27495e-24 	8.25542e-06
0.0402317 	9.05871e-06 	-3.64304e-06 	1.63357e-23 	7.78713e-06 	2.78365e-24 	8.42365e-06
0.046544 	9.28058e-06 	-3.74026e-06 	-1.37691e-23 	7.91992e-06 	3.0263e-24 	8.60084e-06
0.0531797 	9.51044e-06 	-3.8446e-06 	-4.36442e-24 	8.06219e-06 	-3.96845e-24 	8.78684e-06
0.0601391 	9.74524e-06 	-3.95785e-06 	8.39366e-24 	8.21704e-06 	-6.85637e-24 	8.98161e-06
0.0674258 	9.9817e-06 	-4.07911e-06 	4.34705e-23 	8.38841e-06 	1.1622e-23 	9.18543e-06
0.0750453 	1.0216e-05 	-4.19856e-06 	-5.77101e-23 	8.58171e-06 	9.3412e-24 	9.39928e-06
0.0830049 	1.04502e-05 	-4.31939e-06 	-2.37629e-23 	8.79755e-06 	-2.66487e-23 	9.6245e-06
0.0913134 	1.06883e-05 	-4.44621e-06 	1.08306e-22 	9.03397e-06 	1.85606e-24 	9.86188e-06
0.0999802 	1.09325e-05 	-4.57902e-06 	-2.17214e-23 	9.28888e-06 	2.21118e-23 	1.01115e-05
0.109016 	1.11837e-05 	-4.71703e-06 	-3.66546e-23 	9.5605e-06 	-7.4159e-24 	1.03729e-05
0.11843 	1.14422e-05 	-4.85968e-06 	1.99029e-23 	9.84785e-06 	-2.06778e-24 	1.06458e-05
0.128235 	1.17081e-05 	-5.00808e-06 	-1.63471e-23 	1.01505e-05 	9.11505e-24 	1.09301e-05
0.138442 	1.19819e-05 	-5.16027e-06 	-3.6243e-23 	1.04685e-05 	1.08147e-23 	1.12262e-05
0.149063 	1.2266e-05 	-5.31255e-06 	-7.33169e-23 	1.08024e-05 	-5.87986e-24 	1.15354e-05
0.160109 	1.2564e-05 	-5.46789e-06 	-1.70804e-23 	1.11515e-05 	-1.78282e-23 	1.1859e-05
0.171593 	1.28789e-05 	-5.62992e-06 	1.36481e-23 	1.15149e-05 	1.89666e-23 	1.21983e-05
0.183525 	1.32126e-05 	-5.79885e-06 	-1.3588e-22 	1.18917e-05 	3.57422e-23 	1.25537e-05
0.195919 	1.35665e-05 	-5.97478e-06 	-2.33325e-22 	1.22813e-05 	-7.69572e-23 	1.29254e-05
0.208786 	1.39408e-05 	-6.15766e-06 	2.7241e-22 	1.2683e-05 	-6.2793e-23 	1.33135e-05
0.222137 	1.43351e-05 	-6.34739e-06 	2.1017e-22 	1.30964e-05 	1.08904e-22 	1.37174e-05
0.235985 	1.4748e-05 	-6.54373e-06 	-3.26812e-22 	1.35214e-05 	-2.2834e-23 	1.41363e-05
0.25034 	1.51775e-05 	-6.74632e-06 	2.96687e-22 	1.39579e-05 	-7.04343e-23 	1.45694e-05
0.265214 	1.56217e-05 	-6.95477e-06 	1.72149e-22 	1.44058e-05 	1.01142e-22 	1.50154e-05
0.280617 	1.60787e-05 	-7.16868e-06 	-3.12822e-22 	1.48647e-05 	8.54873e-24 	1.54734e-05
0.29656 	1.65473e-05 	-7.38764e-06 	5.89073e-23 	1.53342e-05 	-6.10704e-23 	1.59425e-05
0.313054 	1.70264e-05 	-7.61128e-06 	1.02323e-22 	1.58135e-05 	-3.76847e-23 	1.64217e-05
0.330107 	1.75154e-05 	-7.83924e-06 	3.69713e-22 	1.63018e-05 	5.10387e-23 	1.69103e-05
0.347729 	1.80139e-05 	-8.07113e-06 	-1.694e-22 	1.67981e-05 	8.23369e-23 	1.74077e-05
0.365928 	1.85213e-05 	-8.30656e-06 	-2.88669e-22 	1.7301e-05 	1.38118e-23 	1.79128e-05
0.384713 	1.90369e-05 	-8.54502e-06 	-3.68035e-22 	1.78093e-05 	-5.09584e-23 	1.84247e-05
0.404089 	1.95599e-05 	-8.7859e-06 	-2.01503e-23 	1.83214e-05 	-1.11844e-22 	1.89422e-05
0.424065 	2.00887e-05 	-9.02849e-06 	5.13532e-22 	1.88355e-05 	-2.9792e-24 	1.94637e-05
0.444646 	2.06221e-05 	-9.27196e-06 	1.83783e-22 	1.93497e-05 	1.34556e-22 	1.99873e-05
0.465836 	2.11578e-05 	-9.51526e-06 	-5.49772e-22 	1.98616e-05 	-5.76988e-23 	2.0511e-05
0.48764 	2.16934e-05 	-9.75727e-06 	4.92042e-22 	2.03686e-05 	5.21102e-23 	2.10323e-05
0.51006 	2.22261e-05 	-9.99665e-06 	-8.92442e-22 	2.0868e-05 	-5.56286e-23 	2.15483e-05
0.533099 	2.27529e-05 	-1.02319e-05 	7.43549e-22 	2.13563e-05 	-4.64185e-24 	2.20557e-05
0.556758 	2.32699e-05 	-1.04612e-05 	-6.08858e-22 	2.18301e-05 	-8.19348e-24 	2.25509e-05
0.581036 	2.3773e-05 	-1.06829e-05 	6.26865e-22 	2.22854e-05 	-8.84205e-23 	2.30301e-05
0.605933 	2.42576e-05 	-1.08948e-05 	4.90694e-22 	2.27178e-05 	1.62731e-22 	2.34885e-05
0.631446 	2.47186e-05 	-1.10947e-05 	-7.91896e-22 	2.31228e-05 	-2.89082e-23 	2.39214e-05
0.657571 	2.51502e-05 	-1.128e-05 	4.92016e-22 	2.34953e-05 	-3.05375e-23 	2.43234e-05
0.684304 	2.55464e-05 	-1.1448e-05 	-3.39895e-22 	2.38299e-05 	9.85475e-23 	2.46887e-05
0.711638 	2.59006e-05 	-1.1596e-05 	-7.96488e-22 	2.41213e-05 	-1.18603e-22 	2.50112e-05
0.739566 	2.62054e-05 	-1.17212e-05 	7.55454e-22 	2.43634e-05 	-2.65915e-23 	2.52847e-05
0.768079 	2.64536e-05 	-1.18204e-05 	-1.56316e-22 	2.45506e-05 	3.30657e-23 	2.55024e-05
0.797167 	2.6638e-05 	-1.18907e-05 	2.81614e-22 	2.46774e-05 	-7.04444e-23 	2.56581e-05
0.826818 	2.67522e-05 	-1.19291e-05 	1.02216e-21 	2.47383e-05 	1.19087e-22 	2.57452e-05
0.85702 	2.67869e-05 	-1.19331e-05 	-8.82614e-22 	2.47283e-05 	-3.00208e-23 	2.57579e-05
0.887757 	2.67376e-05 	-1.19003e-05 	1.06428e-21 	2.46434e-05 	1.24022e-22 	2.56908e-05
0.919015 	2.65992e-05 	-1.18289e-05 	-2.25196e-21 	2.44807e-05 	-4.51821e-23 	2.554e-05
0.950776 	2.63671e-05 	-1.17178e-05 	3.02041e-22 	2.42385e-05 	-1.20705e-22 	2.53029e-05
0.983022 	2.60397e-05 	-1.15668e-05 	-1.61601e-22 	2.39173e-05 	-1.8586e-23 	2.49785e-05
1.01573 	2.56176e-05 	-1.13766e-05 	5.56783e-22 	2.3519e-05 	1.80426e-23 	2.45683e-05
1.04889 	2.51035e-05 	-1.11491e-05 	-2.81165e-23 	2.3048e-05 	-3.06057e-23 	2.40758e-05
1.08246 	2.45033e-05 	-1.08869e-05 	1.1944e-21 	2.25108e-05 	8.03422e-23 	2.3507e-05
1.11644 	2.3825e-05 	-1.05938e-05 	-5.66302e-22 	2.19152e-05 	4.70904e-23 	2.287e-05
1.15078 	2.30786e-05 	-1.02744e-05 	-3.16021e-22 	2.12706e-05 	-5.45138e-23 	2.21744e-05
1.18548 	2.22753e-05 	-9.93371e-06 	3.69545e-22 	2.05876e-05 	2.30525e-23 	2.14316e-05
1.22049 	2.14287e-05 	-9.57622e-06 	-5.9225e-22 	1.98768e-05 	-2.29956e-23 	2.06529e-05
1.25579 	2.05506e-05 	-9.20773e-06 	3.21545e-22 	1.91487e-05 	8.30723e-24 	1.98498e-05
1.29136 	1.96605e-05 	-8.83653e-06 	-4.4924e-22 	1.84202e-05 	-2.6322e-23 	1.90403e-05
1.32715 	1.87772e-05 	-8.47116e-06 	4.89249e-22 	1.77083e-05 	6.40776e-23 	1.82427e-05
1.36315 	1.79107e-05 	-8.11408e-06 	-1.6982e-21 	1.70198e-05 	-9.33663e-23 	1.74651e-05
1.39931 	1.70675e-05 	-7.76893e-06 	1.10098e-21 	1.6359e-05 	-6.29479e-23 	1.67132e-05
1.43561 	1.62552e-05 	-7.43693e-06 	1.63712e-21 	1.57295e-05 	1.65674e-22 	1.59923e-05
1.47202 	1.54767e-05 	-7.12013e-06 	-1.95354e-21 	1.51332e-05 	-6.48491e-23 	1.5305e-05
1.50849 	1.47362e-05 	-6.81892e-06 	1.31904e-21 	1.45714e-05 	-5.15018e-24 	1.46536e-05
1.54499 	1.4033e-05 	-6.53346e-06 	-2.90371e-23 	1.40437e-05 	4.56566e-23 	1.40385e-05
1.5815 	1.33661e-05 	-6.25999e-06 	-3.46912e-22 	1.35473e-05 	9.26143e-25 	1.3457e-05
1.61797 	1.27336e-05 	-6.00007e-06 	-6.79651e-22 	1.30783e-05 	-6.71031e-23 	1.29056e-05
1.65438 	1.21347e-05 	-5.7536e-06 	1.40367e-21 	1.26338e-05 	5.71025e-23 	1.23838e-05
1.69068 	1.15742e-05 	-5.5191e-06 	-9.7977e-22 	1.22034e-05 	2.61085e-23 	1.189e-05
1.72684 	1.10626e-05 	-5.268e-06 	-1.48134e-21 	1.17771e-05 	-1.16082e-22 	1.1421e-05
1.76284 	1.05938e-05 	-4.95595e-06 	1.86465e-21 	1.13497e-05 	2.80259e-23 	1.09714e-05
1.79863 	1.01453e-05 	-4.64971e-06 	5.44255e-22 	1.09338e-05 	8.86348e-23 	1.05391e-05
1.83418 	9.71416e-06 	-4.33316e-06 	-1.56756e-21 	1.05388e-05 	-6.05753e-23 	1.01262e-05
1.86946 	9.30239e-06 	-4.00773e-06 	7.5282e-22 	1.01683e-05 	-2.0743e-24 	9.73534e-06
1.90445 	8.91554e-06 	-3.67838e-06 	-2.38887e-23 	9.82142e-06 	1.31131e-23 	9.36853e-06
1.9391 	8.55497e-06 	-3.34759e-06 	-5.57332e-23 	9.49742e-06 	1.94601e-23 	9.02605e-06
1.97339 	8.22002e-06 	-3.01642e-06 	-1.17439e-21 	9.19543e-06 	-6.01332e-23 	8.7078e-06
2.00729 	7.91203e-06 	-2.6884e-06 	1.14793e-21 	8.91484e-06 	1.24695e-23 	8.41359e-06
2.04077 	7.63095e-06 	-2.36365e-06 	1.65557e-22 	8.6553e-06 	3.28382e-23 	8.14326e-06
2.07381 	7.37675e-06 	-2.0422e-06 	-3.79827e-22 	8.41668e-06 	4.09497e-25 	7.89672e-06
2.10639 	7.14901e-06 	-1.72483e-06 	-4.74081e-22 	8.19896e-06 	-3.73283e-23 	7.67389e-06
2.13848 	6.94742e-06 	-1.41345e-06 	8.75352e-22 	8.00246e-06 	2.05625e-23 	7.47491e-06
2.17005 	6.77222e-06 	-1.10734e-06 	-1.49843e-22 	7.82745e-06 	1.85247e-23 	7.2998e-06
2.2011 	6.62289e-06 	-8.0592e-07 	-4.49438e-22 	7.67446e-06 	-3.18958e-23 	7.14887e-06
2.23159 	6.50052e-06 	-5.1051e-07 	9.32025e-22 	7.54398e-06 	1.68963e-23 	7.02227e-06
2.26152 	6.40426e-06 	-2.20728e-07 	7.33273e-23 	7.43668e-06 	2.07337e-23 	6.92037e-06
2.29087 	6.3336e-06 	6.28938e-08 	-1.37163e-22 	7.35313e-06 	-6.56311e-24 	6.84346e-06
2.31963 	6.29001e-06 	3.4056e-07 	1.88831e-22 	7.29401e-06 	1.12392e-23 	6.79191e-06
2.34778 	6.27223e-06 	6.13152e-07 	-4.68733e-22 	7.2598e-06 	-1.73163e-23 	6.76594e-06
2.37531 	6.28059e-06 	8.80536e-07 	3.97833e-22 	7.25094e-06 	9.77565e-25 	6.76576e-06
2.40222 	6.31517e-06 	1.14211e-06 	2.54775e-23 	7.26778e-06 	4.34198e-24 	6.79146e-06
2.42849 	6.37542e-06 	1.39798e-06 	1.58243e-22 	7.31037e-06 	1.5013e-23 	6.84291e-06
2.45413 	6.46101e-06 	1.64927e-06 	-5.12241e-22 	7.37857e-06 	-7.32629e-24 	6.9198e-06
2.47913 	6.57115e-06 	1.89498e-06 	-1.09842e-22 	7.47198e-06 	-1.08764e-23 	7.02157e-06
2.50348 	6.70492e-06 	2.13502e-06 	-7.47484e-23 	7.58987e-06 	-4.32721e-24 	7.14739e-06
2.52719 	6.86104e-06 	2.37032e-06 	2.63773e-23 	7.73117e-06 	-8.75494e-25 	7.29608e-06
2.55026 	7.0379e-06 	2.60017e-06 	-7.58452e-24 	7.89454e-06 	-3.02912e-24 	7.46622e-06
2.57268 	7.23367e-06 	2.82405e-06 	1.49705e-22 	8.0782e-06 	1.90101e-24 	7.656e-06
2.59446 	7.44659e-06 	3.04149e-06 	5.2138e-23 	8.28015e-06 	1.01781e-23 	7.86339e-06
2.61561 	7.67383e-06 	3.25235e-06 	-2.40123e-22 	8.49807e-06 	-8.17529e-24 	8.08601e-06
2.63613 	7.91321e-06 	3.4564e-06 	1.64511e-22 	8.72939e-06 	-2.54838e-24 	8.3213e-06
2.65602 	8.16168e-06 	3.65288e-06 	2.33495e-23 	8.97129e-06 	9.22695e-24 	8.56649e-06
2.67529 	8.41648e-06 	3.84111e-06 	-1.96687e-22 	9.22081e-06 	-5.99483e-25 	8.81863e-06
2.69396 	8.67455e-06 	4.0203e-06 	-1.00282e-22 	9.4749e-06 	-1.24611e-23 	9.07475e-06
2.71202 	8.93313e-06 	4.19018e-06 	2.08496e-22 	9.73049e-06 	1.36999e-24 	9.33181e-06
2.72949 	9.18907e-06 	4.35022e-06 	5.92278e-24 	9.98451e-06 	1.02231e-23 	9.58682e-06
2.74638 	9.43987e-06 	4.4998e-06 	-1.69377e-22 	1.0234e-05 	-4.53603e-24 	9.83691e-06
2.7627 	9.68271e-06 	4.64109e-06 	5.36357e-23 	1.04757e-05 	-4.5207e-24 	1.00793e-05
2.77846 	9.91591e-06 	4.77224e-06 	3.573e-23 	1.0707e-05 	9.8762e-25 	1.03116e-05
2.79367 	1.01382e-05 	4.88127e-06 	3.35133e-23 	1.09251e-05 	1.75772e-24 	1.05316e-05
2.80835 	1.03448e-05 	4.97729e-06 	-5.31476e-24 	1.11298e-05 	2.20884e-24 	1.07372e-05
2.8225 	1.0531e-05 	5.06483e-06 	-3.78726e-23 	1.13196e-05 	-2.45522e-24 	1.09252e-05
2.83614 	1.06947e-05 	5.14272e-06 	4.58247e-23 	1.14911e-05 	-3.65504e-25 	1.10928e-05
2.84927 	1.08369e-05 	5.20902e-06 	-1.65623e-24 	1.16404e-05 	3.37856e-24 	1.12388e-05
2.86193 	1.09618e-05 	5.25726e-06 	-5.14758e-23 	1.17651e-05 	-1.21801e-24 	1.13636e-05
2.87411 	1.10715e-05 	5.28823e-06 	1.00175e-23 	1.18653e-05 	-3.35433e-24 	1.14684e-05
2.88582 	1.11656e-05 	5.3109e-06 	4.26466e-23 	1.19434e-05 	9.07794e-25 	1.15544e-05
2.89709 	1.12442e-05 	5.32743e-06 	1.15382e-24 	1.20016e-05 	3.24546e-24 	1.16229e-05
2.90793 	1.13084e-05 	5.33759e-06 	-3.61565e-23 	1.20412e-05 	-2.69515e-25 	1.16748e-05
2.91834 	1.13591e-05 	5.34254e-06 	-3.86364e-24 	1.20631e-05 	-1.69279e-24 	1.17111e-05
2.92834 	1.13974e-05 	5.34289e-06 	4.67203e-24 	1.20685e-05 	-8.56017e-25 	1.1733e-05
2.93795 	1.14239e-05 	5.33963e-06 	1.30454e-23 	1.20582e-05 	2.94458e-25 	1.17411e-05
2.94717 	1.14394e-05 	5.33357e-06 	1.74956e-24 	1.20331e-05 	5.56189e-25 	1.17363e-05
2.95601 	1.14441e-05 	5.32509e-06 	8.79493e-25 	1.19939e-05 	-4.78223e-27 	1.1719e-05
2.96448 	1.14378e-05 	5.3146e-06 	1.63374e-24 	1.1941e-05 	4.33407e-25 	1.16894e-05
2.9726 	1.142e-05 	5.30194e-06 	-4.2274e-24 	1.18742e-05 	4.08097e-25 	1.16471e-05
2.98037 	1.13891e-05 	5.28658e-06 	-4.42528e-24 	1.17928e-05 	-6.02943e-25 	1.15909e-05
2.9878 	1.13426e-05 	5.26745e-06 	2.53761e-24 	1.16949e-05 	-4.47327e-25 	1.15187e-05
2.99488 	1.12764e-05 	5.24983e-06 	1.95805e-24 	1.15773e-05 	2.16219e-25 	1.14268e-05
3.00163 	1.1183e-05 	5.2295e-06 	-1.253e-26 	1.14319e-05 	3.68363e-26 	1.13075e-05
3.00802 	1.10446e-05 	5.17541e-06 	6.65962e-25 	1.12399e-05 	-2.7424e-26 	1.11423e-05
3.01405 	1.08177e-05 	5.06269e-06 	2.45147e-25 	1.09594e-05 	9.93676e-26 	1.08886e-05
3.01971 	1.04026e-05 	4.85855e-06 	-5.73503e-26 	1.04952e-05 	4.0605e-26 	1.0449e-05
3.02495 	9.56461e-06 	4.45955e-06 	-5.01129e-26 	9.61642e-06 	-1.41479e-26 	9.59063e-06
3.02973 	7.71641e-06 	3.59335e-06 	6.45234e-27 	7.7388e-06 	-7.43568e-27 	7.72768e-06
