0.00102579 	5.67138e-05 	-1.26355e-06 	7.00095e-27
0.0032282 	0.000114667 	-3.13989e-06 	2.49483e-26
0.00581417 	0.00011697 	-4.84307e-06 	6.64153e-27
0.00874241 	0.000119343 	-7.32876e-06 	5.62219e-28
0.0119765 	0.000122237 	-1.02284e-05 	3.16881e-26
0.0154877 	0.000125707 	-1.33634e-05 	-2.05121e-25
0.0192552 	0.000129817 	-1.67678e-05 	-1.65574e-25
0.0232652 	0.000134641 	-2.04636e-05 	2.65693e-25
0.0275097 	0.000140257 	-2.4459e-05 	1.01746e-25
0.0319852 	0.000146757 	-2.87624e-05 	-5.05897e-27
0.0366918 	0.000154242 	-3.33869e-05 	5.02279e-26
0.0416323 	0.000162825 	-3.83499e-05 	2.92664e-25
0.0468113 	0.000172633 	-4.36715e-05 	2.35777e-25
0.0522354 	0.000183805 	-4.93748e-05 	-9.51097e-25
0.057912 	0.000196496 	-5.54848e-05 	2.26042e-25
0.0638497 	0.000210878 	-6.20292e-05 	2.44957e-24
0.0700579 	0.00022714 	-6.90375e-05 	-9.12109e-25
0.0765467 	0.000245486 	-7.65414e-05 	-4.1672e-24
0.0833266 	0.000266146 	-8.45745e-05 	3.74113e-25
0.0904088 	0.000289367 	-9.31722e-05 	2.73369e-24
0.0978048 	0.000315422 	-0.000102372 	7.15865e-25
0.105526 	0.000344608 	-0.000112213 	1.27274e-24
0.113586 	0.000377248 	-0.000122735 	-3.53904e-24
0.121997 	0.000413694 	-0.00013398 	-7.47671e-24
0.130771 	0.000454328 	-0.000145993 	-1.40826e-25
0.139923 	0.000499565 	-0.000158816 	5.79766e-24
0.149465 	0.000549853 	-0.000172496 	8.16712e-25
0.159412 	0.000605677 	-0.000187076 	-6.15317e-24
0.169777 	0.000667562 	-0.000202604 	-4.25186e-24
0.180576 	0.000736071 	-0.000219123 	6.92359e-24
0.191822 	0.000811809 	-0.000236679 	1.10266e-23
0.20353 	0.000895428 	-0.000255313 	-9.37053e-24
0.215716 	0.000987624 	-0.000275065 	-6.0833e-24
0.228393 	0.00108914 	-0.000295972 	3.3297e-23
0.241577 	0.00120078 	-0.000318068 	3.50571e-23
0.255283 	0.00132338 	-0.000341382 	4.9927e-24
0.269526 	0.00145783 	-0.000365935 	-2.33374e-23
0.28432 	0.0016051 	-0.000391745 	-3.82592e-23
0.29968 	0.00176619 	-0.000418818 	-2.04926e-23
0.315621 	0.00194213 	-0.000447152 	1.79863e-24
0.332156 	0.00213403 	-0.000476737 	8.788e-24
0.3493 	0.00234304 	-0.000507567 	3.05251e-23
0.367066 	0.00257048 	-0.00053965 	3.08125e-23
0.385466 	0.00281821 	-0.000573082 	-6.44444e-24
0.404513 	0.00308887 	-0.000608044 	-2.16852e-23
0.424218 	0.00338561 	-0.000644721 	-1.24679e-23
0.444592 	0.00371144 	-0.000683167 	1.28372e-23
0.465645 	0.00406873 	-0.000723205 	-5.21247e-24
0.487386 	0.00445913 	-0.000764452 	-8.25116e-23
0.509822 	0.00488368 	-0.000806418 	4.27689e-23
0.532961 	0.00534304 	-0.000848589 	7.98e-23
0.556808 	0.00583766 	-0.000890472 	-3.7384e-23
0.581366 	0.00636791 	-0.000931619 	3.63705e-23
0.606639 	0.0069341 	-0.000971622 	-3.54438e-23
0.632627 	0.00753649 	-0.0010101 	-2.99213e-23
0.65933 	0.00817512 	-0.00104669 	-8.32045e-23
0.686745 	0.00884963 	-0.00108103 	8.03488e-23
0.714868 	0.00955917 	-0.00111276 	3.59065e-23
0.743693 	0.0103021 	-0.00114152 	-9.00098e-23
0.773211 	0.011076 	-0.00116697 	1.35732e-25
0.803413 	0.0118773 	-0.00118882 	4.0672e-23
0.834286 	0.0127015 	-0.00120682 	1.67608e-22
0.865815 	0.0135431 	-0.00122082 	2.21875e-23
0.897985 	0.0143956 	-0.00123076 	-5.1345e-24
0.930775 	0.015252 	-0.0012367 	7.26673e-23
0.964166 	0.0161048 	-0.00123878 	9.58083e-23
0.998133 	0.0169467 	-0.00123726 	1.75975e-22
1.03265 	0.017771 	-0.00123248 	-8.9222e-23
1.0677 	0.0185715 	-0.00122482 	-5.1464e-22
1.10323 	0.0193432 	-0.00121469 	-2.39187e-22
1.13924 	0.0200826 	-0.0012025 	3.26471e-22
1.17567 	0.0207869 	-0.00118865 	1.46625e-22
1.2125 	0.0214546 	-0.00117348 	4.5661e-23
1.24968 	0.0220849 	-0.00115726 	7.93705e-23
1.28719 	0.0226777 	-0.00114022 	-1.16542e-22
1.32498 	0.0232335 	-0.00112252 	-1.39488e-22
1.363 	0.0237537 	-0.00110426 	-2.30663e-22
1.40123 	0.0242403 	-0.00108544 	1.12614e-22
1.43962 	0.0246968 	-0.00106592 	-1.57651e-23
1.47811 	0.0251276 	-0.0010455 	-1.53201e-22
1.51668 	0.0255354 	-0.00102416 	7.02109e-23
1.55528 	0.0259201 	-0.00100206 	2.58587e-22
1.59385 	0.026281 	-0.00097946 	6.79856e-23
1.63237 	0.0266178 	-0.000956542 	4.01448e-24
1.67078 	0.0269302 	-0.000933462 	1.66601e-22
1.70905 	0.0272184 	-0.000910331 	-2.81598e-23
1.74713 	0.0274831 	-0.000887228 	-2.44882e-22
1.78497 	0.0277249 	-0.000864208 	3.5374e-23
1.82255 	0.0279446 	-0.000841301 	-6.88864e-23
1.85982 	0.0281433 	-0.000818526 	-1.35586e-22
1.89674 	0.028322 	-0.000795895 	-3.96159e-24
1.93328 	0.0284815 	-0.000773416 	8.82248e-23
1.96941 	0.0286223 	-0.0007511 	8.97726e-23
2.00508 	0.0287449 	-0.00072896 	5.1697e-23
2.04028 	0.0288498 	-0.000707007 	3.2856e-23
2.07497 	0.028937 	-0.000685255 	-1.12997e-23
2.10912 	0.0290068 	-0.000663719 	-6.658e-23
2.14271 	0.0290593 	-0.00064241 	-1.31391e-23
2.17571 	0.0290943 	-0.000621341 	4.10864e-23
2.20812 	0.0291119 	-0.000600522 	5.96491e-23
2.23989 	0.0291117 	-0.000579959 	-2.5066e-23
2.27103 	0.0290938 	-0.000559658 	3.96891e-23
2.30152 	0.0290577 	-0.000539618 	-1.08101e-23
2.33133 	0.0290032 	-0.000519839 	-1.45776e-22
2.36047 	0.02893 	-0.000500314 	4.49042e-23
2.38893 	0.0288378 	-0.000481035 	3.88205e-23
2.41668 	0.0287263 	-0.000461991 	3.67877e-24
2.44374 	0.0285951 	-0.000443168 	2.79535e-23
2.4701 	0.028444 	-0.000424552 	-7.63687e-23
2.49576 	0.0282726 	-0.000406126 	-1.01337e-22
2.52071 	0.0280809 	-0.000387875 	5.20524e-23
2.54496 	0.0278684 	-0.000369786 	1.54157e-23
2.56852 	0.0276351 	-0.000351844 	2.72852e-25
2.59138 	0.0273807 	-0.000334043 	4.27717e-23
2.61355 	0.0271052 	-0.000316378 	-1.87236e-23
2.63503 	0.0268086 	-0.000298848 	-4.29099e-23
2.65585 	0.0264907 	-0.000281464 	2.63508e-23
2.676 	0.0261517 	-0.000264239 	3.62065e-23
2.69549 	0.0257916 	-0.000247195 	1.54871e-23
2.71434 	0.0254106 	-0.000230361 	-7.77122e-24
2.73255 	0.0250089 	-0.000213771 	-1.33165e-23
2.75015 	0.0245867 	-0.00019747 	1.56285e-23
2.76713 	0.0241441 	-0.000181506 	1.26024e-23
2.78351 	0.0236796 	-0.000165894 	-2.65054e-23
2.79932 	0.0231903 	-0.000150622 	-2.72281e-23
2.81455 	0.0226741 	-0.000135712 	1.06873e-23
2.82922 	0.0221317 	-0.000121248 	-1.36784e-23
2.84336 	0.0215658 	-0.000107347 	-2.11718e-23
2.85696 	0.0209795 	-9.41257e-05 	2.57743e-23
2.87006 	0.0203762 	-8.16944e-05 	2.19173e-23
2.88265 	0.0197589 	-7.01569e-05 	1.9833e-24
2.89475 	0.01913 	-5.96049e-05 	-1.00906e-25
2.90639 	0.0184916 	-5.01106e-05 	3.89197e-24
2.91756 	0.0178445 	-4.17084e-05 	6.28021e-24
2.92829 	0.0171876 	-3.43645e-05 	-1.25937e-23
2.93858 	0.0165178 	-2.79829e-05 	-1.64555e-23
2.94846 	0.015831 	-2.24556e-05 	7.85601e-24
2.95792 	0.0151234 	-1.76999e-05 	-6.42025e-25
2.96697 	0.0143915 	-1.3664e-05 	-1.00994e-23
2.97563 	0.0136311 	-1.03026e-05 	8.36219e-24
2.98389 	0.0128371 	-7.56185e-06 	8.31085e-24
2.99176 	0.0120035 	-5.3832e-06 	-1.10746e-23
2.99923 	0.0111229 	-3.70725e-06 	-1.0202e-23
3.00628 	0.0101812 	-2.47128e-06 	4.4234e-24
3.01289 	0.00914675 	-1.59958e-06 	2.52319e-24
3.01902 	0.00796034 	-1.00534e-06 	-2.10068e-24
3.02463 	0.00652173 	-6.00872e-07 	6.90099e-25
