/*--------------------------------*- C++ -*----------------------------------*\
| =========                 |                                                 |
| \\      /  F ield         | OpenFOAM: The Open Source CFD Toolbox           |
|  \\    /   O peration     | Version:  2.4.0                                 |
|   \\  /    A nd           | Web:      www.OpenFOAM.org                      |
|    \\/     M anipulation  |                                                 |
\*---------------------------------------------------------------------------*/
FoamFile
{
    version     2.0;
    format      ascii;
    class       volScalarField;
    location    "170";
    object      nut;
}
// * * * * * * * * * * * * * * * * * * * * * * * * * * * * * * * * * * * * * //

dimensions      [0 2 -1 0 0 0 0];

internalField   nonuniform List<scalar> 
32000
(
4.468663e-07
1.2429661e-07
4.7971742e-07
4.8968604e-08
2.0127893e-08
3.7473648e-09
4.3523309e-09
1.7064293e-09
1.603224e-09
1.0886182e-09
8.9737236e-10
7.2359729e-10
6.1535926e-10
5.3413562e-10
4.7585073e-10
4.3281982e-10
4.0175639e-10
3.8007606e-10
3.6340121e-10
3.4954944e-10
3.3756642e-10
3.2696013e-10
3.1726546e-10
3.0822138e-10
2.9946451e-10
2.9081097e-10
2.8176595e-10
2.7274429e-10
2.644874e-10
2.5720122e-10
2.5087536e-10
2.4546347e-10
2.4093347e-10
2.3726051e-10
2.3451067e-10
2.3284639e-10
2.3221293e-10
2.3213349e-10
2.3240966e-10
2.3303169e-10
2.3402689e-10
2.3546193e-10
2.3750307e-10
2.4041372e-10
2.4479831e-10
2.5178624e-10
2.6655989e-10
2.8490573e-10
2.9751569e-10
3.0796943e-10
3.169202e-10
3.2486508e-10
3.3198549e-10
3.3843817e-10
3.4432197e-10
3.4971592e-10
3.5468064e-10
3.5926548e-10
3.635106e-10
3.6745035e-10
3.7111391e-10
3.7452631e-10
3.7770912e-10
3.8068145e-10
3.8346008e-10
3.8605982e-10
3.88494e-10
3.9077461e-10
3.9291209e-10
3.949161e-10
3.9679537e-10
3.9855788e-10
4.0021071e-10
4.017606e-10
4.0321357e-10
4.0457527e-10
4.0585161e-10
4.0704747e-10
4.0816925e-10
4.0922061e-10
4.1020738e-10
4.1112915e-10
4.1198423e-10
4.1277686e-10
4.1350913e-10
4.1418486e-10
4.148063e-10
4.1535956e-10
4.1582566e-10
4.1637129e-10
4.167975e-10
4.1717646e-10
4.1750955e-10
4.1779773e-10
4.180419e-10
4.182431e-10
4.1840196e-10
4.1851903e-10
4.1859466e-10
4.1862898e-10
4.1862302e-10
4.1857566e-10
4.1848668e-10
4.1835674e-10
4.1818506e-10
4.1797121e-10
4.1771445e-10
4.1741415e-10
4.170694e-10
4.1667915e-10
4.1624227e-10
4.1575742e-10
4.1522318e-10
4.146379e-10
4.139998e-10
4.1330691e-10
4.12557e-10
4.1174778e-10
4.1087655e-10
4.0994053e-10
4.0893667e-10
4.0786154e-10
4.0671142e-10
4.0548248e-10
4.0417016e-10
4.0276983e-10
4.0127632e-10
3.9968381e-10
3.979863e-10
3.9617696e-10
3.9424823e-10
3.9219209e-10
3.8999963e-10
3.8766075e-10
3.8516458e-10
3.8249894e-10
3.7964998e-10
3.7660267e-10
3.7333974e-10
3.6984178e-10
3.6608662e-10
3.6204898e-10
3.5769924e-10
3.5300281e-10
3.4791885e-10
3.4239779e-10
3.3637902e-10
3.2978351e-10
3.2251247e-10
3.1441027e-10
3.0529705e-10
2.9467841e-10
2.8191258e-10
2.6346068e-10
2.4856695e-10
2.4140348e-10
2.3678267e-10
2.3359185e-10
2.312971e-10
2.2955843e-10
2.2819462e-10
2.2725709e-10
2.2666554e-10
2.2644275e-10
2.2669456e-10
2.2782274e-10
2.3006983e-10
2.3316483e-10
2.3704198e-10
2.4172019e-10
2.4720529e-10
2.5354033e-10
2.6069914e-10
2.6847611e-10
2.7611048e-10
2.8323557e-10
2.8991249e-10
2.9696293e-10
3.0424828e-10
3.1205932e-10
3.2072573e-10
3.3063304e-10
3.4250402e-10
3.5835392e-10
3.8156756e-10
4.138505e-10
4.5758066e-10
5.1605651e-10
5.9749045e-10
7.0410307e-10
8.7684584e-10
1.0543546e-09
1.5406817e-09
1.5107186e-09
3.7041803e-09
2.5822458e-09
1.5425781e-08
2.8739239e-08
1.6761992e-07
1.49051e-07
2.1397522e-07
1.1551202e-07
2.1170514e-07
6.4758207e-08
2.5315452e-08
3.6509549e-09
7.1210128e-09
3.719212e-09
2.963536e-09
2.1410699e-09
1.7115097e-09
1.3823633e-09
1.1601295e-09
9.9582096e-10
8.7416816e-10
7.8200362e-10
7.1204204e-10
6.5936151e-10
6.1683697e-10
5.8074637e-10
5.4927374e-10
5.2138942e-10
4.9619302e-10
4.7312282e-10
4.515455e-10
4.31066e-10
4.1090232e-10
3.9128897e-10
3.7296484e-10
3.5614959e-10
3.4077447e-10
3.2673526e-10
3.1395242e-10
3.0236302e-10
2.9201658e-10
2.8310514e-10
2.7564335e-10
2.692217e-10
2.6365778e-10
2.5895654e-10
2.5515763e-10
2.5234111e-10
2.506849e-10
2.5048612e-10
2.5234738e-10
2.5748772e-10
2.7054369e-10
2.8694516e-10
2.9813844e-10
3.0720142e-10
3.148848e-10
3.21633e-10
3.2763553e-10
3.3304146e-10
3.3794363e-10
3.424167e-10
3.4651673e-10
3.5028702e-10
3.5376101e-10
3.5696774e-10
3.5993128e-10
3.6267368e-10
3.6521649e-10
3.6758502e-10
3.6980023e-10
3.7187697e-10
3.7383099e-10
3.7567714e-10
3.774278e-10
3.7909249e-10
3.8067853e-10
3.8219317e-10
3.8363086e-10
3.849807e-10
3.8622737e-10
3.8736352e-10
3.8839885e-10
3.8935357e-10
3.9024993e-10
3.911018e-10
3.9191649e-10
3.926907e-10
3.9341812e-10
3.9409807e-10
3.9473053e-10
3.9531629e-10
3.958507e-10
3.9631383e-10
3.9653684e-10
3.9709294e-10
3.9737228e-10
3.9757779e-10
3.9772559e-10
3.9784097e-10
3.9797678e-10
3.9824014e-10
3.9854436e-10
3.986884e-10
3.9877169e-10
3.9884443e-10
3.988829e-10
3.9888161e-10
3.9882167e-10
3.9870886e-10
3.9855279e-10
3.9836702e-10
3.9816196e-10
3.979473e-10
3.9773362e-10
3.9753226e-10
3.9733154e-10
3.9713217e-10
3.969426e-10
3.9674565e-10
3.9645304e-10
3.959925e-10
3.953588e-10
3.9453313e-10
3.9348257e-10
3.9224645e-10
3.9085774e-10
3.8937152e-10
3.8790432e-10
3.8663322e-10
3.8571661e-10
3.8490822e-10
3.8392388e-10
3.8282703e-10
3.816885e-10
3.8039664e-10
3.7886368e-10
3.7711084e-10
3.7519339e-10
3.7313723e-10
3.7094273e-10
3.6859195e-10
3.6605281e-10
3.6329864e-10
3.6033748e-10
3.572272e-10
3.540114e-10
3.506801e-10
3.4718579e-10
3.4346557e-10
3.3945469e-10
3.3508595e-10
3.3028951e-10
3.249854e-10
3.190796e-10
3.1242766e-10
3.0485913e-10
2.9590191e-10
2.8486712e-10
2.676917e-10
2.5310557e-10
2.4681326e-10
2.4398085e-10
2.43276e-10
2.4411612e-10
2.4608532e-10
2.4898322e-10
2.5283181e-10
2.5753058e-10
2.6304973e-10
2.6947099e-10
2.7719038e-10
2.863714e-10
2.9667632e-10
3.080427e-10
3.2051662e-10
3.3413336e-10
3.4897811e-10
3.6504198e-10
3.8210585e-10
3.9933943e-10
4.1647157e-10
4.3377657e-10
4.5235806e-10
4.7215098e-10
4.9368364e-10
5.1757747e-10
5.4461577e-10
5.7592677e-10
6.1537275e-10
6.6742417e-10
7.3521655e-10
8.2348636e-10
9.3894203e-10
1.0943619e-09
1.3006518e-09
1.6074951e-09
1.9804258e-09
2.7267617e-09
3.0504802e-09
5.8242387e-09
2.6052168e-09
1.7883828e-08
3.428356e-08
1.3315238e-07
1.425704e-07
1.5262492e-08
2.3835909e-08
2.393117e-08
2.7012719e-08
1.6884077e-08
1.9485163e-09
6.2549121e-09
4.0035067e-09
2.9844372e-09
2.298998e-09
1.8218851e-09
1.4817299e-09
1.2374617e-09
1.0572089e-09
9.2029748e-10
8.1438121e-10
7.3125728e-10
6.6609354e-10
6.125953e-10
5.6711598e-10
5.276474e-10
4.9296632e-10
4.6204881e-10
4.3420456e-10
4.0877176e-10
3.8526871e-10
3.6297021e-10
3.4171512e-10
3.2182472e-10
3.0344082e-10
2.8648191e-10
2.7085148e-10
2.5647456e-10
2.4329205e-10
2.3131449e-10
2.2064801e-10
2.1132037e-10
2.0314009e-10
1.9599497e-10
1.8984335e-10
1.8464427e-10
1.8037521e-10
1.7706486e-10
1.7482895e-10
1.7391638e-10
1.7498255e-10
1.8009296e-10
1.8715629e-10
1.9208562e-10
1.9601557e-10
1.9934413e-10
2.022532e-10
2.0483416e-10
2.071538e-10
2.0925206e-10
2.1116275e-10
2.1291039e-10
2.1451155e-10
2.1597707e-10
2.1731989e-10
2.1854879e-10
2.1967336e-10
2.2070541e-10
2.2166368e-10
2.2256315e-10
2.234122e-10
2.242215e-10
2.2500157e-10
2.2576085e-10
2.2650458e-10
2.2723569e-10
2.2795781e-10
2.2865833e-10
2.2931772e-10
2.2991089e-10
2.3042331e-10
2.3086434e-10
2.3125711e-10
2.3162642e-10
2.3198779e-10
2.3234676e-10
2.3269927e-10
2.3303828e-10
2.3336009e-10
2.3366312e-10
2.3394566e-10
2.3419992e-10
2.3441165e-10
2.3437202e-10
2.3470118e-10
2.3475917e-10
2.347541e-10
2.3470656e-10
2.3464936e-10
2.3465152e-10
2.348535e-10
2.3513927e-10
2.3524536e-10
2.353008e-10
2.3536996e-10
2.3542644e-10
2.3546124e-10
2.3544656e-10
2.3539235e-10
2.3531146e-10
2.3522218e-10
2.3513883e-10
2.3507472e-10
2.3504438e-10
2.3506329e-10
2.351174e-10
2.3520882e-10
2.353506e-10
2.3552148e-10
2.3560463e-10
2.3550474e-10
2.3521601e-10
2.3471485e-10
2.3395942e-10
2.3300008e-10
2.3188884e-10
2.3070314e-10
2.2959993e-10
2.2881468e-10
2.2856019e-10
2.2851353e-10
2.2830327e-10
2.2801724e-10
2.2775318e-10
2.2736906e-10
2.2675262e-10
2.2593721e-10
2.2500333e-10
2.2399349e-10
2.2291655e-10
2.2175773e-10
2.204846e-10
2.1907289e-10
2.1754784e-10
2.1600276e-10
2.1451364e-10
2.1308766e-10
2.1168594e-10
2.1025114e-10
2.0873301e-10
2.0708344e-10
2.0526022e-10
2.032232e-10
2.0093221e-10
1.9832662e-10
1.9534173e-10
1.9175781e-10
1.8724117e-10
1.7926287e-10
1.7213746e-10
1.6960509e-10
1.6935299e-10
1.7054769e-10
1.7290432e-10
1.7621397e-10
1.804178e-10
1.8556888e-10
1.9166625e-10
1.9870331e-10
2.0674187e-10
2.160327e-10
2.2663139e-10
2.3832588e-10
2.510862e-10
2.6495473e-10
2.7996897e-10
2.9619782e-10
3.136112e-10
3.3211617e-10
3.5124662e-10
3.7100292e-10
3.9180252e-10
4.145056e-10
4.3921686e-10
4.6652426e-10
4.9713441e-10
5.3197092e-10
5.7206603e-10
6.2179372e-10
6.8400999e-10
7.6178285e-10
8.6001179e-10
9.859412e-10
1.1507129e-09
1.3693659e-09
1.6742307e-09
2.0773029e-09
2.7268346e-09
3.1540535e-09
5.1096675e-09
1.3667213e-09
1.1723502e-08
2.0688772e-08
2.0028676e-08
2.5745229e-08
2.3185441e-10
1.1314117e-09
6.4690234e-10
5.659267e-09
5.8623638e-09
7.7981631e-10
3.1774767e-09
2.4846325e-09
2.0862136e-09
1.826044e-09
1.4932496e-09
1.2315607e-09
1.0320305e-09
8.8266086e-10
7.6550245e-10
6.7229446e-10
5.965977e-10
5.3537462e-10
4.8480195e-10
4.4202879e-10
4.0523649e-10
3.7326944e-10
3.451765e-10
3.2027764e-10
2.9800874e-10
2.7789815e-10
2.5938387e-10
2.4203407e-10
2.2583843e-10
2.1090357e-10
1.9718766e-10
1.8464277e-10
1.73229e-10
1.6291156e-10
1.5367589e-10
1.4553695e-10
1.3847356e-10
1.3238746e-10
1.2721084e-10
1.2284614e-10
1.1917061e-10
1.160684e-10
1.134435e-10
1.1125071e-10
1.0947044e-10
1.0828388e-10
1.0798689e-10
1.0865022e-10
1.0936458e-10
1.0994442e-10
1.1047509e-10
1.10954e-10
1.1139375e-10
1.1179968e-10
1.1217359e-10
1.1251945e-10
1.1283931e-10
1.1313089e-10
1.133895e-10
1.1362002e-10
1.1382173e-10
1.1399593e-10
1.1414691e-10
1.1428549e-10
1.144202e-10
1.1455439e-10
1.1469371e-10
1.1484397e-10
1.150097e-10
1.1519285e-10
1.1539354e-10
1.1561291e-10
1.1583864e-10
1.1605259e-10
1.162307e-10
1.1635639e-10
1.1644093e-10
1.1650275e-10
1.1656133e-10
1.1662885e-10
1.1670871e-10
1.1679758e-10
1.1688996e-10
1.1698194e-10
1.1707169e-10
1.1715697e-10
1.1723073e-10
1.1728402e-10
1.1716801e-10
1.1729747e-10
1.1724896e-10
1.1715829e-10
1.1704268e-10
1.169296e-10
1.1687673e-10
1.1700155e-10
1.1720539e-10
1.1726924e-10
1.1729922e-10
1.173486e-10
1.1739829e-10
1.1743943e-10
1.1744695e-10
1.174309e-10
1.1740204e-10
1.1737592e-10
1.1736475e-10
1.173799e-10
1.1743368e-10
1.1753895e-10
1.1768472e-10
1.1787331e-10
1.1811705e-10
1.1839842e-10
1.1861782e-10
1.1869469e-10
1.1862422e-10
1.1838661e-10
1.179472e-10
1.1734417e-10
1.1662869e-10
1.1586866e-10
1.1519721e-10
1.1481256e-10
1.1489736e-10
1.151784e-10
1.1534313e-10
1.1546672e-10
1.1562925e-10
1.1571609e-10
1.1563266e-10
1.1540858e-10
1.1511474e-10
1.1479003e-10
1.1444462e-10
1.1406849e-10
1.1363712e-10
1.1313317e-10
1.1258455e-10
1.120778e-10
1.1168451e-10
1.1141825e-10
1.1125512e-10
1.111523e-10
1.1108416e-10
1.1102584e-10
1.1096112e-10
1.1088188e-10
1.107883e-10
1.1068154e-10
1.1057545e-10
1.1044183e-10
1.1023678e-10
1.0886903e-10
1.0736098e-10
1.072283e-10
1.079998e-10
1.0932436e-10
1.1116708e-10
1.1351447e-10
1.1642592e-10
1.1999987e-10
1.2433122e-10
1.2946544e-10
1.3546146e-10
1.4250261e-10
1.5062217e-10
1.5974567e-10
1.6987096e-10
1.8102408e-10
1.9322483e-10
2.0648202e-10
2.2061088e-10
2.3575422e-10
2.5177535e-10
2.6886434e-10
2.8748269e-10
3.0817486e-10
3.3116534e-10
3.5702318e-10
3.8643167e-10
4.2029403e-10
4.5940877e-10
5.0786717e-10
5.6637868e-10
6.3711544e-10
7.2267428e-10
8.289957e-10
9.6303459e-10
1.1374854e-09
1.3655352e-09
1.6759187e-09
2.0990901e-09
2.1272147e-09
2.9056053e-09
5.8013687e-10
5.2394043e-09
5.6066776e-09
5.8798402e-10
1.2110231e-09
2.2847017e-13
1.3429387e-11
1.6350599e-12
6.1408216e-10
1.2033774e-09
2.4666904e-10
1.2168796e-09
1.1210693e-09
1.00031e-09
9.3956447e-10
8.1419446e-10
7.1348132e-10
6.2389404e-10
5.4978389e-10
4.8533802e-10
4.2937954e-10
3.8029775e-10
3.3866746e-10
3.041674e-10
2.7515961e-10
2.5034917e-10
2.289638e-10
2.1034496e-10
1.9400052e-10
1.7960829e-10
1.6682062e-10
1.5526798e-10
1.4443138e-10
1.3419909e-10
1.2476237e-10
1.161925e-10
1.0853465e-10
1.0181354e-10
9.6034676e-11
9.1181241e-11
8.7201229e-11
8.3994865e-11
8.1429795e-11
7.9480916e-11
7.8014581e-11
7.6856915e-11
7.5842873e-11
7.4813592e-11
7.3644939e-11
7.2182337e-11
7.035898e-11
6.7586584e-11
6.5271144e-11
6.4142677e-11
6.3333686e-11
6.2747954e-11
6.22873e-11
6.19212e-11
6.1622531e-11
6.1373877e-11
6.1164023e-11
6.0984008e-11
6.0824526e-11
6.0676461e-11
6.0536922e-11
6.0401332e-11
6.0267464e-11
6.0136034e-11
6.0013042e-11
5.9903399e-11
5.9808152e-11
5.9730254e-11
5.9672951e-11
5.9638696e-11
5.9628069e-11
5.964017e-11
5.9675203e-11
5.9723229e-11
5.9769775e-11
5.9788423e-11
5.9749569e-11
5.9687575e-11
5.9616051e-11
5.9549253e-11
5.9496053e-11
5.9458445e-11
5.9433893e-11
5.9418432e-11
5.9408782e-11
5.9403373e-11
5.940019e-11
5.9393696e-11
5.9377666e-11
5.927513e-11
5.9285155e-11
5.920437e-11
5.9096644e-11
5.8974994e-11
5.8860157e-11
5.8795563e-11
5.8869648e-11
5.9007354e-11
5.9045136e-11
5.9060849e-11
5.909538e-11
5.9134207e-11
5.917027e-11
5.9184879e-11
5.9186107e-11
5.9182038e-11
5.9184578e-11
5.920306e-11
5.924621e-11
5.9323333e-11
5.9443884e-11
5.9600167e-11
5.9794316e-11
6.0036839e-11
6.0314686e-11
6.0550704e-11
6.0683381e-11
6.0708959e-11
6.0612148e-11
6.0366675e-11
5.9997637e-11
5.9549354e-11
5.9075434e-11
5.86774e-11
5.8505406e-11
5.8703209e-11
5.9061991e-11
5.9342537e-11
5.9595652e-11
5.9864016e-11
6.0083488e-11
6.018114e-11
6.0179913e-11
6.0135601e-11
6.0079422e-11
6.0020149e-11
5.9950789e-11
5.9853494e-11
5.9716084e-11
5.9564398e-11
5.9469683e-11
5.9490652e-11
5.964132e-11
5.9907976e-11
6.0265665e-11
6.0700181e-11
6.1201329e-11
6.1768219e-11
6.2410354e-11
6.3149143e-11
6.401858e-11
6.5073508e-11
6.6390842e-11
6.8083259e-11
6.9956916e-11
7.1260644e-11
7.2006088e-11
7.2705977e-11
7.3286387e-11
7.384712e-11
7.4482813e-11
7.5311789e-11
7.6462628e-11
7.8092188e-11
8.0290361e-11
8.3098001e-11
8.6728066e-11
9.125005e-11
9.6691094e-11
1.0306138e-10
1.1036121e-10
1.1856999e-10
1.2754487e-10
1.364907e-10
1.4624479e-10
1.5683841e-10
1.685018e-10
1.8163121e-10
1.9652474e-10
2.1340063e-10
2.3275255e-10
2.5515005e-10
2.8133906e-10
3.1188592e-10
3.5001603e-10
3.9495008e-10
4.4766761e-10
5.0354195e-10
5.6634816e-10
6.3694043e-10
7.1864528e-10
8.0807004e-10
9.1213285e-10
1.0233497e-09
9.5124341e-10
1.1723554e-09
2.1803063e-10
1.2317551e-09
8.2564779e-10
1.6910898e-12
1.4241356e-11
2.055878e-17
5.6763373e-15
4.2849371e-17
2.6507218e-11
1.5353396e-10
6.3712148e-11
3.8638895e-10
4.2433164e-10
3.9593085e-10
3.9561921e-10
3.5674754e-10
3.2496604e-10
2.914814e-10
2.6128334e-10
2.3286318e-10
2.0674742e-10
1.828137e-10
1.6204093e-10
1.4496365e-10
1.308648e-10
1.1905889e-10
1.0912873e-10
1.0069251e-10
9.3448543e-11
8.7314899e-11
8.2105329e-11
7.7673926e-11
7.3735446e-11
7.0180562e-11
6.7110285e-11
6.45619e-11
6.2559758e-11
6.111065e-11
6.0204351e-11
5.9804583e-11
5.9795614e-11
6.0037986e-11
5.9499839e-11
4.7501215e-11
3.8575402e-11
3.2005612e-11
2.7251748e-11
2.3930348e-11
2.1789484e-11
2.0685708e-11
2.0627426e-11
2.1767345e-11
2.3020591e-11
2.3908698e-11
2.4585717e-11
2.5160626e-11
2.5651269e-11
2.6079249e-11
2.6457537e-11
2.6791947e-11
2.7088966e-11
2.7352556e-11
2.7584204e-11
2.778362e-11
2.7949995e-11
2.8083283e-11
2.8185411e-11
2.8261363e-11
2.8321726e-11
2.8377493e-11
2.8432746e-11
2.8493771e-11
2.8566777e-11
2.8656857e-11
2.8766565e-11
2.8896243e-11
2.9047495e-11
2.9208248e-11
2.9360434e-11
2.9481042e-11
2.9555534e-11
2.9588032e-11
2.9596703e-11
2.9601805e-11
2.9616782e-11
2.9645523e-11
2.9684926e-11
2.9729559e-11
2.9775001e-11
2.9819036e-11
2.9858924e-11
2.9887357e-11
2.9911022e-11
2.9818814e-11
2.9815079e-11
2.9720827e-11
2.9588889e-11
2.9439681e-11
2.930448e-11
2.9244017e-11
2.9380224e-11
2.9593534e-11
2.9646371e-11
2.966561e-11
2.9695148e-11
2.9746831e-11
2.9804268e-11
2.9816474e-11
2.9810144e-11
2.9797175e-11
2.9794143e-11
2.9813432e-11
2.9866974e-11
2.9968493e-11
3.0127494e-11
3.0334155e-11
3.0594333e-11
3.092355e-11
3.12883e-11
3.1574978e-11
3.1703382e-11
3.1663931e-11
3.1432842e-11
3.0979529e-11
3.0362553e-11
2.9640669e-11
2.8907982e-11
2.830491e-11
2.8046172e-11
2.8283536e-11
2.8663055e-11
2.8913929e-11
2.9154897e-11
2.9435985e-11
2.9612852e-11
2.960445e-11
2.9462889e-11
2.9264876e-11
2.904306e-11
2.8801132e-11
2.8524804e-11
2.8193828e-11
2.7793147e-11
2.7370005e-11
2.7013458e-11
2.6780902e-11
2.66733e-11
2.6661843e-11
2.6711241e-11
2.6789254e-11
2.6870459e-11
2.6937114e-11
2.6977541e-11
2.6984864e-11
2.6949152e-11
2.686101e-11
2.6656129e-11
2.619987e-11
2.4275914e-11
2.1702972e-11
2.090031e-11
2.1428414e-11
2.3088553e-11
2.5951224e-11
3.0177316e-11
3.6138254e-11
4.4315809e-11
5.5362117e-11
5.7633148e-11
5.7294525e-11
5.7275938e-11
5.7677693e-11
5.8597706e-11
6.0060609e-11
6.2080911e-11
6.4656219e-11
6.7742163e-11
7.1115925e-11
7.4946081e-11
7.929003e-11
8.4300818e-11
9.0226162e-11
9.7162856e-11
1.0516943e-10
1.1459846e-10
1.2579342e-10
1.3917679e-10
1.5510466e-10
1.7527251e-10
1.9829993e-10
2.2372374e-10
2.5012638e-10
2.7810186e-10
3.067777e-10
3.3647745e-10
3.6304788e-10
3.878952e-10
4.0379593e-10
3.5073666e-10
3.8738843e-10
7.6947504e-11
1.8038424e-10
6.4683015e-11
7.996122e-17
5.5242984e-15
4.6183721e-22
3.1532325e-19
4.5266022e-23
1.8524318e-13
1.1257074e-11
1.028885e-11
1.0482436e-10
1.4203995e-10
1.3678459e-10
1.463168e-10
1.3700172e-10
1.2969623e-10
1.1950489e-10
1.0945454e-10
9.9211803e-11
8.9371676e-11
8.0075048e-11
7.1932315e-11
6.5380766e-11
6.0169118e-11
5.600192e-11
5.2688744e-11
5.0058289e-11
4.7975997e-11
4.6418206e-11
4.5312566e-11
4.4640738e-11
4.4307968e-11
4.4247528e-11
4.0988292e-11
3.3023151e-11
2.6082556e-11
2.0195882e-11
1.533656e-11
1.1431352e-11
8.3981153e-12
6.1523173e-12
4.5580816e-12
3.4338218e-12
2.6428339e-12
2.0890874e-12
1.7052501e-12
1.4458496e-12
1.2816415e-12
1.1948542e-12
1.1816745e-12
1.2484323e-12
1.3218256e-12
1.3735593e-12
1.412895e-12
1.4463222e-12
1.4747303e-12
1.4994612e-12
1.5212004e-12
1.5402945e-12
1.5571341e-12
1.5719378e-12
1.584751e-12
1.5954961e-12
1.604065e-12
1.6104163e-12
1.614666e-12
1.6171685e-12
1.6186864e-12
1.6200599e-12
1.6216003e-12
1.623774e-12
1.6270416e-12
1.6317836e-12
1.6381904e-12
1.6462614e-12
1.6561162e-12
1.6668489e-12
1.6770674e-12
1.6849881e-12
1.689463e-12
1.6907739e-12
1.6902936e-12
1.6895723e-12
1.6896489e-12
1.6908384e-12
1.6929208e-12
1.6954905e-12
1.6982106e-12
1.7009059e-12
1.7033625e-12
1.7050206e-12
1.706179e-12
1.6989792e-12
1.6981271e-12
1.6904761e-12
1.6799621e-12
1.6681534e-12
1.6574446e-12
1.6524628e-12
1.6625054e-12
1.6785911e-12
1.6827946e-12
1.6843398e-12
1.6865494e-12
1.6906101e-12
1.6951943e-12
1.6961731e-12
1.695777e-12
1.6949287e-12
1.6949203e-12
1.6967134e-12
1.7012327e-12
1.7095145e-12
1.7222505e-12
1.7387569e-12
1.7595235e-12
1.7859603e-12
1.8154321e-12
1.8388445e-12
1.8498804e-12
1.8477552e-12
1.8306125e-12
1.7961682e-12
1.748535e-12
1.6931998e-12
1.6375884e-12
1.5922227e-12
1.5728846e-12
1.5917239e-12
1.6220445e-12
1.642953e-12
1.6632341e-12
1.6866192e-12
1.7021212e-12
1.7034365e-12
1.6945351e-12
1.6813797e-12
1.6665209e-12
1.6502212e-12
1.6313415e-12
1.6083576e-12
1.5802661e-12
1.5510816e-12
1.5276292e-12
1.5140055e-12
1.510081e-12
1.5136487e-12
1.5221131e-12
1.533141e-12
1.54491e-12
1.5561648e-12
1.5661028e-12
1.5742802e-12
1.5800342e-12
1.5826584e-12
1.5773059e-12
1.5535575e-12
1.427967e-12
1.2564734e-12
1.2070825e-12
1.2514076e-12
1.3785964e-12
1.5996797e-12
1.9359373e-12
2.4301884e-12
3.1418341e-12
4.1570234e-12
5.592001e-12
7.6123054e-12
1.0389378e-11
1.4008979e-11
1.8564954e-11
2.4158292e-11
3.0852993e-11
3.8670988e-11
4.3073343e-11
4.3269849e-11
4.3758135e-11
4.4569549e-11
4.5740685e-11
4.7354769e-11
4.9431673e-11
5.201215e-11
5.5254983e-11
5.9322582e-11
6.4423936e-11
7.0685519e-11
7.891818e-11
8.8161067e-11
9.7964838e-11
1.079121e-10
1.1788022e-10
1.2706319e-10
1.3529216e-10
1.400998e-10
1.423845e-10
1.3782817e-10
1.1409663e-10
1.0946942e-10
2.0945607e-11
1.552594e-11
2.3131722e-12
4.7359961e-22
2.2507061e-19
1.0862222e-27
3.7181116e-24
9.6543966e-30
5.4909922e-17
2.3027714e-13
7.0892754e-13
1.6547698e-11
4.5239007e-11
4.3638898e-11
5.084376e-11
4.9641905e-11
4.9456375e-11
4.7485159e-11
4.5304347e-11
4.2772707e-11
4.0250287e-11
3.7813065e-11
3.5714119e-11
3.4162271e-11
2.984991e-11
2.4082559e-11
1.9561145e-11
1.5994661e-11
1.3160847e-11
1.0903212e-11
9.0831518e-12
7.5999962e-12
6.2839801e-12
5.0736151e-12
4.0009752e-12
3.0801633e-12
2.3144829e-12
1.6976405e-12
1.2161638e-12
8.5178368e-13
5.8618289e-13
4.020979e-13
2.7974997e-13
1.9869828e-13
1.4487377e-13
1.0910019e-13
8.5390794e-14
6.9929383e-14
6.0357175e-14
5.525164e-14
5.4157358e-14
5.7210955e-14
6.0572362e-14
6.2925845e-14
6.4712171e-14
6.6231372e-14
6.7516167e-14
6.8631997e-14
6.9605041e-14
7.0452433e-14
7.1192709e-14
7.183513e-14
7.2379476e-14
7.2818782e-14
7.3144677e-14
7.3353138e-14
7.3449665e-14
7.3454028e-14
7.3408656e-14
7.3363448e-14
7.333706e-14
7.3356374e-14
7.3447925e-14
7.3633853e-14
7.3925312e-14
7.4321059e-14
7.4827818e-14
7.5393853e-14
7.5936743e-14
7.6350084e-14
7.6563891e-14
7.6592548e-14
7.6515775e-14
7.6424995e-14
7.6382241e-14
7.6407341e-14
7.6488551e-14
7.6602728e-14
7.6730243e-14
7.6860556e-14
7.6980962e-14
7.7058617e-14
7.7100301e-14
7.6678708e-14
7.6601314e-14
7.6132721e-14
7.5495646e-14
7.4782322e-14
7.4133291e-14
7.3818765e-14
7.4382195e-14
7.5313703e-14
7.5576202e-14
7.5675871e-14
7.5810331e-14
7.6056111e-14
7.6334309e-14
7.6393886e-14
7.6373696e-14
7.632952e-14
7.6339092e-14
7.6460036e-14
7.6747548e-14
7.7261873e-14
7.8041418e-14
7.9050434e-14
8.032047e-14
8.1950072e-14
8.3781851e-14
8.5249888e-14
8.5968925e-14
8.5889478e-14
8.4899458e-14
8.2869267e-14
8.0015968e-14
7.6729685e-14
7.3462112e-14
7.081637e-14
6.9670919e-14
7.0778461e-14
7.2612739e-14
7.3926661e-14
7.5209131e-14
7.6673565e-14
7.7678134e-14
7.7844044e-14
7.7402351e-14
7.6709816e-14
7.592017e-14
7.5047152e-14
7.4020095e-14
7.2750655e-14
7.1192064e-14
6.9608789e-14
6.8401403e-14
6.778905e-14
6.7749587e-14
6.8152233e-14
6.885019e-14
6.9713665e-14
7.0641864e-14
7.1565584e-14
7.2440825e-14
7.3243065e-14
7.3933958e-14
7.4464047e-14
7.4539479e-14
7.3524366e-14
6.704112e-14
5.8116312e-14
5.5715295e-14
5.8400052e-14
6.5760289e-14
7.8751702e-14
9.9171892e-14
1.3051668e-13
1.7798762e-13
2.496614e-13
3.5745145e-13
5.1956051e-13
7.577609e-13
1.0888388e-12
1.5320174e-12
2.1085325e-12
2.8365659e-12
3.7298053e-12
4.7940007e-12
6.0228877e-12
7.3968798e-12
8.9658722e-12
1.0854434e-11
1.3255056e-11
1.6235858e-11
1.9983836e-11
2.4745543e-11
3.0842199e-11
3.4492046e-11
3.5995876e-11
3.8275357e-11
4.0809496e-11
4.3388835e-11
4.5956901e-11
4.8365599e-11
5.0151255e-11
5.1267581e-11
5.0452435e-11
4.8794649e-11
4.3387305e-11
3.5856003e-11
2.1065994e-11
2.1755712e-12
4.531237e-13
1.4373393e-14
3.831503e-27
1.4725523e-24
2.7982007e-31
1.4001497e-29
5.4711996e-27
4.0476782e-22
1.5070254e-15
3.5075907e-14
1.3471478e-12
6.7080401e-12
6.9273867e-12
1.144657e-11
1.245316e-11
1.393774e-11
1.3885443e-11
1.313548e-11
1.1657568e-11
9.8025901e-12
7.7624321e-12
5.9138685e-12
4.5013337e-12
3.4537389e-12
2.6713226e-12
2.083633e-12
1.6388878e-12
1.2993903e-12
1.0392263e-12
8.3720603e-13
6.7865196e-13
5.427375e-13
4.2196427e-13
3.1904457e-13
2.3448246e-13
1.6749727e-13
1.1632456e-13
7.8613712e-14
5.1774859e-14
3.34351e-14
2.1541459e-14
1.413718e-14
9.5236631e-15
6.6264731e-15
4.7934905e-15
3.6281785e-15
2.8922686e-15
2.445091e-15
2.2038852e-15
2.1380492e-15
2.2435552e-15
2.3607688e-15
2.4428622e-15
2.5050059e-15
2.5580531e-15
2.6026046e-15
2.6411491e-15
2.6743285e-15
2.7028177e-15
2.727305e-15
2.7480742e-15
2.764984e-15
2.7775931e-15
2.7854123e-15
2.7881796e-15
2.7861039e-15
2.780087e-15
2.7720439e-15
2.7643927e-15
2.7580443e-15
2.7542584e-15
2.7542763e-15
2.7591438e-15
2.7693957e-15
2.7849235e-15
2.8060177e-15
2.8303045e-15
2.8538266e-15
2.8714297e-15
2.879643e-15
2.8790308e-15
2.8733415e-15
2.8669502e-15
2.8628691e-15
2.8621152e-15
2.8641949e-15
2.8680466e-15
2.8727487e-15
2.8777926e-15
2.8825713e-15
2.885529e-15
2.8865136e-15
2.8669334e-15
2.8619285e-15
2.838895e-15
2.8077986e-15
2.773011e-15
2.7411887e-15
2.7250517e-15
2.7501953e-15
2.793673e-15
2.8071056e-15
2.8124569e-15
2.8194611e-15
2.8315429e-15
2.8450602e-15
2.8480027e-15
2.8471509e-15
2.8452688e-15
2.8461541e-15
2.8526139e-15
2.8673203e-15
2.8931177e-15
2.931725e-15
2.9816804e-15
3.0446398e-15
3.1261513e-15
3.2187878e-15
3.2936893e-15
3.3316546e-15
3.3301384e-15
3.2836103e-15
3.1860441e-15
3.0468679e-15
2.8879673e-15
2.7318358e-15
2.6063434e-15
2.5504532e-15
2.6017565e-15
2.6909826e-15
2.7575294e-15
2.8228422e-15
2.8967768e-15
2.9489969e-15
2.9609359e-15
2.9433969e-15
2.9137049e-15
2.8794043e-15
2.8410452e-15
2.7950435e-15
2.7372409e-15
2.6662405e-15
2.5962536e-15
2.5462477e-15
2.5254537e-15
2.532069e-15
2.5598368e-15
2.6020751e-15
2.6529755e-15
2.7080476e-15
2.7642106e-15
2.8195075e-15
2.872812e-15
2.9222592e-15
2.9649737e-15
2.9863452e-15
2.9550306e-15
2.6861875e-15
2.309944e-15
2.2133456e-15
2.3393066e-15
2.6769297e-15
3.2832354e-15
4.2666767e-15
5.8396272e-15
8.340196e-15
1.2329922e-14
1.8707552e-14
2.8950495e-14
4.5049079e-14
6.8941178e-14
1.0300669e-13
1.500446e-13
2.128363e-13
2.9393734e-13
3.9519347e-13
5.1715172e-13
6.5879766e-13
8.2669025e-13
1.0367435e-12
1.3148797e-12
1.674205e-12
2.1451356e-12
2.76954e-12
3.6049046e-12
4.7331957e-12
6.2419417e-12
8.3444466e-12
1.0655052e-11
1.2777864e-11
1.4578864e-11
1.5792787e-11
1.6035243e-11
1.5316671e-11
1.308693e-11
1.0505338e-11
6.7363792e-12
3.9880728e-12
1.8225267e-12
1.9065031e-13
3.7162777e-15
2.253326e-17
3.0709785e-31
2.2591612e-30
4.0651815e-31
6.9026268e-31
4.4945488e-31
7.9696475e-29
2.6522683e-18
1.1580311e-15
8.0986691e-14
5.7658015e-13
6.604993e-13
1.2012723e-12
1.3816706e-12
1.6037705e-12
1.6275555e-12
1.5441326e-12
1.3558402e-12
1.1141464e-12
8.5053331e-13
6.1902832e-13
4.4977333e-13
3.299209e-13
2.4438495e-13
1.8290651e-13
1.3831517e-13
1.0563939e-13
8.1565674e-14
6.3564134e-14
4.9953866e-14
3.8680452e-14
2.9001381e-14
2.1069625e-14
1.4829786e-14
1.0116735e-14
6.6967138e-15
4.3104988e-15
2.7063911e-15
1.6719266e-15
1.0380478e-15
6.6360256e-16
4.4064095e-16
3.0574209e-16
2.2272006e-16
1.708522e-16
1.382632e-16
1.1818504e-16
1.0664154e-16
1.020309e-16
1.034331e-16
1.0534937e-16
1.0690476e-16
1.0807611e-16
1.0913442e-16
1.1000296e-16
1.1074757e-16
1.1135555e-16
1.1184188e-16
1.1222313e-16
1.1249957e-16
1.1265301e-16
1.1265269e-16
1.1246738e-16
1.1207889e-16
1.1149361e-16
1.1075281e-16
1.09944e-16
1.0918649e-16
1.0852438e-16
1.0801653e-16
1.0772075e-16
1.0768604e-16
1.0793727e-16
1.0846617e-16
1.0928316e-16
1.1027775e-16
1.1125598e-16
1.1196327e-16
1.1222416e-16
1.1205957e-16
1.1164838e-16
1.1120332e-16
1.1087297e-16
1.1071007e-16
1.1069423e-16
1.1077645e-16
1.1091297e-16
1.1107904e-16
1.1124533e-16
1.1133736e-16
1.1131968e-16
1.1044017e-16
1.1008465e-16
1.0893367e-16
1.0739326e-16
1.0567196e-16
1.0408719e-16
1.0324056e-16
1.0434161e-16
1.0637286e-16
1.0706748e-16
1.0736066e-16
1.077631e-16
1.0836331e-16
1.090045e-16
1.0915459e-16
1.0912185e-16
1.0904581e-16
1.091145e-16
1.0946661e-16
1.102332e-16
1.1155079e-16
1.1349733e-16
1.1601598e-16
1.1919602e-16
1.2335026e-16
1.2814021e-16
1.3205807e-16
1.3412421e-16
1.3420357e-16
1.3201524e-16
1.272703e-16
1.2038872e-16
1.1259576e-16
1.0503958e-16
9.9022288e-17
9.6263904e-17
9.8650887e-17
1.0307636e-16
1.0654403e-16
1.0997646e-16
1.1383499e-16
1.1666211e-16
1.1752204e-16
1.1692078e-16
1.1571574e-16
1.1428613e-16
1.1265203e-16
1.1062623e-16
1.080068e-16
1.0478255e-16
1.017383e-16
9.9791972e-17
9.9334464e-17
1.0024881e-16
1.0223859e-16
1.0500269e-16
1.0828504e-16
1.1189107e-16
1.1569196e-16
1.1961322e-16
1.2362074e-16
1.2764639e-16
1.3155466e-16
1.3464107e-16
1.3536449e-16
1.2575194e-16
1.1046808e-16
1.063152e-16
1.1154376e-16
1.2572299e-16
1.5148665e-16
1.939428e-16
2.6337864e-16
3.7704662e-16
5.6533485e-16
8.803881e-16
1.4141163e-15
2.3030926e-15
3.7029075e-15
5.8199285e-15
8.9145819e-15
1.3275239e-14
1.9200256e-14
2.6951352e-14
3.6690528e-14
4.8444343e-14
6.2905035e-14
8.170878e-14
1.0764904e-13
1.4254276e-13
1.9025142e-13
2.563405e-13
3.4885731e-13
4.7985788e-13
6.6341348e-13
9.3234247e-13
1.2377926e-12
1.5223317e-12
1.7610943e-12
1.9108773e-12
1.916374e-12
1.776668e-12
1.4442353e-12
1.0724817e-12
6.2119772e-13
3.3057449e-13
1.1638235e-13
1.3834806e-14
7.5117691e-18
1.1991152e-20
2.1164932e-27
6.7587711e-31
5.8432135e-31
2.0659804e-24
3.7719232e-22
3.5978946e-25
1.5239601e-21
2.4831386e-17
3.4114e-15
3.8748595e-14
4.9570559e-14
1.0092799e-13
1.2396041e-13
1.503822e-13
1.5632154e-13
1.4931429e-13
1.3005384e-13
1.0462325e-13
7.7065436e-14
5.3618035e-14
3.7221736e-14
2.6137175e-14
1.8576717e-14
1.3374327e-14
9.7544944e-15
7.2049657e-15
5.3960748e-15
4.0907416e-15
3.1375871e-15
2.3721138e-15
1.7341556e-15
1.2285131e-15
8.4464445e-16
5.652197e-16
3.6982034e-16
2.3820195e-16
1.524187e-16
9.8366143e-17
6.5651419e-17
4.6349584e-17
3.4763777e-17
2.764349e-17
2.3145807e-17
2.021791e-17
1.8238447e-17
1.6834981e-17
1.5748871e-17
1.4850157e-17
1.3918428e-17
1.3106871e-17
1.2671636e-17
1.2354974e-17
1.2117306e-17
1.19174e-17
1.1747022e-17
1.1593883e-17
1.1453776e-17
1.1323919e-17
1.1200724e-17
1.1079244e-17
1.095374e-17
1.0818973e-17
1.0671663e-17
1.0511651e-17
1.0342899e-17
1.0174155e-17
1.0018462e-17
9.8801866e-18
9.7650697e-18
9.678682e-18
9.6257406e-18
9.6084102e-18
9.6251629e-18
9.6762405e-18
9.7500632e-18
9.8252523e-18
9.8737454e-18
9.8758346e-18
9.8331006e-18
9.7645279e-18
9.6930331e-18
9.6348074e-18
9.5958062e-18
9.574196e-18
9.5650142e-18
9.5636544e-18
9.567446e-18
9.5732562e-18
9.5732474e-18
9.5586437e-18
9.4833164e-18
9.418858e-18
9.2904454e-18
9.121221e-18
8.932873e-18
8.758398e-18
8.6596052e-18
8.7603244e-18
8.9647618e-18
9.0421799e-18
9.0774745e-18
9.1347692e-18