/*--------------------------------*- C++ -*----------------------------------*\
| =========                 |                                                 |
| \\      /  F ield         | OpenFOAM: The Open Source CFD Toolbox           |
|  \\    /   O peration     | Version:  2.4.0                                 |
|   \\  /    A nd           | Web:      www.OpenFOAM.org                      |
|    \\/     M anipulation  |                                                 |
\*---------------------------------------------------------------------------*/
FoamFile
{
    version     2.0;
    format      ascii;
    class       surfaceScalarField;
    location    "400";
    object      phi;
}
// * * * * * * * * * * * * * * * * * * * * * * * * * * * * * * * * * * * * * //

dimensions      [0 3 -1 0 0 0 0];

internalField   nonuniform List<scalar> 
39004
(
0.0044276395
-0.000243744
0.0044227063
-0.00023976131
0.0044177345
-0.00023567953
0.0044127227
-0.00023149748
0.0044076698
-0.00022721404
0.0044025744
-0.00022282788
0.0043974354
-0.00021833756
0.0043922513
-0.00021374144
0.004387021
-0.00020903772
0.0043817431
-0.00020422442
0.0043764166
-0.00019929986
0.0043710401
-0.00019426135
0.0043656127
-0.00018910671
0.0043601333
-0.00018383315
0.0043546008
-0.00017843811
0.0043490144
-0.00017291868
0.0043433732
-0.00016727147
0.0043376766
-0.00016149321
0.0043319241
-0.00015558059
0.0043261152
-0.00014952944
0.0043202499
-0.00014333593
0.004314328
-0.00013699571
0.0043083498
-0.00013050448
0.0043023158
-0.00012385756
0.0042962268
-0.00011705002
0.0042900838
-0.00011007666
0.0042838883
-0.00010293198
0.0042776422
-9.5610189e-05
0.0042713477
-8.810547e-05
0.0042650077
-8.041138e-05
0.0042586256
-7.2521454e-05
0.0042522055
-6.44288e-05
0.0042457519
-5.6126419e-05
0.0042392702
-4.7606867e-05
0.0042327666
-3.8862401e-05
0.0042262484
-2.9885511e-05
0.0042197249
-2.0670427e-05
0.0042132105
-1.1218517e-05
0.0042067271
-1.5415269e-06
0.0042002737
8.3767512e-06
0.004193841
1.8569608e-05
0.0041874405
2.9054645e-05
0.0041810867
3.9841912e-05
0.0041747954
5.0933176e-05
0.004168583
6.2308226e-05
0.0041631079
4.5248682e-05
0.0041599823
-4.1695185e-05
0.0041592739
-0.00013035008
0.004160945
-0.00021716809
0.0041649258
-0.00030189756
0.0041711219
-0.00038435642
0.0041794158
-0.00046442133
0.0041896723
-0.00054203005
0.0042017405
-0.00061706461
0.0042154619
-0.00068967211
0.0042306737
-0.00075997482
0.0042472033
-0.00082785914
0.0042648813
-0.00089361632
0.0042835404
-0.00095748935
0.0043030081
-0.0010192948
0.0043231132
-0.0010789128
0.0043436463
-0.0011332558
0.004364411
-0.0011819434
0.004385247
-0.0012260889
-0.0012658316
0.0047502782
-0.00023847628
0.0047449829
-0.00023446601
0.0047396591
-0.00023035565
0.0047343055
-0.00022614392
0.0047289212
-0.00022182971
0.0047235049
-0.00021741165
0.0047180556
-0.00021288827
0.0047125722
-0.00020825799
0.0047070535
-0.000203519
0.0047014984
-0.00019866936
0.004695906
-0.00019370741
0.0046902751
-0.00018863054
0.004684605
-0.00018343661
0.0046788947
-0.00017812283
0.0046731434
-0.00017268682
0.0046673504
-0.00016712568
0.0046615151
-0.00016143617
0.004655637
-0.00015561509
0.0046497158
-0.00014965935
0.0046437513
-0.00014356492
0.0046377434
-0.00013732809
0.0046316925
-0.00013094483
0.004625599
-0.00012441094
0.0046194635
-0.00011772206
0.004613287
-0.00011087353
0.0046070708
-0.00010386049
0.0046008166
-9.6677761e-05
0.0045945265
-8.9320036e-05
0.0045882029
-8.1781894e-05
0.0045818489
-7.4057434e-05
0.0045754682
-6.6140737e-05
0.0045690649
-5.8025519e-05
0.004562644
-4.9705429e-05
0.0045562108
-4.1173746e-05
0.004549772
-3.2423605e-05
0.0045433354
-2.3448907e-05
0.0045369135
-1.4248508e-05
0.0045305237
-4.8286933e-06
0.004524168
4.8141142e-06
0.0045178428
1.4701959e-05
0.0045115533
2.4859132e-05
0.0045053105
3.5297458e-05
0.0044991289
4.6023562e-05
0.0044930238
5.7038216e-05
0.0044870116
6.8320487e-05
0.0044816778
5.0582472e-05
0.0044784606
-3.8478055e-05
0.0044774297
-0.00012931911
0.0044785555
-0.00021829395
0.004481779
-0.00030512104
0.0044870148
-0.00038959218
0.0044941546
-0.00047156115
0.0045030721
-0.00055094758
0.0045136245
-0.00062761704
0.0045256616
-0.00070170914
0.0045390263
-0.00077333953
0.0045535534
-0.00084238631
0.0045690798
-0.00090914266
0.0045854433
-0.00097385285
0.0046024771
-0.0010363286
0.0046200159
-0.0010964516
0.0046378637
-0.0011511036
0.004655838
-0.0011999178
0.0046737897
-0.0012440406
-0.0012836269
0.0050834427
-0.00023290205
0.0050778516
-0.00022887494
0.0050722426
-0.00022474669
0.0050666148
-0.00022051612
0.0050609673
-0.00021618215
0.005055299
-0.00021174335
0.005049609
-0.00020719831
0.0050438965
-0.00020254551
0.0050381606
-0.00019778306
0.0050324004
-0.00019290913
0.0050266151
-0.0001879221
0.0050208039
-0.00018281936
0.0050149661
-0.00017759883
0.0050091012
-0.00017225789
0.0050032085
-0.00016679415
0.0049972876
-0.0001612048
0.0049913382
-0.00015548672
0.00498536
-0.00014963691
0.004979353
-0.00014365232
0.0049733172
-0.00013752913
0.0049672529
-0.00013126386
0.0049611607
-0.00012485259
0.0049550412
-0.00011829142
0.0049488953
-0.00011157619
0.0049427243
-0.00010470256
0.0049365298
-9.766597e-05
0.0049303137
-9.0461625e-05
0.0049240783
-8.3084648e-05
0.0049178264
-7.553005e-05
0.0049115614
-6.7792414e-05
0.0049052871
-5.9866378e-05
0.0048990078
-5.1746237e-05
0.0048927286
-4.3426239e-05
0.0048864552
-3.4900351e-05
0.0048801941
-2.6162562e-05
0.0048739544
-1.7209111e-05
0.0048677482
-8.0423764e-06
0.0048615891
1.3304651e-06
0.004855477
1.0926197e-05
0.0048494062
2.0772741e-05
0.0048433858
3.0879574e-05
0.0048374294
4.1253805e-05
0.0048315508
5.1902185e-05
0.0048257652
6.2823796e-05
0.0048200886
7.3997092e-05
0.0048150226
5.5648518e-05
0.0048118053
-3.5260825e-05
0.0048105056
-0.00012801934
0.0048111034
-0.00021889184
0.0048135509
-0.00030756851
0.004817773
-0.0003938143
0.0048236724
-0.00047746053
0.0048311335
-0.0005584087
0.0048400244
-0.00063650795
0.0048502047
-0.00071188941
0.0048615271
-0.00078466189
0.0048738359
-0.00085469518
0.0048869764
-0.00092228312
0.0049007944
-0.0009876709
0.004915131
-0.0010506652
0.00492983
-0.0011111506
0.0049447113
-0.001165985
0.0049596096
-0.001214816
0.0049743892
-0.0012588202
-0.0012981668
0.0054266744
-0.00022707977
0.0054208463
-0.00022304688
0.0054150117
-0.00021891203
0.0054091696
-0.00021467408
0.0054033195
-0.000210332
0.0053974605
-0.00020588439
0.005391592
-0.00020132983
0.0053857134
-0.00019666687
0.005379824
-0.00019189362
0.0053739232
-0.00018700833
0.0053680104
-0.00018200934
0.0053620853
-0.00017689423
0.0053561473
-0.0001716609
0.0053501963
-0.00016630683
0.0053442318
-0.00016082972
0.0053382539
-0.00015522684
0.0053322624
-0.00014949526
0.0053262575
-0.00014363202
0.0053202395
-0.0001376343
0.0053142088
-0.0001314984
0.005308166
-0.00012522106
0.0053021119
-0.00011879852
0.0052960477
-0.00011222718
0.0052899745
-0.00010550305
0.0052838941
-9.8622113e-05
0.0052778082
-9.158014e-05
0.0052717193
-8.4372694e-05
0.0052656299
-7.6995274e-05
0.0052595432
-6.9443344e-05
0.0052534628
-6.1711961e-05
0.0052473926
-5.3796253e-05
0.0052413375
-4.5691117e-05
0.0052353026
-3.739136e-05
0.0052292939
-2.8891631e-05
0.0052233183
-2.0186917e-05
0.0052173862
-1.1277008e-05
0.0052115127
-2.16891e-06
0.0052056962
7.147004e-06
0.0051999312
1.6691153e-05
0.0051942274
2.6476562e-05
0.0051885958
3.6511176e-05
0.0051830483
4.6801349e-05
0.005177598
5.7352472e-05
0.0051722599
6.8161838e-05
0.0051670487
7.9208294e-05
0.0051623735
6.0323755e-05
0.0051592478
-3.2135153e-05
0.0051577377
-0.00012650918
0.0051578329
-0.00021898712
0.0051594967
-0.00030923226
0.0051626653
-0.00039698287
0.0051672542
-0.0004820495
0.0051731602
-0.0005643147
0.0051802642
-0.00064361192
0.0051884379
-0.00072006309
0.005197546
-0.00079376996
0.005207445
-0.00086459417
0.0052179908
-0.00093282897
0.0052290395
-0.00099871959
0.005240443
-0.0010620687
0.0052520556
-0.0011227632
0.0052637171
-0.0011776465
0.0052752818
-0.0012263807
0.00528663
-0.0012701684
-0.0013091926
0.0057797318
-0.00022105733
0.0057737148
-0.00021702993
0.0057677029
-0.00021290009
0.0057616955
-0.00020866668
0.0057556922
-0.00020432866
0.0057496925
-0.00019988474
0.0057436962
-0.00019533348
0.0057377027
-0.00019067338
0.0057317118
-0.00018590272
0.0057257232
-0.00018101974
0.0057197367
-0.00017602286
0.0057137521
-0.00017090964
0.0057077694
-0.0001656782
0.0057017886
-0.00016032603
0.0056958098
-0.00015485088
0.0056898332
-0.00014925027
0.0056838592
-0.00014352127
0.0056778884
-0.00013766118
0.0056719213
-0.00013166721
0.0056659589
-0.000125536
0.0056600022
-0.00011926435
0.0056540525
-0.00011284885
0.0056481114
-0.00010628601
0.0056421805
-9.9572159e-05
0.0056362618
-9.2703482e-05
0.0056303578
-8.567613e-05
0.0056244711
-7.8485951e-05
0.0056186047
-7.1128848e-05
0.005612762
-6.3600685e-05
0.005606947
-5.5896956e-05
0.005601164
-4.8013306e-05
0.0055954181
-3.9945139e-05
0.0055897145
-3.1687819e-05
0.0055840596
-2.3236733e-05
0.0055784622
-1.4589476e-05
0.0055729328
-5.7476468e-06
0.005567475
3.2889514e-06
0.0055620893
1.2532679e-05
0.0055567785
2.2001902e-05
0.0055515508
3.1704307e-05
0.0055464177
4.1644278e-05
0.0055413909
5.1828177e-05
0.0055364832
6.2260125e-05
0.0055317096
7.2935421e-05
0.0055270838
8.3834156e-05
0.005522913
6.4494561e-05
0.0055199656
-2.9187822e-05
0.0055183035
-0.00012484709
0.005517926
-0.00021860953
0.0055188064
-0.00031011274
0.0055208949
-0.00039907132
0.0055241189
-0.00048527354
0.00552839
-0.00056858579
0.0055336031
-0.00064882505
0.0055396444
-0.00072610431
0.0055463923
-0.00080051789
0.0055537171
-0.00087191899
0.0055614881
-0.00094059992
0.0055695737
-0.0010068052
0.0055778388
-0.0010703338
0.0055861504
-0.0011310749
0.0055943714
-0.0011858674
0.0056023783
-0.0012343875
0.0056100701
-0.0012778602
-0.0013164808
0.0061425974
-0.00021487012
0.0061364272
-0.00021085974
0.0061302739
-0.00020674677
0.0061241374
-0.00020253013
0.0061180175
-0.00019820877
0.0061119141
-0.00019378142
0.0061058273
-0.00018924666
0.006099757
-0.00018460304
0.0060937031
-0.00017984889
0.0060876659
-0.00017498249
0.0060816454
-0.00017000231
0.0060756418
-0.00016490609
0.0060696555
-0.00015969188
0.0060636868
-0.00015435737
0.0060577364
-0.00014890043
0.0060518047
-0.0001433186
0.0060458927
-0.00013760923
0.0060400012
-0.00013176969
0.0060341314
-0.00012579739
0.0060282845
-0.00011968916
0.0060224622
-0.00011344205
0.0060166662
-0.00010705285
0.0060108985
-0.0001005183
0.0060051613
-9.3834989e-05
0.0059994572
-8.6999362e-05
0.0059937889
-8.0007836e-05
0.0059881596
-7.2856623e-05
0.0059825727
-6.554193e-05
0.005977032
-5.8060024e-05
0.0059715419
-5.0406849e-05
0.0059661071
-4.2578479e-05
0.0059607327
-3.4570777e-05
0.0059554245
-2.6379607e-05
0.0059501887
-1.8000902e-05
0.0059450335
-9.4343263e-06
0.0059399707
-6.8482999e-07
0.0059350023
8.2573525e-06
0.0059301252
1.7409788e-05
0.005925347
2.6780092e-05
0.0059206786
3.6372698e-05
0.0059161306
4.6192322e-05
0.0059117143
5.6244444e-05
0.0059074426
6.6531848e-05
0.0059033304
7.7047608e-05
0.0058993898
8.7774712e-05
0.0058958208
6.8063581e-05
0.0058931286
-2.6495588e-05
0.0058913698
-0.00012308833
0.0058905515
-0.00021779122
0.005890658
-0.00031021922
0.0058916506
-0.00040006389
0.005893472
-0.00048709494
0.0058960474
-0.00057116123
0.0058992879
-0.0006520656
0.0059030953
-0.00072991162
0.0059073629
-0.00080478555
0.0059119777
-0.0008765338
0.0059168237
-0.00094544584
0.0059217839
-0.0010117654
0.0059267381
-0.0010752881
0.0059315697
-0.0011359065
0.0059361663
-0.001190464
0.0059404299
-0.0012386512
0.0059442806
-0.0012817109
-0.0013198489
0.0065409497
-0.00022346112
0.0065345349
-0.00021988015
0.0065281483
-0.0002162
0.00652179
-0.00021242035
0.0065154604
-0.00020854048
0.0065091596
-0.00020455893
0.0065028878
-0.00020047503
0.0064966453
-0.00019628763
0.0064904324
-0.00019199583
0.0064842492
-0.00018759827
0.0064780962
-0.00018309358
0.0064719735
-0.00017848039
0.0064658817
-0.00017375709
0.0064598212
-0.00016892202
0.0064537926
-0.00016397369
0.0064477965
-0.00015890994
0.0064418335
-0.00015372893
0.0064359046
-0.00014842845
0.0064300106
-0.00014300646
0.0064241527
-0.00013746068
0.006418332
-0.00013178856
0.00641255
-0.00012598765
0.0064068081
-0.00012005553
0.0064011082
-0.00011398923
0.0063954522
-0.00010778602
0.0063898423
-0.00010144292
0.0063842809
-9.4956947e-05
0.0063787709
-8.8324929e-05
0.0063733151
-8.1543631e-05
0.006367917
-7.4609732e-05
0.0063625802
-6.7519792e-05
0.0063573086
-6.0270373e-05
0.0063521067
-5.285806e-05
0.006346979
-4.5279219e-05
0.0063419309
-3.7530382e-05
0.006336968
-2.960787e-05
0.0063320966
-2.150819e-05
0.0063273251
-1.3229362e-05
0.0063226624
-4.7716425e-06
0.0063181095
3.8680813e-06
0.0063136685
1.2698331e-05
0.006309347
2.173125e-05
0.0063051537
3.0973419e-05
0.0063010985
4.042794e-05
0.0062971918
5.0099033e-05
0.006293445
5.9991169e-05
0.0062898712
7.0105695e-05
0.0062864847
8.0434105e-05
0.0062832965
9.0962914e-05
0.0062803953
7.096473e-05
0.0062780134
-2.4113604e-05
0.0062761986
-0.00012127356
0.0062749646
-0.00021655723
0.0062743043
-0.00030955888
0.0062741908
-0.00039995046
0.0062745797
-0.00048748381
0.0062754116
-0.0005719931
0.0062766136
-0.00065326764
0.0062781041
-0.00073140209
0.0062797942
-0.00080647562
0.0062815882
-0.00087832788
0.0062833878
-0.00094724541
0.0062850928
-0.0010134704
0.0062866005
-0.0010767957
0.0062878123
-0.0011371183
0.0062886435
-0.0011912952
0.0062890242
-0.0012390318
0.0062888963
-0.001281583
-0.0013191637
0.0069447587
-0.00022688464
0.0069380644
-0.00022363412
0.0069314075
-0.0002202868
0.0069247886
-0.0002168422
0.0069182082
-0.00021329977
0.006911667
-0.00020965878
0.0069051655
-0.00020591883
0.0068987043
-0.00020207927
0.006892284
-0.00019813863
0.0068859051
-0.00019409617
0.0068795684
-0.00018995089
0.0068732743
-0.00018570176
0.0068670236
-0.00018134756
0.0068608169
-0.00017688689
0.006854655
-0.00017231844
0.0068485385
-0.00016764066
0.0068424685
-0.00016285201
0.0068364459
-0.0001579511
0.0068304717
-0.00015293575
0.0068245471
-0.0001478043
0.0068186733
-0.00014255461
0.0068128516
-0.00013718477
0.0068070836
-0.00013169269
0.0068013709
-0.0001260759
0.0067957155
-0.00012033217
0.0067901191
-0.0001144592
0.0067845841
-0.0001084542
0.0067791128
-0.00010231471
0.0067737078
-9.6037917e-05
0.006768372
-8.9621153e-05
0.0067631085
-8.3061486e-05
0.0067579209
-7.6355992e-05
0.0067528128
-6.9501655e-05
0.0067477885
-6.2495429e-05
0.0067428523
-5.5334193e-05
0.0067380091
-4.8014893e-05
0.0067332642
-4.0534294e-05
0.0067286231
-3.2889256e-05
0.0067240917
-2.5076514e-05
0.0067196765
-1.7092953e-05
0.006715385
-8.9378903e-06
0.0067112267
-6.1337263e-07
0.0067072064
7.8884224e-06
0.0067033245
1.6580263e-05
0.006699588
2.546768e-05
0.0066960078
3.4553681e-05
0.0066925938
4.3841913e-05
0.0066893566
5.3336181e-05
0.0066863077
6.3040117e-05
0.00668346
7.2953353e-05
0.0066808265
8.3067631e-05
0.0066784177
9.3371718e-05
0.006676211
7.3171468e-05
0.0066741575
-2.2060154e-05
0.0066722946
-0.00011941069
0.0066706411
-0.00021490369
0.0066691977
-0.00030811549
0.0066679484
-0.00039870117
0.0066668626
-0.00048639796
0.006665896
-0.00057102652
0.0066649939
-0.00065236559
0.0066640933
-0.00073050144
0.006663124
-0.00080550631
0.0066620099
-0.00087721383
0.0066606726
-0.00094590813
0.0066590298
-0.0010118276
0.0066569981
-0.0010747641
0.0066544983
-0.0011346185
0.0066514744
-0.0011882713
0.0066478851
-0.0012354425
0.0066436952
-0.0012773931
-0.0013143451
0.0073471001
-0.00022305569
0.0073401627
-0.00021994725
0.0073332724
-0.00021674382
0.0073264302
-0.00021344453
0.0073196366
-0.00021004863
0.0073128925
-0.00020655572
0.007306199
-0.00020296525
0.007299557
-0.00019927678
0.0072929671
-0.00019548944
0.0072864305
-0.00019160197
0.0072799479
-0.00018761357
0.0072735204
-0.00018352341
0.0072671491
-0.00017933043
0.0072608349
-0.00017503336
0.0072545788
-0.00017063083
0.007248382
-0.00016612162
0.0072422456
-0.0001615043
0.007236171
-0.00015677741
0.0072301595
-0.0001519396
0.0072242126
-0.00014698883
0.0072183318
-0.00014192345
0.0072125187
-0.00013674151
0.0072067751
-0.00013144124
0.0072011031
-0.00012602066
0.0071955047
-0.00012047754
0.0071899823
-0.00011480969
0.0071845381
-0.00010901499
0.0071791748
-0.00010309091
0.0071738952
-9.7035141e-05
0.0071687025
-9.0845177e-05
0.0071635998
-8.4518502e-05
0.0071585908
-7.8052501e-05
0.0071536793
-7.1444487e-05
0.0071488694
-6.4691774e-05
0.0071441656
-5.779163e-05
0.0071395728
-5.0741336e-05
0.0071350961
-4.35382e-05
0.0071307412
-3.6179401e-05
0.0071265141
-2.8662158e-05
0.0071224213
-2.0983724e-05
0.0071184705
-1.3142165e-05
0.0071146695
-5.1368874e-06
0.007111021
3.0351038e-06
0.0071075294
1.1380101e-05
0.0071042029
1.9906708e-05
0.0071010507
2.8619919e-05
0.0070980824
3.752197e-05
0.0070953084
4.6615915e-05
0.0070927397
5.5904876e-05
0.0070903881
6.539174e-05
0.0070882657
7.5075724e-05
0.0070863819
8.4951484e-05
0.0070847456
9.5007965e-05
0.0070832181
7.4698985e-05
0.0070814664
-2.0308417e-05
0.007079516
-0.00011746039
0.007077392
-0.00021277969
0.0070751064
-0.00030582982
0.0070726567
-0.0003962515
0.0070700274
-0.00048376864
0.0070671928
-0.00056819189
0.0070641175
-0.00064929033
0.0070607581
-0.00072714206
0.0070570647
-0.0008018129
0.007052982
-0.00087313112
0.0070484509
-0.00094137699
0.0070434081
-0.0010067848
0.0070377893
-0.0010691453
0.0070315334
-0.0011283626
0.0070246136
-0.0011813515
0.0070170151
-0.0012278439
0.0070087242
-0.0012691022
-0.0013053532
0.0075082355
-0.00021607616
0.0075013105
-0.00021302216
0.0074944417
-0.00020987502
0.00748763
-0.00020663293
0.0074808761
-0.00020329468
0.0074741808
-0.00019986045
0.0074675456
-0.00019633003
0.0074609715
-0.00019270269
0.0074544596
-0.00018897748
0.0074480107
-0.00018515309
0.0074416262
-0.00018122907
0.0074353075
-0.00017720469
0.0074290558
-0.00017307881
0.0074228726
-0.0001688501
0.007416759
-0.00016451721
0.0074107164
-0.00016007904
0.0074047464
-0.00015553431
0.0073988507
-0.00015088171
0.0073930309
-0.00014611985
0.0073872889
-0.00014124675
0.0073816263
-0.00013626089
0.0073760452
-0.00013116045
0.0073705479
-0.0001259439
0.0073651366
-0.00012060935
0.0073598138
-0.0001151547
0.007354582
-0.00010957789
0.007349444
-0.00010387698
0.0073444026
-9.8049597e-05
0.0073394612
-9.2093682e-05
0.007334623
-8.6006985e-05
0.0073298917
-7.97872e-05
0.0073252711
-7.3431905e-05
0.0073207653
-6.6938647e-05
0.0073163785
-6.0305024e-05
0.0073121154
-5.3528564e-05
0.007307981
-4.6606878e-05
0.0073039804
-3.9537619e-05
0.0073001193
-3.2318262e-05
0.0072964034
-2.4946341e-05
0.0072928392
-1.741945e-05
0.0072894334
-9.736435e-06
0.0072861932
-1.8966753e-06
0.0072831236
6.1047542e-06
0.0072802286
1.4275072e-05
0.0072775161
2.261925e-05
0.0072749962
3.1139787e-05
0.007272679
3.9839119e-05
0.0072705753
4.8719708e-05
0.0072686962
5.7783921e-05
0.007267054
6.7033979e-05
0.0072656594
7.647027e-05
0.0072645217
8.6089167e-05
0.0072636502
9.5879482e-05
0.0072628021
7.554713e-05
0.0072613833
-1.8889681e-05
0.007259405
-0.000115482
0.0072568956
-0.00021027036
0.0072538759
-0.00030281014
0.0072503564
-0.00039273195
0.0072463374
-0.00047974965
0.0072418105
-0.000563665
0.0072367599
-0.0006442397
0.0072311622
-0.00072154434
0.0072249871
-0.00079563786
0.0072182006
-0.00086634457
0.0072107624
-0.00093393879
0.0072026285
-0.00099865089
0.0071937531
-0.0010602699
0.0071840946
-0.0011187041
0.0071736517
-0.0011709087
0.0071624351
-0.0012166273
0.0071504516
-0.0012571187
-0.0012926124
0.0074162165
-0.00020932389
0.0074095261
-0.00020633174
0.0074028992
-0.00020324808
0.0073963346
-0.00020006837
0.0073898328
-0.00019679284
0.0073833952
-0.00019342286
0.0073770239
-0.00018995875
0.0073707203
-0.00018639912
0.0073644852
-0.00018274232
0.0073583194
-0.00017898728
0.0073522244
-0.00017513415
0.0073462021
-0.00017118237
0.007340254
-0.00016713067
0.0073343813
-0.00016297739
0.0073285853
-0.00015872129
0.0073228679
-0.00015436159
0.0073172308
-0.00014989723
0.007311676
-0.00014532694
0.0073062054
-0.00014064922
0.0073008208
-0.00013586216
0.0072955243
-0.00013096435
0.007290318
-0.00012595417
0.0072852044
-0.00012083031
0.0072801861
-0.00011559103
0.0072752656
-0.00011023426
0.0072704458
-0.00010475805
0.0072657294
-9.9160604e-05
0.0072611196
-9.3439778e-05
0.0072566197
-8.759378e-05
0.0072522333
-8.1620544e-05
0.007247964
-7.5517979e-05
0.0072438159
-6.9283798e-05
0.0072397931
-6.2915773e-05
0.0072358997
-5.6411707e-05
0.0072321406
-4.9769427e-05
0.0072285205
-4.2986818e-05
0.0072250447
-3.6061774e-05
0.0072217185
-2.8992019e-05
0.0072185475
-2.1775347e-05
0.0072155376
-1.4409612e-05
0.007212695
-6.8937801e-06
0.0072100253
7.7300194e-07
0.0072075343
8.5957454e-06
0.0072052279
1.6581502e-05
0.0072031141
2.4733059e-05
0.0072012022
3.3051649e-05
0.007199502
4.1539365e-05
0.0071980235
5.0198125e-05
0.0071967778
5.9029677e-05
0.007195776
6.803577e-05
0.0071950292
7.7217064e-05
0.0071945484
8.656996e-05
0.0071943443
9.6083619e-05
0.0071940944
7.5796962e-05
0.0071930053
-1.7800566e-05
0.0071910743
-0.00011355098
0.0071883308
-0.0002075269
0.0071847988
-0.00029927809
0.0071804962
-0.00038842939
0.0071754344
-0.00047468786
0.007169618
-0.0005578486
0.0071630457
-0.00063766733
0.0071557099
-0.00071420859
0.0071475971
-0.00078752508
0.0071386901
-0.00085743755
0.0071289666
-0.0009242153
0.0071183985
-0.00098808278
0.0071069577
-0.0010488291
0.0070946197
-0.0011063661
0.007081406
-0.001157695
0.0070673498
-0.001202571
0.0070524751
-0.001242244
-0.0012769453
0.0073101045
-0.00020279338
0.0073036452
-0.00019987239
0.0072972562
-0.00019685905
0.0072909349
-0.00019374714
0.0072846818
-0.00019053969
0.0072784988
-0.00018723984
0.0072723881
-0.00018384805
0.0072663498
-0.00018036081
0.0072603839
-0.00017677644
0.0072544916
-0.00017309503
0.0072486751
-0.00016931761
0.0072429366
-0.00016544393
0.0072372778
-0.00016147184
0.0072316996
-0.00015739918
0.0072262034
-0.00015322509
0.007220791
-0.00014894922
0.0072154648
-0.00014457096
0.0072102267
-0.00014008889
0.0072050788
-0.00013550133
0.007200023
-0.00013080631
0.0071950613
-0.00012600263
0.0071901961
-0.00012108905
0.0071854303
-0.00011606445
0.0071807664
-0.00011092716
0.0071762072
-0.00010567509
0.0071717556
-0.00010030636
0.0071674142
-9.4819273e-05
0.0071631865
-8.9212045e-05
0.0071590758
-8.3483103e-05
0.0071550859
-7.7630611e-05
0.0071512205
-7.1652571e-05
0.0071474835
-6.5546827e-05
0.0071438791
-5.9311321e-05
0.0071404114
-5.294409e-05
0.0071370853
-4.6443252e-05
0.0071339054
-3.9806971e-05
0.007130877
-3.303339e-05
0.0071280054
-2.6120406e-05
0.0071252962
-1.9066091e-05
0.0071227553
-1.186876e-05
0.0071203887
-4.5271767e-06
0.0071182002
2.9615449e-06
0.0071161948
1.0601074e-05
0.007114381
1.8395302e-05
0.0071127673
2.6346765e-05
0.0071113622
3.4456782e-05
0.0071101747
4.2726853e-05
0.0071092145
5.1158371e-05
0.0071084916
5.9752525e-05
0.0071080168
6.8510629e-05
0.0071078006
7.7433177e-05
0.0071078539
8.6516705e-05
0.0071081869
9.5750656e-05
0.0071084121
7.5571693e-05
0.0071075759
-1.6964337e-05
0.0071056685
-0.00011164362
0.0071027205
-0.00020457883
0.0070987592
-0.00029531678
0.0070938076
-0.00038347781
0.0070878847
-0.00046876496
0.0070810042
-0.00055096815
0.0070731766
-0.0006298397
0.0070644058
-0.00070543779
0.0070546906
-0.00077780986
0.0070440284
-0.00084677538
0.0070324096
-0.00091259653
0.0070198204
-0.00097549358
0.0070062472
-0.0010352559
0.0069916795
-0.0010917984
0.0069761584
-0.0011421738
0.0069597356
-0.0011861483
0.0069424509
-0.0012249593
-0.0012588394
0.007192378
-0.00019643734
0.0071861094
-0.00019360379
0.0071799259
-0.00019067552
0.0071738251
-0.00018764637
0.0071678043
-0.0001845189
0.0071618627
-0.00018129823
0.0071560002
-0.00017798552
0.0071502154
-0.00017457603
0.007144508
-0.00017106912
0.0071388791
-0.00016746612
0.0071333315
-0.00016376995
0.0071278674
-0.00015997981
0.0071224868
-0.00015609127
0.0071171904
-0.00015210279
0.0071119797
-0.00014801443
0.0071068572
-0.00014382666
0.0071018254
-0.00013953922
0.0070968868
-0.00013515026
0.007092043
-0.00013065749
0.0070872956
-0.00012605893
0.0070826468
-0.00012135381
0.0070780992
-0.00011654143
0.0070736557
-0.000111621
0.0070693193
-0.00010659071
0.0070650925
-0.00010144831
0.007060978
-9.6191895e-05
0.0070569788
-9.0820068e-05
0.0070530981
-8.5331328e-05
0.0070493395
-7.972451e-05
0.0070457068
-7.3997908e-05
0.0070422037
-6.8149522e-05
0.0070388342
-6.2177253e-05
0.007035602
-5.6079177e-05
0.0070325115
-4.9853615e-05
0.0070295673
-4.3499015e-05
0.0070267742
-3.7013827e-05
0.0070241371
-3.039636e-05
0.0070216614
-2.3644655e-05
0.0070193522
-1.6756909e-05
0.0070172152
-9.7317681e-06
0.0070152559
-2.5678531e-06
0.0070134797
4.7377631e-06
0.0070118922
1.2188564e-05
0.0070105005
1.9787029e-05
0.0070093127
2.7534538e-05
0.0070083371
3.5432388e-05
0.0070075822
4.3481711e-05
0.0070070572
5.1683421e-05
0.0070067715
6.0038223e-05
0.0070067351
6.8546975e-05
0.0070069584
7.7209943e-05
0.0070074513
8.6023765e-05
0.0070082238
9.4978156e-05
0.0070088352
7.4960276e-05
0.0070081987
-1.6327873e-05
0.007006298
-0.00010974284
0.0070031653
-0.00020144617
0.0069988313
-0.00029098275
0.0069933241
-0.00037797068
0.0069866694
-0.00046211022
0.006978889
-0.00054318777
0.0069700025
-0.00062095317
0.0069600242
-0.0006954595
0.0069489636
-0.00076674931
0.0069368292
-0.00083464093
0.0069236234
-0.00089939077
0.0069093439
-0.00096121407
0.0068939891
-0.001019901
0.006877561
-0.0010753704
0.0068601169
-0.0011247297
0.0068417242
-0.0011677556
0.0068224361
-0.0012056713
-0.0012387082
0.0070654499
-0.00019022645
0.007059325
-0.00018747888
0.0070532884
-0.00018463894
0.007047344
-0.00018170194
0.0070414931
-0.00017866799
0.0070357366
-0.00017554174
0.0070300736
-0.00017232254
0.0070245028
-0.00016900524
0.0070190228
-0.00016558914
0.0070136315
-0.00016207485
0.0070083292
-0.00015846758
0.007003116
-0.00015476664
0.0069979912
-0.00015096644
0.0069929556
-0.00014706723
0.0069880107
-0.00014306947
0.0069831588
-0.00013897483
0.0069784031
-0.00013478347
0.0069737448
-0.00013049195
0.0069691846
-0.00012609732
0.0069647242
-0.00012159853
0.0069603659
-0.0001169955
0.0069561127
-0.00011228823
0.0069519679
-0.00010747621
0.0069479343
-0.00010255717
0.0069440143
-9.7528298e-05
0.0069402103
-9.238782e-05
0.0069365249
-8.7134709e-05
0.0069329616
-8.1768002e-05
0.0069295241
-7.628698e-05
0.0069262162
-7.0690075e-05
0.0069230417
-6.497503e-05
0.0069200041
-5.9139651e-05
0.0069171072
-5.3182277e-05
0.0069143551
-4.7101528e-05
0.0069117523
-4.0896225e-05
0.0069093037
-3.456518e-05
0.0069070141
-2.8106782e-05
0.0069048885
-2.1519056e-05
0.0069029319
-1.4800257e-05
0.0069011494
-7.9492664e-06
0.0068995466
-9.6508996e-07
0.0068981294
6.154957e-06
0.0068969037
1.3414248e-05
0.0068958764
2.0814388e-05
0.0068950548
2.8356113e-05
0.0068944467
3.6040466e-05
0.0068940602
4.3868241e-05
0.0068939037
5.1839899e-05
0.0068939863
5.9955676e-05
0.0068943173
6.8215972e-05
0.0068949064
7.6620801e-05
0.0068957633
8.5166857e-05
0.0068968973
9.3844132e-05
0.0068978237
7.4033957e-05
0.0068973463
-1.5850469e-05
0.0068954429
-0.00010783952
0.0068921473
-0.00019815055
0.0068874929
-0.00028632835
0.0068815123
-0.00037199009
0.006874237
-0.00045483494
0.0068656961
-0.00053464679
0.0068559168
-0.00061117391
0.0068449226
-0.00068446528
0.0068327322
-0.00075455896
0.0068193643
-0.00082127295
0.0068048313
-0.00088485783
0.0067891408
-0.00094552355
0.0067723016
-0.0010030618
0.0067543265
-0.0010573953
0.0067352867
-0.0011056899
0.0067152627
-0.0011477316
0.0066943187
-0.0011847272
-0.001216907
0.006937362
-0.00018677942
0.0069313268
-0.00018419124
0.0069253643
-0.00018151633
0.0069194785
-0.00017875317
0.006913676
-0.00017589948
0.006907963
-0.00017295493
0.0069023427
-0.00016992144
0.0068968174
-0.00016679727
0.0068913904
-0.00016357821
0.0068860636
-0.00016026241
0.0068808387
-0.00015684996
0.0068757168
-0.00015334568
0.0068706974
-0.00014974721
0.0068657801
-0.00014604913
0.0068609646
-0.00014225175
0.00685625
-0.00013835487
0.0068516362
-0.00013436098
0.0068471239
-0.0001302712
0.0068427135
-0.00012608159
0.0068384061
-0.00012178987
0.0068342033
-0.00011739575
0.0068301072
-0.00011289935
0.0068261209
-0.00010830193
0.0068222478
-0.00010360314
0.0068184896
-9.8798995e-05
0.0068148478
-9.3886503e-05
0.0068113247
-8.8864691e-05
0.0068079231
-8.3733083e-05
0.0068046465
-7.8491401e-05
0.006801499
-7.3139524e-05
0.0067984846
-6.7675681e-05
0.0067956065
-6.2096898e-05
0.0067928677
-5.640089e-05
0.0067902718
-5.0586369e-05
0.0067878227
-4.4652411e-05
0.0067855249
-3.8598408e-05
0.0067833832
-3.2423539e-05
0.0067814026
-2.6126174e-05
0.0067795877
-1.9704125e-05
0.0067779431
-1.3155654e-05
0.0067764736
-6.4798015e-06
0.0067751845
3.2406281e-07
0.0067740813
7.2581006e-06
0.0067731705
1.4325105e-05
0.0067724588
2.1526097e-05
0.0067719531
2.8861741e-05
0.0067716608
3.6332858e-05
0.0067715891
4.3939905e-05
0.0067717461
5.1682919e-05
0.0067721401
5.9561648e-05
0.00677278
6.7576033e-05
0.006773675
7.5725849e-05
0.006774834
8.400787e-05
0.0067762657
9.2412421e-05
0.006777449
7.2850637e-05
0.0067770994
-1.5500873e-05
0.0067751891
-0.00010592924
0.0067717528
-0.00019471427
0.0067668266
-0.00028140208
0.0067604474
-0.00036561095
0.0067526514
-0.00044703889
0.0067434732
-0.00052546862
0.0067329483
-0.00060064896
0.0067211067
-0.00067262373
0.0067079756
-0.00074142786
0.0066935824
-0.00080687968
0.0066779482
-0.00086922366
0.006661089
-0.00092866438
0.0066430234
-0.00098499615
0.006623773
-0.0010381449
0.0066034204
-0.0010853373
0.0065820577
-0.0011263689
0.0065597582
-0.0011624276
-0.001193742
0.00680332
-0.00018332078
0.0067974212
-0.00018088068
0.0067915866
-0.00017835657
0.0067858185
-0.00017574825
0.0067801201
-0.00017305482
0.0067744957
-0.00017027503
0.0067689493
-0.0001674085
0.0067634832
-0.00016445542
0.0067581007
-0.00016141468
0.0067528066
-0.00015828416
0.0067476066
-0.00015506242
0.0067425061
-0.00015174946
0.0067375079
-0.00014834742
0.0067326143
-0.00014485365
0.0067278288
-0.00014126365
0.0067231531
-0.00013757605
0.006718589
-0.00013379074
0.0067141381
-0.00012991013
0.0067098014
-0.00012593448
0.0067055793
-0.00012185951
0.0067014726
-0.00011768312
0.0066974817
-0.00011340488
0.0066936064