0.00043385 	2.79748e-11 	7.69414e-15 	-2.97721e-31 	2.79748e-11 	-6.15511e-29 	2.79748e-11
0.00132759 	1.30085e-10 	2.10801e-13 	-1.46626e-28 	1.30086e-10 	-1.99659e-28 	1.30085e-10
0.00227498 	7.42829e-10 	2.50755e-12 	-1.66161e-27 	7.42843e-10 	3.11812e-26 	7.42835e-10
0.00327924 	2.65623e-09 	1.66553e-11 	1.39824e-26 	2.65635e-09 	1.69989e-25 	2.65629e-09
0.00434378 	7.1469e-09 	7.47641e-11 	8.24268e-26 	7.14763e-09 	-3.81275e-25 	7.14726e-09
0.00547221 	1.6057e-08 	2.57325e-10 	2.74469e-25 	1.60602e-08 	-1.56538e-24 	1.60586e-08
0.00666839 	3.193e-08 	7.33974e-10 	-5.91624e-25 	3.19412e-08 	-1.40049e-24 	3.19356e-08
0.00793636 	5.81752e-08 	1.82086e-09 	1.73421e-24 	5.82096e-08 	-2.55854e-23 	5.81924e-08
0.00928045 	9.92401e-08 	4.05093e-09 	-1.63285e-23 	9.93332e-08 	5.34581e-24 	9.92866e-08
0.0107052 	1.60744e-07 	8.23891e-09 	6.85817e-24 	1.60973e-07 	1.70765e-22 	1.60859e-07
0.0122155 	2.49481e-07 	1.54897e-08 	-2.45235e-24 	2.50007e-07 	4.78031e-22 	2.49744e-07
0.0138164 	3.7312e-07 	2.70468e-08 	2.71354e-22 	3.74248e-07 	-8.31004e-22 	3.73684e-07
0.0155135 	5.39366e-07 	4.38365e-08 	-3.54712e-22 	5.4165e-07 	-2.30356e-21 	5.40508e-07
0.0173124 	7.54406e-07 	6.56357e-08 	-6.77636e-23 	7.58785e-07 	2.7056e-21 	7.56596e-07
0.0192193 	1.02081e-06 	9.01406e-08 	-2.5474e-23 	1.02877e-06 	-3.29906e-22 	1.02479e-06
0.0212406 	1.33573e-06 	1.12723e-07 	-2.59094e-22 	1.34947e-06 	-5.1269e-21 	1.3426e-06
0.0233833 	1.69074e-06 	1.27582e-07 	-3.1148e-21 	1.71321e-06 	8.04837e-21 	1.70197e-06
0.0256546 	2.07375e-06 	1.29884e-07 	3.99795e-21 	2.10865e-06 	1.37413e-20 	2.0912e-06
0.0280623 	2.47216e-06 	1.17335e-07 	1.02797e-21 	2.52381e-06 	-1.26496e-20 	2.49798e-06
0.0306144 	2.87545e-06 	9.01338e-08 	3.12913e-22 	2.94867e-06 	-3.16778e-21 	2.91206e-06
0.0333198 	3.27627e-06 	4.99877e-08 	-7.16925e-22 	3.37621e-06 	-8.89067e-21 	3.32624e-06
0.0361875 	3.67026e-06 	-1.03269e-09 	-7.85602e-21 	3.80229e-06 	7.43132e-21 	3.73627e-06
0.0392274 	4.05531e-06 	-6.11175e-08 	9.74401e-21 	4.22497e-06 	1.33924e-20 	4.14015e-06
0.0424498 	4.43082e-06 	-1.28937e-07 	1.10643e-21 	4.64374e-06 	-6.65143e-21 	4.53729e-06
0.0458656 	4.79701e-06 	-2.03627e-07 	5.93483e-21 	5.05896e-06 	-4.9677e-21 	4.92799e-06
0.0494864 	5.15459e-06 	-2.84638e-07 	-5.77304e-21 	5.47145e-06 	-6.8092e-21 	5.31302e-06
0.0533246 	5.50449e-06 	-3.71762e-07 	4.76015e-23 	5.88224e-06 	6.53295e-21 	5.69337e-06
0.0573931 	5.84774e-06 	-4.6492e-07 	1.9126e-21 	6.29245e-06 	9.81099e-21 	6.0701e-06
0.0617059 	6.18537e-06 	-5.6419e-07 	1.82022e-20 	6.70323e-06 	-1.06082e-20 	6.4443e-06
0.0662775 	6.51837e-06 	-6.69771e-07 	-2.07856e-20 	7.11568e-06 	-1.47399e-20 	6.81703e-06
0.0711236 	6.84776e-06 	-7.81853e-07 	-3.04334e-21 	7.53089e-06 	1.1281e-20 	7.18932e-06
0.0762605 	7.17442e-06 	-9.00712e-07 	-3.4377e-21 	7.94979e-06 	-9.78739e-21 	7.5621e-06
0.0817058 	7.49929e-06 	-1.02679e-06 	-2.40305e-20 	8.3734e-06 	1.15796e-20 	7.93634e-06
0.087478 	7.82331e-06 	-1.1605e-06 	2.63689e-20 	8.80262e-06 	1.65444e-20 	8.31296e-06
0.0935966 	8.14732e-06 	-1.30209e-06 	1.94319e-21 	9.23829e-06 	-1.31388e-20 	8.69281e-06
0.100083 	8.47226e-06 	-1.45213e-06 	1.84513e-21 	9.68126e-06 	-1.40668e-22 	9.07675e-06
0.106958 	8.79899e-06 	-1.61111e-06 	3.00779e-21 	1.01322e-05 	1.80125e-20 	9.46559e-06
0.114246 	9.12854e-06 	-1.77954e-06 	3.64069e-20 	1.0592e-05 	-1.52073e-20 	9.86029e-06
0.121971 	9.46186e-06 	-1.95797e-06 	-3.56914e-20 	1.10613e-05 	-2.7926e-20 	1.02616e-05
0.13016 	9.79996e-06 	-2.14693e-06 	-8.89045e-21 	1.15408e-05 	2.04302e-20 	1.06704e-05
0.138841 	1.0144e-05 	-2.34721e-06 	8.68155e-22 	1.2031e-05 	3.94443e-21 	1.10875e-05
0.148043 	1.04953e-05 	-2.55929e-06 	1.69719e-21 	1.25327e-05 	-1.1701e-22 	1.15139e-05
0.157797 	1.08549e-05 	-2.78381e-06 	1.35832e-21 	1.30463e-05 	7.53517e-21 	1.19506e-05
0.168136 	1.12242e-05 	-3.02149e-06 	1.12485e-20 	1.35725e-05 	-3.92605e-21 	1.23983e-05
0.179097 	1.16047e-05 	-3.27308e-06 	-8.53772e-21 	1.41117e-05 	-1.28019e-20 	1.28582e-05
0.190715 	1.19981e-05 	-3.53932e-06 	-5.51462e-21 	1.46645e-05 	5.52362e-21 	1.33313e-05
0.20303 	1.24059e-05 	-3.8209e-06 	1.44379e-21 	1.52312e-05 	2.26247e-21 	1.38186e-05
0.216085 	1.28299e-05 	-4.11844e-06 	2.87852e-22 	1.58123e-05 	1.17614e-22 	1.43211e-05
0.229923 	1.32719e-05 	-4.4328e-06 	1.70749e-22 	1.6408e-05 	2.10499e-24 	1.48399e-05
0.244592 	1.37338e-05 	-4.76469e-06 	-2.69102e-22 	1.70187e-05 	-2.53324e-24 	1.53762e-05
0.260142 	1.42177e-05 	-5.11467e-06 	-1.79729e-22 	1.76445e-05 	-9.42274e-22 	1.59311e-05
0.276625 	1.47254e-05 	-5.48337e-06 	5.80454e-22 	1.82855e-05 	-1.04779e-20 	1.65055e-05
0.294097 	1.5259e-05 	-5.87127e-06 	8.14473e-22 	1.89415e-05 	3.19687e-21 	1.71003e-05
0.312618 	1.58204e-05 	-6.27869e-06 	-1.79408e-21 	1.96125e-05 	1.7849e-20 	1.77164e-05
0.332251 	1.64111e-05 	-6.70582e-06 	4.43525e-22 	2.02976e-05 	-8.06689e-21 	1.83543e-05
0.353063 	1.70326e-05 	-7.15254e-06 	-3.60301e-27 	2.09962e-05 	-1.61631e-21 	1.90144e-05
0.375123 	1.76859e-05 	-7.61843e-06 	1.36218e-25 	2.17069e-05 	3.66012e-25 	1.96964e-05
0.398508 	1.83713e-05 	-8.10261e-06 	-5.6696e-25 	2.24276e-05 	-7.44826e-22 	2.03995e-05
0.423296 	1.90886e-05 	-8.60369e-06 	3.52479e-21 	2.31554e-05 	-2.1807e-20 	2.1122e-05
0.449573 	1.98361e-05 	-9.11958e-06 	6.205e-20 	2.38863e-05 	-1.46828e-21 	2.18613e-05
0.477427 	2.06107e-05 	-9.64718e-06 	-5.63859e-20 	2.46152e-05 	4.03195e-20 	2.26129e-05
0.506952 	2.1407e-05 	-1.01825e-05 	-7.30664e-21 	2.53355e-05 	-1.42441e-20 	2.33702e-05
0.53825 	2.22193e-05 	-1.07323e-05 	-1.1999e-25 	2.60344e-05 	-2.9486e-21 	2.41261e-05
0.571427 	2.30478e-05 	-1.13373e-05 	4.86184e-25 	2.66886e-05 	-4.01339e-25 	2.4871e-05
0.606595 	2.39361e-05 	-1.17766e-05 	3.58651e-24 	2.72386e-05 	-6.00238e-25 	2.55893e-05
0.643874 	2.48304e-05 	-1.21275e-05 	-3.03085e-25 	2.76979e-05 	-7.00772e-22 	2.62626e-05
0.683391 	2.56336e-05 	-1.24236e-05 	3.18843e-21 	2.80581e-05 	-7.33536e-22 	2.68447e-05
0.725279 	2.62591e-05 	-1.26372e-05 	-1.16003e-20 	2.82678e-05 	1.15119e-21 	2.72633e-05
0.769683 	2.66437e-05 	-1.27383e-05 	6.77979e-21 	2.8255e-05 	7.85784e-22 	2.74496e-05
0.816751 	2.6742e-05 	-1.27036e-05 	1.40666e-21 	2.79583e-05 	-5.39072e-22 	2.73505e-05
0.866645 	2.65227e-05 	-1.25182e-05 	1.94385e-25 	2.73399e-05 	-5.61333e-22 	2.69314e-05
0.919534 	2.59685e-05 	-1.21762e-05 	7.82944e-21 	2.63905e-05 	-3.84982e-21 	2.61796e-05
0.975597 	2.50873e-05 	-1.16844e-05 	4.35979e-20 	2.51312e-05 	-1.17872e-21 	2.51091e-05
1.03503 	2.39184e-05 	-1.1065e-05 	-4.57558e-20 	2.36162e-05 	1.00951e-20 	2.37674e-05
1.09802 	2.25377e-05 	-1.03536e-05 	-5.72416e-20 	2.19299e-05 	-4.04357e-22 	2.22339e-05
1.1648 	2.10452e-05 	-9.59685e-06 	4.96164e-20 	2.01771e-05 	-6.35528e-21 	2.06109e-05
1.23559 	1.95475e-05 	-8.84421e-06 	5.28551e-21 	1.84646e-05 	1.60677e-21 	1.90058e-05
1.31062 	1.81364e-05 	-8.13767e-06 	8.04643e-26 	1.68758e-05 	1.92638e-22 	1.75063e-05
1.39016 	1.68582e-05 	-7.49713e-06 	7.8165e-23 	1.54476e-05 	-3.74349e-24 	1.61524e-05
1.47447 	1.57245e-05 	-6.92021e-06 	-3.18371e-23 	1.41724e-05 	7.78875e-22 	1.49491e-05
1.56124 	1.47322e-05 	-6.3658e-06 	-4.91096e-20 	1.30384e-05 	6.75841e-21 	1.38859e-05
1.64556 	1.38571e-05 	-5.80196e-06 	-2.68665e-19 	1.20527e-05 	3.59805e-21 	1.29547e-05
1.72509 	1.30803e-05 	-5.29762e-06 	2.91437e-19 	1.11986e-05 	-1.79212e-20 	1.21398e-05
1.80013 	1.23802e-05 	-4.83253e-06 	1.18564e-19 	1.04554e-05 	-1.5519e-21 	1.1418e-05
1.87091 	1.17425e-05 	-4.39513e-06 	1.65447e-19 	9.79914e-06 	7.36353e-22 	1.07707e-05
1.93769 	1.11521e-05 	-3.9816e-06 	-1.72846e-19 	9.211e-06 	9.37663e-21 	1.01817e-05
2.00069 	1.06005e-05 	-3.58768e-06 	-6.53599e-20 	8.67725e-06 	-1.34887e-21 	9.63893e-06
2.06012 	1.00812e-05 	-3.20987e-06 	9.44567e-22 	8.19027e-06 	-2.98993e-21 	9.13573e-06
2.11618 	9.59078e-06 	-2.84689e-06 	8.66799e-20 	7.74512e-06 	-2.63616e-21 	8.66794e-06
2.16907 	9.12724e-06 	-2.49852e-06 	3.7966e-20 	7.3382e-06 	1.13407e-20 	8.23271e-06
2.21896 	8.68931e-06 	-2.16416e-06 	-4.70169e-19 	6.9667e-06 	4.75614e-21 	7.82803e-06
2.26603 	8.27632e-06 	-1.84459e-06 	1.97142e-19 	6.62793e-06 	-1.63636e-20 	7.45207e-06
2.31043 	7.88743e-06 	-1.54007e-06 	1.51597e-19 	6.31958e-06 	1.1294e-21 	7.10339e-06
2.35232 	7.52203e-06 	-1.25063e-06 	1.51989e-23 	6.03949e-06 	3.37061e-21 	6.78067e-06
2.39184 	7.17993e-06 	-9.76257e-07 	1.15064e-23 	5.78542e-06 	-4.6335e-21 	6.48255e-06
2.42912 	6.86067e-06 	-7.16682e-07 	1.63765e-19 	5.55553e-06 	-8.59156e-21 	6.20796e-06
2.46429 	6.56377e-06 	-4.71887e-07 	2.22347e-19 	5.34822e-06 	8.45227e-21 	5.95604e-06
2.49746 	6.28952e-06 	-2.41448e-07 	-2.03153e-19 	5.16179e-06 	1.30173e-20 	5.72573e-06
2.52876 	6.03765e-06 	-2.48527e-08 	-1.69769e-19 	4.99504e-06 	-3.43218e-21 	5.51641e-06
2.55829 	5.80805e-06 	1.78261e-07 	7.1584e-26 	4.84701e-06 	-4.79043e-21 	5.32758e-06
2.57764 	5.66239e-06 	3.1062e-07 	5.08437e-25 	4.75502e-06 	-8.92031e-26 	5.20873e-06
2.59116 	5.56421e-06 	4.02531e-07 	1.63095e-24 	4.69434e-06 	-9.89066e-26 	5.12929e-06
2.61242 	5.41535e-06 	5.46384e-07 	2.41746e-24 	4.60406e-06 	2.24719e-26 	5.00973e-06
2.63721 	5.2522e-06 	7.12986e-07 	1.61648e-25 	4.50824e-06 	1.79869e-25 	4.88025e-06
2.66059 	5.11118e-06 	8.68738e-07 	-2.18794e-24 	4.42915e-06 	1.46678e-26 	4.77021e-06
2.68265 	4.99225e-06 	1.01433e-06 	-6.25864e-26 	4.36659e-06 	-2.45763e-25 	4.67942e-06
2.70346 	4.89508e-06 	1.15058e-06 	2.9636e-24 	4.32048e-06 	-2.14938e-21 	4.60778e-06
2.7231 	4.81933e-06 	1.27812e-06 	3.70763e-20 	4.29068e-06 	-2.24454e-21 	4.55502e-06
2.74162 	4.76457e-06 	1.39794e-06 	3.86396e-20 	4.27693e-06 	3.88477e-21 	4.52076e-06
2.75909 	4.73005e-06 	1.51087e-06 	-3.48582e-20 	4.27891e-06 	4.04989e-21 	4.50448e-06
2.77557 	4.71485e-06 	1.61732e-06 	-3.35609e-20 	4.29612e-06 	-1.735e-21 	4.50548e-06
2.79112 	4.71788e-06 	1.71789e-06 	6.94644e-22 	4.32785e-06 	-1.80026e-21 	4.52283e-06
2.80579 	4.73768e-06 	1.81323e-06 	4.48239e-22 	4.37325e-06 	2.22031e-21 	4.55545e-06
2.81963 	4.77272e-06 	1.9037e-06 	-2.63419e-20 	4.43116e-06 	-2.22237e-21 	4.60196e-06
2.83268 	4.82132e-06 	1.98936e-06 	2.55078e-20 	4.50024e-06 	-2.29149e-21 	4.66077e-06
2.845 	4.88145e-06 	2.07041e-06 	-2.56467e-21 	4.57903e-06 	1.13298e-20 	4.73024e-06
2.85662 	4.95112e-06 	2.14691e-06 	-9.3304e-20 	4.66585e-06 	9.91052e-21 	4.8085e-06
2.86758 	5.02826e-06 	2.21892e-06 	-1.11031e-19 	4.75896e-06 	-3.06039e-20 	4.89362e-06
2.87792 	5.11082e-06 	2.28813e-06 	2.24404e-19 	4.85652e-06 	-2.44833e-20 	4.98368e-06
2.88767 	5.19658e-06 	2.35209e-06 	1.38494e-19 	4.95699e-06 	1.84655e-21 	5.07677e-06
2.89687 	5.28306e-06 	2.40195e-06 	1.71212e-19 	5.05895e-06 	3.79117e-20 	5.17098e-06
2.90555 	5.36847e-06 	2.44554e-06 	-1.98768e-19 	5.15952e-06 	2.57637e-20 	5.264e-06
2.91374 	5.44986e-06 	2.48697e-06 	-8.04794e-20 	5.255e-06 	-3.01137e-20 	5.35243e-06
2.92147 	5.52343e-06 	2.52451e-06 	6.1621e-20 	5.34173e-06 	6.30993e-22 	5.43256e-06
2.92876 	5.5857e-06 	2.55666e-06 	-5.91677e-20 	5.4166e-06 	1.1824e-20 	5.50114e-06
2.93563 	5.63388e-06 	2.58212e-06 	-3.28912e-20 	5.47715e-06 	-1.25389e-20 	5.55551e-06
2.94212 	5.66595e-06 	2.60001e-06 	2.8204e-20 	5.52141e-06 	-1.26209e-20 	5.59368e-06
2.94824 	5.68039e-06 	2.60973e-06 	5.28701e-20 	5.54799e-06 	1.33947e-20 	5.61419e-06
2.95401 	5.67618e-06 	2.6107e-06 	-5.09313e-20 	5.55577e-06 	2.17319e-20 	5.61599e-06
2.95945 	5.6526e-06 	2.60265e-06 	-7.58664e-20 	5.54396e-06 	9.2229e-21 	5.59828e-06
2.96459 	5.60904e-06 	2.58526e-06 	-9.64075e-20 	5.51188e-06 	-3.15124e-20 	5.56046e-06
2.96944 	5.54504e-06 	2.55808e-06 	9.171e-20 	5.45896e-06 	-2.48072e-20 	5.502e-06
2.97401 	5.46011e-06 	2.52103e-06 	4.68612e-20 	5.38463e-06 	1.65676e-20 	5.42237e-06
2.97832 	5.35372e-06 	2.47402e-06 	-2.17044e-22 	5.28824e-06 	8.27566e-21 	5.32098e-06
2.98239 	5.22522e-06 	2.41653e-06 	-5.77724e-28 	5.16906e-06 	-4.50058e-21 	5.19714e-06
2.98623 	5.07381e-06 	2.34815e-06 	1.5056e-20 	5.02622e-06 	-1.32196e-20 	5.05001e-06
2.98985 	4.89853e-06 	2.26858e-06 	4.66035e-20 	4.85875e-06 	2.59356e-20 	4.87864e-06
2.99326 	4.69837e-06 	2.17714e-06 	-6.67907e-20 	4.66557e-06 	2.99713e-20 	4.68197e-06
2.99649 	4.47227e-06 	2.07337e-06 	-6.16732e-20 	4.44565e-06 	-4.10757e-20 	4.45896e-06
2.99953 	4.21938e-06 	1.95706e-06 	6.12741e-20 	4.1981e-06 	-1.71946e-20 	4.20874e-06
3.00239 	3.93919e-06 	1.82784e-06 	8.45534e-21 	3.92249e-06 	1.97578e-20 	3.93084e-06
3.0051 	3.63182e-06 	1.68532e-06 	-5.00515e-21 	3.61894e-06 	3.38176e-21 	3.62538e-06
3.00765 	3.29786e-06 	1.52564e-06 	-2.2282e-21 	3.28814e-06 	3.60313e-21 	3.293e-06
3.01006 	2.93874e-06 	1.3434e-06 	-8.20533e-21 	2.93161e-06 	-5.56633e-21 	2.93518e-06
3.01233 	2.5589e-06 	1.14555e-06 	5.98658e-21 	2.55384e-06 	-4.68368e-21 	2.55637e-06
3.01447 	2.16688e-06 	9.38909e-07 	1.97984e-21 	2.16344e-06 	3.41149e-21 	2.16516e-06
3.01649 	1.77555e-06 	7.32146e-07 	-6.98293e-22 	1.77333e-06 	1.24232e-21 	1.77444e-06
3.0184 	1.4012e-06 	5.37481e-07 	-6.80284e-22 	1.39984e-06 	-7.52209e-21 	1.40052e-06
3.0202 	1.06086e-06 	3.67841e-07 	5.21394e-21 	1.06009e-06 	1.8634e-21 	1.06048e-06
3.0219 	7.68564e-07 	2.32848e-07 	-1.12965e-21 	7.68154e-07 	4.41644e-21 	7.68359e-07
3.0235 	5.31931e-07 	1.35598e-07 	-1.01018e-21 	5.31731e-07 	-7.36474e-22 	5.31831e-07
3.02501 	3.51142e-07 	7.23786e-08 	4.76682e-23 	3.51053e-07 	-9.20345e-22 	3.51098e-07
3.02643 	2.20409e-07 	3.52715e-08 	1.28913e-22 	2.20374e-07 	1.12318e-22 	2.20391e-07
3.02778 	1.30738e-07 	1.55816e-08 	-2.06077e-23 	1.30725e-07 	1.51925e-22 	1.30732e-07
3.02905 	7.24664e-08 	6.15583e-09 	-2.16086e-23 	7.24621e-08 	-9.83307e-24 	7.24643e-08
