1.00029 	7.81994e-11 	-4.11241e-14 	-9.96794e-30 	7.81994e-11 	-7.02584e-30 	7.81994e-11
1.00089 	4.08693e-10 	-1.08485e-12 	-1.88131e-29 	4.08693e-10 	2.10918e-28 	4.08693e-10
1.00153 	1.94806e-09 	-1.12869e-11 	-6.78588e-30 	1.94807e-09 	4.42729e-28 	1.94806e-09
1.0022 	6.38687e-09 	-6.99681e-11 	-1.13051e-30 	6.38691e-09 	2.09932e-28 	6.38688e-09
1.00291 	1.64633e-08 	-3.11548e-10 	-3.09792e-25 	1.6463e-08 	-2.68874e-28 	1.64631e-08
1.00367 	3.61282e-08 	-1.10485e-09 	2.80104e-25 	3.61245e-08 	6.9866e-28 	3.61263e-08
1.00447 	7.08276e-08 	-3.32142e-09 	4.84104e-24 	7.08064e-08 	2.53983e-27 	7.08169e-08
1.00532 	1.27836e-07 	-8.80154e-09 	1.09544e-25 	1.27746e-07 	-1.98916e-27 	1.2779e-07
1.00622 	2.16566e-07 	-2.10683e-08 	-1.16706e-23 	2.16253e-07 	-5.32709e-27 	2.16408e-07
1.00718 	3.48696e-07 	-4.62248e-08 	-7.6353e-24 	3.47763e-07 	9.462e-28 	3.48228e-07
1.00819 	5.37818e-07 	-9.36812e-08 	-4.9905e-27 	5.3536e-07 	3.18869e-27 	5.36584e-07
1.00927 	7.98182e-07 	-1.75928e-07 	4.0273e-25 	7.92354e-07 	6.51497e-28 	7.95259e-07
1.0104 	1.14224e-06 	-3.06406e-07 	2.68292e-25 	1.12967e-06 	-2.20376e-27 	1.13594e-06
1.01161 	1.57724e-06 	-4.95282e-07 	-4.06014e-26 	1.55242e-06 	-3.54778e-27 	1.5648e-06
1.01289 	2.1022e-06 	-7.44717e-07 	3.29757e-25 	2.05695e-06 	3.16091e-25 	2.07954e-06
1.01424 	2.70689e-06 	-1.04645e-06 	-1.20688e-21 	2.63022e-06 	-5.27462e-24 	2.66851e-06
1.01568 	3.37379e-06 	-1.38339e-06 	-8.78035e-22 	3.25219e-06 	-5.04885e-24 	3.31292e-06
1.0172 	4.08218e-06 	-1.73399e-06 	1.87632e-21 	3.9003e-06 	7.73015e-24 	3.99114e-06
1.01882 	4.81253e-06 	-2.07687e-06 	1.54278e-21 	4.55412e-06 	-4.86354e-23 	4.68319e-06
1.02053 	5.54996e-06 	-2.39378e-06 	-3.60778e-21 	5.19884e-06 	-1.23431e-22 	5.37422e-06
1.02234 	6.28602e-06 	-2.67084e-06 	-2.89279e-21 	5.82684e-06 	9.67931e-23 	6.05621e-06
1.02427 	7.01829e-06 	-2.89856e-06 	5.05886e-21 	6.43706e-06 	2.44302e-22 	6.7274e-06
1.02631 	7.74859e-06 	-3.0718e-06 	4.33913e-21 	7.03296e-06 	6.4387e-23 	7.39045e-06
1.02847 	8.48076e-06 	-3.18954e-06 	4.70738e-22 	7.62012e-06 	8.50718e-23 	8.05006e-06
1.03076 	9.21852e-06 	-3.25444e-06 	1.86933e-22 	8.20385e-06 	-1.23921e-22 	8.71075e-06
1.03319 	9.96396e-06 	-3.27251e-06 	-9.50544e-22 	8.78771e-06 	-3.43805e-22 	9.37533e-06
1.03576 	1.0717e-05 	-3.25211e-06 	-7.23317e-22 	9.37286e-06 	2.34017e-23 	1.00444e-05
1.03849 	1.14756e-05 	-3.20277e-06 	-1.53164e-20 	9.95826e-06 	-1.99065e-22 	1.07163e-05
1.04138 	1.22363e-05 	-3.13412e-06 	-1.33744e-20 	1.05413e-05 	-3.46643e-22 	1.13882e-05
1.04444 	1.29955e-05 	-3.05457e-06 	1.93696e-20 	1.11187e-05 	3.86004e-22 	1.20564e-05
1.04769 	1.37491e-05 	-2.97098e-06 	1.73204e-20 	1.16872e-05 	3.22452e-22 	1.27174e-05
1.05114 	1.4494e-05 	-2.88894e-06 	-2.87111e-21 	1.22437e-05 	-5.06181e-22 	1.3368e-05
1.05479 	1.52271e-05 	-2.81224e-06 	-2.46794e-21 	1.27858e-05 	-1.30001e-22 	1.40056e-05
1.05866 	1.59463e-05 	-2.74279e-06 	-2.7261e-20 	1.33119e-05 	-1.46253e-22 	1.46282e-05
1.06276 	1.66497e-05 	-2.68234e-06 	-2.50857e-20 	1.38206e-05 	-6.13397e-22 	1.52342e-05
1.06711 	1.73357e-05 	-2.63204e-06 	3.58219e-20 	1.43114e-05 	8.61281e-22 	1.58226e-05
1.07172 	1.8003e-05 	-2.59115e-06 	3.31976e-20 	1.47841e-05 	1.07912e-21 	1.63925e-05
1.07661 	1.86505e-05 	-2.55921e-06 	-5.61419e-24 	1.52388e-05 	6.3296e-23 	1.69436e-05
1.08179 	1.92768e-05 	-2.53615e-06 	-6.04685e-24 	1.56761e-05 	8.142e-26 	1.74753e-05
1.08728 	1.98805e-05 	-2.52077e-06 	-1.31541e-24 	1.60968e-05 	3.42042e-25 	1.79875e-05
1.09311 	2.04602e-05 	-2.5117e-06 	2.08078e-23 	1.65017e-05 	-9.62421e-27 	1.84797e-05
1.09928 	2.1014e-05 	-2.50826e-06 	2.03851e-23 	1.68922e-05 	4.2457e-26 	1.89518e-05
1.10582 	2.15399e-05 	-2.51049e-06 	8.92835e-24 	1.72693e-05 	4.86529e-25 	1.94034e-05
1.11275 	2.20359e-05 	-2.5177e-06 	-3.47549e-25 	1.76344e-05 	-2.47747e-26 	1.9834e-05
1.1201 	2.24995e-05 	-2.52854e-06 	-7.84838e-26 	1.7989e-05 	-6.88059e-26 	2.02431e-05
1.12789 	2.2928e-05 	-2.54283e-06 	4.52303e-24 	1.83343e-05 	2.21428e-25 	2.06301e-05
1.13615 	2.33189e-05 	-2.56071e-06 	-1.63139e-24 	1.86714e-05 	-6.36308e-22 	2.09942e-05
1.1449 	2.36691e-05 	-2.58272e-06 	1.85986e-19 	1.90016e-05 	8.42616e-21 	2.13344e-05
1.15418 	2.39758e-05 	-2.60946e-06 	1.18957e-19 	1.93256e-05 	5.92185e-21 	2.16496e-05
1.16402 	2.42357e-05 	-2.64073e-06 	-1.95317e-19 	1.96437e-05 	-1.04238e-20 	2.19388e-05
1.17445 	2.44464e-05 	-2.67791e-06 	-6.04744e-20 	1.99559e-05 	-3.16307e-21 	2.22004e-05
1.1855 	2.46053e-05 	-2.72338e-06 	5.05114e-21 	2.02612e-05 	1.83697e-21 	2.24327e-05
1.19722 	2.47102e-05 	-2.77777e-06 	8.34483e-21 	2.05583e-05 	2.85372e-21 	2.2634e-05
1.20964 	2.47595e-05 	-2.84162e-06 	6.98965e-20 	2.08448e-05 	5.32409e-21 	2.28022e-05
1.2228 	2.47522e-05 	-2.91646e-06 	1.03473e-21 	2.11175e-05 	2.86231e-22 	2.29349e-05
1.23676 	2.46874e-05 	-3.0037e-06 	1.38625e-21 	2.13722e-05 	4.49033e-22 	2.30301e-05
1.25155 	2.45654e-05 	-3.1041e-06 	-6.37608e-20 	2.16039e-05 	-3.79915e-21 	2.3085e-05
1.26723 	2.43868e-05 	-3.21738e-06 	-1.86105e-19 	2.18065e-05 	-1.13242e-20 	2.3097e-05
1.28386 	2.41525e-05 	-3.34279e-06 	-1.22403e-19 	2.19736e-05 	-8.14202e-21 	2.30637e-05
1.30148 	2.38643e-05 	-3.47911e-06 	1.15181e-19 	2.20982e-05 	5.46691e-21 	2.29821e-05
1.32016 	2.35244e-05 	-3.62395e-06 	1.15165e-19 	2.2173e-05 	6.67838e-21 	2.28495e-05
1.33996 	2.31346e-05 	-3.77438e-06 	-1.76809e-21 	2.21912e-05 	1.20652e-22 	2.26638e-05
1.36094 	2.26967e-05 	-3.9258e-06 	1.0766e-21 	2.21464e-05 	4.63896e-22 	2.24226e-05
1.38319 	2.22126e-05 	-4.07212e-06 	9.83342e-22 	2.20334e-05 	4.83154e-22 	2.21242e-05
1.40678 	2.16836e-05 	-4.20757e-06 	-9.81516e-22 	2.18484e-05 	-3.97816e-22 	2.17672e-05
1.43177 	2.11106e-05 	-4.32566e-06 	-1.22707e-21 	2.15892e-05 	-1.39586e-21 	2.13512e-05
1.45827 	2.04943e-05 	-4.41939e-06 	9.40465e-20 	2.12554e-05 	4.50313e-21 	2.08763e-05
1.48636 	1.98357e-05 	-4.48178e-06 	9.88587e-20 	2.08484e-05 	8.48111e-21 	2.03434e-05
1.51614 	1.91353e-05 	-4.50585e-06 	-1.70231e-19 	2.03717e-05 	-6.55009e-21 	1.97548e-05
1.5477 	1.83942e-05 	-4.48623e-06 	-1.79881e-19 	1.98306e-05 	-1.24418e-20 	1.91137e-05
1.58116 	1.76147e-05 	-4.41897e-06 	7.633e-20 	1.92319e-05 	1.32095e-21 	1.84246e-05
1.61663 	1.67999e-05 	-4.30186e-06 	8.06029e-20 	1.85837e-05 	5.86947e-21 	1.7693e-05
1.65422 	1.59545e-05 	-4.13545e-06 	-7.85046e-20 	1.7895e-05 	-1.40082e-21 	1.69257e-05
1.69408 	1.50841e-05 	-3.9223e-06 	-1.52859e-19 	1.71757e-05 	-8.4462e-21 	1.61308e-05
1.73632 	1.41962e-05 	-3.66712e-06 	3.19034e-20 	1.64351e-05 	-2.17339e-21 	1.53167e-05
1.7811 	1.32999e-05 	-3.37773e-06 	2.08689e-19 	1.56821e-05 	9.09599e-21 	1.4492e-05
1.82857 	1.24048e-05 	-3.06414e-06 	7.14806e-20 	1.49239e-05 	5.57432e-21 	1.36652e-05
1.87889 	1.15205e-05 	-2.73713e-06 	-3.00409e-20 	1.41658e-05 	-7.74906e-22 	1.28438e-05
1.93222 	1.0656e-05 	-2.40749e-06 	7.86165e-22 	1.34097e-05 	1.1281e-21 	1.20335e-05
1.98876 	9.82497e-06 	-2.08564e-06 	-1.40239e-19 	1.26584e-05 	-3.36978e-21 	1.12423e-05
2.04695 	9.05411e-06 	-1.78388e-06 	-1.3643e-19 	1.19262e-05 	-7.56289e-21 	1.04906e-05
2.10349 	8.37036e-06 	-1.51271e-06 	1.21193e-19 	1.12355e-05 	1.49504e-21 	9.8031e-06
2.15683 	7.77927e-06 	-1.27284e-06 	1.15963e-19 	1.05963e-05 	5.38067e-21 	9.18793e-06
2.20715 	7.2691e-06 	-1.05727e-06 	2.1149e-24 	1.00058e-05 	1.31521e-21 	8.63776e-06
2.25461 	6.82642e-06 	-8.58796e-07 	-3.28694e-21 	9.45868e-06 	-5.85342e-23 	8.14298e-06
2.29939 	6.44033e-06 	-6.72632e-07 	-3.07936e-21 	8.95113e-06 	-8.42604e-23 	7.69612e-06
2.34164 	6.10188e-06 	-4.95574e-07 	3.03083e-21 	8.48034e-06 	2.55089e-23 	7.29139e-06
2.38149 	5.80403e-06 	-3.25239e-07 	6.56004e-21 	8.04397e-06 	1.21618e-22 	6.92419e-06
2.41909 	5.54119e-06 	-1.60119e-07 	4.00958e-21 	7.64018e-06 	-2.43009e-21 	6.59091e-06
2.45455 	5.30915e-06 	3.68392e-10 	1.24244e-19 	7.26738e-06 	1.30319e-22 	6.28857e-06
2.48801 	5.10475e-06 	1.56301e-07 	1.21428e-19 	6.92424e-06 	7.54468e-21 	6.01481e-06
2.51957 	4.92534e-06 	3.07982e-07 	-1.23774e-19 	6.60983e-06 	5.17904e-21 	5.76782e-06
2.54935 	4.76878e-06 	4.55448e-07 	-2.42209e-19 	6.32344e-06 	-5.83396e-21 	5.54624e-06
2.57744 	4.63332e-06 	5.98325e-07 	-6.50601e-20 	6.0646e-06 	-1.06688e-20 	5.34907e-06
2.60394 	4.51788e-06 	7.36796e-07 	1.7741e-19 	5.83279e-06 	5.09853e-22 	5.17542e-06
2.62894 	4.42158e-06 	8.70742e-07 	6.25703e-20 	5.62764e-06 	6.73326e-21 	5.0246e-06
2.65252 	4.34349e-06 	9.99615e-07 	-5.93456e-20 	5.44889e-06 	2.8635e-22 	4.89618e-06
2.67477 	4.28305e-06 	1.12353e-06 	-1.77562e-24 	5.29612e-06 	-1.36788e-21 	4.78962e-06
2.69576 	4.2398e-06 	1.24229e-06 	1.52107e-25 	5.16873e-06 	2.23676e-26 	4.70435e-06
2.71556 	4.21318e-06 	1.35536e-06 	-7.63776e-25 	5.06598e-06 	2.46617e-26 	4.63966e-06
2.73424 	4.20246e-06 	1.46271e-06 	2.51523e-21 	4.98687e-06 	-9.38605e-26 	4.59472e-06
2.75186 	4.20662e-06 	1.56414e-06 	2.62156e-21 	4.9301e-06 	-9.78901e-26 	4.56842e-06
2.76848 	4.22453e-06 	1.65932e-06 	-1.13089e-21 	4.89396e-06 	1.83642e-21 	4.55932e-06
2.78416 	4.25478e-06 	1.74813e-06 	-3.7748e-20 	4.87638e-06 	1.37114e-21 	4.56564e-06
2.79895 	4.29556e-06 	1.83022e-06 	-3.87746e-20 	4.87501e-06 	-4.00972e-21 	4.58536e-06
2.81291 	4.34496e-06 	1.90538e-06 	3.40139e-20 	4.88721e-06 	-4.99481e-21 	4.61616e-06
2.82608 	4.40087e-06 	1.97376e-06 	7.25422e-20 	4.91015e-06 	2.63022e-21 	4.65556e-06
2.8385 	4.46104e-06 	2.0352e-06 	-3.85592e-23 	4.94103e-06 	7.44132e-21 	4.70106e-06
2.85021 	4.52328e-06 	2.08938e-06 	-7.25398e-20 	4.97703e-06 	-9.15163e-22 	4.75019e-06
2.86127 	4.58559e-06 	2.13646e-06 	3.66675e-23 	5.01552e-06 	-5.67108e-21 	4.80059e-06
2.87169 	4.64611e-06 	2.17692e-06 	3.41493e-20 	5.05414e-06 	4.22507e-22 	4.85016e-06
2.88153 	4.70328e-06 	2.21117e-06 	3.41862e-23 	5.09082e-06 	1.8328e-21 	4.89708e-06
2.89081 	4.75581e-06 	2.23934e-06 	1.56393e-21 	5.12387e-06 	2.722e-23 	4.93986e-06
2.89956 	4.80271e-06 	2.26168e-06 	-6.68728e-25 	5.15197e-06 	-2.21183e-21 	4.97736e-06
2.90782 	4.84327e-06 	2.27886e-06 	3.29588e-20 	5.17413e-06 	-1.92047e-21 	5.00871e-06
2.91561 	4.87705e-06 	2.29154e-06 	3.34432e-20 	5.18967e-06 	4.60032e-21 	5.03337e-06
2.92296 	4.9038e-06 	2.30033e-06 	-3.19907e-20 	5.19821e-06 	4.00195e-21 	5.05101e-06
2.9299 	4.92341e-06 	2.30566e-06 	-3.27043e-20 	5.19956e-06 	-1.11595e-22 	5.0615e-06
2.93644 	4.93591e-06 	2.30773e-06 	-2.53269e-20 	5.1937e-06 	-2.56629e-23 	5.06482e-06
2.94261 	4.94134e-06 	2.30706e-06 	-2.61233e-20 	5.1807e-06 	-4.52052e-21 	5.06104e-06
2.94843 	4.93976e-06 	2.30418e-06 	2.55411e-20 	5.16068e-06 	-4.13481e-21 	5.05023e-06
2.95392 	4.93118e-06 	2.29908e-06 	2.83377e-20 	5.13376e-06 	2.24808e-21 	5.03247e-06
2.9591 	4.9155e-06 	2.29177e-06 	1.54183e-21 	5.1e-06 	2.15071e-21 	5.00775e-06
2.96399 	4.89256e-06 	2.28218e-06 	-2.92639e-21 	5.05936e-06 	5.82471e-23 	4.97596e-06
2.9686 	4.86201e-06 	2.26997e-06 	-2.2661e-21 	5.01167e-06 	-2.35653e-21 	4.93685e-06
2.97295 	4.82339e-06 	2.25479e-06 	1.97963e-20 	4.95658e-06 	-2.19721e-21 	4.88999e-06
2.97705 	4.77606e-06 	2.23709e-06 	2.08507e-20 	4.89355e-06 	4.33714e-21 	4.83482e-06
2.98092 	4.71916e-06 	2.21455e-06 	-1.76968e-20 	4.82156e-06 	4.09997e-21 	4.77039e-06
2.98457 	4.65133e-06 	2.18273e-06 	-1.87469e-20 	4.73908e-06 	-1.99248e-21 	4.69522e-06
2.98802 	4.57047e-06 	2.14211e-06 	-2.94839e-25 	4.64435e-06 	-1.89012e-21 	4.60741e-06
2.99127 	4.47412e-06 	2.09443e-06 	-2.07751e-26 	4.53541e-06 	-3.86099e-27 	4.50476e-06
2.99434 	4.35977e-06 	2.03882e-06 	7.09519e-27 	4.40997e-06 	-5.09448e-27 	4.38487e-06
2.99723 	4.22503e-06 	1.97403e-06 	1.42521e-26 	4.26564e-06 	-1.39053e-27 	4.24534e-06
2.99996 	4.06772e-06 	1.89898e-06 	-1.7483e-22 	4.10018e-06 	-1.67702e-21 	4.08395e-06
3.00253 	3.88606e-06 	1.81291e-06 	6.6031e-21 	3.91167e-06 	-1.70723e-21 	3.89887e-06
3.00496 	3.67889e-06 	1.71528e-06 	7.68816e-21 	3.69882e-06 	2.82112e-21 	3.68885e-06
3.00725 	3.44593e-06 	1.60589e-06 	-5.2043e-21 	3.46119e-06 	1.53094e-21 	3.45356e-06
3.00941 	3.188e-06 	1.48509e-06 	-1.76687e-21 	3.1995e-06 	-2.5478e-21 	3.19375e-06
3.01145 	2.90728e-06 	1.35385e-06 	4.89134e-21 	2.91577e-06 	-1.34689e-22 	2.91153e-06
3.01337 	2.60708e-06 	1.20977e-06 	-2.44174e-22 	2.61321e-06 	1.06666e-21 	2.61015e-06
3.01518 	2.29207e-06 	1.04887e-06 	-2.74284e-22 	2.29634e-06 	7.47933e-22 	2.29421e-06
3.0169 	1.96931e-06 	8.76257e-07 	-1.75694e-21 	1.97218e-06 	8.71207e-22 	1.97075e-06
3.01851 	1.64872e-06 	7.03456e-07 	-2.3164e-21 	1.65057e-06 	-4.47151e-22 	1.64964e-06
3.02003 	1.34181e-06 	5.40317e-07 	-2.59842e-26 	1.34294e-06 	-5.40884e-22 	1.34237e-06
3.02147 	1.05971e-06 	3.95023e-07 	2.4529e-23 	1.06037e-06 	-1.0823e-28 	1.06004e-06
3.02283 	8.11324e-07 	2.73804e-07 	3.0413e-23 	8.11684e-07 	-1.57315e-24 	8.11503e-07
3.0241 	6.01876e-07 	1.79436e-07 	-2.41291e-24 	6.02062e-07 	-1.67472e-24 	6.01969e-07
3.02531 	4.32527e-07 	1.10981e-07 	-2.71146e-24 	4.32616e-07 	6.17741e-25 	4.32571e-07
3.02645 	3.00921e-07 	6.46866e-08 	1.90409e-24 	3.0096e-07 	1.55456e-24 	3.00941e-07
3.02752 	2.02374e-07 	3.54577e-08 	-3.8873e-24 	2.0239e-07 	1.73543e-26 	2.02382e-07
3.02854 	1.31153e-07 	1.82099e-08 	9.72341e-25 	1.31159e-07 	-2.87333e-25 	1.31156e-07
3.02949 	8.14734e-08 	8.70411e-09 	2.62457e-25 	8.14754e-08 	-2.92045e-28 	8.14744e-08
3.03039 	4.81103e-08 	3.83014e-09 	-2.809e-25 	4.81108e-08 	-2.59767e-29 	4.81105e-08
3.03124 	2.66627e-08 	1.52528e-09 	-1.62812e-25 	2.66628e-08 	7.43603e-29 	2.66628e-08
3.03204 	1.36019e-08 	5.35493e-10 	-2.60692e-26 	1.36019e-08 	-7.81335e-26 	1.36019e-08
3.0328 	6.19829e-09 	1.59215e-10 	3.08264e-26 	6.19827e-09 	-1.40053e-25 	6.19829e-09
3.03352 	2.4045e-09 	3.76441e-11 	1.8948e-26 	2.4045e-09 	-4.46058e-26 	2.4045e-09
3.03419 	7.33487e-10 	6.38317e-12 	7.69483e-27 	7.33487e-10 	1.92575e-26 	7.33487e-10
3.03482 	1.54714e-10 	6.44952e-13 	-1.19308e-27 	1.54714e-10 	1.54061e-27 	1.54714e-10
3.03542 	5.09649e-11 	2.60246e-14 	4.03894e-30 	5.09649e-11 	-7.74782e-29 	5.09649e-11
