/*--------------------------------*- C++ -*----------------------------------*\
| =========                 |                                                 |
| \\      /  F ield         | OpenFOAM: The Open Source CFD Toolbox           |
|  \\    /   O peration     | Version:  2.4.0                                 |
|   \\  /    A nd           | Web:      www.OpenFOAM.org                      |
|    \\/     M anipulation  |                                                 |
\*---------------------------------------------------------------------------*/
FoamFile
{
    version     2.0;
    format      ascii;
    class       volScalarField;
    location    "320";
    object      nut;
}
// * * * * * * * * * * * * * * * * * * * * * * * * * * * * * * * * * * * * * //

dimensions      [0 2 -1 0 0 0 0];

internalField   nonuniform List<scalar> 
19475
(
2.8583743e-12
1.5399041e-12
4.4519066e-12
2.7382492e-12
3.4240367e-12
1.1660197e-12
5.258255e-13
3.0989572e-14
2.1945071e-13
5.4801152e-13
3.8579074e-13
3.1308287e-13
1.7783169e-13
1.4195608e-13
9.6473235e-14
8.6661225e-14
6.8372378e-14
6.4898679e-14
5.5060017e-14
5.1878745e-14
4.4756599e-14
4.1410252e-14
3.6555975e-14
3.4557667e-14
3.2454978e-14
3.175825e-14
3.1195762e-14
3.1800344e-14
3.2781234e-14
3.4986262e-14
3.7910163e-14
4.2274237e-14
4.7801065e-14
5.5075646e-14
6.3876478e-14
7.4325924e-14
8.5428986e-14
9.7349862e-14
1.1021282e-13
1.2376494e-13
3.1768018e-13
2.8891515e-13
2.6211897e-13
2.3724488e-13
2.1417995e-13
1.9288963e-13
1.7325488e-13
1.5524552e-13
1.3872714e-13
1.2367405e-13
1.0994368e-13
9.7526715e-14
8.6273512e-14
7.618891e-14
6.7109271e-14
5.9052884e-14
5.1842454e-14
4.5513875e-14
3.9878907e-14
3.499302e-14
3.0657837e-14
2.6949002e-14
2.3660302e-14
2.0889392e-14
1.8423729e-14
1.6383824e-14
1.4550409e-14
1.3068781e-14
1.1711429e-14
1.0652994e-14
1.1219755e-14
1.1758226e-14
1.2384961e-14
1.2710415e-14
1.3155159e-14
1.3161942e-14
1.3343552e-14
1.2932443e-14
1.2773975e-14
1.1870019e-14
1.13171e-14
9.9106151e-15
8.9452503e-15
7.8893183e-15
8.6750139e-15
1.170206e-14
1.490086e-14
1.6054077e-14
1.7882114e-14
1.7589921e-14
1.794068e-14
1.6640993e-14
1.5761917e-14
1.382666e-14
1.2193735e-14
1.0097578e-14
8.4155295e-15
1.0864874e-14
1.4141169e-14
1.9024087e-14
2.587274e-14
3.6182567e-14
5.0126073e-14
6.9201139e-14
9.3607123e-14
1.2488891e-13
1.6314664e-13
2.0994353e-13
2.6508845e-13
3.299524e-13
4.0363262e-13
4.8661782e-13
5.746891e-13
6.6206672e-13
7.5020339e-13
8.3968207e-13
9.2885906e-13
1.019339e-12
1.0937347e-12
1.1681923e-12
1.2565606e-12
1.3610885e-12
1.4868269e-12
1.6332451e-12
1.8171289e-12
2.0524983e-12
2.4024063e-12
2.819799e-12
3.3766809e-12
4.0291735e-12
4.9255709e-12
5.9843965e-12
7.5087243e-12
9.3570135e-12
1.2150817e-11
1.5471249e-11
2.0546851e-11
2.579913e-11
3.1980529e-11
3.2311364e-11
2.892775e-11
2.1061833e-11
1.5278419e-11
8.1971435e-12
5.7838298e-12
2.1922879e-12
2.4883366e-12
6.0090503e-13
1.5993943e-11
4.8435442e-12
2.0391467e-11
5.5644192e-12
2.5606912e-12
2.5055541e-12
1.6228468e-12
6.7793297e-13
1.6447286e-13
6.3046264e-13
4.251967e-13
3.2880396e-13
1.8667748e-13
1.4552465e-13
1.0007402e-13
8.9395256e-14
7.1623687e-14
6.7983256e-14
5.8650521e-14
5.5593291e-14
4.8948599e-14
4.5853767e-14
4.1460579e-14
3.9840955e-14
3.828965e-14
3.8173592e-14
3.8331392e-14
3.9736993e-14
4.1687082e-14
4.5005382e-14
4.9270761e-14
5.5204324e-14
6.2613276e-14
7.2104829e-14
8.3541457e-14
9.7074971e-14
1.1178967e-13
1.2789994e-13
1.4565255e-13
1.6491168e-13
3.3607557e-12
3.2906649e-12
3.2227032e-12
3.1568768e-12
3.0931052e-12
3.0314018e-12
2.9716751e-12
2.9139588e-12
2.8581338e-12
2.8042344e-12
2.7521039e-12
2.7017968e-12
2.6531313e-12
2.6061993e-12
2.5607752e-12
2.5169732e-12
2.4745018e-12
2.4335053e-12
2.3936259e-12
2.3550563e-12
2.3173784e-12
2.2808403e-12
2.2449534e-12
2.2100295e-12
2.1754952e-12
2.1417488e-12
2.1081073e-12
2.0750693e-12
2.041802e-12
2.0089369e-12
1.9768143e-12
1.9446205e-12
1.9114152e-12
1.877686e-12
1.8424609e-12
1.8063553e-12
1.768398e-12
1.7293884e-12
1.6876048e-12
1.6436392e-12
1.5957076e-12
1.5443014e-12
1.4870178e-12
1.4237249e-12
1.3461799e-12
1.2786016e-12
1.2889285e-12
1.322443e-12
1.3638226e-12
1.4039205e-12
1.4427801e-12
1.4778433e-12
1.5085032e-12
1.5349486e-12
1.5565052e-12
1.574226e-12
1.5879575e-12
1.6026833e-12
1.6156648e-12
1.6299781e-12
1.6492254e-12
1.6754955e-12
1.7069494e-12
1.7446269e-12
1.7882281e-12
1.8390088e-12
1.896861e-12
1.9629335e-12
2.0366433e-12
2.118641e-12
2.2072359e-12
2.3008383e-12
2.3905174e-12
2.4694337e-12
2.5415654e-12
2.6088202e-12
2.6736618e-12
2.7040357e-12
8.8151214e-13
9.0367334e-13
9.3963551e-13
9.9565937e-13
1.0695028e-12
1.1587581e-12
1.2737416e-12
1.4242333e-12
1.6517218e-12
1.92512e-12
2.2913745e-12
2.7164797e-12
3.2446343e-12
3.9023131e-12
4.8750083e-12
6.0684088e-12
7.9100501e-12
1.6206436e-11
2.3104012e-11
2.9952633e-11
3.7228064e-11
3.8224292e-11
3.5038249e-11
2.7119721e-11
1.0886876e-11
5.8934952e-12
4.1485271e-12
1.7019572e-12
1.8633356e-12
2.6180224e-12
3.0841785e-10
7.8822863e-11
3.7037718e-10
7.2579836e-11
6.5512285e-12
3.3871394e-11
2.6174606e-11
1.4401687e-11
4.4033506e-13
2.9882963e-12
1.6803417e-12
1.0168794e-12
5.7328083e-13
3.8551883e-13
2.8668887e-13
2.4788853e-13
2.1870813e-13
2.0794421e-13
1.9690237e-13
1.9266223e-13
1.8700422e-13
1.8507849e-13
1.8417428e-13
1.8793636e-13
1.9501869e-13
2.0585186e-13
2.1991531e-13
2.3828398e-13
2.6104111e-13
2.8957267e-13
3.2452896e-13
3.6751567e-13
4.1969916e-13
4.8284728e-13
5.5822083e-13
6.466734e-13
7.4769429e-13
8.6277665e-13
9.9475522e-13
1.1455457e-12
6.8459588e-11
6.7440361e-11
6.6431886e-11
6.543516e-11
6.4450484e-11
6.3478797e-11
6.2520269e-11
6.1576205e-11
6.0646448e-11
5.9732233e-11
5.8832726e-11
5.7949305e-11
5.7080711e-11
5.6228885e-11
5.5391858e-11
5.4571825e-11
5.3765602e-11
5.2975727e-11
5.219775e-11
5.1434922e-11
5.0681647e-11
4.9942025e-11
4.920905e-11
4.8487818e-11
4.776957e-11
4.706089e-11
4.6350722e-11
4.5647412e-11
4.4936738e-11
4.4229446e-11
4.3508573e-11
4.278667e-11
4.2040772e-11
4.1288857e-11
4.050166e-11
3.9703081e-11
3.8860321e-11
3.8005239e-11
3.7084133e-11
3.6128544e-11
3.5078783e-11
3.3967956e-11
3.2719042e-11
3.1339006e-11
2.961083e-11
2.8063501e-11
2.8235371e-11
2.895604e-11
2.9838374e-11
3.0731533e-11
3.1585464e-11
3.2385865e-11
3.3081061e-11
3.3702447e-11
3.4210098e-11
3.4641426e-11
3.497667e-11
3.5257673e-11
3.5485044e-11
3.5712394e-11
3.6012323e-11
3.6403093e-11
3.684116e-11
3.7321943e-11
3.7834875e-11
3.8379648e-11
3.8951921e-11
3.9548187e-11
4.0159064e-11
4.0773838e-11
4.1371609e-11
4.1907689e-11
4.226364e-11
4.2395466e-11
4.2363651e-11
4.2199554e-11
4.1981413e-11
4.1288395e-11
3.3325912e-12
2.7294765e-12
2.3952751e-12
2.2244389e-12
2.1274065e-12
2.0718239e-12
2.0535637e-12
2.0856179e-12
2.1942326e-12
2.3585061e-12
2.6032688e-12
2.8843428e-12
2.9536988e-12
3.2784148e-12
3.8895314e-12
4.7309785e-12
6.2644495e-12
4.9244533e-11
9.917235e-11
1.4453591e-10
1.8146358e-10
1.9650335e-10
1.9332872e-10
1.7510574e-10
1.9811725e-11
1.1509096e-11
7.9274497e-12
5.298312e-12
4.8030519e-12
4.6723893e-11
2.6998079e-09
6.352768e-10
3.2278136e-09
5.7711475e-10
3.6431955e-11
2.6840043e-10
2.1011704e-10
1.1686204e-10
2.4048089e-12
2.0748267e-11
1.1112303e-11
6.2501978e-12
3.5145632e-12
2.2297033e-12
1.7108699e-12
1.4600158e-12
1.335941e-12
1.2709442e-12
1.2413243e-12
1.2265424e-12
1.2237484e-12
1.2283637e-12
1.2499616e-12
1.2917762e-12
1.3605564e-12
1.4508923e-12
1.5661349e-12
1.7087314e-12
1.8840163e-12
2.0980027e-12
2.3588513e-12
2.675069e-12
3.05758e-12
3.5169904e-12
4.0646549e-12
4.7066808e-12
5.4449726e-12
6.290435e-12
7.2648239e-12
8.3849486e-12
5.5552943e-10
5.4739514e-10
5.3933712e-10
5.3136379e-10
5.2347825e-10
5.1568826e-10
5.0799601e-10
5.0041221e-10
4.9293636e-10
4.8557868e-10
4.783332e-10
4.7121116e-10
4.6420319e-10
4.5732508e-10
4.5056172e-10
4.4393086e-10
4.3740762e-10
4.3101245e-10
4.247102e-10
4.1852701e-10
4.1241846e-10
4.0641752e-10
4.0046829e-10
3.9461175e-10
3.8877777e-10
3.8301929e-10
3.7724752e-10
3.7152962e-10
3.6575112e-10
3.5999847e-10
3.5412608e-10
3.4824557e-10
3.4216922e-10
3.3604572e-10
3.2963431e-10
3.2313282e-10
3.1627061e-10
3.0931151e-10
3.0181325e-10
2.9403869e-10
2.8549554e-10
2.7646033e-10
2.6629861e-10
2.5507077e-10
2.4100799e-10
2.2842292e-10
2.2982931e-10
2.3569753e-10
2.428794e-10
2.5016177e-10
2.5712108e-10
2.6365389e-10
2.6932721e-10
2.7440583e-10
2.7855614e-10
2.8208744e-10
2.8483363e-10
2.8711506e-10
2.8895643e-10
2.9079048e-10
2.9320334e-10
2.9633063e-10
2.9981968e-10
3.0362714e-10
3.076641e-10
3.1192073e-10
3.1636104e-10
3.2094654e-10
3.2560183e-10
3.3023304e-10
3.3467305e-10
3.385531e-10
3.4093833e-10
3.4150867e-10
3.4074565e-10
3.3890009e-10
3.3656612e-10
3.3283744e-10
2.0268031e-11
1.5151729e-11
1.2781959e-11
1.1416791e-11
1.047539e-11
9.7623139e-12
9.2211872e-12
8.8983115e-12
8.829585e-12
8.9850642e-12
9.3806535e-12
9.884356e-12
8.8872384e-12
9.0851866e-12
1.0194407e-11
1.2115979e-11
1.5783149e-11
2.937389e-10
6.6752654e-10
9.9773056e-10
1.2543262e-09
1.371583e-09
1.3660993e-09
1.2695888e-09
1.0146295e-10
5.8642729e-11
3.9881498e-11
3.0386244e-11
2.6411346e-11
3.7547473e-10
1.3520772e-08
3.0715523e-09
1.6146989e-08
2.7848228e-09
1.5506069e-10
1.2821201e-09
1.0104202e-09
5.6150443e-10
9.8169112e-12
9.7907235e-11
5.1829135e-11
2.8871595e-11
1.6230626e-11
1.0204012e-11
7.8597882e-12
6.6918773e-12
6.1541285e-12
5.854635e-12
5.7426463e-12
5.6818846e-12
5.6898324e-12
5.7218132e-12
5.83875e-12
6.0430928e-12
6.3758005e-12
6.8069353e-12
7.3560791e-12
8.0317758e-12
8.8616976e-12
9.8718834e-12
1.1102617e-11
1.2592176e-11
1.4393303e-11
1.6554688e-11
1.9131074e-11
2.2151481e-11
2.5628187e-11
2.9612288e-11
3.4206675e-11
3.9492279e-11
2.6749396e-09
2.6358455e-09
2.5971123e-09
2.5587807e-09
2.5208657e-09
2.4834053e-09
2.4464102e-09
2.4099319e-09
2.3739688e-09
2.3385701e-09
2.3037073e-09
2.2694349e-09
2.2357082e-09
2.202603e-09
2.1700474e-09
2.1381269e-09
2.1067219e-09
2.0759309e-09
2.0455855e-09
2.0158112e-09
1.9863947e-09
1.9574947e-09
1.9288424e-09
1.9006352e-09
1.8725356e-09
1.8447986e-09
1.8169971e-09
1.7894543e-09
1.7616192e-09
1.7339082e-09
1.7056158e-09
1.6772851e-09
1.6480109e-09
1.618511e-09
1.5876242e-09
1.5563054e-09
1.5232481e-09
1.4897261e-09
1.4536048e-09
1.4161562e-09
1.3750044e-09
1.3314867e-09
1.2825419e-09
1.2284667e-09
1.1607794e-09
1.1002957e-09
1.1071917e-09
1.1354955e-09
1.1701314e-09
1.2052594e-09
1.2388259e-09
1.2703419e-09
1.2977162e-09
1.3222275e-09
1.3422645e-09
1.3593206e-09
1.3725905e-09
1.3836128e-09
1.3925181e-09
1.4013932e-09
1.413043e-09
1.4280987e-09
1.4448745e-09
1.463164e-09
1.4825346e-09
1.5029435e-09
1.524211e-09
1.5461442e-09
1.5683804e-09
1.590463e-09
1.6115911e-09
1.6299666e-09
1.6411253e-09
1.6435776e-09
1.6396224e-09
1.6304579e-09
1.6186604e-09
1.611505e-09
8.6787993e-11
6.1758504e-11
5.1678136e-11
4.5717381e-11
4.1475179e-11
3.817851e-11
3.5597257e-11
3.3885005e-11
3.3155838e-11
3.3334144e-11
3.4453826e-11
3.6027049e-11
3.1012039e-11
3.0952093e-11
3.4541514e-11
4.1316829e-11
5.2874638e-11
1.3066086e-09
3.1085785e-09
4.6645702e-09
5.8601067e-09
6.4121294e-09
6.3940429e-09
5.9682026e-09
4.4071805e-10
2.4608655e-10
1.6605208e-10
1.2775091e-10
1.1053376e-10
1.7950797e-09
4.5522336e-08
1.086178e-08
5.4334097e-08
9.8388591e-09
5.3384565e-10
4.4669368e-09
3.5498094e-09
1.9692298e-09
3.2462733e-11
3.4301397e-10
1.8049661e-10
1.003927e-10
5.6441328e-11
3.5404788e-11
2.7269674e-11
2.3198642e-11
2.1349594e-11
2.0308454e-11
1.9934868e-11
1.9728959e-11
1.9770205e-11
1.9888073e-11
2.0304051e-11
2.1018465e-11
2.2180178e-11
2.3682809e-11
2.5596582e-11
2.7949217e-11
3.0838535e-11
3.4353622e-11
3.8635771e-11
4.3816967e-11
5.0081563e-11
5.7598221e-11
6.6558568e-11
7.7064735e-11
8.9162483e-11
1.0302858e-10
1.1902075e-10
1.3742256e-10
9.4042659e-09
9.2669046e-09
9.130802e-09
8.9961023e-09
8.8628588e-09
8.7312047e-09
8.6011784e-09
8.4729622e-09
8.3465496e-09
8.222115e-09
8.0995585e-09
7.979072e-09
7.8604985e-09
7.7441059e-09
7.6296408e-09
7.5174044e-09
7.4069775e-09
7.2987065e-09
7.1919988e-09
7.0872971e-09
6.9838512e-09
6.8822193e-09
6.781457e-09
6.6822584e-09
6.5834374e-09
6.485891e-09
6.3881171e-09
6.2912534e-09
6.1933621e-09
6.0959074e-09
5.9964068e-09
5.8967732e-09
5.7938233e-09
5.6900834e-09
5.581468e-09
5.471337e-09
5.3550913e-09
5.2372142e-09
5.1101887e-09
4.9785062e-09
4.8338013e-09
4.6807879e-09
4.5086921e-09
4.318577e-09
4.0807704e-09
3.8686219e-09
3.8933444e-09
3.993014e-09
4.1149656e-09
4.2386598e-09
4.3568419e-09
4.4678166e-09
4.5642274e-09
4.6505634e-09
4.7211605e-09
4.7812736e-09
4.8280694e-09
4.8669639e-09
4.8984305e-09
4.9298209e-09
4.9709265e-09
5.0239125e-09
5.0828911e-09
5.1471606e-09
5.2151949e-09
5.2868479e-09
5.3614777e-09
5.438401e-09
5.5163497e-09
5.5936977e-09
5.6676194e-09
5.7317295e-09
5.7704417e-09
5.778679e-09
5.7644752e-09
5.7319906e-09
5.6890651e-09
5.6975775e-09
2.9695933e-10
2.037643e-10
1.6948905e-10
1.4887513e-10
1.3392013e-10
1.2214412e-10
1.1280737e-10
1.0634011e-10
1.0312487e-10
1.0296561e-10
1.059622e-10
1.1050573e-10
9.3084639e-11
9.1985336e-11
1.0298213e-10
1.2443696e-10
1.5834191e-10
4.3397515e-09
1.0760551e-08
1.618005e-08
2.0302139e-08
2.2201522e-08
2.2135609e-08
2.0701593e-08
1.5515499e-09
8.4001299e-10
5.6315846e-10
4.3347553e-10
3.744554e-10
6.2527056e-09
1.1300255e-07
3.1212427e-08
1.3487328e-07
2.8250342e-08
1.6156107e-09
1.2623022e-08
1.0132898e-08
5.6145722e-09
9.5382772e-11
9.8011849e-10
5.137249e-10
2.8569715e-10
1.6064189e-10
1.0065981e-10
7.7473278e-11
6.5869552e-11
6.0616929e-11
5.7653573e-11
5.6601215e-11
5.6020405e-11
5.6147886e-11
5.6487447e-11
5.7673302e-11
5.9700095e-11
6.2996406e-11
6.7260316e-11
7.2691857e-11
7.9367857e-11
8.7566888e-11
9.7540515e-11
1.0969049e-10
1.2439031e-10
1.4216388e-10
1.6348948e-10
1.8891276e-10
2.1872716e-10
2.5306732e-10
2.9243171e-10
3.3783389e-10
3.9008229e-10
2.6872473e-08
2.6480189e-08
2.6091471e-08
2.5706732e-08
2.5326125e-08
2.4950033e-08
2.4578568e-08
2.4212252e-08
2.3851068e-08
2.3495515e-08
2.3145311e-08
2.2801004e-08
2.2462149e-08
2.212951e-08
2.1802368e-08
2.1481584e-08
2.116596e-08
2.0856488e-08
2.0551477e-08
2.0252191e-08
1.9956489e-08
1.9665966e-08
1.9377925e-08
1.909435e-08
1.8811853e-08
1.8532997e-08
1.8253493e-08
1.7976593e-08
1.7696755e-08
1.7418169e-08
1.7133738e-08
1.6848934e-08
1.6554658e-08
1.6258135e-08
1.5947683e-08
1.5632911e-08
1.5300659e-08
1.4963747e-08
1.4600665e-08
1.4224304e-08
1.3810722e-08
1.3373432e-08
1.2881606e-08
1.2338351e-08
1.1659301e-08
1.1054556e-08
1.1126639e-08
1.1411936e-08
1.1760957e-08
1.2114977e-08
1.2453171e-08
1.2770771e-08
1.3046738e-08
1.3293907e-08
1.349607e-08
1.3668242e-08
1.3802363e-08
1.391392e-08
1.4004291e-08
1.4094538e-08
1.4212431e-08
1.4363994e-08
1.453253e-08
1.4716086e-08
1.4910335e-08
1.5114799e-08
1.5327658e-08
1.5546995e-08
1.5769116e-08
1.5989363e-08
1.6199632e-08
1.6381519e-08
1.6490763e-08
1.6513324e-08
1.647202e-08
1.6378548e-08
1.6251342e-08
1.6349431e-08
8.9177736e-10
5.962704e-10
4.9349325e-10
4.3091623e-10
3.8487291e-10
3.482709e-10
3.18987e-10
2.981118e-10
2.8677981e-10
2.8451287e-10
2.9153901e-10
3.0316678e-10
2.5194966e-10
2.4702415e-10
2.7693444e-10
3.3695565e-10
4.2817234e-10
1.173035e-08
3.0333685e-08
4.5718166e-08
5.7267955e-08
6.2556125e-08
6.2338955e-08
5.8384578e-08
4.7451279e-09
2.5133977e-09
1.678862e-09
1.295758e-09
1.1184378e-09
1.7661821e-08
2.2491419e-07
7.7372044e-08
2.6859816e-07
6.9970935e-08
4.478077e-09
3.0780301e-08
2.4978648e-08
1.3842111e-08
2.6039229e-10
2.4220089e-09
1.2663827e-09
7.0441004e-10
3.9613597e-10
2.4801757e-10
1.907121e-10
1.6206114e-10
1.4910519e-10
1.4179683e-10
1.3920958e-10
1.377847e-10
1.3810787e-10
1.3894689e-10
1.4186174e-10
1.468331e-10
1.5492244e-10
1.6539159e-10
1.7873091e-10
1.9512655e-10
2.1526346e-10
2.3975793e-10
2.6959763e-10
3.0569878e-10
3.4934897e-10
4.0172316e-10
4.6416533e-10
5.374057e-10
6.2178505e-10
7.1851914e-10
8.3009324e-10
9.5850189e-10
6.6356767e-08
6.538888e-08
6.4429685e-08
6.348021e-08
6.2540842e-08
6.161253e-08
6.0695555e-08
5.9791215e-08
5.8899471e-08
5.8021564e-08
5.7156801e-08
5.6306544e-08
5.5469693e-08
5.4648151e-08
5.3840136e-08
5.3047785e-08
5.2268144e-08
5.150367e-08
5.0750184e-08
5.0010819e-08
4.9280285e-08
4.856253e-08
4.7850891e-08
4.7150276e-08
4.6452315e-08
4.5763349e-08
4.5072793e-08
4.4388665e-08
4.3697284e-08
4.3009011e-08
4.2306311e-08
4.1602715e-08
4.0875742e-08
4.0143251e-08
3.9376381e-08
3.8598871e-08
3.7778181e-08
3.694598e-08
3.604907e-08
3.5119461e-08
3.4097916e-08
3.3017922e-08
3.1803229e-08
3.0461711e-08
2.878607e-08
2.7296461e-08
2.7478175e-08
2.8183989e-08
2.9047275e-08
2.9922926e-08
3.0759285e-08
3.1544767e-08
3.2227399e-08
3.28389e-08
3.3339191e-08
3.3765332e-08
3.4097523e-08
3.4374043e-08
3.4598314e-08
3.4822489e-08
3.5114648e-08
3.5489218e-08
3.5905298e-08
3.6358131e-08
3.6837148e-08
3.7341111e-08
3.7865502e-08
3.8405615e-08
3.8952147e-08
3.9493533e-08
4.0009741e-08
4.0455016e-08
4.0720791e-08
4.0773478e-08
4.0669111e-08
4.0436244e-08
4.010905e-08
4.0460574e-08
2.4579784e-09
1.6169849e-09
1.3335917e-09
1.1594947e-09
1.0300057e-09
9.2628609e-10
8.4266445e-10
7.8176443e-10
7.4659341e-10
7.3606796e-10
7.5054655e-10
7.7764537e-10
6.4094187e-10
6.2342954e-10
6.9749286e-10
8.5092921e-10
1.0792944e-09
2.7430711e-08
7.3760107e-08
1.1148341e-07
1.3933186e-07
1.5194778e-07
1.5129942e-07
1.418651e-07
1.3110457e-08
6.8584366e-09
4.5806544e-09
3.5569843e-09
3.0712276e-09
4.3033587e-08
3.8818691e-07
1.7158302e-07
4.640471e-07
1.5503715e-07
1.1591243e-08
6.7331155e-08
5.5216668e-08
3.0656156e-08
6.7333319e-10
5.3720397e-09
2.8056643e-09
1.5610772e-09
8.7803709e-10
5.4930705e-10
4.21969e-10
3.5838399e-10
3.2964238e-10
3.1344102e-10
3.0771209e-10
3.0456709e-10
3.0529349e-10
3.0715173e-10
3.1358228e-10
3.2453427e-10
3.4236656e-10
3.6545994e-10
3.9489225e-10
4.3106963e-10
4.7550445e-10
5.2955418e-10
5.9539914e-10
6.7505935e-10
7.7137756e-10
8.8694735e-10
1.024743e-09
1.1863976e-09
1.3726835e-09
1.5862643e-09
1.8326145e-09
2.1161531e-09
1.4707805e-07
1.4493535e-07
1.4281155e-07
1.4070896e-07
1.3862846e-07
1.3657217e-07
1.3454074e-07
1.3253705e-07
1.3056105e-07
1.2861551e-07
1.266989e-07
1.2481426e-07
1.2295918e-07
1.2113788e-07
1.1934643e-07
1.175896e-07
1.1586083e-07
1.141656e-07
1.1249466e-07
1.1085495e-07
1.0923477e-07
1.0764287e-07
1.060645e-07
1.0451054e-07
1.0296246e-07
1.0143433e-07
9.990269e-08
9.8385286e-08
9.6851824e-08
9.5325291e-08
9.3766812e-08
9.2206411e-08
9.0594237e-08
8.896992e-08
8.7269444e-08
8.5545473e-08
8.3725747e-08
8.188048e-08
7.989158e-08
7.7830441e-08
7.5565454e-08
7.3171172e-08
7.0478238e-08
6.7504623e-08
6.3793056e-08
6.0499801e-08
6.0911171e-08
6.2478803e-08
6.4395686e-08
6.6339998e-08
6.8196619e-08
6.9940388e-08
7.1456103e-08
7.2814058e-08
7.3925318e-08
7.4872093e-08
7.5610619e-08
7.622577e-08
7.6725268e-08
7.7225001e-08
7.7874766e-08
7.8705372e-08
7.9626915e-08
8.062911e-08
8.168857e-08
8.2802694e-08
8.3961227e-08
8.5153478e-08
8.6358921e-08
8.7551664e-08
8.8686997e-08
8.9663005e-08
9.0240642e-08
9.0348396e-08
9.010989e-08
8.9587197e-08
8.8828305e-08
8.9666003e-08
6.3480088e-09
4.1436648e-09
3.4117558e-09
2.9592137e-09
2.6197712e-09
2.3461595e-09
2.1241089e-09
1.9597642e-09
1.8604809e-09
1.8239943e-09
1.8505867e-09
1.9101346e-09
1.571051e-09
1.5182445e-09
1.6917453e-09
2.0625564e-09
2.607149e-09
5.7834997e-08
1.6045534e-07
2.4325509e-07
3.0313492e-07
3.2982679e-07
3.2802974e-07
3.0782239e-07
3.3430866e-08
1.7421259e-08
1.1671623e-08
9.1415164e-09
7.906343e-09
9.4001525e-08
6.1642063e-07
3.4849245e-07
7.3775571e-07
3.1464391e-07
2.8288173e-08
1.3558342e-07
1.1218658e-07
6.2527223e-08
1.6619936e-09
1.0962701e-08
5.7258244e-09
3.1868938e-09
1.7927842e-09
1.1207149e-09
8.6002818e-10
7.3003315e-10
6.7128635e-10
6.3820168e-10
6.2650955e-10
6.2011419e-10
6.2161282e-10
6.2540105e-10
6.3846248e-10
6.6067956e-10
6.9687918e-10
7.4379193e-10
8.0359826e-10
8.7711407e-10
9.6741443e-10
1.0772532e-09
1.2110622e-09
1.3729419e-09
1.5686723e-09
1.8035252e-09
2.0835612e-09
2.4121466e-09
2.790893e-09
3.2251658e-09
3.7260718e-09
4.3026277e-09
3.0002099e-07
2.9565779e-07
2.9133213e-07
2.8704878e-07
2.828096e-07
2.7861899e-07
2.7447831e-07
2.7039352e-07
2.6636453e-07
2.6239706e-07
2.5848806e-07
2.5464377e-07
2.5085932e-07
2.4714338e-07
2.4348797e-07
2.3990286e-07
2.3637474e-07
2.3291479e-07
2.2950418e-07
2.2615712e-07
2.2284976e-07
2.1959998e-07
2.1637772e-07
2.1320521e-07
2.1004467e-07
2.0692491e-07
2.037979e-07
2.0069998e-07
1.9756934e-07
1.9445294e-07
1.9127148e-07
1.8808625e-07
1.8479553e-07
1.8148025e-07
1.7800975e-07
1.7449153e-07
1.7077789e-07
1.6701205e-07
1.6295274e-07
1.5874667e-07
1.5412459e-07
1.4923938e-07
1.4374469e-07
1.3767842e-07
1.3011211e-07
1.2341199e-07
1.2426951e-07
1.2747447e-07
1.3139233e-07
1.3536602e-07
1.3915924e-07
1.427221e-07
1.4581966e-07
1.4859495e-07
1.5086647e-07
1.5280236e-07
1.5431343e-07
1.5557267e-07
1.5659629e-07
1.5762121e-07
1.5895051e-07
1.6064461e-07
1.6252157e-07
1.6456116e-07
1.6671568e-07
1.6897971e-07
1.71332e-07
1.7375021e-07
1.7619255e-07
1.7860582e-07
1.8089804e-07
1.8286001e-07
1.8400815e-07
1.8420313e-07
1.8369589e-07
1.8261039e-07
1.8098437e-07
1.8243151e-07
1.5510675e-08
1.0117264e-08
8.3318602e-09
7.2228882e-09
6.3855004e-09
5.7069086e-09
5.1531616e-09
4.7385186e-09
4.4799361e-09
4.3731684e-09
4.4177786e-09
4.5454703e-09
3.7561942e-09
3.617325e-09
4.0128108e-09
4.8789461e-09
6.1393386e-09
1.1311808e-07
3.1994933e-07
4.8638301e-07
6.0391247e-07
6.5509344e-07
6.5040688e-07
6.1054077e-07
7.9633282e-08
4.1651245e-08
2.8063719e-08
2.2200668e-08
1.9258254e-08
1.8884061e-07
9.3484043e-07
6.5863087e-07
1.1201702e-06
5.943669e-07
6.541454e-08
2.5583968e-07
2.1305305e-07
1.194378e-07
3.9278211e-09
2.0941829e-08
1.0949841e-08
6.0964534e-09
3.4301289e-09
2.142573e-09
1.6424485e-09
1.3934023e-09
1.2808774e-09
1.2175694e-09
1.1952078e-09
1.1830236e-09
1.1859202e-09
1.1931564e-09
1.2180104e-09
1.2602313e-09
1.3290753e-09
1.4183584e-09
1.5322126e-09
1.6721716e-09
1.8440934e-09
2.0532099e-09
2.3079609e-09
2.616143e-09
2.9887637e-09
3.435859e-09
3.9689979e-09
4.5946815e-09
5.3160637e-09
6.1432568e-09
7.0973641e-09
8.1956235e-09
5.7303575e-07
5.6472276e-07
5.5647879e-07
5.4831319e-07
5.4022967e-07
5.3223676e-07
5.2433724e-07
5.165426e-07
5.0885285e-07
5.0127904e-07
4.9381546e-07
4.8647421e-07
4.7924606e-07
4.7214773e-07
4.6516411e-07
4.5831395e-07
4.5157193e-07
4.4495951e-07
4.3844084e-07
4.320431e-07
4.2572087e-07
4.1950832e-07
4.1334814e-07
4.0728282e-07
4.0124049e-07
3.9527597e-07
3.8929752e-07
3.833747e-07
3.7738955e-07
3.7143184e-07
3.6535008e-07
3.592615e-07
3.5297176e-07
3.466356e-07
3.4000331e-07
3.3328037e-07
3.2618407e-07
3.1898762e-07
3.1122977e-07
3.0319294e-07
2.9436113e-07
2.8502813e-07
2.7453038e-07
2.6294289e-07
2.4850046e-07
2.3573825e-07
2.3741302e-07
2.4354969e-07
2.5104874e-07
2.5865384e-07
2.6591066e-07
2.7272696e-07
2.7865428e-07
2.8396482e-07
2.883121e-07
2.9201823e-07
2.9491275e-07
2.973258e-07
2.9928922e-07
3.0125624e-07
3.0380059e-07
3.0703305e-07
3.1060906e-07
3.1449096e-07
3.1858816e-07
3.2288909e-07
3.2735277e-07
3.3193586e-07
3.36558e-07
3.4111676e-07
3.4543502e-07
3.4911106e-07
3.5123009e-07
3.5153918e-07
3.5051532e-07
3.4839118e-07
3.4512068e-07
3.4671748e-07
3.6028245e-08
2.361595e-08
1.9485248e-08
1.6911236e-08
1.4957211e-08
1.3366568e-08
1.2062719e-08
1.107859e-08
1.0451478e-08
1.0174583e-08
1.024567e-08
1.0519085e-08
8.7852423e-09
8.4593521e-09
9.3472568e-09
1.1320061e-08
1.4172999e-08
2.0932842e-07
5.948763e-07
9.0591085e-07
1.1198876e-06
1.2101138e-06
1.1985855e-06
1.1247837e-06
1.7841033e-07
9.4278819e-08
6.4014889e-08
5.1181577e-08
4.4583174e-08
3.5503898e-07
1.3826867e-06
1.1713686e-06
1.6585682e-06
1.0571557e-06
1.4373163e-07
4.5804608e-07
3.8269498e-07
2.1619602e-07
8.8970739e-09
3.7921024e-08
1.986596e-08
1.1063895e-08
6.2260522e-09
3.885848e-09
2.9755565e-09
2.5229039e-09
2.318434e-09
2.2035155e-09
2.1629496e-09
2.140936e-09
2.1462538e-09
2.1593699e-09
2.2042305e-09
2.2803302e-09
2.4045113e-09
2.5656814e-09
2.7712654e-09
3.0239933e-09
3.3344509e-09
3.7120624e-09
4.1720706e-09
4.7285315e-09
5.401323e-09
6.2085602e-09
7.1711893e-09
8.3011206e-09
9.6041989e-09
1.1098489e-08
1.2822006e-08
1.4805991e-08
1.0374779e-06
1.0224791e-06
1.0075989e-06
9.9285476e-07
9.7825376e-07
9.6381169e-07
9.4953395e-07
9.3544167e-07
9.2153523e-07
9.0783495e-07
8.9433083e-07
8.8104508e-07
8.679613e-07
8.5511012e-07
8.4246435e-07
8.3005829e-07
8.1784636e-07
8.058676e-07
7.9405734e-07
7.8246497e-07
7.7100851e-07
7.5974989e-07
7.4858564e-07
7.3759295e-07
7.2664202e-07
7.1583145e-07
7.0499566e-07
6.9426074e-07
6.8341336e-07
6.7261613e-07
6.6159492e-07
6.5056215e-07
6.3916595e-07
6.2768675e-07
6.1567227e-07
6.0349467e-07
5.9064103e-07
5.7760478e-07
5.6355062e-07
5.4899409e-07
5.3299747e-07
5.1609622e-07
4.9708476e-07
4.761041e-07
4.4997268e-07
4.2693231e-07
4.3003498e-07
4.4117621e-07
4.5478527e-07
4.6858433e-07
4.8174507e-07
4.9410656e-07
5.048579e-07
5.1448929e-07
5.2237573e-07
5.2910055e-07
5.3435526e-07
5.3873642e-07
5.4230412e-07
5.4587934e-07
5.5049073e-07
5.5633046e-07
5.6278075e-07
5.697739e-07
5.7714636e-07
5.8487521e-07
5.9288581e-07
6.0109781e-07
6.0936368e-07
6.1749666e-07
6.2517408e-07
6.3166513e-07
6.3533218e-07
6.3574305e-07
6.3375661e-07
6.2978619e-07
6.2353956e-07
6.2332578e-07
7.9775852e-08
5.2778507e-08
4.369216e-08
3.8016984e-08
3.3690413e-08
3.0154793e-08
2.7246092e-08
2.5039553e-08
2.3613743e-08
2.2960699e-08
2.3075606e-08
2.3664823e-08
2.0059269e-08
1.936833e-08
2.1333969e-08
2.571786e-08
3.2032316e-08
3.715127e-07
1.0443857e-06
1.5904677e-06
1.9560362e-06
2.1037253e-06
2.0770342e-06
1.947041e-06
3.7737417e-07
2.0264408e-07
1.3889794e-07
1.1226907e-07
9.8309882e-08
6.3233584e-07
2.0159906e-06
1.9766194e-06
2.420463e-06
1.7856574e-06
3.0058623e-07
7.8491162e-07
6.5573847e-07
3.7401821e-07
1.9325475e-08
6.5705655e-08
3.450925e-08
1.9223937e-08
1.0819675e-08
6.7471921e-09
5.160833e-09
4.3731363e-09
4.0174297e-09
3.8177246e-09
3.7472892e-09
3.7092291e-09
3.7185937e-09
3.7413652e-09
3.818884e-09
3.9501758e-09
4.1645892e-09
4.4430818e-09
4.7984234e-09
5.2352551e-09
5.7718882e-09
6.4245666e-09
7.2196375e-09
8.1813434e-09
9.3440375e-09
1.0739006e-08
1.240254e-08
1.4355533e-08
1.6608351e-08
1.9191819e-08
2.2171476e-08
2.5601499e-08
1.7965623e-06
1.7707119e-06
1.7450532e-06
1.719617e-06
1.6944165e-06
1.6694797e-06
1.6448169e-06
1.6204653e-06
1.5964264e-06
1.572736e-06
1.5493777e-06
1.5263905e-06
1.5037467e-06
1.4815e-06
1.4596041e-06
1.4381188e-06
1.4169658e-06
1.3962132e-06
1.3757497e-06
1.3556609e-06
1.3358056e-06
1.3162912e-06
1.2969391e-06
1.2778844e-06
1.2589008e-06
1.2401594e-06
1.2213745e-06
1.2027645e-06
1.1839606e-06
1.1652444e-06
1.1461418e-06
1.1270206e-06
1.107272e-06
1.0873815e-06
1.0665661e-06
1.0454702e-06
1.0232039e-06
1.0006178e-06
9.7626678e-07
9.51051e-07
9.2334016e-07
8.940678e-07
8.6113833e-07
8.2480523e-07
7.7958364e-07
7.3980326e-07
7.4530508e-07
7.6465828e-07
7.8828677e-07
8.1223863e-07
8.3506875e-07
8.5651043e-07
8.7516238e-07
8.9186746e-07
9.0555105e-07
9.172191e-07
9.2633938e-07
9.3394338e-07
9.4013827e-07
9.463455e-07
9.5432914e-07
9.6440529e-07
9.7551495e-07
9.8754123e-07
1.0002011e-06
1.0134521e-06
1.0271626e-06
1.0411887e-06
1.0552732e-06
1.069089e-06
1.0820741e-06
1.0929584e-06
1.0989415e-06
1.0993241e-06
1.0955859e-06
1.0884286e-06
1.0770056e-06
1.0700397e-06
1.6871609e-07
1.130343e-07
9.3996752e-08
8.2086429e-08
7.2975589e-08
6.5505736e-08
5.9342694e-08
5.4654978e-08
5.1600953e-08
5.0179601e-08
5.0385888e-08
5.1658743e-08
4.4553044e-08
4.3227264e-08
4.7500253e-08
5.6976363e-08
7.0591814e-08
6.3820738e-07
1.7481201e-06
2.6556771e-06
3.2469131e-06
3.4729994e-06
3.4149542e-06
3.1948456e-06
7.552265e-07
4.1421747e-07
2.8704847e-07
2.3458703e-07
2.0671679e-07
1.0758657e-06
2.9111492e-06
3.1845028e-06
3.4979995e-06
2.8833688e-06
5.9890126e-07
1.2951636e-06
1.0784794e-06
6.2221771e-07
4.0283216e-08
1.0973098e-07
5.780095e-08
3.2204688e-08
1.8127982e-08
1.1294848e-08
8.6293738e-09
7.3077964e-09
6.7112263e-09
6.3766634e-09
6.2587965e-09
6.1953953e-09
6.2113322e-09
6.24947e-09
6.3786126e-09
6.5969467e-09
6.9537994e-09
7.4176627e-09
8.0096961e-09
8.737492e-09
9.6315842e-09
1.0718945e-08
1.2043461e-08
1.3645413e-08
1.5582012e-08
1.7905307e-08
2.0675885e-08
2.392908e-08
2.7682618e-08
3.198709e-08
3.6951335e-08
4.2665889e-08
2.9953639e-06
2.952541e-06
2.9100091e-06
2.8678208e-06
2.8259997e-06
2.7845942e-06
2.7436229e-06
2.7031495e-06
2.6631779e-06
2.6237696e-06
2.5848983e-06
2.5466307e-06
2.5089222e-06
2.4718635e-06
2.4353786e-06
2.3995686e-06
2.3643043e-06
2.3296999e-06
2.2955714e-06
2.2620618e-06
2.2289375e-06
2.1963772e-06
2.164087e-06
2.1322903e-06
2.1006094e-06
2.0693308e-06
2.03798e-06
2.0069209e-06
1.9755403e-06
1.9443072e-06
1.9124327e-06
1.8805298e-06
1.8475846e-06
1.8144064e-06
1.7796907e-06
1.7445103e-06
1.7073798e-06
1.6697071e-06
1.6290895e-06
1.5870387e-06
1.5408261e-06
1.492018e-06
1.4371066e-06
1.3765298e-06
1.3011834e-06
1.2350617e-06
1.2444628e-06
1.2768449e-06
1.3163574e-06
1.356395e-06
1.3945296e-06
1.4303376e-06
1.4614898e-06
1.4893837e-06
1.5122394e-06
1.5317244e-06
1.5469575e-06
1.5596542e-06
1.5699981e-06
1.5803578e-06
1.5936438e-06
1.6103528e-06
1.6287376e-06
1.6486031e-06
1.6694781e-06
1.6912861e-06
1.7137996e-06
1.7367715e-06
1.7597727e-06
1.7822482e-06
1.803256e-06
1.8206751e-06
1.8298992e-06
1.8298538e-06
1.8229967e-06
1.8104713e-06
1.7903493e-06
1.7666151e-06
3.4133663e-07
2.3217262e-07
1.9412571e-07
1.7029315e-07
1.5201399e-07
1.3698605e-07
1.2456071e-07
1.1510439e-07
1.0892149e-07
1.0604275e-07
1.0647661e-07
1.0920589e-07
9.5938163e-08
9.3659542e-08
1.0272957e-07
1.2258132e-07
1.5106005e-07
1.0676641e-06
2.8109473e-06
4.2470961e-06
5.1586376e-06
5.4841005e-06
5.3655245e-06
5.0045891e-06
1.4318543e-06
8.0577538e-07
5.6535569e-07
4.6716031e-07
4.1467848e-07
1.7586766e-06
4.1681939e-06
4.9222284e-06
5.012051e-06
4.4740104e-06
1.1374201e-06
2.0663064e-06
1.710305e-06
9.9980856e-07
8.0647657e-08
1.7763382e-07
9.3861901e-08
5.2300839e-08
2.9443054e-08
1.8328218e-08
1.3986481e-08
1.1837041e-08
1.0867215e-08
1.0323959e-08
1.0132845e-08
1.0030545e-08
1.0056907e-08
1.011887e-08
1.0327424e-08
1.0679306e-08