/*--------------------------------*- C++ -*----------------------------------*\
| =========                 |                                                 |
| \\      /  F ield         | OpenFOAM: The Open Source CFD Toolbox           |
|  \\    /   O peration     | Version:  2.4.0                                 |
|   \\  /    A nd           | Web:      www.OpenFOAM.org                      |
|    \\/     M anipulation  |                                                 |
\*---------------------------------------------------------------------------*/
FoamFile
{
    version     2.0;
    format      ascii;
    class       volScalarField;
    location    "320";
    object      omega;
}
// * * * * * * * * * * * * * * * * * * * * * * * * * * * * * * * * * * * * * //

dimensions      [0 0 -1 0 0 0 0];

internalField   nonuniform List<scalar> 
19475
(
288636.63
288686.54
288700.32
288833.65
289515.6
291432.02
295479.08
302673.01
314010.37
329813.04
346787.82
362441.63
375829.98
386411.76
393919.79
398343.7
399991.89
399060.36
395721.33
390174.45
382632.29
373308
362413.46
350675.33
339521.98
329123.31
319421.78
310364.21
301901.89
293992.53
286594.56
279672.29
273192.3
267123.9
261439.18
256109.32
250877.53
245350.68
239525.68
233441.11
129783.85
129783.85
129783.84
129783.85
129783.85
129783.84
129783.85
129783.85
129783.85
129783.85
129783.85
129783.85
129783.85
129783.84
129783.85
129783.85
129783.85
129783.85
129783.85
129783.85
129783.85
129783.85
129783.85
129783.85
129783.85
129783.85
129783.85
129783.85
129783.85
129783.85
129783.85
129783.85
129783.84
129783.85
129783.85
129783.84
129783.85
129783.85
129783.85
129783.85
129783.85
129783.84
129783.85
129783.85
129783.84
129657.28
129512.01
129895.29
130811.3
132247.51
134192.34
136634.64
139564.65
142973.98
146855.32
151204.67
156018.82
161297.58
167043.87
173262.26
179902.7
186708.68
193567.05
200429.57
207253.32
214004.05
220644.49
227134.65
233439.26
239524.1
245352.66
250877.67
256108.08
261440.19
267124.37
273191.43
279670.54
286594.56
293991.4
301901.42
310366.51
319421.34
329122.77
339524.25
350675.48
362412.53
373310.22
382630.09
390168.82
395719.59
399058.71
399989.89
398342.36
393921.49
386411.4
375828.68
362441.02
346789.97
329814.86
314010.09
302672.88
295478.99
291431.81
289515.62
288834.57
288701.21
288686.52
288636.62
40231.304
48826.793
40240.439
48847.912
56967.69
49330.162
49992.162
51210.494
61894.886
53541.646
56295.003
58837.619
61013.185
62733.516
63955.001
64675.64
64945.518
64796.433
64256.409
63357.792
62135.116
60622.962
58855.484
56949.957
55138.59
53449.699
51874.065
50403.04
49028.763
47744.278
46542.877
45418.628
44366.179
43380.486
42457.078
41591.426
40742.162
39845.256
38899.99
37912.674
21961.543
21961.543
21961.543
21961.544
21961.544
21961.544
21961.545
21961.545
21961.545
21961.546
21961.546
21961.547
21961.548
21961.547
21961.548
21961.549
21961.55
21961.55
21961.551
21961.552
21961.552
21961.553
21961.554
21961.555
21961.555
21961.556
21961.557
21961.557
21961.558
21961.559
21961.56
21961.561
21961.562
21961.564
21961.564
21961.565
21961.567
21961.569
21961.571
21961.575
21961.578
21961.583
21961.588
21961.595
21962.107
21942.42
21919.065
21983.963
22138.991
22382.099
22711.307
23124.74
23620.732
24197.881
24854.897
25591.129
26406.051
27299.587
28272.247
29324.769
30448.539
31600.082
32760.333
33921.292
35075.778
36217.751
37341.017
38438.828
39505.252
40534.393
41519.976
42454.407
43339.371
44241.772
45203.797
46230.704
47327.398
48502.16
57893.983
59504.633
61207.459
63029.559
64982.64
67077.632
69324.458
71689.044
73883.763
75760.282
77277.604
78450.981
79854.228
80358.301
80109.492
79213.104
77642.669
61095.635
58842.35
56296.606
53540.783
50978.196
49141.894
47981.049
57321.658
57003.929
56870.324
56842.296
56838.607
48861.039
10599.617
16112.371
10604.393
16119.62
23744.03
16339.79
16530.948
16948.616
25976.701
17945.872
18879.637
19732.935
20463.244
21041.027
21451.483
21693.931
21785.108
21735.722
21555.167
21254.274
20844.636
20337.876
19745.336
19106.212
18498.455
17931.759
17403.05
16909.45
16448.308
16017.292
15614.161
15236.93
14883.792
14553.059
14243.226
13952.816
13667.975
13367.194
13050.195
12719.07
7261.8703
7261.8702
7261.8702
7261.8704
7261.8707
7261.8708
7261.8714
7261.8719
7261.8724
7261.873
7261.8738
7261.8745
7261.8754
7261.8762
7261.8774
7261.8783
7261.8795
7261.8805
7261.8817
7261.883
7261.8842
7261.8855
7261.8867
7261.8882
7261.8895
7261.891
7261.8925
7261.894
7261.8956
7261.8973
7261.899
7261.9008
7261.9026
7261.9047
7261.9068
7261.909
7261.9117
7261.9148
7261.9193
7261.925
7261.9307
7261.9384
7261.9464
7261.9585
7262.2702
7256.2144
7248.7831
7270.2439
7321.5084
7401.9162
7510.8056
7647.5541
7811.6139
8002.52
8219.8426
8463.3658
8732.9123
9028.4609
9350.1729
9698.2903
10069.917
10450.674
10834.285
11218.107
11599.799
11977.345
12348.687
12711.604
13064.132
13404.308
13730.088
14038.983
14331.565
14630.001
14948.203
15287.842
15650.333
16017.702
24148.271
24931.955
25695.625
26513.823
27392.403
28336.661
29351.341
30421.134
31415.819
32267.058
32955.041
33547.754
35433.779
36218.415
36248.072
35836.51
35078.253
20650.055
19743.05
18882.716
17958.646
17100.743
16486.262
16093.864
23849.652
23818.681
23761.207
23744.504
23737.799
16184.408
3729.1692
7393.9914
3732.7712
7398.1483
13971.448
7563.9367
7622.0742
7830.5938
15465.62
8321.1333
8766.9616
9163.3396
9502.681
9771.3285
9962.2496
10075.149
10117.753
10095.071
10011.448
9871.9333
9681.8972
9446.7506
9171.7181
8874.9363
8592.6223
8329.3679
8083.7561
7854.4566
7640.2332
7440.0058
7252.7317
7077.493
6913.4458
6759.8099
6615.8811
6480.9835
6348.708
6209.0551
6061.87
5908.1182
3347.388
3347.3874
3347.3869
3347.3867
3347.3867
3347.3868
3347.3871
3347.3876
3347.3882
3347.3889
3347.3898
3347.3908
3347.392
3347.3932
3347.3946
3347.396
3347.3976
3347.3992
3347.4009
3347.4028
3347.4046
3347.4065
3347.4085
3347.4106
3347.4127
3347.4148
3347.4171
3347.4194
3347.4218
3347.4243
3347.4269
3347.4296
3347.4325
3347.4354
3347.4387
3347.442
3347.4458
3347.4503
3347.4565
3347.4636
3347.4716
3347.4813
3347.4923
3347.5075
3347.7223
3345.1348
3341.8183
3351.7013
3375.3232
3412.3884
3462.5873
3525.6314
3601.2702
3689.2827
3789.4747
3901.7459
4026.0167
4162.2733
4310.5881
4471.0698
4642.3588
4817.8367
4994.6216
5171.4958
5347.392
5521.3695
5692.4828
5859.7162
6022.1661
6178.9149
6329.0219
6471.3514
6606.2003
6743.7921
6890.514
7047.1262
7214.0889
7360.1079
14219.837
14798.91
15301.441
15840.754
16421.825
17048.498
17724.312
18439.484
19106.908
19679.168
20141.175
20572.877
22356.103
23150.67
23241.564
22957.623
22446.113
9776.3038
9179.7926
8772.5523
8344.0671
7947.2184
7662.9128
7476.5359
13985.918
14081.129
14046.209
14030.504
14020.447
7491.3404
1627.9896
4073.1795
1630.7732
4076.3625
9532.2167
4228.1681
4231.0948
4360.3998
10703.613
4625.2807
4884.2343
5105.0655
5294.2144
5444.1091
5550.6636
5613.7558
5637.6396
5625.1497
5578.6821
5501.0724
5395.3007
5264.3954
5111.2409
4945.9089
4788.5781
4641.862
4504.9772
4377.1861
4257.7965
4146.2089
4041.8399
3944.1793
3852.7561
3767.1367
3686.9251
3611.7487
3538.0522
3460.2617
3378.272
3292.6189
1856.9482
1856.9468
1856.9457
1856.945
1856.9446
1856.9444
1856.9445
1856.9449
1856.9455
1856.9463
1856.9473
1856.9486
1856.95
1856.9517
1856.9535
1856.9554
1856.9576
1856.9598
1856.9621
1856.9646
1856.9672
1856.9698
1856.9726
1856.9754
1856.9783
1856.9813
1856.9845
1856.9876
1856.991
1856.9944
1856.998
1857.0016
1857.0057
1857.0096
1857.0141
1857.0185
1857.0238
1857.0295
1857.0375
1857.046
1857.0561
1857.0676
1857.0817
1857.0998
1857.2661
1855.95
1854.1576
1859.6279
1872.7214
1893.2785
1921.1264
1956.102
1998.0656
2046.8949
2102.482
2164.7698
2233.7159
2309.3098
2391.592
2480.6202
2575.629
2672.9482
2770.9879
2869.0745
2966.6205
3063.0987
3157.9885
3250.7282
3340.816
3427.7449
3510.9888
3589.9284
3664.7431
3741.1013
3822.5353
3909.4559
4002.0378
4063.2733
9709.706
10205.859
10592.879
11008.756
11458.681
11945.949
12473.631
13034.481
13560.146
14011.877
14376.074
14728.894
16298.46
17021.575
17118.359
16886.772
16495.288
5633.514
5128.6393
4893.0371
4655.1318
4435.6116
4278.099
4170.4574
9498.5119
9668.451
9644.9076
9628.3351
9615.6561
4186.8963
873.21521
2511.3342
875.30118
2514.2094
6913.1607
2660.3371
2635.1761
2725.7711
7882.7376
2877.0169
3046.44
3184.0996
3302.1136
3395.7821
3462.3737
3501.8665
3516.8616
3509.1717
3480.2636
3431.9321
3366.0203
3284.4358
3188.9569
3085.8483
2987.6895
2896.1491
2810.7423
2731.0117
2656.5231
2586.9034
2521.7879
2460.8593
2403.8221
2350.4062
2300.3624
2253.461
2207.493
2158.9813
2107.8496
2054.43
1155.1015
1155.0993
1155.0975
1155.0962
1155.0953
1155.0949
1155.0948
1155.0951
1155.0958
1155.0968
1155.0981
1155.0996
1155.1015
1155.1036
1155.106
1155.1086
1155.1114
1155.1143
1155.1175
1155.1207
1155.1242
1155.1277
1155.1314
1155.1352
1155.1391
1155.1431
1155.1473
1155.1514
1155.1559
1155.1603
1155.1651
1155.1698
1155.1751
1155.1802
1155.1861
1155.1917
1155.1985
1155.2055
1155.2154
1155.2253
1155.2377
1155.2511
1155.2682
1155.2893
1155.4292
1154.6909
1153.5949
1156.9839
1165.1174
1177.8982
1195.2182
1216.9727
1243.0757
1273.4499
1308.0289
1346.7764
1389.666
1436.6898
1487.8734
1543.2501
1602.3367
1662.8521
1723.8145
1784.805
1845.4601
1905.4518
1964.4571
2022.1273
2078.1496
2132.2103
2183.9825
2233.0882
2279.6524
2327.1901
2377.8856
2431.9973
2489.6246
2513.0436
7048.8618
7488.7997
7803.8247
8142.4549
8510.304
8910.2816
9345.0977
9809.0323
10245.619
10621.701
10924.715
11219.986
12543.828
13166.763
13253.613
13056.937
12746.76
3687.8069
3215.2409
3058.9402
2911.4551
2776.1829
2678.7801
2608.6705
6852.874
7065.8707
7050.3642
7032.7479
7018.2866
2633.9091
568.54532
1670.6952
570.00496
1673.5542
5137.9424
1813.9692
1773.3989
1840.974
5951.5967
1930.4767
2049.7751
2142.2639
2221.6697
2284.8384
2329.7415
2356.4265
2366.5861
2361.4865
2342.0855
2309.6196
2265.3127
2210.4663
2146.2595
2076.8985
2010.8384
1949.2303
1891.7493
1838.091
1787.9611
1741.1094
1697.2893
1656.2884
1617.9066
1581.9621
1548.2853
1516.7225
1485.7931
1453.1597
1418.7627
1382.8241
775.74807
775.745
775.74259
775.7408
775.7396
775.73895
775.73885
775.73924
775.7401
775.74138
775.74308
775.74517
775.74765
775.75046
775.7536
775.757
775.76069
775.76456
775.7687
775.77297
775.77748
775.78208
775.78693
775.7918
775.79695
775.80206
775.80752
775.81285
775.81863
775.82422
775.8304
775.83631
775.84302
775.84938
775.85681
775.86378
775.87229
775.88075
775.89255
775.90413
775.91884
775.93437
775.95453
775.9789
776.1037
775.66712
774.9344
777.19546
782.64595
791.22147
802.84916
817.45527
834.98365
855.38009
878.60198
904.6237
933.42708
965.00619
999.37861
1036.5644
1076.2339
1116.8577
1157.7814
1198.7246
1239.4431
1279.719
1319.3351
1358.0556
1395.6739
1431.9796
1466.7533
1499.746
1531.0524
1563.0233
1597.1162
1633.5078
1672.301
1678.1232
5244.5378
5632.9187
5893.008
6172.3496
6476.9167
6809.2709
7171.7793
7559.8278
7926.4062
8243.0425
8498.2546
8744.6295
9828.9775
10348.591
10421.8
10254.627
10007.464
2635.6966
2181.0243
2066.243
1967.9096
1878.6297
1813.9883
1764.7609
5065.5643
5297.8276
5288.8206
5270.4267
5254.902
1795.8907
432.01459
1174.8512
432.8686
1177.8303
3853.7952
1310.3379
1261.6514
1313.3785
4535.6644
1367.8195
1455.6826
1521.1912
1577.5595
1622.5445
1654.5106
1673.5561
1680.8241
1677.2614
1663.5174
1640.5012
1609.0646
1570.1509
1524.5813
1475.3398
1428.4191
1384.6595
1343.8307
1305.7196
1270.1152
1236.841
1205.7206
1176.6037
1149.3473
1123.8224
1099.9065
1077.4905
1055.5269
1032.3586
1007.9374
982.41923
550.12008
550.11634
550.11347
550.11138
550.11005
550.10943
550.10951
550.11021
550.1115
550.11334
550.11571
550.11856
550.12191
550.12565
550.12982
550.13429
550.13913
550.14418
550.14956
550.1551
550.16094
550.16686
550.17309
550.17932
550.18591
550.19241
550.19932
550.20606
550.21334
550.22035
550.22807
550.23543
550.24375
550.25158
550.26071
550.26923
550.27958
550.28969
550.30358
550.31696
550.33417
550.35196
550.37541
550.4032
550.51939
550.25631
549.73032
551.31776
555.17055
561.24319
569.48353
579.83633
592.26338
606.72379
623.18954
641.64049
662.06456
684.45613
708.82862
735.19392
763.31405
792.10741
821.11431
850.13668
879.00166
907.55478
935.64276
963.09871
989.7781
1015.5326
1040.2067
1063.6275
1085.8716
1108.5966
1132.8269
1158.6899
1186.3262
1184.3795
3937.8567
4275.2635
4489.6373
4719.4441
4970.8563
5246.1194
5547.2825
5870.6163
6177.2429
6442.9057
6657.2757
6860.9458
7730.9215
8155.532
8215.4384
8074.5617
7877.7968
2003.2184
1567.2065
1476.1703
1407.1627
1345.5703
1300.6713
1264.5015
3779.6686
4013.2964
4009.6482
3990.8763
3974.8366
1297.7088
363.48072
862.7
363.70289
865.83085
2899.1991
988.10366
936.05427
975.78345
3466.6231
1009.7819
1076.2306
1124.4606
1166.095
1199.4641
1223.1612
1237.3245
1242.7393
1240.1539
1230.0165
1213.0307
1189.8091
1161.0684
1127.401
1091.0129
1056.3214
1023.9665
993.77827
965.60215
939.27991
914.68234
891.6778
870.15613
850.01019
831.14476
813.46725
796.89629
780.66074
763.53881
745.48993
726.62832
406.2079
406.20378
406.20071
406.19862
406.19746
406.19718
406.19774
406.19906
406.2011
406.20381
406.20716
406.21109
406.21561
406.22061
406.22611
406.23198
406.23826
406.24481
406.25173
406.25883
406.26628
406.2738
406.28168
406.28955
406.29782
406.30597
406.31459
406.32298
406.33198
406.34065
406.35013
406.35916
406.36929
406.3788
406.38984
406.40009
406.41249
406.42444
406.44059
406.45599
406.47587
406.49615
406.52308
406.55455
406.66619
406.51022
406.10901
407.26425
410.09611
414.57058
420.64897
428.28751
437.45955
448.13272
460.2885
473.90932
488.98798
505.51887
523.51257
542.97556
563.72888
584.97732
606.38515
627.80608
649.11352
670.19301
690.93251
711.20986
730.91862
749.9504
768.1918
785.51816
801.99457
818.83392
836.7842
855.94418
876.49609
871.81454
2964.8393
3252.5382
3427.9032
3615.3655
3821.1218
4047.1362
4295.1593
4562.1988
4816.4512
5037.4722
5216.125
5382.7779
6069.8498
6411.7369
6459.9399
6342.4851
6186.1193
1588.5262
1176.9707
1100.5704
1050.2494
1006.57
974.52884
947.31295
2830.438
3052.7192
3053.3562
3034.6322
3018.4723
979.51846
323.99195
656.47246
323.52433
659.70799
2182.9719
769.99754
717.851
748.04238
2650.8433
769.83606
820.81147
857.37182
889.07221
914.62073
932.74759
943.62311
947.78638
945.85561
938.14104
925.21093
907.51523
885.62017
859.96342
832.22994
805.774
781.09998
758.07808
736.5933
716.52297
697.76971
680.23204
663.82684
648.47103
634.09205
620.61739
607.98355
595.60505
582.55423
568.79581
554.41581
309.40394
309.39979
309.39692
309.3952
309.39459
309.39501
309.39643
309.39875
309.40192
309.40587
309.41057
309.41595
309.422
309.42861
309.4358
309.44339
309.45146
309.45982
309.46861
309.47758
309.48694
309.49637
309.5062
309.51599
309.52622
309.53629
309.54688
309.55718
309.56816
309.57872
309.5902
309.60111
309.61328
309.6247
309.63785
309.65005
309.66468
309.67868
309.69729
309.71492
309.73768
309.76068
309.7913
309.82673
309.93657
309.85049
309.52754
310.38961
312.53283
315.93069
320.55362
326.36515
333.34668
341.47157
350.72759
361.09866
372.58123
385.16955
398.87228
413.69223
429.49051
445.6648
461.96287
478.27289
494.49938
510.55527
526.35608
541.80968
556.83562
571.35222
585.27456
598.51127
611.11895
624.01061
637.74831
652.4113
668.21786
663.36781
2233.2381
2474.0822
2616.1769
2767.5168
2934.1548
3117.8034
3319.9443
3538.1972
3746.8583
3928.8946
4076.3479
4211.3612
4746.9422
5018.9467
5057.2938
4960.4273
4836.3199
1295.7871
915.27017
848.62764
810.78567
779.33802
756.21587
735.6109
2124.0148
2326.76
2330.6404
2312.3722
2296.3647
764.72206
297.27417
515.05358
296.0432
518.28915
1645.0876
615.62909
565.62593
588.14228
2026.9954
602.33449
641.66378
670.00548
694.72492
714.78679
729.00412
737.57283
740.85529
739.38149
733.36253
723.27429
709.45149
692.35634
672.31781
650.65689
629.98038
610.69704
592.70479
575.91658
560.23456
545.58392
531.88411
519.07096
507.07829
495.84946
485.32575
475.4559
465.78419
455.58986
444.84177
433.60606
241.51039
241.50667
241.50444
241.50353
241.5039
241.50546
241.50816
241.51189
241.5166
241.52218
241.52863
241.53583
241.54381
241.55239
241.56162
241.57129
241.5815
241.59202
241.603
241.61416
241.62575
241.63738
241.64946
241.66145
241.67392
241.68618
241.69899
241.71146
241.72465
241.73735
241.75104
241.76408
241.7785
241.79205
241.8075
241.82188
241.83893
241.85522
241.87647
241.89657
241.92239
241.94836
241.98289
242.02255
242.13252
242.09417
241.82139
242.47548
244.13392
246.7752
250.37616
254.90526
260.34976
266.68689
273.90849
282.00004
290.96039
300.78356
311.47695
323.04074
335.36446
347.98126
360.6973
373.425
386.09058
398.62651
410.96765
423.04262
434.78965
446.14585
457.04655
467.4236
477.32768
487.46101
498.25519
509.77537
522.26499
518.46488
1682.4579
1880.6646
1994.6672
2115.539
2249.036
2396.646
2559.6133
2736.0616
2905.4764
3053.8327
3174.2972
3282.6422
3695.3105
3909.4244
3939.6584
3860.6291
3762.1844
1075.9858
731.91452
672.38955
643.16378
620.40884
603.80352
588.37445
1598.2072
1776.9799
1783.132
1765.6836
1750.0106
613.24395
276.17819
415.11997
274.10806
418.21233
1242.2563
502.40166
456.00802
472.3358
1550.7811
481.47515
511.79211
534.14565
553.79332
569.87649
581.2581
588.15395
590.7957
589.65143
584.85883
576.82862
565.81121
552.19471
536.22903
518.97249
502.48856
487.1161
472.77294
459.3924
446.89463
435.22122
424.30674
414.1008
404.54941
395.60737
387.22579
379.36188
371.65395
363.53154
354.9668
346.01153
192.26221
192.25942
192.2583
192.25867
192.26047
192.26361
192.26803
192.27359
192.28024
192.28786
192.29645
192.30586
192.31612
192.32704
192.33866
192.35075
192.36342
192.3764
192.38989
192.40353
192.41764
192.43176
192.44634
192.4608
192.47576
192.49045
192.50573
192.52059
192.53621
192.55128
192.5674
192.58277
192.59962
192.61551
192.63345
192.65021
192.66984
192.68862
192.71269
192.73548
192.76453
192.79372
192.83233
192.87652
192.98803
192.98356
192.74321
193.24415
194.5492
196.64023
199.4988
203.09675
207.42577
212.46561
218.21104
224.64891
231.77978
239.59744
248.10836
257.31073
267.11494
277.15249
287.27183
297.40307
307.48833
317.47409
327.30913
336.93734
346.31077
355.38015
364.0954
372.40558
380.3569
388.49843
397.16711
406.41804
416.50742
414.22198
1268.7842
1429.4262
1520.038
1615.5872
1721.4078
1838.7898
1968.7713
2109.8866
2245.9695
2365.61
2463.0207
2549.1825
2863.7191
3030.5751
3054.2244
2990.4416
2912.3728
902.75544
598.51095
544.6976
521.5626
505.16
493.51996
482.32802
1208.0481
1361.3482
1368.9259
1352.6025
1337.3867
502.63555
257.51576
342.68435
254.53745
345.4709
941.82241
416.95594
375.03729
386.36092
1188.532
391.8507
415.05953
432.92497
448.78603
461.90456
471.17337
476.82282
478.98589
478.08562
474.20421
467.70514
458.77559
447.74937
434.81744
420.84343
407.48486
395.02802
383.40541
372.56567
362.4424
352.98937
344.15238
335.89134
328.16124
320.92534
314.14194
307.77423
301.53036
294.95234
288.0149
280.75909
155.53463
155.53326
155.53371
155.53581
155.53948
155.54461
155.55114
155.55892
155.56789
155.5779
155.58896
155.60092
155.61378
155.62734
155.64164
155.65644
155.67184
155.68755
155.70378
155.72016
155.73701
155.75385
155.77115
155.78829
155.80594
155.82326
155.84118
155.85863
155.87686
155.89446
155.91316
155.93104
155.95047
155.96887
155.98944
156.00873
156.03106
156.05253
156.07955
156.10521
156.13763
156.17023
156.21308
156.26201
156.37608
156.39647
156.17703
156.56157
157.60137
159.28066
161.58459
164.48732
167.984
172.05569
176.70005
181.90465
187.67141
193.99371
200.87753
208.31948
216.2455
224.36072
232.54516
240.74198
248.90522
256.99167
264.96077
272.76786
280.37503
287.74338
294.83394
301.60862
308.11062
314.7745
321.86639
329.43398
337.73511
337.01326
959.18322
1087.6697
1159.1
1233.9332
1317.0003
1409.4124
1512.0274
1623.7105
1731.8843
1827.3784
1905.36
1973.2979
2210.5677
2339.335
2357.6978
2306.7767
2244.8822
761.38922
498.11791
449.29093
430.5351
418.85374
411.1171
403.50359
919.65888
1048.1227
1056.4513
1041.4967
1026.8289
419.60498
239.93583
288.97672
235.9927
291.29415
718.71698
351.01108
313.97344
321.27496
914.03479
323.84326
341.36716
355.7863
368.75532
379.61422
387.27348
391.97315
393.77065
393.05505
389.86606
384.53196
377.1917
368.13838
357.51801
346.0466
335.07134
324.83807
315.29049
306.38892
298.07714
290.31829
283.06671
276.29012
269.95026
264.01681
258.45341
253.2275
248.1003
242.69991
237.00318
231.04294
127.50227
127.50276
127.50519
127.50939
127.51528
127.52274
127.53169
127.54199
127.55355
127.56623
127.58001
127.59474
127.61042
127.62683
127.64402
127.6617
127.68001
127.69862
127.71776
127.73702
127.75676
127.77645
127.79659
127.81654
127.83698
127.85706
127.87772
127.89786
127.91879
127.93903
127.9604
127.98088
128.00297
128.02396
128.04723
128.06916
128.09426
128.11853
128.14856
128.17721
128.21307
128.24921
128.29636
128.3502
128.46751
128.50666
128.30049
128.59413
129.42988
130.7936
132.67327
135.04465
137.90549
141.23776
145.04159
149.30488
154.03067
159.21196
164.8544
170.95327
177.44648
184.0955
190.80446
197.52638
204.22443
210.86323
217.41051
223.83025
230.0922
236.16549
242.01973
247.62675
253.02773
258.56971
264.46451
270.75428
277.69001
278.36494
728.25599
829.89797
885.83553
943.98943
1008.6449
1080.7502
1161.0047
1248.5336
1333.675
1409.1515
1470.9832
1524.1278
1701.3343
1799.7649
1813.9264
1773.7152
1724.6703
643.4064
420.20786
375.9969
360.43284
352.28279
347.6772
343.14088
707.14476
812.81909
821.4194
808.02217
793.98576
355.89724
222.97454
248.29708
218.02625
249.99672
553.63582
299.20886
267.12141
271.23601
706.7717
271.22579
284.14858
295.86407
306.58147
315.68481
322.09495
326.05699
327.57017
326.99692
324.34424
319.91346
313.80633
306.28461
297.45969
287.9333
278.81085
270.30641
262.37233
254.97805
248.07532
241.63449
235.61653
229.99521
224.73747
219.81784
215.20399
210.86645
206.60759
202.12264
197.39021
192.43671
105.68434
105.68699
105.69167
105.69822
105.70654
105.71652
105.72807
105.74103
105.75532
105.77077
105.78738
105.80497
105.82355
105.84287
105.86299
105.8836
105.90485
105.92638
105.94844
105.9706
105.99323
106.01578
106.03877
106.06152
106.08476
106.10758
106.13098
106.1538
106.17741
106.20029
106.22429
106.24738
106.2721
106.29569
106.32161
106.34619
106.374
106.40112
106.43412
106.4658
106.50503
106.54476
106.59615
106.65492
106.77583
106.82947
106.63149
106.8525
107.52796
108.64488
110.19349
112.15056
114.51594
117.27231
120.42177
123.95234
127.86801
132.16144
136.83802
141.8919
147.27041
152.77896
158.34044
163.91543
169.4743
174.98771
180.42978
185.77124
190.98798
196.05522
200.9493
205.65009
210.19723
214.86968
219.83706
225.13718
231.008
232.81658
556.43375
636.14262
679.74188
724.66639
774.65063
830.4947
892.75668
960.75906
1027.1689
1086.2861
1134.8794
1176.1562
1307.2451
1381.7904
1392.6431
1361.2329
1322.4042
543.70177
358.04002
318.2343
305.03001
299.51012
297.43774
295.56157
550.70944
636.43769
645.02635
633.32777
620.01587
306.15465
206.58856
216.83132
200.61556
217.79231
431.7731
257.93837
230.63942
232.28921
550.72746
229.84218
238.99395
248.54627
257.48149
265.19845
270.62399
274.00376
275.29246
274.83063
272.60026
268.88137
263.74683
257.43378
250.02658
242.03699
234.37898
227.24117
220.5827
214.38029
208.59196
203.19378
198.15192
193.44487
189.04363
184.92649
181.06413
177.42934
173.85698
170.09542
166.12484
161.96654
88.421014
88.425935
88.43295
88.441887
88.452669
88.465161
88.479282
88.49485
88.511796
88.529942
88.549275
88.569609
88.590955
88.613059
88.635964
88.659362
88.683391
88.707691
88.732514
88.757416
88.782767
88.80801
88.833679
88.859077
88.884933
88.910346
88.936313
88.961669
88.987798
89.013161
89.039646
89.065197
89.092384
89.118439
89.146853
89.173947
89.204301
89.234163
89.269961
89.304561
89.346994
89.390186
89.445598
89.509159
89.633689
89.698624
89.505572
89.667493
90.214809
91.135358
92.421206
94.049712
96.022526
98.322778
100.95418
103.90475
107.17933
110.77018
114.68252
118.90955
123.40615
128.0125
132.66633
137.33416
141.99202
146.61543
151.18349
155.67215
160.06228
164.33385
168.46867
172.45298
176.32534
180.31113
184.54653
189.06595
194.09048
196.74395
428.71645
490.83476
524.73106
559.30269
597.75874
640.76753
688.76237
741.21093
792.60808
838.54583
876.43673
908.30105
1004.4091
1060.3648
1068.6324
1044.35
1013.6353
458.9954
307.20581
271.64221
260.21757
256.6341
256.59686
257.00325
435.32933
504.26683
512.73171
502.83267
490.35703
266.75085
190.90669
191.96804
183.91647
192.10605
341.85618
224.6708
201.85533
201.67098
433.48188
196.84661
202.85897
210.6476
218.15167
224.75827
229.39738
232.31112
233.42039
233.04697
231.15397
228.004
223.64758
218.30201
212.03042
205.2726
198.78882
192.74692
187.11161
181.86536
176.97129
172.40997
168.15179
164.17892
160.46558
156.99289
153.73392
150.66309
147.64125
144.45951
141.09936
137.57805
74.5724
74.579465
74.588645
74.599784
74.6128
74.627558
74.643975
74.661865
74.681158
74.70167
74.72339
74.746123
74.76988
74.794398
74.819721
74.845532
74.871969
74.898664
74.925873
74.953145
74.980848
75.008425
75.036407
75.0641
75.092226
75.119893
75.148082
75.175649
75.203958
75.231498
75.260132
75.287844
75.317169
75.345397
75.375976
75.405304
75.437857
75.470219
75.508476
75.545727
75.590982
75.637347
75.69635
75.764326
75.892124
75.965829
75.775739
75.888954
76.332408
77.094464
78.168789
79.533035
81.190388
83.124207
85.339575
87.824414
90.584296
93.611115
96.909982
100.47322
104.2619
108.14407
112.06935
116.00899
119.94358
123.85242
127.71865
131.5224
135.2484
138.88051
142.405
145.81311
149.14271
152.57659
156.22397
160.11655
164.45701
167.68096
333.70034
381.93384
408.28402
434.84874
464.35632
497.36243
534.19424
574.42371
613.95562
649.42185
678.77599
703.25718
773.1503
814.80233
821.05925
802.45386
778.16047
386.98521
264.78112
233.28674
223.24541
221.06571
222.62049
224.94535
349.73175
404.99149
413.34896
405.31361
393.80443
235.13016
176.09375
171.88897
168.12826
171.16147
275.37745
197.57185
178.85937
177.39442
345.47784
170.24761
173.59154
179.91462
186.25436
191.96069
195.96466
198.50091
199.46535
199.16291
197.54289
194.85322
191.12716
186.5657
181.21526
175.45719
169.92691
164.77501
159.97083
155.50145
151.33418
147.4532
143.8323
140.45659
137.30282
134.35432
131.58595
128.97335
126.39846
123.68718
120.82215
117.81729
63.337863
63.346687
63.35762
63.370512
63.385288
63.40181
63.419999
63.439668
63.460748
63.483054
63.506575
63.531115
63.556685
63.583015
63.610151
63.637771
63.666012
63.694507
63.723506
63.752562
63.782032
63.811374
63.841102
63.870541
63.900386
63.929773
63.959652
63.988918
64.018888
64.048111
64.078385
64.107778
64.138739
64.168674
64.200914
64.232015
64.266259
64.300682
64.340873
64.380306
64.427811
64.476833
64.538763
64.610508
64.740831
64.821123
64.633041
64.705802
65.06422
65.696941
66.599061
67.7483
69.14916
70.785076
72.662299
74.768621
77.110204
79.678596
82.478842
85.502535
88.715828
92.009383
95.342454
98.690071
102.03649
105.36403
108.65908
111.90513
115.09002
118.20072
121.22708
124.16452
127.05021
130.0328
133.19976
136.58041
140.359
143.9136
262.79688
300.21736
320.75429
341.1887
363.82279
389.11864
417.31654
448.06294
478.33451
505.58494
528.21286
546.95947
597.4347
628.2031
632.89573
618.72666
599.48558
325.89392
228.80803
201.1777
192.25845
191.06701
193.81681
197.69775
285.57505
329.99376
338.33649
332.1914
321.7883
209.42531
162.28034
155.31468
153.4226
153.72219
225.97651
175.27128
160.2543
157.99411
279.41841
148.62527
149.63872
154.71948
160.10027
165.06876
168.55492
170.78226
171.6289
171.38407
169.98752
167.67433
164.46468
160.54576
155.9509
151.0133
146.26598
141.84499
137.72358
133.89256
130.32272
127.00113
123.90438
121.01989
118.32647
115.80909
113.44403
111.20778
108.99968
106.67417
104.21495
101.63323
54.143237
54.153218
54.165267
54.179248
54.195088
54.212657
54.231878
54.252569
54.274663
54.297979
54.322507
54.348053
54.374628
54.401964
54.430104
54.45873
54.487973
54.517477
54.547476
54.577537
54.608005
54.63836
54.669084
54.699536
54.730372
54.760774
54.791635
54.821916
54.852859
54.883101
54.914341
54.944769
54.976698
55.007702
55.040933
55.073172
55.108477
55.144289
55.185703
55.226652
55.275629
55.326565
55.39051
55.465091
55.5968
55.681653
55.495414
55.534557
55.822936
56.349297
57.110026
58.082757
59.2731
60.664497
62.264146
64.059711
66.057833
68.249761
70.640466
73.220945
75.961626
78.771656
81.618102
84.479114
87.341868
90.191137
93.015919
95.802354
98.540887
101.22092
103.83523
106.38258
108.89947
111.50697
114.2749
117.23054
120.54052
124.22901
209.59973
238.69003
254.78291
270.56245
287.96247
307.36897
328.95302
352.4148
375.53602
396.4102
413.79411
428.12099
464.36545
486.93672
490.4072
479.63705
464.34409
274.2397
197.96457
173.95811
165.9966
165.47378
169.05998
174.13508
236.782
272.78935
281.23348
276.96333
267.80028
188.2324
149.5343
141.34047
139.91111
138.92449
188.9457
156.72351
144.99836
142.36485
229.77067
130.95067
129.86093
133.86449
138.44583
142.80373
145.86438
147.83669
148.58697
148.38941
147.17776
145.17553
142.3932
139.00603
135.03716
130.77962
126.68168
122.86698
119.31216
116.01096
112.9372
110.08023
107.41898
104.94265
102.63172
100.47241
98.442046
96.517835
94.61352
92.607233
90.483639
88.251711
46.567821
46.578219
46.590615
46.604887
46.620969
46.638737
46.658122
46.678949
46.701157
46.724573
46.749187
46.774813
46.80146
46.828869
46.857079
46.885783
46.915102
46.944696
46.97478
47.004948
47.035521
47.066011
47.09686
47.127472
47.158447
47.189033
47.220048
47.250538
47.281644
47.312119
47.343529
47.374218
47.406325
47.437629
47.471053
47.503659
47.539246
47.575634
47.617407
47.659036
47.708531
47.760434
47.825271
47.901487
48.033094
48.120532
47.936593
47.948002
48.178605
48.617115
49.261076
50.087963
51.104284
52.293479
53.663476
55.201847
56.91558
58.795711
60.847101
63.060316
65.409428
67.818756
70.261763
72.719143
75.180448
77.632436
80.066192
82.470022
84.836418
87.156752
89.426214
91.646139
93.852194
96.143176
98.57459
101.1718
104.08528
107.755
169.37503
192.09763
204.8112
217.07771
230.51841
245.45819
262.01442
279.92661
297.5745
313.54352
326.87342
337.8122
363.72116
380.17183
382.68159
374.46706
362.24286