/*--------------------------------*- C++ -*----------------------------------*\
| =========                 |                                                 |
| \\      /  F ield         | OpenFOAM: The Open Source CFD Toolbox           |
|  \\    /   O peration     | Version:  2.4.0                                 |
|   \\  /    A nd           | Web:      www.OpenFOAM.org                      |
|    \\/     M anipulation  |                                                 |
\*---------------------------------------------------------------------------*/
FoamFile
{
    version     2.0;
    format      ascii;
    class       volVectorField;
    location    "320";
    object      U;
}
// * * * * * * * * * * * * * * * * * * * * * * * * * * * * * * * * * * * * * //

dimensions      [0 1 -1 0 0 0 0];

internalField   nonuniform List<vector> 
19475
(
(0.0053084215 2.2788689e-05 1.1723182e-21)
(0.0039025021 1.9624087e-05 -1.0540076e-21)
(0.006642246 -4.2075221e-05 9.3597341e-22)
(0.0052302299 -0.00016110261 -2.4956298e-20)
(0.0058543684 -0.00039700053 -7.233863e-21)
(0.0034007821 -0.00039805811 1.3555342e-20)
(0.0022674601 -0.00040945849 7.977447e-21)
(-0.00049809398 0.00012090043 -2.6598149e-20)
(-0.0014682916 0.00048314159 -9.2178508e-21)
(-0.0023162561 0.00097938206 8.7881283e-21)
(-0.0019304826 0.0009768033 4.9090559e-21)
(-0.0017245671 0.00099943762 -9.3607766e-21)
(-0.0012877257 0.00082568511 1.3211512e-21)
(-0.0011385086 0.00079103889 -3.8776071e-21)
(-0.00092830021 0.00068547713 2.6418753e-21)
(-0.00086952909 0.00067379211 -1.3127228e-21)
(-0.00076322728 0.00061337503 -1.8539026e-22)
(-0.00073437839 0.00060723677 -3.430305e-22)
(-0.00066807117 0.00056351055 2.0473739e-21)
(-0.00064030405 0.00054736405 -2.9650256e-21)
(-0.00058730573 0.00050522823 -5.1839669e-21)
(-0.00055787765 0.00048002264 6.427252e-21)
(-0.00051776439 0.00044260577 2.8920855e-21)
(-0.00049744434 0.00042049486 -1.6764355e-21)
(-0.00047648904 0.00039816019 -4.5863294e-21)
(-0.00046603181 0.00038523012 -1.2395573e-21)
(-0.00045678329 0.00037375416 -1.6455698e-21)
(-0.00045621702 0.00036980103 5.4462663e-21)
(-0.00045831893 0.00036827417 4.0323412e-21)
(-0.00046861731 0.00037357757 2.3419993e-21)
(-0.00048290729 0.00038220838 -1.9635261e-21)
(-0.00050494053 0.00039711575 -3.186049e-21)
(-0.00053177106 0.00041589972 -8.6537975e-22)
(-0.00056541517 0.0004401516 -7.8692458e-22)
(-0.00060325817 0.00046782957 5.030961e-22)
(-0.00064475157 0.00049858798 -1.6061703e-22)
(-0.00068494656 0.0005279581 4.5281457e-23)
(-0.00072466673 0.00055521791 -4.2896106e-24)
(-0.00076437428 0.00058030751 -3.6750178e-22)
(-0.00080320163 0.00060226783 8.0949427e-23)
(-0.0011485657 -2.4458849e-07 -9.2193734e-24)
(-0.0010905882 -2.4441024e-07 9.5261698e-24)
(-0.0010337153 -2.4442803e-07 8.7279387e-25)
(-0.00097803253 -2.4415967e-07 -8.6513921e-24)
(-0.00092348047 -2.4369168e-07 4.7914167e-24)
(-0.00087018562 -2.430811e-07 -5.2611492e-24)
(-0.0008180653 -2.4280758e-07 7.7498086e-24)
(-0.00076727433 -2.4305526e-07 -1.9844381e-24)
(-0.00071767503 -2.4370575e-07 -3.8770552e-24)
(-0.0006694494 -2.4442238e-07 1.246558e-24)
(-0.00062240608 -2.4483051e-07 5.0097227e-24)
(-0.00057680413 -2.4512474e-07 -5.8061203e-24)
(-0.00053239003 -2.4538771e-07 5.0660549e-24)
(-0.00048951547 -2.4541011e-07 -5.5251687e-24)
(-0.00044781797 -2.4582471e-07 2.8308111e-24)
(-0.00040776153 -2.4559125e-07 3.2216466e-24)
(-0.00036883436 -2.4606405e-07 5.2114092e-24)
(-0.00033166361 -2.4529868e-07 -5.9817317e-24)
(-0.00029554731 -2.4577959e-07 -4.1016923e-24)
(-0.00026133611 -2.4488664e-07 5.2654269e-24)
(-0.00022807252 -2.458387e-07 -1.119417e-23)
(-0.00019689929 -2.4478759e-07 1.0407681e-23)
(-0.00016652519 -2.458062e-07 -6.1605424e-24)
(-0.00013848895 -2.4442205e-07 5.3573889e-24)
(-0.0001110601 -2.4563304e-07 -6.2197655e-24)
(-8.6299165e-05 -2.4386027e-07 -4.2673812e-24)
(-6.1885172e-05 -2.4494268e-07 3.391738e-24)
(-4.0574081e-05 -2.4213019e-07 -4.3054416e-24)
(-1.9263535e-05 -2.4259649e-07 1.1104561e-23)
(-1.653511e-06 -2.3777792e-07 -6.7334293e-24)
(1.6411166e-05 -2.3706449e-07 5.8927813e-24)
(2.9951942e-05 -2.2918197e-07 -1.0068801e-23)
(4.4551505e-05 -2.271323e-07 9.5472064e-25)
(5.3501078e-05 -2.1548685e-07 3.4897312e-24)
(6.4323727e-05 -2.1190312e-07 3.9040706e-24)
(6.7972977e-05 -1.9502222e-07 -1.4839866e-23)
(7.4566259e-05 -1.8837792e-07 8.6527611e-17)
(7.1872539e-05 -1.6331921e-07 8.6900066e-17)
(7.3476641e-05 -1.5175828e-07 -4.423279e-24)
(6.3011945e-05 -1.1482556e-07 -6.5557824e-24)
(5.8475231e-05 -9.6180579e-08 5.7015023e-24)
(3.805925e-05 -4.2292164e-08 1.0247555e-24)
(2.5020201e-05 -1.4040257e-08 -1.8911198e-24)
(-9.2345153e-06 6.1679921e-08 -8.8130182e-17)
(-3.6250195e-05 1.0587282e-07 -8.844981e-17)
(-9.8243032e-05 -9.5710065e-07 -1.5801418e-20)
(-0.00014208975 -7.2555551e-06 1.6361748e-19)
(-0.00015313159 -1.4171978e-05 7.4055e-20)
(-0.00017060614 -2.2861613e-05 -4.7903574e-19)
(-0.00016372829 -2.8638091e-05 -7.9533828e-20)
(-0.0001643271 -3.5437739e-05 -5.3098979e-19)
(-0.00014604812 -3.7385913e-05 3.5408505e-20)
(-0.00013240996 -3.9236981e-05 -5.5101664e-21)
(-0.00010383685 -3.499636e-05 1.9518277e-19)
(-7.6923115e-05 -2.9177749e-05 -1.5299899e-19)
(-3.8128038e-05 -1.6413933e-05 4.9712884e-19)
(1.45356e-06 -3.8137062e-07 -3.376671e-19)
(5.0916444e-05 2.3392669e-05 -9.1489726e-20)
(0.00010351231 5.2394129e-05 -1.6757886e-19)
(0.00016573493 9.0456532e-05 9.4947848e-19)
(0.00023473985 0.00013668062 2.0730694e-19)
(0.00031735082 0.00019500276 -8.0686412e-19)
(0.00040749936 0.00026192671 -8.836581e-19)
(0.00050889638 0.0003397262 -1.4094764e-19)
(0.0006177333 0.00042575064 6.7786995e-20)
(0.00073678762 0.00052173945 -9.4409605e-19)
(0.00086318855 0.00062531425 -6.2934512e-20)
(0.0009992159 0.00073762395 -1.7090951e-19)
(0.0011421816 0.00085605802 -1.1182096e-18)
(0.0012937534 0.00098109905 1.6944355e-19)
(0.0014507932 0.0011094595 9.1541343e-19)
(0.0016136431 0.0012404109 6.626332e-19)
(0.001775092 0.0013678017 -2.4774503e-19)
(0.001927408 0.0014882715 -1.2248657e-19)
(0.0020747315 0.0016071064 -1.1339293e-19)
(0.0022191298 0.0017261998 2.3100773e-19)
(0.0023596889 0.0018448721 8.1046654e-19)
(0.0024999617 0.0019655115 -8.7927815e-19)
(0.002617357 0.0020704247 2.3508562e-19)
(0.0027392985 0.0021820887 2.4273088e-20)
(0.0028747806 0.0023089097 2.1957254e-19)
(0.003026377 0.0024531421 1.29097e-19)
(0.0031994431 0.0026197229 -6.00876e-20)
(0.0033923098 0.0028079103 3.0026568e-19)
(0.0036206244 0.0030316068 -3.5564091e-20)
(0.0038947843 0.003298186 -6.1333757e-19)
(0.0042662835 0.0036366563 -1.4465952e-20)
(0.0046810515 0.0039895468 -3.8610745e-19)
(0.0051881313 0.0043932719 3.5103297e-19)
(0.0057402206 0.0047963651 2.796089e-20)
(0.0064262095 0.0052619778 3.9478494e-20)
(0.0071719683 0.0057090588 -8.4154782e-20)
(0.0081308097 0.0062395077 4.2830867e-20)
(0.0091827562 0.006719794 1.2820875e-20)
(0.010577501 0.00728641 9.125514e-20)
(0.012059458 0.0076832881 2.2705629e-19)
(0.014011066 0.00807834 -1.2639368e-19)
(0.015813547 0.0079907069 -4.103089e-19)
(0.017708848 0.0074951164 -4.6104352e-19)
(0.017881995 0.0059704391 -8.6756175e-20)
(0.016977896 0.0042719321 1.2745963e-19)
(0.014518877 0.0026021901 -1.5671948e-19)
(0.012391932 0.0014636267 -9.4424489e-20)
(0.0090796123 0.00062407922 -1.9772069e-20)
(0.0076327445 0.00024029217 -2.8944703e-20)
(0.0046830536 3.3537985e-05 -1.7485654e-20)
(0.0049978757 -2.7378875e-05 -9.9090383e-21)
(0.0024209194 -1.0765813e-05 -1.7006931e-21)
(0.016057631 5.944114e-05 1.2891371e-21)
(0.012337429 5.0685192e-05 3.0319187e-21)
(0.020087289 -0.00013458377 -3.4400184e-21)
(0.016008114 -0.00048698343 2.9298994e-20)
(0.017774721 -0.0011892441 4.3496395e-22)
(0.010585237 -0.0012057169 4.9886167e-20)
(0.0071538417 -0.0012445761 -2.0975921e-20)
(-0.0011047523 0.00032066991 3.7706169e-20)
(-0.0041717311 0.0014162721 2.7870754e-20)
(-0.0068309458 0.0029161266 -2.0793488e-20)
(-0.0057607697 0.0029269807 -5.8933791e-21)
(-0.0051685851 0.0030010327 1.4434429e-21)
(-0.0038775342 0.0024880002 3.0083757e-20)
(-0.0034295948 0.0023841013 2.913655e-21)
(-0.0028024124 0.0020697416 -7.1913527e-21)
(-0.0026234189 0.002033604 1.181807e-21)
(-0.002305409 0.0018532673 -3.1153131e-22)
(-0.0022170767 0.0018339308 4.2007948e-22)
(-0.0020187514 0.0017031555 2.104256e-21)
(-0.0019346368 0.0016540655 -1.2210954e-21)
(-0.0017763195 0.0015278136 2.385084e-21)
(-0.0016878634 0.00145173 -3.118528e-21)
(-0.0015681672 0.0013395011 -4.651609e-21)
(-0.0015072075 0.0012728316 -1.3297166e-20)
(-0.0014448049 0.0012058094 4.140232e-21)
(-0.0014137204 0.0011669546 6.4956307e-21)
(-0.0013865384 0.001132696 9.3131147e-21)
(-0.001385348 0.0011210026 -4.5853326e-21)
(-0.0013923336 0.0011167754 -1.7703763e-21)
(-0.0014238527 0.0011330525 -7.7415622e-21)
(-0.0014674556 0.0011594608 9.8688087e-21)
(-0.0015342149 0.0012047143 4.68743e-21)
(-0.0016153822 0.0012616903 6.249427e-22)
(-0.001716849 0.0013350577 8.3858077e-22)
(-0.001830816 0.0014187136 1.3697406e-23)
(-0.0019556076 0.0015115472 -7.6727441e-22)
(-0.0020765892 0.0016002389 -1.0561155e-22)
(-0.0021961141 0.0016825456 1.0902672e-23)
(-0.002315555 0.0017582531 3.6331433e-22)
(-0.0024323524 0.0018244825 4.1499906e-23)
(-0.003404458 -1.5270552e-06 3.3814137e-24)
(-0.0032303565 -1.4951044e-06 -7.9229528e-24)
(-0.0030595844 -1.4637513e-06 9.9513124e-24)
(-0.0028924074 -1.4318651e-06 1.3407524e-24)
(-0.0027286509 -1.3998982e-06 -8.8071254e-24)
(-0.0025686814 -1.3673529e-06 1.5601085e-23)
(-0.0024122447 -1.3352666e-06 -1.1492213e-23)
(-0.0022597929 -1.3031506e-06 1.5267733e-24)
(-0.002110929 -1.2721472e-06 2.1232814e-24)
(-0.0019662025 -1.2407813e-06 -1.0852304e-23)
(-0.0018250592 -1.2099038e-06 1.2097447e-23)
(-0.0016882613 -1.1775537e-06 2.3605137e-24)
(-0.0015550582 -1.1459598e-06 -6.1475657e-24)
(-0.0014264843 -1.1129133e-06 -6.2198465e-24)
(-0.0013014708 -1.0810746e-06 -1.2006409e-23)
(-0.0011813904 -1.0475718e-06 2.186923e-23)
(-0.0010647312 -1.0155538e-06 1.5182712e-23)
(-0.00095334996 -9.8155474e-07 -3.2875811e-23)
(-0.00084516258 -9.4933234e-07 3.2703136e-23)
(-0.00074268661 -9.1492779e-07 -9.7501895e-24)
(-0.00064308644 -8.8277053e-07 -1.5127467e-23)
(-0.00054975194 -8.4780078e-07 -1.2433442e-23)
(-0.00045885775 -8.1535767e-07 -4.5839428e-25)
(-0.00037496369 -7.7902122e-07 2.8117971e-23)
(-0.00029294321 -7.4583315e-07 -2.0785698e-23)
(-0.00021890258 -7.0732648e-07 1.3073132e-23)
(-0.00014597521 -6.7276943e-07 -2.080675e-23)
(-8.2326444e-05 -6.3036679e-07 2.3160713e-23)
(-1.878189e-05 -5.9263218e-07 -1.2765604e-23)
(3.3707745e-05 -5.4371661e-07 7.6222694e-24)
(8.7424669e-05 -5.0110684e-07 2.5573268e-24)
(0.0001276437 -4.4288344e-07 -1.2921267e-23)
(0.00017086286 -3.9336785e-07 1.3442989e-23)
(0.00019724201 -3.224805e-07 -1.8740034e-25)
(0.00022900525 -2.6392715e-07 5.2028609e-24)
(0.00023939556 -1.748867e-07 -2.4290629e-23)
(0.00025830018 -1.0135392e-07 1.6421325e-23)
(0.00024955087 1.5553585e-08 5.2440085e-24)
(0.00025327146 1.1048632e-07 -2.4520914e-23)
(0.00022105889 2.6703543e-07 2.4152341e-23)
(0.00020608149 3.9552015e-07 1.6673314e-23)
(0.00014383807 6.1777266e-07 -2.467381e-23)
(0.00010305899 8.0452116e-07 1.9389723e-23)
(-8.6487346e-07 1.1410952e-06 -2.7461301e-23)
(-8.3702032e-05 1.5168775e-06 -2.9041134e-23)
(-0.00027009705 -1.2682561e-06 4.1192284e-20)
(-0.0004021354 -1.9929047e-05 1.78958e-20)
(-0.00043628626 -4.021381e-05 8.6328526e-21)
(-0.00048881696 -6.5690377e-05 5.7154746e-19)
(-0.0004686587 -8.2468281e-05 2.8476805e-19)
(-0.00047018833 -0.000102159 1.3069226e-18)
(-0.00041537477 -0.00010736754 1.1519319e-18)
(-0.00037403868 -0.00011211157 -2.9864333e-19)
(-0.00028815232 -9.863727e-05 -3.7045888e-19)
(-0.00020692417 -8.0255682e-05 8.1556315e-20)
(-9.0097075e-05 -4.1083341e-05 -2.631694e-19)
(2.9529326e-05 8.0370897e-06 2.1041631e-19)
(0.00017900594 8.0347432e-05 -2.3352511e-19)
(0.00033838673 0.00016846114 -1.0341818e-19)
(0.00052685653 0.00028375776 -7.5447568e-19)
(0.000736035 0.0004236122 1.7624081e-18)
(0.00098545932 0.00059976846 6.6740326e-19)
(0.0012571756 0.00080172525 4.3248631e-20)
(0.0015620553 0.001036352 -4.564775e-19)
(0.0018888392 0.0012956251 -5.3516442e-19)
(0.0022459639 0.0015847664 1.1350747e-18)
(0.002625031 0.0018966579 -2.0508258e-18)
(0.0030327593 0.0022346616 4.563565e-19)
(0.0034612201 0.0025910439 -2.2582199e-19)
(0.0039151793 0.0029671651 3.6927475e-19)
(0.0043852962 0.0033532568 -8.39909e-19)
(0.0048723686 0.0037470307 -2.3840021e-19)
(0.0053552348 0.0041302457 -5.3926096e-19)
(0.0058114971 0.0044931316 3.423979e-19)
(0.0062533182 0.0048512685 -7.4090202e-19)
(0.006686559 0.0052102513 -4.0462454e-19)
(0.0071080975 0.005568081 -7.2407986e-19)
(0.0075259475 0.0059313068 3.6071941e-20)
(0.0078712143 0.0062457711 8.6679688e-19)
(0.0082317371 0.0065814003 -3.3299932e-19)
(0.0086347595 0.0069630401 3.8645736e-19)
(0.0090868454 0.0073973004 -2.4475223e-19)
(0.009602908 0.0078984752 -1.1849852e-18)
(0.010178115 0.0084647239 2.1858275e-19)
(0.010858329 0.0091371445 1.3109095e-19)
(0.011674848 0.0099380839 1.0896071e-18)
(0.012777251 0.010951692 -1.8733358e-19)
(0.014009241 0.012009684 1.8920512e-19)
(0.015513854 0.013217647 -3.1151821e-20)
(0.017154464 0.014425358 -1.0689283e-19)
(0.019188489 0.015815835 -2.7558293e-19)
(0.021403995 0.017153215 3.5382841e-20)
(0.02424536 0.01873262 -3.8710736e-20)
(0.027368369 0.020165502 1.9727508e-20)
(0.031496461 0.021843376 -3.117742e-20)
(0.035901709 0.023022188 -2.7599956e-19)
(0.041681125 0.024177072 3.2341085e-19)
(0.047045071 0.02390646 1.1011593e-19)
(0.052659283 0.022406437 5.5637195e-19)
(0.053320829 0.017894129 -2.7392943e-19)
(0.050834027 0.012850637 2.6758768e-19)
(0.04378481 0.0078852228 -1.2248148e-19)
(0.037553923 0.0044655447 -3.4881549e-19)
(0.027837143 0.001937601 -8.74457e-20)
(0.023436065 0.00076234217 8.1247492e-21)
(0.014713586 0.00012229291 2.7746741e-20)
(0.015462082 -7.0120186e-05 5.1752978e-21)
(0.0080769526 -3.5354038e-05 6.1700382e-21)
(0.027206108 8.4538961e-05 1.2069222e-21)
(0.021484364 7.098587e-05 -1.0384433e-21)
(0.033869873 -0.00023868148 -3.6825077e-22)
(0.027328359 -0.00082407538 -1.474611e-20)
(0.030077486 -0.0019874992 4.4192411e-20)
(0.018316658 -0.0020460701 -3.3266747e-20)
(0.012482766 -0.0021197625 2.0814542e-20)
(-0.0012841975 0.00044360191 -8.0184545e-20)
(-0.0066714011 0.0022974297 3.8518927e-20)
(-0.011288837 0.0048275997 8.3357134e-22)
(-0.0096230232 0.0048836802 8.3006599e-21)
(-0.0086619573 0.0050186742 -7.681015e-21)
(-0.0065253372 0.0041778382 -2.9944155e-20)
(-0.0057716063 0.0040042235 5.752942e-21)
(-0.004724903 0.0034838715 7.7674998e-21)
(-0.0044202625 0.0034213541 -3.1699578e-22)
(-0.0038884916 0.0031219104 1.3373997e-22)
(-0.0037375464 0.0030877508 -9.7318006e-22)
(-0.0034058915 0.0028700119 -4.4992975e-21)
(-0.0032634543 0.0027866395 4.9872954e-21)
(-0.0029987894 0.00257596 6.7010033e-21)
(-0.0028498743 0.0024479132 1.7486825e-21)
(-0.0026497987 0.0022604772 -5.3618992e-21)
(-0.0025472801 0.0021485207 1.4685123e-20)
(-0.0024430939 0.0020365948 -4.5350036e-22)
(-0.0023911781 0.0019716386 7.7095913e-21)
(-0.0023462506 0.0019148017 -7.0391682e-21)
(-0.0023447984 0.0018956717 -4.3415617e-21)
(-0.0023573651 0.0018893667 -1.9631227e-22)
(-0.0024109828 0.0019173634 -3.679401e-21)
(-0.0024850793 0.0019625668 1.1252698e-21)
(-0.0025979129 0.0020392953 7.8762801e-22)
(-0.0027349991 0.0021357835 2.2142183e-21)
(-0.0029059703 0.0022596284 -6.1268736e-23)
(-0.0030978474 0.0024006708 1.9677355e-21)
(-0.0033077332 0.0025568885 6.9041791e-22)
(-0.0035113687 0.002706188 2.4906949e-23)
(-0.0037125085 0.002844697 1.6993496e-23)
(-0.0039134348 0.002971993 5.2551549e-23)
(-0.00410991 0.0030832844 -1.8409871e-22)
(-0.0056446768 -4.7121007e-06 -1.4592475e-23)
(-0.0053527001 -4.6159581e-06 6.6974566e-24)
(-0.005066336 -4.5196375e-06 -2.7961581e-24)
(-0.0047860301 -4.4215708e-06 -5.1588737e-24)
(-0.0045114982 -4.3221514e-06 2.8362651e-24)
(-0.0042433384 -4.2207383e-06 1.0426943e-23)
(-0.0039811283 -4.1185226e-06 -1.1651501e-23)
(-0.0037256085 -4.0157893e-06 9.3962767e-24)
(-0.0034761338 -3.9134245e-06 4.1730058e-24)
(-0.0032336163 -3.810168e-06 -2.8895914e-24)
(-0.0029971526 -3.7062556e-06 -1.4954685e-23)
(-0.0027679953 -3.5999511e-06 1.92703e-23)
(-0.0025449091 -3.4929874e-06 -2.1153051e-23)
(-0.0023295947 -3.3834497e-06 1.7013967e-23)
(-0.0021202926 -3.2744732e-06 -1.9588121e-23)
(-0.0019192668 -3.1628555e-06 1.7194965e-23)
(-0.0017240249 -3.0522793e-06 1.7382155e-23)
(-0.0015376306 -2.9385856e-06 -3.2248535e-23)
(-0.0013566414 -2.8263469e-06 2.3726968e-23)
(-0.0011852115 -2.7110427e-06 -2.8907305e-23)
(-0.0010186616 -2.5974962e-06 3.3488141e-23)
(-0.00086259022 -2.4800432e-06 -2.6584547e-23)
(-0.00071068465 -2.3640477e-06 4.4322184e-24)
(-0.00057047143 -2.2429463e-06 2.7621779e-23)
(-0.0004334928 -2.1232674e-06 -1.6018124e-23)
(-0.00030982549 -1.9972709e-06 1.1009478e-23)
(-0.00018815043 -1.8723773e-06 -2.7181824e-23)
(-8.193716e-05 -1.7383628e-06 2.5427902e-23)
(2.3929732e-05 -1.6046553e-06 -3.4638099e-23)
(0.00011139866 -1.4580677e-06 2.9474853e-23)
(0.00020069561 -1.3111553e-06 -2.7645398e-23)
(0.00026755877 -1.145883e-06 2.1180091e-23)
(0.0003391472 -9.8039526e-07 -1.9314676e-23)
(0.00038277905 -7.8939433e-07 7.3348915e-24)
(0.00043502863 -5.9829272e-07 1.8720512e-23)
(0.00045182238 -3.7043002e-07 -2.8133183e-23)
(0.00048234201 -1.3996116e-07 3.5692315e-23)
(0.00046702062 1.4502042e-07 -2.3576442e-23)
(0.00047187831 4.3097523e-07 1.1489061e-23)
(0.00041718379 7.9955028e-07 -3.3374409e-24)
(0.00039043773 1.1713408e-06 -6.1225368e-24)
(0.0002853634 1.6844451e-06 -1.708869e-23)
(0.00021510448 2.2116244e-06 1.9126683e-23)
(4.0165594e-05 3.0056649e-06 2.199598e-23)
(-0.00010072616 4.0851771e-06 -2.8132482e-23)
(-0.00041282544 1.8739163e-07 -4.2122432e-20)
(-0.00063417351 -3.0337781e-05 -2.8093391e-19)
(-0.00069258124 -6.3131327e-05 -2.6738579e-20)
(-0.00078030537 -0.0001043897 -2.212659e-19)
(-0.00074720869 -0.00013118682 -3.9450694e-19)
(-0.00074924844 -0.00016258582 -8.5349359e-19)
(-0.00065760846 -0.00016994512 -9.829093e-20)
(-0.00058773456 -0.0001762459 1.0692818e-18)
(-0.00044374248 -0.00015225178 -1.3961189e-19)
(-0.00030697435 -0.0001197779 -1.6579367e-19)
(-0.0001108258 -5.2655919e-05 -8.7532866e-19)
(9.0551071e-05 3.1358646e-05 -5.9443064e-19)
(0.00034192788 0.00015408635 -1.0354379e-18)
(0.00061041166 0.0003034692 -4.5568935e-19)
(0.00092770849 0.0004982743 -4.628138e-19)
(0.0012800903 0.0007342983 -8.0338129e-19)
(0.0016994363 0.0010307584 -1.2196544e-18)
(0.0021560203 0.0013704736 -3.3284317e-20)
(0.0026678059 0.0017645964 1.6867942e-18)
(0.0032161055 0.0022000187 4.7987644e-19)
(0.0038150277 0.0026851945 -5.9274057e-19)
(0.0044507365 0.0032084646 2.0753973e-18)
(0.0051342688 0.003775224 -1.6487043e-19)
(0.0058525678 0.0043727492 2.5035484e-20)
(0.0066133264 0.0050031056 -1.0611655e-18)
(0.0074010542 0.0056501944 9.3037248e-19)
(0.0082167744 0.0063099742 -4.5015703e-19)
(0.0090255145 0.0069524095 -4.0014076e-19)
(0.0097906768 0.0075616368 -7.0189963e-19)
(0.010532196 0.0081631501 7.7966019e-19)
(0.011259533 0.0087661915 3.2400381e-20)
(0.011967283 0.0093675628 -1.1463115e-18)
(0.012666022 0.009976961 3.8299295e-20)
(0.013238869 0.010501871 -9.7367014e-19)
(0.013839799 0.011063713 -4.6659244e-19)
(0.014513847 0.011703418 -1.2791719e-18)
(0.015270937 0.012431466 1.1439693e-18)
(0.016134731 0.013271072 2.5591504e-19)
(0.017097736 0.01421965 -9.0896288e-19)
(0.018235536 0.015344678 7.6672914e-21)
(0.019601279 0.016683994 -4.4087405e-19)
(0.021438795 0.018372796 -3.2721763e-21)
(0.023494478 0.02013817 -3.6017215e-19)
(0.026001303 0.022149026 -2.6099043e-19)
(0.028738436 0.024162743 1.9221493e-19)
(0.032123566 0.026472173 3.3865884e-19)
(0.035816734 0.028698046 -3.1080836e-19)
(0.040539002 0.031312155 1.2814347e-20)
(0.045738453 0.033689734 3.5254716e-21)
(0.052584286 0.036449624 -6.9261415e-20)
(0.059914887 0.038397821 2.7508006e-19)
(0.069484667 0.040270397 -1.18682e-19)
(0.07840337 0.039809295 -4.3256887e-19)
(0.087673371 0.037281331 -4.5791952e-19)
(0.088961422 0.029866432 -2.265168e-19)
(0.085069714 0.021538994 -5.5237969e-19)
(0.073721221 0.013327276 3.6335897e-19)
(0.06345866 0.00760237 1.2251205e-19)
(0.047522848 0.0033627837 2.1073445e-19)
(0.040020268 0.0013508374 -7.7707415e-21)
(0.025640404 0.00024536597 1.3469071e-20)
(0.026549063 -9.6016343e-05 1.6242068e-21)
(0.014604606 -6.2959103e-05 8.5333683e-21)
(0.038820312 9.7615645e-05 8.3615539e-22)
(0.031340865 8.0439658e-05 -1.821921e-21)
(0.047978126 -0.000355692 -5.2708442e-21)
(0.039235042 -0.0011719669 -8.8745384e-21)
(0.042762219 -0.0027913408 -1.7913939e-20)
(0.02664071 -0.0029197679 -9.8530439e-21)
(0.018280538 -0.0030363916 -2.3016678e-20)
(-0.00098239226 0.00048426402 5.0934603e-20)
(-0.0089381743 0.0031213015 -1.2014579e-19)
(-0.015667815 0.0067087722 7.734574e-21)
(-0.013509374 0.0068436476 -3.8993066e-21)
(-0.012197573 0.0070498744 1.2367299e-20)
(-0.0092291381 0.0058942067 1.5157615e-20)
(-0.0081615508 0.0056507118 -3.4418017e-21)
(-0.0066946539 0.0049277609 -4.4039011e-21)
(-0.0062581294 0.0048369327 1.0220231e-21)
(-0.0055115081 0.0044194774 9.9020277e-22)
(-0.0052942943 0.004368805 -2.4606197e-21)
(-0.0048285799 0.0040643325 2.7220371e-21)
(-0.0046255911 0.0039453056 7.6046222e-22)
(-0.0042539482 0.0036500003 -8.6278923e-21)
(-0.0040430585 0.003468918 -1.3678256e-21)
(-0.0037620919 0.0032059785 2.1941338e-21)
(-0.0036170969 0.003048037 2.7389358e-21)
(-0.0034709584 0.0028910559 3.9800888e-21)
(-0.0033980591 0.0027998613 -2.1681924e-20)
(-0.0033357104 0.0027207161 5.7764741e-21)
(-0.0033344122 0.0026944955 2.8928159e-21)
(-0.0033533725 0.0026868011 9.3381996e-22)
(-0.0034300219 0.0027273121 5.2624741e-21)
(-0.0035358943 0.002792386 -6.0558534e-21)
(-0.0036962063 0.0029017605 3.2130606e-21)
(-0.0038908716 0.003039127 -3.4121604e-21)
(-0.0041330675 0.0032148414 2.6560772e-22)
(-0.0044046853 0.0034147004 -1.8927146e-21)
(-0.0047014662 0.003635613 -5.3511665e-22)
(-0.0049896481 0.0038468061 1.234186e-22)
(-0.0052742342 0.0040426671 2.9363498e-22)
(-0.005558407 0.004222509 -1.2309438e-22)
(-0.0058362861 0.0043796303 -7.7557446e-23)
(-0.007860819 -9.9296807e-06 -1.0091882e-23)
(-0.0074493773 -9.732493e-06 8.9618133e-24)
(-0.0070458935 -9.5332303e-06 -1.4123995e-26)
(-0.0066509869 -9.3303173e-06 -1.680824e-23)
(-0.0062642712 -9.1236618e-06 1.4848941e-23)
(-0.0058865677 -8.913017e-06 -6.0229551e-24)
(-0.0055172968 -8.6994333e-06 9.3075125e-24)
(-0.0051574768 -8.4837898e-06 -8.8647043e-24)
(-0.0048062254 -8.2670085e-06 6.8536767e-24)
(-0.0044648052 -8.0484648e-06 -2.4507843e-23)
(-0.0041319766 -7.8272388e-06 3.8478636e-23)
(-0.0038094674 -7.6020592e-06 -4.06517e-23)
(-0.003495575 -7.3739272e-06 5.0989104e-24)
(-0.0031926459 -7.1417533e-06 2.1271201e-23)
(-0.0028982519 -6.9078499e-06 -7.4488853e-24)
(-0.0026155213 -6.6706815e-06 5.3013058e-24)
(-0.0023410097 -6.4326972e-06 -2.5546939e-23)
(-0.0020789535 -6.1915514e-06 2.1490248e-23)
(-0.0018245911 -5.9492337e-06 2.1712683e-23)
(-0.001583668 -5.7043176e-06 -2.5854519e-23)
(-0.0013497132 -5.4578635e-06 7.5407399e-24)
(-0.0011304729 -5.2084997e-06 -6.3746777e-26)
(-0.0009172189 -4.9558365e-06 -4.1053063e-24)
(-0.00072036026 -4.6996496e-06 5.5171376e-24)
(-0.00052820785 -4.4381384e-06 -7.6077107e-24)
(-0.00035469198 -4.1724572e-06 2.4576373e-23)
(-0.00018417988 -3.8988677e-06 -2.6937151e-23)
(-3.5282382e-05 -3.6193136e-06 3.6473565e-24)
(0.00011286236 -3.3272925e-06 -8.8643951e-26)
(0.00023532935 -3.0259674e-06 -2.2882348e-24)
(0.00036001824 -2.7066099e-06 2.5067047e-23)
(0.00045344301 -2.3733668e-06 -2.7239305e-23)
(0.00055305155 -2.0155482e-06 2.1035843e-23)
(0.00061374992 -1.637806e-06 -1.765284e-23)
(0.00068595301 -1.2268082e-06 -9.3542488e-26)
(0.00070885703 -7.851883e-07 2.3507994e-23)
(0.00075024824 -2.9400535e-07 -2.7714962e-23)
(0.00072795821 2.4743202e-07 2.3396944e-23)
(0.00073297306 8.505237e-07 -2.5875875e-23)
(0.00065528342 1.5390004e-06 2.3769922e-23)
(0.00061550275 2.3148516e-06 5.6536465e-24)
(0.00046694165 3.2669039e-06 -1.0075543e-23)
(0.00036560601 4.3568965e-06 5.912601e-24)
(0.00011880518 5.8452139e-06 -2.6206443e-23)
(-8.2184433e-05 8.0625089e-06 -3.9223235e-23)
(-0.00052066509 3.7343712e-06 2.0493323e-20)
(-0.0008319895 -3.8056214e-05 7.4173109e-20)
(-0.00091566072 -8.2401345e-05 9.7110092e-20)
(-0.0010383378 -0.0001382993 1.4615377e-19)
(-0.00099261766 -0.00017402235 2.5554039e-19)
(-0.00099451152 -0.00021580036 4.5887696e-19)
(-0.00086577953 -0.00022409248 -6.7125601e-19)
(-0.00076637381 -0.00023045445 -6.5787854e-19)
(-0.00056351586 -0.00019451295 8.0944874e-20)
(-0.0003699005 -0.00014623981 3.3898321e-19)
(-9.3243721e-05 -4.9488829e-05 1.1946222e-19)
(0.00019148473 7.1359485e-05 2.0391109e-19)
(0.00054633793 0.00024645689 -7.1622379e-19)
(0.00092586173 0.00045930878 8.5984114e-19)
(0.0013740074 0.00073588924 1.7375362e-18)
(0.001872004 0.0010705556 -8.688336e-19)
(0.0024636559 0.0014897673 2.3107828e-18)
(0.0031078358 0.0019698821 1.0376389e-18)
(0.0038293068 0.0025261547 -9.3597369e-19)
(0.0046022329 0.0031405487 1.0558915e-18)
(0.0054461282 0.0038245669 5.8171026e-19)
(0.0063419371 0.0045621546 -9.1623579e-19)
(0.0073047957 0.0053605609 4.1334981e-19)
(0.0083167049 0.0062022279 1.3822163e-18)
(0.0093880795 0.0070897607 2.0596919e-18)
(0.010497461 0.0080008926 -1.0930294e-18)
(0.011645819 0.0089296566 1.0549178e-18)
(0.012784577 0.0098345499 -4.7388043e-22)
(0.013863423 0.010693949 -1.4581399e-19)
(0.014909629 0.011542824 -2.9803679e-19)
(0.01593606 0.012393998 3.8819093e-19)
(0.016935202 0.013243245 7.573591e-19)
(0.017918347 0.014102319 1.2452177e-19)
(0.018719018 0.014838371 1.1659542e-18)
(0.019563045 0.015628484 4.7247985e-19)
(0.02051214 0.016529282 -5.6313589e-19)
(0.021578912 0.017554714 -4.083443e-19)
(0.022795077 0.018736274 9.4385287e-19)
(0.024151176 0.020071131 7.5724573e-19)
(0.025751764 0.021652155 6.6958441e-19)
(0.027673049 0.023533129 3.6781595e-19)
(0.030247995 0.025895937 -1.0382513e-19)
(0.033132954 0.028369803 3.7608457e-19)
(0.036644432 0.031180679 -4.2676286e-19)
(0.040485023 0.03400029 -2.9792601e-19)
(0.045220968 0.037220558 -6.6014697e-20)
(0.050398217 0.040331052 5.8864293e-19)
(0.056994113 0.043962583 -1.6072992e-19)
(0.064272536 0.047274126 -1.7363306e-20)
(0.07380999 0.051082463 5.7210807e-20)
(0.084062431 0.053784167 1.0785962e-19)
(0.097365338 0.05632794 -1.0835031e-19)
(0.10982314 0.055667977 4.0674658e-19)
(0.1226624 0.052090828 5.2304736e-19)
(0.12473138 0.041867892 3.5655274e-19)
(0.1196218 0.030327862 -2.4553488e-19)
(0.10430627 0.018928415 -5.2160606e-19)
(0.090092063 0.010879359 -1.2754415e-19)
(0.068173455 0.0049056341 -2.2774899e-19)
(0.057403786 0.0020114103 -4.8128016e-20)
(0.037535324 0.00040560913 -1.1444316e-20)
(0.038276942 -0.00010228642 3.9153668e-22)
(0.022023542 -9.4188388e-05 -1.5523779e-20)
(0.050928309 9.9767261e-05 -5.8055499e-22)
(0.041950008 8.0036446e-05 2.5574995e-21)
(0.06242497 -0.00048554246 8.3519439e-21)
(0.051754733 -0.0015310507 9.7440881e-23)
(0.055845507 -0.0036018501 1.8173189e-20)
(0.035590473 -0.0038280469 5.5854876e-20)
(0.024579831 -0.0039961828 2.680017e-21)
(-0.00015397775 0.00044012625 -3.3186804e-20)
(-0.010940203 0.0038856987 -2.3535537e-21)
(-0.019948258 0.0085586305 -7.0423949e-21)
(-0.017411209 0.0088065208 -1.0753859e-20)
(-0.015770137 0.0090947405 -5.8504902e-21)
(-0.01198723 0.0076375733 -1.2106666e-20)
(-0.010598034 0.0073241874 -3.7859161e-21)
(-0.0087113636 0.0064021532 -7.3345294e-23)
(-0.008136488 0.0062810984 1.5329485e-22)
(-0.0071744039 0.0057467578 -1.7275008e-21)
(-0.0068870522 0.00567788 6.0190183e-22)
(-0.0062868302 0.0052869115 -8.8594119e-22)
(-0.0060209805 0.0051308477 -6.2991096e-21)
(-0.005541967 0.0047507181 -4.8923577e-22)
(-0.0052676157 0.0045155194 -7.4464839e-21)
(-0.004905449 0.0041767779 4.4148141e-21)
(-0.004717121 0.0039721483 -1.0228395e-20)
(-0.0045289956 0.0037699563 -3.9671923e-21)
(-0.0044350367 0.0036523885 1.8934521e-20)
(-0.0043557064 0.0035512155 3.1688152e-21)
(-0.0043550535 0.0035182666 4.9523241e-21)
(-0.004381318 0.0035098974 7.7657357e-22)
(-0.0044820054 0.0035637391 2.0147599e-21)
(-0.004621021 0.0036497868 -5.9814458e-21)
(-0.0048302706 0.0037930107 -2.1055037e-21)
(-0.0050842283 0.0039726561 2.6661054e-21)
(-0.0053993879 0.0042016682 -4.0766977e-22)
(-0.0057525792 0.0044618082 4.8947714e-22)
(-0.0061380274 0.0047487576 6.3924741e-22)
(-0.0065126249 0.0050231607 1.7612253e-24)
(-0.0068824617 0.0052775492 -4.0174634e-22)
(-0.0072516107 0.0055109174 -4.3953986e-22)
(-0.0076125881 0.0057146565 4.2708342e-22)
(-0.010046995 -1.7140113e-05 -1.4183512e-23)
(-0.0095145657 -1.6801843e-05 1.4291474e-23)
(-0.0089925024 -1.6458891e-05 -4.9172131e-24)
(-0.0084815905 -1.6109744e-05 -4.9937292e-24)
(-0.0079813496 -1.5753747e-05 6.0106662e-24)
(-0.0074928156 -1.5391127e-05 -5.060275e-24)
(-0.0070152628 -1.5022185e-05 8.634792e-24)
(-0.0065499757 -1.464954e-05 6.2058762e-24)
(-0.0060958478 -1.4273436e-05 -2.8332937e-23)
(-0.0056544775 -1.3894356e-05 1.8062258e-23)
(-0.0052243046 -1.3509685e-05 -2.0221554e-23)
(-0.0048075148 -1.311923e-05 6.6761785e-24)
(-0.0044019574 -1.2721979e-05 1.843382e-23)
(-0.0040106024 -1.2319359e-05 -3.1289183e-24)
(-0.0036303763 -1.1911673e-05 -1.7633196e-23)
(-0.0032652427 -1.1500522e-05 6.8688688e-24)
(-0.002910837 -1.108486e-05 1.8883092e-23)
(-0.0025725298 -1.0667103e-05 -2.0989872e-23)
(-0.002244284 -1.0243718e-05 1.9070658e-23)
(-0.0019333861 -9.8194667e-06 -3.0194617e-23)
(-0.001631632 -9.3876823e-06 1.9207603e-23)
(-0.0013488465 -8.9558739e-06 1.6219402e-23)
(-0.0010739668 -8.5126075e-06 -6.0356074e-26)
(-0.00082018975 -8.0696417e-06 -3.074573e-23)
(-0.00057270746 -7.6101409e-06 1.9592003e-23)
(-0.0003491716 -7.1519331e-06 1.6532376e-23)
(-0.00012979266 -6.6707462e-06 -1.8616495e-23)
(6.1861169e-05 -6.1905612e-06 1.0611701e-23)
(0.00025217869 -5.6768589e-06 -3.3529779e-24)
(0.0004096196 -5.1630339e-06 -1.1351368e-23)
(0.00056945146 -4.6020369e-06 -1.9006042e-23)
(0.00068931682 -4.0386851e-06 -3.5194876e-24)
(0.0008165337 -3.4106458e-06 2.0199275e-23)
(0.00089407985 -2.7777924e-06 -1.1568629e-23)
(0.00098563845 -2.0573024e-06 2.0372671e-23)