y,R_0,R_1,R_2,R_3,R_4,R_5
0,6.6666667e-11,0,0,6.6666667e-11,0,6.6666667e-11
0.00086769924,1.7198334e-05,3.1800923e-08,-1.4622392e-23,1.7198317e-05,-9.593615e-27,1.7198329e-05
0.0017874829,7.9422303e-06,4.5069644e-08,2.1288601e-24,7.9422007e-06,1.2090286e-27,7.9422214e-06
0.0027624773,3.9172049e-06,4.8815931e-08,1.6771147e-23,3.9172055e-06,1.1002852e-26,3.9172082e-06
0.0037959966,2.2341606e-06,4.9210522e-08,-5.5376688e-25,2.2342246e-06,-7.4302983e-27,2.234196e-06
0.0048915537,1.4926992e-06,4.7799081e-08,5.8247786e-25,1.4928664e-06,8.7308924e-27,1.4927868e-06
0.0060528726,1.1067237e-06,4.4164092e-08,2.9888801e-23,1.1070197e-06,-5.0169116e-26,1.106876e-06
0.0072839007,8.4796697e-07,3.4187549e-08,-9.9553373e-24,8.4834292e-07,-1.0698549e-25,8.4815885e-07
0.0085888223,6.3689888e-07,2.0377858e-08,-2.7982219e-23,6.3724057e-07,1.695564e-27,6.3707247e-07
0.0099720729,4.52793e-07,1.018954e-08,1.0614065e-23,4.5303097e-07,4.1900966e-26,4.5291358e-07
0.011438354,2.9695338e-07,4.3073137e-09,-4.7141219e-24,2.9708681e-07,-3.0727347e-26,2.9702087e-07
0.01299265,1.7786792e-07,1.4968192e-09,-3.2748901e-24,1.7792752e-07,-2.1468102e-26,1.7789802e-07
0.014640245,1.0328298e-07,4.62892e-10,1.4490152e-24,1.0330652e-07,9.5112697e-27,1.0329485e-07
0.016386737,7.3828676e-08,2.0132384e-10,1.524103e-27,7.3842068e-08,3.8791583e-29,7.3835425e-08
0.018238064,8.4749755e-08,2.3881388e-10,1.4714967e-24,8.4770679e-08,1.1332023e-27,8.4760291e-08
0.020200518,1.368233e-07,5.6235487e-10,-2.9909585e-24,1.3688725e-07,-2.5015682e-27,1.3685549e-07
0.022280771,2.4137587e-07,1.5024621e-09,-7.2916407e-24,2.4159909e-07,3.825818e-26,2.4148821e-07
0.024485892,4.1666781e-07,3.7081827e-09,4.5094659e-24,4.1740412e-07,-8.6411401e-26,4.170384e-07
0.026823378,6.8478729e-07,8.020128e-09,-3.1403324e-23,6.8700118e-07,-7.7629135e-25,6.8590171e-07
0.029301173,1.0706885e-06,1.4914166e-08,-1.6920394e-22,1.0767963e-06,-1.5110343e-24,1.0737636e-06
0.0319277,1.6009746e-06,2.2983517e-08,9.0911915e-22,1.616654e-06,1.1324045e-23,1.6088695e-06
0.034711887,2.3037326e-06,2.3602256e-08,1.0738124e-22,2.33699e-06,7.9722835e-25,2.3204772e-06
0.037663197,3.2058165e-06,5.7495449e-09,-9.267026e-22,3.2668091e-06,-1.12959e-23,3.2365232e-06
0.040791661,4.3276949e-06,-3.9252724e-08,-1.4992849e-26,4.4330361e-06,-2.5517037e-27,4.3807244e-06
0.044107915,5.6801932e-06,-1.2309283e-07,-4.0807001e-26,5.8569805e-06,-9.8311797e-28,5.7691723e-06
0.047623229,7.262029e-06,-2.6218766e-07,1.4700544e-20,7.5544772e-06,3.9598254e-22,7.4091782e-06
0.051349553,9.0571847e-06,-4.824097e-07,-8.0857834e-21,9.5417355e-06,-2.0682357e-22,9.3008984e-06
0.055299553,1.1034845e-05,-8.3001635e-07,5.888298e-21,1.1850848e-05,2.8430515e-22,1.1445088e-05
0.059486654,1.3149088e-05,-1.3850538e-06,-1.9980557e-20,1.4555489e-05,-6.3969742e-22,1.3855828e-05
0.06392509,1.5340526e-05,-2.2677785e-06,-4.8360147e-20,1.780547e-05,-1.5190219e-21,1.6578661e-05
0.068629948,1.7540344e-05,-3.6178087e-06,1.6834272e-25,2.184618e-05,1.7863211e-25,1.9702279e-05
0.073617218,1.9687568e-05,-5.5314507e-06,-1.5272606e-26,2.698505e-05,1.3381222e-25,2.3350324e-05
0.078903853,2.1760541e-05,-7.9674419e-06,1.3682814e-20,3.3459417e-05,1.2022287e-21,2.7630717e-05
0.084507823,2.3806713e-05,-1.0689014e-05,-6.4177538e-21,4.1236588e-05,-5.5893901e-22,3.2550368e-05
0.090448176,2.5923008e-05,-1.3301001e-05,-2.1845995e-20,4.9851687e-05,-1.9145755e-21,3.7923802e-05
0.096745104,2.8160237e-05,-1.5398049e-05,1.7166851e-19,5.8427463e-05,1.3731688e-20,4.3336014e-05
0.10342001,3.0408547e-05,-1.6702531e-05,-1.7578871e-20,6.5852579e-05,-1.4069323e-21,4.8174978e-05
0.11049558,3.2362026e-05,-1.7120287e-05,-1.9112247e-19,7.1027093e-05,-1.5342498e-20,5.1737599e-05
0.11799587,3.359035e-05,-1.6704489e-05,-6.2713659e-19,7.3078274e-05,-5.3658852e-20,5.3372914e-05
0.12594638,3.3676047e-05,-1.5575343e-05,-6.7017511e-20,7.150611e-05,-5.5839098e-21,5.2623359e-05
0.13437411,3.2337053e-05,-1.3860248e-05,5.5721565e-19,6.624615e-05,4.7982257e-20,4.9318993e-05
0.14330773,2.9862237e-05,-1.1341305e-05,9.0068582e-24,5.7308944e-05,-1.3771076e-24,4.3607575e-05
0.1527776,2.6685869e-05,-7.8400357e-06,5.5404714e-24,4.5145952e-05,2.1523641e-24,3.5928905e-05
0.1628159,2.2060964e-05,-4.3420973e-06,1.328818e-20,3.1850731e-05,1.3972054e-21,2.6961674e-05
0.17345677,1.5762364e-05,-1.9081421e-06,1.2940182e-20,1.9857781e-05,1.3925382e-21,1.7812754e-05
0.18473635,9.3799305e-06,-6.2074339e-07,-9.4799651e-22,1.0646143e-05,-7.3240214e-23,1.0014007e-05
0.19669301,4.5271369e-06,-1.4211847e-07,-1.4033908e-21,4.8023253e-06,-1.9861444e-22,4.6649612e-06
0.20936737,1.7285843e-06,-2.1836624e-08,-5.8767007e-22,1.7686191e-06,-1.0327079e-22,1.7486396e-06
0.22280253,5.0969062e-07,-2.1073498e-09,6.2450174e-23,5.1333007e-07,1.1126909e-23,5.115145e-07
0.23704414,1.2349553e-07,-1.3134317e-10,-3.5049415e-29,1.2370641e-07,2.2889422e-29,1.2360127e-07
0.25214061,3.2409412e-08,-8.9673968e-12,3.75772e-30,3.2422497e-08,1.6036489e-31,3.2415976e-08
0.26814327,1.0020862e-08,-8.8675712e-13,2.0979661e-31,1.0022027e-08,2.6683404e-31,1.0021447e-08
0.28510649,3.3511181e-09,-1.0268518e-13,-9.1824618e-29,3.3512383e-09,-2.4208861e-29,3.3511784e-09
0.30308795,1.2661766e-09,-1.4953091e-14,-7.4843543e-29,1.2661919e-09,-1.9794284e-29,1.2661843e-09
0.32214876,5.5944193e-10,-3.0449143e-15,1.6472058e-29,5.5944465e-10,4.3326841e-30,5.594433e-10
0.34235371,2.8182677e-10,-8.3926931e-16,-1.1613676e-34,2.8182742e-10,-6.2228256e-37,2.818271e-10
0.36377149,1.5524886e-10,-2.867939e-16,7.067468e-35,1.5524905e-10,6.9951251e-35,1.5524896e-10
0.38647488,9.0513811e-11,-1.1303536e-16,-2.7110347e-31,9.0513875e-11,-1.6385058e-31,9.0513845e-11
0.41054106,5.4658596e-11,-4.8936944e-17,-1.6672091e-31,5.4658619e-11,-1.0100861e-31,5.4658608e-11
0.43605183,3.3708453e-11,-2.2477166e-17,1.0295156e-31,3.3708461e-11,5.7973668e-32,3.3708457e-11
0.46309391,2.1025414e-11,-1.0628297e-17,-1.0921825e-32,2.1025417e-11,-1.4751827e-32,2.1025415e-11
0.49175922,1.3165011e-11,-5.0099448e-18,2.3447914e-33,1.3165012e-11,5.0998793e-35,1.3165011e-11
0.52214518,8.2165036e-12,-2.2664859e-18,2.0331388e-33,8.216504e-12,3.6625366e-33,8.2165039e-12
0.55435509,5.0693689e-12,-9.4786443e-19,2.0851671e-34,5.0693691e-12,-3.5310764e-34,5.069369e-12
0.58849842,3.0594387e-12,-3.6150059e-19,1.2996208e-34,3.0594387e-12,-1.8452192e-34,3.0594387e-12
0.62469124,1.781417e-12,-1.2640605e-19,-9.2545808e-35,1.781417e-12,1.2036983e-34,1.781417e-12
0.66305656,9.833107e-13,-3.9224735e-20,-1.7550424e-35,9.833107e-13,1.0630358e-35,9.833107e-13
0.70372479,5.0389686e-13,-1.0345867e-20,5.0687808e-36,5.0389686e-13,-3.0691142e-36,5.0389686e-13
0.74683417,2.3392776e-13,-2.2001543e-21,-2.7895998e-39,2.3392776e-13,1.474577e-39,2.3392776e-13
0.79253123,9.32659e-14,-3.5081719e-22,-1.8331715e-40,9.32659e-14,2.5765164e-40,9.32659e-14
0.84097128,2.8064188e-14,-3.4427155e-23,3.8651366e-41,2.8064188e-14,-1.2501135e-41,2.8064188e-14
0.87299488,1.4696331e-14,-1.4071535e-23,1.3810232e-41,1.4696331e-14,-4.951014e-42,1.4696331e-14
0.89232374,6.591195e-15,-1.4955274e-24,-8.6926338e-44,6.591195e-15,-7.1759746e-43,6.591195e-15
0.94676656,2.5916393e-15,-9.6239498e-26,-3.1770287e-40,2.5916393e-15,5.7776581e-41,2.5916393e-15
1.0044767,1.9195674e-15,-2.6717619e-26,-1.3411601e-40,1.9195674e-15,2.3695989e-41,1.9195674e-15
1.06565,1.7891857e-15,-1.6125574e-26,2.0555181e-40,1.7891857e-15,-3.7359742e-41,1.7891857e-15
1.1304945,1.7349442e-15,-1.0954716e-26,-1.4536835e-41,1.7349442e-15,3.5183243e-42,1.7349442e-15
1.1992303,1.6949679e-15,-7.6322219e-27,5.4446171e-41,1.6949679e-15,-6.5582607e-42,1.6949679e-15
1.2720909,1.6592118e-15,-5.2943181e-27,1.3272096e-41,1.6592118e-15,-1.6052909e-42,1.6592118e-15
1.3493237,1.6232899e-15,-3.5957571e-27,-4.8438071e-41,1.6232899e-15,5.8643868e-42,1.6232899e-15
1.4311909,1.5794703e-15,-2.3825468e-27,8.5576442e-45,1.5794703e-15,-6.4258832e-46,1.5794703e-15
1.5179707,1.5200167e-15,-1.5824383e-27,4.9751486e-44,1.5200167e-15,-3.8183644e-45,1.5200167e-15
1.6047488,1.4496811e-15,-1.1311148e-27,1.6072192e-44,1.4496811e-15,-1.1395964e-45,1.4496811e-15
1.6866113,1.3806967e-15,-9.249667e-28,4.2787383e-44,1.3806967e-15,-1.9817382e-45,1.3806967e-15
1.7437929,1.3369701e-15,-8.7488731e-28,3.5225414e-41,1.3369701e-15,-1.6377702e-42,1.3369701e-15
1.7638596,1.3215855e-15,-8.5772377e-28,4.6439663e-41,1.3215855e-15,-2.1591464e-42,1.3215855e-15
1.8367875,1.2761204e-15,-8.4148796e-28,-9.0076465e-42,1.2761204e-15,4.1172003e-43,1.2761204e-15
1.9055761,1.2429558e-15,-8.1253035e-28,-4.6752992e-41,1.2429558e-15,2.1668012e-42,1.2429558e-15
1.9704609,1.2193299e-15,-7.4936889e-28,-6.2384458e-41,1.2193299e-15,2.1780418e-42,1.2193299e-15
2.0316638,1.2024734e-15,-6.6071307e-28,-1.4942583e-43,1.2024734e-15,5.1294956e-45,1.2024734e-15
2.0893941,1.1903091e-15,-5.6490082e-28,5.6893243e-41,1.1903091e-15,-1.9887337e-42,1.1903091e-15
2.1438492,1.1817672e-15,-4.7577676e-28,5.0498243e-41,1.1817672e-15,-1.3559391e-42,1.1817672e-15
2.1952152,1.1752103e-15,-3.9925681e-28,4.6260587e-41,1.1752103e-15,-1.1439296e-42,1.1752103e-15
2.2436676,1.170134e-15,-3.3720701e-28,-5.0464057e-41,1.170134e-15,1.3514954e-42,1.170134e-15
2.289372,1.1669709e-15,-2.8965613e-28,-4.6530349e-41,1.1669709e-15,1.1552749e-42,1.1669709e-15
2.3324844,1.1652507e-15,-2.5452071e-28,1.4048734e-44,1.1652507e-15,-3.2335026e-46,1.1652507e-15
2.3731519,1.1650468e-15,-2.2948361e-28,2.3208759e-44,1.1650468e-15,-4.8576865e-46,1.1650468e-15
2.4115135,1.1665893e-15,-2.1245239e-28,2.1857691e-44,1.1665893e-15,-3.8119753e-46,1.1665893e-15
2.4477001,1.1703003e-15,-2.017615e-28,-7.1410895e-41,1.1703003e-15,1.1904658e-42,1.1703003e-15
2.481835,1.1768949e-15,-1.962339e-28,-1.7973754e-42,1.1768949e-15,3.0193828e-44,1.1768949e-15
2.5140348,1.1875639e-15,-1.9512729e-28,7.5640339e-41,1.1875639e-15,-1.260734e-42,1.1875639e-15
2.5444093,1.2042856e-15,-1.9813709e-28,-6.6400649e-45,1.2042856e-15,1.0591714e-46,1.2042856e-15
2.573062,1.230372e-15,-2.0547952e-28,-1.0347086e-44,1.230372e-15,1.9008618e-46,1.230372e-15
2.5828764,1.2453428e-15,-2.1009432e-28,-8.6512924e-45,1.2453428e-15,1.4755676e-46,1.2453428e-15
2.6000986,1.271725e-15,-2.1827534e-28,1.4056067e-42,1.271725e-15,-1.7484038e-44,1.271725e-15
2.6256058,1.3430778e-15,-2.4067533e-28,-4.7065463e-43,1.3430778e-15,5.8419758e-45,1.3430778e-15
2.6496662,1.6098669e-15,-3.4123378e-28,2.4522174e-40,1.6098669e-15,-2.7570567e-42,1.6098669e-15
2.6723619,7.2166265e-15,-9.6789637e-27,-1.1980506e-38,7.2166265e-15,1.350387e-40,7.2166265e-15
2.6937705,1.3306132e-13,-3.3794034e-24,3.4277687e-36,1.3306132e-13,-3.4999905e-38,1.3306132e-13
2.713965,8.0158419e-13,-7.8862237e-23,-3.8223925e-35,8.0158419e-13,4.137006e-37,8.0158419e-13
2.7330143,2.7166024e-12,-5.0189132e-22,-1.3757267e-33,2.7166024e-12,1.3202825e-35,2.7166024e-12
2.7509836,6.6823731e-12,-7.8347228e-22,3.8914566e-33,6.6823731e-12,-3.5489931e-35,6.6823731e-12
2.7679341,1.37854e-11,7.4138776e-21,1.3857561e-32,1.37854e-11,-1.2160033e-34,1.37854e-11
2.7839236,2.5873897e-11,7.116115e-20,-3.6353612e-32,2.5873897e-11,3.1328304e-34,2.5873897e-11
2.7990067,4.6244278e-11,3.9797296e-19,-4.2686313e-32,4.6244278e-11,3.6727728e-34,4.6244278e-11
2.8132348,8.1120365e-11,1.8464945e-18,-1.210137e-30,8.1120364e-11,9.2233318e-33,8.1120364e-11
2.8266564,1.4299916e-10,8.0642822e-18,8.5540957e-30,1.4299916e-10,-6.2303024e-32,1.4299916e-10
2.8393174,2.5893225e-10,3.6016857e-17,-1.0827079e-29,2.5893223e-10,7.512989e-32,2.5893224e-10
2.8512607,4.9211156e-10,1.7596163e-16,-2.0786968e-29,4.9211149e-10,1.479252e-31,4.9211152e-10
2.8625272,1.003031e-09,9.9767088e-16,-1.3037501e-29,1.0030307e-09,1.1015121e-31,1.0030308e-09
2.8731552,2.2406707e-09,6.9129648e-15,-6.9172398e-28,2.2406689e-09,4.0115769e-30,2.2406698e-09
2.8831809,5.6403579e-09,6.2061358e-14,4.7089543e-27,5.6403452e-09,-2.8484523e-29,5.6403515e-09
2.8926385,1.7249659e-08,8.4777771e-13,-1.817134e-25,1.7249522e-08,1.00474e-27,1.724959e-08
2.9015602,8.0121475e-08,2.8657624e-11,7.6640065e-24,8.0117731e-08,-4.1705285e-26,8.0119602e-08
2.9099764,4.9508656e-07,1.5898936e-09,9.5492937e-23,4.949159e-07,-4.4258898e-25,4.9500127e-07
2.9179158,2.2013945e-06,3.6908115e-08,-1.1689653e-21,2.1980674e-06,5.9805102e-24,2.1997321e-06
2.9254053,6.6223274e-06,3.7958171e-07,-1.7251974e-21,6.5930449e-06,1.3392549e-23,6.6076984e-06
2.9324705,1.4775969e-05,2.1987191e-06,-5.091077e-20,1.4628462e-05,2.3084623e-22,1.470227e-05
2.9391354,2.5374304e-05,7.4218768e-06,-4.954962e-19,2.4934546e-05,1.9090901e-21,2.515449e-05
2.9454227,3.5556867e-05,1.6758742e-05,3.4259421e-19,3.4676846e-05,-1.2495617e-21,3.5116876e-05
2.9513538,4.3365393e-05,2.8281712e-05,6.8000356e-19,4.2051714e-05,-2.5356052e-21,4.2708709e-05
2.956949,4.8183326e-05,3.8938314e-05,-4.9318508e-19,4.658974e-05,1.4123229e-21,4.7386957e-05
2.9622271,5.0237711e-05,4.6558134e-05,-1.1357008e-19,4.8563935e-05,3.2597917e-22,4.9401344e-05
2.9672063,4.9783898e-05,4.9976668e-05,-4.3337975e-19,4.820773e-05,9.4212528e-22,4.8996386e-05
2.9719035,4.7331206e-05,4.9426744e-05,8.6286591e-20,4.59639e-05,-2.6301252e-22,4.6648308e-05
2.9763345,4.3738481e-05,4.6423233e-05,7.9983701e-19,4.261159e-05,-1.9205628e-21,4.31757e-05
2.9805146,3.9577102e-05,4.1990224e-05,-1.2306742e-24,3.8685865e-05,-2.2154715e-25,3.9131558e-05
2.9844579,3.5039263e-05,3.4464528e-05,-5.3605551e-25,3.4403583e-05,-1.0414083e-25,3.4721376e-05
2.9881778,3.0203101e-05,2.408393e-05,1.5604533e-25,2.9819643e-05,1.0624651e-25,3.0011649e-05
2.9916871,2.5105918e-05,1.4821549e-05,7.5128679e-25,2.4901236e-05,-6.5909388e-26,2.5003771e-05
2.9949976,1.9785629e-05,8.3758484e-06,5.6017651e-25,1.9684151e-05,-3.8944843e-26,1.9734922e-05
2.9981205,1.4404092e-05,4.2080405e-06,3.480997e-20,1.4359045e-05,-3.4923729e-23,1.4381582e-05
3.0010666,9.3173888e-06,1.7721725e-06,2.1948499e-20,9.3005802e-06,-2.2045425e-23,9.3089899e-06
3.0038458,5.0380424e-06,5.7488017e-07,-1.1827295e-20,5.0332037e-06,1.212862e-23,5.0356246e-06
3.0064677,2.0681853e-06,1.2814862e-07,8.7188532e-22,2.0672272e-06,-6.6099694e-25,2.0677066e-06
3.008941,5.6559867e-07,1.5776215e-08,-1.5612033e-22,5.6549404e-07,1.1822477e-25,5.655464e-07
3.0112742,9.2546401e-08,3.8167353e-10,-4.1590962e-24,9.2544156e-08,2.7568667e-27,9.254528e-08
3.0134753,1.0638832e-08,4.0698332e-12,-3.6331635e-26,1.0638811e-08,1.9493857e-29,1.0638821e-08
3.0155518,1.2616289e-09,4.2719593e-14,8.8098403e-28,1.2616287e-09,-5.353678e-31,1.2616288e-09
3.0175106,2.0338894e-10,8.0040941e-16,-2.3866264e-31,2.0338894e-10,1.0999345e-34,2.0338894e-10
3.0193585,4.6946972e-11,3.0227448e-17,-2.0319202e-31,4.6946972e-11,9.231429e-35,4.6946972e-11
3.0211018,1.610955e-11,2.421732e-18,2.5742608e-32,1.610955e-11,-1.1395881e-35,1.610955e-11
3.0227463,9.9866748e-12,6.2863864e-19,-4.9787557e-33,9.9866748e-12,1.9754515e-36,9.9866748e-12
3.0242977,1.3342183e-11,9.2695955e-19,4.3159916e-33,1.3342183e-11,-1.6538892e-36,1.3342183e-11
3.0257612,3.1470754e-11,4.6557991e-18,6.1830424e-33,3.1470754e-11,-1.7187474e-36,3.1470754e-11
3.0271418,1.0405643e-10,4.5787927e-17,-2.3420116e-32,1.0405643e-10,1.4559515e-35,1.0405643e-10
3.0284443,5.020687e-10,1.0016178e-15,3.5809166e-30,5.0206869e-10,-6.9019189e-34,5.0206869e-10
3.029673,1.4523052e-08,1.0075317e-12,-8.2283787e-27,1.4523051e-08,1.1996484e-30,1.4523051e-08
3.0308321,1.4286361e-06,1.1500424e-09,2.1326134e-24,1.428635e-06,-2.2226203e-28,1.4286355e-06
3.0319256,9.8863672e-06,1.6229554e-08,2.1346913e-24,9.8863544e-06,-2.4158186e-28,9.8863608e-06
3.0329571,2.9885813e-05,5.3430964e-08,-1.8443768e-29,2.988578e-05,-4.1078446e-29,2.9885797e-05
3.0339302,6.1646679e-05,8.5149495e-08,2.5645815e-23,6.1646645e-05,-9.6316625e-28,6.1646661e-05
3.0348483,0.00010555759,7.1377466e-08,1.1942408e-23,0.00010555757,-4.2808361e-28,0.00010555758
3.0357143,6.6666667e-11,0,0,6.6666667e-11,0,6.6666667e-11
