/*--------------------------------*- C++ -*----------------------------------*\
| =========                 |                                                 |
| \\      /  F ield         | OpenFOAM: The Open Source CFD Toolbox           |
|  \\    /   O peration     | Version:  2.4.0                                 |
|   \\  /    A nd           | Web:      www.OpenFOAM.org                      |
|    \\/     M anipulation  |                                                 |
\*---------------------------------------------------------------------------*/
FoamFile
{
    version     2.0;
    format      ascii;
    class       volScalarField;
    location    "10000";
    object      k;
}
// * * * * * * * * * * * * * * * * * * * * * * * * * * * * * * * * * * * * * //

dimensions      [0 2 -2 0 0 0 0];

internalField   nonuniform List<scalar> 
9742
(
0.02797789
0.027897612
0.027817619
0.027737967
0.027658713
0.027579916
0.027501633
0.027423917
0.02734685
0.027161025
0.027088233
0.027015384
0.026942555
0.026869811
0.026797215
0.026724824
0.026652692
0.026580883
0.026306885
0.026241626
0.026176128
0.026110448
0.026044642
0.025978765
0.025912858
0.025846971
0.025781166
0.025435348
0.025377255
0.025318812
0.025260064
0.025201056
0.025141833
0.025082441
0.025022929
0.024963344
0.024561461
0.024510058
0.024458234
0.024406028
0.024353477
0.024300622
0.024247515
0.024194197
0.024140702
0.023695436
0.023650293
0.023604686
0.023558646
0.023512206
0.0234654
0.023418264
0.023370835
0.023323145
0.022845545
0.022806128
0.022766221
0.022725851
0.022685045
0.022643833
0.022602243
0.022560305
0.02251805
0.022475493
0.022432686
0.022389655
0.022346429
0.022303035
0.0222595
0.022018264
0.021983976
0.021949186
0.021913915
0.021878189
0.021842032
0.021805469
0.021768524
0.021731225
0.021693593
0.021655659
0.021617449
0.021578989
0.021540307
0.021501426
0.021218298
0.021188515
0.021158227
0.021127457
0.021096224
0.02106455
0.021032456
0.020999964
0.020967098
0.020933877
0.020900327
0.02086647
0.02083233
0.020797929
0.02076329
0.02044876
0.02042287
0.020396488
0.02036963
0.020342314
0.02031456
0.020286384
0.020257808
0.02022885
0.020199529
0.020169866
0.020139881
0.020109594
0.020079025
0.020048195
0.019711475
0.019688916
0.019665882
0.01964239
0.019618453
0.019594089
0.019569314
0.019544143
0.019518594
0.019492684
0.019466431
0.019439851
0.019412962
0.019385783
0.01935833
0.019007284
0.018987548
0.018967362
0.01894674
0.018925695
0.01890424
0.01888239
0.018860157
0.018837558
0.018814606
0.018791317
0.018767706
0.018743789
0.01871958
0.018695095
0.01867035
0.01864536
0.018336276
0.018318917
0.018301138
0.018282949
0.018264361
0.018245385
0.018226034
0.01820632
0.018186255
0.018165852
0.018145124
0.018124084
0.018102745
0.018081122
0.018059226
0.018037073
0.018014675
0.017992045
0.017969199
0.017946151
0.017922913
0.0178995
0.01769799
0.017682622
0.017666864
0.017650725
0.017634214
0.017617341
0.017600115
0.017582548
0.01756465
0.017546431
0.017527903
0.017509078
0.017489966
0.017470579
0.01745093
0.01743103
0.01741089
0.017390523
0.017369941
0.017349156
0.017328181
0.017307026
0.017285703
0.017264226
0.017242606
0.017220855
0.017198985
0.017177006
0.01715493
0.017132769
0.017110534
0.017130472
0.01711788
0.01710491
0.017091568
0.01707786
0.017063793
0.017049375
0.017034612
0.017019514
0.017004089
0.016988345
0.016972291
0.016955937
0.016939292
0.016922367
0.01690517
0.016887712
0.016870003
0.016852053
0.016833873
0.016815473
0.016796864
0.016778056
0.016759059
0.016739885
0.016720543
0.016701045
0.0166814
0.01666162
0.016641715
0.016621695
0.01660157
0.01658135
0.016561046
0.016550848
0.016539535
0.016527878
0.016515884
0.016503555
0.016490899
0.016477921
0.016464627
0.016451023
0.016437118
0.016422918
0.016408431
0.016393665
0.016378627
0.016363327
0.016347772
0.016331972
0.016315934
0.016299668
0.016283183
0.016266488
0.016249591
0.016232503
0.016215232
0.016197788
0.016180179
0.016162415
0.016144506
0.016126461
0.016108288
0.016089997
0.016071598
0.016053098
0.016034507
0.016001362
0.015991097
0.015980523
0.015969642
0.015958459
0.015946978
0.015935203
0.01592314
0.015910794
0.01589817
0.015885276
0.015872118
0.015858701
0.015845033
0.01583112
0.015816971
0.015802592
0.015787991
0.015773176
0.015758154
0.015742933
0.01572752
0.015711925
0.015696155
0.015680218
0.015664122
0.015647875
0.015631485
0.015614961
0.015598311
0.015581543
0.015564664
0.015547682
0.015530607
0.015480501
0.015471097
0.015461414
0.015451455
0.015441222
0.01543072
0.015419951
0.01540892
0.015397631
0.015386089
0.015374298
0.015362266
0.015349995
0.015337494
0.015324766
0.015311819
0.015298659
0.015285292
0.015271725
0.015257964
0.015244017
0.015229889
0.015215588
0.015201121
0.015186495
0.015171717
0.015156793
0.015141732
0.01512654
0.015111224
0.015095792
0.015080251
0.015064607
0.015048868
0.014986734
0.014978038
0.014969092
0.014959896
0.014950455
0.014940769
0.014930842
0.014920678
0.014910279
0.014899649
0.014888794
0.014877716
0.014866421
0.014854913
0.014843198
0.01483128
0.014819165
0.014806859
0.014794366
0.014781693
0.014768845
0.014755828
0.014742649
0.014729313
0.014715826
0.014702195
0.014688425
0.014674524
0.014660496
0.014646349
0.014632089
0.014617721
0.014603253
0.01458869
0.014574037
0.014559303
0.014544493
0.014529613
0.01451467
0.014499669
0.014484616
0.014518549
0.014510439
0.014502104
0.014493545
0.014484764
0.014475763
0.014466544
0.01445711
0.014447463
0.014437607
0.014427544
0.014417279
0.014406815
0.014396156
0.014385307
0.014374271
0.014363053
0.014351659
0.014340091
0.014328357
0.014316459
0.014304405
0.014292197
0.014279843
0.014267347
0.014254714
0.014241951
0.014229061
0.014216052
0.014202927
0.014189693
0.014176356
0.01416292
0.014149392
0.014135776
0.014122077
0.014108303
0.014094458
0.014080548
0.014066578
0.014052554
0.014096134
0.01408912
0.014081904
0.014074485
0.014066864
0.014059041
0.014051016
0.014042791
0.014034368
0.014025747
0.014016931
0.014007922
0.013998723
0.013989336
0.013979765
0.013970012
0.01396008
0.013949974
0.013939696
0.013929251
0.013918642
0.013907874
0.013896951
0.013885877
0.013874656
0.013863292
0.013851791
0.013840157
0.013828395
0.013816508
0.013804502
0.013792383
0.013780153
0.013767819
0.013755385
0.013742856
0.013730237
0.013717532
0.013704747
0.013691886
0.013678954
0.013665957
0.013652899
0.013639785
0.013673678
0.013667016
0.013660173
0.013653147
0.013645939
0.013638549
0.013630977
0.013623225
0.013615292
0.013607181
0.013598893
0.01359043
0.013581793
0.013572985
0.013564009
0.013554867
0.013545561
0.013536095
0.013526471
0.013516694
0.013506765
0.013496689
0.013486469
0.013476109
0.013465612
0.013454983
0.013444225
0.013433342
0.013422339
0.013411218
0.013399986
0.013388644
0.013377199
0.013365653
0.013354012
0.01334228
0.01333046
0.013318557
0.013306576
0.013294521
0.013282395
0.013270204
0.013257952
0.013245643
0.013272791
0.013266432
0.013259908
0.01325322
0.013246366
0.013239348
0.013232165
0.013224818
0.013217307
0.013209635
0.013201801
0.013193808
0.013185656
0.013177348
0.013168886
0.013160272
0.013151508
0.013142596
0.013133539
0.013124341
0.013115002
0.013105528
0.01309592
0.013086181
0.013076316
0.013066327
0.013056217
0.013045991
0.013035651
0.013025201
0.013014645
0.013003986
0.012993228
0.012982375
0.01297143
0.012960397
0.012949281
0.012938084
0.012926811
0.012915466
0.012904051
0.012892572
0.012881032
0.012869436
0.012857783
0.012846083
0.012834337
0.01282255
0.012810726
0.012798868
0.012786979
0.012775065
0.012763129
0.012751174
0.012739205
0.012727226
0.01271524
0.012703251
0.012691263
0.01267928
0.012667307
0.012655346
0.012643402
0.012631478
0.01261958
0.01260771
0.012595872
0.012584072
0.012572312
0.012560597
0.01254893
0.012537317
0.012525761
0.012514267
0.012502839
0.012491481
0.012892203
0.012886108
0.012879864
0.01287347
0.012866925
0.01286023
0.012853385
0.012846391
0.012839248
0.012831956
0.012824517
0.012816933
0.012809203
0.01280133
0.012793316
0.012785161
0.012776869
0.01276844
0.012759878
0.012751184
0.012742362
0.012733412
0.012724339
0.012715145
0.012705831
0.012696403
0.012686861
0.01267721
0.012667452
0.01265759
0.012647628
0.012637569
0.012627416
0.012617172
0.01260684
0.012596424
0.012585927
0.012575353
0.012564705
0.012553987
0.012543201
0.012532351
0.012521441
0.012510475
0.012499454
0.012488384
0.012477267
0.012466107
0.012454909
0.012443675
0.012432409
0.012421114
0.012409793
0.012398452
0.012387092
0.012375718
0.012364332
0.01235294
0.012341544
0.012330147
0.012318754
0.012307368
0.012295993
0.012284633
0.01227329
0.01226197
0.012250675
0.012239409
0.012228177
0.012216982
0.012205827
0.012194717
0.012183656
0.012172648
0.012161697
0.012150807
0.012530739
0.012524881
0.012518886
0.012512753
0.012506482
0.012500074
0.012493528
0.012486845
0.012480025
0.01247307
0.012465978
0.012458753
0.012451394
0.012443904
0.012436282
0.012428532
0.012420654
0.01241265
0.012404522
0.012396273
0.012387903
0.012379415
0.012370812
0.012362096
0.012353269
0.012344333
0.012335291
0.012326147
0.012316902
0.012307558
0.01229812
0.01228859
0.012278969
0.012269263
0.012259472
0.012249601
0.012239653
0.012229629
0.012219534
0.01220937
0.012199141
0.012188849
0.012178497
0.01216809
0.012157629
0.012147118
0.01213656
0.012125958
0.012115316
0.012104637
0.012093924
0.01208318
0.012072409
0.012061614
0.012050797
0.012039963
0.012029114
0.012018254
0.012007387
0.011996515
0.011985642
0.011974771
0.011963906
0.01195305
0.011942206
0.011931379
0.011920572
0.011909787
0.01189903
0.011888302
0.011877609
0.011866953
0.011856339
0.01184577
0.011835251
0.011824784
0.012187322
0.012181681
0.012175912
0.012170017
0.012163994
0.012157844
0.012151567
0.012145163
0.012138633
0.012131977
0.012125196
0.012118291
0.012111262
0.012104111
0.012096839
0.012089447
0.012081936
0.012074308
0.012066565
0.012058708
0.01205074
0.01204266
0.012034473
0.01202618
0.012017782
0.012009283
0.012000683
0.011991987
0.011983195
0.01197431
0.011965336
0.011956273
0.011947125
0.011937894
0.011928583
0.011919194
0.011909731
0.011900195
0.01189059
0.011880918
0.011871183
0.011861385
0.01185153
0.011841619
0.011831655
0.011821641
0.01181158
0.011801474
0.011791328
0.011781143
0.011770923
0.011760671
0.011750389
0.011740081
0.011729749
0.011719397
0.011709028
0.011698645
0.01168825
0.011677847
0.01166744
0.01165703
0.011646623
0.011636219
0.011625824
0.01161544
0.011605071
0.011594719
0.011584389
0.011574083
0.011563805
0.011553559
0.011543348
0.011533176
0.011523046
0.011512963
0.011860962
0.011855523
0.011849965
0.011844289
0.011838495
0.011832582
0.01182655
0.011820401
0.011814134
0.011807749
0.011801249
0.011794632
0.0117879
0.011781054
0.011774095
0.011767024
0.011759842
0.011752551
0.011745151
0.011737645
0.011730033
0.011722318
0.011714501
0.011706585
0.011698569
0.011690458
0.011682252
0.011673953
0.011665565
0.011657088
0.011648525
0.011639878
0.011631149
0.011622342
0.011613457
0.011604497
0.011595465
0.011586363
0.011577194
0.01156796
0.011558663
0.011549306
0.011539892
0.011530423
0.011520902
0.011511331
0.011501712
0.011492049
0.011482345
0.011472601
0.011462821
0.011453008
0.011443163
0.011433291
0.011423393
0.011413472
0.011403532
0.011393575
0.011383604
0.011373622
0.011363632
0.011353637
0.01134364
0.011333644
0.011323651
0.011313666
0.011303691
0.011293729
0.011283783
0.011273858
0.011263955
0.011254079
0.011244232
0.011234419
0.011224642
0.011214906
0.011550751
0.011545505
0.011540147
0.011534678
0.011529097
0.011523405
0.011517602
0.011511688
0.011505663
0.011499528
0.011493284
0.011486931
0.01148047
0.011473901
0.011467226
0.011460446
0.011453561
0.011446573
0.011439483
0.011432292
0.011425001
0.011417613
0.011410129
0.011402549
0.011394877
0.011387112
0.011379258
0.011371316
0.011363288
0.011355175
0.01134698
0.011338705
0.011330351
0.011321921
0.011313417
0.01130484
0.011296193
0.011287479
0.011278699
0.011269855
0.011260951
0.011251987
0.011242967
0.011233893
0.011224767
0.011215592
0.011206369
0.011197102
0.011187793
0.011178444
0.011169058
0.011159637
0.011150184
0.011140702
0.011131193
0.01112166
0.011112105
0.011102531
0.011092941
0.011083337
0.011073722
0.0110641
0.011054472
0.011044842
0.011035213
0.011025587
0.011015968
0.011006358
0.01099676
0.010987178
0.010977615
0.010968073
0.010958557
0.010949069
0.010939612
0.010930191
0.011255866
0.011250807
0.011245642
0.011240371
0.011234993
0.011229511
0.011223922
0.011218229
0.01121243
0.011206527
0.011200521
0.011194411
0.011188199
0.011181885
0.01117547
0.011168955
0.011162341
0.01115563
0.011148821
0.011141916
0.011134917
0.011127825
0.011120641
0.011113366
0.011106002
0.011098551
0.011091014
0.011083393
0.011075689
0.011067904
0.011060039
0.011052098
0.01104408
0.011035989
0.011027826
0.011019593
0.011011292
0.011002925
0.010994494
0.010986001
0.010977448
0.010968837
0.010960171
0.010951451
0.01094268
0.010933859
0.010924992
0.01091608
0.010907126
0.010898132
0.010889099
0.010880032
0.010870932
0.0108618
0.010852641
0.010843456
0.010834248
0.010825019
0.010815772
0.01080651
0.010797234
0.010787948
0.010778655
0.010769356
0.010760055
0.010750755
0.010741458
0.010732167
0.010722885
0.010713615
0.01070436
0.010695123
0.010685907
0.010676715
0.01066755
0.010658416
0.01097556
0.010970685
0.010965707
0.010960628
0.010955447
0.010950164
0.01094478
0.010939296
0.010933711
0.010928026
0.010922243
0.01091636
0.01091038
0.010904302
0.010898128
0.010891858
0.010885494
0.010879036
0.010872485
0.010865842
0.010859109
0.010852287
0.010845376
0.010838379
0.010831296
0.010824129
0.01081688
0.010809549
0.010802138
0.010794649
0.010787084
0.010779444
0.01077173
0.010763945
0.01075609
0.010748167
0.010740178
0.010732124
0.010724007
0.01071583
0.010707594
0.010699302
0.010690954
0.010682554
0.010674102
0.010665602
0.010657056
0.010648464
0.01063983
0.010631156
0.010622443
0.010613695
0.010604913
0.010596099
0.010587256
0.010578387
0.010569493
0.010560576
0.01055164
0.010542687
0.010533719
0.010524738
0.010515748
0.01050675
0.010497748
0.010488744
0.01047974
0.01047074
0.010461746
0.010452761
0.010443787
0.010434829
0.010425888
0.010416967
0.01040807
0.0103992
0.010709161
0.010704467
0.010699674
0.010694782
0.010689791
0.010684701
0.010679514
0.010674229
0.010668848
0.01066337
0.010657797
0.010652128
0.010646366
0.010640509
0.010634559
0.010628518
0.010622385
0.010616162
0.010609849
0.010603449
0.01059696
0.010590386
0.010583727
0.010576983
0.010570158
0.01056325
0.010556263
0.010549197
0.010542054
0.010534835
0.010527542
0.010520176
0.010512738
0.010505231
0.010497656
0.010490014
0.010482308
0.010474538
0.010466708
0.010458817
0.010450869
0.010442864
0.010434806
0.010426695
0.010418534
0.010410324
0.010402068
0.010393768
0.010385424
0.010377041
0.010368619
0.01036016
0.010351667
0.010343142
0.010334587
0.010326005
0.010317396
0.010308765
0.010300113
0.010291441
0.010282754
0.010274052
0.010265339
0.010256617
0.010247889
0.010239156
0.010230422
0.010221688
0.010212959
0.010204235
0.010195521
0.010186819
0.010178131
0.010169461
0.010160811
0.010152185
0.010456065
0.01045155
0.010446938
0.010442229
0.010437423
0.010432521
0.010427524
0.010422431
0.010417245
0.010411965
0.010406591
0.010401126
0.010395569
0.01038992
0.010384182
0.010378354
0.010372438
0.010366434
0.010360343
0.010354167
0.010347905
0.010341561
0.010335133
0.010328625
0.010322036
0.010315368
0.010308622
0.010301799
0.010294902
0.01028793
0.010280886
0.010273771
0.010266586
0.010259334
0.010252014
0.01024463
0.010237182
0.010229672
0.010222101
0.010214472
0.010206787
0.010199046
0.010191251
0.010183405
0.010175509
0.010167565
0.010159574
0.010151539
0.010143462
0.010135344
0.010127187
0.010118994
0.010110766
0.010102506
0.010094215
0.010085895
0.01007755
0.01006918
0.010060788
0.010052376
0.010043947
0.010035503
0.010027045
0.010018578
0.010010102
0.01000162
0.0099931344
0.0099846484
0.009976164
0.0099676838
0.0099592105
0.0099507467
0.0099422951
0.0099338584
0.0099254391
0.0099170412
0.010215729
0.010211391
0.010206957
0.010202427
0.010197802
0.010193082
0.010188269
0.010183362
0.010178363
0.010173272
0.01016809
0.010162818
0.010157455
0.010152005
0.010146465
0.010140839
0.010135126
0.010129328
0.010123445
0.010117479
0.010111429
0.010105299
0.010099087
0.010092796
0.010086427
0.01007998
0.010073458
0.010066861
0.01006019
0.010053447
0.010046633
0.010039749
0.010032797
0.010025779
0.010018695
0.010011547
0.010004337
0.0099970656
0.0099897352
0.009982347
0.0099749028
0.009967404
0.0099598524
0.0099522497
0.0099445975
0.0099368976
0.0099291517
0.0099213617
0.0099135293
0.0099056565
0.0098977449
0.0098897967
0.0098818136
0.0098737977
0.0098657508
0.0098576751
0.0098495725
0.0098414452
0.0098332952
0.0098251246
0.0098169356
0.0098087304
0.0098005112
0.0097922803
0.00978404
0.0097757925
0.0097675402
0.0097592856
0.009751031
0.009742779
0.009734532
0.0097262925
0.0097180633
0.0097098468
0.0097016455
0.0096934633
0.0099876683
0.0099835042
0.0099792444
0.0099748896
0.0099704405
0.0099658979
0.0099612626
0.0099565352
0.0099517166
0.0099468075
0.0099418087
0.0099367209
0.0099315449
0.0099262815
0.0099209316
0.009915496
0.0099099756
0.0099043712
0.0098986839
0.0098929145
0.0098870641
0.0098811337
0.0098751242
0.0098690368
0.0098628726
0.0098566328
0.0098503184
0.0098439306
0.0098374708
0.00983094
0.0098243397
0.009817671
0.0098109355
0.0098041343
0.0097972688
0.0097903406
0.009783351
0.0097763015
0.0097691936
0.0097620288
0.0097548086
0.0097475346
0.0097402085
0.0097328318
0.0097254062
0.0097179333
0.0097104149
0.0097028527
0.0096952483
0.0096876037
0.0096799206
0.0096722007
0.0096644461
0.0096566585
0.0096488398
0.0096409921
0.0096331172
0.0096252171
0.009617294
0.0096093497
0.0096013865
0.0095934064
0.0095854115
0.0095774041
0.0095693864
0.0095613605
0.0095533288
0.0095452935
0.0095372571
0.0095292219
0.0095211902
0.0095131646
0.0095051476
0.0094971417
0.0094891491
0.0094811738
0.0097714497
0.0097674556
0.0097633661
0.0097591819
0.0097549039
0.0097505329
0.0097460698
0.0097415153
0.0097368705
0.0097321359
0.0097273126
0.0097224014
0.009717403
0.0097123184
0.0097071483
0.0097018938
0.0096965556
0.0096911348
0.0096856323
0.009680049
0.009674386
0.0096686442
0.0096628248
0.0096569287
0.0096509571
0.0096449111
0.0096387918
0.0096326004
0.0096263382
0.0096200062
0.0096136059
0.0096071384
0.009600605
0.0095940071
0.0095873461
0.0095806232
0.00957384
0.0095669977
0.009560098
0.0095531422
0.0095461318
0.0095390685
0.0095319536
0.0095247888
0.0095175758
0.009510316
0.0095030113
0.0094956631
0.0094882733
0.0094808435
0.0094733755
0.0094658711
0.009458332
0.0094507601
0.0094431573
0.0094355253
0.0094278662
0.0094201818
0.0094124741
0.0094047451
0.0093969968
0.0093892313
0.0093814505
0.0093736567
0.009365852
0.0093580385
0.0093502184
0.009342394
0.0093345675
0.0093267413
0.0093189176
0.0093110988
0.0093032873
0.0092954856
0.0092876959
0.0092799219
0.0095666874
0.0095628586
0.0095589342
0.0095549152
0.0095508025
0.0095465971
0.0095422999
0.0095379118
0.0095334337
0.0095288666
0.0095242114
0.0095194689
0.0095146401
0.0095097258
0.009504727
0.0094996447
0.0094944797
0.009489233
0.0094839057
0.0094784987
0.009473013
0.0094674496
0.0094618097
0.0094560942
0.0094503044
0.0094444413
0.009438506
0.0094324998
0.0094264239
0.0094202793
0.0094140675
0.0094077895
0.0094014468
0.0093950407
0.0093885723
0.0093820432
0.0093754547
0.0093688082
0.009362105
0.0093553468
0.0093485348
0.0093416707
0.0093347559
0.0093277919
0.0093207804
0.0093137229
0.009306621
0.0092994764
0.0092922907
0.0092850656
0.0092778028
0.009270504
0.0092631709
0.0092558054
0.0092484093
0.0092409843
0.0092335323
0.0092260552
0.009218555
0.0092110335
0.0092034926
0.0091959345
0.009188361
0.0091807743
0.0091731764
0.0091655694
0.0091579554
0.0091503367
0.0091427153
0.0091350935
0.0091274736
0.0091198578
0.0091122485
0.009104648
0.0090970585
0.0090894835
0.009373038
0.0093693683
0.0093656029
0.0093617428
0.0093577889
0.0093537424
0.0093496042
0.0093453755
0.0093410571
0.00933665
0.0093321553
0.0093275738
0.0093229067
0.0093181548
0.009313319
0.0093084005
0.0093034002
0.009298319
0.0092931581
0.0092879184
0.009282601
0.009277207
0.0092717374
0.0092661933
0.0092605759
0.0092548863
0.0092491256
0.009243295
0.0092373958
0.0092314291
0.0092253963
0.0092192984
0.0092131369
0.0092069129
0.009200628
0.0091942833
0.0091878802
0.0091814202
0.0091749046
0.0091683349
0.0091617125
0.0091550389
0.0091483156
0.009141544
0.0091347258
0.0091278625
0.0091209557
0.009114007
0.0091070179
0.0090999902
0.0090929255
0.0090858256
0.009078692
0.0090715266
0.0090643311
0.0090571073
0.0090498571
0.0090425822
0.0090352844
0.0090279658
0.0090206281
0.0090132734
0.0090059036
0.0089985206
0.0089911265
0.0089837233
0.0089763131
0.008968898
0.00896148
0.0089540614
0.0089466444
0.008939231
0.0089318236
0.0089244245
0.0089170356
0.0089096605
0.0091901959
0.0091866782
0.0091830645
0.0091793558
0.0091755534
0.0091716583
0.0091676717
0.0091635946
0.0091594282
0.0091551735
0.0091508316
0.0091464034
0.00914189
0.0091372925
0.0091326119
0.0091278492
0.0091230054
0.0091180817
0.009113079
0.0091079986
0.0091028413
0.0090976084
0.009092301
0.0090869201
0.009081467
0.0090759428
0.0090703486
0.0090646857
0.0090589553
0.0090531586
0.0090472969
0.0090413714
0.0090353834
0.0090293342
0.0090232252
0.0090170576
0.0090108329
0.0090045524
0.0089982176
0.0089918297
0.0089853904
0.0089789011
0.0089723631
0.0089657781
0.0089591476
0.008952473
0.008945756
0.0089389981
0.008932201
0.0089253662
0.0089184954
0.0089115903
0.0089046525
0.0088976838
0.0088906859
0.0088836605
0.0088766094
0.0088695344
0.0088624373
0.0088553199
0.0088481842
0.0088410319
0.008833865
0.0088266855
0.0088194952
0.0088122962
0.0088050905
0.00879788
0.0087906669
0.0087834533
0.0087762411
0.0087690326
0.0087618299
0.0087546354
0.0087474506
0.0087402794
0.009017889
0.0090145147
0.0090110442
0.0090074787
0.0090038193
0.0090000674
0.0089962241
0.0089922906
0.008988268
0.0089841576
0.0089799603
0.0089756774
0.0089713098
0.0089668588
0.0089623254
0.0089577107
0.0089530158
0.0089482418
0.0089433899
0.0089384611
0.0089334565
0.0089283774
0.0089232249
0.0089180001
0.0089127042
0.0089073384
0.0089019039
0.008896402
0.0088908339
0.0088852007
0.0088795039
0.0088737446
0.0088679243
0.0088620441
0.0088561054
0.0088501096
0.0088440581
0.0088379522
0.0088317933
0.0088255829
0.0088193223
0.0088130132
0.0088066568
0.0088002547
0.0087938085
0.0087873197
0.0087807897
0.0087742202
0.0087676128
0.008760969
0.0087542905
0.008747579
0.008740836
0.0087340633
0.0087272625
0.0087204354
0.0087135837
0.0087067092
0.0086998136
0.0086928987
0.0086859664
0.0086790185
0.0086720569
0.0086650834
0.0086580999
0.0086511084
0.0086441107
0.008637109
0.008630105
0.008623101
0.0086160988
0.0086091006
0.0086021084
0.0085951244
0.0085881503
0.0085811896
0.0088558742
0.0088526337
0.0088492968
0.0088458649
0.0088423393
0.0088387214
0.0088350123
0.0088312135
0.0088273261
0.0088233514
0.0088192904
0.0088151445
0.0088109147
0.0088066022
0.0088022082
0.0087977339
0.0087931803
0.0087885488
0.0087838403
0.0087790562
0.0087741975
0.0087692655
0.0087642614
0.0087591864
0.0087540416
0.0087488284
0.0087435479
0.0087382014
0.0087327903
0.0087273156
0.0087217789
0.0087161813
0.0087105241
0.0087048088
0.0086990367
0.008693209
0.0086873273
0.0086813929
0.0086754072
0.0086693716
0.0086632876
0.0086571566
0.0086509802
0.0086447597
0.0086384968
0.0086321928
0.0086258495
0.0086194683
0.0086130508
0.0086065985
0.0086001132
0.0085935964
0.0085870497
0.0085804748
0.0085738734
0.0085672471
0.0085605978
0.008553927
0.0085472365
0.0085405281
0.0085338036
0.0085270648
0.0085203134
0.0085135513
0.0085067803
0.0085000023
0.0084932193
0.008486433
0.0084796454
0.0084728585
0.0084660742
0.0084592945
0.0084525214
0.008445757
0.0084390028
0.0084322624
0.0087039332
0.0087008154
0.0086976014
0.0086942926
0.0086908906
0.0086873967
0.0086838122
0.0086801386
0.0086763772
0.0086725291
0.0086685957
0.0086645782
0.0086604779
0.008656296
0.0086520336
0.0086476921
0.0086432726
0.0086387764
0.0086342047
0.0086295587
0.0086248396
0.0086200488
0.0086151873
0.0086102565
0.0086052577
0.0086001921
0.0085950609
0.0085898656
0.0085846073
0.0085792874
0.0085739072
0.008568468
0.0085629712
0.0085574182
0.0085518103
0.0085461488
0.0085404353
0.008534671
0.0085288575
0.0085229961
0.0085170883
0.0085111356
0.0085051394
0.0084991013
0.0084930227
0.0084869051
0.0084807502
0.0084745594
0.0084683343
0.0084620764
0.0084557874
0.008449469
0.0084431225
0.0084367498
0.0084303525
0.0084239322
0.0084174906
0.0084110294
0.0084045502
0.0083980549
0.0083915451
0.0083850226
0.0083784892
0.0083719466
0.0083653966
0.008358841
0.0083522817
0.0083457205
0.0083391592
0.0083325997
0.0083260439
0.0083194937
0.008312951
0.0083064179
0.0082998957
0.0082933879
0.0085675039
0.0085647775
0.0085618676
0.0085588603
0.0085557574
0.0085525604
0.0085492708
0.0085458902
0.00854242
0.0085388615
0.0085352163
0.0085314855
0.0085276706
0.0085237729
0.0085197937
0.0085157342
0.0085115958
0.0085073797
0.0085030872
0.0084987196
0.0084942783
0.0084897643
0.0084851791
0.008480524
0.0084758001
0.0084710089
0.0084661517
0.0084612296
0.0084562442
0.0084511966
0.0084460882
0.0084409205
0.0084356946
0.008430412
0.0084250741
0.0084196823
0.0084142378
0.0084087422
0.0084031969
0.0083976032
0.0083919626
0.0083862766
0.0083805466
0.008374774
0.0083689605
0.0083631074
0.0083572162
0.0083512886
0.0083453259
0.0083393298
0.0083333019
0.0083272435
0.0083211565
0.0083150422
0.0083089024
0.0083027386
0.0082965525
0.0082903456
0.0082841197
0.0082778763
0.0082716173
0.0082653441
0.0082590585
0.0082527623
0.0082464571
0.0082401446
0.0082338266
0.0082275049
0.0082211811
0.0082148572
0.0082085347
0.0082022156
0.0081959017
0.0081895947
0.0081832964
0.0081770089
0.0081707334
0.0081644734
0.0084349474
0.008432308
0.0084294944
0.0084265845
0.00842358
0.0084204825
0.0084172937
0.008414015
0.008410648
0.0084071943
0.0084036551
0.008400032
0.0083963263
0.0083925395
0.0083886729
0.0083847278
0.0083807057
0.0083766078
0.0083724355
0.0083681902
0.0083638732
0.0083594857
0.0083550293
0.0083505051
0.0083459146
0.008341259
0.0083365398
0.0083317583
0.0083269159
0.0083220139
0.0083170537
0.0083120367
0.0083069642
0.0083018377
0.0082966586
0.0082914282
0.008286148
0.0082808194
0.0082754439
0.0082700229
0.0082645578
0.00825905
0.0082535012
0.0082479126
0.0082422859
0.0082366226
0.008230924
0.0082251918
0.0082194275
0.0082136325
0.0082078085
0.008201957
0.0081960796
0.0081901778
0.0081842531
0.0081783073
0.0081723418
0.0081663583
0.0081603583
0.0081543436
0.0081483157
0.0081422762
0.0081362269
0.0081301693
0.0081241051
0.0081180359
0.0081119636
0.0081058897
0.0080998159
0.0080937439
0.0080876754
0.0080816122
0.0080755559
0.0080695084
0.0080634712
0.0080574464
0.008051435
0.0080454403
0.00831194
0.0083093732
0.0083066418
0.0083038154
0.0083008959
0.0082978851
0.0082947846
0.008291596
0.0082883209
0.0082849609
0.0082815175
0.0082779921
0.0082743863
0.0082707015
0.0082669391
0.0082631005
0.0082591872
0.0082552006
0.0082511421
0.008247013
0.0082428148
0.0082385489
0.0082342166
0.0082298194
0.0082253586
0.0082208357
0.008216252
0.008211609
0.008206908
0.0082021504
0.0081973377
0.0081924713
0.0081875526
0.008182583
0.0081775639
0.0081724968
0.0081673832
0.0081622244
0.008157022
0.0081517773
0.0081464918
0.0081411671
0.0081358046
0.0081304057
0.008124972
0.008119505
0.0081140061
0.0081084769
0.0081029189
0.0080973336
0.0080917226
0.0080860873
0.0080804294
0.0080747504
0.0080690517
0.0080633351
0.008057602
0.008051854
0.0080460927
0.0080403196
0.0080345364
0.0080287446
0.0080229458
0.0080171417
0.0080113337
0.0080055236
0.0079997128
0.0079939032
0.0079880962
0.0079822934
0.0079764966
0.0079707073
0.0079649271
0.0079591578
0.0079534007
0.007947658
0.0079419305
0.0079362214
0.0081983182
0.0081958088
0.0081931445
0.0081903871
0.0081875388
0.0081846013
0.0081815763
0.0081784656
0.0081752708
0.0081719935
0.0081686353
0.0081651977
0.0081616824
0.0081580907
0.0081544243
0.0081506846
0.008146873
0.0081429911
0.0081390403
0.0081350221
0.0081309379
0.0081267891
0.0081225773
0.0081183038
0.0081139701
0.0081095776
0.0081051279
0.0081006222
0.0080960621
0.0080914491
0.0080867845
0.0080820698
0.0080773065
0.008072496
0.0080676397
0.0080627392
0.0080577959
0.0080528113
0.0080477868
0.0080427239
0.0080376241
0.0080324888
0.0080273195
0.0080221178
0.0080168851
0.008011623
0.0080063328
0.0080010162
0.0079956746
0.0079903095
0.0079849225
0.0079795151
0.0079740887
0.007968645
0.0079631854
0.0079577114
0.0079522247
0.0079467266
0.0079412188
0.0079357028
0.0079301801
0.0079246522
0.0079191207
0.0079135871
0.0079080529
0.0079025198
0.0078969891
0.0078914625
0.0078859415
0.0078804276
0.0078749224
0.0078694274
0.0078639441
0.0078584741
0.0078530188
0.00784758
0.0078421586
0.0078367575
0.00809392
0.0080914524
0.0080888396
0.0080861363
0.0080833448
0.0080804669
0.0080775045
0.0080744593
0.0080713331
0.0080681274
0.008064844
0.0080614845
0.0080580505
0.0080545436
0.0080509652
0.0080473171
0.0080436006
0.0080398175
0.008035969
0.0080320568
0.0080280825
0.0080240473
0.008019953
0.0080158009
0.0080115926
0.0080073295
0.0080030131
0.007998645
0.0079942265
0.0079897592
0.0079852446
0.0079806842
0.0079760793
0.0079714316
0.0079667424
0.0079620133
0.0079572458
0.0079524413
0.0079476012
0.0079427272
0.0079378207
0.0079328831
0.007927916
0.0079229208
0.007917899
0.0079128521
0.0079077817
0.0079026891
0.007897576
0.0078924437
0.0078872939
0.0078821279
0.0078769472
0.0078717534
0.007866548
0.0078613324
0.0078561082
0.0078508767
0.0078456395
0.0078403981
0.0078351539
0.0078299085
0.0078246632
0.0078194196
0.0078141791
0.0078089432
0.0078037133
0.0077984909
0.0077932774
0.0077880743
0.007782883
0.007777705
0.0077725416
0.0077673944
0.0077622645
0.0077571538
0.0077520629
0.0077469947
0.0079985809
0.0079961391
0.0079935618
0.0079908975
0.0079881485
0.0079853166
0.0079824038
0.0079794119
0.0079763427
0.0079731979
0.0079699792
0.0079666883
0.0079633269
0.0079598966
0.0079563991
0.0079528359
0.0079492086
0.0079455189
0.0079417682
0.0079379582
0.0079340904
0.0079301663
0.0079261875
0.0079221556