/*--------------------------------*- C++ -*----------------------------------*\
| =========                 |                                                 |
| \\      /  F ield         | OpenFOAM: The Open Source CFD Toolbox           |
|  \\    /   O peration     | Version:  2.4.0                                 |
|   \\  /    A nd           | Web:      www.OpenFOAM.org                      |
|    \\/     M anipulation  |                                                 |
\*---------------------------------------------------------------------------*/
FoamFile
{
    version     2.0;
    format      ascii;
    class       volScalarField;
    location    "10000";
    object      nut;
}
// * * * * * * * * * * * * * * * * * * * * * * * * * * * * * * * * * * * * * //

dimensions      [0 2 -1 0 0 0 0];

internalField   nonuniform List<scalar> 
9742
(
0.021907702
0.021873564
0.021840477
0.021808499
0.021777672
0.021748027
0.021719588
0.021692348
0.021666595
0.022565475
0.022533498
0.022502412
0.022472206
0.022442881
0.022414448
0.022386926
0.022360328
0.022334763
0.023109853
0.023082358
0.023055279
0.023028666
0.023002564
0.022977003
0.022952063
0.022927787
0.022904203
0.023534507
0.023512483
0.023490528
0.023468703
0.023447061
0.023425649
0.023404492
0.023383622
0.023363085
0.023849481
0.023832334
0.023815093
0.023797794
0.023780472
0.02376317
0.02374587
0.023728584
0.023711361
0.024073952
0.024060223
0.024046324
0.024032276
0.024018099
0.02400382
0.023989455
0.023975019
0.023960525
0.024221231
0.024209733
0.024198036
0.024186152
0.024174094
0.024161879
0.024149522
0.02413704
0.024124438
0.024111787
0.024099044
0.024086229
0.024073363
0.024060467
0.024047564
0.02429979
0.024289685
0.024279376
0.024268872
0.024258182
0.024247317
0.024236288
0.024225107
0.024213783
0.02420234
0.024190786
0.024179132
0.024167388
0.024155569
0.024143687
0.024315365
0.024306147
0.024296729
0.024287115
0.024277312
0.024267328
0.024257171
0.02424685
0.024236372
0.02422575
0.024214994
0.024204113
0.024193117
0.024182016
0.024170822
0.024272415
0.024263799
0.02425498
0.024245962
0.024236751
0.024227352
0.024217772
0.024208017
0.024198094
0.024188012
0.024177777
0.024167399
0.024156886
0.024146246
0.024135486
0.024174776
0.024166588
0.024158188
0.024149582
0.024140773
0.024131768
0.02412257
0.024113186
0.024103623
0.024093886
0.024083981
0.024073916
0.024063698
0.024053334
0.024042831
0.024025949
0.024018069
0.024009966
0.024001644
0.023993109
0.023984365
0.023975418
0.023966271
0.023956931
0.023947404
0.023937695
0.02392781
0.023917755
0.023907537
0.023897161
0.023886634
0.023875963
0.023829278
0.023821609
0.023813706
0.023805573
0.023797213
0.023788633
0.023779836
0.023770828
0.023761613
0.023752197
0.023742584
0.023732782
0.023722794
0.023712627
0.023702286
0.023691777
0.023681106
0.023670277
0.023659301
0.023648181
0.023636925
0.023625537
0.023588026
0.023580483
0.023572695
0.023564666
0.0235564
0.023547901
0.023539175
0.023530224
0.023521055
0.023511672
0.02350208
0.023492283
0.023482288
0.023472098
0.023461721
0.02345116
0.023440421
0.02342951
0.023418432
0.023407194
0.023395801
0.023384259
0.023372572
0.023360749
0.023348794
0.023336714
0.023324515
0.023312201
0.02329978
0.023287258
0.023274639
0.023326349
0.023319627
0.023312642
0.023305399
0.023297899
0.023290147
0.023282145
0.023273897
0.023265407
0.023256679
0.023247717
0.023238525
0.023229108
0.023219471
0.023209617
0.023199552
0.02318928
0.023178807
0.023168137
0.023157276
0.023146228
0.023134999
0.023123594
0.023112019
0.023100279
0.023088379
0.023076325
0.023064124
0.02305178
0.023039299
0.023026686
0.023013949
0.023001091
0.022988119
0.023005557
0.022998814
0.022991806
0.022984534
0.022977001
0.022969209
0.022961162
0.022952862
0.022944312
0.022935517
0.02292648
0.022917204
0.022907693
0.022897952
0.022887985
0.022877796
0.022867389
0.02285677
0.022845942
0.022834911
0.022823681
0.022812258
0.022800645
0.02278885
0.022776876
0.022764728
0.022752413
0.022739935
0.0227273
0.022714514
0.022701581
0.022688508
0.0226753
0.022661962
0.022649819
0.022642978
0.022635869
0.022628495
0.022620857
0.022612957
0.022604798
0.022596381
0.022587709
0.022578786
0.022569613
0.022560196
0.022550536
0.022540639
0.022530506
0.022520144
0.022509555
0.022498743
0.022487714
0.022476472
0.02246502
0.022453365
0.02244151
0.02242946
0.022417221
0.022404797
0.022392193
0.022379414
0.022366467
0.022353355
0.022340085
0.022326662
0.022313091
0.022299378
0.022262094
0.022255085
0.022247809
0.022240267
0.022232461
0.02222439
0.022216057
0.022207464
0.022198612
0.022189504
0.022180143
0.022170531
0.022160672
0.022150569
0.022140225
0.022129643
0.022118829
0.022107784
0.022096514
0.022085023
0.022073315
0.022061394
0.022049264
0.022036931
0.022024399
0.022011673
0.021998758
0.021985658
0.02197238
0.021958927
0.021945305
0.02193152
0.021917577
0.02190348
0.021845248
0.021838014
0.021830514
0.021822749
0.021814717
0.021806421
0.02179786
0.021789038
0.021779954
0.021770612
0.021761013
0.02175116
0.021741055
0.021730702
0.021720104
0.021709263
0.021698184
0.02168687
0.021675324
0.021663551
0.021651555
0.021639339
0.021626908
0.021614266
0.021601418
0.021588369
0.021575123
0.021561685
0.02154806
0.021534252
0.021520268
0.021506112
0.02149179
0.021477306
0.021462664
0.021447873
0.021432938
0.021417864
0.021402657
0.021387322
0.021371866
0.021402064
0.021394558
0.021386786
0.021378748
0.021370444
0.021361874
0.02135304
0.021343942
0.021334582
0.021324961
0.021315082
0.021304946
0.021294557
0.021283916
0.021273027
0.021261892
0.021250516
0.0212389
0.021227048
0.021214965
0.021202654
0.021190119
0.021177363
0.021164392
0.02115121
0.02113782
0.021124228
0.021110438
0.021096455
0.021082284
0.02106793
0.021053398
0.021038694
0.021023821
0.021008786
0.020993594
0.020978251
0.020962763
0.020947135
0.020931373
0.020915483
0.020957104
0.020950077
0.020942789
0.020935237
0.02092742
0.020919337
0.020910987
0.02090237
0.020893488
0.02088434
0.020874928
0.020865254
0.020855318
0.020845123
0.020834671
0.020823964
0.020813005
0.020801795
0.020790338
0.020778636
0.020766694
0.020754513
0.020742097
0.020729451
0.020716577
0.02070348
0.020690164
0.020676632
0.02066289
0.020648941
0.020634791
0.020620444
0.020605905
0.020591178
0.020576269
0.020561183
0.020545925
0.020530499
0.020514913
0.02049917
0.020483278
0.020467241
0.020451065
0.020434757
0.020470255
0.020462896
0.020455271
0.020447378
0.020439217
0.02043079
0.020422094
0.020413132
0.020403905
0.020394413
0.020384658
0.02037464
0.020364361
0.020353823
0.020343029
0.02033198
0.020320678
0.020309126
0.020297325
0.020285279
0.020272991
0.020260464
0.0202477
0.020234705
0.02022148
0.020208031
0.020194359
0.02018047
0.02016637
0.020152061
0.020137548
0.020122835
0.020107927
0.02009283
0.020077547
0.020062085
0.020046447
0.02003064
0.020014669
0.019998539
0.019982257
0.019965826
0.019949255
0.019932548
0.019964977
0.019957257
0.019949264
0.019941001
0.01993247
0.019923671
0.019914605
0.019905274
0.019895679
0.019885821
0.0198757
0.019865319
0.019854679
0.019843774
0.019832605
0.019821179
0.019809499
0.019797568
0.019785388
0.019772963
0.019760294
0.019747385
0.01973424
0.019720861
0.019707252
0.019693417
0.019679355
0.019665079
0.019650591
0.019635891
0.019620984
0.019605877
0.019590572
0.019575076
0.019559394
0.019543529
0.019527488
0.019511276
0.019494898
0.019478359
0.019461666
0.019444824
0.01942784
0.019410718
0.019393462
0.019376083
0.019358585
0.019340985
0.019323297
0.019305515
0.019287645
0.019269676
0.019251646
0.019233547
0.019215374
0.019197144
0.019178863
0.019160539
0.019142178
0.019123788
0.019105376
0.019086949
0.019068516
0.019050083
0.019031658
0.019013249
0.018994864
0.018976511
0.018958198
0.018939932
0.01892172
0.018903573
0.018885498
0.018867504
0.018849598
0.01883179
0.019443329
0.019435187
0.019426776
0.019418096
0.019409149
0.019399939
0.019390458
0.019380716
0.019370717
0.019360453
0.019349929
0.019339145
0.019328102
0.019316812
0.019305273
0.019293483
0.019281443
0.019269156
0.019256623
0.019243847
0.01923083
0.019217576
0.019204088
0.019190368
0.019176421
0.019162246
0.019147842
0.01913324
0.019118425
0.019103393
0.019088158
0.019072723
0.019057093
0.019041272
0.019025266
0.019009079
0.018992717
0.018976185
0.018959487
0.01894263
0.01892562
0.018908461
0.01889116
0.018873723
0.018856154
0.018838462
0.018820651
0.018802728
0.018784697
0.018766569
0.018748351
0.018730043
0.018711661
0.018693211
0.018674695
0.018656121
0.018637497
0.01861883
0.018600128
0.018581397
0.018562646
0.018543881
0.01852511
0.018506341
0.018487582
0.01846884
0.018450124
0.018431441
0.0184128
0.018394207
0.018375672
0.018357203
0.018338807
0.018320495
0.018302273
0.018284151
0.018908153
0.018899601
0.018890787
0.018881711
0.018872373
0.018862779
0.018852909
0.018842798
0.018832434
0.018821801
0.018810914
0.018799771
0.018788374
0.018776723
0.018764821
0.01875267
0.018740271
0.018727627
0.01871474
0.018701612
0.018688245
0.018674644
0.018660809
0.018646746
0.018632456
0.018617943
0.018603208
0.018588261
0.018573106
0.018557742
0.018542175
0.018526409
0.018510449
0.0184943
0.018477967
0.018461454
0.018444767
0.018427911
0.018410892
0.018393714
0.018376384
0.018358907
0.018341289
0.018323536
0.018305654
0.018287649
0.018269527
0.018251295
0.018232959
0.018214524
0.018196001
0.018177392
0.018158707
0.018139954
0.018121138
0.018102267
0.018083347
0.018064386
0.018045391
0.01802637
0.01800733
0.017988279
0.017969224
0.017950173
0.017931134
0.017912115
0.017893124
0.017874168
0.017855256
0.017836396
0.017817596
0.017798864
0.017780209
0.017761639
0.017743162
0.017724788
0.018361512
0.018352548
0.018343331
0.018333861
0.018324136
0.018314158
0.01830392
0.01829343
0.01828269
0.018271693
0.018260443
0.018248942
0.018237189
0.018225186
0.018212934
0.018200436
0.018187693
0.018174708
0.018161482
0.018148018
0.018134319
0.018120387
0.018106225
0.018091836
0.018077224
0.018062391
0.018047341
0.018032079
0.018016609
0.018000934
0.017985059
0.017968987
0.017952724
0.017936274
0.017919642
0.017902833
0.017885852
0.017868704
0.017851395
0.01783393
0.017816314
0.017798555
0.017780656
0.017762625
0.017744467
0.017726189
0.017707796
0.017689296
0.017670694
0.017651996
0.017633212
0.017614345
0.017595405
0.017576397
0.017557329
0.017538209
0.017519043
0.017499838
0.017480602
0.017461343
0.017442068
0.017422784
0.017403499
0.017384221
0.017364958
0.017345718
0.017326508
0.017307337
0.017288213
0.017269143
0.017250137
0.017231201
0.017212346
0.017193579
0.017174908
0.017156343
0.017805392
0.01779605
0.017786462
0.017776626
0.01776654
0.017756205
0.017745616
0.017734776
0.017723687
0.017712348
0.017700758
0.01768892
0.017676833
0.017664501
0.017651923
0.017639101
0.017626038
0.017612735
0.017599195
0.017585421
0.017571413
0.017557177
0.017542713
0.017528026
0.017513118
0.017497994
0.017482656
0.017467108
0.017451354
0.0174354
0.017419248
0.017402903
0.017386369
0.017369652
0.017352755
0.017335685
0.017318446
0.017301043
0.017283482
0.017265768
0.017247907
0.017229905
0.017211767
0.017193499
0.017175108
0.0171566
0.01713798
0.017119256
0.017100434
0.01708152
0.017062522
0.017043445
0.017024298
0.017005086
0.016985817
0.016966499
0.016947138
0.016927743
0.016908319
0.016888875
0.016869418
0.016849957
0.016830497
0.016811048
0.016791618
0.016772213
0.016752842
0.016733513
0.016714234
0.016695013
0.016675859
0.016656779
0.016637783
0.016618877
0.016600072
0.016581376
0.017241884
0.017232216
0.017222303
0.017212143
0.017201735
0.017191078
0.017180173
0.017169018
0.017157615
0.017145965
0.017134068
0.017121924
0.017109537
0.017096905
0.017084032
0.017070919
0.017057567
0.017043979
0.017030157
0.017016104
0.017001822
0.016987313
0.016972582
0.01695763
0.016942462
0.01692708
0.016911488
0.016895691
0.016879691
0.016863494
0.016847102
0.016830522
0.016813757
0.016796812
0.016779691
0.016762401
0.016744945
0.016727329
0.016709559
0.01669164
0.016673577
0.016655377
0.016637045
0.016618587
0.016600009
0.016581318
0.01656252
0.016543621
0.016524628
0.016505547
0.016486385
0.016467149
0.016447845
0.016428482
0.016409065
0.016389602
0.016370101
0.016350568
0.016331011
0.016311438
0.016291855
0.016272271
0.016252694
0.01623313
0.016213588
0.016194076
0.016174601
0.016155172
0.016135797
0.016116483
0.016097239
0.016078074
0.016058994
0.01604001
0.016021128
0.016002359
0.016673077
0.016663138
0.01665295
0.016642513
0.016631828
0.016620894
0.016609713
0.016598284
0.016586609
0.016574688
0.016562523
0.016550114
0.016537464
0.016524572
0.016511443
0.016498076
0.016484474
0.01647064
0.016456575
0.016442282
0.016427764
0.016413024
0.016398064
0.016382889
0.0163675
0.016351902
0.016336098
0.016320093
0.016303889
0.016287491
0.016270904
0.016254132
0.01623718
0.016220051
0.016202752
0.016185286
0.01616766
0.016149878
0.016131946
0.016113869
0.016095653
0.016077303
0.016058826
0.016040228
0.016021514
0.016002691
0.015983765
0.015964743
0.01594563
0.015926435
0.015907162
0.01588782
0.015868414
0.015848953
0.015829442
0.01580989
0.015790303
0.015770688
0.015751054
0.015731407
0.015711755
0.015692106
0.015672467
0.015652846
0.01563325
0.015613687
0.015594166
0.015574695
0.01555528
0.015535931
0.015516655
0.015497461
0.015478356
0.015459349
0.015440449
0.015421664
0.016101036
0.016090875
0.016080461
0.016069796
0.016058882
0.016047719
0.016036308
0.016024651
0.016012749
0.016000603
0.015988214
0.015975585
0.015962716
0.015949609
0.015936267
0.015922691
0.015908884
0.015894848
0.015880584
0.015866097
0.015851388
0.015836461
0.015821319
0.015805964
0.015790401
0.015774633
0.015758664
0.015742497
0.015726136
0.015709586
0.015692851
0.015675936
0.015658844
0.015641581
0.015624152
0.015606561
0.015588815
0.015570917
0.015552873
0.01553469
0.015516372
0.015497925
0.015479356
0.015460669
0.015441872
0.015422971
0.015403971
0.015384879
0.015365701
0.015346445
0.015327117
0.015307723
0.015288271
0.015268767
0.015249219
0.015229633
0.015210016
0.015190377
0.015170721
0.015151058
0.015131393
0.015111735
0.015092091
0.015072469
0.015052876
0.015033321
0.01501381
0.014994352
0.014974956
0.014955627
0.014936376
0.01491721
0.014898136
0.014879164
0.0148603
0.014841556
0.015527774
0.015517437
0.015506845
0.015496001
0.015484906
0.015473562
0.015461972
0.015450135
0.015438054
0.015425732
0.015413169
0.015400367
0.015387328
0.015374055
0.015360549
0.015346813
0.015332848
0.015318659
0.015304246
0.015289613
0.015274762
0.015259698
0.015244422
0.015228939
0.015213252
0.015197364
0.015181279
0.015165001
0.015148534
0.015131883
0.015115052
0.015098044
0.015080866
0.015063521
0.015046015
0.015028352
0.015010538
0.014992577
0.014974476
0.01495624
0.014937875
0.014919385
0.014900778
0.014882058
0.014863233
0.014844308
0.014825289
0.014806183
0.014786997
0.014767736
0.014748408
0.014729019
0.014709576
0.014690086
0.014670556
0.014650993
0.014631403
0.014611795
0.014592176
0.014572552
0.014552931
0.014533321
0.014513728
0.014494162
0.014474628
0.014455136
0.014435692
0.014416304
0.01439698
0.014377729
0.014358557
0.014339473
0.014320485
0.014301601
0.014282829
0.014264178
0.01495524
0.014944773
0.01493405
0.014923075
0.014911849
0.014900374
0.014888653
0.014876687
0.014864479
0.01485203
0.014839343
0.01482642
0.014813263
0.014799875
0.014786256
0.014772411
0.014758342
0.01474405
0.01472954
0.014714813
0.014699874
0.014684724
0.014669368
0.014653809
0.01463805
0.014622095
0.014605948
0.014589614
0.014573095
0.014556396
0.014539522
0.014522477
0.014505267
0.014487894
0.014470366
0.014452685
0.014434859
0.014416891
0.014398788
0.014380555
0.014362197
0.014343721
0.014325131
0.014306435
0.014287637
0.014268745
0.014249764
0.0142307
0.014211561
0.014192352
0.014173081
0.014153753
0.014134376
0.014114957
0.014095501
0.014076017
0.014056511
0.01403699
0.014017462
0.013997934
0.013978413
0.013958906
0.013939421
0.013919965
0.013900546
0.013881171
0.013861848
0.013842584
0.013823388
0.013804267
0.013785228
0.01376628
0.01374743
0.013728687
0.013710058
0.013691553
0.014385309
0.014374758
0.014363952
0.014352893
0.014341585
0.014330029
0.014318228
0.014306184
0.0142939
0.014281377
0.014268619
0.014255628
0.014242405
0.014228954
0.014215276
0.014201376
0.014187255
0.014172915
0.014158361
0.014143596
0.014128621
0.014113441
0.014098059
0.014082478
0.014066703
0.014050736
0.014034582
0.014018246
0.01400173
0.013985039
0.013968179
0.013951152
0.013933965
0.013916621
0.013899126
0.013881484
0.013863702
0.013845783
0.013827734
0.01380956
0.013791267
0.01377286
0.013754344
0.013735727
0.013717014
0.013698211
0.013679324
0.013660359
0.013641323
0.013622223
0.013603064
0.013583853
0.013564598
0.013545304
0.013525979
0.013506629
0.013487262
0.013467884
0.013448502
0.013429124
0.013409757
0.013390408
0.013371083
0.013351792
0.01333254
0.013313336
0.013294186
0.013275099
0.013256082
0.013237143
0.013218288
0.013199527
0.013180866
0.013162313
0.013143877
0.013125565
0.013819778
0.013809189
0.013798347
0.013787253
0.013775912
0.013764324
0.013752494
0.013740423
0.013728114
0.01371557
0.013702793
0.013689786
0.013676551
0.013663091
0.013649409
0.013635507
0.013621388
0.013607056
0.013592513
0.013577763
0.013562808
0.013547652
0.0135323
0.013516753
0.013501017
0.013485094
0.013468989
0.013452706
0.013436249
0.013419623
0.013402831
0.013385879
0.013368771
0.013351512
0.013334107
0.01331656
0.013298878
0.013281064
0.013263126
0.013245067
0.013226894
0.013208612
0.013190227
0.013171745
0.013153171
0.013134513
0.013115775
0.013096965
0.013078088
0.01305915
0.013040159
0.01302112
0.013002041
0.012982927
0.012963787
0.012944625
0.01292545
0.012906267
0.012887085
0.01286791
0.012848749
0.012829609
0.012810498
0.012791422
0.012772388
0.012753405
0.01273448
0.012715619
0.01269683
0.012678121
0.012659499
0.012640972
0.012622548
0.012604233
0.012586035
0.012567964
0.013260356
0.013249775
0.013238944
0.013227863
0.013216537
0.013204968
0.013193158
0.013181111
0.013168829
0.013156315
0.013143572
0.013130601
0.013117407
0.013103991
0.013090357
0.013076508
0.013062446
0.013048175
0.013033697
0.013019017
0.013004137
0.012989061
0.012973793
0.012958336
0.012942693
0.01292687
0.012910869
0.012894695
0.012878353
0.012861846
0.012845178
0.012828356
0.012811383
0.012794263
0.012777003
0.012759607
0.012742079
0.012724426
0.012706653
0.012688764
0.012670766
0.012652664
0.012634464
0.012616171
0.012597792
0.012579332
0.012560797
0.012542195
0.012523529
0.012504808
0.012486037
0.012467223
0.012448372
0.012429491
0.012410586
0.012391664
0.012372732
0.012353796
0.012334864
0.012315942
0.012297037
0.012278156
0.012259306
0.012240494
0.012221727
0.012203013
0.012184359
0.012165771
0.012147257
0.012128825
0.012110481
0.012092233
0.012074089
0.012056055
0.01203814
0.012020351
0.01270866
0.012698134
0.012687359
0.012676339
0.012665076
0.012653573
0.012641833
0.01262986
0.012617654
0.012605221
0.012592562
0.012579679
0.012566577
0.012553258
0.012539725
0.01252598
0.012512028
0.012497871
0.012483512
0.012468955
0.012454203
0.01243926
0.01242413
0.012408815
0.012393321
0.01237765
0.012361807
0.012345796
0.012329622
0.012313288
0.012296799
0.01228016
0.012263375
0.012246449
0.012229387
0.012212194
0.012194875
0.012177435
0.01215988
0.012142214
0.012124443
0.012106573
0.01208861
0.012070559
0.012052425
0.012034216
0.012015935
0.011997591
0.011979189
0.011960734
0.011942234
0.011923694
0.011905121
0.011886521
0.011867901
0.011849267
0.011830626
0.011811985
0.01179335
0.011774728
0.011756125
0.011737549
0.011719006
0.011700504
0.011682049
0.011663648
0.011645308
0.011627037
0.011608841
0.011590728
0.011572704
0.011554777
0.011536954
0.011519243
0.01150165
0.011484184
0.01216621
0.012155782
0.012145109
0.012134194
0.01212304
0.01211165
0.012100028
0.012088175
0.012076094
0.01206379
0.012051263
0.012038519
0.012025558
0.012012385
0.011999003
0.011985413
0.011971621
0.011957629
0.011943439
0.011929057
0.011914484
0.011899726
0.011884784
0.011869664
0.011854368
0.011838902
0.011823268
0.011807472
0.011791516
0.011775407
0.011759147
0.011742742
0.011726197
0.011709515
0.011692702
0.011675763
0.011658702
0.011641526
0.011624238
0.011606845
0.011589351
0.011571763
0.011554086
0.011536324
0.011518485
0.011500574
0.011482596
0.011464558
0.011446466
0.011428325
0.011410142
0.011391923
0.011373673
0.011355401
0.011337111
0.01131881
0.011300505
0.011282202
0.011263908
0.011245629
0.011227372
0.011209144
0.01119095
0.011172799
0.011154697
0.01113665
0.011118665
0.01110075
0.011082912
0.011065156
0.011047491
0.011029923
0.011012458
0.010995106
0.010977871
0.010960763
0.011634416
0.011624129
0.0116136
0.011602834
0.011591833
0.0115806
0.011569139
0.011557452
0.011545541
0.011533411
0.011521064
0.011508503
0.011495731
0.011482751
0.011469567
0.01145618
0.011442595
0.011428815
0.011414843
0.011400683
0.011386338
0.011371811
0.011357107
0.011342229
0.011327181
0.011311966
0.01129659
0.011281055
0.011265367
0.01124953
0.011233547
0.011217424
0.011201165
0.011184774
0.011168257
0.011151619
0.011134864
0.011117997
0.011101023
0.011083949
0.011066778
0.011049517
0.01103217
0.011014744
0.010997244
0.010979676
0.010962044
0.010944356
0.010926617
0.010908833
0.01089101
0.010873154
0.010855271
0.010837367
0.010819449
0.010801522
0.010783594
0.010765669
0.010747756
0.010729859
0.010711987
0.010694144
0.010676338
0.010658576
0.010640863
0.010623207
0.010605614
0.010588092
0.010570645
0.010553283
0.01053601
0.010518835
0.010501763
0.010484802
0.010467959
0.010451241
0.01111458
0.011104471
0.011094127
0.011083549
0.011072742
0.011061707
0.011050448
0.011038968
0.01102727
0.011015356
0.011003231
0.010990896
0.010978356
0.010965612
0.010952669
0.010939529
0.010926195
0.010912671
0.010898961
0.010885066
0.010870992
0.010856742
0.010842319
0.010827727
0.01081297
0.010798052
0.010782976
0.010767748
0.01075237
0.010736848
0.010721186
0.010705388
0.010689458
0.010673402
0.010657224
0.010640929
0.010624521
0.010608006
0.010591389
0.010574675
0.010557868
0.010540975
0.010524001
0.01050695
0.010489829
0.010472644
0.010455399
0.0104381
0.010420753
0.010403365
0.01038594
0.010368485
0.010351006
0.010333508
0.010315998
0.010298482
0.010280966
0.010263456
0.010245959
0.01022848
0.010211026
0.010193604
0.01017622
0.010158879
0.01014159
0.010124357
0.010107188
0.010090089
0.010073067
0.010056128
0.010039279
0.010022526
0.010005877
0.009989337
0.0099729134
0.0099566145
0.010607879
0.010597986
0.010587861
0.010577508
0.01056693
0.01055613
0.01054511
0.010533875
0.010522427
0.010510768
0.010498903
0.010486834
0.010474563
0.010462095
0.010449432
0.010436577
0.010423534
0.010410305
0.010396895
0.010383307
0.010369543
0.010355609
0.010341506
0.01032724
0.010312813
0.01029823
0.010283495
0.010268612
0.010253584
0.010238416
0.010223113
0.010207679
0.010192117
0.010176433
0.010160632
0.010144718
0.010128695
0.01011257
0.010096346
0.010080028
0.010063623
0.010047134
0.010030568
0.010013929
0.0099972224
0.0099804546
0.0099636305
0.0099467558
0.009929836
0.0099128769
0.0098958841
0.0098788634
0.0098618206
0.0098447617
0.0098276924
0.0098106189
0.009793547
0.0097764828
0.0097594324
0.0097424019
0.0097253975
0.0097084253
0.0096914915
0.0096746025
0.0096577643
0.0096409835
0.0096242662
0.0096076188
0.0095910478
0.0095745594
0.0095581601
0.0095418565
0.0095256547
0.0095095617
0.009493583
0.0094777274
0.010115368
0.010105721
0.010095847
0.01008575
0.010075434
0.0100649
0.010054153
0.010043196
0.01003203
0.01002066
0.010009088
0.0099973175
0.0099853511
0.0099731919
0.0099608432
0.0099483079
0.0099355894
0.0099226909
0.0099096158
0.0098963673
0.0098829489
0.0098693642
0.0098556167
0.0098417102
0.0098276483
0.0098134349
0.0097990739
0.0097845692
0.009769925
0.0097551454
0.0097402345
0.0097251968
0.0097100365
0.0096947582
0.0096793663
0.0096638656
0.0096482606
0.0096325562
0.0096167572
0.0096008685
0.0095848951
0.009568842
0.0095527144
0.0095365175
0.0095202565
0.0095039366
0.0094875634
0.0094711421
0.0094546783
0.0094381775
0.0094216453
0.0094050874
0.0093885093
0.0093719168
0.0093553157
0.0093387118
0.009322111
0.009305519
0.0092889418
0.0092723854
0.0092558558
0.009239359
0.0092229009
0.0092064878
0.0091901256
0.0091738205
0.0091575787
0.0091414063
0.0091253096
0.0091092946
0.0090933677
0.0090775352
0.0090618031
0.0090461782
0.0090306656
0.0090152742
0.0096558166
0.0096471195
0.0096379674
0.0096285916
0.0096189954
0.0096091818
0.0095991541
0.0095889152
0.0095784681
0.0095678159
0.0095569614
0.0095459077
0.0095346576
0.0095232141
0.0095115802
0.0094997589
0.0094877533
0.0094755664
0.0094632015
0.0094506618
0.0094379504
0.0094250708
0.0094120263
0.0093988204
0.0093854566
0.0093719386
0.00935827
0.0093444546
0.0093304962
0.0093163988
0.0093021662
0.0092878026
0.0092733122
0.009258699
0.0092439675
0.009229122
0.0092141668
0.0091991067
0.009183946
0.0091686895
0.009153342
0.0091379082
0.009122393
0.0091068013
0.0090911381
0.0090754086
0.0090596177
0.0090437707
0.0090278729
0.0090119294
0.0089959457
0.0089799272
0.0089638792
0.0089478073
0.008931717
0.0089156139
0.0088995035
0.0088833916
0.0088672838
0.0088511859
0.0088351035
0.0088190426
0.0088030088
0.0087870081
0.0087710464
0.0087551295
0.0087392633
0.0087234539
0.0087077071
0.0086920291
0.0086764257
0.008660903
0.0086454671
0.008630124
0.0086148797
0.0085997408
0.0085847121
0.0085698024
0.0091937614
0.0091853269
0.0091764614
0.0091673783
0.0091580808
0.009148572
0.0091388549
0.0091289324
0.0091188076
0.0091084832
0.0090979623
0.0090872477
0.0090763423
0.0090652489
0.0090539706
0.0090425103
0.009030871
0.0090190557
0.0090070676
0.0089949098
0.0089825854
0.0089700979
0.0089574504
0.0089446464
0.0089316894
0.008918583
0.0089053306
0.008891936
0.0088784029
0.0088647353
0.0088509369
0.0088370117
0.0088229638
0.0088087974
0.0087945165
0.0087801255
0.0087656287
0.0087510306
0.0087363355
0.0087215482
0.008706673
0.0086917149
0.0086766784
0.0086615684
0.0086463899
0.0086311477
0.0086158468
0.0086004922
0.0085850892
0.0085696427
0.0085541581
0.0085386406
0.0085230955
0.008507528
0.0084919437
0.0084763479
0.0084607461
0.0084451438
0.0084295465
0.0084139598
0.0083983893
0.0083828406
0.0083673194
0.0083518313
0.0083363821
0.0083209776
0.0083056234
0.0082903253
0.0082750892
0.0082599208
0.008244826
0.0082298107
0.0082148806
0.0082000418
0.0081852999
0.0081706613
0.0081561308
0.0081417168
0.0087482135
0.0087400577
0.0087314945
0.00872272
0.0087137373
0.0087045494
0.0086951593
0.0086855699
0.008675784
0.0086658044
0.0086556341
0.0086452757
0.0086347321
0.0086240062
0.0086131009
0.0086020189
0.0085907633
0.008579337
0.0085677431
0.0085559847
0.0085440648
0.0085319867
0.0085197536
0.0085073688
0.0084948359
0.0084821581
0.008469339
0.0084563823
0.0084432915
0.0084300705
0.008416723
0.0084032529
0.0083896641
0.0083759607
0.0083621468
0.0083482266
0.0083342042
0.008320084
0.0083058703
0.0082915675
0.0082771803
0.0082627131
0.0082481706
0.0082335574
0.0082188784
0.0082041383
0.0081893419
0.0081744943
0.0081596003
0.0081446651
0.0081296936
0.0081146909
0.0080996623
0.008084613
0.0080695481
0.008054473
0.0080393929
0.0080243132
0.0080092393
0.0079941767
0.0079791307
0.0079641068
0.0079491105
0.0079341474
0.007919223
0.0079043428
0.0078895125
0.0078747377
0.007860024
0.007845377
0.0078308024
0.0078163059
0.0078018931
0.0077875698
0.0077733415
0.0077592145
0.0077451932
0.0077312859
0.0083196869
0.0083118207
0.00830357
0.0082951145
0.0082864573
0.0082776012
0.0082685491
0.0082593038
0.008249868
0.0082402446
0.0082304362
0.0082204455
0.0082102754
0.0081999285
0.0081894077
0.0081787157
0.0081678555
0.00815683
0.008145642
0.0081342946
0.0081227908
0.0081111338
0.0080993267
0.0080873728
0.0080752753
0.0080630377
0.0080506634
0.0080381558
0.0080255186
0.0080127554
0.0079998699
0.0079868659
0.0079737473
0.0079605179
0.0079471817
0.0079337429
0.0079202055
0.0079065737
0.0078928517
0.007879044
0.0078651549
0.0078511888
0.0078371502
0.0078230437
0.007808874
0.0077946457
0.0077803636
0.0077660324
0.007751657
0.0077372423
0.0077227931
0.0077083146
0.0076938117
0.0076792894
0.0076647529
0.0076502073
0.0076356578
0.0076211095
0.0076065678
0.0075920378
0.0075775248
0.0075630343
0.0075485714
0.0075341417
0.0075197504
0.007505403
0.007491105
0.0074768617
0.0074626786
0.0074485612
0.007434515
0.0074205455
0.0074066581
0.0073928586
0.007379152
0.0073655447
0.0073520408
0.0073386483
0.0079085541
0.0079009833
0.0078930502
0.007884919
0.0078765925
0.0078680736
0.0078593651
0.0078504696
0.0078413897
0.0078321282
0.0078226877
0.0078130707
0.00780328
0.0077933182
0.007783188
0.0077728922
0.0077624335
0.0077518148
0.0077410388
0.0077301086
0.0077190271
0.0077077972
0.0076964222
0.0076849051
0.0076732493
0.0076614578
0.0076495341
0.0076374817
0.0076253039
0.0076130044
0.0076005867
0.0075880545
0.0075754116
0.0075626618
0.0075498089
0.007536857
0.00752381
0.007510672
0.0074974472
0.0074841397
0.0074707539
0.0074572941
0.0074437646
0.00743017
0.0074165146
0.0074028032
0.0073890402
0.0073752304
0.0073613785
0.0073474892
0.0073335673
0.0073196177
0.0073056453
0.007291655
0.0072776517
0.0072636404
0.0072496262
0.0072356141
0.0072216093
0.0072076167
0.0071936417
0.0071796893
0.0071657648
0.0071518733
0.00713802
0.0071242104
0.0071104495
0.0070967427
0.0070830953
0.0070695127
0.007056
0.0070425627
0.007029206
0.0070159355
0.007002756
0.0069896738
0.0069766928
0.0069638208
0.0075150482
0.0075077737
0.0075001582
0.0074923513
0.0074843559
0.0074761745
0.00746781
0.0074592647
0.0074505414
0.0074416424
0.0074325704
0.0074233279
0.0074139174
0.0074043415
0.0073946028
0.0073847039
0.0073746476
0.0073644365
0.0073540735
0.0073435613
0.0073329029
0.0073221011
0.007311159
0.0073000797
0.0072888662
0.0072775217
0.0072660495
0.007254453
0.0072427354
0.0072309003
0.0072189511
0.0072068915
0.0071947251
0.0071824556
0.0071700867
0.0071576224
0.0071450665
0.007132423
0.007119696
0.0071068895
0.0070940077
0.0070810548
0.0070680351
0.007054953
0.0070418127
0.0070286189
0.0070153758
0.0070020882
0.0069887605
0.0069753975
0.0069620037
0.006948584
0.006935143
0.0069216855
0.0069082165
0.0068947407
0.006881263
0.0068677883
0.0068543216
0.006840868
0.0068274323
0.0068140196
0.0068006349
0.0067872834
0.00677397
0.0067606999