/*--------------------------------*- C++ -*----------------------------------*\
| =========                 |                                                 |
| \\      /  F ield         | OpenFOAM: The Open Source CFD Toolbox           |
|  \\    /   O peration     | Version:  2.4.0                                 |
|   \\  /    A nd           | Web:      www.OpenFOAM.org                      |
|    \\/     M anipulation  |                                                 |
\*---------------------------------------------------------------------------*/
FoamFile
{
    version     2.0;
    format      ascii;
    class       volScalarField;
    location    "10000";
    object      p;
}
// * * * * * * * * * * * * * * * * * * * * * * * * * * * * * * * * * * * * * //

dimensions      [0 2 -2 0 0 0 0];

internalField   nonuniform List<scalar> 
9742
(
0.13353807
0.13388227
0.13425214
0.13464813
0.13507061
0.1355198
0.13599583
0.13649875
0.1370285
0.13445809
0.13480864
0.13518372
0.13558379
0.13600918
0.13646012
0.13693675
0.13743911
0.13796715
0.13533618
0.1356914
0.13607027
0.13647317
0.13690042
0.13735222
0.13782873
0.13833
0.13885602
0.13617416
0.13653261
0.13691396
0.13731855
0.13774666
0.13819848
0.13867414
0.13917371
0.1396972
0.13697269
0.13733328
0.1377161
0.13812146
0.1385496
0.13900071
0.1394749
0.13997223
0.14049272
0.13773213
0.13809398
0.13847747
0.13888287
0.13931041
0.13976025
0.14023249
0.14072719
0.14124436
0.13845302
0.13881541
0.13919891
0.13960378
0.14003022
0.14047837
0.14094832
0.14144012
0.14195377
0.14248923
0.14304641
0.14362518
0.14422536
0.14484675
0.14548913
0.13913626
0.1394986
0.13988159
0.14028547
0.14071041
0.14115655
0.14162394
0.14211264
0.14262264
0.14315389
0.14370628
0.14427971
0.14487399
0.14548894
0.14612433
0.13978302
0.14014482
0.14052688
0.1409294
0.14135253
0.14179639
0.14226104
0.1427465
0.14325275
0.14377975
0.14432739
0.14489555
0.14548407
0.14609275
0.14672137
0.14039464
0.1407555
0.14113627
0.14153712
0.1419582
0.14239959
0.14286133
0.14334345
0.14384592
0.14436867
0.14491161
0.14547461
0.1460575
0.14666009
0.14728217
0.14097254
0.14133212
0.14171131
0.14211026
0.14252908
0.14296784
0.14342658
0.14390529
0.14440395
0.14492248
0.14546078
0.14601872
0.14659614
0.14719284
0.14780861
0.14151816
0.14187619
0.14225357
0.14265041
0.14306681
0.14350283
0.14395848
0.14443376
0.14492861
0.14544296
0.14597671
0.14652971
0.14710181
0.14769281
0.1483025
0.14893063
0.14957694
0.14203294
0.1423892
0.14276458
0.14315916
0.14357303
0.14400622
0.14445874
0.14493056
0.14542163
0.14593186
0.14646114
0.14700934
0.14757628
0.14816177
0.1487656
0.14938753
0.15002729
0.1506846
0.15135915
0.15205061
0.15275865
0.1534829
0.14251831
0.14287263
0.14324585
0.14363806
0.1440493
0.14447961
0.14492897
0.14539735
0.14588467
0.14639086
0.14691578
0.1474593
0.14802125
0.14860143
0.14919963
0.1498156
0.15044909
0.15109981
0.15176746
0.15245172
0.15315226
0.15386871
0.15460072
0.1553479
0.15610984
0.15688615
0.15767639
0.15848013
0.15929692
0.16012632
0.16096787
0.14203044
0.14232704
0.14264208
0.14297566
0.1433279
0.14369886
0.14408861
0.14449717
0.14492457
0.14537077
0.14583573
0.14631936
0.14682158
0.14734226
0.14788124
0.14843836
0.14901342
0.1496062
0.15021646
0.15084394
0.15148837
0.15214944
0.15282684
0.15352023
0.15422928
0.15495361
0.15569285
0.1564466
0.15721446
0.15799602
0.15879085
0.15959851
0.16041856
0.16125055
0.14246693
0.14276171
0.14307482
0.14340636
0.14375641
0.14412503
0.14451227
0.14491813
0.1453426
0.14578566
0.14624723
0.14672725
0.14722559
0.14774213
0.14827672
0.14882917
0.1493993
0.14998687
0.15059166
0.1512134
0.15185182
0.15250661
0.15317747
0.15386408
0.15456607
0.15528311
0.15601481
0.15676079
0.15752065
0.15829398
0.15908037
0.15987938
0.16069058
0.16151352
0.14287841
0.14317124
0.14348233
0.14381174
0.14415954
0.14452577
0.14491045
0.14531359
0.14573515
0.14617509
0.14663334
0.14710981
0.14760438
0.14811691
0.14864724
0.14919519
0.14976057
0.15034315
0.1509427
0.15155895
0.15219162
0.15284043
0.15350507
0.1541852
0.1548805
0.1555906
0.15631515
0.15705375
0.15780602
0.15857156
0.15934995
0.16014076
0.16094358
0.16175796
0.14326609
0.14355688
0.14386586
0.14419308
0.14453858
0.1449024
0.14528452
0.14568494
0.14610361
0.14654049
0.14699548
0.14746848
0.14795937
0.14846801
0.14899423
0.14953786
0.15009867
0.15067646
0.15127099
0.15188198
0.15250918
0.15315228
0.15381099
0.15448497
0.1551739
0.15587742
0.15659517
0.15732677
0.15807185
0.15882999
0.1596008
0.16038386
0.16117874
0.16198501
0.14363114
0.14391982
0.14422665
0.14455164
0.14489483
0.14525621
0.14563578
0.1460335
0.14644933
0.14688319
0.14733499
0.14780461
0.14829194
0.14879682
0.14931908
0.14985852
0.15041496
0.15098816
0.15157787
0.15218385
0.15280582
0.15344348
0.15409654
0.15476467
0.15544754
0.15614481
0.15685611
0.15758107
0.15831932
0.15907046
0.15983409
0.1606098
0.16139716
0.16219576
0.16300515
0.16382491
0.16465457
0.16549367
0.16634176
0.16719839
0.16806308
0.1439747
0.14426124
0.14456588
0.14488863
0.14522949
0.14558845
0.14596548
0.14636054
0.14677357
0.14720448
0.14765316
0.14811951
0.14860339
0.14910463
0.14962306
0.1501585
0.15071073
0.15127953
0.15186465
0.15246583
0.15308281
0.15371529
0.15436297
0.15502553
0.15570265
0.15639397
0.15709915
0.15781781
0.15854959
0.15929409
0.16005091
0.16081965
0.1615999
0.16239123
0.16319322
0.16400543
0.16482741
0.16565871
0.16649889
0.16734748
0.16820403
0.14355247
0.14378268
0.14403145
0.14429787
0.14458226
0.14488471
0.14520521
0.14554375
0.14590031
0.14627484
0.14666728
0.14707756
0.14750559
0.14795125
0.14841442
0.14889495
0.14939268
0.14990744
0.15043902
0.15098721
0.1515518
0.15213252
0.15272913
0.15334135
0.15396889
0.15461145
0.15526872
0.15594036
0.15662604
0.15732541
0.15803809
0.15876373
0.15950193
0.1602523
0.16101445
0.16178796
0.16257241
0.16336739
0.16417245
0.16498717
0.1658111
0.16664378
0.16748478
0.16833363
0.14386282
0.1440909
0.14433747
0.14460173
0.14488395
0.14518422
0.14550249
0.14583873
0.14619292
0.14656499
0.14695486
0.14736246
0.14778769
0.14823041
0.1486905
0.14916781
0.14966216
0.15017337
0.15070125
0.15124559
0.15180614
0.15238266
0.1529749
0.15358258
0.15420542
0.1548431
0.15549533
0.15616177
0.15684209
0.15753594
0.15824295
0.15896276
0.159695
0.16043926
0.16119515
0.16196227
0.16274021
0.16352855
0.16432686
0.1651347
0.16595164
0.16677724
0.16761105
0.16845263
0.14415488
0.14438082
0.14462519
0.1448873
0.14516738
0.14546547
0.14578153
0.14611552
0.14646737
0.14683703
0.1472244
0.14762939
0.14805189
0.14849176
0.14894887
0.14942307
0.14991416
0.15042198
0.15094631
0.15148694
0.15204363
0.15261614
0.15320421
0.15380757
0.15442592
0.15505897
0.1557064
0.1563679
0.15704313
0.15773174
0.15843337
0.15914765
0.15987422
0.16061269
0.16136266
0.16212374
0.16289551
0.16367756
0.16446947
0.16527081
0.16608114
0.16690004
0.16772706
0.16856174
0.16940365
0.17025234
0.17110733
0.17196818
0.17283442
0.1737056
0.17458125
0.17546091
0.17634412
0.17723041
0.17811931
0.17901037
0.17990312
0.1807971
0.18169185
0.18258691
0.18348182
0.18437614
0.18526939
0.18616115
0.18705095
0.18793836
0.18882292
0.1897042
0.19058176
0.19145517
0.19232401
0.19318783
0.19404621
0.19489873
0.19574498
0.19658453
0.14442959
0.14465339
0.14489559
0.14515557
0.14543353
0.14572948
0.14604337
0.14637513
0.1467247
0.147092
0.14747693
0.14787938
0.14829924
0.14873636
0.1491906
0.1496618
0.15014977
0.15065432
0.15117525
0.15171233
0.15226534
0.15283401
0.15341811
0.15401734
0.15463142
0.15526006
0.15590294
0.15655974
0.15723013
0.15791377
0.15861029
0.15931934
0.16004054
0.16077352
0.16151788
0.16227323
0.16303916
0.16381526
0.16460111
0.1653963
0.16620039
0.16701294
0.16783353
0.16866171
0.16949703
0.17033905
0.17118732
0.17204137
0.17290076
0.17376503
0.17463373
0.17550638
0.17638254
0.17726173
0.17814352
0.17902742
0.17991299
0.18079977
0.1816873
0.18257512
0.18346278
0.18434983
0.18523583
0.18612031
0.18700284
0.18788298
0.18876028
0.1896343
0.19050462
0.19137079
0.1922324
0.19308901
0.19394019
0.19478554
0.19562462
0.19645703
0.14468787
0.14490955
0.14514961
0.14540749
0.14568336
0.14597722
0.14628898
0.14661857
0.14696591
0.14733092
0.14771348
0.14811347
0.14853077
0.14896524
0.14941671
0.14988502
0.15036999
0.15087141
0.15138908
0.15192278
0.15247226
0.15303728
0.15361758
0.15421289
0.15482291
0.15544735
0.1560859
0.15673824
0.15740404
0.15808295
0.15877463
0.15947871
0.16019483
0.1609226
0.16166165
0.16241157
0.16317197
0.16394244
0.16472256
0.16551193
0.1663101
0.16711666
0.16793117
0.16875319
0.16958228
0.170418
0.1712599
0.17210754
0.17296045
0.17381819
0.1746803
0.17554633
0.17641583
0.17728833
0.17816338
0.17904053
0.17991931
0.18079928
0.18167999
0.18256097
0.18344179
0.18432198
0.18520111
0.18607873
0.18695439
0.18782766
0.1886981
0.18956527
0.19042874
0.19128808
0.19214286
0.19299266
0.19383705
0.19467562
0.19550795
0.19633362
0.1449306
0.1451502
0.14538816
0.14564398
0.14591782
0.14620961
0.14651929
0.14684677
0.14719195
0.14755473
0.14793499
0.14833261
0.14874745
0.14917935
0.14962816
0.1500937
0.15057579
0.15107421
0.15158876
0.15211922
0.15266534
0.15322687
0.15380356
0.15439512
0.15500127
0.15562172
0.15625616
0.15690426
0.15756569
0.15824013
0.15892721
0.15962658
0.16033788
0.16106072
0.16179473
0.16253951
0.16329468
0.16405981
0.16483451
0.16561837
0.16641094
0.16721183
0.16802058
0.16883678
0.16965998
0.17048975
0.17132563
0.17216719
0.17301398
0.17386555
0.17472145
0.17558122
0.17644442
0.17731059
0.17817928
0.17905004
0.17992242
0.18079596
0.18167022
0.18254475
0.18341909
0.18429281
0.18516545
0.18603658
0.18690576
0.18777255
0.18863651
0.18949721
0.19035421
0.1912071
0.19205544
0.19289881
0.19373679
0.19456897
0.19539491
0.19621422
0.14515863
0.14537619
0.14561209
0.14586591
0.14613775
0.14642755
0.14673521
0.14706063
0.14740371
0.14776433
0.14814237
0.1485377
0.14895016
0.1493796
0.14982585
0.15028873
0.15076805
0.15126361
0.15177518
0.15230254
0.15284545
0.15340365
0.1539769
0.1545649
0.15516737
0.15578403
0.15641455
0.15705862
0.15771592
0.1583861
0.15906882
0.15976373
0.16047045
0.16118862
0.16191786
0.16265778
0.16340798
0.16416807
0.16493764
0.16571627
0.16650356
0.16729907
0.16810239
0.16891308
0.16973071
0.17055484
0.17138504
0.17222086
0.17306186
0.17390759
0.17475761
0.17561147
0.17646872
0.17732891
0.1781916
0.17905633
0.17992265
0.18079012
0.18165829
0.18252671
0.18339495
0.18426254
0.18512907
0.18599408
0.18685713
0.1877178
0.18857564
0.18943023
0.19028113
0.19112793
0.19197019
0.19280749
0.19363942
0.19446556
0.19528549
0.19609879
0.14537277
0.14558833
0.14582224
0.14607411
0.14634402
0.14663187
0.14693757
0.147261
0.14760205
0.14796059
0.14833648
0.1487296
0.14913977
0.14956684
0.15001064
0.15047097
0.15094764
0.15144045
0.15194917
0.15247358
0.15301343
0.15356846
0.15413842
0.15472304
0.15532201
0.15593506
0.15656186
0.15720211
0.15785548
0.15852163
0.15920022
0.15989089
0.16059328
0.16130702
0.16203174
0.16276705
0.16351256
0.16426787
0.16503257
0.16580627
0.16658855
0.16737898
0.16817716
0.16898264
0.169795
0.17061381
0.17143863
0.17226902
0.17310455
0.17394477
0.17478924
0.17563751
0.17648913
0.17734368
0.17820068
0.17905971
0.17992032
0.18078205
0.18164447
0.18250713
0.18336959
0.18423141
0.18509216
0.18595138
0.18680865
0.18766354
0.18851561
0.18936443
0.19020957
0.19105062
0.19188714
0.19271872
0.19354494
0.19436538
0.19517963
0.19598727
0.1455738
0.14578742
0.14601939
0.14626938
0.1465374
0.14682338
0.14712718
0.14744868
0.14778777
0.1481443
0.14851814
0.14890912
0.1493171
0.1497419
0.15018334
0.15064123
0.15111537
0.15160555
0.15211156
0.15263314
0.15317007
0.15372209
0.15428892
0.15487031
0.15546596
0.15607558
0.15669885
0.15733547
0.15798511
0.15864743
0.1593221
0.16000875
0.16070704
0.16141659
0.16213702
0.16286797
0.16360903
0.16435982
0.16511993
0.16588896
0.16666649
0.16745212
0.16824543
0.16904598
0.16985336
0.17066714
0.17148688
0.17231214
0.1731425
0.1739775
0.17481672
0.17565971
0.17650603
0.17735523
0.17820688
0.17906052
0.17991572
0.18077204
0.18162903
0.18248624
0.18334326
0.18419962
0.18505491
0.18590867
0.18676048
0.18760991
0.18845653
0.1892999
0.19013961
0.19097523
0.19180634
0.19263251
0.19345334
0.19426841
0.1950773
0.19587961
0.14576247
0.14597421
0.14620431
0.14645246
0.14671868
0.14700283
0.1473048
0.14762445
0.14796165
0.14831625
0.1486881
0.14907704
0.14948291
0.14990553
0.15034472
0.15080028
0.151272
0.15175967
0.15226308
0.15278198
0.15331612
0.15386526
0.15442913
0.15500745
0.15559994
0.15620629
0.15682622
0.15745939
0.15810549
0.15876419
0.15943513
0.16011798
0.16081238
0.16151795
0.16223433
0.16296114
0.163698
0.1644445
0.16520026
0.16596487
0.16673793
0.16751901
0.16830771
0.16910361
0.16990628
0.1707153
0.17153023
0.17235065
0.17317611
0.1740062
0.17484046
0.17567845
0.17651975
0.17736391
0.17821049
0.17905905
0.17990915
0.18076035
0.1816122
0.18246428
0.18331615
0.18416736
0.18501749
0.1858661
0.18671276
0.18755704
0.18839851
0.18923674
0.19007132
0.19090181
0.19172781
0.19254889
0.19336463
0.19417463
0.19497847
0.19577574
0.14593948
0.1461494
0.1463777
0.14662409
0.14688856
0.14717097
0.14747117
0.14778904
0.14812442
0.14847717
0.14884711
0.1492341
0.14963795
0.15005848
0.15049551
0.15094883
0.15141825
0.15190353
0.15240446
0.1529208
0.15345229
0.1539987
0.15455974
0.15513514
0.15572462
0.15632789
0.15694463
0.15757453
0.15821727
0.15887253
0.15953995
0.16021919
0.1609099
0.16161171
0.16232425
0.16304715
0.16378002
0.16452247
0.16527412
0.16603455
0.16680336
0.16758015
0.1683645
0.16915599
0.16995421
0.17075872
0.17156911
0.17238495
0.17320579
0.17403122
0.1748608
0.17569408
0.17653064
0.17737003
0.17821182
0.17905558
0.17990086
0.18074722
0.18159423
0.18244146
0.18328847
0.18413482
0.18498008
0.18582382
0.18666561
0.18750503
0.18834164
0.18917502
0.19000476
0.19083042
0.19165159
0.19246786
0.19327881
0.19408402
0.19488309
0.19567561
0.14610552
0.14631368
0.14654025
0.14678495
0.14704774
0.14732847
0.14762698
0.14794314
0.14827678
0.14862774
0.14899586
0.14938097
0.14978289
0.15020143
0.1506364
0.15108759
0.1515548
0.1520378
0.15253637
0.15305027
0.15357924
0.15412304
0.1546814
0.15525403
0.15584066
0.15644098
0.1570547
0.1576815
0.15832107
0.15897306
0.15963714
0.16031296
0.16100018
0.16169842
0.16240733
0.16312653
0.16385563
0.16459425
0.16534199
0.16609847
0.16686327
0.16763599
0.16841622
0.16920355
0.16999756
0.17079782
0.17160392
0.17241542
0.1732319
0.17405293
0.17487808
0.17570691
0.17653899
0.17737388
0.17821115
0.17905037
0.1798911
0.18073289
0.18157533
0.18241798
0.18326039
0.18410215
0.18494282
0.18578196
0.18661916
0.18745399
0.18828602
0.18911482
0.18993999
0.19076109
0.19157771
0.19238944
0.19319586
0.19399656
0.19479114
0.19557917
0.14626122
0.1464677
0.1466926
0.14693569
0.14719687
0.14747598
0.14777288
0.14808739
0.14841936
0.14876863
0.149135
0.14951832
0.14991839
0.15033502
0.15076803
0.15121719
0.15168229
0.15216312
0.15265945
0.15317102
0.1536976
0.15423892
0.15479472
0.15536473
0.15594864
0.15654618
0.15715703
0.15778089
0.15841744
0.15906634
0.15972725
0.16039984
0.16108375
0.16177862
0.16248409
0.16319977
0.16392531
0.1646603
0.16540436
0.16615709
0.1669181
0.16768698
0.16846332
0.16924671
0.17003674
0.17083298
0.17163502
0.17244243
0.17325479
0.17407166
0.17489262
0.17571724
0.17654509
0.17737573
0.17820874
0.17904367
0.17988009
0.18071758
0.1815557
0.18239402
0.1832321
0.18406952
0.18490585
0.18574066
0.18657352
0.18740401
0.18823171
0.1890562
0.18987705
0.19069385
0.19150618
0.19231363
0.19311578
0.19391222
0.19470256
0.19548637
0.14640721
0.14661207
0.14683539
0.14707692
0.14733656
0.14761414
0.14790948
0.14822243
0.14855281
0.14890044
0.14926515
0.14964675
0.15004506
0.15045988
0.15089101
0.15133823
0.15180134
0.1522801
0.15277428
0.15328365
0.15380795
0.15434692
0.1549003
0.1554678
0.15604914
0.15664404
0.15725217
0.15787324
0.15850693
0.1591529
0.15981081
0.16048034
0.16116111
0.16185279
0.162555
0.16326737
0.16398953
0.16472108
0.16546166
0.16621086
0.16696828
0.16773352
0.16850619
0.16928586
0.17007212
0.17086456
0.17166277
0.17246631
0.17327477
0.17408771
0.17490472
0.17572537
0.17654922
0.17737584
0.17820481
0.1790357
0.17986806
0.18070148
0.18153552
0.18236975
0.18320374
0.18403707
0.1848693
0.18570002
0.18652879
0.18735519
0.18817881
0.18899921
0.18981599
0.19062873
0.19143701
0.19224042
0.19303854
0.19383098
0.19461731
0.19539713
0.14654405
0.14674738
0.14696918
0.14720923
0.1474674
0.14774351
0.14803738
0.14834883
0.14867769
0.14902377
0.14938689
0.14976686
0.15016349
0.15057658
0.15100592
0.1514513
0.1519125
0.15238929
0.15288144
0.15338871
0.15391084
0.15444758
0.15499866
0.15556379
0.15614269
0.15673508
0.15734064
0.15795906
0.15859004
0.15923323
0.15988831
0.16055493
0.16123274
0.16192139
0.16262052
0.16332975
0.16404872
0.16477703
0.16551431
0.16626016
0.16701419
0.167776
0.16854518
0.16932133
0.17010404
0.1708929
0.17168748
0.17248736
0.17329214
0.17410137
0.17491465
0.17573154
0.17655162
0.17737445
0.17819961
0.17902667
0.1798552
0.18068477
0.18151496
0.18234533
0.18317546
0.18400492
0.18483329
0.18566014
0.18648505
0.18730759
0.18812735
0.18894391
0.18975685
0.19056576
0.19137022
0.19216981
0.19296414
0.19375278
0.19453534
0.19531141
0.14667231
0.14687417
0.14709452
0.14733318
0.14758995
0.14786466
0.14815712
0.14846715
0.14879456
0.14913916
0.14950076
0.14987918
0.15027421
0.15068565
0.15111329
0.15155692
0.15201631
0.15249123
0.15298145
0.15348673
0.15400681
0.15454142
0.15509031
0.1556532
0.15622979
0.15681979
0.15742291
0.15803884
0.15866724
0.15930781
0.1599602
0.16062407
0.16129908
0.16198487
0.16268108
0.16338734
0.16410328
0.16482853
0.16556269
0.16630538
0.1670562
0.16781476
0.16858066
0.16935349
0.17013283
0.17091829
0.17170945
0.17250588
0.17330718
0.17411291
0.17492266
0.175736
0.17655251
0.17737176
0.17819333
0.17901678
0.17984169
0.18066763
0.18149418
0.18232091
0.18314739
0.18397321
0.18479792
0.18562112
0.18644238
0.18726129
0.18807741
0.18889034
0.18969965
0.19050494
0.19130579
0.1921018
0.19289254
0.19367761
0.19445661
0.19522914
0.1467925
0.14699296
0.14721196
0.14744928
0.14770472
0.1479781
0.14826923
0.1485779
0.14890393
0.14924713
0.1496073
0.14998424
0.15037775
0.15078762
0.15121364
0.1516556
0.15211327
0.15258642
0.15307481
0.15357819
0.15409632
0.15462893
0.15517574
0.15573649
0.15631089
0.15689865
0.15749945
0.158113
0.15873898
0.15937706
0.1600269
0.16068817
0.16136053
0.16204361
0.16273706
0.16344052
0.16415361
0.16487595
0.16560716
0.16634686
0.16709465
0.16785014
0.16861293
0.16938262
0.17015879
0.17094104
0.17172896
0.17252214
0.17332014
0.17412257
0.17492899
0.17573898
0.17655212
0.17736798
0.17818615
0.17900619
0.17982769
0.1806502
0.18147332
0.18229661
0.18311965
0.18394202
0.18476329
0.18558304
0.18640086
0.18721633
0.18802902
0.18883852
0.18964441
0.19044629
0.19124374
0.19203635
0.19282371
0.19360542
0.19438107
0.19515025
0.14690513
0.14710426
0.14732197
0.14755803
0.14781221
0.14808434
0.14837419
0.14868158
0.1490063
0.14934817
0.14970697
0.1500825
0.15047457
0.15088296
0.15130745
0.15174783
0.15220386
0.15267532
0.15316197
0.15366356
0.15417984
0.15471054
0.15525539
0.15581412
0.15638644
0.15697206
0.15757068
0.15818199
0.15880566
0.15944138
0.16008882
0.16074763
0.16141748
0.162098
0.16278884
0.16348965
0.16420003
0.16491963
0.16564806
0.16638493
0.16712986
0.16788245
0.1686423
0.16940902
0.17018219
0.17096142
0.17174628
0.17253637
0.17333127
0.17413057
0.17493384
0.17574067
0.17655063
0.1773633
0.17817826
0.17899508
0.17981334
0.18063262
0.1814525
0.18227254
0.18309233
0.18391145
0.18472947
0.18554597
0.18636054
0.18717276
0.18798221
0.18878848
0.18959115
0.19038981
0.19118405
0.19197346
0.19275763
0.19353616
0.19430864
0.19507467
0.14701065
0.14720854
0.14742502
0.14765989
0.14791289
0.14818382
0.14847247
0.14877864
0.14910213
0.14944273
0.14980023
0.15017444
0.15056513
0.15097211
0.15139515
0.15183403
0.15228851
0.15275838
0.15324338
0.15374327
0.15425779
0.15478668
0.15532968
0.1558865
0.15645685
0.15704045
0.15763699
0.15824617
0.15886767
0.15950117
0.16014633
0.16080281
0.16147028
0.16214839
0.16283676
0.16353505
0.16424289
0.16495989
0.16568569
0.16641989
0.16716211
0.16791196
0.16866904
0.16943295
0.17020329
0.17097965
0.17176163
0.17254881
0.17334078
0.17413712
0.17493742
0.17574126
0.17654821
0.17735787
0.1781698
0.17898358
0.1797988
0.18061502
0.18143183
0.18224881
0.18306553
0.18388158
0.18469653
0.18550997
0.18632147
0.18713063
0.18793702
0.18874024
0.18953986
0.19033548
0.19112669
0.19191308
0.19269425
0.19346978
0.19423928
0.19500234
0.14710951
0.14730622
0.14752156
0.1477553
0.14800718
0.14827699
0.1485645
0.14886953
0.14919184
0.14953124
0.14988752
0.15026047
0.15064987
0.15105551
0.15147717
0.15191462
0.15236764
0.15283599
0.15331943
0.15381771
0.15433057
0.15485775
0.15539899
0.15595399
0.15652249
0.15710418
0.15769876
0.15830593
0.15892537
0.15955676
0.16019976
0.16085405
0.16151927
0.16219509
0.16288113
0.16357705
0.16428248
0.16499703
0.16572034
0.16645201
0.16719168
0.16793894
0.16869339
0.16945466
0.17022232
0.17099598
0.17177523
0.17255966
0.17334886
0.17414241
0.1749399
0.17574092
0.17654504
0.17735184
0.17816091
0.17897183
0.17978417
0.18059751
0.18141143
0.18222551
0.18303934
0.18385249
0.18466454
0.18547508
0.18628369
0.18708995
0.18789346
0.1886938
0.18949055
0.1902833
0.19107166
0.1918552
0.19263353
0.19340623
0.19417291
0.19493317
0.14720213
0.14739773
0.14761199
0.14784468
0.1480955
0.14836425
0.1486507
0.14895463
0.14927584
0.14961411
0.14996923
0.15034098
0.15072916
0.15113353
0.15155389
0.15199
0.15244163
0.15290855
0.15339051
0.15388726
0.15439855
0.15492412
0.15546368
0.15601698
0.15658371
0.15716359
0.15775632
0.15836159
0.15897908
0.15960847
0.16024944
0.16090165
0.16156476
0.16223841
0.16292225
0.16361593
0.16431907
0.16503131
0.16575227
0.16648156
0.16721881
0.16796362
0.1687156
0.16947436
0.17023949
0.1710106
0.17178727
0.17256911
0.17335569
0.17414661
0.17494145
0.1757398
0.17654124
0.17734536
0.17815173
0.17895993
0.17976955
0.18058017
0.18139136
0.18220271
0.18301381
0.18382422
0.18463354
0.18544134
0.18624722
0.18705076
0.18785154
0.18864916
0.1894432
0.19023325
0.19101891
0.19179976
0.19257541
0.19334545
0.19410948
0.19486709
0.14695632
0.14711224
0.14728889
0.14748346
0.14769671
0.14792841
0.14817824
0.14844599
0.14873144
0.14903435
0.14935451
0.14969172
0.15004574
0.15041637
0.15080338
0.15120656
0.15162568
0.15206052
0.15251084
0.1529764
0.15345696
0.15395227
0.15446208
0.15498611
0.1555241
0.15607577
0.15664084
0.15721901
0.15780999
0.15841346
0.15902911
0.15965662
0.16029567
0.16094591
0.16160701
0.16227862
0.16296038
0.16365194
0.16435293
0.16506298
0.16578172
0.16650876
0.16724372
0.16798622
0.16873587
0.16949226
0.17025501
0.1710237
0.17179794
0.17257732
0.17336144
0.17414987
0.17494221
0.17573804
0.17653696
0.17733853
0.17814235
0.178948
0.17975505
0.1805631
0.18137172
0.18218049
0.182989
0.18379683
0.18460356
0.18540879
0.18621209
0.18701305
0.18781126
0.18860631
0.18939779
0.19018529
0.19096841
0.19174673
0.19251985
0.19328738
0.1940489
0.19480402
0.14703957
0.14719433
0.14737018
0.14756377
0.14777609
0.14800686
0.14825576
0.14852258
0.14880708
0.14910903
0.14942821
0.14976441
0.15011739
0.15048696
0.15087288
0.15127493
0.15169289
0.15212652
0.1525756
0.15303988
0.15351912
0.15401307
0.15452146
0.15504405
0.15558055
0.15613069
0.15669419
0.15727074
0.15786006
0.15846183
0.15907575
0.15970148
0.16033871
0.1609871
0.1616463
0.16231598
0.16299578
0.16368533
0.16438429
0.16509227
0.16580891
0.16653383
0.16726664
0.16800696
0.16875439
0.16950855
0.17026904
0.17103546
0.1718074
0.17258447
0.17336625
0.17415233
0.17494231
0.17573577
0.17653229
0.17733147
0.17813288
0.17893611
0.17974074
0.18054636
0.18135255
0.18215888
0.18296496
0.18377035
0.18457465
0.18537743
0.1861783
0.18697683
0.18777262
0.18856525
0.18935431
0.19013941
0.19092012
0.19169605
0.19246679
0.19323194
0.1939911
0.19474387
0.14711754
0.14727122
0.14744633
0.14763902
0.14785046
0.14808036
0.1483284
0.14859434
0.14887795
0.149179
0.14949726
0.14983251
0.15018452
0.15055309
0.15093797
0.15133896
0.15175582
0.15218832
0.15263622
0.15309929
0.15357728
0.15406994
0.15457701
0.15509823
0.15563333
0.15618202
0.15674403
0.15731906
0.15790681
0.15850698
0.15911925
0.1597433
0.16037881
0.16102545
0.16168286
0.16235072
0.16302866
0.16371633
0.16441336
0.1651194
0.16583405
0.16655696
0.16728773
0.16802599
0.16877134
0.16952339
0.17028175
0.17104602
0.17181579
0.17259067
0.17337025
0.17415412
0.17494186
0.17573308
0.17652735
0.17732426
0.1781234
0.17892435
0.17972669
0.18053002
0.18133391
0.18213795
0.18294172
0.18374481
0.1845468
0.18534729
0.18614586
0.1869421
0.1877356
0.18852594
0.18931273
0.19009555
0.190874
0.19164767
0.19241616
0.19317908
0.19393601
0.19468656
0.14719057
0.14734325
0.14751767
0.14770952
0.14792014
0.14814924
0.14839647
0.1486616
0.14894438
0.14924458
0.14956197
0.14989633
0.15024743
0.15061505
0.15099896
0.15139895
0.15181477
0.1522462
0.15269299
0.15315492
0.15363173
0.15412318
0.154629
0.15514892
0.15568269
0.15623002
0.15679062
0.15736421
0.15795048
0.15854913
0.15915985
0.15978232
0.16041621
0.16106119
0.16171692
0.16238305
0.16305924
0.16374513
0.16444035
0.16514454
0.16585732
0.16657833
0.16730719
0.1680435
0.16878688
0.16953694
0.17029328
0.17105552
0.17182325
0.17259606
0.17337356
0.17415533
0.17494097
0.17573007
0.17652221
0.17731698
0.17811397
0.17891277
0.17971296
0.18051412
0.18131584
0.18211771
0.18291931
0.18372023
0.18452005
0.18531837
0.18611477
0.18690884
0.18770018
0.18848837
0.189273
0.19005368
0.19082999
0.19160153
0.19236791
0.19312871
0.19388353
0.194632
0.14725897
0.14741071
0.14758452
0.14777558
0.14798545
0.1482138
0.14846028
0.14872464
0.14900664
0.14930605
0.14962263
0.14995616
0.1503064
0.15067313
0.15105613
0.15145517
0.15187001
0.15230043
0.15274618
0.15320704
0.15368274
0.15417303
0.15467767
0.15519638
0.15572889
0.15627492
0.1568342
0.15740643
0.15799131
0.15858853
0.15919779
0.15981876
0.16045112
0.16109453
0.16174867
0.16241317
0.16308771
0.16377191
0.16446542
0.16516787
0.16587889
0.16659811
0.16732515
0.16805962
0.16880114
0.16954932
0.17030377
0.17106409
0.17182988
0.17260074
0.17337628
0.17415607
0.17493972
0.17572682
0.17651695
0.17730971
0.17810467
0.17890144
0.17969958
0.1804987
0.18129838
0.1820982
0.18289775
0.18369661
0.18449439
0.18529065
0.18608501
0.18687704
0.18766633
0.18845249
0.18923509
0.19001374
0.19078804
0.19155757
0.19232194
0.19308075
0.1938336
0.19458009
0.14732302
0.14747389
0.14764714
0.14783748
0.14804665
0.14827432
0.14852009
0.14878374
0.14906502
0.14936369
0.14967951
0.15001226
0.15036169
0.15072759
0.15110973
0.15150788
0.1519218
0.15235127
0.15279604
0.15325588
0.15373053
0.15421974
0.15472326
0.15524082
0.15577215
0.15631697
0.156875
0.15744594
0.1580295
0.15862537
0.15923325
0.1598528
0.16048372
0.16112566
0.16177829
0.16244126
0.16311423
0.16379684
0.16448874
0.16518955
0.1658989
0.16661643
0.16734175
0.16807449
0.16881425
0.16956066
0.17031332
0.17107183
0.17183579
0.17260482
0.17337849
0.17415642
0.17493819
0.1757234
0.17651164
0.17730249
0.17809554
0.17889038
0.17968661
0.1804838
0.18128154
0.18207943
0.18287704
0.18367397
0.18446981
0.18526414
0.18605656
0.18684666
0.18763403
0.18841826
0.18919895
0.1899757
0.19074809
0.19151573
0.19227821
0.19303514
0.19378611
0.19453074
0.147383
0.14753307
0.14770582
0.14789549
0.14810402
0.14833105
0.14857617
0.14883917
0.14911977
0.14941775
0.14973286
0.15006487
0.15041355
0.15077867
0.15116
0.15155731
0.15197037
0.15239894
0.15284279
0.15330167
0.15377533
0.15426353
0.15476599
0.15528247
0.15581268
0.15635635
0.1569132
0.15748293
0.15806525
0.15865985
0.15926642
0.15988464
0.16051419
0.16115474
0.16180595
0.16246748
0.16313897
0.16382008
0.16451045
0.16520971
0.16591749
0.16663342
0.16735713
0.16808823
0.16882634
0.16957107
0.17032203
0.17107883
0.17184107
0.17260836
0.17338028
0.17415645
0.17493645
0.17571987
0.17650632
0.17729537
0.17808661
0.17887965
0.17967405
0.18046942
0.18126534
0.1820614
0.18285719
0.18365229
0.1844463
0.18523881
0.1860294
0.18681768
0.18760323
0.18838565
0.18916454
0.18993948
0.19071007
0.19147592
0.19223662
0.19299178
0.19374099
0.19448386
0.14743916
0.1475885
0.1477608
0.14794985
0.1481578
0.14838423
0.14862876
0.14889114
0.14917113
0.14946846
0.14978291
0.15011424
0.15046221
0.15082659
0.15120717
0.15160369
0.15201594
0.15244367
0.15288664
0.15334462
0.15381735
0.15430459
0.15480606
0.15532152
0.15585068
0.15639326
0.156949
0.15751759
0.15809873
0.15869213
0.15929747
0.15991444
0.1605427
0.16118194
0.16183181
0.16249197
0.16316207
0.16384177
0.16453069
0.16522849
0.16593478
0.16664921
0.16737139
0.16810094
0.16883748
0.16958063
0.17033
0.17108518
0.1718458
0.17261144
0.17338172
0.17415622
0.17493454
0.17571629
0.17650104
0.17728839
0.17807793
0.17886925
0.17966194
0.18045559
0.18124979
0.18204413
0.18283819
0.18363156
0.18442385
0.18521463
0.1860035
0.18679006
0.1875739
0.18835461
0.18913179
0.18990502
0.19067392
0.19143808
0.19219711
0.19295059
0.19369813
0.19443935
0.14749174
0.14764042
0.14781231
0.1480008
0.14820822
0.14843411
0.14867808
0.1489399
0.1492193
0.14951604
0.14982987
0.15016056
0.15050787
0.15087157
0.15125143
0.15164722
0.1520587
0.15248564
0.15292779
0.15338492
0.15385678
0.15434311
0.15484365
0.15535814
0.15588631
0.15642788
0.15698256
0.15755007
0.15813011
0.15872238
0.15932656
0.15994234
0.16056939
0.16120738
0.16185599
0.16251486
0.16318365
0.16386201
0.16454958
0.16524599
0.16595089
0.16666389
0.16738463
0.16811272
0.16884779
0.16958944
0.1703373
0.17109096
0.17185004
0.17261413
0.17338285
0.17415578
0.17493252
0.17571267
0.17649583
0.17728158
0.17806951
0.17885922
0.17965029
0.18044231
0.18123489
0.18202759
0.18282002
0.18361177
0.18440242
0.18519158
0.18597883
0.18676377
0.18754598
0.18832508
0.18910064
0.18987228
0.19063958
0.19140215
0.19215958
0.19291149
0.19365746
0.19439712
0.14754097
0.14768905
0.14786059
0.14804856
0.14825548
0.14848088
0.14872435
0.14898564
0.1492645
0.14956069
0.14987394
0.15020403
0.15055072
0.15091378
0.15129298
0.15168808
0.15209884
0.15252504
0.15296642
0.15342276
0.15389379
0.15437926
0.15487892