/*--------------------------------*- C++ -*----------------------------------*\
| =========                 |                                                 |
| \\      /  F ield         | OpenFOAM: The Open Source CFD Toolbox           |
|  \\    /   O peration     | Version:  2.4.0                                 |
|   \\  /    A nd           | Web:      www.OpenFOAM.org                      |
|    \\/     M anipulation  |                                                 |
\*---------------------------------------------------------------------------*/
FoamFile
{
    version     2.0;
    format      ascii;
    class       surfaceScalarField;
    location    "10000";
    object      phi;
}
// * * * * * * * * * * * * * * * * * * * * * * * * * * * * * * * * * * * * * //

dimensions      [0 3 -1 0 0 0 0];

internalField   nonuniform List<scalar> 
19250
(
0.0079636977
-0.00013464164
0.0079613611
-0.00013885405
0.0079588424
-0.00014307766
0.0079561374
-0.00014730691
0.0079532426
-0.00015153624
0.0079501556
-0.0001557601
0.0079468744
-0.00015997308
0.007943398
-0.00016416989
-0.00016834576
0.0078337507
-0.00013232481
0.0078312738
-0.00013637721
0.0078286323
-0.00014043616
0.0078258222
-0.00014449686
0.0078228405
-0.00014855449
0.0078196846
-0.00015260421
0.0078163527
-0.00015664121
0.0078128437
-0.00016066084
-0.00016465859
0.0076943793
-0.0001298609
0.0076917696
-0.00013376747
0.0076890098
-0.00013767635
0.0076860963
-0.00014158342
0.0076830263
-0.00014548446
0.0076797973
-0.00014937524
0.0076764076
-0.00015325151
0.0076728558
-0.00015710907
-0.00016094382
0.0075477062
-0.00012726548
0.0075449766
-0.00013103793
0.0075421092
-0.00013480895
0.0075391007
-0.00013857494
0.0075359485
-0.00014233222
0.0075326503
-0.00014607704
0.0075292044
-0.00014980563
0.0075256096
-0.00015351422
-0.00015719908
0.0073954382
-0.00012456024
0.0073926083
-0.00012820796
0.0073896503
-0.00013185104
0.0073865617
-0.00013548632
0.00738334
-0.00013911053
0.0073799833
-0.00014272035
0.0073764901
-0.00014631241
0.0073728592
-0.0001498833
-0.00015342962
0.0072389454
-0.00012177138
0.0072360393
-0.00012530185
0.0072330133
-0.00012882501
0.007229865
-0.00013233801
0.0072265924
-0.00013583797
0.0072231939
-0.00013932188
0.0072196682
-0.00014278673
0.0072160144
-0.00014622943
-0.00014964688
0.0070793503
-0.00011892619
0.007076394
-0.00012234558
0.0070733244
-0.00012575538
0.0070701395
-0.00012915307
0.0070668375
-0.00013253604
0.0070634173
-0.0001359016
0.0070598776
-0.00013924702
0.0070562176
-0.00014256951
0.007052437
-0.00014586621
0.0070485353
-0.00014913432
0.0070445127
-0.00015237099
0.0070403693
-0.00015557343
0.0070361057
-0.00015873884
0.0070317225
-0.00016186449
-0.00016494768
0.006917603
-0.00011605031
0.0069146212
-0.0001193638
0.0069115316
-0.00012266577
0.0069083325
-0.00012595399
0.0069050226
-0.00012922611
0.0069016007
-0.0001324797
0.006898066
-0.00013571227
0.0068944177
-0.00013892128
0.0068906557
-0.00014210415
0.0068867796
-0.00014525827
0.0068827897
-0.00014838106
0.0068786862
-0.00015146991
0.0068744696
-0.00015452224
0.0068701406
-0.00015753552
-0.00016050722
0.0067545213
-0.00011316624
0.0067515357
-0.00011637828
0.0067484472
-0.0001195772
0.0067452542
-0.00012276099
0.0067419556
-0.00012592753
0.0067385505
-0.00012907463
0.0067350382
-0.00013220002
0.0067314183
-0.00013530138
0.0067276905
-0.00013837635
0.0067238548
-0.00014142253
0.0067199113
-0.00014443754
0.0067158603
-0.00014741897
0.0067117025
-0.00015036444
0.0067074386
-0.00015327155
-0.00015613799
0.0065908162
-0.00011029283
0.0065878453
-0.00011340739
0.0065847756
-0.00011650746
0.0065816059
-0.00011959125
0.0065783352
-0.00012265685
0.0065749628
-0.00012570227
0.0065714883
-0.00012872545
0.0065679111
-0.00013172425
0.0065642313
-0.00013469654
0.0065604489
-0.00013764008
0.006556564
-0.00014055268
0.0065525772
-0.00014343211
0.0065484889
-0.00014627614
0.0065442999
-0.00014908255
-0.00015184917
0.006427105
-0.00010744545
0.0064241637
-0.00011046609
0.0064211274
-0.00011347111
0.006417995
-0.00011645887
0.0064147658
-0.00011942769
0.0064114393
-0.00012237573
0.006408015
-0.00012530114
0.0064044927
-0.00012820196
0.0064008724
-0.00013107619
0.0063971541
-0.00013392182
0.0063933382
-0.00013673678
0.0063894251
-0.00013951903
0.0063854154
-0.00014226646
0.0063813099
-0.00014497703
-0.00014764869
0.0062639229
-0.00010463634
0.0062610232
-0.00010756633
0.0062580318
-0.00011047974
0.0062549481
-0.00011337513
0.0062517713
-0.00011625094
0.0062485011
-0.00011910553
0.0062451372
-0.00012193719
0.0062416793
-0.00012474414
0.0062381277
-0.00012752453
0.0062344824
-0.0001302765
0.0062307437
-0.00013299815
0.0062269122
-0.00013568754
0.0062229885
-0.00013834276
0.0062189734
-0.00014096186
0.0062148676
-0.00014354292
0.0062106723
-0.00014608402
-0.00014858324
0.0061017319
-0.00010187508
0.006098883
-0.00010471747
0.0060959457
-0.00010754247
0.0060929194
-0.00011034882
0.0060898036
-0.0001131351
0.0060865979
-0.00011589983
0.0060833021
-0.00011864144
0.0060799163
-0.00012135829
0.0060764404
-0.00012404869
0.0060728748
-0.00012671091
0.0060692199
-0.00012934317
0.006065476
-0.00013194369
0.0060616439
-0.00013451067
0.0060577243
-0.00013704229
0.0060537182
-0.00013953674
0.0060496264
-0.00014199222
0.00604545
-0.00014440692
0.0060411904
-0.0001467791
0.0060368487
-0.00014910703
0.0060324264
-0.00015138897
0.0060279248
-0.00015362328
-0.00015580828
0.0059409281
-9.9169065e-05
0.0059381372
-0.00010192665
0.005935261
-0.00010466623
0.0059322988
-0.00010738665
0.0059292504
-0.00011008663
0.0059261154
-0.00011276484
0.0059228937
-0.00011541981
0.0059195855
-0.00011805006
0.0059161908
-0.00012065402
0.00591271
-0.00012323007
0.0059091434
-0.00012577658
0.0059054916
-0.00012829189
0.0059017552
-0.00013077429
0.005897935
-0.00013322209
0.0058940319
-0.00013563359
0.0058900468
-0.00013800709
0.0058859807
-0.0001403409
0.005881835
-0.00014263335
0.0058776107
-0.00014488278
0.0058733093
-0.00014708759
0.0058689322
-0.00014924617
0.0058644809
-0.00015135697
0.005859957
-0.00015341842
0.005855362
-0.00015542907
0.0058506978
-0.00015738744
0.005845966
-0.00015929214
0.0058411686
-0.00016114178
0.0058363074
-0.00016293505
0.0058313843
-0.00016467066
0.0058264014
-0.00016634739
-0.00016796406
0.0057895418
-8.8394912e-05
0.0057870588
-9.1120895e-05
0.0057844951
-9.3830743e-05
0.0057818498
-9.6523785e-05
0.0057791224
-9.9199239e-05
0.0057763123
-0.00010185618
0.0057734193
-0.00010449358
0.0057704429
-0.00010711029
0.0057673831
-0.00010970506
0.0057642399
-0.00011227659
0.0057610134
-0.00011482348
0.0057577036
-0.00011734429
0.0057543111
-0.00011983753
0.0057508362
-0.00012230167
0.0057472794
-0.00012473514
0.0057436415
-0.00012713637
0.0057399232
-0.00012950375
0.0057361253
-0.00013183569
0.0057322488
-0.00013413059
0.0057282947
-0.00013638684
0.0057242642
-0.00013860287
0.0057201586
-0.00014077711
0.005715979
-0.00014290801
0.0057117269
-0.00014499407
0.0057074037
-0.00014703379
0.005703011
-0.00014902569
0.0056985503
-0.00015096836
0.0056940232
-0.0001528604
0.0056894315
-0.00015470046
0.005684777
-0.00015648724
0.0056800614
-0.00015821945
0.0056752866
-0.00015989587
0.0056704545
-0.00016151532
-0.00016307665
0.0056322887
-8.6049991e-05
0.0056298659
-8.8698084e-05
0.0056273645
-9.1329364e-05
0.005624784
-9.3943258e-05
0.0056221239
-9.6539082e-05
0.0056193837
-9.9116021e-05
0.0056165632
-0.00010167314
0.0056136623
-0.00010420938
0.0056106809
-0.00010672365
0.005607619
-0.00010921471
0.0056044768
-0.00011168128
0.0056012546
-0.00011412204
0.0055979526
-0.00011653558
0.0055945714
-0.00011892049
0.0055911116
-0.00012127529
0.0055875737
-0.00012359852
0.0055839586
-0.00012588865
0.0055802671
-0.00012814419
0.0055765002
-0.00013036363
0.0055726588
-0.00013254545
0.0055687441
-0.00013468815
0.0055647572
-0.00013679023
0.0055606994
-0.00013885025
0.0055565721
-0.00014086674
0.0055523766
-0.00014283829
0.0055481144
-0.0001447635
0.005543787
-0.00014664099
0.0055393961
-0.00014846944
0.0055349432
-0.00015024755
0.00553043
-0.00015197406
0.0055258583
-0.00015364775
0.0055212298
-0.00015526744
0.0055165465
-0.00015683198
-0.00015834026
0.0054772804
-8.3766163e-05
0.0054749207
-8.6338351e-05
0.0054724845
-8.889319e-05
0.0054699715
-9.1430196e-05
0.0054673811
-9.3948771e-05
0.0054647133
-9.6448189e-05
0.0054619678
-9.8927603e-05
0.0054591445
-0.00010138607
0.0054562434
-0.00010382256
0.0054532646
-0.00010623596
0.0054502084
-0.00010862507
0.0054470751
-0.00011098868
0.0054438649
-0.00011332545
0.0054405785
-0.00011563409
0.0054372164
-0.00011791319
0.0054337793
-0.00012016139
0.0054302679
-0.00012237724
0.0054266831
-0.00012455935
0.0054230257
-0.00012670627
0.0054192968
-0.00012881656
0.0054154975
-0.00013088882
0.0054116289
-0.00013292162
0.0054076922
-0.00013491356
0.0054036887
-0.00013686326
0.0053996198
-0.00013876937
0.0053954868
-0.00014063054
0.0053912913
-0.00014244547
0.0053870347
-0.00014421288
0.0053827187
-0.00014593153
0.0053783449
-0.0001476002
0.0053739148
-0.00014921772
0.0053694304
-0.00015078296
0.0053648932
-0.0001522948
-0.0001537522
0.0053247214
-8.1545329e-05
0.0053224265
-8.4043537e-05
0.0053200573
-8.6523981e-05
0.0053176134
-8.8986263e-05
0.0053150945
-9.1429863e-05
0.0053125004
-9.3854127e-05
0.0053098311
-9.6258298e-05
0.0053070866
-9.8641516e-05
0.0053042668
-0.00010100283
0.0053013721
-0.00010334122
0.0052984026
-0.00010565559
0.0052953587
-0.00010794476
0.0052922408
-0.00011020755
0.0052890494
-0.00011244268
0.0052857851
-0.00011464889
0.0052824486
-0.00011682485
0.0052790405
-0.00011896923
0.0052755619
-0.00012108068
0.0052720135
-0.00012315785
0.0052683963
-0.00012519938
0.0052647113
-0.0001272039
0.0052609598
-0.00012917009
0.0052571429
-0.0001310966
0.0052532617
-0.00013298211
0.0052493177
-0.00013482533
0.0052453121
-0.00013662497
0.0052412464
-0.00013837979
0.0052371221
-0.00014008856
0.0052329406
-0.00014175007
0.0052287036
-0.00014336318
0.0052244126
-0.00014492674
0.0052200693
-0.00014643966
0.0052156754
-0.00014790089
-0.00014930938
0.0051747783
-7.9388498e-05
0.0051725493
-8.1814588e-05
0.005170248
-8.4222617e-05
0.005167874
-8.6612266e-05
0.0051654272
-8.8983066e-05
0.0051629075
-9.1334449e-05
0.0051603149
-9.3665721e-05
0.0051576495
-9.59761e-05
0.0051549114
-9.826472e-05
0.0051521008
-0.00010053062
0.005149218
-0.00010277279
0.0051462634
-0.00010499014
0.0051432374
-0.00010718154
0.0051401405
-0.00010934583
0.0051369734
-0.00011148178
0.0051337367
-0.00011358815
0.0051304312
-0.00011566369
0.0051270576
-0.00011770712
0.0051236169
-0.00011971714
0.00512011
-0.00012169249
0.005116538
-0.00012363185
0.0051129018
-0.00012553396
0.0051092027
-0.00012739753
0.0051054419
-0.00012922131
0.0051016206
-0.00013100404
0.0050977402
-0.00013274451
0.0050938019
-0.00013444153
0.0050898073
-0.0001360939
0.0050857577
-0.00013770048
0.0050816547
-0.00013926016
0.0050774997
-0.00014077183
0.0050732945
-0.00014223445
0.0050690406
-0.00014364699
0.0050647397
-0.00014500846
0.0050603935
-0.0001463179
0.0050560036
-0.00014757439
0.0050515719
-0.00014877705
0.0050471001
-0.00014992505
0.0050425899
-0.00015101758
0.0050380433
-0.00015205387
-0.00015303318
0.0050275883
-7.7295931e-05
0.0050254254
-7.9651724e-05
0.0050231921
-8.1989275e-05
0.0050208881
-8.4308299e-05
0.0050185135
-8.6608412e-05
0.0050160681
-8.8889089e-05
0.0050135521
-9.1149713e-05
0.0050109656
-9.3389566e-05
0.0050083087
-9.5607843e-05
0.0050055818
-9.7803664e-05
0.005002785
-9.9976076e-05
0.004999919
-0.00010212407
0.004996984
-0.00010424658
0.0049939807
-0.00010634251
0.0049909096
-0.00010841071
0.0049877715
-0.00011045
0.004984567
-0.00011245921
0.004981297
-0.0001144371
0.0049779623
-0.00011638247
0.0049745639
-0.00011829408
0.0049711027
-0.0001201707
0.0049675799
-0.00012201112
0.0049639965
-0.00012381411
0.0049603536
-0.00012557846
0.0049566526
-0.000127303
0.0049528946
-0.00012898654
0.004949081
-0.00013062792
0.0049452131
-0.00013222603
0.0049412924
-0.00013377975
0.0049373203
-0.00013528801
0.0049332982
-0.00013674976
0.0049292277
-0.00013816398
0.0049251104
-0.00013952966
0.0049209478
-0.00014084589
0.0049167416
-0.00014211169
0.0049124934
-0.0001433262
0.0049082049
-0.00014448857
0.0049038779
-0.00014559798
0.0048995139
-0.00014665364
0.0048951149
-0.00014765483
-0.00014860079
0.0048891398
-6.8295327e-05
0.0048872476
-7.0637883e-05
0.0048852874
-7.2961756e-05
0.0048832587
-7.5267303e-05
0.0048811616
-7.7554599e-05
0.0048789959
-7.9823544e-05
0.0048767615
-8.2073915e-05
0.0048744585
-8.4305374e-05
0.0048720868
-8.651745e-05
0.0048696467
-8.8709593e-05
0.0048671383
-9.0881132e-05
0.0048645618
-9.3031335e-05
0.0048619175
-9.5159373e-05
0.0048592058
-9.7264359e-05
0.004856427
-9.9345352e-05
0.0048535818
-0.00010140135
0.0048506706
-0.0001034313
0.004847694
-0.00010543413
0.0048446527
-0.00010740874
0.0048415475
-0.00010935398
0.0048383791
-0.00011126871
0.0048351484
-0.00011315176
0.0048318563
-0.00011500197
0.0048285038
-0.00011681815
0.0048250918
-0.00011859915
0.0048216215
-0.00012034379
0.0048180939
-0.00012205093
0.0048145104
-0.00012371942
0.004810872
-0.00012534813
0.00480718
-0.00012693596
0.0048034358
-0.00012848182
0.0047996407
-0.00012998465
0.0047957961
-0.0001314434
0.0047919034
-0.00013285708
0.0047879641
-0.00013422468
0.0047839797
-0.00013554527
0.0047799517
-0.0001368179
0.0047758817
-0.00013804169
0.0047717713
-0.00013921578
0.0047676221
-0.00014033933
0.0047634357
-0.00014141158
0.0047592138
-0.00014243173
0.004754958
-0.00014339908
-0.00014431293
0.0047475706
-6.6529569e-05
0.0047457384
-6.8805678e-05
0.0047438396
-7.1062969e-05
0.0047418742
-7.3301839e-05
0.004739842
-7.5522397e-05
0.004737743
-7.7724577e-05
0.0047355773
-7.9908211e-05
0.0047333449
-8.2072991e-05
0.004731046
-8.4218508e-05
0.0047286806
-8.6344257e-05
0.0047262491
-8.8449624e-05
0.0047237517
-9.0533921e-05
0.0047211887
-9.2596382e-05
0.0047185606
-9.4636182e-05
0.0047158676
-9.6652422e-05
0.0047131104
-9.8644162e-05
0.0047102896
-0.00010061041
0.0047074056
-0.00010255017
0.0047044592
-0.00010446235
0.0047014511
-0.0001063459
0.0046983821
-0.00010819971
0.0046952531
-0.00011002269
0.0046920648
-0.00011181371
0.0046888183
-0.00011357164
0.0046855145
-0.00011529538
0.0046821546
-0.00011698381
0.0046787394
-0.00011863582
0.0046752703
-0.00012025031
0.0046717484
-0.0001218262
0.0046681749
-0.00012336244
0.004664551
-0.00012485797
0.0046608781
-0.00012631177
0.0046571576
-0.00012772284
0.0046533907
-0.0001290902
0.0046495789
-0.00013041289
0.0046457237
-0.00013169002
0.0046418264
-0.00013292067
0.0046378887
-0.00013410398
0.004633912
-0.0001352391
0.004629898
-0.00013632526
0.0046258481
-0.00013736167
0.0046217639
-0.0001383476
0.0046176472
-0.00013928234
-0.00014016521
0.0046090118
-6.4821102e-05
0.0046072384
-6.7032253e-05
0.0046053999
-6.9224547e-05
0.0046034965
-7.1398404e-05
0.0046015281
-7.3553957e-05
0.0045994947
-7.5691182e-05
0.0045973964
-7.780994e-05
0.0045952334
-7.9909973e-05
0.0045930058
-8.1990908e-05
0.0045907138
-8.4052284e-05
0.0045883577
-8.6093538e-05
0.0045859378
-8.8114029e-05
0.0045834545
-9.0113044e-05
0.0045809081
-9.2089793e-05
0.0045782991
-9.4043443e-05
0.0045756281
-9.5973102e-05
0.0045728955
-9.7877837e-05
0.004570102
-9.9756678e-05
0.0045672483
-0.00010160862
0.004564335
-0.00010343264
0.004561363
-0.00010522769
0.004558333
-0.00010699272
0.004555246
-0.00010872666
0.0045521028
-0.00011042843
0.0045489044
-0.00011209697
0.0045456518
-0.00011373121
0.004542346
-0.00011533008
0.0045389882
-0.00011689253
0.0045355795
-0.00011841752
0.0045321211
-0.00011990403
0.0045286142
-0.00012135105
0.0045250601
-0.0001227576
0.0045214599
-0.00012412271
0.0045178152
-0.00012544543
0.0045141271
-0.00012672486
0.0045103972
-0.00012796008
0.0045066268
-0.00012915026
0.0045028173
-0.00013029454
0.0044989703
-0.0001313921
0.0044950873
-0.0001324422
0.0044911697
-0.00013344406
0.004487219
-0.00013439698
0.004483237
-0.00013530027
0.004479225
-0.00013615328
0.0044751848
-0.00013695534
0.0044711179
-0.00013770592
0.0044670259
-0.00013840446
0.0044629105
-0.00013905036
0.0044587734
-0.00013964317
0.0044546161
-0.00014018241
0.0044504403
-0.00014066763
0.0044462478
-0.00014109838
0.0044420401
-0.00014147438
0.004437819
-0.00014179518
0.0044335862
-0.00014206046
0.0044293432
-0.00014226995
0.004425092
-0.00014242333
0.004420834
-0.00014252037
0.0044165711
-0.00014256081
0.0044123048
-0.00014254449
0.0044080369
-0.00014247117
0.0044037691
-0.00014234073
0.0043995031
-0.00014215296
0.0043952405
-0.00014190779
0.004390983
-0.00014160511
0.0043867323
-0.00014124474
0.0043824901
-0.0001408267
0.004378258
-0.00014035085
0.0043740376
-0.00013981717
0.0043698306
-0.00013922558
0.0043656387
-0.00013857608
0.0043614635
-0.0001378686
0.0043573066
-0.00013710314
0.0043531697
-0.00013627971
0.0043490543
-0.00013539826
-0.00013445879
0.0044735078
-6.316854e-05
0.0044717918
-6.5316239e-05
0.0044700123
-6.7445114e-05
0.0044681695
-6.95556e-05
0.0044662634
-7.1647861e-05
0.0044642942
-7.3721904e-05
0.0044622618
-7.5777614e-05
0.0044601666
-7.7814773e-05
0.0044580088
-7.9833052e-05
0.0044557885
-8.1832016e-05
0.0044535061
-8.3811154e-05
0.004451162
-8.5769859e-05
0.0044487564
-8.7707464e-05
0.0044462898
-8.9623235e-05
0.0044437628
-9.151637e-05
0.0044411757
-9.3386034e-05
0.0044385292
-9.5231332e-05
0.0044358239
-9.705135e-05
0.0044330604
-9.8845125e-05
0.0044302394
-0.00010061169
0.0044273618
-0.00010235003
0.0044244282
-0.00010405916
0.0044214396
-0.00010573804
0.0044183968
-0.00010738564
0.0044153007
-0.00010900094
0.0044121524
-0.00011058292
0.0044089529
-0.00011213055
0.0044057032
-0.00011364282
0.0044024044
-0.00011511873
0.0043990577
-0.0001165573
0.0043956642
-0.00011795756
0.0043922252
-0.00011931855
0.0043887418
-0.00012063934
0.0043852154
-0.00012191903
0.0043816473
-0.00012315672
0.0043780387
-0.00012435155
0.0043743912
-0.0001255027
0.004370706
-0.00012660933
0.0043669845
-0.00012767068
0.0043632283
-0.00012868598
0.0043594388
-0.00012965452
0.0043556174
-0.00013057559
0.0043517657
-0.00013144854
0.0043478851
-0.0001322727
0.0043439772
-0.00013304746
0.0043400436
-0.00013377232
0.0043360858
-0.00013444664
0.0043321054
-0.00013506993
0.0043281039
-0.00013564169
0.004324083
-0.00013616149
0.0043200442
-0.00013662886
0.0043159892
-0.0001370434
0.0043119196
-0.00013740477
0.004307837
-0.00013771258
0.004303743
-0.0001379665
0.0042996393
-0.00013816623
0.0042955275
-0.00013831152
0.0042914092
-0.00013840207
0.0042872861
-0.00013843768
0.0042831597
-0.00013841815
0.0042790318
-0.00013834325
0.0042749039
-0.00013821284
0.0042707777
-0.00013802675
0.0042666548
-0.0001377849
0.0042625369
-0.00013748713
0.0042584254
-0.00013713331
0.0042543221
-0.00013672341
0.0042502286
-0.00013625734
0.0042461465
-0.00013573502
0.0042420773
-0.00013515637
0.0042380226
-0.00013452143
0.0042339841
-0.0001338301
0.0042299633
-0.00013308235
0.0042259618
-0.00013227823
0.0042219812
-0.00013141764
-0.00013050059
0.0043410871
-6.1570325e-05
0.0043394269
-6.3656074e-05
0.0043377049
-6.5723095e-05
0.0043359211
-6.7771842e-05
0.0043340757
-6.9802498e-05
0.0043321689
-7.1815096e-05
0.0043302009
-7.3809547e-05
0.0043281718
-7.5785665e-05
0.0043260819
-7.7743153e-05
0.0043239315
-7.9681609e-05
0.0043217209
-8.160056e-05
0.0043194504
-8.3499434e-05
0.0043171206
-8.5377609e-05
0.0043147317
-8.7234378e-05
0.0043122844
-8.9068998e-05
0.004309779
-9.0880667e-05
0.0043072162
-9.2668533e-05
0.0043045966
-9.4431728e-05
0.0043019208
-9.6169331e-05
0.0042991895
-9.7880416e-05
0.0042964035
-9.9564029e-05
0.0042935635
-0.00010121919
0.0042906704
-0.00010284494
0.0042877251
-0.00010444027
0.0042847284
-0.00010600422
0.0042816812
-0.00010753578
0.0042785847
-0.00010903399
0.0042754397
-0.00011049786
0.0042722474
-0.00011192644
0.0042690089
-0.00011331877
0.0042657252
-0.00011467392
0.0042623977
-0.00011599098
0.0042590273
-0.00011726903
0.0042556155
-0.0001185072
0.0042521634
-0.00011970464
0.0042486724
-0.00012086051
0.0042451437
-0.000121974
0.0042415787
-0.00012304432
0.0042379787
-0.00012407071
0.0042343452
-0.00012505244
0.0042306795
-0.00012598882
0.004226983
-0.00012687915
0.0042232573
-0.00012772279
0.0042195037
-0.00012851912
0.0042157238
-0.00012926754
0.004211919
-0.00012996752
0.0042080908
-0.00013061848
0.0042042408
-0.00013121989
0.0042003704
-0.00013177133
0.0041964813
-0.00013227236
0.0041925749
-0.00013272248
0.0041886528
-0.0001331213
0.0041847166
-0.00013346855
0.0041807678
-0.00013376379
0.004176808
-0.00013400669
0.0041728387
-0.00013419701
0.0041688616
-0.00013433442
0.0041648783
-0.00013441868
0.0041608902
-0.00013444959
0.0041568989
-0.00013442693
0.0041529062
-0.00013435047
0.0041489134
-0.0001342201
0.0041449223
-0.00013403559
0.0041409343
-0.00013379691
0.004136951
-0.00013350388
0.0041329741
-0.00013315635
0.004129005
-0.00013275431
0.0041250453
-0.00013229767
0.0041210966
-0.00013178629
0.0041171604
-0.00013122019
0.0041132383
-0.0001305993
0.0041093317
-0.00012992357
0.0041054424
-0.00012919298
0.0041015716
-0.0001284075
0.0040977211
-0.00012756713
-0.00012667178
0.0042117632
-6.0024764e-05
0.0042101572
-6.2050063e-05
0.0042084909
-6.4056784e-05
0.0042067645
-6.6045406e-05
0.0042049781
-6.8016115e-05
0.004203132
-6.9968972e-05
0.0042012263
-7.1903915e-05
0.0041992615
-7.3820775e-05
0.0041972376
-7.571929e-05
0.0041951551
-7.7599087e-05
0.0041930142
-7.9459716e-05
0.0041908155
-8.1300654e-05
0.0041885591
-8.3121298e-05
0.0041862458
-8.4920991e-05
0.0041838758
-8.6699014e-05
0.0041814497
-8.8454613e-05
0.0041789682
-9.0186976e-05
0.0041764317
-9.1895263e-05
0.004173841
-9.3578612e-05
0.0041711967
-9.5236121e-05
0.0041684995
-9.6866876e-05
0.0041657503
-9.8469956e-05
0.0041629498
-0.00010004441
0.0041600988
-0.00010158931
0.0041571983
-0.00010310369
0.0041542491
-0.00010458661
0.0041512522
-0.00010603713
0.0041482087
-0.00010745431
0.0041451194
-0.00010883721
0.0041419856
-0.00011018494
0.0041388083
-0.00011149657
0.0041355885
-0.00011277123
0.0041323275
-0.00011400804
0.0041290265
-0.00011520617
0.0041256866
-0.00011636476
0.0041223091
-0.00011748303
0.0041188953
-0.00011856018
0.0041154465
-0.00011959545
0.0041119639
-0.00012058811
0.0041084489
-0.00012153744
0.0041049028
-0.00012244277
0.0041013271
-0.00012330342
0.0040977231
-0.00012411878
0.0040940922
-0.00012488823
0.0040904358
-0.00012561117
0.0040867554
-0.00012628712
0.0040830524
-0.00012691551
0.0040793283
-0.00012749581
0.0040755846
-0.0001280276
0.0040718227
-0.00012851045
0.0040680441
-0.00012894389
0.0040642504
-0.00012932754
0.0040604429
-0.00012966109
0.0040566233
-0.00012994416
0.004052793
-0.00013017642
0.0040489536
-0.00013035757
0.0040451065
-0.00013048737
0.0040412533
-0.00013056553
0.0040373956
-0.00013059186
0.0040335348
-0.00013056614
0.0040296725
-0.00013048815
0.0040258102
-0.00013035777
0.0040219494
-0.00013017479
0.0040180916
-0.00012993912
0.0040142384
-0.00012965064
0.0040103912
-0.00012930919
0.0040065516
-0.00012891471
0.0040027211
-0.00012846716
0.0039989012
-0.00012796638
0.0039950933
-0.00012741236
0.0039912991
-0.00012680505
0.0039875199
-0.00012614441
0.0039837573
-0.00012543039
0.0039800128
-0.00012466297
0.0039762878
-0.00012384212
-0.00012296778
0.0040855385
-5.8530092e-05
0.0040839848
-6.0496425e-05
0.0040823724
-6.2444391e-05
0.0040807015
-6.437447e-05
0.0040789723
-6.6286869e-05
0.0040771849
-6.8181658e-05
0.0040753398
-7.0058799e-05
0.0040734372
-7.191815e-05
0.0040714774
-7.3759456e-05
0.0040694607
-7.5582385e-05
0.0040673875
-7.7386513e-05
0.0040652581
-7.9171336e-05
0.0040630731
-8.0936292e-05
0.0040608329
-8.2680756e-05
0.0040585379
-8.440404e-05
0.0040561887
-8.6105421e-05
0.0040537859
-8.7784133e-05
0.00405133
-8.9439363e-05
0.0040488217
-9.1070287e-05
0.0040462616
-9.2676044e-05
0.0040436505
-9.4255759e-05
0.0040409891
-9.5808542e-05
0.0040382781
-9.7333482e-05
0.0040355185
-9.882968e-05
0.004032711
-0.00010029622
0.0040298566
-0.00010173219
0.0040269562
-0.00010313668
0.0040240106
-0.00010450879
0.0040210211
-0.00010584762
0.0040179884
-0.00010715229
0.0040149138
-0.00010842193
0.0040117982
-0.00010965568
0.0040086429
-0.00011085269
0.0040054489
-0.00011201216
0.0040022174
-0.00011313327
0.0039989496
-0.00011421524
0.0039956467
-0.00011525732
0.00399231
-0.00011625876
0.0039889408
-0.00011721884
0.0039855402
-0.00011813689
0.0039821097
-0.00011901223
0.0039786505
-0.00011984422
0.003975164
-0.00012063225
0.0039716514
-0.00012137572
0.0039681144
-0.00012207407
0.003964554
-0.00012272681
0.0039609719
-0.00012333336
0.0039573693
-0.00012389324
0.0039537478
-0.00012440605
0.0039501086
-0.00012487131
0.0039464534
-0.00012528863
0.0039427834
-0.00012565758
0.0039391002
-0.00012597789
0.0039354052
-0.00012624917
0.0039316999
-0.00012647108
0.0039279857
-0.00012664339
0.0039242641
-0.00012676578
0.0039205366
-0.00012683802
0.0039168046
-0.0001268599
0.0039130697
-0.00012683118
0.0039093332
-0.00012675168
0.0039055967
-0.00012662126
0.0039018616
-0.0001264397
0.0038981294
-0.00012620694
0.0038944016
-0.00012592284
0.0038906796
-0.00012558721
0.003886965
-0.00012520005
0.0038832591
-0.00012476123
0.0038795634
-0.00012427069
0.0038758794
-0.00012372834
0.0038722085
-0.00012313416
0.0038685521
-0.00012248809
0.0038649118
-0.00012179008
0.003861289
-0.00012104012
0.003857685
-0.00012023815
-0.00011938417
0.0039624034
-5.7084474e-05
0.0039609003
-5.8993328e-05
0.00395934
-6.0884062e-05
0.0039577227
-6.2757168e-05
0.0039560487
-6.4612858e-05
0.0039543183
-6.6451223e-05
0.0039525317
-6.8272232e-05
0.0039506893
-7.0075767e-05
0.0039487915
-7.1861593e-05
0.0039468385
-7.3629396e-05
0.0039448307
-7.5378773e-05
0.0039427687
-7.710926e-05
0.0039406527
-7.8820309e-05
0.0039384832
-8.0511323e-05
0.0039362609
-8.2181658e-05
0.003933986
-8.3830612e-05
0.0039316594
-8.5457449e-05
0.0039292814
-8.7061399e-05
0.0039268528
-8.8641668e-05
0.0039243742
-9.0197426e-05
0.0039218462
-9.1727832e-05
0.0039192697
-9.3232036e-05
0.0039166454
-9.4709162e-05
0.0039139741
-9.6158336e-05
0.0039112565
-9.7578687e-05
0.0039084937
-9.8969328e-05
0.0039056864
-0.00010032938
0.0039028356
-0.00010165799
0.0038999422
-0.00010295427
0.0038970073
-0.00010421738
0.0038940318
-0.00010544648
0.0038910169
-0.00010664073
0.0038879635
-0.00010779933
0.0038848728
-0.00010892148
0.003881746
-0.00011000639
0.003878584
-0.00011105332
0.0038753882
-0.00011206153
0.0038721598
-0.00011303029
0.0038688999
-0.00011395892
0.0038656097
-0.00011484675
0.0038622906
-0.00011569312
0.0038589438
-0.00011649742
0.0038555706
-0.00011725905
0.0038521723
-0.00011797743
0.0038487503
-0.000118652
0.0038453058
-0.00011928229
0.0038418401
-0.00011986775
0.0038383548
-0.00012040788
0.003834851
-0.00012090232
0.0038313303
-0.00012135059
0.003827794
-0.00012175227
0.0038242434
-0.00012210702
0.00382068
-0.00012241449
0.0038171052
-0.00012267433
0.0038135204
-0.00012288626
0.0038099269
-0.00012304996
0.0038063263
-0.00012316517
0.0038027199
-0.00012323164
0.0037991092
-0.00012324918
0.0037954956
-0.00012321755
0.0037918805
-0.00012313655
0.0037882653
-0.00012300606
0.0037846514
-0.00012282586
0.0037810404
-0.00012259589
0.0037774335
-0.00012231595
0.0037738322
-0.00012198596
0.003770238
-0.00012160582
0.0037666522
-0.00012117545
0.0037630763
-0.00012069476
0.0037595116
-0.00012016368
0.0037559596
-0.00011958218
0.0037524217
-0.00011895019
0.0037488993
-0.00011826766
0.0037453938
-0.00011753458
0.0037419065
-0.00011675089
-0.00011591657
0.0038423399
-5.5686072e-05
0.0038408855
-5.7538912e-05
0.0038393754
-5.9373924e-05
0.0038378098
-6.1191598e-05
0.0038361891
-6.2992162e-05
0.0038345136
-6.4775706e-05
0.0038327836
-6.6542222e-05
0.0038309994
-6.8291595e-05
0.0038291614
-7.0023615e-05
0.00382727
-7.1737984e-05
0.0038253256
-7.3434322e-05
0.0038233285
-7.511218e-05
0.0038212792
-7.6771042e-05
0.0038191782
-7.8410338e-05
0.003817026
-8.0029443e-05
0.0038148231
-8.162769e-05
0.00381257
-8.3204373e-05
0.0038102674
-8.4758752e-05
0.0038079158
-8.6290059e-05
0.0038055158
-8.7797503e-05
0.0038030683
-8.9280273e-05
0.0038005738
-9.0737545e-05
0.0037980331
-9.2168483e-05
0.003795447
-9.3572245e-05
0.0037928163
-9.4947982e-05
0.0037901418
-9.6294849e-05
0.0037874245
-9.7611998e-05
0.0037846651
-9.8898586e-05
0.0037818646
-0.00010015379
0.003779024
-0.00010137677
0.0037761442
-0.00010256672
0.0037732263
-0.00010372284
0.0037702713
-0.00010484434
0.0037672803
-0.00010593044
0.0037642543
-0.00010698041
0.0037611945
-0.0001079935
0.0037581019
-0.00010896899
0.0037549779
-0.0001099062
0.0037518234
-0.00011080444
0.0037486397
-0.00011166307
0.003745428
-0.00011248146
0.0037421896
-0.000113259
0.0037389257
-0.00011399511
0.0037356375
-0.00011468924
0.0037323263
-0.00011534082
0.0037289934
-0.0001159494
0.0037256401
-0.00011651446
0.0037222677
-0.00011703551
0.0037188776
-0.00011751214
0.0037154709
-0.00011794397
0.0037120492
-0.00011833054
0.0037086137
-0.0001186715
0.0037051658
-0.00011896657
0.0037017068
-0.00011921534
0.0036982381
-0.00011941755
0.003694761
-0.00011957291
0.003691277
-0.00011968115
0.0036877874
-0.00011974203
0.0036842935
-0.00011975533
0.0036807968
-0.00011972084
0.0036772986
-0.00011963837
0.0036738003
-0.00011950777
0.0036703033
-0.00011932885
0.003666809
-0.00011910151
0.0036633186
-0.00011882562
0.0036598337
-0.00011850102
0.0036563555
-0.00011812766
0.0036528855
-0.00011770544
0.003649425
-0.00011723424
0.0036459754
-0.00011671407
0.003642538
-0.00011614479
0.0036391142
-0.00011552641
0.0036357054
-0.00011485886
0.0036323129
-0.00011414207
0.0036289381
-0.00011337608
-0.00011256077
0.0037253227
-5.4333044e-05
0.0037239151
-5.6131325e-05
0.0037224533
-5.7912107e-05
0.0037209375
-5.9675872e-05
0.0037193682
-6.1422856e-05
0.0037177457
-6.3153153e-05
0.0037160702
-6.486677e-05
0.0037143422
-6.6563599e-05
0.0037125621
-6.8243442e-05
0.0037107301
-6.9906021e-05
0.0037088467
-7.1550969e-05
0.0037069124
-7.3177863e-05
0.0037049276
-7.4786203e-05
0.0037028927
-7.637544e-05
0.0037008082
-7.7944984e-05
0.0036986747
-7.9494182e-05
0.0036964927
-8.1022366e-05
0.0036942628
-8.2528816e-05
0.0036919855
-8.4012794e-05
0.0036896616
-8.5473544e-05
0.0036872916
-8.6910279e-05
0.0036848762
-8.8322204e-05
0.0036824163
-8.970852e-05
0.0036799124
-9.1068406e-05