/*--------------------------------*- C++ -*----------------------------------*\
| =========                 |                                                 |
| \\      /  F ield         | OpenFOAM: The Open Source CFD Toolbox           |
|  \\    /   O peration     | Version:  2.4.0                                 |
|   \\  /    A nd           | Web:      www.OpenFOAM.org                      |
|    \\/     M anipulation  |                                                 |
\*---------------------------------------------------------------------------*/
FoamFile
{
    version     2.0;
    format      ascii;
    class       volVectorField;
    location    "10000";
    object      U;
}
// * * * * * * * * * * * * * * * * * * * * * * * * * * * * * * * * * * * * * //

dimensions      [0 1 -1 0 0 0 0];

internalField   nonuniform List<vector> 
9742
(
(0.95357705 -0.022098438 0)
(0.95329118 -0.022797914 0)
(0.9529847 -0.023499621 0)
(0.95265711 -0.024202578 0)
(0.95230799 -0.024905813 0)
(0.95193702 -0.025608365 0)
(0.951544 -0.026309291 0)
(0.95112876 -0.027007682 0)
(0.95069125 -0.027702752 0)
(0.96854457 -0.021755702 0)
(0.96823253 -0.022428517 0)
(0.96790132 -0.023102763 0)
(0.96755044 -0.023777604 1.3027175e-20)
(0.9671795 -0.024452196 -2.6118687e-20)
(0.96678819 -0.0251257 -4.4566683e-23)
(0.96637628 -0.025797284 2.6340252e-20)
(0.96594361 -0.02646614 4.9587503e-23)
(0.96549008 -0.027131501 -1.3264011e-20)
(0.98227219 -0.021386491 0)
(0.98193348 -0.022035111 0)
(0.98157678 -0.022684437 0)
(0.98120163 -0.023333749 0)
(0.98080763 -0.023982312 0)
(0.98039449 -0.024629389 0)
(0.97996197 -0.025274246 0)
(0.97950989 -0.025916162 0)
(0.97903814 -0.026554436 0)
(0.99490387 -0.020992961 0)
(0.99453879 -0.021619423 0)
(0.99415668 -0.022245937 0)
(0.99375712 -0.022871879 0)
(0.99333974 -0.023496609 0)
(0.99290423 -0.024119477 0)
(0.99245038 -0.024739834 0)
(0.99197801 -0.02535703 0)
(0.99148699 -0.025970423 0)
(1.0065544 -0.020578123 0)
(1.0061642 -0.021184078 0)
(1.0057578 -0.021789519 0)
(1.0053346 -0.022393899 0)
(1.0048945 -0.02299665 0)
(1.004437 -0.023597199 0)
(1.0039621 -0.024194965 -1.3334967e-20)
(1.0034695 -0.024789363 2.6732677e-20)
(1.0029592 -0.025379809 -1.3397794e-20)
(1.017314 -0.020146006 1.3133751e-20)
(1.0169009 -0.020732764 1.3208164e-20)
(1.0164721 -0.021318529 -1.3213595e-20)
(1.0160271 -0.021902813 -1.3296667e-20)
(1.0155657 -0.022485112 1.3302372e-20)
(1.0150878 -0.023064914 -1.339427e-20)
(1.014593 -0.023641696 1.3400234e-20)
(1.0140812 -0.02421493 -1.3501052e-20)
(1.0135524 -0.024784085 1.3507265e-20)
(1.0272557 -0.019701118 -1.3271828e-20)
(1.0268224 -0.02026973 1.3345968e-20)
(1.0263737 -0.020836943 -1.3350674e-20)
(1.0259093 -0.021402324 0)
(1.025429 -0.021965422 0)
(1.0249325 -0.022525775 0)
(1.0244197 -0.023082911 0)
(1.0238905 -0.023636351 0)
(1.0233448 -0.02418561 0)
(1.0227826 -0.024730204 0)
(1.0222038 -0.025269651 6.9049948e-21)
(1.0216084 -0.025803471 2.8409282e-23)
(1.0209966 -0.026331192 -6.9394533e-21)
(1.0203684 -0.026852346 0)
(1.0197239 -0.027366478 0)
(1.0364427 -0.019247903 1.3427194e-20)
(1.0359919 -0.019799238 1.3501364e-20)
(1.035526 -0.020348834 -1.3505644e-20)
(1.0350448 -0.020896303 -1.3588195e-20)
(1.0345479 -0.021441238 2.72277e-20)
(1.0340353 -0.021983223 -1.3639657e-20)
(1.0335067 -0.02252183 0)
(1.0329622 -0.023056623 0)
(1.0324015 -0.023587159 0)
(1.0318248 -0.024112994 0)
(1.0312319 -0.024633685 0)
(1.030623 -0.02514879 0)
(1.0299981 -0.025657872 0)
(1.0293573 -0.026160496 7.0776534e-21)
(1.0287007 -0.026656237 3.134581e-23)
(1.0449314 -0.018790375 0)
(1.0444659 -0.019325175 -1.3672206e-20)
(1.0439854 -0.019857947 1.3676248e-20)
(1.0434898 -0.020388342 6.8794585e-21)
(1.0429788 -0.020915997 -6.8816333e-21)
(1.0424523 -0.021440533 6.927177e-21)
(1.0419102 -0.021961562 -6.9295067e-21)
(1.0413524 -0.022478684 6.9792926e-21)
(1.0407789 -0.022991496 -6.9817775e-21)
(1.0401896 -0.023499589 7.0358064e-21)
(1.0395846 -0.024002555 -7.0384446e-21)
(1.0389639 -0.024499985 7.0966866e-21)
(1.0383275 -0.024991473 -1.4228224e-20)
(1.0376756 -0.025476614 1.4293488e-20)
(1.0370084 -0.025955012 -1.4360876e-20)
(1.0527738 -0.018331979 -1.7249093e-23)
(1.0522959 -0.018850889 6.9103144e-21)
(1.0518033 -0.019367526 0)
(1.0512956 -0.019881579 0)
(1.0507727 -0.020392719 0)
(1.0502346 -0.020900604 0)
(1.049681 -0.021404878 7.0452193e-21)
(1.049112 -0.021905179 -1.4119387e-20)
(1.0485275 -0.022401134 7.074247e-21)
(1.0479276 -0.022892368 0)
(1.0473121 -0.023378503 0)
(1.0466813 -0.023859161 0)
(1.0460352 -0.024333963 0)
(1.0453738 -0.024802534 7.2541006e-21)
(1.0446973 -0.0252645 -7.2570091e-21)
(1.0600177 -0.017875562 6.989959e-21)
(1.0595296 -0.018379159 0)
(1.0590268 -0.018880277 0)
(1.0585091 -0.019378637 7.0710957e-21)
(1.0579763 -0.019873942 -1.4167681e-20)
(1.0574284 -0.020365881 7.0966672e-21)
(1.0568653 -0.020854131 0)
(1.056287 -0.021338359 0)
(1.0556933 -0.021818223 -7.1989137e-21)
(1.0550844 -0.022293378 1.4429135e-20)
(1.0544603 -0.022763472 2.7295534e-23)
(1.0538209 -0.023228155 -7.2602683e-21)
(1.0531665 -0.023687075 0)
(1.0524972 -0.024139879 -7.3536142e-21)
(1.051813 -0.024586219 7.3565322e-21)
(1.0667071 -0.017423429 7.1123857e-21)
(1.0662107 -0.017912239 -7.1142263e-21)
(1.0656995 -0.018398396 0)
(1.0651736 -0.01888165 -7.1764871e-21)
(1.0646327 -0.019361734 7.1785795e-21)
(1.0640768 -0.019838364 7.2245837e-21)
(1.0635058 -0.020311247 -7.2268468e-21)
(1.0629197 -0.020780077 0)
(1.0623185 -0.021244538 0)
(1.0617021 -0.021704312 0)
(1.0610708 -0.022159074 7.3636861e-21)
(1.0604244 -0.022608497 -7.3663825e-21)
(1.0597632 -0.023052251 0)
(1.0590872 -0.02349001 -7.4599349e-21)
(1.0583965 -0.023921445 7.4628941e-21)
(1.0576914 -0.02434623 7.5292957e-21)
(1.0569721 -0.024764045 -7.5324304e-21)
(1.0728827 -0.016977415 -7.2057496e-21)
(1.0723795 -0.017451921 0)
(1.0718617 -0.017923629 0)
(1.071329 -0.018392316 0)
(1.0707815 -0.018857741 0)
(1.070219 -0.019319646 0)
(1.0696416 -0.019777761 0)
(1.0690492 -0.020231806 -7.3889684e-21)
(1.0684417 -0.020681492 7.3914449e-21)
(1.0678194 -0.021126522 0)
(1.0671821 -0.021566594 0)
(1.06653 -0.022001405 0)
(1.0658631 -0.022430647 0)
(1.0651817 -0.022854013 0)
(1.0644858 -0.023271195 0)
(1.0637757 -0.023681887 0)
(1.0630514 -0.024085786 0)
(1.0623132 -0.024482595 0)
(1.0615612 -0.024872021 0)
(1.0607958 -0.025253775 0)
(1.0600172 -0.025627574 0)
(1.0592256 -0.025993141 0)
(1.078582 -0.016538958 -7.3400751e-21)
(1.0780733 -0.016999609 1.4702636e-20)
(1.07755 -0.017457344 -7.3626527e-21)
(1.077012 -0.017911964 7.4050992e-21)
(1.0764591 -0.018363249 -7.4072612e-21)
(1.0758914 -0.018810965 7.4538409e-21)
(1.0753088 -0.019254866 -7.4561904e-21)
(1.0747112 -0.019694693 -7.5069089e-21)
(1.0740988 -0.020130178 -2.5613387e-23)
(1.0734715 -0.020561048 7.5376954e-21)
(1.0728295 -0.020987022 -7.5945823e-21)
(1.0721728 -0.021407816 7.5974085e-21)
(1.0715014 -0.021823143 0)
(1.0708156 -0.022232714 7.6918052e-21)
(1.0701155 -0.022636241 -7.6949217e-21)
(1.0694013 -0.023033435 7.7618071e-21)
(1.068673 -0.02342401 -7.7651186e-21)
(1.0679311 -0.023807684 -7.8358479e-21)
(1.0671755 -0.024184179 7.8393549e-21)
(1.0664066 -0.024553222 0)
(1.0656247 -0.024914542 7.9542261e-21)
(1.0648299 -0.025267876 -7.9580265e-21)
(1.0640226 -0.025612966 -4.0189144e-21)
(1.0632029 -0.02594956 4.0209123e-21)
(1.0623713 -0.026277415 0)
(1.0615281 -0.026596292 0)
(1.0606734 -0.026905963 4.1077942e-21)
(1.0598078 -0.027206204 -4.1099858e-21)
(1.0589314 -0.027496802 0)
(1.0580447 -0.027777549 0)
(1.0571479 -0.028048249 -4.2031407e-21)
(1.085291 -0.014750934 -7.4064379e-21)
(1.0848214 -0.015206308 7.4080899e-21)
(1.0843374 -0.01565909 0)
(1.083839 -0.01610916 -7.4623901e-21)
(1.0833261 -0.016556379 7.4643272e-21)
(1.0827986 -0.017000587 0)
(1.0822563 -0.017441606 0)
(1.0816992 -0.017879235 0)
(1.0811272 -0.018313263 0)
(1.0805405 -0.018743462 -7.6033911e-21)
(1.0799389 -0.019169595 7.6059141e-21)
(1.0793225 -0.019591415 7.6590706e-21)
(1.0786913 -0.020008666 -7.661793e-21)
(1.0780455 -0.020421089 0)
(1.0773851 -0.020828416 0)
(1.0767102 -0.02123038 0)
(1.0760209 -0.02162671 7.8169994e-21)
(1.0753175 -0.022017133 -1.5671962e-20)
(1.0746 -0.022401378 7.8550647e-21)
(1.0738687 -0.022779175 0)
(1.0731237 -0.023150255 7.9620336e-21)
(1.0723654 -0.023514356 -7.9656737e-21)
(1.0715938 -0.023871216 0)
(1.0708092 -0.024220579 0)
(1.070012 -0.024562193 0)
(1.0692023 -0.024895813 0)
(1.0683805 -0.025221196 -4.1043665e-21)
(1.0675468 -0.02553811 4.1064965e-21)
(1.0667016 -0.025846328 4.1490914e-21)
(1.0658451 -0.026145628 -8.3234101e-21)
(1.0649777 -0.026435798 -2.1116403e-23)
(1.0640997 -0.026716629 4.197822e-21)
(1.0632115 -0.026987925 0)
(1.0623133 -0.027249494 0)
(1.0901469 -0.014369113 -1.5052249e-20)
(1.0896742 -0.014811779 1.5086834e-20)
(1.089187 -0.015251727 -1.5123556e-20)
(1.0886854 -0.015688854 7.5722078e-21)
(1.0881692 -0.016123038 0)
(1.0876383 -0.016554138 7.6333379e-21)
(1.0870927 -0.016981992 -1.5292083e-20)
(1.0865323 -0.017406419 7.6588463e-21)
(1.0859571 -0.017827226 0)
(1.0853671 -0.018244204 -7.7326729e-21)
(1.0847623 -0.018657133 7.7352966e-21)
(1.0841428 -0.019065786 0)
(1.0835086 -0.019469924 0)
(1.0828598 -0.019869304 0)
(1.0821965 -0.020263678 7.881312e-21)
(1.0815189 -0.020652794 -7.8844617e-21)
(1.0808269 -0.021036396 0)
(1.0801209 -0.021414229 0)
(1.079401 -0.021786035 4.0096689e-21)
(1.0786673 -0.02215156 1.6749431e-23)
(1.0779201 -0.022510549 -4.0300515e-21)
(1.0771596 -0.022862752 4.0667824e-21)
(1.076386 -0.02320792 -4.0687347e-21)
(1.0755995 -0.023545808 4.1073013e-21)
(1.0748004 -0.023876178 -8.2376317e-21)
(1.073989 -0.024198793 4.130385e-21)
(1.0731656 -0.024513423 4.1715758e-21)
(1.0723304 -0.024819843 -4.1738009e-21)
(1.0714838 -0.025117838 0)
(1.070626 -0.025407193 0)
(1.0697573 -0.025687703 0)
(1.0688782 -0.025959171 -4.2873746e-21)
(1.067989 -0.026221404 8.6016114e-21)
(1.0670898 -0.026474218 2.2189403e-23)
(1.0946184 -0.013996385 7.651086e-21)
(1.0941433 -0.014426653 0)
(1.0936538 -0.014854099 -7.7033677e-21)
(1.0931498 -0.015278639 7.7053743e-21)
(1.0926311 -0.015700165 0)
(1.0920977 -0.016118553 0)
(1.0915496 -0.016533654 -7.7906361e-21)
(1.0909867 -0.016945307 7.7930615e-21)
(1.090409 -0.017353332 0)
(1.0898165 -0.01775754 0)
(1.0892093 -0.018157726 0)
(1.0885874 -0.018553678 7.9244896e-21)
(1.0879509 -0.018945177 2.7089666e-23)
(1.0872998 -0.019331993 -1.5943303e-20)
(1.0866344 -0.019713893 7.9888694e-21)
(1.0859546 -0.020090642 -4.0255887e-21)
(1.0852606 -0.020461998 8.0700513e-21)
(1.0845527 -0.020827721 -4.0445186e-21)
(1.0838309 -0.021187566 4.07866e-21)
(1.0830955 -0.021541293 -4.0805339e-21)
(1.0823466 -0.02188866 0)
(1.0815845 -0.022229428 0)
(1.0808094 -0.022563361 0)
(1.0800215 -0.022890226 0)
(1.0792212 -0.023209794 0)
(1.0784086 -0.023521838 0)
(1.0775841 -0.02382614 4.2421043e-21)
(1.0767478 -0.024122483 -4.2444365e-21)
(1.0759003 -0.024410659 0)
(1.0750416 -0.024690464 0)
(1.0741722 -0.024961701 -4.3347672e-21)
(1.0732924 -0.025224177 4.3373294e-21)
(1.0724025 -0.025477709 0)
(1.0715029 -0.025722117 0)
(1.098732 -0.013633198 -7.8043191e-21)
(1.0982554 -0.014051364 7.8062323e-21)
(1.0977643 -0.014466629 0)
(1.0972585 -0.014878923 0)
(1.096738 -0.015288151 0)
(1.0962028 -0.015694201 0)
(1.0956528 -0.016096942 0)
(1.095088 -0.016496224 0)
(1.0945084 -0.016891885 7.9812289e-21)
(1.0939141 -0.017283748 2.4332056e-23)
(1.0933051 -0.017671626 2.532692e-23)
(1.0926814 -0.018055319 -8.0395753e-21)
(1.0920432 -0.018434624 0)
(1.0913905 -0.018809325 0)
(1.0907234 -0.019179204 0)
(1.0900421 -0.019544039 -4.0970504e-21)
(1.0893466 -0.019903602 -1.5575438e-23)
(1.0886373 -0.020257665 4.1162715e-21)
(1.0879142 -0.020605998 -4.1507324e-21)
(1.0871775 -0.020948372 4.152703e-21)
(1.0864275 -0.021284557 -4.1891039e-21)
(1.0856643 -0.021614326 8.4002378e-21)
(1.0848882 -0.021937453 1.8283004e-23)
(1.0840994 -0.022253717 -4.231687e-21)
(1.0832982 -0.022562897 -4.2717877e-21)
(1.0824848 -0.022864778 4.2741186e-21)
(1.0816596 -0.02315915 -4.3159658e-21)
(1.0808228 -0.023445805 4.3184178e-21)
(1.0799747 -0.023724542 0)
(1.0791156 -0.023995166 4.3855654e-21)
(1.0782458 -0.024257487 -4.3881992e-21)
(1.0773657 -0.02451132 0)
(1.0764755 -0.024756487 -4.4589123e-21)
(1.0755757 -0.024992816 4.4617275e-21)
(1.1025122 -0.013279832 -1.5461427e-23)
(1.1020346 -0.013686186 7.9498277e-21)
(1.1015424 -0.01408958 0)
(1.1010354 -0.014489955 0)
(1.1005137 -0.014887229 0)
(1.0999772 -0.015281302 0)
(1.0994259 -0.015672055 0)
(1.0988598 -0.016059353 0)
(1.0982789 -0.016443045 -4.0636545e-21)
(1.0976832 -0.016822968 4.0651307e-21)
(1.0970729 -0.017198948 0)
(1.096448 -0.017570801 0)
(1.0958085 -0.017938333 0)
(1.0951546 -0.018301344 0)
(1.0944864 -0.018659629 0)
(1.093804 -0.019012977 4.1715456e-21)
(1.0931075 -0.019361174 -8.3625823e-21)
(1.0923972 -0.019704004 4.1910982e-21)
(1.0916732 -0.020041248 4.225922e-21)
(1.0909357 -0.020372688 -8.4730966e-21)
(1.0901849 -0.020698107 4.2472371e-21)
(1.089421 -0.021017287 0)
(1.0886443 -0.021330013 -4.3056539e-21)
(1.087855 -0.021636073 -1.8843723e-23)
(1.0870533 -0.021935257 4.3292236e-21)
(1.0862395 -0.022227357 4.370611e-21)
(1.085414 -0.022512173 -8.766332e-21)
(1.0845769 -0.022789506 4.3957846e-21)
(1.0837285 -0.023059161 0)
(1.0828693 -0.023320952 0)
(1.0819994 -0.023574694 0)
(1.0811193 -0.023820211 0)
(1.0802291 -0.024057329 0)
(1.0793294 -0.024285883 4.5633938e-21)
(1.0784204 -0.024505711 -4.5664247e-21)
(1.0775024 -0.024716659 0)
(1.0765758 -0.02491858 0)
(1.075641 -0.025111336 0)
(1.0746984 -0.025294788 0)
(1.0737482 -0.02546881 0)
(1.072791 -0.025633278 2.3759673e-21)
(1.1059811 -0.012936431 0)
(1.105503 -0.013331256 -8.1155866e-21)
(1.1050101 -0.01372308 8.1179097e-21)
(1.1045024 -0.014111854 0)
(1.1039799 -0.014497507 0)
(1.1034426 -0.014879949 0)
(1.1028904 -0.015259072 0)
(1.1023234 -0.015634753 4.1262119e-21)
(1.1017416 -0.016006854 1.188371e-23)
(1.101145 -0.016375223 -8.2947581e-21)
(1.1005338 -0.016739698 4.1552097e-21)
(1.099908 -0.017100106 0)
(1.0992677 -0.017456267 0)
(1.098613 -0.017807992 0)
(1.097944 -0.018155088 0)
(1.0972609 -0.018497354 0)
(1.0965638 -0.01883459 4.26698e-21)
(1.0958529 -0.019166589 -4.2690554e-21)
(1.0951284 -0.019493144 0)
(1.0943904 -0.019814048 0)
(1.0936392 -0.020129093 0)
(1.0928749 -0.020438072 0)
(1.0920979 -0.02074078 0)
(1.0913083 -0.021037012 -4.4065951e-21)
(1.0905065 -0.021326568 4.4091282e-21)
(1.0896926 -0.021609251 4.4509729e-21)
(1.0888669 -0.021884865 -4.4536389e-21)
(1.0880298 -0.02215322 0)
(1.0871816 -0.022414131 0)
(1.0863224 -0.022667415 -4.5452504e-21)
(1.0854527 -0.022912897 4.5481836e-21)
(1.0845728 -0.023150405 -4.5949865e-21)
(1.0836829 -0.023379773 9.2185194e-21)
(1.0827835 -0.023600839 -9.2699369e-21)
(1.0818748 -0.023813449 4.6495379e-21)
(1.0809572 -0.024017451 0)
(1.0800311 -0.024212705 0)
(1.0790968 -0.024399074 0)
(1.0781547 -0.024576427 -2.390578e-21)
(1.077205 -0.024744638 2.392343e-21)
(1.0762483 -0.024903588 0)
(1.1105052 -0.011434178 0)
(1.1100711 -0.011826848 0)
(1.1096223 -0.012216446 0)
(1.1091589 -0.012603029 4.1257045e-21)
(1.1086806 -0.012986604 -4.1269026e-21)
(1.1081874 -0.013367152 0)
(1.1076793 -0.013744634 0)
(1.1071564 -0.014118987 0)
(1.1066186 -0.014490132 0)
(1.1060659 -0.01485797 0)
(1.1054983 -0.015222389 0)
(1.104916 -0.01558326 0)
(1.1043189 -0.015940443 0)
(1.1037071 -0.016293787 0)
(1.1030808 -0.01664313 -4.2628751e-21)
(1.10244 -0.016988302 -1.4032724e-23)
(1.1017848 -0.017329125 -1.4530234e-23)
(1.1011153 -0.017665416 -1.5023021e-23)
(1.1004318 -0.017996988 4.314368e-21)
(1.0997344 -0.018323646 4.3480128e-21)
(1.0990231 -0.018645197 -4.3502213e-21)
(1.0982983 -0.018961444 0)
(1.0975601 -0.019272189 4.4056467e-21)
(1.0968087 -0.019577233 -4.4080581e-21)
(1.0960444 -0.019876379 0)
(1.0952673 -0.02016943 0)
(1.0944777 -0.020456192 4.4897745e-21)
(1.0936759 -0.020736471 -4.4924611e-21)
(1.0928621 -0.021010077 0)
(1.0920366 -0.021276825 4.5580512e-21)
(1.0911998 -0.02153653 -4.5609464e-21)
(1.0903517 -0.021789015 -4.6058978e-21)
(1.0894929 -0.022034103 -2.1556654e-23)
(1.0886236 -0.022271626 -2.1918093e-23)
(1.087744 -0.022501416 4.6586884e-21)
(1.0868546 -0.022723315 4.7068099e-21)
(1.0859557 -0.022937166 2.2935311e-23)
(1.0850475 -0.023142818 -4.7364459e-21)
(1.0841305 -0.023340127 0)
(1.083205 -0.023528955 0)
(1.0822713 -0.023709169 0)
(1.0813298 -0.023880641 0)
(1.0803809 -0.024043251 -2.4491175e-21)
(1.0794249 -0.024196881 2.4510173e-21)
(1.1134091 -0.011143508 0)
(1.1129755 -0.011525278 0)
(1.112527 -0.011903944 -4.1967562e-21)
(1.1120638 -0.01227957 4.1979999e-21)
(1.1115856 -0.01265217 -4.2157103e-21)
(1.1110924 -0.013021732 4.2170769e-21)
(1.1105843 -0.013388223 -4.237017e-21)
(1.1100612 -0.01375159 4.2385087e-21)
(1.1095231 -0.01411176 4.2606779e-21)
(1.1089702 -0.014468647 -4.2622967e-21)
(1.1084023 -0.014822144 4.2866883e-21)
(1.1078197 -0.015172134 -4.2884365e-21)
(1.1072223 -0.015518485 0)
(1.1066103 -0.015861057 0)
(1.1059836 -0.016199697 -4.3457061e-21)
(1.1053426 -0.016534245 4.3477199e-21)
(1.1046871 -0.016864533 -4.3786693e-21)
(1.1040175 -0.017190388 4.3808191e-21)
(1.1033338 -0.017511631 0)
(1.1026362 -0.017828079 0)
(1.1019249 -0.018139548 0)
(1.1012 -0.018445848 0)
(1.1004618 -0.018746793 -4.4909541e-21)
(1.0997104 -0.019042191 4.4935233e-21)
(1.0989462 -0.019331854 0)
(1.0981692 -0.019615594 -4.5543304e-21)
(1.0973798 -0.019893224 -1.9363789e-23)
(1.0965782 -0.020164558 4.579335e-21)
(1.0957647 -0.020429415 4.6222567e-21)
(1.0949396 -0.020687615 -4.6252584e-21)
(1.0941031 -0.020938982 0)
(1.0932555 -0.021183343 0)
(1.0923971 -0.021420531 0)
(1.0915283 -0.02165038 0)
(1.0906493 -0.02187273 2.3853767e-21)
(1.0897604 -0.022087428 -2.3870972e-21)
(1.0888621 -0.022294322 0)
(1.0879546 -0.022493266 0)
(1.0870382 -0.02268412 0)
(1.0861134 -0.02286675 0)
(1.0851805 -0.023041028 0)
(1.0842397 -0.023206829 -2.4813374e-21)
(1.0832916 -0.023364036 4.9790671e-21)
(1.0823364 -0.023512534 -2.4977654e-21)
(1.1160561 -0.01086193 -8.5193606e-21)
(1.1156232 -0.011233028 -6.9504341e-24)
(1.1151753 -0.011601006 4.2723402e-21)
(1.1147125 -0.011965935 0)
(1.1142345 -0.012327831 -4.2991872e-21)
(1.1137416 -0.01268669 -9.0880507e-24)
(1.1132335 -0.013042486 4.3113227e-21)
(1.1127105 -0.013395171 0)
(1.1121724 -0.013744682 -4.345099e-21)
(1.1116194 -0.014090939 4.3468527e-21)
(1.1110515 -0.014433845 0)
(1.1104688 -0.014773289 0)
(1.1098713 -0.01510915 -4.4005567e-21)
(1.1092592 -0.015441295 -1.3316995e-23)
(1.1086325 -0.01576958 4.4179947e-21)
(1.1079913 -0.016093854 0)
(1.1073358 -0.016413959 0)
(1.1066661 -0.016729729 -4.4830878e-21)
(1.1059824 -0.017040995 4.4854669e-21)
(1.1052849 -0.017347583 0)
(1.1045736 -0.017649317 0)
(1.1038489 -0.017946017 0)
(1.1031108 -0.018237503 4.5798022e-21)
(1.1023596 -0.018523593 -4.582547e-21)
(1.1015956 -0.018804107 0)
(1.1008189 -0.019078865 -4.6443227e-21)
(1.1000299 -0.019347685 9.3141597e-21)
(1.0992286 -0.019610392 -4.6699116e-21)
(1.0984155 -0.01986681 -4.7134567e-21)
(1.0975908 -0.020116766 9.4541378e-21)
(1.0967548 -0.02036009 -4.7407576e-21)
(1.0959077 -0.020596617 0)
(1.0950499 -0.020826183 2.4061914e-21)
(1.0941817 -0.021048631 1.1183218e-23)
(1.0933033 -0.021263805 1.1361477e-23)
(1.0924151 -0.021471556 1.1534042e-23)
(1.0915175 -0.021671738 -2.4475053e-21)
(1.0906107 -0.02186421 2.4729722e-21)
(1.0896951 -0.022048836 -2.4749151e-21)
(1.0887711 -0.022225486 -2.5010775e-21)
(1.0878389 -0.022394035 5.0185004e-21)
(1.086899 -0.022554362 -2.5174607e-21)
(1.0859517 -0.022706353 2.5445723e-21)
(1.0849974 -0.022849897 -5.1061049e-21)
(1.0840364 -0.022984888 2.5615703e-21)
(1.0830691 -0.023111228 0)
(1.0820959 -0.023228822 0)
(1.0811172 -0.023337583 0)
(1.0801333 -0.023437426 2.635715e-21)
(1.0791446 -0.023528273 -2.6380637e-21)
(1.0781515 -0.023610048 -2.6671197e-21)
(1.0771544 -0.023682683 2.6695392e-21)
(1.0761537 -0.023746113 0)
(1.0751497 -0.023800279 0)
(1.0741428 -0.023845126 0)
(1.0731335 -0.023880603 -1.3736636e-21)
(1.0721222 -0.023906663 2.7567549e-21)
(1.0711091 -0.023923264 -1.3831068e-21)
(1.0700947 -0.023930368 -1.3981574e-21)
(1.0690794 -0.02392794 1.3994943e-21)
(1.0680636 -0.023915949 0)
(1.0670477 -0.023894368 0)
(1.066032 -0.023863171 0)
(1.0650169 -0.023822339 0)
(1.0640029 -0.023771852 0)
(1.0629903 -0.023711696 0)
(1.0619794 -0.023641856 3.6603882e-22)
(1.0609707 -0.023562322 1.702489e-24)
(1.0599646 -0.023473084 -3.6846344e-22)
(1.0589614 -0.023374137 0)
(1.0579615 -0.023265471 0)
(1.0569653 -0.023147082 0)
(1.0559732 -0.023018969 0)
(1.0549854 -0.022881132 0)
(1.0540025 -0.022733566 0)
(1.0530247 -0.022576272 0)
(1.1184616 -0.010589266 4.3486976e-21)
(1.1180294 -0.010949923 -4.3500635e-21)
(1.1175822 -0.011307459 0)
(1.1171199 -0.011661946 0)
(1.1166424 -0.012013407 0)
(1.1161497 -0.012361843 0)
(1.115642 -0.012707231 -4.4081315e-21)
(1.1151191 -0.013049533 8.8300737e-21)
(1.1145812 -0.013388692 -4.4220101e-21)
(1.1140283 -0.013724632 -4.4460847e-21)
(1.1134605 -0.014057265 4.4480598e-21)
(1.1128778 -0.014386488 0)
(1.1122804 -0.014712187 4.4894865e-21)
(1.1116683 -0.015034236 1.3478905e-23)
(1.1110416 -0.015352501 -9.0288237e-21)
(1.1104005 -0.015666837 4.5237437e-21)
(1.1097451 -0.015977095 0)
(1.1090755 -0.016283117 4.5737166e-21)
(1.108392 -0.016584743 1.6041329e-23)
(1.1076946 -0.016881807 -4.5949386e-21)
(1.1069835 -0.017174139 0)
(1.1062589 -0.017461568 0)
(1.1055211 -0.017743923 0)
(1.1047703 -0.018021029 4.693718e-21)
(1.1040066 -0.018292712 -9.4123677e-21)
(1.1032303 -0.0185588 4.7187279e-21)
(1.1024416 -0.01881912 0)
(1.1016408 -0.019073502 0)
(1.1008282 -0.019321777 0)
(1.100004 -0.019563778 -4.8330022e-21)
(1.0991686 -0.019799343 7.2654664e-21)
(1.0983221 -0.02002831 -2.4307624e-21)
(1.0974649 -0.020250523 0)
(1.0965973 -0.020465828 -2.4678184e-21)
(1.0957196 -0.020674077 2.4697194e-21)
(1.0948322 -0.020875124 -2.4948195e-21)
(1.0939353 -0.021068829 -1.183522e-23)
(1.0930293 -0.021255054 2.5106566e-21)
(1.0921145 -0.021433669 2.5368696e-21)
(1.0911913 -0.021604546 -2.5389701e-21)
(1.09026 -0.021767564 0)
(1.0893209 -0.021922606 -2.5806299e-21)
(1.0883745 -0.02206956 2.5828488e-21)
(1.0874211 -0.022208319 0)
(1.086461 -0.02233878 2.6259253e-21)
(1.0854946 -0.022460845 -2.6282605e-21)
(1.0845223 -0.022574424 0)
(1.0835445 -0.02267943 2.6725712e-21)
(1.0825615 -0.022775781 -2.6750201e-21)
(1.0815738 -0.022863399 -2.7043242e-21)
(1.0805816 -0.022942213 1.3466586e-21)
(1.0795854 -0.023012152 1.3614673e-21)
(1.0785856 -0.023073155 0)
(1.0775826 -0.023125162 0)
(1.0765767 -0.023168119 0)
(1.0755683 -0.023201976 0)
(1.0745579 -0.023226686 0)
(1.0735457 -0.023242208 -1.4176528e-21)
(1.0725323 -0.023248502 1.4190499e-21)
(1.0715179 -0.023245535 0)
(1.070503 -0.023233274 7.2137935e-22)
(1.0694879 -0.023211693 -7.2210031e-22)
(1.0684731 -0.023180766 7.2978861e-22)
(1.0674589 -0.023140471 3.4760338e-24)
(1.0664458 -0.02309079 -7.3474078e-22)
(1.065434 -0.023031706 0)
(1.064424 -0.022963205 0)
(1.0634162 -0.022885276 0)
(1.0624109 -0.022797908 0)
(1.0614085 -0.022701093 9.4903191e-23)
(1.0604095 -0.022594822 -9.5000037e-23)
(1.0594141 -0.022479092 -9.5946335e-23)
(1.0584228 -0.022353898 2.8897481e-22)
(1.0574359 -0.022219238 -1.9312733e-22)
(1.0564538 -0.022075109 0)
(1.0554768 -0.021921509 3.9203366e-22)
(1.1206391 -0.010325301 6.4667384e-24)
(1.1202078 -0.01067575 7.0780687e-24)
(1.1197613 -0.011023087 -4.4479341e-21)
(1.1192996 -0.011367388 -4.4654044e-21)
(1.1188226 -0.01170868 4.4671201e-21)
(1.1183304 -0.012046967 -4.4869454e-21)
(1.117823 -0.012382232 8.9874539e-21)
(1.1173004 -0.012714442 1.0401255e-23)
(1.1167627 -0.013043545 -4.5129737e-21)
(1.11621 -0.013369473 0)
(1.1156424 -0.013692143 -4.5516699e-21)
(1.1150599 -0.014011459 -1.2581289e-23)
(1.1144626 -0.014327313 4.5687518e-21)
(1.1138506 -0.014639587 4.5978833e-21)
(1.1132241 -0.014948154 -4.6003193e-21)
(1.1125831 -0.015252876 0)
(1.1119279 -0.015553611 -4.6495289e-21)
(1.1112585 -0.015850209 4.6521933e-21)
(1.1105752 -0.016142517 4.6869197e-21)
(1.109878 -0.016430377 -4.6897396e-21)
(1.1091672 -0.016713627 0)
(1.1084429 -0.016992102 0)
(1.1077054 -0.017265639 -4.7686062e-21)
(1.1069549 -0.017534069 9.562172e-21)
(1.1061916 -0.017797227 -4.7936463e-21)
(1.1054157 -0.018054947 0)
(1.1046275 -0.018307061 0)
(1.1038272 -0.018553407 2.4415423e-21)
(1.1030151 -0.018793823 1.0458802e-23)
(1.1021915 -0.019028146 -4.9218426e-21)
(1.1013566 -0.019256221 2.4681106e-21)
(1.1005108 -0.019477892 0)
(1.0996542 -0.019693007 -2.5051531e-21)
(1.0987873 -0.019901419 5.0257185e-21)
(1.0979104 -0.020102984 -2.5206071e-21)
(1.0970237 -0.02029756 0)
(1.0961275 -0.020485011 2.5602026e-21)
(1.0952223 -0.020665206 -5.1368449e-21)
(1.0943083 -0.020838016 5.1656722e-21)
(1.0933859 -0.021003319 -2.5912181e-21)
(1.0924554 -0.021160996 -2.6185487e-21)
(1.0915172 -0.021310933 5.2544641e-21)
(1.0905717 -0.021453022 -2.6359564e-21)
(1.0896191 -0.021587158 0)
(1.0886599 -0.02171324 0)
(1.0876945 -0.021831175 0)
(1.0867231 -0.021940873 2.7113485e-21)
(1.0857462 -0.022042249 -5.4412463e-21)
(1.0847641 -0.022135223 2.7299369e-21)
(1.0837773 -0.022219719 0)
(1.082786 -0.022295666 0)
(1.0817908 -0.022362997 -1.3962842e-21)
(1.0807919 -0.022421649 1.3976566e-21)
(1.0797898 -0.022471566 0)
(1.0787848 -0.022512692 0)
(1.0777773 -0.022544978 0)
(1.0767677 -0.022568378 1.4381672e-21)
(1.0757565 -0.022582851 -1.4396276e-21)
(1.0747439 -0.022588358 0)
(1.0737304 -0.022584865 0)
(1.0727164 -0.022572339 0)
(1.0717022 -0.022550753 0)
(1.0706882 -0.022520082 0)
(1.0696749 -0.022480303 0)
(1.0686625 -0.022431397 0)
(1.0676516 -0.022373348 3.7880276e-22)
(1.0666424 -0.022306139 -7.6015118e-22)
(1.0656354 -0.022229759 3.8135136e-22)
(1.0646309 -0.022144198 0)
(1.0636293 -0.022049444 0)
(1.062631 -0.021945492 0)
(1.0616364 -0.021832333 0)
(1.0606459 -0.021709964 0)
(1.0596598 -0.021578381 0)
(1.0586784 -0.021437582 3.9796562e-22)
(1.0577023 -0.021287562 -7.9843998e-22)
(1.1226009 -0.010069795 4.5237118e-21)
(1.1221706 -0.01041027 -4.5390571e-21)
(1.1217249 -0.010747653 4.5407942e-21)
(1.1212638 -0.011082021 0)
(1.1207874 -0.011413406 0)
(1.1202956 -0.011741815 0)
(1.1197886 -0.012067235 0)
(1.1192663 -0.012389638 0)
(1.118729 -0.012708977 0)
(1.1181765 -0.013025189 4.6324756e-21)
(1.1176091 -0.013338196 -4.6347953e-21)
(1.1170268 -0.013647909 -4.6621422e-21)
(1.1164297 -0.013954225 9.3425241e-21)
(1.1158179 -0.014257033 -4.6804593e-21)
(1.1151916 -0.014556212 -4.7112958e-21)
(1.1145509 -0.014851631 9.4429083e-21)
(1.1138958 -0.015143154 -9.4788144e-21)
(1.1132267 -0.01543064 9.5159273e-21)
(1.1125435 -0.015713941 -4.7688855e-21)
(1.1118466 -0.015992905 -4.8053525e-21)
(1.1111361 -0.016267378 9.6343993e-21)
(1.1104122 -0.016537203 -4.8291293e-21)
(1.109675 -0.016802221 0)
(1.1089249 -0.017062273 0)
(1.108162 -0.017317197 0)
(1.1073866 -0.017566835 0)
(1.1065988 -0.017811026 0)
(1.1057991 -0.018049614 0)
(1.1049875 -0.01828244 0)
(1.1041644 -0.018509351 0)
(1.1033301 -0.018730194 -2.5311055e-21)
(1.1024849 -0.01894482 2.5331267e-21)
(1.101629 -0.019153083 2.5578224e-21)
(1.1007628 -0.019354839 1.1603785e-23)
(1.0998865 -0.019549948 -5.15916e-21)
(1.0990005 -0.019738275 2.5876692e-21)
(1.0981051 -0.019919688 0)
(1.0972007 -0.020094057 0)
(1.0962875 -0.020261261 0)
(1.0953659 -0.020421178 0)
(1.0944362 -0.020573694 0)
(1.0934988 -0.020718699 2.6889328e-21)
(1.0925541 -0.020856085 -2.69143e-21)
(1.0916024 -0.020985753 -2.72019e-21)
(1.0906441 -0.021107604 2.7227721e-21)
(1.0896794 -0.021221545 2.7521024e-21)
(1.0887089 -0.02132749 -5.5230541e-21)
(1.0877329 -0.021425355 2.7709933e-21)
(1.0867517 -0.021515062 0)
(1.0857657 -0.021596538 0)
(1.0847754 -0.021669711 0)
(1.083781 -0.021734516 1.4255976e-21)
(1.082783 -0.021790892 -2.8611107e-21)
(1.0817817 -0.021838783 -7.0400501e-24)
(1.0807776 -0.021878134 1.4440625e-21)
(1.0797709 -0.021908897 0)
(1.0787622 -0.021931026 -1.4683588e-21)
(1.0777518 -0.02194448 2.946928e-21)
(1.07674 -0.021949221 7.1337053e-24)
(1.0757273 -0.021945214 -1.4872976e-21)
(1.0747141 -0.021932427 -7.5158963e-22)
(1.0737007 -0.021910832 1.5083622e-21)
(1.0726875 -0.021880404 -7.5678024e-22)
(1.071675 -0.02184112 7.6474047e-22)
(1.0706634 -0.02179296 -7.655672e-22)
(1.0696532 -0.021735907 0)
(1.0686448 -0.021669945 -3.8895455e-22)
(1.0676385 -0.021595062 3.8937758e-22)
(1.0666347 -0.021511245 0)
(1.0656339 -0.021418486 0)
(1.0646363 -0.021316774 0)
(1.0636424 -0.021206104 0)
(1.0626526 -0.021086469 0)
(1.0616672 -0.020957866 4.0419233e-22)
(1.0606866 -0.02082029 -4.0463189e-22)
(1.0597111 -0.020673738 0)
(1.1243582 -0.0098224879 0)
(1.1239288 -0.010153222 0)
(1.1234838 -0.010480893 0)
(1.1230234 -0.01080558 0)
(1.1225475 -0.011127317 0)
(1.1220562 -0.011446113 4.6781314e-21)
(1.1215496 -0.011761961 -4.6803352e-21)
(1.1210277 -0.012074836 0)
(1.1204907 -0.012384693 -4.7170021e-21)
(1.1199385 -0.012691477 4.7194363e-21)
(1.1193713 -0.012995113 4.7461312e-21)
(1.1187892 -0.013295517 -4.7487229e-21)
(1.1181924 -0.013592592 0)
(1.1175808 -0.013886233 4.7945918e-21)
(1.1169547 -0.014176323 -4.7974254e-21)
(1.1163141 -0.01446274 4.8300341e-21)
(1.1156593 -0.014745352 -4.8330323e-21)
(1.1149904 -0.015024024 0)
(1.1143075 -0.015298616 -4.8878082e-21)
(1.1136109 -0.01556898 4.8910587e-21)
(1.1129007 -0.015834971 0)
(1.1121771 -0.016096436 0)
(1.1114403 -0.016353224 0)
(1.1106905 -0.01660518 -2.4980018e-21)
(1.109928 -0.016852151 2.4998435e-21)
(1.109153 -0.017093983 0)
(1.1083657 -0.017330522 0)
(1.1075664 -0.017561615 0)
(1.1067554 -0.017787112 -2.5591439e-21)
(1.1059329 -0.018006864 2.5612081e-21)
(1.1050991 -0.018220723 0)
(1.1042545 -0.018428546 0)
(1.1033992 -0.01863019 0)
(1.1025336 -0.018825517 0)
(1.101658 -0.019014392 0)
(1.1007727 -0.019196683 2.6554806e-21)
(1.099878 -0.019372262 -2.6578613e-21)
(1.0989742 -0.019541004 0)
(1.0980618 -0.01970279 0)
(1.0971409 -0.019857504 0)
(1.096212 -0.020005033 0)
(1.0952754 -0.02014527 0)
(1.0943314 -0.020278112 0)
(1.0933805 -0.020403459 0)
(1.092423 -0.020521218 0)
(1.0914592 -0.020631297 0)
(1.0904894 -0.020733612 0)
(1.0895142 -0.020828081 0)
(1.0885338 -0.020914627 0)
(1.0875487 -0.020993178 0)
(1.0865591 -0.021063666 -1.4476617e-21)
(1.0855655 -0.021126025 2.9054359e-21)