/*--------------------------------*- C++ -*----------------------------------*\
| =========                 |                                                 |
| \\      /  F ield         | OpenFOAM: The Open Source CFD Toolbox           |
|  \\    /   O peration     | Version:  2.4.0                                 |
|   \\  /    A nd           | Web:      www.OpenFOAM.org                      |
|    \\/     M anipulation  |                                                 |
\*---------------------------------------------------------------------------*/
FoamFile
{
    version     2.0;
    format      ascii;
    class       volScalarField;
    location    "1";
    object      nut;
}
// * * * * * * * * * * * * * * * * * * * * * * * * * * * * * * * * * * * * * //

dimensions      [0 2 -1 0 0 0 0];

internalField   nonuniform List<scalar> 
78300
(
5.2860838e-10
4.4433044e-11
1.9948455e-10
1.0901359e-14
5.484289e-11
5.430565e-12
1.4525066e-11
3.9022254e-12
4.4913443e-12
2.1364961e-12
2.0909291e-12
1.6026325e-12
1.5992885e-12
1.3712789e-12
1.2825983e-12
1.1492879e-12
1.0925068e-12
1.0384767e-12
1.0257855e-12
1.0226451e-12
1.0428431e-12
1.0724247e-12
1.118739e-12
1.1779684e-12
1.2399702e-12
1.2935603e-12
1.3423218e-12
1.384915e-12
1.4231154e-12
1.4559391e-12
1.4838174e-12
1.5063161e-12
1.5233867e-12
1.5343881e-12
1.5392522e-12
1.5360481e-12
1.5249759e-12
1.5140285e-12
1.5068269e-12
1.5069517e-12
1.4979624e-12
1.4861155e-12
1.4884877e-12
1.4855157e-12
1.4820928e-12
1.4808254e-12
1.478008e-12
1.4756392e-12
1.4753223e-12
1.4725954e-12
1.462997e-12
1.44806e-12
1.429326e-12
1.4083386e-12
1.3881494e-12
1.3697488e-12
1.3581698e-12
1.3518137e-12
1.3598051e-12
1.3748972e-12
1.4198987e-12
1.4742005e-12
1.6272805e-12
1.8185778e-12
1.9112567e-12
1.993818e-12
2.0646756e-12
2.1348216e-12
2.1979078e-12
2.2587484e-12
2.3146525e-12
2.3677561e-12
2.4172734e-12
2.4642283e-12
2.5082357e-12
2.549789e-12
2.5889737e-12
2.6261189e-12
2.6611501e-12
2.694211e-12
2.7255628e-12
2.7553203e-12
2.7835012e-12
2.8101848e-12
2.8355288e-12
2.8596784e-12
2.8825503e-12
2.9042287e-12
2.9248579e-12
2.944629e-12
2.9633212e-12
2.9808822e-12
2.9977329e-12
3.0138876e-12
3.0292017e-12
3.0435825e-12
3.0574125e-12
3.070597e-12
3.0831505e-12
3.0951508e-12
3.1065108e-12
3.1178491e-12
3.1282427e-12
3.1376199e-12
3.146854e-12
3.1558059e-12
3.1642059e-12
3.1718807e-12
3.1793632e-12
3.1865787e-12
3.1933372e-12
3.1996157e-12
3.2056281e-12
3.2113435e-12
3.2166994e-12
3.2217515e-12
3.2264647e-12
3.2311981e-12
3.235391e-12
3.2389762e-12
3.2424909e-12
3.2459517e-12
3.2490027e-12
3.2515416e-12
3.2539938e-12
3.2563502e-12
3.2583558e-12
3.2599639e-12
3.2614379e-12
3.262751e-12
3.2637729e-12
3.2645102e-12
3.2650458e-12
3.2654594e-12
3.2655626e-12
3.2653178e-12
3.2649396e-12
3.2643187e-12
3.2634827e-12
3.2623841e-12
3.2610642e-12
3.2595767e-12
3.2577946e-12
3.255765e-12
3.2534679e-12
3.2514465e-12
3.248753e-12
3.2451943e-12
3.2418081e-12
3.2381399e-12
3.2342596e-12
3.2300412e-12
3.2255716e-12
3.2209366e-12
3.2159214e-12
3.210416e-12
3.2047161e-12
3.1988131e-12
3.1924736e-12
3.1859017e-12
3.1789669e-12
3.1729443e-12
3.1659937e-12
3.1564814e-12
3.1469198e-12
3.1375862e-12
3.127803e-12
3.117562e-12
3.1069333e-12
3.0961742e-12
3.0845736e-12
3.071978e-12
3.0591352e-12
3.045717e-12
3.0316547e-12
3.016925e-12
3.001508e-12
2.9854877e-12
2.9685856e-12
2.9508096e-12
2.9322544e-12
2.9128805e-12
2.8925276e-12
2.871149e-12
2.8487776e-12
2.825469e-12
2.8009062e-12
2.7749658e-12
2.7478787e-12
2.7195156e-12
2.6896699e-12
2.6582103e-12
2.6251837e-12
2.5906348e-12
2.5540645e-12
2.5150933e-12
2.4742841e-12
2.4309302e-12
2.3851751e-12
2.3358884e-12
2.2839013e-12
2.2270041e-12
2.1665913e-12
2.0972426e-12
2.0227449e-12
1.9299067e-12
1.8142588e-12
1.6339221e-12
1.5436347e-12
1.5377166e-12
1.5076631e-12
1.4898459e-12
1.4605657e-12
1.4323052e-12
1.3967435e-12
1.358406e-12
1.3145449e-12
1.2668218e-12
1.2144557e-12
1.1580651e-12
1.097949e-12
1.0350201e-12
9.7254919e-13
9.1261935e-13
8.5452153e-13
7.9990045e-13
7.4937577e-13
7.0360536e-13
6.6259352e-13
6.2647611e-13
5.9519263e-13
5.6845435e-13
5.4604673e-13
5.2778657e-13
5.1204192e-13
4.9690557e-13
4.8361564e-13
4.7299291e-13
4.6628561e-13
4.6472545e-13
4.716843e-13
4.8772278e-13
5.1593163e-13
5.5532021e-13
6.087956e-13
6.7011259e-13
7.4052976e-13
8.0914563e-13
8.9254079e-13
9.6753414e-13
1.065092e-12
1.1450601e-12
1.2803281e-12
1.3778992e-12
1.6110246e-12
1.7434691e-12
2.2220868e-12
2.3736926e-12
3.4463711e-12
3.3529588e-12
5.8406055e-12
3.9301426e-12
9.3307006e-12
2.2389233e-12
1.6801585e-11
1.3205984e-14
4.3939731e-11
5.3257538e-12
1.8605329e-10
2.338825e-11
4.9570777e-10
4.188768e-11
1.8710915e-10
9.3468152e-14
5.1424235e-11
5.1197707e-12
1.3620523e-11
3.6682645e-12
4.2146354e-12
2.0076555e-12
1.9628618e-12
1.5046292e-12
1.5009135e-12
1.2870468e-12
1.2035683e-12
1.078403e-12
1.0249316e-12
9.7413487e-13
9.6209259e-13
9.5905473e-13
9.7790159e-13
1.0055654e-12
1.0489057e-12
1.1043938e-12
1.162545e-12
1.2128305e-12
1.2585784e-12
1.2985393e-12
1.3343769e-12
1.3651728e-12
1.3913299e-12
1.4124429e-12
1.4284676e-12
1.4388034e-12
1.4433906e-12
1.4404185e-12
1.430044e-12
1.4197474e-12
1.412938e-12
1.41304e-12
1.4046088e-12
1.3934438e-12
1.3956148e-12
1.3928146e-12
1.3895627e-12
1.3883318e-12
1.3856505e-12
1.3833754e-12
1.3830274e-12
1.3804395e-12
1.3714156e-12
1.3573779e-12
1.3397739e-12
1.3200505e-12
1.3010718e-12
1.2837671e-12
1.2728589e-12
1.266849e-12
1.2742932e-12
1.2884028e-12
1.3305513e-12
1.3814559e-12
1.5249488e-12
1.7042014e-12
1.7910589e-12
1.8684355e-12
1.934845e-12
2.0005854e-12
2.0597086e-12
2.116727e-12
2.1691185e-12
2.2188856e-12
2.2652916e-12
2.3092963e-12
2.3505386e-12
2.3894812e-12
2.426204e-12
2.4610154e-12
2.4938457e-12
2.5248296e-12
2.5542118e-12
2.5820999e-12
2.6085105e-12
2.6335178e-12
2.6572698e-12
2.6799024e-12
2.7013376e-12
2.7216543e-12
2.7409878e-12
2.759517e-12
2.7770351e-12
2.7934931e-12
2.8092856e-12
2.8244257e-12
2.8387779e-12
2.8522557e-12
2.8652172e-12
2.8775737e-12
2.889339e-12
2.9005857e-12
2.9112323e-12
2.9218585e-12
2.9315993e-12
2.9403879e-12
2.9490422e-12
2.9574321e-12
2.9653047e-12
2.9724977e-12
2.9795106e-12
2.9862731e-12
2.9926074e-12
2.9984919e-12
3.0041269e-12
3.0094835e-12
3.0145033e-12
3.0192384e-12
3.0236558e-12
3.0280922e-12
3.032022e-12
3.0353823e-12
3.0386767e-12
3.0419204e-12
3.0447801e-12
3.0471599e-12
3.0494584e-12
3.0516672e-12
3.0535472e-12
3.0550546e-12
3.0564365e-12
3.0576675e-12
3.0586256e-12
3.059317e-12
3.0598195e-12
3.0602075e-12
3.0603046e-12
3.0600757e-12
3.0597217e-12
3.0591404e-12
3.0583573e-12
3.0573283e-12
3.0560918e-12
3.0546983e-12
3.0530286e-12
3.0511272e-12
3.0489749e-12
3.0470809e-12
3.0445573e-12
3.0412229e-12
3.03805e-12
3.034613e-12
3.0309772e-12
3.0270246e-12
3.0228366e-12
3.0184935e-12
3.0137942e-12
3.0086356e-12
3.0032946e-12
2.9977633e-12
2.991823e-12
2.9856648e-12
2.9791665e-12
2.9735229e-12
2.9670104e-12
2.9580973e-12
2.9491375e-12
2.9403914e-12
2.9312242e-12
2.921628e-12
2.9116683e-12
2.9015866e-12
2.8907164e-12
2.8789138e-12
2.8668794e-12
2.854306e-12
2.841129e-12
2.8273266e-12
2.8128801e-12
2.7978682e-12
2.7820303e-12
2.7653733e-12
2.7479862e-12
2.7298318e-12
2.7107603e-12
2.6907275e-12
2.6697643e-12
2.6479231e-12
2.6249066e-12
2.6005992e-12
2.5752172e-12
2.5486396e-12
2.5206728e-12
2.4911936e-12
2.460246e-12
2.427872e-12
2.393604e-12
2.3570861e-12
2.3188459e-12
2.2782211e-12
2.2353466e-12
2.1891626e-12
2.1404485e-12
2.0871335e-12
2.0305253e-12
1.9655441e-12
1.895741e-12
1.8087586e-12
1.7004104e-12
1.531385e-12
1.4466724e-12
1.4410675e-12
1.4128789e-12
1.3961596e-12
1.3687022e-12
1.3422031e-12
1.3088613e-12
1.27292e-12
1.2318012e-12
1.187064e-12
1.1379743e-12
1.0851133e-12
1.0287613e-12
9.6978229e-13
9.1124565e-13
8.5509435e-13
8.0066267e-13
7.4949419e-13
7.0216691e-13
6.5929632e-13
6.2088566e-13
5.870623e-13
5.577686e-13
5.3273349e-13
5.1175644e-13
4.9466133e-13
4.7991276e-13
4.6573224e-13
4.53289e-13
4.4335302e-13
4.3709588e-13
4.3567936e-13
4.4226408e-13
4.573763e-13
4.8390998e-13
5.2093644e-13
5.7116518e-13
6.2873372e-13
6.9480463e-13
7.5920085e-13
8.37428e-13
9.0780058e-13
9.9929815e-13
1.0743843e-12
1.2012711e-12
1.2929953e-12
1.5116894e-12
1.6363959e-12
2.0852829e-12
2.228425e-12
3.2339932e-12
3.1478687e-12
5.47856e-12
3.688152e-12
8.749463e-12
2.1022193e-12
1.5757171e-11
2.0898171e-14
4.1206735e-11
5.0112621e-12
1.7445318e-10
2.1972333e-11
4.7230248e-10
4.0789939e-11
1.7833212e-10
3.7268018e-13
4.8943719e-11
4.9400876e-12
1.296314e-11
3.5049141e-12
4.017273e-12
1.9175458e-12
1.8729714e-12
1.4357036e-12
1.4313619e-12
1.2273195e-12
1.147423e-12
1.0279902e-12
9.7684534e-13
9.2832901e-13
9.1673579e-13
9.1375511e-13
9.3162184e-13
9.5789745e-13
9.990869e-13
1.0518723e-12
1.1072553e-12
1.1551653e-12
1.1987421e-12
1.2368017e-12
1.2709285e-12
1.3002509e-12
1.3251528e-12
1.3452499e-12
1.3605021e-12
1.3703387e-12
1.3747076e-12
1.371885e-12
1.3619892e-12
1.3521247e-12
1.3455535e-12
1.3456046e-12
1.3375287e-12
1.3267974e-12
1.3287753e-12
1.3260437e-12
1.3228492e-12
1.3215743e-12
1.3189164e-12
1.3166237e-12
1.3161622e-12
1.3135854e-12
1.304891e-12
1.291418e-12
1.2745484e-12
1.2556599e-12
1.2374824e-12
1.2209017e-12
1.2104143e-12
1.2045955e-12
1.2115817e-12
1.2249277e-12
1.2649343e-12
1.3133278e-12
1.4497205e-12
1.6200677e-12
1.7027275e-12
1.7763227e-12
1.8394874e-12
1.9020082e-12
1.9582353e-12
2.0124587e-12
2.0622818e-12
2.1096087e-12
2.1537393e-12
2.1955863e-12
2.2348063e-12
2.2718394e-12
2.3067617e-12
2.3398663e-12
2.371087e-12
2.400552e-12
2.4284938e-12
2.4550148e-12
2.4801308e-12
2.5039125e-12
2.5265003e-12
2.5480237e-12
2.5684084e-12
2.5877295e-12
2.6061157e-12
2.623737e-12
2.6403967e-12
2.6560486e-12
2.6710674e-12
2.6854659e-12
2.6991151e-12
2.7119328e-12
2.7242595e-12
2.736011e-12
2.7472001e-12
2.757896e-12
2.7680213e-12
2.7781268e-12
2.7873907e-12
2.7957493e-12
2.8039801e-12
2.8119593e-12
2.8194467e-12
2.826288e-12
2.8329578e-12
2.8393895e-12
2.845414e-12
2.8510108e-12
2.8563703e-12
2.8614651e-12
2.8662396e-12
2.8707433e-12
2.8749449e-12
2.8791644e-12
2.8829023e-12
2.8860988e-12
2.8892324e-12
2.8923179e-12
2.8950383e-12
2.8973024e-12
2.8994892e-12
2.9015905e-12
2.9033793e-12
2.9048139e-12
2.906129e-12
2.9073006e-12
2.9082127e-12
2.9088713e-12
2.9093502e-12
2.9097202e-12
2.9098137e-12
2.9095973e-12
2.9092619e-12
2.9087102e-12
2.9079669e-12
2.9069896e-12
2.905815e-12
2.9044911e-12
2.9029047e-12
2.9010979e-12
2.8990524e-12
2.8972526e-12
2.8948544e-12
2.8916854e-12
2.8886697e-12
2.8854031e-12
2.8819474e-12
2.8781905e-12
2.8742098e-12
2.8700817e-12
2.865615e-12
2.8607116e-12
2.8556347e-12
2.8503768e-12
2.8447302e-12
2.8388764e-12
2.8326988e-12
2.8273338e-12
2.8211438e-12
2.8126716e-12
2.8041541e-12
2.79584e-12
2.7871259e-12
2.7780038e-12
2.768536e-12
2.7589521e-12
2.7486191e-12
2.7373995e-12
2.7259594e-12
2.714007e-12
2.7014808e-12
2.6883601e-12
2.6746269e-12
2.6603563e-12
2.6453005e-12
2.6294661e-12
2.6129375e-12
2.5956795e-12
2.5775497e-12
2.5585061e-12
2.5385779e-12
2.517815e-12
2.4959351e-12
2.4728278e-12
2.448699e-12
2.4234335e-12
2.3968475e-12
2.3688236e-12
2.3394036e-12
2.3086276e-12
2.2760515e-12
2.2413363e-12
2.2049837e-12
2.1663641e-12
2.1256061e-12
2.0817015e-12
2.0353923e-12
1.9847089e-12
1.9308963e-12
1.8691251e-12
1.802773e-12
1.7200999e-12
1.6171275e-12
1.4564039e-12
1.3756994e-12
1.3702526e-12
1.343415e-12
1.3274892e-12
1.301375e-12
1.2761808e-12
1.2444881e-12
1.2103298e-12
1.1712511e-12
1.1287341e-12
1.0820771e-12
1.031833e-12
9.7826676e-13
9.2220698e-13
8.6657589e-13
8.1321161e-13
7.6148046e-13
7.1285105e-13
6.6787103e-13
6.2712592e-13
5.9061931e-13
5.5847355e-13
5.3063381e-13
5.068425e-13
4.8691006e-13
4.7066482e-13
4.5664077e-13
4.4315534e-13
4.3133017e-13
4.218988e-13
4.1597805e-13
4.1468082e-13
4.2101739e-13
4.3549034e-13
4.6085419e-13
4.9622377e-13
5.4416724e-13
5.9909011e-13
6.6208688e-13
7.2349509e-13
7.9804584e-13
8.6513039e-13
9.5231167e-13
1.0239039e-12
1.1448138e-12
1.2323389e-12
1.4407387e-12
1.5598643e-12
1.9875248e-12
2.1244488e-12
3.0820046e-12
3.0005553e-12
5.2186145e-12
3.5132963e-12
8.33155e-12
2.0034369e-12
1.5006309e-11
3.5247306e-14
3.9235073e-11
4.8187598e-12
1.6609506e-10
2.1105588e-11
4.5536483e-10
4.1384227e-11
1.7199607e-10
1.0036069e-12
4.7052256e-11
4.890734e-12
1.2461592e-11
3.3924178e-12
3.8718561e-12
1.8538415e-12
1.8086724e-12
1.386221e-12
1.3808822e-12
1.183727e-12
1.1062946e-12
9.9099298e-13
9.415246e-13
8.9466308e-13
8.8338925e-13
8.804356e-13
8.9756156e-13
9.2279335e-13
9.6236324e-13
1.013114e-12
1.0664258e-12
1.1125582e-12
1.1545036e-12
1.1911283e-12
1.2239584e-12
1.2521567e-12
1.2760944e-12
1.2954035e-12
1.3100488e-12
1.3194821e-12
1.3236591e-12
1.3209221e-12
1.3113519e-12
1.3017638e-12
1.295314e-12
1.2952812e-12
1.2874112e-12
1.2769279e-12
1.2786987e-12
1.2759445e-12
1.2727061e-12
1.2713056e-12
1.2685663e-12
1.2661479e-12
1.2654803e-12
1.2627924e-12
1.2542314e-12
1.2410705e-12
1.2246452e-12
1.2062822e-12
1.1886116e-12
1.1724873e-12
1.1622325e-12
1.1564788e-12
1.1630354e-12
1.1757346e-12
1.214013e-12
1.2604329e-12
1.3912142e-12
1.5545534e-12
1.6340883e-12
1.7047869e-12
1.7654643e-12
1.8255088e-12
1.8795091e-12
1.931581e-12
1.9794273e-12
2.0248756e-12
2.0672543e-12
2.10744e-12
2.145103e-12
2.1806662e-12
2.2142023e-12
2.2459929e-12
2.2759746e-12
2.3042706e-12
2.3311038e-12
2.3565726e-12
2.3806923e-12
2.4035308e-12
2.4252229e-12
2.4458926e-12
2.4654691e-12
2.4840243e-12
2.5016816e-12
2.5186043e-12
2.534604e-12
2.5496358e-12
2.5640597e-12
2.5778877e-12
2.5909963e-12
2.6033067e-12
2.6151453e-12
2.6264315e-12
2.6371777e-12
2.6474502e-12
2.6571746e-12
2.6668795e-12
2.675777e-12
2.6838055e-12
2.6917108e-12
2.6993745e-12
2.706566e-12
2.7131374e-12
2.7195438e-12
2.7257214e-12
2.7315082e-12
2.7368843e-12
2.7420324e-12
2.7469262e-12
2.7515126e-12
2.7558388e-12
2.7598749e-12
2.7639279e-12
2.7675191e-12
2.7705904e-12
2.7736009e-12
2.7765652e-12
2.7791793e-12
2.7813553e-12
2.7834567e-12
2.7854761e-12
2.7871957e-12
2.7885752e-12
2.7898397e-12
2.7909665e-12
2.7918443e-12
2.7924787e-12
2.7929404e-12
2.7932975e-12
2.793389e-12
2.7931838e-12
2.7928636e-12
2.792336e-12
2.7916244e-12
2.7906883e-12
2.7895625e-12
2.7882934e-12
2.7867725e-12
2.7850399e-12
2.783078e-12
2.7813517e-12
2.7790519e-12
2.7760121e-12
2.7731189e-12
2.7699853e-12
2.7666701e-12
2.7630658e-12
2.7592465e-12
2.7552858e-12
2.7510004e-12
2.7462956e-12
2.741424e-12
2.7363789e-12
2.7309608e-12
2.7253437e-12
2.7194149e-12
2.7142661e-12
2.7083276e-12
2.7001991e-12
2.6920248e-12
2.6840463e-12
2.6756845e-12
2.666931e-12
2.6578451e-12
2.648648e-12
2.6387326e-12
2.6279661e-12
2.6169876e-12
2.6055177e-12
2.593497e-12
2.5809058e-12
2.5677268e-12
2.5540319e-12
2.5395837e-12
2.5243881e-12
2.5085263e-12
2.4919645e-12
2.4745661e-12
2.4562907e-12
2.4371663e-12
2.4172407e-12
2.3962434e-12
2.3740682e-12
2.3509124e-12
2.3266657e-12
2.3011519e-12
2.2742581e-12
2.2460241e-12
2.2164886e-12
2.1852262e-12
2.1519106e-12
2.1170233e-12
2.0799602e-12
2.0408453e-12
1.99871e-12
1.9542676e-12
1.905627e-12
1.8539856e-12
1.7947076e-12
1.7310382e-12
1.6517215e-12
1.5529452e-12
1.3986559e-12
1.3209371e-12
1.3155154e-12
1.2897044e-12
1.2743793e-12
1.2493168e-12
1.2251531e-12
1.1947685e-12
1.1620278e-12
1.1245698e-12
1.0838149e-12
1.0390839e-12
9.9090592e-13
9.3953148e-13
8.8576229e-13
8.3240629e-13
7.812191e-13
7.3159215e-13
6.8493522e-13
6.4177244e-13
6.0266796e-13
5.6762749e-13
5.3677092e-13
5.1004687e-13
4.8720869e-13
4.6807618e-13
4.5248085e-13
4.3900892e-13
4.2605319e-13
4.1470149e-13
4.0566045e-13
4.000058e-13
3.9881528e-13
4.0498885e-13
4.1901303e-13
4.4354095e-13
4.7771894e-13
5.2401149e-13
5.7701637e-13
6.3777856e-13
6.970095e-13
7.6885627e-13
8.3352709e-13
9.1753386e-13
9.8652352e-13
1.1030264e-12
1.1873903e-12
1.3881958e-12
1.5030581e-12
1.9150525e-12
2.0469959e-12
2.9690344e-12
2.8900423e-12
5.0243997e-12
3.3809387e-12
8.0186919e-12
1.9341761e-12
1.4438229e-11
5.9720083e-14
3.7742462e-11
4.7312539e-12
1.5983873e-10
2.077601e-11
4.4240142e-10
4.3911207e-11
1.6724425e-10
2.1375948e-12
4.5505502e-11
4.9788669e-12
1.2051253e-11
3.3179779e-12
3.758774e-12
1.8078266e-12
1.7608435e-12
1.3491974e-12
1.3423681e-12
1.1501736e-12
1.0744484e-12
9.6226938e-13
9.140699e-13
8.6847753e-13
8.5744536e-13
8.5450065e-13
8.7102931e-13
8.954276e-13
9.3369716e-13
9.8281087e-13
1.0344679e-12
1.0791792e-12
1.1198131e-12
1.1552771e-12
1.1870517e-12
1.2143261e-12
1.2374637e-12
1.2561101e-12
1.2702357e-12
1.2793111e-12
1.2832998e-12
1.2805983e-12
1.2712494e-12
1.2618278e-12
1.2554107e-12
1.2552579e-12
1.2474836e-12
1.2371105e-12
1.238645e-12
1.2357873e-12
1.2324149e-12
1.2308087e-12
1.2278918e-12
1.2252456e-12
1.224276e-12
1.2213635e-12
1.2127807e-12
1.1997445e-12
1.1835554e-12
1.165501e-12
1.1481318e-12
1.1322766e-12
1.1221158e-12
1.1163265e-12
1.122442e-12
1.1345404e-12
1.1712928e-12
1.2160264e-12
1.3419667e-12
1.4993015e-12
1.5763903e-12
1.6447036e-12
1.7033292e-12
1.7613221e-12
1.8134782e-12
1.8637658e-12
1.9099733e-12
1.9538634e-12
1.9947893e-12
2.0335971e-12
2.069969e-12
2.1043133e-12
2.1366999e-12
2.1674011e-12
2.1963557e-12
2.2236827e-12
2.249597e-12
2.2741938e-12
2.297488e-12
2.319545e-12
2.3404948e-12
2.3604572e-12
2.3793643e-12
2.3972851e-12
2.4143387e-12
2.4306829e-12
2.446136e-12
2.4606548e-12
2.4745859e-12
2.4879416e-12
2.500603e-12
2.5124935e-12
2.5239282e-12
2.5348294e-12
2.5452092e-12
2.5551314e-12
2.5645239e-12
2.573897e-12
2.5824919e-12
2.5902479e-12
2.5978838e-12
2.6052866e-12
2.6122339e-12
2.6185826e-12
2.6247712e-12
2.630739e-12
2.6363296e-12
2.6415236e-12
2.6464972e-12
2.6512253e-12
2.6556565e-12
2.6598365e-12
2.663736e-12
2.6676517e-12
2.6711223e-12
2.6740908e-12
2.6769999e-12
2.6798646e-12
2.6823917e-12
2.6844958e-12
2.6865273e-12
2.6884796e-12
2.6901429e-12
2.6914779e-12
2.6927015e-12
2.6937922e-12
2.6946426e-12
2.6952582e-12
2.6957067e-12
2.6960542e-12
2.6961451e-12
2.6959506e-12
2.6956445e-12
2.6951382e-12
2.6944542e-12
2.6935536e-12
2.6924699e-12
2.6912475e-12
2.6897824e-12
2.688113e-12
2.6862216e-12
2.6845576e-12
2.6823417e-12
2.679411e-12
2.6766212e-12
2.6735998e-12
2.6704031e-12
2.6669275e-12
2.6632441e-12
2.6594243e-12
2.6552917e-12
2.650754e-12
2.6460551e-12
2.6411888e-12
2.6359628e-12
2.6305446e-12
2.6248241e-12
2.6198569e-12
2.61413e-12
2.6062919e-12
2.5984052e-12
2.5907083e-12
2.5826425e-12
2.5741984e-12
2.565433e-12
2.5565606e-12
2.5469961e-12
2.53661e-12
2.5260187e-12
2.5149538e-12
2.5033576e-12
2.4912108e-12
2.4784966e-12
2.4652848e-12
2.4513466e-12
2.4366872e-12
2.4213847e-12
2.405407e-12
2.3886224e-12
2.3709916e-12
2.3525414e-12
2.3333182e-12
2.3130617e-12
2.2916685e-12
2.2693289e-12
2.2459369e-12
2.2213226e-12
2.1953767e-12
2.1681374e-12
2.1396424e-12
2.1094822e-12
2.0773405e-12
2.0436822e-12
2.0079245e-12
1.9701879e-12
1.9295365e-12
1.88666e-12
1.8397328e-12
1.789914e-12
1.7327295e-12
1.6713157e-12
1.594829e-12
1.4996052e-12
1.3507026e-12
1.2753395e-12
1.2698283e-12
1.2448565e-12
1.2300201e-12
1.2058517e-12
1.1825731e-12
1.1533183e-12
1.1218052e-12
1.0857497e-12
1.0465174e-12
1.0034455e-12
9.5704112e-13
9.0754e-13
8.5572088e-13
8.0429537e-13
7.5494948e-13
7.0709622e-13
6.6209468e-13
6.2044988e-13
5.8271007e-13
5.4888483e-13
5.1909362e-13
4.932894e-13
4.7123544e-13
4.5276025e-13
4.3769803e-13
4.2467738e-13
4.1215484e-13
4.0119254e-13
3.9247614e-13
3.870481e-13
3.8595933e-13
3.9202413e-13
4.0571836e-13
4.2961769e-13
4.6289291e-13
5.0792902e-13
5.5946888e-13
6.1852046e-13
6.7607638e-13
7.4581381e-13
8.0860919e-13
8.9014551e-13
9.5705821e-13
1.0701164e-12
1.1519049e-12
1.3467716e-12
1.45806e-12
1.8578098e-12
1.9852438e-12
2.8794739e-12
2.8009709e-12
4.8694049e-12
3.2731828e-12
7.7684866e-12
1.8881324e-12
1.3972909e-11
9.9500143e-14
3.6522651e-11
4.7401664e-12
1.5482873e-10
2.100403e-11
4.3147476e-10
4.8535103e-11
1.6353856e-10
3.9139567e-12
4.4174674e-11
5.2170808e-12
1.1697904e-11
3.2762198e-12
3.6670392e-12
1.7748124e-12
1.7242621e-12
1.3206087e-12
1.3116467e-12
1.1230713e-12
1.0484943e-12
9.3877652e-13
8.9157859e-13
8.4701137e-13
8.3617331e-13
8.3322665e-13
8.4924363e-13
8.7293949e-13
9.1010174e-13
9.5781508e-13
1.0080666e-12
1.0515707e-12
1.0910824e-12
1.1255463e-12
1.1564041e-12
1.1828663e-12
1.2052926e-12
1.2233407e-12
1.2369873e-12
1.2457198e-12
1.2495104e-12
1.2468027e-12
1.2375994e-12
1.2282616e-12
1.2218045e-12
1.2214939e-12
1.2137276e-12
1.2033562e-12
1.2046167e-12
1.2015812e-12
1.1979917e-12
1.1961016e-12
1.1929176e-12
1.1899466e-12
1.1885792e-12
1.1853364e-12
1.1766035e-12
1.1635455e-12
1.1474365e-12
1.1295311e-12
1.112313e-12
1.0965899e-12
1.0864163e-12
1.0805083e-12
1.0861494e-12
1.0976522e-12
1.1329575e-12
1.1761432e-12
1.2975876e-12
1.4493926e-12
1.5244851e-12
1.5907041e-12
1.6475233e-12
1.7037008e-12
1.7542265e-12
1.8029341e-12
1.847691e-12
1.8902015e-12
1.9298411e-12
1.9674289e-12
2.002658e-12
2.0359235e-12
2.0672929e-12
2.09703e-12
2.125076e-12
2.1515459e-12
2.1766474e-12
2.2004729e-12
2.2230371e-12
2.2444032e-12
2.2646968e-12
2.2840341e-12
2.3023495e-12
2.3197098e-12
2.3362299e-12
2.3520628e-12
2.3670334e-12
2.3810991e-12
2.394595e-12
2.4075337e-12
2.4198002e-12
2.4313204e-12
2.4423984e-12
2.4529599e-12
2.4630164e-12
2.4726295e-12
2.4817288e-12
2.4908088e-12
2.4991373e-12
2.5066533e-12
2.5140515e-12
2.5212243e-12
2.5279567e-12
2.5341094e-12
2.5401061e-12
2.545889e-12
2.5513071e-12
2.556341e-12
2.561161e-12
2.5657433e-12
2.5700382e-12
2.5740898e-12
2.5778692e-12
2.581664e-12
2.5850292e-12
2.5879079e-12
2.590728e-12
2.5935054e-12
2.5959567e-12
2.5979984e-12
2.5999688e-12
2.6018628e-12
2.6034776e-12
2.6047744e-12
2.6059628e-12
2.6070225e-12
2.60785e-12
2.6084501e-12
2.6088882e-12
2.6092282e-12
2.6093192e-12
2.6091359e-12
2.6088439e-12
2.6083579e-12
2.6076998e-12
2.6068321e-12
2.6057868e-12
2.6046073e-12
2.6031931e-12
2.6015813e-12
2.5997536e-12
2.5981461e-12
2.5960066e-12
2.5931748e-12
2.5904779e-12
2.5875579e-12
2.5844681e-12
2.5811084e-12
2.5775475e-12
2.5738546e-12
2.5698597e-12
2.5654724e-12
2.5609286e-12
2.5562229e-12
2.5511697e-12
2.54593e-12
2.5403958e-12
2.5355921e-12
2.5300545e-12
2.5224799e-12
2.5148506e-12
2.507406e-12
2.4996061e-12
2.4914398e-12
2.4829617e-12
2.4743803e-12
2.4651313e-12
2.4550866e-12
2.4448425e-12
2.4341411e-12
2.4229255e-12
2.4111774e-12
2.3988802e-12
2.3861016e-12
2.372621e-12
2.3584424e-12
2.3436415e-12
2.3281876e-12
2.3119536e-12
2.294901e-12
2.2770553e-12
2.258462e-12
2.2388699e-12
2.2181782e-12
2.1965703e-12
2.1739447e-12
2.1501372e-12
2.1250413e-12
2.0986939e-12
2.0711317e-12
2.0419601e-12
2.0108711e-12
1.9783147e-12
1.9437272e-12
1.9072268e-12
1.8679058e-12
1.8264339e-12
1.7810433e-12
1.7328606e-12
1.6775562e-12
1.6181715e-12
1.5442398e-12
1.4522421e-12
1.3081613e-12
1.2347538e-12
1.2290495e-12
1.2048106e-12
1.1903978e-12
1.167044e-12
1.1445798e-12
1.1163711e-12
1.0859973e-12
1.0512426e-12
1.0134206e-12
9.7188086e-13
9.2710853e-13
8.7932341e-13
8.2928266e-13
7.7961069e-13
7.3193143e-13
6.8567765e-13
6.4216139e-13
6.0187118e-13
5.653431e-13
5.3259239e-13
5.0373973e-13
4.7874338e-13
4.5737634e-13
4.3947583e-13
4.2487879e-13
4.1225076e-13
4.0010533e-13
3.8948397e-13
3.81055e-13
3.7583182e-13
3.7484364e-13
3.8083464e-13
3.9427412e-13
4.1767581e-13
4.5023107e-13
4.9426164e-13
5.44626e-13
6.0230259e-13
6.5850052e-13
7.2650095e-13
7.8775778e-13
8.6726747e-13
9.3240843e-13
1.0426237e-12
1.1221458e-12
1.312111e-12
1.4201221e-12
1.8097915e-12
1.9326866e-12
2.8040017e-12
2.7241038e-12
4.7378329e-12
3.1794187e-12
7.5556896e-12
1.8588638e-12
1.3564877e-11
1.5976307e-13
3.5450829e-11
4.8466549e-12
1.5049765e-10
2.1831013e-11
4.2101793e-10
5.523619e-11
1.6054589e-10
6.4473895e-12
4.3012377e-11
5.6181025e-12
1.1387457e-11
3.2663914e-12
3.590986e-12
1.7525782e-12
1.6960637e-12
1.2982059e-12
1.2862896e-12
1.1003179e-12
1.0264301e-12
9.1871328e-13
8.7232966e-13
8.2862727e-13
8.1795354e-13
8.1499853e-13
8.3055456e-13
8.5363231e-13
8.8980489e-13
9.3625797e-13
9.852534e-13
1.0276786e-12
1.0661796e-12
1.0997365e-12
1.1297544e-12
1.155463e-12
1.1772216e-12
1.1946989e-12
1.2078791e-12
1.2162652e-12
1.2198395e-12
1.2170887e-12
1.2079722e-12
1.1986516e-12
1.192091e-12
1.1915835e-12
1.1837501e-12
1.1732903e-12
1.1742339e-12
1.1709507e-12
1.1670655e-12
1.1648151e-12
1.1612795e-12
1.1578911e-12
1.1560317e-12
1.1523594e-12
1.1433663e-12
1.1301673e-12
1.1140153e-12
1.0961363e-12
1.0789547e-12
1.0632594e-12
1.0529878e-12
1.0468903e-12
1.0520129e-12
1.0629028e-12
1.0967689e-12
1.1384579e-12
1.2555023e-12
1.4019383e-12
1.4753441e-12
1.5396285e-12
1.5947725e-12
1.6492582e-12
1.6982657e-12
1.7455e-12
1.7889053e-12
1.8301295e-12
1.8685702e-12
1.9050211e-12
1.9391854e-12
1.9714459e-12
2.0018676e-12
2.0307068e-12
2.0579068e-12
2.0835788e-12
2.1079237e-12
2.1310314e-12
2.1529163e-12
2.1736397e-12
2.1933228e-12
2.2120784e-12
2.2298438e-12
2.246683e-12
2.2627069e-12
2.2780644e-12
2.2925868e-12
2.3062317e-12
2.319323e-12
2.3318741e-12
2.3437741e-12
2.3549504e-12
2.3656971e-12
2.3759432e-12
2.3856995e-12
2.3950256e-12
2.4038526e-12
2.4126599e-12
2.420742e-12
2.4280359e-12
2.4352133e-12
2.4421727e-12
2.4487061e-12
2.4546775e-12
2.4604961e-12
2.4661078e-12
2.4713663e-12
2.476252e-12
2.4809299e-12
2.4853774e-12
2.4895463e-12
2.4934791e-12
2.4971474e-12
2.5008303e-12
2.5040986e-12
2.506895e-12
2.5096328e-12
2.5123297e-12
2.5147117e-12
2.5166965e-12
2.5186108e-12
2.5204513e-12
2.5220221e-12
2.5232845e-12
2.524441e-12
2.525473e-12
2.5262803e-12
2.5268672e-12
2.5272965e-12
2.5276308e-12
2.5277219e-12
2.5275506e-12
2.5272736e-12
2.5268078e-12
2.5261752e-12
2.5253395e-12
2.5243315e-12
2.5231932e-12
2.5218279e-12
2.5202711e-12
2.5185041e-12
2.5169502e-12
2.5148843e-12
2.5121465e-12
2.5095377e-12
2.5067139e-12
2.5037255e-12
2.5004759e-12
2.4970308e-12
2.493458e-12
2.4895937e-12
2.4853489e-12
2.4809516e-12
2.4763978e-12
2.471508e-12
2.466437e-12
2.4610778e-12
2.4564299e-12
2.4510686e-12
2.4437469e-12
2.4363599e-12
2.429153e-12
2.4216042e-12
2.4137003e-12
2.405493e-12
2.3971864e-12
2.3882355e-12
2.3785133e-12
2.3685966e-12
2.3582382e-12
2.347382e-12
2.3360101e-12
2.3241063e-12
2.3117366e-12
2.2986879e-12
2.2849631e-12
2.2706355e-12
2.2556759e-12
2.2399614e-12
2.2234544e-12
2.2061791e-12
2.18818e-12
2.169215e-12
2.1491852e-12
2.1282677e-12
2.1063652e-12
2.0833189e-12
2.0590252e-12
2.033519e-12
2.0068366e-12
1.9785982e-12
1.9485024e-12
1.9169856e-12
1.8835022e-12
1.8481684e-12
1.8101024e-12
1.7699563e-12
1.7260157e-12
1.6793792e-12
1.6258515e-12
1.5683886e-12
1.4968854e-12
1.4079757e-12
1.2684389e-12
1.1967248e-12
1.1907313e-12
1.1671675e-12
1.1531416e-12
1.1305685e-12
1.1088917e-12
1.0817001e-12
1.0524363e-12
1.0189483e-12
9.8249829e-13
9.4244524e-13
8.9925168e-13
8.5311965e-13
8.0478471e-13
7.5678778e-13
7.1069517e-13
6.659587e-13
6.2384414e-13
5.8482519e-13
5.4942845e-13
5.1767644e-13
4.896925e-13
4.6544149e-13
4.4470618e-13
4.2733287e-13
4.1316177e-13
4.0089209e-13
3.8909125e-13
3.787832e-13
3.7062091e-13
3.6559075e-13
3.647036e-13
3.7064342e-13
3.8387634e-13
4.0686472e-13
4.3881877e-13
4.8200808e-13
5.3138863e-13
5.8791331e-13
6.4295573e-13
7.0946583e-13
7.6939532e-13
8.4716823e-13
9.1070598e-13
1.0184673e-12
1.0958565e-12
1.2815939e-12
1.3863691e-12
1.7673844e-12
1.8853695e-12
2.7369985e-12
2.6538321e-12
4.6201531e-12
3.093388e-12
7.3649547e-12
1.8445718e-12
1.318471e-11
2.4486519e-13
3.4448634e-11
5.0581452e-12
1.4644053e-10
2.3299539e-11
4.0983204e-10
6.3781822e-11
1.5806508e-10
9.8166201e-12
4.2030815e-11
6.1919095e-12
1.1119696e-11
3.2907342e-12
3.5282414e-12
1.7403815e-12
1.6747296e-12
1.2807337e-12
1.2648316e-12
1.0806307e-12
1.0070182e-12
9.0096234e-13
8.5525265e-13
8.1230631e-13
8.0177784e-13
7.9881091e-13
8.1393409e-13
8.3644875e-13
8.7170159e-13
9.1697322e-13
9.6479842e-13
1.0062194e-12
1.0437724e-12
1.0764729e-12
1.1056888e-12
1.1306685e-12
1.1517741e-12
1.1686849e-12
1.1813935e-12
1.1894182e-12
1.1927523e-12
1.1899246e-12
1.1808473e-12
1.1714872e-12
1.1647653e-12
1.1640213e-12
1.1560531e-12
1.1454277e-12
1.1460094e-12
1.1424121e-12
1.1381567e-12
1.1354725e-12
1.1315058e-12
1.1276126e-12
1.125171e-12
1.1209772e-12
1.1116288e-12
1.0981904e-12
1.0818971e-12
1.0639492e-12
1.0467163e-12
1.0309689e-12
1.0205315e-12
1.0141855e-12
1.0187429e-12
1.0289907e-12
1.061385e-12
1.1015753e-12
1.2141664e-12
1.3552026e-12
1.4271364e-12
1.489563e-12
1.5430899e-12
1.5959356e-12
1.643473e-12
1.6892789e-12
1.7313747e-12
1.7713524e-12
1.8086315e-12
1.8439808e-12
1.877114e-12
1.9084013e-12
1.9379054e-12
1.9658753e-12
1.9922567e-12
2.0171568e-12
2.0407695e-12
2.0631829e-12
2.0844109e-12
2.1045128e-12
2.1236056e-12
2.1417989e-12
2.1590326e-12
2.1753683e-12
2.1909128e-12
2.2058108e-12
2.2199004e-12
2.2331392e-12
2.2458395e-12
2.2580163e-12
2.2695627e-12
2.2804072e-12
2.2908341e-12
2.3007758e-12
2.3102424e-12
2.3192917e-12
2.3278556e-12
2.3363994e-12
2.3442444e-12
2.3513247e-12
2.3582888e-12
2.3650425e-12
2.3713845e-12
2.3771815e-12
2.3828285e-12
2.3882752e-12
2.3933802e-12
2.3981235e-12
2.4026646e-12
2.4069823e-12
2.4110301e-12
2.4148488e-12
2.4184103e-12
2.4219855e-12
2.4251614e-12
2.4278791e-12
2.4305377e-12
2.4331574e-12
2.4354735e-12
2.4374042e-12
2.4392649e-12
2.4410544e-12
2.4425838e-12
2.443814e-12
2.4449404e-12
2.4459463e-12
2.4467352e-12
2.4473104e-12
2.447732e-12
2.4480618e-12
2.4481525e-12
2.4479941e-12
2.4477338e-12
2.4472889e-12
2.4466822e-12
2.4458787e-12
2.4449077e-12
2.4438104e-12
2.4424938e-12
2.4409917e-12
2.4392843e-12
2.4377833e-12
2.4357907e-12
2.4331458e-12
2.4306232e-12
2.4278941e-12
2.4250055e-12
2.421864e-12
2.4185326e-12
2.4150778e-12
2.4113421e-12
2.4072371e-12
2.4029832e-12
2.3985783e-12
2.3938488e-12
2.3889432e-12
2.3837545e-12
2.3792615e-12
2.3740685e-12
2.3669996e-12
2.3598491e-12
2.3528746e-12
2.3455719e-12
2.3379248e-12
2.3299825e-12
2.3219447e-12
2.3132865e-12
2.3038802e-12
2.2942838e-12
2.2842613e-12
2.2737569e-12
2.2627534e-12
2.2512346e-12
2.239265e-12
2.2266393e-12
2.2133588e-12
2.1994944e-12
2.1850186e-12
2.1698128e-12
2.1538399e-12
2.1371227e-12
2.1197053e-12
2.1013543e-12
2.0819725e-12
2.0617307e-12
2.0405359e-12
2.0182349e-12
1.9947262e-12
1.9700433e-12
1.944222e-12
1.9168973e-12
1.8877737e-12
1.8572742e-12
1.8248714e-12
1.7906796e-12
1.7538421e-12
1.714994e-12
1.6724728e-12
1.6273518e-12
1.5755659e-12
1.5199907e-12
1.4508809e-12
1.3650374e-12
1.2299457e-12
1.1597537e-12