/*--------------------------------*- C++ -*----------------------------------*\
| =========                 |                                                 |
| \\      /  F ield         | OpenFOAM: The Open Source CFD Toolbox           |
|  \\    /   O peration     | Version:  2.4.0                                 |
|   \\  /    A nd           | Web:      www.OpenFOAM.org                      |
|    \\/     M anipulation  |                                                 |
\*---------------------------------------------------------------------------*/
FoamFile
{
    version     2.0;
    format      ascii;
    class       volScalarField;
    location    "7848";
    object      k;
}
// * * * * * * * * * * * * * * * * * * * * * * * * * * * * * * * * * * * * * //

dimensions      [0 2 -2 0 0 0 0];

internalField   nonuniform List<scalar> 
32000
(
5.8912039e-08
6.6338838e-08
5.9954104e-08
4.6302641e-08
2.8042568e-08
1.1707885e-08
2.9524225e-09
5.607224e-10
4.0054221e-10
3.5151928e-10
2.9596025e-10
2.6135226e-10
2.4500867e-10
2.3843485e-10
2.35014e-10
2.3155324e-10
2.2660732e-10
2.2782237e-10
2.3394137e-10
2.4669016e-10
2.656702e-10
2.920703e-10
3.2735023e-10
3.7291364e-10
4.3188268e-10
5.0606057e-10
5.975056e-10
7.0358519e-10
8.278022e-10
9.7047599e-10
1.1236162e-09
1.2907052e-09
1.476108e-09
1.6809764e-09
1.9036676e-09
2.1431181e-09
2.4049208e-09
2.6934709e-09
2.9997976e-09
3.3124569e-09
3.6202902e-09
3.90321e-09
4.1432434e-09
4.3107513e-09
4.4169906e-09
4.4808527e-09
4.8671026e-09
6.5517586e-09
7.9766287e-09
9.3054313e-09
1.0585063e-08
1.1784745e-08
1.2970515e-08
1.4089051e-08
1.5192173e-08
1.6247679e-08
1.7280309e-08
1.8275981e-08
1.9243304e-08
2.0176119e-08
2.1076636e-08
2.1941921e-08
2.2772291e-08
2.3566295e-08
2.4323676e-08
2.5043922e-08
2.5727267e-08
2.6372799e-08
2.6979847e-08
2.7548164e-08
2.8077466e-08
2.8567751e-08
2.9018973e-08
2.9431283e-08
2.9804903e-08
3.0140388e-08
3.0438418e-08
3.0699735e-08
3.0925107e-08
3.1115563e-08
3.1272156e-08
3.1395933e-08
3.1488189e-08
3.1551324e-08
3.1583909e-08
3.1587785e-08
3.1564284e-08
3.1513135e-08
3.1441691e-08
3.1354501e-08
3.1242908e-08
3.1109492e-08
3.0958718e-08
3.0790563e-08
3.060666e-08
3.0407833e-08
3.0195171e-08
2.9969717e-08
2.9732134e-08
2.9483388e-08
2.9224275e-08
2.8955726e-08
2.8678528e-08
2.8393594e-08
2.8101746e-08
2.7803872e-08
2.7500763e-08
2.7192827e-08
2.6880565e-08
2.6564546e-08
2.6245053e-08
2.5922213e-08
2.5596222e-08
2.5267847e-08
2.4937136e-08
2.4604144e-08
2.426948e-08
2.3933102e-08
2.3594972e-08
2.3255215e-08
2.2913741e-08
2.2570545e-08
2.2225517e-08
2.1878739e-08
2.1530353e-08
2.1180945e-08
2.083077e-08
2.0480135e-08
2.012907e-08
1.977746e-08
1.9424852e-08
1.9070929e-08
1.8714924e-08
1.8356613e-08
1.7994834e-08
1.7629491e-08
1.7258881e-08
1.6883218e-08
1.6499896e-08
1.610983e-08
1.5708742e-08
1.5298928e-08
1.4873141e-08
1.4436412e-08
1.3976216e-08
1.3503252e-08
1.2994552e-08
1.2467413e-08
1.1885531e-08
1.1285802e-08
1.0599941e-08
9.8877961e-09
8.9565221e-09
7.867206e-09
7.8983098e-09
8.3152931e-09
8.8138481e-09
9.3681271e-09
9.9235334e-09
1.048481e-08
1.10522e-08
1.1633952e-08
1.2228641e-08
1.2852132e-08
1.3546887e-08
1.4353497e-08
1.5200835e-08
1.6046422e-08
1.6872044e-08
1.766483e-08
1.8415287e-08
1.9120989e-08
1.9826923e-08
2.0339335e-08
2.0647859e-08
2.0781695e-08
2.1043231e-08
2.1356583e-08
2.1721555e-08
2.2173148e-08
2.2733641e-08
2.3509795e-08
2.4437066e-08
2.6263694e-08
2.909804e-08
3.2402025e-08
3.6386536e-08
4.1787966e-08
4.9255061e-08
5.9444381e-08
7.2592698e-08
8.7825346e-08
1.0014306e-07
1.0448342e-07
9.6422082e-08
8.3507927e-08
6.5543883e-08
5.6886412e-08
4.7384482e-08
5.1450204e-08
1.927564e-06
2.1703199e-06
1.9614287e-06
1.5150329e-06
9.1814975e-07
3.8395944e-07
9.7116923e-08
1.8354328e-08
1.2920143e-08
1.1308557e-08
9.4910234e-09
8.3548683e-09
7.8170743e-09
7.6007193e-09
7.488786e-09
7.3761342e-09
7.2138311e-09
7.2520404e-09
7.4505612e-09
7.8659092e-09
8.4851381e-09
9.3468755e-09
1.0498868e-08
1.1986792e-08
1.391277e-08
1.6335969e-08
1.9324615e-08
2.2792578e-08
2.6854098e-08
3.1521367e-08
3.6532427e-08
4.1999524e-08
4.8066106e-08
5.4771082e-08
6.2061226e-08
6.9900507e-08
7.8470798e-08
8.7918011e-08
9.7950706e-08
1.0819387e-07
1.1828183e-07
1.275564e-07
1.3542786e-07
1.4092291e-07
1.4440828e-07
1.464995e-07
1.5913736e-07
2.1425422e-07
2.6086956e-07
3.0435073e-07
3.4622318e-07
3.8547986e-07
4.2428155e-07
4.6088304e-07
4.9698046e-07
5.3151961e-07
5.6531032e-07
5.9789158e-07
6.295452e-07
6.6006958e-07
6.8953702e-07
7.1785154e-07
7.4502353e-07
7.7100549e-07
7.9578902e-07
8.1935737e-07
8.4171823e-07
8.6284103e-07
8.8270436e-07
9.0130033e-07
9.1861963e-07
9.3466217e-07
9.4942649e-07
9.6291749e-07
9.7514251e-07
9.8611963e-07
9.9587118e-07
1.0044214e-06
1.0117955e-06
1.018027e-06
1.0231505e-06
1.0272003e-06
1.0302186e-06
1.032284e-06
1.0333498e-06
1.0334762e-06
1.0327068e-06
1.0310327e-06
1.0286946e-06
1.0258412e-06
1.0221893e-06
1.0178234e-06
1.0128895e-06
1.0073868e-06
1.0013689e-06
9.9486259e-07
9.8790359e-07
9.8052603e-07
9.727516e-07
9.6461186e-07
9.561329e-07
9.4734519e-07
9.3827444e-07
9.289506e-07
9.1940049e-07
9.0965317e-07
8.9973457e-07
8.8965802e-07
8.7943991e-07
8.6909885e-07
8.586441e-07
8.4807981e-07
8.3741245e-07
8.2666704e-07
8.1584521e-07
8.0494871e-07
7.9399749e-07
7.8299019e-07
7.7192558e-07
7.6080769e-07
7.4963362e-07
7.3840319e-07
7.2711282e-07
7.1576519e-07
7.0436493e-07
6.9293117e-07
6.8147237e-07
6.6999848e-07
6.5851054e-07
6.4700473e-07
6.3546632e-07
6.2388482e-07
6.1223523e-07
6.0051021e-07
5.8867168e-07
5.7671656e-07
5.6458911e-07
5.5229633e-07
5.3975292e-07
5.269889e-07
5.1386423e-07
5.0045408e-07
4.8652127e-07
4.7223053e-07
4.5717185e-07
4.4169565e-07
4.2504979e-07
4.0780083e-07
3.8876046e-07
3.6913662e-07
3.4669428e-07
3.2339412e-07
2.9293339e-07
2.573262e-07
2.5838853e-07
2.7206273e-07
2.8840374e-07
3.065696e-07
3.2476997e-07
3.4316368e-07
3.6175869e-07
3.8082408e-07
4.0031498e-07
4.2075633e-07
4.4353983e-07
4.69975e-07
4.9772218e-07
5.254014e-07
5.5242037e-07
5.7835838e-07
6.029059e-07
6.259916e-07
6.4905921e-07
6.6576461e-07
6.7580881e-07
6.80194e-07
6.8879395e-07
6.9907678e-07
7.1105618e-07
7.2588135e-07
7.4429236e-07
7.697711e-07
8.0029836e-07
8.6037241e-07
9.5333412e-07
1.0615919e-06
1.1922208e-06
1.3693533e-06
1.6141502e-06
1.9479466e-06
2.3781756e-06
2.8756066e-06
3.2765945e-06
3.4167302e-06
3.1522546e-06
2.7302272e-06
2.1433972e-06
1.8608281e-06
1.5502644e-06
1.6835136e-06
1.460548e-05
1.6442647e-05
1.4860971e-05
1.1482463e-05
6.964595e-06
2.9184443e-06
7.4157322e-07
1.4071622e-07
9.8024991e-08
8.5761407e-08
7.2002822e-08
6.3371651e-08
5.9277549e-08
5.763201e-08
5.6787242e-08
5.5941481e-08
5.4710734e-08
5.4989682e-08
5.6480941e-08
5.961453e-08
6.4293313e-08
7.0807931e-08
7.9520108e-08
9.0773974e-08
1.0534317e-07
1.2367739e-07
1.4630161e-07
1.7256484e-07
2.0333005e-07
2.3870289e-07
2.7669334e-07
3.1813895e-07
3.6413207e-07
4.149776e-07
4.7027613e-07
5.2974201e-07
5.9474037e-07
6.6639286e-07
7.4251059e-07
8.2024791e-07
8.9682455e-07
9.6724927e-07
1.0270402e-06
1.0688027e-06
1.0953056e-06
1.1112031e-06
1.2069291e-06
1.6245792e-06
1.9776963e-06
2.307212e-06
2.6245357e-06
2.9220343e-06
3.2160888e-06
3.4934654e-06
3.7670254e-06
4.0287736e-06
4.284851e-06
4.5317611e-06
4.7716411e-06
5.0029622e-06
5.226273e-06
5.4408461e-06
5.6467605e-06
5.8436562e-06
6.0314698e-06
6.2100746e-06
6.3795281e-06
6.5395849e-06
6.690098e-06
6.8310071e-06
6.9622418e-06
7.0838017e-06
7.1956757e-06
7.297901e-06
7.3905334e-06
7.4737099e-06
7.5475998e-06
7.6123872e-06
7.6682622e-06
7.7154801e-06
7.7543022e-06
7.7849882e-06
7.8078588e-06
7.8235074e-06
7.8315868e-06
7.8325433e-06
7.8267129e-06
7.8140279e-06
7.7963111e-06
7.7746906e-06
7.7470191e-06
7.7139365e-06
7.6765502e-06
7.6348539e-06
7.5892531e-06
7.5399514e-06
7.4872192e-06
7.4313149e-06
7.3724032e-06
7.3107229e-06
7.246472e-06
7.1798809e-06
7.111145e-06
7.0404908e-06
6.9681217e-06
6.8942578e-06
6.8190956e-06
6.7427363e-06
6.6653037e-06
6.5869391e-06
6.5077127e-06
6.4276558e-06
6.3468176e-06
6.2653876e-06
6.1833781e-06
6.1008025e-06
6.0178119e-06
5.9343959e-06
5.8505455e-06
5.7662909e-06
5.6816104e-06
5.5965024e-06
5.5109401e-06
5.4249435e-06
5.338548e-06
5.2518983e-06
5.1650587e-06
5.0781046e-06
4.9910437e-06
4.9038473e-06
4.8164036e-06
4.7286332e-06
4.6403467e-06
4.5514886e-06
4.4617701e-06
4.3711681e-06
4.27926e-06
4.1860993e-06
4.0910391e-06
3.9943075e-06
3.8948426e-06
3.793215e-06
3.6876263e-06
3.5793266e-06
3.4652062e-06
3.3479245e-06
3.2217728e-06
3.0910545e-06
2.9467563e-06
2.7980443e-06
2.6279669e-06
2.4514132e-06
2.2206889e-06
1.9513098e-06
1.9598586e-06
2.0637555e-06
2.1878265e-06
2.3257532e-06
2.4639289e-06
2.6035913e-06
2.7447935e-06
2.8895655e-06
3.0375803e-06
3.192859e-06
3.365947e-06
3.5665927e-06
3.7769845e-06
3.9867666e-06
4.1914834e-06
4.3879477e-06
4.5738211e-06
4.7486277e-06
4.9230929e-06
5.0491579e-06
5.1249029e-06
5.1582686e-06
5.2238382e-06
5.3020441e-06
5.3931715e-06
5.505954e-06
5.6460836e-06
5.8398596e-06
6.0726589e-06
6.5300719e-06
7.23563e-06
8.0566304e-06
9.0476143e-06
1.0391718e-05
1.2248446e-05
1.4777838e-05
1.8033301e-05
2.1789216e-05
2.4808636e-05
2.5863398e-05
2.3862758e-05
2.0675747e-05
1.6237909e-05
1.4103016e-05
1.1750494e-05
1.2761637e-05
5.7362989e-05
6.4578254e-05
5.8366338e-05
4.5146008e-05
2.7420835e-05
1.1519995e-05
2.9412422e-06
5.6003066e-07
3.8574295e-07
3.3733512e-07
2.8334613e-07
2.4935109e-07
2.331892e-07
2.2670065e-07
2.2339792e-07
2.2010917e-07
2.1527129e-07
2.163252e-07
2.2213224e-07
2.3439155e-07
2.5272577e-07
2.7826867e-07
3.1244173e-07
3.56589e-07
4.1375116e-07
4.8569923e-07
5.7453034e-07
6.7769337e-07
7.9857122e-07
9.3763493e-07
1.0870366e-06
1.250012e-06
1.4308771e-06
1.6308709e-06
1.8484429e-06
2.0824226e-06
2.3381125e-06
2.6199763e-06
2.9194964e-06
3.2254766e-06
3.5269564e-06
3.8043181e-06
4.0398893e-06
4.2046013e-06
4.3092753e-06
4.3725346e-06
4.7490101e-06
6.3914205e-06
7.7776731e-06
9.0725061e-06
1.0319329e-05
1.1488212e-05
1.2643557e-05
1.3733334e-05
1.4808112e-05
1.5836457e-05
1.6842513e-05
1.7812535e-05
1.8754925e-05
1.9663677e-05
2.0540951e-05
2.1383893e-05
2.2192817e-05
2.2966311e-05
2.370413e-05
2.4405777e-05
2.5071461e-05
2.5700198e-05
2.6291453e-05
2.6844989e-05
2.7360532e-05
2.783808e-05
2.8277591e-05
2.8679211e-05
2.904316e-05
2.9369974e-05
2.966032e-05
2.991492e-05
3.013452e-05
3.0320122e-05
3.047275e-05
3.0593426e-05
3.0683406e-05
3.0744998e-05
3.0776927e-05
3.0780818e-05
3.0758062e-05
3.070838e-05
3.0638927e-05
3.0554142e-05
3.0445586e-05
3.0315766e-05
3.0169034e-05
3.0005366e-05
2.9826351e-05
2.9632793e-05
2.9425749e-05
2.9206237e-05
2.8974902e-05
2.8732682e-05
2.8480355e-05
2.8218827e-05
2.7948864e-05
2.7671355e-05
2.7387102e-05
2.7096967e-05
2.6801722e-05
2.6501766e-05
2.6197585e-05
2.5889735e-05
2.5578491e-05
2.5263977e-05
2.4946385e-05
2.4626462e-05
2.4304255e-05
2.3979817e-05
2.3653742e-05
2.332599e-05
2.2996525e-05
2.2665466e-05
2.2332729e-05
2.1998307e-05
2.1662095e-05
2.1324173e-05
2.0984679e-05
2.0644183e-05
2.0302937e-05
1.9961237e-05
1.9619115e-05
1.9276456e-05
1.8932822e-05
1.8587902e-05
1.8240951e-05
1.7891752e-05
1.7539169e-05
1.7183113e-05
1.6821922e-05
1.6455809e-05
1.6082229e-05
1.5702082e-05
1.5311192e-05
1.4911806e-05
1.4496852e-05
1.4071249e-05
1.3622769e-05
1.3161875e-05
1.2666102e-05
1.2152403e-05
1.1585317e-05
1.1000924e-05
1.0332533e-05
9.6388092e-06
8.7325857e-06
7.6760196e-06
7.7114162e-06
8.1206766e-06
8.6091742e-06
9.1522781e-06
9.6963475e-06
1.0246372e-05
1.0802518e-05
1.1372728e-05
1.1955763e-05
1.2567594e-05
1.3249613e-05
1.4039361e-05
1.4866592e-05
1.5691047e-05
1.6495313e-05
1.7266885e-05
1.7996611e-05
1.8682899e-05
1.9366998e-05
1.9860196e-05
2.0156435e-05
2.0288317e-05
2.0547688e-05
2.0856191e-05
2.1215762e-05
2.1660727e-05
2.22138e-05
2.2977946e-05
2.3898453e-05
2.5703882e-05
2.8477421e-05
3.1704764e-05
3.5599143e-05
4.0881842e-05
4.8173634e-05
5.809309e-05
7.0833236e-05
8.5491468e-05
9.7241266e-05
0.00010138307
9.3619185e-05
8.1212046e-05
6.3834284e-05
5.5476314e-05
4.6217961e-05
5.0181974e-05
0.00016038139
0.00018060137
0.00016318446
0.00012655309
7.705615e-05
3.2491268e-05
8.3382079e-06
1.5909619e-06
1.082186e-06
9.4590934e-07
7.9496256e-07
6.9954724e-07
6.5406577e-07
6.3582499e-07
6.2662279e-07
6.1751103e-07
6.0395768e-07
6.0678926e-07
6.2290447e-07
6.5709352e-07
7.0831302e-07
7.7971485e-07
8.7528195e-07
9.9875467e-07
1.1586517e-06
1.3599931e-06
1.6085563e-06
1.8975e-06
2.236095e-06
2.625883e-06
3.0447676e-06
3.5016421e-06
4.0086616e-06
4.5694184e-06
5.1796431e-06
5.8359494e-06
6.5529897e-06
7.3433687e-06
8.1834747e-06
9.0419392e-06
9.8879974e-06
1.0666733e-05
1.1328451e-05
1.1792024e-05
1.2087478e-05
1.2270005e-05
1.3327502e-05
1.7936951e-05
2.1810168e-05
2.5434689e-05
2.8923807e-05
3.2194417e-05
3.5426881e-05
3.8475576e-05
4.1482123e-05
4.4358572e-05
4.7172506e-05
4.9885502e-05
5.2521083e-05
5.5062479e-05
5.7515769e-05
5.9873003e-05
6.2135096e-05
6.4298125e-05
6.6361427e-05
6.8323633e-05
7.018529e-05
7.1943716e-05
7.3597417e-05
7.514575e-05
7.6587952e-05
7.7924026e-05
7.9153855e-05
8.0277847e-05
8.1296611e-05
8.2211643e-05
8.3024804e-05
8.3738105e-05
8.4353621e-05
8.4874144e-05
8.5302525e-05
8.5641609e-05
8.5894892e-05
8.6068681e-05
8.6159959e-05
8.6172465e-05
8.6110522e-05
8.5973271e-05
8.5780663e-05
8.5545185e-05
8.5243208e-05
8.4881683e-05
8.4472798e-05
8.4016484e-05
8.3517173e-05
8.2977111e-05
8.2399255e-05
8.1786437e-05
8.114047e-05
8.0463973e-05
7.9759117e-05
7.9028437e-05
7.8274076e-05
7.749852e-05
7.6704011e-05
7.5892964e-05
7.5067538e-05
7.4228852e-05
7.3378268e-05
7.2517338e-05
7.1646839e-05
7.076712e-05
6.9878723e-05
6.8983733e-05
6.8082288e-05
6.7174543e-05
6.6262154e-05
6.5345016e-05
6.442303e-05
6.3496533e-05
6.256529e-05
6.1629287e-05
6.068823e-05
5.9742347e-05
5.8792027e-05
5.7838867e-05
5.6883576e-05
5.5926979e-05
5.4969166e-05
5.4009822e-05
5.3047719e-05
5.2081988e-05
5.1110546e-05
5.0132786e-05
4.914553e-05
4.8148532e-05
4.7137138e-05
4.6111944e-05
4.5065832e-05
4.400132e-05
4.2906714e-05
4.1788315e-05
4.062631e-05
3.9434489e-05
3.8178593e-05
3.6887941e-05
3.5499608e-05
3.4061124e-05
3.24731e-05
3.0836674e-05
2.8964921e-05
2.702253e-05
2.4486158e-05
2.1533133e-05
2.16355e-05
2.2783315e-05
2.415367e-05
2.5677532e-05
2.7204233e-05
2.8747942e-05
3.0309043e-05
3.1909611e-05
3.3546351e-05
3.5264406e-05
3.7179431e-05
3.9394226e-05
4.1711647e-05
4.4020225e-05
4.6271364e-05
4.8430104e-05
5.0470945e-05
5.23903e-05
5.430097e-05
5.5675334e-05
5.6500838e-05
5.6872637e-05
5.7603485e-05
5.8470168e-05
5.948054e-05
6.0730546e-05
6.2284774e-05
6.4429914e-05
6.702086e-05
7.209322e-05
7.9842775e-05
8.8873297e-05
9.975336e-05
0.00011450867
0.00013484547
0.00016244393
0.00019776503
0.00023822811
0.00027051878
0.00028211063
0.00026108084
0.00022711764
0.00017888987
0.0001556699
0.00012967171
0.00014067321
0.00036586054
0.00041220346
0.00037220046
0.00029005471
0.0001773815
7.5219405e-05
1.9416626e-05
3.7059038e-06
2.4850995e-06
2.1709157e-06
1.8257514e-06
1.6066881e-06
1.5019443e-06
1.4599703e-06
1.4389895e-06
1.4183326e-06
1.3872643e-06
1.3934769e-06
1.4300748e-06
1.5081204e-06
1.6252561e-06
1.788652e-06
2.0074446e-06
2.2901456e-06
2.656423e-06
3.1176544e-06
3.6866977e-06
4.3491251e-06
5.1255672e-06
6.0198913e-06
6.9811843e-06
8.0293872e-06
9.1925229e-06
1.0479124e-05
1.187962e-05
1.3386081e-05
1.5031558e-05
1.6844998e-05
1.8772875e-05
2.074338e-05
2.2685912e-05
2.4474964e-05
2.5996146e-05
2.7065342e-05
2.775035e-05
2.819045e-05
3.0623114e-05
4.1224201e-05
5.0053535e-05
5.8342188e-05
6.6315771e-05
7.3787534e-05
8.117016e-05
8.8131211e-05
9.499458e-05
0.00010155971
0.00010798101
0.00011417108
0.00012018368
0.00012598081
0.00013157651
0.00013695288
0.00014211216
0.00014704559
0.00015175178
0.00015622771
0.00016047471
0.00016448688
0.00016826076
0.00017179497
0.00017508781
0.00017813932
0.00018094922
0.00018351845
0.00018584837
0.00018794236
0.00018980464
0.00019143975
0.00019285234
0.00019404873
0.00019503535
0.00019581861
0.0001964064
0.00019681245
0.00019703218
0.00019707074
0.00019693973
0.00019663688
0.00019620741
0.00019568011
0.00019500096
0.00019418555
0.00019326172
0.0001922293
0.00019109835
0.00018987398
0.00018856291
0.00018717158
0.00018570411
0.00018416647
0.0001825636
0.00018090129
0.00017918441
0.00017741865
0.00017560912
0.00017376135
0.00017188025
0.0001699684
0.00016802893
0.00016606538
0.00016407954
0.00016207223
0.0001600447
0.00015800171
0.00015594361
0.00015387075
0.00015178693
0.00014969193
0.00014758553
0.00014546852
0.00014334038
0.00014120108
0.00013904997
0.0001368876
0.00013471484
0.00013253539
0.00013035086
0.00012816313
0.00012597243
0.00012377804
0.00012157717
0.00011936782
0.00011714526
0.00011490809
0.00011264907
0.00011036761
0.0001080531
0.00010570689
0.00010331271
0.00010087632
9.8370973e-05
9.5811068e-05
9.3151289e-05
9.0423165e-05
8.7548315e-05
8.4593767e-05
8.1415675e-05
7.8122724e-05
7.4487366e-05
7.0741033e-05
6.6455685e-05
6.2008872e-05
5.6204673e-05
4.9455108e-05
4.9691028e-05
5.231993e-05
5.5462536e-05
5.8958374e-05
6.2461699e-05
6.6004752e-05
6.958855e-05
7.3262848e-05
7.7020677e-05
8.0966154e-05
8.536311e-05
9.0441109e-05
9.5748634e-05
0.00010103326
0.00010618385
0.00011112042
0.00011578493
0.00012017144
0.00012453144
0.00012766017
0.00012953992
0.00013039708
0.00013207897
0.00013406673
0.00013638448
0.00013925066
0.00014281534
0.00014772911
0.00015367883
0.00016530511
0.0001829311
0.00020354345
0.00022828503
0.00026180732
0.00030787942
0.00037013433
0.00044931516
0.00053934519
0.0006105951
0.00063676652
0.00059148225
0.00051719064
0.000409189
0.00035712004
0.00029761127
0.00032243449
0.00072742734
0.00081999434
0.00073974332
0.0005809709
0.00035793895
0.00015316664
3.9832342e-05
7.5909301e-06
5.0066421e-06
4.3706621e-06
3.6789958e-06
3.238195e-06
3.0266529e-06
2.9419287e-06
2.8999781e-06
2.858901e-06
2.7964522e-06
2.808389e-06
2.8813035e-06
3.0376243e-06
3.2726847e-06
3.6007932e-06
4.0403366e-06
4.6084833e-06
5.3448872e-06
6.2714674e-06
7.4147509e-06
8.7456465e-06
1.0308428e-05
1.2108484e-05
1.4043512e-05
1.6152571e-05
1.8492319e-05
2.1080538e-05
2.3898529e-05
2.6930136e-05
3.0240498e-05
3.3887496e-05
3.7764794e-05
4.1728545e-05
4.5636716e-05
4.9238848e-05
5.2304243e-05
5.4469869e-05
5.5869132e-05
5.6817645e-05
6.1715238e-05
8.3111973e-05
0.00010067044
0.00011723139
0.00013314142
0.00014803865
0.00016274858
0.00017661008
0.00019026998
0.00020333051
0.0002160995
0.00022840449
0.00024035294
0.00025187043
0.00026298561
0.00027366391
0.00028391048
0.00029370867
0.0003030563
0.00031194782
0.0003203861
0.00032836006
0.00033586315
0.00034289292
0.00034944619
0.00035552314
0.00036112331
0.00036624853
0.00037090144
0.00037508858
0.00037881826
0.00038209929
0.00038494067
0.00038735468
0.00038935375
0.00039095043
0.00039215994
0.00039300746
0.00039349089
0.00039361042
0.00039339358
0.0003928354
0.00039202441
0.00039101888
0.00038971109
0.00038813102
0.00038633409
0.00038431992
0.00038210819
0.00037970906
0.00037713574
0.00037440088
0.00037151271
0.00036848297
0.00036532143
0.00036203958
0.00035864714
0.00035515532
0.00035157435
0.00034791522
0.00034418771
0.00034039702
0.0003365494
0.00033265193
0.00032870824
0.00032472002
0.00032068981
0.00031662711
0.00031253267
0.00030840731
0.00030425857
0.00030008609
0.00029588952
0.00029167047
0.00028742794
0.00028316196
0.00027887127
0.00027455701
0.000270221
0.00026587066
0.00026150923
0.00025714048
0.00025276492
0.00024838113
0.00024398355
0.00023956828
0.00023512586
0.00023065353
0.00022613683
0.00022157462
0.00021694571
0.00021225281
0.00020746342
0.000202589
0.00019757614
0.0001924535
0.00018713057
0.00018167017
0.00017591569
0.00017000075
0.00016363804
0.00015704444
0.00014976476
0.0001422612
0.00013367696
0.00012476792
0.00011314415
9.9636495e-05
0.00010009863
0.00010536087
0.00011166752
0.0001186864
0.00012572423
0.00013284417
0.00014004842
0.00014743446
0.00015498998
0.00016292425
0.00017176301
0.00018195312
0.00019259174
0.00020317829
0.00021348948
0.00022336493
0.00023268907
0.00024145529
0.00025015219
0.00025637646
0.00026011863
0.00026184726
0.00026522787
0.00026920798
0.00027384927
0.00027958464
0.0002867186
0.00029653716
0.00030845093
0.0003316878
0.00036652767
0.00040753363
0.00045640035
0.00052246546
0.00061280303
0.00073397551
0.00088648313
0.0010576986
0.001191166
0.0012412032
0.0011585416
0.0010208703
0.00081422245
0.00071470473
0.00059697821
0.00064588096
0.0013034752
0.0014690979
0.0013246779
0.0010525854
0.00065664376
0.00028513488
7.4925462e-05
1.4230508e-05
9.2021179e-06
8.0260887e-06
6.7635539e-06
5.9555481e-06
5.5660808e-06
5.4101326e-06
5.3336596e-06
5.2591516e-06
5.1447231e-06
5.1656231e-06
5.2981638e-06
5.5838648e-06
6.0143108e-06
6.6155441e-06
7.4213653e-06
8.4641056e-06
9.8141831e-06
1.1512426e-05
1.3608568e-05
1.6043493e-05
1.8914608e-05
2.2218852e-05
2.5770396e-05
2.9638606e-05
3.3927852e-05
3.8671858e-05
4.3837498e-05
4.9394987e-05
5.5460618e-05
6.213873e-05
6.9236826e-05
7.6493043e-05
8.3647449e-05
9.0247267e-05
9.5869786e-05
9.9870905e-05
0.00010248867
0.00010438548
0.00011338249
0.00015262036
0.00018421873
0.00021416653
0.00024286655
0.00026969762
0.00029615569
0.00032105724
0.00034557009
0.00036898607
0.00039185928
0.00041388601
0.00043526052
0.0004558537
0.0004757194
0.00049479914
0.00051310455
0.00053060839
0.00054730871
0.00056319702
0.00057828007
0.00059253944
0.00060596487
0.00061855298
0.00063029875
0.00064120301
0.00065126522
0.00066048873
0.00066887807
0.0006764446
0.00068320287
0.00068916807
0.00069435555
0.00069878646
0.00070248214
0.00070546418
0.00070775865
0.0007094051
0.00071041595
0.00071077021
0.00071052271
0.00070966674
0.0007083553
0.00070669597
0.00070449502
0.00070180329
0.00069871969
0.00069524345
0.00069140887
0.00068723394
0.00068274183
0.00067795469
0.00067288718
0.00066755998
0.00066199035
0.00065619876
0.00065020249
0.00064402147
0.00063767407
0.00063117991
0.00062455651
0.00061781337
0.00061096174
0.00060401439
0.00059697799
0.00058985575
0.00058265237
0.00057538497
0.00056805507
0.00056066438
0.00055322645
0.0005457409
0.00053820726
0.00053062856
0.00052300322
0.00051533139
0.000507611
0.00049984428
0.00049203467
0.00048419566
0.00047633322
0.00046845416
0.00046055953
0.00045264688
0.00044470627
0.00043673077
0.00042870344
0.00042061931
0.00041245236
0.00040420051
0.00039582558
0.00038733238
0.0003786623
0.00036983575
0.00036075638
0.00035147548
0.00034182962
0.00033193152
0.00032149822
0.00031076984
0.00029922733
0.00028726126
0.00027404732
0.00026041944
0.00024482378
0.00022862886
0.00020750521
0.00018294986
0.00018373929
0.00019328265
0.00020477114
0.00021756495
0.00023040801
0.00024340667
0.00025656685
0.00027005984
0.00028386756
0.00029836954
0.0003145138
0.00033308518
0.00035244984
0.00037170541
0.0003904427
0.00040836917
0.00042527581
0.00044116161
0.00045688259
0.00046809837
0.00047485394
0.00047801761
0.00048416997
0.00049138119
0.00049979003
0.00051016907
0.00052307694
0.00054080613
0.000562349
0.00060428128
0.00066615488
0.00073974268
0.0008263479
0.00094296251
0.0011010845
0.0013106943
0.0015702342
0.0018559068
0.0020732292
0.0021554107
0.0020232221
0.001800806
0.0014543067
0.0012884532
0.0010823281
0.001169262
0.0021389392
0.002406372
0.0021721442
0.0017544887
0.0011164429
0.00049616073
0.00013243211
2.5038004e-05
1.5804837e-05
1.3767973e-05
1.1618778e-05
1.0237645e-05
9.5684421e-06
9.3004474e-06
9.1703212e-06
9.0440566e-06
8.8483455e-06
8.8825339e-06
9.1077121e-06
9.5957679e-06
1.0332535e-05
1.1362275e-05
1.2744337e-05
1.4532679e-05
1.6844349e-05
1.9753071e-05
2.334322e-05
2.7500252e-05
3.2423209e-05
3.8089646e-05
4.4173651e-05
5.0792466e-05
5.8125267e-05
6.6231413e-05
7.505621e-05
8.4548502e-05
9.4900022e-05
0.00010628331
0.00011837311
0.00013072641
0.00014290125
0.00015414098
0.00016372821
0.00017061568
0.0001751991
0.00017878081
0.00019420299
0.00026083288
0.00031327337
0.00036317877
0.00041080658
0.00045520965
0.00049888857
0.00053990958
0.00058021127
0.00061864777
0.00065613453
0.00069218917
0.00072713523
0.00076077318
0.000793198
0.00082432343
0.00085417485
0.00088271479
0.00090994529
0.00093585609
0.00096046457
0.00098374252
0.0010056775
0.0010262666
0.0010455036
0.0010633914
0.0010799301
0.0010951255
0.001108985
0.0011215264
0.001132773
0.0011427484
0.0011514761
0.0011589888
0.0011653194
0.0011705011
0.001174574
0.001177592
0.0011796
0.0011805416
0.0011804914
0.0011794577
0.001177673
0.0011753223
0.0011720863
0.0011680418
0.0011633491
0.0011580066
0.0011520681
0.0011455622
0.0011385256
0.0011309932
0.0011229885
0.0011145444
0.0011056884
0.0010964534
0.0010868674
0.0010769624
0.0010667684
0.0010563171
0.0010456372
0.0010347444
0.0010236573
0.0010123967
0.001000974
0.00098939476
0.00097766698
0.00096581874
0.00095385304
0.00094177308
0.00092960121
0.00091733727
0.00090498094
0.00089253749
0.00088000472
0.00086738321
0.00085466994
0.00084186902
0.00082898639
0.0008160447
0.00080305402
0.00079002566
0.00077696169
0.00076385826
0.00075069917
0.00073747326
0.00072415267
0.00071072911
0.00069715972
0.00068344086
0.0006695095
0.00065537315
0.00064093477
0.0006262273
0.00061109099
0.00059560948
0.00057951144
0.00056298167
0.00054554987
0.00052761103
0.00050830198
0.00048826752
0.00046613208
0.00044327718
0.00041710264
0.00038988681
0.00035438754
0.00031303096
0.00031420845
0.00033019027
0.00034956307
0.00037115852
0.00039287913
0.00041487845
0.00043717417
0.00046003992
0.00048345533
0.00050805196
0.00053540485
0.00056677776
0.00059944329
0.00063189298
0.00066342847
0.00069355452
0.00072192087
0.00074854611
0.00077480396
0.00079346527
0.00080476367
0.00081013802
0.0008204826
0.00083254427
0.00084660356
0.00086392451
0.0008854497
0.00091493192
0.00095076168
0.0010203226
0.0011206435
0.0012418929
0.0013817558
0.0015688857
0.0018194199
0.0021458694
0.0025409491
0.0029641129
0.0032753049
0.0033917822
0.0032022538
0.0028826308
0.0023667413
0.0021230436
0.0018017201
0.0019425251
0.0032371386
0.0036268683
0.0032859208
0.0027104023
0.0017752139
0.00081681598
0.00022335794
4.2065221e-05
2.5768386e-05
2.2406165e-05
1.8942246e-05
1.6707818e-05
1.5618446e-05
1.5181947e-05
1.4972125e-05
1.4769082e-05
1.4451836e-05
1.4504977e-05
1.4868194e-05
1.5659748e-05
1.6857007e-05
1.8532007e-05
2.0784338e-05
2.3692726e-05
2.744931e-05
3.2176228e-05
3.8007552e-05
4.4736552e-05
5.2718441e-05
6.1940526e-05
7.1811522e-05
8.2530271e-05
9.4387315e-05
0.00010748039
0.00012172338
0.00013703222
0.00015370123
0.00017199359
0.00019138804
0.00021117878
0.00023065956
0.00024865014
0.00026401329
0.00027517647
0.00028276658
0.00028919042
0.0003141546
0.00041985489
0.00050078738
0.00057801267
0.00065124714
0.00071923254
0.0007858535
0.00084821857
0.00090930522
0.00096742508
0.0010239745
0.001078263
0.0011307898
0.0011812814
0.0012298954
0.0012765223
0.0013212138
0.0013639283
0.0014046797
0.0014434611
0.0014803123
0.0015151931
0.0015480936
0.0015790151
0.0016079525
0.0016349132
0.0016598997
0.0016829222
0.001703992
0.0017231351
0.0017403858
0.0017557781
0.0017693442
0.0017811307
0.0017911831
0.0017995483
0.0018062818
0.0018114522
0.0018151318
0.0018172831
0.0018178984
0.0018170744
0.0018151131
0.001812312
0.0018081882
0.0018028442
0.001796517
0.0017892039
0.0017809808
0.0017718891
0.0017619809
0.001751306
0.0017398985
0.0017278057
0.0017150669
0.0017017305
0.0016878371
0.0016734333
0.0016585636
0.0016432749
0.0016276091
0.0016115902
0.0015952461
0.0015786078
0.0015616926
0.0015445093
0.0015270706
0.0015094181
0.0014915572
0.0014734933
0.0014552599
0.0014368577
0.0014182867
0.0013995554
0.0013806612
0.0013616052
0.0013423836
0.0013230034
0.001303474
0.0012838302
0.0012640877
0.0012442636
0.0012243616
0.0012043763
0.0011842833
0.0011640659
0.0011436821
0.0011231188
0.001102311
0.0010812526
0.0010598475
0.001038106
0.0010158795
0.00099321623
0.00096987143
0.00094596927
0.00092109345
0.00089552113
0.00086852935
0.00084071422
0.0008107472
0.00077960697
0.00074516508
0.00070953141
0.00066866341
0.00062606505
0.00057047184
0.00050536921
0.00050685875
0.00053177168
0.00056228171
0.00059634629
0.00063071437
0.00066556742
0.00070095428
0.00073727303
0.00077451252
0.00081364237
0.00085708929
0.0009067262
0.00095831777
0.0010095043
0.0010591657
0.0011065158
0.0011510057
0.0011926976
0.0012336136
0.0012625674
0.0012803244
0.0012889509
0.001305213
0.0013240607
0.0013460031
0.0013729514
0.0014063793
0.001451976
0.0015072838
0.0016142385
0.0017637305
0.0019485635
0.002155725
0.0024304086
0.0027918794
0.0032524718
0.003794522
0.0043566522
0.0047540553
0.0048980973
0.0046493426
0.004231626
0.0035399388
0.0032192406
0.002771964
0.0029786329
0.0045420018
0.0050569565
0.00461113
0.0038962158
0.0026491614
0.0012789298
0.00036271274
6.8348981e-05
4.0319425e-05
3.49583e-05
2.9618247e-05
2.6163383e-05
2.4466673e-05
2.378614e-05
2.3462348e-05
2.3149247e-05
2.2656808e-05
2.2736266e-05
2.3298459e-05
2.4530247e-05
2.6396852e-05
2.9014685e-05
3.2535173e-05
3.7067177e-05
4.2921979e-05
5.0284037e-05
5.9355092e-05
6.9790905e-05
8.2123625e-05
9.6514917e-05
0.00011182219
0.00012839537
0.00014668271
0.00016683468
0.00018871879
0.00021219982
0.00023769816
0.00026558217
0.0002950516
0.00032503999
0.00035448221
0.00038165604
0.00040487788
0.00042196582
0.00043389153
0.00044483211
0.00048321807
0.00064024102
0.00075666312
0.00086787655
0.00097244399
0.0010689845
0.0011631092
0.0012508693
0.001336498
0.0014177325
0.001496539
0.0015720282
0.0016449114
0.0017148574
0.0017821076
0.0018465447
0.0019082609
0.0019672224
0.0020234644
0.0020769966
0.0021278866
0.0021760845
0.0022215897
0.0022644117
0.0023045503
0.0023420209
0.002376831
0.0024089973
0.0024385362
0.0024654838
0.0024898871
0.0025117919
0.0025312398
0.0025482917
0.0025630065
0.0025754453
0.002585679
0.0025937916
0.0025998653
0.0026039431
0.0026058711
0.0026058292
0.002604217
0.0026014646
0.0025969019
0.002590651
0.0025830324
0.002574043
0.0025637801
0.0025522987
0.0025396664
0.0025259474
0.0025111873
0.0024954475
0.0024787795
0.0024612475
0.0024429054
0.0024238149
0.0024040356
0.0023836304
0.0023626554
0.0023411437
0.0023191328
0.0022966645
0.0022737628
0.0022504403
0.0022267147
0.0022026418
0.0021782298
0.0021534874
0.0021284595