/*--------------------------------*- C++ -*----------------------------------*\
| =========                 |                                                 |
| \\      /  F ield         | OpenFOAM: The Open Source CFD Toolbox           |
|  \\    /   O peration     | Version:  2.4.0                                 |
|   \\  /    A nd           | Web:      www.OpenFOAM.org                      |
|    \\/     M anipulation  |                                                 |
\*---------------------------------------------------------------------------*/
FoamFile
{
    version     2.0;
    format      ascii;
    class       volScalarField;
    location    "0";
    object      yPlus;
}
// * * * * * * * * * * * * * * * * * * * * * * * * * * * * * * * * * * * * * //

dimensions      [0 0 0 0 0 0 0];

internalField   uniform 0;

boundaryField
{
    inlet
    {
        type            cyclic;
    }
    outlet
    {
        type            cyclic;
    }
    top
    {
        type            calculated;
        value           nonuniform List<scalar> 
200
(
0.11911761
0.11911755
0.11911784
0.11911896
0.11912139
0.11912553
0.11913167
0.11913987
0.11914979
0.11916099
0.1191731
0.11918586
0.11919908
0.11921263
0.11922637
0.11924022
0.11925406
0.11926782
0.11928146
0.11929497
0.11930837
0.11932168
0.11933489
0.11934803
0.11936111
0.11937414
0.11938714
0.1194001
0.11941299
0.11942577
0.11943838
0.11945077
0.11946288
0.11947463
0.11948594
0.11949673
0.11950688
0.11951634
0.11952504
0.11953292
0.11953992
0.11954598
0.11955103
0.11955502
0.1195579
0.11955964
0.11956029
0.11956036
0.11956036
0.11956036
0.11956036
0.11956036
0.11956036
0.11956036
0.11956036
0.11956036
0.11956036
0.11956036
0.11956036
0.11956036
0.11956036
0.11956036
0.11956036
0.11956036
0.11956036
0.11956036
0.11956036
0.11956036
0.11956036
0.11956036
0.11956036
0.11956036
0.11956036
0.11956036
0.11956036
0.11956036
0.11956036
0.11956036
0.11956036
0.11956036
0.11956036
0.11956036
0.11956036
0.11956036
0.11956036
0.11956036
0.11956036
0.11956036
0.11956036
0.11956036
0.11956036
0.11956036
0.11956036
0.11956036
0.11956036
0.11956036
0.11956036
0.11956036
0.11956036
0.11956036
0.11956036
0.11956036
0.11956036
0.11956036
0.11956036
0.11956036
0.11956036
0.11956036
0.11956036
0.11956036
0.11956036
0.11956036
0.11956036
0.11956036
0.11956036
0.11956036
0.11956036
0.11956036
0.11956036
0.11956036
0.11956036
0.11956036
0.11956036
0.11956036
0.11956036
0.11956036
0.11956036
0.11956036
0.11956036
0.11956036
0.11956036
0.11956036
0.11956036
0.11956036
0.11956036
0.11956036
0.11956036
0.11956036
0.11956036
0.11956036
0.11956036
0.11956036
0.11956036
0.11956036
0.11956036
0.11956036
0.11956036
0.11956036
0.11956036
0.11956036
0.11956036
0.11956036
0.11956036
0.11956029
0.11955964
0.1195579
0.11955502
0.11955103
0.11954598
0.11953992
0.11953292
0.11952504
0.11951634
0.11950688
0.11949673
0.11948594
0.11947463
0.11946288
0.11945077
0.11943838
0.11942577
0.11941299
0.1194001
0.11938714
0.11937414
0.11936111
0.11934804
0.11933489
0.11932168
0.11930838
0.11929497
0.11928146
0.11926782
0.11925406
0.11924022
0.11922637
0.11921263
0.11919908
0.11918586
0.1191731
0.11916099
0.11914979
0.11913987
0.11913168
0.11912553
0.11912139
0.11911896
0.11911784
0.11911755
0.11911761
)
;
    }
    hills
    {
        type            calculated;
        value           nonuniform List<scalar> 
200
(
0.1191176
0.11911755
0.1191174
0.11911583
0.11911027
0.11909749
0.11907513
0.11904639
0.11902123
0.11900238
0.11898998
0.1189835
0.118982
0.11898498
0.118992
0.11900298
0.11901783
0.11903564
0.11905352
0.11907084
0.11908761
0.1191038
0.1191194
0.11913442
0.1191488
0.11916261
0.11917586
0.1191898
0.11920548
0.11922298
0.11924232
0.11926354
0.11928664
0.11931165
0.11933858
0.11936716
0.1193963
0.11942456
0.11945151
0.11947673
0.1194997
0.11951987
0.11953669
0.11954958
0.11955804
0.11956164
0.11956072
0.11956035
0.11956035
0.11956035
0.11956035
0.11956035
0.11956035
0.11956035
0.11956035
0.11956035
0.11956035
0.11956035
0.11956035
0.11956035
0.11956035
0.11956035
0.11956035
0.11956035
0.11956035
0.11956035
0.11956035
0.11956035
0.11956035
0.11956035
0.11956035
0.11956035
0.11956035
0.11956035
0.11956035
0.11956035
0.11956035
0.11956035
0.11956035
0.11956035
0.11956035
0.11956035
0.11956035
0.11956035
0.11956035
0.11956035
0.11956035
0.11956035
0.11956035
0.11956035
0.11956035
0.11956035
0.11956035
0.11956035
0.11956035
0.11956035
0.11956035
0.11956035
0.11956035
0.11956035
0.11956035
0.11956035
0.11956035
0.11956035
0.11956035
0.11956035
0.11956035
0.11956035
0.11956035
0.11956035
0.11956035
0.11956035
0.11956035
0.11956035
0.11956035
0.11956035
0.11956035
0.11956035
0.11956035
0.11956035
0.11956035
0.11956035
0.11956035
0.11956035
0.11956035
0.11956035
0.11956035
0.11956035
0.11956035
0.11956035
0.11956035
0.11956035
0.11956035
0.11956035
0.11956035
0.11956035
0.11956035
0.11956035
0.11956035
0.11956035
0.11956035
0.11956035
0.11956035
0.11956035
0.11956035
0.11956035
0.11956035
0.11956035
0.11956035
0.11956035
0.11956035
0.11956035
0.11956035
0.11956072
0.11956164
0.11955803
0.11954959
0.11953668
0.11951985
0.11949974
0.11947672
0.11945148
0.11942451
0.11939631
0.11936729
0.11933857
0.11931162
0.11928661
0.1192635
0.11924229
0.11922294
0.11920544
0.11918977
0.11917585
0.11916264
0.11914906
0.1191344
0.11911937
0.11910379
0.1190876
0.11907083
0.11905352
0.11903563
0.11901783
0.11900297
0.118992
0.11898496
0.11898199
0.11898349
0.11898994
0.11900235
0.11902128
0.11904645
0.11907511
0.11909748
0.11911028
0.11911583
0.1191174
0.11911755
0.1191176
)
;
    }
    front
    {
        type            empty;
    }
    back
    {
        type            empty;
    }
}


// ************************************************************************* //
