/*--------------------------------*- C++ -*----------------------------------*\
  =========                 |
  \\      /  F ield         | OpenFOAM: The Open Source CFD Toolbox
   \\    /   O peration     | Website:  https://openfoam.org
    \\  /    A nd           | Version:  7
     \\/     M anipulation  |
\*---------------------------------------------------------------------------*/
FoamFile
{
    version     2.0;
    format      ascii;
    class       surfaceScalarField;
    location    "25000";
    object      phi;
}
// * * * * * * * * * * * * * * * * * * * * * * * * * * * * * * * * * * * * * //

dimensions      [0 3 -1 0 0 0 0];

internalField   nonuniform List<scalar> 
29254
(
-1.26819e-06
-7.25785e-09
-1.26549e-06
-2.70728e-09
-1.2586e-06
-6.88498e-09
-1.25182e-06
-6.77851e-09
-1.24323e-06
-8.58969e-09
-1.23342e-06
-9.80879e-09
-1.22262e-06
-1.08066e-08
-1.21078e-06
-1.18399e-08
-1.19809e-06
-1.26845e-08
-1.18473e-06
-1.33638e-08
-1.17084e-06
-1.38906e-08
-1.15645e-06
-1.43895e-08
-1.14185e-06
-1.45998e-08
-1.12728e-06
-1.45668e-08
-1.11277e-06
-1.45154e-08
-1.09854e-06
-1.42281e-08
-1.08453e-06
-1.40106e-08
-1.07089e-06
-1.36366e-08
-1.05765e-06
-1.32461e-08
-1.045e-06
-1.26506e-08
-1.0329e-06
-1.20926e-08
-1.02141e-06
-1.14905e-08
-1.01055e-06
-1.08639e-08
-1.00043e-06
-1.01191e-08
-9.90981e-07
-9.44866e-09
-9.8214e-07
-8.84098e-09
-9.73937e-07
-8.20298e-09
-9.66316e-07
-7.62046e-09
-9.59339e-07
-6.97761e-09
-9.53007e-07
-6.33176e-09
-9.47309e-07
-5.69782e-09
-9.42238e-07
-5.07143e-09
-9.37774e-07
-4.46333e-09
-9.33909e-07
-3.86542e-09
-9.30625e-07
-3.28382e-09
-9.27845e-07
-2.7798e-09
-9.25615e-07
-2.23018e-09
-9.23926e-07
-1.68933e-09
-9.22757e-07
-1.16861e-09
-9.22011e-07
-7.46541e-10
-9.21744e-07
-2.66263e-10
-9.22022e-07
2.77212e-10
-9.228e-07
7.78253e-10
-9.24141e-07
1.34164e-09
-9.25955e-07
1.81393e-09
-9.28214e-07
2.2586e-09
-9.30918e-07
2.70388e-09
-9.34049e-07
3.13077e-09
-9.37593e-07
3.54483e-09
-9.41547e-07
3.9539e-09
-9.45898e-07
4.35104e-09
-9.50661e-07
4.76215e-09
-9.55798e-07
5.13731e-09
-9.61296e-07
5.49848e-09
-9.67139e-07
5.84248e-09
-9.73311e-07
6.17208e-09
-9.79806e-07
6.49552e-09
-9.86603e-07
6.79625e-09
-9.93684e-07
7.08148e-09
-1.00112e-06
7.43746e-09
-1.00881e-06
7.68547e-09
-1.01673e-06
7.91841e-09
-1.02478e-06
8.0588e-09
-1.0329e-06
8.11219e-09
-1.04115e-06
8.25546e-09
-1.04956e-06
8.41002e-09
-1.05812e-06
8.55314e-09
-1.06674e-06
8.62261e-09
-1.07546e-06
8.72488e-09
-1.08428e-06
8.82147e-09
-1.09318e-06
8.89579e-09
-1.10214e-06
8.95993e-09
-1.11114e-06
9.00043e-09
-1.12017e-06
9.02825e-09
-1.12921e-06
9.04209e-09
-1.13825e-06
9.04417e-09
-1.14727e-06
9.01631e-09
-1.15627e-06
9.00339e-09
-1.1652e-06
8.92354e-09
-1.1741e-06
8.90578e-09
-1.18288e-06
8.77469e-09
-1.19159e-06
8.70752e-09
-1.20014e-06
8.55394e-09
-1.20852e-06
8.37637e-09
-1.21669e-06
8.17682e-09
-1.22464e-06
7.95166e-09
-1.23229e-06
7.64481e-09
-1.23956e-06
7.2723e-09
-1.24638e-06
6.82034e-09
-1.25272e-06
6.33732e-09
-1.25847e-06
5.74622e-09
-1.26368e-06
5.21147e-09
-1.26825e-06
4.57545e-09
-1.27175e-06
3.49536e-09
-1.27455e-06
2.80167e-09
-1.27585e-06
1.30482e-09
-1.27631e-06
4.6024e-10
-1.27402e-06
-2.29831e-09
1.45416e-09
-2.72819e-06
-1.80534e-08
-2.72687e-06
-4.02377e-09
-2.72357e-06
-1.01826e-08
-2.7223e-06
-8.05145e-09
-2.71998e-06
-1.09072e-08
-2.71493e-06
-1.48593e-08
-2.7083e-06
-1.74342e-08
-2.69923e-06
-2.09135e-08
-2.68795e-06
-2.39635e-08
-2.67464e-06
-2.6669e-08
-2.65959e-06
-2.89463e-08
-2.64286e-06
-3.112e-08
-2.62491e-06
-3.25513e-08
-2.60607e-06
-3.34051e-08
-2.58645e-06
-3.41313e-08
-2.5665e-06
-3.41837e-08
-2.54612e-06
-3.43883e-08
-2.52567e-06
-3.40825e-08
-2.50526e-06
-3.36596e-08
-2.48526e-06
-3.26496e-08
-2.46574e-06
-3.16184e-08
-2.44679e-06
-3.04322e-08
-2.42853e-06
-2.91241e-08
-2.41115e-06
-2.75069e-08
-2.3946e-06
-2.59896e-08
-2.37894e-06
-2.4507e-08
-2.3642e-06
-2.29438e-08
-2.35037e-06
-2.14509e-08
-2.33754e-06
-1.98007e-08
-2.32577e-06
-1.81103e-08
-2.31504e-06
-1.64195e-08
-2.3054e-06
-1.47186e-08
-2.29682e-06
-1.30385e-08
-2.28933e-06
-1.13605e-08
-2.28291e-06
-9.70529e-09
-2.27748e-06
-8.20767e-09
-2.27311e-06
-6.59766e-09
-2.26981e-06
-4.99247e-09
-2.26755e-06
-3.42889e-09
-2.26624e-06
-2.05723e-09
-2.26595e-06
-5.5352e-10
-2.26671e-06
1.03622e-09
-2.26849e-06
2.56327e-09
-2.27138e-06
4.22629e-09
-2.27525e-06
5.68912e-09
-2.28008e-06
7.08384e-09
-2.28586e-06
8.48373e-09
-2.29255e-06
9.82139e-09
-2.30013e-06
1.11248e-08
-2.30858e-06
1.24047e-08
-2.31786e-06
1.36365e-08
-2.32799e-06
1.48839e-08
-2.33888e-06
1.60316e-08
-2.35051e-06
1.71252e-08
-2.36282e-06
1.8155e-08
-2.37577e-06
1.91209e-08
-2.38932e-06
2.00508e-08
-2.40341e-06
2.08825e-08
-2.41797e-06
2.164e-08
-2.43303e-06
2.25002e-08
-2.44841e-06
2.30609e-08
-2.46398e-06
2.34933e-08
-2.47967e-06
2.37466e-08
-2.49534e-06
2.37858e-08
-2.51106e-06
2.39757e-08
-2.52681e-06
2.41607e-08
-2.54253e-06
2.42738e-08
-2.55809e-06
2.41757e-08
-2.57346e-06
2.40987e-08
-2.58861e-06
2.39698e-08
-2.60346e-06
2.37421e-08
-2.61795e-06
2.3456e-08
-2.63202e-06
2.30696e-08
-2.64562e-06
2.26253e-08
-2.65871e-06
2.21313e-08
-2.67124e-06
2.15776e-08
-2.68315e-06
2.09242e-08
-2.69444e-06
2.02918e-08
-2.70499e-06
1.94779e-08
-2.71492e-06
1.88383e-08
-2.72401e-06
1.78617e-08
-2.7324e-06
1.7093e-08
-2.73996e-06
1.61128e-08
-2.74669e-06
1.51078e-08
-2.75258e-06
1.40716e-08
-2.7576e-06
1.2969e-08
-2.76163e-06
1.16735e-08
-2.76465e-06
1.0291e-08
-2.76656e-06
8.73211e-09
-2.76739e-06
7.16819e-09
-2.76687e-06
5.22687e-09
-2.76523e-06
3.569e-09
-2.76255e-06
1.89484e-09
-2.75842e-06
-6.33379e-10
-2.75384e-06
-1.77144e-09
-2.74796e-06
-4.57815e-09
-2.74219e-06
-5.30883e-09
-2.73717e-06
-7.32065e-09
3.26511e-09
-3.86741e-06
-3.25363e-08
-3.86935e-06
-2.08987e-09
-3.87339e-06
-6.13688e-09
-3.88325e-06
1.80259e-09
-3.89397e-06
-1.86009e-10
-3.90132e-06
-7.51045e-09
-3.90713e-06
-1.16189e-08
-3.90963e-06
-1.84132e-08
-3.90891e-06
-2.46843e-08
-3.90505e-06
-3.0526e-08
-3.89836e-06
-3.56423e-08
-3.88884e-06
-4.06404e-08
-3.87704e-06
-4.43508e-08
-3.86333e-06
-4.71166e-08
-3.84782e-06
-4.96356e-08
-3.83112e-06
-5.08888e-08
-3.81306e-06
-5.24433e-08
-3.79418e-06
-5.2962e-08
-3.77461e-06
-5.32277e-08
-3.75488e-06
-5.23858e-08
-3.73514e-06
-5.1361e-08
-3.71556e-06
-5.00073e-08
-3.69631e-06
-4.83721e-08
-3.67765e-06
-4.61718e-08
-3.6596e-06
-4.40359e-08
-3.64231e-06
-4.18023e-08
-3.62585e-06
-3.94004e-08
-3.61028e-06
-3.70209e-08
-3.59573e-06
-3.43455e-08
-3.5823e-06
-3.15461e-08
-3.57003e-06
-2.86914e-08
-3.55898e-06
-2.57647e-08
-3.54919e-06
-2.28301e-08
-3.5407e-06
-1.98502e-08
-3.53353e-06
-1.6873e-08
-3.52763e-06
-1.41091e-08
-3.52309e-06
-1.11364e-08
-3.51994e-06
-8.14477e-09
-3.51817e-06
-5.19606e-09
-3.51772e-06
-2.51007e-09
-3.51868e-06
4.05158e-10
-3.52103e-06
3.39254e-09
-3.52479e-06
6.3229e-09
-3.53003e-06
9.46575e-09
-3.53665e-06
1.23047e-08
-3.5446e-06
1.50319e-08
-3.55388e-06
1.77711e-08
-3.56445e-06
2.03855e-08
-3.57626e-06
2.29353e-08
-3.58928e-06
2.5425e-08
-3.60345e-06
2.78109e-08
-3.61876e-06
3.01876e-08
-3.6351e-06
3.2376e-08
-3.65242e-06
3.444e-08
-3.67062e-06
3.63585e-08
-3.68962e-06
3.81219e-08
-3.70935e-06
3.97842e-08
-3.72968e-06
4.12124e-08
-3.7505e-06
4.24548e-08
-3.77177e-06
4.37676e-08
-3.79322e-06
4.45158e-08
-3.81464e-06
4.49157e-08
-3.83593e-06
4.50294e-08
-3.8569e-06
4.47563e-08
-3.87757e-06
4.46483e-08
-3.89788e-06
4.447e-08
-3.91771e-06
4.41075e-08
-3.93686e-06
4.33272e-08
-3.95526e-06
4.2494e-08
-3.97279e-06
4.15014e-08
-3.98932e-06
4.02707e-08
-4.00475e-06
3.88849e-08
-4.01894e-06
3.72655e-08
-4.03182e-06
3.55045e-08
-4.04333e-06
3.36325e-08
-4.05337e-06
3.1619e-08
-4.06183e-06
2.93905e-08
-4.06873e-06
2.71893e-08
-4.07389e-06
2.46391e-08
-4.0775e-06
2.24502e-08
-4.07923e-06
1.95847e-08
-4.07932e-06
1.71864e-08
-4.07764e-06
1.44322e-08
-4.07424e-06
1.17123e-08
-4.06916e-06
8.98915e-09
-4.06238e-06
6.18659e-09
-4.05379e-06
3.08148e-09
-4.04347e-06
-2.92803e-11
-4.03136e-06
-3.37881e-09
-4.01759e-06
-6.60079e-09
-4.00181e-06
-1.05528e-08
-3.98452e-06
-1.37212e-08
-3.96616e-06
-1.64655e-08
-3.94649e-06
-2.03006e-08
-3.92742e-06
-2.08372e-08
-3.90817e-06
-2.38283e-08
-3.89179e-06
-2.1695e-08
-3.88108e-06
-1.80281e-08
4.08004e-09
-4.86206e-06
-5.1224e-08
-4.86682e-06
2.66856e-09
-4.8779e-06
4.94659e-09
-4.89904e-06
2.29401e-08
-4.92315e-06
2.39181e-08
-4.94375e-06
1.30938e-08
-4.96309e-06
7.7234e-09
-4.97856e-06
-2.94899e-09
-4.99006e-06
-1.31859e-08
-4.99757e-06
-2.30134e-08
-5.00136e-06
-3.1851e-08
-5.00143e-06
-4.05657e-08
-4.9983e-06
-4.74882e-08
-4.99234e-06
-5.30738e-08
-4.98368e-06
-5.82948e-08
-4.973e-06
-6.15657e-08
-4.96011e-06
-6.53386e-08
-4.94567e-06
-6.74045e-08
-4.92979e-06
-6.91065e-08
-4.91306e-06
-6.91096e-08
-4.8958e-06
-6.86245e-08
-4.87823e-06
-6.75737e-08
-4.86056e-06
-6.60405e-08
-4.84304e-06
-6.36921e-08
-4.82585e-06
-6.12336e-08
-4.8092e-06
-5.84501e-08
-4.7932e-06
-5.53982e-08
-4.77802e-06
-5.22018e-08
-4.76379e-06
-4.8579e-08
-4.75063e-06
-4.47046e-08
-4.73864e-06
-4.0675e-08
-4.72794e-06
-3.64646e-08
-4.71859e-06
-3.21815e-08
-4.71068e-06
-2.77678e-08
-4.70424e-06
-2.33045e-08
-4.69931e-06
-1.90403e-08
-4.69597e-06
-1.44786e-08
-4.69427e-06
-9.84818e-09
-4.69422e-06
-5.23989e-09
-4.69587e-06
-8.68677e-10
-4.69922e-06
3.76372e-09
-4.70426e-06
8.4332e-09
-4.71103e-06
1.30902e-08
-4.71955e-06
1.79826e-08
-4.72977e-06
2.25277e-08
-4.74166e-06
2.69164e-08
-4.75521e-06
3.13288e-08
-4.77036e-06
3.55313e-08
-4.78706e-06
3.96322e-08
-4.80525e-06
4.36154e-08
-4.82485e-06
4.74151e-08
-4.84581e-06
5.11451e-08
-4.86801e-06
5.45754e-08
-4.89135e-06
5.77836e-08
-4.91572e-06
6.07272e-08
-4.94097e-06
6.33721e-08
-4.967e-06
6.58119e-08
-4.99361e-06
6.7825e-08
-5.02064e-06
6.94811e-08
-5.04792e-06
7.10487e-08
-5.07519e-06
7.1786e-08
-5.1021e-06
7.18321e-08
-5.12848e-06
7.14073e-08
-5.15419e-06
7.04612e-08
-5.17911e-06
6.95731e-08
-5.20314e-06
6.84955e-08
-5.22611e-06
6.70789e-08
-5.24779e-06
6.50073e-08
-5.268e-06
6.27026e-08
-5.28657e-06
6.00717e-08
-5.30329e-06
5.69939e-08
-5.31802e-06
5.36175e-08
-5.33057e-06
4.98152e-08
-5.34082e-06
4.57504e-08
-5.34868e-06
4.14884e-08
-5.35403e-06
3.69715e-08
-5.35672e-06
3.208e-08
-5.35676e-06
2.72311e-08
-5.35393e-06
2.18143e-08
-5.34851e-06
1.70301e-08
-5.34005e-06
1.1117e-08
-5.32892e-06
6.05781e-09
-5.31497e-06
4.86458e-10
-5.29836e-06
-4.89689e-09
-5.27915e-06
-1.02229e-08
-5.25736e-06
-1.56016e-08
-5.23291e-06
-2.13709e-08
-5.20604e-06
-2.69003e-08
-5.17669e-06
-3.27245e-08
-5.14515e-06
-3.81415e-08
-5.11103e-06
-4.46752e-08
-5.07501e-06
-4.97412e-08
-5.03803e-06
-5.34416e-08
-5.00006e-06
-5.8277e-08
-4.96398e-06
-5.69173e-08
-4.92912e-06
-5.86873e-08
-4.90044e-06
-5.03769e-08
-4.88215e-06
-3.63207e-08
2.68567e-09
-5.78595e-06
-7.49207e-08
-5.79264e-06
9.35578e-09
-5.80975e-06
2.20522e-08
-5.84064e-06
5.38348e-08
-5.87652e-06
5.98013e-08
-5.90912e-06
4.56909e-08
-5.9408e-06
3.94026e-08
-5.96829e-06
2.45406e-08
-5.99128e-06
9.8091e-09
-6.00968e-06
-4.61984e-09
-6.02366e-06
-1.78727e-08
-6.03309e-06
-3.11335e-08
-6.03854e-06
-4.20324e-08
-6.04049e-06
-5.11285e-08
-6.03899e-06
-5.97932e-08
-6.03486e-06
-6.5698e-08
-6.02781e-06
-7.23925e-08
-6.01863e-06
-7.658e-08
-6.00739e-06
-8.035e-08
-5.99473e-06
-8.17626e-08
-5.98107e-06
-8.22839e-08
-5.9667e-06
-8.19461e-08
-5.95185e-06
-8.08932e-08
-5.93682e-06
-7.87184e-08
-5.92184e-06
-7.62111e-08
-5.90719e-06
-7.31019e-08
-5.89301e-06
-6.95799e-08
-5.87951e-06
-6.56985e-08
-5.86688e-06
-6.12119e-08
-5.85528e-06
-5.63056e-08
-5.84485e-06
-5.11039e-08
-5.83574e-06
-4.55716e-08
-5.82806e-06
-3.98651e-08
-5.82192e-06
-3.39057e-08
-5.81741e-06
-2.78145e-08
-5.81457e-06
-2.18827e-08
-5.81352e-06
-1.55306e-08
-5.81433e-06
-9.03621e-09
-5.81705e-06
-2.52063e-09
-5.82172e-06
3.79908e-09
-5.82839e-06
1.0437e-08
-5.83704e-06
1.70772e-08
-5.8477e-06
2.37579e-08
-5.86042e-06
3.07034e-08
-5.87515e-06
3.7258e-08
-5.89185e-06
4.36085e-08
-5.91051e-06
4.99906e-08
-5.93104e-06
5.60649e-08
-5.9534e-06
6.19871e-08
-5.97749e-06
6.77097e-08
-6.00322e-06
7.31491e-08
-6.03051e-06
7.84292e-08
-6.0592e-06
8.32646e-08
-6.08916e-06
8.77425e-08
-6.12023e-06
9.18041e-08
-6.15223e-06
9.53669e-08
-6.18499e-06
9.85737e-08
-6.21828e-06
1.01113e-07
-6.25186e-06
1.03061e-07
-6.28551e-06
1.04704e-07
-6.31893e-06
1.05206e-07
-6.3517e-06
1.04598e-07
-6.38347e-06
1.0318e-07
-6.41404e-06
1.0103e-07
-6.44325e-06
9.878e-08
-6.47092e-06
9.61645e-08
-6.49688e-06
9.30425e-08
-6.52083e-06
8.89589e-08
-6.54253e-06
8.43971e-08
-6.56173e-06
7.92772e-08
-6.57818e-06
7.34383e-08
-6.59167e-06
6.71071e-08
-6.60195e-06
6.01e-08
-6.60888e-06
5.26762e-08
-6.61233e-06
4.49408e-08
-6.61217e-06
3.681e-08
-6.60819e-06
2.81068e-08
-6.60043e-06
1.94654e-08
-6.58861e-06
9.99251e-09
-6.57308e-06
1.50488e-09
-6.55331e-06
-8.65876e-09
-6.52978e-06
-1.74664e-08
-6.50236e-06
-2.69398e-08
-6.47126e-06
-3.59973e-08
-6.43659e-06
-4.48836e-08
-6.39846e-06
-5.37407e-08
-6.35678e-06
-6.30471e-08
-6.31194e-06
-7.17382e-08
-6.26394e-06
-8.07231e-08
-6.21319e-06
-8.88927e-08
-6.15932e-06
-9.85458e-08
-6.1033e-06
-1.05764e-07
-6.04648e-06
-1.10262e-07
-5.98904e-06
-1.15713e-07
-5.93484e-06
-1.11121e-07
-5.88341e-06
-1.10112e-07
-5.84148e-06
-9.23106e-08
-5.81431e-06
-6.34888e-08
-1.9768e-09
-6.67488e-06
-1.04561e-07
-6.68262e-06
1.70908e-08
-6.7047e-06
4.41361e-08
-6.74334e-06
9.24671e-08
-6.78883e-06
1.05296e-07
-6.83156e-06
8.84213e-08
-6.87373e-06
8.15762e-08
-6.91156e-06
6.23628e-08
-6.94454e-06
4.27893e-08
-6.97255e-06
2.33918e-08
-6.99566e-06
5.23744e-09
-7.01364e-06
-1.31538e-08
-7.02704e-06
-2.86261e-08
-7.03644e-06
-4.17378e-08
-7.04184e-06
-5.43884e-08
-7.04413e-06
-6.34029e-08
-7.04301e-06
-7.3521e-08
-7.03937e-06
-8.02126e-08
-7.03326e-06
-8.64672e-08
-7.02529e-06
-8.97339e-08
-7.01595e-06
-9.16197e-08
-7.00558e-06
-9.23173e-08
-6.99442e-06
-9.20468e-08
-6.98282e-06
-9.03228e-08
-6.97104e-06
-8.79938e-08
-6.95939e-06
-8.47447e-08
-6.94808e-06
-8.08996e-08
-6.93738e-06
-7.63972e-08
-6.92747e-06
-7.11163e-08
-6.91857e-06
-6.52105e-08
-6.91084e-06
-5.88351e-08
-6.90446e-06
-5.19445e-08
-6.89958e-06
-4.47434e-08
-6.89635e-06
-3.71387e-08
-6.89487e-06
-2.92912e-08
-6.89525e-06
-2.15104e-08
-6.89759e-06
-1.31836e-08
-6.90201e-06
-4.62449e-09
-6.90855e-06
4.02643e-09
-6.91732e-06
1.25619e-08
-6.92834e-06
2.14638e-08
-6.94161e-06
3.03405e-08
-6.95716e-06
3.93074e-08
-6.97499e-06
4.85377e-08
-6.9951e-06
5.73718e-08
-7.01745e-06
6.59513e-08
-7.04202e-06
7.45608e-08
-7.06871e-06
8.2757e-08
-7.09745e-06
9.07293e-08
-7.12814e-06
9.83948e-08
-7.16064e-06
1.05658e-07
-7.19485e-06
1.12637e-07
-7.23057e-06
1.18987e-07
-7.26765e-06
1.24818e-07
-7.30589e-06
1.30046e-07
-7.34503e-06
1.34509e-07
-7.38488e-06
1.38421e-07
-7.42515e-06
1.41383e-07
-7.46555e-06
1.43458e-07
-7.50574e-06
1.44893e-07
-7.54544e-06
1.4491e-07
-7.58421e-06
1.4337e-07
-7.62155e-06
1.40522e-07
-7.65718e-06
1.36659e-07
-7.69081e-06
1.32411e-07
-7.72219e-06
1.27536e-07
-7.75114e-06
1.21998e-07
-7.77735e-06
1.15163e-07
-7.80046e-06
1.07508e-07
-7.82018e-06
9.90032e-08
-7.83618e-06
8.94379e-08
-7.84822e-06
7.91442e-08
-7.85599e-06
6.78683e-08
-7.85929e-06
5.59814e-08
-7.858e-06
4.36491e-08
-7.85195e-06
3.07546e-08
-7.84089e-06
1.7047e-08
-7.82486e-06
3.43491e-09
-7.80355e-06
-1.1315e-08
-7.77739e-06
-2.46555e-08
-7.74575e-06
-4.02925e-08
-7.70924e-06
-5.39783e-08
-7.66771e-06
-6.84673e-08
-7.62148e-06
-8.22325e-08
-7.5707e-06
-9.56675e-08
-7.5155e-06
-1.08932e-07
-7.45589e-06
-1.2266e-07
-7.39238e-06
-1.35253e-07
-7.32502e-06
-1.48083e-07
-7.25434e-06
-1.5957e-07
-7.18003e-06
-1.72855e-07
-7.10329e-06
-1.82501e-07
-7.02593e-06
-1.87626e-07
-6.94837e-06
-1.93267e-07
-6.87536e-06
-1.84137e-07
-6.80673e-06
-1.78742e-07
-6.75071e-06
-1.48325e-07
-6.71355e-06
-1.00649e-07
-1.10054e-08
-7.54799e-06
-1.41054e-07
-7.55562e-06
2.47195e-08
-7.58139e-06
6.99044e-08
-7.62591e-06
1.36983e-07
-7.67901e-06
1.58394e-07
-7.73011e-06
1.39526e-07
-7.78107e-06
1.3254e-07
-7.82765e-06
1.08937e-07
-7.8692e-06
8.43443e-08
-7.90564e-06
5.98308e-08
-7.93696e-06
3.65595e-08
-7.96283e-06
1.27119e-08
-7.98374e-06
-7.72091e-09
-8.00027e-06
-2.52031e-08
-8.01244e-06
-4.22156e-08
-8.0212e-06
-5.46492e-08
-8.02619e-06
-6.85305e-08
-8.02845e-06
-7.79483e-08
-8.02816e-06
-8.67546e-08
-8.02596e-06
-9.19416e-08
-8.02215e-06
-9.54268e-08
-8.01704e-06
-9.74222e-08
-8.0109e-06
-9.81915e-08
-8.00407e-06
-9.71501e-08
-7.99687e-06
-9.52003e-08
-7.98963e-06
-9.19801e-08
-7.98258e-06
-8.79546e-08
-7.97604e-06
-8.29298e-08
-7.97023e-06
-7.69331e-08
-7.96536e-06
-7.00806e-08
-7.96164e-06
-6.25514e-08
-7.95929e-06
-5.42907e-08
-7.95848e-06
-4.55609e-08
-7.95937e-06
-3.62478e-08
-7.9621e-06
-2.65537e-08
-7.96681e-06
-1.68035e-08
-7.97363e-06
-6.36894e-09
-7.98266e-06
4.41384e-09
-7.99402e-06
1.53811e-08
-8.00779e-06
2.63307e-08
-8.02403e-06
3.77056e-08
-8.04272e-06
4.90265e-08
-8.0639e-06
6.04926e-08
-8.08757e-06
7.22096e-08
-8.11374e-06
8.35387e-08
-8.14234e-06
9.45505e-08
-8.17337e-06
1.0559e-07
-8.20671e-06
1.16094e-07
-8.24226e-06
1.26286e-07
-8.2799e-06
1.36036e-07
-8.31949e-06
1.45247e-07
-8.36087e-06
1.54015e-07
-8.40381e-06
1.61929e-07
-8.44812e-06
1.69128e-07
-8.49358e-06
1.75508e-07
-8.53987e-06
1.80797e-07
-8.58674e-06
1.85283e-07
-8.63385e-06
1.88501e-07
-8.68088e-06
1.90485e-07
-8.72739e-06
1.91401e-07
-8.77309e-06
1.90611e-07
-8.81757e-06
1.87848e-07
-8.86036e-06
1.83315e-07
-8.90108e-06
1.77383e-07
-8.93922e-06
1.70542e-07
-8.97436e-06
1.62681e-07
-9.00634e-06
1.53976e-07
-9.03476e-06
1.43589e-07
-9.05922e-06
1.31961e-07
-9.07934e-06
1.1913e-07
-9.09474e-06
1.04839e-07
-9.10513e-06
8.95283e-08
-9.11014e-06
7.28842e-08
-9.10956e-06
5.53981e-08
-9.10322e-06
3.7304e-08
-9.09092e-06
1.84612e-08
-9.07241e-06
-1.46851e-09
-9.0477e-06
-2.12691e-08
-9.01648e-06
-4.25346e-08
-8.97922e-06
-6.19217e-08
-8.93524e-06
-8.42711e-08
-8.88521e-06
-1.04003e-07
-8.82903e-06
-1.24651e-07
-8.76706e-06
-1.44199e-07
-8.69953e-06
-1.63197e-07
-8.62664e-06
-1.81825e-07
-8.54844e-06
-2.00864e-07
-8.46556e-06
-2.18127e-07
-8.37815e-06
-2.35491e-07
-8.28687e-06
-2.50852e-07
-8.19148e-06
-2.68245e-07
-8.09343e-06
-2.8055e-07
-7.99493e-06
-2.86131e-07
-7.89672e-06
-2.91481e-07
-7.8043e-06
-2.76554e-07
-7.71792e-06
-2.65123e-07
-7.64707e-06
-2.19172e-07
-7.59897e-06
-1.48754e-07
-2.54845e-08
-8.41649e-06
-1.85059e-07
-8.42357e-06
3.17982e-08
-8.45253e-06
9.8867e-08
-8.50098e-06
1.85435e-07
-8.55964e-06
2.17052e-07
-8.61751e-06
1.97399e-07
-8.67582e-06
1.90845e-07
-8.73002e-06
1.63143e-07
-8.77922e-06
1.33537e-07
-8.82337e-06
1.03988e-07
-8.86252e-06
7.57073e-08
-8.89644e-06
4.66336e-08
-8.92537e-06
2.1204e-08
-8.94971e-06
-8.61255e-10
-8.96943e-06
-2.24977e-08
-8.98548e-06
-3.85986e-08
-8.99752e-06
-5.64908e-08
-9.00665e-06
-6.88171e-08
-9.01315e-06
-8.02528e-08
-9.01764e-06
-8.74503e-08
-9.02035e-06
-9.2721e-08
-9.02153e-06
-9.62355e-08
-9.02147e-06
-9.82512e-08
-9.02054e-06
-9.80887e-08
-9.01904e-06
-9.6696e-08
-9.01734e-06
-9.3681e-08
-9.01568e-06
-8.96107e-08
-9.01447e-06
-8.41484e-08
-9.01388e-06
-7.75196e-08
-9.01418e-06
-6.97816e-08
-9.01559e-06
-6.11395e-08
-9.01836e-06
-5.15193e-08
-9.02267e-06
-4.12509e-08
-9.02872e-06
-3.01963e-08
-9.03668e-06
-1.8599e-08
-9.04669e-06
-6.78679e-09
-9.05892e-06
5.85362e-09
-9.07348e-06
1.89799e-08
-9.0905e-06
3.23993e-08
-9.11009e-06
4.59155e-08
-9.1323e-06
5.99173e-08
-9.15713e-06
7.38642e-08
-9.18463e-06
8.7991e-08
-9.21475e-06
1.02329e-07
-9.24753e-06
1.16315e-07
-9.28289e-06
1.29915e-07
-9.32083e-06
1.43523e-07
-9.3612e-06
1.5647e-07
-9.40391e-06
1.68997e-07
-9.44879e-06
1.80911e-07
-9.49567e-06
1.92131e-07
-9.54438e-06
2.02724e-07
-9.59464e-06
2.1219e-07
-9.64623e-06
2.20713e-07
-9.69889e-06
2.28174e-07
-9.75226e-06
2.34161e-07
-9.80601e-06
2.39032e-07
-9.85979e-06
2.42285e-07
-9.91321e-06
2.43908e-07
-9.96573e-06
2.43917e-07
-1.0017e-05
2.41926e-07
-1.00668e-05
2.37608e-07
-1.01145e-05
2.31031e-07
-1.01597e-05
2.22603e-07
-1.0202e-05
2.12804e-07
-1.02408e-05
2.01491e-07
-1.02757e-05
1.88863e-07
-1.03062e-05
1.74086e-07
-1.03318e-05
1.57566e-07
-1.03521e-05
1.39423e-07
-1.03666e-05
1.19362e-07
-1.0375e-05
9.7946e-08
-1.03769e-05
7.47919e-08
-1.03721e-05
5.05363e-08
-1.03603e-05
2.54807e-08
-1.03413e-05
-5.32829e-10
-1.03148e-05
-2.79272e-08
-1.02809e-05
-5.5167e-08
-1.02392e-05
-8.42106e-08
-1.01903e-05
-1.10879e-07
-1.01334e-05
-1.41192e-07
-1.00692e-05
-1.68174e-07
-9.99769e-06
-1.96147e-07
-9.91931e-06
-2.22582e-07
-9.83433e-06
-2.48177e-07
-9.74301e-06
-2.73139e-07
-9.64549e-06
-2.98383e-07
-9.54254e-06
-3.21075e-07
-9.43439e-06
-3.43648e-07
-9.3218e-06
-3.63444e-07
-9.20466e-06
-3.85379e-07
-9.08467e-06
-4.00541e-07
-8.96441e-06
-4.0639e-07
-8.84497e-06
-4.10917e-07
-8.73253e-06
-3.88997e-07
-8.62781e-06
-3.69847e-07
-8.54134e-06
-3.05639e-07
-8.4814e-06
-2.08693e-07
-4.63927e-08
-9.28782e-06
-2.36597e-07
-9.29302e-06
3.7e-08
-9.32395e-06
1.29792e-07
-9.37536e-06
2.36852e-07
-9.43862e-06
2.80312e-07
-9.50256e-06
2.61337e-07
-9.56788e-06
2.56166e-07
-9.62982e-06
2.25079e-07
-9.68698e-06
1.90702e-07
-9.73927e-06
1.56272e-07
-9.78668e-06
1.23125e-07
-9.82911e-06
8.90627e-08
-9.86657e-06
5.86564e-08
-9.8993e-06
3.1873e-08
-9.92724e-06
5.44149e-09
-9.95134e-06
-1.44979e-08
-9.97124e-06
-3.65866e-08
-9.98806e-06
-5.20045e-08
-1.0002e-05
-6.62817e-08
-1.00138e-05
-7.57148e-08
-1.00235e-05
-8.2952e-08
-1.00316e-05
-8.81539e-08
-1.00383e-05
-9.15849e-08
-1.00439e-05
-9.24567e-08
-1.00488e-05
-9.17654e-08
-1.00534e-05
-8.90858e-08
-1.0058e-05
-8.50852e-08
-1.00628e-05
-7.92724e-08
-1.00683e-05
-7.20868e-08
-1.00745e-05
-6.35178e-08
-1.00819e-05
-5.37989e-08
-1.00906e-05
-4.28319e-08
-1.01008e-05
-3.102e-08
-1.01128e-05
-1.81952e-08
-1.01267e-05
-4.65144e-09
-1.01428e-05
9.28757e-09
-1.01612e-05
2.4224e-08
-1.0182e-05
3.97969e-08
-1.02054e-05
5.57902e-08
-1.02315e-05
7.19949e-08
-1.02603e-05
8.87599e-08
-1.02919e-05
1.05468e-07
-1.03263e-05
1.22388e-07
-1.03635e-05
1.39476e-07
-1.04034e-05
1.56253e-07
-1.04461e-05
1.72563e-07
-1.04914e-05
1.88842e-07
-1.05392e-05
2.04328e-07
-1.05895e-05
2.19274e-07
-1.0642e-05
2.33393e-07
-1.06965e-05
2.46645e-07
-1.07528e-05
2.59068e-07
-1.08107e-05
2.70037e-07
-1.08698e-05
2.79792e-07
-1.09298e-05
2.88225e-07
-1.09904e-05
2.9475e-07
-1.10511e-05
2.99764e-07
-1.11116e-05
3.02788e-07
-1.11715e-05
3.03766e-07
-1.123e-05
3.0246e-07
-1.12869e-05
2.98813e-07
-1.13419e-05
2.92534e-07
-1.13944e-05
2.83572e-07
-1.1444e-05
2.72239e-07
-1.14903e-05
2.59068e-07
-1.15326e-05
2.43782e-07
-1.15702e-05
2.26423e-07
-1.16024e-05
2.06353e-07
-1.16288e-05
1.83967e-07
-1.16489e-05
1.5948e-07
-1.16621e-05
1.32561e-07
-1.1668e-05
1.03907e-07
-1.16663e-05
7.30613e-08
-1.16566e-05
4.08219e-08
-1.16387e-05
7.56666e-09
-1.16123e-05
-2.68704e-08
-1.15773e-05
-6.30117e-08
-1.15334e-05
-9.89747e-08
-1.14806e-05
-1.37084e-07
-1.14191e-05
-1.72312e-07
-1.13485e-05
-2.11851e-07
-1.12693e-05
-2.47324e-07
-1.11817e-05
-2.83805e-07
-1.1086e-05
-3.18259e-07
-1.09827e-05
-3.51504e-07
-1.0872e-05
-3.83776e-07
-1.07543e-05
-4.16105e-07
-1.06304e-05
-4.44989e-07
-1.05006e-05
-4.73414e-07
-1.03659e-05
-4.98167e-07
-1.02263e-05
-5.25011e-07
-1.00836e-05
-5.43177e-07
-9.94095e-06
-5.49079e-07
-9.7997e-06
-5.52167e-07
-9.66658e-06
-5.22113e-07
-9.54294e-06
-4.93491e-07
-9.44013e-06
-4.08449e-07
-9.36757e-06
-2.81254e-07
-7.46029e-08
-1.01672e-05
-2.95265e-07
-1.01706e-05
4.04538e-08
-1.02039e-05
1.63037e-07
-1.02575e-05
2.90488e-07
-1.03249e-05
3.47757e-07
-1.0395e-05
3.31408e-07
-1.04674e-05
3.28532e-07
-1.05372e-05
2.94941e-07
-1.06027e-05
2.56122e-07
-1.06634e-05
2.17067e-07
-1.07195e-05
1.79129e-07
-1.07705e-05
1.40089e-07
-1.08165e-05
1.04644e-07
-1.08577e-05
7.31108e-08
-1.08941e-05
4.18132e-08
-1.09265e-05
1.79381e-08
-1.09546e-05
-8.4482e-09
-1.09796e-05
-2.71013e-08
-1.10015e-05
-4.437e-08
-1.1021e-05
-5.6208e-08
-1.10384e-05
-6.55455e-08
-1.1054e-05
-7.2561e-08
-1.1068e-05
-7.75319e-08
-1.10809e-05
-7.95413e-08
-1.1093e-05
-7.96716e-08
-1.11047e-05
-7.74404e-08
-1.11162e-05
-7.36005e-08
-1.11279e-05
-6.75359e-08
-1.11401e-05
-5.98602e-08
-1.11531e-05
-5.05084e-08
-1.11672e-05
-3.97475e-08
-1.11826e-05
-2.74489e-08
-1.11995e-05
-1.40927e-08
-1.12182e-05
5.17327e-10
-1.12389e-05
1.60463e-08
-1.12618e-05
3.21732e-08
-1.1287e-05
4.94796e-08
-1.13148e-05
6.75869e-08
-1.13453e-05
8.62469e-08
-1.13785e-05
1.05222e-07
-1.14146e-05
1.2485e-07
-1.14536e-05
1.44441e-07
-1.14955e-05
1.6426e-07
-1.15402e-05
1.84213e-07
-1.15878e-05
2.03884e-07
-1.16383e-05
2.22995e-07
-1.16914e-05
2.4201e-07
-1.17472e-05
2.60103e-07
-1.18054e-05
2.77517e-07
-1.18659e-05
2.93835e-07
-1.19283e-05
3.091e-07
-1.19926e-05
3.2333e-07
-1.20583e-05
3.35709e-07
-1.2125e-05
3.46553e-07
-1.21926e-05
3.55815e-07
-1.22606e-05
3.62687e-07
-1.23283e-05
3.67551e-07
-1.23956e-05
3.70025e-07
-1.24619e-05
3.70092e-07
-1.25268e-05
3.67322e-07
-1.25897e-05
3.61747e-07
-1.26503e-05
3.53078e-07
-1.27081e-05
3.41379e-07
-1.27625e-05
3.26652e-07
-1.28128e-05
3.09358e-07
-1.28582e-05
2.89223e-07
-1.2898e-05
2.66234e-07
-1.29316e-05
2.39907e-07
-1.29582e-05
2.1063e-07
-1.29775e-05
1.78718e-07
-1.29887e-05
1.43801e-07
-1.29915e-05
1.06721e-07
-1.29854e-05
6.69666e-08
-1.29701e-05
2.54831e-08
-1.29453e-05
-1.72492e-08
-1.29107e-05
-6.14079e-08
-1.28661e-05
-1.0761e-07
-1.28115e-05
-1.53621e-07
-1.27465e-05
-2.02103e-07
-1.26716e-05
-2.47204e-07
-1.25862e-05
-2.97237e-07
-1.24911e-05
-3.42469e-07
-1.23862e-05
-3.88651e-07
-1.22722e-05
-4.32266e-07
-1.21495e-05
-4.74217e-07
-1.20185e-05
-5.1477e-07
-1.18796e-05
-5.55029e-07
-1.17337e-05
-5.90864e-07
-1.15814e-05
-6.25738e-07
-1.14236e-05
-6.55922e-07
-1.12607e-05
-6.87969e-07
-1.10946e-05
-7.09196e-07
-1.09288e-05
-7.14884e-07
-1.07652e-05
-7.15844e-07
-1.06107e-05
-6.7654e-07
-1.04676e-05
-6.36619e-07
-1.03478e-05
-5.28261e-07
-1.02619e-05
-3.67108e-07
-1.10719e-07
-1.10589e-05
-3.60153e-07
-1.10602e-05
4.17339e-08
-1.10957e-05
1.98594e-07
-1.11524e-05
3.47113e-07
-1.12246e-05
4.19968e-07
-1.13013e-05
4.08104e-07
-1.1381e-05
4.08232e-07
-1.14587e-05
3.7264e-07
-1.15323e-05
3.29716e-07
-1.16015e-05
2.86338e-07
-1.16662e-05
2.4375e-07
-1.17259e-05
1.99869e-07
-1.17807e-05
1.59418e-07
-1.18308e-05
1.23152e-07
-1.18759e-05
8.69956e-08
-1.19171e-05
5.91283e-08
-1.1954e-05
2.84115e-08
-1.19875e-05
6.41616e-09
-1.20179e-05
-1.39468e-08
-1.20458e-05
-2.83123e-08
-1.20715e-05
-3.98474e-08
-1.20953e-05
-4.87728e-08
-1.21175e-05
-5.53813e-08
-1.21384e-05
-5.86317e-08
-1.21584e-05
-5.96817e-08
-1.21778e-05
-5.79911e-08
-1.2197e-05
-5.44001e-08
-1.22164e-05
-4.81521e-08
-1.22362e-05
-4.00447e-08
-1.22567e-05
-2.99654e-08
-1.22783e-05
-1.81997e-08
-1.23012e-05
-4.5896e-09
-1.23256e-05
1.03065e-08
-1.23517e-05
2.67096e-08
-1.238e-05
4.42555e-08
-1.24104e-05
6.26195e-08
-1.24433e-05
8.2349e-08
-1.24787e-05
1.03057e-07
-1.2517e-05
1.24459e-07
-1.2558e-05
1.46276e-07
-1.2602e-05
1.68847e-07
-1.2649e-05
1.9141e-07
-1.26989e-05
2.14206e-07
-1.27518e-05
2.37084e-07
-1.28076e-05
2.59722e-07
-1.28663e-05
2.81703e-07
-1.29278e-05
3.0347e-07
-1.29919e-05
3.24195e-07
-1.30585e-05
3.44105e-07
-1.31272e-05
3.62574e-07
-1.31979e-05
3.79774e-07
-1.32703e-05
3.95763e-07
-1.3344e-05
4.09422e-07
-1.34186e-05
4.21152e-07
-1.34939e-05
4.31053e-07
-1.35694e-05
4.38169e-07
-1.36446e-05
4.42828e-07
-1.37192e-05
4.44578e-07
-1.37926e-05
4.43462e-07
-1.38643e-05
4.39063e-07
-1.39338e-05
4.31258e-07
-1.40004e-05
4.19658e-07
-1.40635e-05
4.04519e-07
-1.41225e-05
3.85585e-07
-1.41763e-05
3.63249e-07
-1.42244e-05
3.37285e-07
-1.42659e-05
3.0769e-07
-1.43e-05
2.74088e-07
-1.43263e-05
2.36837e-07
-1.43439e-05
1.96354e-07
-1.43523e-05
1.52249e-07
-1.43511e-05
1.05514e-07
-1.43397e-05
5.55695e-08
-1.43178e-05
3.54943e-09
-1.42851e-05
-4.99848e-08
-1.42413e-05
-1.05206e-07
-1.41861e-05
-1.62815e-07
-1.41195e-05
-2.2023e-07
-1.40411e-05
-2.80413e-07
-1.39516e-05
-3.36729e-07
-1.38503e-05
-3.98522e-07
-1.3738e-05
-4.5479e-07
-1.36148e-05
-5.11865e-07
-1.34813e-05
-5.65784e-07
-1.3338e-05
-6.17483e-07
-1.31855e-05
-6.67267e-07
-1.30243e-05
-7.16256e-07
-1.28554e-05
-7.59731e-07
-1.26796e-05
-8.01591e-07
-1.24979e-05
-8.37614e-07
-1.23108e-05
-8.75049e-07
-1.21206e-05
-8.99342e-07
-1.1931e-05
-9.04486e-07
-1.17444e-05
-9.02494e-07
-1.15681e-05
-8.52841e-07
-1.1405e-05
-7.99677e-07
-1.12677e-05
-6.65575e-07
-1.11681e-05
-4.66725e-07
-1.55033e-07
-1.19684e-05
-4.29049e-07
-1.19685e-05
4.1834e-08
-1.20072e-05
2.3733e-07
-1.20666e-05
4.06509e-07
-1.21431e-05
4.96431e-07
-1.2226e-05
4.91035e-07
-1.23127e-05
4.94933e-07
-1.23982e-05
4.58127e-07
-1.24801e-05
4.11551e-07
-1.2558e-05
3.64252e-07
-1.26314e-05
3.17227e-07
-1.27003e-05
2.68713e-07
-1.27642e-05
2.23362e-07
-1.28235e-05
1.82447e-07
-1.2878e-05
1.41495e-07
-1.29285e-05
1.09632e-07
-1.29747e-05
7.46032e-08
-1.30175e-05
4.91941e-08
-1.30571e-05
2.56751e-08
-1.30941e-05
8.67852e-09
-1.31288e-05
-5.1239e-09
-1.31616e-05
-1.60404e-08
-1.31926e-05
-2.43596e-08
-1.32223e-05
-2.89257e-08
-1.3251e-05
-3.09834e-08
-1.32791e-05
-2.99229e-08
-1.33068e-05
-2.66516e-08
-1.33347e-05
-2.03056e-08
-1.33629e-05
-1.18271e-08
-1.33918e-05
-1.07487e-09
-1.34216e-05
1.16522e-08
-1.34528e-05
2.65458e-08
-1.34854e-05
4.29634e-08
-1.35199e-05
6.11611e-08
-1.35563e-05
8.07437e-08
-1.35951e-05
1.01381e-07
-1.36363e-05
1.23565e-07
-1.36802e-05
1.46912e-07
-1.37268e-05
1.71107e-07
-1.37764e-05
1.95804e-07
-1.38289e-05
2.21359e-07
-1.38844e-05
2.46957e-07
-1.3943e-05
2.72779e-07
-1.40045e-05
2.98612e-07
-1.40691e-05
3.24258e-07
-1.41365e-05
3.49157e-07
-1.42067e-05
3.73638e-07
-1.42795e-05
3.96972e-07
-1.43547e-05
4.19388e-07
-1.44321e-05
4.39915e-07
-1.45112e-05
4.58913e-07
-1.4592e-05
4.76574e-07
-1.46742e-05
4.91555e-07
-1.47572e-05
5.04217e-07
-1.48408e-05
5.14658e-07
-1.49246e-05
5.21913e-07
-1.50081e-05
5.26321e-07
-1.50906e-05
5.27143e-07
-1.51716e-05
5.2445e-07
-1.52505e-05
5.17905e-07
-1.53264e-05
5.07228e-07
-1.53988e-05
4.91991e-07
-1.54668e-05
4.72532e-07
-1.55296e-05
4.48417e-07
-1.55864e-05
4.20051e-07
-1.56364e-05
3.87233e-07
-1.56787e-05
3.50003e-07
-1.57126e-05
3.08045e-07
-1.57375e-05
2.61675e-07
-1.57525e-05
2.11421e-07
-1.57572e-05
1.56881e-07
-1.57509e-05
9.92012e-08
-1.5733e-05
3.77565e-08
-1.57033e-05
-2.61457e-08
-1.56615e-05
-9.18516e-08
-1.56072e-05
-1.59509e-07
-1.55401e-05
-2.29898e-07