/*--------------------------------*- C++ -*----------------------------------*\
  =========                 |
  \\      /  F ield         | OpenFOAM: The Open Source CFD Toolbox
   \\    /   O peration     | Website:  https://openfoam.org
    \\  /    A nd           | Version:  7
     \\/     M anipulation  |
\*---------------------------------------------------------------------------*/
FoamFile
{
    version     2.0;
    format      ascii;
    class       volVectorField;
    location    "25000";
    object      U;
}
// * * * * * * * * * * * * * * * * * * * * * * * * * * * * * * * * * * * * * //

dimensions      [0 1 -1 0 0 0 0];

internalField   nonuniform List<vector> 
14751
(
(0.00318159 3.47206e-07 0)
(0.00316582 4.73905e-08 0)
(0.00315776 3.29247e-07 1.4205e-27)
(0.00313744 2.90025e-07 -1.42318e-27)
(0.00312017 4.02927e-07 5.45207e-27)
(0.00309592 4.52711e-07 -1.03541e-25)
(0.00307042 5.08181e-07 0)
(0.00304189 5.57653e-07 2.39971e-27)
(0.00301117 6.00256e-07 3.42853e-28)
(0.0029785 6.32603e-07 3.4262e-27)
(0.00294438 6.56643e-07 6.59103e-28)
(0.00290906 6.7236e-07 -4.66321e-25)
(0.0028729 6.79879e-07 0)
(0.00283659 6.77111e-07 1.74138e-26)
(0.0028003 6.711e-07 5.58476e-25)
(0.00276442 6.53051e-07 3.05259e-25)
(0.00272917 6.36648e-07 -2.05539e-26)
(0.0026946 6.09948e-07 2.05634e-26)
(0.00266101 5.834e-07 3.50057e-25)
(0.00262855 5.5041e-07 3.62427e-25)
(0.00259755 5.17178e-07 0)
(0.00256796 4.82917e-07 4.07586e-25)
(0.00253991 4.48954e-07 -2.42278e-26)
(0.0025135 4.1494e-07 2.51472e-26)
(0.00248883 3.82478e-07 -2.5141e-26)
(0.00246576 3.50376e-07 -8.20516e-25)
(0.00244431 3.21189e-07 0)
(0.00242445 2.91361e-07 -2.08353e-25)
(0.00240616 2.6347e-07 0)
(0.00238951 2.35791e-07 0)
(0.00237446 2.09319e-07 0)
(0.00236098 1.83534e-07 0)
(0.00234905 1.59126e-07 0)
(0.00233862 1.35506e-07 -1.28206e-26)
(0.00232969 1.13058e-07 1.28099e-26)
(0.00232215 9.12183e-08 -4.16094e-25)
(0.00231595 7.0606e-08 4.10753e-25)
(0.00231114 5.02189e-08 3.92218e-25)
(0.00230767 3.11687e-08 0)
(0.00230545 1.19929e-08 0)
(0.0023044 -6.62481e-09 -2.86216e-27)
(0.00230464 -2.37578e-08 2.85946e-27)
(0.00230612 -4.23629e-08 2.72248e-27)
(0.00230887 -5.9275e-08 -2.72002e-27)
(0.00231288 -7.67843e-08 -1.28406e-27)
(0.00231799 -9.26011e-08 1.28296e-27)
(0.00232423 -1.08778e-07 6.0019e-28)
(0.00233156 -1.23904e-07 1.50219e-25)
(0.00233994 -1.38662e-07 0)
(0.00234934 -1.53302e-07 -1.33072e-28)
(0.00235976 -1.67479e-07 1.32973e-28)
(0.00237116 -1.80762e-07 2.42109e-28)
(0.00238352 -1.9408e-07 -2.41944e-28)
(0.0023968 -2.06785e-07 -4.34412e-28)
(0.00241097 -2.18785e-07 -1.08332e-25)
(0.00242597 -2.29961e-07 1.58411e-27)
(0.00244179 -2.41248e-07 -7.66166e-28)
(0.0024584 -2.51392e-07 0)
(0.00247572 -2.6112e-07 0)
(0.00249378 -2.69218e-07 0)
(0.00251255 -2.77485e-07 2.72274e-25)
(0.00253184 -2.81118e-07 4.89224e-25)
(0.00255158 -2.85929e-07 1.81327e-27)
(0.00257162 -2.90278e-07 1.40005e-27)
(0.00259197 -2.93198e-07 9.92242e-28)
(0.00261271 -2.97021e-07 -7.44277e-26)
(0.00263385 -3.00072e-07 5.92304e-26)
(0.00265529 -3.02806e-07 0)
(0.00267697 -3.04009e-07 -8.21155e-28)
(0.00269891 -3.05399e-07 8.20881e-28)
(0.00272107 -3.05778e-07 0)
(0.0027434 -3.06138e-07 0)
(0.00276587 -3.05406e-07 0)
(0.00278841 -3.04506e-07 0)
(0.00281101 -3.03361e-07 4.32683e-27)
(0.00283364 -3.02409e-07 -3.05471e-27)
(0.00285622 -2.9991e-07 -7.23121e-27)
(0.00287877 -2.99833e-07 7.73373e-27)
(0.00290118 -2.95678e-07 -8.26571e-27)
(0.00292348 -2.98016e-07 -4.60391e-27)
(0.00294561 -2.93512e-07 1.04936e-26)
(0.00296746 -2.96014e-07 0)
(0.00298909 -2.94296e-07 0)
(0.00301028 -2.95754e-07 -6.31133e-27)
(0.00303106 -2.95292e-07 6.31111e-27)
(0.00305131 -2.95508e-07 0)
(0.00307091 -2.91586e-07 0)
(0.0030897 -2.89194e-07 0)
(0.0031075 -2.79403e-07 0)
(0.00312419 -2.73948e-07 -2.08722e-25)
(0.0031396 -2.58172e-07 1.59112e-27)
(0.00315335 -2.3849e-07 0)
(0.00316578 -2.24733e-07 1.32553e-27)
(0.00317582 -1.79953e-07 6.39776e-27)
(0.00318382 -1.66212e-07 -3.12474e-27)
(0.00318889 -9.5098e-08 1.03223e-27)
(0.00319193 -8.37794e-08 2.44898e-26)
(0.00318699 1.11859e-07 -3.1905e-28)
(0.00318881 -1.79956e-07 -2.07641e-26)
(0.00654556 1.24103e-06 -1.28364e-28)
(0.00652245 5.89653e-07 0)
(0.00651271 1.34958e-06 1.86963e-24)
(0.00648202 1.44995e-06 7.71559e-26)
(0.00645668 1.81543e-06 -8.02815e-24)
(0.00641793 2.11155e-06 -1.2135e-25)
(0.00637596 2.34246e-06 -9.33138e-26)
(0.00632736 2.57309e-06 0)
(0.00627361 2.76953e-06 1.93145e-23)
(0.00621514 2.93111e-06 -1.21114e-24)
(0.00615288 3.05789e-06 0)
(0.00608746 3.14676e-06 3.96499e-25)
(0.00601963 3.20076e-06 0)
(0.00595058 3.21722e-06 0)
(0.0058807 3.2145e-06 -2.82985e-23)
(0.00581081 3.17369e-06 -4.37749e-24)
(0.00574138 3.13158e-06 3.56596e-23)
(0.00567263 3.05785e-06 9.52002e-24)
(0.00560524 2.97583e-06 -9.82709e-24)
(0.00553949 2.86896e-06 -3.14203e-25)
(0.00547611 2.74964e-06 -5.24722e-24)
(0.00541511 2.62135e-06 4.91261e-24)
(0.00535678 2.48598e-06 0)
(0.00530133 2.34558e-06 0)
(0.00524897 2.20271e-06 0)
(0.00519958 2.05638e-06 7.08336e-25)
(0.00515328 1.91455e-06 -3.99612e-23)
(0.00511005 1.76824e-06 -5.14778e-23)
(0.0050699 1.62581e-06 0)
(0.00503291 1.48279e-06 2.01527e-23)
(0.00499906 1.34213e-06 2.58539e-23)
(0.00496832 1.20287e-06 -2.28783e-23)
(0.00494065 1.06741e-06 0)
(0.00491601 9.34038e-07 2.80452e-24)
(0.00489437 8.04142e-07 -2.78601e-23)
(0.00487561 6.7667e-07 4.47677e-24)
(0.00485965 5.53334e-07 -1.70302e-24)
(0.00484654 4.31274e-07 -1.10003e-23)
(0.0048362 3.13919e-07 0)
(0.00482851 1.97254e-07 0)
(0.00482339 8.34508e-08 1.24088e-24)
(0.00482093 -2.58984e-08 -1.23828e-24)
(0.00482105 -1.37435e-07 4.18328e-24)
(0.00482377 -2.43926e-07 5.8764e-25)
(0.00482907 -3.50355e-07 0)
(0.00483675 -4.512e-07 0)
(0.00484682 -5.52248e-07 0)
(0.00485922 -6.48883e-07 -1.14109e-24)
(0.00487387 -7.43115e-07 0)
(0.00489073 -8.36061e-07 0)
(0.00490975 -9.26139e-07 -1.09189e-25)
(0.00493086 -1.01225e-06 1.09041e-25)
(0.00495403 -1.09729e-06 0)
(0.00497917 -1.1792e-06 -1.53293e-24)
(0.0050062 -1.25723e-06 2.98167e-24)
(0.00503502 -1.33165e-06 3.28388e-25)
(0.0050656 -1.40476e-06 -2.55939e-24)
(0.00509784 -1.47223e-06 -3.05826e-25)
(0.00513159 -1.53598e-06 3.83641e-24)
(0.00516684 -1.59335e-06 5.22096e-25)
(0.00520348 -1.64619e-06 -6.60128e-25)
(0.00524117 -1.68326e-06 2.23066e-26)
(0.00527979 -1.72064e-06 0)
(0.00531917 -1.75665e-06 -5.98737e-25)
(0.0053593 -1.78932e-06 5.98454e-25)
(0.00540027 -1.82407e-06 5.84753e-26)
(0.00544205 -1.85517e-06 -4.77835e-26)
(0.00548448 -1.88288e-06 0)
(0.00552742 -1.90468e-06 0)
(0.00557089 -1.9248e-06 -1.08611e-24)
(0.00561474 -1.94009e-06 0)
(0.00565892 -1.953e-06 -1.11508e-25)
(0.00570333 -1.96077e-06 1.11475e-25)
(0.00574785 -1.96591e-06 0)
(0.00579245 -1.96854e-06 -3.61206e-27)
(0.00583708 -1.96869e-06 0)
(0.00588158 -1.96307e-06 5.57358e-27)
(0.005926 -1.95984e-06 0)
(0.00597012 -1.94486e-06 7.4761e-24)
(0.00601403 -1.94127e-06 0)
(0.00605759 -1.91666e-06 -8.76007e-27)
(0.0061006 -1.904e-06 -9.5973e-24)
(0.0061432 -1.87599e-06 1.01432e-23)
(0.006185 -1.84941e-06 -1.06014e-23)
(0.00622606 -1.8132e-06 0)
(0.00626614 -1.77134e-06 0)
(0.006305 -1.71394e-06 0)
(0.00634238 -1.65319e-06 -1.13961e-23)
(0.00637792 -1.56864e-06 -1.12972e-23)
(0.00641141 -1.48613e-06 1.7305e-25)
(0.0064424 -1.36652e-06 3.2604e-25)
(0.00647019 -1.2332e-06 -3.26237e-25)
(0.0064953 -1.10281e-06 3.54517e-26)
(0.00651596 -8.91982e-07 -4.39357e-26)
(0.00653281 -7.3886e-07 -7.88611e-24)
(0.00654448 -4.3999e-07 2.21157e-25)
(0.00655181 -2.16081e-07 -5.20323e-24)
(0.00654784 2.5728e-07 0)
(0.00655549 -2.9166e-07 1.74493e-26)
(0.0088823 2.25164e-06 4.90697e-28)
(0.00885482 1.37695e-06 -3.22169e-26)
(0.00884315 2.70058e-06 -1.5482e-24)
(0.00880805 3.13577e-06 -9.19361e-24)
(0.00877897 3.87793e-06 7.05434e-24)
(0.00873343 4.61584e-06 -4.4859e-25)
(0.0086829 5.18579e-06 0)
(0.00862346 5.77044e-06 0)
(0.00855674 6.2816e-06 4.27556e-23)
(0.00848331 6.71948e-06 -1.82577e-24)
(0.00840433 7.0793e-06 -6.47957e-23)
(0.00832068 7.34854e-06 -7.60352e-23)
(0.00823339 7.53941e-06 4.08506e-25)
(0.00814393 7.64849e-06 -9.52707e-23)
(0.00805289 7.70257e-06 1.26254e-22)
(0.00796134 7.67588e-06 -6.18742e-24)
(0.00786994 7.6271e-06 6.6694e-23)
(0.00777907 7.51048e-06 1.37127e-23)
(0.00768961 7.36087e-06 0)
(0.00760194 7.15425e-06 1.12984e-22)
(0.00751706 6.90668e-06 -1.16548e-22)
(0.00743508 6.63336e-06 0)
(0.00735642 6.33652e-06 0)
(0.00728136 6.0247e-06 0)
(0.00721016 5.69837e-06 -6.69608e-23)
(0.00714282 5.3589e-06 0)
(0.00707949 5.02219e-06 -4.2608e-23)
(0.00702019 4.67255e-06 4.27539e-23)
(0.00696498 4.32782e-06 -6.85666e-23)
(0.00691395 3.97983e-06 -1.71346e-23)
(0.00686707 3.63398e-06 -2.13499e-23)
(0.00682435 3.28929e-06 2.12502e-23)
(0.00678576 2.95063e-06 7.16867e-23)
(0.00675123 2.61492e-06 -8.35391e-24)
(0.00672077 2.28528e-06 2.06793e-23)
(0.00669424 1.95937e-06 4.05296e-24)
(0.00667156 1.64205e-06 -2.04787e-24)
(0.00665279 1.32753e-06 5.91092e-24)
(0.00663782 1.02248e-06 0)
(0.00662654 7.18246e-07 -1.51905e-23)
(0.00661887 4.21621e-07 -1.83661e-24)
(0.00661486 1.3417e-07 1.8325e-24)
(0.00661441 -1.55699e-07 -3.53095e-24)
(0.00661755 -4.34922e-07 0)
(0.00662423 -7.13159e-07 6.66184e-24)
(0.00663423 -9.80464e-07 -3.96644e-25)
(0.00664758 -1.24697e-06 3.96004e-25)
(0.00666419 -1.50344e-06 5.6666e-25)
(0.00668393 -1.75373e-06 -1.2603e-24)
(0.00670678 -2.00024e-06 -8.56586e-26)
(0.00673264 -2.23913e-06 1.36739e-24)
(0.00676143 -2.46818e-06 0)
(0.00679307 -2.69388e-06 -2.92456e-25)
(0.00682744 -2.91156e-06 1.98293e-24)
(0.00686446 -3.11919e-06 -2.69974e-24)
(0.00690396 -3.31806e-06 -8.56007e-24)
(0.00694588 -3.5116e-06 1.46395e-24)
(0.00699009 -3.69097e-06 9.10402e-25)
(0.00703637 -3.85962e-06 -4.02352e-24)
(0.00708465 -4.0119e-06 6.63667e-26)
(0.00713478 -4.15022e-06 -1.07964e-23)
(0.0071863 -4.25483e-06 9.86822e-24)
(0.00723905 -4.35672e-06 1.60593e-24)
(0.00729281 -4.4573e-06 6.66439e-24)
(0.00734759 -4.55054e-06 6.64662e-24)
(0.00740343 -4.64613e-06 6.25008e-24)
(0.00746029 -4.73209e-06 -1.14807e-24)
(0.00751795 -4.80896e-06 5.10842e-25)
(0.00757623 -4.87147e-06 -5.20493e-24)
(0.00763509 -4.92751e-06 5.24329e-25)
(0.00769435 -4.97174e-06 3.49719e-25)
(0.00775389 -5.00827e-06 -5.89184e-26)
(0.00781357 -5.03266e-06 -3.82987e-25)
(0.00787325 -5.04954e-06 9.74752e-25)
(0.00793285 -5.05948e-06 -5.91818e-25)
(0.00799228 -5.06155e-06 0)
(0.00805136 -5.05163e-06 8.57421e-24)
(0.00811009 -5.04135e-06 -1.99251e-23)
(0.00816824 -5.01035e-06 1.68664e-23)
(0.00822586 -4.99252e-06 2.48829e-23)
(0.00828276 -4.93768e-06 -3.50058e-24)
(0.00833871 -4.89669e-06 1.07462e-23)
(0.00839385 -4.82661e-06 -7.65897e-24)
(0.0084477 -4.75234e-06 4.0001e-23)
(0.00850031 -4.65601e-06 3.51812e-23)
(0.00855136 -4.54037e-06 -3.59648e-23)
(0.0086005 -4.39094e-06 0)
(0.0086474 -4.22481e-06 6.46588e-24)
(0.00869163 -4.00948e-06 1.0673e-23)
(0.00873285 -3.78202e-06 -3.23803e-23)
(0.00877044 -3.47768e-06 -3.32923e-23)
(0.00880355 -3.13721e-06 2.3176e-25)
(0.0088327 -2.78304e-06 -2.88767e-23)
(0.00885602 -2.29326e-06 0)
(0.00887423 -1.86908e-06 6.10976e-24)
(0.00888604 -1.21108e-06 -3.32854e-25)
(0.00889209 -6.23835e-07 3.84959e-24)
(0.00888738 1.55344e-07 5.13809e-26)
(0.00889539 -4.35782e-07 2.62547e-26)
(0.0106924 3.41949e-06 -3.07666e-28)
(0.0106599 2.58147e-06 0)
(0.010644 4.55505e-06 9.56414e-24)
(0.0106045 5.55427e-06 7.60717e-24)
(0.0105708 6.80863e-06 8.92913e-26)
(0.0105192 8.15161e-06 -5.28812e-23)
(0.010461 9.2157e-06 0)
(0.0103923 1.02971e-05 0)
(0.0103149 1.12542e-05 -1.33202e-22)
(0.0102293 1.20869e-05 -3.33062e-24)
(0.010137 1.2786e-05 -4.9214e-23)
(0.0100388 1.33235e-05 6.23603e-23)
(0.00993619 1.37199e-05 -1.38971e-22)
(0.00983075 1.39724e-05 7.27075e-23)
(0.00972327 1.4117e-05 -7.76317e-23)
(0.00961499 1.41258e-05 1.64357e-22)
(0.00950674 1.40744e-05 -8.64675e-23)
(0.00939902 1.39105e-05 1.92134e-22)
(0.00929281 1.3677e-05 -1.15028e-23)
(0.0091885 1.33426e-05 -1.09301e-22)
(0.00908732 1.29229e-05 1.24669e-22)
(0.00898949 1.24513e-05 -1.26023e-23)
(0.00889554 1.19315e-05 1.31427e-23)
(0.00880576 1.13802e-05 -1.31077e-23)
(0.00872048 1.07964e-05 4.01198e-23)
(0.00863977 1.01861e-05 1.34426e-23)
(0.00856383 9.57188e-06 6.1302e-23)
(0.00849269 8.93387e-06 -1.09295e-22)
(0.00842646 8.29915e-06 5.47783e-23)
(0.00836521 7.65708e-06 1.02542e-22)
(0.00830895 7.01558e-06 -1.1582e-22)
(0.00825768 6.37432e-06 6.78524e-24)
(0.00821138 5.74088e-06 -5.3819e-23)
(0.00816999 5.11103e-06 0)
(0.00813353 4.49005e-06 -5.27024e-23)
(0.00810185 3.87454e-06 -3.23106e-24)
(0.00807489 3.27254e-06 4.26397e-26)
(0.00805267 2.67562e-06 -4.40924e-23)
(0.00803511 2.09401e-06 -5.25805e-23)
(0.00802209 1.51415e-06 3.63541e-23)
(0.00801352 9.47533e-07 1.46553e-24)
(0.00800945 3.95617e-07 -1.46274e-24)
(0.00800974 -1.57106e-07 0)
(0.00801441 -6.92693e-07 0)
(0.00802341 -1.22469e-06 -5.32526e-24)
(0.00803651 -1.73934e-06 0)
(0.00805373 -2.25086e-06 9.97644e-24)
(0.00807496 -2.7449e-06 0)
(0.00810006 -3.22703e-06 1.15748e-24)
(0.00812899 -3.70128e-06 3.47193e-26)
(0.00816162 -4.16101e-06 -1.3234e-24)
(0.00819784 -4.60257e-06 7.55093e-25)
(0.00823755 -5.03658e-06 -4.95283e-25)
(0.00828062 -5.45534e-06 0)
(0.00832691 -5.85499e-06 -8.39015e-25)
(0.00837624 -6.23802e-06 8.13345e-24)
(0.00842849 -6.60877e-06 -7.8774e-25)
(0.00848352 -6.95338e-06 0)
(0.00854104 -7.27639e-06 -9.24496e-24)
(0.00860095 -7.56922e-06 -9.76246e-24)
(0.00866303 -7.83409e-06 7.64385e-24)
(0.00872682 -8.0412e-06 -7.00634e-24)
(0.00879202 -8.23535e-06 1.40976e-23)
(0.00885833 -8.4276e-06 -7.08232e-24)
(0.00892581 -8.60856e-06 -5.40419e-24)
(0.0089944 -8.79118e-06 -3.52903e-24)
(0.00906409 -8.95684e-06 -1.04011e-24)
(0.00913465 -9.1046e-06 6.31665e-25)
(0.00920584 -9.22628e-06 -5.34469e-24)
(0.00927757 -9.33344e-06 5.8164e-24)
(0.00934961 -9.41876e-06 4.99852e-26)
(0.0094218 -9.48787e-06 -5.00429e-26)
(0.00949397 -9.53507e-06 -6.23327e-25)
(0.00956592 -9.56729e-06 6.23992e-25)
(0.00963756 -9.58553e-06 -1.29356e-24)
(0.00970876 -9.5877e-06 1.2948e-24)
(0.0097793 -9.56956e-06 -2.29851e-23)
(0.00984913 -9.54488e-06 3.24296e-23)
(0.00991801 -9.48949e-06 -5.32383e-23)
(0.00998593 -9.44356e-06 -2.04639e-23)
(0.0100527 -9.34449e-06 -4.44108e-23)
(0.010118 -9.25491e-06 -4.75951e-23)
(0.010182 -9.12036e-06 5.03396e-23)
(0.0102441 -8.96997e-06 -2.63503e-23)
(0.0103043 -8.78042e-06 2.71979e-23)
(0.0103623 -8.55053e-06 2.79022e-23)
(0.0104176 -8.26283e-06 -5.64821e-23)
(0.0104698 -7.93578e-06 -5.66311e-23)
(0.0105184 -7.52742e-06 -1.73666e-24)
(0.0105631 -7.07979e-06 3.09335e-23)
(0.0106029 -6.50934e-06 2.48703e-23)
(0.0106371 -5.86922e-06 0)
(0.010666 -5.18421e-06 7.05928e-23)
(0.0106879 -4.30801e-06 -2.71544e-25)
(0.0107036 -3.47809e-06 3.15452e-25)
(0.0107119 -2.34062e-06 2.24761e-25)
(0.0107137 -1.24408e-06 -2.24895e-25)
(0.0107059 -7.65278e-08 1.35841e-29)
(0.0107101 -4.25065e-07 -1.07577e-26)
(0.0121869 4.83975e-06 2.5667e-29)
(0.0121476 4.30845e-06 -4.52033e-26)
(0.0121253 7.01894e-06 3.05343e-26)
(0.0120802 8.7767e-06 0)
(0.01204 1.06735e-05 3.49721e-23)
(0.0119815 1.27515e-05 4.49133e-23)
(0.0119149 1.4451e-05 0)
(0.0118368 1.61475e-05 0)
(0.0117489 1.76583e-05 7.56152e-23)
(0.0116521 1.89824e-05 8.8498e-23)
(0.0115477 2.011e-05 9.27682e-23)
(0.0114367 2.09925e-05 0)
(0.0113207 2.16513e-05 2.2852e-22)
(0.0112015 2.20851e-05 0)
(0.0110802 2.23433e-05 1.31076e-22)
(0.010958 2.23996e-05 -1.38742e-22)
(0.010836 2.23412e-05 -1.27074e-22)
(0.0107147 2.21192e-05 -1.7079e-22)
(0.0105952 2.17852e-05 -1.57932e-22)
(0.0104778 2.12976e-05 0)
(0.0103638 2.06632e-05 -1.67679e-22)
(0.0102537 1.99406e-05 0)
(0.010148 1.91378e-05 1.7499e-22)
(0.0100471 1.82805e-05 1.77772e-22)
(0.00995121 1.73681e-05 -1.13226e-23)
(0.00986055 1.64121e-05 -1.25289e-25)
(0.00977532 1.54409e-05 1.13785e-23)
(0.00969559 1.44333e-05 -9.17864e-23)
(0.00962146 1.34242e-05 -1.15074e-23)
(0.00955302 1.24023e-05 -8.04227e-23)
(0.00949026 1.13779e-05 9.73341e-23)
(0.00943322 1.03522e-05 -5.7026e-24)
(0.00938186 9.33539e-06 -5.63721e-24)
(0.00933614 8.32258e-06 5.62281e-24)
(0.00929606 7.32131e-06 4.43545e-23)
(0.00926148 6.32795e-06 8.75779e-23)
(0.00923236 5.35286e-06 0)
(0.00920869 4.38591e-06 4.51066e-23)
(0.00919039 3.44075e-06 3.90902e-23)
(0.00917734 2.4996e-06 -1.79219e-23)
(0.00916947 1.57733e-06 -2.52761e-24)
(0.00916679 6.75786e-07 2.41584e-24)
(0.00916916 -2.22711e-07 -2.41338e-24)
(0.00917657 -1.09741e-06 0)
(0.00918896 -1.96376e-06 0)
(0.00920611 -2.80533e-06 0)
(0.00922802 -3.63988e-06 -8.46216e-24)
(0.00925457 -4.44817e-06 0)
(0.0092856 -5.23656e-06 4.0553e-24)
(0.00932104 -6.01119e-06 -1.20557e-25)
(0.00936076 -6.76255e-06 2.21198e-25)
(0.00940462 -7.48512e-06 2.00569e-25)
(0.00945248 -8.19321e-06 3.79841e-25)
(0.00950418 -8.87672e-06 -8.02983e-25)
(0.00955958 -9.52934e-06 -1.18235e-23)
(0.00961846 -1.01542e-05 0)
(0.00968064 -1.07565e-05 -1.25787e-24)
(0.00974596 -1.13183e-05 9.09482e-26)
(0.00981413 -1.18435e-05 1.01682e-23)
(0.00988495 -1.23217e-05 8.27688e-24)
(0.00995819 -1.27553e-05 -8.98482e-25)
(0.0100334 -1.31022e-05 -7.15625e-25)
(0.0101103 -1.34121e-05 -1.05874e-23)
(0.0101882 -1.37162e-05 1.25433e-24)
(0.0102673 -1.40054e-05 -1.25694e-24)
(0.0103474 -1.42941e-05 -8.96724e-25)
(0.0104286 -1.45607e-05 1.45766e-23)
(0.0105107 -1.47974e-05 -7.21999e-25)
(0.0105933 -1.49935e-05 7.36168e-24)
(0.0106763 -1.51634e-05 -4.23353e-24)
(0.0107595 -1.52983e-05 -3.27752e-25)
(0.0108427 -1.5405e-05 -9.04276e-26)
(0.0109256 -1.54773e-05 0)
(0.011008 -1.55241e-05 1.1802e-23)
(0.0110898 -1.55467e-05 -8.33991e-25)
(0.0111708 -1.5542e-05 0)
(0.0112508 -1.55061e-05 1.21869e-23)
(0.0113296 -1.54536e-05 -1.41804e-23)
(0.0114071 -1.53587e-05 3.20649e-23)
(0.011483 -1.52631e-05 0)
(0.0115574 -1.5098e-05 4.3582e-23)
(0.0116296 -1.49303e-05 4.16825e-23)
(0.0116999 -1.46992e-05 -4.90684e-23)
(0.0117677 -1.44336e-05 0)
(0.011833 -1.41061e-05 -5.03143e-23)
(0.0118951 -1.371e-05 -4.54043e-23)
(0.0119538 -1.32263e-05 5.21416e-23)
(0.0120085 -1.26709e-05 9.52657e-23)
(0.0120586 -1.1996e-05 -4.71896e-23)
(0.0121036 -1.12424e-05 -1.50603e-24)
(0.0121428 -1.03167e-05 4.60144e-23)
(0.012175 -9.27759e-06 -4.4035e-23)
(0.0122008 -8.1503e-06 -4.04585e-23)
(0.0122185 -6.77804e-06 0)
(0.0122289 -5.40989e-06 -3.23158e-23)
(0.0122312 -3.6805e-06 -2.77635e-25)
(0.0122264 -1.94888e-06 -1.94158e-25)
(0.0122131 -2.73149e-07 -1.17246e-29)
(0.0122106 -1.18863e-07 -9.26549e-27)
(0.0134689 6.64452e-06 -2.26434e-29)
(0.0134213 6.66784e-06 2.26708e-29)
(0.0133908 1.01986e-05 -7.40178e-24)
(0.0133384 1.2877e-05 -2.19874e-23)
(0.0132901 1.55348e-05 3.07383e-23)
(0.0132234 1.84544e-05 -7.88714e-23)
(0.0131476 2.09154e-05 0)
(0.0130596 2.33277e-05 1.14458e-22)
(0.0129611 2.54791e-05 1.34453e-22)
(0.0128534 2.73689e-05 -7.71526e-23)
(0.0127377 2.89957e-05 -1.66837e-22)
(0.0126152 3.02881e-05 -1.89305e-22)
(0.0124872 3.12537e-05 -2.92739e-22)
(0.0123561 3.18913e-05 0)
(0.012223 3.22721e-05 1.14006e-22)
(0.0120891 3.23746e-05 1.54772e-23)
(0.0119558 3.22926e-05 1.11317e-22)
(0.0118236 3.19884e-05 -1.68667e-23)
(0.0116938 3.15246e-05 1.71632e-22)
(0.0115664 3.08478e-05 -3.01095e-22)
(0.0114429 2.99511e-05 1.45953e-22)
(0.0113238 2.89214e-05 -1.88909e-23)
(0.0112096 2.77745e-05 -1.33659e-22)
(0.0111006 2.65446e-05 -2.905e-22)
(0.0109973 2.52338e-05 -1.94835e-23)
(0.0108998 2.38593e-05 1.58664e-22)
(0.0108083 2.24546e-05 -1.00268e-23)
(0.0107229 2.09997e-05 1.70666e-22)
(0.0106437 1.95358e-05 -1.60993e-22)
(0.0105707 1.80528e-05 -1.00629e-23)
(0.0105041 1.65633e-05 -1.50613e-22)
(0.0104438 1.50702e-05 0)
(0.0103897 1.35867e-05 0)
(0.0103419 1.21075e-05 4.90786e-24)
(0.0103004 1.06423e-05 -4.59383e-26)
(0.0102649 9.18804e-06 -1.54373e-22)
(0.0102355 7.75681e-06 -4.78697e-24)
(0.0102122 6.33741e-06 7.49602e-23)
(0.0101948 4.94659e-06 -7.36904e-23)
(0.0101833 3.56307e-06 0)
(0.0101775 2.20413e-06 3.32278e-23)
(0.0101775 8.72627e-07 2.18849e-24)
(0.0101831 -4.50095e-07 2.08536e-24)
(0.0101943 -1.74217e-06 -2.08512e-24)
(0.010211 -3.01945e-06 -9.85444e-25)
(0.010233 -4.26337e-06 1.94075e-24)
(0.0102603 -5.49481e-06 1.4083e-23)
(0.0102927 -6.69036e-06 4.45546e-25)
(0.0103302 -7.85576e-06 -4.45104e-25)
(0.0103725 -8.99949e-06 -1.02902e-25)
(0.0104195 -1.01099e-05 1.03011e-25)
(0.0104711 -1.11787e-05 0)
(0.0105271 -1.2223e-05 1.17488e-23)
(0.0105873 -1.32316e-05 0)
(0.0106516 -1.41952e-05 1.05442e-23)
(0.0107197 -1.51161e-05 -1.98698e-23)
(0.0107913 -1.60009e-05 0)
(0.0108664 -1.68293e-05 -1.73631e-23)
(0.0109445 -1.76024e-05 9.64333e-25)
(0.0110255 -1.83081e-05 -9.66194e-25)
(0.0111091 -1.89531e-05 -2.70408e-23)
(0.011195 -1.94812e-05 -2.44571e-23)
(0.0112826 -1.99342e-05 0)
(0.0113712 -2.03698e-05 1.12327e-24)
(0.0114612 -2.0781e-05 -1.88145e-23)
(0.0115518 -2.1185e-05 9.65832e-25)
(0.0116435 -2.15681e-05 -3.617e-23)
(0.0117359 -2.19075e-05 2.28142e-24)
(0.0118288 -2.21885e-05 1.23338e-23)
(0.0119219 -2.24279e-05 3.78058e-25)
(0.0120149 -2.26158e-05 -3.78942e-25)
(0.0121076 -2.276e-05 0)
(0.0121998 -2.28542e-05 -4.95695e-24)
(0.0122911 -2.2909e-05 -1.10783e-23)
(0.0123815 -2.29261e-05 7.4571e-25)
(0.0124706 -2.29012e-05 0)
(0.0125583 -2.28312e-05 4.65463e-23)
(0.0126444 -2.27302e-05 -6.33976e-24)
(0.0127286 -2.25728e-05 -5.02781e-23)
(0.0128108 -2.23977e-05 -7.94352e-24)
(0.0128907 -2.21361e-05 4.15664e-24)
(0.0129679 -2.18513e-05 4.7735e-24)
(0.0130425 -2.14815e-05 -8.32499e-23)
(0.0131138 -2.10511e-05 0)
(0.0131818 -2.05301e-05 7.95093e-23)
(0.0132459 -1.99052e-05 5.15903e-23)
(0.0133056 -1.91566e-05 -5.4876e-24)
(0.0133604 -1.82951e-05 -4.13706e-23)
(0.0134096 -1.72696e-05 4.09944e-23)
(0.0134526 -1.61159e-05 2.69899e-24)
(0.0134886 -1.4738e-05 -4.12331e-23)
(0.0135166 -1.31939e-05 1.17351e-22)
(0.0135369 -1.15096e-05 0)
(0.0135482 -9.52917e-06 0)
(0.0135512 -7.49486e-06 2.9279e-23)
(0.0135456 -5.06704e-06 -2.44691e-23)
(0.0135324 -2.58287e-06 -1.73018e-25)
(0.0135115 -2.63619e-07 1.04466e-29)
(0.0135002 6.0879e-07 -8.29757e-27)
(0.0145946 8.97028e-06 0)
(0.0145371 9.77573e-06 -5.37452e-24)
(0.0144971 1.42043e-05 3.59159e-26)
(0.0144361 1.79413e-05 -1.98217e-23)
(0.0143782 2.14664e-05 -1.10022e-22)
(0.0143024 2.53151e-05 7.0221e-23)
(0.0142167 2.86456e-05 8.67192e-23)
(0.0141187 3.18586e-05 -1.02673e-22)
(0.0140098 3.47163e-05 -1.18072e-22)
(0.0138916 3.72205e-05 -4.41099e-24)
(0.0137657 3.93883e-05 1.53117e-22)
(0.013633 4.11274e-05 1.63375e-22)
(0.013495 4.2421e-05 1.89009e-22)
(0.0133541 4.32669e-05 -1.15012e-23)
(0.0132114 4.37623e-05 -2.03577e-22)
(0.0130684 4.38942e-05 -2.15281e-22)
(0.0129264 4.37583e-05 -2.26291e-22)
(0.012786 4.33316e-05 1.50749e-23)
(0.0126486 4.26766e-05 -1.50538e-23)
(0.0125148 4.17531e-05 2.70253e-22)
(0.0123854 4.05503e-05 2.45494e-22)
(0.0122608 3.91686e-05 0)
(0.0121416 3.7627e-05 0)
(0.0120281 3.59691e-05 1.39511e-22)
(0.0119206 3.42002e-05 -1.78008e-23)
(0.0118194 3.23442e-05 -1.43368e-22)
(0.0117247 3.04389e-05 2.70172e-23)
(0.0116365 2.84676e-05 2.8143e-22)
(0.011555 2.64769e-05 1.36668e-22)
(0.0114803 2.44591e-05 1.64163e-22)
(0.0114123 2.24289e-05 2.73383e-22)
(0.011351 2.03918e-05 1.45362e-22)
(0.0112965 1.8364e-05 1.53644e-22)
(0.0112488 1.63401e-05 -1.52502e-22)
(0.0112077 1.43322e-05 8.93065e-24)
(0.0111731 1.23384e-05 2.06758e-22)
(0.0111451 1.03721e-05 4.37012e-24)
(0.0111236 8.42142e-06 -6.84939e-23)
(0.0111085 6.506e-06 1.30588e-22)
(0.0110997 4.60195e-06 -6.19951e-23)
(0.0110971 2.72852e-06 -3.24294e-23)
(0.0111008 8.9012e-07 6.15026e-23)
(0.0111104 -9.32097e-07 3.87204e-24)
(0.0111261 -2.71642e-06 -1.9126e-24)
(0.0111477 -4.47769e-06 2.93818e-23)
(0.011175 -6.19552e-06 -2.85216e-23)
(0.011208 -7.89362e-06 -1.38102e-23)
(0.0112464 -9.54506e-06 0)
(0.0112903 -1.11535e-05 -9.74869e-24)
(0.0113393 -1.27299e-05 9.86386e-26)
(0.0113934 -1.42614e-05 5.93164e-24)
(0.0114524 -1.57359e-05 0)
(0.011516 -1.71721e-05 4.5229e-27)
(0.0115842 -1.85594e-05 0)
(0.0116566 -1.98851e-05 0)
(0.011733 -2.11488e-05 3.65462e-23)
(0.0118132 -2.23591e-05 1.71319e-23)
(0.0118969 -2.34957e-05 1.59604e-23)
(0.0119839 -2.45542e-05 2.96024e-23)
(0.0120738 -2.55206e-05 2.56151e-23)
(0.0121662 -2.64107e-05 5.13427e-23)
(0.0122611 -2.71582e-05 2.11354e-23)
(0.0123581 -2.7796e-05 4.0372e-23)
(0.0124564 -2.84007e-05 3.66707e-23)
(0.0125561 -2.89515e-05 4.61216e-23)
(0.0126564 -2.94787e-05 2.60847e-23)
(0.0127575 -2.99891e-05 2.13777e-23)
(0.0128592 -3.04396e-05 -9.07743e-25)
(0.0129611 -3.08106e-05 -2.3639e-23)
(0.013063 -3.11207e-05 -7.84439e-24)
(0.0131646 -3.13596e-05 0)
(0.0132655 -3.15354e-05 1.76563e-24)
(0.0133656 -3.16424e-05 1.55648e-23)
(0.0134644 -3.16926e-05 -8.72703e-25)
(0.0135618 -3.16878e-05 -1.83384e-24)
(0.0136576 -3.16228e-05 -4.46007e-25)
(0.0137514 -3.14953e-05 -3.78404e-23)
(0.0138431 -3.13182e-05 0)
(0.0139323 -3.10675e-05 5.28663e-23)
(0.0140189 -3.07756e-05 3.81402e-24)
(0.0141026 -3.03781e-05 3.00714e-25)
(0.0141829 -2.99284e-05 -8.50027e-24)
(0.0142598 -2.93686e-05 7.65095e-23)
(0.0143328 -2.87144e-05 8.00915e-23)
(0.0144015 -2.79349e-05 -1.60584e-22)
(0.0144655 -2.70094e-05 -5.01379e-24)
(0.0145242 -2.59184e-05 8.56404e-23)
(0.0145769 -2.46646e-05 -8.07566e-23)
(0.0146231 -2.31968e-05 0)
(0.0146621 -2.15431e-05 -1.20069e-24)
(0.0146929 -1.96109e-05 4.98022e-26)
(0.0147147 -1.74522e-05 -7.03071e-23)
(0.0147277 -1.50953e-05 0)
(0.0147308 -1.23947e-05 6.03439e-23)
(0.0147247 -9.5721e-06 -3.83779e-25)
(0.0147096 -6.34327e-06 2.28029e-23)
(0.0146867 -2.99095e-06 0)
(0.0146563 1.07593e-07 0)
(0.0146348 1.87847e-06 7.50981e-27)
(0.0155974 1.19484e-05 -1.93538e-26)
(0.0155291 1.37429e-05 4.32971e-26)
(0.0154786 1.91386e-05 -2.36699e-23)
(0.015408 2.40512e-05 7.23236e-23)
(0.0153398 2.85353e-05 5.02126e-23)
(0.0152543 3.33773e-05 -1.27847e-22)
(0.0151589 3.76533e-05 -7.84783e-23)
(0.0150512 4.17223e-05 1.85078e-22)
(0.0149328 4.53267e-05 -2.17278e-22)
(0.0148054 4.84666e-05 2.45492e-22)
(0.0146707 5.11753e-05 4.42279e-24)
(0.0145302 5.33467e-05 -1.40902e-23)
(0.0143853 5.49706e-05 9.6715e-24)
(0.0142377 5.60364e-05 0)
(0.0140888 5.66473e-05 -3.82693e-22)
(0.0139399 5.6801e-05 2.08452e-22)
(0.0137923 5.65911e-05 2.06839e-22)
(0.0136469 5.60117e-05 1.37908e-23)
(0.0135051 5.51256e-05 4.21814e-22)
(0.0133676 5.39142e-05 1.43103e-23)
(0.013235 5.2362e-05 -2.40117e-22)
(0.0131076 5.05793e-05 2.46321e-22)
(0.0129859 4.85894e-05 0)
(0.0128703 4.64454e-05 0)
(0.0127612 4.41572e-05 0)
(0.0126587 4.17549e-05 0)
(0.012563 3.92813e-05 0)
(0.0124742 3.67241e-05 -2.84912e-22)
(0.0123924 3.41344e-05 1.67905e-23)
(0.0123178 3.15082e-05 -1.34917e-22)
(0.0122503 2.88627e-05 -1.43309e-22)
(0.0121899 2.62058e-05 -3.9526e-22)
(0.0121365 2.35572e-05 -1.33985e-22)
(0.0120903 2.09119e-05 2.6626e-22)
(0.0120511 1.82842e-05 0)
(0.0120188 1.56741e-05 -1.30706e-22)
(0.0119933 1.30958e-05 1.29137e-22)
(0.0119747 1.05369e-05 1.27353e-22)
(0.0119628 8.02013e-06 -6.65615e-23)
(0.0119576 5.52011e-06 6.54698e-23)
(0.011959 3.05736e-06 3.73413e-24)
(0.0119669 6.38244e-07 -3.73123e-24)
(0.0119812 -1.75548e-06 -5.77751e-23)
(0.0120017 -4.10334e-06 1.736e-24)
(0.0120285 -6.41822e-06 -3.08329e-23)
(0.0120613 -8.67771e-06 2.83038e-23)
(0.0121 -1.0908e-05 0)
(0.0121445 -1.308e-05 -3.82325e-25)
(0.0121947 -1.51934e-05 6.39155e-24)
(0.0122503 -1.72612e-05 -1.80643e-25)
(0.0123111 -1.92712e-05 2.0931e-27)
(0.012377 -2.12064e-05 -6.46388e-25)
(0.0124478 -2.30854e-05 -1.00661e-23)
(0.0125232 -2.48997e-05 6.15896e-25)
(0.0126031 -2.6634e-05 1.10024e-24)
(0.0126871 -2.82825e-05 -1.81873e-23)
(0.0127749 -2.98556e-05 -1.79471e-23)
(0.0128662 -3.13372e-05 1.93641e-24)
(0.0129609 -3.27146e-05 -2.93306e-23)
(0.0130586 -3.39672e-05 -2.38007e-23)
(0.0131587 -3.51298e-05 -6.97865e-23)
(0.0132613 -3.61314e-05 0)
(0.0133661 -3.69762e-05 -3.75868e-23)
(0.0134724 -3.7763e-05 -3.31589e-23)
(0.0135801 -3.84871e-05 -5.75442e-23)
(0.0136889 -3.91704e-05 -2.43724e-23)
(0.0137984 -3.98178e-05 2.00932e-23)
(0.0139083 -4.03822e-05 0)
(0.0140181 -4.08423e-05 1.15023e-23)
(0.0141276 -4.12184e-05 -7.45324e-24)
(0.0142364 -4.15e-05 -6.45619e-24)
(0.0143443 -4.16954e-05 -3.00399e-24)
(0.0144508 -4.17999e-05 -1.83455e-23)
(0.0145557 -4.18262e-05 0)
(0.0146587 -4.17764e-05 -2.55343e-23)
(0.0147596 -4.16445e-05 1.71019e-24)
(0.014858 -4.14291e-05 0)
(0.0149536 -4.11408e-05 4.34331e-23)
(0.0150462 -4.0758e-05 3.23984e-24)
(0.0151355 -4.03037e-05 3.12483e-25)
(0.0152213 -3.97224e-05 -3.55408e-24)
(0.0153029 -3.90518e-05 1.26837e-22)
(0.0153804 -3.82416e-05 1.29798e-22)
(0.015453 -3.72962e-05 -6.13998e-23)
(0.0155207 -3.6185e-05 6.80191e-23)
(0.0155827 -3.48794e-05 4.65941e-24)
(0.0156385 -3.3361e-05 -7.95936e-23)
(0.0156874 -3.16227e-05 7.49973e-23)
(0.0157287 -2.9616e-05 0)
(0.0157618 -2.73591e-05 1.44842e-22)
(0.0157858 -2.47679e-05 0)
(0.0157998 -2.18847e-05 0)
(0.015804 -1.87416e-05 0)
(0.0157975 -1.52114e-05 -5.52875e-23)
(0.0157811 -1.14849e-05 -4.08745e-25)
(0.0157554 -7.35556e-06 2.90548e-25)
(0.0157214 -3.02289e-06 -1.8116e-25)
(0.0156804 9.81257e-07 -1.13395e-23)
(0.0156477 3.80531e-06 -1.74388e-29)
(0.0164993 1.56992e-05 1.78675e-26)
(0.0164196 1.86668e-05 4.46211e-24)
(0.0163583 2.50848e-05 2.1801e-23)
(0.0162779 3.12563e-05 -6.63165e-23)
(0.0161995 3.67634e-05 4.09604e-25)
(0.0161046 4.26325e-05 1.1699e-22)
(0.0160003 4.78734e-05 -1.43304e-22)
(0.0158849 5.28085e-05 -1.71699e-22)
(0.0157595 5.71921e-05 1.98237e-22)
(0.0156254 6.09967e-05 -2.38414e-25)
(0.0154846 6.42617e-05 0)
(0.0153387 6.6875e-05 2.64533e-22)
(0.0151892 6.88364e-05 8.92892e-24)
(0.0150373 7.01234e-05 3.10427e-22)
(0.0148845 7.08418e-05 3.53391e-22)
(0.0147322 7.10021e-05 2.33216e-23)
(0.0145815 7.06923e-05 -4.06237e-22)
(0.0144335 6.99251e-05 4.0081e-22)
(0.0142894 6.8751e-05 -4.17465e-22)
(0.0141499 6.71846e-05 4.32226e-22)
(0.0140156 6.52263e-05 -4.45663e-22)
(0.0138869 6.29874e-05 -2.28856e-22)
(0.0137643 6.04907e-05 4.82752e-22)
(0.0136481 5.77993e-05 2.55573e-25)
(0.0135387 5.49283e-05 -1.50285e-23)
(0.0134362 5.19146e-05 0)
(0.0133409 4.88057e-05 0)
(0.0132528 4.55951e-05 -2.49751e-22)
(0.0131721 4.23373e-05 -2.35286e-22)
(0.0130987 3.90334e-05 -3.14407e-23)
(0.0130328 3.57026e-05 1.5736e-23)
(0.0129743 3.23559e-05 2.51343e-22)
(0.0129231 2.90167e-05 -7.7993e-24)
(0.0128793 2.56803e-05 -1.16669e-22)
(0.0128429 2.23633e-05 0)
(0.0128136 1.9068e-05 0)
(0.0127915 1.58087e-05 -2.49348e-22)