/*--------------------------------*- C++ -*----------------------------------*\
| =========                 |                                                 |
| \\      /  F ield         | OpenFOAM: The Open Source CFD Toolbox           |
|  \\    /   O peration     | Version:  2.4.0                                 |
|   \\  /    A nd           | Web:      www.OpenFOAM.org                      |
|    \\/     M anipulation  |                                                 |
\*---------------------------------------------------------------------------*/
FoamFile
{
    version     2.0;
    format      ascii;
    class       volVectorField;
    location    "290";
    object      U;
}
// * * * * * * * * * * * * * * * * * * * * * * * * * * * * * * * * * * * * * //

dimensions      [0 1 -1 0 0 0 0];

internalField   nonuniform List<vector> 
78300
(
(0.00092224069 7.5738097e-06 2.0781525e-21)
(-0.00068303233 -1.4664054e-06 9.5177041e-22)
(0.0028223488 -3.4662585e-05 -2.6366482e-21)
(0.0016071333 -8.0604769e-05 1.4500918e-19)
(0.0029822142 -0.00021685532 4.1789552e-20)
(0.0010890929 -0.00010415214 -9.9461317e-20)
(0.00075601919 -8.2705071e-05 -5.8157848e-20)
(-0.0012794825 0.00035631176 2.7658156e-19)
(-0.0011765059 0.00046671117 1.3469901e-19)
(-0.001745887 0.00083904248 -2.0409644e-19)
(-0.0014126778 0.00053439469 -1.6135213e-19)
(-0.0016633649 0.00067200199 7.2668102e-19)
(-0.00086529727 0.00071371713 -1.4751718e-19)
(0.00055961094 0.00047821911 5.612468e-19)
(0.00056593114 0.00035330217 -1.5419876e-19)
(-0.00084045111 0.00046460777 3.2519784e-19)
(-0.001366177 1.7285634e-05 2.7107241e-19)
(-0.00044023215 -0.0001719414 -2.7414148e-19)
(0.00011130172 0.00036123015 8.8752783e-19)
(-0.00048829104 0.00053697187 -7.0101138e-19)
(-0.00075899859 0.00057380614 -1.1025316e-18)
(-0.0008950249 0.00072017512 1.1944673e-18)
(-0.00091642686 0.00077526577 5.198945e-19)
(-0.00095494163 0.00081682608 -2.8862667e-19)
(-0.00097358291 0.00083353963 -8.0367063e-19)
(-0.00094335862 0.00082302901 -2.2067291e-19)
(-0.00093140246 0.00080156342 -3.052133e-19)
(-0.00091632036 0.00075829943 1.0945243e-18)
(-0.00085383779 0.00071925001 8.9813747e-19)
(-0.00080010366 0.000674142 5.9371537e-19)
(-0.00074886458 0.00063900551 -5.8622458e-19)
(-0.00071324119 0.00059974051 -1.175684e-18)
(-0.00065481877 0.00056601165 -4.2111594e-19)
(-0.00060475265 0.00054400625 -5.4562926e-19)
(-0.00057232802 0.00053841132 5.7408395e-19)
(-0.00053546313 0.00050921587 -3.8502275e-19)
(-0.0004458008 0.00049107418 6.5710488e-19)
(-0.00038483176 0.00057056432 2.2739816e-20)
(-0.00024931721 0.0005581899 1.1943261e-18)
(0.0007359043 0.00037124131 -2.6896738e-19)
(-0.00021885776 0.0010066286 7.188503e-21)
(-0.0020552014 0.00060941747 -1.4810855e-19)
(-0.001095651 0.00022133653 -3.7883496e-19)
(-0.00066237253 0.00029271992 -4.8635535e-19)
(-0.00063709768 0.00037322511 7.809148e-19)
(-0.00062981293 0.00032156834 8.7454749e-19)
(-0.00059018822 0.00030784044 -3.0928844e-19)
(-0.00057592236 0.0003090468 -8.5040589e-19)
(-0.00054515812 0.00027985448 8.2551082e-19)
(-0.00052824479 0.00025086061 -6.5958739e-19)
(-0.00050627222 0.00022703072 -1.4493468e-18)
(-0.00047341905 0.00019793786 1.907265e-19)
(-0.00043790969 0.00016776646 -2.7015699e-19)
(-0.00039675562 0.00013733219 -1.0546182e-18)
(-0.00034973135 0.00010861804 -3.531357e-19)
(-0.0002923325 8.0690361e-05 3.2204449e-19)
(-0.00024000454 5.7782599e-05 2.601319e-19)
(-0.00017566257 3.5612701e-05 6.1245028e-19)
(-0.00013807958 2.2896765e-05 1.1217911e-20)
(-8.9806533e-05 1.1344098e-05 -6.5061784e-19)
(-0.00010091066 9.0971325e-06 1.5454804e-19)
(-0.00010191781 5.4461004e-06 2.2625949e-20)
(-0.00023427263 3.9899197e-06 2.5609406e-20)
(-0.00046415106 1.7605621e-06 -3.4069048e-24)
(-0.00063278148 2.1370227e-06 8.4696601e-24)
(-0.00081888432 2.4525376e-06 2.6506277e-23)
(-0.00097931027 2.7976752e-06 -2.8102595e-23)
(-0.0011440134 2.9166116e-06 2.6839159e-23)
(-0.0012902598 3.1624948e-06 -1.7151551e-23)
(-0.0014358589 3.3879913e-06 2.2057927e-23)
(-0.001568732 3.8279629e-06 -1.3890287e-23)
(-0.0016998156 3.9374426e-06 -2.9463407e-23)
(-0.0018213833 4.2525214e-06 3.9944564e-23)
(-0.0019394309 4.3006312e-06 1.6019318e-16)
(-0.0020510696 4.6734447e-06 1.621832e-16)
(-0.0021597404 4.5728004e-06 -8.0132545e-23)
(-0.0022639128 4.8187173e-06 3.0167412e-23)
(-0.0023639414 4.8162438e-06 2.8080394e-23)
(-0.0024612547 5.291935e-06 -3.2642743e-23)
(-0.002546581 5.1621436e-06 2.6438861e-23)
(-0.0026264023 5.1571889e-06 -1.5722758e-23)
(-0.0026953941 4.6052717e-06 4.383088e-23)
(-0.0027658475 4.5557265e-06 -2.2923632e-23)
(-0.0028257729 3.8061036e-06 -3.5436216e-23)
(-0.0028833538 3.4516632e-06 3.5969162e-23)
(-0.0029360964 2.6790451e-06 -4.7596065e-24)
(-0.0029857517 2.4813009e-06 2.7362766e-23)
(-0.0030329284 1.7324305e-06 -3.6826127e-23)
(-0.003076071 1.3228768e-06 -2.2578985e-23)
(-0.0031173245 6.9400239e-07 3.5340373e-23)
(-0.0031555224 4.7984724e-07 -2.5117804e-23)
(-0.0031936945 1.9753811e-07 1.971758e-23)
(-0.0032314585 4.1809956e-07 -9.2866573e-24)
(-0.0032702462 6.2807748e-07 -1.0667237e-24)
(-0.0033020341 1.0478756e-06 1.3615626e-24)
(-0.0033349804 9.2080928e-07 1.1711988e-23)
(-0.0033604165 1.2168787e-06 -1.025937e-24)
(-0.0033745703 7.5468057e-07 1.4421947e-23)
(-0.003391196 4.5868703e-07 -9.8151175e-25)
(-0.0033848863 -3.1686162e-07 -2.6191916e-23)
(-0.0033891475 -5.6900185e-07 1.2008478e-23)
(-0.0033861652 -1.0885361e-06 -1.0557091e-24)
(-0.0033868548 -1.2680354e-06 1.4502802e-23)
(-0.00339049 -1.3474203e-06 -1.0899803e-24)
(-0.0033971521 -1.2849068e-06 -2.6082525e-23)
(-0.0034061274 -1.1613892e-06 -1.0047109e-24)
(-0.0034154391 -1.1707626e-06 1.481638e-24)
(-0.0034235172 -1.1709011e-06 1.1853083e-23)
(-0.0034294376 -1.3508185e-06 -1.0295369e-24)
(-0.0034337569 -1.4747332e-06 -1.2829889e-23)
(-0.0034485041 -1.4184178e-06 2.3473378e-23)
(-0.0034922851 -1.068406e-06 -2.538445e-23)
(-0.0035245096 -7.9842716e-07 2.3288995e-23)
(-0.0035360096 -8.2987167e-07 -4.4374755e-24)
(-0.0035374286 -8.708667e-07 2.3702218e-24)
(-0.0035416496 -7.2758003e-07 -1.016526e-23)
(-0.0035329962 -6.4880657e-07 5.6668895e-24)
(-0.0035213734 -5.6787494e-07 1.426745e-24)
(-0.0035057713 -4.900736e-07 -1.0427206e-24)
(-0.0034890674 -4.1310612e-07 -9.6017125e-25)
(-0.0034706309 -3.778898e-07 1.981331e-16)
(-0.003450729 -3.0906753e-07 1.9819597e-16)
(-0.0034286171 -3.119091e-07 1.1368909e-23)
(-0.0034051534 -2.536265e-07 -9.5967504e-25)
(-0.0033813963 -2.5434775e-07 -1.0435765e-24)
(-0.0033582685 -1.5120777e-07 -7.2769177e-25)
(-0.0033358725 -1.1011631e-07 -6.352101e-26)
(-0.003312909 -5.842298e-08 -2.2823156e-24)
(-0.0032892491 -3.4375709e-08 -9.8421646e-25)
(-0.0032649504 -3.5332989e-08 3.5548909e-24)
(-0.0032410231 4.2870012e-08 1.7907526e-25)
(-0.0032157036 -5.0931734e-08 1.8440613e-24)
(-0.0031886572 -7.610868e-09 -3.0644973e-24)
(-0.0031615492 -1.1574935e-07 4.2487277e-25)
(-0.0031371402 5.3045113e-08 9.6830289e-26)
(-0.0031127318 -1.7638714e-07 1.8519384e-25)
(-0.0030847182 -1.2410647e-07 1.6074805e-26)
(-0.003052142 -4.4460955e-07 1.1640119e-24)
(-0.0030174167 -2.7155578e-07 -5.2356674e-25)
(-0.0029806969 -5.8297589e-07 -2.7456163e-24)
(-0.0029401568 -4.6290023e-07 5.23118e-24)
(-0.0028967785 -6.5700224e-07 -7.5045589e-24)
(-0.0028516256 -4.903134e-07 1.7211969e-25)
(-0.0028075276 -4.7630136e-07 3.9400687e-24)
(-0.002763669 -3.8233137e-07 -1.0895558e-24)
(-0.0027226833 -1.9547492e-07 2.590771e-24)
(-0.0026849632 -1.5615088e-07 -1.0906914e-24)
(-0.0026512214 -1.4521188e-08 -7.2023256e-26)
(-0.0026202734 -1.2966821e-07 -1.1893651e-24)
(-0.0025911704 -1.136316e-07 -1.1967075e-24)
(-0.0025636324 -2.3443668e-07 -1.1145378e-24)
(-0.0025339578 -4.652038e-07 4.2995077e-24)
(-0.0025015935 -5.1144588e-07 2.7570731e-24)
(-0.0024661811 -7.646653e-07 4.4883116e-24)
(-0.0024296771 -6.2931269e-07 -1.8239015e-24)
(-0.0023870448 -1.0692534e-06 -5.040678e-24)
(-0.0023325902 -8.9428382e-07 -1.2073664e-23)
(-0.0022630156 -1.0777098e-06 2.3730317e-16)
(-0.0021853387 -5.7597466e-07 1.1276836e-19)
(-0.0021129624 -5.6225979e-07 -2.3891576e-16)
(-0.0020595581 -2.2716369e-07 -1.7982636e-23)
(-0.0020172867 7.4551314e-09 2.7514952e-24)
(-0.0019826506 1.9908993e-07 -3.0837113e-23)
(-0.0019559306 3.0133272e-08 3.1669055e-23)
(-0.0019289127 -3.2970434e-07 2.8046776e-24)
(-0.0018949905 -4.1249889e-07 -2.8443409e-23)
(-0.0018537006 -1.1500313e-07 1.5683946e-23)
(-0.001807975 2.7468873e-07 -1.7053659e-23)
(-0.0017704971 3.6123483e-07 2.5005366e-23)
(-0.0017409009 1.0879007e-07 -6.4072089e-24)
(-0.0017186952 -4.2344092e-07 -1.2380478e-23)
(-0.0016967903 -1.0706879e-06 3.9773286e-24)
(-0.0016793749 -1.5967779e-06 1.5996559e-23)
(-0.0016612873 -2.6411922e-06 -1.8573772e-23)
(-0.0016398227 -3.157145e-06 1.632687e-23)
(-0.0016107093 -3.9885526e-06 -1.790184e-23)
(-0.0015793474 -4.1093486e-06 9.2279827e-24)
(-0.00154014 -4.5843504e-06 1.0659242e-23)
(-0.0014864291 -3.9740541e-06 1.7383164e-23)
(-0.0014228618 -3.257846e-06 -1.9846519e-23)
(-0.001355097 -2.1613194e-06 -1.3662862e-23)
(-0.001281773 -1.2696519e-06 1.7494262e-23)
(-0.0012081515 -2.6700409e-07 -3.7040359e-23)
(-0.0011532039 9.8810803e-07 3.4272692e-23)
(-0.0011030232 2.1416979e-06 -2.0075023e-23)
(-0.0010557401 3.6164157e-06 1.7233446e-23)
(-0.00099956552 4.432878e-06 -1.9676934e-23)
(-0.00095824591 5.3061015e-06 -1.2991283e-23)
(-0.0009343218 4.4811309e-06 1.0683959e-23)
(-0.00092606344 4.0194601e-06 -1.2769227e-23)
(-0.00091542124 3.2433193e-06 3.328864e-23)
(-0.00088681118 3.6412916e-06 -1.9841573e-23)
(-0.00086111364 2.9441547e-06 1.7246424e-23)
(-0.00083399545 2.9689556e-06 -2.8970198e-23)
(-0.00079583571 3.397599e-06 3.0047251e-24)
(-0.00076548094 4.7266111e-06 1.0067679e-23)
(-0.00075448129 4.1251554e-06 1.0938213e-23)
(-0.00075760993 3.215472e-06 -4.0609746e-23)
(-0.00072160521 2.7289678e-06 2.3579601e-16)
(-0.00065077596 6.0731555e-06 2.3341098e-16)
(-0.00054837682 8.9971305e-06 -1.2188774e-23)
(-0.00044372493 1.5791275e-05 -1.6878483e-23)
(-0.00033115699 2.0383411e-05 1.3475336e-23)
(-0.00027442876 2.8037767e-05 1.4673214e-24)
(-0.00029374335 2.5072709e-05 -4.7637741e-24)
(-0.00035655881 2.4729824e-05 -1.7458411e-16)
(-0.00038508432 2.1438651e-05 -1.6531343e-16)
(-0.00039685 1.4835032e-05 -2.7563626e-20)
(-0.00044170662 -2.0903806e-05 2.6708655e-19)
(-0.00049742892 -5.5285941e-05 1.1395914e-19)
(-0.00051041461 -9.2516182e-05 -6.9791085e-19)
(-0.00051357668 -0.00012857693 -1.0763212e-19)
(-0.00055059233 -0.00016225583 -6.660757e-19)
(-0.00058529963 -0.00019344832 4.168e-20)
(-0.00051560742 -0.00022866438 -6.0860442e-21)
(-0.00044419312 -0.00026976333 1.9018593e-19)
(-0.00048046954 -0.00029670497 -1.2664668e-19)
(-0.00042536622 -0.00028565478 3.6363539e-19)
(-3.9730697e-05 -0.00035178746 -2.0621849e-19)
(0.00029033416 -0.0005188915 -1.8706991e-20)
(-0.00034635016 -0.00060212029 5.7399763e-20)
(-0.0021341666 -0.0003173245 -3.4251539e-19)
(-0.0062380777 0.00018071175 1.5128106e-19)
(-0.0073982496 0.00044305532 -3.4066612e-18)
(0.00020229997 0.00024612035 -6.1388413e-18)
(0.0096343079 -3.1605376e-05 -6.2031651e-19)
(0.021786238 -0.00027885595 -5.3534703e-20)
(0.027130911 -0.00023417792 1.2211291e-17)
(0.026502241 -0.00091970404 1.4813708e-18)
(0.021801002 -0.00077563582 6.0761315e-18)
(0.01597969 -0.00089912943 4.8625243e-17)
(0.009795045 -0.00013706096 -8.5291076e-18)
(0.00022009037 0.00072969945 -4.8471433e-17)
(-0.0098549781 0.0026974328 -3.3370885e-17)
(-0.023198766 0.0043411843 1.0344918e-17)
(-0.033027373 0.004432015 3.0255381e-18)
(-0.03242111 0.0033425615 6.1079663e-19)
(-0.020716636 0.00041138093 2.5162742e-18)
(-0.0078371993 -0.0032478831 1.3364056e-17)
(-0.0037931937 -0.0048150051 -1.338498e-17)
(-0.035270162 0.0038562693 3.4413931e-18)
(-0.061879254 0.010680589 1.4189566e-18)
(-0.077250459 0.016270722 2.3013793e-17)
(-0.063630374 0.013928062 2.2990439e-17)
(-0.012751946 0.0056726346 -1.3089381e-17)
(0.014162249 -0.0052978934 6.6255539e-17)
(0.059024253 -0.016318149 -7.4106635e-18)
(0.096945838 -0.015347717 -7.9930666e-17)
(0.092225372 -0.0119352 -5.2556705e-19)
(0.069113818 -0.0029295406 1.9128165e-17)
(0.041209756 0.0079769755 -3.9775059e-17)
(0.012336482 0.016267938 -4.1992477e-18)
(-0.01698936 0.020665522 -5.8240944e-18)
(-0.028920378 0.018073237 6.9581883e-18)
(-0.018231904 0.01005295 8.4121387e-19)
(0.012775264 0.00014165305 4.2393894e-18)
(0.043779022 -0.0043082563 6.9560554e-18)
(0.069086014 -0.0070050141 3.6658546e-17)
(0.062164988 0.0062920501 -2.7668992e-17)
(0.01803061 0.016495987 -6.721237e-17)
(-0.01119334 0.012676818 -4.6849286e-17)
(-0.014945149 0.0065401152 -5.2849732e-18)
(-0.010391727 0.0042470841 5.3786099e-18)
(-0.0089238877 0.0026976862 -4.4887572e-18)
(-0.0078344436 0.0013080523 -1.9018447e-18)
(-0.0066504404 0.00045200038 -2.6816005e-19)
(-0.0037716727 0.00018353561 -2.8992241e-19)
(-0.0039324462 3.105958e-05 -1.1472395e-19)
(-0.0012449676 -1.0065723e-05 -4.765765e-20)
(-0.0028730629 1.3703697e-06 -4.9190081e-21)
(0.0058735734 2.2082915e-05 2.29447e-21)
(0.00091958832 -4.6361208e-06 -2.7486835e-21)
(0.010428166 -9.7206146e-05 9.7325123e-21)
(0.0061799511 -0.0002324817 -1.7092446e-19)
(0.0094167319 -0.00065612158 -2.5258914e-21)
(0.0033334143 -0.00033494874 -3.6750259e-19)
(0.0020988327 -0.00027002344 1.5351891e-19)
(-0.0038547362 0.0010681641 -3.9376515e-19)
(-0.0038016853 0.0014133021 -4.07925e-19)
(-0.005485287 0.0024878311 4.8325566e-19)
(-0.0038105398 0.001722982 1.9443301e-19)
(-0.00434953 0.0021602895 -1.0805115e-19)
(-0.0030396703 0.0025369535 -3.3031428e-18)
(-0.00012727351 0.0015912205 -4.2315384e-19)
(0.00028479839 0.00038827763 4.2154947e-19)
(-0.0021229353 0.00072905761 -2.939147e-19)
(-0.0022289415 9.0309519e-05 4.3978814e-19)
(-0.00048797003 -4.4066245e-05 3.6043124e-19)
(-0.00046243364 0.0011239248 9.2529159e-19)
(-0.0016954881 0.0015882688 -2.9180148e-19)
(-0.0021850576 0.0017312425 5.0977368e-19)
(-0.0026304407 0.0021751201 -5.8076375e-19)
(-0.0027601366 0.0023406621 -8.3971404e-19)
(-0.0028995627 0.0024562244 -2.302362e-18)
(-0.0029671441 0.0025020649 7.2833225e-19)
(-0.0029136033 0.0024753871 1.1603001e-18)
(-0.002865664 0.0023862418 1.7332922e-18)
(-0.0027771418 0.0022741705 -9.2524633e-19)
(-0.0026181381 0.0021520401 -3.9572891e-19)
(-0.0024629295 0.0020256599 -1.9701044e-18)
(-0.0023251404 0.0019087781 2.9579526e-18)
(-0.0022056146 0.0017984656 1.736496e-18)
(-0.0020592073 0.0016979436 3.0572602e-19)
(-0.0019465521 0.001631562 5.8432711e-19)
(-0.0018899845 0.0016139847 1.6414089e-20)
(-0.0017835505 0.0015284677 -1.8457772e-18)
(-0.0016195534 0.0014791483 -1.5607583e-18)
(-0.0016789411 0.0017055879 -7.0548817e-20)
(-0.0014721062 0.001682729 -1.1794061e-18)
(0.00027374702 0.0011832265 -1.3344416e-19)
(-0.0020489022 0.0014861618 1.4919675e-22)
(-0.0042433078 0.001409645 -8.5221916e-19)
(-0.002144722 0.00065828118 -2.4288462e-19)
(-0.0016580425 0.00091850939 -1.9610153e-19)
(-0.0017985145 0.0011128965 4.1179262e-19)
(-0.0017131816 0.0009795158 -2.2452918e-18)
(-0.001654823 0.00093185269 6.9110702e-19)
(-0.0016752835 0.0009351549 -4.9795653e-19)
(-0.0015992798 0.00084552644 -5.096217e-20)
(-0.0015426984 0.00075813592 -4.3027714e-19)
(-0.0014902061 0.00068604327 2.921324e-19)
(-0.0014022819 0.00059942853 -1.5179662e-18)
(-0.0012998778 0.00050862103 -1.0612405e-19)
(-0.001179145 0.00041754154 3.4283072e-19)
(-0.0010449436 0.00033153939 -9.5890197e-20)
(-0.0008827557 0.0002474996 9.9299747e-19)
(-0.00073435989 0.00017819796 -1.0048881e-18)
(-0.00054866802 0.00011144484 8.1439084e-19)
(-0.00044197359 7.2817073e-05 -2.4314722e-19)
(-0.00030302644 3.811368e-05 2.203565e-20)
(-0.00033922023 3.07784e-05 5.650898e-20)
(-0.00034421525 1.9638611e-05 4.9557666e-19)
(-0.00073814133 1.5324778e-05 -3.9328045e-20)
(-0.0014201303 8.1737122e-06 7.1122103e-23)
(-0.0019198607 8.3272228e-06 8.2367666e-26)
(-0.0024699876 8.7380094e-06 1.39725e-23)
(-0.0029457614 8.8570704e-06 -4.6517756e-23)
(-0.0034345939 8.9138747e-06 2.7950844e-23)
(-0.0038673912 9.0212588e-06 -9.4856959e-24)
(-0.0042964024 9.1557776e-06 -9.6630733e-24)
(-0.0046872443 9.2308294e-06 -9.8746463e-24)
(-0.0050725971 9.3647925e-06 3.4084665e-23)
(-0.0054287886 9.5511913e-06 -1.5044157e-23)
(-0.00577519 9.6581374e-06 -1.0173809e-23)
(-0.0061036948 9.6349266e-06 -1.0465533e-23)
(-0.0064234975 9.6885416e-06 6.1748011e-23)
(-0.0067287229 9.7711676e-06 -4.1772062e-23)
(-0.0070203037 9.8978307e-06 2.1443693e-23)
(-0.007302754 9.846088e-06 -1.0655982e-23)
(-0.0075519671 9.7876436e-06 3.3009901e-23)
(-0.0077914168 9.437512e-06 -1.0645429e-23)
(-0.0080009191 8.9708841e-06 -1.1031857e-23)
(-0.0082182113 8.2463924e-06 -1.140524e-23)
(-0.0084073786 7.5584295e-06 -1.1752365e-23)
(-0.0085920054 6.773583e-06 -1.205981e-23)
(-0.0087640277 5.9502186e-06 -1.2317563e-23)
(-0.0089271508 5.0415517e-06 3.6040594e-23)
(-0.0090833291 4.2228595e-06 6.0048845e-24)
(-0.0092288569 3.3792232e-06 4.347217e-23)
(-0.0093684191 2.5474839e-06 -6.8227186e-23)
(-0.0094964527 1.8307984e-06 4.3747885e-23)
(-0.0096178457 1.3885545e-06 -1.2422346e-23)
(-0.0097258262 1.5160814e-06 -3.7761301e-23)
(-0.0098287737 1.6967318e-06 -1.2715469e-23)
(-0.009911597 1.8188103e-06 1.5731703e-23)
(-0.010002667 1.9802371e-06 9.2137185e-24)
(-0.010073951 1.8368557e-06 2.2796225e-23)
(-0.010122415 1.4614489e-06 1.6302564e-23)
(-0.01018949 7.3802098e-07 -4.8937604e-23)
(-0.010185146 1.7636282e-07 1.6296564e-23)
(-0.0102159 -4.3831322e-07 9.5421377e-24)
(-0.010226854 -1.0334784e-06 2.3201633e-23)
(-0.010244663 -1.3846381e-06 -4.9185544e-23)
(-0.010263839 -1.5655209e-06 2.3154616e-23)
(-0.010285845 -1.5399676e-06 9.46688e-24)
(-0.010310935 -1.4678336e-06 1.6166036e-23)
(-0.010337922 -1.3839407e-06 -4.1894085e-23)
(-0.010365631 -1.4858207e-06 9.4335189e-24)
(-0.010392737 -1.684381e-06 2.6838282e-24)
(-0.01041624 -1.7541105e-06 2.9273694e-23)
(-0.010457226 -9.2480668e-07 -2.4907714e-23)
(-0.010574363 -4.8124154e-07 9.2143517e-24)
(-0.01067225 -1.1188444e-06 -4.8028352e-25)
(-0.010716893 -1.4437611e-06 -2.7578162e-23)
(-0.010714665 -1.2179413e-06 5.6907671e-24)
(-0.010714226 -1.2296312e-06 6.0953675e-24)
(-0.010678607 -1.2285468e-06 3.642709e-24)
(-0.010636197 -1.1960299e-06 9.0615502e-24)
(-0.010583242 -1.1263655e-06 6.0714031e-25)
(-0.010526867 -1.0609693e-06 -4.8845288e-24)
(-0.010465475 -9.7580631e-07 2.5756868e-24)
(-0.010400531 -9.6114873e-07 -3.8348441e-24)
(-0.010330716 -9.3182907e-07 1.5289892e-24)
(-0.010257979 -9.365532e-07 -2.4057606e-24)
(-0.010183795 -8.7115262e-07 5.1197019e-24)
(-0.010109091 -8.2657033e-07 -9.4205406e-24)
(-0.010033739 -7.3463182e-07 -1.9001436e-24)
(-0.009956243 -7.2647203e-07 3.6481092e-24)
(-0.0098773559 -6.8846936e-07 6.6270588e-24)
(-0.0097967345 -6.7636691e-07 -9.299974e-25)
(-0.0097154297 -6.3539608e-07 -1.905399e-24)
(-0.0096308718 -6.8780599e-07 -3.4474207e-24)
(-0.009543711 -7.1741432e-07 3.1519097e-24)
(-0.0094561664 -7.0969625e-07 -7.5965023e-25)
(-0.0093709022 -6.6386392e-07 -6.0282887e-26)
(-0.0092837878 -7.613593e-07 -3.735438e-25)
(-0.0091911586 -9.1597167e-07 5.3282547e-26)
(-0.0090919944 -1.0268707e-06 1.7471438e-24)
(-0.0089891171 -1.09546e-06 -3.1551433e-24)
(-0.0088826742 -1.1804777e-06 -4.9936503e-25)
(-0.0087700938 -1.2493633e-06 -2.1034523e-24)
(-0.0086537806 -1.2691528e-06 6.2381703e-24)
(-0.0085347669 -1.1753313e-06 5.1591504e-24)
(-0.0084173961 -1.0954336e-06 -1.0242581e-24)
(-0.0083000004 -9.411372e-07 -1.2754498e-23)
(-0.0081863023 -8.3168493e-07 -7.3548463e-24)
(-0.0080754873 -6.8375065e-07 1.0960513e-23)
(-0.0079696505 -7.0542883e-07 1.649904e-23)
(-0.0078681638 -7.1357652e-07 -2.7671383e-23)
(-0.0077691747 -8.4071317e-07 6.8762783e-24)
(-0.0076711542 -9.9329904e-07 -5.3638876e-25)
(-0.0075692295 -1.2721949e-06 1.3307022e-23)
(-0.0074637986 -1.4492549e-06 -9.6877283e-24)
(-0.0073528141 -1.5960266e-06 4.7482362e-24)
(-0.0072360203 -1.7544216e-06 6.5907916e-24)
(-0.0071041728 -2.0982506e-06 1.4371548e-23)
(-0.0069474747 -2.330287e-06 -3.6032242e-23)
(-0.0067560287 -2.3732685e-06 1.4411377e-23)
(-0.0065410458 -1.9947749e-06 -5.2790438e-25)
(-0.0063337987 -1.3877549e-06 -2.14461e-23)
(-0.0061835007 -7.5641607e-07 -5.5745837e-25)
(-0.0060668488 -3.5789209e-07 3.806215e-23)
(-0.0059631964 -5.7461907e-08 1.1491143e-23)
(-0.0058672785 -2.5730076e-07 -2.6443141e-23)
(-0.0057720285 -7.4838735e-07 3.3228282e-23)
(-0.0056712007 -8.6310398e-07 4.417322e-24)
(-0.0055581056 -7.2553036e-07 -2.8989745e-23)
(-0.0054337368 -4.4902815e-07 5.107575e-23)
(-0.0053224061 -4.8297032e-08 -3.7462897e-23)
(-0.0052151468 -4.3411221e-07 4.9664769e-24)
(-0.0051204859 -1.1387513e-06 6.8388431e-24)
(-0.0050247796 -2.0394171e-06 -3.4893773e-23)
(-0.0049390464 -3.032304e-06 3.8911503e-23)
(-0.0048512318 -4.1009337e-06 7.6772435e-24)
(-0.0047619819 -5.1856957e-06 -1.9927413e-23)
(-0.0046595428 -5.6447051e-06 -2.0449889e-23)
(-0.0045598077 -6.0922301e-06 -3.9916924e-23)
(-0.0044484839 -5.9440442e-06 7.2406269e-23)
(-0.004312694 -5.6651605e-06 5.0917461e-23)
(-0.0041618159 -4.2304044e-06 -1.1030124e-22)
(-0.0040012524 -2.8747235e-06 1.0986323e-22)
(-0.0038225168 -1.3091284e-06 -3.2826942e-23)
(-0.0036404142 4.6534662e-07 -5.0520118e-23)
(-0.0035150773 2.388588e-06 -4.0857952e-23)
(-0.0034054549 4.2950061e-06 -7.6908735e-25)
(-0.0033050364 5.8412774e-06 9.1500303e-23)
(-0.0031708716 7.5523038e-06 -6.6266442e-23)
(-0.0030532044 8.2799779e-06 4.1429685e-23)
(-0.0029540826 7.8393988e-06 -6.38529e-23)
(-0.0028931321 6.2562665e-06 7.099325e-23)
(-0.0028523249 5.6072575e-06 -3.8318116e-23)
(-0.0027668804 5.7971332e-06 2.2931777e-23)
(-0.0026773347 5.4557306e-06 7.5790221e-24)
(-0.002589543 5.0551912e-06 -3.74311e-23)
(-0.0024967563 5.8566317e-06 3.8944216e-23)
(-0.0024289865 7.6872177e-06 -5.3799047e-25)
(-0.0023799938 7.6974758e-06 1.4505362e-23)
(-0.0023550306 5.9142502e-06 -6.7200606e-23)
(-0.0022685258 5.9302681e-06 4.5415606e-23)
(-0.0021371225 9.9909979e-06 1.4182579e-23)
(-0.0019509612 1.6390795e-05 -6.4101928e-23)
(-0.0017707595 2.4107614e-05 6.2720139e-23)
(-0.0015954664 3.306439e-05 3.9199841e-23)
(-0.0015225129 4.1221431e-05 -5.7567088e-23)
(-0.0015455424 4.1371732e-05 4.0937724e-23)
(-0.0016450427 3.6474238e-05 -5.5039788e-23)
(-0.0017017521 3.3132983e-05 -5.1223212e-23)
(-0.0017402578 7.0530817e-06 7.248269e-20)
(-0.0018043516 -9.0080574e-05 2.9468138e-20)
(-0.0019008576 -0.00019323579 1.3401387e-20)
(-0.0019635049 -0.00030174191 8.3982268e-19)
(-0.0020106508 -0.00041321112 3.8863968e-19)
(-0.0020554929 -0.00051243788 1.6531241e-18)
(-0.0020959261 -0.00061053806 1.3678198e-18)
(-0.0020072797 -0.00071681004 -3.3249172e-19)
(-0.0019542259 -0.00084396665 -3.6379956e-19)
(-0.001973662 -0.00092106178 6.8042377e-20)
(-0.0017378314 -0.0009026174 -1.939145e-19)
(-0.001272249 -0.0010831671 1.2935289e-19)
(-0.0011904835 -0.0015340066 -4.8303298e-20)
(-0.0022488592 -0.0017281791 3.6314635e-20)
(-0.0041029885 -0.00099992095 2.7322263e-19)
(-0.0090537453 0.00011284697 1.3350366e-18)
(-0.0098253894 0.0014629448 2.8376804e-18)
(0.0010927572 0.00055317528 3.0167467e-19)
(0.014369217 -0.00059548296 -2.0181253e-18)
(0.032328371 -0.00044584388 4.68211e-19)
(0.039835227 -0.0017677056 -1.4762983e-17)
(0.037947196 -0.0020129659 4.8859726e-17)
(0.030924729 -0.0031021004 -1.6294543e-17)
(0.022307898 -0.0024422917 9.8947795e-18)
(0.014310452 -0.0012007709 -1.8675396e-17)
(0.0015063826 0.0016607854 4.4679032e-17)
(-0.010256636 0.0071582954 1.2064241e-17)
(-0.027659162 0.0115447 2.2602571e-17)
(-0.042260956 0.012338839 -8.4625066e-18)
(-0.042982273 0.0089829494 3.9461769e-18)
(-0.030033203 0.0012299463 -4.4348707e-18)
(-0.016988229 -0.0096412891 -1.1984843e-17)
(-0.013709034 -0.013995733 5.4923581e-19)
(-0.048181268 0.0083147699 1.2845408e-17)
(-0.076738382 0.032156217 -1.9573517e-17)
(-0.091974633 0.043105462 4.077729e-17)
(-0.073975343 0.042527841 -4.3753653e-17)
(-0.0091634426 0.020509139 -2.5895099e-16)
(0.014689003 -0.011380896 4.8372541e-17)
(0.067271756 -0.035161815 2.7475692e-17)
(0.12776316 -0.042673814 1.4242978e-16)
(0.12540826 -0.030320952 -6.8309442e-18)
(0.10303573 -0.0065408597 -9.3657635e-18)
(0.076458433 0.021739995 3.5115986e-18)
(0.044572696 0.04334323 1.6106012e-17)
(0.0061138284 0.054631861 4.0753763e-17)
(-0.015277698 0.048782268 -2.9324999e-18)
(-0.010088204 0.028756648 -7.6025789e-19)
(0.023319649 0.0066393433 6.6240952e-18)
(0.064097602 -0.0085416156 -2.386839e-18)
(0.099663818 -0.011291837 -4.4670275e-17)
(0.1123895 0.016521018 7.0940361e-17)
(0.067792953 0.042997737 1.8008475e-17)
(0.018957943 0.033116206 5.6690667e-17)
(0.0013376545 0.017604691 -1.6729252e-17)
(0.0049606207 0.011534474 1.1328749e-17)
(0.0044822973 0.0071891536 -3.521029e-18)
(0.0014698548 0.0034915876 -7.0532728e-18)
(-0.0023165381 0.0011852076 -1.1908539e-18)
(0.00094782423 0.00046439753 8.1718869e-20)
(-0.0031195894 4.1242325e-05 1.8279185e-19)
(0.0020589735 -4.9798126e-05 2.499185e-20)
(-0.004020168 -1.2241521e-05 1.79192e-20)
(0.012133595 2.1859161e-05 2.1500658e-21)
(0.0039199372 -1.9064984e-05 9.4202876e-22)
(0.018904533 -0.00017923988 1.0433453e-21)
(0.011547836 -0.00039828523 8.6087284e-20)
(0.016232645 -0.0010962277 -2.5663762e-19)
(0.0058881358 -0.00058280689 2.4527352e-19)
(0.0035706659 -0.00047560393 -1.5245712e-19)
(-0.0063146244 0.0017309074 8.3580563e-19)
(-0.0065218174 0.0023345708 -5.6272851e-19)
(-0.0093207116 0.0041402729 -2.0287248e-20)
(-0.0061746941 0.0028785422 -2.7186044e-19)
(-0.0069452307 0.0036142378 5.9432002e-19)
(-0.0056727396 0.0040875881 3.2750226e-18)
(-0.0015861207 0.0025737923 -8.2052893e-19)
(1.2634731e-05 0.00087762108 -4.7647774e-19)
(-0.0027479436 0.001465264 7.8615511e-20)
(-0.0024813667 0.00022344819 -1.8248027e-19)
(-0.00066194759 -0.00015537242 -7.9476447e-19)
(-0.001355315 0.0019191228 -1.9790533e-18)
(-0.0029773695 0.0027255498 1.1961648e-18)
(-0.0036077599 0.0029583343 1.4417004e-18)
(-0.0043830966 0.0036829899 3.2886107e-19)
(-0.0046453576 0.00395274 -9.7171624e-19)
(-0.0048868699 0.0041392603 2.5459758e-18)
(-0.0050039477 0.0042075009 -7.9737868e-20)
(-0.0049433276 0.0041525287 1.3800097e-18)
(-0.0048332948 0.004006025 -1.3120179e-18)
(-0.0046709991 0.0038060432 -8.7726924e-19)
(-0.004418665 0.0036001793 -4.3813519e-20)
(-0.0041697341 0.0033827486 -9.3672379e-19)
(-0.0039394637 0.0031900375 3.3713369e-19)
(-0.003736697 0.0030022449 2.9154093e-19)
(-0.0035106567 0.0028352192 1.0814698e-18)
(-0.0033458692 0.0027264644 -4.2229365e-20)
(-0.0032767483 0.0026987796 2.2498834e-18)
(-0.003102985 0.0025591376 1.6619781e-18)
(-0.0028999874 0.0024815221 3.5708249e-19)
(-0.0031453125 0.0028654402 -1.044704e-19)
(-0.0029419257 0.0028379508 -1.6412696e-19)
(-0.0008723124 0.0020302104 5.9546581e-19)
(-0.0032083319 0.0030133748 -1.4743223e-20)
(-0.005547998 0.0024157897 1.3654705e-18)
(-0.0028608553 0.001085702 1.0863912e-18)
(-0.002599772 0.0015313754 5.194069e-21)
(-0.0029401313 0.0018725536 -3.2984277e-18)
(-0.0027742308 0.0016442547 1.1386111e-18)
(-0.0027121789 0.0015713269 1.3475263e-18)
(-0.0027869074 0.0015773145 1.0962542e-18)
(-0.0026708804 0.0014295719 1.6613068e-19)
(-0.0025737677 0.0012836997 -4.2551228e-19)
(-0.0024956932 0.0011635655 1.5380352e-18)
(-0.0023574042 0.0010183224 4.0049431e-19)
(-0.0021907165 0.00086637262 1.8524245e-19)
(-0.0019925558 0.00071325834 1.686324e-18)
(-0.0017746683 0.00056859262 -1.0234711e-18)
(-0.0015119013 0.00042729743 -1.1881304e-18)
(-0.0012712219 0.00031028589 3.6636889e-19)
(-0.00096821466 0.0001977921 -4.7789478e-19)
(-0.00079573745 0.0001316571 4.9808686e-19)
(-0.00057067168 7.2550342e-05 1.0807621e-18)
(-0.00063562215 5.85139e-05 6.3780092e-20)
(-0.00065187627 3.9175196e-05 -3.0558587e-20)
(-0.0013141784 3.2295937e-05 5.679929e-20)
(-0.0024528368 1.9377402e-05 -6.3491525e-23)
(-0.003290763 1.8416978e-05 3.7605604e-24)
(-0.0042089227 1.8548613e-05 1.3395809e-23)
(-0.0050049275 1.8215753e-05 -2.9458558e-23)
(-0.0058211225 1.7798325e-05 1.3421702e-23)
(-0.0065435633 1.742356e-05 1.360818e-23)
(-0.0072574818 1.7134084e-05 -3.0233466e-23)
(-0.0079076733 1.7019698e-05 1.3658891e-23)
(-0.0085477483 1.6721511e-05 1.393796e-23)
(-0.0091388194 1.669506e-05 1.4264216e-23)
(-0.0097136228 1.6381863e-05 -1.1329109e-23)
(-0.010259265 1.6390578e-05 -5.8487834e-24)
(-0.010790103 1.599115e-05 -1.2505331e-23)
(-0.011295755 1.5979729e-05 1.4842188e-23)
(-0.011777706 1.5691159e-05 -6.1910816e-24)
(-0.01224334 1.5616967e-05 3.7946362e-23)
(-0.012656015 1.4930582e-05 -3.5023959e-23)
(-0.013057666 1.4339093e-05 1.6052633e-23)
(-0.0134074 1.3352557e-05 4.6762314e-23)
(-0.013773431 1.2714813e-05 -3.6407233e-23)
(-0.014095363 1.1321214e-05 -1.314515e-23)
(-0.014411035 1.0477314e-05 4.877027e-23)
(-0.014706859 9.0888072e-06 -3.8085339e-23)
(-0.014987956 8.2975404e-06 1.7771335e-23)
(-0.01525762 6.9579545e-06 -1.4376771e-23)
(-0.01551057 6.0364113e-06 -6.8696842e-24)
(-0.015753286 4.7792343e-06 1.8069698e-23)
(-0.015975326 4.0242731e-06 1.8199018e-23)
(-0.016181763 3.1963921e-06 -7.2266656e-23)
(-0.016357121 3.3530945e-06 5.1277542e-23)
(-0.016518409 3.1937136e-06 -1.4170815e-23)
(-0.01664578 3.4646999e-06 -4.0588885e-23)
(-0.016791799 3.3028924e-06 1.8317252e-23)
(-0.016906969 3.1425693e-06 5.2468346e-23)
(-0.016991976 2.3570924e-06 -1.1095087e-23)
(-0.017117046 1.3015267e-06 -1.4566703e-23)
(-0.017116438 2.1656528e-09 -1.1366918e-23)
(-0.017178217 -3.876394e-07 -1.1414287e-23)
(-0.017209108 -1.3014051e-06 2.3000397e-23)
(-0.017248469 -1.5239198e-06 -1.1407288e-23)
(-0.017285237 -1.6922625e-06 -1.466258e-23)
(-0.017322696 -1.56255e-06 2.2855419e-23)
(-0.017362863 -1.3876333e-06 -1.1307108e-23)
(-0.017406969 -1.2998649e-06 -1.124108e-23)
(-0.017455434 -1.3487691e-06 1.1355272e-23)
(-0.017507082 -1.6613026e-06 1.7790316e-23)
(-0.017553786 -1.6985294e-06 1.4732897e-24)
(-0.017618149 1.2394135e-08 -1.4362074e-23)
(-0.017801151 1.1432959e-06 -1.1022958e-23)
(-0.017968823 -4.3562531e-08 3.4897903e-23)
(-0.018056492 -1.2458529e-06 -5.3496071e-23)
(-0.018047204 -1.5133658e-06 4.3919654e-23)
(-0.018035764 -1.8914363e-06 -3.5880964e-23)
(-0.017968726 -2.2499183e-06 1.4129426e-23)
(-0.017891621 -2.3652804e-06 6.3367757e-24)
(-0.01779816 -2.3860233e-06 1.5064148e-24)
(-0.017698933 -2.3786524e-06 -1.0817192e-23)
(-0.017591481 -2.3705536e-06 6.7130687e-24)