y,U_0,U_1,U_2
0,0,0,0
0.00048240845,-0.0071937481,-4.0959559e-07,1.4908215e-17
0.00098049384,-0.014444194,-1.8108531e-06,-4.2619984e-26
0.0014947656,-0.021803641,-4.1897423e-06,1.9612893e-25
0.0020257498,-0.02926733,-7.6726032e-06,1.3428366e-26
0.0025739895,-0.036829819,-1.2373033e-05,2.6856874e-25
0.0031400454,-0.044484683,-1.8398847e-05,5.693849e-25
0.0037244966,-0.052224132,-2.5869838e-05,-8.3530517e-25
0.0043279408,-0.060038439,-3.4914406e-05,-7.0179295e-25
0.0049509953,-0.067915078,-4.5669934e-05,-3.8769115e-25
0.0055942973,-0.075837529,-5.8282958e-05,-2.4018794e-24
0.0062585048,-0.083783679,-7.2909461e-05,-3.2987666e-24
0.0069442972,-0.091723876,-8.9714352e-05,-2.008382e-24
0.007652376,-0.099618763,-0.000108871,-1.6672781e-24
0.0083834654,-0.1074173,-0.00013056043,-1.2996371e-24
0.0091383131,-0.11505567,-0.00015496899,-7.1971226e-25
0.0099176913,-0.12245803,-0.00018228517,1.7022047e-24
0.010722397,-0.12954005,-0.00021269565,2.335978e-24
0.011553254,-0.13621582,-0.00024637791,-2.024926e-24
0.012411111,-0.14240719,-0.00028349234,-1.2575281e-24
0.013296846,-0.14805364,-0.00032417478,1.0409056e-24
0.014211364,-0.1531197,-0.00036852916,3.0881118e-25
0.015155603,-0.15759765,-0.00041662559,2.0136548e-25
0.016130526,-0.16150521,-0.00046850266,1.1226806e-24
0.017137132,-0.16487946,-0.00052417314,1.430641e-24
0.018176449,-0.16776933,-0.0005836328,-1.884337e-24
0.019249542,-0.17022873,-0.00064686846,-3.5721801e-24
0.020357507,-0.17231129,-0.0007138656,-9.5509418e-25
0.021501477,-0.17406705,-0.000784614,-4.1051808e-25
0.022682624,-0.17554075,-0.00085911132,-1.9896901e-24
0.023902154,-0.17677127,-0.00093736536,-1.0452241e-24
0.025161316,-0.17779183,-0.001019395,5.0623841e-25
0.026461397,-0.17863043,-0.0011052304,2.2075482e-24
0.027803728,-0.17931051,-0.0011949127,1.7038165e-24
0.02918968,-0.17985166,-0.0012884939,1.6405154e-27
0.030620672,-0.1802702,-0.0013860353,3.4476595e-25
0.032098167,-0.18057972,-0.001487608,-8.5059533e-25
0.033623676,-0.18079156,-0.0015932914,-1.2830162e-24
0.03519876,-0.18091521,-0.001703173,3.6762638e-25
0.03682503,-0.1809586,-0.0018173481,-2.1270438e-25
0.03850415,-0.18092836,-0.0019359191,-9.1321932e-25
0.040237836,-0.18083007,-0.0020589954,-7.0689388e-25
0.042027862,-0.18066839,-0.0021866929,-5.3234048e-25
0.043876059,-0.18044723,-0.0023191342,-1.2921038e-24
0.045784317,-0.18016986,-0.0024564478,-1.7693373e-24
0.047754588,-0.17983898,-0.0025987688,-3.2868204e-26
0.049788888,-0.17945686,-0.0027462381,1.4030629e-24
0.051889297,-0.17902532,-0.0028990029,1.2358545e-25
0.054057963,-0.17854585,-0.0030572163,8.6635182e-26
0.056297104,-0.17801963,-0.0032210375,5.7862538e-25
0.058609012,-0.17744755,-0.0033906318,5.0794988e-25
0.06099605,-0.17683026,-0.0035661706,2.266612e-24
0.06346066,-0.17616819,-0.0037478316,-2.1256483e-24
0.066005363,-0.17546156,-0.0039357988,-1.9863008e-24
0.068632762,-0.17471042,-0.0041302624,4.6376905e-25
0.071345544,-0.17391464,-0.0043314193,-1.5159106e-24
0.074146484,-0.1730739,-0.0045394729,-1.4580376e-24
0.077038447,-0.17218776,-0.0047546335,-1.2685488e-24
0.08002439,-0.17125562,-0.004977118,2.2708658e-25
0.083107369,-0.17027674,-0.0052071506,-5.3704638e-26
0.086290535,-0.16925022,-0.0054449625,8.0603504e-25
0.089577146,-0.16817504,-0.0056907922,-4.6088809e-25
0.092970562,-0.16705004,-0.0059448858,-1.1553961e-24
0.096474255,-0.1658739,-0.0062074972,4.454132e-24
0.10009181,-0.1646452,-0.0064788879,6.6450203e-24
0.10382692,-0.16336231,-0.0067593275,1.3216184e-24
0.10768342,-0.16202351,-0.007049094,1.0378274e-25
0.11166524,-0.1606269,-0.0073484737,1.5946469e-24
0.11577645,-0.15917041,-0.0076577615,1.9077317e-24
0.12002127,-0.15765183,-0.0079772612,4.6444701e-24
0.12440404,-0.15606875,-0.0083072857,2.553926e-24
0.12892923,-0.15441857,-0.0086481572,-7.1566795e-24
0.13360148,-0.15269853,-0.0090002073,-1.0139494e-23
0.13842557,-0.15090562,-0.0093637774,-2.9698483e-24
0.14340642,-0.14903665,-0.0097392189,2.3101424e-24
0.14854914,-0.14708815,-0.010126893,6.8853203e-24
0.15385898,-0.14505645,-0.010527173,5.6004795e-24
0.15934138,-0.14293759,-0.01094044,3.4291721e-24
0.16500194,-0.14072731,-0.011367088,2.9959275e-24
0.17084645,-0.13842107,-0.011807523,-4.6884766e-24
0.17688089,-0.136014,-0.012262159,-3.1558319e-24
0.18311143,-0.13350087,-0.012731425,3.8676444e-24
0.18954445,-0.13087608,-0.01321576,5.1372226e-24
0.19618653,-0.12813362,-0.013715616,3.4563997e-24
0.20304445,-0.12526705,-0.014231457,8.9819408e-24
0.21012524,-0.12226947,-0.014763758,9.6134968e-24
0.21743614,-0.11913345,-0.015313008,1.1575693e-23
0.22498461,-0.11585104,-0.015879708,1.200901e-23
0.23277839,-0.1124137,-0.01646437,-2.2040467e-26
0.24082545,-0.10881225,-0.017067524,9.1228329e-24
0.24913402,-0.10503684,-0.017689705,1.0557532e-23
0.25771259,-0.10107689,-0.018331463,1.7204982e-25
0.26656994,-0.096921001,-0.018993362,5.1757748e-24
0.27571513,-0.092556927,-0.019675977,3.0533795e-23
0.28515751,-0.087971528,-0.020379889,2.3801836e-23
0.29490674,-0.083150674,-0.021105691,4.2216851e-23
0.3049728,-0.078079161,-0.021853985,7.7521796e-23
0.31536597,-0.072740633,-0.022625376,5.2268686e-23
0.3260969,-0.0671175,-0.023420474,1.7236438e-23
0.33717655,-0.061190844,-0.024239889,2.3572504e-23
0.34861625,-0.054940323,-0.025084226,1.9776677e-23
0.36042772,-0.048344067,-0.025954082,-1.2208507e-23
0.37262303,-0.041378575,-0.026850037,-4.0857426e-23
0.38521464,-0.034018596,-0.027772646,-4.6833422e-23
0.39821546,-0.026237022,-0.028722431,-1.2686381e-23
0.41163876,-0.018004768,-0.029699863,2.7810611e-23
0.42549828,-0.0092906596,-0.030705346,-1.1030372e-24
0.4398082,-6.1322374e-05,-0.031739208,4.2779919e-24
0.45458315,0.0097178431,-0.032801526,6.7261283e-23
0.46983824,0.020083805,-0.033892306,-3.3733308e-23
0.48558908,0.031077058,-0.035011926,-8.7598006e-23
0.50185179,0.04274063,-0.036159999,-2.0135843e-25
0.51864298,0.055144135,-0.0373341,3.5473058e-23
0.53597984,0.068467667,-0.038534538,3.6495643e-23
0.5538801,0.082993117,-0.039765534,-1.4801871e-24
0.57236207,0.098927581,-0.041023918,4.3409649e-23
0.59144465,0.1163258,-0.042299694,4.939771e-23
0.61114736,0.13515311,-0.043583606,2.851641e-23
0.63149036,0.1553438,-0.044866096,1.2186464e-22
0.65249445,0.17684102,-0.046137072,2.9379884e-23
0.67418111,0.19961352,-0.047386023,1.8046078e-22
0.69657252,0.2236538,-0.048601874,2.7244631e-22
0.7196916,0.24896361,-0.049772684,1.221733e-22
0.74356198,0.27553523,-0.050885473,6.2615595e-23
0.76820808,0.30333875,-0.05192646,3.8330707e-23
0.79365511,0.33231477,-0.05288148,3.2669085e-22
0.8199291,0.36236835,-0.053736451,2.6880831e-22
0.84705692,0.39336575,-0.054477837,-2.9160755e-22
0.87506632,0.42513435,-0.055093146,-2.370242e-22
0.90398595,0.4574648,-0.05557138,-2.0603768e-22
0.93384539,0.49011514,-0.055903439,-5.0451856e-22
0.96467517,0.52281684,-0.056082498,-1.7254412e-22
0.99650683,0.55528324,-0.056104441,3.0578044e-23
1.0293729,0.58722183,-0.055968417,1.381213e-23
1.0633071,0.61835122,-0.055677484,1.291548e-22
1.098344,0.64842304,-0.055239151,3.2715781e-22
1.1345196,0.67724659,-0.054665431,1.8347477e-22
1.1718707,0.7047103,-0.053971944,-2.1619642e-23
1.2104356,0.73079267,-0.053176078,1.1663558e-22
1.2502538,0.75555686,-0.052294277,-3.5675551e-23
1.291366,0.77912895,-0.051339628,2.6407919e-22
1.3338142,0.80166911,-0.050321174,5.6898558e-22
1.3776419,0.8233536,-0.04923025,3.368956e-22
1.4228938,0.84433957,-0.048057158,1.7334744e-22
1.4696163,0.86470992,-0.046805973,1.8903424e-22
1.5178571,0.88436004,-0.045501256,6.8688613e-22
1.566098,0.90291142,-0.044193768,4.2619143e-22
1.6128205,0.92006284,-0.042923108,-2.8325488e-23
1.6580724,0.9358519,-0.041700399,9.1801461e-23
1.7019001,0.95043594,-0.040523539,3.3260337e-22
1.7443483,0.96395051,-0.039389373,-1.1327108e-22
1.7854605,0.97651096,-0.038294529,-4.1711423e-22
1.8252786,0.98821383,-0.037235875,-1.5778999e-22
1.8638436,0.99913879,-0.036210681,-2.8389781e-22
1.9011947,1.0093511,-0.035216661,-6.1673696e-23
1.9373703,1.0189046,-0.034251935,1.5837759e-22
1.9724072,1.0278439,-0.033314978,3.8308625e-23
2.0063413,1.0362072,-0.032404552,2.9111104e-23
2.0392075,1.0440273,-0.031519638,2.3000292e-23
2.0710391,1.0513331,-0.030659385,1.4639101e-23
2.1018689,1.0581505,-0.029823064,-3.2472844e-24
2.1317283,1.0645027,-0.029010026,-6.2313029e-24
2.160648,1.070411,-0.028219676,9.9616972e-24
2.1886574,1.0758949,-0.027451458,-4.5470433e-23
2.2157852,1.0809724,-0.026704831,-1.3215299e-22
2.2420592,1.0856599,-0.025979268,-6.8786493e-23
2.2675062,1.0899728,-0.025274243,5.2287552e-23
2.2921523,1.0939249,-0.024589227,-6.8285278e-23
2.3160227,1.0975293,-0.023923698,6.0199978e-23
2.3391418,1.1007976,-0.023277118,-5.5060581e-23
2.3615332,1.1037403,-0.022648946,-1.7325525e-23
2.3832198,1.1063667,-0.022038646,-4.7419081e-23
2.4042239,1.1086852,-0.021445673,-2.2218497e-22
2.4245669,1.1107031,-0.02086948,-1.465374e-22
2.4442696,1.1124264,-0.020309523,1.8095435e-23
2.4633522,1.1138606,-0.019765263,2.2205502e-22
2.4818342,1.1150098,-0.019236164,1.1814388e-22
2.4997344,1.1158777,-0.018721698,1.2566024e-22
2.5170713,1.1164672,-0.018221348,3.2268027e-23
2.5338625,1.1167804,-0.017734609,-1.4185969e-22
2.5501252,1.1168193,-0.017260991,1.7377886e-23
2.565876,1.1165857,-0.016800021,1.322129e-22
2.5811311,1.1160811,-0.016351246,5.9387726e-23
2.5959061,1.1153074,-0.015914234,-8.4988203e-23
2.610216,1.1142669,-0.015488574,-1.9662185e-22
2.6240755,1.1129624,-0.01507388,-7.8952983e-23
2.6374988,1.1113976,-0.014669786,-7.5711227e-24
2.6504996,1.109577,-0.014275951,3.783369e-23
2.6630913,1.1075059,-0.013892049,7.8878571e-23
2.6752866,1.1051908,-0.013517778,-1.1262459e-23
2.687098,1.1026391,-0.013152849,7.3700688e-24
2.6985377,1.0998589,-0.012796986,5.7957418e-23
2.7096174,1.0968591,-0.012449922,3.4084293e-23
2.7203483,1.0936491,-0.012111397,-9.5585132e-23
2.7307415,1.0902386,-0.01178116,-1.2131323e-22
2.7408075,1.0866376,-0.011458958,-2.309605e-23
2.7505568,1.082856,-0.011144541,6.5389924e-23
2.7599992,1.0789032,-0.010837662,1.150413e-22
2.7691443,1.0747885,-0.010538072,2.8871727e-23
2.7780017,1.0705207,-0.010245523,-2.2217087e-23
2.7865803,1.0661078,-0.0099597692,-4.034857e-24
2.7948888,1.061557,-0.0096805657,-3.6952831e-23
2.8029359,1.0568752,-0.0094076727,-2.9808987e-23
2.8107297,1.0520681,-0.0091408547,-1.4687957e-23
2.8182781,1.0471409,-0.0088798829,2.5141713e-25
2.825589,1.0420978,-0.0086245365,1.9349174e-23
2.8326698,1.0369426,-0.008374604,2.2833074e-23
2.8395278,1.0316782,-0.0081298852,3.3613605e-23
2.8461698,1.0263071,-0.0078901915,9.3911008e-24
2.8526028,1.0208311,-0.0076553478,2.6513842e-23
2.8588334,1.0152516,-0.0074251927,4.0458069e-23
2.8648678,1.0095696,-0.0071995793,1.9976718e-23
2.8707123,1.0037858,-0.0069783759,1.6658942e-23
2.8763729,0.99790041,-0.0067614658,-6.6689661e-25
2.8818553,0.99191372,-0.0065487474,-2.0362475e-23
2.8871651,0.98582566,-0.0063401346,-2.6727791e-23
2.8923079,0.97963612,-0.0061355517,-2.4027319e-23
2.8972887,0.97334493,-0.0059349426,2.2390019e-23
2.9021128,0.9669519,-0.0057383027,1.8813946e-23
2.9067851,0.96045501,-0.0055455111,-4.0827643e-24
2.9113102,0.95384479,-0.0053562676,1.4610993e-23
2.915693,0.94710548,-0.0051701202,2.0397608e-23
2.9199378,0.94022492,-0.0049867137,1.5579348e-23
2.924049,0.9331975,-0.00480596,1.540612e-23
2.9280309,0.92602087,-0.0046278412,1.9579864e-23
2.9318874,0.91869437,-0.00445239,2.1186471e-23
2.9356225,0.9112183,-0.004279683,-1.0254501e-23
2.93924,0.90359362,-0.0041098227,-2.1388536e-23
2.9427437,0.89582181,-0.003942927,-4.6654602e-24
2.9461371,0.88790476,-0.0037791226,-1.7061304e-24
2.9494237,0.87984475,-0.0036185407,-1.5423545e-23
2.9526069,0.87164428,-0.0034613129,-9.7486273e-24
2.9556899,0.86330608,-0.0033075675,1.6651713e-23
2.9586758,0.85483291,-0.0031574271,1.1471476e-23
2.9615678,0.84622751,-0.0030110051,-5.0958954e-24
2.9643687,0.83749245,-0.0028684037,-1.7418928e-23
2.9670815,0.82863001,-0.0027297126,-8.7650777e-24
2.9697089,0.8196421,-0.0025950077,1.5332388e-23
2.9722536,0.81053007,-0.0024643498,1.5545074e-23
2.9747182,0.80129471,-0.0023377852,6.1329453e-24
2.9771053,0.79193604,-0.002215345,-4.1221126e-25
2.9794172,0.78245332,-0.0020970459,-1.2549905e-24
2.9816563,0.77284495,-0.0019828905,1.3613414e-24
2.983825,0.76310837,-0.0018728687,-3.6641226e-25
2.9859254,0.75323998,-0.0017669571,-2.1950404e-24
2.9879597,0.74323507,-0.0016651214,-3.8725118e-24
2.98993,0.73308775,-0.0015673163,5.8803632e-25
2.9918382,0.72279089,-0.0014734872,1.0418265e-24
2.9936864,0.71233605,-0.0013835711,-1.9481495e-25
2.9954764,0.70171337,-0.0012974976,-7.2170716e-25
2.9972101,0.69091158,-0.0012151898,-1.3473848e-24
2.9988893,0.67991783,-0.0011365653,8.8103591e-25
3.0005155,0.66871773,-0.0010615371,-5.7863641e-25
3.0020906,0.65729519,-0.00099001408,-3.6492922e-25
3.0036161,0.64563242,-0.00092190233,4.092277e-24
3.0050936,0.63370984,-0.00085710548,1.9223237e-24
3.0065246,0.62150608,-0.00079552558,2.6697017e-25
3.0079106,0.60899793,-0.00073706366,6.1267955e-25
3.0092529,0.59616038,-0.00068162041,2.032573e-25
3.010553,0.58296669,-0.00062909699,-8.3375565e-25
3.0118121,0.56938841,-0.00057939521,-5.6774806e-24
3.0130317,0.55539558,-0.00053241814,-5.6298498e-24
3.0142128,0.54095729,-0.00048807116,-1.9050775e-24
3.0153568,0.52604224,-0.000446262,-7.0791818e-25
3.0164647,0.51061911,-0.00040690015,3.664377e-24
3.0175378,0.49465693,-0.00036990045,2.9005653e-24
3.0185772,0.47812375,-0.00033518562,2.3146289e-25
3.0195838,0.46097544,-0.00030263882,-1.3289856e-24
3.0205587,0.44314722,-0.00027212168,-5.1836087e-25
3.0215029,0.42457613,-0.00024350942,3.4548319e-24
3.0224174,0.40522671,-0.00021671604,3.3096992e-24
3.0233032,0.38509164,-0.0001917009,8.4352353e-25
3.024161,0.36419232,-0.00016842419,-9.1807789e-25
3.0249919,0.34258808,-0.00014685392,2.0832672e-24
3.0257966,0.3203832,-0.00012696791,2.2490172e-24
3.026576,0.29772829,-0.00010874887,-9.5833531e-27
3.0273308,0.27481263,-9.2179252e-05,1.5032219e-24
3.0280619,0.25184688,-7.7234522e-05,9.6029103e-25
3.02877,0.22903975,-6.3877104e-05,-1.2686302e-24
3.0294558,0.20657549,-5.2053613e-05,-1.7208001e-24
3.03012,0.18459875,-4.1695297e-05,-1.2423034e-24
3.0307633,0.16320971,-3.2721549e-05,4.4231903e-25
3.0313863,0.142468,-2.5044663e-05,7.9183349e-25
3.0319898,0.12240133,-1.8574309e-05,-6.6826789e-27
3.0325742,0.10301515,-1.3220821e-05,1.2424539e-24
3.0331403,0.084300883,-8.8973777e-06,9.6475792e-25
3.0336885,0.066241917,-5.5212446e-06,8.6971629e-26
3.0342195,0.048817428,-3.0162161e-06,-3.6591602e-25
3.0347338,0.032004769,-1.3088057e-06,-1.109447e-24
3.0352319,0.015780862,-3.1603417e-07,-6.9870816e-25
3.0357104,0.00012780473,-2.5594737e-09,-5.6600411e-27
