/*--------------------------------*- C++ -*----------------------------------*\
| =========                 |                                                 |
| \\      /  F ield         | OpenFOAM: The Open Source CFD Toolbox           |
|  \\    /   O peration     | Version:  2.4.0                                 |
|   \\  /    A nd           | Web:      www.OpenFOAM.org                      |
|    \\/     M anipulation  |                                                 |
\*---------------------------------------------------------------------------*/
FoamFile
{
    version     2.0;
    format      ascii;
    class       volScalarField;
    location    "30";
    object      nut;
}
// * * * * * * * * * * * * * * * * * * * * * * * * * * * * * * * * * * * * * //

dimensions      [0 2 -1 0 0 0 0];

internalField   nonuniform List<scalar> 
78300
(
8.3429337e-16
3.482738e-12
2.3595926e-13
2.1524758e-12
4.7756394e-13
1.2425171e-12
3.2008244e-13
5.3343891e-13
9.9644323e-14
1.9068306e-13
5.0967874e-14
1.1413601e-13
5.6404908e-14
8.7851582e-14
5.6392009e-14
7.0202697e-14
5.23795e-14
5.8696187e-14
4.9614559e-14
5.4904073e-14
5.3413853e-14
6.2048653e-14
6.9271596e-14
8.7790725e-14
1.1177351e-13
1.4988097e-13
1.9946376e-13
2.6800509e-13
3.5340062e-13
4.6030371e-13
5.8675711e-13
7.2906398e-13
8.7507707e-13
1.0217247e-12
1.1463913e-12
1.2315295e-12
1.2529588e-12
1.204018e-12
1.085511e-12
9.0770358e-13
6.9186019e-13
4.6092184e-13
2.4587668e-13
8.736846e-14
2.2231783e-14
1.1305878e-13
3.3291071e-13
7.0843503e-13
1.2773662e-12
2.0686305e-12
3.0849315e-12
4.3213265e-12
5.7527476e-12
7.3034448e-12
8.9295492e-12
1.049419e-11
1.1988158e-11
1.3213526e-11
1.4297327e-11
1.4958044e-11
1.5755694e-11
1.5950509e-11
1.7954678e-11
1.8558173e-11
1.4157526e-11
9.1588001e-12
4.7628828e-12
1.8999274e-12
4.8070844e-13
5.2724496e-14
1.8342693e-15
2.1555035e-14
9.3677925e-15
5.7734652e-15
5.8700048e-15
1.1182397e-13
9.4602237e-13
1.906295e-12
1.5488103e-12
3.9986977e-13
2.8654493e-14
6.2803282e-13
1.59533e-12
2.3636285e-12
2.6445134e-12
2.5599869e-12
2.3276458e-12
2.1362895e-12
2.0702368e-12
2.1462385e-12
2.3300336e-12
2.5789576e-12
2.8580693e-12
3.1546775e-12
3.4562238e-12
3.7451689e-12
3.9674196e-12
4.1078433e-12
4.1749985e-12
3.9986204e-12
3.4139406e-12
2.4882191e-12
1.4595815e-12
6.076532e-13
1.1828558e-13
3.6802629e-14
3.8486428e-13
1.0943876e-12
2.1003269e-12
3.3332652e-12
4.7305854e-12
6.2427559e-12
7.8225155e-12
9.4388529e-12
1.1068514e-11
1.2693454e-11
1.4299693e-11
1.5876701e-11
1.7416088e-11
1.8911222e-11
2.0356385e-11
2.1746824e-11
2.3078539e-11
2.4347983e-11
2.5552104e-11
2.6687958e-11
2.7753465e-11
2.8746646e-11
2.9666285e-11
3.0511579e-11
3.1282172e-11
3.1978161e-11
3.2599708e-11
3.3147256e-11
3.3621444e-11
3.4023173e-11
3.4353402e-11
3.4613223e-11
3.4803865e-11
3.4926443e-11
3.4981811e-11
3.4971212e-11
3.4896103e-11
3.4758101e-11
3.4558745e-11
3.4299008e-11
3.3980653e-11
3.3604922e-11
3.3173464e-11
3.2687828e-11
3.214951e-11
3.1560478e-11
3.09224e-11
3.0237371e-11
2.950757e-11
2.8735245e-11
2.7923124e-11
2.7073792e-11
2.619047e-11
2.5276153e-11
2.4334383e-11
2.3369031e-11
2.2383445e-11
2.1382193e-11
2.0369307e-11
1.9349039e-11
1.8326078e-11
1.7304751e-11
1.6289786e-11
1.5285625e-11
1.4296759e-11
1.3327501e-11
1.2381938e-11
1.1463976e-11
1.0577189e-11
9.7248415e-12
8.9097419e-12
8.1343486e-12
7.4006444e-12
6.7101936e-12
6.0640236e-12
5.4627913e-12
4.906584e-12
4.395168e-12
3.9277682e-12
3.5034008e-12
3.1203691e-12
2.7769609e-12
2.4707491e-12
2.1994021e-12
1.9597149e-12
1.7490394e-12
1.5635835e-12
1.4006096e-12
1.255935e-12
1.1276472e-12
1.0130908e-12
9.1208472e-13
8.2091713e-13
7.4020012e-13
6.6547657e-13
5.9942643e-13
5.3672921e-13
4.8343193e-13
4.313368e-13
3.9015893e-13
3.5059821e-13
3.1511486e-13
3.0277223e-13
3.0946661e-13
3.2757419e-13
3.4985316e-13
3.777489e-13
4.0317411e-13
4.2326739e-13
4.2830285e-13
4.119221e-13
3.6790174e-13
2.982804e-13
2.1194458e-13
1.2395719e-13
5.0566027e-14
7.6015631e-15
5.4277289e-15
4.350408e-14
1.1900592e-13
2.2747253e-13
3.6717137e-13
5.3456155e-13
7.2765951e-13
9.4395404e-13
1.1823494e-12
1.4387997e-12
1.7114108e-12
1.9865248e-12
2.2481173e-12
2.5041158e-12
2.7602396e-12
3.0184971e-12
3.2833172e-12
3.5574312e-12
3.8462917e-12
4.1555093e-12
4.4969297e-12
4.8770346e-12
5.3260755e-12
5.8581222e-12
6.5764195e-12
7.5648749e-12
8.7805984e-12
1.0260097e-11
1.2075706e-11
1.4329942e-11
1.7153323e-11
2.0725029e-11
2.5276419e-11
3.1050336e-11
3.7892447e-11
4.5466834e-11
5.1555218e-11
5.3078912e-11
4.2469775e-11
2.6054394e-11
1.03292e-11
3.4547672e-12
3.9054711e-15
1.2420216e-14
3.2956678e-12
1.6778945e-16
4.4755755e-12
7.6914106e-14
3.4592037e-12
5.2931428e-13
2.350852e-12
8.1474231e-13
1.4118049e-12
7.6683968e-13
5.3582995e-13
1.062392e-13
1.8433178e-13
5.255214e-14
1.1091134e-13
5.7500188e-14
8.7622463e-14
5.9967926e-14
7.4322632e-14
5.9747926e-14
6.7310161e-14
6.1487246e-14
6.9548704e-14
7.3169e-14
8.7747497e-14
1.0382745e-13
1.3380598e-13
1.7411651e-13
2.3380119e-13
3.123831e-13
4.1867839e-13
5.5263689e-13
7.2126053e-13
1.6365385e-12
2.1050078e-12
7.3947507e-13
1.6305062e-12
1.9139548e-12
2.1988359e-12
2.4572211e-12
2.6780318e-12
2.8550997e-12
2.983321e-12
3.0857927e-12
3.1916394e-12
3.3333864e-12
3.5385007e-12
3.7497387e-12
4.0161465e-12
4.4415157e-12
5.0565755e-12
5.8774735e-12
6.9200775e-12
8.3347369e-12
1.2907219e-11
1.8192169e-11
2.0181566e-11
2.0716987e-11
1.6590686e-11
1.8079341e-11
1.919205e-11
2.0045681e-11
2.0441834e-11
2.0907818e-11
2.0878008e-11
2.2495346e-11
2.2599627e-11
1.7380224e-11
1.1435588e-11
6.2574465e-12
2.8471028e-12
8.601648e-13
2.3672322e-13
8.0562549e-14
5.9731373e-14
4.3473511e-14
5.5824866e-14
1.0335736e-13
3.289684e-13
1.4740018e-12
2.7223908e-12
2.8230103e-12
2.0001505e-12
1.6452408e-12
2.0632968e-12
2.7164765e-12
3.4032041e-12
3.3731426e-12
3.0529724e-12
2.6725989e-12
2.4007497e-12
2.2981085e-12
2.3614734e-12
2.5354572e-12
2.7738525e-12
3.0562466e-12
3.3776116e-12
3.6659173e-12
3.9186963e-12
4.0870253e-12
4.2165064e-12
4.3402951e-12
4.3314487e-12
3.9843985e-12
3.4333307e-12
2.495051e-12
2.0773967e-12
1.9896094e-12
2.2535644e-12
2.8780258e-12
3.7952697e-12
4.94503e-12
6.2637552e-12
7.699495e-12
9.7792232e-12
1.1671014e-11
1.3356217e-11
1.5005597e-11
1.6621599e-11
1.81958e-11
1.9721133e-11
2.1191043e-11
2.2602904e-11
2.3951763e-11
2.5234247e-11
2.6448387e-11
2.7591948e-11
2.8663442e-11
2.9660918e-11
3.0583926e-11
3.1431119e-11
3.2202825e-11
3.2898507e-11
3.3519401e-11
3.4065616e-11
3.4538558e-11
3.493876e-11
3.5267657e-11
3.5526276e-11
3.5715932e-11
3.583813e-11
3.5894792e-11
3.5887589e-11
3.5817376e-11
3.5685905e-11
3.5495464e-11
3.5248309e-11
3.4946652e-11
3.4591374e-11
3.4184219e-11
3.3726411e-11
3.3219509e-11
3.2664985e-11
3.2064234e-11
3.1419073e-11
3.0731056e-11
3.0002086e-11
2.9234184e-11
2.8429387e-11
2.7590208e-11
2.6719e-11
2.5818732e-11
2.4892133e-11
2.3942463e-11
2.2973284e-11
2.1987651e-11
2.0989786e-11
1.9983361e-11
1.897236e-11
1.7961005e-11
1.695339e-11
1.5953768e-11
1.4966324e-11
1.3995124e-11
1.3044201e-11
1.2117281e-11
1.1217998e-11
1.0349628e-11
9.5151847e-12
8.7172344e-12
7.9580417e-12
7.2394255e-12
6.5628283e-12
5.9291956e-12
5.339134e-12
4.7927058e-12
4.2896958e-12
3.8294005e-12
3.4109362e-12
3.0327181e-12
2.6931924e-12
2.3900981e-12
2.121287e-12
1.8837448e-12
1.6767571e-12
1.4957526e-12
1.3351991e-12
1.1930379e-12
1.0678582e-12
9.568991e-13
8.597206e-13
7.7253854e-13
6.9571409e-13
6.2511089e-13
5.6294905e-13
5.0415089e-13
4.5446825e-13
4.0667551e-13
3.6974149e-13
3.3481402e-13
3.03453e-13
2.9526614e-13
3.0600607e-13
3.2855216e-13
3.563848e-13
3.913668e-13
4.2631517e-13
4.5846899e-13
4.7828485e-13
4.7893655e-13
4.5264163e-13
3.4091122e-13
2.3330922e-13
2.3800336e-13
1.7523188e-13
1.3331657e-13
1.2481932e-13
1.5084571e-13
3.8559031e-13
3.2294682e-13
4.4812188e-13
5.9911628e-13
7.7457579e-13
9.7235892e-13
1.1914368e-12
1.4279763e-12
1.6799978e-12
1.9341329e-12
2.1753756e-12
2.4118247e-12
2.7307417e-12
2.8650199e-12
3.1445207e-12
3.4004223e-12
3.6702737e-12
3.9595158e-12
4.2792945e-12
4.6357994e-12
5.0575046e-12
5.5579466e-12
6.2345003e-12
7.1664183e-12
8.312883e-12
9.707939e-12
1.1419953e-11
1.35457e-11
1.6208391e-11
1.957705e-11
2.3869582e-11
2.9313139e-11
3.5761463e-11
4.2892713e-11
4.8619235e-11
5.0029249e-11
4.0055029e-11
2.4606453e-11
9.8306212e-12
3.3155516e-12
6.1943949e-14
3.5003951e-14
3.1182593e-12
1.4211848e-14
4.2329866e-12
1.6801746e-12
7.1958803e-12
7.3476984e-12
8.9509681e-12
9.1989672e-12
6.3273448e-12
9.5090461e-12
1.2220179e-12
3.5237575e-13
2.843787e-13
1.4379644e-13
1.836376e-13
1.4665733e-13
1.8891044e-13
1.9918745e-13
2.4182088e-13
2.7080922e-13
3.1159561e-13
3.6036171e-13
4.3106886e-13
5.3600378e-13
6.8132277e-13
8.8579447e-13
1.1709792e-12
1.5738298e-12
2.1182723e-12
2.8477327e-12
3.8029024e-12
5.0263983e-12
6.5678236e-12
2.2917686e-11
2.9900754e-11
3.1376506e-12
1.7243929e-11
2.1159807e-11
2.5879914e-11
3.1188481e-11
3.6965807e-11
4.3062261e-11
4.9175705e-11
5.5423438e-11
6.2026723e-11
6.9135544e-11
7.6614881e-11
8.2517771e-11
8.6753673e-11
9.2112593e-11
9.8798213e-11
1.0647762e-10
1.1503165e-10
1.2824979e-10
2.0940879e-10
2.6967436e-10
2.7500587e-10
2.4862496e-10
1.5493022e-10
1.5658454e-10
1.5625753e-10
1.5352701e-10
1.4928714e-10
1.4396303e-10
1.3961409e-10
1.3581096e-10
1.265894e-10
9.9539893e-11
6.8507026e-11
4.2240549e-11
2.4045808e-11
1.0167955e-11
4.2655771e-12
1.7473181e-12
9.2278607e-13
7.888659e-13
1.1276413e-12
2.1767025e-12
5.1981668e-12
1.3443754e-11
2.3282962e-11
3.3862516e-11
3.6868767e-11
3.584399e-11
3.4013322e-11
3.0613289e-11
2.7279008e-11
2.1267834e-11
1.6094088e-11
1.2447436e-11
1.0317943e-11
9.3931734e-12
9.289794e-12
9.4853546e-12
9.8106141e-12
1.0494867e-11
1.1673511e-11
1.2059349e-11
1.1933539e-11
1.1285167e-11
1.1364925e-11
1.2714187e-11
1.5883879e-11
1.9631737e-11
2.5242848e-11
2.8260105e-11
3.4734178e-11
4.1810068e-11
4.9136207e-11
5.6507288e-11
6.3685492e-11
7.0537987e-11
7.6940021e-11
8.2899377e-11
9.2410539e-11
9.9244048e-11
1.0387143e-10
1.077791e-10
1.1113363e-10
1.1397928e-10
1.1635402e-10
1.1827363e-10
1.1980634e-10
1.2095477e-10
1.2173705e-10
1.2218703e-10
1.2232446e-10
1.2217559e-10
1.2175486e-10
1.2109209e-10
1.2019625e-10
1.1909724e-10
1.177989e-10
1.1633409e-10
1.1470326e-10
1.1293309e-10
1.1102641e-10
1.090015e-10
1.0686292e-10
1.046203e-10
1.0228485e-10
9.9874315e-11
9.7401922e-11
9.4870426e-11
9.2292945e-11
8.9690313e-11
8.7079661e-11
8.4478628e-11
8.1887445e-11
7.9309539e-11
7.6747286e-11
7.4202411e-11
7.1676654e-11
6.9171204e-11
6.668716e-11
6.4225799e-11
6.1787655e-11
5.9374168e-11
5.6985776e-11
5.4624008e-11
5.2289582e-11
4.9984222e-11
4.770898e-11
4.5465623e-11
4.3256133e-11
4.1081705e-11
3.894507e-11
3.6847504e-11
3.4792695e-11
3.2781118e-11
3.0817389e-11
2.8901893e-11
2.7038984e-11
2.5229617e-11
2.3477404e-11
2.1783724e-11
2.0151457e-11
1.8582216e-11
1.7077948e-11
1.5639741e-11
1.4268955e-11
1.2966529e-11
1.1733369e-11
1.0570042e-11
9.4769623e-12
8.4538193e-12
7.5005155e-12
6.6168754e-12
5.8028687e-12
5.0571298e-12
4.379253e-12
3.767401e-12
3.220319e-12
2.7349615e-12
2.3501181e-12
2.0406283e-12
1.7290079e-12
1.458376e-12
1.2371909e-12
1.0574941e-12
9.1329886e-13
7.9470861e-13
6.9761074e-13
6.1893204e-13
5.5483357e-13
4.985819e-13
4.5735951e-13
4.3382695e-13
4.3361046e-13
4.4522778e-13
4.5154636e-13
5.1223149e-13
6.1247724e-13
7.4616976e-13
9.1269133e-13
1.1241868e-12
1.3820837e-12
1.682363e-12
2.0076151e-12
2.3339278e-12
2.6184816e-12
1.8949892e-12
1.7277347e-12
2.981727e-12
2.9489294e-12
2.8105413e-12
2.6579285e-12
2.518547e-12
5.8116983e-12
2.5162349e-12
2.5044519e-12
2.5232277e-12
2.5730866e-12
2.6560552e-12
2.7712297e-12
2.9142004e-12
3.0795543e-12
3.2440939e-12
3.3927192e-12
3.5449704e-12
4.6602274e-12
3.8431375e-12
4.3083748e-12
4.5280741e-12
4.7602024e-12
5.0158683e-12
5.3063061e-12
5.6384955e-12
6.0412634e-12
6.5296572e-12
7.2039248e-12
8.1622006e-12
9.3512685e-12
1.0797581e-11
1.2572076e-11
1.4777673e-11
1.7545194e-11
2.105272e-11
2.5527167e-11
3.1195715e-11
3.7919356e-11
4.5332951e-11
5.1385893e-11
5.2911884e-11
4.3364373e-11
2.7541825e-11
1.2632707e-11
4.7794827e-12
1.3174905e-12
5.3404272e-13
3.5310197e-12
3.0687402e-13
4.764813e-12
1.366176e-11
3.6625662e-11
5.8465262e-11
5.8483921e-11
7.2171642e-11
4.308257e-11
7.6891868e-11
6.5639365e-12
2.2160894e-12
1.133208e-12
8.4144114e-13
7.8476143e-13
8.3198855e-13
9.8190945e-13
1.249744e-12
1.5075135e-12
1.8439065e-12
2.1313527e-12
2.5730597e-12
3.1040921e-12
3.9474067e-12
5.0521335e-12
6.6365412e-12
8.7961731e-12
1.1862919e-11
1.5970836e-11
2.1486193e-11
2.86829e-11
3.7929882e-11
4.9824676e-11
1.8688607e-10
2.413178e-10
2.0884913e-11
1.3499593e-10
1.6557453e-10
2.0349232e-10
2.4656402e-10
2.9386428e-10
3.4417477e-10
3.9496963e-10
4.4706777e-10
5.0214026e-10
5.6124752e-10
6.2312828e-10
6.7171201e-10
7.0573738e-10
7.4808091e-10
8.0037018e-10
8.5972722e-10
9.2559303e-10
1.0336488e-09
1.7125439e-09
2.1043252e-09
2.123448e-09
1.8831161e-09
1.1753706e-09
1.177407e-09
1.1666107e-09
1.1380838e-09
1.1002614e-09
1.0530337e-09
1.0172205e-09
9.7486655e-10
8.9760796e-10
7.082973e-10
4.9104237e-10
3.0811219e-10
1.8019073e-10
8.0089788e-11
3.4442583e-11
1.4219142e-11
7.3912386e-12
6.3678086e-12
9.14183e-12
1.7672273e-11
4.1633239e-11
1.0163017e-10
1.7623507e-10
2.6678136e-10
2.9781418e-10
2.9156352e-10
2.7328477e-10
2.4015784e-10
2.033161e-10
1.5371028e-10
1.1300307e-10
8.5330564e-11
6.9496424e-11
6.2512521e-11
6.1230169e-11
6.1694427e-11
6.2803506e-11
6.6582636e-11
7.4212039e-11
7.5502584e-11
7.2797543e-11
6.6308686e-11
6.609972e-11
7.6414158e-11
1.0268706e-10
1.3598801e-10
1.8608267e-10
2.2167407e-10
2.7915229e-10
3.3948676e-10
3.9955259e-10
4.5755817e-10
5.1194618e-10
5.6200555e-10
6.0711313e-10
6.4767928e-10
7.0420986e-10
7.442101e-10
7.7087148e-10
7.9214086e-10
8.0912223e-10
8.2219193e-10
8.3169922e-10
8.3781402e-10
8.4111576e-10
8.4165996e-10
8.396167e-10
8.3528203e-10
8.2883134e-10
8.2049144e-10
8.1039642e-10
7.9879503e-10
7.8577054e-10
7.7156775e-10
7.5622186e-10
7.3999655e-10
7.228945e-10
7.0512718e-10
6.8671414e-10
6.6779698e-10
6.4840661e-10
6.2861394e-10
6.0850104e-10
5.8820137e-10
5.6781401e-10
5.4735532e-10
5.2692059e-10
5.0666791e-10
4.8672407e-10
4.6722056e-10
4.4815379e-10
4.2954032e-10
4.1139161e-10
3.9371159e-10
3.7650481e-10
3.5977183e-10
3.4350964e-10
3.2771844e-10
3.1239005e-10
2.9752291e-10
2.8310714e-10
2.6913869e-10
2.5560788e-10
2.4250932e-10
2.2983356e-10
2.1757366e-10
2.0572236e-10
1.9426932e-10
1.8320916e-10
1.7252812e-10
1.6223032e-10
1.5229175e-10
1.4272346e-10
1.3350051e-10
1.2463122e-10
1.1609659e-10
1.0789982e-10
1.0002768e-10
9.247996e-11
8.5248364e-11
7.8329088e-11
7.1714185e-11
6.5399937e-11
5.9382148e-11
5.3658791e-11
4.8228362e-11
4.3090303e-11
3.8241686e-11
3.368318e-11
2.9418038e-11
2.5451904e-11
2.1784015e-11
1.8421347e-11
1.5363718e-11
1.2615006e-11
1.0169938e-11
8.1600961e-12
6.4919308e-12
4.9605381e-12
3.7136544e-12
2.7678445e-12
2.0651378e-12
1.5572736e-12
1.1890899e-12
9.2459823e-13
7.6922952e-13
6.7191984e-13
6.1553695e-13
6.1705015e-13
7.5068271e-13
1.0001128e-12
1.3446191e-12
1.7282238e-12
2.285068e-12
3.0440163e-12
4.0018115e-12
5.1967112e-12
6.7170904e-12
8.6224007e-12
1.0897532e-11
1.3461381e-11
1.6160735e-11
1.8708438e-11
1.3368935e-11
1.3307173e-11
2.3565312e-11
2.3731627e-11
2.2841239e-11
2.1606343e-11
2.0178142e-11
4.6301463e-11
1.8755498e-11
1.7753804e-11
1.6905856e-11
1.6154764e-11
1.5530034e-11
1.5030945e-11
1.4646254e-11
1.4344168e-11
1.4021761e-11
1.3654031e-11
1.3326235e-11
1.8075832e-11
1.2233993e-11
1.3523442e-11
1.3542871e-11
1.3577989e-11
1.3676575e-11
1.3851007e-11
1.4114315e-11
1.4505711e-11
1.5053283e-11
1.5905978e-11
1.7323548e-11
1.9147213e-11
2.136341e-11
2.4079662e-11
2.7470723e-11
3.1757084e-11
3.7230187e-11
4.4245547e-11
5.3103399e-11
6.3678156e-11
7.5221526e-11
8.5341604e-11
8.8262052e-11
7.883654e-11
5.5755365e-11
3.5580293e-11
1.7573963e-11
1.0709432e-11
4.2661387e-12
7.3966298e-12
2.4895602e-12
9.8107888e-12
6.5755807e-11
1.6374915e-10
2.8082887e-10
2.7162312e-10
3.4621064e-10
2.0164909e-10
3.6243515e-10
2.9624039e-11
1.0271592e-11
4.8305832e-12
3.8509686e-12
3.3927273e-12
3.7870898e-12
4.4048739e-12
5.7708142e-12
6.955091e-12
8.6078518e-12
9.9554769e-12
1.2080972e-11
1.4586601e-11
1.8595699e-11
2.3816195e-11
3.1321185e-11
4.1523227e-11
5.6025818e-11
7.5427876e-11
1.0149003e-10
1.3547944e-10
1.7922516e-10
2.3682934e-10
8.8182643e-10
1.1188097e-09
9.8083982e-11
6.489268e-10
7.9315838e-10
9.753949e-10
1.1826833e-09
1.4106116e-09
1.6533358e-09
1.8986169e-09
2.1502529e-09
2.4162207e-09
2.7016104e-09
3.0005973e-09
3.2356123e-09
3.3994642e-09
3.602481e-09
3.853063e-09
4.1372883e-09
4.453515e-09
4.9767595e-09
8.0085651e-09
9.4409288e-09
9.4975685e-09
8.495653e-09
5.5637854e-09
5.5654747e-09
5.5079367e-09
5.3680182e-09
5.1857913e-09
4.9585667e-09
4.787746e-09
4.5795198e-09
4.209181e-09
3.3230343e-09
2.3065552e-09
1.4509262e-09
8.4873612e-10
3.8466141e-10
1.6590203e-10
6.8546747e-11
3.5555601e-11
3.063148e-11
4.3966847e-11
8.4967642e-11
1.997906e-10
4.80246e-10
8.41965e-10
1.2794171e-09
1.4327214e-09
1.4037775e-09
1.314223e-09
1.1523188e-09
9.6036563e-10
7.2344438e-10
5.3004356e-10
3.9904465e-10
3.2423015e-10
2.9113946e-10
2.8477472e-10
2.8643078e-10
2.9094369e-10
3.0799627e-10
3.4342591e-10
3.4872866e-10
3.3507396e-10
3.0350406e-10
3.0199284e-10
3.5061127e-10
4.7593197e-10
6.3589532e-10
8.7453651e-10
1.0624927e-09
1.3414828e-09
1.6332568e-09
1.9225619e-09
2.2006972e-09
2.4603427e-09
2.6982622e-09
2.9116523e-09
3.1026822e-09
3.3412586e-09
3.5137535e-09
3.6339379e-09
3.7294572e-09
3.8048254e-09
3.8617337e-09
3.9018448e-09
3.9259678e-09
3.9369163e-09
3.9349198e-09
3.9208262e-09
3.8960551e-09
3.8614491e-09
3.8180938e-09
3.7666375e-09
3.7082659e-09
3.6433806e-09
3.5731446e-09
3.4977282e-09
3.4183822e-09
3.335118e-09
3.248938e-09
3.1599313e-09
3.0687677e-09
2.9755894e-09
2.8807285e-09
2.7845676e-09
2.6877315e-09
2.5906927e-09
2.49352e-09
2.3966596e-09
2.3008519e-09
2.2066939e-09
2.114807e-09
2.0251736e-09
1.9378649e-09
1.8529311e-09
1.7703853e-09
1.6902438e-09
1.6125041e-09
1.5371458e-09
1.4641644e-09
1.3935144e-09
1.3251816e-09
1.2591123e-09
1.1952788e-09
1.1336273e-09
1.0741226e-09
1.0167109e-09
9.6134844e-10
9.0798956e-10
8.5657514e-10
8.0706621e-10
7.5938558e-10
7.1354037e-10
6.6940273e-10
6.2701272e-10
5.8623798e-10
5.4710525e-10
5.0951118e-10
4.7345855e-10
4.3887277e-10
4.057416e-10
3.740154e-10
3.4366689e-10
3.1465032e-10
2.8694112e-10
2.605139e-10
2.353548e-10
2.1145401e-10
1.8880728e-10
1.6740078e-10
1.4723877e-10
1.2833936e-10
1.1073261e-10
9.4420226e-11
7.9440768e-11
6.5800892e-11
5.3526217e-11
4.260132e-11
3.345322e-11
2.5778539e-11
1.8995851e-11
1.3570236e-11
9.5221962e-12
6.5760248e-12
4.5033212e-12
3.0560485e-12
2.06213e-12
1.4876642e-12
1.2350503e-12
1.1742435e-12
1.4079723e-12
2.1936043e-12
3.4890409e-12
5.2376209e-12
7.2856295e-12
9.9725856e-12
1.3564621e-11
1.8069759e-11
2.3692342e-11
3.0849273e-11
3.9847311e-11
5.0622223e-11
6.281559e-11
7.5715093e-11
8.8042391e-11
6.3663015e-11
6.6052564e-11
1.1311965e-10
1.1419039e-10
1.0999933e-10
1.0404693e-10
9.6681726e-11
2.1112729e-10
8.890044e-11
8.3340594e-11
7.8798686e-11
7.4650667e-11
7.1035696e-11
6.7952897e-11
6.5360481e-11
6.3111162e-11
6.0757616e-11
5.8232914e-11
5.5840551e-11
7.4903079e-11
4.8713196e-11
5.3260281e-11
5.2512174e-11
5.1778819e-11
5.1284319e-11
5.1048092e-11
5.1109657e-11
5.1559093e-11
5.2483047e-11
5.4261339e-11
5.7854114e-11
6.2636134e-11
6.8451482e-11
7.5565462e-11
8.448397e-11
9.5835153e-11
1.1042755e-10
1.2920642e-10
1.5282935e-10
1.8117824e-10
2.1180726e-10
2.4035947e-10
2.4935092e-10
2.3791259e-10
1.8053382e-10
1.3479034e-10
7.3201315e-11
5.1546939e-11
2.0493083e-11
2.451986e-11
1.1977566e-11
3.2185911e-11
2.3094598e-10
5.640652e-10
9.8638268e-10
9.4263581e-10
1.2161042e-09
7.0252411e-10
1.1674559e-09
1.0230519e-10
3.5747393e-11
1.6523154e-11
1.3340807e-11
1.1619833e-11
1.3098138e-11
1.5187427e-11
2.0005979e-11
2.4106903e-11
2.9903716e-11
3.4588069e-11
4.2009551e-11
5.0722169e-11
6.4684047e-11
8.2843461e-11
1.0896593e-10
1.4445074e-10
1.9491824e-10
2.6241054e-10
3.5309348e-10
4.713426e-10
6.2373779e-10
8.2863837e-10
2.851769e-09
3.546452e-09
3.6209561e-10
2.2826188e-09
2.7819367e-09
3.4218038e-09
4.1499094e-09
4.9512714e-09
5.805063e-09
6.6681927e-09
7.5536471e-09
8.4893857e-09
9.4934828e-09
1.0546796e-08
1.1376332e-08
1.1952911e-08
1.2664678e-08
1.3543591e-08
1.4540086e-08
1.5645906e-08
1.741609e-08
2.6263879e-08
2.9783999e-08
2.9975799e-08
2.7552044e-08
1.9366527e-08
1.9368845e-08
1.9158331e-08
1.8664734e-08
1.8026693e-08
1.7232289e-08
1.663706e-08
1.5904284e-08
1.4608155e-08
1.1535538e-08
8.0134224e-09
5.0470706e-09
2.938429e-09
1.3526609e-09
5.8401478e-10
2.413606e-10
1.2506245e-10
1.0760609e-10
1.5430119e-10
2.9797907e-10
6.9990465e-10
1.6689126e-09
2.969983e-09
4.4891364e-09
5.033353e-09
4.932894e-09
4.6177222e-09
4.0488771e-09
3.345777e-09
2.5188076e-09
1.8443996e-09
1.3877043e-09
1.1268495e-09
1.0112632e-09
9.8874904e-10
9.9415718e-10
1.0093224e-09
1.0678379e-09
1.1909335e-09
1.2091547e-09
1.1613018e-09
1.0505969e-09
1.0445834e-09
1.2129457e-09
1.6495543e-09
2.2077225e-09
3.0261083e-09
3.7272737e-09
4.7084292e-09
5.7337848e-09
6.7493611e-09
7.7244695e-09
8.6334823e-09
9.4651972e-09
1.0209946e-08
1.087574e-08
1.1645757e-08
1.2212231e-08
1.2621744e-08
1.2947528e-08
1.320369e-08
1.3395864e-08
1.352982e-08
1.3608372e-08
1.3641518e-08
1.362976e-08
1.3576307e-08
1.3486047e-08
1.336193e-08
1.3207735e-08
1.3025731e-08
1.2820033e-08
1.259204e-08
1.234578e-08
1.2081844e-08
1.1804564e-08
1.1513971e-08
1.1213538e-08
1.0903556e-08
1.0586344e-08
1.0262382e-08
9.93281e-09
9.5989288e-09
9.2628775e-09
8.9263197e-09
8.5894626e-09
8.2538324e-09
7.9219634e-09
7.5959261e-09
7.2778802e-09
6.9677754e-09
6.6658419e-09
6.3722482e-09
6.0870315e-09
5.8102417e-09
5.5418639e-09
5.2818198e-09
5.0300885e-09
4.7865053e-09
4.5510154e-09
4.3234261e-09
4.1036353e-09
3.8914507e-09
3.6867429e-09
3.4893199e-09
3.2990232e-09
3.115687e-09
2.9391006e-09
2.7691212e-09
2.6054741e-09
2.4481777e-09
2.2967805e-09
2.1514158e-09
2.0116164e-09
1.8774698e-09
1.7486101e-09
1.6250418e-09
1.5065003e-09
1.3929384e-09
1.2841796e-09
1.180126e-09
1.0806155e-09
9.8556051e-10
8.9487221e-10
8.0850191e-10
7.2641617e-10
6.4860125e-10
5.7501112e-10
5.0566347e-10
4.4062511e-10
3.800045e-10
3.2381258e-10
2.721888e-10
2.2516272e-10
1.8282945e-10
1.4514248e-10
1.1325192e-10
8.6370236e-11
6.306355e-11
4.4539811e-11
3.077378e-11
2.0798931e-11
1.382176e-11
8.9903084e-12
5.7062604e-12
3.7955945e-12
3.0515758e-12
2.9693727e-12
3.9337285e-12
6.7459691e-12
1.1298873e-11
1.7432491e-11
2.4825214e-11
3.4224311e-11
4.6745788e-11
6.2434636e-11
8.202013e-11
1.0695651e-10
1.3832836e-10
1.7591359e-10
2.1847426e-10
2.63529e-10
3.0680733e-10
2.2998703e-10
2.4461587e-10
3.9743197e-10
4.014212e-10
3.8668462e-10
3.6573327e-10
3.3860014e-10
6.6685009e-10
3.1075673e-10
2.8993719e-10
2.7374664e-10
2.5891936e-10
2.4591172e-10
2.3471909e-10
2.2520131e-10
2.1684204e-10
2.0811113e-10
1.9882418e-10
1.897873e-10
2.4913604e-10
1.6384792e-10
1.7752327e-10
1.7447461e-10
1.7137394e-10
1.6906415e-10
1.6758742e-10
1.670658e-10
1.6775125e-10
1.6991683e-10
1.7467686e-10
1.8517389e-10
1.9928021e-10
2.1646938e-10
2.3745837e-10
2.6380453e-10
2.9740935e-10
3.4069314e-10
3.9642219e-10
4.663354e-10
5.5024681e-10
6.4035261e-10
7.2594927e-10
7.5320806e-10
7.3444658e-10
5.6983817e-10
4.4406255e-10
2.4823681e-10
1.8104377e-10
7.1964742e-11
7.8331123e-11
4.2069589e-11
1.0242182e-10
6.5892477e-10
1.5958753e-09
2.8161669e-09
2.6731499e-09
3.4734951e-09
1.998471e-09
2.8762121e-09
2.9007122e-10
1.0177272e-10
4.6789687e-11
3.7858868e-11
3.2869168e-11
3.7137972e-11
4.3014754e-11
5.6739934e-11
6.836226e-11
8.4855992e-11
9.814543e-11
1.1922261e-10
1.4392578e-10
1.8353402e-10
2.3502848e-10
3.0912453e-10
4.0973868e-10
5.5287724e-10
7.4426527e-10
1.0014584e-09
1.3368143e-09
1.7694576e-09
2.3601143e-09
7.074479e-09
8.6549433e-09
1.1427012e-09
6.5191215e-09
7.9319519e-09
9.7580981e-09
1.1835505e-08
1.4125441e-08
1.6565762e-08
1.9033707e-08
2.1565346e-08
2.4240337e-08
2.7110869e-08
3.0126594e-08
3.2506804e-08
3.4155665e-08
3.6182681e-08
3.8686945e-08
4.1523433e-08
4.4646515e-08
4.9334317e-08
6.8447351e-08
7.5091388e-08
7.5781071e-08
7.2142263e-08
5.4861069e-08
5.4882613e-08
5.4258092e-08
5.2840342e-08
5.1021125e-08
4.876184e-08
4.7073576e-08
4.498124e-08
4.1291177e-08
3.2615082e-08
2.268095e-08
1.4306574e-08
8.2800517e-09
3.8674795e-09
1.6717808e-09
6.9112849e-10
3.5772201e-10
3.0718696e-10
4.3984016e-10
8.4849833e-10
1.9905426e-09
4.7213266e-09
8.5419465e-09
1.2800848e-08
1.4369477e-08
1.4084955e-08
1.318588e-08
1.1566431e-08
9.5039843e-09
7.154269e-09
5.2383066e-09
3.9403692e-09
3.1986049e-09
2.8692796e-09
2.8045867e-09
2.819601e-09
2.8619227e-09
3.0262276e-09
3.3757776e-09
3.4281711e-09
3.2928547e-09
2.977475e-09
2.9585149e-09
3.433269e-09
4.6713542e-09
6.2552738e-09
8.5268349e-09
1.062655e-08
1.3425821e-08
1.6349084e-08
1.9241348e-08
2.201475e-08
2.4596293e-08
2.69545e-08
2.9062234e-08
3.0944022e-08
3.3000675e-08
3.4531044e-08
3.5667021e-08
3.6570188e-08
3.7277601e-08
3.780479e-08
3.8168117e-08
3.8375727e-08
3.8456547e-08
3.8410851e-08
3.8248795e-08
3.7983916e-08
3.7624631e-08
3.7181601e-08
3.6661264e-08
3.6075194e-08
3.5427327e-08
3.4728949e-08
3.3981714e-08
3.3197763e-08
3.2377142e-08
3.1529591e-08
3.0655832e-08
2.9762387e-08
2.8850529e-08
2.7923412e-08
2.6984593e-08
2.6039971e-08
2.509432e-08
2.4148097e-08
2.3205491e-08
2.2273519e-08
2.1358004e-08
2.0465042e-08
1.9594535e-08
1.8747073e-08
1.792311e-08
1.7122725e-08
1.6346039e-08
1.559299e-08
1.4863341e-08
1.4157018e-08
1.3473545e-08
1.2812757e-08
1.2174099e-08
1.1557278e-08
1.0961743e-08
1.0387126e-08
9.8328793e-09
9.2985546e-09
8.783682e-09
8.2876655e-09
7.8101044e-09
7.3502229e-09
6.9080762e-09
6.4823909e-09
6.0735501e-09
5.6802359e-09
5.3027033e-09
4.939923e-09
4.5919159e-09
4.2579405e-09
3.9378721e-09
3.6312201e-09
3.3377176e-09
3.0569158e-09
2.7885752e-09
2.5324567e-09
2.2884331e-09
2.0564209e-09
1.8363919e-09
1.6282269e-09
1.431988e-09
1.2478762e-09
1.0762102e-09
9.1703204e-10
7.7074858e-10
6.3745538e-10
5.174324e-10
4.1055806e-10
3.1948635e-10
2.4250682e-10
1.7654537e-10
1.2429335e-10
8.5514072e-11
5.7449356e-11
3.784942e-11
2.4307891e-11
1.5128289e-11
9.74437e-12
7.7344003e-12
7.5919226e-12
1.044744e-11
1.8450608e-11
3.1352785e-11
4.8742061e-11
7.0120508e-11
9.6854611e-11
1.3243818e-10
1.7701691e-10
2.3268191e-10
3.0357236e-10
3.9277997e-10
4.9966734e-10
6.2071414e-10
7.4885124e-10
8.7223368e-10
6.8842044e-10
7.4320981e-10
1.1355327e-09
1.1469309e-09
1.1046576e-09
1.0447218e-09
9.6467777e-10
1.6542631e-09
8.8489294e-10
8.2317398e-10
7.7682704e-10
7.3443261e-10
6.9718637e-10
6.6506765e-10
6.3767773e-10
6.1353482e-10
5.8831916e-10
5.6158932e-10
5.3511861e-10
6.8140984e-10
4.6311714e-10
4.9612847e-10
4.873023e-10
4.781419e-10
4.7118957e-10
4.665488e-10
4.6455206e-10
4.6586719e-10
4.7124948e-10
4.8370924e-10
5.1195228e-10
5.4983889e-10
5.9614635e-10
6.5256171e-10
7.2336701e-10
8.1367461e-10
9.2994762e-10
1.0794519e-09
1.2664728e-09
1.4903625e-09
1.7294913e-09
1.9570506e-09
2.0280356e-09
1.9903758e-09
1.5564856e-09
1.2308433e-09
6.977061e-10
5.1639818e-10
2.0538445e-10
2.1660469e-10
1.2007011e-10
2.8251213e-10
1.623697e-09
3.9129216e-09
6.9470908e-09
6.5634134e-09
8.574245e-09
4.9197745e-09
5.9207816e-09
7.134608e-10
2.5100519e-10
1.1509416e-10
9.3098592e-11
8.072439e-11
9.1272134e-11
1.0564996e-10
1.3941925e-10
1.6795202e-10
2.0852611e-10
2.4116436e-10
2.9294969e-10
3.5357576e-10
4.5081286e-10
5.7719867e-10
7.590612e-10
1.0059626e-09
1.3572715e-09
1.8269254e-09
2.458155e-09
3.2811026e-09
4.343735e-09
5.8051571e-09
1.4671538e-08
1.7791627e-08
3.2217564e-09
1.6056887e-08
1.9538512e-08
2.4041121e-08
2.916029e-08
3.4814939e-08
4.0842113e-08
4.6940135e-08
5.3195371e-08
5.9803807e-08
6.6895522e-08
7.4357826e-08
8.0261383e-08
8.4334658e-08
8.9317417e-08
9.5475494e-08
1.0243925e-07
1.1001544e-07
1.2047238e-07
1.5352677e-07
1.6416135e-07
1.662622e-07
1.6372531e-07
1.3422246e-07
1.3433449e-07
1.3271668e-07
1.2917933e-07
1.2468306e-07
1.191235e-07
1.1497954e-07
1.0981794e-07
1.0074636e-07
7.9605339e-08
5.544091e-08
3.5045191e-08
2.0175111e-08
9.553695e-09
4.1369706e-09
1.7112276e-09
8.8460053e-10
7.5764093e-10
1.0826738e-09
2.0856256e-09
4.8854856e-09
1.1543867e-08
2.1228783e-08
3.1529342e-08
3.5440991e-08
3.4743216e-08
3.2527537e-08
2.8546314e-08
2.3360391e-08
1.7585616e-08
1.2876615e-08
9.6848483e-09
7.8594468e-09
7.0471582e-09
6.8861996e-09
6.9225543e-09
7.0249317e-09
7.4238557e-09
8.2831773e-09
8.4146907e-09
8.0846053e-09
7.3078995e-09
7.2563776e-09
8.4142654e-09
1.1451079e-08
1.5338251e-08
2.0785929e-08
2.6167e-08
3.3058023e-08
4.024426e-08
4.7341534e-08
5.4133058e-08
6.0439946e-08
6.6186845e-08
7.1308852e-08
7.5872232e-08
8.0644055e-08
8.4218087e-08
8.6918436e-08
8.9058509e-08
9.0724262e-08
9.1953298e-08
9.2785848e-08
9.3242788e-08
9.3396503e-08
9.3243935e-08
9.2813502e-08
9.2137186e-08
9.1235692e-08
9.0134876e-08
8.8850438e-08
8.7410329e-08
8.5824006e-08
8.4118601e-08
8.2298006e-08
8.0391409e-08
7.8398752e-08
7.6343375e-08
7.4226789e-08
7.2064632e-08
6.9859731e-08
6.7619506e-08
6.5352186e-08
6.3071645e-08
6.078971e-08
5.850705e-08
5.6233422e-08
5.3985431e-08
5.1777149e-08
4.9623376e-08
4.7524016e-08
4.5480301e-08
4.3493261e-08
4.1563007e-08
3.9689764e-08
3.7873322e-08
3.6113052e-08
3.4408739e-08
3.2759183e-08
3.116396e-08
2.9621705e-08
2.8131684e-08
2.6692557e-08
2.530342e-08
2.3962951e-08
2.2670063e-08
2.1423628e-08
2.022221e-08
1.9064863e-08
1.7949717e-08
1.6876941e-08
1.5843462e-08
1.4850256e-08
1.3894144e-08
1.2975796e-08
1.2092741e-08
1.124508e-08
1.0431048e-08
9.6503926e-09
8.9019633e-09
8.1851637e-09
7.4989437e-09
6.8427651e-09
6.2160972e-09
5.6186769e-09
5.0503488e-09
4.5110879e-09
4.0006465e-09
3.5192207e-09
3.0673456e-09
2.6458407e-09
2.2548447e-09
1.8953907e-09
1.5677474e-09
1.27263e-09
1.0097665e-09
7.8461719e-10
5.9394287e-10
4.3185471e-10
3.0370855e-10
2.0865886e-10
1.3990151e-10
9.1909145e-11
5.8778776e-11
3.6340624e-11
2.3091823e-11
1.8233825e-11
1.7948812e-11
2.5067467e-11
4.4689866e-11
7.6289275e-11
1.1889894e-10
1.7207852e-10