/*--------------------------------*- C++ -*----------------------------------*\
| =========                 |                                                 |
| \\      /  F ield         | OpenFOAM: The Open Source CFD Toolbox           |
|  \\    /   O peration     | Version:  2.4.0                                 |
|   \\  /    A nd           | Web:      www.OpenFOAM.org                      |
|    \\/     M anipulation  |                                                 |
\*---------------------------------------------------------------------------*/
FoamFile
{
    version     2.0;
    format      ascii;
    class       volScalarField;
    location    "30";
    object      omega;
}
// * * * * * * * * * * * * * * * * * * * * * * * * * * * * * * * * * * * * * //

dimensions      [0 0 -1 0 0 0 0];

internalField   nonuniform List<scalar> 
78300
(
288636.63
288686.54
288700.32
288833.65
289515.6
291432.02
295479.08
302673.01
314010.37
329813.04
346787.82
362441.63
375829.98
386411.76
393919.79
398343.7
399991.89
399060.36
395721.33
390174.45
382632.29
373308
362413.46
350675.33
339521.98
329123.31
319421.78
310364.21
301901.89
293992.53
286594.56
279672.29
273192.3
267123.9
261439.18
256109.32
250877.53
245350.68
239525.68
233441.11
227134.93
220644.17
214005.21
207254.37
200428.97
193566.99
186709.47
179903.22
173262.16
167044.3
161298.04
156019.07
151204.62
146855.25
142973.85
139564.67
136634.53
134192.24
132247.52
130811.23
129895.27
129511.99
129657.27
129783.85
129783.85
129783.85
129783.85
129783.85
129783.85
129783.85
129783.85
129783.85
129783.85
129783.85
129783.85
129783.85
129783.85
129783.85
129783.85
129783.85
129783.85
129783.85
129783.85
129783.85
129783.85
129783.85
129783.85
129783.85
129783.85
129783.85
129783.85
129783.85
129783.85
129783.85
129783.85
129783.85
129783.85
129783.85
129783.85
129783.85
129783.85
129783.85
129783.85
129783.85
129783.85
129783.85
129783.85
129783.85
129783.85
129783.85
129783.85
129783.85
129783.85
129783.85
129783.85
129783.85
129783.85
129783.85
129783.85
129783.85
129783.85
129783.85
129783.85
129783.85
129783.85
129783.85
129783.85
129783.85
129783.85
129783.85
129783.85
129783.85
129783.85
129783.86
129783.85
129783.86
129783.85
129783.85
129783.86
129783.85
129783.85
129783.85
129783.85
129783.85
129783.86
129783.85
129783.86
129783.85
129783.85
129783.85
129783.86
129783.85
129783.85
129783.86
129783.85
129783.86
129783.85
129783.85
129783.85
129783.86
129783.85
129783.85
129783.85
129783.85
129783.85
129783.85
129783.85
129783.84
129783.85
129783.85
129783.85
129783.85
129783.85
129783.85
129783.85
129783.84
129783.85
129783.85
129783.85
129783.85
129783.85
129783.85
129783.85
129783.85
129783.85
129783.85
129783.85
129783.85
129783.85
129783.85
129783.85
129783.85
129783.85
129783.85
129783.84
129783.85
129783.85
129783.84
129783.85
129783.85
129783.85
129783.85
129783.85
129783.84
129783.85
129783.85
129783.84
129657.28
129512.01
129895.29
130811.3
132247.51
134192.34
136634.64
139564.66
142973.98
146855.32
151204.67
156018.82
161297.58
167043.87
173262.26
179902.7
186708.68
193567.05
200429.57
207253.32
214004.05
220644.49
227134.65
233439.26
239524.1
245352.66
250877.67
256108.08
261440.19
267124.37
273191.43
279670.54
286594.56
293991.4
301901.42
310366.52
319421.34
329122.78
339524.26
350675.48
362412.53
373310.22
382630.1
390168.82
395719.6
399058.72
399989.9
398342.37
393921.5
386411.41
375828.69
362441.03
346789.98
329814.87
314010.1
302672.87
295478.99
291431.81
289515.61
288834.57
288701.21
288686.52
288636.62
48842.416
46878.573
48850.294
46899.426
48984.917
47312.863
41662.965
49137.177
50975.35
53538.729
56294.886
58837.633
61013.244
62733.564
63955.081
64675.703
64945.716
64796.64
64257.044
63358.659
62138.147
60628.429
58875.53
56981.962
55202.598
53517.787
51953.379
50475.233
49092.234
47676.062
40560.504
39497.068
53000.21
45168.348
44241.699
43339.698
42454.592
41519.817
40534.578
39505.42
38438.716
37340.744
36217.673
35075.645
33920.974
32760.089
31599.922
30448.23
29322.981
28256.528
27134.408
24500.021
21776.865
21160.779
21105.17
22773.069
22237.455
21813.38
21488.045
21251.381
21100.345
21037.287
21058.214
21077.275
21077.705
21078.307
21079.764
20940.943
21962.693
21962.403
21962.003
21961.665
21961.469
21961.478
21961.97
21958.711
21173.427
21691.733
21961.267
21960.884
21960.853
21961.112
21967.339
21089.643
21076.98
21075.949
21075.693
21075.528
21075.381
21075.303
21075.24
21075.196
21075.181
21075.188
21075.171
21075.154
21075.147
21075.162
21075.211
21076.025
21076.122
20968.994
21962.301
21962.553
21962.586
21962.58
21962.555
21962.518
21962.474
21962.454
21963.018
21355.343
21112.258
21086.969
21080.9
21078.665
21077.615
21077.04
21076.687
21076.455
21076.291
21076.172
21076.08
21076.009
21075.95
21075.902
21075.86
21075.824
21075.793
21075.765
21075.739
21075.716
21075.693
21075.673
21075.652
21075.634
21075.615
21075.596
21075.578
21075.56
21075.543
21075.527
21075.515
21075.504
21075.492
21075.479
21075.467
21075.454
21075.441
21075.428
21075.414
21075.4
21075.386
21075.371
21075.356
21075.341
21075.325
21075.31
21075.294
21075.279
21075.262
21075.246
21075.231
21075.215
21075.199
21075.184
21075.169
21075.154
21075.14
21075.126
21075.113
21075.1
21075.088
21075.077
21075.067
21075.057
21075.048
21075.04
21075.034
21075.027
21075.022
21075.018
21075.014
21075.011
21075.008
21075.007
21075.005
21075.004
21075.004
21075.003
21075
21069.041
21059.028
21056.168
21055.423
21055.189
21055.098
21055.057
21055.037
21055
21053.889
21053.776
21053.855
21055.032
21055.07
21055.243
21057.608
21056.615
21034.246
21096.573
21245.385
21478.713
21794.662
22191.437
22667.444
23221.364
23852.043
24563.76
26512.114
29710.976
28272.317
29324.656
30448.417
31600.012
32758.978
28544.686
33661.364
34756.084
35833.598
36887.006
37910.351
38897.936
39843.728
40740.442
41589.689
42455.693
43379.539
43817.81
45609.642
46498.745
47698.498
48981.552
50354.922
51824.124
53398.325
55086.197
56895.608
58799.201
60565.515
62075.648
63296.841
64195.272
64734.686
64883.504
64614.076
63894.58
62674.087
60955.454
58782.509
56243.194
53491.293
50932.147
49097.376
47934.312
47322.295
48982.384
48874.073
46835.237
48849.57
46827.673
16150.242
15726.177
16152.213
15731.856
16195.828
15858.526
11420.935
16486.645
17095.638
17955.147
18879.738
19733.164
20463.436
21041.177
21451.572
21693.997
21785.177
21735.797
21555.338
21254.513
20845.37
20339.151
19749.885
19113.445
18512.879
17947.106
17420.886
16925.41
16457.656
15923.748
11203.876
10911.866
21138.769
14915.759
14630.118
14331.872
14039.171
13730.1
13404.346
13064.069
12711.371
12348.325
11976.965
11599.34
11217.592
10833.791
10450.209
10069.326
9696.2369
9333.5832
8860.3127
7213.7073
6328.9474
6181.476
6432.7041
7610.7368
7455.7689
7316.5744
7208.5215
7129.5228
7079.1474
7057.9576
7064.8113
7071.5229
7072.1251
7072.4256
7072.4623
6955.5301
7263.2293
7262.9362
7262.4522
7262.0388
7261.7281
7261.7543
7262.4081
7259.4397
7086.7486
7381.4206
7261.4333
7260.5891
7260.5376
7260.9371
7266.5647
7072.8792
7070.1642
7070.0944
7070.0803
7069.9918
7069.866
7069.7776
7069.7226
7069.7002
7069.7012
7069.7145
7069.7289
7069.7566
7069.7989
7069.8417
7069.9093
7070.6203
7070.4704
6979.1488
7262.7829
7263.1003
7263.1347
7263.1353
7263.1237
7263.1069
7263.0881
7263.0983
7263.5923
7135.9944
7079.1544
7073.3898
7072.0444
7071.5702
7071.3637
7071.264
7071.2144
7071.1913
7071.1828
7071.1829
7071.1877
7071.1955
7071.204
7071.2129
7071.2211
7071.2282
7071.2342
7071.2383
7071.2409
7071.2415
7071.2401
7071.2367
7071.2311
7071.2235
7071.2135
7071.2016
7071.1875
7071.171
7071.1525
7071.1336
7071.114
7071.0924
7071.0688
7071.043
7071.0154
7070.9856
7070.9541
7070.9207
7070.8856
7070.8487
7070.8101
7070.7701
7070.7285
7070.6858
7070.6418
7070.5967
7070.5507
7070.5041
7070.4566
7070.4089
7070.361
7070.3129
7070.265
7070.2177
7070.1709
7070.1246
7070.0798
7070.036
7069.9935
7069.9528
7069.914
7069.877
7069.8423
7069.8097
7069.7797
7069.7521
7069.7271
7069.7046
7069.685
7069.6679
7069.6535
7069.6416
7069.6323
7069.6254
7069.6207
7069.6181
7069.6174
7069.618
7069.6053
7007.0205
6890.0448
6856.2298
6847.5198
6844.7952
6843.7437
6843.2748
6843.0381
6842.6981
6830.1165
6828.7525
6829.655
6842.9298
6843.3266
6845.2738
6868.2639
7064.0572
7056.8995
7077.8475
7127.7956
7206.1034
7312.1298
7445.2692
7604.9879
7790.8376
8002.4178
8241.9178
9557.5588
10651.112
9354.184
9698.0655
10069.675
10450.51
10843.728
8081.0489
11276.666
11660.292
12021.712
12375.024
12718.235
13049.427
13366.606
13667.352
13952.222
14242.824
14552.42
13542.074
15160.909
15133.195
15512.14
15925.301
16369.786
16846.27
17357.267
17905.469
18493.295
19111.557
19684.974
20175.384
20571.816
20863.321
21038.116
21086.055
20998.184
20763.982
20367.177
19808.766
19103.021
18278.641
17386.069
16556.768
15962.414
15603.881
15877.407
16193.506
16162.194
15224.431
16152.578
15222.492
7444.2637
7305.4961
7444.9276
7307.2817
7464.5831
7354.6062
4319.5622
7663.3036
7938.5363
8337.6807
8767.0757
9163.6902
9502.9592
9771.5543
9962.3647
10075.237
10117.806
10095.135
10011.544
9872.0761
9682.2237
9447.269
9173.3769
8877.5325
8597.6886
8334.7784
8090.023
7859.9581
7640.8029
7352.1291
4275.382
4191.0225
11631.459
6857.264
6744.1509
6606.6334
6471.6425
6329.1296
6178.9207
6022.017
5859.3863
5691.9894
5520.7637
5346.6605
5170.7334
4993.8849
4817.1229
4641.5548
4469.1153
4296.8988
4030.9225
3009.2321
2634.3608
2589.6558
2798.7835
3526.977
3462.6778
3398.9527
3349.1449
3312.6116
3289.3503
3279.4176
3282.5151
3286.2414
3287.105
3287.333
3287.0928
3207.7462
3349.1746
3348.8174
3348.1742
3347.6238
3347.1835
3347.2356
3348.1102
3346.3852
3287.9124
3462.9183
3346.632
3345.4791
3345.4222
3345.9533
3350.2027
3284.6683
3284.0292
3284.2053
3284.248
3284.155
3284.0031
3283.8842
3283.8161
3283.7965
3283.8067
3283.8307
3283.8633
3283.9164
3283.9887
3284.0544
3284.1553
3284.759
3284.748
3222.1219
3348.5819
3349.0118
3349.0641
3349.0882
3349.1089
3349.1316
3349.1591
3349.2138
3349.5928
3308.286
3288.5378
3286.6269
3286.2394
3286.1501
3286.1513
3286.1878
3286.2394
3286.2977
3286.3578
3286.4175
3286.4751
3286.5295
3286.58
3286.6261
3286.6673
3286.7035
3286.7345
3286.7603
3286.7809
3286.7963
3286.8063
3286.8112
3286.8109
3286.8056
3286.7951
3286.7798
3286.7597
3286.7346
3286.7047
3286.6718
3286.635
3286.5938
3286.5484
3286.4987
3286.445
3286.3873
3286.3258
3286.2606
3286.1919
3286.1199
3286.0447
3285.9665
3285.8854
3285.802
3285.7162
3285.6285
3285.5389
3285.448
3285.356
3285.2631
3285.17
3285.0768
3284.9839
3284.8919
3284.801
3284.7115
3284.6242
3284.539
3284.4566
3284.3772
3284.3013
3284.229
3284.1608
3284.0967
3284.0371
3283.9822
3283.932
3283.8865
3283.8461
3283.8105
3283.7798
3283.7539
3283.7327
3283.716
3283.7035
3283.6949
3283.6898
3283.6875
3283.677
3261.8748
3223.3061
3212.1772
3209.2921
3208.3872
3208.0385
3207.8836
3207.8056
3206.9476
3142.5309
3135.2628
3139.9291
3207.7615
3207.907
3208.5541
3216.0824
3281.3683
3278.2385
3288.0053
3311.2274
3347.6219
3396.8873
3458.7401
3532.9318
3619.2451
3717.4891
3828.0986
4734.9459
5198.6668
4315.016
4470.7397
4641.9958
4817.5353
5008.9348
3232.0281
5223.7707
5416.1041
5583.9926
5748.0732
5907.4689
6061.2768
6208.5729
6348.2455
6480.5865
6615.6229
6765.5513
6055.6607
7214.3684
7094.6168
7271.0238
7465.2658
7673.9835
7897.5853
8137.3011
8394.4214
8670.0742
8959.879
9228.5072
9458.5055
9644.3531
9781.0616
9863.0922
9885.7071
9844.7823
9735.3988
9550.0144
9289.1451
8959.5792
8574.6765
8158.2688
7770.7389
7491.624
7318.7534
7380.4811
7464.5445
7452.5706
7137.1098
7445.7347
7136.5757
4129.3946
4072.228
4129.6338
4072.5067
4140.2541
4089.4858
2070.5423
4275.5363
4422.5312
4645.0554
4884.2945
5105.5144
5294.5656
5444.4042
5550.8063
5613.8695
5637.696
5625.2217
5578.7684
5501.2077
5395.5347
5264.7257
5112.1033
4947.2138
4790.989
4644.4624
4507.9765
4379.7998
4256.6846
4068.745
2062.6159
2051.1029
7360.3981
3791.2602
3741.7071
3665.3237
3590.3423
3511.1953
3427.7655
3340.6196
3250.3022
3157.3456
3062.2731
2965.6201
2868.045
2769.9967
2671.9868
2574.6225
2478.8116
2381.2381
2216.1676
1587.6798
1404.3741
1387.5418
1524.3954
1963.1159
1930.1778
1895.1352
1867.6327
1847.4075
1834.5687
1828.946
1830.6422
1833.4222
1834.5176
1834.6932
1834.3034
1783.6427
1859.3521
1858.7888
1857.965
1857.2631
1856.6912
1856.7785
1857.8796
1857.2961
1832.0109
1936.2652
1855.8209
1854.4028
1854.3593
1855.0368
1858.1955
1830.1427
1830.2346
1830.5369
1830.6051
1830.4948
1830.3106
1830.1587
1830.0755
1830.057
1830.0767
1830.1135
1830.1627
1830.2381
1830.3355
1830.4203
1830.5487
1831.0654
1831.212
1791.3408
1858.5411
1859.013
1859.1049
1859.1793
1859.2625
1859.356
1859.4612
1859.5917
1859.914
1842.7022
1834.172
1833.4662
1833.4222
1833.5055
1833.625
1833.7559
1833.8887
1834.0191
1834.1444
1834.2632
1834.3745
1834.4775
1834.5716
1834.6565
1834.7319
1834.7977
1834.854
1834.9008
1834.9381
1834.9661
1834.9849
1834.9946
1834.9954
1834.9876
1834.9711
1834.9463
1834.9133
1834.8721
1834.823
1834.7671
1834.704
1834.6338
1834.5567
1834.4727
1834.3823
1834.2855
1834.1827
1834.074
1833.9598
1833.8404
1833.7159
1833.587
1833.4537
1833.3167
1833.1761
1833.0327
1832.8866
1832.7386
1832.589
1832.4384
1832.2875
1832.1368
1831.9868
1831.8382
1831.6917
1831.5477
1831.4071
1831.2702
1831.1377
1831.0101
1830.888
1830.7717
1830.6618
1830.5586
1830.4623
1830.3733
1830.2918
1830.2177
1830.1514
1830.0926
1830.0414
1829.9977
1829.9612
1829.9317
1829.9086
1829.8916
1829.88
1829.873
1829.8589
1820.2771
1803.9526
1799.2482
1798.0229
1797.638
1797.4905
1797.4256
1797.3929
1796.966
1769.1633
1766.0721
1768.0808
1797.3585
1797.4384
1797.7181
1800.9265
1828.7408
1827.1205
1832.6007
1845.5637
1865.8638
1893.3322
1927.8067
1969.1458
2017.2253
2071.9326
2132.8665
2741.358
2968.637
2395.4265
2480.1852
2575.1463
2672.4987
2786.2636
1655.0346
2900.7142
3018.0391
3111.6722
3203.1114
3291.9445
3377.6711
3459.7714
3537.6384
3611.4502
3686.7705
3774.3324
3275.4752
4091.3345
3977.239
4074.3076
4183.3596
4300.4864
4425.9152
4560.3551
4704.5423
4859.0831
5021.4915
5171.9464
5301.1007
5405.4402
5482.3132
5528.6402
5541.7536
5519.3924
5458.858
5356.0119
5211.1668
5028.2083
4814.4803
4583.3425
4367.223
4209.8303
4109.1378
4120.0023
4143.1607
4137.4668
3999.8282
4130.8311
3999.724
2568.4102
2541.8372
2568.4727
2541.354
2574.8721
2545.0146
1212.8185
2671.278
2758.1783
2897.1946
3046.414
3184.6335
3302.5315
3396.1434
3462.5442
3502.0063
3516.9258
3509.2581
3480.3575
3432.0835
3366.2434
3284.7239
3189.5587
3086.717
2989.1598
2897.7627
2812.5959
2732.6598
2655.3463
2521.0295
1210.0481
1226.1263
4953.6649
2350.7339
2328.0402
2280.3931
2233.6375
2184.2864
2132.2569
2077.9131
2021.602
1963.6547
1904.4047
1844.1912
1783.5
1722.5648
1661.6474
1601.1324
1541.5441
1480.3124
1373.9235
990.42575
892.23713
883.42958
964.53599
1224.6511
1205.1994
1183.6846
1166.7658
1154.2969
1146.4246
1142.8535
1143.9186
1146.3706
1147.687
1147.8213
1147.2827
1115.8048
1158.2596
1157.3996
1156.3753
1155.5105
1154.8101
1154.9411
1156.2664
1156.5525
1143.8614
1205.2094
1153.5849
1151.9425
1151.9331
1152.7672
1155.2304
1141.6253
1142.0922
1142.4907
1142.5778
1142.4484
1142.2313
1142.0483
1141.9513
1141.9345
1141.9638
1142.0136
1142.0781
1142.1726
1142.2899
1142.3879
1142.5343
1142.9936
1143.2687
1118.9781
1157.171
1157.6642
1157.8247
1157.983
1158.1631
1158.3614
1158.5763
1158.8143
1159.1473
1150.8112
1146.6896
1146.5141
1146.6679
1146.8802
1147.1042
1147.3266
1147.5419
1147.7474
1147.9412
1148.1222
1148.2898
1148.4432
1148.582
1148.706
1148.8151
1148.9093
1148.9888
1149.0537
1149.1043
1149.1409
1149.1635
1149.1728
1149.1688
1149.152
1149.1225
1149.0808
1149.0271
1148.9615
1148.8842
1148.7962
1148.6976
1148.5888
1148.4701
1148.3418
1148.2043
1148.058
1147.9031
1147.7402
1147.5697
1147.3919
1147.2073
1147.0166
1146.8201
1146.6186
1146.4124
1146.2025
1145.9893
1145.7737
1145.5563
1145.3379
1145.1195
1144.9016
1144.6853
1144.4713
1144.2605
1144.0537
1143.8519
1143.6557
1143.466
1143.2834
1143.1087
1142.9425
1142.7853
1142.6377
1142.5
1142.3725
1142.2555
1142.1492
1142.0536
1141.9687
1141.8943
1141.8304
1141.7765
1141.7323
1141.6972
1141.6705
1141.6513
1141.6384
1141.6198
1136.7411
1128.624
1126.2858
1125.6743
1125.4818
1125.4088
1125.377
1125.3609
1125.1172
1111.13
1109.5844
1110.6058
1125.3322
1125.3831
1125.5281
1127.1568
1141.037
1140.1204
1143.5772
1151.6877
1164.3708
1181.5207
1203.0318
1228.8134
1258.7839
1292.8698
1330.4466
1728.1825
1854.3559
1490.8304
1542.7171
1601.7442
1662.2682
1737.9069
1023.9578
1803.014
1882.6582
1941.1777
1998.2499
2053.7016
2107.223
2158.4898
2207.1313
2253.2738
2300.3523
2357.511
2011.5575
2579.3265
2492.1968
2551.5677
2619.9739
2693.4438
2772.1039
2856.4063
2946.8158
3043.6913
3145.4655
3239.6955
3320.9657
3386.6433
3435.2067
3464.7528
3473.6143
3460.4076
3423.5172
3360.4332
3271.3667
3158.7959
3027.1753
2884.757
2750.4043
2650.5714
2583.7008
2578.8939
2581.0243
2577.3749
2505.2762
2570.0707
2505.2968
1724.7175
1711.9198
1724.6839
1710.9726
1728.8344
1708.7284
834.94355
1800.3283
1855.4723
1949.2603
2049.6481
2142.8731
2222.151
2285.2634
2329.9408
2356.5931
2366.6612
2361.59
2342.194
2309.7962
2265.5538
2210.7631
2146.7824
2077.6201
2011.946
1950.4718
1893.1726
1839.4166
1787.1767
1686.8235
830.65523
856.20857
3430.4956
1575.0657
1564.119
1531.9655
1500.4353
1467.1543
1432.0581
1395.404
1357.4357
1318.3754
1278.4569
1237.9133
1197.1485
1156.2796
1115.4203
1074.8421
1034.9095
993.91435
924.06694
692.7056
636.5907
629.97844
674.03544
825.12903
812.35563
798.19073
787.05728
778.84099
773.70083
771.27
772.01776
774.35559
775.90034
776.01849
775.32754
755.96121
779.77529
778.55926
777.31165
776.27101
775.44858
775.63013
777.17359
778.08102
771.01462
806.22281
773.848
772.02973
772.0749
773.06557
775.14333
768.20279
768.91713
769.40217
769.50829
769.3612
769.11229
768.9017
768.79293
768.77818
768.81636
768.8776
768.95464
769.06347
769.19396
769.29759
769.454
769.88106
770.26062
756.01304
778.364
778.89335
779.15779
779.43687
779.74963
780.08533
780.4389
780.8133
781.20972
776.83776
774.7948
774.92915
775.23702
775.56741
775.89384
776.20825
776.50705
776.78823
777.0505
777.29299
777.51519
777.71666
777.8971
778.05646
778.19486
778.31242
778.40955
778.48659
778.54403
778.58227
778.60159
778.60288
778.5863
778.55241
778.50164
778.43451
778.35134
778.2523
778.13759
778.00846
777.86538
777.70889
777.53944
777.35758
777.16386
776.95872
776.74273
776.51645
776.28046
776.03544
775.78193
775.52076
775.25252
774.97814
774.69829
774.41399
774.12601
773.83535
773.54305
773.24996
772.95734
772.6661
772.3774
772.09232
771.81196
771.53734
771.2696
771.00968
770.7586
770.51725
770.28649
770.0671
769.85977
769.66507
769.48348
769.3154
769.16112
769.02077
768.89445
768.78206
768.68344
768.59831
768.52629
768.46675
768.41896
768.382
768.35478
768.33578
768.31264
765.56792
761.05657
759.75637
759.4146
759.30663
759.26627
759.24889
759.23988
759.08595
751.2718
750.40663
750.99179
759.21398
759.24961
759.33607
760.27335
768.00373
767.46513
769.82973
775.31141
783.86503
795.41857
809.89633
827.23543
847.37561
870.26743
895.36131
1149.9558
1227.5924
1001.4631
1035.9482
1075.5501
1116.1679
1169.7043
725.14562
1209.5851
1266.743
1306.2345
1344.6828
1382.0493
1418.1268
1452.6962
1485.513
1516.6769
1548.4635
1588.4192
1352.5925
1742.8951
1683.1369
1722.3181
1768.5824
1818.289
1871.4987
1928.5205
1989.673
2055.1839
2123.9889
2187.6591
2242.9914
2287.7592
2321.0793
2341.6893
2348.4704
2340.5197
2316.8237
2275.7582
2217.4791
2143.6819
2057.225
1963.5082
1873.9141
1805.2341
1756.2459
1745.4498
1738.4891
1735.1218
1691.299
1726.7057
1691.2825
1222.9752
1217.2574
1222.8708
1215.9919
1225.7104
1211.4889
644.1803
1280.2723
1317.3039
1384.1751
1455.4463
1521.868
1578.101
1623.0313
1654.7388
1673.7495
1680.9118
1677.3838
1663.6446
1640.708
1609.3374
1570.4793
1525.1013
1476.034
1429.4007
1385.7818
1345.1174
1306.9843
1269.8181
1193.5236
637.73576
664.66229
2411.3066
1115.9733
1109.9294
1086.9626
1064.4574
1040.7017
1015.6405
989.47034
962.37756
934.51828
906.06943
877.20132
848.27869
819.35056
790.42974
761.7242
733.52329
704.83539
658.3278
521.0699
487.29512
481.26678
502.31084
587.53135
578.44467
568.69369
561.05977
555.42862
551.95849
550.24313
550.82033
553.12208
554.91281
555.05679
554.22856
542.21427
555.12366
553.51147
552.01374
550.78217
549.83941
550.07896
551.83616
553.17479
548.87046
568.19635
547.83137
545.87332
545.99072
547.14034
549.04828
545.59016
546.5031
547.07388
547.20214
547.04056
546.76173
546.52528
546.40497
546.39127
546.43629
546.50624
546.59206
546.71013
546.84749
546.95053
547.11154
547.52812
548.0023
540.01325
553.36337
553.96597
554.37254
554.81031
555.28919
555.79104
556.30708
556.83852
557.33612
555.01231
554.09355
554.45001
554.89313
555.33527
555.76042
556.16338
556.54175
556.89408
557.21955
557.51756
557.78791
558.03039
558.24496
558.43179
558.59126
558.72375
558.82988
558.91025
558.96559
558.99633
559.00349
558.98767
558.94937
558.88939
558.8083
558.70674
558.58514
558.4436
558.28268
558.10384
557.90777
557.69521
557.46682
557.22336
556.96553
556.69395
556.40935
556.11248
555.80409
555.48506
555.1561
554.81829
554.47236
554.1195
553.7606
553.39687
553.02937
552.65928
552.28791
551.91633
551.54611
551.17831
550.8144
550.45567
550.10345
549.75899
549.42365
549.09855
548.78491
548.48379
548.1962
547.92305
547.66515
547.42316
547.19762
546.98898
546.79755
546.62347
546.46679
546.32738
546.20499
546.09924
546.00966
545.9354
545.87559
545.82905
545.79445
545.76992
545.74315
544.08481
541.36581
540.58097
540.37346
540.30769
540.28384
540.27388
540.26855
540.16326
535.45657
534.93038
535.29744
540.24445
540.2713
540.32933
540.92304
545.59236
545.27888
546.99667
550.91394
557.00728
565.22445
575.50733
587.8091
602.08165
618.29079
636.06557
796.50679
847.8265
710.15384
734.50439
762.55208
791.33542
830.5876
559.8714
857.31626
899.49046
927.64098
955.00252
981.60544
1007.3044
1031.9432
1055.35
1077.613
1100.3141
1129.488
972.07702
1236.7924
1199.1785
1226.6521
1259.6965
1295.2175
1333.2402
1373.9829
1417.6784
1464.4787
1513.6234
1559.0784
1599.0251
1631.4154
1655.7667
1671.2017
1676.9387
1672.3444
1656.7805
1629.1553
1589.5878
1539.2989
1480.1971
1415.9346
1353.4226
1303.4067
1264.7911
1251.072
1239.2133
1235.2089
1204.7394
1225.3585
1204.534
903.03938
901.33249
902.8633
899.82896
904.8884
894.94478
533.08618
947.35287
973.50371
1023.2143
1075.8824
1125.1989
1166.6943
1200.011
1223.4187
1237.5451
1242.841
1240.2967
1230.1651
1213.2717
1190.1218
1161.4415
1127.9563
1091.7386
1057.2902
1025.0909
995.06905
966.93013
939.47707
881.28188
525.22055
549.65732
1711.9193
824.69863
820.39587
803.26442
786.4844
768.77364
750.0786
730.56107
710.37333
689.62902
668.4706
647.02766
625.64898
604.3419
583.0428
561.92052
541.22273
520.50591
489.0173
409.40584
388.27456
382.47902
390.00982
436.05832
429.22396
422.32989
416.98128
413.05184
410.69063
409.47321
409.95688
412.24444
414.30336
414.53041
413.60239
405.89782
412.29446
410.25773
408.47983
407.03956
405.97603
406.28083
408.24625
409.87766
406.98969
416.71029
403.52346
401.45967
401.66336
402.97068
404.84679
403.38443
404.47541
405.13427
405.28971
405.11801
404.81184
404.55043
404.41773
404.40294
404.45167
404.5264
404.6164
404.73817
404.87656
404.97447
405.13837
405.56544
406.13996
401.97632
410.18282
410.9062
411.49358
412.12532
412.79873
413.48869
414.18325
414.88345
415.50487
414.36629
414.12533
414.65792
415.22154
415.76575
416.28064
416.76292
417.21115
417.62446
418.00258
418.34523
418.65264
418.92489
419.16226
419.36526
419.53456
419.67083
419.77499
419.84791
419.89035
419.90358
419.88844
419.84567
419.77617
419.68088
419.56056
419.41594
419.24747
419.05517
418.84028
418.60433
418.34816
418.07276
417.77897
417.4678
417.14008
416.79661
416.43833
416.06613
415.68097
415.2839
414.87585
414.45806
414.03153
413.5976
413.15741
412.71239
412.26381
411.8131
411.36179
410.91116
410.46312
410.01879
409.57999
409.14818
408.72491
408.31164
407.90989
407.52101
407.14635
406.78712
406.44447
406.11943
405.81289
405.52556
405.25807
405.01088
404.78431
404.57847
404.3934
404.22887
404.0846
403.96005
403.85462
403.76733
403.69706
403.64243
403.60183
403.57305
403.54404
402.48776
400.74538
400.24148
400.10769
400.06556
400.05141
400.04611
400.04324
399.96661
396.96825
396.6273
396.87486
400.02142
400.04294
400.08625
400.49278
403.49801
403.32952
404.63791
407.55807
412.08081
418.16654
425.76766
434.84727
445.36477
457.29636
470.45375
570.52612
605.85123
524.22622
542.22211
562.90131
584.14468
613.53324
454.39294
633.28392
664.84027
685.74381
706.03802
725.78141
744.86853
763.1841
780.6002
797.20477
814.13373
836.06624
733.73782
910.66232
889.22717
909.50634
934.1145
960.57988
988.90917
1019.2622
1051.8183
1086.6803
1123.2854
1157.1254
1187.3226
1211.8928
1230.6194
1242.8738
1248.0959
1245.8105
1235.6275
1216.793
1189.4069
1154.3843
1113.0505
1067.9357
1023.1508
985.33069
953.30134
937.77174
922.69376
917.45535
893.47841
905.87438
892.89981
687.94955
688.67911
687.68699
686.98611
689.18076
682.63396
458.29728
722.679
742.02848
780.21013
820.35256
858.16681
889.72764
915.22636
933.03473
943.87124
947.90341
946.0205
938.31393
925.48958
907.87412
886.04713
860.5766
833.02073
806.79188
782.29307
759.44972
738.05153
717.19413
672.99273
449.89982
470.0579
1226.8774
629.73934
625.79568
612.56599
599.60441
585.93153
571.48677
556.41238
540.84082
524.8561
508.57896
492.11073
475.79702
459.61964
443.45238
427.43776
411.79554
396.41967
374.75178
329.8844
316.22866
310.75547
310.88153
334.18638
328.87628
323.94204
320.17783
317.44232
315.86909
315.03036
315.46573
317.737
320.08626
320.46587
319.49689
314.23315
316.68191
314.20073
312.11016
310.44069
309.25427
309.6309
311.79684
313.62
311.45155
315.38131
306.31843
304.18409
304.48362
305.94297
307.86831
307.63763
308.89879
309.64885
309.8379
309.66135
309.33111
309.04518
308.89847
308.87946
308.92787
309.00251
309.09142
309.21124
309.34562
309.43633
309.60618
310.06724
310.7625
308.92786
314.24478
315.13787
315.94214
316.79722
317.68552
318.57629
319.45556
320.32531
321.08111
320.68557
320.88974
321.56406
322.23058
322.86158
323.45123
323.99774
324.50064
324.9597
325.37528
325.74751
326.07715
326.36463
326.61062
326.816
326.9818
327.10902
327.19887
327.25227
327.27085
327.25588
327.20812
327.12879
327.019
326.87984
326.71223
326.51698
326.29442
326.04466
325.76974
325.47112
325.1498
324.80693
324.4436
324.06102
323.66018
323.24206
322.80776
322.35835
321.89496
321.41885
320.9311
320.43317
319.92623
319.41185
318.89136
318.3664
317.83844
317.30914
316.78023
316.25318
315.73021
315.21248
314.70214
314.20078
313.71016
313.2319
312.76769
312.31902
311.88739
311.47412
311.08048
310.70757
310.35635
310.0276
309.72196
309.43991
309.18177
308.94762
308.73744
308.55095
308.38776
308.24724
308.12864
308.03077
307.95236
307.89176
307.84711
307.81587
307.78634
307.08638
305.91575
305.57694
305.48734
305.46015
305.45278
305.45118
305.45055
305.39219
303.39864
303.1666
303.34394
305.43229
305.45059
305.48617
305.7836
307.82174
307.75262
308.78855
311.03914
314.50523
319.15555
324.94893
331.85492
339.83781
348.88133
358.94378
421.10275
445.84318
399.12065
412.88521
428.61056
444.79136
467.10977
378.64759
483.03049
506.82829
522.84945
538.39813
553.53794
568.18992
582.26613
595.66544
608.48562
621.56126
638.40597
574.14008
690.57151
680.17177
695.81204
714.76011
735.14472
756.9642
780.34105
805.4177
832.26455
860.45267
886.49401
910.19458
929.56998
944.59126
954.79801
959.78256
959.16564
952.7164
939.915
920.85224
896.24226
867.05743
835.09902
802.69406
773.51491
746.12797
729.32146
711.83106
704.90688
683.92298
691.29474
682.7299
537.2419
539.5151
536.86871
537.66505
537.99844
534.19956
401.14196
564.6876
579.63089
609.74186
641.09819
670.85373
695.43568
715.45018
729.32172
737.849
740.98929
739.57024
733.56253
723.59415
709.86214
692.84485
673.00435
651.53492
631.08548
611.99997
594.20411
577.54517
561.35064
528.04975
392.96144
408.22853
889.11198
493.55259
489.46521
478.94608
468.62865
457.76214
446.26877
434.28186
421.92243
409.25289
396.37933
383.38248
370.61174
358.03365
345.46837
333.03898
320.94384
309.26864
294.06466
269.69955
260.62561
255.64957
252.13608
262.67824
258.50291
254.97589
252.36294
250.5092
249.52788
248.99826
249.41551
251.65928
254.31724
254.92738
253.99519
250.07103
250.08863
247.15133
244.71442
242.79239
241.47927
241.93325
244.28917
246.22774
244.39103
244.82374
238.02228
235.85433
236.25406
237.85529
239.87035
240.45226
241.88039
242.72472
242.95494
242.77944
242.4292
242.11888
241.95593
241.92878
241.97215
242.0411
242.12339
242.23587
242.3626
242.44734
242.63203
243.15623
244.00556
243.61762
247.38311
248.48911
249.54055
250.63906
251.75189
252.84486
253.90368
254.93109
255.81898
255.91558
256.42484
257.208
257.9549
258.65166
259.29554
259.88612
260.42391
260.90943
261.34377
261.72747
262.06192
262.34794
262.58662
262.77925
262.92723
263.0319
263.09445
263.11679
263.10067
263.04701
262.95721
262.83263
262.6746
262.48436
262.26294
262.01112
261.72901
261.41726
261.07846
260.71396
260.32485
259.91248
259.4781
259.02317
258.5488
258.05613
257.54643
257.02093
256.48092
255.92781
255.36289
254.78775
254.20377
253.61269
253.01602
252.41559
251.81304
251.21025
250.60909
250.01121
249.41913
248.83397
248.2582
247.69352
247.14183
246.60492
246.08458
245.58243
245.10008
244.63892
244.20032
243.78543
243.39525
243.03061
242.69214
242.38034
242.0955
241.83766
241.60677
241.40245
241.22422
241.07134
240.94292
240.8376
240.75389
240.68993
240.6436
240.61202
240.58395
240.10652
239.29093
239.05567
238.99498
238.97857
238.97685
238.97886
238.98061
238.93498
237.56486
237.40088
237.53464
238.96766
238.98414
239.01593
239.24664
240.69298
240.69556
241.54291
243.32512
246.05031
249.6928
254.21551
259.59232
265.79075
272.80044
280.6804
319.42861
336.81242
311.38895
322.19169
334.44643
347.08569
364.23643
319.55288
377.89161
395.94901
408.54273
420.77305
432.69587
444.25062
455.36818
465.9611
476.14971
486.55522
499.7206
461.23197
536.67304
533.35517
545.86945
560.86908
577.00527
594.27647
612.7795
632.63
653.87627