/*--------------------------------*- C++ -*----------------------------------*\
| =========                 |                                                 |
| \\      /  F ield         | OpenFOAM: The Open Source CFD Toolbox           |
|  \\    /   O peration     | Version:  2.4.0                                 |
|   \\  /    A nd           | Web:      www.OpenFOAM.org                      |
|    \\/     M anipulation  |                                                 |
\*---------------------------------------------------------------------------*/
FoamFile
{
    version     2.0;
    format      ascii;
    class       volScalarField;
    location    "110";
    object      epsilon;
}
// * * * * * * * * * * * * * * * * * * * * * * * * * * * * * * * * * * * * * //

dimensions      [0 2 -3 0 0 0 0];

internalField   nonuniform List<scalar> 
32000
(
11.406425
2.0974445
8.6581475
1.9156353
1.2465253
0.017836348
0.064708836
0.0019008603
0.0099062394
0.0041806877
0.0042676203
0.0031337586
0.0026555569
0.0021963945
0.0018720081
0.001614483
0.0014181803
0.0012745802
0.0011666917
0.0010786467
0.0010025281
0.0009352631
0.00087388211
0.00081687939
0.00076241869
0.0007096309
0.00065597135
0.00060121218
0.00054817675
0.0004987478
0.00045329493
0.00041182488
0.00037430525
0.00034063638
0.00031094974
0.00028594507
0.00026622107
0.00025070193
0.00023818453
0.00022838459
0.00022142741
0.00021757798
0.0002173797
0.00022156724
0.00023202632
0.00025144171
0.00029646206
0.00035213619
0.00039062094
0.00042410457
0.00045343759
0.00048010335
0.00050443984
0.00052686006
0.00054759241
0.00056683539
0.00058474076
0.00060143606
0.00061702659
0.0006316043
0.0006452505
0.00065803566
0.00067002271
0.00068126854
0.00069182407
0.00070173518
0.00071104447
0.00071979023
0.00072800708
0.00073572733
0.00074298055
0.00074979475
0.00075619426
0.00076220319
0.00076784269
0.00077313247
0.00077809417
0.00078274275
0.00078710159
0.00079117976
0.00079500137
0.00079856407
0.00080186292
0.00080492123
0.00080774581
0.00081035285
0.00081274939
0.00081495488
0.00081691427
0.0008187569
0.00082038578
0.00082183604
0.00082311295
0.00082422003
0.00082516019
0.00082593689
0.00082655199
0.0008270074
0.00082730457
0.00082744312
0.00082742209
0.00082724948
0.00082692035
0.00082642978
0.00082577932
0.00082496695
0.0008239902
0.00082284619
0.00082153173
0.00082004282
0.00081837474
0.00081652279
0.00081448124
0.00081224369
0.00080980358
0.00080715325
0.00080428446
0.00080118851
0.0007978553
0.00079427436
0.00079043442
0.00078632275
0.00078192616
0.00077723029
0.0007722189
0.00076687534
0.0007611816
0.00075511724
0.00074866141
0.00074179105
0.00073448021
0.00072670242
0.00071842854
0.00070962543
0.00070025881
0.00069029062
0.00067967848
0.00066837719
0.00065633582
0.00064349807
0.00062980148
0.00061517608
0.00059954217
0.00058280925
0.00056487118
0.00054560189
0.00052485275
0.0005024261
0.00047809549
0.00045145123
0.00042215877
0.00038873488
0.00035033563
0.00029493232
0.00025021228
0.00023100053
0.00022056198
0.00021630303
0.0002165366
0.00022023705
0.00022700663
0.00023682132
0.00024932206
0.00026486275
0.00028439564
0.00030907358
0.00033862536
0.00037192284
0.00040897518
0.00044987979
0.00049464068
0.0005433229
0.00059544869
0.00064928759
0.00070184138
0.0007529309
0.00080495293
0.00086096952
0.00092027588
0.00098527702
0.0010585555
0.0011430482
0.00124625
0.0013840432
0.0015734338
0.001818035
0.0021369139
0.0025390761
0.0031177162
0.0037232591
0.0051505567
0.0051204278
0.011521446
0.0024643335
0.060970213
0.01710909
1.1542705
2.0587134
9.4512025
2.1628997
6.7071271
1.4796763
5.2563656
1.3622492
0.91214018
0.021221267
0.055662812
0.0020489822
0.0090167955
0.0039191156
0.0039774071
0.0029442081
0.0024994748
0.0020732054
0.0017699296
0.0015284553
0.0013436284
0.0012078204
0.0011055107
0.0010219385
0.00094968442
0.00088582225
0.00082756829
0.00077351004
0.00072189903
0.00067187657
0.00062129001
0.00056981464
0.00051995682
0.00047347118
0.00043071198
0.00039167725
0.00035630521
0.00032448821
0.00029633693
0.00027250189
0.00025356051
0.00023857038
0.00022642836
0.00021685632
0.00020998652
0.00020610705
0.00020578503
0.00020968619
0.00021943386
0.00023746293
0.00027877514
0.00032956545
0.00036469754
0.00039529778
0.00042217174
0.00044662507
0.0004689438
0.00048951582
0.00050857346
0.00052632816
0.00054293644
0.00055851249
0.00057318365
0.00058703246
0.00060010021
0.0006123535
0.00062328833
0.00063277655
0.0006422592
0.00065178221
0.00066038298
0.00066813591
0.00067521214
0.00068177116
0.0006879533
0.00069380353
0.00069934113
0.00070456791
0.00070948028
0.00071407503
0.00071836257
0.00072236048
0.00072609907
0.00072960257
0.0007329118
0.00073603118
0.00073897511
0.00074181928
0.00074464741
0.00074751195
0.00075040398
0.00075318882
0.00075574545
0.00075805694
0.0007599131
0.0007612851
0.00076225904
0.00076293496
0.00076334783
0.000763501
0.00076341228
0.00076326534
0.00076329309
0.00076356719
0.00076395457
0.00076422888
0.00076428859
0.00076426432
0.00076415329
0.00076369028
0.00076284341
0.00076170697
0.00076027834
0.00075855581
0.0007565393
0.00075422933
0.00075162443
0.00074871607
0.00074547392
0.00074194098
0.00073821472
0.00073445084
0.00073073022
0.0007268457
0.00072279318
0.00071883303
0.00071519491
0.00071203288
0.00070935969
0.0007068982
0.0007040416
0.00070057716
0.00069615445
0.00069047792
0.00068349415
0.00067554223
0.00066714988
0.00065856786
0.0006496695
0.00064022582
0.00063013639
0.00061943462
0.00060818983
0.00059644563
0.00058412828
0.00057108441
0.00055711914
0.00054205755
0.00052578575
0.00050828536
0.00048960122
0.00046973573
0.00044841603
0.00042474591
0.00039747582
0.00036517314
0.00032806137
0.00027681999
0.00023631233
0.00021901898
0.00020979454
0.00020632636
0.00020704565
0.00021103021
0.00021792546
0.00022770337
0.0002400592
0.00025534372
0.00027443671
0.0002983276
0.00032669406
0.00035851198
0.00039378275
0.00043257494
0.00047486975
0.00052067617
0.0005694811
0.00061965709
0.00066861614
0.00071639728
0.00076527739
0.00081793863
0.00087383496
0.0009352162
0.0010044928
0.0010845032
0.0011823156
0.001312388
0.0014896594
0.0017170687
0.0020110233
0.0023781224
0.0029076166
0.0034583751
0.0047303824
0.0047266106
0.010250566
0.0026551045
0.051168939
0.01728364
0.83892742
1.4383772
5.6762705
1.520226
4.0753496
1.0578497
3.2806267
0.98059271
0.67236009
0.02374491
0.047744901
0.0021616384
0.0081735222
0.0036621045
0.0036947887
0.0027578637
0.0023457504
0.0019514574
0.0016688611
0.0014431634
0.0012696749
0.0011416029
0.0010448391
0.00096570891
0.00089728978
0.00083680095
0.00078164165
0.00073049367
0.00068169422
0.00063439032
0.00058683022
0.00053860066
0.00049189394
0.00044833565
0.00040826284
0.00037166325
0.00033844283
0.00030848298
0.00028187197
0.00025921049
0.00024105476
0.00022659046
0.000214819
0.00020546904
0.00019868204
0.00019477317
0.00019433845
0.00019797489
0.00020703908
0.00022371345
0.00026140319
0.00030744065
0.00033931952
0.00036714113
0.00039165882
0.00041400057
0.00043439818
0.00045321561
0.00047069013
0.00048704779
0.00050245281
0.00051700527
0.00053085583
0.00054407729
0.00055666895
0.00056848392
0.00057841933
0.00058616253
0.00059461776
0.0006038326
0.00061177818
0.00061856673
0.00062451637
0.00062992325
0.00063504564
0.00063994629
0.00064463897
0.0006491016
0.00065330416
0.00065722
0.00066084741
0.00066420698
0.00066733657
0.0006702765
0.00067308518
0.00067577462
0.00067837962
0.00068103154
0.00068389498
0.00068706114
0.00069050759
0.00069393845
0.00069715726
0.00069999195
0.00070211033
0.00070341517
0.00070407954
0.00070430713
0.00070416719
0.000703663
0.00070283251
0.00070205312
0.0007018
0.00070222034
0.00070304133
0.00070378884
0.00070425917
0.00070472615
0.00070518268
0.00070508307
0.00070436356
0.0007032218
0.00070165572
0.00069966605
0.00069725766
0.00069443665
0.00069120613
0.00068755548
0.00068343031
0.00067893429
0.00067427073
0.0006697666
0.00066559917
0.00066135707
0.00065704045
0.00065319126
0.00065029421
0.0006486803
0.0006483983
0.00064891082
0.00064901613
0.00064826688
0.00064596036
0.00064150541
0.00063481003
0.00062659412
0.00061797981
0.00060952929
0.00060102343
0.00059202937
0.00058238154
0.0005721947
0.00056166833
0.00055095048
0.00053995452
0.00052843878
0.00051608659
0.00050263334
0.00048795581
0.00047214769
0.0004554569
0.00043809676
0.00041974709
0.00039900223
0.0003736418
0.00034226641
0.0003062703
0.00025902796
0.00022266988
0.00020728913
0.00019927547
0.00019660124
0.00019781216
0.00020208896
0.00020911926
0.0002188714
0.00023109434
0.00024613475
0.00026479738
0.00028790764
0.00031509424
0.00034543622
0.00037892675
0.00041560579
0.00045543142
0.00049835694
0.00054383708
0.00059035447
0.00063572945
0.00068021231
0.00072595259
0.00077526296
0.00082775213
0.00088551453
0.0009507913
0.0010263212
0.0011187366
0.0012410727
0.0014062478
0.0016165416
0.0018857459
0.0022181137
0.0026995913
0.0031966338
0.0043196985
0.0043386393
0.0090453637
0.0028022135
0.042506524
0.017002684
0.61088439
1.0144376
3.5118355
1.0829794
2.5447936
0.76520665
2.0960959
0.71372149
0.49920757
0.025486079
0.040856513
0.0022407745
0.007377725
0.0034104021
0.0034205641
0.0025752779
0.0021948442
0.0018315128
0.0015691008
0.0013588565
0.001196534
0.0010761182
0.00098485102
0.0009101186
0.00084549281
0.00078833681
0.00073622929
0.0006879472
0.00064191143
0.00059726959
0.00055267832
0.00050764576
0.00046405381
0.00042339882
0.00038599866
0.00035182959
0.00032076243
0.00029266394
0.00026759803
0.00024611428
0.00022874879
0.00021480565
0.00020339765
0.00019426121
0.00018755
0.00018361107
0.00018307443
0.00018646792
0.00019487686
0.00021022791
0.00024438997
0.00028581636
0.00031454849
0.00033970485
0.00036197587
0.0003823125
0.00040089025
0.00041805055
0.0004340367
0.00044909105
0.00046338957
0.00047701747
0.00049014982
0.00050284936
0.00051507179
0.00052654522
0.00053553398
0.00054154609
0.00054902026
0.00055800652
0.00056534785
0.00057119565
0.00057602775
0.00058028784
0.00058435946
0.00058832365
0.00059218779
0.0005959039
0.00059941396
0.00060266677
0.00060564786
0.00060838119
0.00061091281
0.00061329999
0.00061561938
0.00061789225
0.00062017497
0.00062265709
0.00062558792
0.00062910024
0.00063316249
0.00063731264
0.00064126635
0.00064468601
0.00064710754
0.0006483584
0.00064870495
0.00064846329
0.00064773981
0.00064653862
0.00064492471
0.00064348218
0.00064293729
0.00064351574
0.00064479743
0.00064604702
0.00064695322
0.00064794048
0.00064899665
0.00064927548
0.00064867978
0.00064751745
0.00064578687
0.00064349164
0.00064064221
0.00063725087
0.00063332597
0.00062885528
0.00062376188
0.00061822285
0.00061254399
0.00060722734
0.0006025543
0.00059790596
0.00059327852
0.0005894973
0.00058731175
0.00058723707
0.00058937002
0.00059292826
0.00059612803
0.00059822968
0.00059815419
0.00059498466
0.00058856655
0.00058000474
0.00057105611
0.00056263492
0.00055443717
0.00054581256
0.00053652016
0.00052675739
0.00051686608
0.00050710231
0.00049736538
0.00048732091
0.0004765242
0.00046461531
0.00045145916
0.00043726466
0.00042249181
0.00040757631
0.00039215203
0.00037428705
0.00035072441
0.00032007293
0.00028505862
0.00024164286
0.00020934977
0.000195868
0.00018905672
0.00018717586
0.00018888167
0.00019345649
0.00020062874
0.00021036394
0.00022246319
0.00023726695
0.0002555016
0.00027782985
0.00030383553
0.00033269855
0.00036440352
0.00039896245
0.00043631009
0.00047634603
0.00051849898
0.00056137105
0.00060318469
0.00064438839
0.00068699613
0.00073296799
0.00078205907
0.00083620901
0.00089749302
0.00096854554
0.0010555506
0.0011701294
0.001323244
0.0015165287
0.0017612205
0.0020593218
0.00249403
0.0029386546
0.0039198742
0.0039573355
0.0079125404
0.002894715
0.034937319
0.016348608
0.44522347
0.72141704
2.2273932
0.78090127
1.626065
0.55934705
1.3664448
0.52479319
0.37336008
0.026530277
0.034903125
0.0022887128
0.0066303845
0.0031647448
0.0031554877
0.0023969923
0.0020472111
0.0017137344
0.0014709493
0.0012757868
0.0011244224
0.0010115593
0.00092572256
0.00085532974
0.00079444337
0.00074056859
0.00069145941
0.00064598862
0.00060265894
0.00056061315
0.00051892163
0.00047702603
0.00043650226
0.00039871772
0.00036396945
0.00033222118
0.00030330624
0.00027707223
0.00025355637
0.00023325535
0.00021668659
0.00020325946
0.00019220583
0.0001832717
0.00017662672
0.00017265565
0.00017202724
0.00017519918
0.00018298094
0.00019703963
0.00022777779
0.0002647457
0.00029044398
0.00031305645
0.00033319621
0.00035163873
0.00036850144
0.00038410479
0.00039869905
0.00041254444
0.00042583358
0.0004386367
0.00045115402
0.00046343849
0.00047540133
0.00048663388
0.00049473525
0.00049903741
0.00050557571
0.00051440664
0.00052118932
0.00052611411
0.00052983279
0.0005329482
0.00053597598
0.00053901555
0.00054206677
0.00054505353
0.00054788871
0.00055049443
0.00055284336
0.00055496316
0.00055690864
0.00055875473
0.00056059628
0.00056246654
0.00056444467
0.00056677961
0.00056980858
0.00057370897
0.00057844634
0.00058339151
0.00058815743
0.00059223026
0.00059500318
0.00059621842
0.00059623976
0.00059550566
0.00059416386
0.00059222181
0.00058978155
0.00058764689
0.00058680105
0.00058755007
0.00058931995
0.00059110202
0.00059247241
0.00059401224
0.00059570253
0.00059637329
0.00059589463
0.00059469203
0.00059276457
0.00059011954
0.00058677407
0.00058274777
0.00057805536
0.00057268435
0.00056653962
0.0005598854
0.00055312363
0.0005469305
0.00054170002
0.00053660913
0.00053163573
0.00052788119
0.00052636409
0.00052778834
0.00053231637
0.0005389549
0.00054537121
0.00055046861
0.00055276656
0.00055098524
0.00054486847
0.00053589517
0.00052649704
0.00051799311
0.00051001069
0.00050166945
0.00049264138
0.00048320705
0.00047386488
0.00046497977
0.00045643595
0.00044780243
0.00043850119
0.00042807169
0.00041636407
0.00040370433
0.00039077245
0.00037823757
0.00036569019
0.00035066112
0.00032877676
0.00029863496
0.00026452575
0.00022475783
0.00019642019
0.00018481354
0.00017919037
0.00017809752
0.00018029794
0.00018517339
0.00019249112
0.00020221502
0.00021419558
0.00022876381
0.00024656377
0.00026809919
0.00029291494
0.0003202881
0.00035019451
0.00038261943
0.00041747447
0.00045460927
0.00049343575
0.00053268608
0.00057097453
0.00060892797
0.00064841653
0.00069107076
0.00073677949
0.00078732888
0.00084463207
0.00091121118
0.00099278608
0.0010995821
0.0012406885
0.001417105
0.0016375964
0.0019020502
0.0022913631
0.002685132
0.0035323613
0.0035837744
0.0068577923
0.0029253615
0.028402928
0.015395143
0.32446788
0.51682553
1.4429758
0.56937426
1.0593394
0.41265997
0.90626067
0.38949717
0.28133591
0.02696759
0.029794994
0.0023081662
0.0059321283
0.002925846
0.002900252
0.0022235262
0.0019032899
0.0015984769
0.0013747022
0.0011942035
0.0010535546
0.0009481169
0.00086762736
0.00080150224
0.00074428914
0.00069363304
0.00064745847
0.00060473444
0.00056404381
0.00052451909
0.0004856468
0.00044681682
0.00040930405
0.0003743479
0.00034222312
0.00031288021
0.00028611345
0.00026174581
0.00023978522
0.00022067321
0.00020491007
0.0001919944
0.00018128446
0.00017253906
0.00016594824
0.00016194159
0.00016123065
0.00016420152
0.00017138346
0.00018418016
0.00021160698
0.00024427987
0.00026706316
0.00028726026
0.00030538893
0.0003220517
0.00033730669
0.00035145476
0.00036475388
0.00037748351
0.00038985825
0.00040193444
0.00041393772
0.00042591254
0.00043772608
0.00044882243
0.00045610784
0.00045873428
0.00046437962
0.00047311617
0.00047937726
0.00048338975
0.00048599455
0.00048796503
0.00048995457
0.00049208057
0.00049433398
0.00049660861
0.00049878735
0.00050076254
0.00050249454
0.00050401504
0.0005053881
0.00050670665
0.00050808275
0.00050956551
0.00051125826
0.00051346826
0.0005166229
0.00052094742
0.00052641238
0.00053222605
0.00053788246
0.00054268149
0.00054586211
0.00054706829
0.00054676058
0.00054551045
0.00054351303
0.00054078407
0.00053747605
0.00053462446
0.00053347121
0.0005344031
0.00053668733
0.00053903248
0.00054089789
0.00054302461
0.00054538418
0.00054645594
0.00054608201
0.00054481316
0.00054264978
0.0005396044
0.00053570253
0.00053097299
0.00052543876
0.00051908952
0.00051182015
0.00050399457
0.000496102
0.00048898559
0.00048316004
0.00047761044
0.00047227422
0.00046851087
0.0004676041
0.00047044721
0.00047729186
0.00048698846
0.00049671267
0.00050494554
0.00050978009
0.00050953047
0.00050378304
0.00049435963
0.00048440125
0.00047569539
0.00046782714
0.00045967685
0.00045081769
0.00044161301
0.00043273404
0.00042465042
0.00041723058
0.00040994395
0.00040207539
0.00039305952
0.00038272872
0.00037152646
0.00036035894
0.00035013853
0.00034041496
0.00032817705
0.00030783515
0.00027799356
0.00024476116
0.00020847177
0.00018395196
0.00017418364
0.00016972737
0.00016941116
0.00017210142
0.00017727581
0.00018473805
0.00019445171
0.00020631278
0.00022063827
0.0002379858
0.00025870646
0.00028231387
0.00030817719
0.00033626354
0.00036653313
0.00039887541
0.0004330958
0.00046860142
0.0005042651
0.00053907918
0.00057382143
0.00061021131
0.00064957776
0.00069192693
0.00073889347
0.0007922325
0.00085434223
0.00093046084
0.001029447
0.0011586174
0.0013183495
0.0015150387
0.0017466418
0.0020920714
0.0024368458
0.003158676
0.0032192941
0.0058855334
0.0028910788
0.022833054
0.014212338
0.23624102
0.37265429
0.95191351
0.41934683
0.70157588
0.30689138
0.61009149
0.29155517
0.21364421
0.026889254
0.025448109
0.00230226
0.0052832206
0.0026943897
0.0026554793
0.00205537
0.0017634978
0.001486083
0.0012806473
0.0011143502
0.00098414037
0.00088597707
0.00081073475
0.00074879195
0.00069517405
0.00064766346
0.00060434987
0.00056429859
0.00052617089
0.00048908417
0.00045293928
0.00041709231
0.00038252255
0.00035034305
0.00032080512
0.00029384561
0.00026921953
0.00024671866
0.0002263189
0.00020840384
0.00019345803
0.00018105126
0.0001706733
0.00016210101
0.00015554995
0.00015150303
0.00015071762
0.00015350634
0.00016011458
0.00017167895
0.00019591548
0.00022446798
0.00024446065
0.00026237723
0.00027861858
0.00029361811
0.00030737401
0.00032016871
0.00033226831
0.00034397246
0.00035552313
0.0003669655
0.00037855046
0.00039031656
0.0004020891
0.0004131575
0.00041971588
0.00042071981
0.00042551219
0.0004341974
0.00043996202
0.00044306496
0.00044455143
0.00044537568
0.00044633234
0.00044755578
0.00044902644
0.00045060835
0.00045214927
0.00045351182
0.00045464408
0.00045558208
0.00045639947
0.00045720703
0.00045813181
0.00045924401
0.00046067247
0.00046277869
0.00046608141
0.0004708569
0.00047709002
0.00048383837
0.00049046033
0.00049606139
0.00049971389
0.00050094903
0.00050031495
0.0004985271
0.00049583624
0.00049227463
0.00048806196
0.00048447521
0.00048301175
0.00048413771
0.00048695919
0.00048989659
0.0004922895
0.0004950381
0.00049810072
0.00049957501
0.00049928567
0.00049791656
0.00049547064
0.00049196802
0.00048744525
0.00048194306
0.00047549565
0.00046809873
0.0004596499
0.0004506219
0.00044158018
0.00043352038
0.00042708416
0.00042108788
0.00041539648
0.000411599
0.000411229
0.00041536449
0.00042437556
0.00043703162
0.0004501021
0.00046158743
0.00046913167
0.00047059588
0.00046533665
0.00045546273
0.00044484647
0.00043581578
0.00042795235
0.00041989395
0.00041110488
0.00040203108
0.00039353074
0.0003861709
0.00037980293
0.0003737949
0.00036729304
0.00035962442
0.00035060093
0.00034078226
0.00033130476
0.00032333168
0.00031637287
0.00030687784
0.00028791589
0.00025818266
0.00022585078
0.00019288691
0.00017201709
0.0001640348
0.00016071609
0.00016115779
0.00016432743
0.00016979354
0.00017739349
0.00018709187
0.00019882486
0.00021288988
0.00022975428
0.0002496258
0.00027199585
0.00029631938
0.00032255521
0.00035064092
0.00038044567
0.00041173859
0.00044393634
0.00047606092
0.00050746737
0.00053904807
0.0005723681
0.00060848604
0.00064750593
0.0006909136
0.00074030978
0.00079795414
0.00086858554
0.0009597373
0.0010770708
0.0012203541
0.0013937402
0.0015934947
0.0018967054
0.0021946759
0.0028003887
0.0028655082
0.0049986768
0.0027931302
0.018147352
0.012868493
0.17170071
0.27019227
0.63787077
0.31165023
0.47126394
0.22979584
0.41614116
0.21992866
0.16355339
0.026384539
0.021784139
0.0022745506
0.0046835589
0.0024710241
0.0024217137
0.0018929792
0.0016282255
0.0013768791
0.0011890609
0.0010364623
0.00091638265
0.00082531946
0.00075520788
0.0006973489
0.00064723662
0.00060278825
0.00056225272
0.00052479134
0.00048914192
0.00045440321
0.00042088284
0.00038792513
0.00035621945
0.00032675477
0.00029975816
0.00027515263
0.00025265566
0.00023202005
0.00021318695
0.00019647874
0.00018236498
0.0001704682
0.00016041027
0.00015199401
0.00014546616
0.00014137325
0.00014051994
0.00014314322
0.00014920206
0.00015956307
0.0001807386
0.00020535691
0.00022268859
0.0002384648
0.00025294499
0.00026639862
0.00027876414
0.00029030642
0.00030129964
0.00031206403
0.00032287387
0.00033376806
0.00034502202
0.00035667261
0.00036850749
0.00037965873
0.00038560083
0.00038505977
0.0003890363
0.0003976903
0.00040296843
0.00040515606
0.00040551674
0.00040519394
0.00040512423
0.00040545712
0.00040616093
0.00040707226
0.00040799565
0.00040876564
0.00040931835
0.00040969433
0.00040997698
0.00041029413
0.00041078429
0.00041154537
0.0004127328
0.00041475458
0.00041822067
0.00042346143
0.00043048633
0.00043822296
0.0004458777
0.00045235702
0.00045655204
0.00045786874
0.00045692075
0.0004545781
0.00045115794
0.00044672111
0.00044157457
0.00043724325
0.00043547109
0.00043680001
0.00044017625
0.00044373191
0.00044668543
0.00045008965
0.0004538856
0.00045575317
0.00045551829
0.00045400547
0.00045122235
0.00044719997
0.00044198957
0.00043564767
0.00042822381
0.00041972527
0.00041007019
0.0003998433
0.00038967367
0.00038068694
0.00037365424
0.00036725907
0.00036124966
0.00035740718
0.00035748593
0.00036273743
0.00037368292
0.00038910493
0.00040548399
0.00042029577
0.00043071762
0.00043410981
0.00042951242
0.00041923693
0.00040788815
0.00039841028
0.00039043463
0.00038236251
0.00037354256
0.00036450465
0.00035630057
0.00034958734
0.0003441962
0.00033939374
0.00033418892
0.00032780065
0.00032001809
0.00031151409
0.00030365633
0.00029786349
0.00029361288
0.00028679538
0.00026901225
0.00023923264
0.00020787582
0.00017810513
0.00016068637
0.00015442014
0.00015220009
0.00015337232
0.00015700387
0.00016274753
0.00017047109
0.00018014126
0.00019172776
0.0002055019
0.000221838
0.00024081272
0.00026190506
0.00028464857
0.00030899465
0.00033486149
0.00036210106
0.0003904563
0.0004193693
0.00044801926
0.00047609824
0.000504578
0.00053486658
0.00056778522
0.00060351416
0.00064339367
0.00068887319
0.00074205673
0.00080716825
0.00089047055
0.00099610094
0.0011232358
0.0012739368
0.0014430793
0.0017059046
0.0019596168
0.0024591117
0.0025243119
0.0041985377
0.0026369406
0.014258081
0.01142975
0.12447956
0.19679844
0.43329339
0.23346068
0.3205237
0.17304413
0.28721621
0.16704322
0.12625677
0.025539059
0.018728814
0.0022290385
0.0041326776
0.0022563572
0.0021994152
0.0017367696
0.0014978321
0.0012711719
0.0011002046
0.00096076379
0.00085047487
0.00076631508
0.00070120177
0.00064731566
0.00060060851
0.0005591296
0.00052128064
0.00048631828
0.00045305467
0.00042056846
0.00038955918
0.00035938618
0.0003304547
0.00030363247
0.00027912209
0.00025683263
0.00023644836
0.00021767395
0.00020041333
0.00018492402
0.00017166012
0.00016027995
0.00015053072
0.00014225262
0.00013572967
0.00013158428
0.00013066793
0.0001331396
0.00013867091
0.00014785692
0.00016610865
0.00018699118
0.0002017966
0.00021557681
0.00022842312
0.00024044767
0.00025153041
0.00026191904
0.00027189523
0.00028179956
0.00029194262
0.00030236427
0.00031336324
0.00032498055
0.00033697292
0.00034831836
0.00035377953
0.00035179995
0.00035499525
0.00036361151
0.00036839521
0.00036965309
0.00036887881
0.00036741055
0.00036632391
0.00036578066
0.00036573826
0.00036600263
0.00036633145
0.00036653215
0.0003665296
0.00036636892
0.00036614307
0.00036599538
0.000366071
0.00036650357
0.00036747551
0.00036942944
0.00037306516
0.00037876983
0.00038658836
0.00039534887
0.00040409094
0.00041152103
0.00041633543
0.00041780237
0.00041656614
0.00041365925
0.00040947888
0.00040413063
0.00039803175
0.00039295719
0.00039088249
0.00039241966
0.00039636052
0.00040055536
0.00040410194
0.0004081921
0.00041274594
0.00041498356
0.0004147612
0.00041305087
0.00040986801
0.00040525916
0.00039929508
0.00039205317
0.0003836038
0.00037397317
0.00036312292
0.00035174464
0.00034051739
0.00033066638
0.00032308954
0.00031638195
0.00031012557
0.00030624544
0.00030667342
0.00031281519
0.00032537631
0.00034326038
0.000362812
0.0003809589
0.00039440212
0.00039995667
0.00039624917
0.00038568011
0.00037355801
0.00036351649
0.00035530503
0.00034710746
0.00033815517
0.00032906363
0.00032107851
0.00031493603
0.00031044362
0.00030676837
0.00030278675
0.00029761141
0.00029100722
0.00028375531
0.00027745255
0.00027377377
0.000272178
0.0002679488
0.00025109133
0.00022117593
0.00019091162
0.00016422326
0.00015002618
0.00014538687
0.00014421568
0.0001460811
0.00015014862
0.00015614716
0.00016397126
0.00017359038
0.00018499986
0.00019843802
0.00021418514
0.0002322018
0.00025196466
0.00027307808
0.00029548768
0.00031909631
0.00034374333
0.0003691574
0.00039482219
0.00042007991
0.00044492623
0.00047037712
0.00049768368
0.00052746259
0.00055994759
0.00059633719
0.00063793164
0.00068666098
0.00074622309
0.00082167909
0.00091578546
0.0010271515
0.0011559243
0.0012959572
0.0015204181
0.0017327884
0.0021364789
0.0021978629
0.0034848239
0.0024315464
0.011073188
0.0099582063
0.089959593
0.14384496
0.29786009
0.17608507
0.2204687
0.13089869
0.20039758
0.12764428
0.09830145
0.024432247
0.016211397
0.0021701784
0.0036297579
0.0020509515
0.0019889547
0.0015871125
0.0013726413
0.001169244
0.0010143225
0.00088746511
0.00078659896
0.00070912437
0.00064886155
0.00059882564
0.00055541299
0.00051680211
0.00048154065
0.00044897936
0.0004180021
0.0003876692
0.00035904766
0.00033154448
0.00030528649
0.00028102351
0.000258934
0.00023891295
0.00022061928
0.00020369866
0.00018801584
0.0001737596
0.00016136613
0.0001505169
0.00014106672
0.00013290902
0.00012637158
0.00012216654
0.00012119006
0.00012352041
0.00012854307
0.00013658203
0.00015205482
0.00016941274
0.00018183189
0.00019376348
0.000205103
0.00021581345
0.00022571861
0.00023504903
0.00024409269
0.00025320948
0.00026274883
0.00027276135
0.00028356737
0.0002952196
0.00030745301
0.00031910195
0.00032424282
0.00032096346
0.00032341033
0.00033195355
0.00033621497
0.00033652043
0.00033460205
0.00033199456
0.00032990544
0.00032850442
0.00032774292
0.00032738711
0.00032714806
0.00032680715
0.00032627887
0.00032561283
0.00032491102
0.00032432984
0.00032401521
0.00032414557
0.00032492968
0.00032682876
0.00033062961
0.00033677837
0.00034536619
0.00035516305
0.00036502921
0.00037347451
0.0003789895
0.00038069218
0.00037921006
0.00037574056
0.00037077735
0.00036449127
0.00035743528
0.00035163104
0.00034926463
0.0003510102
0.00035551565
0.00036036346
0.00036453341
0.00036933994
0.00037466216
0.00037722969
0.00037696476
0.00037499256
0.00037134061
0.0003660768
0.00035929747
0.00035110735
0.00034160458
0.00033084332
0.0003188564
0.00030642672
0.00029426919
0.00028367094
0.00027564756
0.00026875081
0.00026235448
0.00025846496
0.00025913612
0.00026589913
0.00027967237
0.00029959494
0.00032206476
0.0003434672
0.00036002907
0.0003679833
0.00036544216
0.00035475353
0.00034186238
0.00033115317
0.00032257778
0.00031413802
0.00030495341
0.00029572679
0.00028789002
0.0002822444
0.00027856935
0.00027593706
0.00027310006
0.0002690695
0.0002635853
0.00025753011
0.00025272431
0.00025109501
0.00025210083
0.00025034262
0.00023409091
0.00020405491
0.00017502626
0.00015132724
0.00014009452
0.00013697329
0.00013678881
0.00013929896
0.00014376657
0.00014998718
0.00015787812
0.00016741135
0.00017859903
0.00019163984
0.00020672158
0.000223706
0.00024207695
0.00026150178
0.00028192285
0.00030323266
0.00032526403
0.00034774453
0.00037021446
0.00039218203
0.00041390577
0.00043641232
0.00046079896
0.00048750896
0.00051680694
0.0005497537
0.00058750163
0.00063178859
0.00068578194
0.00075342397
0.00083624326
0.00093231644
0.0010400786
0.0011527927
0.0013411288
0.0015154384
0.001834114
0.0018885274
0.0028557138
0.0021887174
0.0084997841
0.0085095571
0.064769779
0.10538834
0.2069171
0.13355925
0.15325403
0.099359939
0.14126505
0.098048969
0.07719446
0.023135367
0.01416418
0.0021028945
0.0031736434
0.0018553197
0.0017906113
0.0014443306
0.001252937
0.0010713513
0.00093163791
0.0008167605
0.00072492317
0.00065389532
0.0005983208
0.00055200166
0.00051176363
0.00047591164
0.00044313207
0.00041286804
0.00038407157
0.00035579127
0.00032942508
0.00030446715
0.00028077138
0.00025897346
0.00023922857
0.0002214185
0.0002051853
0.00019010659
0.00017600564
0.00016299852
0.00015149821
0.00014120418
0.00013204634
0.0001239924
0.00011742164
0.00011314843
0.00011211259
0.00011430771
0.00011883708
0.00012575686
0.00013860292
0.00015266085
0.00016283934
0.00017307135
0.0001830297
0.00019253782
0.00020136704
0.00020973031
0.00021792014
0.00022631387
0.00023530035
0.0002449532
0.00025561221
0.00026735071
0.00027989383
0.00029195006
0.0002969546
0.00029254832
0.00029427837
0.00030268442
0.00030637491
0.00030569828
0.00030262895
0.00029889553
0.00029582577
0.00029359102
0.00029214578
0.00029120183
0.00029042669
0.00028957736
0.00028855925
0.00028742611
0.00028628798
0.000285311
0.00028463537
0.00028449391
0.0002851195
0.00028697218
0.00029092148
0.0002974739
0.00030677681
0.00031759452
0.00032859862
0.0003381109
0.00034440872
0.00034644879
0.00034478331
0.00034076754
0.0003350108
0.00032777376
0.00031977215
0.00031326503
0.00031062202
0.00031256948
0.00031762738
0.00032313275
0.00032795259
0.00033350789
0.00033958798
0.00034242595
0.00034204962
0.00033974128
0.00033554604
0.00032956033
0.00032191347
0.00031274524
0.00030218992
0.0002903399
0.00027733063
0.00026400856
0.00025111033
0.00023994161
0.00023161708
0.00022468671
0.00021829054
0.00021444172
0.00021525031
0.00022233444
0.00023684288
0.00025826195
0.00028326097
0.00030772918
0.00032743632
0.00033800841
0.0003369461
0.0003263804
0.00031278024
0.00030131976
0.00029225107
0.00028344917
0.00027393603
0.00026450336
0.00025675242
0.00025153215
0.00024858958