/*--------------------------------*- C++ -*----------------------------------*\
| =========                 |                                                 |
| \\      /  F ield         | OpenFOAM: The Open Source CFD Toolbox           |
|  \\    /   O peration     | Version:  2.4.0                                 |
|   \\  /    A nd           | Web:      www.OpenFOAM.org                      |
|    \\/     M anipulation  |                                                 |
\*---------------------------------------------------------------------------*/
FoamFile
{
    version     2.0;
    format      ascii;
    class       volScalarField;
    location    "110";
    object      f;
}
// * * * * * * * * * * * * * * * * * * * * * * * * * * * * * * * * * * * * * //

dimensions      [0 0 -1 0 0 0 0];

internalField   nonuniform List<scalar> 
32000
(
0.19637418
0.072415224
0.14048977
0.053399252
0.035220703
0.011826985
0.014376017
0.0091424292
0.0075218635
0.0050889498
0.0040480477
0.0033234625
0.0028985085
0.0025387891
0.0022525108
0.0020184633
0.0018299225
0.0016782043
0.0015514197
0.0014251277
0.0012867907
0.0011370949
0.00095583833
0.00074537263
0.00049933042
0.00067633776
0.00092638712
0.0011659899
0.0013752946
0.0015260844
0.0015927211
0.0015548976
0.0014069366
0.0011617768
0.00085295284
0.00053311582
0.0006332755
0.00089796346
0.0010717958
0.0011454025
0.0011323018
0.0010507371
0.00095911178
0.00092455405
0.00091865734
0.00087112479
0.00071950109
0.00044037762
0.00076794896
0.0011339137
0.0014841553
0.0017888777
0.0020751323
0.0023249579
0.0025265613
0.0026440392
0.002648066
0.002498354
0.0021942678
0.0017124677
0.001146273
0.0010776077
0.0016676953
0.0014477647
0.00099093184
0.0010484081
0.0012517726
0.0014766733
0.0016513678
0.0017337208
0.0017665785
0.0017675138
0.0017687447
0.0017700068
0.0017708782
0.0017568513
0.0017165544
0.0016304056
0.0014889213
0.0012723149
0.00098235066
0.0006551178
0.00080506986
0.0011930938
0.0015469151
0.0017868794
0.001833949
0.0016374619
0.0012104217
0.0009077597
0.0015943901
0.0021647477
0.0025821385
0.0028786392
0.0030828744
0.0031911459
0.003159009
0.0029580406
0.0026349997
0.0022991326
0.0020469455
0.0018964655
0.0017906019
0.0017009365
0.0016975637
0.0018183923
0.0020359302
0.0023503535
0.002745927
0.0031987494
0.003675742
0.0041365386
0.0045292715
0.0047966982
0.004875933
0.0046923017
0.0041562231
0.0031791563
0.0018587508
0.000515357
0.0022531382
0.0043317816
0.006541979
0.008582143
0.010036628
0.010560354
0.010110143
0.008879745
0.0072652245
0.0056793938
0.0043932332
0.00349134
0.0029518088
0.0026847769
0.0025325745
0.0023572451
0.0021437414
0.0019847728
0.0019779872
0.0021538552
0.0024610725
0.0027993185
0.0030744319
0.0032641441
0.0034076072
0.0036048756
0.0039012827
0.004297063
0.0045995679
0.0045929195
0.0037549764
0.0022047348
0.00085318063
0.0013517586
0.0012369621
0.0016621033
0.0018680533
0.0021739668
0.002487609
0.0028381729
0.0032162878
0.0036465454
0.0041130726
0.0046212462
0.0051919141
0.005911312
0.0067584697
0.0076524304
0.0085641596
0.0094640074
0.010327852
0.011134894
0.011870605
0.012467369
0.012837453
0.01294439
0.012860534
0.012651255
0.012302695
0.011836848
0.011264908
0.010585175
0.0098015906
0.0089449258
0.0079758742
0.0067448039
0.0051525324
0.002933913
0.0015184149
0.0057839447
0.011413606
0.017404033
0.027095754
0.024830177
0.042875725
0.031514855
0.064275802
0.067805636
0.15081429
0.0733337
0.4490798
0.15486943
0.2940396
0.10399823
0.072918107
0.034393887
0.034691807
0.021313103
0.015722977
0.0106143
0.0082001614
0.0065819046
0.0055774108
0.0048065016
0.0042244107
0.0037725457
0.0034226049
0.0031492968
0.0029241347
0.0027126033
0.0024983842
0.002279313
0.0020340119
0.0017641231
0.0014626721
0.0015782766
0.0017766667
0.0019768171
0.0021568722
0.0022884886
0.0023463997
0.0023107844
0.0021760963
0.0019543353
0.0016772986
0.0013960211
0.0015278481
0.0018213667
0.0020175759
0.002098111
0.0020759763
0.00197876
0.0018742925
0.0018292972
0.0018102908
0.0017479414
0.0015932119
0.0013199317
0.0016343827
0.002002426
0.0023655577
0.0026901026
0.0029991089
0.0032744175
0.0035050066
0.0036577794
0.0037072126
0.0036189056
0.0033983601
0.0030315737
0.0026193346
0.002724943
0.0034634253
0.0033513143
0.0029343222
0.002963778
0.0030804296
0.0031842443
0.0032316477
0.0031999568
0.0031398706
0.0030693876
0.0030169197
0.0029777147
0.0029474211
0.0029090258
0.0028495551
0.0027490533
0.0025978393
0.0023767132
0.0020879446
0.0017713939
0.001927913
0.0023271907
0.0027057208
0.0029870201
0.0030966693
0.0029873291
0.0026714523
0.0024916973
0.0032721653
0.003925182
0.0043956676
0.0047067372
0.004886345
0.0049403937
0.0048451186
0.0045963533
0.0042583682
0.0039448426
0.003743641
0.0036560401
0.0036084254
0.003556038
0.003546605
0.0036112501
0.0037425892
0.0039581996
0.0042506676
0.0046012542
0.0049803412
0.0053498435
0.0056595187
0.0058531428
0.0058691397
0.0056339769
0.0050606222
0.0040654935
0.0027483508
0.0014371692
0.0031396831
0.005207912
0.0074227155
0.0094877837
0.01099884
0.011623454
0.011324222
0.010290338
0.0088976095
0.0075233114
0.0063984734
0.0055836838
0.0050592875
0.0047509125
0.0045148471
0.0042274639
0.0038935164
0.0036259195
0.0035348694
0.0036539482
0.0039297257
0.0042580227
0.0045410181
0.0047539929
0.0049367729
0.0051902528
0.0055546159
0.0060039301
0.0062988305
0.0061813538
0.0051683844
0.003461531
0.0019959974
0.0023748588
0.0022201963
0.0026187108
0.0028169769
0.0031153622
0.0034226095
0.0037653834
0.0041341762
0.0045526712
0.0050053315
0.0054975986
0.0060509326
0.0067500072
0.0075742218
0.008444357
0.0093321648
0.01020884
0.011050799
0.011837553
0.012554152
0.013133513
0.013488741
0.013584394
0.013491745
0.013275008
0.012920368
0.012449405
0.011873023
0.011189525
0.010403241
0.0095446214
0.0085756185
0.0073476101
0.005760051
0.0035728282
0.0022660094
0.0065751984
0.012281826
0.018367233
0.028263979
0.026325222
0.046161737
0.03597213
0.090066918
0.11209892
0.31479432
0.16385113
0.66496973
0.23091244
0.41582597
0.14742249
0.10618027
0.058177892
0.055882417
0.034256917
0.024403287
0.016477175
0.012597424
0.010032661
0.0084129348
0.0072062239
0.0063104921
0.0056277094
0.0051065983
0.0047042557
0.0043747063
0.0040727786
0.0037781227
0.003485544
0.0031723986
0.002839583
0.0024794514
0.0025302537
0.0026739816
0.00283243
0.0029816246
0.0030930335
0.0031417748
0.0031085473
0.0029879629
0.0027910532
0.0025477857
0.0023074298
0.0024731716
0.0027975656
0.0030177518
0.0031058806
0.0030742852
0.0029604191
0.0028421977
0.0027860069
0.0027529105
0.0026744563
0.0025153178
0.0022466645
0.0025467858
0.0029165994
0.0032930065
0.0036381834
0.0039709724
0.0042729833
0.0045340211
0.0047239492
0.0048212783
0.0047978271
0.0046656245
0.0044205125
0.0041710543
0.004461156
0.0053573311
0.0053590527
0.0049837099
0.0049833515
0.0050079273
0.0049832598
0.0048956342
0.0047429479
0.0045842536
0.0044379778
0.0043285139
0.0042463393
0.004182943
0.0041186496
0.0040387912
0.0039230083
0.0037614163
0.0035354236
0.0032478295
0.0029423323
0.0031058655
0.0035171688
0.0039219184
0.0042470515
0.0044230277
0.0044060132
0.0042077758
0.0041579305
0.0050383139
0.0057790038
0.0063057795
0.0066322887
0.0067857909
0.0067823708
0.0066201635
0.0063206907
0.005966792
0.0056768816
0.0055296977
0.0055087627
0.0055229038
0.0055100121
0.0054941525
0.0054992686
0.0055392632
0.0056501777
0.0058334139
0.0060757028
0.0063510909
0.0066239088
0.0068456308
0.0069611076
0.0069101488
0.0066204248
0.0060075874
0.0049932305
0.0036793499
0.0024011304
0.0040674978
0.0061250037
0.0083450276
0.010436831
0.01200809
0.012739693
0.012600403
0.011774632
0.010616834
0.0094667084
0.0085129581
0.0077906606
0.0072825065
0.0069305381
0.0066057957
0.0061997851
0.0057382524
0.0053555883
0.0051753395
0.0052344028
0.0054770823
0.005795081
0.0060866662
0.0063245219
0.0065491912
0.0068625212
0.0072992688
0.0078058611
0.0080933369
0.0078591007
0.0066609306
0.0047880834
0.0032016692
0.0034557613
0.0032594093
0.0036303089
0.0038204978
0.0041110371
0.0044115391
0.004746063
0.0051049385
0.0055109121
0.0059487993
0.0064241147
0.0069589226
0.0076362774
0.008436
0.0092807102
0.010143003
0.010994958
0.011813552
0.012578612
0.013274758
0.01383549
0.01417482
0.014258359
0.01415623
0.013931421
0.013570154
0.013093567
0.012512251
0.011824498
0.011035001
0.010173795
0.0092040441
0.0079781125
0.0063941562
0.0042385979
0.0030428901
0.0073958677
0.013177157
0.019362042
0.029443996
0.027894948
0.049299512
0.040596086
0.1112263
0.14830222
0.44538821
0.24807993
0.86107744
0.30262314
0.51780505
0.18527202
0.13592035
0.083202108
0.078024942
0.048022917
0.033596402
0.022700169
0.017255949
0.013688017
0.011414894
0.0097460873
0.0085176873
0.0075900142
0.006887318
0.0063480086
0.0059076745
0.0055098695
0.0051299421
0.0047594754
0.0043744606
0.0039750112
0.0035527393
0.0035351336
0.0036209867
0.0037353197
0.0038519254
0.0039420135
0.0039811028
0.0039504483
0.0038448518
0.0036743459
0.00346697
0.0032700622
0.0034721406
0.0038296149
0.0040755132
0.0041719795
0.0041304927
0.0039989192
0.0038659709
0.0037977781
0.0037495452
0.0036535936
0.0034885982
0.0032231979
0.0035077044
0.0038789639
0.0042690546
0.0046357182
0.00499338
0.0053233827
0.0056164173
0.0058454695
0.0059933302
0.006038388
0.0059996156
0.0058832322
0.0058058952
0.0062913425
0.007355153
0.0074770798
0.007145259
0.0071131723
0.0070399604
0.0068789472
0.0066480765
0.0063670193
0.0061037125
0.0058770092
0.005707058
0.0055792648
0.0054807153
0.0053889056
0.0052873763
0.0051553314
0.0049826776
0.0047514521
0.0044650083
0.0041709415
0.0043419721
0.0047661301
0.0051987028
0.0055703162
0.0058165858
0.0058973797
0.0058236305
0.0059110956
0.0068978875
0.0077315876
0.0083180541
0.008660934
0.0087867652
0.0087224327
0.0084892667
0.008135996
0.0077651506
0.007500203
0.0074102542
0.0074600072
0.0075396293
0.0075685875
0.0075459041
0.0074879254
0.0074311035
0.0074310756
0.0074985796
0.0076261434
0.0077916936
0.0079621199
0.0080907096
0.0081234473
0.0080016105
0.0076541347
0.0069994946
0.0059646797
0.0046540488
0.0034094975
0.0050388869
0.0070853638
0.0093112615
0.011431726
0.013067005
0.013912015
0.013942125
0.013336735
0.012427793
0.011515271
0.010743007
0.010118954
0.0096282405
0.0092303076
0.0088117891
0.0082801728
0.0076834664
0.0071788922
0.0069042035
0.0068998264
0.0071076477
0.0074149765
0.0077158997
0.0079803484
0.0082496311
0.0086266727
0.0091405181
0.0097083962
0.0099886758
0.0096314023
0.0082372083
0.0061883864
0.0044737504
0.0045978477
0.0043578885
0.0047001545
0.0048818334
0.005164178
0.0054575413
0.0057833004
0.0061315922
0.0065241976
0.0069463004
0.007403495
0.0079184374
0.008572502
0.0093459922
0.01016348
0.010998463
0.011823955
0.012617518
0.013359301
0.014033495
0.014574242
0.014896533
0.014967061
0.014854713
0.014621177
0.014252708
0.013769971
0.013183214
0.012490708
0.011697481
0.010833043
0.0098617449
0.008636917
0.0070555218
0.0049321106
0.0038500678
0.0082466485
0.014099937
0.020388348
0.03063615
0.029537899
0.052304062
0.045374274
0.12863279
0.17819151
0.55496286
0.3282985
1.0477088
0.37165859
0.607479
0.21883536
0.16289859
0.10949458
0.1012036
0.06266393
0.043339124
0.029307875
0.022193332
0.017561366
0.014593996
0.01243496
0.010853555
0.0096660618
0.0087706561
0.0080859104
0.0075279682
0.0070284477
0.0065581044
0.0061050931
0.0056439319
0.0051739116
0.004685823
0.0045959964
0.004620554
0.004688197
0.0047703691
0.0048379441
0.0048668563
0.0048389569
0.0047492734
0.0046068115
0.0044375804
0.0042868078
0.0045278337
0.0049207742
0.0051942708
0.0052999062
0.0052480925
0.0050976874
0.0049489715
0.004867918
0.0048034315
0.0046884763
0.004516021
0.0042523323
0.0045198617
0.0048922297
0.0052964398
0.0056854953
0.0060691845
0.006428544
0.006755215
0.0070254756
0.0072266588
0.0073440942
0.0074041409
0.0074239578
0.0075286293
0.0082209525
0.0094630396
0.0097119313
0.0094255695
0.0093597101
0.0091826223
0.0088768989
0.0084940577
0.0080768039
0.0077025213
0.007390481
0.007156348
0.0069801333
0.0068442624
0.0067232261
0.0065986709
0.006449329
0.006264893
0.0060280498
0.0057427287
0.0054604754
0.0056395262
0.0060774289
0.0065395259
0.0069604213
0.0072811799
0.0074655846
0.007523565
0.007756163
0.0088563015
0.0097886955
0.010438476
0.010798723
0.010895226
0.010766327
0.010457929
0.010047578
0.0096586854
0.0094201266
0.0093908278
0.0095155419
0.0096646036
0.0097379116
0.0097079727
0.0095830939
0.0094236325
0.0093060267
0.0092509001
0.0092569224
0.0093061298
0.0093681227
0.009398103
0.0093432525
0.0091464041
0.0087378213
0.0080389442
0.006982378
0.0056749738
0.0044647474
0.0060563832
0.0080915274
0.010323989
0.012475134
0.014178429
0.015143586
0.015353063
0.014981022
0.014335703
0.013675064
0.013095372
0.012575712
0.01210374
0.011657345
0.011139648
0.010475016
0.009735068
0.0091013089
0.0087266108
0.0086551545
0.008826247
0.0091225081
0.0094335573
0.009726408
0.010043186
0.010488036
0.011083995
0.011717451
0.011990818
0.011503856
0.0099021144
0.0076666943
0.005816021
0.0058047165
0.0055191301
0.0058317095
0.0060044017
0.0062781704
0.0065639603
0.006880389
0.0072173671
0.0075956815
0.0080009005
0.0084387051
0.0089323249
0.0095613963
0.010306774
0.011095101
0.011900846
0.012698002
0.013464748
0.014181557
0.014832197
0.015351517
0.015655564
0.015712134
0.015588782
0.01534583
0.014969551
0.014480105
0.013887371
0.013189583
0.012392068
0.011523699
0.010549986
0.0093252101
0.0077452791
0.0056545597
0.0046887491
0.0091287007
0.015051287
0.021446952
0.031842314
0.031253631
0.055195326
0.05029726
0.14301141
0.20318302
0.65161584
0.4062765
1.2315876
0.43925379
0.68970098
0.24911229
0.18774103
0.13708935
0.12550948
0.078236821
0.053671642
0.036326982
0.027428684
0.021667203
0.017961807
0.015282405
0.013326233
0.01186295
0.01076294
0.0099237066
0.0092408724
0.0086334133
0.0080671771
0.0075266685
0.0069848131
0.0064400379
0.0058822245
0.005716143
0.0056757598
0.0056939615
0.0057397275
0.005783509
0.0058016693
0.0057766986
0.0057038932
0.0055912064
0.0054625113
0.0053607319
0.0056435209
0.0060745126
0.0063776601
0.006493395
0.0064308161
0.0062603841
0.0060947872
0.0059999599
0.0059180284
0.0057824413
0.005600757
0.005337061
0.0055861714
0.0059593016
0.0063780993
0.0067905071
0.0072014476
0.0075916099
0.0079536542
0.0082673305
0.0085247914
0.0087187013
0.0088832766
0.0090472086
0.0093443584
0.010255817
0.01168758
0.012070613
0.011831711
0.011729893
0.011442434
0.010983098
0.010439017
0.0098772635
0.0093852617
0.0089826866
0.0086804637
0.0084528645
0.0082773815
0.0081253126
0.0079763024
0.0078085734
0.0076115989
0.0073687348
0.0070845068
0.0068144562
0.0070020924
0.0074546949
0.0079481192
0.008421259
0.0088209417
0.0091150952
0.0093124613
0.0096984616
0.010919363
0.011956507
0.012673462
0.013052145
0.013117567
0.012920223
0.012532056
0.01206114
0.011653027
0.011442368
0.011477345
0.011681561
0.01190427
0.012024584
0.011986918
0.011791073
0.01152277
0.011280535
0.011095453
0.010972703
0.010898673
0.010845836
0.010771416
0.01062386
0.01034765
0.0098744393
0.0091287796
0.0080491102
0.0067449022
0.0055696014
0.0071227681
0.0091462696
0.011386005
0.013569918
0.015345387
0.016437737
0.016837075
0.016712097
0.016346076
0.015952531
0.015577252
0.015168572
0.014716759
0.014219276
0.013596677
0.012791156
0.011899388
0.011128707
0.010648078
0.010505674
0.010638046
0.010922809
0.011244809
0.011567969
0.011935287
0.01245229
0.013135701
0.013839331
0.014106132
0.013482434
0.01166087
0.0092275361
0.0072324873
0.007080173
0.0067468247
0.0070286192
0.0071917916
0.0074565605
0.0077342898
0.0080407616
0.0083656229
0.0087286387
0.009115777
0.0095328126
0.010003525
0.010605757
0.011320991
0.01207807
0.012852505
0.013619316
0.014357332
0.015047356
0.01567274
0.016169114
0.016453652
0.016495272
0.016360098
0.016107007
0.015722284
0.015225546
0.014626271
0.013922639
0.013120241
0.012247186
0.011270127
0.010044273
0.0084646713
0.0064072739
0.0055602937
0.010043389
0.016032705
0.022539299
0.033066241
0.033043165
0.057997851
0.055358788
0.15497551
0.22437608
0.74060691
0.48333598
1.4175255
0.50638282
0.76786141
0.27687483
0.21095431
0.16602751
0.15104044
0.09480288
0.064637787
0.043786467
0.032982779
0.026021239
0.021530846
0.018298754
0.015944498
0.014188324
0.012870977
0.011867573
0.011052065
0.010330028
0.0096620634
0.0090287862
0.0084013981
0.0077774189
0.0071457237
0.006899117
0.006789904
0.0067557206
0.0067629677
0.0067815757
0.0067883503
0.0067664675
0.0067115421
0.0066304537
0.0065448312
0.0064950854
0.0068226745
0.0072945196
0.0076295546
0.0077564304
0.0076826483
0.0074909178
0.0073072484
0.0071976765
0.007097029
0.0069390494
0.0067461876
0.0064805763
0.0067097451
0.0070832875
0.0075171794
0.0079539612
0.0083934521
0.0088159495
0.0092152069
0.0095746354
0.0098915026
0.010166224
0.010441377
0.010757809
0.011258527
0.012402165
0.014035828
0.014560628
0.014371251
0.014231133
0.013826367
0.013203936
0.012488765
0.011773699
0.011156834
0.010658223
0.010283779
0.010001666
0.0097841527
0.0095991469
0.0094241773
0.009236916
0.009026611
0.0087773067
0.0084941416
0.0082366903
0.0084335227
0.0089018474
0.0094285066
0.0099570194
0.01044031
0.010850702
0.011195548
0.011743696
0.013093289
0.014241641
0.015029888
0.015428154
0.015460638
0.015190731
0.014717977
0.014182795
0.013754216
0.013573057
0.013676161
0.013964708
0.014265541
0.014435683
0.014389773
0.014118609
0.013734853
0.013360486
0.013037667
0.012778469
0.01257389
0.012399448
0.012214508
0.011968849
0.011608708
0.011067189
0.010272098
0.0091679248
0.0078668807
0.0067270419
0.0082410791
0.010252597
0.012500297
0.014719091
0.016571011
0.017797894
0.018398127
0.018534729
0.018464683
0.018354477
0.018196297
0.01790568
0.017475585
0.016924254
0.01619069
0.015235916
0.014183198
0.013267364
0.012674507
0.012457038
0.012548564
0.01282136
0.013155173
0.013510649
0.013931724
0.014525484
0.015302032
0.016080772
0.016341434
0.015573524
0.013519041
0.010875718
0.0087273948
0.0084282641
0.0080449107
0.0082947879
0.0084478477
0.0087031399
0.0089722459
0.0092680343
0.0095798407
0.009926375
0.010294013
0.010688763
0.011134869
0.011708283
0.01239121
0.013114825
0.013855757
0.014590109
0.015297386
0.015958727
0.016557084
0.01702894
0.017292671
0.017318328
0.017170492
0.016906523
0.0165127
0.016008063
0.015401655
0.014691586
0.013883658
0.013005099
0.012023687
0.010795543
0.009215097
0.0071917525
0.0064662561
0.010992342
0.017046133
0.023667423
0.03431288
0.034908215
0.060738734
0.060556011
0.16503116
0.24261075
0.82559321
0.56052784
1.6091975
0.57384509
0.84444988
0.30272877
0.23294831
0.19635833
0.17790118
0.11242825
0.076285326
0.051717813
0.03887821
0.030640509
0.025314672
0.021495176
0.018717829
0.016650425
0.015102096
0.013924152
0.012967649
0.012123947
0.011348031
0.010616371
0.0098982986
0.0091903816
0.0084803804
0.0081487244
0.0079665287
0.0078768049
0.0078432627
0.0078352033
0.0078298914
0.0078112371
0.0077752297
0.0077276572
0.007687792
0.0076933082
0.0080689687
0.0085847049
0.0089540666
0.0090932483
0.0090078235
0.0087934335
0.0085904083
0.0084650544
0.0083443324
0.0081620536
0.0079558707
0.0076862336
0.0078938549
0.008267465
0.0087170092
0.0091792625
0.0096486942
0.010105163
0.010543593
0.010951256
0.011330844
0.011690965
0.012083089
0.012560885
0.013276899
0.014666592
0.016515276
0.017189958
0.017052229
0.016871304
0.016341823
0.015546202
0.014649479
0.013771757
0.013022466
0.012421999
0.01197097
0.011631037
0.011368942
0.01114899
0.010946474
0.010738473
0.010514005
0.010257819
0.0099756814
0.0097312313
0.0099379216
0.010423068
0.010984988
0.011572183
0.012144027
0.012677514
0.013178381
0.013897914
0.015384672
0.016651124
0.017515068
0.01793416
0.017931749
0.017584912
0.017022455
0.016419068
0.015968687
0.015818719
0.015994039
0.01637205
0.016755764
0.016978738
0.016924016
0.016572871
0.016066617
0.015552155
0.015083351
0.014679585
0.014336738
0.01403355
0.013731644
0.013382204
0.012933327
0.012319625
0.011472309
0.010342138
0.0090441992
0.007940306
0.0094146891
0.011413994
0.013670538
0.015926597
0.017859586
0.019228757
0.020041453
0.020454823
0.02069824
0.020888482
0.020960825
0.020795796
0.020389088
0.019780998
0.018930035
0.017817111
0.016593724
0.015523976
0.014812195
0.014515291
0.014563718
0.01482405
0.015170586
0.0155605
0.016038734
0.016714143
0.017589895
0.018449053
0.018704077
0.01778396
0.015482501
0.012616318
0.010305302
0.0098533766
0.0094176574
0.0096344635
0.0097767761
0.010022098
0.010281998
0.010566356
0.010864147
0.011192997
0.0115397
0.011910511
0.012330092
0.012872454
0.01352062
0.014208236
0.014913135
0.015612561
0.016286734
0.016917298
0.017486871
0.017932663
0.018174331
0.018183053
0.018021753
0.017746199
0.017342642
0.016829509
0.016215374
0.015498254
0.014684114
0.013799172
0.01281233
0.011580606
0.0099981182
0.0080096871
0.007408414
0.01197747
0.01809393
0.02483383
0.035588055
0.036851046
0.063446379
0.065890188
0.17359326
0.2585308
0.90925544
0.63872385
1.8079489
0.64229351
0.90380816
0.32714914
0.25405766
0.22814039
0.20620349
0.13118439
0.088666299
0.060155254
0.045139561
0.03554351
0.029327981
0.024883758
0.021656463
0.019258144
0.017464194
0.016100596
0.014994189
0.014021247
0.01313074
0.012294714
0.011480469
0.010683572
0.0098905518
0.0094690494
0.0092094319
0.0090607823
0.0089840116
0.0089476696
0.0089294896
0.0089141693
0.0088981379
0.0088860788
0.0088947942
0.0089589827
0.0093862185
0.0099491174
0.010355442
0.010508203
0.010410665
0.010172125
0.0099483273
0.0098060514
0.0096637766
0.0094551188
0.0092332567
0.0089572631
0.0091416418
0.0095149801
0.0099807849
0.010469682
0.010970534
0.011462711
0.011942394
0.012400918
0.012846731
0.0132971
0.013812954
0.014461481
0.015405198
0.017055712
0.019133511
0.019966723
0.019882821
0.019658396
0.018996276
0.018016708
0.016927318
0.015877033
0.014987312
0.014278841
0.013746622
0.013345382
0.013036015
0.012779002
0.012547272
0.012317266
0.012077763
0.011814237
0.01153309
0.011302051
0.011519315
0.012022461
0.012621784
0.01327115
0.013936757
0.014600569
0.015266469
0.016167143
0.017800119
0.019192026
0.020136378
0.020577643
0.020538279
0.020109882
0.019452288
0.018776514
0.018302907
0.018185917
0.018437795
0.018910725
0.019382385
0.019661381
0.019597216
0.019161087
0.018524818
0.017861793
0.017238257
0.016681326
0.01619205
0.015752581
0.015326924
0.014867739
0.014325096
0.013635165
0.012732716
0.011574994
0.010280096
0.0092125761
0.010646902
0.01263382
0.014900177
0.01719603
0.019214931
0.02073449
0.021771758
0.022477853
0.023053184
0.023562014
0.02387918
0.023847791
0.023466295
0.022798389
0.021823211
0.020542676
0.019138273
0.017905291
0.01706747
0.016686486
0.016689415
0.016936746
0.017296955
0.017723538
0.018262524
0.019024774
0.020006202
0.02095148
0.02120145
0.020120582
0.017557091
0.014454352
0.011970662
0.011359781
0.010869211
0.011051763
0.011182653
0.011417501
0.011667601
0.011939767
0.012222554
0.012532478
0.012856763
0.013201922
0.01359299
0.014101996
0.014712895
0.015361947
0.016028275
0.016690323
0.017329063
0.017926658
0.01846542
0.018883361
0.019101488
0.019092101
0.018916337
0.018628315
0.018214233
0.017691867
0.017069292
0.016344479
0.015523461
0.014631235
0.013637845
0.012401195
0.010815475
0.0088629889
0.0083888025
0.013000989
0.019178865
0.026041467
0.036898281
0.038874471
0.066150235
0.071367118
0.18100317
0.27263335
0.99281979
0.71863616
1.9235867
0.70248145
0.9633096
0.35052283
0.27455879
0.26144285
0.23606658
0.15114863
0.10183739
0.069136052
0.05179361
0.040750339
0.033586721
0.028477592
0.024771476
0.022021086
0.019965789
0.018404608
0.017138751
0.016028465
0.01501627
0.014069489
0.013153212
0.012261958
0.011380888
0.010864442
0.010522646
0.010311425
0.010188786
0.010122391
0.010090448
0.010078496
0.010083479
0.010108964
0.010169165
0.010295545
0.010777999
0.011391452
0.011837435
0.012004991
0.011894641
0.011630108
0.011383761
0.011223103
0.011057498
0.010820095
0.010579935
0.010294991
0.010454317
0.010827021
0.011309714
0.01182647
0.012360283
0.012889981
0.013413088
0.01392522
0.014440923
0.014986615
0.015633286
0.016462386
0.017646866
0.019573868
0.021895919
0.022896924
0.022869088
0.022598228
0.021794969
0.020619991
0.01932615
0.018092829
0.01705424
0.016231292
0.015613045
0.015146838
0.014787382
0.014491093
0.014228411
0.013975084
0.01371965
0.013448319
0.013168133
0.012950925
0.013179536
0.013701934
0.014340901
0.015056076
0.015820878
0.016622578
0.017462945
0.018555023
0.020343856
0.021869064
0.022898876
0.023363801
0.023285347
0.022770516
0.022012063
0.021259494
0.02076116
0.020679031
0.021012049
0.021585675
0.022150639
0.022489024
0.022414677
0.021888166
0.021113853
0.020293273
0.019505744
0.018786575
0.018142285
0.01755864
0.01700215
0.016427029
0.015785436
0.015015141
0.014054618
0.012867803
0.011575932
0.010545195
0.011939222
0.013913641
0.016190835
0.018529071
0.020638813
0.022317038
0.023591381
0.024606817
0.025533447
0.026380083
0.026957358
0.027068315
0.026714103
0.02598323
0.024876657
0.023418491
0.021822103
0.02041601
0.019444613
0.018974624
0.018929497
0.019163232
0.019538095
0.020003693
0.020607231
0.021461837
0.022555838
0.023593334
0.023838861
0.02258805
0.01974648
0.016392809
0.013726037
0.012949941
0.012401875
0.012548972
0.012667823
0.012891844
0.013131739
0.01339115
0.01365813
0.01394804
0.014248534
0.014566391
0.014926972
0.015400288
0.015971359
0.016579219
0.017204379
0.017826543
0.018427475
0.018989874
0.019495767
0.019884051
0.020077147
0.020048457
0.019857204
0.019555795
0.019130349
0.018597955
0.017966156
0.017232856
0.016404088
0.015503495
0.014502295
0.013259268
0.011669131
0.0097538198
0.0094097519
0.014065488
0.020304227
0.027293973
0.038251212
0.040983064
0.068879677
0.076995516
0.18754299
0.28528315
0.98877982
0.77621693
1.9738978
0.72088448
0.95851599
0.36913826
0.294677
0.29634647
0.26761748
0.17240463
0.11586023
0.078700767
0.058869515
0.046282842
0.0381082
0.032290862
0.028074841
0.024949609
0.022616044
0.020844452
0.019408892
0.018152565
0.017011075
0.015946695
0.014922107
0.013930728
0.012956211
0.012339373
0.011910263
0.011632495
0.011461071
0.011362604
0.011315773
0.011307005
0.011333819
0.01139865
0.011512971
0.011704692
0.012245537
0.012912329
0.01339989
0.013582491
0.013457456
0.013163774
0.012891754
0.012709963
0.012518115
0.012248741
0.011987025
0.011689933
0.011822034
0.012193429
0.012693356
0.013238934
0.013807041
0.014375896
0.014944444
0.015512785
0.016101907
0.0167479
0.017532434
0.018552
0.01999051
0.022210166
0.024792567
0.025971571
0.026002131
0.025681342
0.024727711
0.023345194
0.021834593
0.020407392
0.019211242
0.01826717
0.017557939
0.017023021
0.016610602
0.016272804
0.015977438
0.015699507
0.015427294
0.01514775
0.014868546
0.01466563
0.014906415
0.015449329
0.016130131
0.016914642
0.01778392
0.018730981
0.019755214
0.021049135
0.02300384
0.024670635
0.025791399
0.026281791
0.026162277
0.025556191
0.024691184
0.023857453
0.023332924
0.02328754
0.023706335
0.024386553
0.025050299
0.025451396
0.025365751
0.024742896
0.023821969
0.02283437
0.021873211
0.020982473
0.020174458
0.019438743
0.018744477
0.018047498
0.017302172
0.016447858
0.015426834
0.014209856
0.012921393
0.011928123
0.013282048
0.015244046
0.017533047
0.019915895
0.022120726
0.023965003
0.025488147
0.026829118
0.028126571
0.029330998
0.030184868
0.030448089
0.030124048
0.029327366
0.028082139
0.026436054
0.024636406
0.023047079
0.021934366
0.021370259
0.021274353
0.021493788
0.02188428
0.022391383
0.023063575
0.024016481
0.025230386
0.026366373
0.026607658
0.025176755
0.022040689
0.018422391
0.015562968
0.014616039
0.014007624
0.014118156
0.014224846
0.014438535
0.01466893
0.01491629
0.01516798
0.015438051
0.015714512
0.016004362
0.016333219
0.016769044
0.017298078
0.017862339
0.018443869
0.019023723
0.019584514
0.020109507
0.020580482
0.020937312
0.0211039
0.021054722
0.020846956
0.02053124
0.020093578
0.01955034
0.0189085
0.018165872
0.017328419
0.01641829
0.015407934
0.014157002
0.012561291
0.010684613
0.010473922
0.015173959
0.021473813
0.028595496
0.039654803
0.043181639
0.071662926
0.082786627
0.19344717
0.29678728
0.98183878
0.79110722
1.9718479
0.73857197
0.95248308
0.38693382
0.31460059
0.33294341
0.3009912
0.19504282
0.13080168
0.088893462
0.066398953
0.052164697
0.042911131
0.036338857
0.031579422
0.028054792
0.025424703
0.023428849
0.021812503
0.020400731
0.019121703
0.017932291
0.016792546
0.015694731
0.014620831
0.013897623
0.013375484
0.013026627
0.012802916
0.012669711
0.012606102
0.012599397
0.012647697
0.012752211
0.012921439
0.013179388
0.013779248
0.014499602
0.015028309
0.015224213
0.015080967
0.014753513
0.014451162
0.014243728
0.014020799
0.013714129
0.013424738
0.013109416
0.013210162
0.013577643
0.014093293
0.014666908
0.015269055
0.015877236
0.016491832
0.017117557
0.01778211
0.018531766
0.019459467
0.020677539
0.022381482
0.024908466
0.027767392
0.02913638
0.029227706
0.028851646
0.027737099
0.026134428
0.024394866
0.022763348
0.021401365
0.020329881
0.01952498
0.018917808
0.018449739
0.018068409
0.017738884
0.017435347
0.017145788
0.016857865
0.01657985
0.016391777
0.016645543
0.017209957
0.017934085
0.018790258
0.019767588
0.020865557
0.022081099
0.023585882
0.025715751
0.027532472
0.028750384
0.02926908
0.029107718
0.028406873
0.027431039
0.026512953
0.025961264
0.025954172
0.026462564
0.027254457
0.028021739
0.028487872
0.028388336
0.027662077
0.026585478
0.02542133
0.024277272
0.023206435
0.022227202
0.021333141
0.020496144
0.01967373
0.018822527
0.017883287
0.016802005
0.015556063
0.014273122
0.013319409
0.014634907
0.016585274
0.018886698
0.021314623
0.023615389
0.025628275
0.02740666
0.029084595
0.030769169
0.032350536
0.033499203
0.033927865
0.033640017
0.032776797
0.031387014
0.029543906
0.027531003
0.025749563
0.024488698
0.023825805
0.02367648
0.023880882
0.024288128
0.024839751
0.025585636
0.026643889
0.02798578
0.029226296
0.029462128
0.027839784
0.024395637
0.020504814
0.017448552
0.016329121
0.015658669
0.01573188
0.01582663
0.016030934
0.016253355
0.01649073
0.016729689
0.0169828
0.017238179
0.017502719
0.017801917
0.018201353
0.018688448
0.019208457
0.019745201
0.020281275
0.020800292
0.021286181
0.021720566
0.022044433
0.022183267
0.022112618