/*--------------------------------*- C++ -*----------------------------------*\
| =========                 |                                                 |
| \\      /  F ield         | OpenFOAM: The Open Source CFD Toolbox           |
|  \\    /   O peration     | Version:  2.4.0                                 |
|   \\  /    A nd           | Web:      www.OpenFOAM.org                      |
|    \\/     M anipulation  |                                                 |
\*---------------------------------------------------------------------------*/
FoamFile
{
    version     2.0;
    format      ascii;
    class       surfaceScalarField;
    location    "110";
    object      phi;
}
// * * * * * * * * * * * * * * * * * * * * * * * * * * * * * * * * * * * * * //

dimensions      [0 3 -1 0 0 0 0];

internalField   nonuniform List<scalar> 
63640
(
6.738739e-07
-4.7435127e-08
7.0960189e-07
-3.5727938e-08
6.7069104e-07
3.8910937e-08
4.7960909e-07
1.9108204e-07
2.0195204e-07
2.7765714e-07
-7.4488036e-08
2.7644016e-07
-2.1626201e-07
1.4177406e-07
-2.170154e-07
7.5345296e-10
-1.6929422e-07
-4.7721099e-08
-1.338226e-07
-3.5471575e-08
-1.1427666e-07
-1.9545877e-08
-1.0470211e-07
-9.5745353e-09
-9.8109201e-08
-6.5928765e-09
-9.1718169e-08
-6.3910209e-09
-8.6094169e-08
-5.6236945e-09
-8.1315802e-08
-4.7785421e-09
-7.7410315e-08
-3.905297e-09
-7.4108676e-08
-3.3018716e-09
-7.0425197e-08
-3.6833544e-09
-6.5128005e-08
-5.297301e-09
-5.7788283e-08
-7.3396513e-09
-4.7416285e-08
-1.0371951e-08
-3.2993573e-08
-1.4422664e-08
-1.3941706e-08
-1.9051854e-08
1.0740848e-08
-2.4682531e-08
3.9845979e-08
-2.9105142e-08
7.0640031e-08
-3.0794051e-08
1.0079484e-07
-3.0154832e-08
1.2750565e-07
-2.6710818e-08
1.4703981e-07
-1.9534195e-08
1.5544565e-07
-8.4058578e-09
1.493755e-07
6.0701216e-09
1.2728443e-07
2.2091169e-08
9.0365164e-08
3.6919166e-08
4.3260366e-08
4.7104935e-08
-7.3780923e-09
5.0638381e-08
-5.5042022e-08
4.7664073e-08
-9.3518252e-08
3.8476131e-08
-1.1814677e-07
2.462865e-08
-1.2771437e-07
9.5674833e-09
-1.231018e-07
-4.6124703e-09
-1.0983142e-07
-1.3270494e-08
-9.9885881e-08
-9.9454005e-09
-9.7569618e-08
-2.3163802e-09
-9.313096e-08
-4.4386219e-09
-7.2906869e-08
-2.0224126e-08
-2.9453084e-08
-4.3453665e-08
3.0921003e-08
-6.0374151e-08
9.6513888e-08
-6.5592831e-08
1.5986405e-07
-6.3350128e-08
2.1542411e-07
-5.5559809e-08
2.643088e-07
-4.8884694e-08
3.0750842e-07
-4.3199069e-08
3.4273967e-07
-3.523166e-08
3.6579801e-07
-2.3057996e-08
3.7094603e-07
-5.1485225e-09
3.5211173e-07
1.8834734e-08
3.0533763e-07
4.6773721e-08
2.2867773e-07
7.6660191e-08
1.2676068e-07
1.0191652e-07
1.2511041e-08
1.1424964e-07
-9.1309968e-08
1.0382077e-07
-1.1149808e-07
2.0187815e-08
-4.5737551e-08
-6.5760359e-08
-1.2795719e-08
-3.2941508e-08
-3.9263426e-08
2.6467362e-08
-8.3664783e-08
4.4401579e-08
-1.2691999e-07
4.3254914e-08
-1.5780654e-07
3.0886716e-08
-1.7543757e-07
1.7630635e-08
-1.845225e-07
9.0849621e-09
-1.8946457e-07
4.9417509e-09
-1.9319816e-07
3.7334829e-09
-1.9602625e-07
2.8279626e-09
-1.9695933e-07
9.3303362e-10
-1.9402822e-07
-2.9312805e-09
-1.8479484e-07
-9.2334898e-09
-1.6686543e-07
-1.7929512e-08
-1.3790565e-07
-2.8959936e-08
-9.6246225e-08
-4.1659486e-08
-4.4923699e-08
-5.1322665e-08
1.1966794e-08
-5.6890577e-08
7.3017667e-08
-6.1051118e-08
1.3251907e-07
-5.9501376e-08
1.7858785e-07
-4.6068867e-08
1.9795716e-07
-1.9369415e-08
1.7960253e-07
1.8354614e-08
1.2038779e-07
5.9214509e-08
2.9394008e-08
9.099359e-08
-7.4483788e-08
1.0387764e-07
-1.7006276e-07
9.5578759e-08
-2.4510396e-07
7.504073e-08
-3.0049856e-07
5.5394495e-08
-3.416349e-07
4.1135529e-08
-3.7029355e-07
2.8658862e-08
-3.8126488e-07
1.0970701e-08
-3.6668815e-07
-1.4576295e-08
-3.2629152e-07
-4.0397431e-08
-2.720553e-07
-5.4235906e-08
-2.2109154e-07
-5.0964366e-08
-1.8380196e-07
-3.7288957e-08
-1.5821154e-07
-2.5590744e-08
-1.3847319e-07
-1.9738174e-08
-1.2956147e-07
-8.9121995e-09
-1.4153015e-07
1.1968986e-08
-1.7476016e-07
3.322952e-08
-2.2550773e-07
5.074802e-08
-2.9152833e-07
6.6020085e-08
-3.6903944e-07
7.7511627e-08
-4.5309637e-07
8.4056706e-08
-5.3747294e-07
8.4376953e-08
-6.1450512e-07
7.7031815e-08
-6.7512693e-07
6.0622058e-08
-7.0944774e-07
3.4320582e-08
-7.0610724e-07
-3.3402173e-09
-6.5137994e-07
-5.4727681e-08
-5.304696e-07
-1.2091014e-07
-3.4184254e-07
-1.8862751e-07
-1.1197627e-07
-2.2986599e-07
1.529294e-07
-2.6490619e-07
4.6919751e-07
-3.1626761e-07
8.2329461e-07
-3.540984e-07
1.1741986e-06
-3.5090297e-07
1.4616313e-06
-2.8743311e-07
1.6209506e-06
-1.593189e-07
1.6183192e-06
2.6315475e-09
1.4661616e-06
1.5215742e-07
1.2144703e-06
2.5169031e-07
9.3265683e-07
2.8181424e-07
6.8051645e-07
2.5213959e-07
4.8983028e-07
1.9068708e-07
3.6639453e-07
1.2343468e-07
3.0065643e-07
6.5738919e-08
2.7146208e-07
2.91934e-08
2.5293407e-07
1.852926e-08
2.3044325e-07
2.2491196e-08
2.0880092e-07
2.1642055e-08
2.0300159e-07
5.7981353e-09
2.2361269e-07
-2.061017e-08
2.6927858e-07
-4.5666884e-08
3.274888e-07
-5.8208827e-08
3.8191195e-07
-5.4423472e-08
4.2253737e-07
-4.0624947e-08
4.5082852e-07
-2.8292492e-08
4.7860257e-07
-2.77727e-08
5.1932122e-07
-4.0719598e-08
5.784145e-07
-5.9091296e-08
6.4337136e-07
-6.4956904e-08
6.8067577e-07
-3.7303373e-08
6.2602098e-07
5.4657536e-08
4.2987632e-07
1.961428e-07
1.2299567e-07
3.0688374e-07
-1.1573083e-07
2.3872326e-07
-1.5484962e-07
3.9118632e-08
-1.9767924e-07
4.282963e-08
-2.6197579e-07
6.4295951e-08
-3.1308896e-07
5.1113938e-08
-3.7027837e-07
5.7189351e-08
-4.2794445e-07
5.766634e-08
-4.858979e-07
5.7953468e-08
-5.456081e-07
5.9710356e-08
-6.0626684e-07
6.0658756e-08
-6.6642969e-07
6.0163013e-08
-7.2680984e-07
6.0380218e-08
-7.9484398e-07
6.8034248e-08
-8.7549149e-07
8.0647574e-08
-9.5987643e-07
8.4385042e-08
-1.0404536e-06
8.0577229e-08
-1.1142084e-06
7.3754953e-08
-1.1788902e-06
6.4681869e-08
-1.2333522e-06
5.446201e-08
-1.277207e-06
4.3854888e-08
-1.308342e-06
3.1135044e-08
-1.3193294e-06
1.0987486e-08
-1.3044229e-06
-1.4906461e-08
-1.2652212e-06
-3.9201677e-08
-1.2108492e-06
-5.4371935e-08
-1.1448468e-06
-6.6002299e-08
-1.0687514e-06
-7.6095382e-08
-9.8495538e-07
-8.3795953e-08
-8.9497436e-07
-8.9981015e-08
-7.9965615e-07
-9.5318051e-08
-7.0134005e-07
-9.8315999e-08
-6.0243867e-07
-9.8901279e-08
-4.9871776e-07
-1.0372077e-07
-3.8284438e-07
-1.1587283e-07
-2.4427488e-07
-1.3856964e-07
-4.8415065e-08
-1.958593e-07
2.0047502e-07
-2.4889038e-07
4.8932806e-07
-2.8885296e-07
8.4008873e-07
-3.5076059e-07
1.2492616e-06
-4.0917281e-07
1.6398126e-06
-3.9055091e-07
1.8387169e-06
-1.9890434e-07
1.7707894e-06
6.7927631e-08
1.5221176e-06
2.4867166e-07
1.2004804e-06
3.2163715e-07
9.1673849e-07
2.8374185e-07
6.962314e-07
2.2050703e-07
6.9792589e-08
2.1856749e-06
-1.7337152e-07
2.2825528e-06
-1.3260583e-07
2.1644913e-06
1.5697261e-07
1.5721789e-06
7.8339453e-07
7.0257406e-07
1.1472621e-06
-1.8449921e-07
1.1635136e-06
-6.642049e-07
6.2147989e-07
-6.87541e-07
2.4089629e-08
-5.4266131e-07
-1.9260067e-07
-4.3067506e-07
-1.4745776e-07
-3.680874e-07
-8.2133459e-08
-3.3691783e-07
-4.074408e-08
-3.1568023e-07
-2.783044e-08
-2.9520609e-07
-2.6865138e-08
-2.7709519e-07
-2.373423e-08
-2.617063e-07
-2.0167626e-08
-2.4911947e-07
-1.6491914e-08
-2.3841742e-07
-1.4004189e-08
-2.2654101e-07
-1.5559626e-08
-2.0957838e-07
-2.2260058e-08
-1.8614257e-07
-3.0775359e-08
-1.5319685e-07
-4.3317611e-08
-1.0750796e-07
-6.0111479e-08
-4.7253367e-08
-7.9306433e-08
3.0849506e-08
-1.0278537e-07
1.2333526e-07
-1.2159091e-07
2.2135876e-07
-1.2881755e-07
3.1760334e-07
-1.2639945e-07
4.0347836e-07
-1.1258585e-07
4.6736978e-07
-8.3425653e-08
4.968766e-07
-3.7912705e-08
4.8131212e-07
2.1634555e-08
4.153484e-07
8.8055013e-08
3.0197014e-07
1.5029731e-07
1.548842e-07
1.9419104e-07
-5.4908596e-09
2.1101335e-07
-1.5865816e-07
2.0083154e-07
-2.8446871e-07
1.6428657e-07
-3.6694242e-07
1.0710252e-07
-4.0103443e-07
4.3659362e-08
-3.8904238e-07
-1.6604416e-08
-3.4823699e-07
-5.407601e-08
-3.1659135e-07
-4.1590871e-08
-3.0896245e-07
-9.9454216e-09
-2.9522515e-07
-1.8175878e-08
-2.3182552e-07
-8.362379e-08
-9.5842126e-08
-1.7943691e-07
9.449605e-08
-2.507124e-07
3.0203714e-07
-2.7313385e-07
5.0167865e-07
-2.6299158e-07
6.7763015e-07
-2.3151099e-07
8.3249368e-07
-2.0374821e-07
9.6983428e-07
-1.8053899e-07
1.0825991e-06
-1.479969e-07
1.1580782e-06
-9.8536802e-08
1.1785629e-06
-2.5633766e-08
1.1249338e-06
7.2464299e-08
9.8441085e-07
1.8729627e-07
7.4917255e-07
3.118988e-07
4.3284375e-07
4.1824468e-07
7.1391466e-08
4.7570188e-07
-2.6361875e-07
4.3883069e-07
-3.4471486e-07
1.0128353e-07
-1.5762068e-07
-2.5285431e-07
-6.1093802e-08
-1.2946799e-07
-1.5020191e-07
1.1557505e-07
-2.9469918e-07
1.888991e-07
-4.3469322e-07
1.8324861e-07
-5.34786e-07
1.3097967e-07
-5.9170311e-07
7.4547266e-08
-6.2036238e-07
3.7744248e-08
-6.3453772e-07
1.9116674e-08
-6.4376042e-07
1.2955996e-08
-6.4920119e-07
8.2685963e-09
-6.4800842e-07
-2.5981887e-10
-6.3419983e-07
-1.6740108e-08
-6.0028136e-07
-4.3152118e-08
-5.3901544e-07
-7.9195571e-08
-4.4326051e-07
-1.2471507e-07
-3.0831748e-07
-1.7660261e-07
-1.4332881e-07
-2.163115e-07
3.9493872e-08
-2.3971344e-07
2.3487196e-07
-2.5642954e-07
4.2493304e-07
-2.4956246e-07
5.7348738e-07
-1.9462333e-07
6.3955447e-07
-8.5436682e-08
5.8877817e-07
6.9130866e-08
4.1020491e-07
2.3778743e-07
1.2999481e-07
3.7120342e-07
-1.947347e-07
4.2860692e-07
-4.9766978e-07
3.9851354e-07
-7.3820936e-07
3.155797e-07
-9.1677196e-07
2.3395693e-07
-1.0488799e-06
1.7324246e-07
-1.1395725e-06
1.1935164e-07
-1.1731079e-06
4.4505304e-08
-1.1261246e-06
-6.1559093e-08
-9.9883629e-07
-1.6768668e-07
-8.2879666e-07
-2.2427521e-07
-6.6927673e-07
-2.10485e-07
-5.529041e-07
-1.5366086e-07
-4.7404635e-07
-1.0444891e-07
-4.1503114e-07
-7.8753175e-08
-3.9178562e-07
-3.2158302e-08
-4.3558874e-07
5.5772454e-08
-5.4640417e-07
1.4404435e-07
-7.1138737e-07
2.1573175e-07
-9.2271724e-07
2.7734935e-07
-1.1678502e-06
3.2264517e-07
-1.4306775e-06
3.4688381e-07
-1.6913256e-06
3.4502551e-07
-1.9256314e-06
3.1133714e-07
-2.1055297e-06
2.4052063e-07
-2.2005651e-06
1.2935572e-07
-2.1761788e-06
-2.7726201e-08
-1.9910279e-06
-2.3987899e-07
-1.6015121e-06
-5.104258e-07
-1.0062921e-06
-7.8384803e-07
-2.8126625e-07
-9.5489153e-07
5.5188782e-07
-1.0980609e-06
1.5362327e-06
-1.3006119e-06
2.6314573e-06
-1.4493245e-06
3.7114749e-06
-1.4309194e-06
4.5946481e-06
-1.1706067e-06
5.0868794e-06
-6.5154977e-07
5.0855677e-06
3.9433864e-09
4.6236018e-06
6.1412307e-07
3.8473004e-06
1.0279906e-06
2.9673585e-06
1.161757e-06
2.1714308e-06
1.0480664e-06
1.565292e-06
7.9682696e-07
1.1731053e-06
5.1562009e-07
9.6505684e-07
2.7378831e-07
8.716958e-07
1.2255333e-07
8.1139904e-07
7.882754e-08
7.4086823e-07
9.3022457e-08
6.768322e-07
8.5677775e-08
6.6503548e-07
1.7593384e-08
7.3559623e-07
-9.1169834e-08
8.815212e-07
-1.9159301e-07
1.0631387e-06
-2.3982466e-07
1.230917e-06
-2.2220213e-07
1.3559175e-06
-1.6562482e-07
1.443926e-06
-1.1630262e-07
1.5314993e-06
-1.1534439e-07
1.6577242e-06
-1.6694558e-07
1.8361618e-06
-2.3752636e-07
2.0221177e-06
-2.5091281e-07
2.1071681e-06
-1.2235242e-07
1.8849826e-06
2.7684645e-07
1.2200593e-06
8.6106398e-07
2.3293382e-07
1.294013e-06
-5.061516e-07
9.7780471e-07
-6.4244273e-07
1.7540956e-07
-7.6681906e-07
1.6720591e-07
-9.6486861e-07
2.6234478e-07
-1.1217057e-06
2.0795196e-07
-1.2989594e-06
2.34443e-07
-1.4774588e-06
2.3616605e-07
-1.6580601e-06
2.3855483e-07
-1.8436568e-06
2.4530729e-07
-2.0324795e-06
2.494815e-07
-2.2197095e-06
2.4739318e-07
-2.4085078e-06
2.4917861e-07
-2.6211279e-06
2.8065451e-07
-2.870222e-06
3.2974175e-07
-3.1292702e-06
3.4343337e-07
-3.3751463e-06
3.2645339e-07
-3.598475e-06
2.9708386e-07
-3.7925401e-06
2.5874704e-07
-3.953884e-06
2.1580606e-07
-4.0813076e-06
1.7127858e-07
-4.1676351e-06
1.1746259e-07
-4.1914517e-06
3.4804219e-08
-4.1358425e-06
-7.0515616e-08
-4.0066381e-06
-1.6840604e-07
-3.8300931e-06
-2.3091682e-07
-3.6177765e-06
-2.7831881e-07
-3.3743792e-06
-3.1949267e-07
-3.1072548e-06
-3.509202e-07
-2.8209407e-06
-3.7629519e-07
-2.5182511e-06
-3.9800738e-07
-2.2062602e-06
-4.1030677e-07
-1.8917615e-06
-4.1339981e-07
-1.5620164e-06
-4.3346572e-07
-1.1947071e-06
-4.8318143e-07
-7.5510217e-07
-5.7817466e-07
-1.3362466e-07
-8.1733617e-07
6.4895086e-07
-1.0314662e-06
1.5502361e-06
-1.190138e-06
2.6409542e-06
-1.4414786e-06
3.9074468e-06
-1.6756653e-06
5.1122531e-06
-1.5953572e-06
5.7470206e-06
-8.336717e-07
5.577398e-06
2.3755025e-07
4.8454001e-06
9.8066942e-07
3.8664739e-06
1.3005633e-06
2.9883935e-06
1.1618222e-06
2.2860541e-06
9.228463e-07
2.9610818e-07
3.9753219e-06
-3.6348742e-07
4.1279623e-06
-2.8524613e-07
3.9194581e-06
3.6547686e-07
2.8830849e-06
1.8197679e-06
1.3478335e-06
2.6825136e-06
-2.4984498e-07
2.7611921e-06
-1.1505782e-06
1.5222132e-06
-1.224765e-06
9.8276542e-08
-9.7667732e-07
-4.4068826e-07
-7.7785453e-07
-3.4628049e-07
-6.6526446e-07
-1.9472346e-07
-6.0857713e-07
-9.7431379e-08
-5.7016536e-07
-6.6242173e-08
-5.3330856e-07
-6.3721919e-08
-5.0059506e-07
-5.6447392e-08
-4.7276516e-07
-4.7997706e-08
-4.4997005e-07
-3.9286821e-08
-4.305232e-07
-3.3451295e-08
-4.0903808e-07
-3.7044612e-08
-3.7852153e-07
-5.2776717e-08
-3.3647189e-07
-7.2824919e-08
-2.775812e-07
-1.0220824e-07
-1.9608692e-07
-1.4160569e-07
-8.8759985e-08
-1.8663336e-07
5.0433899e-08
-2.4197923e-07
2.1575972e-07
-2.8691675e-07
3.9127262e-07
-3.0433044e-07
5.639464e-07
-2.9907327e-07
7.1882969e-07
-2.6746915e-07
8.3551576e-07
-2.0011177e-07
8.9205868e-07
-9.4455645e-08
8.6932488e-07
4.4368314e-08
7.5729386e-07
2.0008614e-07
5.6026786e-07
3.4732321e-07
3.013731e-07
4.5308594e-07
1.60451e-08
4.9634128e-07
-2.5954597e-07
4.7642277e-07
-4.8898418e-07
3.9372467e-07
-6.4216064e-07
2.6027913e-07
-7.0837245e-07
1.0987105e-07
-6.9096599e-07
-3.4010784e-08
-6.2036555e-07
-1.2467657e-07
-5.6409441e-07
-9.7861867e-08
-5.5007174e-07
-2.3968211e-08
-5.2588703e-07
-4.2360549e-08
-4.1424544e-07
-1.9526542e-07
-1.7483273e-07
-4.1884949e-07
1.625367e-07
-5.8808189e-07
5.3140231e-07
-6.419994e-07
8.8520762e-07
-6.1679685e-07
1.1979484e-06
-5.4425149e-07
1.4734737e-06
-4.7927353e-07
1.7183837e-06
-4.2544839e-07
1.9206104e-06
-3.5022401e-07
2.0583626e-06
-2.3628865e-07
2.1008606e-06
-6.813226e-08
2.0144744e-06
1.588509e-07
1.7759056e-06
4.2586467e-07
1.3693483e-06
7.1845639e-07
8.1642284e-07
9.711696e-07
1.7518785e-07
1.1169369e-06
-4.2939114e-07
1.0434094e-06
-5.9970121e-07
2.7159327e-07
-2.9857036e-07
-5.53985e-07
-1.4089335e-07
-2.8714466e-07
-3.0705801e-07
2.8173935e-07
-5.6999178e-07
4.5183309e-07
-8.2317019e-07
4.3642672e-07
-1.0042136e-06
3.1202325e-07
-1.1066988e-06
1.77032e-07
-1.1570994e-06
8.8144932e-08
-1.1797983e-06
4.1815203e-08
-1.1920265e-06
2.5184015e-08
-1.1962169e-06
1.2458821e-08
-1.1876968e-06
-8.7799625e-09
-1.1562055e-06
-4.8231554e-08
-1.0887882e-06
-1.1056954e-07
-9.7304332e-07
-1.9494059e-07
-7.9671878e-07
-3.010398e-07
-5.5221831e-07
-4.2110316e-07
-2.550076e-07
-5.1352238e-07
7.4067881e-08
-5.6878901e-07
4.2446583e-07
-6.0682775e-07
7.6477655e-07
-5.8987316e-07
1.0327152e-06
-4.6256208e-07
1.1570195e-06
-2.0974106e-07
1.0774475e-06
1.4870282e-07
7.7320538e-07
5.4202928e-07
2.8704808e-07
8.5736049e-07
-2.837774e-07
9.9943221e-07
-8.2281255e-07
9.3754843e-07
-1.255124e-06
7.4789065e-07
-1.5776627e-06
5.5649541e-07
-1.8155677e-06
4.1114659e-07
-1.9768917e-06
2.8067581e-07
-2.0347239e-06
1.0233684e-07
-1.9499085e-06
-1.4637406e-07
-1.7245135e-06
-3.9308255e-07
-1.4248192e-06
-5.2396924e-07
-1.1441359e-06
-4.9116891e-07
-9.399805e-07
-3.5781562e-07
-8.0327728e-07
-2.4115246e-07
-7.0388946e-07
-1.7814083e-07
-6.7049545e-07
-6.5552816e-08
-7.5771782e-07
1.4299511e-07
-9.635151e-07
3.4984113e-07
-1.2635462e-06
5.1576332e-07
-1.6428534e-06
6.5665599e-07
-2.0782538e-06
7.5804615e-07
-2.5404551e-06
8.0908484e-07
-2.9938735e-06
7.984443e-07
-3.3957883e-06
7.132516e-07
-3.6973227e-06
5.4205534e-07
-3.8458477e-06
2.7788041e-07
-3.7821662e-06
-9.140737e-08
-3.4360538e-06
-5.8599179e-07
-2.7352841e-06
-1.2111953e-06
-1.6801362e-06
-1.8389964e-06
-3.9625171e-07
-2.2387758e-06
1.0739447e-06
-2.5682579e-06
2.7964281e-06
-3.0230948e-06
4.7028852e-06
-3.355783e-06
6.5765475e-06
-3.3045806e-06
8.1088871e-06
-2.7029467e-06
8.9705688e-06
-1.5132311e-06
8.9844884e-06
-9.9760444e-09
8.198425e-06
1.4001862e-06
6.8534577e-06
2.3729569e-06
5.3092588e-06
2.7059566e-06
3.8970197e-06
2.4603047e-06
2.8134813e-06
1.8803663e-06
2.1112071e-06
1.2178932e-06
1.7387698e-06
6.4622641e-07
1.5697444e-06
2.9157775e-07
1.4595659e-06
1.890074e-07
1.3352333e-06
2.173555e-07
1.2281564e-06
1.9275435e-07
1.2167633e-06
2.8985234e-08
1.3495696e-06
-2.2397525e-07
1.6104824e-06
-4.5250674e-07
1.9291808e-06
-5.5852161e-07
2.2210232e-06
-5.1404484e-07
2.4383605e-06
-3.8296168e-07
2.5928843e-06
-2.7082783e-07
2.7476682e-06
-2.701268e-07
2.967247e-06
-3.8652531e-07
3.2700621e-06
-5.4033934e-07
3.5703483e-06
-5.5119897e-07
3.6703484e-06
-2.2235139e-07
3.2025687e-06
7.4462914e-07
1.954287e-06
2.1093437e-06
1.803475e-07
3.0679557e-06
-1.1141836e-06
2.2723324e-06
-1.3687453e-06
4.2997113e-07
-1.5796261e-06
3.7808675e-07
-1.9215731e-06
6.0429114e-07
-2.1942323e-06
4.8061193e-07
-2.5031412e-06
5.4335186e-07
-2.814611e-06
5.4763611e-07
-3.1308651e-06
5.5480902e-07
-3.455622e-06
5.7006437e-07
-3.78624e-06
5.8009949e-07
-4.114341e-06
5.7549437e-07
-4.4464658e-06
5.8130351e-07
-4.8202353e-06
6.544241e-07
-5.2547339e-06
7.6424047e-07
-5.704477e-06
7.9317658e-07
-6.1294757e-06
7.5145212e-07
-6.5132865e-06
6.8089485e-07
-6.8444094e-06
5.8987003e-07
-7.1168783e-06
4.8827504e-07
-7.3283941e-06
3.8279441e-07
-7.4658107e-06
2.548793e-07
-7.4933136e-06
6.2307207e-08
-7.382716e-06
-1.811132e-07
-7.1451632e-06
-4.0595872e-07
-6.8246621e-06
-5.5141786e-07
-6.4417928e-06
-6.6118807e-07
-6.0047765e-06
-7.5650885e-07
-5.5263181e-06
-8.2937863e-07
-5.014221e-06
-8.8839225e-07
-4.4735639e-06
-9.3866428e-07
-3.9164162e-06
-9.6745432e-07
-3.3538347e-06
-9.7598127e-07
-2.7636758e-06
-1.0236244e-06
-2.1070798e-06
-1.1397768e-06
-1.3204532e-06
-1.3648014e-06
-2.0925299e-07
-1.9285358e-06
1.1795606e-06
-2.4202801e-06
2.767907e-06
-2.7784844e-06
4.682161e-06
-3.3557325e-06
6.8924996e-06
-3.8860038e-06
8.9879824e-06
-3.6908399e-06
1.0117407e-05
-1.9630966e-06
9.8775476e-06
4.7740998e-07
8.6567954e-06
2.2014215e-06
6.9791267e-06
2.9782319e-06
5.4481196e-06
2.6928291e-06
4.2015811e-06
2.1693848e-06
7.1248322e-07
6.0813599e-06
-5.9842231e-07
6.2828621e-06
-4.8674825e-07
5.9682466e-06
6.8009254e-07
4.4475129e-06
3.3405017e-06
2.168488e-06
4.9615387e-06
-2.5025639e-07
5.1799366e-06
-1.6696626e-06
2.9416196e-06
-1.8324626e-06
2.6107661e-07
-1.4774226e-06
-7.9572812e-07
-1.1811974e-06
-6.4250564e-07
-1.0109761e-06
-3.6494471e-07
-9.2438118e-07
-1.8402623e-07
-8.6587779e-07
-1.2474551e-07
-8.1005429e-07
-1.1954541e-07
-7.6037774e-07
-1.061236e-07
-7.180514e-07
-9.0324186e-08
-6.8332613e-07
-7.4011911e-08
-6.5361949e-07
-6.3158188e-08
-6.2093437e-07
-6.9729599e-08
-5.7476714e-07
-9.8944064e-08
-5.113407e-07
-1.3625125e-07
-4.2283296e-07
-1.9071591e-07
-3.0063403e-07
-2.6380455e-07
-1.3994603e-07
-3.4732134e-07
6.8575545e-08
-4.5050076e-07
3.1694788e-07
-5.352891e-07
5.8110102e-07
-5.6848358e-07
8.4148848e-07
-5.5946078e-07
1.0762487e-06
-5.0222942e-07
1.2552739e-06
-3.7913698e-07
1.3459426e-06
-1.8512435e-07
1.3194571e-06
7.0853786e-08
1.1600365e-06
3.5950677e-07
8.7262275e-07
6.347369e-07
4.8992239e-07
8.3578646e-07
6.3533089e-08
9.2273051e-07
-3.5305792e-07
8.9301394e-07
-7.0459593e-07
7.4526259e-07
-9.4350118e-07
4.9918451e-07
-1.051124e-06
2.1749378e-07
-1.0313101e-06
-5.3824654e-08
-9.2914505e-07
-2.2684169e-07
-8.4546784e-07
-1.8153893e-07
-8.2390622e-07
-4.5529945e-08
-7.8791741e-07
-7.8349328e-08
-6.227896e-07
-3.6039326e-07
-2.6857808e-07
-7.7306087e-07
2.3402767e-07
-1.0906877e-06
7.8494206e-07
-1.1929137e-06
1.3119734e-06
-1.1438281e-06
1.7788751e-06
-1.0111529e-06
2.1907874e-06
-8.9118578e-07
2.5576291e-06
-7.9228946e-07
2.8622465e-06
-6.5484174e-07
3.0732106e-06
-4.4725247e-07
3.1456193e-06
-1.4054148e-07
3.0299519e-06
2.7451873e-07
2.6904177e-06
7.653985e-07
2.1010874e-06
1.3077869e-06
1.2894818e-06
1.7827747e-06
3.3483818e-07
2.0715804e-06
-5.8120166e-07
1.9594489e-06
-8.7507791e-07
5.6546915e-07
-4.7262601e-07
-9.5643671e-07
-2.6063582e-07
-4.9913449e-07
-5.2059841e-07
5.4170156e-07
-9.2251981e-07
8.5375471e-07
-1.3066999e-06
8.2060654e-07
-1.5811412e-06
5.8646457e-07
-1.7355799e-06
3.3147024e-07
-1.8094503e-06
1.6201532e-07
-1.8391658e-06
7.1530281e-08
-1.850807e-06
3.6825024e-08
-1.8485582e-06
1.0209884e-08
-1.8260064e-06
-3.1331868e-08
-1.7683841e-06
-1.0585408e-07
-1.6569204e-06
-2.2203344e-07
-1.4737483e-06
-3.7811284e-07
-1.2012932e-06
-5.7349514e-07
-8.2920774e-07
-7.931887e-07
-3.7928143e-07
-9.6344887e-07
1.1832216e-07
-1.0663928e-06
6.4613519e-07
-1.1346411e-06
1.157926e-06
-1.1016641e-06
1.5636696e-06
-8.6830577e-07
1.7593556e-06
-4.0542724e-07
1.6562559e-06
2.5180245e-07
1.2215244e-06
9.7676042e-07
5.1357317e-07
1.5653114e-06
-3.2902956e-07
1.8420347e-06
-1.1348858e-06
1.7434043e-06
-1.787943e-06
1.4009473e-06
-2.2777112e-06
1.0462634e-06
-2.637904e-06
7.7133842e-07
-2.8791611e-06
5.2193294e-07
-2.9628513e-06
1.8602636e-07
-2.8341574e-06
-2.7506757e-07
-2.4988299e-06
-7.2841099e-07
-2.055252e-06
-9.6754693e-07
-1.6406486e-06
-9.057729e-07
-1.3401257e-06
-6.5833787e-07
-1.1415212e-06
-4.3975729e-07
-1.0018271e-06
-3.1783481e-07
-9.6457313e-07
-1.028073e-07
-1.1096169e-06
2.8803914e-07
-1.430734e-06
6.709577e-07
-1.8893053e-06
9.7433513e-07
-2.46142e-06
1.2287701e-06
-3.1111043e-06
1.407731e-06
-3.7936658e-06
1.4916462e-06
-4.4556086e-06
1.4603875e-06
-5.0336137e-06
1.2912562e-06
-5.4563175e-06
9.6475946e-07
-5.6476445e-06
4.6920718e-07
-5.5227039e-06
-2.1634768e-07
-4.9817445e-06
-1.1269517e-06
-3.9249976e-06
-2.267942e-06
-2.354136e-06
-3.4098586e-06
-4.4549277e-07
-4.1474187e-06
1.7303648e-06
-4.744116e-06
4.2586993e-06
-5.5514287e-06
7.0429228e-06
-6.140008e-06
9.7722113e-06
-6.033868e-06
1.200805e-05
-4.9387856e-06
1.3281685e-05
-2.7868654e-06
1.3334465e-05
-6.2756533e-08
1.2220577e-05
2.5140742e-06
1.0270513e-05
4.3230199e-06
7.9973674e-06
4.9791028e-06
5.8917135e-06
4.5659578e-06
4.2613529e-06
3.5107279e-06
3.2005995e-06
2.2786455e-06
2.636571e-06
1.2102558e-06
2.3771704e-06
5.5097734e-07
2.2073806e-06
3.5879866e-07
2.0232864e-06
4.0145008e-07
1.8734468e-06
3.425937e-07
1.8702834e-06
3.2147293e-08
2.0788349e-06
-4.325258e-07
2.4701363e-06
-8.438092e-07
2.9398481e-06
-1.0282318e-06
3.3667245e-06
-9.4092154e-07
3.6847965e-06
-7.0103321e-07
3.9131513e-06
-4.9918407e-07
4.1425007e-06
-4.9947478e-07
4.4621458e-06
-7.0617122e-07
4.8910355e-06
-9.6922661e-07
5.2928111e-06
-9.5297439e-07
5.3632394e-06
-2.9277837e-07
4.5553217e-06
1.55255e-06
2.5905213e-06
4.0741423e-06
-8.3211499e-08
5.7416918e-06
-1.991364e-06
4.1804813e-06
-2.3853511e-06
8.23958e-07
-2.6916377e-06
6.8437327e-07
-3.1863095e-06
1.0989624e-06
-3.586395e-06
8.8069827e-07
-4.0389716e-06
9.9592846e-07
-4.4965228e-06
1.0051876e-06
-4.9620578e-06
1.0203441e-06
-5.4399818e-06
1.0479886e-06
-5.9264727e-06
1.0665904e-06
-6.4097975e-06
1.0588194e-06
-6.9005844e-06
1.0720905e-06
-7.4518648e-06
1.2057047e-06
-8.0877458e-06
1.4001215e-06
-8.7423914e-06
1.4478224e-06
-9.3579213e-06
1.3669821e-06
-9.9101929e-06
1.2331666e-06
-1.038269e-05
1.0623677e-06
-1.076682e-05
8.7240493e-07
-1.1058778e-05
6.7475186e-07
-1.1238962e-05
4.3506384e-07
-1.1256843e-05
8.0188632e-08
-1.107336e-05
-3.6459606e-07
-1.0705763e-05
-7.7355635e-07
-1.021666e-05
-1.04052e-06
-9.6362196e-06
-1.2416289e-06
-8.9766759e-06
-1.4160525e-06
-8.2564052e-06
-1.5496492e-06
-7.4867185e-06
-1.6580789e-06
-6.6751861e-06
-1.7501965e-06
-5.839057e-06
-1.8035832e-06
-4.9935234e-06
-1.8215147e-06
-4.1061715e-06
-1.9109761e-06
-3.1199898e-06
-2.1259578e-06
-1.9372091e-06
-2.5475821e-06
-2.6865546e-07
-3.5970889e-06
1.800838e-06
-4.4897738e-06
4.1504848e-06
-5.1281311e-06
6.9703663e-06
-6.1756138e-06
1.0208202e-05
-7.1238397e-06
1.3271855e-05
-6.7544929e-06
1.49618e-05
-3.6530409e-06
1.4696459e-05
7.4275039e-07
1.2995141e-05
3.90274e-06
1.0588722e-05
5.3846508e-06
8.3474641e-06
4.9340867e-06
6.4967148e-06
4.020134e-06
1.3627729e-06
8.5467357e-06
-8.5129155e-07
8.7858621e-06
-7.2587465e-07
8.347252e-06
1.1187028e-06
6.3037967e-06
5.3839572e-06
3.2007178e-06
8.0646176e-06
-1.6009869e-07
8.5407533e-06
-2.2136177e-06
4.9951387e-06
-2.5147984e-06
5.622574e-07
-2.0518735e-06
-1.2586529e-06
-1.6473872e-06
-1.0469919e-06
-1.4111704e-06
-6.011614e-07
-1.2897163e-06
-3.0548027e-07
-1.207823e-06
-2.0663874e-07
-1.130148e-06
-1.9722045e-07
-1.06087e-06
-1.7540127e-07
-1.0017388e-06
-1.4945556e-07
-9.5313805e-07
-1.2261249e-07
-9.1145083e-07
-1.0484561e-07
-8.6576625e-07
-1.1541407e-07
-8.0161114e-07
-1.6309926e-07
-7.1375272e-07
-2.2410958e-07
-5.9160519e-07
-3.1286338e-07
-4.2337727e-07
-4.320324e-07
-2.0254141e-07
-5.6815718e-07
8.4190943e-08
-7.3723308e-07
4.2669893e-07
-8.777971e-07
7.9166435e-07
-9.33449e-07
1.152117e-06
-9.1991345e-07
1.4787568e-06
-8.2886922e-07
1.73088e-06
-6.3126028e-07
1.8639988e-06
-3.182431e-07
1.8383479e-06
9.6504621e-08
1.6311716e-06
5.6668314e-07
1.2471653e-06
1.0187431e-06
7.2854761e-07
1.3544043e-06
1.4411331e-07
1.5071648e-06
-4.3377966e-07
1.470907e-06
-9.2826869e-07
1.2397515e-06
-1.2703462e-06
8.4126217e-07
-1.4305863e-06
3.7773377e-07
-1.4125761e-06
-7.1834757e-08
-1.2776782e-06
-3.6173971e-07
-1.1639927e-06
-2.9522437e-07
-1.1337136e-06
-7.5809093e-08
-1.0844056e-06
-1.276573e-07
-8.6024453e-07
-5.8455436e-07
-3.7941894e-07
-1.2538864e-06
3.076423e-07
-1.777749e-06
1.0626031e-06
-1.9478745e-06
1.7828945e-06
-1.8641194e-06
2.422264e-06
-1.6505222e-06
2.9872296e-06
-1.4561514e-06
3.4912949e-06
-1.2963543e-06
3.9122279e-06
-1.075775e-06
4.2084882e-06
-7.4351256e-07
4.3200632e-06
-2.5211691e-07
4.1801792e-06
4.1440315e-07
3.7384563e-06
1.207121e-06
2.9564359e-06
2.0898075e-06
1.8648066e-06
2.8744035e-06
5.6235029e-07
3.3740366e-06
-7.1052682e-07
3.2323258e-06
-1.1686522e-06
1.0235943e-06
-6.8436805e-07
-1.4407208e-06
-4.2977941e-07
-7.5372288e-07
-8.0333689e-07
9.1525877e-07
-1.3669649e-06
1.4173829e-06
-1.9011482e-06
1.3547895e-06
-2.2818087e-06
9.671252e-07
-2.4943727e-06
5.440339e-07
-2.5927526e-06
2.6039519e-07
-2.6269538e-06
1.057311e-07
-2.6331095e-06
4.2980666e-08
-2.6177155e-06
-5.1843023e-09
-2.5727471e-06
-7.6300349e-08
-2.4787509e-06
-1.9985045e-07
-2.3108334e-06
-3.8995102e-07
-2.0454119e-06
-6.4353446e-07
-1.659444e-06
-9.5946315e-07
-1.1400227e-06
-1.3126101e-06
-5.1495427e-07
-1.5885175e-06
1.7541973e-07
-1.7567669e-06
9.0462878e-07
-1.8638504e-06
1.6105614e-06
-1.8075967e-06
2.174068e-06
-1.4318124e-06
2.4560475e-06
-6.8740683e-07
2.336655e-06
3.7119485e-07
1.7684998e-06
1.5449155e-06
8.2418473e-07
2.5096262e-06
-3.1595819e-07
2.9821774e-06
-1.4211961e-06
2.8486419e-06
-2.3267308e-06
2.3064815e-06
-3.0094959e-06
1.7290283e-06
-3.510165e-06
1.2720068e-06
-3.8412988e-06
8.5306673e-07
-3.9521335e-06
2.968606e-07
-3.7728352e-06
-4.5436557e-07
-3.3152398e-06
-1.1860071e-06
-2.7134167e-06
-1.5693699e-06
-2.1522816e-06
-1.4669084e-06
-1.747176e-06
-1.063443e-06
-1.4833604e-06
-7.0357315e-07
-1.3049184e-06
-4.9627675e-07
-1.272697e-06
-1.3502908e-07
-1.4932826e-06
5.086249e-07
-1.9533249e-06
1.1309997e-06
-2.5967677e-06
1.6177783e-06
-3.3886414e-06
2.0206433e-06
-4.2777653e-06
2.2968554e-06
-5.20165e-06
2.4155307e-06
-6.0866205e-06
2.3453583e-06
-6.8468138e-06
2.0514493e-06
-7.3869566e-06
1.5049024e-06
-7.6066386e-06
6.8888901e-07
-7.3947129e-06
-4.2827319e-07
-6.6220964e-06
-1.8995685e-06
-5.1632505e-06
-3.7267877e-06
-3.0197043e-06
-5.5534052e-06
-4.1925883e-07
-6.747864e-06
2.5291409e-06
-7.6925161e-06
5.9262763e-06
-8.9485638e-06
9.6493344e-06
-9.8630673e-06
1.3292468e-05
-9.677001e-06
1.6287071e-05
-7.933389e-06
1.8022521e-05
-4.5223148e-06
1.8149863e-05
-1.9009871e-07
1.6717899e-05
3.9460386e-06
1.4137195e-05
6.9037222e-06
1.1074567e-05
8.0417321e-06
8.1950121e-06
7.4455118e-06
5.9404726e-06
5.7652681e-06
4.4644639e-06
3.7546533e-06
3.6751607e-06
1.9995594e-06
3.3065629e-06
9.1957454e-07
3.0654762e-06
5.998864e-07
2.8154655e-06
6.5146116e-07
2.624088e-06
5.339709e-07
2.6382799e-06
1.7954397e-08
2.9370876e-06
-7.3133277e-07
3.4747148e-06
-1.3814371e-06
4.1096564e-06
-1.6631721e-06
4.6829113e-06
-1.5141767e-06
5.1106703e-06
-1.1287919e-06
5.4206414e-06
-8.0915615e-07
5.7317034e-06
-8.1053574e-07
6.1565154e-06
-1.1309838e-06
6.7091761e-06
-1.5218855e-06
7.1920213e-06
-1.4358195e-06
7.1749979e-06
-2.7575396e-07
5.9125751e-06
2.8149752e-06
3.077722e-06
6.9089941e-06
-6.1465976e-07
9.4340759e-06
-3.1935022e-06
6.7593212e-06
-3.7530256e-06
1.3834812e-06
-4.1657821e-06
1.0971298e-06
-4.821769e-06
1.7549488e-06
-5.3619307e-06
1.4208606e-06
-5.9706967e-06
1.6046945e-06
-6.5880318e-06
1.6225229e-06
-7.2169612e-06
1.6492735e-06
-7.8624077e-06
1.6934353e-06
-8.5190171e-06
1.7231998e-06
-9.1720638e-06
1.7118663e-06
-9.8369414e-06
1.7369681e-06
-1.0581577e-05
1.9503408e-06
-1.143342e-05
2.2519643e-06
-1.2305069e-05
2.3194712e-06
-1.3119988e-05
2.1819012e-06
-1.3845734e-05
1.9589125e-06
-1.4460566e-05
1.6772004e-06
-1.4953243e-05
1.3650821e-06
-1.5317995e-05
1.0395038e-06
-1.5528434e-05
6.455032e-07
-1.5519248e-05
7.100215e-08
-1.5241189e-05
-6.4265445e-07
-1.4718573e-05
-1.2961731e-06
-1.4033138e-05
-1.7259543e-06
-1.3225177e-05
-2.0495899e-06
-1.2311438e-05
-2.3297918e-06
-1.1316206e-05
-2.5448804e-06
-1.02545e-05
-2.7197849e-06
-9.1365959e-06
-2.8681008e-06
-7.9849714e-06
-2.9552076e-06
-6.8187174e-06
-2.9877686e-06
-5.5943138e-06
-3.1353794e-06
-4.234906e-06
-3.485365e-06
-2.60238e-06
-4.1801082e-06
-3.0374474e-07
-5.8957237e-06
2.5237079e-06
-7.3172267e-06
5.7092104e-06
-8.3136334e-06
9.515211e-06
-9.9816144e-06
1.3859968e-05
-1.1468597e-05
1.7966054e-05
-1.0860579e-05
2.0287029e-05
-5.9740153e-06
2.0054381e-05
9.7539819e-07
1.7896938e-05
6.0601829e-06
1.474554e-05
8.5360487e-06
1.1742202e-05
7.937425e-06
9.2280632e-06
6.5342724e-06
2.2969696e-06
1.1420863e-05
-1.0870954e-06
1.1680999e-05
-9.8601059e-07
1.1097672e-05
1.7020301e-06
8.4946772e-06
7.986952e-06
4.4861123e-06
1.2073183e-05
5.2422995e-08
1.2974443e-05
-2.7706167e-06
7.8181786e-06
-3.275116e-06
1.0667568e-06
-2.7072837e-06
-1.826485e-06
-2.1836355e-06
-1.57064e-06
-1.8723256e-06
-9.1247121e-07
-1.7104471e-06