/*--------------------------------*- C++ -*----------------------------------*\
| =========                 |                                                 |
| \\      /  F ield         | OpenFOAM: The Open Source CFD Toolbox           |
|  \\    /   O peration     | Version:  2.4.0                                 |
|   \\  /    A nd           | Web:      www.OpenFOAM.org                      |
|    \\/     M anipulation  |                                                 |
\*---------------------------------------------------------------------------*/
FoamFile
{
    version     2.0;
    format      ascii;
    class       volSymmTensorField;
    location    "110";
    object      R;
}
// * * * * * * * * * * * * * * * * * * * * * * * * * * * * * * * * * * * * * //

dimensions      [0 2 -2 0 0 0 0];

internalField   nonuniform List<symmTensor> 
32000
(
(0.027284747 -1.0148494e-05 -3.4727516e-25 0.02728455 -3.9077314e-25 0.027284647)
(0.0088225823 -2.7217869e-06 -1.6924153e-21 0.008822581 -1.2194714e-25 0.0088225813)
(0.022700017 -1.1736502e-05 -7.3004874e-21 0.022701294 1.9599108e-22 0.022700656)
(0.0082944055 -9.5768458e-07 -2.9935134e-22 0.0082946994 2.2228696e-23 0.0082945527)
(0.0062027631 -2.3952209e-07 -7.6342635e-23 0.006202907 1.0962432e-23 0.0062028351)
(0.00036209589 -6.9787626e-09 -2.2704283e-24 0.00036210229 5.9533315e-25 0.00036209908)
(0.00084044028 2.155048e-08 7.7205121e-24 0.0008404041 -2.8090133e-24 0.00084042213)
(7.8230198e-05 9.9385404e-09 1.0127155e-26 7.8205609e-05 2.8342147e-26 7.8217873e-05)
(0.00023035397 6.3370591e-09 2.8662155e-24 0.00023033211 -1.7178001e-24 0.00023034302)
(0.00012757637 2.7345994e-09 1.4914996e-24 0.00012756369 -9.4095634e-25 0.00012757002)
(0.0001279737 1.5155143e-09 -3.3675615e-26 0.00012796451 -1.6595405e-26 0.0001279691)
(0.00010358015 8.9016784e-10 -8.7606809e-27 0.0001035733 -2.0542572e-26 0.00010357672)
(9.2633335e-05 5.8648753e-10 -5.9954049e-26 9.2627776e-05 -7.5287422e-26 9.2630553e-05)
(8.1832437e-05 4.0213354e-10 2.2022622e-26 8.1827939e-05 3.6004047e-26 8.1830187e-05)
(7.4009429e-05 2.9571702e-10 2.1033087e-26 7.4005733e-05 2.2556139e-26 7.400758e-05)
(6.7686287e-05 2.3654351e-10 -3.1816482e-26 6.7683209e-05 -3.1141866e-26 6.7684747e-05)
(6.2860172e-05 2.0802115e-10 4.1026094e-25 6.2857563e-05 -4.7822737e-25 6.2858867e-05)
(5.9404625e-05 1.9674435e-10 3.9837662e-25 5.9402373e-05 -3.7097681e-25 5.9403498e-05)
(5.6814556e-05 1.8802694e-10 1.3995132e-25 5.6812585e-05 -2.0498425e-25 5.681357e-05)
(5.4659265e-05 1.7571497e-10 1.2538516e-25 5.4657557e-05 -1.7649834e-25 5.4658411e-05)
(5.2734847e-05 1.5758385e-10 -5.9339017e-26 5.2733412e-05 -7.4173191e-26 5.2734129e-05)
(5.0970293e-05 1.3427838e-10 3.6643243e-26 5.0969137e-05 4.7623633e-26 5.0969715e-05)
(4.9283459e-05 1.0164979e-10 -1.0085412e-26 4.9282627e-05 -8.1948699e-27 4.9283043e-05)
(4.763713e-05 6.0669388e-11 -2.1361215e-26 4.7636659e-05 -2.5290311e-26 4.7636895e-05)
(4.5968974e-05 1.0223497e-11 -2.7278456e-26 4.5968913e-05 -3.621064e-26 4.5968944e-05)
(4.4252847e-05 -4.9798453e-11 2.0041131e-26 4.4253249e-05 2.4558217e-26 4.4253049e-05)
(4.2383668e-05 -1.1085741e-10 3.7059099e-26 4.2384527e-05 5.2202227e-26 4.2384099e-05)
(4.0377034e-05 -1.6809225e-10 3.8998608e-26 4.0378296e-05 5.0114932e-26 4.0377666e-05)
(3.8372338e-05 -2.2145471e-10 -1.0843679e-26 3.8373925e-05 -1.0978246e-26 3.8373133e-05)
(3.6452926e-05 -2.6739787e-10 1.0341288e-26 3.6454722e-05 8.1408976e-27 3.6453825e-05)
(3.4639762e-05 -3.0040909e-10 1.20297e-26 3.4641619e-05 6.7478947e-27 3.4640691e-05)
(3.293985e-05 -3.1292748e-10 -1.0581767e-26 3.2941604e-05 -1.0934587e-26 3.2940727e-05)
(3.1360596e-05 -2.9732577e-10 -6.8684121e-27 3.1362084e-05 -1.1007521e-26 3.136134e-05)
(2.9907779e-05 -2.4798755e-10 8.5156969e-28 2.9908873e-05 -2.6076507e-28 2.9908325e-05)
(2.8603508e-05 -1.6438198e-10 -8.8534882e-26 2.8604135e-05 8.2236321e-26 2.8603821e-05)
(2.7506461e-05 -5.3919472e-11 -1.9467351e-26 2.7506632e-05 3.5307781e-26 2.7506545e-05)
(2.6667764e-05 7.1735926e-11 2.7965127e-26 2.6667551e-05 -3.2530806e-26 2.6667657e-05)
(2.602874e-05 1.9690116e-10 8.9461595e-26 2.6028254e-05 -4.1251077e-26 2.6028496e-05)
(2.5527904e-05 3.0039337e-10 -8.2659411e-27 2.552728e-05 -2.1574865e-26 2.5527591e-05)
(2.5159795e-05 3.6664737e-10 3.9111589e-27 2.5159157e-05 1.2166725e-26 2.5159475e-05)
(2.494487e-05 3.908282e-10 -1.4995166e-27 2.4944307e-05 -3.8961704e-27 2.4944588e-05)
(2.4912714e-05 3.7121031e-10 -1.2822431e-27 2.4912282e-05 -4.5014069e-27 2.4912497e-05)
(2.5111354e-05 3.3547191e-10 1.467093e-28 2.5111049e-05 4.557275e-27 2.5111201e-05)
(2.5598193e-05 3.2972025e-10 6.6521339e-28 2.559797e-05 9.6865847e-28 2.5598081e-05)
(2.6509112e-05 3.4217779e-10 2.6755737e-28 2.650896e-05 5.8959004e-27 2.6509036e-05)
(2.8018111e-05 3.2398445e-10 2.3072039e-25 2.8018043e-05 -1.2024515e-26 2.8018077e-05)
(3.1255552e-05 2.2314324e-10 1.5862131e-25 3.1255553e-05 -4.5627478e-30 3.1255553e-05)
(3.5049006e-05 1.1920966e-11 3.4560816e-30 3.5049016e-05 6.8053832e-31 3.5049011e-05)
(3.7558273e-05 -2.7356371e-10 4.7369452e-32 3.7558285e-05 -4.1150429e-30 3.7558279e-05)
(3.9675028e-05 -5.7789547e-10 -4.9866701e-32 3.967504e-05 4.6488293e-30 3.9675033e-05)
(4.1483969e-05 -8.7461134e-10 3.5475025e-32 4.1483979e-05 -1.775562e-30 4.1483973e-05)
(4.3094824e-05 -1.1382199e-09 -8.3165879e-32 4.3094833e-05 -1.7644331e-30 4.3094828e-05)
(4.4539111e-05 -1.3902188e-09 1.5206835e-31 4.453912e-05 3.1083905e-30 4.4539115e-05)
(4.5849241e-05 -1.6144021e-09 -6.9419032e-32 4.5849248e-05 -1.0142746e-30 4.5849244e-05)
(4.7044291e-05 -1.7987587e-09 5.1766686e-32 4.7044295e-05 -7.3978357e-32 4.7044293e-05)
(4.814006e-05 -1.9094179e-09 4.468077e-32 4.8140061e-05 -5.4596745e-31 4.8140061e-05)
(4.9148574e-05 -1.9163968e-09 -1.3613725e-24 4.9148571e-05 -6.7328428e-28 4.9148573e-05)
(5.0079695e-05 -1.7784885e-09 -1.2643596e-24 5.0079686e-05 -1.8156548e-27 5.0079691e-05)
(5.0941451e-05 -1.487581e-09 5.2814043e-25 5.0941435e-05 1.5368616e-27 5.0941444e-05)
(5.1740681e-05 -1.0145925e-09 3.6045538e-25 5.1740659e-05 2.0664842e-27 5.1740671e-05)
(5.2483283e-05 -4.3443375e-10 3.0855924e-25 5.2483258e-05 4.7023454e-27 5.2483271e-05)
(5.317429e-05 2.1542455e-10 -1.5321107e-25 5.3174268e-05 4.2562362e-27 5.317428e-05)
(5.38181e-05 7.1516644e-10 2.3441637e-33 5.3818096e-05 -2.6699728e-31 5.3818098e-05)
(5.4418618e-05 4.9137927e-10 -1.3791106e-32 5.4418632e-05 5.5467406e-31 5.4418624e-05)
(5.4979284e-05 6.2854715e-11 -2.7886917e-34 5.4979292e-05 -8.8733787e-31 5.4979288e-05)
(5.5503135e-05 1.374066e-10 -6.435895e-33 5.550313e-05 8.2686854e-31 5.5503133e-05)
(5.5992932e-05 3.7806552e-10 5.5670013e-33 5.5992922e-05 1.0681191e-31 5.5992927e-05)
(5.6451133e-05 6.5443144e-10 2.3239191e-25 5.6451124e-05 -8.5441863e-28 5.6451129e-05)
(5.6879935e-05 8.8689608e-10 6.3030712e-25 5.6879929e-05 -1.2061308e-27 5.6879932e-05)
(5.7281354e-05 1.0243207e-09 3.6423298e-25 5.728135e-05 -3.2998069e-28 5.7281352e-05)
(5.7657212e-05 1.1032713e-09 -1.7957544e-33 5.765721e-05 1.1813324e-30 5.7657211e-05)
(5.8009208e-05 1.1397679e-09 2.7522297e-32 5.8009207e-05 -1.1349593e-30 5.8009207e-05)
(5.8338813e-05 1.1664981e-09 -1.8460867e-33 5.8338812e-05 1.0899834e-30 5.8338813e-05)
(5.8647456e-05 1.1855749e-09 3.8554069e-32 5.8647455e-05 -7.1279209e-31 5.8647455e-05)
(5.8936386e-05 1.19869e-09 -3.9627818e-32 5.8936386e-05 6.3482716e-31 5.8936386e-05)
(5.9206757e-05 1.1932418e-09 -5.1875444e-32 5.9206758e-05 1.0472041e-31 5.9206757e-05)
(5.9459798e-05 1.1590434e-09 -4.1158359e-25 5.94598e-05 -2.0720324e-28 5.9459799e-05)
(5.9696383e-05 1.0773688e-09 -3.8273583e-25 5.9696388e-05 -3.9400477e-28 5.9696385e-05)
(5.9917797e-05 9.3914152e-10 6.3874814e-33 5.9917804e-05 -7.120559e-32 5.99178e-05)
(6.0124583e-05 7.249691e-10 2.9380018e-32 6.0124593e-05 2.0770595e-31 6.0124588e-05)
(6.0318038e-05 4.3643308e-10 -4.1575984e-33 6.031805e-05 -2.7720602e-31 6.0318044e-05)
(6.0498108e-05 1.0560849e-10 3.7493318e-26 6.0498122e-05 1.2670702e-27 6.0498115e-05)
(6.0664605e-05 -2.5476981e-10 -9.0514971e-26 6.0664619e-05 1.366884e-27 6.0664611e-05)
(6.0818757e-05 -6.3585743e-10 1.7747698e-32 6.0818772e-05 2.7894029e-32 6.0818764e-05)
(6.0960956e-05 -9.7787986e-10 -8.3053251e-33 6.0960967e-05 6.7701753e-32 6.0960961e-05)
(6.1092059e-05 -1.2020493e-09 -3.0271771e-32 6.1092063e-05 -2.7038291e-31 6.1092061e-05)
(6.1212453e-05 -1.228399e-09 1.8521666e-32 6.1212448e-05 -5.0088061e-32 6.1212451e-05)
(6.1323145e-05 -1.0042574e-09 6.2225984e-33 6.1323131e-05 1.3291739e-31 6.1323139e-05)
(6.1421402e-05 -5.3945017e-10 -8.3556718e-33 6.142138e-05 1.7742037e-31 6.1421392e-05)
(6.151373e-05 7.5622332e-11 3.1652976e-33 6.1513705e-05 -5.2045765e-31 6.1513718e-05)
(6.1595288e-05 7.114289e-10 1.9331646e-33 6.1595265e-05 6.1096765e-31 6.1595277e-05)
(6.1667855e-05 1.2426772e-09 4.4172503e-25 6.1667837e-05 -1.7264234e-27 6.1667847e-05)
(6.1731714e-05 1.6381356e-09 5.8237879e-25 6.17317e-05 -1.2829529e-27 6.1731707e-05)
(6.1787052e-05 1.9310489e-09 -3.646613e-32 6.1787042e-05 -5.3839658e-31 6.1787047e-05)
(6.1834027e-05 2.1486401e-09 2.8882566e-32 6.183402e-05 5.1558994e-32 6.1834024e-05)
(6.1872821e-05 2.2825006e-09 -1.0957442e-32 6.1872818e-05 4.9646589e-32 6.187282e-05)
(6.1903534e-05 2.279883e-09 8.1043897e-25 6.1903537e-05 3.1342564e-28 6.1903535e-05)
(6.1926266e-05 2.1026316e-09 7.4747226e-25 6.1926276e-05 9.0508007e-28 6.1926271e-05)
(6.1941098e-05 1.7893748e-09 -3.3973147e-33 6.1941111e-05 2.8227334e-31 6.1941104e-05)
(6.1948015e-05 1.4459325e-09 -2.5825085e-33 6.1948027e-05 -2.8942435e-32 6.1948021e-05)
(6.1946966e-05 1.1719781e-09 -1.2922066e-33 6.1946975e-05 6.5318208e-32 6.1946971e-05)
(6.1938352e-05 9.939349e-10 4.8303207e-33 6.1938358e-05 3.4266765e-32 6.1938355e-05)
(6.1921924e-05 8.6393808e-10 -3.0712661e-25 6.1921929e-05 -4.5847129e-28 6.1921926e-05)
(6.1897432e-05 7.6214395e-10 -2.7092384e-25 6.1897434e-05 -2.143528e-28 6.1897433e-05)
(6.1864951e-05 7.6939074e-10 -8.8927617e-33 6.1864949e-05 1.8074435e-31 6.186495e-05)
(6.1824374e-05 9.2530952e-10 -3.5995422e-33 6.1824366e-05 8.9040359e-31 6.182437e-05)
(6.1775566e-05 1.1905936e-09 4.2290274e-25 6.1775554e-05 -1.132752e-27 6.1775561e-05)
(6.1718376e-05 1.5558052e-09 -5.5056039e-28 6.171836e-05 1.330318e-30 6.1718369e-05)
(6.1652632e-05 2.0001063e-09 -7.1094838e-25 6.1652614e-05 1.7285615e-27 6.1652623e-05)
(6.1578119e-05 2.4962471e-09 6.8094297e-32 6.1578099e-05 2.7844594e-30 6.1578109e-05)
(6.1494585e-05 3.009038e-09 -7.7440976e-32 6.1494565e-05 -2.0299305e-30 6.1494575e-05)
(6.1401776e-05 3.4970355e-09 8.2972292e-33 6.1401758e-05 2.9875491e-30 6.1401767e-05)
(6.1299383e-05 3.9084428e-09 -4.9597848e-32 6.1299369e-05 8.7505009e-31 6.1299376e-05)
(6.118706e-05 4.187194e-09 1.2857714e-31 6.1187053e-05 -1.9797538e-30 6.1187057e-05)
(6.1064451e-05 4.2722419e-09 -1.2726892e-31 6.1064452e-05 -3.2643513e-30 6.1064451e-05)
(6.0931137e-05 4.092253e-09 1.368093e-31 6.0931151e-05 2.0804661e-30 6.0931143e-05)
(6.0786671e-05 3.5616078e-09 -1.3370784e-32 6.07867e-05 6.6992155e-31 6.0786684e-05)
(6.0630571e-05 2.5986635e-09 -1.322178e-31 6.0630616e-05 -4.3481426e-30 6.0630592e-05)
(6.0462287e-05 1.2962628e-09 5.9299682e-32 6.0462342e-05 -2.0387242e-30 6.0462313e-05)
(6.0281236e-05 -1.6012325e-10 2.8134622e-32 6.0281299e-05 2.7916431e-32 6.0281265e-05)
(6.0086786e-05 -1.8686465e-09 6.6377657e-25 6.008686e-05 -7.0315949e-27 6.0086821e-05)
(5.9878229e-05 -3.8783503e-09 1.3771761e-24 5.9878311e-05 -7.7943705e-27 5.9878267e-05)
(5.9654821e-05 -5.9919123e-09 -2.1285836e-24 5.9654902e-05 7.6276692e-27 5.9654859e-05)
(5.941575e-05 -7.9193977e-09 -2.8121596e-24 5.9415816e-05 6.129502e-27 5.9415781e-05)
(5.9160089e-05 -9.2652623e-09 -2.3040956e-31 5.9160125e-05 1.7259459e-30 5.9160107e-05)
(5.8886876e-05 -9.7024406e-09 3.4469269e-24 5.8886874e-05 2.9019857e-28 5.8886876e-05)
(5.8595056e-05 -9.190967e-09 3.2637223e-24 5.8595019e-05 3.5369855e-27 5.8595039e-05)
(5.8283432e-05 -7.9133457e-09 -5.6253078e-24 5.8283373e-05 -1.1327776e-26 5.8283405e-05)
(5.7950767e-05 -6.2522777e-09 -4.4422945e-24 5.7950702e-05 -1.2519693e-26 5.7950737e-05)
(5.7595682e-05 -4.6182284e-09 1.1234443e-32 5.7595624e-05 -3.529954e-31 5.7595655e-05)
(5.7216622e-05 -3.2936538e-09 1.171246e-24 5.7216578e-05 4.1847519e-27 5.7216602e-05)
(5.6811968e-05 -2.3771345e-09 8.4482732e-25 5.681194e-05 2.7145633e-27 5.6811955e-05)
(5.6379918e-05 -1.8476375e-09 4.4693041e-32 5.6379902e-05 -2.9319712e-30 5.6379911e-05)
(5.5918408e-05 -1.6063696e-09 8.5736608e-32 5.5918402e-05 1.0733886e-30 5.5918405e-05)
(5.542526e-05 -1.4925302e-09 1.637753e-25 5.5425256e-05 5.7557044e-27 5.5425258e-05)
(5.4898018e-05 -1.3710262e-09 6.4952939e-25 5.4898013e-05 9.2743457e-24 5.4898016e-05)
(5.4333919e-05 -1.2226071e-09 2.7290187e-25 5.4333914e-05 9.1478132e-24 5.4333917e-05)
(5.3729947e-05 -1.1248579e-09 -3.1938199e-25 5.3729946e-05 -1.2018972e-26 5.3729947e-05)
(5.3082665e-05 -1.1581568e-09 -1.6065969e-25 5.308267e-05 -9.0473305e-24 5.3082667e-05)
(5.2388197e-05 -1.3426043e-09 1.5732633e-25 5.2388207e-05 -9.0543315e-24 5.2388202e-05)
(5.164216e-05 -1.6272993e-09 1.5738483e-25 5.1642172e-05 6.3109445e-27 5.1642166e-05)
(5.0839536e-05 -1.9218853e-09 1.8269325e-31 5.0839547e-05 4.1620814e-30 5.0839541e-05)
(4.9974499e-05 -2.1457568e-09 -3.8979608e-33 4.9974508e-05 1.1454536e-30 4.9974503e-05)
(4.9040279e-05 -2.283516e-09 -1.7540141e-31 4.9040285e-05 -2.8004122e-30 4.9040282e-05)
(4.8028783e-05 -2.3714971e-09 -1.3538432e-31 4.8028789e-05 1.3331922e-30 4.8028786e-05)
(4.6930215e-05 -2.4947166e-09 1.4101273e-31 4.6930222e-05 -3.8513603e-30 4.6930219e-05)
(4.5732709e-05 -2.688915e-09 -1.5109558e-31 4.573272e-05 5.5047785e-30 4.5732715e-05)
(4.4420496e-05 -2.9561355e-09 2.8250762e-31 4.4420508e-05 -4.1466305e-30 4.4420502e-05)
(4.2974589e-05 -3.1456027e-09 -4.8469011e-32 4.2974594e-05 5.9940483e-30 4.2974592e-05)
(4.1362737e-05 -3.0912691e-09 1.1845045e-31 4.1362726e-05 -2.1190526e-30 4.1362733e-05)
(3.9553603e-05 -2.3718243e-09 -3.1781404e-31 3.9553566e-05 -1.0118196e-30 3.9553587e-05)
(3.7437309e-05 -1.1125911e-09 1.7933694e-31 3.7437255e-05 -4.4571211e-32 3.7437285e-05)
(3.4929451e-05 3.7259864e-10 1.1438561e-30 3.492941e-05 -1.7285357e-30 3.4929433e-05)
(3.1147929e-05 7.6726933e-10 -1.5773825e-29 3.114794e-05 6.0555898e-29 3.1147935e-05)
(2.7926604e-05 6.7090599e-10 1.0210091e-28 2.7926745e-05 7.3313789e-28 2.7926675e-05)
(2.6430613e-05 9.4414017e-10 1.1170642e-27 2.6431026e-05 -4.056251e-27 2.6430819e-05)
(2.5520395e-05 1.0473139e-09 -2.9923802e-28 2.5521098e-05 5.2073864e-27 2.5520745e-05)
(2.5027538e-05 1.1965883e-09 9.9547523e-28 2.5028631e-05 -1.0414561e-26 2.5028083e-05)
(2.4831917e-05 1.3251201e-09 1.081335e-27 2.4833466e-05 -5.8505554e-27 2.4832689e-05)
(2.4854674e-05 1.4468967e-09 5.6993949e-27 2.4856759e-05 -3.1422206e-26 2.4855714e-05)
(2.5056699e-05 1.5506153e-09 -6.3126693e-29 2.5059396e-05 1.531757e-26 2.5058045e-05)
(2.5428038e-05 1.6460931e-09 -4.9867345e-28 2.5431443e-05 1.3591974e-26 2.5429737e-05)
(2.5930122e-05 1.7209328e-09 2.4697725e-26 2.5934316e-05 -4.9450939e-26 2.5932216e-05)
(2.6574463e-05 1.7752203e-09 -9.2072547e-27 2.6579531e-05 -1.2796643e-27 2.6576994e-05)
(2.7406061e-05 1.8148066e-09 6.7497584e-26 2.7412115e-05 -9.3559612e-26 2.7409085e-05)
(2.8484805e-05 1.8732363e-09 -4.2168552e-26 2.8492066e-05 7.4580845e-26 2.8488433e-05)
(2.9785495e-05 1.9513261e-09 1.4721831e-26 2.9794164e-05 -3.5066038e-26 2.9789829e-05)
(3.1222436e-05 2.0276764e-09 -1.3490788e-27 3.1232622e-05 -1.1015826e-26 3.1227529e-05)
(3.2782007e-05 2.1014487e-09 -8.2856427e-27 3.2793784e-05 -2.1183488e-26 3.2787897e-05)
(3.4459125e-05 2.1761198e-09 -4.2845324e-27 3.4472535e-05 -6.412257e-26 3.4465834e-05)
(3.6245032e-05 2.2575097e-09 -1.6505062e-26 3.6260084e-05 4.3499897e-26 3.6252565e-05)
(3.8136886e-05 2.3537136e-09 5.070999e-28 3.8153564e-05 -5.1875758e-26 3.8145234e-05)
(4.0109266e-05 2.4733802e-09 -1.8179623e-24 4.0127528e-05 -1.4211064e-24 4.0118409e-05)
(4.2085676e-05 2.6103715e-09 -1.9635192e-24 4.2105363e-05 -1.5491745e-24 4.2095534e-05)
(4.3919105e-05 2.7202139e-09 6.9178417e-28 4.3939888e-05 -1.1436398e-26 4.3929513e-05)
(4.5584377e-05 2.7616495e-09 4.6310248e-27 4.5605845e-05 4.2394516e-27 4.559513e-05)
(4.7160356e-05 2.7256547e-09 -6.5891549e-26 4.7182204e-05 1.3914867e-26 4.71713e-05)
(4.8784466e-05 2.6529893e-09 -2.181741e-24 4.8806504e-05 -1.7249433e-24 4.8795506e-05)
(5.0412087e-05 2.5349511e-09 -2.2626303e-24 5.0434083e-05 -1.5634908e-24 5.0423107e-05)
(5.2116192e-05 2.3775718e-09 -2.2809366e-26 5.2137945e-05 -1.4991435e-26 5.2127091e-05)
(5.3966325e-05 2.1873418e-09 8.0884792e-26 5.3987648e-05 -4.2083623e-26 5.3977009e-05)
(5.6032721e-05 1.9698997e-09 -1.372775e-25 5.6053409e-05 1.2443302e-25 5.6043087e-05)
(5.8509687e-05 1.7301125e-09 9.4636262e-26 5.8529534e-05 -3.0620334e-26 5.8519633e-05)
(6.1836341e-05 1.4997218e-09 -1.3048791e-25 6.1855215e-05 7.6045397e-26 6.18458e-05)
(6.652344e-05 1.350016e-09 -2.1364294e-25 6.6541118e-05 2.794369e-25 6.65323e-05)
(7.2570007e-05 1.2515036e-09 1.8867042e-25 7.2585821e-05 -2.3043383e-25 7.2577933e-05)
(8.0338374e-05 1.1213504e-09 -8.9377748e-27 8.0351181e-05 -3.5126468e-26 8.0344793e-05)
(8.989725e-05 7.4354893e-10 -4.4246662e-25 8.9904734e-05 5.6520765e-25 8.9901e-05)
(0.00010322362 -5.6777655e-10 6.742031e-25 0.00010321981 -8.7842145e-25 0.00010322171)
(0.00011684794 -3.3042191e-09 -6.8485878e-25 0.0001168285 8.6746646e-25 0.00011683819)
(0.00014662442 -9.6777679e-09 -2.1828155e-25 0.0001465801 5.4338213e-25 0.00014660219)
(0.00014840099 -2.2152871e-08 -3.2862923e-25 0.00014832505 2.5135944e-25 0.00014836291)
(0.00026010121 -5.4079898e-08 2.1581206e-23 0.00025996835 1.0431565e-23 0.0002600346)
(9.5190219e-05 -7.4550775e-08 2.66505e-23 9.5067538e-05 1.0070123e-23 9.5128733e-05)
(0.00082177927 -2.064838e-07 -1.2277697e-25 0.00082156275 -1.308077e-26 0.0008216708)
(0.00035562747 -1.3637743e-07 -1.1264716e-25 0.00035554239 -1.0117452e-25 0.00035558488)
(0.0059173981 -6.8758497e-07 3.4979294e-25 0.0059171772 5.058748e-25 0.0059172877)
(0.0087127484 -9.7870021e-07 -3.1938607e-25 0.0087126339 8.4952384e-26 0.0087126913)
(0.024069109 -4.5166892e-06 2.808407e-21 0.024069085 4.0626964e-24 0.024069098)
(0.0090055039 -2.8865168e-06 1.7945773e-21 0.0090055565 -8.3199678e-24 0.0090055307)
(0.0073580449 -4.8519782e-06 -1.3931778e-25 0.007357962 -2.1088676e-25 0.0073580033)
(0.003432664 -2.5380334e-06 1.4828723e-21 0.0034326674 7.8650908e-26 0.0034326655)
(0.0069649713 -5.1055114e-06 9.2570037e-21 0.0069655155 -2.4990325e-22 0.0069652433)
(0.0033059601 -1.2704135e-06 1.9153416e-21 0.0033063317 -1.4170105e-22 0.0033061457)
(0.0025900237 -3.1398917e-07 9.11458e-23 0.0025902012 -1.2440077e-23 0.0025901125)
(0.00016568583 -9.8418522e-09 2.0398885e-24 0.00016569331 -5.1198581e-25 0.00016568961)
(0.00042547592 3.0179355e-08 -1.1953406e-23 0.00042542217 4.3652087e-24 0.00042544915)
(6.4225482e-05 2.0504649e-08 7.0315231e-26 6.4174283e-05 4.6606162e-26 6.4199924e-05)
(0.00013902292 1.1465154e-08 -4.9556668e-24 0.00013898359 3.2554264e-24 0.00013900327)
(8.5374905e-05 5.3312959e-09 -2.8636737e-24 8.5350398e-05 1.7784647e-24 8.536266e-05)
(8.3542599e-05 2.871867e-09 -5.5112536e-26 8.3525311e-05 -1.465414e-25 8.353396e-05)
(6.9182395e-05 1.6853065e-09 -2.7992178e-26 6.9169465e-05 -6.4023155e-26 6.9175933e-05)
(6.1899649e-05 1.0939901e-09 7.9371118e-26 6.18893e-05 1.9467954e-26 6.1894478e-05)
(5.4878496e-05 7.4303869e-10 4.4288917e-24 5.4870211e-05 -3.8530021e-24 5.4874357e-05)
(4.9552264e-05 5.3891258e-10 3.4592622e-24 4.9545553e-05 -3.1900547e-24 4.9548911e-05)
(4.5145681e-05 4.2403135e-10 -5.2936847e-26 4.5140184e-05 -3.5826668e-26 4.5142935e-05)
(4.1641072e-05 3.6565711e-10 -7.3799517e-25 4.1636503e-05 7.2554512e-25 4.1638789e-05)
(3.8997895e-05 3.3823173e-10 -5.5281166e-25 3.8994034e-05 7.2405101e-25 3.8995966e-05)
(3.6937426e-05 3.1629047e-10 -2.3126148e-25 3.6934123e-05 3.0450607e-25 3.6935776e-05)
(3.519325e-05 2.9002998e-10 -2.262061e-25 3.5190449e-05 2.4307502e-25 3.5191851e-05)
(3.3631377e-05 2.5582117e-10 8.9054061e-26 3.3629072e-05 8.9311723e-26 3.3630225e-05)
(3.2203197e-05 2.1551279e-10 -5.3142848e-26 3.2201376e-05 -7.86738e-26 3.2202287e-05)
(3.0856354e-05 1.6322274e-10 -1.2268755e-25 3.0855064e-05 -1.5999068e-25 3.0855709e-05)
(2.9564798e-05 1.0087416e-10 4.7363192e-26 2.9564073e-05 5.8410443e-26 2.9564436e-05)
(2.8291375e-05 2.7422577e-11 2.6263588e-26 2.8291265e-05 3.4692782e-26 2.829132e-05)
(2.7017078e-05 -5.8015746e-11 -2.9476647e-26 2.701764e-05 -4.3770948e-26 2.7017359e-05)
(2.5677557e-05 -1.4342523e-10 -3.1767779e-26 2.567876e-05 -4.4211954e-26 2.5678158e-05)
(2.4265558e-05 -2.2150828e-10 -1.0427158e-26 2.4267308e-05 -5.6104996e-27 2.4266432e-05)
(2.2850355e-05 -2.9262337e-10 1.2605785e-26 2.2852525e-05 7.9400363e-27 2.2851439e-05)
(2.14815e-05 -3.5256837e-10 3.0896749e-26 2.1483919e-05 5.7451798e-26 2.1482708e-05)
(2.0173499e-05 -3.9465228e-10 2.0845153e-27 2.0175965e-05 2.8374166e-26 2.0174731e-05)
(1.8932134e-05 -4.098864e-10 1.4358331e-26 1.8934429e-05 1.7983653e-26 1.8933281e-05)
(1.776272e-05 -3.8963897e-10 3.2294324e-26 1.7764646e-05 5.8529059e-26 1.7763683e-05)
(1.6669243e-05 -3.2820475e-10 3.7863392e-27 1.6670649e-05 -2.6191851e-27 1.6669946e-05)
(1.5663889e-05 -2.2628066e-10 8.74587e-26 1.5664707e-05 -1.1964107e-25 1.5664299e-05)
(1.4778754e-05 -9.4317755e-11 4.5293473e-26 1.4779014e-05 9.3724532e-28 1.4778885e-05)
(1.4044714e-05 5.2566314e-11 -4.9892427e-26 1.4044519e-05 8.1574998e-28 1.4044617e-05)
(1.3439064e-05 1.9600689e-10 -4.8879083e-25 1.3438554e-05 1.9217822e-25 1.343881e-05)
(1.2931823e-05 3.1210657e-10 -5.2929354e-25 1.2931159e-05 2.6724602e-25 1.2931492e-05)
(1.2519922e-05 3.8402915e-10 6.2195935e-25 1.2519247e-05 -2.9315468e-25 1.2519585e-05)
(1.2212387e-05 4.0801742e-10 6.5445892e-25 1.22118e-05 -1.9436807e-25 1.2212094e-05)
(1.2022282e-05 3.8433931e-10 -3.7485243e-28 1.2021838e-05 -5.7685751e-27 1.2022061e-05)
(1.1971221e-05 3.4282155e-10 5.0301579e-25 1.1970911e-05 -1.1068389e-25 1.1971066e-05)
(1.2087441e-05 3.3166198e-10 4.7884571e-25 1.2087218e-05 -6.9052113e-26 1.208733e-05)
(1.243364e-05 3.4056134e-10 -3.9155174e-28 1.243349e-05 -1.6059016e-26 1.2433565e-05)
(1.3101369e-05 3.2092422e-10 -2.230365e-25 1.3101307e-05 1.5631927e-26 1.3101338e-05)
(1.4577454e-05 2.2255994e-10 -1.5155618e-25 1.4577467e-05 -3.18852e-28 1.4577461e-05)
(1.6296643e-05 1.9229329e-11 7.5620466e-31 1.629667e-05 2.6461849e-30 1.6296657e-05)
(1.7449521e-05 -2.56674e-10 9.9420868e-32 1.7449552e-05 5.768789e-31 1.7449537e-05)
(1.8413332e-05 -5.4642071e-10 -1.2484522e-31 1.8413363e-05 -2.810775e-30 1.8413348e-05)
(1.9237721e-05 -8.269191e-10 1.2785574e-31 1.9237749e-05 8.2128562e-31 1.9237735e-05)
(1.9970299e-05 -1.0754495e-09 7.5944125e-25 1.9970323e-05 -2.9862524e-27 1.9970311e-05)
(2.0626781e-05 -1.3116255e-09 9.2659998e-25 2.0626803e-05 -2.6910531e-27 2.0626792e-05)
(2.1221736e-05 -1.5218709e-09 -3.7522057e-31 2.1221754e-05 -1.8496726e-30 2.1221745e-05)
(2.1764096e-05 -1.6956681e-09 9.3072089e-32 2.1764109e-05 1.9056444e-30 2.1764103e-05)
(2.2261098e-05 -1.8032696e-09 1.9989317e-31 2.2261101e-05 9.5875047e-31 2.22611e-05)
(2.2718285e-05 -1.8174288e-09 1.2565074e-24 2.2718275e-05 6.2151045e-28 2.271828e-05)
(2.3140181e-05 -1.7012049e-09 1.1604041e-24 2.3140156e-05 1.6665684e-27 2.3140169e-05)
(2.3530482e-05 -1.4442622e-09 -4.8511014e-25 2.353044e-05 -1.4102375e-27 2.3530461e-05)
(2.3892322e-05 -1.0191316e-09 1.0532293e-24 2.3892266e-05 1.1633612e-26 2.3892293e-05)
(2.4228397e-05 -4.8614577e-10 9.7175392e-25 2.4228333e-05 2.6662234e-26 2.4228364e-05)
(2.4541014e-05 1.2433214e-10 -8.8429942e-26 2.4540954e-05 1.0384799e-26 2.4540983e-05)
(2.483217e-05 6.1647271e-10 4.6393734e-32 2.4832156e-05 -7.0422092e-34 2.4832163e-05)
(2.5103666e-05 4.6586116e-10 -1.8590902e-32 2.51037e-05 -2.5674313e-31 2.5103683e-05)
(2.5357103e-05 1.0488329e-10 6.2466748e-33 2.535712e-05 -5.3792023e-31 2.5357112e-05)
(2.559385e-05 1.8683939e-10 4.9759751e-32 2.5593833e-05 1.7367809e-30 2.5593841e-05)
(2.5815142e-05 4.2308027e-10 4.7984029e-33 2.5815114e-05 -2.1457078e-30 2.5815128e-05)
(2.6022114e-05 6.871176e-10 -2.1093017e-25 2.6022087e-05 7.7778577e-28 2.6022101e-05)
(2.6215765e-05 9.0912739e-10 -2.3951856e-24 2.6215746e-05 7.8182943e-27 2.6215755e-05)
(2.6397015e-05 1.0402948e-09 -2.4272381e-24 2.6397004e-05 4.1709306e-27 2.639701e-05)
(2.6566695e-05 1.1141103e-09 -1.0486381e-31 2.656669e-05 7.2958126e-31 2.6566693e-05)
(2.6725576e-05 1.1453076e-09 8.4218604e-32 2.6725573e-05 -2.5905726e-31 2.6725575e-05)
(2.6874329e-05 1.1640907e-09 -1.1254125e-31 2.6874327e-05 3.879265e-32 2.6874328e-05)
(2.7013603e-05 1.1731859e-09 3.729293e-33 2.7013601e-05 -3.8174142e-31 2.7013602e-05)
(2.7143971e-05 1.1746826e-09 1.7219411e-31 2.7143971e-05 2.9724404e-31 2.7143971e-05)
(2.7265969e-05 1.1578006e-09 -1.0613238e-31 2.7265971e-05 2.0142459e-31 2.726597e-05)
(2.7380154e-05 1.113653e-09 3.7212626e-25 2.7380161e-05 1.8700137e-28 2.7380157e-05)
(2.7486959e-05 1.0258884e-09 3.453494e-25 2.7486971e-05 3.5579092e-28 2.7486965e-05)
(2.7586963e-05 8.8679205e-10 1.9501496e-32 2.7586981e-05 -1.1534835e-31 2.7586972e-05)
(2.7680452e-05 6.797271e-10 6.8427289e-32 2.7680478e-05 3.6570802e-31 2.7680465e-05)
(2.7767947e-05 4.069937e-10 -1.0578042e-32 2.7767979e-05 -7.3540036e-31 2.7767963e-05)
(2.7849404e-05 9.5002781e-11 -3.3818295e-26 2.784944e-05 -1.1441496e-27 2.7849422e-05)
(2.7924718e-05 -2.4354427e-10 8.1648469e-26 2.7924757e-05 -1.2321565e-27 2.7924738e-05)
(2.7994375e-05 -5.9873521e-10 -1.1804373e-32 2.7994412e-05 2.991419e-31 2.7994394e-05)
(2.8058586e-05 -9.1850983e-10 1.917826e-24 2.8058616e-05 -1.0459583e-26 2.8058601e-05)
(2.8117739e-05 -1.1338372e-09 2.362825e-24 2.8117752e-05 -4.5633493e-27 2.8117745e-05)
(2.8172036e-05 -1.1735287e-09 9.6458499e-32 2.8172026e-05 -1.1257782e-31 2.8172031e-05)
(2.8223491e-05 -9.8970591e-10 -6.2735413e-32 2.8223456e-05 -1.2964857e-31 2.8223473e-05)
(2.8263795e-05 -5.8657501e-10 7.6097291e-25 2.826374e-05 1.3384545e-26 2.8263767e-05)
(2.8307839e-05 -4.0144407e-11 -1.9883547e-26 2.8307775e-05 1.5443165e-26 2.8307807e-05)
(2.8344587e-05 5.3791299e-10 -1.5294878e-33 2.8344527e-05 2.7266512e-31 2.8344557e-05)
(2.8377281e-05 1.030847e-09 -3.9702965e-25 2.8377233e-05 1.5512115e-27 2.8377257e-05)
(2.840605e-05 1.4030479e-09 -5.2314683e-25 2.8406015e-05 1.1522052e-27 2.8406032e-05)
(2.8430983e-05 1.6794378e-09 -1.9103965e-32 2.8430957e-05 6.3238037e-31 2.8430969e-05)
(2.845215e-05 1.8820943e-09 8.1600487e-33 2.8452132e-05 1.3562269e-31 2.8452141e-05)
(2.846963e-05 2.0033243e-09 -2.2893227e-32 2.8469623e-05 -3.0809535e-31 2.8469627e-05)
(2.8483469e-05 1.9981289e-09 -7.2906906e-25 2.8483478e-05 -2.8182813e-28 2.8483473e-05)
(2.8493714e-05 1.8354305e-09 -6.7249465e-25 2.849374e-05 -8.1451343e-28 2.8493727e-05)
(2.8500405e-05 1.5514315e-09 1.4536868e-32 2.8500439e-05 -1.700954e-31 2.8500422e-05)
(2.8503301e-05 1.2410412e-09 -2.4188973e-33 2.8503332e-05 -8.4349344e-32 2.8503317e-05)
(2.8502667e-05 9.9414105e-10 2.4627726e-33 2.850269e-05 -6.9817598e-32 2.8502679e-05)
(2.849904e-05 8.3569233e-10 -1.033914e-33 2.8499056e-05 -2.2550166e-33 2.8499048e-05)
(2.8491839e-05 7.2410302e-10 2.7611915e-25 2.8491851e-05 4.1177549e-28 2.8491845e-05)
(2.8480828e-05 6.4243304e-10 -2.2798597e-25 2.8480833e-05 -3.9532309e-28 2.8480831e-05)
(2.8466222e-05 6.6486461e-10 -4.8170652e-25 2.8466213e-05 1.0000396e-27 2.8466217e-05)
(2.8447967e-05 8.2471397e-10 -2.9614578e-32 2.8447945e-05 3.1738372e-31 2.8447956e-05)
(2.8426006e-05 1.0822312e-09 -3.7988902e-25 2.8425973e-05 1.0170948e-27 2.8425989e-05)
(2.8400268e-05 1.4268634e-09 2.0222365e-28 2.8400226e-05 -9.3193114e-31 2.8400247e-05)
(2.8370674e-05 1.8378554e-09 6.3924131e-25 2.8370625e-05 -1.5560688e-27 2.8370649e-05)
(2.8337129e-05 2.2889302e-09 -6.3306091e-32 2.8337077e-05 1.4073459e-30 2.8337103e-05)
(2.8299519e-05 2.747179e-09 1.0609267e-31 2.8299467e-05 -2.7706037e-31 2.8299493e-05)
(2.8257726e-05 3.1745331e-09 -5.8323711e-32 2.825768e-05 -4.7612038e-31 2.8257703e-05)
(2.8211613e-05 3.5246134e-09 -8.3620689e-32 2.8211577e-05 -8.2264478e-31 2.8211595e-05)
(2.8161022e-05 3.7481215e-09 -9.0737731e-32 2.8161002e-05 -1.0684318e-30 2.8161012e-05)
(2.8105791e-05 3.7920092e-09 -1.3902763e-31 2.8105795e-05 1.3691339e-30 2.8105793e-05)
(2.8045732e-05 3.5948701e-09 3.6350926e-31 2.8045768e-05 -9.8921147e-31 2.8045751e-05)
(2.798064e-05 3.0833744e-09 -9.6320862e-32 2.7980716e-05 -1.7801955e-31 2.7980679e-05)
(2.7910304e-05 2.1939582e-09 1.4446386e-31 2.791042e-05 7.2092676e-30 2.7910363e-05)
(2.7834478e-05 1.002028e-09 -1.4120702e-31 2.783462e-05 1.2173098e-30 2.7834551e-05)
(2.7752896e-05 -3.339459e-10 6.8359894e-32 2.7753059e-05 -1.3013422e-29 2.7752979e-05)
(2.7665266e-05 -1.8813624e-09 -6.0093334e-25 2.7665459e-05 6.3770645e-27 2.7665364e-05)
(2.7571274e-05 -3.6801819e-09 -1.2496872e-24 2.7571488e-05 7.0661757e-27 2.7571383e-05)
(2.747059e-05 -5.5562788e-09 1.928593e-24 2.7470801e-05 -6.8940977e-27 2.7470697e-05)
(2.736285e-05 -7.2564078e-09 2.5515288e-24 2.7363023e-05 -5.5630446e-27 2.7362937e-05)
(2.7247637e-05 -8.4422847e-09 -1.9146519e-31 2.7247733e-05 -2.8399498e-30 2.7247685e-05)
(2.7124505e-05 -8.8353143e-09 -3.1151748e-24 2.7124507e-05 -2.6883081e-28 2.7124505e-05)
(2.6992965e-05 -8.399815e-09 -2.9519755e-24 2.6992878e-05 -3.1966176e-27 2.6992921e-05)
(2.6852467e-05 -7.278594e-09 5.0728717e-24 2.685232e-05 1.0211148e-26 2.6852392e-05)
(2.6702439e-05 -5.7938154e-09 4.0126374e-24 2.6702273e-05 1.1309139e-26 2.6702355e-05)
(2.6542262e-05 -4.3075386e-09 2.1362239e-31 2.6542112e-05 3.2870109e-30 2.6542185e-05)
(2.6371235e-05 -3.0849364e-09 -5.3633887e-24 2.6371121e-05 -3.1172389e-26 2.6371177e-05)
(2.6188626e-05 -2.2337708e-09 -3.8775747e-24 2.6188553e-05 -2.013101e-26 2.6188589e-05)
(2.5993621e-05 -1.7440432e-09 -8.5420995e-32 2.5993582e-05 1.4594397e-29 2.5993601e-05)
(2.578529e-05 -1.5206304e-09 3.293454e-31 2.5785272e-05 -1.2731263e-29 2.5785281e-05)
(2.5562638e-05 -1.4115998e-09 -1.3454869e-31 2.5562627e-05 5.0045306e-30 2.5562632e-05)
(2.5324541e-05 -1.2978045e-09 -4.4238591e-25 2.5324528e-05 -8.420905e-24 2.5324535e-05)