/*--------------------------------*- C++ -*----------------------------------*\
| =========                 |                                                 |
| \\      /  F ield         | OpenFOAM: The Open Source CFD Toolbox           |
|  \\    /   O peration     | Version:  2.4.0                                 |
|   \\  /    A nd           | Web:      www.OpenFOAM.org                      |
|    \\/     M anipulation  |                                                 |
\*---------------------------------------------------------------------------*/
FoamFile
{
    version     2.0;
    format      ascii;
    class       surfaceScalarField;
    location    "360";
    object      phi;
}
// * * * * * * * * * * * * * * * * * * * * * * * * * * * * * * * * * * * * * //

dimensions      [0 3 -1 0 0 0 0];

internalField   nonuniform List<scalar> 
39105
(
-7.1666554e-08
3.3712532e-09
-7.481745e-08
3.1509374e-09
-7.7697037e-08
2.8795889e-09
-8.0213964e-08
2.5169246e-09
-8.22839e-08
2.0699354e-09
-8.3875705e-08
1.5918052e-09
-8.501411e-08
1.1384042e-09
-8.5916698e-08
9.0258717e-10
-8.6822695e-08
9.0599737e-10
-8.7538394e-08
7.1569881e-10
-8.7883758e-08
3.4536293e-10
-8.777785e-08
-1.0590819e-10
-8.7116856e-08
-6.6099367e-10
-8.5876111e-08
-1.2407456e-09
-8.3932469e-08
-1.9436419e-09
-8.1322973e-08
-2.6094963e-09
-7.7991546e-08
-3.3314276e-09
-7.4293983e-08
-3.6975633e-09
-7.0485888e-08
-3.8080956e-09
-6.7640746e-08
-2.8451416e-09
-6.6666059e-08
-9.7468702e-10
-7.1663019e-08
4.9969592e-09
-9.1964758e-08
2.030174e-08
-1.1380201e-07
2.1837249e-08
-1.3172204e-07
1.7920036e-08
-1.4777716e-07
1.6055112e-08
-1.6226249e-07
1.448533e-08
-1.7531141e-07
1.3048919e-08
-1.8714373e-07
1.1832327e-08
-1.9788583e-07
1.0742093e-08
-2.0771435e-07
9.8285239e-09
-2.1672151e-07
9.0071565e-09
-2.2503777e-07
8.3162651e-09
-2.3272997e-07
7.6921977e-09
-2.3988928e-07
7.1593122e-09
-2.4655797e-07
6.6686917e-09
-2.527891e-07
6.2311264e-09
-2.5859739e-07
5.8082925e-09
-2.6402101e-07
5.4236145e-09
-2.690972e-07
5.0761927e-09
-2.7385954e-07
4.7623368e-09
-2.7831614e-07
4.4565999e-09
-2.8249006e-07
4.1739211e-09
-2.8639197e-07
3.9019166e-09
-2.9003524e-07
3.6432688e-09
-2.9342638e-07
3.3911374e-09
-2.9657492e-07
3.1485362e-09
-2.994859e-07
2.9109791e-09
-3.0216647e-07
2.6805708e-09
-3.0461572e-07
2.4492507e-09
-3.0683559e-07
2.2198756e-09
-3.0884399e-07
2.0083973e-09
-3.106882e-07
1.8442135e-09
-3.1237565e-07
1.6874462e-09
-3.1388142e-07
1.5057664e-09
-3.1518415e-07
1.3027317e-09
-3.162778e-07
1.0936528e-09
-3.1719477e-07
9.1697e-10
-3.17954e-07
7.5923043e-10
-3.1856701e-07
6.1301182e-10
-3.1906604e-07
4.9902544e-10
-3.194897e-07
4.236672e-10
-3.1988485e-07
3.9514555e-10
-3.2029961e-07
4.1476374e-10
-3.2071554e-07
4.1592264e-10
-3.2099972e-07
2.8417928e-10
-3.2080435e-07
-1.9536907e-10
-3.2013372e-07
-6.7062809e-10
-3.1923089e-07
-9.0282948e-10
-3.181197e-07
-1.1111866e-09
-3.1684647e-07
-1.2732278e-09
-3.1542447e-07
-1.4220057e-09
-3.1386255e-07
-1.5619205e-09
-3.1216716e-07
-1.6953857e-09
-3.1034337e-07
-1.8237946e-09
-3.0839611e-07
-1.9472542e-09
-3.0632942e-07
-2.066692e-09
-3.041481e-07
-2.1813263e-09
-3.0185576e-07
-2.2923409e-09
-2.9945735e-07
-2.3984009e-09
-2.9695632e-07
-2.501035e-09
-2.9435742e-07
-2.5988954e-09
-2.9166399e-07
-2.6934367e-09
-2.8888092e-07
-2.7830626e-09
-2.8601185e-07
-2.8690797e-09
-2.8306145e-07
-2.9503956e-09
-2.8003321e-07
-3.0282389e-09
-2.7693137e-07
-3.1018427e-09
-2.7375953e-07
-3.1718407e-09
-2.7052181e-07
-3.2377176e-09
-2.6722204e-07
-3.2997717e-09
-2.638638e-07
-3.3582358e-09
-2.6045104e-07
-3.4127627e-09
-2.5698746e-07
-3.4635752e-09
-2.5347718e-07
-3.5102861e-09
-2.4992287e-07
-3.5543106e-09
-2.4632818e-07
-3.5946867e-09
-2.4269595e-07
-3.632226e-09
-2.3903024e-07
-3.665717e-09
-2.3533347e-07
-3.6967705e-09
-2.316092e-07
-3.7242625e-09
-2.2786022e-07
-3.7489791e-09
-2.2408991e-07
-3.7703147e-09
-2.2030121e-07
-3.7886998e-09
-2.1649673e-07
-3.804485e-09
-2.1267994e-07
-3.8167848e-09
-2.0885295e-07
-3.8269866e-09
-2.0501935e-07
-3.8336083e-09
-2.0118076e-07
-3.8385867e-09
-1.9734051e-07
-3.8402533e-09
-1.9350035e-07
-3.8401544e-09
-1.8966327e-07
-3.8370769e-09
-1.858312e-07
-3.8320752e-09
-1.8200669e-07
-3.824506e-09
-1.7819164e-07
-3.8150532e-09
-1.7438831e-07
-3.8033328e-09
-1.7059838e-07
-3.7899226e-09
-1.6682417e-07
-3.7742165e-09
-1.6306697e-07
-3.7571978e-09
-1.5932908e-07
-3.7378942e-09
-1.5561133e-07
-3.7177454e-09
-3.6953723e-09
-2.2371432e-07
1.3810301e-08
-2.3352486e-07
1.2961508e-08
-2.424842e-07
1.1838933e-08
-2.5033759e-07
1.0370311e-08
-2.5681645e-07
8.5487954e-09
-2.6184131e-07
6.6166616e-09
-2.6546734e-07
4.7644321e-09
-2.684028e-07
3.8380539e-09
-2.7132897e-07
3.8321635e-09
-2.7370636e-07
3.0930849e-09
-2.7492095e-07
1.5599595e-09
-2.7480509e-07
-2.2177251e-10
-2.7293072e-07
-2.5353649e-09
-2.6936422e-07
-4.8072442e-09
-2.6357444e-07
-7.7334252e-09
-2.5590262e-07
-1.0281311e-08
-2.4586125e-07
-1.3372798e-08
-2.3496268e-07
-1.4596136e-08
-2.2347074e-07
-1.5300033e-08
-2.1550256e-07
-1.0813328e-08
-2.1288188e-07
-3.5953626e-09
-2.297925e-07
2.1907579e-08
-2.9181739e-07
8.2326629e-08
-3.5939901e-07
8.9418871e-08
-4.1461197e-07
7.3132993e-08
-4.6438034e-07
6.5823479e-08
-5.0895821e-07
5.9063205e-08
-5.4931506e-07
5.3405765e-08
-5.8573477e-07
4.8252042e-08
-6.1892291e-07
4.3930231e-08
-6.4917395e-07
4.0079565e-08
-6.7697464e-07
3.680784e-08
-7.0257016e-07
3.391179e-08
-7.2629232e-07
3.1414351e-08
-7.4832315e-07
2.9190143e-08
-7.68872e-07
2.721754e-08
-7.8803991e-07
2.5399037e-08
-8.0592262e-07
2.3691005e-08
-8.2261247e-07
2.2113463e-08
-8.3823424e-07
2.069796e-08
-8.5285641e-07
1.9384506e-08
-8.6654522e-07
1.8145414e-08
-8.7935266e-07
1.6981364e-08
-8.9132349e-07
1.5872748e-08
-9.0248894e-07
1.4808714e-08
-9.1287687e-07
1.377907e-08
-9.2251046e-07
1.278212e-08
-9.314104e-07
1.1810924e-08
-9.3959614e-07
1.0866311e-08
-9.470693e-07
9.9224078e-09
-9.5383586e-07
8.9864396e-09
-9.5991028e-07
8.082816e-09
-9.6547618e-07
7.4101162e-09
-9.7059568e-07
6.8069476e-09
-9.7514493e-07
6.0550166e-09
-9.7906657e-07
5.2243695e-09
-9.8236443e-07
4.3915169e-09
-9.8510709e-07
3.6596261e-09
-9.8733495e-07
2.9870854e-09
-9.8912086e-07
2.3989305e-09
-9.9055618e-07
1.9343434e-09
-9.91761e-07
1.6284797e-09
-9.9287709e-07
1.5112424e-09
-9.9406002e-07
1.5976962e-09
-9.9526202e-07
1.617916e-09
-9.9609254e-07
1.1147015e-09
-9.9542195e-07
-8.6596315e-10
-9.9323612e-07
-2.8564553e-09
-9.9033457e-07
-3.8043783e-09
-9.8678952e-07
-4.6562413e-09
-9.8274572e-07
-5.3170274e-09
-9.7824189e-07
-5.9258313e-09
-9.7330735e-07
-6.4964642e-09
-9.6796053e-07
-7.0422071e-09
-9.6221812e-07
-7.5662037e-09
-9.5609445e-07
-8.0709221e-09
-9.4960307e-07
-8.5580731e-09
-9.4275777e-07
-9.026626e-09
-9.3557095e-07
-9.4791637e-09
-9.2805656e-07
-9.9127897e-09
-9.2022644e-07
-1.0331153e-08
-9.1209431e-07
-1.0731024e-08
-9.0367177e-07
-1.1115979e-08
-8.9497274e-07
-1.1482092e-08
-8.8600912e-07
-1.18327e-08
-8.7679442e-07
-1.2165096e-08
-8.6734021e-07
-1.2482446e-08
-8.5765919e-07
-1.2782862e-08
-8.4776304e-07
-1.3067994e-08
-8.3766411e-07
-1.3336649e-08
-8.2737427e-07
-1.3589608e-08
-8.1690494e-07
-1.3827568e-08
-8.0626808e-07
-1.4049623e-08
-7.9547501e-07
-1.4256644e-08
-7.845376e-07
-1.4447692e-08
-7.7346538e-07
-1.4626533e-08
-7.6226935e-07
-1.4790719e-08
-7.5095901e-07
-1.4942565e-08
-7.3954563e-07
-1.5079094e-08
-7.2803794e-07
-1.520446e-08
-7.1644628e-07
-1.5315925e-08
-7.0477966e-07
-1.5415596e-08
-6.9304787e-07
-1.5502103e-08
-6.8126004e-07
-1.5576531e-08
-6.6942456e-07
-1.5639966e-08
-6.5755124e-07
-1.5690108e-08
-6.456475e-07
-1.5730724e-08
-6.3372308e-07
-1.5758027e-08
-6.2178456e-07
-1.577711e-08
-6.0984104e-07
-1.5783775e-08
-5.9789912e-07
-1.5782071e-08
-5.8596707e-07
-1.5769126e-08
-5.7405155e-07
-1.5747598e-08
-5.6215983e-07
-1.5716223e-08
-5.5029829e-07
-1.5676593e-08
-5.3847342e-07
-1.5628209e-08
-5.2669098e-07
-1.5572361e-08
-5.1495735e-07
-1.5507849e-08
-5.0327744e-07
-1.54371e-08
-4.9165742e-07
-1.5357914e-08
-4.801013e-07
-1.5273871e-08
-1.518164e-08
-3.8994327e-07
3.1936719e-08
-4.0700176e-07
3.0020052e-08
-4.2258157e-07
2.7418744e-08
-4.3626027e-07
2.4049006e-08
-4.4757218e-07
1.9860706e-08
-4.5639403e-07
1.5438505e-08
-4.6280662e-07
1.1177029e-08
-4.6806165e-07
9.0930811e-09
-4.7329244e-07
9.0629539e-09
-4.7761401e-07
7.4146475e-09
-4.7992729e-07
3.8732402e-09
-4.7999826e-07
-1.5080027e-10
-4.7702073e-07
-5.5128948e-09
-4.7120786e-07
-1.0620118e-08
-4.6155785e-07
-1.738343e-08
-4.4881006e-07
-2.3029102e-08
-4.3191784e-07
-3.0265021e-08
-4.1375029e-07
-3.2763688e-08
-3.9446515e-07
-3.4585174e-08
-3.816912e-07
-2.3587273e-08
-3.7805046e-07
-7.2361036e-09
-4.0895199e-07
5.2809111e-08
-5.1554327e-07
1.8891791e-07
-6.3222818e-07
2.0610378e-07
-7.2755395e-07
1.6845876e-07
-8.1363421e-07
1.5190375e-07
-8.9049503e-07
1.3592402e-07
-9.6019194e-07
1.2310268e-07
-1.0229703e-06
1.1103041e-07
-1.0802514e-06
1.0121128e-07
-1.1323824e-06
9.2210567e-08
-1.1803358e-06
8.4761332e-08
-1.2244337e-06
7.8009641e-08
-1.2653302e-06
7.2310852e-08
-1.3032754e-06
6.71353e-08
-1.3386818e-06
6.2624033e-08
-1.3716839e-06
5.8401075e-08
-1.4024805e-06
5.4487639e-08
-1.4312175e-06
5.0850491e-08
-1.4581073e-06
4.7587749e-08
-1.4832418e-06
4.4518932e-08
-1.5067701e-06
4.1673754e-08
-1.5287692e-06
3.8980466e-08
-1.5493236e-06
3.6427123e-08
-1.5684806e-06
3.3965738e-08
-1.5862935e-06
3.1592011e-08
-1.6027983e-06
2.9286911e-08
-1.6180343e-06
2.7046885e-08
-1.6320335e-06
2.4865507e-08
-1.6448032e-06
2.2692119e-08
-1.6563509e-06
2.0534173e-08
-1.6666572e-06
1.8389033e-08
-1.6760838e-06
1.6836756e-08
-1.6847834e-06
1.5506589e-08
-1.6924944e-06
1.3765937e-08
-1.699123e-06
1.1853017e-08
-1.7046985e-06
9.9669732e-09
-1.7093021e-06
8.2632489e-09
-1.712985e-06
6.6699795e-09
-1.7159122e-06
5.3261977e-09
-1.718236e-06
4.258088e-09
-1.7201633e-06
3.5558232e-09
-1.721938e-06
3.285899e-09
-1.7238354e-06
3.4951048e-09
-1.7257918e-06
3.5743204e-09
-1.7271544e-06
2.4772549e-09
-1.7258954e-06
-2.1249562e-09
-1.7219538e-06
-6.7980329e-09
-1.716773e-06
-8.9851836e-09
-1.7104847e-06
-1.0944558e-08
-1.7033367e-06
-1.2464939e-08
-1.6953947e-06
-1.3867858e-08
-1.6867102e-06
-1.5181002e-08
-1.677314e-06
-1.6438346e-08
-1.6672358e-06
-1.7644449e-08
-1.6564996e-06
-1.8807151e-08
-1.6451295e-06
-1.9928117e-08
-1.6331488e-06
-2.1007347e-08
-1.6205797e-06
-2.2048285e-08
-1.6074454e-06
-2.3047117e-08
-1.5937671e-06
-2.4009363e-08
-1.5795681e-06
-2.4930108e-08
-1.5648691e-06
-2.5814977e-08
-1.5496934e-06
-2.6657807e-08
-1.534062e-06
-2.7464023e-08
-1.5179977e-06
-2.822941e-08
-1.501521e-06
-2.8959143e-08
-1.4846536e-06
-2.9650315e-08
-1.4674159e-06
-3.0305638e-08
-1.4498292e-06
-3.0923409e-08
-1.4319138e-06
-3.1504933e-08
-1.4136899e-06
-3.2051506e-08
-1.3951778e-06
-3.2561675e-08
-1.3763971e-06
-3.3037339e-08
-1.3573677e-06
-3.3477102e-08
-1.3381069e-06
-3.3887326e-08
-1.3186335e-06
-3.4264116e-08
-1.2989645e-06
-3.4611643e-08
-1.2791183e-06
-3.4925222e-08
-1.2591111e-06
-3.5211732e-08
-1.23896e-06
-3.5466989e-08
-1.2186811e-06
-3.5694532e-08
-1.1982907e-06
-3.5892478e-08
-1.1778047e-06
-3.6062574e-08
-1.1572377e-06
-3.6206914e-08
-1.1366061e-06
-3.6321711e-08
-1.1159234e-06
-3.6413457e-08
-1.0952054e-06
-3.6476039e-08
-1.0744645e-06
-3.6517976e-08
-1.0537157e-06
-3.6532564e-08
-1.0329712e-06
-3.6526576e-08
-1.0122446e-06
-3.6495716e-08
-9.915479e-07
-3.64443e-08
-9.7089324e-07
-3.6370888e-08
-9.5029198e-07
-3.6277848e-08
-9.2975498e-07
-3.616521e-08
-9.0929262e-07
-3.6034719e-08
-8.8891539e-07
-3.5885082e-08
-8.686324e-07
-3.5720085e-08
-8.4845367e-07
-3.5536648e-08
-8.2838712e-07
-3.5340424e-08
-3.5126364e-08
-5.7132846e-07
5.8401045e-08
-5.9625093e-07
5.4942551e-08
-6.1902384e-07
5.0191652e-08
-6.3904836e-07
4.4073521e-08
-6.556528e-07
3.6465152e-08
-6.6866417e-07
2.8449875e-08
-6.7820127e-07
2.0714128e-08
-6.8609344e-07
1.6985254e-08
-6.9396083e-07
1.6930341e-08
-7.0054135e-07
1.3995169e-08
-7.042316e-07
7.5634864e-09
-7.0471917e-07
3.3677231e-10
-7.0080372e-07
-9.4283455e-09
-6.9285084e-07
-1.8573004e-08
-6.7939793e-07
-3.0836338e-08
-6.615836e-07
-4.0843428e-08
-6.3779873e-07
-5.4049894e-08
-6.1230424e-07
-5.8258175e-08
-5.8527238e-07
-6.1617037e-08
-5.6801192e-07
-4.0847729e-08
-5.6428184e-07
-1.0966186e-08
-6.1124424e-07
9.9771507e-08
-7.6555445e-07
3.4322812e-07
-9.3469383e-07
3.7524316e-07
-1.0731569e-06
3.0692186e-07
-1.1981885e-06
2.7693527e-07
-1.3096578e-06
2.4739339e-07
-1.4107611e-06
2.2420592e-07
-1.5017633e-06
2.020326e-07
-1.5848164e-06
1.8426438e-07
-1.6603533e-06
1.6774746e-07
-1.729848e-06
1.5425606e-07
-1.7937223e-06
1.41884e-07
-1.8529634e-06
1.3155195e-07
-1.9079049e-06
1.2207671e-07
-1.9591692e-06
1.138884e-07
-2.0069338e-06
1.0616566e-07
-2.0515051e-06
9.9058933e-08
-2.0930962e-06
9.2441612e-08
-2.1319939e-06
8.6485451e-08
-2.1683104e-06
8.0835447e-08
-2.2022962e-06
7.5659508e-08
-2.2340557e-06
7.0739965e-08
-2.2637143e-06
6.6085686e-08
-2.2913375e-06
6.1589011e-08
-2.3170054e-06
5.7259871e-08
-2.3407681e-06
5.3049639e-08
-2.3626848e-06
4.8963603e-08
-2.3828018e-06
4.4982471e-08
-2.4011343e-06
4.1024661e-08
-2.4176868e-06
3.7086645e-08
-2.4323733e-06
3.3075482e-08
-2.4457819e-06
3.0245416e-08
-2.4581954e-06
2.7920109e-08
-2.4691757e-06
2.4746215e-08
-2.4785899e-06
2.1267231e-08
-2.4865091e-06
1.7886136e-08
-2.4929986e-06
1.4752733e-08
-2.4981071e-06
1.1778543e-08
-2.502125e-06
9.3440421e-09
-2.5052693e-06
7.4024021e-09
-2.5078393e-06
6.1258093e-09
-2.5101895e-06
5.6360619e-09
-2.5127271e-06
6.0327919e-09
-2.5153921e-06
6.2393065e-09
-2.5172607e-06
4.3457819e-09
-2.5152806e-06
-4.1049709e-09
-2.5093141e-06
-1.2764563e-08
-2.50154e-06
-1.6759256e-08
-2.4921671e-06
-2.0317481e-08
-2.4815484e-06
-2.3083677e-08
-2.4697784e-06
-2.563788e-08
-2.456932e-06
-2.8027374e-08
-2.4430537e-06
-3.0316662e-08
-2.4281865e-06
-3.2511644e-08
-2.4123652e-06
-3.4628455e-08
-2.3956253e-06
-3.6668022e-08
-2.378e-06
-3.8632577e-08
-2.3595223e-06
-4.0526005e-08
-2.3402253e-06
-4.2344157e-08
-2.3201405e-06
-4.4094177e-08
-2.2993009e-06
-4.5769698e-08
-2.2777375e-06
-4.7378319e-08
-2.2554836e-06
-4.8911746e-08
-2.2325701e-06
-5.0377543e-08
-2.2090294e-06
-5.1770081e-08
-2.1848919e-06
-5.3096672e-08
-2.1601887e-06
-5.4353469e-08
-2.13495e-06
-5.5544344e-08
-2.1092062e-06
-5.6667186e-08
-2.0829872e-06
-5.7723959e-08
-2.0563221e-06
-5.8716642e-08
-2.0292404e-06
-5.96433e-08
-2.0017706e-06
-6.0507192e-08
-1.9739411e-06
-6.1306626e-08
-1.9457776e-06
-6.2050826e-08
-1.9173072e-06
-6.2734491e-08
-1.8885548e-06
-6.3363984e-08
-1.859547e-06
-6.393304e-08
-1.8303074e-06
-6.4451392e-08
-1.8008607e-06
-6.4913645e-08
-1.7712304e-06
-6.5324846e-08
-1.74144e-06
-6.5682871e-08
-1.7115124e-06
-6.5990156e-08
-1.6814693e-06
-6.6250074e-08
-1.6513337e-06
-6.645729e-08
-1.6211257e-06
-6.6621401e-08
-1.5908679e-06
-6.6733913e-08
-1.5605788e-06
-6.6807078e-08
-1.5302796e-06
-6.6831733e-08
-1.4999886e-06
-6.6817598e-08
-1.4697251e-06
-6.6759216e-08
-1.4395068e-06
-6.6662574e-08
-1.4093511e-06
-6.6526557e-08
-1.3792748e-06
-6.6354205e-08
-1.3492933e-06
-6.6146689e-08
-1.319422e-06
-6.5906007e-08
-1.2896759e-06
-6.5631236e-08
-1.2600685e-06
-6.5327471e-08
-1.230614e-06
-6.4991125e-08
-1.2013246e-06
-6.4629851e-08
-6.4237146e-08
-7.6893329e-07
9.3888919e-08
-8.0237566e-07
8.8384959e-08
-8.3295303e-07
8.0769024e-08
-8.5987898e-07
7.0999473e-08
-8.8226684e-07
5.8853014e-08
-8.9989803e-07
4.6081055e-08
-9.1292648e-07
3.3742586e-08
-9.2380908e-07
2.7867853e-08
-9.3468241e-07
2.7803671e-08
-9.4387732e-07
2.3190071e-08
-9.4926462e-07
1.2950786e-08
-9.5044048e-07
1.5126343e-09
-9.4579559e-07
-1.4073231e-08
-9.3585679e-07
-2.8511804e-08
-9.1871459e-07
-4.7978544e-08
-8.9590733e-07
-6.3650683e-08
-8.6525991e-07
-8.4697319e-08
-8.3245536e-07
-9.1062721e-08
-7.9782248e-07
-9.6249919e-08
-7.7651514e-07
-6.2155069e-08
-7.7381094e-07
-1.3670394e-08
-8.3911899e-07
1.6507956e-07
-1.0444046e-06
5.485137e-07
-1.2694472e-06
6.0028582e-07
-1.4542008e-06
4.9167545e-07
-1.6209229e-06
4.4365737e-07
-1.7694086e-06
3.9587912e-07
-1.9040509e-06
3.5884816e-07
-2.0252038e-06
3.2318556e-07
-2.1357603e-06
2.9482081e-07
-2.2362761e-06
2.682633e-07
-2.328741e-06
2.4672095e-07
-2.4137028e-06
2.2684577e-07
-2.4924906e-06
2.1033977e-07
-2.565539e-06
1.951251e-07
-2.6336867e-06
1.8203614e-07
-2.6971654e-06
1.6964433e-07
-2.7563933e-06
1.5828684e-07
-2.8116695e-06
1.4771778e-07
-2.8633345e-06
1.3815044e-07
-2.9115139e-06
1.290149e-07
-2.9565836e-06
1.2072917e-07
-2.9986784e-06
1.1283475e-07
-3.0379655e-06
1.0537284e-07
-3.0745312e-06
9.8154739e-08
-3.1084832e-06
9.121187e-08
-3.1398878e-06
8.4454239e-08
-3.1688252e-06
7.7900931e-08
-3.1953573e-06
7.1514654e-08
-3.2195102e-06
6.5177509e-08
-3.2412789e-06
5.885539e-08
-3.2604674e-06
5.2263936e-08
-3.2779522e-06
4.7730249e-08
-3.2941981e-06
4.4165966e-08
-3.3085405e-06
3.9088604e-08
-3.3208052e-06
3.3531951e-08
-3.3311289e-06
2.8209863e-08
-3.3395193e-06
2.31431e-08
-3.3460022e-06
1.826148e-08
-3.3510372e-06
1.4378993e-08
-3.3549104e-06
1.127566e-08
-3.3580187e-06
9.234038e-09
-3.3608365e-06
8.4539196e-09
-3.3639164e-06
9.1126978e-09
-3.3672257e-06
9.548573e-09
-3.3695632e-06
6.6832809e-09
-3.3667099e-06
-6.9582683e-09
-3.3584155e-06
-2.1058916e-08
-3.3476986e-06
-2.7476163e-08
-3.3348643e-06
-3.3151774e-08
-3.3203719e-06
-3.75761e-08
-3.3043473e-06
-4.1662533e-08
-3.2868897e-06
-4.548499e-08
-3.268058e-06
-4.9148274e-08
-3.2479099e-06
-5.2659816e-08
-3.2264915e-06
-5.6046865e-08
-3.2038504e-06
-5.9309103e-08
-3.1800308e-06
-6.2452124e-08
-3.155077e-06
-6.5479849e-08
-3.1290328e-06
-6.8388371e-08
-3.1019407e-06
-7.1186273e-08
-3.0738444e-06
-7.3865962e-08
-3.0447858e-06
-7.6436915e-08
-3.0148087e-06
-7.8888819e-08
-2.9839548e-06
-8.1231459e-08
-2.952267e-06
-8.3457896e-08
-2.919786e-06
-8.5577683e-08
-2.8865533e-06
-8.7586178e-08
-2.8526092e-06
-8.9488463e-08
-2.8179942e-06
-9.1282185e-08
-2.782748e-06
-9.2970094e-08
-2.7469098e-06
-9.4554927e-08
-2.7105187e-06
-9.6034363e-08
-2.6736126e-06
-9.7413327e-08
-2.6362291e-06
-9.869007e-08
-2.598403e-06
-9.9876898e-08
-2.5601703e-06
-1.0096725e-07
-2.5215643e-06
-1.0196994e-07
-2.48262e-06
-1.0287734e-07
-2.4433693e-06
-1.0370208e-07
-2.4038451e-06
-1.0443788e-07
-2.3640786e-06
-1.0509133e-07
-2.3241011e-06
-1.056604e-07
-2.2839431e-06
-1.0614819e-07
-2.2436334e-06
-1.0655969e-07
-2.2032028e-06
-1.0688793e-07
-2.1626782e-06
-1.0714599e-07
-2.1220891e-06
-1.0732298e-07
-2.081461e-06
-1.0743521e-07
-2.0408216e-06
-1.0747113e-07
-2.0001956e-06
-1.0744359e-07
-1.9596086e-06
-1.0734626e-07
-1.9190843e-06
-1.0718688e-07
-1.8786457e-06
-1.0696512e-07
-1.8383153e-06
-1.0668459e-07
-1.7981137e-06
-1.0634828e-07
-1.7580615e-06
-1.0595821e-07
-1.7181784e-06
-1.0551431e-07
-1.678483e-06
-1.0502296e-07
-1.6389937e-06
-1.0448043e-07
-1.5997272e-06
-1.0389629e-07
-1.0326291e-07
-9.8388786e-07
1.3913288e-07
-1.0265448e-06
1.3104194e-07
-1.0655727e-06
1.1979688e-07
-1.0999916e-06
1.0541841e-07
-1.1286947e-06
8.7556055e-08
-1.151405e-06
6.8791412e-08
-1.1683339e-06
5.067143e-08
-1.1825997e-06
4.2133743e-08
-1.1968871e-06
4.2091037e-08
-1.2090981e-06
3.5401011e-08
-1.2165509e-06
2.0403652e-08
-1.2187381e-06
3.6997831e-09
-1.2136259e-06
-1.918538e-08
-1.2019121e-06
-4.0225582e-08
-1.181259e-06
-6.8631718e-08
-1.1536057e-06
-9.130391e-08
-1.1162096e-06
-1.220935e-07
-1.0762016e-06
-1.3107065e-07
-1.0342287e-06
-1.3822284e-07
-1.0094519e-06
-8.6931841e-08
-1.0090919e-06
-1.4030389e-08
-1.0952537e-06
2.5124134e-07
-1.3548671e-06
8.0812706e-07
-1.6393515e-06
8.8477024e-07
-1.8736736e-06
7.259976e-07
-2.084921e-06
6.5490469e-07
-2.2729089e-06
5.8386704e-07
-2.4432849e-06
5.292242e-07
-2.5965731e-06
4.7647373e-07
-2.7364121e-06
4.3465982e-07
-2.863523e-06
3.9537424e-07
-2.9804236e-06
3.636215e-07
-3.0878165e-06
3.3423867e-07
-3.1873813e-06
3.0990456e-07
-3.2796725e-06
2.8741634e-07
-3.3657507e-06
2.6811434e-07
-3.4459147e-06
2.498083e-07
-3.5206995e-06
2.330716e-07
-3.5905104e-06
2.1752869e-07
-3.6557155e-06
2.0335561e-07
-3.7164459e-06
1.8974524e-07
-3.7732307e-06
1.7751396e-07
-3.8262379e-06
1.6584202e-07
-3.875678e-06
1.5481286e-07
-3.92166e-06
1.4413676e-07
-3.9643207e-06
1.3387262e-07
-4.0037444e-06
1.2387793e-07
-4.0400334e-06
1.1418991e-07
-4.0732675e-06
1.0474874e-07
-4.1034854e-06
9.5395446e-08
-4.1306664e-06
8.6036372e-08
-4.1544512e-06
7.6048752e-08
-4.1760782e-06
6.935721e-08
-4.1962559e-06
6.4343662e-08
-4.2140348e-06
5.6867551e-08
-4.2291989e-06
4.8695995e-08
-4.2419752e-06
4.0986151e-08
-4.2522628e-06
3.3430738e-08
-4.2600428e-06
2.6041512e-08
-4.2659946e-06
2.0330808e-08
-4.2704773e-06
1.5758277e-08
-4.2739904e-06
1.2747183e-08
-4.2771386e-06
1.1602167e-08
-4.2806339e-06
1.2607932e-08
-4.2845001e-06
1.3414803e-08
-4.287264e-06
9.44722e-09
-4.2833709e-06
-1.0851457e-08
-4.2724082e-06
-3.2021558e-08
-4.2583599e-06
-4.1524511e-08
-4.2416486e-06
-4.9863022e-08
-4.2228402e-06
-5.6384485e-08
-4.2020943e-06
-6.2408462e-08
-4.1795353e-06
-6.8043975e-08
-4.155238e-06
-7.3445613e-08
-4.1292749e-06
-7.86229e-08
-4.1017048e-06
-8.3616933e-08
-4.0725882e-06
-8.8425737e-08
-4.041981e-06
-9.3059337e-08
-4.0099395e-06
-9.7521366e-08
-3.9765191e-06
-1.018087e-07
-3.9417742e-06
-1.0593123e-07
-3.9057598e-06
-1.0988032e-07
-3.8685295e-06
-1.1366727e-07
-3.8301384e-06
-1.1727988e-07
-3.7906397e-06
-1.2073022e-07
-3.7500874e-06
-1.2401012e-07
-3.7085336e-06
-1.2713155e-07
-3.6660305e-06
-1.3008921e-07
-3.6226295e-06
-1.3288952e-07
-3.5783817e-06
-1.3552992e-07
-3.5333377e-06
-1.3801415e-07
-3.4875468e-06
-1.4034583e-07
-3.4410588e-06
-1.4252236e-07
-3.3939215e-06
-1.4455062e-07
-3.3461825e-06
-1.4642901e-07
-3.2978862e-06
-1.481732e-07
-3.2490778e-06
-1.4977565e-07
-3.1998001e-06
-1.5124771e-07
-3.1500968e-06
-1.5258064e-07
-3.1000087e-06
-1.5379017e-07
-3.0495772e-06
-1.5486936e-07
-2.9988421e-06
-1.5582639e-07
-2.9478428e-06
-1.5665969e-07
-2.8966181e-06
-1.5737298e-07
-2.8452045e-06
-1.5797326e-07
-2.7936406e-06
-1.5845182e-07
-2.741961e-06
-1.588256e-07
-2.6902027e-06
-1.5908131e-07
-2.6383981e-06
-1.5923975e-07
-2.5865824e-06
-1.5928691e-07
-2.5347868e-06
-1.592391e-07
-2.4830437e-06
-1.5908936e-07
-2.4313833e-06
-1.5884731e-07
-2.3798346e-06
-1.585138e-07
-2.3284262e-06
-1.5809302e-07
-2.2771841e-06
-1.5759038e-07
-2.2261346e-06
-1.5700777e-07
-2.1753024e-06
-1.5634647e-07
-2.1247113e-06
-1.5561403e-07
-2.0743847e-06
-1.5480706e-07
-2.024344e-06
-1.5393698e-07
-1.5299527e-07
-1.2173849e-06
1.9490169e-07
-1.2699909e-06
1.836479e-07
-1.318159e-06
1.6796499e-07
-1.3607039e-06
1.4796333e-07
-1.3962868e-06
1.2313893e-07
-1.4245835e-06
9.7088164e-08
-1.4458557e-06
7.1943619e-08
-1.4639373e-06
6.0215344e-08
-1.4821041e-06
6.0257771e-08
-1.4977809e-06
5.1077895e-08
-1.5077201e-06
3.0342805e-08
-1.5112973e-06
7.2769937e-09
-1.5060394e-06
-2.4443274e-08
-1.4928239e-06
-5.3441066e-08
-1.4689166e-06
-9.2539035e-08
-1.43665e-06
-1.235705e-07
-1.3927223e-06
-1.6602125e-07
-1.3457202e-06
-1.7807271e-07
-1.2968023e-06
-1.8714072e-07
-1.2692909e-06
-1.1444322e-07
-1.2728164e-06
-1.0504966e-08
-1.3825702e-06
3.6099514e-07
-1.6999489e-06
1.1255057e-06
-2.0474938e-06
1.2323152e-06
-2.3347814e-06
1.0132852e-06
-2.5934774e-06
9.1360073e-07
-2.8235263e-06
8.1391592e-07
-3.0318882e-06
7.3758609e-07
-3.219348e-06
6.6393346e-07
-3.3902915e-06
6.0560332e-07
-3.5456515e-06
5.5073429e-07
-3.6884848e-06
5.064548e-07
-3.8196806e-06
4.6543447e-07
-3.941276e-06
4.315e-07
-4.0539665e-06
4.0010679e-07
-4.1590394e-06
3.7318727e-07
-4.2568753e-06
3.4764413e-07
-4.3481316e-06
3.2432797e-07
-4.4333372e-06
3.0273422e-07
-4.5128595e-06
2.8287793e-07
-4.5868308e-06
2.6371651e-07
-4.6559617e-06
2.4664489e-07
-4.720456e-06
2.3033634e-07
-4.7805681e-06
2.14925e-07
-4.836433e-06
2.0000165e-07
-4.8882176e-06
1.8565724e-07
-4.936026e-06
1.716863e-07
-4.979984e-06
1.5814788e-07
-5.020191e-06
1.4495573e-07
-5.0567013e-06
1.3190575e-07
-5.0894711e-06
1.1880619e-07
-5.1179219e-06
1.044995e-07
-5.1437305e-06
9.516589e-08
-5.1679164e-06
8.8529479e-08
-5.189184e-06
7.8135226e-08
-5.2072772e-06
6.6789121e-08
-5.2225281e-06
5.6237121e-08
-5.2346764e-06
4.5578963e-08
-5.2436453e-06
3.5010469e-08
-5.2503821e-06
2.7067568e-08
-5.2553215e-06
2.0697654e-08
-5.2590718e-06
1.6497575e-08
-5.2623777e-06
1.4908038e-08
-5.266126e-06
1.6356212e-08
-5.2704323e-06
1.7721153e-08
-5.2735799e-06
1.2594733e-08
-5.2684716e-06
-1.5959737e-08
-5.254458e-06
-4.603513e-08
-5.2366466e-06
-5.9335929e-08
-5.2156003e-06
-7.0909351e-08
-5.1919906e-06
-7.9994132e-08
-5.1660132e-06
-8.8385882e-08
-5.1378187e-06
-9.6238507e-08
-5.1074985e-06
-1.0376574e-07
-5.0751414e-06
-1.1098001e-07
-5.0408195e-06
-1.1793885e-07
-5.0046068e-06
-1.2463841e-07
-4.9665721e-06
-1.3109406e-07
-4.9267844e-06
-1.3730903e-07
-4.8853118e-06
-1.4328138e-07
-4.8422208e-06
-1.4902223e-07
-4.797579e-06
-1.5452209e-07
-4.7514522e-06
-1.597941e-07
-4.7039078e-06
-1.6482423e-07
-4.6550111e-06
-1.6962689e-07
-4.6048284e-06
-1.7419288e-07
-4.5534233e-06
-1.7853669e-07
-4.5008599e-06
-1.8265254e-07
-4.4472012e-06
-1.8654826e-07
-4.3925098e-06
-1.9022126e-07
-4.3368476e-06
-1.9367644e-07
-4.280275e-06
-1.9691839e-07
-4.222853e-06
-1.9994437e-07
-4.1646401e-06
-2.0276348e-07
-4.1056946e-06
-2.0537457e-07
-4.0460708e-06
-2.07797e-07
-3.985824e-06
-2.100224e-07
-3.9250068e-06
-2.1206488e-07
-3.8636725e-06
-2.1391495e-07
-3.8018714e-06
-2.1559131e-07
-3.7396538e-06
-2.1708694e-07
-3.6770687e-06
-2.1841149e-07
-3.6141641e-06
-2.195643e-07
-3.5509875e-06
-2.2054961e-07
-3.4875838e-06
-2.2137689e-07
-3.4240001e-06
-2.2203553e-07
-3.3602789e-06
-2.2254684e-07
-3.2964651e-06
-2.2289505e-07
-3.2325991e-06
-2.2310581e-07
-3.1687232e-06
-2.2316282e-07
-3.1048763e-06
-2.23086e-07
-3.0410975e-06
-2.228681e-07
-2.9774242e-06
-2.2252064e-07
-2.9138917e-06
-2.220463e-07
-2.850535e-06
-2.2144968e-07
-2.7873862e-06
-2.2073924e-07
-2.7244773e-06
-2.1991668e-07
-2.6618388e-06
-2.1898498e-07
-2.5994998e-06
-2.1795301e-07
-2.5374888e-06
-2.1681802e-07
-2.4758326e-06
-2.1559317e-07
-2.1426955e-07
-1.4706904e-06
2.6200868e-07
-1.5340258e-06
2.4698334e-07
-1.5920647e-06
2.2600382e-07
-1.6434061e-06
1.9930472e-07
-1.6864844e-06
1.6621723e-07
-1.720909e-06
1.3151282e-07
-1.7470166e-06
9.8051232e-08
-1.7693941e-06
8.25928e-08
-1.791948e-06
8.2811708e-08
-1.8116017e-06
7.0731546e-08
-1.8245083e-06
4.3249465e-08
-1.8299175e-06
1.2686182e-08
-1.8249061e-06
-2.9454758e-08
-1.8105381e-06
-6.780901e-08
-1.7837233e-06
-1.1935386e-07
-1.7471775e-06
-1.6011628e-07
-1.6970479e-06
-2.1615087e-07
-1.6433846e-06
-2.3173602e-07
-1.5880694e-06
-2.4245593e-07
-1.5587377e-06
-1.4377491e-07
-1.5679315e-06
-1.3111999e-09
-1.7042487e-06
4.9731236e-07
-2.0829037e-06
1.5041608e-06
-2.4971968e-06
1.6466083e-06
-2.8409573e-06
1.3570457e-06
-3.1501053e-06
1.2227487e-06
-3.4248404e-06
1.088651e-06
-3.6734911e-06
9.8623679e-07
-3.8972036e-06
8.8764599e-07
-4.1011093e-06
8.0950904e-07
-4.2864039e-06
7.3602886e-07
-4.4566923e-06
6.7674318e-07
-4.6130845e-06
6.2182671e-07
-4.7579817e-06
5.7639718e-07
-4.8922423e-06
5.3436741e-07
-5.0173857e-06
4.9833068e-07
-5.1338899e-06
4.6414827e-07
-5.2425423e-06
4.3298041e-07
-5.3440017e-06
4.0419361e-07
-5.4386105e-06
3.7748673e-07
-5.5265086e-06
3.5161464e-07
-5.6086104e-06
3.2874671e-07
-5.6851577e-06
3.0688358e-07
-5.7564501e-06
2.8621745e-07
-5.8226512e-06
2.6620276e-07
-5.8839594e-06
2.4696539e-07
-5.9405005e-06
2.2822743e-07
-5.9924252e-06
2.1007259e-07
-6.0398547e-06
1.9238516e-07
-6.0828614e-06
1.7491244e-07
-6.1213728e-06
1.5731765e-07
-6.1545377e-06
1.3766443e-07
-6.1845438e-06
1.2517198e-07
-6.2127857e-06
1.1677137e-07
-6.2375672e-06
1.0291672e-07
-6.2585962e-06
8.7818117e-08
-6.2763024e-06
7.394334e-08
-6.2902246e-06
5.9501083e-08
-6.3002377e-06
4.5023616e-08
-6.3075901e-06
3.4419929e-08
-6.3127946e-06
2.5902165e-08
-6.3165737e-06
2.0276725e-08
-6.3198218e-06
1.815608e-08
-6.3236172e-06
2.0151612e-08
-6.328208e-06
2.2311944e-08
-6.3316912e-06
1.6077991e-08
-6.3251812e-06
-2.2469741e-08
-6.3076864e-06
-6.3529937e-08
-6.2856327e-06
-8.1389605e-08
-6.2597464e-06
-9.679572e-08
-6.2308031e-06
-1.089374e-07
-6.1990366e-06
-1.2015233e-07
-6.1646245e-06
-1.3065063e-07
-6.1276764e-06
-1.407139e-07
-6.0882975e-06
-1.5035884e-07
-6.0465747e-06
-1.5966172e-07
-6.0025963e-06
-1.6861681e-07
-5.9564446e-06
-1.7724573e-07
-5.9082025e-06
-1.855511e-07
-5.8579512e-06
-1.9353266e-07
-5.8057708e-06
-2.0120267e-07
-5.7517419e-06
-2.0855102e-07
-5.6959433e-06
-2.1559269e-07
-5.6384557e-06
-2.2231185e-07
-5.5793572e-06
-2.2872537e-07
-5.5187269e-06
-2.3482314e-07
-5.4566411e-06
-2.4062246e-07
-5.3931766e-06
-2.4611706e-07
-5.3284084e-06
-2.5131648e-07
-5.2624115e-06
-2.5621813e-07
-5.1952597e-06
-2.6082825e-07
-5.1270256e-06
-2.6515257e-07
-5.0577815e-06
-2.6918842e-07
-4.9875979e-06
-2.7294713e-07
-4.9165437e-06
-2.7642872e-07
-4.8446845e-06
-2.7965616e-07
-4.7720861e-06
-2.8262085e-07
-4.6988114e-06
-2.8533957e-07
-4.6249238e-06
-2.8780254e-07
-4.5504838e-06
-2.9003134e-07
-4.4755512e-06
-2.9201953e-07
-4.4001847e-06
-2.9377799e-07
-4.3244416e-06
-2.9530738e-07
-4.2483786e-06
-2.9661264e-07
-4.1720495e-06
-2.9770594e-07
-4.0955103e-06
-2.9857475e-07
-4.0188121e-06
-2.9924507e-07
-3.9420083e-06
-2.9969885e-07
-3.8651472e-06
-2.9996685e-07
-3.7882795e-06
-3.0003058e-07
-3.7114516e-06
-2.9991391e-07
-3.6347102e-06
-2.9960944e-07
-3.5580999e-06
-2.9913095e-07
-3.4816631e-06
-2.9848312e-07
-3.4054416e-06
-2.9767123e-07
-3.3294735e-06
-2.9670727e-07
-3.2537975e-06
-2.9559269e-07
-3.1784498e-06
-2.9433269e-07
-3.1034656e-06
-2.9293726e-07
-3.0288786e-06
-2.9140494e-07
-2.9547213e-06
-2.8975049e-07
-2.879649e-07
-1.74515e-06
3.4132048e-07
-1.8200336e-06
3.2186695e-07
-1.8887166e-06
2.9468681e-07
-1.9495755e-06
2.6016357e-07
-2.0007982e-06
2.1743994e-07
-2.0419451e-06
1.7265972e-07
-2.0734226e-06
1.295288e-07
-2.1006336e-06
1.0980378e-07
-2.1281489e-06
1.1032695e-07
-2.1523441e-06
9.4926751e-08
-2.1687693e-06
5.9674713e-08
-2.1765282e-06
2.0445019e-08
-2.1722304e-06
-3.3752513e-08
-2.1571483e-06
-8.2891075e-08
-2.1278695e-06
-1.4863269e-07
-2.0874967e-06
-2.0048905e-07
-2.0316301e-06
-2.7201749e-07
-1.9717786e-06
-2.9158757e-07
-1.9107891e-06
-3.0344537e-07
-1.8807519e-06
-1.7381213e-07
-1.8976583e-06
1.5595197e-08
-2.0637431e-06
6.6339721e-07