/*--------------------------------*- C++ -*----------------------------------*\
| =========                 |                                                 |
| \\      /  F ield         | OpenFOAM: The Open Source CFD Toolbox           |
|  \\    /   O peration     | Version:  2.4.0                                 |
|   \\  /    A nd           | Web:      www.OpenFOAM.org                      |
|    \\/     M anipulation  |                                                 |
\*---------------------------------------------------------------------------*/
FoamFile
{
    version     2.0;
    format      ascii;
    class       volVectorField;
    location    "360";
    object      U;
}
// * * * * * * * * * * * * * * * * * * * * * * * * * * * * * * * * * * * * * //

dimensions      [0 1 -1 0 0 0 0];

internalField   nonuniform List<vector> 
19698
(
(-0.00086575794 0.00063773573 -3.1029959e-24)
(-0.00089912545 0.00064955998 -2.6783872e-22)
(-0.00092957407 0.00065607046 -8.5590624e-22)
(-0.00095579543 0.00065609477 -1.5142169e-21)
(-0.00097756166 0.00064950274 3.2675095e-21)
(-0.00099315165 0.00063517902 4.4636964e-21)
(-0.0010041664 0.0006143361 -1.8328497e-21)
(-0.0010094875 0.00058643843 -5.7094445e-21)
(-0.0010163038 0.0005562797 6.1012044e-21)
(-0.0010221035 0.00052407519 -5.2286752e-21)
(-0.0010257671 0.00048981516 -1.2040556e-20)
(-0.0010231608 0.00045186589 1.6387262e-21)
(-0.00101805 0.00041247437 -2.3456858e-21)
(-0.0010024523 0.00036893269 -9.1203417e-21)
(-0.00098620617 0.00032579258 -2.9491923e-21)
(-0.00095365824 0.00027849962 2.5469345e-21)
(-0.00092538133 0.00023431393 1.840783e-21)
(-0.00087394931 0.00018682725 3.7258634e-21)
(-0.00084230194 0.00014648688 5.084123e-23)
(-0.0007833356 0.00010457218 -1.8795896e-21)
(-0.00078248785 7.2571984e-05 6.3588268e-23)
(-0.0007565381 3.9059473e-05 -4.6139419e-23)
(-0.00091239661 1.0927948e-05 -1.4708068e-22)
(-0.0012187005 3.7230284e-07 5.5856255e-26)
(-0.0014247735 3.6494505e-07 -6.4804886e-26)
(-0.0016318253 3.3095265e-07 -3.046873e-25)
(-0.0018002719 3.4940782e-07 3.3810194e-25)
(-0.0019658862 3.3622945e-07 -3.419582e-25)
(-0.0021049079 3.5270018e-07 2.202533e-25)
(-0.0022392967 3.4572958e-07 -2.7230423e-25)
(-0.0023553626 3.5733132e-07 1.7823009e-25)
(-0.0024666584 3.5549374e-07 3.2326119e-25)
(-0.0025651453 3.6499804e-07 -4.0185988e-25)
(-0.002659222 3.6593525e-07 -1.4031039e-18)
(-0.0027441533 3.7382077e-07 -1.1728481e-18)
(-0.0028251158 3.7615616e-07 4.1750024e-25)
(-0.0028992438 3.8267778e-07 -1.7880808e-25)
(-0.0029695788 3.8562182e-07 -5.9656058e-26)
(-0.0030342064 3.9180751e-07 -3.7049651e-26)
(-0.0030954396 3.899668e-07 4.3505498e-26)
(-0.0031522029 3.8904991e-07 -9.470554e-26)
(-0.0032058559 3.903928e-07 3.3664356e-25)
(-0.0032557516 3.9197735e-07 -1.8047435e-25)
(-0.0033027118 3.916188e-07 -4.6173002e-25)
(-0.0033463845 3.9141869e-07 5.000367e-25)
(-0.0033872663 3.8958885e-07 -7.1939305e-26)
(-0.0034251431 3.8787649e-07 5.9029108e-25)
(-0.0034603458 3.8475331e-07 -8.1057082e-25)
(-0.0034927397 3.8121564e-07 -6.3592889e-25)
(-0.0035225678 3.7583965e-07 9.7443098e-25)
(-0.0035495977 3.6856688e-07 -8.2094736e-25)
(-0.0035742348 3.5978555e-07 6.5498979e-25)
(-0.0035961227 3.6067364e-07 -3.7125354e-25)
(-0.0036169369 3.6260697e-07 -7.8301407e-26)
(-0.0036354497 3.573301e-07 2.7372965e-26)
(-0.003651858 3.5253684e-07 5.5121804e-25)
(-0.0036656169 3.5024613e-07 -4.6988956e-26)
(-0.0036773469 3.3836139e-07 8.1792107e-25)
(-0.003686973 3.2427445e-07 -4.4681603e-27)
(-0.0036948553 3.1687615e-07 -1.6105402e-24)
(-0.0037012418 3.0957422e-07 7.6441882e-25)
(-0.0037064382 3.0286556e-07 -7.3294035e-26)
(-0.0037110961 2.9730783e-07 1.0897984e-24)
(-0.0037155947 2.9265225e-07 -2.7658103e-26)
(-0.0037207215 2.8577806e-07 -2.1322675e-24)
(-0.0037251872 2.7021712e-07 -1.4680968e-25)
(-0.0037274057 2.5069113e-07 7.4147652e-26)
(-0.003720708 2.3516455e-07 1.0946766e-24)
(-0.0037117422 2.207539e-07 -1.0922133e-25)
(-0.003699778 2.0761363e-07 -1.3791738e-24)
(-0.0036859326 1.9502516e-07 2.548697e-24)
(-0.0036702289 1.8264532e-07 -2.9155673e-24)
(-0.0036529107 1.7016728e-07 2.7458823e-24)
(-0.0036339731 1.5760662e-07 -5.2791094e-25)
(-0.0036135456 1.4494271e-07 3.2239752e-25)
(-0.0035916352 1.3229753e-07 -1.3638961e-24)
(-0.0035683327 1.1950805e-07 7.7292455e-25)
(-0.0035436581 1.0674497e-07 2.0843071e-25)
(-0.0035176851 9.3689618e-08 -1.502426e-25)
(-0.0034904433 8.1033703e-08 -1.4720549e-25)
(-0.0034619974 6.8104672e-08 3.1232337e-17)
(-0.0034323819 5.5565541e-08 3.2137908e-17)
(-0.0034016546 4.2705686e-08 1.8822197e-24)
(-0.0033698543 3.023699e-08 -1.5294152e-25)
(-0.0033370382 1.759896e-08 -1.7631576e-25)
(-0.0033032479 5.3306373e-09 -1.2793614e-25)
(-0.0032685364 -7.0603989e-09 -1.0604008e-26)
(-0.0032329439 -1.9065121e-08 -4.3207821e-25)
(-0.0031965196 -3.1032585e-08 -1.9800521e-25)
(-0.0031593056 -4.2896696e-08 6.8946318e-25)
(-0.0031213501 -5.4400933e-08 3.7601091e-26)
(-0.0030826943 -6.6024869e-08 3.7733051e-25)
(-0.0030433835 -7.7192408e-08 -6.2497262e-25)
(-0.0030034616 -8.8456303e-08 8.742365e-26)
(-0.0029629736 -9.9053502e-08 2.0257913e-26)
(-0.0029219592 -1.1000583e-07 3.9624183e-26)
(-0.0028804548 -1.2026117e-07 3.8428516e-27)
(-0.0028384993 -1.3082037e-07 2.5401803e-25)
(-0.0027961308 -1.4051219e-07 -1.1247842e-25)
(-0.0027533884 -1.5063325e-07 -6.071514e-25)
(-0.0027103061 -1.5985419e-07 1.1667176e-24)
(-0.002666921 -1.6934095e-07 -1.6888401e-24)
(-0.0026232693 -1.7812578e-07 2.8731495e-26)
(-0.0025793862 -1.8677595e-07 9.0047471e-25)
(-0.002535306 -1.9518426e-07 -2.5560357e-25)
(-0.0024910619 -2.0315173e-07 6.1189101e-25)
(-0.0024466885 -2.1116158e-07 -2.580426e-25)
(-0.0024022165 -2.1856665e-07 -1.6499593e-26)
(-0.0023576781 -2.260502e-07 -2.927302e-25)
(-0.002313101 -2.3294145e-07 -3.0086352e-25)
(-0.0022685148 -2.3998496e-07 -2.8528648e-25)
(-0.0022239483 -2.465173e-07 1.0841678e-24)
(-0.002179427 -2.528896e-07 7.0599685e-25)
(-0.0021349819 -2.5899899e-07 1.1597433e-24)
(-0.0020906318 -2.6487393e-07 -4.5942231e-25)
(-0.0020464103 -2.7038759e-07 -1.3008224e-24)
(-0.0020023279 -2.7581401e-07 -3.1514601e-24)
(-0.001958423 -2.8085186e-07 6.2158521e-17)
(-0.0019146988 -2.85948e-07 2.9773672e-20)
(-0.001871196 -2.9047723e-07 -6.3589951e-17)
(-0.0018279109 -2.9519891e-07 -4.8473199e-24)
(-0.0017848851 -2.9921865e-07 7.0772037e-25)
(-0.002617561 0.0019309643 6.4079376e-25)
(-0.0027178768 0.0019665567 -1.5060178e-21)
(-0.0028095998 0.001986037 -5.4570993e-22)
(-0.0028886745 0.0019860046 -6.0899203e-22)
(-0.0029545493 0.0019660202 1.7023446e-21)
(-0.0030021427 0.0019227975 -1.1399771e-20)
(-0.0030361973 0.0018599136 4.0772397e-21)
(-0.003053453 0.0017758867 -3.3149055e-21)
(-0.0030752866 0.0016849825 -3.7116123e-22)
(-0.0030942347 0.0015878641 -3.3942822e-21)
(-0.0031068799 0.0014844443 2.4133038e-21)
(-0.0031010814 0.001369967 -1.2971309e-20)
(-0.0030878164 0.0012509867 -9.152668e-22)
(-0.0030435948 0.0011196103 2.9472062e-21)
(-0.0029975269 0.00098920524 -7.9588463e-22)
(-0.0029036618 0.00084652303 7.8046543e-21)
(-0.0028224144 0.00071280326 -7.0651773e-21)
(-0.0026731494 0.00056944368 4.9235596e-21)
(-0.0025823277 0.0004470462 -1.0978306e-21)
(-0.0024126497 0.00032051989 6.2590278e-23)
(-0.002415559 0.00022321596 2.3202014e-23)
(-0.0023498534 0.00012268948 -1.000172e-21)
(-0.0028212286 3.9271141e-05 2.2423941e-22)
(-0.003732568 7.1025195e-06 -4.9563884e-25)
(-0.0043504509 5.8935569e-06 -8.5540243e-27)
(-0.0049695321 5.2612946e-06 -1.6927431e-25)
(-0.0054739883 4.7689284e-06 5.65452e-25)
(-0.0059684034 4.2943658e-06 -3.4807528e-25)
(-0.0063841812 3.9120053e-06 1.2035611e-25)
(-0.0067853152 3.5528043e-06 1.1483624e-25)
(-0.0071321719 3.2641103e-06 1.0093362e-25)
(-0.0074642608 2.995439e-06 -3.8923091e-25)
(-0.0077583862 2.7766015e-06 1.4740759e-25)
(-0.0080390105 2.5737045e-06 6.6708047e-26)
(-0.0082924929 2.4047245e-06 3.3847664e-26)
(-0.0085339024 2.2463237e-06 -3.3406599e-25)
(-0.0087549933 2.1075295e-06 1.6928679e-25)
(-0.0089646038 1.9718012e-06 -3.3368264e-26)
(-0.0091572989 1.8470223e-06 6.7701239e-27)
(-0.0093398106 1.7309899e-06 1.2611731e-25)
(-0.0095088097 1.6299866e-06 1.1566964e-26)
(-0.0096683796 1.5329346e-06 -3.9501025e-26)
(-0.0098167545 1.4424894e-06 -9.5550349e-26)
(-0.009956299 1.3549347e-06 -1.5621759e-25)
(-0.010086007 1.2712609e-06 -2.2126609e-25)
(-0.010207325 1.1893928e-06 -2.9048792e-25)
(-0.010319641 1.1101753e-06 6.6915783e-25)
(-0.010423922 1.032451e-06 1.4512135e-25)
(-0.010519793 9.5665463e-07 1.1904466e-24)
(-0.010607973 8.800602e-07 -1.8957381e-24)
(-0.010687831 8.040922e-07 1.389358e-24)
(-0.010760334 7.3695023e-07 -3.6995678e-25)
(-0.010824262 6.866949e-07 -1.4513394e-24)
(-0.010885311 6.3590937e-07 -6.26692e-25)
(-0.010939618 5.7480829e-07 6.0156136e-25)
(-0.010987549 5.078627e-07 3.8287352e-25)
(-0.011027681 4.3623939e-07 1.1595611e-24)
(-0.011061861 3.7396261e-07 9.4730098e-25)
(-0.01108946 3.2127794e-07 -2.8208669e-24)
(-0.011111773 2.7399234e-07 9.4711558e-25)
(-0.011129678 2.356387e-07 6.1405538e-25)
(-0.011144044 2.1002384e-07 1.6535814e-24)
(-0.011156798 1.9932368e-07 -3.5712368e-24)
(-0.011169112 2.048823e-07 1.733765e-24)
(-0.011183391 2.0359213e-07 7.9057934e-25)
(-0.011196038 1.60361e-07 1.4604521e-24)
(-0.011202209 2.3208455e-09 -3.7428545e-24)
(-0.011181054 -1.5859951e-07 8.3983957e-25)
(-0.01115291 -2.3803686e-07 2.4189516e-25)
(-0.011115861 -3.0856422e-07 3.0862863e-24)
(-0.011073178 -3.6383223e-07 -2.6381218e-24)
(-0.011024949 -4.1483889e-07 1.0695067e-24)
(-0.010971893 -4.6317141e-07 -9.9887973e-27)
(-0.010914002 -5.0934624e-07 -3.4165945e-24)
(-0.010851657 -5.5394371e-07 6.5237923e-25)
(-0.010784885 -5.9708156e-07 7.6450974e-25)
(-0.010713953 -6.3886809e-07 4.8007807e-25)
(-0.010638926 -6.7919721e-07 1.3007273e-24)
(-0.010560022 -7.1823263e-07 1.2032447e-25)
(-0.010477331 -7.5587945e-07 -7.2181909e-25)
(-0.010391045 -7.9236936e-07 4.1818428e-25)
(-0.010301269 -8.2741212e-07 -6.056846e-25)
(-0.010208176 -8.6131069e-07 2.596871e-25)
(-0.010111886 -8.9382395e-07 -4.0392167e-25)
(-0.010012564 -9.2485855e-07 9.0222625e-25)
(-0.0099103352 -9.5447588e-07 -1.6797003e-24)
(-0.0098053556 -9.8279404e-07 -3.6858641e-25)
(-0.0096977489 -1.0098104e-06 6.6298823e-25)
(-0.0095876629 -1.0356002e-06 1.2633642e-24)
(-0.0094752246 -1.0600823e-06 -1.680434e-25)
(-0.009360576 -1.0833207e-06 -3.6910121e-25)
(-0.0092438432 -1.1051078e-06 -6.9314349e-25)
(-0.0091251617 -1.1257795e-06 6.3931537e-25)
(-0.0090046617 -1.1450285e-06 -1.5557313e-25)
(-0.0088824713 -1.1631482e-06 -1.2527068e-26)
(-0.0087587132 -1.1799717e-06 -7.9386671e-26)
(-0.0086335002 -1.1958952e-06 1.0686037e-26)
(-0.0085069524 -1.2106358e-06 3.7752025e-25)
(-0.0083791807 -1.2242209e-06 -6.8613628e-25)
(-0.0082503015 -1.2365517e-06 -1.1328911e-25)
(-0.0081204202 -1.2480764e-06 -4.7208832e-25)
(-0.007989646 -1.2583086e-06 1.3908966e-24)
(-0.0078580861 -1.2675312e-06 1.1762211e-24)
(-0.0077258424 -1.2755927e-06 -2.1581507e-25)
(-0.0075930197 -1.2826934e-06 -2.9515506e-24)
(-0.0074597133 -1.2886911e-06 -1.7570665e-24)
(-0.0073260274 -1.2937424e-06 2.5768675e-24)
(-0.0071920515 -1.2978637e-06 3.9875838e-24)
(-0.0070578828 -1.3012335e-06 -6.7447065e-24)
(-0.0069236061 -1.3035527e-06 1.6663324e-24)
(-0.0067893109 -1.3050935e-06 -1.507564e-25)
(-0.0066550833 -1.3056454e-06 3.3369905e-24)
(-0.0065209997 -1.3054849e-06 -2.4481658e-24)
(-0.0063871522 -1.3044214e-06 1.2051888e-24)
(-0.0062535966 -1.3026645e-06 1.6925483e-24)
(-0.0061204342 -1.3002401e-06 3.7174e-24)
(-0.0059876963 -1.297077e-06 -9.3179002e-24)
(-0.0058554965 -1.2932169e-06 3.7384797e-24)
(-0.0057238459 -1.2888215e-06 -1.3946929e-25)
(-0.0055928653 -1.28375e-06 -5.6973944e-24)
(-0.005462547 -1.2781073e-06 -2.0499132e-25)
(-0.0053330176 -1.2717976e-06 1.0245067e-23)
(-0.0044190069 0.0032614066 5.1723586e-24)
(-0.0045877014 0.0033209273 2.3948244e-21)
(-0.0047420464 0.0033533326 2.4195888e-21)
(-0.0048752734 0.0033529597 1.3951922e-23)
(-0.0049865092 0.0033190431 -1.3688616e-20)
(-0.005067387 0.0032462135 5.7715465e-21)
(-0.0051257283 0.0031403415 7.9252583e-21)
(-0.0051562844 0.0029991925 7.3183648e-21)
(-0.0051945897 0.0028464284 1.2218735e-21)
(-0.0052283358 0.0026831638 -3.3504106e-21)
(-0.0052516261 0.0025091102 1.2682749e-20)
(-0.0052445857 0.0023166194 3.4183223e-21)
(-0.005225019 0.0021162532 1.5975712e-21)
(-0.0051544403 0.0018952896 1.4477587e-20)
(-0.0050807231 0.0016754994 -8.4849077e-21)
(-0.004928757 0.0014355256 -9.3270928e-21)
(-0.0047973456 0.0012098179 2.5729972e-21)
(-0.0045545319 0.00096846054 -2.8853297e-21)
(-0.0044076905 0.00076118771 2.2456363e-21)
(-0.0041341167 0.00054801788 3.1004531e-21)
(-0.004145909 0.00038265814 2.6276856e-23)
(-0.0040542844 0.00021406324 6.1843782e-23)
(-0.0048502046 7.5720466e-05 -3.2321392e-22)
(-0.0063662175 2.1295823e-05 4.8425045e-25)
(-0.007402991 1.7490881e-05 -2.1747797e-27)
(-0.0084375888 1.5711255e-05 -1.3458763e-25)
(-0.009282548 1.410366e-05 3.7061831e-25)
(-0.010107859 1.273918e-05 -1.6030817e-25)
(-0.010803436 1.1515891e-05 -1.7373634e-25)
(-0.011472992 1.0474111e-05 3.6715982e-25)
(-0.012052829 9.5570854e-06 -1.850482e-25)
(-0.012607014 8.7699276e-06 -1.7192741e-25)
(-0.013098389 8.0793768e-06 -1.4693735e-25)
(-0.013566593 7.4792837e-06 9.4306401e-26)
(-0.013989823 6.9484313e-06 2.3714581e-26)
(-0.014392484 6.4753698e-06 3.1653495e-26)
(-0.014761417 6.0416643e-06 -8.9538509e-26)
(-0.015110914 5.6337199e-06 -2.0383799e-26)
(-0.015432349 5.2580268e-06 2.1825921e-26)
(-0.015736695 4.9139115e-06 -8.8397557e-26)
(-0.016018242 4.5962285e-06 6.3474802e-26)
(-0.016283862 4.3010948e-06 3.9698433e-25)
(-0.016530815 4.0232482e-06 -2.7920765e-25)
(-0.016762909 3.7580799e-06 -1.4680532e-25)
(-0.016978553 3.5035218e-06 7.7110211e-25)
(-0.01718009 3.2568532e-06 -5.8173342e-25)
(-0.017366558 3.0181355e-06 4.0199787e-25)
(-0.017539525 2.7854308e-06 -2.7064828e-25)
(-0.017698413 2.5590108e-06 -1.491087e-25)
(-0.017844403 2.3321984e-06 5.5758184e-25)
(-0.017976525 2.1070388e-06 6.7434575e-25)
(-0.018096128 1.888397e-06 -2.4845902e-24)
(-0.018200818 1.7326706e-06 1.925778e-24)
(-0.018301242 1.5954139e-06 -5.3783139e-25)
(-0.018390544 1.415827e-06 -1.8477471e-24)
(-0.01846912 1.2196289e-06 7.9231072e-25)
(-0.018534785 1.0245077e-06 2.7109447e-24)
(-0.018590719 8.4477849e-07 -4.9824583e-25)
(-0.018635167 6.7907331e-07 -7.7693466e-25)
(-0.018670738 5.4080094e-07 -6.7616154e-25)
(-0.018698987 4.3043889e-07 -7.6238136e-25)
(-0.018721344 3.5801062e-07 1.5794583e-24)
(-0.018740994 3.3017959e-07 -8.0578759e-25)
(-0.018759964 3.5169392e-07 -1.1571556e-24)
(-0.018782309 3.5667737e-07 1.8389736e-24)
(-0.018802464 2.3757968e-07 -9.5451284e-25)
(-0.018812145 -2.324358e-07 -1.0475386e-24)
(-0.018775159 -7.0792927e-07 1.0308903e-24)
(-0.018726154 -9.3468309e-07 1.7847445e-24)
(-0.018662389 -1.1373846e-06 2.2721782e-25)
(-0.01858919 -1.2945841e-06 -1.5119173e-24)
(-0.018506741 -1.4391301e-06 -1.2650534e-24)
(-0.018416215 -1.5744249e-06 4.1592429e-24)
(-0.018317619 -1.7039492e-06 -6.5818333e-24)
(-0.018211577 -1.8283705e-06 5.5896481e-24)
(-0.01809814 -1.9481148e-06 -4.7751967e-24)
(-0.017977752 -2.0636638e-06 1.8848975e-24)
(-0.017850526 -2.1746811e-06 8.9142447e-25)
(-0.017716824 -2.2820585e-06 2.2888797e-25)
(-0.0175768 -2.3849794e-06 -1.6564149e-24)
(-0.017430771 -2.4841252e-06 1.0263188e-24)
(-0.017278917 -2.5788506e-06 -9.7276441e-25)
(-0.017121528 -2.6700144e-06 1.5557794e-24)
(-0.016958803 -2.7567459e-06 6.8865313e-25)
(-0.016791019 -2.8398924e-06 -1.7617991e-24)
(-0.016618383 -2.9185598e-06 -1.0601767e-25)
(-0.016441156 -2.9936372e-06 2.1610124e-25)
(-0.016259547 -3.0646564e-06 -1.0655407e-25)
(-0.016073803 -3.1319973e-06 -1.1077323e-25)
(-0.015884138 -3.1953679e-06 4.3713437e-25)
(-0.015690788 -3.2550799e-06 4.7641888e-25)
(-0.015493966 -3.311313e-06 -1.557251e-25)
(-0.015293898 -3.363638e-06 -4.4864754e-26)
(-0.0150908 -3.4124751e-06 7.94143e-26)
(-0.014884885 -3.4574069e-06 9.2275403e-26)
(-0.014676358 -3.4996446e-06 -6.5611396e-26)
(-0.014465413 -3.5381506e-06 4.9293473e-26)
(-0.01425225 -3.5737361e-06 9.4318505e-26)
(-0.014037055 -3.6056831e-06 -6.9522345e-25)
(-0.013820022 -3.6350561e-06 1.6221032e-24)
(-0.013601328 -3.6609272e-06 1.1711674e-25)
(-0.013381156 -3.6840503e-06 -1.003427e-25)
(-0.013159685 -3.7039141e-06 1.1988452e-25)
(-0.012937082 -3.7209452e-06 -1.0486175e-25)
(-0.012713524 -3.7352684e-06 1.2258997e-25)
(-0.012489169 -3.7464045e-06 -2.0351953e-24)
(-0.01226419 -3.7553906e-06 -1.3193502e-24)
(-0.012038736 -3.7611485e-06 2.5834347e-24)
(-0.01181297 -3.7648962e-06 1.1828723e-25)
(-0.011587036 -3.7657071e-06 1.9114411e-24)
(-0.011361083 -3.7645478e-06 -2.1700257e-24)
(-0.011135255 -3.7607832e-06 4.421632e-25)
(-0.010909681 -3.7548858e-06 -1.977906e-25)
(-0.010684514 -3.7465534e-06 -1.1266541e-24)
(-0.010459848 -3.7363913e-06 -4.2334335e-24)
(-0.010235851 -3.7240909e-06 1.3264288e-23)
(-0.010012577 -3.7101056e-06 -7.581959e-24)
(-0.0097902141 -3.6940017e-06 1.0019816e-24)
(-0.0095687837 -3.6764112e-06 -1.028666e-23)
(-0.009348485 -3.6568446e-06 1.3845102e-23)
(-0.0091293103 -3.6361222e-06 -3.6743124e-24)
(-0.0089114698 -3.6133986e-06 -8.8915824e-24)
(-0.0062712051 0.0046299767 7.5227866e-24)
(-0.0065096779 0.0047135908 8.2146453e-24)
(-0.0067279845 0.0047588167 -1.7266115e-21)
(-0.0069166831 0.0047577944 -4.2598228e-21)
(-0.0070745516 0.0047093802 2.9592295e-21)
(-0.0071900554 0.0046062267 3.4758816e-21)
(-0.0072739881 0.0044564118 -8.1390767e-21)
(-0.00731933 0.0042571727 2.2844785e-20)
(-0.0073756656 0.0040414483 -5.4495629e-21)
(-0.0074260069 0.0038108246 -9.0805952e-21)
(-0.0074617232 0.0035646588 2.4014929e-22)
(-0.0074556145 0.0032926818 -7.2021433e-21)
(-0.0074317569 0.0030091196 5.7023781e-21)
(-0.0073374138 0.0026968257 -9.5193095e-21)
(-0.0072384254 0.002385506 -3.7441674e-21)
(-0.0070321037 0.0020463612 -3.8583573e-21)
(-0.0068536135 0.0017261647 5.6547804e-21)
(-0.0065223239 0.0013846915 -8.5519085e-22)
(-0.006322841 0.0010896315 -9.4643204e-22)
(-0.0059533745 0.00078780523 -2.2970346e-21)
(-0.0059792484 0.00055152972 -1.509785e-22)
(-0.00587747 0.00031394684 3.6153582e-22)
(-0.0070070129 0.00012108981 -1.3807599e-23)
(-0.0091253356 4.3715073e-05 -2.4003654e-25)
(-0.010588403 3.5825673e-05 1.6515275e-25)
(-0.012041246 3.2269264e-05 2.0493962e-25)
(-0.013231074 2.8881393e-05 -1.2959978e-25)
(-0.014388754 2.614346e-05 2.2653753e-25)
(-0.015366985 2.3588632e-05 2.2543497e-25)
(-0.016306167 2.1493168e-05 -1.5925819e-25)
(-0.017120957 1.9585239e-05 -8.8319444e-25)
(-0.017898161 1.7997462e-05 9.0132786e-25)
(-0.018588176 1.6565564e-05 -7.5915988e-25)
(-0.019244675 1.5351874e-05 2.1554142e-25)
(-0.019838631 1.4253797e-05 3.4953259e-25)
(-0.020403078 1.3294071e-05 -2.6333586e-25)
(-0.020920526 1.2398383e-05 7.2886431e-26)
(-0.021410296 1.1567658e-05 -2.4404435e-26)
(-0.021860951 1.0796978e-05 -2.2630217e-26)
(-0.022287543 1.0097376e-05 2.2406195e-26)
(-0.022681746 9.4410192e-06 -1.3019923e-25)
(-0.02305336 8.8377832e-06 -2.3494967e-25)
(-0.02339881 8.2660836e-06 4.3529333e-26)
(-0.023723227 7.7233456e-06 -4.0638923e-25)
(-0.024024523 7.2000815e-06 1.2455424e-25)
(-0.024305875 6.6950185e-06 1.6181697e-24)
(-0.024566027 6.2046164e-06 -3.7754451e-25)
(-0.024807109 5.7278161e-06 -5.2340485e-25)
(-0.025028379 5.2634547e-06 -1.5888079e-24)
(-0.025231451 4.8003353e-06 2.701806e-24)
(-0.025415092 4.3398912e-06 -7.2356464e-25)
(-0.025580861 3.8793449e-06 -8.9078792e-25)
(-0.025724716 3.5547304e-06 6.8601959e-25)
(-0.025863504 3.2808083e-06 -1.0938085e-24)
(-0.025986845 2.9108642e-06 -1.155648e-24)
(-0.026095066 2.5065055e-06 7.6536523e-25)
(-0.026185301 2.1101323e-06 -1.4912347e-24)
(-0.026262304 1.7419992e-06 8.6762907e-25)
(-0.026322326 1.3967111e-06 -1.7210257e-24)
(-0.026369865 1.1132996e-06 4.7332487e-24)
(-0.026407154 8.8671927e-07 -1.5496016e-24)
(-0.026436193 7.377792e-07 -1.7362981e-24)
(-0.026461401 6.8031336e-07 2.7311889e-24)
(-0.026485733 7.2563501e-07 1.0951551e-24)
(-0.02651492 7.4385037e-07 -3.5011416e-24)
(-0.026541835 5.1369969e-07 3.220735e-24)
(-0.026554518 -4.6350423e-07 -2.1345742e-24)
(-0.026500211 -1.4609345e-06 3.3303269e-24)
(-0.026428521 -1.9272449e-06 9.5789186e-26)
(-0.026336303 -2.3430771e-06 -1.8777909e-25)
(-0.026230807 -2.6660974e-06 -5.3845518e-24)
(-0.02611235 -2.9640928e-06 2.8068246e-24)
(-0.025982535 -3.2429324e-06 3.2780907e-24)
(-0.025841399 -3.5099874e-06 -1.625339e-25)
(-0.025689796 -3.7661449e-06 -2.5605537e-25)
(-0.025527816 -4.0129943e-06 -2.811318e-25)
(-0.025356072 -4.2510901e-06 -6.3535425e-24)
(-0.025174731 -4.4804784e-06 3.4698801e-24)
(-0.024984296 -4.7016635e-06 -4.2810829e-25)
(-0.024784991 -4.9137804e-06 -4.5371812e-25)
(-0.024577255 -5.1182107e-06 -3.9020833e-25)
(-0.024361348 -5.3139188e-06 1.2886174e-24)
(-0.024137675 -5.5019799e-06 1.0027582e-24)
(-0.023906519 -5.6809776e-06 8.8098019e-25)
(-0.023668265 -5.8523141e-06 -1.7330342e-24)
(-0.023423208 -6.0150459e-06 -2.0106179e-24)
(-0.023171712 -6.1701342e-06 1.6981233e-24)
(-0.022914073 -6.3169866e-06 1.1256324e-24)
(-0.022650639 -6.4561703e-06 7.6019126e-25)
(-0.022381711 -6.5874122e-06 -2.4099175e-24)
(-0.022107619 -6.7109532e-06 1.1439907e-24)
(-0.021828664 -6.8271307e-06 4.7518608e-25)
(-0.021545166 -6.9354999e-06 -3.5671606e-25)
(-0.021257427 -7.0366123e-06 -2.2968356e-25)
(-0.020965742 -7.1300384e-06 -4.2857916e-26)
(-0.020670403 -7.2171794e-06 3.6257867e-26)
(-0.020371683 -7.2971634e-06 -2.5956145e-25)
(-0.020069865 -7.3710709e-06 -4.8504922e-25)
(-0.019765209 -7.4376522e-06 5.2792597e-25)
(-0.019457988 -7.4986597e-06 -2.7792632e-25)
(-0.019148452 -7.552742e-06 -5.6713167e-26)
(-0.018836858 -7.600916e-06 -5.8293383e-26)
(-0.018523456 -7.6427316e-06 1.2137633e-24)
(-0.018208481 -7.6786575e-06 -4.0977534e-26)
(-0.017892182 -7.7090387e-06 -3.7073654e-25)
(-0.017574779 -7.7332171e-06 -1.2913687e-24)
(-0.017256517 -7.7523992e-06 -1.4826805e-24)
(-0.016937604 -7.7653173e-06 -9.134538e-26)
(-0.016618269 -7.7739523e-06 5.4452463e-24)
(-0.016298715 -7.7768172e-06 -3.0972585e-24)
(-0.015979152 -7.7752651e-06 -1.5547677e-24)
(-0.015659784 -7.768267e-06 3.2448846e-24)
(-0.015340791 -7.756997e-06 -6.3107553e-24)
(-0.015022387 -7.7411318e-06 4.7150231e-26)
(-0.014704706 -7.7209887e-06 -1.6912157e-24)
(-0.014387982 -7.6965887e-06 -1.3903793e-25)
(-0.014072295 -7.6684249e-06 -1.7489844e-24)
(-0.013757905 -7.6362748e-06 7.6688247e-24)
(-0.013444846 -7.6009743e-06 7.844091e-24)
(-0.013133395 -7.5617108e-06 -1.4613266e-23)
(-0.012823547 -7.5197013e-06 -1.4461369e-25)
(-0.012515593 -7.4736481e-06 -1.4499609e-25)
(-0.0081751204 0.0060378113 -5.6003085e-23)
(-0.0084847451 0.006145678 -2.5934454e-21)
(-0.0087683255 0.0062036254 -8.7028545e-22)
(-0.0090138159 0.0062016406 4.3899281e-21)
(-0.0092196115 0.0061381574 -8.6953647e-22)
(-0.0093711485 0.0060039555 -1.3049973e-20)
(-0.009482067 0.0058092331 -1.1152735e-20)
(-0.009543817 0.0055509205 -2.0210887e-20)
(-0.0096198903 0.0052711186 -3.1945545e-21)
(-0.0096888093 0.0049719104 7.4531854e-21)
(-0.0097389075 0.0046521283 -1.3222693e-20)
(-0.0097361511 0.0042991768 1.5081189e-20)
(-0.009710254 0.0039305788 1.1506776e-21)
(-0.0095950525 0.0035251799 9.9222652e-22)
(-0.0094734956 0.0031201568 1.5239678e-20)
(-0.0092170564 0.0026799366 -2.3802246e-21)
(-0.008995025 0.0022627097 -4.4062905e-21)
(-0.0085809935 0.0018189597 -4.9860015e-22)
(-0.0083327594 0.0014331455 -2.041033e-21)
(-0.0078763109 0.001040612 3.1588956e-22)
(-0.0079220504 0.00073051722 1.2958629e-22)
(-0.0078271203 0.0004230121 -2.8076703e-22)
(-0.0092992907 0.00017578439 -1.921023e-23)
(-0.01201632 7.4664091e-05 -9.1004154e-26)
(-0.01391278 6.1196043e-05 -4.6659263e-25)
(-0.015786068 5.5171452e-05 5.839283e-25)
(-0.017324768 4.9290842e-05 7.3494629e-25)
(-0.018815764 4.4653149e-05 -1.6237871e-24)
(-0.020079145 4.0247287e-05 1.2640402e-24)
(-0.021288744 3.6696004e-05 -4.215133e-25)
(-0.022340134 3.3410451e-05 7.8087758e-26)
(-0.023340926 3.0716368e-05 3.7134238e-26)
(-0.024230674 2.8254616e-05 -3.5721759e-25)
(-0.025075871 2.6192622e-05 5.5517932e-25)
(-0.025841261 2.430672e-05 -1.8402329e-26)
(-0.02656775 2.2673745e-05 -2.1649991e-25)
(-0.027234137 2.1136991e-05 -9.3720936e-26)
(-0.027864323 1.9721901e-05 9.8108019e-26)
(-0.028444464 1.8406676e-05 -1.728137e-26)
(-0.028993579 1.721231e-05 -8.4030109e-26)
(-0.029500327 1.608056e-05 1.8468284e-25)
(-0.029977662 1.5050518e-05 3.6481188e-25)
(-0.030421313 1.4070769e-05 8.8094212e-26)
(-0.030837618 1.3142894e-05 2.4327506e-26)
(-0.031224082 1.2246415e-05 -1.0935379e-24)
(-0.031584645 1.1382845e-05 7.586805e-25)
(-0.031917818 1.0543081e-05 -5.5694596e-26)
(-0.032226248 9.7278201e-06 1.0618318e-24)
(-0.032509074 8.9334445e-06 -6.2823383e-26)
(-0.032768319 8.1434052e-06 -1.0891096e-25)
(-0.033002546 7.3562761e-06 -2.378281e-24)
(-0.033213346 6.548707e-06 1.6060896e-24)
(-0.0333944 5.9903739e-06 -2.9901257e-25)
(-0.033570362 5.539434e-06 2.0685038e-24)
(-0.033726614 4.9072776e-06 -3.5452646e-24)
(-0.033863334 4.2165768e-06 -5.2943759e-25)
(-0.033977061 3.5494352e-06 2.6582295e-24)
(-0.034074467 2.9175904e-06 -6.5657458e-25)
(-0.034148635 2.3153185e-06 2.9586765e-24)
(-0.034206714 1.8326211e-06 -9.3436822e-26)
(-0.03425159 1.4462363e-06 -5.3578243e-24)
(-0.034285853 1.1921896e-06 3.3858484e-24)
(-0.034315133 1.0946301e-06 -1.3275013e-24)
(-0.034343386 1.1749944e-06 8.651069e-26)
(-0.034378042 1.2198297e-06 -1.2045861e-24)
(-0.034410876 8.4871191e-07 1.4658154e-24)
(-0.03442601 -8.3670267e-07 1.7701183e-24)
(-0.034352762 -2.5714284e-06 -1.2861973e-24)
(-0.034256428 -3.3697668e-06 -2.4825906e-25)
(-0.03413391 -4.0778215e-06 -2.0788155e-24)
(-0.033994231 -4.6288587e-06 1.8339619e-24)
(-0.033837877 -5.1375321e-06 2.6369104e-24)
(-0.033666857 -5.6135411e-06 4.6358817e-25)
(-0.033481255 -6.0695471e-06 -4.2130358e-24)
(-0.033282143 -6.5066965e-06 -1.83111e-24)
(-0.033069659 -6.9284395e-06 3.0231412e-25)
(-0.032844579 -7.3348149e-06 3.6019284e-24)
(-0.032607133 -7.7262003e-06 1.9150942e-24)
(-0.03235796 -8.1034542e-06 -1.9484482e-24)
(-0.032097358 -8.4656892e-06 -1.4754421e-24)
(-0.031825889 -8.8143727e-06 1.1202935e-24)
(-0.031543895 -9.1481591e-06 -1.8891513e-24)
(-0.031251894 -9.4686807e-06 2.4674402e-24)
(-0.030950258 -9.7742541e-06 -1.0254726e-24)
(-0.030639478 -1.006635e-05 -1.0362911e-24)
(-0.03031994 -1.0343794e-05 1.6339082e-24)
(-0.02999211 -1.0608086e-05 3.2123661e-25)
(-0.029656375 -1.0858429e-05 3.3610436e-25)
(-0.029313182 -1.1095749e-05 -1.2789228e-24)
(-0.02896292 -1.1319598e-05 1.4339131e-24)
(-0.028606016 -1.1530016e-05 -1.041351e-24)
(-0.028242858 -1.1727677e-05 3.513739e-25)
(-0.02787386 -1.1912246e-05 -4.4639197e-25)
(-0.02749941 -1.208453e-05 -2.0855103e-25)
(-0.027119891 -1.2243864e-05 -5.6488505e-26)
(-0.026735678 -1.2392174e-05 -5.8759885e-26)
(-0.026347124 -1.2528412e-05 -1.9876147e-25)
(-0.025954597 -1.2653972e-05 -5.4334739e-25)
(-0.025558431 -1.2767104e-05 5.2206756e-25)
(-0.025158977 -1.2870285e-05 -1.122381e-25)
(-0.024756562 -1.2962233e-05 4.0091615e-25)
(-0.024351514 -1.3044111e-05 7.578716e-25)
(-0.023944156 -1.3115277e-05 -2.0190766e-24)
(-0.023534793 -1.3176257e-05 2.3577329e-24)
(-0.023123744 -1.3227658e-05 2.499332e-24)
(-0.022711294 -1.3268577e-05 -1.5820288e-24)
(-0.022297758 -1.3300924e-05 -3.6715873e-24)
(-0.021883406 -1.3322967e-05 4.3063192e-25)
(-0.021468533 -1.3337206e-05 -1.0512545e-25)
(-0.021053401 -1.3341727e-05 1.0055726e-24)
(-0.020638283 -1.3338537e-05 -9.4580389e-26)
(-0.02022344 -1.332653e-05 2.6602055e-24)
(-0.019809105 -1.3306854e-05 -3.9875868e-24)
(-0.019395554 -1.3279292e-05 5.0298184e-24)
(-0.018982962 -1.3244605e-05 2.6272888e-24)
(-0.018571628 -1.3202881e-05 -4.0956474e-24)
(-0.018161661 -1.3154476e-05 -1.7919763e-24)
(-0.017753389 -1.3099312e-05 -4.9578145e-24)
(-0.017346865 -1.3038416e-05 5.3005323e-24)
(-0.016942439 -1.2970919e-05 3.6440686e-24)
(-0.016540112 -1.2898496e-05 -2.5694151e-24)
(-0.016140254 -1.2819683e-05 -6.9742457e-24)
(-0.010131901 0.0074857982 5.0482688e-23)
(-0.010514041 0.0076180397 2.9224316e-21)
(-0.010864203 0.0076885737 1.4871706e-21)
(-0.011167816 0.007685285 1.7566904e-21)
(-0.01142286 0.0076061419 5.1878806e-21)
(-0.011611895 0.0074401661 1.7405477e-20)
(-0.011751272 0.0071995796 1.9896456e-20)
(-0.011831159 0.0068812377 8.3284517e-21)
(-0.011928801 0.0065362734 2.3190256e-20)
(-0.012018441 0.0061672909 6.9145489e-21)
(-0.012085045 0.0057724109 -1.526703e-20)
(-0.012088293 0.0053370324 -3.8030745e-22)
(-0.012062849 0.0048815793 -3.0237837e-21)
(-0.01193001 0.0043813299 4.6193789e-21)
(-0.011788931 0.0038804455 -7.4961096e-21)
(-0.011487115 0.0033372802 9.5634982e-21)
(-0.011225581 0.002820473 -5.8734344e-21)
(-0.010735235 0.0022722792 2.9585456e-22)
(-0.010442716 0.0017926828 4.9477423e-21)
(-0.0099091436 0.001307352 8.5418892e-22)
(-0.0099811897 0.00092045334 -1.6422978e-22)
(-0.0099113139 0.00054204555 3.3091506e-22)
(-0.011734926 0.00024040543 3.0245064e-22)
(-0.015045787 0.00011468207 2.0003508e-25)
(-0.01738235 9.4102276e-05 -5.2996545e-25)
(-0.019677705 8.4851408e-05 4.1756301e-25)
(-0.021568851 7.5715656e-05 -7.3287983e-25)
(-0.023393559 6.860843e-05 4.7063201e-25)
(-0.024944181 6.180205e-05 4.9850621e-25)
(-0.026424543 5.6362359e-05 -1.4898633e-25)
(-0.027713813 5.128927e-05 4.5002466e-25)
(-0.028938381 4.7161036e-05 -6.8822914e-25)
(-0.030028625 4.3363672e-05 3.7140243e-25)
(-0.03106259 4.0202047e-05 -5.5919065e-25)
(-0.031999817 3.7294408e-05 2.869555e-25)
(-0.032888301 3.47887e-05 -3.3057174e-25)
(-0.033703774 3.2420908e-05 1.8507965e-25)
(-0.034474254 3.0249486e-05 1.9056228e-26)
(-0.035183918 2.8233011e-05 6.5701844e-27)
(-0.035855618 2.6393551e-05 -1.241906e-25)
(-0.036474552 2.4637405e-05 3.6017268e-25)
(-0.037057095 2.3053536e-05 -2.7451041e-25)
(-0.03759842 2.154377e-05 -5.1385774e-25)
(-0.038105945 2.0115509e-05 8.1895341e-25)
(-0.038576864 1.873396e-05 -6.7895828e-25)
(-0.039015814 1.7404458e-05 1.2984396e-24)
(-0.039421127 1.6110616e-05 -9.2801524e-25)
(-0.039795928 1.4855587e-05 -1.1091484e-24)
(-0.040139276 1.3632552e-05 1.8931291e-24)
(-0.040453577 1.2418851e-05 -1.4519261e-24)
(-0.040737256 1.1206218e-05 2.5105646e-24)
(-0.040991748 9.931321e-06 -1.6587082e-24)
(-0.041207731 9.0701614e-06 -2.0398332e-24)