/*--------------------------------*- C++ -*----------------------------------*\
| =========                 |                                                 |
| \\      /  F ield         | OpenFOAM: The Open Source CFD Toolbox           |
|  \\    /   O peration     | Version:  2.4.0                                 |
|   \\  /    A nd           | Web:      www.OpenFOAM.org                      |
|    \\/     M anipulation  |                                                 |
\*---------------------------------------------------------------------------*/
FoamFile
{
    version     2.0;
    format      ascii;
    class       volScalarField;
    location    "280";
    object      f;
}
// * * * * * * * * * * * * * * * * * * * * * * * * * * * * * * * * * * * * * //

dimensions      [0 0 -1 0 0 0 0];

internalField   nonuniform List<scalar> 
32000
(
0.1944249
0.069312497
0.13656092
0.05148921
0.031788497
0.0037638804
0.0065530776
0.0038791618
0.0040809639
0.0028025915
0.0024273055
0.0020951416
0.0018809743
0.0016307985
0.0014027268
0.0012031399
0.0010215911
0.00085961006
0.00071870053
0.00058802295
0.00046139599
0.00034285379
0.00021922202
9.4125614e-05
0.00017598829
0.0002912217
0.00038914242
0.00046849795
0.00052000488
0.00053929828
0.00052072214
0.00046333949
0.00037302257
0.0002650411
0.0001613524
8.1586666e-05
6.7879602e-05
9.4104661e-05
9.7412493e-05
8.1635232e-05
5.7603839e-05
6.6304396e-05
0.00011349208
0.00017008991
0.00023713957
0.00031750655
0.00043049965
0.00056925836
0.00069746767
0.00080915592
0.00089361082
0.00094472141
0.00095914013
0.0009354067
0.00087314678
0.00077227494
0.00063849616
0.00047556561
0.00030132005
0.00014380507
0.00020817411
0.00038061124
0.00054972626
0.0007152428
0.00087361033
0.001021559
0.0011558127
0.0012742089
0.0013764396
0.001463488
0.001537537
0.0016018383
0.001660084
0.0017154284
0.0017691237
0.0018192746
0.0018606357
0.0018854353
0.0018841255
0.0018462172
0.0017608327
0.0016175026
0.0014102186
0.0011325532
0.00077646142
0.00034688859
0.00033512552
0.00084803537
0.0013532578
0.0017916954
0.0020944364
0.0021947193
0.0020573905
0.0016816022
0.0011270985
0.00049783876
0.00036298693
0.00088596526
0.0012622482
0.0014881271
0.0015975509
0.0015341119
0.0012217301
0.000743343
0.00026687971
0.00037145134
0.00077356579
0.0012301257
0.0018123711
0.002566563
0.0035152972
0.0046498866
0.0059322332
0.0072906369
0.0086195014
0.0097831136
0.010626789
0.011003655
0.010831559
0.010077893
0.0088195187
0.0072424199
0.0055915386
0.0041054315
0.0029444878
0.0021602482
0.0017317948
0.0015551166
0.0014915042
0.001549574
0.0018747416
0.0024809206
0.0031661973
0.0037174539
0.0040653252
0.0042511382
0.004348857
0.0044227413
0.0045305209
0.0047106036
0.004947025
0.0051474485
0.0051543823
0.0047753368
0.0038200072
0.0022742324
0.0003861745
0.0018415085
0.0038878244
0.0058588289
0.0076933004
0.0091888088
0.010230505
0.0090547683
0.0069639858
0.0061743665
0.0055911367
0.0052728802
0.0051314847
0.005115728
0.0052028223
0.0053970468
0.0056691314
0.0060100312
0.0064433724
0.0070530685
0.007813342
0.0086354637
0.0094852984
0.010332694
0.011151123
0.011918109
0.012613593
0.013165536
0.013476144
0.013511732
0.013341746
0.013030788
0.012566308
0.011970082
0.011254752
0.010421307
0.0094764169
0.0084402785
0.0072645053
0.0058095118
0.0039456679
0.0010679373
0.0027370345
0.007139183
0.012953391
0.019101422
0.029091314
0.026120808
0.044633212
0.032061388
0.065255585
0.067909117
0.1481616
0.070103814
0.44115834
0.14691462
0.28287073
0.096971649
0.061791873
0.0095379827
0.010937466
0.0052854863
0.005228111
0.0035144049
0.0029920295
0.0025322463
0.0022417096
0.0019356237
0.0016675958
0.0014381488
0.001234757
0.001057059
0.00090411969
0.00076358645
0.00062849296
0.00050232677
0.00037199482
0.00024104565
0.00031336851
0.00042110586
0.00051259381
0.00058594939
0.00063232905
0.00064751301
0.0006259553
0.00056664071
0.00047518537
0.00036641559
0.0002618314
0.00018095935
0.00016503725
0.00018857165
0.00018986047
0.00017235933
0.00014714896
0.00015457623
0.00020070005
0.00025739358
0.00032577547
0.00040933285
0.00052914036
0.00067581788
0.00080981139
0.0009266784
0.0010162837
0.0010727732
0.0010928428
0.0010750502
0.0010190769
0.0009249367
0.00079826673
0.00064289543
0.00047637619
0.00032721859
0.00039431143
0.00056709042
0.00073647211
0.00090147441
0.0010586721
0.001205014
0.0013374704
0.0014540956
0.0015547283
0.0016404482
0.0017135036
0.0017771763
0.0018351505
0.0018905237
0.0019444437
0.0019948907
0.0020365098
0.0020614537
0.00206015
0.0020221381
0.0019366317
0.0017933302
0.0015863711
0.001309691
0.00095615559
0.00053422077
0.00052320285
0.0010269845
0.0015274988
0.0019632978
0.0022659446
0.0023696194
0.0022396879
0.0018756408
0.0013367707
0.00072824226
0.00060512111
0.0011238004
0.001500018
0.001723551
0.0018255638
0.001752069
0.0014327953
0.00095215304
0.00047802764
0.00057359178
0.00096494568
0.0014141176
0.0019890545
0.002735296
0.0036751777
0.0048001025
0.0060722034
0.0074202672
0.0087394856
0.0098952987
0.010734563
0.011112206
0.010946932
0.010207257
0.0089697561
0.0074183495
0.0057945357
0.004332567
0.0031889483
0.0024132517
0.0019847533
0.0018020574
0.001730036
0.0017784499
0.0020914937
0.002684074
0.0033582995
0.0039037389
0.0042504412
0.0044379579
0.0045389551
0.0046170763
0.0047291183
0.0049118344
0.0051473735
0.0053421869
0.0053391812
0.0049489167
0.0039876773
0.0024473956
0.00059247271
0.0020005336
0.0040107235
0.0059554621
0.0077661643
0.0092410743
0.010256093
0.0090992185
0.0070426332
0.0062509272
0.0056710417
0.0053542068
0.0052137437
0.0051987886
0.0052866836
0.0054811303
0.0057534084
0.0060948599
0.0065294128
0.0071389067
0.0078973985
0.0087175592
0.009565328
0.010410668
0.011227132
0.011992243
0.012685315
0.013234508
0.013543348
0.013579335
0.013411147
0.01310226
0.012640721
0.012048177
0.011337247
0.0105092
0.0095711504
0.0085431524
0.0073775181
0.0059364345
0.0040901358
0.0013048452
0.0030232841
0.0074504076
0.013310227
0.019512602
0.029603179
0.026831245
0.046773428
0.034826917
0.089472916
0.11031809
0.30566023
0.15615343
0.6540473
0.21820064
0.39940137
0.1351692
0.086971212
0.015560658
0.015224205
0.0067784043
0.0063949439
0.0042505601
0.0035709584
0.002981436
0.0026119358
0.0022485048
0.0019393742
0.0016792089
0.0014532845
0.001259296
0.0010938564
0.00094308289
0.00079920302
0.00066513559
0.00052787351
0.0003908873
0.00045338795
0.00055341011
0.00063834814
0.0007056417
0.00074686852
0.00075795153
0.0007334594
0.00067229788
0.00057981551
0.00047037319
0.00036498431
0.0002830485
0.00026487342
0.00028562126
0.00028478411
0.00026545093
0.00023895713
0.00024498969
0.00028991474
0.00034658089
0.00041617375
0.00050279085
0.00062911301
0.0007833107
0.0009228442
0.0010446976
0.0011393206
0.0012011081
0.0012267961
0.0012149555
0.0011653234
0.0010780135
0.00095859173
0.00081095662
0.00065236313
0.00051174594
0.00058155767
0.00075456011
0.00092405688
0.001088359
0.0012441724
0.0013886763
0.0015191013
0.0016337302
0.0017325558
0.0018167604
0.0018886607
0.0019515706
0.0020091658
0.0020644843
0.0021185633
0.002169251
0.0022110758
0.0022361089
0.0022347508
0.0021965698
0.0021108752
0.0019675419
0.0017608642
0.0014851631
0.0011342634
0.00072016413
0.00070985711
0.0012041758
0.0016997419
0.0021327809
0.0024353505
0.0025426128
0.0024204815
0.0020687963
0.001546382
0.00095953933
0.00084876532
0.0013632267
0.0017394163
0.0019604799
0.0020546813
0.0019705675
0.0016439446
0.0011608131
0.00068891729
0.00077506019
0.0011551534
0.0015965356
0.0021637917
0.0029016985
0.0038323149
0.0049471298
0.0062085082
0.0075457373
0.0088548305
0.010002446
0.010837081
0.011215582
0.011057586
0.010332774
0.009117388
0.0075931497
0.0059979281
0.0045614653
0.003436192
0.0026695958
0.0022411581
0.0020522258
0.0019713942
0.0020096463
0.0023099873
0.0028883979
0.0035511555
0.0040906111
0.0044362096
0.0046256564
0.0047302629
0.0048130231
0.004929753
0.005115467
0.0053503207
0.0055394715
0.0055262311
0.0051243697
0.0041570733
0.0026226807
0.00080177763
0.002161254
0.0041338653
0.0060512327
0.0078372101
0.0092907171
0.010278498
0.009141999
0.0071217174
0.0063285458
0.0057524108
0.0054372493
0.0052978799
0.0052838392
0.0053726129
0.0055673152
0.0058398052
0.0061818286
0.0066175971
0.007226789
0.0079832978
0.0088012578
0.0096466931
0.010489689
0.011303881
0.012066787
0.012757076
0.013303143
0.013609937
0.013646194
0.01347977
0.013172945
0.012714385
0.012125588
0.011419133
0.010596578
0.0096654598
0.0086456143
0.0074899736
0.006062542
0.0042340581
0.0015434965
0.0033112057
0.0077622413
0.01366355
0.019922018
0.030087556
0.027568196
0.048698395
0.037658382
0.10900055
0.14462978
0.43099595
0.23613446
0.84780412
0.28506967
0.49654536
0.16763726
0.10822802
0.021795041
0.019424751
0.0083603949
0.0075823777
0.0050115237
0.0041641152
0.0034426253
0.0029914878
0.0025692539
0.0022178666
0.0019261259
0.0016769812
0.001466128
0.0012877158
0.0011263167
0.00097333215
0.00083108899
0.00068667145
0.00054347003
0.00059586127
0.00068793941
0.00076620834
0.00082738236
0.00086343955
0.00087044236
0.00084307897
0.00078017558
0.00068680072
0.00057682556
0.00047074467
0.00038780375
0.00036734693
0.00038521468
0.00038214247
0.00036086511
0.00033297753
0.00033748637
0.00038106826
0.00043757204
0.00050823964
0.00059776417
0.00073026038
0.00089153271
0.0010363292
0.0011629513
0.0012624387
0.0013294267
0.0013606879
0.0013548007
0.0013115576
0.0012311725
0.0011191368
0.00097941567
0.00082894959
0.0006970527
0.00076957661
0.00094267826
0.0011121281
0.0012755325
0.0014297343
0.0015721564
0.0017003031
0.0018126981
0.001909497
0.0019919897
0.002062565
0.0021245705
0.002181673
0.0022368479
0.0022910159
0.0023418852
0.00238386
0.0024089244
0.0024074487
0.0023690309
0.0022830797
0.0021396535
0.0019332135
0.0016584874
0.0013103082
0.00090423807
0.00089460459
0.0013791274
0.0018694963
0.0022996472
0.0026021532
0.0027131994
0.0025992805
0.0022605958
0.0017554871
0.0011913087
0.0010935246
0.0016038846
0.0019800985
0.002198575
0.0022845601
0.0021892532
0.0018548076
0.0013689338
0.00089913049
0.00097542279
0.0013437398
0.0017769155
0.0023361094
0.0030652908
0.0039862235
0.0050904762
0.0063406464
0.0076665342
0.0089650087
0.010104013
0.010933786
0.01131321
0.011162942
0.010453875
0.0092618712
0.0077663219
0.0062012768
0.0047917543
0.0036859126
0.0029290265
0.0025007853
0.0023054063
0.0022153573
0.0022429291
0.0025299729
0.0030936244
0.0037444782
0.0042777681
0.0046223218
0.0048139296
0.0049224902
0.0050103117
0.005132178
0.0053212743
0.0055556495
0.0057390803
0.0057152919
0.0053014359
0.0043279283
0.0027998359
0.0010137966
0.0023234194
0.0042569687
0.0061458188
0.0079060825
0.0093373586
0.010297387
0.0091828139
0.0072009868
0.0064070348
0.0058350707
0.0055218361
0.0053837118
0.0053706797
0.0054603824
0.0056553378
0.0059280132
0.0062705748
0.0067074937
0.0073161945
0.0080704145
0.0088858192
0.009728533
0.010568775
0.01138027
0.01214053
0.012827569
0.013370065
0.013674496
0.013710884
0.013546197
0.013241444
0.01278593
0.01220098
0.011499124
0.010682203
0.0097581586
0.0087465291
0.007600798
0.0061868503
0.004376669
0.0017833344
0.0036000032
0.0080735226
0.014011833
0.020327694
0.030543249
0.028328274
0.050422569
0.040537611
0.12472753
0.17264453
0.53566259
0.31207215
1.0320428
0.34899484
0.58118116
0.19556641
0.12627859
0.028203727
0.023551703
0.010034064
0.0087918575
0.0057979809
0.0047717337
0.0039158866
0.0033803406
0.0028977991
0.0025029743
0.0021787838
0.0019057167
0.0016774084
0.0014855366
0.0013131153
0.0011506993
0.0010000001
0.00084819796
0.00069860112
0.00074059719
0.00082449959
0.00089598375
0.00095098984
0.00098187192
0.000984828
0.00095467071
0.00089014672
0.00079603188
0.00068568264
0.0005790406
0.00049516751
0.00047241004
0.00048730851
0.00048189058
0.00045855268
0.0004291546
0.00043200317
0.00047408811
0.00053028227
0.0006018729
0.00069413021
0.00083241929
0.001000275
0.0011500247
0.0012811726
0.0013853511
0.0014574255
0.0014942014
0.0014942593
0.0014574459
0.0013840756
0.0012795626
0.0011479338
0.001005799
0.00088279869
0.00095802695
0.0011310986
0.0013003299
0.0014626277
0.0016149788
0.0017550629
0.0018806728
0.0019905855
0.0020851282
0.0021657036
0.0022347762
0.002295729
0.0023522195
0.002407157
0.0024613397
0.0025123279
0.0025543937
0.0025794289
0.0025777705
0.0025390467
0.0024527694
0.002309189
0.0021029444
0.0018291929
0.0014838253
0.0010859738
0.0010769742
0.0015513725
0.0020362872
0.0024634154
0.0027658668
0.0028808914
0.0027756022
0.0024505698
0.0019636393
0.0014231233
0.0013389974
0.0018454127
0.0022217217
0.0024375043
0.002514869
0.0024077896
0.0020650346
0.0015761463
0.0011082658
0.0011742624
0.0015302736
0.0019548129
0.0025055584
0.0032256242
0.0041364602
0.0052297091
0.0064682037
0.0077822713
0.0090696711
0.010199691
0.011024399
0.01140482
0.011262711
0.010570221
0.0094028174
0.0079374493
0.0064041727
0.0050230663
0.0039378017
0.0031912919
0.0027634194
0.0025613967
0.0024617218
0.0024780868
0.0027512285
0.0032995171
0.0039380138
0.0044649417
0.0048085032
0.0050025067
0.0051153796
0.0052087051
0.0053361804
0.0055290645
0.0057631778
0.0059408219
0.0059061432
0.005479859
0.0044999655
0.0029785961
0.0012282188
0.0024867849
0.0043798022
0.0062390242
0.0079726652
0.0093809872
0.010312901
0.0092217314
0.0072803873
0.0064863546
0.005918968
0.0056079064
0.0054711719
0.0054592351
0.0055499081
0.0057451053
0.0060179299
0.006360984
0.0067989707
0.0074069724
0.0081585782
0.0089710527
0.0098106358
0.010647691
0.011456044
0.012213194
0.012896493
0.013434954
0.013736689
0.013773049
0.013610054
0.013307364
0.012854945
0.012273928
0.011576776
0.010765616
0.0098487703
0.0088453951
0.007709457
0.0063088005
0.0045174821
0.0020238551
0.0038890905
0.0083835819
0.01435441
0.020728757
0.030970958
0.029109051
0.051963848
0.043448883
0.13737733
0.19573048
0.62718995
0.38554399
1.2133676
0.41113796
0.65802075
0.21987776
0.14169403
0.034749049
0.027618413
0.011802082
0.010025254
0.006610732
0.0053941474
0.0044013359
0.0037784957
0.0032340812
0.0027946032
0.0024370665
0.0021393566
0.0018929848
0.00168715
0.001503297
0.0013311138
0.0011716719
0.0010122516
0.0008560766
0.00088739359
0.00096288518
0.0010274717
0.00107627
0.0011019824
0.0011009379
0.0010680781
0.0010020711
0.00090738748
0.0007968431
0.00068979039
0.00060507396
0.00058000852
0.00059185435
0.00058397929
0.00055846058
0.00052742891
0.00052847306
0.00056889786
0.00062462267
0.0006969688
0.00079176136
0.0009354222
0.0011093259
0.0012636867
0.0013990926
0.0015077687
0.001584799
0.0016270179
0.0016330024
0.0016026522
0.0015363825
0.0014395266
0.0013161692
0.0011825715
0.0010686402
0.0011465645
0.0013194729
0.0014883045
0.0016492766
0.0017995267
0.0019370054
0.0020598092
0.0021669812
0.0022590293
0.0023374744
0.0024048599
0.0024646057
0.0025203594
0.002574961
0.0026290798
0.0026801207
0.0027222162
0.0027471595
0.0027452517
0.0027061519
0.0026194796
0.002475685
0.0022695968
0.0019968255
0.0016543692
0.0012649216
0.0012565152
0.0017204667
0.0021996622
0.0026236247
0.0029260229
0.0030452143
0.0029489724
0.0026382521
0.0021703909
0.0016545508
0.0015847761
0.0020874475
0.0024639458
0.0026769439
0.0027452915
0.0026258626
0.0022743036
0.0017821093
0.0013159465
0.001371186
0.001714349
0.0021298109
0.0026717198
0.0033822844
0.0042826193
0.0053644354
0.0065908034
0.0078925937
0.0091684887
0.010289176
0.011108635
0.011490119
0.011356572
0.01068145
0.0095398167
0.0081060955
0.006606187
0.0052550153
0.0041915386
0.0034561378
0.0030288527
0.00282001
0.0027103053
0.0027149359
0.002973565
0.0035058735
0.0041315394
0.0046518883
0.0049944981
0.0051911314
0.005308685
0.0054079765
0.0055415554
0.005738651
0.0059727225
0.0061444956
0.0060985456
0.0056593585
0.0046728862
0.0031586818
0.0014447159
0.0026511086
0.0045021562
0.0063306927
0.0080368978
0.0094216586
0.010325245
0.0092588837
0.0073599102
0.0065664988
0.0060040752
0.0056954207
0.0055602117
0.0055494497
0.0056411273
0.00583655
0.0061094832
0.00645298
0.0068919449
0.0074990346
0.0082477011
0.0090568719
0.0098929174
0.010726357
0.01153112
0.012284692
0.012963752
0.013497702
0.013796387
0.013832529
0.013671134
0.013370455
0.012921136
0.012344093
0.011651711
0.0108464
0.0099368386
0.0089417161
0.007815415
0.0064278325
0.0046560305
0.0022645726
0.0041779181
0.0086918321
0.014690815
0.021124598
0.031372123
0.029908458
0.053341981
0.04637859
0.14754112
0.2149349
0.71069298
0.45780112
1.3965665
0.47243404
0.73041235
0.2412919
0.15493156
0.041393429
0.031638637
0.013667215
0.011284903
0.0074507179
0.0060318091
0.0048991463
0.004185992
0.0035780614
0.0030926703
0.002700862
0.0023777669
0.0021127021
0.0018923831
0.0016966749
0.0015143784
0.0013458998
0.0011786228
0.0010156837
0.00103604
0.0011028816
0.0011604592
0.0012030175
0.0012235764
0.0012185893
0.0011831324
0.0011157963
0.0010207341
0.00091019447
0.00080290268
0.0007174493
0.00069008207
0.00069879953
0.00068835617
0.00066053283
0.00062773817
0.00062682629
0.00066541833
0.0007205014
0.00079341945
0.00089052642
0.0010390991
0.0012184734
0.0013770712
0.0015164433
0.0016294033
0.0017112424
0.0017588193
0.0017707017
0.001746841
0.0016877523
0.0015986862
0.0014837794
0.0013589265
0.0012542321
0.0013348443
0.0015074527
0.0016756952
0.0018351126
0.0019830012
0.0021175971
0.0022373159
0.0023414806
0.0024307882
0.0025068833
0.0025723916
0.0026307711
0.0026856584
0.0027398212
0.0027937939
0.0028448179
0.0028868788
0.002911666
0.0029094417
0.0028698966
0.0027827625
0.0026386976
0.0024327326
0.0021609555
0.001821521
0.0014406595
0.0014328053
0.0018859966
0.0023591988
0.0027798424
0.0030821771
0.0032057121
0.0031189293
0.0028231834
0.0023752954
0.0018851548
0.0018304475
0.0023296242
0.0027064339
0.00291658
0.0029755301
0.0028431866
0.0024823276
0.0019865178
0.001521829
0.0015658333
0.0018955939
0.0023015284
0.0028342139
0.0035348994
0.0044243393
0.005494303
0.0067081003
0.0079971592
0.0092611165
0.010372114
0.011186119
0.011568707
0.011444093
0.010787095
0.0096723787
0.0082717656
0.0068068492
0.0054871849
0.0044467836
0.0037233047
0.0032968851
0.0030810768
0.0029609512
0.0029533265
0.0031968326
0.0037125309
0.004324866
0.0048383901
0.0051800677
0.0053795578
0.0055021672
0.005607902
0.0057480986
0.0059498422
0.006184089
0.0063498793
0.006292231
0.0058396239
0.0048463697
0.0033397993
0.0016629418
0.0028161419
0.0046238084
0.0064206262
0.0080986276
0.0094592727
0.010334414
0.0092942296
0.0074394352
0.0066473725
0.0060902887
0.0057842698
0.0056507159
0.0056412013
0.0057339104
0.005929536
0.006202532
0.0065464163
0.0069862616
0.0075922208
0.0083376222
0.0091431174
0.0099752219
0.010804618
0.011605348
0.012354872
0.013029192
0.013558149
0.013853416
0.013889124
0.013729207
0.01343045
0.012984195
0.012411127
0.01172354
0.010924131
0.010021899
0.009034988
0.0079181306
0.0065433934
0.0047918768
0.0025050359
0.004465998
0.0089977831
0.015020771
0.021514796
0.031748665
0.030724399
0.054577859
0.049315651
0.15570438
0.23106563
0.78978185
0.52985936
1.5852995
0.53364927
0.8008134
0.26037885
0.16635864
0.048099728
0.035626129
0.015632352
0.012573642
0.0083190488
0.0066853124
0.0054095627
0.0046029168
0.00392973
0.0033971106
0.0029700694
0.0026208193
0.0023364077
0.0021010626
0.0018930599
0.0017002923
0.0015224751
0.0013470971
0.001177204
0.0011863206
0.0012442678
0.0012947257
0.0013310186
0.0013464491
0.0013375889
0.001299653
0.0012311578
0.0011359263
0.0010256133
0.00091827653
0.00083221206
0.00080256488
0.00080808787
0.00079496655
0.00076471176
0.00073001856
0.0007269917
0.00076356909
0.00081782524
0.0008911154
0.00099029245
0.0011432799
0.0013275081
0.0014899381
0.0016329609
0.0017499717
0.0018364559
0.001889292
0.0019070331
0.0018896799
0.0018378476
0.0017567009
0.0016504236
0.0015345247
0.0014392299
0.0015225228
0.0016946925
0.0018621488
0.0020197741
0.0021650315
0.0022964586
0.0024128059
0.0025136897
0.0026000053
0.0026735261
0.002736963
0.0027938127
0.0028477003
0.0029013175
0.0029550579
0.0030059923
0.0030479523
0.0030725181
0.0030699107
0.0030298533
0.0029421946
0.0027978094
0.0025919432
0.0023211861
0.0019848976
0.0016128016
0.0016054598
0.0020475887
0.0025145151
0.0029316737
0.0032339186
0.0033619563
0.0032850309
0.003004916
0.0025779106
0.0021144961
0.0020755926
0.0025715761
0.0029488536
0.0031561116
0.0032053104
0.0030595113
0.0026888639
0.0021891125
0.0017256118
0.0017578859
0.00207368
0.0024696311
0.0029927124
0.0036831538
0.0045613195
0.005619024
0.0068198136
0.0080956849
0.0093472599
0.010448188
0.011256501
0.011640187
0.011524831
0.010886675
0.0097999927
0.0084339404
0.0070056607
0.0057191311
0.0047031767
0.0039925264
0.0035673255
0.0033444481
0.0032135341
0.0031931503
0.0034209313
0.0039193785
0.0045178531
0.0050242696
0.0053650058
0.0055675659
0.0056956075
0.0058082755
0.0059556194
0.0061624562
0.0063970839
0.0065567424
0.0064869114
0.00602032
0.0050200743
0.0035216403
0.0018825332
0.0029816335
0.0047445376
0.0065086187
0.0081576744
0.0094936768
0.010340334
0.0093276543
0.0075187815
0.0067288277
0.0061774543
0.005874293
0.0057425152
0.0057343108
0.0058280663
0.0060238612
0.0062968625
0.0066410664
0.0070816777
0.0076862714
0.0084280688
0.009229504
0.010057253
0.010882171
0.011678415
0.012423414
0.013092485
0.013615959
0.013907435
0.013942484
0.013783905
0.013486964
0.01304372
0.012474607
0.011791821
0.01099834
0.01010346
0.0091246891
0.0080170584
0.0066549457
0.0049246317
0.0027448495
0.004752925
0.0093010676
0.015344208
0.021899102
0.032102949
0.031554763
0.05569308
0.052251966
0.1622673
0.24474939
0.86710007
0.6025615
1.7808998
0.59540129
0.85485244
0.27758275
0.17627151
0.054831587
0.039594167
0.017700539
0.013894849
0.0092170381
0.0073554152
0.0059329194
0.0050294187
0.0042891166
0.0037078855
0.0032446044
0.0028683966
0.0025639564
0.0023130201
0.0020922656
0.0018886559
0.0017011888
0.0015174588
0.0013404168
0.0013380172
0.0013868199
0.0014300458
0.0014600526
0.0014703882
0.0014577342
0.0014174495
0.0013479801
0.0012528079
0.0011429656
0.0010358018
0.00094927352
0.00091738624
0.0009196606
0.00090375472
0.00087093932
0.00083420617
0.00082889826
0.00086327005
0.0009165013
0.00098994749
0.0010909267
0.0012477968
0.0014362266
0.0016020544
0.00174839
0.0018691992
0.0019601481
0.0020181307
0.0020416802
0.0020308441
0.0019863369
0.0019132358
0.0018157654
0.00170903
0.0016232921
0.0017092598
0.001880851
0.0020473178
0.0022029064
0.0023452563
0.0024732219
0.0025859057
0.0026832309
0.0027662998
0.0028370193
0.0028981881
0.0029533423
0.0030060939
0.0030590552
0.0031124736
0.0031632428
0.0032050336
0.0032293125
0.0032262568
0.003185624
0.0030973843
0.0029526377
0.0027468577
0.0024771618
0.0021441602
0.0017810077
0.0017741418
0.00220492
0.0026652792
0.0030787719
0.0033808804
0.003513555
0.0034468628
0.00318302
0.0027778019
0.0023421335
0.0023197868
0.0028129343
0.0031908761
0.0033952515
0.0034343859
0.0032746286
0.0028937216
0.0023896884
0.0019270453
0.0019470769
0.002248333
0.0026338424
0.00314695
0.003826802
0.0046933362
0.0057383928
0.0069257481
0.0081879756
0.0094267105
0.010517162
0.011319503
0.011704227
0.011598395
0.010979739
0.0099221592
0.008592094
0.0072021027
0.0059503833
0.0049603347
0.0042635274
0.0038399904
0.0036099986
0.0034679649
0.0034343483
0.0036458202
0.0041263686
0.0047104203
0.0052094026
0.0055491506
0.0057549726
0.0058888185
0.0060089178
0.0061639505
0.0063763279
0.0066115222
0.0067648488
0.0066822798
0.0062010855
0.0051936373
0.0037038826
0.0021031111
0.0031473349
0.0048641362
0.0065944811
0.0082138737
0.0095247284
0.010342929
0.0093590325
0.0075977457
0.0068106916
0.0062653893
0.0059652977
0.0058354052
0.0058285599
0.0059233615
0.0061192773
0.0063922116
0.006736651
0.007177893
0.0077808655
0.0085187017
0.0093156751
0.010138639
0.010958628
0.011749919
0.012489901
0.013153202
0.013670701
0.013958011
0.013992167
0.013834782
0.013539544
0.013099249
0.012534062
0.011856071
0.011068533
0.010181009
0.0092102915
0.0081116622
0.0067619866
0.0050539735
0.0029836967
0.005038406
0.0096014737
0.015661294
0.022277517
0.032437837
0.032397796
0.056709479
0.0551826
0.16756064
0.25647262
0.94383443
0.67658898
1.8932911
0.64837325
0.90863203
0.29325867
0.18490963
0.061553742
0.04355501
0.019874999
0.015252474
0.010146239
0.0080430667
0.0064696592
0.005465723
0.0046563022
0.0040249923
0.0035244086
0.0031203999
0.0027952162
0.0025280972
0.002294113
0.0020792752
0.0018818364
0.0016894951
0.0015051033
0.0014909141
0.0015303146
0.0015661927
0.0015898959
0.0015951762
0.0015788162
0.001536323
0.0014660784
0.0013712119
0.0012621072
0.0011553596
0.0010685381
0.0010344711
0.0010334572
0.0010146652
0.00097915862
0.00094023853
0.0009324767
0.00096444321
0.0010164388
0.0010898087
0.0011922988
0.001352487
0.0015444342
0.0017131979
0.0018624872
0.0019868236
0.0020820405
0.0021450422
0.0021743379
0.0021700188
0.002132898
0.0020679635
0.0019794751
0.0018821122
0.0018060815
0.0018947203
0.0020655939
0.0022308629
0.0023841651
0.0025233261
0.0026475339
0.0027562597
0.002849747
0.0029293141
0.0029970055
0.0030557094
0.0031090016
0.0031604791
0.0032126716
0.0032656753
0.0033162006
0.0033577523
0.0033816789
0.0033781129
0.0033368473
0.0032479791
0.0031028421
0.0028971515
0.0026285772
0.0022990233
0.0019449922
0.0019385708
0.0023577277
0.0028112198
0.0032208485
0.0035227487
0.0036601621
0.0036040456
0.0033570884
0.0029745457
0.0025676254
0.0025625988
0.0030533256
0.0034321751
0.0036337271
0.0036625403
0.0034883784
0.0030967704
0.0025881039
0.00212594
0.0021332005
0.0024193426
0.0027939536
0.0032967359
0.0039656798
0.0048202542
0.0058522988
0.0070258087
0.0082739389
0.0094993631
0.0105789
0.011374942
0.01176058
0.011664459
0.011065882
0.010038403
0.0087457022
0.0073956381
0.006180441
0.0052178462
0.0045360173
0.0041147017
0.0038776263
0.0037241947
0.0036769171
0.0038715256
0.0043335259
0.0049025579
0.0053937282
0.0057323948
0.0059416407
0.0060816519
0.0062096828
0.0063729519
0.0065913127
0.0068272279
0.0069739556
0.0068780063
0.0063815288
0.0053666747
0.003886189
0.0023242821
0.0033130014
0.0049824135
0.0066780452
0.0082670813
0.009552301
0.010342136
0.0093882304
0.0076761007
0.0068927646
0.0063538797
0.0060570559
0.0059291425
0.0059236892
0.006019519
0.0062154911
0.0064882696
0.0068328431
0.0072745588
0.0078756341
0.0086091349
0.0094012276
0.010218959
0.011033555
0.011819415
0.012553877
0.013210882
0.013721911
0.014004678
0.014037711
0.013881369
0.013587719
0.013150306
0.012589011
0.011915804
0.011134219
0.010254043
0.0092912834
0.0082014364
0.0068640685
0.0051796746
0.0032213652
0.0053222887
0.009898985
0.015972481
0.022650371
0.032756704
0.033252407
0.05764867
0.058105904
0.17185772
0.26659199
0.93587818
0.72784736
1.9402292
0.65885776
0.89784353
0.30368461
0.19246138
0.068232247
0.047519324
0.022159134
0.016651069
0.011108486
0.0087494337
0.0070203546
0.0059121475
0.0050314321
0.0043484749
0.0038094578
0.0033767563
0.0030300756
0.0027461517
0.0024984368
0.0022719675
0.0020642226
0.0018630017
0.0016710516
0.0016448022
0.0016745343
0.0017029429
0.0017203257
0.0017205939
0.0017006215
0.0016560685
0.0015852592
0.0014909624
0.0013828844
0.0012768222
0.0011899037
0.0011537407
0.0011494164
0.001127644
0.0010893153
0.0010480563
0.0010376613
0.0010670145
0.0011175511
0.0011905964
0.0012942829
0.001457195
0.0016519487
0.001823161
0.0019750252
0.0021025998
0.002201871
0.0022697493
0.0023047162
0.0023069031
0.0022772209
0.0022205675
0.0021412314
0.0020534475
0.0019872668
0.0020785758
0.0022485944
0.0024124545
0.0025632177
0.0026989066
0.0028190596
0.0029235337
0.0030129065
0.0030887197
0.0031531592
0.0032092043
0.0032604693
0.0033105343
0.003361843
0.0034143362
0.0034645363
0.0035057776
0.0035292877
0.0035251534
0.0034832054
0.0033936729
0.0032481322
0.003042554
0.0027751852
0.0024492637
0.0021045332
0.0020985325
0.0025058182
0.0029521359
0.0033576833
0.0036592731
0.0038014867
0.0037562434
0.0035267439
0.0031677329
0.0027905304
0.0028035895
0.0032923701
0.0036724241
0.0038712787
0.0038895897
0.0037006522
0.003297946
0.002784288
0.0023221758
0.0023161207
0.0025865713
0.0029498346
0.0034419642
0.0040997162
0.0049420392
0.0059607395
0.0071200137
0.0083535995
0.0095652315
0.010633386
0.011422751
0.011809103
0.011722788
0.01114477
0.010148293
0.0088942542
0.0075857176
0.0064087745
0.0054752662
0.0048096846
0.0043912818
0.0041472523
0.0039822167
0.0039209134
0.0040981481
0.0045409566
0.0050943371
0.0055772603
0.0059146959
0.0061274883
0.0062740067
0.0064104653
0.0065825175
0.0068072899
0.0070440355
0.0071838101
0.0070737321
0.0065612237
0.0055387816
0.0040682089
0.0025456436
0.0034784001
0.0050992049
0.0067591742
0.0083171833
0.0095762926
0.010337905
0.0094151129
0.0077536035
0.0069748268
0.0064426864
0.0061493097
0.0060234494
0.0060194003
0.0061162189
0.006312163
0.0065846777
0.0069292638
0.0073712753
0.0079701595
0.0086989371
0.0094857181
0.010297761
0.01110649
0.011886433
0.012614868
0.013265049
0.013769115
0.014046972
0.014078652
0.013923202
0.013631026
0.013196429
0.01263899
0.011970553
0.011194927
0.010322088
0.0093671889
0.008285926
0.0069608255
0.0053016249
0.003457775
0.0056045959
0.010193809
0.016278535
0.023018379
0.033063406
0.034118339
0.058531633
0.061023288
0.17538426
0.27540574
0.92466317
0.73590873
1.93465
0.66803965
0.88536423
0.31274036
0.19907809
0.074834687
0.051495564
0.024556505
0.018095805
0.012105937
0.0094759303
0.007585731
0.0063691201
0.0054147304
0.0046784361
0.0040997722
0.0036374276
0.0032684512
0.0029670652
0.0027050917
0.0024665673
0.0022481678
0.0020377876
0.001838062
0.0017994842
0.0018192716
0.0018400804
0.0018511234
0.001846424
0.001822936
0.0017764767
0.0017053229
0.0016118746
0.0015051344
0.0014000539
0.0013132617
0.0012751128
0.0012674767
0.0012426396
0.0012013591
0.0011576047
0.0011443916
0.0011709155
0.0012197576
0.0012922139
0.0013967597
0.0015617759
0.0017586031
0.0019317546
0.0020857969
0.0022163031
0.002319398
0.0023919943
0.0024325436
0.002441213
0.0024190105
0.0023707434
0.0023007234
0.0022227204
0.0021665233
0.0022605047
0.0024295348
0.0025917742
0.0027397458
0.0028716808
0.0029874855
0.0030874196
0.0031724076
0.003244222
0.003305193
0.0033583911
0.0034074674
0.0034559827
0.0035062912
0.0035581754
0.0036079663
0.0036488248
0.003671856
0.0036671011
0.0036244312