y,R_0,R_1,R_2,R_3,R_4,R_5
0.44811458,6.6666667e-11,0,0,6.6666667e-11,0,6.6666667e-11
0.44853872,5.4391861e-09,5.8097764e-14,1.9325355e-31,5.4387288e-09,-5.9469506e-32,5.4389575e-09
0.44897673,2.9680816e-09,2.4184575e-13,-2.2766679e-30,2.9661676e-09,1.2468954e-30,2.9671246e-09
0.44942898,8.8556547e-09,1.7186726e-12,2.3940356e-29,8.8419875e-09,-2.0481464e-29,8.8488213e-09
0.44989591,2.4734547e-08,8.5825267e-12,-2.7371489e-29,2.4665993e-08,2.7360698e-29,2.470027e-08
0.45037802,5.6807684e-08,3.1581097e-11,3.2670089e-28,5.6554264e-08,-2.1182151e-28,5.6680975e-08
0.45087578,1.1329623e-07,9.3785597e-11,-2.1198802e-27,1.1254007e-07,1.7282081e-27,1.1291815e-07
0.45138972,2.0444015e-07,2.3878593e-10,-2.0471158e-27,2.0250545e-07,1.1292417e-27,2.0347281e-07
0.45192035,3.4275583e-07,5.421323e-10,3.9800281e-27,3.3834108e-07,-4.6171775e-27,3.4054847e-07
0.45246821,5.4338349e-07,1.1269225e-09,5.6085351e-26,5.3415881e-07,-4.1688549e-26,5.3877118e-07
0.45303387,8.2450769e-07,2.1846346e-09,-6.4413222e-26,8.0652928e-07,5.8859663e-26,8.1551853e-07
0.4536179,1.2078534e-06,4.00252e-09,-1.7380381e-25,1.1747341e-06,1.2874517e-25,1.1912938e-06
0.4542209,1.7192685e-06,6.9991152e-09,1.1011593e-25,1.6610281e-06,-1.0540945e-25,1.6901485e-06
0.45484349,2.3894038e-06,1.1769677e-08,4.1414502e-25,2.2909032e-06,-2.9962741e-25,2.3401538e-06
0.4554863,3.2544981e-06,1.9143538e-08,-9.1711717e-25,3.0933411e-06,7.0929779e-25,3.1739201e-06
0.45614998,4.3572873e-06,3.0255581e-08,1.4792762e-24,4.1010485e-06,-1.2013793e-24,4.2291687e-06
0.45683523,5.7480464e-06,4.6634048e-08,-1.8431756e-25,5.3506567e-06,2.1334577e-25,5.5493527e-06
0.45754272,7.4857712e-06,7.0306813e-08,1.1150573e-25,6.8828679e-06,-1.8879971e-25,7.1843214e-06
0.4582732,9.6395041e-06,1.0392761e-07,5.132166e-24,8.7425247e-06,-3.9057458e-24,9.1910173e-06
0.45902739,1.2289793e-05,1.5092249e-07,-7.8512545e-24,1.0978577e-05,6.498773e-24,1.1634189e-05
0.45980608,1.5530255e-05,2.1565539e-07,-6.0259091e-24,1.3643914e-05,4.1712145e-24,1.458709e-05
0.46061006,1.9469197e-05,3.0360788e-07,1.6763377e-23,1.6795036e-05,-1.3245795e-23,1.8132125e-05
0.46144015,2.4231203e-05,4.215641e-07,-1.5267974e-23,2.0491525e-05,1.2841048e-23,2.2361375e-05
0.46229719,2.9958546e-05,5.7778657e-07,-1.5054756e-23,2.4795303e-05,1.0805357e-23,2.7376941e-05
0.46318206,3.6812244e-05,7.8215678e-07,4.722233e-23,2.9769662e-05,-3.7403099e-23,3.3290975e-05
0.46409567,4.4972457e-05,1.0462489e-06,-2.6716214e-23,3.5478068e-05,2.3652186e-23,4.0225293e-05
0.46503894,5.4637887e-05,1.3832881e-06,-9.145377e-23,4.198281e-05,6.9255232e-23,4.8310388e-05
0.46601284,6.6023754e-05,1.807934e-06,1.9854208e-22,4.9343558e-05,-1.5713553e-22,5.7683708e-05
0.46701837,7.9357876e-05,2.3358312e-06,-1.9255811e-22,5.7615991e-05,1.5647577e-22,6.8487e-05
0.46805654,9.4874393e-05,2.9828559e-06,8.5595782e-23,6.6850672e-05,-7.1828265e-23,8.0862616e-05
0.46912841,0.00011280482,3.7640072e-06,-8.2953413e-23,7.7092394e-05,7.0228742e-23,9.4948708e-05
0.47023509,0.00013336634,4.691938e-06,-1.9649369e-22,8.8380227e-05,1.5323119e-22,0.00011087341
0.4713777,0.00015674772,5.7751548e-06,1.082929e-22,0.00010074842,-9.390571e-23,0.00012874821
0.4725574,0.00018309365,7.0160149e-06,3.8082872e-22,0.00011422822,-3.0822292e-22,0.0001486611
0.4737754,0.00021248904,8.4087153e-06,6.006129e-22,0.00012885047,-4.7196596e-22,0.00017066993
0.47503293,0.00024494533,9.9375572e-06,-9.4905436e-23,0.00014464863,7.9294709e-23,0.00019479716
0.47633129,0.00028039097,1.1575825e-05,6.9290536e-22,0.0001616616,-5.5627442e-22,0.00022102645
0.4776718,0.00031866782,1.3285474e-05,-1.6167637e-22,0.00017993605,1.4995772e-22,0.00024930207
0.47905581,0.0003595349,1.5017823e-05,-1.0846779e-21,0.00019952747,8.7335561e-22,0.00027953127
0.48048475,0.00040267939,1.6715272e-05,-7.370818e-22,0.00022049977,5.9564273e-22,0.00031158958
0.48196006,0.00044773387,1.8313837e-05,-2.328224e-21,0.00024292331,1.8675363e-21,0.00034532849
0.48348326,0.00049429764,1.9746259e-05,-5.8445551e-22,0.00026687168,4.2566018e-22,0.00038058443
0.48505589,0.0005419593,2.094518e-05,1.7077715e-21,0.00029241755,-1.351993e-21,0.00041718802
0.48667956,0.00059031802,2.184612e-05,-3.9285118e-21,0.00031962823,3.1847884e-21,0.00045497253
0.48835591,0.00063900144,2.2389989e-05,3.2759791e-21,0.0003485616,-2.7735834e-21,0.00049378072
0.49008666,0.00068767879,2.2524847e-05,1.2965049e-20,0.0003792626,-1.0515184e-20,0.00053346967
0.49187358,0.00073606885,2.2206968e-05,4.7737171e-21,0.00041176092,-3.7178037e-21,0.00057391363
0.49371847,0.00078394314,2.140114e-05,-1.0315122e-20,0.00044606975,8.4531393e-21,0.00061500492
0.49562322,0.00083112505,2.0080409e-05,-5.6418474e-21,0.00048218575,4.5359479e-21,0.00065665363
0.49758976,0.0008774861,1.8225476e-05,-8.103796e-21,0.00052009047,6.5485142e-21,0.00069878627
0.4996201,0.00092294015,1.5823676e-05,6.2571354e-21,0.0005597522,-5.2505555e-21,0.00074134388
0.5017163,0.00096743682,1.2867787e-05,2.0600294e-20,0.00060112866,-1.6809439e-20,0.00078428019
0.5038805,0.0010109546,9.3550152e-06,-3.9029072e-21,0.00064417025,3.3451837e-21,0.00082755966
0.5061149,0.0010534946,5.2859067e-06,-1.9494867e-20,0.00068882295,1.5982619e-20,0.00087115569
0.50842177,0.001095074,6.6307512e-07,1.4703888e-21,0.00073503108,-1.4032267e-21,0.00091504923
0.51080345,0.0011357217,-4.5092319e-06,2.6564332e-20,0.00078274006,-2.1886492e-20,0.00095922752
0.51326237,0.0011754749,-1.0225572e-05,-1.354839e-20,0.00083189835,1.1357374e-20,0.0010036831
0.51580103,0.0012143744,-1.6480539e-05,-2.274119e-20,0.00088245918,1.8688067e-20,0.0010484131
0.518422,0.0012524627,-2.326881e-05,1.6328105e-20,0.00093438158,-1.3580052e-20,0.0010934183
0.52112796,0.0012897824,-3.0585183e-05,-2.5888602e-20,0.00098763094,2.1650812e-20,0.0011387028
0.52392164,0.0013263754,-3.8424523e-05,-1.0608952e-20,0.0010421798,8.6640597e-21,0.0011842738
0.52680589,0.0013622814,-4.6782105e-05,2.9811782e-20,0.0010980076,-2.4949434e-20,0.0012301406
0.52978363,0.001397537,-5.5653855e-05,3.2733687e-20,0.001155101,-2.7362622e-20,0.001276315
0.53285789,0.0014321764,-6.5035694e-05,-1.624584e-20,0.0012134529,1.3788481e-20,0.0013228105
0.53603179,0.0014662301,-7.4924097e-05,-1.6946387e-20,0.001273063,1.4140076e-20,0.0013696423
0.53930855,0.0014997249,-8.5315869e-05,-1.7883093e-20,0.0013339367,1.5215142e-20,0.001416827
0.54269148,0.0015326864,-9.6206562e-05,-6.5548718e-20,0.0013960853,5.5446172e-20,0.0014643826
0.54618404,0.0015651374,-0.00010759116,8.6805179e-21,0.0014595255,-7.4082793e-21,0.0015123283
0.54978974,0.0015970964,-0.00011946525,5.1852732e-20,0.0015242784,-4.4003536e-20,0.0015606843
0.55351226,0.0016285794,-0.00013182374,8.2095709e-21,0.0015903697,-6.8375427e-21,0.0016094717
0.55735535,0.0016595998,-0.00014466055,1.7891766e-20,0.0016578296,-1.5386415e-20,0.0016587126
0.56132292,0.0016901703,-0.00015796737,5.6025877e-20,0.0017266924,-4.8139084e-20,0.00170843
0.56541898,0.0017203012,-0.00017173467,-2.4896074e-20,0.0017969958,2.147963e-20,0.0017586476
0.56964768,0.0017499997,-0.00018595234,-3.6598393e-20,0.0018687811,3.1514327e-20,0.00180939
0.57177824,0.0017642856,-0.00019310602,-3.0080386e-20,0.0019045599,2.6029276e-20,0.0018344228
0.57401358,0.0017792822,-0.00020059907,-2.3241765e-20,0.0019421032,2.0274212e-20,0.0018606931
0.57852108,0.0018081539,-0.00021565875,-5.0057706e-20,0.0020170108,4.3756958e-20,0.0019125837
0.5831745,0.0018366086,-0.00023112185,1.5445087e-20,0.0020935465,-1.3408953e-20,0.0019650797
0.58797853,0.0018646485,-0.00024696879,1.6803069e-20,0.0021717658,-1.4514306e-20,0.0020182101
0.59293802,0.0018922745,-0.00026317743,3.8932155e-20,0.0022517283,-3.436973e-20,0.0020720052
0.59805799,0.0019194876,-0.00027972241,-1.4838912e-20,0.0023334977,1.3501486e-20,0.0021264975
0.60334361,0.0019462894,-0.00029657556,-3.4176078e-21,0.0024171418,2.9137324e-21,0.0021817213
0.60880021,0.0019726817,-0.0003137064,6.2703739e-21,0.0025027334,-5.268129e-21,0.002237714
0.6144333,0.0019986684,-0.00033108251,7.3478341e-21,0.0025903505,-6.8517473e-21,0.0022945166
0.62024856,0.0020242567,-0.00034866989,5.1498847e-20,0.0026800776,-4.6464883e-20,0.002352175
0.62625185,0.0020494593,-0.00036643489,-5.5820459e-20,0.0027720064,5.0688848e-20,0.0024107411
0.63244922,0.0020742966,-0.00038434653,-1.577919e-20,0.0028662366,1.4232358e-20,0.0024702752
0.63884691,0.0020988016,-0.00040237933,-4.8522456e-20,0.0029628785,4.5128475e-20,0.0025308487
0.64545136,0.0021230255,-0.00042051872,-1.0437168e-20,0.0030620542,1.0129815e-20,0.0025925481
0.65226923,0.0021470462,-0.00043876903,7.4742051e-20,0.0031638994,-6.9258817e-20,0.0026554802
0.65930735,0.0021709804,-0.00045716411,5.5986998e-20,0.0032685674,-5.2881851e-20,0.00271978
0.66657282,0.0021950023,-0.00047578339,-8.3593011e-21,0.0033762333,7.8395203e-21,0.0027856218
0.67407292,0.0022193704,-0.00049477547,-7.3017991e-20,0.003487098,6.9273074e-20,0.0028532348
0.6818152,0.0022444664,-0.00051439148,2.8132777e-20,0.0036013967,-2.6596782e-20,0.0029229271
0.68980741,0.0022708526,-0.00053503625,1.5936457e-20,0.0037194123,-1.5283813e-20,0.00299512
0.69805757,0.002299341,-0.00055735887,-3.1795844e-20,0.0038415078,3.0382348e-20,0.0030704014
0.70657395,0.0023311627,-0.00058235074,3.683188e-20,0.0039681238,-3.5686805e-20,0.0031496131
0.71536509,0.0023682052,-0.00061148484,6.7988367e-21,0.0040998209,-6.9404701e-21,0.003233996
0.72443978,0.0024132705,-0.00064687896,-1.2616979e-20,0.004237484,1.2216868e-20,0.0033254078
0.73380709,0.0024702597,-0.00069126659,-2.8461499e-20,0.004382539,2.9951705e-20,0.0034264903
0.74347641,0.0025434764,-0.00074800522,2.3295909e-20,0.0045373834,-2.4104356e-20,0.0035405159
0.75345737,0.0026358213,-0.00082180079,4.1441636e-20,0.0047064027,-4.3245448e-20,0.003670999
0.76375996,0.002748901,-0.00092009011,-2.0693369e-20,0.0048966403,2.0960743e-20,0.0038223487
0.77439444,0.0028877062,-0.001055299,-1.243964e-20,0.0051179894,1.4161492e-20,0.004002544
0.78537141,0.0030651185,-0.0012515421,1.6805018e-22,0.0053875135,-1.4466046e-21,0.0042269819
0.79670181,0.0033107449,-0.0015381264,-2.2622388e-21,0.0057351669,4.161324e-21,0.0045246034
0.80839692,0.0037072792,-0.0018958695,-8.0143731e-21,0.0061959463,1.2701081e-20,0.0049524999
0.82046836,0.004342035,-0.0023156204,7.7469927e-21,0.0068601176,-1.4185824e-20,0.0056002308
0.83292813,0.0052221074,-0.0028734382,6.6357296e-21,0.0078492299,1.8281658e-21,0.0065348339
0.84578859,0.0062961674,-0.0036080108,-1.0086536e-20,0.0091353623,1.0441742e-21,0.0077158417
0.85906251,0.0074659271,-0.0044595195,-6.1300395e-21,0.010523358,-5.0510694e-21,0.0089945705
0.87276303,0.0086110372,-0.0053231348,3.4670222e-20,0.01179824,6.9573908e-21,0.0102049
0.88690372,0.009645939,-0.0060972802,-3.7003835e-21,0.012824511,-6.2233638e-22,0.011236166
0.90149857,0.010545229,-0.006660902,-7.0501056e-20,0.013543213,-4.1586644e-21,0.012044719
0.91656199,0.011319462,-0.0069549185,4.805073e-22,0.0139769,-1.6365579e-21,0.012648065
0.93210885,0.011991696,-0.0070630508,1.0841156e-19,0.014230394,6.2750927e-22,0.013110696
0.94815449,0.012609568,-0.0070989351,2.9867715e-20,0.014425034,1.8752748e-21,0.013516996
0.96471471,0.013246266,-0.0071322559,-1.7227043e-19,0.014665048,1.1217982e-21,0.013955508
0.9818058,0.01397842,-0.0072085507,1.7673515e-20,0.015033994,-1.8618551e-21,0.014506085
0.99944456,0.014852789,-0.0073565208,1.6778492e-19,0.015576063,-1.259338e-21,0.015214329
1.0176483,0.015867728,-0.0075706985,-1.8540409e-19,0.016281993,2.9833437e-21,0.01607483
1.0364349,0.016978663,-0.0078227921,-1.3578353e-19,0.017102288,3.6012413e-22,0.017040485
1.0558227,0.018119933,-0.0080815867,2.4871767e-19,0.017973348,-3.2235661e-21,0.018046675
1.0758308,0.019227211,-0.0083258138,3.9779654e-20,0.018839111,1.7589684e-22,0.019033172
1.0964785,0.020249523,-0.0085486876,8.5888388e-22,0.019659926,3.022189e-22,0.019954577
1.1177862,0.021151235,-0.0087520557,3.250714e-20,0.020410818,-2.0214038e-22,0.020780717
1.1397745,0.021911631,-0.0089375186,-8.1014631e-20,0.021077051,8.1491863e-22,0.021494083
1.1624649,0.022524502,-0.0090990503,-1.9297621e-19,0.021650121,1.2119561e-21,0.022087316
1.1858794,0.022996803,-0.009223377,-3.8364608e-20,0.0221256,4.5285594e-23,0.022561517
1.2100408,0.023345122,-0.0093023219,2.9764176e-19,0.022503109,-1.8307798e-21,0.022924532
1.2349723,0.023587981,-0.0093378232,-4.9973943e-20,0.022785471,-2.1792241e-22,0.023186972
1.2606983,0.02373971,-0.0093376175,2.0297022e-19,0.022977057,-5.5523534e-22,0.023358458
1.2872435,0.023810091,-0.0093102389,1.091491e-19,0.023082839,-2.5186656e-22,0.023446433
1.3146335,0.023808717,-0.0092625238,4.9694705e-20,0.023109995,8.1224294e-23,0.023459305
1.3209797,0.023793239,-0.0092479446,8.1671207e-20,0.023098947,8.5927155e-23,0.023446059
1.3428965,0.023738167,-0.0091971761,1.8071481e-19,0.023058857,1.3155092e-22,0.023398538
1.3720585,0.023592805,-0.0091124518,-3.996663e-19,0.022921986,1.0617283e-21,0.023257399
1.4021469,0.023374531,-0.0090076196,-2.9661456e-19,0.022700103,-5.2028557e-22,0.023037293
1.4331904,0.023088419,-0.0088816965,5.1357682e-19,0.022398307,-3.1863544e-22,0.022743369
1.4652188,0.022735807,-0.0087318721,-2.7162508e-19,0.022019017,1.0003743e-21,0.022377424
1.4982627,0.022317827,-0.0085553646,-4.3773029e-19,0.021565417,-4.3249123e-22,0.021941631
1.5323536,0.021836276,-0.0083497893,3.17761e-19,0.021042377,-6.9219357e-22,0.021439333
1.567524,0.021293961,-0.0081133088,7.936606e-20,0.02045633,6.155839e-22,0.020875148
1.6038071,0.02069498,-0.0078447202,-2.6614594e-19,0.019814888,-3.9477971e-22,0.020254936
1.6412376,0.020044965,-0.0075433603,-5.8683372e-21,0.019126394,-6.9086385e-22,0.019585663
1.6798508,0.019351241,-0.0072089953,4.1017722e-19,0.018398772,4.5725692e-22,0.018875178
1.7196831,0.0186233,-0.0068407914,1.9961999e-19,0.017640161,1.0032756e-21,0.018131936
1.7607723,0.01787087,-0.0064503243,5.3683554e-20,0.016871242,6.4810294e-22,0.017370634
1.8018234,0.017107056,-0.0060688367,-1.3387701e-19,0.016130971,2.2671345e-22,0.016618575
1.8415466,0.016354158,-0.0057119876,-2.7396296e-19,0.015446163,-9.6653699e-22,0.015900352
1.8799862,0.015633142,-0.0053701871,-1.0457916e-19,0.014814716,-1.1024037e-21,0.015224082
1.9171848,0.014951296,-0.0050387332,2.0746187e-19,0.01422748,8.2049179e-22,0.014589325
1.9531836,0.014308308,-0.0047196985,-5.2327165e-20,0.013680519,1.6811824e-22,0.013994367
1.9880224,0.013703753,-0.004413629,4.639485e-20,0.013171605,5.0979365e-22,0.013437639
2.0217396,0.01313645,-0.0041209067,-2.9164368e-19,0.012697919,-2.0383045e-22,0.01291715
2.0543721,0.012604449,-0.0038416742,-5.7222092e-19,0.01225627,-3.7290504e-21,0.012430321
2.0859558,0.012105564,-0.0035757487,3.1504995e-19,0.011843528,-1.5845816e-21,0.011974504
2.116525,0.011637602,-0.0033227958,8.8872166e-19,0.011456765,4.3355216e-21,0.011547145
2.1377609,0.011322374,-0.0031501967,3.5068641e-19,0.01119588,3.369948e-21,0.011259093
2.1461135,0.011198397,-0.0030823257,1.3673679e-19,0.011093337,2.9902607e-21,0.011145834
2.1747538,0.010785861,-0.0028537126,-2.2420855e-19,0.01075087,-1.3858088e-22,0.010768343
2.2024761,0.01039812,-0.0026363573,-2.1588814e-19,0.01042719,-1.1688207e-21,0.010412628
2.2293103,0.010033334,-0.002429612,-1.0733422e-19,0.010120438,-8.7085872e-22,0.010076851
2.2552856,0.0096897869,-0.0022327668,-4.8725072e-20,0.0098289942,2.4547724e-22,0.0097593672
2.2804299,0.0093660093,-0.0020451462,-2.6198276e-19,0.0095514618,-2.1709618e-21,0.0094587109
2.3047701,0.0090605745,-0.0018661018,3.6028687e-19,0.0092866418,5.5570396e-23,0.0091735842
2.3283326,0.0087722167,-0.0016949884,3.0560644e-19,0.0090335077,2.466128e-21,0.0089028415
2.3511425,0.0084998011,-0.0015311918,-1.076029e-19,0.0087911931,-2.8149401e-22,0.0086454747
2.3732242,0.0082422541,-0.0013740992,1.896198e-19,0.0085589794,7.9189726e-22,0.0084006005
2.3946014,0.0079986504,-0.0012233096,-7.2764653e-20,0.0083362916,6.6992305e-22,0.0081674626
2.4152968,0.0077681989,-0.0010783332,-1.2107133e-19,0.0081226236,1.790178e-22,0.0079454035
2.4353325,0.0075501441,-0.00093856962,-2.6696006e-19,0.007917503,-1.0297094e-21,0.0077338135
2.4547298,0.0073437545,-0.00080369141,-8.7907295e-20,0.0077205583,-2.0069603e-21,0.0075321462
2.4735093,0.0071483859,-0.00067336913,2.2044365e-19,0.0075315091,1.0565238e-21,0.00733994
2.4916909,0.0069634898,-0.00054728173,-1.4138944e-19,0.0073501248,3.2154173e-22,0.007156799
2.5092939,0.0067885726,-0.00042515407,-1.3827743e-20,0.0071762143,-5.008642e-22,0.0069823789
2.526337,0.0066231629,-0.00030672186,1.3260044e-20,0.0070096268,-7.6353678e-22,0.0068163805
2.542838,0.0064668658,-0.00019180169,1.9084259e-19,0.0068502439,5.8615312e-22,0.0066585445
2.5588145,0.0063193333,-8.0219118e-05,9.5065625e-21,0.0066979739,1.5438991e-21,0.0065086469
2.5742833,0.0061802647,2.820344e-05,-1.7519737e-19,0.0065527475,-1.5259158e-21,0.0063664945
2.5892607,0.006049358,0.00013360668,2.0225131e-19,0.0064145146,-2.980482e-22,0.0062319214
2.6037624,0.0059263485,0.00023608374,3.9335779e-20,0.00628324,1.8142908e-21,0.0061047858
2.6178038,0.0058110365,0.00033569737,-1.4593194e-19,0.0061589001,3.0644649e-23,0.0059849657
2.6313994,0.005703238,0.00043255283,-4.7596632e-20,0.0060414803,-1.5713758e-21,0.0058723567
2.6445637,0.0056027776,0.00052672032,1.385492e-19,0.0059309713,-2.2758522e-22,0.0057668682
2.6573104,0.0055094826,0.00061822459,6.5632873e-20,0.0058273664,1.0629173e-21,0.0056684199
2.6696528,0.0054232282,0.00070711282,-3.0490359e-20,0.005730658,1.7996758e-22,0.0055769389
2.6816039,0.0053438902,0.0007934199,2.0351011e-20,0.0056408343,-5.7114993e-23,0.0054923559
2.6931762,0.0052713328,0.00087715848,-9.5129739e-21,0.0055578761,3.9873318e-22,0.0054146015
2.7043818,0.0052054612,0.0009583327,-5.7598085e-20,0.0054817533,-3.5009411e-22,0.0053436023
2.7152323,0.0051461455,0.0010369725,2.4382916e-20,0.0054124211,-7.2922358e-22,0.0052792777
2.7257392,0.0050932644,0.0011131003,6.5238143e-20,0.0053498171,8.3835999e-22,0.0052215351
2.7359133,0.0050466864,0.0011866905,-7.8975517e-20,0.0052938574,1.8521696e-22,0.0051702673
2.7457652,0.005006267,0.0012577662,5.3962109e-21,0.005244434,-2.3023681e-22,0.0051253485
2.7553053,0.0049718602,0.0013263659,-3.3456183e-20,0.0052014121,1.272914e-22,0.0050866312
2.7645435,0.0049432721,0.0013924702,-1.5882098e-20,0.005164628,-1.2176419e-21,0.0050539442
2.7734893,0.0049202992,0.00145608,1.1943744e-19,0.0051338876,1.1255291e-21,0.0050270903
2.782152,0.0049027301,0.0015172256,-1.2690531e-19,0.005108966,2.0850373e-21,0.0050058457
2.7905407,0.0048903181,0.0015759468,-1.71048e-19,0.0050896083,-2.0861914e-21,0.0049899598
2.7986642,0.0048827853,0.0016322423,9.5129508e-20,0.0050755307,-2.3046481e-21,0.0049791566
2.8065307,0.0048798591,0.0016861397,1.2691984e-19,0.0050664341,8.7288761e-22,0.0049731466
2.8141485,0.0048812043,0.0017376989,1.1869236e-20,0.0050619571,1.8528451e-21,0.0049715802
2.8215254,0.0048864165,0.0017868958,-8.2400391e-20,0.0050616704,3.6436528e-23,0.0049740436
2.8286692,0.0048952858,0.0018338102,-7.0694859e-21,0.0050653329,-8.6234301e-22,0.0049803095
2.8355872,0.004907542,0.0018785356,1.3919244e-20,0.0050726431,3.4794411e-23,0.0049900923
2.8422866,0.0049227504,0.0019210728,-8.2327873e-21,0.0050831284,3.8874224e-23,0.0050029372
2.8487743,0.0049405524,0.0019614891,6.4899183e-21,0.0050964064,1.3371995e-22,0.005018478
2.8550571,0.0049606147,0.0019998541,-1.8210886e-20,0.0051121067,4.1329076e-23,0.005036361
2.8611414,0.004982619,0.0020362403,7.5248967e-22,0.0051298708,-7.4180752e-22,0.0050562442
2.8670335,0.00500625,0.0020707424,4.9794376e-20,0.0051493566,2.0042684e-22,0.0050778011
2.8727395,0.0050312101,0.0021034385,-1.2340734e-20,0.0051702421,3.7889843e-22,0.0051007244
2.8782654,0.0050572297,0.0021344069,1.0910601e-20,0.0051922287,3.9585653e-22,0.0051247288
2.8836168,0.0050840638,0.0021637346,-4.3729936e-20,0.0052150428,5.7481322e-22,0.0051495535
2.8887992,0.005111489,0.0021915449,-4.0484671e-20,0.0052384384,-1.072018e-21,0.0051749634
2.893818,0.0051393034,0.0022179395,4.4450587e-20,0.0052621973,-1.4850994e-22,0.0052007497
2.8986784,0.0051673319,0.0022429862,-2.1015507e-20,0.0052861294,4.8543373e-22,0.0052267306
2.9033854,0.0051954289,0.0022668064,8.0957646e-22,0.0053100722,-7.5370987e-22,0.0052527502
2.9079439,0.0052234669,0.0022895208,3.7442488e-20,0.0053338902,4.0075244e-22,0.0052786778
2.9123585,0.0052513418,0.0023112224,-2.7233856e-20,0.0053574733,1.3776677e-22,0.0053044067
2.9166338,0.0052789708,0.0023320051,2.2297731e-20,0.0053807348,-1.4396122e-21,0.005329852
2.9207742,0.0053062884,0.0023519639,7.9197733e-20,0.0054036097,3.71522e-22,0.005354949
2.924784,0.0053332483,0.0023711979,-2.1064798e-21,0.0054260523,1.7229748e-21,0.0053796508
2.9286673,0.0053598167,0.0023898042,-4.6820388e-20,0.005448034,2.0672599e-22,0.0054039263
2.9324281,0.005385973,0.0024078608,-1.7588804e-20,0.0054695406,-6.0542458e-22,0.0054277574
2.9360703,0.0054117031,0.0024254317,-2.8143466e-21,0.0054905696,-3.0369052e-22,0.0054511369
2.9395976,0.0054370028,0.0024425973,3.3239636e-21,0.0055111284,-8.5627544e-23,0.0054740659
2.9430137,0.0054618725,0.0024594232,2.819007e-21,0.0055312311,4.2992687e-22,0.0054965516
2.946322,0.0054863135,0.0024759488,-2.3272781e-20,0.0055508962,-5.2284613e-23,0.0055186047
2.949526,0.005510331,0.0024922144,5.099769e-21,0.0055701443,-4.336225e-22,0.0055402376
2.952629,0.0055339273,0.0025082543,5.0998484e-21,0.0055889958,2.5578222e-22,0.0055614615
2.9556341,0.0055571015,0.0025240884,-9.9377582e-21,0.0056074684,-9.9963561e-24,0.0055822847
2.9585445,0.005579847,0.0025397231,4.6457592e-21,0.005625575,-5.0189032e-22,0.0056027108
2.9613632,0.0056021508,0.0025551551,1.8509414e-20,0.0056433218,2.9224199e-22,0.0056227362
2.964093,0.005623991,0.0025703669,-1.1043102e-20,0.0056607061,5.4783025e-22,0.0056423484
2.9667367,0.0056453349,0.0025853292,-1.2390446e-20,0.0056777144,-3.1422682e-22,0.0056615244
2.9692971,0.0056661378,0.0026000014,6.1847704e-21,0.0056943206,-7.5531198e-23,0.0056802289
2.9717768,0.0056863419,0.0026143262,-6.8041835e-21,0.0057104847,3.1859887e-23,0.0056984131
2.9741784,0.0057058749,0.0026282348,3.6616785e-21,0.0057261509,-3.1629483e-22,0.0057160127
2.9765042,0.005724649,0.0026416461,9.0560454e-21,0.0057412462,2.6917206e-22,0.0057329477
2.9787568,0.0057425599,0.0026544622,-9.0849328e-21,0.0057556824,8.7615962e-23,0.0057491207
2.9809383,0.0057594865,0.0026665735,3.7112141e-21,0.0057693585,-1.5025736e-22,0.0057644168
2.9830511,0.0057752913,0.0026778571,-1.0926618e-21,0.0057821298,2.6920357e-22,0.0057787035
2.9850974,0.0057898598,0.0026895648,-8.1168313e-21,0.0057937862,-6.5772174e-23,0.0057918304
2.9870791,0.0058030858,0.0026985439,1.5927356e-21,0.0058040745,-2.455763e-22,0.0058035947
2.9889984,0.0058147264,0.0027033841,2.6648257e-21,0.0058127312,-5.593468e-24,0.0058137301
2.9908573,0.0058243128,0.0027071698,1.6045194e-21,0.0058194462,5.9995461e-23,0.005821873
2.9926575,0.0058312585,0.0027098006,1.2146037e-22,0.005823816,9.759044e-23,0.0058275337
2.9944011,0.0058349588,0.002711012,-2.0396933e-21,0.005825328,-1.6601904e-23,0.0058301421
2.9960897,0.005834801,0.0027105225,5.4612584e-22,0.0058233856,-2.3912933e-22,0.0058290926
2.9977251,0.0058301081,0.0027080155,6.048056e-21,0.0058172999,-1.7332685e-22,0.0058237034
2.999309,0.0058201431,0.0027031437,5.9004546e-21,0.005806312,8.2575611e-23,0.0058132272
3.000843,0.0058041795,0.0026955629,2.5768051e-21,0.0057896669,3.3882449e-22,0.0057969229
3.0023287,0.0057814634,0.0026849155,-4.8043104e-21,0.0057665773,5.0032982e-23,0.0057740201
3.0037676,0.0057511991,0.0026708239,4.3872751e-22,0.0057362107,-7.9761126e-23,0.0057437047
3.0051611,0.0057125646,0.002652898,-1.6645415e-21,0.0056977053,1.4373768e-22,0.0057051348
3.0065108,0.0056647131,0.0026307371,-3.3457209e-21,0.0056501728,-5.1098162e-23,0.0056574429
3.0078179,0.0056067758,0.0026039316,-1.1706733e-22,0.0055927022,-8.8075846e-23,0.0055997391
3.0090839,0.0055378642,0.0025720657,-6.1806022e-22,0.005524364,-1.5326698e-22,0.0055311143
3.01031,0.0054570729,0.0025347207,3.2123721e-21,0.005444215,-7.6178466e-24,0.0054506441
3.0114975,0.0053634826,0.0024914591,-1.8937335e-22,0.0053513026,2.1545714e-22,0.0053573927
3.0126476,0.0052561621,0.0024416903,-1.8024585e-21,0.0052446681,-6.4591307e-23,0.0052504154
3.0137614,0.0051341842,0.0023850039,9.8305773e-22,0.0051233627,-5.8654911e-23,0.0051287738
3.0148402,0.0049966498,0.0023211329,-2.3031314e-22,0.0049864735,1.0751334e-22,0.0049915619
3.015885,0.0048427121,0.0022496604,-1.1006995e-21,0.0048331496,-2.3336677e-23,0.0048379311
3.0168969,0.0046716151,0.0021702204,1.7947258e-22,0.0046626379,-8.2062543e-23,0.0046671266
3.017877,0.0044827436,0.0020825198,4.0040807e-22,0.0044743314,-2.7931476e-23,0.0044785375
3.0188261,0.0042756895,0.0019863665,5.3874819e-22,0.0042678335,7.3673141e-23,0.0042717613
3.0197454,0.004050334,0.0018817055,-6.409568e-22,0.0040430361,-6.7670237e-24,0.0040466852
3.0206357,0.0038069405,0.0017686607,3.9449313e-22,0.0038002122,-7.4975539e-23,0.003803578
3.021498,0.0035462472,0.0016475766,4.2711484e-22,0.0035401169,4.0935094e-23,0.0035431815
3.0223332,0.0032693969,0.0015182554,-1.5894066e-22,0.003263917,5.9967328e-23,0.0032666537
3.023142,0.0029777134,0.0013724921,-2.7998535e-22,0.0029729623,1.5582506e-23,0.0029753377
3.0239254,0.0026736595,0.0012117637,-2.3452816e-22,0.0026696741,-5.0658034e-23,0.002671668
3.0246841,0.0023617037,0.0010466038,2.1750302e-22,0.0023584509,-1.53108e-23,0.0023600772
3.0254189,0.0020479466,0.00088076924,-4.9811625e-24,0.0020453705,3.528974e-23,0.0020466584
3.0261306,0.0017397593,0.00071961433,-1.110948e-22,0.0017377863,-1.6124659e-23,0.0017387728
3.0268199,0.0014452257,0.00056893698,8.2650102e-23,0.001443768,-1.675094e-23,0.0014444969
3.0274874,0.0011722643,0.00043412678,3.5212046e-23,0.0011712274,1.0964639e-23,0.0011717459
3.028134,0.00092757846,0.00031919933,-1.4082093e-23,0.00092686884,5.0875213e-24,0.00092722369
3.0287602,0.0007157129,0.00022605906,-5.5598195e-24,0.0007152458,-3.1184576e-25,0.00071547937
3.0293667,0.00053852226,0.00015430036,-4.6259916e-24,0.00053822647,-1.3227817e-24,0.00053837437
3.029954,0.0003952131,0.00010161709,2.5394425e-24,0.00039503292,1.6067683e-25,0.00039512301
3.0305229,0.00028289036,6.4601978e-05,-1.9694649e-24,0.0002827849,3.2544226e-26,0.00028283763
3.0310739,0.00019736386,3.9585333e-05,6.4192426e-25,0.00019730475,-6.9042804e-25,0.0001973343
3.0316075,0.00013394473,2.3246609e-05,9.7690424e-25,0.00013391328,1.7462269e-25,0.000133929
3.0321244,8.8060202e-05,1.2916925e-05,-1.7426843e-25,8.804454e-05,2.3589855e-25,8.805237e-05
3.0326249,5.5639001e-05,6.6301098e-06,-1.702441e-25,5.5631899e-05,-4.3719822e-26,5.563545e-05
3.0331097,3.3299855e-05,3.0209873e-06,2.9989192e-26,3.3297047e-05,-2.0242548e-26,3.3298451e-05
3.0335792,1.8397452e-05,1.15131e-06,-2.179602e-27,1.8396544e-05,9.4447501e-27,1.8396998e-05
3.034034,8.9661886e-06,3.3810993e-07,-3.6346578e-27,8.9659692e-06,-2.1903271e-27,8.9660787e-06
3.0344744,3.5764191e-06,6.8516157e-08,7.8213553e-28,3.5763842e-06,-4.4203944e-28,3.5764017e-06
3.034901,1.1273484e-06,8.3887822e-09,-3.0179289e-30,1.1273454e-06,6.3265643e-29,1.1273469e-06
3.0353141,1.0308702e-06,9.2007654e-10,-4.1157383e-31,1.03087e-06,-3.7722411e-31,1.0308701e-06
3.0357143,6.6666667e-11,0,0,6.6666667e-11,0,6.6666667e-11
