/*--------------------------------*- C++ -*----------------------------------*\
| =========                 |                                                 |
| \\      /  F ield         | OpenFOAM: The Open Source CFD Toolbox           |
|  \\    /   O peration     | Version:  2.4.0                                 |
|   \\  /    A nd           | Web:      www.OpenFOAM.org                      |
|    \\/     M anipulation  |                                                 |
\*---------------------------------------------------------------------------*/
FoamFile
{
    version     2.0;
    format      ascii;
    class       surfaceScalarField;
    location    "320";
    object      phi;
}
// * * * * * * * * * * * * * * * * * * * * * * * * * * * * * * * * * * * * * //

dimensions      [0 3 -1 0 0 0 0];

internalField   nonuniform List<scalar> 
63640
(
5.4400131e-07
-3.5289529e-08
5.487642e-07
-4.762886e-09
5.3796466e-07
1.0799549e-08
3.7822356e-07
1.5974111e-07
1.5960143e-07
2.1862214e-07
-5.8583282e-08
2.1818472e-07
-1.7163715e-07
1.1305388e-07
-1.7594038e-07
4.3032329e-09
-1.4001821e-07
-3.5922161e-08
-1.1347501e-07
-2.6543201e-08
-9.8376868e-08
-1.5098138e-08
-8.6788281e-08
-1.1588588e-08
-7.5636949e-08
-1.1151331e-08
-6.3713753e-08
-1.1923197e-08
-5.0768043e-08
-1.2945669e-08
-3.7966442e-08
-1.2801634e-08
-2.6366062e-08
-1.1600357e-08
-1.6136122e-08
-1.0229975e-08
-6.6240882e-09
-9.512026e-09
2.0941239e-09
-8.7182252e-09
1.0073855e-08
-7.9797263e-09
1.7209298e-08
-7.1354403e-09
2.3356495e-08
-6.1471953e-09
2.856687e-08
-5.2103752e-09
3.2485268e-08
-3.918399e-09
3.4633594e-08
-2.1483291e-09
3.4276088e-08
3.5750333e-10
3.104356e-08
3.2325221e-09
2.5366249e-08
5.6773073e-09
1.8503106e-08
6.863138e-09
1.2360655e-08
6.142446e-09
8.2900385e-09
4.0706103e-09
6.2185298e-09
2.0715127e-09
5.6945539e-09
5.2396303e-10
6.6470448e-09
-9.5248346e-10
8.9852658e-09
-2.3382328e-09
1.245509e-08
-3.4698141e-09
1.6587728e-08
-4.1326548e-09
2.0969365e-08
-4.3816295e-09
2.5268243e-08
-4.2988956e-09
2.9084091e-08
-3.8158437e-09
3.2254995e-08
-3.1709244e-09
3.465891e-08
-2.403909e-09
3.6035322e-08
-1.3764302e-09
3.638047e-08
-3.4514533e-10
3.6221442e-08
1.5900976e-10
3.5240337e-08
9.8110723e-10
3.2050535e-08
3.1897856e-09
2.7100805e-08
4.949731e-09
2.1533565e-08
5.5672216e-09
1.599031e-08
5.5432537e-09
1.1140981e-08
4.8493137e-09
7.5934523e-09
3.5475167e-09
5.8877555e-09
1.7056898e-09
6.4438071e-09
-5.5606522e-10
9.4674712e-09
-3.0236697e-09
1.491566e-08
-5.4482104e-09
2.2494164e-08
-7.5785033e-09
3.1723071e-08
-9.2289292e-09
4.2051945e-08
-1.0328865e-08
5.2946311e-08
-1.0894376e-08
6.3926316e-08
-1.0980007e-08
7.4585337e-08
-1.0659029e-08
8.4597047e-08
-1.0011718e-08
9.3723564e-08
-9.1265334e-09
1.0182026e-07
-8.0967004e-09
1.0883008e-07
-7.0098362e-09
1.1477272e-07
-5.9426401e-09
1.1972136e-07
-4.9486567e-09
1.2377513e-07
-4.053765e-09
1.2703263e-07
-3.2575027e-09
1.2957005e-07
-2.5374177e-09
1.314378e-07
-1.8677596e-09
1.3267475e-07
-1.2369635e-09
1.3332544e-07
-6.5070146e-10
1.3344077e-07
-1.1533498e-10
1.3305176e-07
3.8898755e-10
1.3210683e-07
9.4493097e-10
1.3035697e-07
1.7498344e-09
1.2718064e-07
3.1763332e-09
1.2136783e-07
5.8127904e-09
1.109073e-07
1.0460534e-08
9.2896322e-08
1.8010953e-08
6.378305e-08
2.9113275e-08
2.0321426e-08
4.3461614e-08
-3.8489248e-08
5.8810673e-08
-1.0996877e-07
7.1479517e-08
-1.8817357e-07
7.820479e-08
-2.6650211e-07
7.8328525e-08
-3.4086084e-07
7.4358715e-08
-4.1024278e-07
6.9381921e-08
-4.7509978e-07
6.485696e-08
-5.3565148e-07
6.0551688e-08
-5.9160346e-07
5.5951902e-08
-6.4275922e-07
5.1155781e-08
-6.8940114e-07
4.6641867e-08
-7.3231488e-07
4.2913782e-08
-7.7256656e-07
4.0251599e-08
-8.1111379e-07
3.8547267e-08
-8.4854224e-07
3.7428395e-08
-8.8497029e-07
3.6428117e-08
-9.2003543e-07
3.5065122e-08
-9.5300426e-07
3.296884e-08
-9.8297472e-07
2.9970427e-08
-1.0090827e-06
2.6108023e-08
-1.0304088e-06
2.1326062e-08
-1.0458934e-06
1.5484656e-08
-1.0542978e-06
8.4043598e-09
-1.0540285e-06
-2.692587e-10
-1.0430271e-06
-1.1001458e-08
-1.0186504e-06
-2.4376627e-08
-9.7745923e-07
-4.1191241e-08
-9.1508283e-07
-6.2376383e-08
-8.2634831e-07
-8.873454e-08
-7.053732e-07
-1.2097508e-07
-5.4975913e-07
-1.5561409e-07
-3.6584616e-07
-1.8391296e-07
-1.4874965e-07
-2.1709654e-07
1.1215119e-07
-2.6090082e-07
4.1599897e-07
-3.0384781e-07
7.5455407e-07
-3.3855507e-07
1.108743e-06
-3.54189e-07
1.4486304e-06
-3.3988734e-07
1.7361504e-06
-2.875201e-07
1.931247e-06
-1.9509647e-07
2.0032625e-06
-7.2015557e-08
1.938943e-06
6.4319464e-08
1.7472133e-06
1.9172976e-07
1.4632301e-06
2.8398313e-07
1.1408092e-06
3.2242092e-07
8.3540832e-07
3.0540092e-07
5.8672221e-07
2.4868604e-07
4.0576776e-07
1.809545e-07
2.6976867e-07
1.3599905e-07
1.3222138e-07
1.3754735e-07
-3.5968008e-08
1.6818942e-07
-2.1027409e-07
1.7430606e-07
-3.3136308e-07
1.2108892e-07
-3.5790231e-07
2.6539288e-08
-2.91359e-07
-6.6543356e-08
-1.601241e-07
-1.3123483e-07
2.3391705e-09
-1.6246329e-07
1.6918814e-07
-1.6684894e-07
3.2014621e-07
-1.5095812e-07
4.4017174e-07
-1.2002548e-07
5.2498863e-07
-8.4816906e-08
5.871977e-07
-6.2209016e-08
6.4646697e-07
-5.9269271e-08
7.0760403e-07
-6.113703e-08
7.4547979e-07
-3.7875715e-08
7.1809622e-07
2.7383558e-08
5.9687126e-07
1.2122502e-07
4.4194189e-07
1.5492932e-07
3.439069e-07
9.8034987e-08
2.3611354e-07
1.0779337e-07
1.2678409e-07
1.0932945e-07
3.2208939e-08
9.4575169e-08
-6.0389472e-08
9.2598418e-08
-1.4845745e-07
8.8067982e-08
-2.3234598e-07
8.3888542e-08
-3.1366821e-07
8.1322235e-08
-3.9191365e-07
7.8245446e-08
-4.6615351e-07
7.423986e-08
-5.3677619e-07
7.0622692e-08
-6.0919202e-07
7.2415834e-08
-6.8695779e-07
7.7765777e-08
-7.6368351e-07
7.6725723e-08
-8.3380779e-07
7.0124286e-08
-8.9510658e-07
6.129879e-08
-9.4609603e-07
5.0989459e-08
-9.8619317e-07
4.0097142e-08
-1.0153945e-06
2.9201351e-08
-1.0324827e-06
1.7088236e-08
-1.0322659e-06
-2.1686229e-10
-1.0110471e-06
-2.1218731e-08
-9.7070033e-07
-4.0346811e-08
-9.1818301e-07
-5.2517321e-08
-8.5651946e-07
-6.1663547e-08
-7.8718719e-07
-6.9332266e-08
-7.1206758e-07
-7.5119605e-08
-6.3242166e-07
-7.9645919e-08
-5.4894615e-07
-8.3475499e-08
-4.6296987e-07
-8.5976281e-08
-3.7491339e-07
-8.8056469e-08
-2.8129862e-07
-9.3614764e-08
-1.7435035e-07
-1.0694823e-07
-2.649497e-08
-1.4785539e-07
1.5840958e-07
-1.8490449e-07
3.6695377e-07
-2.0854423e-07
6.1963965e-07
-2.5268587e-07
9.2763587e-07
-3.0799622e-07
1.280049e-06
-3.5241308e-07
1.599204e-06
-3.19155e-07
1.7286149e-06
-1.2941095e-07
1.613471e-06
1.1514389e-07
1.3474582e-06
2.6601284e-07
1.0295788e-06
3.1787939e-07
7.7001891e-07
2.5955986e-07
5.5362522e-07
2.1639369e-07
4.4913429e-08
1.7740734e-06
-1.2537896e-07
1.7673278e-06
1.9827463e-09
1.7415876e-06
3.653977e-08
1.2396286e-06
6.6170008e-07
5.5377221e-07
9.0447859e-07
-1.4704129e-07
9.1899823e-07
-5.2832329e-07
4.9433588e-07
-5.5755041e-07
3.3530364e-08
-4.4834314e-07
-1.4512942e-07
-3.6425142e-07
-1.1063492e-07
-3.1558815e-07
-6.3761399e-08
-2.7844871e-07
-4.8728029e-08
-2.4276634e-07
-4.6833704e-08
-2.0484953e-07
-4.9840003e-08
-1.6383458e-07
-5.396057e-08
-1.2325858e-07
-5.3377677e-08
-8.6468021e-08
-4.8390888e-08
-5.4000214e-08
-4.2697825e-08
-2.3916704e-08
-3.9595527e-08
3.6866718e-09
-3.6321617e-08
2.8923794e-08
-3.3216841e-08
5.1540163e-08
-2.9751807e-08
7.1060203e-08
-2.5667232e-08
8.764956e-08
-2.1799733e-08
1.0023333e-07
-1.6502167e-08
1.0726422e-07
-9.1792307e-09
1.0642426e-07
1.1974653e-09
9.6439413e-08
1.3217359e-08
7.8547247e-08
2.3569469e-08
5.6607784e-08
2.8802593e-08
3.6648654e-08
2.6101569e-08
2.3124595e-08
1.759466e-08
1.6020903e-08
9.1752078e-09
1.3942099e-08
2.6027512e-09
1.6622512e-08
-3.6328886e-09
2.3804445e-08
-9.52018e-09
3.4693376e-08
-1.4358735e-08
4.7811884e-08
-1.7251183e-08
6.1853394e-08
-1.8423132e-08
7.5751668e-08
-1.8197192e-08
8.8222303e-08
-1.6286477e-08
9.8737077e-08
-1.3685723e-08
1.0691778e-07
-1.0584604e-08
1.1191152e-07
-6.3701918e-09
1.1368787e-07
-2.1214995e-09
1.1385605e-07
-9.1950056e-12
1.1136326e-07
3.4738968e-09
1.0210498e-07
1.2448047e-08
8.7275576e-08
1.9779135e-08
7.0418666e-08
2.2424108e-08
5.3537773e-08
2.2424143e-08
3.8727214e-08
1.9659852e-08
2.7906887e-08
1.4367826e-08
2.2784161e-08
6.828406e-09
2.4699283e-08
-2.4712061e-09
3.431463e-08
-1.2639025e-08
5.1506485e-08
-2.2640093e-08
7.5351923e-08
-3.1423942e-08
1.043431e-07
-3.8220138e-08
1.3674347e-07
-4.2729221e-08
1.708634e-07
-4.5014322e-08
2.0518073e-07
-4.5297337e-08
2.3839922e-07
-4.3877527e-08
2.6947114e-07
-4.1083649e-08
2.9762332e-07
-3.7278732e-08
3.2237209e-07
-3.2845475e-08
3.4350884e-07
-2.814661e-08
3.6106601e-07
-2.3499815e-08
3.7524834e-07
-1.9131002e-08
3.8634902e-07
-1.5154444e-08
3.9466983e-07
-1.1578326e-08
4.0045945e-07
-8.3270347e-09
4.0390296e-07
-5.3112679e-09
4.0516751e-07
-2.5015352e-09
4.0445589e-07
6.0907317e-11
4.0200571e-07
2.3348338e-09
3.9801165e-07
4.3830207e-09
3.9243291e-07
6.5236659e-09
3.8464023e-07
9.5424903e-09
3.7287869e-07
1.493787e-08
3.5359631e-07
2.5095153e-08
3.2076421e-07
4.3292626e-08
2.6553698e-07
7.323816e-08
1.7685115e-07
1.1779911e-07
4.4197098e-08
1.7611566e-07
-1.3642614e-07
2.3943391e-07
-3.5793558e-07
2.9298895e-07
-6.0290603e-07
3.2317523e-07
-8.5092108e-07
3.2634355e-07
-1.0883336e-06
3.1177127e-07
-1.3106952e-06
2.9174349e-07
-1.5183766e-06
2.7253829e-07
-1.7115268e-06
2.5370181e-07
-1.8890325e-06
2.3345754e-07
-2.0502295e-06
2.1235276e-07
-2.196021e-06
1.9243332e-07
-2.3289312e-06
1.7582408e-07
-2.4524079e-06
1.637282e-07
-2.5696066e-06
1.5574598e-07
-2.6825309e-06
1.5035263e-07
-2.7916926e-06
1.4558986e-07
-2.8960514e-06
1.3942389e-07
-2.9933531e-06
1.3027063e-07
-3.0808086e-06
1.1742582e-07
-3.1556714e-06
1.0097088e-07
-3.2150013e-06
8.0655932e-08
-3.2554286e-06
5.5912031e-08
-3.2730189e-06
2.5994588e-08
-3.2627255e-06
-1.056263e-08
-3.2180867e-06
-5.5640307e-08
-3.1308701e-06
-1.1159313e-07
-2.9904706e-06
-1.8159084e-07
-2.7835241e-06
-2.6932285e-07
-2.4945035e-06
-3.7775518e-07
-2.10598e-06
-5.0949852e-07
-1.6126937e-06
-6.4890038e-07
-1.0294223e-06
-7.6718438e-07
-3.4093172e-07
-9.0558715e-07
4.792369e-07
-1.0810694e-06
1.4271607e-06
-1.2517716e-06
2.476612e-06
-1.3880063e-06
3.568555e-06
-1.4461321e-06
4.6117572e-06
-1.3830895e-06
5.4913701e-06
-1.167133e-06
6.0870077e-06
-7.9073403e-07
6.3065897e-06
-2.9159752e-07
6.109439e-06
2.6147013e-07
5.5193365e-06
7.8183222e-07
4.639228e-06
1.1640917e-06
3.6318079e-06
1.329841e-06
2.668675e-06
1.2685339e-06
1.8758821e-06
1.0414788e-06
1.2906236e-06
7.6621314e-07
8.4448681e-07
5.8213576e-07
3.9885623e-07
5.8317801e-07
-1.2610384e-07
6.9314952e-07
-6.4745671e-07
6.9565889e-07
-9.9140565e-07
4.6503778e-07
-1.0458637e-06
8.0997427e-08
-8.2222104e-07
-2.901861e-07
-4.0860154e-07
-5.4485424e-07
9.4044434e-08
-6.6510928e-07
6.0536383e-07
-6.781683e-07
1.0653534e-06
-6.1094775e-07
1.4301644e-06
-4.8483636e-07
1.6884342e-06
-3.4308673e-07
1.8786297e-06
-2.5240446e-07
2.0559959e-06
-2.366355e-07
2.2296821e-06
-2.3482315e-07
2.3160114e-06
-1.2420496e-07
2.1887987e-06
1.5459623e-07
1.7655227e-06
5.4450109e-07
1.2602599e-06
6.6019204e-07
9.4318866e-07
4.1510623e-07
6.142257e-07
4.3675635e-07
2.7417492e-07
4.4938022e-07
-1.8457304e-08
3.8720742e-07
-3.0620515e-07
3.8034627e-07
-5.7976109e-07
3.6162393e-07
-8.4123985e-07
3.4536731e-07
-1.0944394e-06
3.3452181e-07
-1.3382348e-06
3.2204081e-07
-1.5693419e-06
3.0534703e-07
-1.789678e-06
2.9095872e-07
-2.0154234e-06
2.9816127e-07
-2.2556684e-06
3.1801076e-07
-2.4913105e-06
3.1236789e-07
-2.7052396e-06
2.8405336e-07
-2.8906136e-06
2.4667281e-07
-3.0430989e-06
2.0347475e-07
-3.1610281e-06
1.5802634e-07
-3.244454e-06
1.1262731e-07
-3.289232e-06
6.1866254e-08
-3.2803643e-06
-9.0845612e-09
-3.2069391e-06
-9.4643983e-08
-3.0753366e-06
-1.7194925e-07
-2.905794e-06
-2.2205991e-07
-2.7081589e-06
-2.592987e-07
-2.4868965e-06
-2.9059461e-07
-2.2478261e-06
-3.1419001e-07
-1.9947355e-06
-3.3273651e-07
-1.729892e-06
-3.4831906e-07
-1.4572369e-06
-3.5863135e-07
-1.1777312e-06
-3.6756212e-07
-8.8102453e-07
-3.9032144e-07
-5.4142983e-07
-4.4654288e-07
-7.1761706e-08
-6.1752352e-07
5.1064109e-07
-7.6730721e-07
1.1632459e-06
-8.6114909e-07
1.952674e-06
-1.042114e-06
2.9103603e-06
-1.2656825e-06
4.0022162e-06
-1.444269e-06
4.9888131e-06
-1.3057519e-06
5.4111957e-06
-5.5179352e-07
5.0929647e-06
4.3337483e-07
4.300949e-06
1.0580285e-06
3.325954e-06
1.2928744e-06
2.521536e-06
1.0639778e-06
1.821863e-06
9.1606667e-07
1.8279245e-07
3.2326054e-06
-2.5638142e-07
3.2015128e-06
3.3075284e-08
3.1548195e-06
8.3233126e-08
2.2736837e-06
1.5428359e-06
1.0599127e-06
2.1182495e-06
-2.0306833e-07
2.1819793e-06
-9.1716193e-07
1.2084295e-06
-9.9345642e-07
1.0982485e-07
-8.0628525e-07
-3.3230057e-07
-6.5666482e-07
-2.6025535e-07
-5.6885427e-07
-1.5157195e-07
-5.0201261e-07
-1.1556969e-07
-4.3791883e-07
-1.1092748e-07
-3.7004416e-07
-1.1771467e-07
-2.9677202e-07
-1.2723267e-07
-2.2424758e-07
-1.2590216e-07
-1.5845138e-07
-1.1418706e-07
-1.0038473e-07
-1.0076451e-07
-4.6698865e-08
-9.3281386e-08
2.5666235e-09
-8.5587119e-08
4.7585744e-08
-7.8235955e-08
8.798097e-08
-7.014703e-08
1.2289413e-07
-6.0580387e-08
1.5263245e-07
-5.1538052e-08
1.7533599e-07
-3.9205707e-08
1.8822592e-07
-2.2069166e-08
1.8715927e-07
2.2641056e-09
1.6972283e-07
3.06538e-08
1.3794433e-07
5.5347964e-08
9.8538357e-08
6.8208555e-08
6.223623e-08
6.2403691e-08
3.7219466e-08
4.2611417e-08
2.3746913e-08
2.2647765e-08
1.9385485e-08
6.9641643e-09
2.3615865e-08
-7.8632606e-09
3.6009798e-08
-2.1914126e-08
5.5179147e-08
-3.3528073e-08
7.8504172e-08
-4.0576226e-08
1.0366385e-07
-4.3582806e-08
1.2875066e-07
-4.3284017e-08
1.5145786e-07
-3.8993671e-08
1.7082757e-07
-3.3055456e-08
1.8619766e-07
-2.5954692e-08
1.9602259e-07
-1.6195144e-08
2.0021331e-07
-6.3122145e-09
2.0154808e-07
-1.3439853e-09
1.9813258e-07
6.8893984e-09
1.829278e-07
2.7652813e-08
1.578295e-07
4.4877433e-08
1.2900683e-07
5.1246761e-08
9.9982374e-08
5.1448593e-08
7.4443104e-08
4.5199104e-08
5.5791916e-08
3.3019001e-08
4.7063947e-08
1.5556365e-08
5.0657118e-08
-6.0643925e-09
6.7767429e-08
-2.9749343e-08
9.8194851e-08
-5.306754e-08
1.4031518e-07
-7.3544273e-08
1.9146545e-07
-8.9370432e-08
2.4856921e-07
-9.9832972e-08
3.0862672e-07
-1.0507184e-07
3.6892764e-07
-1.0559827e-07
4.271542e-07
-1.0210409e-07
4.8142191e-07
-9.535137e-08
5.3032612e-07
-8.6182959e-08
5.7296888e-07
-7.5488233e-08
6.0893739e-07
-6.4115142e-08
6.3824538e-07
-5.2807805e-08
6.612172e-07
-4.2102841e-08
6.7834451e-07
-3.2281753e-08
6.9015095e-07
-2.3384772e-08
6.9709176e-07
-1.5267843e-08
6.9953718e-07
-7.7566955e-09
6.978534e-07
-8.1777292e-10
6.9249495e-07
5.4193438e-09
6.8400048e-07
1.0829288e-08
6.7285943e-07
1.5524056e-08
6.5917683e-07
2.0206255e-08
6.4206129e-07
2.6658018e-08
6.1869303e-07
3.8306124e-08
5.8314806e-07
6.0640104e-08
5.2518316e-07
1.0125752e-07
4.2955475e-07
1.6886655e-07
2.7684609e-07
2.7050776e-07
4.8050834e-08
4.0491091e-07
-2.6509943e-07
5.5258418e-07
-6.5198968e-07
6.7987919e-07
-1.0836198e-06
7.5480532e-07
-1.5244381e-06
7.6716188e-07
-1.9492903e-06
7.3662345e-07
-2.3484922e-06
6.9094531e-07
-2.721127e-06
6.4517309e-07
-3.0665941e-06
5.9916885e-07
-3.3826119e-06
5.4947531e-07
-3.6679477e-06
4.9768851e-07
-3.9242505e-06
4.4873606e-07
-4.1560909e-06
4.0766459e-07
-4.3697195e-06
3.7735669e-07
-4.570923e-06
3.5694954e-07
-4.7634665e-06
3.4289603e-07
-4.9484416e-06
3.3056506e-07
-5.1241392e-06
3.151215e-07
-5.2866521e-06
2.9278346e-07
-5.4311061e-06
2.6187984e-07
-5.5526125e-06
2.2247725e-07
-5.645909e-06
1.7395243e-07
-5.7049909e-06
1.1499393e-07
-5.722851e-06
4.3854684e-08
-5.6905236e-06
-4.2890009e-08
-5.5966364e-06
-1.4952752e-07
-5.4268168e-06
-2.8141273e-07
-5.1626865e-06
-4.4572115e-07
-4.7812911e-06
-6.5071819e-07
-4.2562703e-06
-9.0277601e-07
-3.5587076e-06
-1.2070612e-06
-2.68105e-06
-1.526558e-06
-1.6437049e-06
-1.8045295e-06
-4.2060295e-07
-2.1286891e-06
1.0260985e-06
-2.5277709e-06
2.687261e-06
-2.9129341e-06
4.5170462e-06
-3.2177915e-06
6.4131118e-06
-3.3421978e-06
8.2194034e-06
-3.1893811e-06
9.7407108e-06
-2.6884405e-06
1.0772514e-05
-1.8225367e-06
1.1157383e-05
-6.7646737e-07
1.0823511e-05
5.9534211e-07
9.8057177e-06
1.7996259e-06
8.2735419e-06
2.6962675e-06
6.503808e-06
3.0995749e-06
4.7956678e-06
2.976674e-06
3.3747494e-06
2.4623972e-06
2.3124975e-06
1.828465e-06
1.4948918e-06
1.3997414e-06
6.885483e-07
1.3895216e-06
-2.3251483e-07
1.6142127e-06
-1.1158719e-06
1.579016e-06
-1.6724085e-06
1.0215743e-06
-1.7285795e-06
1.3716844e-07
-1.3140006e-06
-7.0476503e-07
-5.8244063e-07
-1.2764141e-06
2.9348631e-07
-1.5410362e-06
1.177619e-06
-1.562301e-06
1.969524e-06
-1.4028527e-06
2.5964523e-06
-1.1117646e-06
3.0409362e-06
-7.8757069e-07
3.368265e-06
-5.797332e-07
3.6669298e-06
-5.3530031e-07
3.9444237e-06
-5.1231696e-07
4.0482874e-06
-2.2806864e-07
3.76212e-06
4.4076358e-07
2.9550015e-06
1.3516197e-06
2.0322498e-06
1.5829436e-06
1.4600362e-06
9.8731989e-07
8.891243e-07
1.0076682e-06
2.950859e-07
1.0434186e-06
-2.1575458e-07
8.9804791e-07
-7.1875823e-07
8.8334993e-07
-1.1972997e-06
8.4016543e-07
-1.6556349e-06
8.0370253e-07
-2.0993811e-06
7.78268e-07
-2.5268018e-06
7.494615e-07
-2.9319731e-06
7.1051836e-07
-3.3189697e-06
6.7795527e-07
-3.7151916e-06
6.9438318e-07
-4.1343951e-06
7.3721429e-07
-4.5437068e-06
7.2167957e-07
-4.9134566e-06
6.5380318e-07
-5.231734e-06
5.6495021e-07
-5.4912256e-06
4.629664e-07
-5.6891577e-06
3.5595837e-07
-5.825573e-06
2.4904262e-07
-5.8928672e-06
1.2916048e-07
-5.8658789e-06
-3.6072818e-08
-5.7264309e-06
-2.3409202e-07
-5.4863529e-06
-4.120272e-07
-5.1798056e-06
-5.2860721e-07
-4.8243028e-06
-6.1480151e-07
-4.4276046e-06
-6.8729277e-07
-3.99981e-06
-7.4198459e-07
-3.5474373e-06
-7.8510924e-07
-3.0745188e-06
-8.2123762e-07
-2.5876821e-06
-8.4546796e-07
-2.0881877e-06
-8.6705659e-07
-1.5580379e-06
-9.2047124e-07
-9.5005849e-07
-1.0545222e-06
-1.0941397e-07
-1.458168e-06
9.2604281e-07
-1.8027639e-06
2.0797645e-06
-2.0148708e-06
3.4717143e-06
-2.4340638e-06
5.1521675e-06
-2.9461356e-06
7.0587137e-06
-3.3508152e-06
8.7774984e-06
-3.0245366e-06
9.539925e-06
-1.3142201e-06
9.0372439e-06
9.3605595e-07
7.7018199e-06
2.3934525e-06
6.019535e-06
2.9751593e-06
4.6093787e-06
2.4741342e-06
3.3590805e-06
2.1663648e-06
4.4027006e-07
4.9507501e-06
-4.1048132e-07
4.8870405e-06
9.6784869e-08
4.8036911e-06
1.6658249e-07
3.5091136e-06
2.8374134e-06
1.7015784e-06
3.9257848e-06
-2.1177805e-07
4.0953358e-06
-1.3345139e-06
2.3311653e-06
-1.4870632e-06
2.6237419e-07
-1.2188866e-06
-6.0047712e-07
-9.9546922e-07
-4.8367277e-07
-8.6237382e-07
-2.8466734e-07
-7.6116927e-07
-2.1677424e-07
-6.6438905e-07
-2.077077e-07
-5.6220544e-07
-2.1989828e-07
-4.5211154e-07
-2.3732652e-07
-3.4311135e-07
-2.3490238e-07
-2.44168e-07
-2.131304e-07
-1.5686881e-07
-1.8806374e-07
-7.6287059e-08
-1.7386313e-07
-2.3601255e-09
-1.5951407e-07
6.5186655e-08
-1.4578273e-07
1.2586383e-07
-1.308242e-07
1.7838627e-07
-1.1310282e-07
2.2323656e-07
-9.638834e-08
2.5769539e-07
-7.3664538e-08
2.7759182e-07
-4.1965605e-08
2.7667745e-07
3.1784724e-09
2.5113058e-07
5.6200661e-08
2.0371777e-07
1.0276076e-07
1.4425442e-07
1.276719e-07
8.8798212e-08
1.1785989e-07
4.9964353e-08
8.1445266e-08
2.8560454e-08
4.4051666e-08
2.1036805e-08
1.4487797e-08
2.65612e-08
-1.338765e-08
4.4527568e-08
-3.9880507e-08
7.2904663e-08
-6.190516e-08
1.077838e-07
-7.5455378e-08
1.4569382e-07
-8.1492825e-08
1.8377371e-07
-8.1363925e-08
2.1854011e-07
-7.3760077e-08
2.4853102e-07
-6.3046387e-08
2.7276421e-07
-5.018788e-08
2.8889753e-07
-3.2328486e-08
2.9673861e-07
-1.4153298e-08
3.0031735e-07
-4.9227444e-09
2.968203e-07
1.0386444e-08
2.759867e-07
4.8486388e-08
2.4039964e-07
8.0464492e-08
1.9905589e-07
9.2590484e-08
1.5715899e-07
9.334549e-08
1.20165e-07
8.2193074e-08
9.3138475e-08
6.0045508e-08
8.0615704e-08
2.8079126e-08
8.6200935e-08
-1.1649643e-08
1.1171117e-07
-5.5259586e-08
1.5687927e-07
-9.8235673e-08
2.1930854e-07
-1.3597355e-07
2.9504935e-07
-1.6511126e-07
3.7952497e-07
-1.8430858e-07
4.6826165e-07
-1.9380854e-07
5.5720512e-07
-1.9454175e-07
6.4287342e-07
-1.877724e-07
7.2241897e-07
-1.7489693e-07
7.9369836e-07
-1.5746238e-07
8.5531369e-07
-1.3710357e-07
9.0658553e-07
-1.15387e-07
9.4746942e-07
-9.3691701e-08
9.7839152e-07
-7.302496e-08
1.0000437e-06
-5.3933951e-08
1.0131922e-06
-3.6533273e-08
1.01854e-06
-2.0615585e-08
1.0167061e-06
-5.9228652e-09
1.0083446e-06
7.5437248e-09
9.9427923e-07
1.9484703e-08
9.7549206e-07
2.9616444e-08
9.5292686e-07
3.8089233e-08
9.2699953e-07
4.6133581e-08
8.9670457e-07
5.6952953e-08
8.5825485e-07
7.675584e-08
8.033512e-07
1.1554374e-07
7.1736095e-07
1.8724776e-07
5.7819103e-07
3.0803645e-07
3.5718541e-07
4.9151338e-07
2.5527781e-08
7.3656853e-07
-4.3076494e-07
1.0088769e-06
-9.9864907e-07
1.2477633e-06
-1.6376429e-06
1.3937991e-06
-2.2957746e-06
1.4252936e-06
-2.9342849e-06
1.3751337e-06
-3.5361774e-06
1.2928378e-06
-4.0977387e-06
1.2067343e-06
-4.6167239e-06
1.118154e-06
-5.0892413e-06
1.0219926e-06
-5.513392e-06
9.2183921e-07
-5.8917481e-06
8.2709212e-07
-6.2313013e-06
7.4721783e-07
-6.5415875e-06
6.8764274e-07
-6.8315045e-06
6.4686654e-07
-7.1069511e-06
6.1834261e-07
-7.3697978e-06
5.9341179e-07
-7.6176744e-06
5.6299816e-07
-7.8448883e-06
5.1999737e-07
-8.0442705e-06
4.6126193e-07
-8.2085177e-06
3.8672449e-07
-8.3297327e-06
2.9516738e-07
-8.3989414e-06
1.842027e-07
-8.4056597e-06
5.0572961e-08
-8.3365325e-06
-1.1201723e-07
-8.1748114e-06
-3.1124863e-07
-7.8994938e-06
-5.5673024e-07
-7.4839193e-06
-8.612957e-07
-6.8951054e-06
-1.239532e-06
-6.095553e-06
-1.7023285e-06
-5.0452459e-06
-2.2573684e-06
-3.7340519e-06
-2.837752e-06
-2.1856591e-06
-3.3529222e-06
-3.6370359e-07
-3.9506447e-06
1.7759824e-06
-4.6674569e-06
4.2169302e-06
-5.3538819e-06
6.8930234e-06
-5.8938847e-06
9.6560868e-06
-6.1052613e-06
1.2283229e-05
-5.8165235e-06
1.4496821e-05
-4.9020327e-06
1.6005312e-05
-3.3310268e-06
1.6581346e-05
-1.252502e-06
1.6116735e-05
1.0599537e-06
1.4651517e-05
3.2648433e-06
1.2417608e-05
4.9301769e-06
9.8086133e-06
5.7085694e-06
7.2621442e-06
5.5231432e-06
5.1184833e-06
4.606058e-06
3.4947816e-06
3.4521668e-06
2.2349449e-06
2.6595781e-06
1.0103792e-06
2.6140874e-06
-3.4623145e-07
2.9708234e-06
-1.6032719e-06
2.8360564e-06
-2.3574709e-06
1.7757732e-06
-2.3853045e-06
1.6500209e-07
-1.7438334e-06
-1.3462361e-06
-6.5820381e-07
-2.3620437e-06
6.2328043e-07
-2.8225205e-06
1.9071132e-06
-2.8461337e-06
3.0525721e-06
-2.5483118e-06
3.9580628e-06
-2.0172553e-06
4.6008064e-06
-1.4303143e-06
5.0726805e-06
-1.0516072e-06
5.4921767e-06
-9.5479643e-07
5.8580072e-06
-8.7814749e-07
5.939206e-06
-3.0926739e-07
5.422491e-06
9.5747862e-07
4.1391388e-06
2.634972e-06
2.7220632e-06
3.0000191e-06
1.8557375e-06
1.8536456e-06
1.0193501e-06
1.8440557e-06
1.4832424e-07
1.9144444e-06
-6.0214873e-07
1.6485209e-06
-1.3412278e-06
1.622429e-06
-2.0453753e-06
1.544313e-06
-2.7207182e-06
1.4790454e-06
-3.3745982e-06
1.432148e-06
-4.0043657e-06
1.3792289e-06
-4.6014235e-06
1.3075762e-06
-5.1724489e-06
1.2489806e-06
-5.7562219e-06
1.2781562e-06
-6.3702365e-06
1.3512289e-06
-6.9666663e-06
1.3181093e-06
-7.5024656e-06
1.1896026e-06
-7.9602862e-06
1.0227708e-06
-8.3297824e-06
8.3246264e-07
-8.6071245e-06
6.3330047e-07
-8.7922241e-06
4.3414222e-07
-8.8737541e-06
2.1069044e-07
-8.8160377e-06
-9.3789166e-08
-8.5939254e-06
-4.5620434e-07
-8.2254679e-06
-7.8048466e-07
-7.7595915e-06
-9.944836e-07
-7.2220103e-06
-1.1523827e-06
-6.6241675e-06
-1.2851356e-06
-5.9807412e-06
-1.3854109e-06
-5.3011725e-06
-1.4646779e-06
-4.5913914e-06
-1.5310188e-06
-3.860766e-06
-1.5760933e-06
-3.110645e-06
-1.6171776e-06
-2.3143955e-06
-1.7167207e-06
-1.3994094e-06
-1.9695082e-06
-1.3511753e-07
-2.7224599e-06
1.4115825e-06
-3.3494639e-06
3.1248298e-06
-3.7281182e-06
5.1856888e-06
-4.4949228e-06
7.661838e-06
-5.4222849e-06
1.0457016e-05
-6.1459929e-06
1.2975213e-05
-5.542734e-06
1.4131411e-05
-2.4704184e-06
1.3474727e-05
1.5927403e-06
1.1589594e-05
4.2785856e-06
9.1589408e-06
5.4058124e-06
7.0788793e-06
4.5541957e-06
5.2161627e-06
4.0290814e-06
8.5978261e-07
6.9661354e-06
-5.6293105e-07
6.859144e-06
2.0377634e-07
6.7191351e-06
3.0659134e-07
4.9773714e-06
4.5791771e-06
2.5070497e-06
6.3961065e-06
-1.539475e-07
6.756333e-06
-1.7749808e-06
3.9521987e-06
-2.0419792e-06
5.293726e-07
-1.6918472e-06
-9.5060911e-07
-1.386063e-06
-7.8945702e-07
-1.200907e-06
-4.6982329e-07
-1.0601546e-06
-3.5752667e-07
-9.2596502e-07
-3.4189728e-07
-7.8469938e-07
-3.6116392e-07
-6.3280352e-07
-3.8922235e-07
-4.8238691e-07
-3.8531901e-07
-3.4576614e-07
-3.4975114e-07
-2.2525705e-07
-3.0857287e-07
-1.1418054e-07
-2.8493963e-07
-1.2316125e-08
-2.6137849e-07
8.0763022e-08
-2.3886187e-07
1.6447376e-07
-2.1453494e-07
2.3705584e-07
-1.8568489e-07
2.9920647e-07
-1.5853898e-07
3.4727451e-07
-1.2173258e-07
3.7552702e-07
-7.0218116e-08
3.7530152e-07
3.4039626e-09
3.4105238e-07
9.0449801e-08
2.761928e-07
1.6762033e-07
1.9387119e-07
2.099935e-07
1.1612807e-07
1.9560301e-07
6.0821718e-08
1.3675161e-07
2.9664369e-08
7.5209017e-08
1.792104e-08
2.6231114e-08
2.4381173e-08
-1.9847777e-08
4.8256873e-08
-6.3756218e-08
8.6825617e-08
-1.004739e-07
1.3473107e-07
-1.2336084e-07
1.8720275e-07
-1.3396451e-07
2.4030551e-07
-1.344667e-07
2.8921192e-07
-1.2266649e-07
3.3186682e-07
-1.057013e-07
3.669237e-07
-8.5244758e-08
3.9113426e-07
-5.6539058e-08
4.0414761e-07
-2.7166656e-08
4.1132144e-07
-1.2096591e-08
4.0884544e-07
1.2862449e-08
3.8294275e-07
7.4389055e-08
3.3684847e-07
1.2655878e-07
2.8257678e-07
1.4686215e-07
2.2717664e-07
1.4874562e-07
1.7805479e-07
1.3131491e-07
1.4212419e-07
9.5976096e-08
1.2560663e-07
4.4596684e-08
1.3347343e-07
-1.9516463e-08
1.6826026e-07
-9.0046426e-08
2.296484e-07
-1.5962383e-07
3.143998e-07
-2.2072495e-07
4.1714502e-07
-2.678565e-07
5.3164174e-07
-2.988053e-07
6.5177104e-07
-3.1393784e-07
7.7196987e-07
-3.1474059e-07
8.8743911e-07
-3.0324164e-07
9.9423067e-07
-2.816885e-07
1.0893437e-06
-2.5257546e-07
1.1707834e-06
-2.1854325e-07
1.2375306e-06
-1.8213417e-07
1.2894341e-06
-1.4559524e-07
1.3269976e-06
-1.1058846e-07
1.3511121e-06
-7.8048415e-08
1.3628092e-06
-4.8230408e-08
1.3630894e-06
-2.0895806e-08
1.3528988e-06
4.2676938e-09
1.3332911e-06
2.7151494e-08
1.3056054e-06
4.7170321e-08
1.2714395e-06
6.3782345e-08
1.2323837e-06
7.7144984e-08
1.1893622e-06
8.9155112e-08
1.1414347e-06
1.0488046e-07
1.0839736e-06
1.3421689e-07
1.0063288e-06
1.9318853e-07
8.8932557e-07
3.04251e-07
7.0357668e-07
4.9378531e-07
4.1025464e-07
7.8483542e-07
-3.0625763e-08
1.1774489e-06
-6.4037974e-07
1.6186309e-06
-1.40495e-06
2.0123336e-06
-2.272665e-06
2.2615141e-06
-3.1739105e-06
2.3265391e-06
-4.0540649e-06
2.2552881e-06
-4.8864242e-06
2.125197e-06
-5.6626323e-06
1.9829425e-06
-6.377676e-06
1.8331977e-06
-7.0255208e-06
1.6698373e-06
-7.6035211e-06
1.4998395e-06
-8.115419e-06
1.33899e-06
-8.571083e-06
1.2028818e-06
-8.9838846e-06
1.1004442e-06
-9.3663593e-06
1.0293413e-06
-9.7269363e-06
9.7891955e-07
-1.0068468e-05
9.3494379e-07
-1.0387929e-05
8.8245905e-07
-1.0677705e-05
8.0977311e-07
-1.0928112e-05
7.1166934e-07
-1.1129151e-05
5.877634e-07
-1.126997e-05
4.3598634e-07
-1.1338298e-05
2.5253008e-07
-1.1319729e-05
3.2004834e-08
-1.1196078e-05
-2.3566866e-07
-1.0944846e-05
-5.6248079e-07
-1.0537986e-05
-9.6358974e-07
-9.9401858e-06
-1.4590963e-06
-9.1081746e-06
-2.0715432e-06
-7.9932578e-06
-2.8172453e-06
-6.5448081e-06
-3.705818e-06
-4.7495074e-06
-4.6330527e-06
-2.6316855e-06
-5.4707441e-06
-1.4711058e-07
-6.4352196e-06
2.7487786e-06
-7.563346e-06
6.0313785e-06
-8.6364818e-06
9.6142961e-06
-9.4768022e-06
1.33022e-05
-9.7931657e-06
1.6805114e-05
-9.3194374e-06
1.9762686e-05
-7.8596041e-06
2.1794435e-05
-5.3627764e-06
2.2597711e-05
-2.0557773e-06
2.2021004e-05
1.6366604e-06
2.0101557e-05
5.18429e-06
1.7125966e-05
7.9057682e-06
1.3603936e-05
9.2305993e-06
1.0121112e-05
9.0059672e-06
7.1491599e-06
7.5780101e-06
4.8663871e-06
5.7349397e-06
3.0826542e-06
4.4433109e-06
1.3768478e-06
4.3198938e-06
-4.54674e-07
4.8023452e-06
-2.0931197e-06
4.4745021e-06
-3.0250546e-06
2.707708e-06
-2.9910022e-06
1.3094979e-07
-2.0851913e-06
-2.2520471e-06
-6.0973852e-07
-3.8374964e-06
1.1077776e-06
-4.5400366e-06
2.8160819e-06
-4.5544379e-06
4.3351163e-06
-4.0673463e-06
5.5344981e-06
-3.216637e-06
6.3865101e-06
-2.2823263e-06
7.0082273e-06
-1.6733244e-06
7.5436611e-06
-1.4902302e-06
7.9747983e-06
-1.3092846e-06
7.9821096e-06
-3.1657872e-07
7.1493406e-06
1.7902477e-06
5.2841777e-06
4.500135e-06
3.2870746e-06
4.9971221e-06
2.0831175e-06
3.0576027e-06
9.5641706e-07
2.9707561e-06
-2.148015e-07
3.085663e-06
-1.2270806e-06
2.6608e-06
-2.2238213e-06
2.6191697e-06
-3.175033e-06
2.4955247e-06
-4.0883103e-06
2.3923227e-06
-4.972544e-06
2.3163818e-06
-5.8238058e-06
2.2304907e-06
-6.6308694e-06
2.1146398e-06
-7.4034485e-06
2.0215598e-06
-8.1914757e-06
2.0661834e-06
-9.0150491e-06
2.1748023e-06
-9.8103051e-06
2.1133653e-06
-1.0520227e-05
1.8995244e-06
-1.1121715e-05
1.6242589e-06
-1.1601385e-05
1.3121323e-06
-1.1954508e-05
9.8642339e-07
-1.2180721e-05
6.6035519e-07
-1.2264775e-05
2.9474473e-07
-1.2160341e-05
-1.9822347e-07
-1.1835836e-05
-7.8070927e-07
-1.1316388e-05
-1.2999327e-06
-1.0666296e-05
-1.6445752e-06
-9.9199793e-06
-1.8986994e-06
-9.0929554e-06
-2.1121596e-06
-8.2047222e-06
-2.273644e-06
-7.2678e-06
-2.4016e-06
-6.2901294e-06
-2.5086894e-06
-5.2837831e-06
-2.5824396e-06
-4.2499444e-06
-2.6510163e-06
-3.1522851e-06
-2.81438e-06
-1.8880656e-06
-3.2337277e-06
-1.4319103e-07
-4.4673345e-06
1.9757975e-06
-5.4684524e-06
4.3084377e-06
-6.0607584e-06
7.1051834e-06
-7.2916685e-06
1.0448785e-05
-8.7658861e-06
1.4203622e-05
-9.9008299e-06
1.7587349e-05
-8.9264608e-06
1.9197084e-05
-4.080154e-06
1.8430062e-05
2.3597625e-06
1.6003297e-05
6.7053509e-06
1.2794118e-05
8.6149906e-06
9.982335e-06
7.3659791e-06
7.4456368e-06
6.5657796e-06
1.4917337e-06
9.3215186e-06
-6.8123146e-07
9.1573959e-06
3.6789903e-07
8.9359135e-06
5.2807376e-07
6.7138644e-06
6.8012263e-06
3.5091707e-06
9.6008002e-06
-5.5326712e-09
1.0271036e-05
-2.2303629e-06
6.177029e-06
-2.6613294e-06
9.6033902e-07
-2.2311816e-06
-1.3807568e-06
-1.8343147e-06
-1.1863239e-06
-1.589664e-06
-7.1447404e-07
-1.403616e-06
-5.4357464e-07
-1.2268188e-06
-5.1869443e-07
-1.041255e-06
-5.4672773e-07
-8.4214359e-07
-5.8833376e-07
-6.4493857e-07
-5.8252405e-07
-4.6570058e-07
-5.2898912e-07
-3.0764025e-07