/*--------------------------------*- C++ -*----------------------------------*\
| =========                 |                                                 |
| \\      /  F ield         | OpenFOAM: The Open Source CFD Toolbox           |
|  \\    /   O peration     | Version:  2.4.0                                 |
|   \\  /    A nd           | Web:      www.OpenFOAM.org                      |
|    \\/     M anipulation  |                                                 |
\*---------------------------------------------------------------------------*/
FoamFile
{
    version     2.0;
    format      ascii;
    class       volSymmTensorField;
    location    "320";
    object      R;
}
// * * * * * * * * * * * * * * * * * * * * * * * * * * * * * * * * * * * * * //

dimensions      [0 2 -2 0 0 0 0];

internalField   nonuniform List<symmTensor> 
32000
(
(0.02728465 -2.5826567e-07 -8.8877141e-27 0.027284645 -4.2595833e-27 0.027284647)
(0.0088225814 -7.1080391e-08 -4.4198998e-23 0.0088225813 -1.642067e-26 0.0088225813)
(0.022700646 -1.7418805e-07 -1.0835007e-22 0.022700666 2.9737885e-24 0.022700656)
(0.0082945447 -5.1821238e-08 -1.6194686e-23 0.0082945606 1.2340212e-24 0.0082945527)
(0.006202829 -2.03256e-08 -6.4727232e-24 0.0062028412 9.5635854e-25 0.0062028351)
(0.00036209893 -3.3024438e-10 -1.1008579e-25 0.00036209923 1.7705652e-26 0.00036209908)
(0.00084042346 1.5783256e-09 5.5949651e-25 0.00084042081 -2.2128273e-25 0.00084042213)
(7.8219303e-05 1.1520203e-09 5.0045172e-27 7.821645e-05 1.1992289e-26 7.8217873e-05)
(0.0002303442 6.8186288e-10 3.0284376e-25 0.00023034184 -1.9539646e-25 0.00023034302)
(0.00012757071 2.9909337e-10 1.6641807e-25 0.00012756933 -9.8731195e-26 0.00012757002)
(0.00012796962 1.7157258e-10 -6.7185414e-27 0.00012796858 -6.1049226e-27 0.0001279691)
(0.00010357712 1.0509295e-10 -3.0500824e-27 0.00010357632 -5.2002834e-27 0.00010357672)
(9.2630866e-05 6.6196976e-11 -1.6651703e-26 9.2630242e-05 -2.0577338e-26 9.2630553e-05)
(8.1830421e-05 4.2171317e-11 6.6246508e-27 8.1829953e-05 9.150077e-27 8.1830187e-05)
(7.4007743e-05 2.6307012e-11 5.1865216e-27 7.4007418e-05 5.9515615e-27 7.400758e-05)
(6.7684851e-05 1.6227018e-11 -6.9745797e-27 6.7684643e-05 -7.7312184e-27 6.7684747e-05)
(6.2858928e-05 9.9714466e-12 9.0265024e-27 6.2858805e-05 -3.4546832e-26 6.2858867e-05)
(5.9403532e-05 5.9777204e-12 9.1072452e-27 5.9403464e-05 -1.4344633e-26 5.9403498e-05)
(5.6813585e-05 2.938981e-12 -4.2312111e-27 5.6813555e-05 -1.0803411e-26 5.681357e-05)
(5.4658413e-05 5.9395389e-13 -4.449049e-27 5.4658408e-05 -6.5029575e-27 5.4658411e-05)
(5.2734123e-05 -1.30037e-12 -8.889212e-27 5.2734135e-05 -1.1150593e-26 5.2734129e-05)
(5.0969698e-05 -3.7142945e-12 6.7037622e-27 5.0969731e-05 8.0879368e-27 5.0969715e-05)
(4.9283016e-05 -6.2950033e-12 -1.4797965e-27 4.9283069e-05 -2.0161055e-27 4.9283043e-05)
(4.7636859e-05 -8.9163865e-12 -4.5070046e-27 4.763693e-05 -5.5322516e-27 4.7636895e-05)
(4.59689e-05 -1.1272448e-11 -6.2410786e-27 4.5968988e-05 -8.5876736e-27 4.5968944e-05)
(4.4252999e-05 -1.2962921e-11 5.0299903e-27 4.4253098e-05 6.1698439e-27 4.4253049e-05)
(4.2384048e-05 -1.354152e-11 1.0100221e-26 4.2384149e-05 1.3816706e-26 4.2384099e-05)
(4.037762e-05 -1.268076e-11 1.0914008e-26 4.0377712e-05 1.4001195e-26 4.0377666e-05)
(3.8373096e-05 -1.0617586e-11 -2.7882525e-27 3.8373169e-05 -3.4186515e-27 3.8373133e-05)
(3.64538e-05 -7.8361721e-12 2.262139e-27 3.6453851e-05 2.9458177e-27 3.6453825e-05)
(3.4640676e-05 -5.1351079e-12 2.2694162e-27 3.4640706e-05 2.8810201e-27 3.4640691e-05)
(3.2940719e-05 -3.2482872e-12 -2.7075254e-27 3.2940736e-05 -3.5635391e-27 3.2940727e-05)
(3.1361335e-05 -2.268252e-12 -2.0843687e-27 3.1361345e-05 -3.3464673e-27 3.136134e-05)
(2.9908321e-05 -1.8905062e-12 2.5023203e-28 2.9908329e-05 -8.7571219e-29 2.9908325e-05)
(2.8603817e-05 -2.1159307e-12 2.4305037e-27 2.8603825e-05 7.0940066e-27 2.8603821e-05)
(2.750654e-05 -3.1300607e-12 1.2180264e-27 2.750655e-05 6.4727791e-27 2.7506545e-05)
(2.6667649e-05 -5.1108073e-12 -4.3751446e-27 2.6667664e-05 -2.7497398e-27 2.6667657e-05)
(2.6028486e-05 -8.1239279e-12 -3.6396621e-27 2.6028506e-05 2.039281e-27 2.6028496e-05)
(2.5527579e-05 -1.1981389e-11 -2.4691386e-27 2.5527604e-05 -5.6384622e-27 2.5527591e-05)
(2.5159461e-05 -1.6575715e-11 1.338536e-27 2.515949e-05 3.0789323e-27 2.5159475e-05)
(2.4944572e-05 -2.1470482e-11 -2.5078046e-28 2.4944603e-05 -1.0613825e-27 2.4944588e-05)
(2.4912482e-05 -2.6124385e-11 -3.1161721e-28 2.4912513e-05 -1.1718603e-27 2.4912497e-05)
(2.5111187e-05 -3.0306536e-11 1.6719398e-28 2.5111215e-05 1.1069854e-27 2.5111201e-05)
(2.559807e-05 -3.3465851e-11 1.6037833e-29 2.5598093e-05 2.5941451e-28 2.5598081e-05)
(2.6509028e-05 -3.4986706e-11 1.9923087e-28 2.6509044e-05 1.3360153e-27 2.6509036e-05)
(2.8018073e-05 -3.5070638e-11 -2.5051072e-26 2.8018081e-05 1.3677015e-27 2.8018077e-05)
(3.1255552e-05 -3.4384726e-11 -2.4455996e-26 3.1255553e-05 1.1015657e-28 3.1255553e-05)
(3.5049011e-05 -3.1671705e-11 6.0570859e-31 3.5049011e-05 1.1834449e-31 3.5049011e-05)
(3.7558279e-05 -2.6292832e-11 5.6265541e-33 3.7558279e-05 -6.5744363e-31 3.7558279e-05)
(3.9675033e-05 -2.034045e-11 -4.439985e-34 3.9675033e-05 6.8083664e-31 3.9675033e-05)
(4.1483973e-05 -1.4669996e-11 -2.240912e-33 4.1483973e-05 -2.4212005e-31 4.1483973e-05)
(4.3094828e-05 -9.9227126e-12 5.1227182e-33 4.3094828e-05 -2.4475455e-31 4.3094828e-05)
(4.4539115e-05 -6.5012158e-12 -1.7932505e-33 4.4539115e-05 3.989951e-31 4.4539115e-05)
(4.5849244e-05 -4.5251629e-12 -3.48967e-33 4.5849244e-05 -1.2926812e-31 4.5849244e-05)
(4.7044293e-05 -4.0970302e-12 1.3215805e-33 4.7044293e-05 -1.1755861e-32 4.7044293e-05)
(4.8140061e-05 -5.3674302e-12 9.6774124e-34 4.8140061e-05 -9.299244e-32 4.8140061e-05)
(4.9148573e-05 -8.6949809e-12 -6.1774515e-27 4.9148573e-05 2.5962076e-29 4.9148573e-05)
(5.0079691e-05 -1.4609699e-11 -1.0387481e-26 5.0079691e-05 4.0794432e-29 5.0079691e-05)
(5.0941444e-05 -2.3656537e-11 8.3998294e-27 5.0941444e-05 -2.8224848e-29 5.0941444e-05)
(5.174067e-05 -3.6184986e-11 1.285768e-26 5.1740671e-05 -3.691668e-29 5.1740671e-05)
(5.2483271e-05 -5.2228913e-11 3.7105769e-26 5.2483272e-05 -8.8396435e-29 5.2483271e-05)
(5.317428e-05 -7.1449868e-11 5.079675e-26 5.317428e-05 -9.998662e-29 5.317428e-05)
(5.3818098e-05 -9.3160461e-11 -1.5347502e-33 5.3818098e-05 -8.1769585e-32 5.3818098e-05)
(5.4418624e-05 -1.1641377e-10 -2.1988536e-34 5.4418624e-05 1.4936151e-31 5.4418624e-05)
(5.4979288e-05 -1.4012548e-10 2.1892038e-33 5.4979288e-05 -2.586483e-31 5.4979288e-05)
(5.5503132e-05 -1.6323905e-10 -1.1639001e-32 5.5503133e-05 2.7380454e-31 5.5503133e-05)
(5.5992927e-05 -1.848591e-10 1.7766899e-33 5.5992928e-05 5.5240859e-32 5.5992927e-05)
(5.6451128e-05 -2.0434345e-10 -7.2558139e-26 5.6451129e-05 4.8655768e-29 5.6451129e-05)
(5.6879932e-05 -2.213353e-10 -1.5729724e-25 5.6879932e-05 8.8304523e-29 5.6879932e-05)
(5.7281352e-05 -2.3570971e-10 -8.3815773e-26 5.7281352e-05 4.0603773e-29 5.7281352e-05)
(5.7657211e-05 -2.474939e-10 1.8758879e-33 5.7657211e-05 5.7700684e-31 5.7657211e-05)
(5.8009207e-05 -2.5676239e-10 -6.3563248e-33 5.8009208e-05 -6.0196122e-31 5.8009207e-05)
(5.8338813e-05 -2.6357405e-10 -9.9261017e-34 5.8338813e-05 6.0094386e-31 5.8338813e-05)
(5.8647455e-05 -2.6796761e-10 -5.4465309e-33 5.8647455e-05 -4.069992e-31 5.8647455e-05)
(5.8936386e-05 -2.7004136e-10 1.1252453e-32 5.8936386e-05 3.5967974e-31 5.8936386e-05)
(5.9206757e-05 -2.6997999e-10 7.9478886e-33 5.9206757e-05 3.9192027e-32 5.9206757e-05)
(5.9459799e-05 -2.6801003e-10 9.5171118e-26 5.9459799e-05 -1.8354761e-29 5.9459799e-05)
(5.9696385e-05 -2.6425451e-10 9.3878966e-26 5.9696385e-05 -1.4576149e-29 5.9696385e-05)
(5.99178e-05 -2.5843223e-10 -9.0751019e-34 5.99178e-05 -4.0695563e-32 5.99178e-05)
(6.0124588e-05 -2.4939465e-10 -7.8190818e-33 6.0124588e-05 -2.8153095e-33 6.0124588e-05)
(6.0318044e-05 -2.3457752e-10 3.4193234e-34 6.0318044e-05 -3.0775339e-32 6.0318044e-05)
(6.0498115e-05 -2.0971744e-10 -7.4473867e-26 6.0498114e-05 -5.5682318e-29 6.0498115e-05)
(6.0664612e-05 -1.6964237e-10 -6.0263112e-26 6.0664611e-05 -1.0241376e-28 6.0664611e-05)
(6.0818765e-05 -1.1175798e-10 2.7727931e-33 6.0818763e-05 -1.3089376e-32 6.0818764e-05)
(6.0960962e-05 -4.3926274e-11 -6.8772669e-34 6.096096e-05 -2.1863246e-32 6.0960961e-05)
(6.1092061e-05 6.044039e-12 -3.4992437e-35 6.109206e-05 4.1199161e-32 6.1092061e-05)
(6.1212453e-05 1.044838e-10 -1.9571141e-33 6.1212449e-05 1.9101001e-32 6.1212451e-05)
(6.1323142e-05 3.4487118e-10 -3.3288058e-33 6.1323135e-05 -8.1465968e-32 6.1323139e-05)
(6.1421397e-05 7.4218367e-10 6.9699416e-33 6.1421387e-05 -6.9608584e-32 6.1421392e-05)
(6.1513724e-05 1.2700663e-09 4.9744551e-33 6.1513712e-05 3.4236152e-31 6.1513718e-05)
(6.1595284e-05 1.8908941e-09 9.0902285e-33 6.159527e-05 -2.9486291e-31 6.1595277e-05)
(6.1667854e-05 2.5796702e-09 9.1697214e-25 6.1667839e-05 -1.4010767e-27 6.1667847e-05)
(6.1731715e-05 3.3189386e-09 1.1799233e-24 6.1731699e-05 -1.4761929e-27 6.1731707e-05)
(6.1787055e-05 4.0868872e-09 -6.9588287e-32 6.1787039e-05 1.2955585e-31 6.1787047e-05)
(6.1834031e-05 4.8590527e-09 4.4546714e-32 6.1834016e-05 -2.3365091e-32 6.1834024e-05)
(6.1872827e-05 5.6170255e-09 -2.3794935e-32 6.1872812e-05 -1.2292273e-32 6.187282e-05)
(6.1903542e-05 6.3538928e-09 2.2586532e-24 6.1903527e-05 -1.435025e-27 6.1903535e-05)
(6.1926278e-05 7.0748461e-09 2.5150716e-24 6.1926263e-05 -1.4171267e-27 6.1926271e-05)
(6.1941111e-05 7.7914659e-09 -8.5376195e-33 6.1941096e-05 7.1190214e-32 6.1941104e-05)
(6.1948028e-05 8.5142801e-09 -1.5247574e-33 6.1948013e-05 -1.0507772e-32 6.1948021e-05)
(6.1946978e-05 9.2478181e-09 -2.9632106e-33 6.1946963e-05 4.1065485e-32 6.1946971e-05)
(6.1938362e-05 9.9867382e-09 -1.2885671e-33 6.1938347e-05 3.67072e-32 6.1938355e-05)
(6.1921933e-05 1.0715283e-08 -3.8092252e-24 6.1921918e-05 1.3760955e-27 6.1921926e-05)
(6.1897439e-05 1.1409116e-08 -4.0556525e-24 6.1897426e-05 1.2681962e-27 6.1897433e-05)
(6.1864956e-05 1.2041302e-08 -1.1887525e-31 6.1864944e-05 2.8609163e-31 6.186495e-05)
(6.1824375e-05 1.2584465e-08 7.8772214e-33 6.1824365e-05 1.5659376e-30 6.182437e-05)
(6.1775564e-05 1.3007103e-08 4.6201778e-24 6.1775557e-05 -5.9204394e-28 6.1775561e-05)
(6.1718371e-05 1.3274414e-08 -4.6901904e-27 6.1718367e-05 1.7564694e-31 6.1718369e-05)
(6.1652623e-05 1.3347531e-08 -4.7444881e-24 6.1652625e-05 -2.2526895e-28 6.1652623e-05)
(6.1578107e-05 1.3179139e-08 2.3702725e-31 6.1578114e-05 7.0753829e-30 6.1578109e-05)
(6.149457e-05 1.2718501e-08 -3.265403e-31 6.1494583e-05 -5.6266591e-30 6.1494575e-05)
(6.1401758e-05 1.1910516e-08 6.7800295e-32 6.140178e-05 8.5921241e-30 6.1401767e-05)
(6.1299363e-05 1.0705163e-08 -1.3610497e-31 6.1299393e-05 2.7467182e-30 6.1299376e-05)
(6.1187039e-05 9.0719094e-09 2.7029007e-31 6.1187078e-05 -5.2605313e-30 6.1187057e-05)
(6.106443e-05 7.0423817e-09 -1.9918231e-31 6.1064477e-05 -8.0117535e-30 6.1064451e-05)
(6.0931121e-05 4.7296741e-09 1.9652352e-31 6.093117e-05 4.2408062e-30 6.0931143e-05)
(6.0786664e-05 2.5326695e-09 -4.7105537e-32 6.0786708e-05 1.0046529e-30 6.0786684e-05)
(6.0630578e-05 8.3647374e-10 -9.5135272e-32 6.0630609e-05 -3.9447607e-30 6.0630592e-05)
(6.0462308e-05 -1.2098526e-12 2.0197357e-32 6.0462318e-05 -4.9147199e-31 6.0462313e-05)
(6.0281245e-05 -1.0136036e-09 -2.1514184e-33 6.0281289e-05 3.2467427e-32 6.0281265e-05)
(6.0086775e-05 -4.420636e-09 1.5703423e-24 6.0086873e-05 -9.306044e-27 6.0086821e-05)
(5.9878193e-05 -1.0812179e-08 3.8394048e-24 5.9878352e-05 -1.5004281e-26 5.9878267e-05)
(5.9654763e-05 -2.0055512e-08 -7.1246333e-24 5.9654968e-05 1.9318585e-26 5.9654859e-05)
(5.941568e-05 -3.0872294e-08 -1.0962726e-23 5.9415893e-05 1.9803632e-26 5.9415781e-05)
(5.9160028e-05 -4.0769003e-08 -1.0248582e-30 5.916019e-05 1.1112749e-29 5.9160107e-05)
(5.8886845e-05 -4.6754639e-08 1.6610199e-23 5.8886904e-05 -4.9819796e-27 5.8886876e-05)
(5.8595067e-05 -4.6820536e-08 1.6625878e-23 5.8595e-05 6.9449653e-27 5.8595039e-05)
(5.8283482e-05 -4.0812262e-08 -2.9011615e-23 5.8283311e-05 -3.3500025e-26 5.8283405e-05)
(5.7950836e-05 -3.0777361e-08 -2.1867337e-23 5.795062e-05 -4.1772202e-26 5.7950737e-05)
(5.7595746e-05 -2.007834e-08 4.4839014e-32 5.7595549e-05 -1.6984077e-30 5.7595655e-05)
(5.7216667e-05 -1.1454341e-08 4.0731992e-24 5.7216526e-05 1.3507745e-26 5.7216602e-05)
(5.6811994e-05 -5.904244e-09 2.0983758e-24 5.6811911e-05 7.9685812e-27 5.6811955e-05)
(5.6379931e-05 -2.9214878e-09 7.7556479e-32 5.6379887e-05 -5.612835e-30 5.6379911e-05)
(5.5918416e-05 -1.443894e-09 8.7248453e-32 5.5918393e-05 1.5151732e-30 5.5918405e-05)
(5.5425265e-05 -5.9639156e-10 1.5089659e-25 5.5425249e-05 5.303158e-27 5.5425258e-05)
(5.489802e-05 -6.1935289e-11 8.5573742e-26 5.4898012e-05 3.6521277e-24 5.4898016e-05)
(5.4333923e-05 2.7790885e-10 -2.0823838e-25 5.4333909e-05 6.1898081e-24 5.4333917e-05)
(5.3729955e-05 1.0884371e-09 -4.0470177e-25 5.3729937e-05 -1.5235114e-26 5.3729947e-05)
(5.308267e-05 1.6340397e-09 -2.6638609e-25 5.3082666e-05 -1.4322113e-23 5.3082667e-05)
(5.2388197e-05 1.3858472e-09 2.3312579e-25 5.2388209e-05 -1.4104319e-23 5.2388202e-05)
(5.1642159e-05 6.6354964e-10 1.7893174e-25 5.1642176e-05 7.1745853e-27 5.1642166e-05)
(5.0839537e-05 8.7613692e-11 2.0128444e-32 5.0839547e-05 2.4363259e-30 5.0839541e-05)
(4.9974498e-05 -1.704615e-10 1.5089314e-32 4.9974509e-05 8.3523411e-31 4.9974503e-05)
(4.9040273e-05 -8.8259317e-10 2.8913041e-32 4.9040293e-05 -4.2129772e-30 4.9040282e-05)
(4.8028776e-05 -1.902016e-09 -2.796731e-31 4.8028798e-05 2.9798884e-30 4.8028786e-05)
(4.693021e-05 -2.8870595e-09 1.7898646e-31 4.6930229e-05 -1.1056782e-29 4.6930219e-05)
(4.5732707e-05 -3.6487423e-09 -2.0596046e-31 4.5732723e-05 1.8163964e-29 4.5732715e-05)
(4.4420494e-05 -4.3488855e-09 5.8210586e-31 4.442051e-05 -1.5655194e-29 4.4420502e-05)
(4.2974583e-05 -5.1368949e-09 -8.3935367e-32 4.29746e-05 2.6654668e-29 4.2974592e-05)
(4.1362727e-05 -5.9285829e-09 -9.6199998e-32 4.1362737e-05 -9.4500619e-30 4.1362733e-05)
(3.9553591e-05 -5.9355018e-09 -6.7451086e-31 3.9553579e-05 -5.0139947e-30 3.9553587e-05)
(3.7437301e-05 -4.7588281e-09 5.1974487e-31 3.7437263e-05 1.0154227e-30 3.7437285e-05)
(3.4929448e-05 -2.5202696e-09 1.531813e-29 3.4929413e-05 -1.5286685e-29 3.4929433e-05)
(3.1147961e-05 -1.4047023e-09 7.6775035e-28 3.1147907e-05 6.6627728e-28 3.1147935e-05)
(2.7926777e-05 -8.7331704e-10 -1.9887171e-27 2.7926572e-05 3.4175052e-26 2.7926675e-05)
(2.6430889e-05 -2.9839259e-10 -4.9490093e-27 2.6430749e-05 3.8790213e-26 2.6430819e-05)
(2.5520771e-05 -6.851729e-11 2.0445558e-27 2.5520721e-05 -1.2597017e-26 2.5520745e-05)
(2.5028067e-05 3.6937531e-11 -2.3407052e-27 2.5028099e-05 9.9432959e-27 2.5028083e-05)
(2.4832577e-05 1.9619358e-10 -2.2152817e-27 2.4832804e-05 6.8371794e-27 2.4832689e-05)
(2.4855397e-05 4.4446481e-10 -1.2515643e-26 2.4856034e-05 3.8097642e-26 2.4855714e-05)
(2.5057394e-05 7.535725e-10 8.9124846e-27 2.5058701e-05 -1.5823564e-26 2.5058045e-05)
(2.5428595e-05 1.109902e-09 7.4850904e-27 2.5430886e-05 -1.3136e-26 2.5429737e-05)
(2.5930417e-05 1.4813615e-09 -2.5531581e-26 2.5934022e-05 5.5844467e-26 2.5932216e-05)
(2.6574368e-05 1.8440372e-09 -4.4337894e-27 2.6579628e-05 -5.8232727e-27 2.6576994e-05)
(2.7405435e-05 2.1923532e-09 -3.9463578e-26 2.7412744e-05 1.0347165e-25 2.7409085e-05)
(2.8483431e-05 2.5844757e-09 4.1647595e-26 2.8493442e-05 -6.4865392e-26 2.8488433e-05)
(2.9783132e-05 3.0167758e-09 -2.5150178e-26 2.9796529e-05 2.3055019e-26 2.9789829e-05)
(3.121892e-05 3.4285112e-09 -1.2101169e-26 3.1236138e-05 7.1865316e-28 3.1227529e-05)
(3.2777245e-05 3.8003149e-09 -3.9638364e-26 3.2798542e-05 -1.3012693e-26 3.2787897e-05)
(3.4453117e-05 4.1247299e-09 -9.6621253e-26 3.4478536e-05 2.4519078e-28 3.4465834e-05)
(3.6237867e-05 4.4040058e-09 6.0587172e-26 3.6267238e-05 -3.6045128e-26 3.6252565e-05)
(3.8128737e-05 4.6494343e-09 -1.0563234e-25 3.8161695e-05 2.2640034e-26 3.8145234e-05)
(4.0100376e-05 4.8758597e-09 -3.656844e-24 4.0136396e-05 -2.7050164e-24 4.0118409e-05)
(4.2076436e-05 5.0540955e-09 -3.9294117e-24 4.2114578e-05 -2.8306655e-24 4.2095534e-05)
(4.3910096e-05 5.0710929e-09 -7.1545309e-26 4.394887e-05 6.4153572e-26 4.3929513e-05)
(4.557621e-05 4.8553546e-09 9.3334826e-26 4.5613987e-05 -9.1087509e-26 4.559513e-05)
(4.7153454e-05 4.4405305e-09 -4.550788e-25 4.7189085e-05 4.7164135e-25 4.71713e-05)
(4.8779071e-05 3.9451875e-09 -3.2286649e-24 4.8811882e-05 -2.5949336e-24 4.8795506e-05)
(5.0408379e-05 3.3835912e-09 -3.3504649e-24 5.043778e-05 -1.6799833e-24 5.0423107e-05)
(5.2114249e-05 2.7969129e-09 -3.2620637e-26 5.2139884e-05 -1.5680099e-26 5.2127091e-05)
(5.3966143e-05 2.2202391e-09 1.5210573e-25 5.3987832e-05 -1.3122225e-25 5.3977009e-05)
(5.6034223e-05 1.6801983e-09 -2.3319e-25 5.6051917e-05 2.4311398e-25 5.6043087e-05)
(5.8512727e-05 1.1969711e-09 1.0528441e-25 5.852651e-05 -6.7025204e-26 5.8519633e-05)
(6.1840723e-05 8.0063242e-10 -1.1705125e-25 6.1850856e-05 1.0119508e-25 6.18458e-05)
(6.6528923e-05 5.1009878e-10 -1.7118079e-25 6.6535663e-05 2.1211128e-25 6.65323e-05)
(7.2576107e-05 2.836423e-10 9.5810868e-26 7.2579752e-05 -1.1779176e-25 7.2577933e-05)
(8.0344263e-05 8.7397973e-11 1.7994627e-27 8.0345323e-05 -5.3864293e-27 8.0344793e-05)
(8.9901194e-05 -4.7171945e-11 -6.4044055e-26 8.9900808e-05 7.8681398e-26 8.9901e-05)
(0.00010322407 -6.3525558e-10 2.5054658e-25 0.00010321936 -3.2385573e-25 0.00010322171)
(0.00011684635 -2.7352868e-09 -4.0171197e-25 0.00011683008 4.9150525e-25 0.00011683819)
(0.00014662241 -8.7682938e-09 -1.4870039e-25 0.0001465821 4.1633006e-25 0.00014660219)
(0.00014840146 -2.2380941e-08 -3.0877679e-25 0.00014832458 2.1234229e-25 0.00014836291)
(0.00026010286 -5.5363577e-08 2.2111204e-23 0.0002599667 1.0674223e-23 0.0002600346)
(9.5187881e-05 -7.165514e-08 2.5642454e-23 9.5069858e-05 9.6269514e-24 9.5128733e-05)
(0.00082174437 -1.3992231e-07 -7.4657766e-26 0.00082159749 -4.2719487e-26 0.0008216708)
(0.00035561091 -8.3229141e-08 -6.8423281e-26 0.0003555589 -6.3902004e-26 0.00035558488)
(0.0059173142 -1.6484364e-07 8.3977785e-26 0.0059172611 1.2046929e-25 0.0059172877)
(0.0087126987 -1.2630224e-07 -4.1199923e-26 0.0087126839 1.0877175e-26 0.0087126913)
(0.024069099 -2.1496488e-07 1.3366139e-22 0.024069097 2.3164777e-25 0.024069098)
(0.00900553 -6.5087242e-08 4.0465207e-23 0.0090055313 -1.9287793e-25 0.0090055307)
(0.0073580046 -1.400882e-07 -4.0322082e-27 0.0073580021 -2.6274242e-27 0.0073580033)
(0.0034326656 -6.5166366e-08 3.7249547e-23 0.0034326655 1.4319121e-26 0.0034326655)
(0.0069652374 -1.0797741e-07 1.9598975e-22 0.0069652492 -5.3651338e-24 0.0069652433)
(0.0033061393 -4.4508618e-08 6.6971052e-23 0.0033061522 -4.9912678e-24 0.0033061457)
(0.0025901068 -1.9855124e-08 5.7633686e-24 0.0025901181 -8.6148737e-25 0.0025901125)
(0.00016568938 -5.8843257e-10 1.2431963e-25 0.00016568983 -2.1919014e-26 0.00016568961)
(0.00042545063 1.663852e-09 -6.396674e-25 0.00042544767 2.7808843e-25 0.00042544915)
(6.4202317e-05 1.9178489e-09 1.488581e-26 6.4197523e-05 2.0637892e-26 6.4199924e-05)
(0.00013900487 9.3116026e-10 -3.7740342e-25 0.00013900167 3.0973265e-25 0.00013900327)
(8.536371e-05 4.5592629e-10 -2.5231081e-25 8.5361609e-05 1.4376123e-25 8.536266e-05)
(8.3534723e-05 2.5311e-10 -1.5817663e-26 8.3533196e-05 -2.7510084e-26 8.353396e-05)
(6.9176528e-05 1.5561497e-10 -7.9545162e-27 6.9175338e-05 -1.222828e-26 6.9175933e-05)
(6.1894931e-05 9.6844006e-11 1.2457142e-26 6.1894024e-05 8.0437046e-27 6.1894478e-05)
(5.4874691e-05 6.1078227e-11 3.5030113e-25 5.4874022e-05 -3.2346471e-25 5.4874357e-05)
(4.9549138e-05 3.7672059e-11 2.1982143e-25 4.9548683e-05 -2.3442687e-25 4.9548911e-05)
(4.5143076e-05 2.2902288e-11 -8.0687211e-27 4.5142793e-05 -7.5400892e-27 4.5142935e-05)
(4.163887e-05 1.3800426e-11 -2.0034868e-26 4.1638708e-05 3.201631e-26 4.1638789e-05)
(3.8996009e-05 8.1440034e-12 2.4658675e-27 3.8995923e-05 3.2576231e-26 3.8995966e-05)
(3.6935795e-05 4.1030693e-12 3.1345587e-27 3.6935757e-05 1.0073473e-26 3.6935776e-05)
(3.5191855e-05 1.2214113e-12 2.0230045e-27 3.5191847e-05 3.6648159e-27 3.5191851e-05)
(3.363022e-05 -7.223877e-13 7.9458214e-27 3.3630231e-05 9.7299731e-27 3.3630225e-05)
(3.2202272e-05 -3.1989217e-12 -7.204633e-27 3.2202303e-05 -8.8521056e-27 3.2202287e-05)
(3.0855683e-05 -5.9075204e-12 -1.7582189e-26 3.0855736e-05 -2.1752331e-26 3.0855709e-05)
(2.95644e-05 -8.6659936e-12 7.247336e-27 2.9564473e-05 9.1767119e-27 2.9564436e-05)
(2.8291275e-05 -1.1138991e-11 4.8844828e-27 2.8291365e-05 5.6260992e-27 2.829132e-05)
(2.7017308e-05 -1.2884594e-11 -5.4360873e-27 2.7017409e-05 -8.080152e-27 2.7017359e-05)
(2.5678107e-05 -1.3422247e-11 -6.2265072e-27 2.5678209e-05 -8.7338146e-27 2.5678158e-05)
(2.4266386e-05 -1.238942e-11 -1.8272034e-27 2.4266478e-05 -1.3913856e-27 2.4266432e-05)
(2.2851404e-05 -1.0065499e-11 1.820354e-27 2.2851474e-05 2.2423255e-27 2.2851439e-05)
(2.1482685e-05 -7.0423245e-12 7.7092575e-27 2.1482731e-05 1.0424255e-26 2.1482708e-05)
(2.0174718e-05 -4.2136813e-12 2.5263697e-27 2.0174743e-05 3.9847537e-27 2.0174731e-05)
(1.8933275e-05 -2.2975441e-12 2.547526e-27 1.8933287e-05 3.5429757e-27 1.8933281e-05)
(1.776368e-05 -1.2931414e-12 6.9899853e-27 1.7763686e-05 1.0485906e-26 1.7763683e-05)
(1.6669944e-05 -8.398577e-13 -6.1324765e-29 1.6669948e-05 1.7740168e-29 1.6669946e-05)
(1.5664297e-05 -8.5496892e-13 -4.3946896e-27 1.5664301e-05 -9.5751772e-27 1.5664299e-05)
(1.4778882e-05 -1.4354728e-12 3.2407248e-27 1.4778887e-05 2.9090849e-27 1.4778885e-05)
(1.4044613e-05 -2.7133268e-12 -3.1061927e-28 1.4044622e-05 -4.3228628e-27 1.4044617e-05)
(1.3438804e-05 -4.7662129e-12 9.1585797e-27 1.3438816e-05 -1.2032199e-26 1.343881e-05)
(1.2931484e-05 -7.4798048e-12 1.6260549e-26 1.29315e-05 4.7599641e-29 1.2931492e-05)
(1.2519576e-05 -1.0795401e-11 -2.2335967e-26 1.2519595e-05 -2.0790927e-27 1.2519585e-05)
(1.2212083e-05 -1.4401308e-11 -2.3089556e-26 1.2212105e-05 1.0570009e-26 1.2212094e-05)
(1.202205e-05 -1.7897462e-11 -2.8110015e-28 1.2022071e-05 -9.6503772e-28 1.2022061e-05)
(1.1971056e-05 -2.114567e-11 -3.1837431e-26 1.1971076e-05 6.6607591e-27 1.1971066e-05)
(1.2087322e-05 -2.3761635e-11 -3.4585112e-26 1.2087338e-05 7.3896605e-27 1.208733e-05)
(1.243356e-05 -2.5300535e-11 -4.1791438e-28 1.2433571e-05 -2.7154257e-27 1.2433565e-05)
(1.3101335e-05 -2.5965281e-11 1.8485496e-26 1.3101341e-05 -3.4975741e-28 1.3101338e-05)
(1.457746e-05 -2.6412529e-11 1.8449633e-26 1.4577461e-05 -1.2967455e-28 1.4577461e-05)
(1.6296657e-05 -2.524724e-11 1.1152461e-31 1.6296657e-05 3.7682553e-31 1.6296657e-05)
(1.7449537e-05 -2.1558583e-11 8.7359356e-33 1.7449536e-05 7.8705975e-32 1.7449537e-05)
(1.8413348e-05 -1.715694e-11 -6.5614919e-34 1.8413348e-05 -3.4786525e-31 1.8413348e-05)
(1.9237736e-05 -1.2814156e-11 -7.7256521e-33 1.9237735e-05 9.3102743e-32 1.9237735e-05)
(1.9970311e-05 -9.1069559e-12 6.0657874e-27 1.9970311e-05 3.6413506e-29 1.9970311e-05)
(2.0626792e-05 -6.4093872e-12 4.15231e-27 2.0626792e-05 2.5052018e-29 2.0626792e-05)
(2.1221745e-05 -4.8618308e-12 -4.2619575e-33 2.1221745e-05 -2.2896219e-31 2.1221745e-05)
(2.1764103e-05 -4.6013383e-12 -3.09331e-34 2.1764103e-05 2.3153201e-31 2.1764103e-05)
(2.22611e-05 -5.8191697e-12 1.1350773e-33 2.22611e-05 1.4590126e-31 2.22611e-05)
(2.271828e-05 -8.8927817e-12 5.3061559e-27 2.271828e-05 -2.244648e-29 2.271828e-05)
(2.3140168e-05 -1.43421e-11 9.0079103e-27 2.3140169e-05 -3.5533374e-29 2.3140169e-05)
(2.353046e-05 -2.2679928e-11 -7.3825422e-27 2.3530461e-05 2.5308803e-29 2.3530461e-05)
(2.3892293e-05 -3.4220349e-11 3.5657724e-26 2.3892294e-05 -2.0836783e-28 2.3892293e-05)
(2.4228363e-05 -4.8973204e-11 1.0249691e-25 2.4228365e-05 -4.9399654e-28 2.4228364e-05)
(2.4540983e-05 -6.6599697e-11 4.7393062e-26 2.4540984e-05 -2.3363035e-28 2.4540983e-05)
(2.4832162e-05 -8.6437584e-11 -2.1536177e-32 2.4832163e-05 7.9495584e-33 2.4832163e-05)
(2.5103683e-05 -1.075856e-10 2.1328542e-34 2.5103684e-05 -6.703757e-32 2.5103683e-05)
(2.5357111e-05 -1.2901645e-10 -6.2539395e-33 2.5357113e-05 -1.6376729e-31 2.5357112e-05)
(2.5593841e-05 -1.4972725e-10 5.138624e-33 2.5593842e-05 5.5261527e-31 2.5593841e-05)
(2.5815127e-05 -1.6886245e-10 -4.0042213e-33 2.5815129e-05 -7.6668384e-31 2.5815128e-05)
(2.60221e-05 -1.8579876e-10 6.5243675e-26 2.6022101e-05 -4.2745154e-29 2.6022101e-05)
(2.6215755e-05 -2.0017523e-10 5.6620618e-25 2.6215756e-05 -4.0791361e-28 2.6215755e-05)
(2.639701e-05 -2.1184906e-10 5.2667848e-25 2.639701e-05 -3.0598257e-28 2.639701e-05)
(2.6566692e-05 -2.2082565e-10 7.0679838e-33 2.6566693e-05 3.5619363e-31 2.6566693e-05)
(2.6725574e-05 -2.271719e-10 -1.8911524e-32 2.6725575e-05 -1.2928368e-31 2.6725575e-05)
(2.6874328e-05 -2.3096589e-10 3.1469767e-32 2.6874328e-05 2.3412002e-32 2.6874328e-05)
(2.7013602e-05 -2.3229453e-10 -1.0768747e-32 2.7013602e-05 -2.1639179e-31 2.7013602e-05)
(2.7143971e-05 -2.3132597e-10 -2.8302371e-32 2.7143971e-05 1.6884823e-31 2.7143971e-05)
(2.726597e-05 -2.283272e-10 1.4988192e-32 2.726597e-05 9.9114357e-32 2.726597e-05)
(2.7380157e-05 -2.2362277e-10 -8.4953925e-26 2.7380157e-05 1.6157026e-29 2.7380157e-05)
(2.7486966e-05 -2.1746939e-10 -8.3507904e-26 2.7486965e-05 1.3007731e-29 2.7486965e-05)
(2.7586972e-05 -2.0980155e-10 -1.8763309e-33 2.7586972e-05 -4.0357397e-32 2.7586972e-05)
(2.7680466e-05 -1.9985178e-10 -2.4507107e-32 2.7680465e-05 2.2705539e-32 2.7680465e-05)
(2.7767964e-05 -1.8570206e-10 -5.5764398e-33 2.7767963e-05 -1.7680817e-32 2.7767963e-05)
(2.7849423e-05 -1.6404111e-10 6.60218e-26 2.7849421e-05 4.9392692e-29 2.7849422e-05)
(2.792474e-05 -1.3077021e-10 5.3400833e-26 2.7924736e-05 9.0728622e-29 2.7924738e-05)
(2.7994396e-05 -8.3771398e-11 -3.9461287e-33 2.7994392e-05 -8.2095775e-32 2.7994394e-05)
(2.8058604e-05 -2.9340329e-11 7.3387223e-26 2.8058599e-05 1.7027314e-27 2.8058601e-05)
(2.8117747e-05 1.123336e-11 -1.8161949e-26 2.8117743e-05 1.4564996e-27 2.8117745e-05)
(2.8172037e-05 1.0503275e-10 -9.4995179e-33 2.8172026e-05 4.0763181e-32 2.8172031e-05)
(2.8223483e-05 3.2540353e-10 2.2561176e-32 2.8223464e-05 8.1113295e-32 2.8223473e-05)
(2.8263781e-05 6.8832935e-10 -9.610151e-25 2.8263755e-05 6.2332418e-27 2.8263767e-05)
(2.8307823e-05 1.1728877e-09 -1.6396088e-24 2.8307791e-05 7.6053819e-27 2.8307807e-05)
(2.8344575e-05 1.7447831e-09 -6.4994408e-32 2.8344539e-05 -1.4330385e-31 2.8344557e-05)
(2.8377276e-05 2.3790101e-09 -8.1730722e-25 2.8377238e-05 1.2489798e-27 2.8377257e-05)
(2.8406053e-05 3.0570517e-09 -1.0497179e-24 2.8406012e-05 1.3133023e-27 2.8406032e-05)
(2.843099e-05 3.7573485e-09 -3.4868182e-32 2.8430949e-05 -1.4112758e-31 2.8430969e-05)
(2.8452161e-05 4.4566726e-09 1.2251595e-32 2.8452121e-05 2.1570624e-32 2.8452141e-05)
(2.8469647e-05 5.1376366e-09 -5.4726659e-32 2.8469607e-05 3.6315166e-32 2.8469627e-05)
(2.8483493e-05 5.7934893e-09 -2.0024517e-24 2.8483455e-05 1.272267e-27 2.8483473e-05)
(2.8493746e-05 6.4286243e-09 -2.2275135e-24 2.8493709e-05 1.2550682e-27 2.8493727e-05)
(2.8500441e-05 7.0535041e-09 4.7436896e-32 2.8500404e-05 -3.1567804e-32 2.8500422e-05)
(2.8503336e-05 7.6778577e-09 -5.0985032e-33 2.8503298e-05 -3.0124895e-32 2.8503317e-05)
(2.8502698e-05 8.3063877e-09 4.1544069e-33 2.850266e-05 -4.3111796e-32 2.8502679e-05)
(2.8499067e-05 8.9349252e-09 6.2476039e-32 2.849903e-05 -1.167781e-32 2.8499048e-05)
(2.8491863e-05 9.5495855e-09 3.3623124e-24 2.8491828e-05 -1.2150542e-27 2.8491845e-05)
(2.8480847e-05 1.0129079e-08 -3.5946321e-24 2.8480814e-05 2.9336598e-27 2.8480831e-05)
(2.8466232e-05 1.0649854e-08 -7.5543665e-24 2.8466203e-05 3.5737498e-27 2.8466217e-05)
(2.8447968e-05 1.1087639e-08 -1.6989361e-31 2.8447944e-05 3.2253433e-31 2.8447956e-05)
(2.8425998e-05 1.1414652e-08 -4.0716266e-24 2.8425981e-05 5.2106636e-28 2.8425989e-05)
(2.840025e-05 1.1600427e-08 1.7423066e-27 2.8400242e-05 -1.1452954e-30 2.8400247e-05)
(2.8370647e-05 1.1611062e-08 4.1817546e-24 2.8370651e-05 1.939453e-28 2.8370649e-05)
(2.8337093e-05 1.1405622e-08 -2.6907533e-31 2.8337111e-05 3.5787997e-30 2.8337103e-05)
(2.8299475e-05 1.0941421e-08 3.928803e-31 2.8299509e-05 -6.0779975e-31 2.8299493e-05)
(2.8257675e-05 1.0173132e-08 -2.7496488e-31 2.8257728e-05 -1.2865187e-30 2.8257703e-05)
(2.8211556e-05 9.061754e-09 -2.1050192e-31 2.8211631e-05 -2.3278657e-30 2.8211595e-05)
(2.8160962e-05 7.5890491e-09 -2.1888861e-31 2.8161059e-05 -2.9201624e-30 2.8161012e-05)
(2.8105734e-05 5.7920821e-09 -1.5389335e-31 2.8105849e-05 3.2351908e-30 2.8105793e-05)
(2.8045689e-05 3.7910098e-09 4.4504859e-31 2.804581e-05 -1.9444486e-30 2.8045751e-05)
(2.7980625e-05 1.9297314e-09 -1.3681685e-31 2.7980731e-05 -2.2850741e-31 2.7980679e-05)
(2.7910325e-05 5.4028312e-10 3.5648561e-32 2.79104e-05 6.2059371e-30 2.7910363e-05)
(2.7834536e-05 -6.0603408e-11 -2.8261182e-32 2.7834565e-05 3.2572288e-31 2.7834551e-05)
(2.7752921e-05 -1.1602237e-09 1.7264697e-31 2.7753036e-05 -1.2445029e-29 2.7752979e-05)
(2.7665234e-05 -4.4438503e-09 -1.4372881e-24 2.7665489e-05 8.5360442e-27 2.7665364e-05)
(2.7571175e-05 -1.0355744e-08 -3.488232e-24 2.7571584e-05 1.3610308e-26 2.7571383e-05)
(2.7470429e-05 -1.8713279e-08 6.4268187e-24 2.7470957e-05 -1.735514e-26 2.7470697e-05)
(2.7362659e-05 -2.8332392e-08 9.8619147e-24 2.736321e-05 -1.7819229e-26 2.7362937e-05)
(2.7247471e-05 -3.7001554e-08 -8.0175676e-31 2.7247898e-05 -1.6294962e-29 2.7247685e-05)
(2.7124421e-05 -4.213291e-08 -1.4785477e-23 2.7124593e-05 4.3865446e-27 2.7124505e-05)
(2.6992996e-05 -4.2039807e-08 -1.4766925e-23 2.6992854e-05 -6.15661e-27 2.6992921e-05)
(2.6852601e-05 -3.6632868e-08 2.5617267e-23 2.6852194e-05 2.9555945e-26 2.6852392e-05)
(2.6702625e-05 -2.7702052e-08 1.9292925e-23 2.6702096e-05 3.685934e-26 2.6702355e-05)
(2.6542435e-05 -1.8172351e-08 8.0225093e-31 2.6541945e-05 1.5413473e-29 2.6542185e-05)
(2.6371358e-05 -1.0447487e-08 -1.8181052e-23 2.6371002e-05 -9.7924499e-26 2.6371177e-05)
(2.6188698e-05 -5.4302155e-09 -9.4230345e-24 2.6188484e-05 -5.8482205e-26 2.6188589e-05)
(2.5993659e-05 -2.6983724e-09 -8.2090116e-32 2.5993545e-05 2.7565898e-29 2.5993601e-05)
(2.5785313e-05 -1.3209611e-09 3.7055519e-31 2.578525e-05 -1.7473708e-29 2.5785281e-05)
(2.5562654e-05 -5.2759876e-10 -1.2456332e-31 2.5562611e-05 4.6354259e-30 2.5562632e-05)