0.00043385 	4.26088e-11 	2.18582e-15 	-5.8777e-30 	4.26088e-11 	1.0432e-28 	4.26088e-11
0.00132759 	9.78475e-11 	5.11077e-14 	1.26232e-28 	9.78475e-11 	2.95326e-27 	9.78475e-11
0.00227498 	4.69442e-10 	4.85224e-13 	3.26517e-28 	4.69443e-10 	-1.48667e-26 	4.69442e-10
0.00327924 	1.55263e-09 	2.72227e-12 	-1.20658e-27 	1.55263e-09 	-5.54124e-26 	1.55263e-09
0.00434378 	4.02223e-09 	1.0807e-11 	1.28436e-26 	4.02226e-09 	2.19199e-25 	4.02224e-09
0.00547221 	8.85495e-09 	3.36126e-11 	-8.90183e-27 	8.85506e-09 	-9.36644e-25 	8.85501e-09
0.00666839 	1.74037e-08 	8.70635e-11 	-2.3166e-25 	1.74041e-08 	-3.28696e-24 	1.74039e-08
0.00793636 	3.14943e-08 	1.94776e-10 	5.64932e-26 	3.1495e-08 	8.55927e-24 	3.14946e-08
0.00928045 	5.3539e-08 	3.83652e-10 	8.94366e-25 	5.35406e-08 	-7.62531e-24 	5.35398e-08
0.0107052 	8.666e-08 	6.67757e-10 	-3.65925e-24 	8.66626e-08 	-3.45636e-23 	8.66612e-08
0.0122155 	1.34794e-07 	1.00922e-09 	-2.35089e-24 	1.34797e-07 	1.54955e-22 	1.34795e-07
0.0138164 	2.02727e-07 	1.24066e-09 	1.90178e-23 	2.02728e-07 	1.25711e-22 	2.02728e-07
0.0155135 	2.95957e-07 	9.37305e-10 	1.06554e-23 	2.95945e-07 	-7.83904e-23 	2.95951e-07
0.0173124 	4.20225e-07 	-7.45987e-10 	-2.85353e-23 	4.20176e-07 	-1.82972e-23 	4.202e-07
0.0192193 	5.80593e-07 	-5.19105e-09 	-2.56781e-23 	5.80461e-07 	-1.14892e-21 	5.80526e-07
0.0212406 	7.80093e-07 	-1.42294e-08 	1.42004e-22 	7.79802e-07 	-4.72639e-22 	7.79946e-07
0.0233833 	1.01839e-06 	-2.97264e-08 	1.28744e-22 	1.01784e-06 	3.81371e-22 	1.01811e-06
0.0256546 	1.29124e-06 	-5.29522e-08 	-3.18517e-22 	1.29032e-06 	-1.94588e-21 	1.29077e-06
0.0280623 	1.59126e-06 	-8.41326e-08 	-2.99721e-22 	1.58992e-06 	2.79159e-21 	1.59059e-06
0.0306144 	1.90984e-06 	-1.22517e-07 	2.28723e-22 	1.90811e-06 	9.34833e-21 	1.90896e-06
0.0333198 	2.239e-06 	-1.66872e-07 	7.2599e-23 	2.23704e-06 	-2.64544e-21 	2.23801e-06
0.0361875 	2.57264e-06 	-2.16011e-07 	1.79978e-22 	2.57074e-06 	-1.07531e-20 	2.57167e-06
0.0392274 	2.9067e-06 	-2.69092e-07 	-7.79163e-24 	2.9053e-06 	2.03111e-21 	2.90597e-06
0.0424498 	3.23889e-06 	-3.25661e-07 	-4.0972e-26 	3.23859e-06 	7.70242e-21 	3.23871e-06
0.0458656 	3.5682e-06 	-3.8557e-07 	-6.05642e-23 	3.56974e-06 	1.02677e-20 	3.56893e-06
0.0494864 	3.89441e-06 	-4.48882e-07 	-1.80474e-22 	3.89866e-06 	-1.28461e-20 	3.8965e-06
0.0533246 	4.2178e-06 	-5.1579e-07 	3.82238e-22 	4.2258e-06 	-1.19161e-20 	4.22175e-06
0.0573931 	4.53891e-06 	-5.86564e-07 	-1.10218e-21 	4.55182e-06 	7.17851e-22 	4.54531e-06
0.0617059 	4.85841e-06 	-6.61523e-07 	8.8415e-22 	4.87756e-06 	-9.23631e-21 	4.86792e-06
0.0662775 	5.17702e-06 	-7.41013e-07 	2.45615e-22 	5.2039e-06 	1.12564e-20 	5.19038e-06
0.0711236 	5.49548e-06 	-8.25402e-07 	2.10815e-26 	5.53173e-06 	5.45747e-21 	5.51351e-06
0.0762605 	5.81452e-06 	-9.15086e-07 	5.95246e-22 	5.86195e-06 	3.10946e-23 	5.83812e-06
0.0817058 	6.13486e-06 	-1.01049e-06 	1.33616e-21 	6.19544e-06 	7.06047e-23 	6.16501e-06
0.087478 	6.45719e-06 	-1.11203e-06 	-1.36994e-21 	6.53306e-06 	1.02366e-21 	6.49495e-06
0.0935966 	6.78219e-06 	-1.22017e-06 	-5.29275e-22 	6.87565e-06 	4.35174e-21 	6.82872e-06
0.100083 	7.11054e-06 	-1.33539e-06 	-9.48751e-22 	7.22403e-06 	-5.29124e-21 	7.16704e-06
0.106958 	7.44293e-06 	-1.45819e-06 	6.4215e-22 	7.57903e-06 	-1.08823e-20 	7.51067e-06
0.114246 	7.78e-06 	-1.58911e-06 	2.09664e-21 	7.94141e-06 	-6.46812e-21 	7.86033e-06
0.121971 	8.12249e-06 	-1.72868e-06 	6.97911e-21 	8.31199e-06 	1.68446e-20 	8.21679e-06
0.13016 	8.47113e-06 	-1.87749e-06 	-7.62735e-21 	8.69156e-06 	1.84852e-20 	8.58079e-06
0.138841 	8.82665e-06 	-2.03611e-06 	-1.93584e-21 	9.08087e-06 	-1.39927e-20 	8.9531e-06
0.148043 	9.18989e-06 	-2.2052e-06 	1.27554e-25 	9.48068e-06 	-3.10201e-21 	9.33449e-06
0.157797 	9.56174e-06 	-2.38546e-06 	-1.35503e-21 	9.89177e-06 	1.96118e-21 	9.72579e-06
0.168136 	9.94304e-06 	-2.5775e-06 	-3.96132e-21 	1.03148e-05 	-1.01005e-21 	1.01278e-05
0.179097 	1.03349e-05 	-2.78201e-06 	1.03059e-22 	1.07506e-05 	-5.35873e-21 	1.05414e-05
0.190715 	1.07384e-05 	-2.99965e-06 	5.20471e-21 	1.11997e-05 	-1.42048e-20 	1.09674e-05
0.20303 	1.11547e-05 	-3.23121e-06 	1.41702e-20 	1.16629e-05 	1.50655e-20 	1.14068e-05
0.216085 	1.1585e-05 	-3.47747e-06 	-1.26342e-20 	1.21407e-05 	1.91312e-20 	1.18606e-05
0.229923 	1.2031e-05 	-3.73903e-06 	-6.72903e-22 	1.26336e-05 	-1.51082e-20 	1.23296e-05
0.244592 	1.2494e-05 	-4.01657e-06 	-1.94446e-24 	1.31423e-05 	-1.36764e-21 	1.28152e-05
0.260142 	1.29757e-05 	-4.31084e-06 	-8.22158e-23 	1.36669e-05 	-1.99398e-21 	1.3318e-05
0.276625 	1.34779e-05 	-4.62244e-06 	4.12935e-21 	1.42077e-05 	-1.33486e-20 	1.38392e-05
0.294097 	1.40025e-05 	-4.95197e-06 	3.12993e-20 	1.47647e-05 	1.34528e-20 	1.43797e-05
0.312618 	1.45514e-05 	-5.29985e-06 	-3.12963e-20 	1.53378e-05 	1.71661e-20 	1.49403e-05
0.332251 	1.51266e-05 	-5.66627e-06 	-4.42302e-21 	1.59266e-05 	-1.29308e-20 	1.5522e-05
0.353063 	1.57301e-05 	-6.05152e-06 	9.84356e-24 	1.65303e-05 	-5.91324e-21 	1.61253e-05
0.375123 	1.63638e-05 	-6.45559e-06 	1.13151e-20 	1.71481e-05 	-2.63711e-20 	1.67508e-05
0.398508 	1.70294e-05 	-6.87791e-06 	6.43575e-20 	1.77784e-05 	2.33361e-20 	1.73985e-05
0.423296 	1.77281e-05 	-7.31786e-06 	-5.87739e-20 	1.84192e-05 	1.37507e-20 	1.8068e-05
0.449573 	1.8461e-05 	-7.77428e-06 	7.04229e-20 	1.90676e-05 	-2.53921e-20 	1.87585e-05
0.477427 	1.92278e-05 	-8.2452e-06 	-1.03694e-20 	1.97202e-05 	3.06822e-20 	1.9468e-05
0.506952 	2.00276e-05 	-8.72784e-06 	-5.67834e-20 	2.03726e-05 	1.93285e-21 	2.01939e-05
0.53825 	2.08581e-05 	-9.21807e-06 	5.92199e-21 	2.1018e-05 	-1.46027e-20 	2.09323e-05
0.571427 	2.17152e-05 	-9.71434e-06 	-1.34715e-20 	2.16486e-05 	-3.30493e-22 	2.16775e-05
0.606595 	2.25852e-05 	-1.02312e-05 	-3.47291e-21 	2.22664e-05 	9.8974e-21 	2.24187e-05
0.643874 	2.34354e-05 	-1.07418e-05 	-5.59429e-20 	2.28848e-05 	-8.2105e-21 	2.31528e-05
0.683391 	2.42459e-05 	-1.10964e-05 	4.76209e-20 	2.35085e-05 	-8.04751e-21 	2.38751e-05
0.725279 	2.50214e-05 	-1.14099e-05 	6.65569e-21 	2.40945e-05 	4.62115e-21 	2.45578e-05
0.769683 	2.57199e-05 	-1.16803e-05 	-2.50851e-21 	2.45784e-05 	9.70343e-22 	2.51503e-05
0.816751 	2.62652e-05 	-1.1877e-05 	8.14683e-22 	2.49014e-05 	3.95349e-23 	2.55866e-05
0.856985 	2.65447e-05 	-1.19635e-05 	1.48918e-21 	2.50136e-05 	2.62784e-21 	2.57846e-05
0.882662 	2.66374e-05 	-1.19822e-05 	4.1122e-22 	2.5013e-05 	6.97869e-21 	2.58319e-05
0.919545 	2.66132e-05 	-1.19433e-05 	-4.20917e-20 	2.48841e-05 	7.13625e-21 	2.57572e-05
0.975622 	2.63141e-05 	-1.17756e-05 	-1.07298e-19 	2.44768e-05 	-1.29928e-20 	2.54065e-05
1.03506 	2.56541e-05 	-1.14572e-05 	1.42065e-19 	2.37744e-05 	-1.0253e-20 	2.47278e-05
1.09807 	2.4634e-05 	-1.09913e-05 	-1.54636e-20 	2.27854e-05 	1.55803e-20 	2.37254e-05
1.16486 	2.32802e-05 	-1.0391e-05 	2.01621e-20 	2.15397e-05 	-8.50178e-21 	2.24254e-05
1.23566 	2.16655e-05 	-9.68875e-06 	1.01678e-19 	2.01102e-05 	6.21192e-21 	2.09019e-05
1.31071 	1.99037e-05 	-8.93522e-06 	-8.56626e-20 	1.86e-05 	4.52537e-21 	1.92643e-05
1.39026 	1.81218e-05 	-8.18403e-06 	-1.03725e-20 	1.71161e-05 	-4.20028e-21 	1.763e-05
1.47458 	1.64113e-05 	-7.46978e-06 	3.42937e-22 	1.57255e-05 	-6.72652e-22 	1.60779e-05
1.56136 	1.4865e-05 	-6.82558e-06 	-1.47283e-22 	1.44878e-05 	-7.14406e-24 	1.46834e-05
1.64568 	1.35311e-05 	-6.26872e-06 	-4.4818e-22 	1.34277e-05 	-8.35702e-22 	1.34836e-05
1.7152 	1.25261e-05 	-5.84862e-06 	3.47157e-20 	1.26306e-05 	-8.97416e-22 	1.25805e-05
1.75383 	1.1996e-05 	-5.62682e-06 	8.85536e-20 	1.22109e-05 	2.11898e-21 	1.21044e-05
1.80032 	1.13956e-05 	-5.37479e-06 	3.32505e-20 	1.1735e-05 	3.34316e-21 	1.15655e-05
1.87118 	1.05405e-05 	-5.01165e-06 	-6.30351e-20 	1.1047e-05 	1.66101e-21 	1.0794e-05
1.93802 	9.81966e-06 	-4.67138e-06 	-8.74239e-20 	1.04274e-05 	2.02183e-21 	1.01235e-05
2.00106 	9.21119e-06 	-4.24188e-06 	-2.40487e-19 	9.84258e-06 	-1.24489e-20 	9.52534e-06
2.06053 	8.66766e-06 	-3.81773e-06 	2.75249e-19 	9.29812e-06 	-2.52495e-21 	8.98132e-06
2.11662 	8.16901e-06 	-3.40227e-06 	7.22775e-20 	8.79847e-06 	1.29187e-22 	8.48285e-06
2.16953 	7.71215e-06 	-2.99688e-06 	2.96217e-19 	8.3391e-06 	6.62835e-21 	8.02482e-06
2.21944 	7.29495e-06 	-2.60725e-06 	-1.57054e-20 	7.91511e-06 	1.54857e-20 	7.6041e-06
2.26652 	6.9143e-06 	-2.23585e-06 	-3.29625e-19 	7.52282e-06 	-4.75422e-21 	7.21761e-06
2.31093 	6.56768e-06 	-1.88438e-06 	-3.16836e-20 	7.1594e-06 	-8.86184e-21 	6.86246e-06
2.35282 	6.25205e-06 	-1.55337e-06 	-5.79655e-23 	6.82322e-06 	-6.78062e-22 	6.53669e-06
2.39233 	5.96543e-06 	-1.24144e-06 	-4.7421e-23 	6.51307e-06 	2.15193e-21 	6.23875e-06
2.42961 	5.70604e-06 	-9.48824e-07 	-6.727e-20 	6.22694e-06 	1.93192e-21 	5.96607e-06
2.46477 	5.47177e-06 	-6.74573e-07 	-7.68649e-20 	5.96417e-06 	-5.70888e-21 	5.71758e-06
2.49793 	5.26099e-06 	-4.17672e-07 	6.38848e-20 	5.72434e-06 	-5.62839e-21 	5.49249e-06
2.52922 	5.07285e-06 	-1.77121e-07 	8.31764e-20 	5.50702e-06 	3.68961e-21 	5.29e-06
2.55874 	4.90697e-06 	4.85467e-08 	-7.59093e-23 	5.31186e-06 	3.25301e-21 	5.1095e-06
2.57797 	4.80523e-06 	1.94861e-07 	-4.06158e-22 	5.19044e-06 	-2.66109e-23 	4.99787e-06
2.59149 	4.73813e-06 	2.97136e-07 	-1.61452e-21 	5.10937e-06 	-9.28951e-23 	4.9238e-06
2.61285 	4.63869e-06 	4.58266e-07 	-1.87422e-21 	4.9877e-06 	-4.52969e-21 	4.81327e-06
2.63764 	4.53601e-06 	6.44381e-07 	7.81833e-20 	4.85913e-06 	-5.5414e-21 	4.69765e-06
2.66101 	4.45443e-06 	8.18965e-07 	1.41081e-19 	4.75333e-06 	1.08405e-20 	4.60395e-06
2.68307 	4.39379e-06 	9.82904e-07 	-1.18165e-19 	4.67045e-06 	4.1969e-22 	4.53227e-06
2.70387 	4.35412e-06 	1.13716e-06 	9.34325e-20 	4.61041e-06 	1.90635e-21 	4.48245e-06
2.72349 	4.33516e-06 	1.28225e-06 	-1.18484e-19 	4.57291e-06 	1.01716e-20 	4.4542e-06
2.742 	4.3362e-06 	1.41885e-06 	-7.30334e-20 	4.55743e-06 	-1.08673e-20 	4.44698e-06
2.75946 	4.35643e-06 	1.54759e-06 	1.45767e-20 	4.56297e-06 	-1.62253e-20 	4.45981e-06
2.77593 	4.39437e-06 	1.6688e-06 	1.7808e-19 	4.5882e-06 	1.50453e-20 	4.49139e-06
2.79147 	4.44831e-06 	1.78284e-06 	-1.49894e-19 	4.63127e-06 	1.56222e-20 	4.53992e-06
2.80612 	4.51615e-06 	1.8894e-06 	-5.73956e-20 	4.68988e-06 	9.21218e-22 	4.60317e-06
2.81995 	4.59557e-06 	1.98874e-06 	-1.60534e-19 	4.76144e-06 	-5.12946e-20 	4.67858e-06
2.83299 	4.68364e-06 	2.08125e-06 	4.72848e-19 	4.84307e-06 	1.83106e-20 	4.76339e-06
2.84529 	4.77742e-06 	2.16599e-06 	-2.38711e-19 	4.93175e-06 	4.09236e-20 	4.85462e-06
2.85689 	4.87411e-06 	2.24332e-06 	-3.04988e-20 	5.02441e-06 	-2.0316e-20 	4.94929e-06
2.86784 	4.971e-06 	2.31424e-06 	-3.04204e-20 	5.11807e-06 	-2.69151e-21 	5.04458e-06
2.87817 	5.0655e-06 	2.38197e-06 	-2.06268e-21 	5.21001e-06 	-3.87993e-22 	5.13784e-06
2.88791 	5.15581e-06 	2.42888e-06 	-1.01108e-20 	5.29717e-06 	2.87191e-20 	5.22652e-06
2.8971 	5.23886e-06 	2.46735e-06 	-2.38955e-19 	5.37769e-06 	-5.69376e-20 	5.30828e-06
2.90577 	5.31127e-06 	2.5009e-06 	3.98404e-19 	5.4487e-06 	-4.4188e-20 	5.37999e-06
2.91395 	5.37025e-06 	2.52803e-06 	1.61712e-19 	5.50709e-06 	6.47947e-20 	5.43865e-06
2.92166 	5.41382e-06 	2.54815e-06 	-1.03318e-19 	5.55062e-06 	2.13338e-20 	5.48222e-06
2.92894 	5.44116e-06 	2.56114e-06 	-1.30715e-20 	5.578e-06 	8.4384e-21 	5.50958e-06
2.9358 	5.45214e-06 	2.56615e-06 	-1.49456e-19 	5.58872e-06 	3.41705e-20 	5.52043e-06
2.94228 	5.44703e-06 	2.56356e-06 	-2.41091e-19 	5.58283e-06 	-5.9188e-20 	5.51495e-06
2.94839 	5.42647e-06 	2.55356e-06 	2.14912e-19 	5.56066e-06 	-3.4962e-20 	5.49354e-06
2.95415 	5.39091e-06 	2.53658e-06 	1.88847e-20 	5.5227e-06 	4.8897e-20 	5.4568e-06
2.95959 	5.34095e-06 	2.51262e-06 	-9.02056e-20 	5.46932e-06 	-1.07564e-20 	5.40513e-06
2.96472 	5.2769e-06 	2.48174e-06 	6.27926e-20 	5.40081e-06 	2.12708e-20 	5.33884e-06
2.96955 	5.19886e-06 	2.44426e-06 	-1.78877e-19 	5.31728e-06 	-2.66059e-20 	5.25807e-06
2.97412 	5.10666e-06 	2.39987e-06 	1.697e-19 	5.21855e-06 	-3.48561e-20 	5.1626e-06
2.97842 	4.99975e-06 	2.34857e-06 	2.81209e-20 	5.10422e-06 	3.08751e-20 	5.05198e-06
2.98249 	4.87723e-06 	2.28984e-06 	-1.02286e-23 	4.97362e-06 	5.15882e-21 	4.92541e-06
2.98632 	4.73785e-06 	2.22301e-06 	1.68981e-24 	4.82568e-06 	-3.00841e-25 	4.78176e-06
2.98993 	4.58011e-06 	2.14768e-06 	6.46356e-25 	4.65903e-06 	3.33124e-25 	4.61956e-06
2.99334 	4.40218e-06 	2.06298e-06 	1.80335e-22 	4.47209e-06 	-3.89147e-21 	4.43713e-06
2.99656 	4.20214e-06 	1.96795e-06 	1.02646e-20 	4.26311e-06 	-3.16259e-20 	4.23262e-06
2.99959 	3.97807e-06 	1.86177e-06 	8.23982e-20 	4.03038e-06 	3.12041e-20 	4.00422e-06
3.00246 	3.72837e-06 	1.74383e-06 	-6.42012e-20 	3.77246e-06 	2.72006e-20 	3.75041e-06
3.00516 	3.45194e-06 	1.61288e-06 	-1.16899e-20 	3.48838e-06 	-1.56472e-20 	3.47015e-06
3.0077 	3.14825e-06 	1.46364e-06 	-5.92533e-21 	3.17761e-06 	1.17606e-20 	3.16293e-06
3.01011 	2.81816e-06 	1.29558e-06 	-2.26885e-20 	2.84109e-06 	6.39195e-21 	2.82962e-06
3.01237 	2.46537e-06 	1.11218e-06 	-1.23322e-20 	2.48268e-06 	-2.90963e-20 	2.47402e-06
3.01451 	2.09751e-06 	9.18055e-07 	2.27987e-20 	2.11005e-06 	-6.50649e-21 	2.10378e-06
3.01653 	1.7266e-06 	7.21439e-07 	1.57509e-21 	1.73525e-06 	1.61177e-20 	1.73092e-06
3.01843 	1.36837e-06 	5.34e-07 	-4.75007e-21 	1.374e-06 	-6.28771e-21 	1.37118e-06
3.02023 	1.03984e-06 	3.68591e-07 	5.30034e-21 	1.04328e-06 	5.37197e-21 	1.04156e-06
3.02192 	7.5553e-07 	2.35327e-07 	-4.40131e-21 	7.57474e-07 	-5.74484e-22 	7.56502e-07
3.02352 	5.23911e-07 	1.38169e-07 	1.56193e-21 	5.24925e-07 	-3.0136e-21 	5.24418e-07
3.02503 	3.46101e-07 	7.42865e-08 	2.09468e-22 	3.46586e-07 	8.93705e-22 	3.46343e-07
3.02645 	2.17103e-07 	3.63977e-08 	-1.68212e-24 	2.17313e-07 	1.32932e-22 	2.17208e-07
3.02779 	1.28473e-07 	1.61167e-08 	6.86062e-24 	1.28555e-07 	-1.24226e-22 	1.28514e-07
3.02906 	7.08821e-08 	6.35064e-09 	2.74648e-23 	7.09098e-08 	3.92016e-23 	7.08959e-08
3.03025 	3.57398e-08 	2.16761e-09 	-8.1632e-24 	3.57477e-08 	2.47795e-23 	3.57437e-08
3.03138 	1.59271e-08 	6.1241e-10 	-1.48541e-24 	1.5929e-08 	-4.04928e-24 	1.59281e-08
3.03244 	5.92242e-09 	1.32795e-10 	1.33759e-25 	5.92275e-09 	-7.6339e-25 	5.92259e-09
3.03344 	1.65631e-09 	1.95109e-11 	9.71267e-28 	1.65635e-09 	3.78529e-26 	1.65633e-09
3.03439 	2.88943e-10 	1.60452e-12 	8.99888e-29 	2.88945e-10 	-1.00165e-26 	2.88944e-10
3.03528 	4.08018e-11 	5.56306e-14 	6.66688e-29 	4.08018e-11 	3.25127e-28 	4.08018e-11
