0.00227498 	-0.000613541 	1.46298e-07 	-3.26892e-18
0.00327924 	-0.000875565 	2.96543e-07 	-8.70106e-19
0.00434378 	-0.00114795 	5.07963e-07 	-1.72794e-19
0.00547221 	-0.00143062 	7.85103e-07 	2.31815e-20
0.00666839 	-0.00172338 	1.13338e-06 	1.13753e-18
0.00793636 	-0.00202586 	1.55749e-06 	1.95943e-18
0.00928045 	-0.00233742 	2.06099e-06 	-2.37423e-18
0.0107052 	-0.00265701 	2.64583e-06 	-8.00438e-19
0.0122155 	-0.00298297 	3.31154e-06 	-1.45755e-18
0.0138164 	-0.00331277 	4.05382e-06 	1.05646e-18
0.0155135 	-0.00364265 	4.86283e-06 	-2.50476e-18
0.0173124 	-0.00396741 	5.72087e-06 	-4.68484e-20
0.0192193 	-0.00428039 	6.60039e-06 	2.359e-18
0.0212406 	-0.00457398 	7.46341e-06 	4.44738e-19
0.0233833 	-0.00484079 	8.264e-06 	4.36431e-19
0.0256546 	-0.00507504 	8.95434e-06 	3.73264e-20
0.0280623 	-0.0052738 	9.49245e-06 	-1.95109e-19
0.0306144 	-0.00543722 	9.848e-06 	1.37811e-19
0.0333198 	-0.00556792 	1.00037e-05 	1.18086e-18
0.0361875 	-0.00566987 	9.95319e-06 	-1.10921e-18
0.0392274 	-0.00574742 	9.69679e-06 	-2.27411e-19
0.0424498 	-0.00580465 	9.23802e-06 	3.15699e-19
0.0458656 	-0.00584502 	8.58073e-06 	8.13865e-19
0.0494864 	-0.00587137 	7.72791e-06 	-8.32638e-19
0.0533246 	-0.00588592 	6.68074e-06 	-5.59138e-19
0.0573931 	-0.00589036 	5.43846e-06 	5.63786e-19
0.0617059 	-0.00588601 	3.99832e-06 	-2.0714e-19
0.0662775 	-0.00587383 	2.35565e-06 	-6.29035e-19
0.0711236 	-0.00585455 	5.03965e-07 	4.79441e-19
0.0762605 	-0.00582869 	-1.56497e-06 	4.96924e-20
0.0817058 	-0.00579662 	-3.86109e-06 	-8.58334e-19
0.087478 	-0.00575857 	-6.39602e-06 	8.4002e-19
0.0935966 	-0.00571467 	-9.18342e-06 	1.07591e-19
0.100083 	-0.00566496 	-1.22388e-05 	-1.78808e-21
0.106958 	-0.0056094 	-1.55785e-05 	5.51485e-24
0.114246 	-0.00554788 	-1.92216e-05 	-8.02937e-26
0.121971 	-0.00548023 	-2.31892e-05 	-3.16057e-26
0.13016 	-0.00540622 	-2.75051e-05 	-6.31796e-21
0.138841 	-0.00532553 	-3.21955e-05 	-3.05807e-22
0.148043 	-0.00523778 	-3.72899e-05 	8.85796e-21
0.157797 	-0.00514257 	-4.28212e-05 	1.54325e-19
0.168136 	-0.00503935 	-4.88266e-05 	9.17681e-19
0.179097 	-0.00492755 	-5.53478e-05 	-9.39494e-19
0.190715 	-0.00480647 	-6.24323e-05 	-1.29914e-19
0.20303 	-0.00467536 	-7.0134e-05 	1.57723e-20
0.216085 	-0.00453331 	-7.85146e-05 	-1.61499e-23
0.229923 	-0.00437932 	-8.7645e-05 	1.73134e-23
0.244592 	-0.00421222 	-9.76071e-05 	-2.91066e-26
0.260142 	-0.00403071 	-0.000108496 	-1.62945e-24
0.276625 	-0.00383326 	-0.000120421 	8.22431e-20
0.294097 	-0.00361814 	-0.000133514 	4.69264e-19
0.312618 	-0.00338337 	-0.000147926 	-5.07869e-19
0.332251 	-0.00312666 	-0.000163835 	-5.32197e-20
0.353063 	-0.00284536 	-0.000181452 	-4.28527e-23
0.375123 	-0.00253639 	-0.000201028 	-3.18453e-24
0.398508 	-0.00219618 	-0.000222857 	7.64998e-23
0.423296 	-0.00182055 	-0.000247284 	-2.20914e-19
0.449573 	-0.00140462 	-0.000274696 	-1.13648e-18
0.477427 	-0.000942527 	-0.00030558 	1.37192e-18
0.506952 	-0.000427348 	-0.000340488 	4.91718e-20
0.53825 	0.000149218 	-0.000380023 	1.68294e-20
0.571427 	0.000797657 	-0.000424784 	4.92638e-20
0.606595 	0.00153618 	-0.000475873 	2.23309e-19
0.643874 	0.00240413 	-0.000535088 	1.80238e-18
0.683391 	0.00345177 	-0.000604588 	-5.03e-19
0.725279 	0.00471133 	-0.000683874 	-1.71592e-18
0.769683 	0.00619496 	-0.000770287 	-1.25336e-19
0.816751 	0.00789526 	-0.000859126 	3.39349e-24
0.866645 	0.00978308 	-0.000944767 	-9.31662e-23
0.919534 	0.0118141 	-0.00102176 	1.00668e-22
0.975597 	0.0139299 	-0.00108521 	-5.53571e-19
1.03503 	0.0160613 	-0.00113067 	-1.11778e-18
1.09802 	0.0181318 	-0.00115451 	1.04714e-18
1.14864 	0.0196308 	-0.00115787 	8.69022e-19
1.18301 	0.0205562 	-0.00115289 	6.56178e-20
1.23559 	0.0218166 	-0.00113582 	-1.42963e-19
1.31062 	0.0233592 	-0.00109877 	-1.666e-22
1.39016 	0.0246997 	-0.00105196 	2.24112e-23
1.47447 	0.025857 	-0.00100321 	2.50987e-22
1.56124 	0.0268449 	-0.000956938 	4.21498e-20
1.64556 	0.0276661 	-0.000913794 	2.17694e-20
1.72509 	0.0283481 	-0.000872797 	-2.66089e-19
1.80013 	0.0289218 	-0.000832961 	-1.18827e-18
1.87091 	0.0294085 	-0.000794 	1.40931e-18
1.93769 	0.029823 	-0.000756065 	1.72091e-19
2.00069 	0.0301765 	-0.000719354 	5.9607e-19
2.06012 	0.0304776 	-0.000684071 	-4.74201e-19
2.11618 	0.0307335 	-0.000650366 	5.41383e-19
2.16907 	0.0309503 	-0.00061832 	-6.83456e-19
2.21896 	0.0311327 	-0.000587959 	-6.77966e-19
2.26603 	0.031285 	-0.000559261 	5.81275e-19
2.31043 	0.0314109 	-0.000532169 	8.23852e-20
2.35232 	0.031513 	-0.000506616 	-5.55597e-25
2.39184 	0.0315937 	-0.000482521 	-1.93207e-23
2.42912 	0.0316547 	-0.0004598 	-1.3592e-19
2.46429 	0.0316975 	-0.00043837 	-1.43207e-19
2.49746 	0.031723 	-0.000418147 	1.54966e-19
2.52876 	0.0317321 	-0.00039905 	1.61274e-19
2.55829 	0.0317252 	-0.000381004 	4.15139e-19
2.57764 	0.0317122 	-0.000369154 	4.5316e-19
2.59116 	0.0316972 	-0.00036085 	-6.76209e-19
2.61242 	0.0316652 	-0.00034776 	-2.15025e-18
2.63721 	0.0316121 	-0.000332436 	-6.82319e-19
2.66059 	0.0315436 	-0.000317901 	2.08448e-18
2.68265 	0.0314593 	-0.000304101 	8.77077e-19
2.70346 	0.0313593 	-0.000290981 	-2.54544e-19
2.7231 	0.0312433 	-0.000278493 	-7.30634e-19
2.74162 	0.0311111 	-0.00026659 	8.58144e-19
2.75909 	0.0309627 	-0.000255226 	2.39558e-19
2.77557 	0.0307979 	-0.000244358 	8.16194e-19
2.79112 	0.0306169 	-0.000233944 	-9.13629e-19
2.80579 	0.0304195 	-0.000223943 	2.89252e-19
2.81963 	0.0302059 	-0.000214314 	-3.43545e-19
2.83268 	0.0299762 	-0.000205019 	-1.83564e-18
2.845 	0.0297303 	-0.000196022 	2.00211e-18
2.85662 	0.0294682 	-0.000187287 	2.42017e-19
2.86758 	0.02919 	-0.000178785 	-5.85808e-19
2.87792 	0.0288953 	-0.000170487 	1.5463e-18
2.88767 	0.0285842 	-0.000162371 	-9.63252e-19
2.89687 	0.0282563 	-0.000154418 	2.95454e-18
2.90555 	0.0279114 	-0.000146615 	-2.87509e-18
2.91374 	0.0275492 	-0.000138956 	-9.31534e-19
2.92147 	0.0271691 	-0.000131443 	-3.50119e-18
2.92876 	0.0267689 	-0.000124029 	-2.89224e-19
2.93563 	0.0263455 	-0.00011667 	3.185e-18
2.94212 	0.0258973 	-0.000109343 	-3.02488e-18
2.94824 	0.0254239 	-0.000102069 	4.32808e-18
2.95401 	0.0249257 	-9.48872e-05 	4.45248e-18
2.95945 	0.0244031 	-8.78422e-05 	-4.70022e-18
2.96459 	0.0238566 	-8.09755e-05 	-8.637e-18
2.96944 	0.0232868 	-7.43258e-05 	8.55436e-18
2.97401 	0.0226941 	-6.79271e-05 	7.89032e-19
2.97832 	0.0220786 	-6.18079e-05 	1.99144e-20
2.98239 	0.0214404 	-5.59911e-05 	-7.14941e-22
2.98623 	0.0207792 	-5.04933e-05 	-3.16607e-20
2.98985 	0.0200948 	-4.53258e-05 	-5.50978e-24
2.99326 	0.0193863 	-4.04947e-05 	4.92793e-19
2.99649 	0.018653 	-3.6001e-05 	-6.07248e-19
2.99953 	0.0178937 	-3.18423e-05 	-6.57545e-18
3.00239 	0.0171077 	-2.80127e-05 	6.07369e-18
3.0051 	0.0162942 	-2.45038e-05 	9.18556e-19
3.00765 	0.015453 	-2.13048e-05 	7.41645e-24
3.01006 	0.0145842 	-1.8403e-05 	-9.94492e-25
3.01233 	0.0136869 	-1.57796e-05 	1.31329e-18
3.01447 	0.0127587 	-1.34132e-05 	8.60842e-18
3.01649 	0.0117995 	-1.12834e-05 	7.88222e-19
3.0184 	0.0108156 	-9.38169e-06 	6.73576e-18
3.0202 	0.0098176 	-7.69813e-06 	-1.68797e-17
3.0219 	0.00881959 	-6.22268e-06 	-1.57084e-18
3.0235 	0.00783693 	-4.94489e-06 	1.84048e-21
3.02501 	0.00688348 	-3.85281e-06 	5.29741e-19
3.02643 	0.00596949 	-2.93268e-06 	5.6088e-19
3.02778 	0.00510091 	-2.1695e-06 	-2.13184e-19
3.02905 	0.00428003 	-1.54779e-06 	-4.84186e-19
3.03024 	0.00350663 	-1.05244e-06 	1.42534e-19
3.03137 	0.00277903 	-6.69118e-07 	6.29745e-18
3.03244 	0.00209495 	-3.84677e-07 	-5.2704e-18
3.03344 	0.00145186 	-1.87032e-07 	6.96193e-19
3.03439 	0.00084726 	-6.34449e-08 	5.4302e-18
3.03528 	0.000277064 	-9.3493e-10 	-3.06243e-18
