/*--------------------------------*- C++ -*----------------------------------*\
| =========                 |                                                 |
| \\      /  F ield         | OpenFOAM: The Open Source CFD Toolbox           |
|  \\    /   O peration     | Version:  2.4.0                                 |
|   \\  /    A nd           | Web:      www.OpenFOAM.org                      |
|    \\/     M anipulation  |                                                 |
\*---------------------------------------------------------------------------*/
FoamFile
{
    version     2.0;
    format      ascii;
    class       surfaceScalarField;
    location    "30";
    object      phi;
}
// * * * * * * * * * * * * * * * * * * * * * * * * * * * * * * * * * * * * * //

dimensions      [0 3 -1 0 0 0 0];

internalField   nonuniform List<scalar> 
63640
(
-3.7767218e-07
-2.7818509e-07
-4.6461145e-07
8.69393e-08
-2.8929545e-07
-1.7531583e-07
-2.5368361e-07
-3.5611662e-08
-1.8703132e-07
-6.6652087e-08
-1.5854029e-07
-2.8490891e-08
-1.4782087e-07
-1.0719241e-08
-1.7938178e-07
3.1560971e-08
-1.7847309e-07
-9.0859811e-10
-1.6363749e-07
-1.4835608e-08
-1.1395504e-07
-4.9682407e-08
-4.3194995e-08
-7.0760094e-08
3.385167e-08
-7.7046655e-08
6.3979025e-08
-3.0127401e-08
1.7555872e-08
4.6424087e-08
-7.3996538e-08
9.1551576e-08
-1.3513408e-07
6.1137954e-08
-1.5360748e-07
1.8472678e-08
-1.6847941e-07
1.4872061e-08
-1.8613559e-07
1.7655883e-08
-1.9711362e-07
1.0978102e-08
-2.036499e-07
6.5363245e-09
-2.0641273e-07
2.7628554e-09
-2.0083955e-07
-5.5732127e-09
-1.7939619e-07
-2.1443381e-08
-1.3429328e-07
-4.5102998e-08
-6.036569e-08
-7.3927662e-08
4.2439141e-08
-1.0280497e-07
1.7648543e-07
-1.3404639e-07
3.4727573e-07
-1.7079046e-07
5.5541074e-07
-2.0813515e-07
7.9813016e-07
-2.4271962e-07
1.0695935e-06
-2.7146315e-07
1.3632258e-06
-2.9363278e-07
1.6732749e-06
-3.1004874e-07
1.9954666e-06
-3.2219218e-07
2.3173506e-06
-3.2188353e-07
2.6153395e-06
-2.9798949e-07
2.8682111e-06
-2.5287108e-07
3.057696e-06
-1.8948558e-07
3.1676146e-06
-1.0991825e-07
3.1917902e-06
-2.4176523e-08
3.1304842e-06
6.1306405e-08
2.9976574e-06
1.3282612e-07
2.7990377e-06
1.986195e-07
2.6341429e-06
1.6489457e-07
2.4168644e-06
2.1728084e-07
1.6859776e-06
7.3088386e-07
8.6305065e-07
8.2292539e-07
2.8112761e-07
5.8192404e-07
-3.8129289e-08
3.1925695e-07
-2.2980181e-08
-1.5149639e-08
2.2175431e-07
-2.4473568e-07
9.8329013e-08
1.23426e-07
-6.4692848e-07
7.4525857e-07
-1.3268275e-06
6.7989723e-07
-1.3464605e-06
1.9630536e-08
-7.7526573e-07
-5.7119305e-07
-6.6698323e-08
-7.0856795e-07
4.7447716e-07
-5.4117522e-07
7.9147138e-07
-3.1699423e-07
9.4461151e-07
-1.531405e-07
1.0103169e-06
-6.5705486e-08
1.0477953e-06
-3.747883e-08
1.0889347e-06
-4.1139889e-08
1.1437835e-06
-5.4848934e-08
1.2189169e-06
-7.5134315e-08
1.3183596e-06
-9.9442404e-08
1.4358484e-06
-1.1748977e-07
1.5516929e-06
-1.1584371e-07
1.6310984e-06
-7.9406012e-08
1.6221854e-06
8.9135175e-09
1.4614821e-06
1.6070394e-07
1.1195807e-06
3.4190064e-07
6.3625418e-07
4.8332697e-07
8.7629104e-08
5.4862426e-07
-4.6769327e-07
5.5532267e-07
-1.0009366e-06
5.3324262e-07
-1.4966174e-06
4.9568071e-07
-1.9475816e-06
4.509637e-07
-2.3523349e-06
4.0475282e-07
-2.7124384e-06
3.6010334e-07
-3.0305201e-06
3.1808097e-07
-3.309717e-06
2.7919711e-07
-3.5529108e-06
2.4319364e-07
-3.7625247e-06
2.0961371e-07
-3.9408487e-06
1.7832416e-07
-4.0899331e-06
1.4908364e-07
-4.2116617e-06
1.2172808e-07
-4.3078519e-06
9.6189779e-08
-4.3801111e-06
7.2258585e-08
-4.4299601e-06
4.9848058e-08
-4.4589306e-06
2.8969839e-08
-4.4682348e-06
9.3012474e-09
-4.4587115e-06
-9.5220539e-09
-4.4314212e-06
-2.7292551e-08
-4.3876332e-06
-4.3786087e-08
-4.3285686e-06
-5.9067718e-08
-4.2555501e-06
-7.301672e-08
-4.169895e-06
-8.5657466e-08
-4.072803e-06
-9.7089212e-08
-3.965592e-06
-1.0721154e-07
-3.8495713e-06
-1.1602035e-07
-3.7259013e-06
-1.2367123e-07
-3.595844e-06
-1.3005647e-07
-3.4606338e-06
-1.3521141e-07
-3.3213317e-06
-1.3930094e-07
-3.1790614e-06
-1.4227176e-07
-3.0349071e-06
-1.4415287e-07
-2.8897749e-06
-1.4513288e-07
-2.7445785e-06
-1.4519542e-07
-2.6001627e-06
-1.4441664e-07
-2.4572479e-06
-1.4291425e-07
-2.3165709e-06
-1.4067767e-07
-2.1786668e-06
-1.3790319e-07
-2.0440754e-06
-1.3459215e-07
-1.913296e-06
-1.3077908e-07
-1.7866668e-06
-1.2662993e-07
-1.6645123e-06
-1.2215411e-07
-1.5471492e-06
-1.1736369e-07
-1.4347385e-06
-1.124101e-07
-1.3274531e-06
-1.0728669e-07
-1.2254464e-06
-1.0200596e-07
-1.1287704e-06
-9.6676899e-08
-1.0374734e-06
-9.1296311e-08
-9.5161418e-07
-8.5859803e-08
-8.7116501e-07
-8.044869e-08
-7.9610787e-07
-7.5058628e-08
-7.2643193e-07
-6.9674826e-08
-6.6207176e-07
-6.4361262e-08
-6.0295683e-07
-5.9113546e-08
-5.4902185e-07
-5.3936324e-08
-5.0015676e-07
-4.8864043e-08
-4.5619778e-07
-4.3960044e-08
-4.1693692e-07
-3.9259269e-08
-3.8216722e-07
-3.4769592e-08
-3.5170842e-07
-3.0458563e-08
-3.2537517e-07
-2.6334383e-08
-3.0290859e-07
-2.2465589e-08
-2.8396047e-07
-1.8948768e-08
-2.6814308e-07
-1.5816167e-08
-2.5497404e-07
-1.3169359e-08
-2.4397086e-07
-1.1002562e-08
-2.3451375e-07
-9.4578819e-09
-2.2612043e-07
-8.3922975e-09
-2.1821947e-07
-7.9010477e-09
-2.1062538e-07
-7.5931917e-09
-2.0289216e-07
-7.7331822e-09
-1.9528398e-07
-7.6078594e-09
-1.8746526e-07
-7.8190588e-09
-1.7974123e-07
-7.7232702e-09
-1.7204955e-07
-7.6917289e-09
-1.6085608e-07
-1.1192698e-08
-1.508952e-07
-9.9604665e-09
-1.4532173e-07
-5.5730872e-09
-1.437053e-07
-1.6159311e-09
-1.4563687e-07
1.9316523e-09
-1.5338025e-07
7.7437897e-09
-1.6607046e-07
1.2690229e-08
-1.7587106e-07
9.8009154e-09
-1.7651366e-07
6.4265208e-10
-1.7531302e-07
-1.2003492e-09
-1.9977622e-07
2.4463261e-08
-2.5434444e-07
5.4568492e-08
-2.8344798e-07
2.910362e-08
-2.3578084e-07
-4.7666847e-08
-1.1655905e-07
-1.1922172e-07
3.0229187e-08
-1.467878e-07
1.6465574e-07
-1.3442654e-07
2.7916842e-07
-1.1451252e-07
3.8070656e-07
-1.0153801e-07
4.7365248e-07
-9.2945803e-08
5.5922906e-07
-8.5576468e-08
6.362189e-07
-7.6989731e-08
7.0373083e-07
-6.7511841e-08
7.6402036e-07
-6.0289444e-08
8.2231209e-07
-5.8291667e-08
8.7943796e-07
-5.712582e-08
9.3655184e-07
-5.7113832e-08
9.9615163e-07
-5.959975e-08
1.0609945e-06
-6.4842721e-08
1.1345375e-06
-7.3542986e-08
1.2259982e-06
-9.1460444e-08
1.3498454e-06
-1.2384708e-07
1.5051024e-06
-1.5525667e-07
1.6895996e-06
-1.8449582e-07
1.9100656e-06
-2.2046646e-07
2.1770142e-06
-2.6694667e-07
2.501217e-06
-3.2420437e-07
2.8910619e-06
-3.8984477e-07
3.3213065e-06
-4.3024443e-07
3.7022362e-06
-3.8092964e-07
3.7958041e-06
-9.3567835e-08
3.2897112e-06
5.0609299e-07
2.2465428e-06
1.0431685e-06
1.1702524e-06
1.0762902e-06
1.7618409e-07
9.9406809e-07
-2.3596403e-07
4.1214782e-07
-5.641282e-07
3.2816391e-07
9.1728756e-08
-1.1568903e-06
-1.0124575e-06
-1.4766388e-06
4.0668786e-07
-8.6011444e-07
-7.9183999e-07
-8.299281e-07
-6.5797751e-08
-5.7583089e-07
-3.2074902e-07
-5.2389454e-07
-8.0427045e-08
-4.6547388e-07
-6.9139643e-08
-5.7870069e-07
1.4478786e-07
-5.6514205e-07
-1.4467101e-08
-5.2378363e-07
-5.6194045e-08
-3.6424204e-07
-2.0922394e-07
-1.4445496e-07
-2.9054724e-07
1.023867e-07
-3.238883e-07
2.0500725e-07
-1.3274802e-07
6.9960707e-08
1.8147174e-07
-2.1812684e-07
3.7963815e-07
-4.2301576e-07
2.6602732e-07
-4.8884208e-07
8.4298129e-08
-5.3580324e-07
6.1833352e-08
-5.9133144e-07
7.3183714e-08
-6.2493568e-07
4.4582451e-08
-6.4274755e-07
2.4348238e-08
-6.4758292e-07
7.5982719e-09
-6.2569745e-07
-2.7458728e-08
-5.5388838e-07
-9.3252481e-08
-4.0882079e-07
-1.9017072e-07
-1.7367511e-07
-3.0907344e-07
1.5216975e-07
-4.2865002e-07
5.7458539e-07
-5.5646217e-07
1.1102556e-06
-7.0646092e-07
1.7611298e-06
-8.5900949e-07
2.5187822e-06
-1.0003723e-06
3.3656805e-06
-1.1183613e-06
4.2819939e-06
-1.2099467e-06
5.2503577e-06
-1.2784122e-06
6.2567616e-06
-1.3285966e-06
7.2627572e-06
-1.3278785e-06
8.1981799e-06
-1.233413e-06
8.9974458e-06
-1.0521364e-06
9.6034616e-06
-7.9550227e-07
9.9651006e-06
-4.7155675e-07
1.0060946e-05
-1.2002309e-07
9.8887383e-06
2.3351451e-07
9.4882585e-06
5.3330503e-07
8.8732123e-06
8.1366553e-07
8.3442666e-06
6.9383988e-07
7.5925665e-06
9.6898376e-07
5.4085299e-06
2.9149169e-06
2.8585099e-06
3.3729434e-06
9.9013762e-07
2.4502975e-06
-5.8705204e-08
1.3680997e-06
-3.3027207e-08
-4.082828e-08
6.3799437e-07
-9.1575876e-07
1.2341302e-07
6.3800819e-07
-2.1466091e-06
3.0152819e-06
-4.0705926e-06
2.6038786e-06
-3.9857233e-06
-6.5241869e-08
-2.1914659e-06
-2.3654484e-06
-3.6149994e-08
-2.8638846e-06
1.5839423e-06
-2.1612672e-06
2.5348499e-06
-1.2679019e-06
3.0010668e-06
-6.1935786e-07
3.2088531e-06
-2.7349188e-07
3.3322414e-06
-1.6086765e-07
3.4655748e-06
-1.7447398e-07
3.6390789e-06
-2.2835326e-07
3.8715084e-06
-3.0756499e-07
4.1713882e-06
-3.9932185e-07
4.5145576e-06
-4.6066031e-07
4.8339289e-06
-4.352141e-07
5.0148335e-06
-2.6031121e-07
4.8918268e-06
1.3192092e-07
4.2773583e-06
7.7517301e-07
3.1026447e-06
1.5166134e-06
1.5153617e-06
2.0706105e-06
-2.3759054e-07
2.3015755e-06
-1.9828437e-06
2.3005761e-06
-3.6414262e-06
2.1918243e-06
-5.1716192e-06
2.0258736e-06
-6.5553647e-06
1.8347086e-06
-7.7909545e-06
1.640342e-06
-8.8850734e-06
1.454222e-06
-9.8471106e-06
1.2801171e-06
-1.0687521e-05
1.1196075e-06
-1.1415777e-05
9.714495e-07
-1.2039812e-05
8.3364817e-07
-1.2567025e-05
7.0553753e-07
-1.3004059e-05
5.8611628e-07
-1.3356969e-05
4.7463729e-07
-1.3631557e-05
3.7077748e-07
-1.3832944e-05
2.7364501e-07
-1.396598e-05
1.8288294e-07
-1.4035484e-05
9.8472055e-08
-1.4045191e-05
1.900518e-08
-1.3997643e-05
-5.7069058e-08
-1.3896136e-05
-1.2880166e-07
-1.3744673e-05
-1.9524696e-07
-1.3547075e-05
-2.5666983e-07
-1.330741e-05
-3.1267925e-07
-1.3029729e-05
-3.6334198e-07
-1.2717755e-05
-4.0905978e-07
-1.2375497e-05
-4.4946993e-07
-1.2006945e-05
-4.8457208e-07
-1.1615675e-05
-5.1494306e-07
-1.1205491e-05
-5.4023876e-07
-1.0780138e-05
-5.6056603e-07
-1.034286e-05
-5.765777e-07
-9.8970337e-06
-5.8809986e-07
-9.4459345e-06
-5.9525028e-07
-8.9923181e-06
-5.9875017e-07
-8.5389269e-06
-5.9858532e-07
-8.0883183e-06
-5.9502636e-07
-7.6426676e-06
-5.8856425e-07
-7.2041823e-06
-5.7916365e-07
-6.7745053e-06
-5.6757922e-07
-6.355245e-06
-5.5385326e-07
-5.9479162e-06
-5.3810756e-07
-5.5535487e-06
-5.2099839e-07
-5.1731248e-06
-5.0257754e-07
-4.8075953e-06
-4.8289388e-07
-4.4574731e-06
-4.6253168e-07
-4.1232708e-06
-4.4149047e-07
-3.8054658e-06
-4.1981013e-07
-3.5042274e-06
-3.979164e-07
-3.2197094e-06
-3.7581355e-07
-2.9520959e-06
-3.5347395e-07
-2.7013255e-06
-3.3121857e-07
-2.4673478e-06
-3.0903806e-07
-2.2501437e-06
-2.8687771e-07
-2.0495326e-06
-2.6497359e-07
-1.8653083e-06
-2.4333624e-07
-1.6972829e-06
-2.2196324e-07
-1.5451282e-06
-2.0101756e-07
-1.4083529e-06
-1.807366e-07
-1.286339e-06
-1.6127121e-07
-1.1784837e-06
-1.4262477e-07
-1.0842515e-06
-1.2469041e-07
-1.0030582e-06
-1.0752905e-07
-9.3409578e-07
-9.1426851e-08
-8.7626855e-07
-7.6776698e-08
-8.2836548e-07
-6.371775e-08
-7.8886261e-07
-5.2672574e-08
-7.5622994e-07
-4.3634479e-08
-7.2847617e-07
-3.7212522e-08
-7.0407935e-07
-3.2787907e-08
-6.8114382e-07
-3.0836594e-08
-6.5910276e-07
-2.963313e-08
-6.3637508e-07
-3.0460775e-08
-6.1394284e-07
-3.0039684e-08
-5.9040946e-07
-3.1352796e-08
-5.6715081e-07
-3.0980984e-08
-5.4329497e-07
-3.1547564e-08
-5.0862712e-07
-4.585956e-08
-4.7794945e-07
-4.0637571e-08
-4.6071427e-07
-2.2807744e-08
-4.5548885e-07
-6.8406972e-09
-4.6171012e-07
8.1530777e-09
-4.8605946e-07
3.2093646e-08
-5.2546968e-07
5.2100517e-08
-5.5514011e-07
3.9471761e-08
-5.5637721e-07
1.8798437e-09
-5.540868e-07
-3.4903774e-09
-6.3452672e-07
1.0490328e-07
-8.0504363e-07
2.2508577e-07
-8.8836179e-07
1.124219e-07
-7.3034061e-07
-2.0568764e-07
-3.5025451e-07
-4.993077e-07
1.1248088e-07
-6.0952263e-07
5.3330973e-07
-5.5525533e-07
8.9240916e-07
-4.7361173e-07
1.2114128e-06
-4.2054149e-07
1.5037848e-06
-3.8531763e-07
1.7729979e-06
-3.5478943e-07
2.0156703e-06
-3.1966192e-07
2.2289259e-06
-2.8076728e-07
2.4200388e-06
-2.5140229e-07
2.6041007e-06
-2.4235343e-07
2.7844227e-06
-2.3744772e-07
2.9644805e-06
-2.3717162e-07
3.1519872e-06
-2.4710636e-07
3.3555701e-06
-2.6842546e-07
3.5859572e-06
-3.0393003e-07
3.8722981e-06
-3.7780105e-07
4.2563883e-06
-5.07937e-07
4.7379105e-06
-6.3677844e-07
5.311163e-06
-7.5774663e-07
5.9964498e-06
-9.0575374e-07
6.8253352e-06
-1.0958297e-06
7.8308205e-06
-1.3296915e-06
9.0364643e-06
-1.5954884e-06
1.0364179e-05
-1.7579589e-06
1.1545118e-05
-1.5618685e-06
1.1863154e-05
-4.1160366e-07
1.0425626e-05
1.9436209e-06
7.3194031e-06
4.1493915e-06
4.0289286e-06
4.3667644e-06
8.2706966e-07
4.1959267e-06
-4.8510953e-07
1.7243266e-06
-1.7818507e-06
1.6249047e-06
2.0104031e-07
-1.9974805e-06
-2.1681808e-06
-2.596153e-06
1.0053604e-06
-1.4795518e-06
-1.908441e-06
-1.4922318e-06
-5.31175e-08
-1.0178454e-06
-7.951352e-07
-9.5364143e-07
-1.4463085e-07
-8.3355709e-07
-1.8922376e-07
-1.0421223e-06
3.5335312e-07
-1.0108335e-06
-4.5755787e-08
-9.4082498e-07
-1.2620255e-07
-6.5624536e-07
-4.9380351e-07
-2.6823043e-07
-6.7856222e-07
1.7547206e-07
-7.6759078e-07
3.6900776e-07
-3.2628377e-07
1.4303187e-07
4.0744863e-07
-3.681257e-07
8.9079484e-07
-7.4696411e-07
6.4486614e-07
-8.7446046e-07
2.117937e-07
-9.5899255e-07
1.4636556e-07
-1.0573716e-06
1.7156248e-07
-1.1158649e-06
1.0307582e-07
-1.144081e-06
5.2564352e-08
-1.1478006e-06
1.1317909e-08
-1.1035393e-06
-7.1720081e-08
-9.7089237e-07
-2.258994e-07
-7.09761e-07
-4.513022e-07
-2.8953375e-07
-7.2930077e-07
2.9115146e-07
-1.0093354e-06
1.0405858e-06
-1.3058967e-06
1.9874746e-06
-1.6533499e-06
3.1350722e-06
-2.0066073e-06
4.4685482e-06
-2.3338485e-06
5.9576536e-06
-2.6074666e-06
7.568152e-06
-2.8204456e-06
9.2699795e-06
-2.9802394e-06
1.1037758e-05
-3.0963758e-06
1.2805116e-05
-3.0952363e-06
1.4453609e-05
-2.881906e-06
1.5870132e-05
-2.4686589e-06
1.695498e-05
-1.8803508e-06
1.761819e-05
-1.1347664e-06
1.7818549e-05
-3.2038323e-07
1.7548566e-05
5.0349795e-07
1.6870506e-05
1.2113643e-06
1.580792e-05
1.8762513e-06
1.4852721e-05
1.6490384e-06
1.3461488e-05
2.360219e-06
9.7433729e-06
6.633029e-06
5.2997551e-06
7.8165595e-06
1.9337258e-06
5.8163278e-06
6.2318048e-09
3.2955937e-06
-1.7594834e-09
-3.2837594e-08
1.0297672e-06
-1.9472867e-06
-4.3991911e-08
1.711768e-06
-3.9302318e-06
6.9015229e-06
-7.0188761e-06
5.692521e-06
-6.6756509e-06
-4.0846968e-07
-3.5174081e-06
-5.5236895e-06
1.8044445e-07
-6.5617377e-06
2.9277102e-06
-4.9085328e-06
4.5453494e-06
-2.8855411e-06
5.3509514e-06
-1.4249603e-06
5.7216156e-06
-6.4415623e-07
5.9480117e-06
-3.8726423e-07
6.1887919e-06
-4.1525474e-07
6.4958244e-06
-5.3538602e-07
6.8990031e-06
-7.1074468e-07
7.4073788e-06
-9.0769723e-07
7.9718759e-06
-1.0251584e-06
8.4665859e-06
-9.2992334e-07
8.6812798e-06
-4.750057e-07
8.3207465e-06
4.9245479e-07
7.0709846e-06
2.0249356e-06
4.8455127e-06
3.7420845e-06
1.9390592e-06
4.9770644e-06
-1.199383e-06
5.4400168e-06
-4.280285e-06
5.3814785e-06
-7.1833336e-06
5.0948721e-06
-9.8440823e-06
4.6866222e-06
-1.2237314e-05
4.2279401e-06
-1.4364425e-05
3.767452e-06
-1.6239917e-05
3.3297136e-06
-1.7882057e-05
2.9222563e-06
-1.9310243e-05
2.5477938e-06
-2.0541851e-05
2.2030581e-06
-2.1591407e-05
1.8832031e-06
-2.2472316e-05
1.5864475e-06
-2.3196596e-05
1.3103954e-06
-2.3775142e-05
1.0531828e-06
-2.4218323e-05
8.1395722e-07
-2.453529e-05
5.9061132e-07
-2.4734707e-05
3.8229893e-07
-2.482511e-05
1.8887484e-07
-2.4812802e-05
6.6934715e-09
-2.4702118e-05
-1.6775148e-07
-2.4499039e-05
-3.318838e-07
-2.4210639e-05
-4.8364477e-07
-2.3843634e-05
-6.2367813e-07
-2.3405074e-05
-7.5123777e-07
-2.2901973e-05
-8.6644516e-07
-2.2340824e-05
-9.7020548e-07
-2.1728505e-05
-1.0617899e-06
-2.1071869e-05
-1.1412073e-06
-2.0377106e-05
-1.2097081e-06
-1.9650696e-05
-1.2666475e-06
-1.8899039e-05
-1.3122246e-06
-1.8127717e-05
-1.3478985e-06
-1.7342461e-05
-1.3733575e-06
-1.6548852e-05
-1.388857e-06
-1.5751611e-05
-1.3959927e-06
-1.4955388e-05
-1.3948072e-06
-1.4164547e-05
-1.3858675e-06
-1.3382793e-05
-1.3703175e-06
-1.2613871e-05
-1.3480871e-06
-1.1860609e-05
-1.3208404e-06
-1.1125727e-05
-1.2887352e-06
-1.0411814e-05
-1.2520207e-06
-9.7206421e-06
-1.2121711e-06
-9.0538881e-06
-1.1693311e-06
-8.4131732e-06
-1.1236093e-06
-7.7994051e-06
-1.0762993e-06
-7.2134551e-06
-1.0274418e-06
-6.6561565e-06
-9.7710807e-07
-6.1278207e-06
-9.2625318e-07
-5.6287242e-06
-8.7490929e-07
-5.1591973e-06
-8.230014e-07
-4.7191667e-06
-7.7124875e-07
-4.3085603e-06
-7.1964601e-07
-3.9273688e-06
-6.6806815e-07
-3.575311e-06
-6.1703244e-07
-3.2520506e-06
-5.6659525e-07
-2.9572845e-06
-5.1673073e-07
-2.6904634e-06
-4.6783757e-07
-2.45076e-06
-4.2044105e-07
-2.2371431e-06
-3.7488643e-07
-2.0486165e-06
-3.3115125e-07
-1.8842768e-06
-2.8902987e-07
-1.7430958e-06
-2.4871119e-07
-1.6236547e-06
-2.1086699e-07
-1.5240219e-06
-1.7641009e-07
-1.442067e-06
-1.4567132e-07
-1.375092e-06
-1.196479e-07
-1.3203672e-06
-9.8358589e-08
-1.2743243e-06
-8.3256178e-08
-1.2342298e-06
-7.2881401e-08
-1.1966272e-06
-6.8439191e-08
-1.1604562e-06
-6.5803163e-08
-1.1227712e-06
-6.8145648e-08
-1.0853381e-06
-6.7472506e-08
-1.0454512e-06
-7.1239925e-08
-1.0057739e-06
-7.0657514e-08
-9.642215e-07
-7.3099964e-08
-9.0373962e-07
-1.0634058e-07
-8.5029898e-07
-9.4077716e-08
-8.201416e-07
-5.2964668e-08
-8.1087938e-07
-1.610235e-08
-8.2221028e-07
1.94841e-08
-8.6536126e-07
7.5245086e-08
-9.3426957e-07
1.2100887e-07
-9.8518729e-07
9.0389847e-08
-9.8678679e-07
3.4794169e-09
-9.8577258e-07
-4.5042464e-09
-1.1331745e-06
2.5230526e-07
-1.4327192e-06
5.2463081e-07
-1.5682344e-06
2.479372e-07
-1.2762104e-06
-4.9771134e-07
-5.9513591e-07
-1.1803821e-06
2.2628185e-07
-1.4309399e-06
9.6937625e-07
-1.2983497e-06
1.6044049e-06
-1.1086402e-06
2.1696764e-06
-9.8581287e-07
2.6883551e-06
-9.0399615e-07
3.1661416e-06
-8.3257584e-07
3.5974103e-06
-7.509305e-07
3.9771697e-06
-6.6052653e-07
4.3183544e-06
-5.9258692e-07
4.6463598e-06
-5.7035877e-07
4.9676408e-06
-5.5872864e-07
5.2883158e-06
-5.5784657e-07
5.6218725e-06
-5.80663e-07
5.9835731e-06
-6.3012591e-07
6.392524e-06
-7.1288085e-07
6.9000992e-06
-8.8537598e-07
7.5766598e-06
-1.1844974e-06
8.4238456e-06
-1.4839639e-06
9.4325795e-06
-1.766479e-06
1.0637469e-05
-2.1106439e-06
1.2091975e-05
-2.5503338e-06
1.3852134e-05
-3.0898514e-06
1.5954769e-05
-3.6981233e-06
1.8262822e-05
-4.0660121e-06
2.0316175e-05
-3.615221e-06
2.0907322e-05
-1.0027506e-06
1.8564827e-05
4.2861159e-06
1.3335396e-05
9.3788222e-06
7.6425469e-06
1.0059614e-05
1.9252878e-06
9.9131855e-06
-5.0983631e-07
4.1594504e-06
-3.0694357e-06
4.1845038e-06
2.8480795e-07
-2.8918394e-06
-3.7275316e-06
-3.798971e-06
1.9124921e-06
-2.1632693e-06
-3.5441424e-06
-2.2335714e-06
1.718484e-08
-1.5277234e-06
-1.5009828e-06
-1.4488239e-06
-2.2353017e-07
-1.2630663e-06
-3.7498103e-07
-1.5736955e-06
6.6398237e-07
-1.5233112e-06
-9.6139937e-08
-1.419032e-06
-2.304817e-07
-9.9507204e-07
-9.1776341e-07
-4.1746443e-07
-1.2561699e-06
2.5177239e-07
-1.4368276e-06
5.5813416e-07
-6.3264561e-07
2.4083108e-07
7.2475273e-07
-5.2039877e-07
1.6520238e-06
-1.1064574e-06
1.2309251e-06
-1.3134893e-06
4.1882474e-07
-1.4426652e-06
2.7554157e-07
-1.5889192e-06
3.1781612e-07
-1.6743819e-06
1.8853868e-07
-1.7114705e-06
8.9652982e-08
-1.7097665e-06
9.6139899e-09
-1.6356993e-06
-1.4578742e-07
-1.4303131e-06
-4.3128561e-07
-1.0355478e-06
-8.460676e-07
-4.0465764e-07
-1.3601911e-06
4.6433287e-07
-1.8783261e-06
1.5805745e-06
-2.4221385e-06
2.9855614e-06
-3.058337e-06
4.68374e-06
-3.7047861e-06
6.6531933e-06
-4.3033021e-06
8.8501238e-06
-4.8043969e-06
1.1225113e-05
-5.1954357e-06
1.3734485e-05
-5.4896103e-06
1.6340107e-05
-5.7019982e-06
1.8946403e-05
-5.7015328e-06
2.1385729e-05
-5.3212325e-06
2.3495305e-05
-4.5782341e-06
2.5129377e-05
-3.5144239e-06
2.6155161e-05
-2.1605501e-06
2.6505509e-05
-6.7073143e-07
2.616438e-05
8.4462712e-07
2.5210793e-05
2.1649497e-06
2.3682627e-05
3.4044172e-06
2.2235042e-05
3.0966229e-06
2.0112923e-05
4.4823407e-06
1.4776982e-05
1.1968967e-05
8.2804894e-06
1.4313051e-05
3.1827512e-06
1.0914067e-05
1.9836456e-07
6.2799803e-06
7.8335703e-08
8.7190623e-08
1.3724006e-06
-3.241353e-06
-4.3044293e-07
3.5146122e-06
-5.9923971e-06
1.2463478e-05
-1.0128717e-05
9.8288391e-06
-9.3634591e-06
-1.1737308e-06
-4.7067092e-06
-1.0180438e-05
6.134711e-07
-1.1881919e-05
4.5255616e-06
-8.820623e-06
6.8412185e-06
-5.2011981e-06
8.0154939e-06
-2.5992361e-06
8.5731299e-06
-1.2017924e-06
8.9218566e-06
-7.359915e-07
9.2861077e-06
-7.7950648e-07
9.7408803e-06
-9.9015889e-07
1.0325474e-05
-1.2953398e-06
1.1044599e-05
-1.6268221e-06
1.1816221e-05
-1.7967815e-06
1.2443018e-05
-1.5567187e-06
1.2601649e-05
-6.336378e-07
1.1849944e-05
1.2441602e-06
9.7470196e-06
4.1278608e-06
6.2166644e-06
7.2724389e-06
1.7505359e-06
9.4431934e-06
-2.9644276e-06
1.0154979e-05
-7.5283584e-06
9.9454095e-06
-1.1793541e-05
9.360054e-06
-1.5676249e-05
8.5693295e-06
-1.9149042e-05
7.7007327e-06
-2.2220501e-05
6.8389103e-06
-2.491617e-05
6.0253823e-06
-2.7265646e-05
5.2717312e-06
-2.9299131e-05
4.581279e-06
-3.1043387e-05
3.9473141e-06
-3.2520751e-05
3.3605667e-06
-3.375164e-05
2.8173365e-06
-3.4754288e-05
2.3130425e-06
-3.5545144e-05
1.8440375e-06
-3.6139744e-05
1.4085567e-06
-3.6551828e-05
1.0026939e-06
-3.6794375e-05
6.2484509e-07
-3.6880122e-05
2.7462034e-07
-3.6817579e-05
-5.5852163e-08
-3.6613061e-05
-3.7226898e-07
-3.6276072e-05
-6.6887483e-07
-3.5816989e-05
-9.4272607e-07
-3.5245701e-05
-1.1949694e-06
-3.4572453e-05
-1.424485e-06
-3.380744e-05
-1.63146e-06
-3.2960138e-05
-1.8175043e-06
-3.2040441e-05
-1.9814879e-06
-3.1058223e-05
-2.123425e-06
-3.0022444e-05
-2.2454881e-06
-2.8942363e-05
-2.3467278e-06
-2.7827145e-05
-2.4274443e-06
-2.6684829e-05
-2.490213e-06
-2.5523568e-05
-2.5346204e-06
-2.435133e-05
-2.5610927e-06
-2.3174885e-05
-2.5724392e-06
-2.2000845e-05
-2.5688453e-06
-2.0835452e-05
-2.5512614e-06
-1.9683986e-05
-2.5217836e-06
-1.8551779e-05
-2.4802946e-06
-1.7442908e-05
-2.4297101e-06
-1.6361238e-05
-2.370406e-06
-1.5310471e-05
-2.3027881e-06
-1.4293172e-05
-2.2294706e-06
-1.331174e-05
-2.1507629e-06
-1.2368502e-05
-2.0668476e-06
-1.1464801e-05
-1.9800002e-06
-1.0601888e-05
-1.8903558e-06
-9.7809851e-06
-1.7980103e-06
-9.0025767e-06
-1.7046626e-06
-8.2670828e-06
-1.6104024e-06
-7.5750076e-06
-1.5150772e-06
-6.9262933e-06
-1.4199626e-06
-6.3208661e-06
-1.3250748e-06
-5.7587521e-06
-1.2301811e-06
-5.2395925e-06
-1.1361931e-06
-4.7629354e-06
-1.0432509e-06
-4.328379e-06
-9.5128851e-07
-3.9351603e-06
-8.610553e-07
-3.5821204e-06
-7.7348191e-07
-3.2678257e-06
-6.8917932e-07
-2.9908998e-06
-6.0807698e-07
-2.7500621e-06
-5.2986721e-07
-2.5438015e-06
-4.5497307e-07
-2.3700256e-06
-3.846419e-07
-2.2258823e-06
-3.2055391e-07
-2.1082215e-06
-2.633307e-07
-2.0130372e-06
-2.1483247e-07
-1.9362332e-06
-1.7516195e-07
-1.8724505e-06
-1.4703964e-07
-1.8175308e-06
-1.2779996e-07
-1.7662172e-06
-1.1975264e-07
-1.71677e-06
-1.1524924e-07
-1.6646875e-06
-1.2022803e-07
-1.6124593e-06
-1.1970037e-07
-1.5559495e-06
-1.2774999e-07
-1.4991125e-06
-1.2749356e-07
-1.4384534e-06
-1.3375902e-07
-1.3498772e-06
-1.949158e-07
-1.2716177e-06
-1.7233654e-07
-1.2272257e-06
-9.7356101e-08
-1.2135774e-06
-2.9749986e-08
-1.2309433e-06
3.6850181e-08
-1.2951767e-06
1.3947901e-07
-1.3961981e-06
2.2203043e-07
-1.4694981e-06
1.6369028e-07
-1.4713799e-06
5.3613535e-09
-1.4750602e-06
-8.235578e-10
-1.7012057e-06
4.7845088e-07
-2.1415572e-06
9.6498266e-07
-2.323983e-06
4.3036314e-07
-1.8702738e-06
-9.514201e-07
-8.4468668e-07
-2.2059691e-06
3.7976456e-07
-2.6553906e-06
1.4814968e-06
-2.4000818e-06
2.424434e-06
-2.0515771e-06
3.2657071e-06
-1.8270858e-06
4.0385509e-06
-1.6768397e-06
4.7509598e-06
-1.5449846e-06
5.3948889e-06
-1.3948594e-06
5.9632252e-06
-1.2288627e-06
6.4748714e-06
-1.104233e-06
6.9661208e-06
-1.061608e-06
7.447046e-06
-1.0396537e-06
7.9268208e-06
-1.0376214e-06
8.4252387e-06
-1.0790808e-06
8.9648658e-06
-1.1697528e-06
9.5744e-06
-1.322415e-06
1.0329084e-05
-1.6400599e-06
1.1329501e-05
-2.1849138e-06
1.2580476e-05
-2.7349385e-06
1.4070242e-05
-3.2562429e-06
1.584799e-05
-3.8883932e-06
1.7989928e-05
-4.6922687e-06
2.0575415e-05
-5.6753404e-06
2.3652792e-05
-6.7755007e-06
2.7022684e-05
-7.4359033e-06
3.0024556e-05
-6.6170932e-06
3.0962175e-05
-1.9403688e-06
2.7773722e-05
7.4745683e-06
2.0410377e-05
1.6742167e-05
1.2135152e-05
1.8334839e-05
3.6168566e-06
1.8431481e-05
-2.5009847e-07
8.026405e-06
-4.3464512e-06
8.2808561e-06
3.8954645e-07
-3.8258455e-06
-5.6533035e-06
-5.0742632e-06
3.1609099e-06
-2.9092927e-06
-5.7091127e-06
-3.0574235e-06
1.653159e-07
-2.1127258e-06
-2.4456803e-06
-2.0166682e-06
-3.1958758e-07
-1.7620069e-06
-6.2964216e-07
-2.1804364e-06
1.082412e-06
-2.109567e-06
-1.6700916e-07
-1.964466e-06
-3.7558277e-07
-1.3861466e-06
-1.4960827e-06
-5.9641232e-07
-2.0459043e-06
3.293184e-07
-2.3625583e-06
7.7386365e-07
-1.0771909e-06
3.6737311e-07
1.1312441e-06
-6.717812e-07
2.6911775e-06
-1.5023014e-06
2.0614456e-06
-1.8101406e-06
7.2666332e-07
-1.9923656e-06
4.577667e-07
-2.1917887e-06
5.172389e-07
-2.3061855e-06
3.0293561e-07
-2.3500366e-06
1.3350409e-07
-2.3376368e-06
-2.7857311e-09
-2.2251725e-06
-2.5825177e-07
-1.9339205e-06
-7.2253763e-07
-1.3867101e-06
-1.3932782e-06
-5.1789628e-07
-2.2290049e-06
6.746668e-07
-3.0708894e-06
2.1986884e-06
-3.9461602e-06
4.1092182e-06
-4.968867e-06
6.4116677e-06
-6.0072358e-06
9.0763671e-06
-6.9680018e-06
1.2045298e-05
-7.7733281e-06
1.5253287e-05
-8.4034242e-06
1.8642262e-05
-8.8785854e-06
2.2160161e-05
-9.2198972e-06
2.568157e-05
-9.2229421e-06
2.8989966e-05
-8.6296293e-06
3.1871902e-05
-7.4601693e-06
3.4132858e-05
-5.7753803e-06
3.5593389e-05
-3.6210812e-06
3.6153124e-05
-1.2304675e-06
3.5782792e-05
1.2149601e-06
3.4571338e-05
3.3764026e-06
3.2574116e-05
5.4016388e-06
3.0574697e-05
5.0960424e-06
2.7632139e-05
7.4249002e-06
2.0606772e-05
1.8994331e-05
1.1905986e-05
2.3013836e-05
4.8233763e-06
1.7996677e-05
5.6751419e-07
1.0535842e-05
2.1582936e-07
4.3887493e-07
1.6397659e-06
-4.6652905e-06
-1.0589826e-06
6.213361e-06
-8.3147974e-06
1.9719294e-05
-1.3345814e-05
1.4859854e-05
-1.1986443e-05
-2.5331034e-06
-5.7081875e-06
-1.6458692e-05
1.2934981e-06
-1.8883605e-05
6.394479e-06
-1.3921604e-05
9.4386287e-06
-8.2453478e-06
1.1014085e-05
-4.1746924e-06
1.1786553e-05
-1.9742614e-06
1.2279465e-05
-1.2289033e-06
1.2783975e-05
-1.2840168e-06
1.339946e-05
-1.6056444e-06
1.4172357e-05
-2.0682373e-06
1.5097293e-05
-2.5517588e-06
1.6050107e-05
-2.7495957e-06
1.6748262e-05
-2.2548738e-06
1.6735433e-05
-6.2080917e-07
1.5403641e-05
2.575953e-06
1.2187077e-05
7.3444258e-06
7.0555794e-06
1.2403935e-05
7.6688326e-07
1.573189e-05
-5.7183782e-06
1.664024e-05
-1.1910847e-05
1.6137878e-05
-1.7650494e-05
1.50997e-05
-2.2838308e-05
1.3757143e-05
-2.745078e-05
1.2313205e-05
-3.1508552e-05
1.0896682e-05
-3.5051941e-05
9.5687709e-06
-3.8124659e-05
8.3444483e-06
-4.0769794e-05
7.2264139e-06
-4.3025131e-05
6.2026515e-06
-4.4922157e-05
5.2575921e-06
-4.648937e-05
4.3845495e-06
-4.7752127e-05
3.5757995e-06
-4.8733169e-05
2.8250785e-06
-4.9453812e-05
2.1291993e-06
-4.9932957e-05
1.4818386e-06
-5.018841e-05
8.8029664e-07
-5.0237271e-05
3.2348087e-07
-5.0090023e-05
-2.0310251e-07
-4.9755372e-05
-7.0692016e-07
-4.9247085e-05
-1.1771632e-06
-4.8579132e-05
-1.6106781e-06
-4.7764832e-05
-2.0092711e-06
-4.6817806e-05
-2.3715103e-06
-4.5751615e-05
-2.6976529e-06
-4.4578892e-05
-2.9902245e-06
-4.3312654e-05
-3.2477268e-06
-4.1965909e-05
-3.4701698e-06
-4.0550507e-05
-3.6608911e-06
-3.9078535e-05
-3.8186986e-06
-3.7561995e-05
-3.9439855e-06
-3.6011462e-05
-4.040745e-06
-3.4437532e-05
-4.1085515e-06
-3.2850608e-05
-4.1480162e-06
-3.1259555e-05
-4.1634928e-06
-2.9672971e-05
-4.1554283e-06
-2.8099012e-05
-4.1252206e-06
-2.6544558e-05
-4.0762374e-06
-2.5016558e-05
-4.0082952e-06
-2.3520379e-05
-3.9258882e-06
-2.2061045e-05
-3.8297403e-06
-2.0643404e-05
-3.7204296e-06
-1.9270856e-05
-3.6020195e-06
-1.7946539e-05
-3.4750788e-06
-1.6673522e-05
-3.339866e-06
-1.5453618e-05
-3.199903e-06
-1.4288486e-05
-3.0554895e-06
-1.3179766e-05
-2.9067291e-06
-1.2128155e-05
-2.7562744e-06
-1.1134242e-05
-2.6043151e-06
-1.0198739e-05
-2.4505805e-06
-9.3216414e-06
-2.2970603e-06
-8.5029009e-06
-2.1438167e-06
-7.7426152e-06
-1.990466e-06
-7.0403811e-06
-1.838428e-06
-6.3956566e-06
-1.6879742e-06
-5.8079698e-06
-1.5389763e-06
-5.2763641e-06
-1.3926603e-06
-4.7993696e-06
-1.2504772e-06
-4.3751781e-06
-1.1133694e-06
-4.0020575e-06
-9.8119731e-07
-3.6783499e-06
-8.5357469e-07
-3.4020274e-06
-7.3129652e-07
-3.1702663e-06
-6.1640217e-07
-2.9792121e-06
-5.1160852e-07
-2.8245955e-06
-4.1794623e-07
-2.7009663e-06
-3.3846184e-07
-2.6026851e-06
-2.7344266e-07
-2.5223739e-06
-2.2735144e-07
-2.454207e-06
-1.9596597e-07
-2.390858e-06
-1.8310154e-07
-2.3296772e-06
-1.7642923e-07
-2.2643926e-06
-1.855125e-07
-2.1981101e-06
-1.8598258e-07
-2.1251385e-06
-2.0072176e-07
-2.050685e-06
-2.0194638e-07
-1.9696349e-06
-2.1480902e-07
-1.8507969e-06
-3.1375304e-07
-1.7457487e-06
-2.7738431e-07
-1.6858364e-06
-1.5726798e-07
-1.667503e-06
-4.8082887e-08
-1.6919603e-06
6.1307734e-08
-1.7796733e-06
2.2719239e-07
-1.9153603e-06
3.5771753e-07
-2.0120236e-06
2.6035389e-07
-2.0143363e-06
7.6741819e-09
-2.0272867e-06
1.2127088e-08
-2.3450117e-06
7.9617598e-07
-2.9364706e-06
1.5564419e-06
-3.1562191e-06
6.501118e-07
-2.5082434e-06
-1.5993955e-06
-1.090725e-06
-3.6234873e-06
5.8269935e-07
-4.3288145e-06
2.0798268e-06
-3.8972092e-06
3.3636336e-06
-3.3353837e-06
4.511941e-06
-2.975393e-06
5.5682125e-06
-2.7331112e-06
6.5427497e-06
-2.5195216e-06
7.4249287e-06
-2.2770383e-06
8.2055226e-06
-2.0094564e-06
8.9096518e-06
-1.8083621e-06
9.5849324e-06
-1.7368885e-06
1.0245588e-05
-1.700309e-06
1.0904299e-05
-1.6963328e-06
1.1587667e-05
-1.7624489e-06
1.2326222e-05
-1.9083069e-06
1.3159515e-05
-2.155708e-06
1.4188062e-05
-2.6686068e-06
1.5544123e-05
-3.540975e-06
1.723722e-05
-4.4280351e-06
1.9253597e-05
-5.2726179e-06
2.1657193e-05
-6.29199e-06
2.4547071e-05
-7.582145e-06
2.8025784e-05
-9.1540547e-06
3.2150762e-05
-1.0900478e-05
3.6658439e-05
-1.194358e-05
4.0683507e-05
-1.0642161e-05
4.2052616e-05
-3.309478e-06
3.8109829e-05
1.1417355e-05
2.8652767e-05
2.619923e-05
1.7647704e-05
2.9339901e-05
6.0570229e-06
3.0022162e-05
4.0331255e-07
1.3680115e-05
-5.5546469e-06
1.4238815e-05
5.8651652e-07
-4.7796099e-06
-7.8844271e-06
-6.4076506e-06
4.7889507e-06
-3.7129589e-06
-8.4038042e-06