/*--------------------------------*- C++ -*----------------------------------*\
| =========                 |                                                 |
| \\      /  F ield         | OpenFOAM: The Open Source CFD Toolbox           |
|  \\    /   O peration     | Version:  2.4.0                                 |
|   \\  /    A nd           | Web:      www.OpenFOAM.org                      |
|    \\/     M anipulation  |                                                 |
\*---------------------------------------------------------------------------*/
FoamFile
{
    version     2.0;
    format      ascii;
    class       volVectorField;
    location    "30";
    object      U;
}
// * * * * * * * * * * * * * * * * * * * * * * * * * * * * * * * * * * * * * //

dimensions      [0 1 -1 0 0 0 0];

internalField   nonuniform List<vector> 
32000
(
(0.002442846 2.2664153e-06 1.1372006e-20)
(-0.0097283433 -4.084497e-06 2.7898799e-21)
(-0.00035476586 2.7089365e-06 5.6145575e-21)
(-0.0046865901 0.00036425753 1.8240203e-19)
(-0.00063407618 8.9286445e-05 -4.6744347e-19)
(-0.0026412839 0.00065124865 -1.8527648e-18)
(-0.00062816675 0.00021857105 7.1673136e-19)
(-0.0020164016 0.0009647111 4.5367184e-19)
(-0.001444122 0.00082568086 3.8461026e-18)
(-0.001804443 0.0011839794 -2.0471047e-18)
(-0.0012223691 0.00087621246 -2.1408602e-18)
(-0.00081056856 0.00062548864 -4.7890425e-18)
(2.3775979e-05 -1.723461e-05 -4.7904051e-18)
(0.00055561026 -0.00046171865 -2.8542702e-18)
(0.00051865783 -0.00044772565 2.3693205e-20)
(-0.00021543855 0.00017413732 -1.5072034e-18)
(-0.00099375694 0.00083941554 -2.1559649e-19)
(-0.0012220041 0.001019528 1.2702217e-18)
(-0.0012622162 0.0010366858 1.4480802e-18)
(-0.0014091501 0.0011411657 2.174751e-18)
(-0.0015019063 0.001198948 1.3693874e-18)
(-0.0015391745 0.0012118547 -1.2813347e-18)
(-0.0015597175 0.0012125866 -4.8339058e-18)
(-0.0015392953 0.0011827199 1.405959e-18)
(-0.0014364264 0.0010919816 1.8769747e-18)
(-0.0011856177 0.00089155198 -4.937635e-18)
(-0.0007534063 0.00055644291 2.7667542e-18)
(-0.00010900362 6.2692744e-05 3.0817316e-18)
(0.00070753778 -0.00055098528 -2.5203052e-18)
(0.0017523332 -0.0013109475 6.0416538e-18)
(0.0030332538 -0.0022000382 -7.4466009e-19)
(0.0045396892 -0.0031816847 4.1307753e-18)
(0.0062352849 -0.0041957041 5.5025116e-18)
(0.0080746908 -0.0051728561 -3.2183135e-18)
(0.010015613 -0.0060430706 -6.1362032e-18)
(0.012033317 -0.0067501948 2.7018527e-18)
(0.014098506 -0.0072608197 -8.9924933e-19)
(0.016079719 -0.0075245509 -2.0487814e-18)
(0.017824144 -0.0074834736 2.9667684e-18)
(0.019219756 -0.0071231793 -9.7088123e-19)
(0.020158285 -0.0064571786 -7.8434875e-19)
(0.020554079 -0.0055282655 -2.5256831e-18)
(0.02042572 -0.0044232624 -7.2914399e-19)
(0.019755596 -0.0032236098 1.7382439e-19)
(0.018756487 -0.0020445937 -1.0589191e-18)
(0.017239883 -0.00093542856 -3.5204031e-20)
(0.016835984 -0.00011105791 1.3868569e-20)
(0.014010337 1.2531914e-05 -8.7325426e-24)
(0.0078873914 1.7434657e-05 1.0370573e-22)
(0.003342337 1.4840007e-05 -1.0564272e-22)
(0.00032765602 8.9946753e-06 6.528386e-23)
(-0.00083004242 2.1222173e-07 -1.5612977e-23)
(0.00064183462 -1.0109079e-05 -1.0904176e-22)
(0.0022366391 -3.195308e-06 6.5583566e-23)
(-0.0012503466 1.7130013e-05 -1.0184889e-24)
(-0.0072352387 2.1516892e-05 2.382082e-23)
(-0.0097675431 1.0687501e-05 -2.3646177e-23)
(-0.0073854702 -2.1898893e-06 9.7742614e-23)
(-0.0025341483 -8.8737949e-06 3.991099e-24)
(0.0016714109 -9.5645459e-06 -9.5014542e-23)
(0.0043890152 -7.266121e-06 2.891431e-23)
(0.0057794171 -5.0003806e-06 -1.6509369e-23)
(0.0063853942 -3.4120924e-06 -3.3637462e-23)
(0.0066472945 -2.7046322e-06 -9.649164e-25)
(0.0068789558 -2.6597639e-06 -3.2515123e-23)
(0.0071812686 -2.9100121e-06 -3.2548e-23)
(0.0075888847 -3.692494e-06 4.5394062e-23)
(0.0081557096 -4.6436354e-06 -2.5475708e-23)
(0.0088767205 -6.0060278e-06 7.8785003e-23)
(0.0096757057 -7.1831079e-06 -1.6279512e-24)
(0.010373808 -8.0585467e-06 1.0585228e-23)
(0.010698831 -8.2748555e-06 -1.4383303e-23)
(0.010239543 -6.6008681e-06 8.4026587e-24)
(0.0085974573 -3.5219842e-06 -3.4940657e-24)
(0.0058061311 -2.1990826e-08 -2.1373766e-23)
(0.0023577653 2.5698512e-06 -1.5239686e-23)
(-0.0012563981 4.1573888e-06 1.360537e-23)
(-0.0047958578 5.3116166e-06 -4.3422817e-24)
(-0.008130491 6.0529918e-06 8.1673385e-24)
(-0.011188751 6.5802838e-06 -4.956396e-25)
(-0.013948079 6.8670275e-06 -3.3973325e-25)
(-0.016411739 7.0502815e-06 7.262644e-24)
(-0.018595017 7.0985437e-06 -6.0643639e-24)
(-0.020517331 7.0671405e-06 -1.3766489e-24)
(-0.022198767 6.9359455e-06 -9.1534824e-25)
(-0.023656202 6.712744e-06 4.5041357e-24)
(-0.024904573 6.4204147e-06 -2.6254516e-24)
(-0.025957998 6.0301296e-06 -3.60724e-24)
(-0.026828865 5.5966262e-06 1.5935775e-24)
(-0.027529398 5.0874396e-06 -1.4040489e-24)
(-0.028070523 4.5231876e-06 -1.7477291e-24)
(-0.028462205 3.9087535e-06 5.9345293e-24)
(-0.028714145 3.2689001e-06 -6.5951828e-24)
(-0.028836295 2.5927372e-06 1.4034678e-23)
(-0.028834395 1.9071683e-06 -1.4090116e-24)
(-0.028713573 1.1924385e-06 -1.1770774e-24)
(-0.028482326 4.7372327e-07 4.2669086e-25)
(-0.028148492 -2.4747942e-07 -1.7679268e-24)
(-0.027720133 -9.5066413e-07 -3.5634634e-24)
(-0.027206287 -1.6305686e-06 2.9667748e-25)
(-0.026614635 -2.2822359e-06 9.44498e-25)
(-0.025953282 -2.8995855e-06 2.3600195e-24)
(-0.025231133 -3.4697871e-06 -9.5118534e-24)
(-0.024455835 -4.0042193e-06 -2.4594004e-24)
(-0.02363508 -4.4839444e-06 -6.2490662e-24)
(-0.022777451 -4.9138213e-06 -1.8752642e-24)
(-0.021889948 -5.2915664e-06 -9.4085861e-25)
(-0.02097959 -5.6134619e-06 1.8660107e-23)
(-0.020053909 -5.8837653e-06 2.5213958e-23)
(-0.019118998 -6.0995737e-06 -1.0454561e-24)
(-0.018180765 -6.2677468e-06 -6.473495e-23)
(-0.017245095 -6.3799934e-06 -6.6695686e-25)
(-0.016316736 -6.4532623e-06 -6.2107925e-24)
(-0.015400691 -6.4773551e-06 5.993158e-23)
(-0.014500938 -6.4679903e-06 -2.8242534e-24)
(-0.013620759 -6.4146111e-06 -5.1803925e-24)
(-0.012763863 -6.3349799e-06 -7.0218311e-23)
(-0.011932721 -6.2206992e-06 6.3192156e-23)
(-0.011129377 -6.0878564e-06 6.3756133e-23)
(-0.010356164 -5.9247145e-06 -7.3128002e-23)
(-0.0096144415 -5.7513024e-06 -2.7689221e-24)
(-0.0089052144 -5.5546772e-06 6.7427292e-23)
(-0.0082297279 -5.3512462e-06 -2.0036726e-24)
(-0.0075885092 -5.1345917e-06 -3.0666452e-24)
(-0.0069818255 -4.91486e-06 -8.7881112e-23)
(-0.0064101569 -4.6847605e-06 2.9119098e-24)
(-0.0058735168 -4.4574765e-06 -9.2088818e-24)
(-0.0053717125 -4.2247014e-06 -4.1644345e-24)
(-0.0049047453 -3.9933329e-06 -3.1964306e-24)
(-0.0044723017 -3.7653991e-06 -3.2067865e-24)
(-0.0040739629 -3.539908e-06 1.491972e-22)
(-0.0037092897 -3.3185797e-06 -1.6298614e-22)
(-0.0033777355 -3.1020482e-06 1.5821158e-22)
(-0.0030785284 -2.8952202e-06 -8.7315428e-23)
(-0.0028102835 -2.6943344e-06 8.126193e-23)
(-0.0025716897 -2.5033632e-06 -6.0146245e-16)
(-0.0023614368 -2.321931e-06 -6.0461737e-16)
(-0.002178537 -2.1448475e-06 -8.7857195e-23)
(-0.0020215022 -1.9751269e-06 6.0800699e-16)
(-0.0018885277 -1.8188002e-06 6.107383e-16)
(-0.00177688 -1.6706195e-06 3.2888549e-22)
(-0.0016843355 -1.5353205e-06 -8.3474673e-23)
(-0.0016068585 -1.413492e-06 1.574614e-22)
(-0.0015423241 -1.3048621e-06 -8.3709346e-23)
(-0.0014846979 -1.2071249e-06 -1.7730306e-22)
(-0.0014341122 -1.1217007e-06 3.3181684e-22)
(-0.0013825561 -1.0443553e-06 -2.5799029e-22)
(-0.0013364288 -9.6799419e-07 3.3402062e-22)
(-0.0012823002 -9.062388e-07 -5.9832555e-22)
(-0.0012390019 -8.3177364e-07 3.3454727e-22)
(-0.0011803462 -7.8882634e-07 7.7685256e-23)
(-0.0011408014 -7.1227973e-07 -2.9575331e-24)
(-0.0010793141 -7.7538971e-07 -2.9690662e-24)
(-0.00099638854 -7.0465488e-06 -3.6126884e-20)
(-0.00094904905 -5.1926905e-05 -2.5160562e-18)
(-0.00092139101 -0.00010084434 -3.838536e-19)
(-0.00092442315 -0.00015107887 7.7036521e-19)
(-0.00094590658 -0.00020500539 -6.3128965e-19)
(-0.0010239357 -0.00027568904 3.7454511e-18)
(-0.001110815 -0.00035625803 2.7672801e-18)
(-0.0011531957 -0.00042841222 -5.5493495e-18)
(-0.0011249773 -0.00047296512 1.1949033e-18)
(-0.0011471837 -0.00053638996 2.2800968e-18)
(-0.0014582741 -0.00075074662 2.1583879e-18)
(-0.0018712196 -0.0010503468 -7.3508086e-18)
(-0.0018508778 -0.0011169406 -3.3085645e-18)
(-0.0012698656 -0.00081180556 -7.4084305e-19)
(-0.00029009316 -0.00019288251 -8.2767076e-18)
(0.0006923628 0.00048495229 -7.8932238e-18)
(0.0015413916 0.0011093894 4.4836608e-18)
(0.0022955292 0.0016900323 -8.0295578e-18)
(0.0029991154 0.0022454117 -1.3491684e-19)
(0.003668219 0.0027763475 1.0501755e-17)
(0.0043002069 0.0032723942 -5.2566228e-18)
(0.0048808471 0.0037262924 1.7574605e-18)
(0.005404986 0.0041440319 4.7617529e-18)
(0.0059107169 0.0045656416 -1.1221866e-17)
(0.0064276833 0.005006487 -9.6799777e-19)
(0.0069471665 0.0054639179 -7.8071409e-18)
(0.0074940135 0.0059608399 -9.3549786e-19)
(0.0080846053 0.0065125019 -2.0534795e-19)
(0.0087517003 0.0071482451 3.6348771e-18)
(0.0095227409 0.0078956134 5.2482739e-18)
(0.010541737 0.0088659094 1.2243557e-18)
(0.011898422 0.010056325 -6.1653209e-18)
(0.013539935 0.011363921 -1.5857374e-18)
(0.015505983 0.012768641 3.1530362e-18)
(0.017892813 0.014269337 -3.0622369e-18)
(0.020810672 0.015827651 7.2313011e-19)
(0.024374997 0.01734678 8.9601361e-19)
(0.028631247 0.018564741 1.9657121e-18)
(0.033041477 0.018789993 -1.1447061e-18)
(0.036440626 0.017168974 3.6775288e-19)
(0.035153702 0.012521212 -1.5295499e-19)
(0.027499807 0.0067728945 1.6594425e-21)
(0.015541554 0.0024004511 -3.3959762e-20)
(0.0073680528 0.00062632639 -3.0121572e-20)
(-0.004342929 -0.00010272452 4.4044166e-21)
(0.00074865222 2.7190713e-06 -3.8315232e-22)
(-0.013717688 7.6112278e-05 -1.0156096e-21)
(0.0067873259 -3.1611325e-05 -2.6924605e-20)
(-0.02782013 1.1158088e-05 -5.6759977e-21)
(-0.00089821472 -3.0194259e-05 -1.3320096e-19)
(-0.013832606 0.001084645 -4.971012e-19)
(-0.0019752797 0.00026682877 1.3175368e-19)
(-0.0078978352 0.0019527751 3.3883438e-18)
(-0.0019761584 0.0006864222 4.6273438e-19)
(-0.0060479289 0.0029130709 -1.6525334e-18)
(-0.0043661679 0.0025116003 -2.3990769e-18)
(-0.0054104776 0.003572701 1.1148829e-18)
(-0.0036919476 0.0026556257 3.550133e-18)
(-0.0024702553 0.0018983456 6.0567558e-18)
(1.1514013e-05 -3.2568948e-05 9.8353554e-18)
(0.0016498408 -0.0013920276 6.9616776e-19)
(0.0016260824 -0.0013812186 -1.8753123e-18)
(-0.00050353258 0.00046485185 4.4666409e-18)
(-0.0028815337 0.0024926255 6.9973189e-18)
(-0.0036481322 0.0030770408 6.9061579e-19)
(-0.0037887106 0.0031395706 3.7622807e-18)
(-0.0042216556 0.0034510207 2.3309377e-18)
(-0.0044947042 0.0036228278 6.527385e-18)
(-0.0045903101 0.0036541339 -3.817779e-18)
(-0.004625874 0.0036438659 6.2417938e-18)
(-0.0045354474 0.0035391973 1.6093716e-18)
(-0.0041997759 0.0032503623 2.6612716e-18)
(-0.0034299453 0.0026332123 1.7708352e-18)
(-0.0021312069 0.0016157103 -1.0562833e-17)
(-0.00020300531 0.00012160922 -1.1477983e-17)
(0.0022273508 -0.0017289227 4.8607394e-18)
(0.0053203327 -0.0040124015 -8.4617487e-18)
(0.0090984887 -0.0066764171 -1.4456595e-18)
(0.013531814 -0.0096111713 -1.4629313e-18)
(0.018516627 -0.012637699 -3.0466414e-18)
(0.023924769 -0.015550976 3.4483265e-18)
(0.029636174 -0.018143911 1.4444891e-18)
(0.035578204 -0.020248255 -6.9650541e-18)
(0.041662096 -0.021761941 3.7381899e-18)
(0.047514961 -0.022538398 1.9517783e-18)
(0.052700646 -0.022409437 2.4343333e-19)
(0.056888836 -0.021330177 -6.7638406e-19)
(0.059758534 -0.019338506 1.3528372e-18)
(0.061049877 -0.016560383 3.2013074e-18)
(0.060795793 -0.0132489 2.7280303e-19)
(0.058936895 -0.0096499109 -2.8970591e-19)
(0.056040874 -0.0060978273 5.5795674e-19)
(0.051613239 -0.0027701742 3.6146962e-20)
(0.05005178 -0.00026221736 3.1913361e-21)
(0.04182564 0.00018044211 -5.070993e-23)
(0.02427611 0.00019931738 1.6846798e-22)
(0.010694892 0.00014330802 -1.9781144e-22)
(0.0014396683 7.8929913e-05 5.1069911e-23)
(-0.0021682892 -7.4587434e-06 1.4834265e-22)
(0.0019472951 -6.6200072e-05 -1.1406258e-22)
(0.005845096 3.6335277e-05 7.8820535e-24)
(-0.0048159164 0.00019377028 7.4367414e-24)
(-0.021531815 0.00016614569 2.5577847e-23)
(-0.027822558 -1.5694502e-06 -8.9431787e-24)
(-0.020340684 -0.00014215805 3.0567391e-23)
(-0.0062120327 -0.00017267858 -1.7787516e-22)
(0.0057570349 -0.00013065526 2.0004832e-22)
(0.013416256 -7.6402855e-05 3.1095246e-23)
(0.017367057 -3.7463692e-05 -1.8387744e-22)
(0.019128278 -1.6671673e-05 6.0875745e-23)
(0.019931012 -1.003034e-05 -4.137427e-23)
(0.020647276 -1.0837008e-05 1.0234925e-22)
(0.021559337 -1.4192394e-05 -3.4333159e-23)
(0.022763087 -1.9359688e-05 -6.1811433e-23)
(0.024397052 -2.5510686e-05 9.2564105e-24)
(0.026421499 -3.0056e-05 9.64233e-23)
(0.028581638 -2.9811557e-05 6.3400331e-24)
(0.030313713 -2.0791529e-05 -1.3861683e-22)
(0.03078224 1.3219003e-06 1.4654963e-22)
(0.028785383 3.9349208e-05 -1.3781562e-22)
(0.023256826 8.4566852e-05 8.8571699e-23)
(0.014449379 0.00011929479 -5.0404812e-23)
(0.003928052 0.00013490018 9.1259037e-24)
(-0.0068642938 0.00013623 1.5244805e-23)
(-0.017300052 0.00013069648 -2.6152895e-24)
(-0.027046391 0.00012152368 -1.5702739e-24)
(-0.035924924 0.00011063994 -5.9904421e-24)
(-0.043891098 9.9431629e-05 1.2192571e-23)
(-0.05096887 8.8590855e-05 7.4773085e-24)
(-0.057212241 7.8409329e-05 -7.6955979e-24)
(-0.062683866 6.8966259e-05 6.4488851e-25)
(-0.067446192 6.0199778e-05 -1.4566808e-24)
(-0.071551489 5.2019307e-05 3.94547e-24)
(-0.075045633 4.437216e-05 5.4661243e-24)
(-0.077971648 3.7206033e-05 -1.720879e-24)
(-0.080367304 3.0489284e-05 -9.3890884e-24)
(-0.082269506 2.4195273e-05 2.4017092e-23)
(-0.083711101 1.8281294e-05 -2.2393932e-23)
(-0.084722074 1.2720478e-05 1.1607215e-23)
(-0.085331461 7.5140432e-06 -6.2044923e-24)
(-0.085568697 2.6041683e-06 4.4760118e-24)
(-0.085449972 -2.0804417e-06 -4.0469618e-25)
(-0.08499006 -6.5350676e-06 -5.2044937e-25)
(-0.08421431 -1.0691677e-05 1.2399748e-24)
(-0.083145903 -1.4553821e-05 5.8722256e-24)
(-0.081808467 -1.8085938e-05 -5.8103905e-24)
(-0.080228114 -2.1301978e-05 6.7224163e-25)
(-0.078427303 -2.421545e-05 -3.2757152e-24)
(-0.076429557 -2.6800174e-05 -3.7423892e-24)
(-0.074260349 -2.9065351e-05 1.13168e-23)
(-0.071941854 -3.1034758e-05 -5.8271504e-25)
(-0.069496211 -3.268383e-05 -4.8556018e-25)
(-0.066947818 -3.4031696e-05 -3.334611e-23)
(-0.064316847 -3.5105782e-05 4.7557454e-23)
(-0.061623392 -3.5892319e-05 -2.0026461e-23)
(-0.058888784 -3.6411164e-05 5.3116707e-23)
(-0.056130507 -3.6695965e-05 -1.1560224e-22)
(-0.05336539 -3.6743957e-05 1.5319852e-22)
(-0.050610133 -3.6583606e-05 -1.2263099e-22)
(-0.047878335 -3.622906e-05 -2.5669167e-23)
(-0.045184141 -3.5695919e-05 1.687776e-23)
(-0.042538934 -3.50181e-05 1.2250982e-22)
(-0.039952103 -3.4199356e-05 -7.0704438e-23)
(-0.037434126 -3.325738e-05 5.1445584e-23)
(-0.034992111 -3.2224626e-05 6.9160374e-23)
(-0.032631927 -3.1101537e-05 -9.8378503e-24)
(-0.03036018 -2.9905063e-05 7.2288105e-23)
(-0.028180822 -2.8659807e-05 -1.9933421e-22)
(-0.026096777 -2.7367865e-05 1.8013184e-22)
(-0.024111588 -2.6039342e-05 -3.6620206e-22)
(-0.022226844 -2.469416e-05 7.1955348e-23)
(-0.020443374 -2.333113e-05 2.0962582e-23)
(-0.018762577 -2.1958989e-05 2.1491165e-23)
(-0.017184584 -2.0588413e-05 7.5678357e-23)
(-0.015708931 -1.9220858e-05 -3.1332655e-23)
(-0.014335668 -1.7859024e-05 7.7326425e-23)
(-0.013063996 -1.6511416e-05 2.3468431e-23)
(-0.011892804 -1.5179028e-05 -3.1548421e-23)
(-0.01082088 -1.3867512e-05 7.9271232e-23)
(-0.0098467163 -1.2580478e-05 2.4183924e-23)
(-0.0089681391 -1.1334917e-05 2.4368384e-23)
(-0.0081812127 -1.0141237e-05 -4.024349e-22)
(-0.0074823247 -8.9997294e-06 5.2698471e-22)
(-0.0068678505 -7.9036241e-06 -4.809036e-22)
(-0.0063349336 -6.8548733e-06 2.5850895e-22)
(-0.0058791657 -5.8695447e-06 2.4369503e-23)
(-0.0054952144 -4.9710147e-06 8.1939509e-23)
(-0.0051749848 -4.1693538e-06 2.4765702e-23)
(-0.0049119029 -3.4875975e-06 -2.1295335e-22)
(-0.0046939338 -2.9276445e-06 -2.5208174e-22)
(-0.0045145921 -2.5217327e-06 3.0096099e-22)
(-0.0043558424 -2.2398359e-06 8.2690988e-23)
(-0.004217737 -2.0963635e-06 -3.3454994e-23)
(-0.0040762938 -2.0086429e-06 -1.9547412e-22)
(-0.0039499062 -2.0199536e-06 2.4473437e-23)
(-0.0037988009 -1.9861547e-06 2.4552251e-23)
(-0.0036780447 -2.0045617e-06 -1.5788632e-22)
(-0.0035105002 -1.9942574e-06 2.4492443e-23)
(-0.003397326 -1.9417863e-06 -3.4085814e-23)
(-0.0032170599 -2.8173862e-06 6.6406649e-22)
(-0.0029747903 -2.160252e-05 1.7031022e-21)
(-0.0028371928 -0.00015616903 -9.1630344e-20)
(-0.0027550382 -0.00030298113 -4.8603708e-18)
(-0.0027638384 -0.00045369212 2.1349138e-18)
(-0.0028282569 -0.0006153595 -3.2433586e-18)
(-0.0030587903 -0.00082684846 -5.6282864e-18)
(-0.0033113185 -0.0010681898 -1.0264045e-17)
(-0.003429362 -0.0012845841 8.6458647e-18)
(-0.0033444277 -0.0014193236 9.1332459e-19)
(-0.0034269798 -0.001612409 -1.0570101e-17)
(-0.0043658209 -0.0022566185 -1.9438219e-18)
(-0.0055633799 -0.0031482294 -6.0124383e-18)
(-0.0054465825 -0.0033379167 1.2943819e-17)
(-0.0036775673 -0.0024146467 -3.0846466e-18)
(-0.00074561967 -0.0005490818 7.8872155e-18)
(0.0021614345 0.0014854552 7.2892755e-18)
(0.0046667054 0.0033589873 -9.3992182e-18)
(0.0068982828 0.0051035546 1.2826776e-17)
(0.0089837341 0.0067730404 -4.1160719e-18)
(0.010968377 0.0083694326 -1.4272875e-17)
(0.012844624 0.0098618086 2.1564657e-19)
(0.014571499 0.01122935 -4.5049302e-18)
(0.01613484 0.012490671 -1.9582153e-18)
(0.017643337 0.01376327 -2.4232162e-18)
(0.019181722 0.015092232 1.8876808e-18)
(0.020726847 0.016471624 -5.8331289e-18)
(0.022350695 0.0179688 9.113475e-19)
(0.024101242 0.019629814 3.609549e-18)
(0.02607357 0.021541621 -9.4606367e-18)
(0.0283514 0.023788657 -3.5052601e-18)
(0.031346981 0.026694723 -4.1947862e-18)
(0.035319708 0.03024808 9.8354352e-19)
(0.040130249 0.034149412 5.4631006e-18)
(0.045897589 0.038336023 -3.1437192e-18)
(0.052897235 0.042798508 -2.2163057e-18)
(0.061446821 0.047417028 5.6372205e-18)
(0.071876152 0.051896034 -5.7227363e-18)
(0.084302841 0.055447502 -3.8822468e-18)
(0.097204417 0.056049729 3.0941086e-19)
(0.10723975 0.051205057 -6.5424429e-19)
(0.10420771 0.03758471 -5.9278274e-19)
(0.083101636 0.020711301 -2.1625857e-19)
(0.049080716 0.0076823416 -3.3460851e-20)
(0.024620479 0.0021946384 1.2030279e-19)
(-0.010231894 -0.00018854638 7.1849919e-21)
(0.0030029362 8.7708376e-05 3.4278365e-21)
(-0.038878382 0.00021864883 -1.059251e-20)
(0.010938635 -0.00011789175 -4.1644099e-21)
(-0.045186314 5.5571011e-05 -3.0886714e-21)
(-0.0014332189 -0.00011558768 -1.2741128e-20)
(-0.022902525 0.0017964593 8.3874105e-19)
(-0.0034960621 0.0004523469 6.5114004e-19)
(-0.013233551 0.0032634758 -3.2094166e-18)
(-0.0034999207 0.0012186846 -1.9223585e-18)
(-0.010181685 0.0049136536 -7.4611394e-19)
(-0.0074246543 0.004276082 -1.2857478e-18)
(-0.009121959 0.0060181767 -7.210336e-19)
(-0.0062707163 0.0044937223 6.6319469e-19)
(-0.0042221226 0.0032135615 -3.8232527e-18)
(-6.557619e-05 -2.1316122e-05 -7.4341145e-18)
(0.0027568518 -0.0023419333 5.6702001e-19)
(0.00282704 -0.0023780928 6.4272709e-18)
(-0.00066821543 0.00067322019 3.9072436e-19)
(-0.004730483 0.0041227366 -3.6596083e-18)
(-0.0061322265 0.0051835796 -7.6118324e-18)
(-0.0063994306 0.0053123262 -2.9131984e-18)
(-0.0071194697 0.0058298155 -2.0355851e-19)
(-0.0075743232 0.0061131379 -5.7139057e-18)
(-0.0077170761 0.0061507538 4.3495124e-18)
(-0.0077458286 0.0061089442 6.8704757e-18)
(-0.0075585248 0.0059038802 -3.5276808e-18)
(-0.0069605948 0.0053873299 -1.2739863e-18)
(-0.005642828 0.0043227628 -1.1112152e-18)
(-0.0034524981 0.0025950268 8.3526576e-18)
(-0.00020747461 6.8143293e-05 4.8290385e-18)
(0.0038653546 -0.0030467796 -4.5105399e-18)
(0.0090262524 -0.0068735377 -1.0314151e-18)
(0.015311525 -0.011322299 -4.1591854e-18)
(0.022670991 -0.016208825 8.6268056e-19)
(0.030935274 -0.02123687 -5.3193095e-18)
(0.039896692 -0.026069551 -3.6096536e-18)
(0.049360618 -0.030366473 3.4278621e-18)
(0.05920586 -0.033848649 -5.6655944e-19)
(0.069281985 -0.036342418 2.2839552e-18)
(0.078992856 -0.037613253 3.4845887e-18)
(0.08763937 -0.037390763 -1.8822818e-18)
(0.094677554 -0.035596954 6.0935803e-18)
(0.099576998 -0.032289612 -2.8551983e-18)
(0.10190106 -0.027672421 -2.183182e-18)
(0.10166658 -0.022152325 -5.6573833e-19)
(0.098778089 -0.016141623 -7.5584763e-19)
(0.09407219 -0.01017807 4.0383344e-19)
(0.086864992 -0.0046080826 -3.9810854e-19)
(0.083738406 -0.00035375748 2.1939748e-20)
(0.07026893 0.00051953461 -2.0431918e-22)
(0.041965119 0.00059573349 5.5808083e-23)
(0.019131066 0.00043736013 9.9112204e-23)
(0.0031917954 0.00024507091 8.6602685e-24)
(-0.0031277953 -1.1102636e-05 -2.2680149e-23)
(0.0033076355 -0.00016679604 -1.2375625e-22)
(0.0085464947 0.00012613085 2.2792221e-22)
(-0.0095666837 0.00054874822 -1.6212785e-22)
(-0.035785653 0.00045485115 -7.0126009e-23)
(-0.044592576 -2.7111561e-05 9.9133136e-23)
(-0.031690477 -0.0004271253 6.5147753e-23)
(-0.0085916608 -0.00050871508 -7.8912216e-23)
(0.010624848 -0.00038090993 9.449956e-24)
(0.022863352 -0.00022268639 -1.3620885e-22)
(0.029248945 -0.00010916339 1.6839791e-22)
(0.032161091 -4.8723176e-05 -4.1643448e-23)
(0.033546708 -2.9105826e-05 2.2658078e-23)
(0.034780717 -3.1378857e-05 8.1929368e-24)
(0.036317754 -4.0802184e-05 -1.8508631e-22)
(0.038310656 -5.4952943e-05 2.5526435e-22)
(0.040957065 -7.0979195e-05 -2.6808459e-22)
(0.044157628 -8.1428341e-05 1.0296267e-22)
(0.047448328 -7.6049174e-05 1.0444735e-22)
(0.049845048 -4.3606798e-05 -6.7963408e-23)
(0.049914023 2.8025219e-05 7.5120956e-24)
(0.045672807 0.0001446346 1.1594281e-23)
(0.03551342 0.0002775913 4.1102281e-23)
(0.020076347 0.00037556667 -5.7838244e-23)
(0.0021270442 0.00041480954 -3.7864382e-23)
(-0.015940251 0.00041282776 3.262695e-23)
(-0.033238579 0.00039225112 -8.2862232e-24)
(-0.049273751 0.00036181378 1.7752603e-23)
(-0.063795726 0.00032714814 -1.5820278e-23)
(-0.076761283 0.00029206964 2.8492942e-23)
(-0.08823011 0.00025856283 -1.2777384e-23)
(-0.09830434 0.00022733327 1.0988015e-24)
(-0.10709549 0.00019856014 -1.0132384e-23)
(-0.11471174 0.00017200934 7.8432982e-24)
(-0.12124355 0.00014738293 -5.4615845e-24)
(-0.12676979 0.00012450284 2.405184e-25)
(-0.13136384 0.00010317826 2.1692329e-24)
(-0.13509009 8.3334005e-05 5.4306254e-24)
(-0.13801086 6.4839669e-05 -8.8081662e-24)
(-0.1401815 4.7570817e-05 -1.2613783e-23)
(-0.14165259 3.1442749e-05 5.1388173e-24)
(-0.14247292 1.6464374e-05 1.2677419e-23)
(-0.14269157 2.3722647e-06 -1.0499055e-23)
(-0.14233198 -1.1110259e-05 -6.4755947e-24)
(-0.14142056 -2.3821333e-05 1.065977e-23)
(-0.13999965 -3.5585833e-05 -7.3644074e-24)
(-0.1381078 -4.64514e-05 8.2738179e-25)
(-0.13578399 -5.6343585e-05 2.9643048e-24)
(-0.13307063 -6.5298359e-05 3.433824e-24)
(-0.13000473 -7.3363677e-05 3.8753754e-24)
(-0.12662471 -8.0477698e-05 2.8244064e-24)
(-0.12297161 -8.6667851e-05 4.8663294e-24)
(-0.11908165 -9.2009758e-05 -1.1675608e-23)
(-0.11499076 -9.6439451e-05 2.3503085e-23)
(-0.11073799 -0.00010001438 -1.2727126e-23)
(-0.10635612 -0.00010281259 -3.1089215e-23)
(-0.10187761 -0.000104804 4.4312013e-23)
(-0.097336477 -0.00010605058 2.8716587e-23)
(-0.092761047 -0.00010663622 -5.9550911e-23)
(-0.088178375 -0.00010656886 -6.3881513e-23)
(-0.083615156 -0.00010591574 2.8745864e-23)
(-0.079093415 -0.00010473275 3.1146577e-23)
(-0.074635686 -0.00010305306 1.0525662e-22)
(-0.070260366 -0.00010097873 -6.8897877e-23)
(-0.06598264 -9.8510737e-05 3.5202045e-23)
(-0.061819181 -9.5712754e-05 -7.3420717e-23)
(-0.057781562 -9.266013e-05 -1.8780943e-22)
(-0.053879306 -8.9368581e-05 3.3440616e-23)
(-0.05012296 -8.5870843e-05 3.4774988e-22)
(-0.046519027 -8.2246895e-05 -7.7328754e-23)
(-0.043072318 -7.8489253e-05 7.4107581e-23)
(-0.03978852 -7.4640521e-05 -2.3461685e-22)
(-0.036670346 -7.0742299e-05 -8.3795451e-23)
(-0.033719247 -6.6800733e-05 3.3768488e-24)
(-0.030937526 -6.2829816e-05 3.2307894e-22)
(-0.028325546 -5.8868379e-05 -1.199127e-22)
(-0.025882709 -5.4909789e-05 1.6805121e-22)
(-0.023609172 -5.0968419e-05 -2.1260263e-22)
(-0.021503809 -4.7065322e-05 -2.1569793e-22)
(-0.019564967 -4.3203075e-05 2.9888919e-22)
(-0.017790767 -3.9396732e-05 3.0250939e-22)
(-0.016178881 -3.5658552e-05 -8.7127831e-22)
(-0.014725863 -3.2038987e-05 8.2864509e-22)
(-0.013425444 -2.8562623e-05 -2.5793829e-22)
(-0.01227201 -2.5229407e-05 -2.2230213e-22)
(-0.011259879 -2.2024863e-05 1.7568502e-22)
(-0.010384382 -1.895715e-05 -9.0903295e-23)
(-0.0096381988 -1.6076352e-05 -3.5896995e-22)
(-0.0090124755 -1.3456077e-05 1.7671875e-22)
(-0.0084937681 -1.1119093e-05 4.4680885e-22)
(-0.0080711286 -9.1410053e-06 1.7939836e-22)
(-0.0077244581 -7.5260494e-06 -2.2660565e-22)
(-0.0074426165 -6.3783116e-06 -6.7412179e-22)
(-0.0071954386 -5.5928606e-06 1.7903153e-22)
(-0.0069823162 -5.2480097e-06 -2.2941057e-22)
(-0.0067631959 -5.0495227e-06 8.6187927e-22)
(-0.0065674343 -5.1991508e-06 1.8127562e-22)
(-0.0063294528 -5.1540944e-06 -2.2922327e-22)
(-0.0061388722 -5.3796099e-06 -2.6898629e-22)
(-0.0058692869 -5.3571824e-06 -2.3035805e-22)
(-0.0056858852 -5.4367401e-06 1.8141307e-22)
(-0.0053885683 -8.0140894e-06 -2.3083084e-22)
(-0.0049900199 -3.9127909e-05 8.6455194e-20)
(-0.0047633745 -0.00026387901 6.483141e-19)
(-0.00462664 -0.00050939704 5.6219757e-18)
(-0.0046418182 -0.00076148049 -3.2188307e-18)
(-0.0047517115 -0.0010317054 1.4082393e-18)
(-0.0051348408 -0.0013844008 9.962125e-18)
(-0.0055484898 -0.0017872797 1.5664345e-18)
(-0.0057358123 -0.0021491256 -1.2626804e-17)
(-0.0055971154 -0.0023768362 -1.5116236e-18)
(-0.0057649327 -0.0027054689 6.8643912e-18)
(-0.0073537078 -0.0037840427 2.8459592e-18)
(-0.0093068052 -0.0052597427 3.849205e-18)
(-0.0090293686 -0.0055578105 1.2567069e-17)
(-0.0060107064 -0.0040005277 1.0143508e-17)
(-0.0010763793 -0.00086432905 -8.5685757e-19)
(0.003769738 0.0025395082 -1.219764e-17)
(0.0079411559 0.0056739318 -3.7604989e-18)
(0.011667336 0.0085976122 9.7692028e-18)
(0.015154757 0.011397188 1.1128501e-18)
(0.018475875 0.014075213 -2.4355808e-18)
(0.021617886 0.016580685 3.7690109e-18)
(0.024513995 0.018880375 -9.7915657e-19)
(0.027142615 0.021006232 -1.3362613e-18)
(0.029679745 0.023149605 1.4654381e-17)
(0.032263004 0.025384248 1.3331582e-18)
(0.034857943 0.027704137 4.845359e-19)
(0.037582295 0.030218904 1.3208913e-17)
(0.04051634 0.03300604 -5.3256422e-18)
(0.043816584 0.036208466 6.6380612e-19)
(0.047627979 0.039970226 -2.1347118e-18)
(0.05261954 0.04481272 5.6572525e-18)
(0.059214651 0.05071161 1.0453386e-17)
(0.067200439 0.057185638 -5.48505e-18)
(0.076772683 0.064123652 -7.2789814e-18)
(0.088375364 0.071498115 -1.1972743e-18)
(0.10252103 0.079100013 -9.5125661e-18)
(0.11973415 0.086427489 4.9470558e-18)
(0.14017049 0.092164912 6.8724117e-18)
(0.1613775 0.093044934 1.5624643e-18)
(0.17792295 0.085015558 -6.7921448e-19)
(0.17383084 0.062898933 4.0992151e-19)
(0.14083587 0.035419454 5.0506469e-20)
(0.086308671 0.013818583 2.1375202e-19)
(0.045093653 0.0042978056 -9.1545715e-20)
(-0.01284285 -5.7721204e-05 3.8172978e-20)
(0.0058851427 0.00030227749 4.1287115e-22)
(-0.062424119 0.00035303729 1.9843147e-20)
(0.015021065 -0.00025678346 7.0253529e-20)
(-0.061787968 0.00013551776 7.7884667e-21)
(-0.0020198935 -0.0002614342 1.3523298e-19)
(-0.031795712 0.0024969173 -6.6752361e-19)
(-0.0052435492 0.00064533544 1.9735438e-20)
(-0.018609063 0.0045782896 1.1044606e-18)
(-0.0052385774 0.0018217247 -1.0586645e-18)
(-0.014401528 0.0069637841 1.9761518e-18)
(-0.01063014 0.0061207149 -1.2577716e-18)
(-0.012928164 0.0085146726 -1.2489734e-18)
(-0.0089598668 0.0063875747 -6.0483074e-18)
(-0.0060653153 0.0045685817 7.1496832e-18)
(-0.00021900142 2.0476928e-05 -2.8090627e-18)
(0.0038651063 -0.0033061348 1.1206104e-18)
(0.0041159656 -0.0034358646 -9.4073577e-19)
(-0.00069515733 0.00079312945 -8.9582141e-18)
(-0.0065175719 0.0057201054 -8.3371798e-19)
(-0.0086619036 0.0073326437 1.5643996e-18)
(-0.0090901969 0.0075519413 -1.7613987e-19)
(-0.010096747 0.0082737226 -7.5603135e-18)
(-0.010733824 0.0086643811 3.7972398e-18)
(-0.010912083 0.0086948317 1.0851321e-18)
(-0.010910673 0.0085991754 -6.9876662e-18)
(-0.01059819 0.0082663916 3.2882771e-18)
(-0.0097080064 0.0074913915 -5.3222772e-18)
(-0.0078148985 0.0059492072 -7.0257593e-18)
(-0.0047121154 0.0034854351 -1.7767655e-18)
(-0.00012219466 -0.00010415048 2.6664314e-18)
(0.0056121917 -0.0045047137 2.4399335e-18)
(0.012846182 -0.0098846267 6.1019865e-18)
(0.021628818 -0.016114713 8.0621128e-19)
(0.031888457 -0.022935516 2.7733782e-18)
(0.043392471 -0.029936363 6.2506261e-18)
(0.055858339 -0.03665381 1.273726e-17)
(0.069021323 -0.042619689 4.2670674e-18)
(0.082712349 -0.047446664 1.9014942e-18)
(0.096717572 -0.050887828 -3.5963692e-18)
(0.11024071 -0.052630489 -4.7401775e-18)
(0.12234629 -0.052311931 -8.7530466e-19)
(0.13228539 -0.049818475 -3.6908313e-18)
(0.13932472 -0.045222061 2.3451189e-18)
(0.14284995 -0.038796237 2.6080494e-18)
(0.14282204 -0.031084626 2.3888051e-19)
(0.13912128 -0.022666891 7.8420275e-19)
(0.13275323 -0.014265488 -7.2643265e-19)
(0.12298034 -0.0064352381 5.9489207e-19)
(0.11789748 -0.00036881384 -3.3360955e-21)
(0.099388576 0.0010484912 -2.3848182e-23)
(0.061146117 0.0012325539 2.5260287e-23)
(0.028880004 0.00092700013 -2.4655856e-23)
(0.005767819 0.00052772137 -2.5364135e-23)
(-0.0036141629 -6.7415435e-06 4.6213444e-23)
(0.0046826908 -0.0003070896 1.5878406e-22)
(0.010217852 0.00029067499 -2.0733097e-22)
(-0.015430537 0.0011028986 1.5074742e-22)
(-0.049696483 0.00088219691 -1.9778355e-22)
(-0.059773346 -8.7843448e-05 4.0614596e-23)
(-0.041266787 -0.00088130449 2.3977624e-23)
(-0.0096378227 -0.0010346651 1.1979087e-22)
(0.01620829 -0.00076978074 -1.8121467e-22)
(0.032651978 -0.00045203618 1.842724e-22)
(0.041359463 -0.00022431602 -6.3996018e-24)
(0.045432275 -0.00010252344 2.9210087e-23)
(0.047449892 -6.2420398e-05 -1.5620847e-22)
(0.049233211 -6.6559509e-05 -1.074086e-22)
(0.051402714 -8.5251525e-05 1.7677625e-22)
(0.054164141 -0.00011280828 5.0317216e-23)
(0.057746071 -0.00014319217 -1.6964481e-22)
(0.061964489 -0.00016056065 1.6825505e-22)
(0.066115969 -0.0001435242 -2.1406024e-22)
(0.068763632 -6.8659093e-05 1.7997772e-22)
(0.067837658 8.8185529e-05 -2.4910787e-23)
(0.06058866 0.00033435517 -2.1506005e-23)