/*--------------------------------*- C++ -*----------------------------------*\
| =========                 |                                                 |
| \\      /  F ield         | OpenFOAM: The Open Source CFD Toolbox           |
|  \\    /   O peration     | Version:  2.4.0                                 |
|   \\  /    A nd           | Web:      www.OpenFOAM.org                      |
|    \\/     M anipulation  |                                                 |
\*---------------------------------------------------------------------------*/
FoamFile
{
    version     2.0;
    format      ascii;
    class       volScalarField;
    location    "330";
    object      v2;
}
// * * * * * * * * * * * * * * * * * * * * * * * * * * * * * * * * * * * * * //

dimensions      [0 2 -2 0 0 0 0];

internalField   nonuniform List<scalar> 
32000
(
3.3044389e-06
4.2266215e-07
1.9293152e-06
3.1375982e-07
1.590261e-07
2.8038423e-09
9.1456526e-09
8.0312821e-10
1.6026728e-09
7.6729126e-10
6.8464218e-10
5.1224221e-10
4.2327464e-10
3.4495436e-10
2.8464142e-10
2.3880667e-10
2.0433097e-10
1.7995694e-10
1.6094375e-10
1.4499707e-10
1.3040466e-10
1.1718405e-10
1.0446166e-10
9.1867061e-11
7.9515979e-11
6.714019e-11
7.2167101e-11
8.132765e-11
8.9432584e-11
9.6693612e-11
1.0305883e-10
1.0852696e-10
1.129222e-10
1.1603123e-10
1.177597e-10
1.1830421e-10
1.1792613e-10
1.1639446e-10
1.1353646e-10
1.0950672e-10
1.0456996e-10
9.9038803e-11
9.3092391e-11
8.6942173e-11
8.0619166e-11
7.414568e-11
6.7957717e-11
6.4349759e-11
8.392809e-11
1.061316e-10
1.3012274e-10
1.5534034e-10
1.8131682e-10
2.0728395e-10
2.3233645e-10
2.5534493e-10
2.7485793e-10
2.8921062e-10
2.9654648e-10
2.9506715e-10
2.8329821e-10
2.5963159e-10
2.2248843e-10
1.7110568e-10
1.0667066e-10
1.2106231e-10
2.0556357e-10
2.9390888e-10
3.8000182e-10
4.5722146e-10
5.1911119e-10
5.6047116e-10
5.7874371e-10
5.7561747e-10
5.562366e-10
5.2935862e-10
5.0590212e-10
4.967357e-10
5.120721e-10
5.6129078e-10
6.5329396e-10
7.9538367e-10
9.9056089e-10
1.2343354e-09
1.5130148e-09
1.8027313e-09
2.0687477e-09
2.2679066e-09
2.3559858e-09
2.3080084e-09
2.1303311e-09
1.8709786e-09
1.592875e-09
1.3504839e-09
1.1759319e-09
1.079832e-09
1.0554553e-09
1.0848628e-09
1.1430017e-09
1.2097959e-09
1.2741779e-09
1.3322609e-09
1.3835053e-09
1.4272828e-09
1.4604374e-09
1.4769023e-09
1.4676964e-09
1.4233828e-09
1.3355837e-09
1.1994978e-09
1.0180773e-09
8.001551e-10
5.575776e-10
3.0373834e-10
1.3795407e-10
3.8875778e-10
6.3556566e-10
8.7348003e-10
1.100098e-09
1.3137857e-09
1.513646e-09
1.6992252e-09
1.8702351e-09
2.0266398e-09
2.1685388e-09
2.295962e-09
2.4089007e-09
2.5073765e-09
2.5914418e-09
2.6611541e-09
2.7166193e-09
2.7579297e-09
2.7851461e-09
2.7983793e-09
2.7977473e-09
2.7833731e-09
2.7553787e-09
2.7139215e-09
2.6593634e-09
2.5922636e-09
2.5133967e-09
2.4238255e-09
2.3249995e-09
2.2187057e-09
2.1068549e-09
1.9910654e-09
1.8720002e-09
1.7484433e-09
1.6173183e-09
1.4730212e-09
1.311676e-09
1.1259762e-09
9.2119737e-10
6.6760802e-10
4.6608434e-10
3.468427e-10
2.568652e-10
2.0269907e-10
1.8515999e-10
2.0460625e-10
2.4714066e-10
2.9458416e-10
3.3566009e-10
3.6954322e-10
4.0135769e-10
4.3294844e-10
4.4508849e-10
4.1670726e-10
3.6442912e-10
3.2586621e-10
3.2719778e-10
3.8876991e-10
5.2373881e-10
7.0214294e-10
8.5490949e-10
9.3263359e-10
9.330216e-10
8.7628208e-10
7.8026138e-10
6.6086986e-10
5.2488487e-10
3.76056e-10
1.9125978e-10
1.6311862e-10
4.138595e-10
7.4380616e-10
1.2051987e-09
1.866427e-09
2.8770577e-09
4.3017718e-09
7.038321e-09
9.1058056e-09
1.9541774e-08
7.9394354e-09
6.5586138e-08
2.0668585e-08
3.7106863e-07
4.6791324e-07
2.2138451e-06
4.4071015e-07
1.3855956e-06
3.4988e-07
9.5815728e-07
2.4019407e-07
1.3679557e-07
3.3724073e-09
9.8577828e-09
1.448928e-09
2.1229546e-09
1.133126e-09
9.7537135e-10
7.3853947e-10
6.0407485e-10
4.8766786e-10
3.958492e-10
3.251023e-10
2.7110785e-10
2.3233557e-10
2.0211903e-10
1.7701979e-10
1.5446255e-10
1.3432971e-10
1.1534875e-10
9.6954946e-11
7.9243171e-11
6.1770113e-11
6.7419087e-11
7.8011777e-11
8.7128008e-11
9.5001943e-11
1.0156023e-10
1.0679986e-10
1.1051512e-10
1.124735e-10
1.1261036e-10
1.1123389e-10
1.0876381e-10
1.0509474e-10
1.001522e-10
9.4202081e-11
8.7597852e-11
8.071156e-11
7.3751151e-11
6.6953377e-11
6.0364e-11
5.4100618e-11
4.8868521e-11
4.781592e-11
6.776665e-11
8.9839652e-11
1.1326049e-10
1.3752555e-10
1.6222558e-10
1.8666943e-10
2.1004001e-10
2.3131546e-10
2.4918636e-10
2.6215753e-10
2.6856923e-10
2.6683247e-10
2.5563854e-10
2.3356351e-10
1.9925797e-10
1.5215012e-10
9.3814484e-11
1.1012272e-10
1.8713521e-10
2.6769932e-10
3.4610097e-10
4.1632276e-10
4.7254528e-10
5.1012082e-10
5.2681084e-10
5.2421167e-10
5.0699935e-10
4.8307872e-10
4.6225621e-10
4.5427235e-10
4.6825748e-10
5.1262254e-10
5.9537007e-10
7.2309594e-10
8.985188e-10
1.117572e-09
1.3678264e-09
1.6276331e-09
1.8655778e-09
2.0429836e-09
2.1199092e-09
2.075626e-09
1.9159126e-09
1.684249e-09
1.436729e-09
1.2216052e-09
1.0671865e-09
9.8266941e-10
9.6190415e-10
9.8881638e-10
1.0411352e-09
1.1010513e-09
1.1587818e-09
1.2108914e-09
1.2568132e-09
1.2958158e-09
1.3249237e-09
1.3385992e-09
1.3287202e-09
1.2869188e-09
1.20594e-09
1.0817773e-09
9.1729499e-10
7.2052135e-10
5.0212493e-10
2.746489e-10
1.4267508e-10
3.6526158e-10
5.8593269e-10
7.9915632e-10
1.0026242e-09
1.194821e-09
1.374913e-09
1.5424711e-09
1.6972182e-09
1.8391027e-09
1.968194e-09
2.0844972e-09
2.1879814e-09
2.2786447e-09
2.3565107e-09
2.4216058e-09
2.4739986e-09
2.5137441e-09
2.5408691e-09
2.5554463e-09
2.5575547e-09
2.5472753e-09
2.5246777e-09
2.4898809e-09
2.4431926e-09
2.3850852e-09
2.3162198e-09
2.2375152e-09
2.1502461e-09
2.0560124e-09
1.9565573e-09
1.8533928e-09
1.7471702e-09
1.6367892e-09
1.5193075e-09
1.3893057e-09
1.2426478e-09
1.0721673e-09
8.8161375e-10
6.4308717e-10
4.4841177e-10
3.3074154e-10
2.4149126e-10
1.8748401e-10
1.7057519e-10
1.9290496e-10
2.4181319e-10
2.9866556e-10
3.5107466e-10
3.9736625e-10
4.4270251e-10
4.8893737e-10
5.1267e-10
4.8634301e-10
4.2787221e-10
3.8410836e-10
3.8950947e-10
4.7142351e-10
6.4858999e-10
8.8452383e-10
1.0909913e-09
1.2028224e-09
1.2146428e-09
1.149753e-09
1.030392e-09
8.7662113e-10
6.9673774e-10
4.9492654e-10
2.40424e-10
2.1017853e-10
5.7491056e-10
1.0536082e-09
1.7147813e-09
2.6454565e-09
4.0189499e-09
5.9243077e-09
9.2491532e-09
1.2049885e-08
2.2154116e-08
1.1745539e-08
5.4145781e-08
1.5704336e-08
2.2945759e-07
3.0407107e-07
1.0401471e-06
3.8451617e-07
9.3008008e-08
6.3160297e-08
1.0448397e-07
6.8615174e-08
4.5920158e-08
1.5108795e-09
4.9563985e-09
1.3095359e-09
1.4474923e-09
8.9130244e-10
7.4867344e-10
5.8436916e-10
4.7957738e-10
3.8938936e-10
3.1582123e-10
2.5802102e-10
2.1297872e-10
1.7994154e-10
1.5419417e-10
1.330429e-10
1.1443162e-10
9.8133136e-11
8.3159002e-11
6.9041276e-11
5.5785723e-11
4.301013e-11
4.5788916e-11
5.1683002e-11
5.648118e-11
6.0310968e-11
6.3127686e-11
6.4941048e-11
6.5649075e-11
6.5153427e-11
6.3474814e-11
6.0869257e-11
5.7686339e-11
5.4015153e-11
4.9909011e-11
4.556726e-11
4.120009e-11
3.6997195e-11
3.3048825e-11
2.9454278e-11
2.6212361e-11
2.3394104e-11
2.1316816e-11
2.1393062e-11
2.9978347e-11
3.9244909e-11
4.8902655e-11
5.8760268e-11
6.8673377e-11
7.8380477e-11
8.7572574e-11
9.5860956e-11
1.0274746e-10
1.0766531e-10
1.0998792e-10
1.0911973e-10
1.0457385e-10
9.5822369e-11
8.2375208e-11
6.405694e-11
4.1641914e-11
4.8305302e-11
7.7973874e-11
1.0901765e-10
1.3916411e-10
1.6609529e-10
1.8759361e-10
2.0191045e-10
2.0823419e-10
2.0722463e-10
2.0069194e-10
1.9165353e-10
1.838275e-10
1.8089281e-10
1.8630077e-10
2.0323347e-10
2.347347e-10
2.833328e-10
3.5008249e-10
4.3343089e-10
5.2859265e-10
6.2721481e-10
7.1720751e-10
7.8386458e-10
8.1173892e-10
7.9414552e-10
7.3307899e-10
6.4531695e-10
5.5202708e-10
4.7123458e-10
4.1341298e-10
3.8189693e-10
3.7432635e-10
3.8466677e-10
4.0453147e-10
4.2720932e-10
4.4906014e-10
4.6878291e-10
4.8610743e-10
5.0072995e-10
5.1149969e-10
5.1631316e-10
5.1212999e-10
4.9584791e-10
4.6481764e-10
4.1760384e-10
3.5530585e-10
2.8092493e-10
1.9845724e-10
1.1276117e-10
6.4713964e-11
1.4786209e-10
2.3100748e-10
3.1162194e-10
3.8876599e-10
4.6184123e-10
5.3051589e-10
5.94615e-10
6.5402278e-10
7.0870909e-10
7.5869011e-10
8.0395736e-10
8.4448795e-10
8.8026963e-10
9.1129895e-10
9.3757248e-10
9.5910237e-10
9.7589485e-10
9.8794491e-10
9.9526547e-10
9.9787198e-10
9.9578009e-10
9.8899707e-10
9.7755761e-10
9.6156221e-10
9.4117664e-10
9.1663633e-10
8.8827383e-10
8.5656024e-10
8.220998e-10
7.8556544e-10
7.4755589e-10
7.0834002e-10
6.6748485e-10
6.2376929e-10
5.7490768e-10
5.1896844e-10
4.5282337e-10
3.77375e-10
2.8075599e-10
1.987818e-10
1.4811084e-10
1.0955733e-10
8.6312795e-11
7.9925836e-11
9.2495148e-11
1.192369e-10
1.5177895e-10
1.8409989e-10
2.1507605e-10
2.4717641e-10
2.8112509e-10
3.0281646e-10
2.9439409e-10
2.6464546e-10
2.4209588e-10
2.4948317e-10
3.0569774e-10
4.2451358e-10
5.8396224e-10
7.2742207e-10
8.1137023e-10
8.3028707e-10
7.9664939e-10
7.2404672e-10
6.2494939e-10
5.0412119e-10
3.634982e-10
1.8110866e-10
1.6539908e-10
4.4656213e-10
8.156416e-10
1.3190103e-09
2.0132544e-09
2.9975476e-09
4.3315386e-09
6.4127951e-09
8.3282864e-09
1.298384e-08
8.4959198e-09
2.2066132e-08
5.0631538e-09
6.5487191e-08
8.1871922e-08
1.064578e-07
7.2003304e-08
7.0903211e-10
2.187169e-09
1.7919302e-09
9.6860116e-09
8.6512374e-09
3.6352947e-10
1.5549428e-09
7.6915011e-10
6.5089656e-10
4.751545e-10
3.9238436e-10
3.191255e-10
2.6418377e-10
2.1662646e-10
1.7590613e-10
1.4300218e-10
1.1660805e-10
9.6720663e-11
8.1253915e-11
6.875306e-11
5.8063638e-11
4.8952003e-11
4.0875139e-11
3.3549487e-11
2.6923831e-11
2.076639e-11
2.1195987e-11
2.2917087e-11
2.4104763e-11
2.4804037e-11
2.5010099e-11
2.474767e-11
2.4009404e-11
2.2802059e-11
2.1183226e-11
1.9296126e-11
1.7323644e-11
1.5367458e-11
1.3473503e-11
1.1705213e-11
1.0110376e-11
8.7183859e-12
7.5283417e-12
6.5411094e-12
5.7352407e-12
5.1171372e-12
4.7285823e-12
4.7834452e-12
6.4608059e-12
8.2223708e-12
1.0023324e-11
1.1831902e-11
1.3627387e-11
1.5366106e-11
1.6996422e-11
1.8452516e-11
1.9649637e-11
2.049154e-11
2.0872237e-11
2.0690926e-11
1.9866351e-11
1.8311037e-11
1.5944388e-11
1.2743772e-11
8.8726778e-12
9.9673375e-12
1.5105621e-11
2.0489783e-11
2.5705989e-11
3.0349703e-11
3.403987e-11
3.6481977e-11
3.7547796e-11
3.7365868e-11
3.6253135e-11
3.4726818e-11
3.3418998e-11
3.2951674e-11
3.3913616e-11
3.6845642e-11
4.2271948e-11
5.0634722e-11
6.212432e-11
7.6475058e-11
9.2848675e-11
1.0977108e-10
1.2511338e-10
1.363346e-10
1.4068944e-10
1.3743578e-10
1.2681249e-10
1.1177937e-10
9.5937707e-11
8.2298177e-11
7.2577874e-11
6.7304902e-11
6.607034e-11
6.7869442e-11
7.1272186e-11
7.5132249e-11
7.8852849e-11
8.2208175e-11
8.5131433e-11
8.7573414e-11
8.9337149e-11
9.0069479e-11
8.9271444e-11
8.643478e-11
8.1132551e-11
7.3135542e-11
6.2624926e-11
5.0090659e-11
3.6192853e-11
2.1758805e-11
1.3299313e-11
2.7136813e-11
4.1152271e-11
5.4812851e-11
6.7941701e-11
8.0430065e-11
9.2216801e-11
1.0326842e-10
1.1356206e-10
1.230896e-10
1.3185106e-10
1.3984234e-10
1.4705671e-10
1.5348907e-10
1.5913564e-10
1.639925e-10
1.6805831e-10
1.7133063e-10
1.7380505e-10
1.7548052e-10
1.7635663e-10
1.7643331e-10
1.7571141e-10
1.7419212e-10
1.7188896e-10
1.6882858e-10
1.6504908e-10
1.6060481e-10
1.5557438e-10
1.5006133e-10
1.441845e-10
1.3805396e-10
1.3172373e-10
1.2511995e-10
1.1801356e-10
1.0996052e-10
1.0054446e-10
8.9119161e-11
7.5704559e-11
5.7794054e-11
4.174665e-11
3.1681096e-11
2.4089918e-11
1.9642697e-11
1.890679e-11
2.2756931e-11
3.0575992e-11
4.072023e-11
5.1881828e-11
6.3815649e-11
7.7248783e-11
9.2322091e-11
1.0409724e-10
1.0562235e-10
9.8779781e-11
9.3594469e-11
9.9228554e-11
1.2399783e-10
1.7448883e-10
2.4300946e-10
3.0730787e-10
3.491811e-10
3.6515675e-10
3.583237e-10
3.3343196e-10
2.9498017e-10
2.4425784e-10
1.8128507e-10
9.5120103e-11
9.1149259e-11
2.4001084e-10
4.3643118e-10
7.0071289e-10
1.056065e-09
1.5346678e-09
2.1604558e-09
3.0015693e-09
3.8349694e-09
4.9714695e-09
3.8265437e-09
5.7124783e-09
9.1376919e-10
1.1455673e-08
1.2020259e-08
1.7578899e-09
2.5892628e-09
4.6513284e-13
9.5206201e-12
1.9263354e-12
6.649078e-10
1.0317227e-09
5.9688215e-11
3.4439348e-10
2.9260529e-10
2.004135e-10
1.7380832e-10
1.4257764e-10
1.214913e-10
1.0173984e-10
8.4280243e-11
6.8368558e-11
5.5044222e-11
4.3995871e-11
3.5454765e-11
2.8882632e-11
2.3709774e-11
1.9458291e-11
1.5970001e-11
1.3022413e-11
1.0484148e-11
8.3037272e-12
6.3827229e-12
6.1624963e-12
6.2800757e-12
6.2463516e-12
6.0763996e-12
5.7811757e-12
5.3808772e-12
4.8911838e-12
4.332659e-12
3.7351116e-12
3.1412999e-12
2.5966656e-12
2.1245142e-12
1.7248929e-12
1.3957917e-12
1.131645e-12
9.2480522e-13
7.658261e-13
6.4733929e-13
5.6203564e-13
5.0769933e-13
4.8608352e-13
5.012521e-13
6.4655637e-13
7.9543834e-13
9.4512468e-13
1.0934669e-12
1.2392774e-12
1.3794072e-12
1.5100719e-12
1.6263496e-12
1.7218514e-12
1.7893092e-12
1.8207451e-12
1.8084573e-12
1.74631e-12
1.6278055e-12
1.4469933e-12
1.2027851e-12
9.1093043e-13
9.8674848e-13
1.3812002e-12
1.7973375e-12
2.2006447e-12
2.5593854e-12
2.8442039e-12
3.0328925e-12
3.1164484e-12
3.1059126e-12
3.025865e-12
2.9155542e-12
2.8226574e-12
2.7939164e-12
2.8743484e-12
3.1051721e-12
3.5271563e-12
4.1754892e-12
5.0661394e-12
6.179115e-12
7.4483619e-12
8.7561761e-12
9.9327179e-12
1.0779812e-11
1.1075543e-11
1.0805504e-11
9.9753433e-12
8.821674e-12
7.6187799e-12
6.5905908e-12
5.8618381e-12
5.4692484e-12
5.3812189e-12
5.5235735e-12
5.7869947e-12
6.0827929e-12
6.3688835e-12
6.6270598e-12
6.8489465e-12
7.0314404e-12
7.1591685e-12
7.2056469e-12
7.1342493e-12
6.9083534e-12
6.4979754e-12
5.8875283e-12
5.0906898e-12
4.1431946e-12
3.0938847e-12
2.0067189e-12
1.3218125e-12
2.3379731e-12
3.3884653e-12
4.4194503e-12
5.4151281e-12
6.3662835e-12
7.2676657e-12
8.1162781e-12
8.9100166e-12
9.6479387e-12
1.0329755e-11
1.0954895e-11
1.152258e-11
1.2032145e-11
1.2483019e-11
1.2874622e-11
1.3206569e-11
1.3478401e-11
1.3689525e-11
1.3839638e-11
1.3928539e-11
1.3956094e-11
1.3922814e-11
1.3827984e-11
1.3672702e-11
1.3459063e-11
1.3189996e-11
1.2869625e-11
1.2503929e-11
1.2100939e-11
1.1670128e-11
1.1220683e-11
1.0757727e-11
1.0276311e-11
9.7584582e-12
9.1674806e-12
8.4664581e-12
7.5982992e-12
6.5542937e-12
5.0936984e-12
3.7244443e-12
2.8825994e-12
2.2741083e-12
1.9483581e-12
1.9823747e-12
2.5168603e-12
3.574857e-12
5.0707955e-12
6.936875e-12
9.2116951e-12
1.2069182e-11
1.5584057e-11
1.890205e-11
2.0555968e-11
2.0509449e-11
2.057442e-11
2.2829003e-11
2.9452075e-11
4.239119e-11
6.0323069e-11
7.8262094e-11
9.1684274e-11
9.9318015e-11
1.0105548e-10
9.7644869e-11
8.9844821e-11
7.7563436e-11
6.0302637e-11
3.4188066e-11
3.470182e-11
8.9002747e-11
1.6172283e-10
2.5842387e-10
3.8468385e-10
5.4437906e-10
7.4249886e-10
9.6131607e-10
1.1867286e-09
1.2847783e-09
1.0617407e-09
1.0648858e-09
1.2345266e-10
1.3708417e-09
1.0251847e-09
2.1444368e-12
1.139511e-11
1e-15
4.2334977e-15
1e-15
1.6787942e-11
7.8395334e-11
7.907968e-12
6.0171657e-11
7.0837604e-11
4.4756588e-11
4.3918695e-11
3.6299013e-11
3.2137732e-11
2.7167792e-11
2.2610668e-11
1.8208347e-11
1.4400189e-11
1.1166385e-11
8.6413693e-12
6.7499633e-12
5.3198153e-12
4.2021544e-12
3.3281231e-12
2.6294965e-12
2.0621945e-12
1.6022619e-12
1.2215452e-12
1.1064566e-12
1.0489855e-12
9.7199426e-13
8.7974166e-13
7.7691863e-13
6.6910907e-13
5.6087883e-13
4.5663123e-13
3.6067075e-13
2.7737241e-13
2.100093e-13
1.5838466e-13
1.195094e-13
9.0747155e-14
6.9817656e-14
5.4838926e-14
4.4295367e-14
3.7137339e-14
3.2609892e-14
3.048179e-14
3.1026814e-14
3.3332081e-14
4.1349786e-14
4.9451949e-14
5.7519234e-14
6.546856e-14
7.3252315e-14
8.072499e-14
8.7704316e-14
9.3949331e-14
9.9145433e-14
1.0293329e-13
1.0491738e-13
1.0470812e-13
1.0199878e-13
9.6471678e-14
8.7842654e-14
7.6097838e-14
6.2243422e-14
6.5763424e-14
8.5325861e-14
1.0625609e-13
1.2665238e-13
1.4488879e-13
1.5948345e-13
1.6932672e-13
1.7398068e-13
1.7400695e-13
1.7063384e-13
1.6578986e-13
1.6181363e-13
1.6100179e-13
1.6559306e-13
1.7766415e-13
1.9929779e-13
2.32328e-13
2.7763175e-13
3.3424698e-13
3.9881164e-13
4.6524896e-13
5.2477888e-13
5.6730992e-13
5.811389e-13
5.6714863e-13
5.2508488e-13
4.6735868e-13
4.0763267e-13
3.5685746e-13
3.2104042e-13
3.01908e-13
2.9789015e-13
3.0534102e-13
3.1886364e-13
3.3390074e-13
3.4858897e-13
3.6192261e-13
3.7322279e-13
3.8237838e-13
3.8856671e-13
3.904291e-13
3.8613733e-13
3.7396798e-13
3.525532e-13
3.2124836e-13
2.8079911e-13
2.329918e-13
1.8027919e-13
1.2605305e-13
9.0218749e-14
1.3872942e-13
1.9028413e-13
2.412419e-13
2.9063596e-13
3.3793726e-13
3.8284277e-13
4.2517439e-13
4.6480544e-13
5.0167049e-13
5.3573961e-13
5.6697137e-13
5.9531526e-13
6.2072646e-13
6.4316529e-13
6.6259263e-13
6.7897976e-13
6.9229563e-13
7.0250407e-13
7.0958515e-13
7.1352694e-13
7.1432841e-13
7.1198821e-13
7.064868e-13
6.978927e-13
6.8631898e-13
6.7191914e-13
6.5490378e-13
6.3557267e-13
6.1432647e-13
5.9163865e-13
5.6797225e-13
5.435953e-13
5.1828409e-13
4.9117486e-13
4.604774e-13
4.2438704e-13
3.800586e-13
3.269504e-13
2.5220858e-13
1.8294419e-13
1.4310151e-13
1.166716e-13
1.0487833e-13
1.1230887e-13
1.4868361e-13
2.2051816e-13
3.3049917e-13
4.8376218e-13
6.9391261e-13
9.8820277e-13
1.3892843e-12
1.8334118e-12
2.1698715e-12
2.3522695e-12
2.5438862e-12
2.9960711e-12
4.0252819e-12
5.959962e-12
8.7209913e-12
1.1703912e-11
1.427786e-11
1.6207372e-11
1.7311545e-11
1.7597998e-11
1.7079964e-11
1.5615442e-11
1.295555e-11
8.1617396e-12
8.8880516e-12
2.2173724e-11
4.0500568e-11
6.4793299e-11
9.569568e-11
1.3241553e-10
1.7501926e-10
2.1297076e-10
2.4954626e-10
2.3878042e-10
1.8578318e-10
1.6301112e-10
1.5986059e-11
1.118911e-10
4.7484891e-11
1e-15
4.6190141e-15
1e-15
1e-15
1e-15
8.0327525e-14
3.3930527e-12
8.391465e-13
8.6613296e-12
1.1943857e-11
8.0232487e-12
8.3197652e-12
7.0255991e-12
6.3270494e-12
5.3618942e-12
4.4368173e-12
3.5195705e-12
2.71533e-12
2.0315215e-12
1.5045595e-12
1.1251652e-12
8.5116442e-13
6.4755047e-13
4.9554934e-13
3.799327e-13
2.906463e-13
2.2163354e-13
1.6738708e-13
1.4339427e-13
1.2719359e-13
1.103131e-13
9.3382978e-14
7.7069494e-14
6.1977828e-14
4.849269e-14
3.6858819e-14
2.7204987e-14
1.9593931e-14
1.396126e-14
9.9802675e-15
7.1896068e-15
5.2506104e-15
3.9159563e-15
3.0070082e-15
2.3971421e-15
2.0042662e-15
1.7755956e-15
1.6967331e-15
1.791677e-15
1.9738329e-15
2.3943615e-15
2.815582e-15
3.2321546e-15
3.6409149e-15
4.0398759e-15
4.4224168e-15
4.7799187e-15
5.1008596e-15
5.3701485e-15
5.5705153e-15
5.6827958e-15
5.6879307e-15
5.5710628e-15
5.3170138e-15
4.9126413e-15
4.3591259e-15
3.7149722e-15
3.889309e-15
4.8358851e-15
5.8600346e-15
6.8619904e-15
7.7608364e-15
8.4838391e-15
8.9771583e-15
9.2202811e-15
9.241073e-15
9.1001218e-15
8.8903161e-15
8.7237505e-15
8.7105219e-15
8.9585002e-15
9.5697384e-15
1.0647279e-14
1.228329e-14
1.4523362e-14
1.7321672e-14
2.0511204e-14
2.3786994e-14
2.670836e-14
2.8775071e-14
2.9392943e-14
2.867162e-14
2.6583616e-14
2.3765385e-14
2.0879258e-14
1.844485e-14
1.6741324e-14
1.58447e-14
1.5676317e-14
1.6058344e-14
1.6733024e-14
1.7472319e-14
1.8200405e-14
1.8864391e-14
1.9417258e-14
1.9856906e-14
2.0140935e-14
2.0200622e-14
1.9948691e-14
1.9307608e-14
1.8218515e-14
1.665743e-14
1.4663829e-14
1.232401e-14
9.7564911e-15
7.1337763e-15
5.3981386e-15
7.6603661e-15
1.0124147e-14
1.2575913e-14
1.4961272e-14
1.7251606e-14
1.9430423e-14
2.1487794e-14
2.3416558e-14
2.5212649e-14
2.6873832e-14
2.839741e-14
2.9780278e-14
3.101962e-14
3.211288e-14
3.305757e-14
3.3851738e-14
3.449339e-14
3.4980381e-14
3.5311446e-14
3.5485879e-14
3.5503195e-14
3.536145e-14
3.5061913e-14
3.4608311e-14
3.4006459e-14
3.3264027e-14
3.2391326e-14
3.1402845e-14
3.0317951e-14
2.9159603e-14
2.7950379e-14
2.6703503e-14
2.5408377e-14
2.4023238e-14
2.2461359e-14
2.0635293e-14
1.8405932e-14
1.5743489e-14
1.201224e-14
8.627468e-15
6.7915558e-15
5.6703445e-15
5.2746177e-15
5.8382215e-15
7.8956886e-15
1.1958637e-14
1.8479962e-14
2.818117e-14
4.24509e-14
6.3849912e-14
9.5113358e-14
1.3339281e-13
1.6877551e-13
1.9665264e-13
2.2798267e-13
2.8371121e-13
3.9444156e-13
5.9633995e-13
8.9139648e-13
1.2308517e-12
1.5565237e-12
1.8437855e-12
2.0619459e-12
2.2021263e-12
2.2548022e-12
2.1880114e-12
1.9481074e-12
1.3827263e-12
1.6237593e-12
3.921681e-12
7.2265596e-12
1.1657867e-11
1.7232019e-11
2.3606517e-11
3.0518407e-11
3.5840615e-11
3.9572726e-11
3.6123888e-11
2.4345311e-11
2.1516073e-11
1.9604356e-12
5.519808e-12
9.6280263e-13
1e-15
1e-15
1e-15
1e-15
1e-15
1e-15
6.7937473e-14
6.7432491e-14
1.0045643e-12
1.6411329e-12
1.2212485e-12
1.3186132e-12
1.1486903e-12
1.0429505e-12
8.8425931e-13
7.2432216e-13
5.648545e-13
4.2503976e-13
3.0753853e-13
2.190298e-13
1.5769809e-13
1.151375e-13
8.477564e-14
6.294056e-14
4.6955794e-14
3.5070881e-14
2.6208767e-14
1.9501536e-14
1.6033889e-14
1.3539787e-14
1.1167863e-14
8.9777656e-15
7.026372e-15
5.3507858e-15
3.9595744e-15
2.8433445e-15
1.9806114e-15
1.3455071e-15
1e-15
1e-15
1e-15
1e-15
1e-15
1e-15
1e-15
1e-15
1e-15
1e-15
1e-15
1e-15
1e-15
1e-15
1e-15
1e-15
1e-15
1e-15
1e-15
1e-15
1e-15
1e-15
1e-15
1e-15
1e-15
1e-15
1e-15
1e-15
1e-15
1e-15
1e-15
1e-15
1e-15
1e-15
1e-15
1e-15
1e-15
1e-15
1e-15
1e-15
1e-15
1e-15
1e-15
1e-15
1e-15
1e-15
1e-15
1e-15
1e-15
1.0778945e-15
1.2056506e-15
1.2942758e-15
1.3167816e-15
1.2818048e-15
1.1875931e-15
1.0635915e-15
1e-15
1e-15
1e-15
1e-15
1e-15
1e-15
1e-15
1e-15
1e-15
1e-15
1e-15
1e-15
1e-15
1e-15
1e-15
1e-15
1e-15
1e-15
1e-15
1e-15
1e-15
1e-15
1e-15
1e-15
1e-15
1e-15
1e-15
1e-15
1e-15
1e-15
1.0445169e-15
1.1234365e-15
1.1966801e-15
1.2640931e-15
1.3255026e-15
1.380748e-15
1.4296796e-15
1.4721504e-15
1.5080387e-15
1.5372241e-15
1.559584e-15
1.5750419e-15
1.5835563e-15
1.5850404e-15
1.5794108e-15
1.5667721e-15
1.5473064e-15
1.5212845e-15
1.4890505e-15
1.4510547e-15
1.4079271e-15
1.3605204e-15
1.3098684e-15
1.2570195e-15
1.2026319e-15
1.1463025e-15
1.0861833e-15
1.0183118e-15
1e-15
1e-15
1e-15
1e-15
1e-15
1e-15
1e-15
1e-15
1e-15
1e-15
1e-15
1.0254331e-15
1.633702e-15
2.5850108e-15
4.0975121e-15
6.4382793e-15
9.5250511e-15
1.2742179e-14
1.5729337e-14
1.9252915e-14
2.5010562e-14
3.5733415e-14
5.4950927e-14
8.3549837e-14
1.1798979e-13
1.5348816e-13
1.8792843e-13
2.1784332e-13
2.4188223e-13
2.5849032e-13
2.6333566e-13
2.4883456e-13
1.9584742e-13
2.4594853e-13
5.7691164e-13
1.0717668e-12
1.7474469e-12
2.5972837e-12
3.5524186e-12
4.5221982e-12
5.1973736e-12
5.4080589e-12
4.7657842e-12
2.8166486e-12
2.3616092e-12
2.1216128e-13
1.3212389e-13
6.2957603e-15
1e-15
1e-15
1e-15
1e-15
1e-15
1e-15
1e-15
3.8343032e-15
9.0223458e-14
1.916047e-13
1.5544982e-13
1.7919367e-13
1.6223489e-13
1.5004536e-13
1.2808506e-13
1.0438075e-13
8.029023e-14
5.9073885e-14
4.1391924e-14
2.8355794e-14
1.9638339e-14
1.3814962e-14
9.8194265e-15
7.0501049e-15
5.0976666e-15
3.6991959e-15
2.6934394e-15
1.9595764e-15
1.5535088e-15
1.2577481e-15
1e-15
1e-15
1e-15
1e-15
1e-15
1e-15
1e-15
1e-15
1e-15
1e-15
1e-15
1e-15
1e-15
1e-15
1e-15
1e-15
1e-15
1e-15
1e-15
1e-15
1e-15
1e-15
1e-15
1e-15
1e-15
1e-15
1e-15
1e-15
1e-15
1e-15
1e-15
1e-15
1e-15
1e-15
1e-15
1e-15
1e-15
1e-15
1e-15
1e-15
1e-15
1e-15
1e-15
1e-15
1e-15
1e-15
1e-15
1e-15
1e-15
1e-15
1e-15
1e-15
1e-15
1e-15
1e-15
1e-15
1e-15
1e-15
1e-15
1e-15
1e-15
1e-15
1e-15
1e-15
1e-15
1e-15
1e-15
1e-15
1e-15
1e-15
1e-15
1e-15
1e-15
1e-15
1e-15
1e-15
1e-15
1e-15
1e-15
1e-15
1e-15
1e-15
1e-15
1e-15
1e-15
1e-15
1e-15
1e-15
1e-15
1e-15
1e-15
1e-15
1e-15
1e-15
1e-15
1e-15
1e-15
1e-15
1e-15
1e-15
1e-15
1e-15
1e-15
1e-15
1e-15
1e-15
1e-15
1e-15
1e-15
1e-15
1e-15
1e-15
1e-15
1e-15
1e-15
1e-15
1e-15
1e-15
1e-15
1e-15
1e-15
1e-15
1e-15
1e-15
1e-15
1e-15
1e-15
1e-15
1e-15
1e-15
1e-15
1e-15
1e-15
1e-15
1e-15
1e-15
1e-15
1e-15
1e-15
1e-15
1.1383328e-15
1.4669565e-15
1.9852009e-15
2.9215929e-15
4.5956785e-15
7.1476742e-15
1.0370087e-14
1.392608e-14
1.7673284e-14
2.1266863e-14
2.4559883e-14
2.736989e-14
2.9198404e-14
2.9124407e-14
2.4943624e-14
3.3275472e-14
7.7022754e-14
1.4436717e-13
2.3738167e-13
3.5360055e-13
4.8056657e-13
5.9892415e-13
6.6581794e-13
6.4894095e-13
5.3395279e-13
2.8419395e-13
2.0414554e-13
1.9465085e-14
1.1113098e-15
1e-15
1e-15
1e-15
1e-15
1e-15
1e-15
1e-15
1e-15
1e-15
5.9813742e-15
1.8220689e-14
1.6020155e-14
2.0206718e-14
1.9185641e-14
1.8292567e-14
1.5836382e-14
1.2912318e-14
9.8257713e-15
7.0757367e-15
4.7946024e-15
3.1498254e-15
2.090789e-15
1.4119153e-15
1e-15
1e-15
1e-15
1e-15
1e-15
1e-15
1e-15
1e-15
1e-15
1e-15
1e-15
1e-15
1e-15
1e-15
1e-15
1e-15
1e-15
1e-15
1e-15
1e-15
1e-15
1e-15
1e-15
1e-15
1e-15
1e-15
1e-15
1e-15
1e-15
1e-15
1e-15
1e-15
1e-15
1e-15
1e-15
1e-15
1e-15
1e-15
1e-15
1e-15
1e-15
1e-15
1e-15
1e-15
1e-15
1e-15
1e-15
1e-15
1e-15
1e-15
1e-15
1e-15
1e-15
1e-15
1e-15
1e-15
1e-15
1e-15
1e-15
1e-15
1e-15
1e-15
1e-15
1e-15
1e-15
1e-15
1e-15
1e-15
1e-15
1e-15
1e-15
1e-15
1e-15
1e-15
1e-15
1e-15
1e-15
1e-15
1e-15
1e-15
1e-15
1e-15
1e-15
1e-15
1e-15
1e-15
1e-15
1e-15
1e-15
1e-15
1e-15
1e-15
1e-15
1e-15
1e-15
1e-15
1e-15
1e-15
1e-15
1e-15
1e-15
1e-15
1e-15
1e-15
1e-15
1e-15
1e-15
1e-15
1e-15
1e-15
1e-15
1e-15
1e-15
1e-15
1e-15
1e-15
1e-15
1e-15
1e-15
1e-15
1e-15
1e-15
1e-15
1e-15
1e-15
1e-15
1e-15
1e-15
1e-15
1e-15
1e-15
1e-15
1e-15
1e-15
1e-15
1e-15
1e-15
1e-15
1e-15
1e-15
1e-15
1e-15
1e-15
1e-15
1e-15
1e-15
1e-15
1e-15
1e-15
1e-15
1e-15
1e-15
1e-15
1e-15
1e-15
1.0834092e-15
1.4297819e-15
1.7915479e-15
2.1583526e-15
2.5155781e-15
2.8174735e-15
2.9713965e-15
2.7529004e-15
3.8978155e-15
9.0150658e-15
1.70883e-14
2.8291202e-14
4.2056181e-14
5.6382787e-14
6.8194991e-14
7.2234826e-14
6.5243587e-14
4.8615375e-14
2.363152e-14
1.3094865e-14
1.4778431e-15
1e-15
1e-15
1e-15
1e-15
1e-15
1e-15
1e-15
1e-15
1e-15
1e-15
1e-15
1.3632494e-15
1.3010964e-15
1.8359484e-15
1.8477527e-15
1.8354514e-15
1.6226844e-15
1.3304516e-15
1.0045462e-15
1e-15
1e-15
1e-15
1e-15
1e-15
1e-15
1e-15
1e-15
1e-15
1e-15
1e-15
1e-15
1e-15
1e-15
1e-15
1e-15
1e-15
1e-15
1e-15
1e-15
1e-15
1e-15
1e-15
1e-15
1e-15
1e-15
1e-15
1e-15
1e-15
1e-15
1e-15
1e-15
1e-15
1e-15
1e-15
1e-15
1e-15
1e-15
1e-15
1e-15
1e-15
1e-15
1e-15
1e-15
1e-15
1e-15
1e-15
1e-15
1e-15
1e-15
1e-15
1e-15
1e-15
1e-15
1e-15
1e-15
1e-15
1e-15
1e-15
1e-15
1e-15
1e-15
1e-15
1e-15
1e-15
1e-15
1e-15
1e-15
1e-15
1e-15
1e-15
1e-15
1e-15
1e-15
1e-15
1e-15
1e-15
1e-15
1e-15
1e-15
1e-15
1e-15
1e-15
1e-15
1e-15
1e-15
1e-15
1e-15
1e-15
1e-15
1e-15
1e-15
1e-15
1e-15
1e-15
1e-15
1e-15
1e-15
1e-15
1e-15
1e-15
1e-15
1e-15
1e-15
1e-15
1e-15
1e-15
1e-15
1e-15
1e-15
1e-15
1e-15
1e-15
1e-15
1e-15
1e-15
1e-15
1e-15
1e-15
1e-15
1e-15
1e-15
1e-15
1e-15
1e-15
1e-15
1e-15
1e-15
1e-15
1e-15
1e-15
1e-15
1e-15
1e-15
1e-15
1e-15
1e-15
1e-15
1e-15
1e-15
1e-15
1e-15
1e-15
1e-15
1e-15
1e-15
1e-15
1e-15
1e-15
1e-15
1e-15
1e-15
1e-15
1e-15
1e-15
1e-15
1e-15
1e-15
1e-15
1e-15
1e-15
1e-15
1e-15
1e-15
1e-15
1e-15
1e-15
1e-15
1e-15
1e-15
1.7106834e-15
2.8464597e-15
4.2069608e-15
5.5295966e-15
6.4341675e-15
6.4147829e-15
5.3128324e-15
3.4792895e-15
1.5719278e-15
1e-15
1e-15
1e-15
1e-15
1e-15
1e-15
1e-15
1e-15
1e-15
1e-15
1e-15
1e-15
1e-15
1e-15
1e-15
1e-15
1e-15
1e-15
1e-15
1e-15
1e-15
1e-15
1e-15
1e-15
1e-15
1e-15
1e-15
1e-15
1e-15
1e-15
1e-15
1e-15
1e-15
1e-15
1e-15
1e-15
1e-15
1e-15
1e-15
1e-15
1e-15
1e-15
1e-15
1e-15
1e-15
1e-15
1e-15
1e-15
1e-15
1e-15
1e-15
1e-15
1e-15
1e-15
1e-15
1e-15
1e-15
1e-15
1e-15
1e-15
1e-15
1e-15
1e-15
1e-15
1e-15
1e-15
1e-15
1e-15
1e-15
1e-15
1e-15
1e-15
1e-15
1e-15
1e-15
1e-15
1e-15
1e-15
1e-15
1e-15
1e-15
1e-15
1e-15
1e-15
1e-15
1e-15
1e-15
1e-15
1e-15
1e-15
1e-15
1e-15
1e-15
1e-15
1e-15
1e-15
1e-15
1e-15
1e-15
1e-15
1e-15
1e-15
1e-15
1e-15
1e-15
1e-15
1e-15
1e-15
1e-15
1e-15
1e-15
1e-15
1e-15
1e-15
1e-15
1e-15
1e-15
1e-15
1e-15
1e-15
1e-15
1e-15
1e-15
1e-15
1e-15
1e-15
1e-15
1e-15
1e-15
1e-15
1e-15
1e-15
1e-15
1e-15
1e-15
1e-15
1e-15
1e-15
1e-15
1e-15
1e-15
1e-15
1e-15
1e-15
1e-15
1e-15
1e-15
1e-15
1e-15
1e-15
1e-15
1e-15
1e-15
1e-15
1e-15
1e-15
1e-15
1e-15
1e-15
1e-15
1e-15
1e-15
1e-15
1e-15
1e-15
1e-15
1e-15
1e-15
1e-15
1e-15
1e-15
1e-15
1e-15
1e-15
1e-15
1e-15
1e-15
1e-15
1e-15
1e-15
1e-15
1e-15
1e-15
1e-15
1e-15
1e-15
1e-15
1e-15
1e-15
1e-15
1e-15
1e-15
1e-15
1e-15
1e-15
1e-15
1e-15
1e-15
1e-15
1e-15
1e-15
1e-15
1e-15
1e-15
6.5517204e-15
1e-15
1e-15
3.3976737e-14
3.4886803e-14
1e-15
1e-15
1e-15
1e-15
1e-15
1e-15
1e-15
1e-15
1e-15
1e-15
1e-15
1e-15
1e-15
1e-15
1e-15
1e-15
1e-15
1e-15
1e-15
1e-15
1e-15
1e-15
1e-15
1e-15
1e-15
1e-15
1e-15
1e-15
1e-15
1e-15
1e-15
1e-15
1e-15
1e-15
1e-15
1e-15
1e-15
1e-15
1e-15
1e-15
1e-15
1e-15
1e-15
1e-15
1e-15
1e-15
1e-15
1e-15
1e-15
1e-15
1e-15
1e-15
1e-15
1e-15
1e-15
1e-15
1e-15
1e-15
1e-15
1e-15
1e-15
1e-15
1e-15
1e-15
1e-15
1e-15
1e-15
1e-15
1e-15
1e-15
1e-15
1e-15
1e-15
1e-15
1e-15
1e-15
1e-15
1e-15
1e-15
1e-15
1e-15
1e-15
1e-15
1e-15
1e-15
1e-15
1e-15
1e-15
1e-15
1e-15
1e-15
1e-15
1e-15
1e-15
1e-15
1e-15
1e-15
1e-15
1e-15
1e-15
1e-15
1e-15
1e-15
1e-15
1e-15
1e-15
1e-15
1e-15
1e-15
1e-15
1e-15
1e-15
1e-15
1e-15
1e-15
1e-15
1e-15
1e-15
1e-15
1e-15
1e-15
1e-15
1e-15
1e-15
1e-15
1e-15
1e-15
1e-15
1e-15
1e-15
1e-15
1e-15
1e-15
1e-15
1e-15
1e-15
1e-15
1e-15
1e-15
1e-15
1e-15
1e-15
1e-15
1e-15
1e-15
1e-15
1e-15
1e-15
1e-15
1e-15
1e-15
1e-15
1e-15
1e-15
1e-15
1e-15
1e-15
1e-15
1e-15
1e-15
1e-15
1e-15
1e-15
1e-15
1e-15
1e-15
1e-15
1e-15
1e-15
1e-15
1e-15
1e-15
1e-15
1e-15
1e-15
1e-15
1e-15
1e-15
1e-15
1e-15
1e-15
1e-15
1e-15
1e-15
1e-15
1e-15
1e-15
1e-15
1e-15
1e-15
1e-15
1e-15
1e-15
1e-15
1e-15
1.2509365e-13
2.2020099e-14
1e-15
3.5489298e-13
2.5031739e-13
1e-15
1e-15
1e-15
1e-15
1e-15
1e-15
1e-15
1e-15
1e-15
1e-15
1e-15
1e-15
1e-15
1e-15
1e-15
1e-15
1e-15
1e-15
1e-15
1e-15
1e-15
1e-15
1e-15
1e-15
1e-15
1e-15
1e-15
1e-15
1e-15
1e-15
1e-15
1e-15
1e-15
1e-15
1e-15
1e-15
1e-15
1e-15
1e-15
1e-15
1e-15
1e-15
1e-15
1e-15
1e-15
1e-15
1e-15
1e-15
1e-15
1e-15
1e-15
1e-15
1e-15
1e-15
1e-15
1e-15
1e-15
1e-15
1e-15
1e-15
1e-15
1e-15
1e-15
1e-15
1e-15
1e-15
1e-15
1e-15
1e-15
1e-15
1e-15
1e-15
1e-15
1e-15
1e-15
1e-15
1e-15
1e-15
1e-15
1e-15
1e-15
1e-15
1e-15
1e-15
1e-15
1e-15
1e-15
1e-15
1e-15
1e-15
1e-15
1e-15
1e-15
1e-15
1e-15
1e-15
1e-15
1e-15
1e-15
1e-15
1e-15
1e-15
1e-15
1e-15
1e-15
1e-15
1e-15
1e-15
1e-15
1e-15
1e-15
1e-15
1e-15
1e-15
1e-15
1e-15
1e-15
1e-15
1e-15
1e-15
1e-15
1e-15
1e-15
1e-15
1e-15
1e-15
1e-15
1e-15
1e-15
1e-15
1e-15
1e-15
1e-15
1e-15
1e-15
1e-15
1e-15
1e-15
1e-15
1e-15
1e-15
1e-15
1e-15
1e-15