/*--------------------------------*- C++ -*----------------------------------*\
| =========                 |                                                 |
| \\      /  F ield         | OpenFOAM: The Open Source CFD Toolbox           |
|  \\    /   O peration     | Version:  2.4.0                                 |
|   \\  /    A nd           | Web:      www.OpenFOAM.org                      |
|    \\/     M anipulation  |                                                 |
\*---------------------------------------------------------------------------*/
FoamFile
{
    version     2.0;
    format      ascii;
    class       volScalarField;
    location    "100";
    object      nut;
}
// * * * * * * * * * * * * * * * * * * * * * * * * * * * * * * * * * * * * * //

dimensions      [0 2 -1 0 0 0 0];

internalField   nonuniform List<scalar> 
78300
(
3.60456e-12
2.1025684e-12
5.3502683e-12
3.4388218e-12
4.0910148e-12
1.4620559e-12
6.2515842e-13
3.7710607e-14
2.7235443e-13
5.7230659e-13
3.3665688e-13
2.6784433e-13
1.3890868e-13
1.0902853e-13
7.410963e-14
6.8091254e-14
5.3413853e-14
5.120561e-14
4.3128839e-14
4.0623956e-14
3.5028168e-14
3.2511613e-14
2.8826556e-14
2.751271e-14
2.6110612e-14
2.5924779e-14
2.5872548e-14
2.6839366e-14
2.8166047e-14
3.0608912e-14
3.3715082e-14
3.8180467e-14
4.3717932e-14
5.090817e-14
5.9494862e-14
6.9609889e-14
8.0304793e-14
9.1711208e-14
1.0392052e-13
1.1666546e-13
1.298724e-13
1.4315598e-13
1.5632046e-13
1.6867933e-13
1.797528e-13
1.8859613e-13
1.9564239e-13
2.0064001e-13
2.0462043e-13
2.085816e-13
2.1239855e-13
2.1110446e-13
2.0953429e-13
2.0264464e-13
1.9521429e-13
1.812591e-13
1.6960646e-13
1.5040628e-13
1.3954883e-13
1.2045525e-13
1.2125795e-13
1.1382666e-13
1.6770125e-13
3.0568354e-13
4.2475382e-13
5.6492624e-13
6.9495688e-13
8.3695991e-13
9.6776406e-13
1.1040207e-12
1.2305362e-12
1.3589553e-12
1.4794274e-12
1.6058757e-12
1.7139528e-12
1.8271663e-12
1.9352745e-12
2.0417733e-12
2.1439527e-12
2.2440583e-12
2.3403183e-12
2.4341281e-12
2.5243047e-12
2.6116793e-12
2.6954553e-12
2.776036e-12
2.8528635e-12
2.9374583e-12
3.0075439e-12
3.0737458e-12
3.1360777e-12
3.1944091e-12
3.2486313e-12
3.2987123e-12
3.3445474e-12
3.3861565e-12
3.4234713e-12
3.4565629e-12
3.4853452e-12
3.5094595e-12
3.5144279e-12
3.5314691e-12
3.5450056e-12
3.5559177e-12
3.5639926e-12
3.5690072e-12
3.5719954e-12
3.5625597e-12
3.5489832e-12
3.5307787e-12
3.5088453e-12
3.4831402e-12
3.4539426e-12
3.4213489e-12
3.3855888e-12
3.3467735e-12
3.3050629e-12
3.2605373e-12
3.2133808e-12
3.1637566e-12
3.1118843e-12
3.057908e-12
3.0019903e-12
2.9443269e-12
2.8851112e-12
2.8245248e-12
2.7626899e-12
2.6997913e-12
2.6359779e-12
2.5714355e-12
2.5062785e-12
2.440668e-12
2.3747236e-12
2.3086069e-12
2.2424553e-12
2.1763723e-12
2.110439e-12
2.0447396e-12
1.9794231e-12
1.9145972e-12
1.8503479e-12
1.7867274e-12
1.7238726e-12
1.6618381e-12
1.6007182e-12
1.5405562e-12
1.4814168e-12
1.4233518e-12
1.366433e-12
1.3107305e-12
1.2562723e-12
1.2030831e-12
1.1511799e-12
1.1006341e-12
1.0514627e-12
1.0036769e-12
9.5723071e-13
9.1215257e-13
8.6843642e-13
8.2610804e-13
7.8510187e-13
7.4542929e-13
7.071086e-13
6.702292e-13
6.3472659e-13
6.0053931e-13
5.6765801e-13
5.3611626e-13
5.0584035e-13
4.7682242e-13
4.4895808e-13
4.2233009e-13
3.9682585e-13
3.725551e-13
3.493595e-13
3.2740029e-13
3.0646906e-13
2.8671945e-13
2.6786234e-13
2.5012891e-13
2.3323406e-13
2.1744831e-13
2.0236749e-13
1.883418e-13
1.7494779e-13
1.6262586e-13
1.5080684e-13
1.4003345e-13
1.2965541e-13
1.2036842e-13
1.113522e-13
1.0345735e-13
9.5701082e-14
8.9137185e-14
8.2552255e-14
7.7231486e-14
7.1707888e-14
6.7582422e-14
6.308068e-14
6.017048e-14
5.6676723e-14
5.5026634e-14
5.2577165e-14
5.2346393e-14
5.1139746e-14
5.2666475e-14
5.2784411e-14
5.6360715e-14
5.9892585e-14
6.1115908e-14
6.3046428e-14
6.1364681e-14
6.0273806e-14
5.6201934e-14
5.2532342e-14
4.6829306e-14
4.1472992e-14
3.5049272e-14
2.9082015e-14
2.2926015e-14
1.7514151e-14
1.2663017e-14
9.6361921e-15
1.4608534e-14
2.2364371e-14
3.4319409e-14
5.128442e-14
7.4792086e-14
1.0543891e-13
1.4471988e-13
1.9285072e-13
2.5105704e-13
3.1889957e-13
3.9669707e-13
4.8093087e-13
5.662417e-13
6.5431002e-13
7.4562614e-13
8.4176131e-13
9.4279762e-13
1.0513465e-12
1.1669609e-12
1.2943621e-12
1.433258e-12
1.5912282e-12
1.7700751e-12
1.9849479e-12
2.2570767e-12
2.623155e-12
3.0825275e-12
3.6632917e-12
4.3997821e-12
5.3715772e-12
6.5851752e-12
8.276502e-12
1.0353691e-11
1.3543902e-11
1.7335107e-11
2.2879046e-11
2.8506211e-11
3.5108239e-11
3.5513572e-11
3.2023931e-11
2.3567466e-11
1.7437848e-11
9.7145697e-12
6.9306427e-12
2.8813993e-12
3.190425e-12
9.5672328e-13
1.7530762e-11
6.5213087e-12
2.1216488e-11
7.6835222e-12
3.3731328e-12
3.616512e-12
2.0522548e-12
7.3050962e-13
4.6194536e-13
5.9612748e-13
3.3732135e-13
2.6397604e-13
1.3888963e-13
1.0912331e-13
7.5590647e-14
6.9382649e-14
5.5387885e-14
5.3144075e-14
4.5560867e-14
4.319699e-14
3.8020694e-14
3.574211e-14
3.2456682e-14
3.1480856e-14
3.0564195e-14
3.0885415e-14
3.1455044e-14
3.3110358e-14
3.5275709e-14
3.8674889e-14
4.2941918e-14
4.8764897e-14
5.5944588e-14
6.5074821e-14
7.5991553e-14
8.884639e-14
1.0276683e-13
1.1790408e-13
1.3451635e-13
1.5248562e-13
1.719166e-13
1.9242694e-13
2.1365844e-13
2.349854e-13
2.559998e-13
2.7552023e-13
2.9373153e-13
4.9772381e-13
1.8176262e-13
1.9203469e-13
6.1463721e-13
2.1418557e-13
3.9178445e-13
4.0593396e-13
4.1946437e-13
4.2570392e-13
4.3159801e-13
4.2708585e-13
4.2592327e-13
4.1266274e-13
4.1488008e-13
4.1026837e-13
4.7472258e-13
6.7067046e-13
8.4935689e-13
6.4503739e-13
7.6575447e-13
8.9388286e-13
1.0185832e-12
1.1450969e-12
1.2666516e-12
1.3890059e-12
1.5147829e-12
4.2039804e-12
1.7323282e-12
1.8434922e-12
1.9513389e-12
2.0579046e-12
2.1616544e-12
2.2639139e-12
2.363631e-12
2.4616401e-12
2.557233e-12
2.6509323e-12
2.7423797e-12
2.8332275e-12
2.9412616e-12
7.8774207e-12
8.121476e-12
8.3429055e-12
8.5613272e-12
8.7721192e-12
8.9772881e-12
9.1753494e-12
9.3668535e-12
9.5514056e-12
9.7293963e-12
9.9017311e-12
1.0071869e-11
1.0112667e-11
3.8212862e-12
3.870108e-12
3.9163718e-12
3.970004e-12
4.0424956e-12
4.2574278e-12
6.7156819e-12
6.7510438e-12
6.7935387e-12
6.8242538e-12
6.8519099e-12
6.8732169e-12
6.8898549e-12
6.9012662e-12
6.9079208e-12
6.9098152e-12
6.9071147e-12
6.8998576e-12
6.8882138e-12
6.8723071e-12
6.8523908e-12
6.8285674e-12
6.8010341e-12
6.7699347e-12
6.7355302e-12
6.6979635e-12
6.6574124e-12
6.6140156e-12
6.567993e-12
6.5195087e-12
6.4687302e-12
6.4158423e-12
6.360971e-12
6.3042009e-12
6.2458864e-12
6.1860813e-12
6.1248022e-12
6.06209e-12
5.9982188e-12
5.9337848e-12
5.868752e-12
5.8023534e-12
5.7355785e-12
5.6682256e-12
5.6005062e-12
5.5324736e-12
5.4642444e-12
5.3958609e-12
5.3274769e-12
5.2591609e-12
5.1910387e-12
5.1231048e-12
5.05544e-12
4.9881139e-12
4.921242e-12
4.8548587e-12
4.7889409e-12
4.7235136e-12
4.6586124e-12
4.5943024e-12
4.5305231e-12
4.4672586e-12
4.4045096e-12
4.34249e-12
4.2812452e-12
4.2206399e-12
4.1606506e-12
4.1014129e-12
4.042869e-12
3.9850235e-12
3.9277115e-12
3.8710029e-12
3.8147899e-12
3.7591879e-12
3.7040342e-12
3.6495367e-12
3.5955385e-12
3.5422287e-12
3.489275e-12
3.4368216e-12
3.3846124e-12
3.3329655e-12
3.2814138e-12
3.2302204e-12
3.17885e-12
3.1279072e-12
3.0765577e-12
3.0254871e-12
2.9735524e-12
2.9218814e-12
2.8689638e-12
2.8162018e-12
2.7616346e-12
2.7071699e-12
2.6503058e-12
2.5933806e-12
2.533161e-12
2.472595e-12
2.4077268e-12
2.342265e-12
2.2713811e-12
2.1994419e-12
2.1207225e-12
2.0401519e-12
1.951298e-12
1.8583105e-12
1.7465564e-12
1.6411105e-12
1.6233902e-12
1.6347992e-12
1.6607624e-12
1.6854865e-12
1.7100613e-12
1.7297585e-12
1.7457076e-12
1.7566144e-12
1.7634929e-12
1.7666412e-12
1.7665825e-12
1.7639106e-12
1.7591992e-12
1.7542464e-12
1.7546543e-12
1.7672638e-12
1.7854613e-12
1.8099007e-12
1.8406803e-12
1.8789054e-12
1.9247464e-12
1.9792331e-12
2.0419866e-12
2.1136802e-12
2.1935555e-12
2.2809278e-12
2.3614103e-12
2.4315876e-12
2.4979113e-12
2.5633826e-12
2.6306557e-12
2.7014374e-12
2.7785418e-12
2.8629439e-12
2.9589519e-12
3.068942e-12
3.1962454e-12
3.3553002e-12
3.5362478e-12
3.8666607e-12
1.9966589e-12
1.0151262e-11
2.6649886e-12
1.2318056e-11
3.8293904e-12
1.6363251e-11
5.8174416e-12
7.2556878e-12
1.6102664e-11
2.143983e-11
2.8115558e-11
3.4878499e-11
4.2234856e-11
4.3227881e-11
3.9911049e-11
3.1054982e-11
2.4342784e-11
3.0687472e-11
5.5385251e-12
1.541915e-11
1.4391259e-11
4.5952419e-12
3.1897436e-10
1.0552663e-10
3.5920274e-10
1.0653346e-10
1.3284496e-11
5.2978521e-11
3.3845717e-11
1.5479218e-11
5.2228877e-12
1.7761038e-12
7.4812573e-13
5.0142088e-13
2.9942e-13
2.3967073e-13
1.9300023e-13
1.766517e-13
1.5885751e-13
1.5357839e-13
1.4614487e-13
1.4374473e-13
1.4024537e-13
1.3984354e-13
1.4021683e-13
1.4460261e-13
1.5183037e-13
1.6222502e-13
1.7532653e-13
1.9210517e-13
2.1285758e-13
2.3858351e-13
2.7011167e-13
3.0882747e-13
3.5594642e-13
4.1303376e-13
4.8144933e-13
5.6186692e-13
6.5380416e-13
7.580252e-13
8.7822705e-13
1.0169723e-12
1.1778998e-12
1.3602599e-12
1.5601925e-12
1.7775266e-12
2.0129487e-12
2.260224e-12
2.5194081e-12
6.2990739e-12
8.8848952e-13
1.058197e-12
8.6817977e-12
1.4486844e-12
4.8072407e-12
5.237135e-12
5.67363e-12
6.0694146e-12
6.4151381e-12
6.6700809e-12
6.8451321e-12
6.9045235e-12
6.9389528e-12
6.973936e-12
7.4039899e-12
9.1900918e-12
1.094461e-11
5.2950275e-12
5.9771695e-12
6.6382022e-12
7.3759884e-12
8.0753686e-12
8.8062799e-12
9.5272199e-12
1.0421822e-11
5.5175056e-11
1.1629823e-11
1.2323838e-11
1.3028256e-11
1.3728764e-11
1.4431313e-11
1.5132043e-11
1.583387e-11
1.6534599e-11
1.7236053e-11
1.7937442e-11
1.8642378e-11
1.9378907e-11
2.0514032e-11
1.0522171e-10
1.0904926e-10
1.1242384e-10
1.158286e-10
1.1916146e-10
1.2247127e-10
1.2572518e-10
1.2893882e-10
1.3210309e-10
1.3522929e-10
1.3833732e-10
1.4151184e-10
1.4182637e-10
2.9235263e-11
2.9962417e-11
3.0693154e-11
3.1596248e-11
3.2886991e-11
3.6771534e-11
8.2584031e-11
8.3551326e-11
8.4741597e-11
8.5756721e-11
8.6773027e-11
8.7718526e-11
8.8625223e-11
8.9478996e-11
9.0286031e-11
9.1044165e-11
9.1754116e-11
9.2415254e-11
9.3027926e-11
9.3591877e-11
9.4108639e-11
9.4577826e-11
9.5000803e-11
9.5377131e-11
9.5709015e-11
9.5996268e-11
9.6240562e-11
9.6441558e-11
9.6601371e-11
9.6720196e-11
9.679963e-11
9.6840789e-11
9.6844247e-11
9.6808897e-11
9.6740038e-11
9.6636951e-11
9.6498511e-11
9.6324061e-11
9.6116914e-11
9.5888271e-11
9.563575e-11
9.5341422e-11
9.5024639e-11
9.4679941e-11
9.4310262e-11
9.3915983e-11
9.3498483e-11
9.3057754e-11
9.2595852e-11
9.2113017e-11
9.1611507e-11
9.1090739e-11
9.0552198e-11
8.9996095e-11
8.9424675e-11
8.8838497e-11
8.8237884e-11
8.7622883e-11
8.6994378e-11
8.6353339e-11
8.5699638e-11
8.5032709e-11
8.4352243e-11
8.36613e-11
8.2962089e-11
8.2252748e-11
8.1532929e-11
8.0805015e-11
8.0069082e-11
7.9325382e-11
7.8572193e-11
7.7809531e-11
7.7037094e-11
7.6255409e-11
7.5463799e-11
7.4663879e-11
7.3856034e-11
7.3041609e-11
7.2218589e-11
7.1385903e-11
7.0543131e-11
6.9692337e-11
6.8830639e-11
6.7957396e-11
6.7068582e-11
6.6169443e-11
6.5252026e-11
6.4321487e-11
6.3364546e-11
6.2393307e-11
6.1389501e-11
6.0368452e-11
5.9304924e-11
5.8221668e-11
5.7085736e-11
5.5925139e-11
5.4695432e-11
5.3432277e-11
5.2080927e-11
5.0687097e-11
4.9184132e-11
4.762383e-11
4.5928344e-11
4.4151005e-11
4.2208499e-11
4.0124245e-11
3.7652331e-11
3.5258262e-11
3.4803794e-11
3.5033911e-11
3.5573185e-11
3.6151804e-11
3.671634e-11
3.7228004e-11
3.7649315e-11
3.7996557e-11
3.8248319e-11
3.8437251e-11
3.8546771e-11
3.8601945e-11
3.8598326e-11
3.8579218e-11
3.864452e-11
3.8831541e-11
3.9090753e-11
3.9410245e-11
3.9776965e-11
4.0187522e-11
4.0634575e-11
4.1113241e-11
4.1611167e-11
4.2120882e-11
4.2633616e-11
4.3127275e-11
4.3349969e-11
4.3326383e-11
4.3167377e-11
4.2929807e-11
4.2643026e-11
4.2343531e-11
4.2045385e-11
4.1778111e-11
4.154998e-11
4.141828e-11
4.1317909e-11
4.1532368e-11
4.1566321e-11
4.4171434e-11
5.444063e-12
1.5905662e-10
5.4852002e-12
1.7486237e-10
6.6472073e-12
2.1162612e-10
9.0498328e-12
1.0408994e-11
8.3381965e-11
1.2484321e-10
1.6097404e-10
1.97392e-10
2.2806292e-10
2.4167216e-10
2.3777007e-10
2.1069328e-10
1.850096e-10
4.6593375e-10
1.9303451e-11
2.8802167e-10
2.5575912e-10
8.4044965e-11
2.6875478e-09
8.4921529e-10
3.0111108e-09
8.497426e-10
8.5714179e-11
4.225199e-10
2.7213387e-10
1.2601432e-10
4.1144082e-11
1.0812382e-11
3.9683414e-12
2.4027382e-12
1.5578434e-12
1.2605387e-12
1.0964807e-12
1.002451e-12
9.4786489e-13
9.191045e-13
9.0780518e-13
9.0366519e-13
9.0900532e-13
9.2081767e-13
9.4565404e-13
9.883697e-13
1.0541714e-12
1.1380024e-12
1.2425766e-12
1.370376e-12
1.5276641e-12
1.7179165e-12
1.9504039e-12
2.2320305e-12
2.5741702e-12
2.9858399e-12
3.4793892e-12
4.0594392e-12
4.7278446e-12
5.4898676e-12
6.3742973e-12
7.4031504e-12
8.6059854e-12
9.9793632e-12
1.1493724e-11
1.315175e-11
1.4962213e-11
1.6883991e-11
1.8985363e-11
4.9473153e-11
6.2154572e-12
7.6855645e-12
6.8447786e-11
1.0696055e-11
3.8028218e-11
4.1490737e-11
4.5088825e-11
4.8392494e-11
5.1275744e-11
5.3462328e-11
5.4950792e-11
5.5543149e-11
5.5819067e-11
5.6145446e-11
5.9338502e-11
7.3094035e-11
8.6672085e-11
4.0540333e-11
4.5547515e-11
5.0360359e-11
5.5827277e-11
6.0967325e-11
6.6394022e-11
7.1736314e-11
7.8614442e-11
4.2532083e-10
8.7446311e-11
9.2552892e-11
9.7830639e-11
1.0308275e-10
1.083662e-10
1.1364222e-10
1.1894037e-10
1.2423819e-10
1.295544e-10
1.3487979e-10
1.4024618e-10
1.4588328e-10
1.5509163e-10
8.1339939e-10
8.437527e-10
8.7013006e-10
8.9678887e-10
9.2291316e-10
9.4889623e-10
9.7447558e-10
9.9977848e-10
1.0247327e-09
1.0494312e-09
1.0740345e-09
1.0992162e-09
1.0993523e-09
2.22514e-10
2.2817164e-10
2.3398642e-10
2.4119295e-10
2.5153229e-10
2.8303198e-10
6.519203e-10
6.5995277e-10
6.6971854e-10
6.7808459e-10
6.8648145e-10
6.9432335e-10
7.0186922e-10
7.090036e-10
7.157755e-10
7.2216669e-10
7.2818209e-10
7.3381617e-10
7.3907069e-10
7.439426e-10
7.4844317e-10
7.5256843e-10
7.5632858e-10
7.5971895e-10
7.6275631e-10
7.6543819e-10
7.6777748e-10
7.6977035e-10
7.7143322e-10
7.7276654e-10
7.7378271e-10
7.7449e-10
7.748922e-10
7.7497949e-10
7.7479423e-10
7.7432998e-10
7.7357706e-10
7.7252973e-10
7.7121404e-10
7.6972055e-10
7.6802948e-10
7.6599452e-10
7.6377239e-10
7.6131838e-10
7.5865583e-10
7.5578758e-10
7.5272453e-10
7.4946623e-10
7.4602911e-10
7.4241468e-10
7.3864117e-10
7.3470369e-10
7.3061418e-10
7.2637407e-10
7.2200142e-10
7.175008e-10
7.1287506e-10
7.0812441e-10
7.0325611e-10
6.9827792e-10
6.9318913e-10
6.8798511e-10
6.8266318e-10
6.7724781e-10
6.7175732e-10
6.6617689e-10
6.6050379e-10
6.547571e-10
6.4893804e-10
6.4304858e-10
6.3707531e-10
6.3101794e-10
6.2487463e-10
6.1864901e-10
6.1233651e-10
6.0594935e-10
5.9949187e-10
5.9297408e-10
5.8638128e-10
5.7970342e-10
5.7293873e-10
5.6610242e-10
5.5917334e-10
5.5214435e-10
5.4498498e-10
5.3773552e-10
5.3033441e-10
5.228206e-10
5.1508961e-10
5.0723605e-10
4.9911588e-10
4.9084903e-10
4.8223557e-10
4.7345484e-10
4.6424539e-10
4.5482811e-10
4.4484936e-10
4.3459054e-10
4.2361588e-10
4.1228655e-10
4.000721e-10
3.8738066e-10
3.7359328e-10
3.5912724e-10
3.4332219e-10
3.2634873e-10
3.0624025e-10
2.8676703e-10
2.8307273e-10
2.8494281e-10
2.8932841e-10
2.9405562e-10
2.9866581e-10
3.0286256e-10
3.06321e-10
3.0918842e-10
3.1127621e-10
3.1285844e-10
3.137911e-10
3.1428208e-10
3.1429097e-10
3.1417283e-10
3.1473131e-10
3.1623037e-10
3.1829872e-10
3.2083375e-10
3.2372276e-10
3.2693091e-10
3.3039504e-10
3.3406575e-10
3.3784131e-10
3.4165554e-10
3.4543796e-10
3.4900018e-10
3.5031804e-10
3.4963416e-10
3.4783775e-10
3.4538596e-10
3.4250964e-10
3.3950303e-10
3.3646584e-10
3.3364042e-10
3.3106883e-10
3.2921672e-10
3.2751977e-10
3.2826029e-10
3.2734413e-10
3.4967297e-10
3.0911056e-11
1.3555686e-09
2.9211864e-11
1.4815313e-09
3.3224665e-11
1.7763975e-09
4.4807189e-11
4.5930393e-11
5.7790122e-10
8.9158518e-10
1.1461362e-09
1.4019963e-09
1.6061773e-09
1.7116131e-09
1.7010953e-09
1.5362243e-09
1.3668358e-09
3.8726117e-09
1.236656e-10
2.4225703e-09
2.1552004e-09
6.8021806e-10
1.2875229e-08
4.0986956e-09
1.4405842e-08
4.0978629e-09
3.9330003e-10
2.0255955e-09
1.309646e-09
6.0796205e-10
1.9821307e-10
5.0047831e-11
1.7946368e-11
1.0651422e-11
7.004718e-12
5.6748418e-12
4.9971359e-12
4.5674247e-12
4.3509982e-12
4.22069e-12
4.1908811e-12
4.1787778e-12
4.2208485e-12
4.2845837e-12
4.4134735e-12
4.6201242e-12
4.9367103e-12
5.3355112e-12
5.8325196e-12
6.4368679e-12
7.1802922e-12
8.077028e-12
9.1724692e-12
1.0497359e-11
1.2106612e-11
1.4041365e-11
1.6361212e-11
1.9087992e-11
2.2233744e-11
2.5822621e-11
2.9990927e-11
3.4844251e-11
4.0524028e-11
4.7016223e-11
5.4180855e-11
6.2032325e-11
7.061531e-11
7.9750398e-11
9.0107006e-11
2.2522041e-10
3.0083493e-11
3.7963615e-11
3.1037338e-10
5.2660213e-11
1.8289418e-10
1.9928078e-10
2.1664644e-10
2.3261197e-10
2.4654663e-10
2.5714524e-10
2.6435482e-10
2.6726562e-10
2.685923e-10
2.7018307e-10
2.8539264e-10
3.5123778e-10
4.1606144e-10
2.0264255e-10
2.2772922e-10
2.5179997e-10
2.7911043e-10
3.0476766e-10
3.3186689e-10
3.5855099e-10
3.9360204e-10
1.900379e-09
4.3727071e-10
4.6249443e-10
4.8886249e-10
5.1510437e-10
5.4150882e-10
5.6787847e-10
5.9436384e-10
6.2085038e-10
6.4743339e-10
6.7406559e-10
7.00908e-10
7.291509e-10
7.7724782e-10
3.6411081e-09
3.7787577e-09
3.8971477e-09
4.0168545e-09
4.1342047e-09
4.2509811e-09
4.3660045e-09
4.4798599e-09
4.5922309e-09
4.7035527e-09
4.8145689e-09
4.9283012e-09
4.9180967e-09
1.1130265e-09
1.1408325e-09
1.1698479e-09
1.2057447e-09
1.2571379e-09
1.4133703e-09
3.128717e-09
3.1677633e-09
3.2148305e-09
3.2551719e-09
3.2956727e-09
3.3335129e-09
3.3699385e-09
3.4043932e-09
3.4371122e-09
3.4680075e-09
3.4971023e-09
3.5243697e-09
3.5498174e-09
3.5734306e-09
3.5952625e-09
3.6152939e-09
3.633573e-09
3.650077e-09
3.664886e-09
3.6779874e-09
3.6894429e-09
3.6992336e-09
3.7074379e-09
3.7140577e-09
3.719152e-09
3.7227599e-09
3.7249006e-09
3.7255246e-09
3.724836e-09
3.7228039e-09
3.7193811e-09
3.7145398e-09
3.7084047e-09
3.7014115e-09
3.6934654e-09
3.6838609e-09
3.6733526e-09
3.661725e-09
3.6490902e-09
3.6354616e-09
3.6208915e-09
3.6053778e-09
3.5889992e-09
3.5717628e-09
3.5537563e-09
3.5349561e-09
3.5154197e-09
3.4951536e-09
3.4742448e-09
3.4527155e-09
3.4305792e-09
3.4078371e-09
3.384524e-09
3.3606773e-09
3.3362938e-09
3.3113511e-09
3.2858364e-09
3.259867e-09
3.2335315e-09
3.2067588e-09
3.1795356e-09
3.1519539e-09
3.1240197e-09
3.0957424e-09
3.067058e-09
3.0379647e-09
3.0084538e-09
2.978543e-09
2.9482103e-09
2.9175142e-09
2.8864761e-09
2.8551441e-09
2.823448e-09
2.7913388e-09
2.7588088e-09
2.7259306e-09
2.6926034e-09
2.6587918e-09
2.6243504e-09
2.5894719e-09
2.5538614e-09
2.5177051e-09
2.4805016e-09
2.4427048e-09
2.4036228e-09
2.3638315e-09
2.3223701e-09
2.2801002e-09
2.2357651e-09
2.190426e-09
2.1423829e-09
2.0929878e-09
2.0401457e-09
1.9855917e-09
1.9267761e-09
1.8656591e-09
1.7992657e-09
1.7295988e-09
1.6534861e-09
1.5717432e-09
1.4749683e-09
1.3813475e-09
1.3636691e-09
1.3726893e-09
1.3938382e-09
1.4166485e-09
1.4388965e-09
1.4591616e-09
1.47587e-09
1.4897371e-09
1.4998478e-09
1.5075273e-09
1.512073e-09
1.5144923e-09
1.5145902e-09
1.5140858e-09
1.516832e-09
1.5240634e-09
1.5340168e-09
1.5462008e-09
1.5600659e-09
1.5754496e-09
1.5920395e-09
1.6095902e-09
1.6276115e-09
1.645783e-09
1.6637703e-09
1.6806215e-09
1.6866287e-09
1.6830424e-09
1.6741184e-09
1.6620411e-09
1.647916e-09
1.6331608e-09
1.6182465e-09
1.6043297e-09
1.5916108e-09
1.5823266e-09
1.573769e-09
1.5768583e-09
1.5719344e-09
1.6907733e-09
1.3266133e-10
6.6782586e-09
1.2667337e-10
7.3132925e-09
1.4383931e-10
8.7434379e-09
2.0030347e-10
1.9045015e-10
2.6726989e-09
4.1886442e-09
5.3802841e-09
6.5743877e-09
7.5181939e-09
8.0136131e-09
7.9734193e-09
7.2195915e-09
6.4249332e-09
1.8498756e-08
5.7631403e-10
1.1529922e-08
1.0348922e-08
3.2836827e-09
4.1837812e-08
1.4457867e-08
4.6754497e-08
1.4466495e-08
1.4268696e-09
7.0872038e-09
4.6047719e-09
2.1414288e-09
6.9936613e-10
1.7466382e-10
6.2244042e-11
3.6733447e-11
2.4210665e-11
1.9606059e-11
1.7301472e-11
1.5811329e-11
1.5081976e-11
1.4630818e-11
1.4541622e-11
1.4504365e-11
1.4661655e-11
1.488873e-11
1.5344301e-11
1.6065729e-11
1.7170377e-11
1.8559746e-11
2.0291197e-11
2.2394736e-11
2.4982234e-11
2.8101759e-11
3.1912284e-11
3.6519612e-11
4.2115702e-11
4.8842902e-11
5.6910074e-11
6.6393047e-11
7.7338048e-11
8.9827549e-11
1.0433456e-10
1.2122838e-10
1.4100474e-10
1.6361966e-10
1.8858521e-10
2.1595093e-10
2.4587839e-10
2.7779141e-10
3.1504572e-10
7.107604e-10
1.1290683e-10
1.4435999e-10
9.7900087e-10
1.9923004e-10
6.4335849e-10
7.0026253e-10
7.61383e-10
8.1758904e-10
8.6665352e-10
9.0399662e-10
9.2939888e-10
9.3968042e-10
9.4434051e-10
9.4993222e-10
1.0032103e-09
1.2343786e-09
1.4611223e-09
7.6996283e-10
8.6657279e-10
9.5885837e-10
1.063057e-09
1.1609269e-09
1.2642093e-09
1.3659381e-09
1.5014167e-09
5.9820521e-09
1.6664928e-09
1.7619041e-09
1.8623406e-09
1.9622957e-09
2.0628646e-09
2.1632978e-09
2.2641664e-09
2.3650353e-09
2.4662657e-09
2.5676776e-09
2.6698825e-09
2.777546e-09
2.9663467e-09
1.1475022e-08
1.1910771e-08
1.2284508e-08
1.2662547e-08
1.3033288e-08
1.3402415e-08
1.3766217e-08
1.4126593e-08
1.4482586e-08
1.483565e-08
1.5188233e-08
1.5549893e-08
1.5497902e-08
4.2369392e-09
4.3408644e-09
4.4501291e-09
4.5847955e-09
4.7764158e-09
5.349716e-09
1.0986616e-08
1.1123983e-08
1.1289425e-08
1.1431259e-08
1.1573663e-08
1.1706734e-08
1.1834848e-08
1.1956049e-08
1.2071165e-08
1.2179884e-08
1.2282288e-08
1.2378282e-08
1.2467893e-08
1.2551067e-08
1.2627991e-08
1.2698596e-08
1.2763051e-08
1.2821275e-08
1.2873549e-08
1.2919828e-08
1.2960328e-08
1.2994982e-08
1.3024064e-08
1.304758e-08
1.3065737e-08
1.307867e-08
1.3086453e-08
1.3088903e-08
1.3086738e-08
1.3079851e-08
1.3068076e-08
1.3051314e-08
1.303e-08
1.3005669e-08
1.2977986e-08
1.2944472e-08
1.2907776e-08
1.2867141e-08
1.2822962e-08
1.2775286e-08
1.2724295e-08
1.2669982e-08
1.2612624e-08
1.2552244e-08
1.2489152e-08
1.2423264e-08
1.2354783e-08
1.228373e-08
1.2210412e-08
1.2134906e-08
1.2057261e-08
1.197748e-08
1.1895686e-08
1.181201e-08
1.1726441e-08
1.1638901e-08
1.1549343e-08
1.1458182e-08
1.1365727e-08
1.127173e-08
1.1176144e-08
1.1079292e-08
1.0981195e-08
1.0881887e-08
1.0781143e-08
1.0678957e-08
1.0575299e-08
1.0470229e-08
1.0363672e-08
1.0255833e-08
1.0146788e-08
1.0036705e-08
9.9253378e-09
9.8125153e-09
9.6982096e-09
9.5826765e-09
9.4655613e-09
9.3467409e-09
9.2257031e-09
9.1031259e-09
8.9779726e-09
8.8508988e-09
8.7201411e-09
8.5872952e-09
8.4499297e-09
8.3100688e-09
8.164335e-09
8.0157573e-09
7.859918e-09
7.7005487e-09
7.5316726e-09
7.3580432e-09
7.172295e-09
6.9805293e-09
6.7737808e-09
6.558943e-09
6.3255564e-09
6.0806632e-09
5.8131137e-09
5.5257864e-09
5.1858412e-09
4.8573381e-09
4.7956173e-09
4.8273785e-09
4.9018326e-09
4.9821607e-09
5.0605191e-09
5.1319169e-09
5.1908111e-09
5.2397145e-09
5.2754104e-09
5.3025652e-09
5.3186926e-09
5.3273457e-09
5.3278454e-09
5.3262639e-09
5.3360901e-09
5.3615964e-09
5.3966175e-09
5.4394529e-09
5.488163e-09
5.5421812e-09
5.6003973e-09
5.6619433e-09
5.7251046e-09
5.7887405e-09
5.8516737e-09
5.9104071e-09
5.9309362e-09
5.9179328e-09
5.8862911e-09
5.8436062e-09
5.7937307e-09
5.7416722e-09
5.6890663e-09
5.6399566e-09
5.5950854e-09
5.5622578e-09
5.5320558e-09
5.5426198e-09
5.5250755e-09
5.9775085e-09
4.5842945e-10
2.2233821e-08
4.448333e-10
2.4404276e-08
5.0639428e-10
2.9084013e-08
7.2584434e-10
6.5320721e-10
9.1461916e-09
1.4559453e-08
1.8686205e-08
2.2804855e-08
2.6040663e-08
2.7740109e-08
2.7604616e-08
2.5022447e-08
2.2246217e-08
5.993207e-08
2.1243668e-09
3.712724e-08
3.3705272e-08
1.1581418e-08
1.0296489e-07
4.1407795e-08
1.1493353e-07
4.1534751e-08
4.4532805e-09
2.0109811e-08
1.3156019e-08
6.130281e-09
2.0070053e-09
4.9908395e-10
1.7726589e-10
1.0428177e-10
6.8734358e-11
5.5621372e-11
4.9100474e-11
4.4865322e-11
4.2806659e-11
4.1524879e-11
4.1281416e-11
4.117957e-11
4.1634388e-11
4.2283253e-11
4.3580218e-11
4.562673e-11
4.8761315e-11
5.2704047e-11
5.7618152e-11
6.3587089e-11
7.0929509e-11
7.9780466e-11
9.0591767e-11
1.036627e-10
1.1953886e-10
1.3862474e-10
1.615133e-10
1.8842134e-10
2.1948668e-10
2.5494476e-10
2.9612698e-10
3.4408641e-10
4.0023907e-10
4.6447299e-10
5.3540086e-10
6.1315824e-10
6.9821825e-10
7.8908027e-10
8.9715731e-10
1.7606571e-09
3.5714161e-10
4.5982945e-10
2.4374971e-09
6.3106245e-10
1.8386799e-09
2.0005462e-09
2.175359e-09
2.3361244e-09
2.4764906e-09
2.5833593e-09
2.6560641e-09
2.6855078e-09
2.6988028e-09
2.7147085e-09
2.8664198e-09
3.5264878e-09
4.1718102e-09
2.4265717e-09
2.7366342e-09
3.0309081e-09
3.3611128e-09
3.6712013e-09
3.9980405e-09
4.3199697e-09
4.7515242e-09
1.507711e-08
5.27153e-09
5.5722232e-09
5.8897453e-09
6.2057319e-09
6.5236194e-09
6.8410549e-09
7.159831e-09
7.4785813e-09
7.7984363e-09
8.1188306e-09
8.4416833e-09
8.7820374e-09
9.3875523e-09
2.8922265e-08
3.0015798e-08
3.0958828e-08
3.1913055e-08
3.2849239e-08
3.3781866e-08
3.4701606e-08
3.5613397e-08
3.6514939e-08
3.7410106e-08
3.8305347e-08
3.9224777e-08
3.9103844e-08
1.3379521e-08
1.3702899e-08
1.4043105e-08
1.4460328e-08
1.5048532e-08
1.6761866e-08
3.1356278e-08
3.1745372e-08
3.221782e-08
3.2623005e-08
3.3029828e-08
3.3410071e-08
3.3776198e-08
3.4122643e-08
3.4451752e-08
3.4762645e-08
3.5055549e-08
3.5330189e-08
3.5586642e-08
3.5824751e-08
3.6045048e-08
3.6247333e-08
3.6432086e-08
3.6599074e-08
3.6749093e-08
3.6882015e-08
3.699845e-08
3.7098208e-08
3.7182067e-08
3.7250043e-08
3.7302722e-08
3.7340478e-08
3.7363554e-08
3.7371392e-08
3.7366036e-08
3.7347202e-08
3.7314404e-08
3.7267354e-08
3.7207295e-08
3.7138599e-08
3.7060335e-08
3.6965398e-08
3.6861357e-08
3.6746054e-08
3.6620609e-08
3.6485155e-08
3.6340219e-08
3.6185774e-08
3.6022609e-08
3.5850796e-08
3.5671211e-08
3.5483621e-08
3.5288599e-08
3.5086213e-08
3.4877331e-08
3.4662178e-08
3.4440891e-08
3.4213483e-08
3.3980302e-08
3.3741723e-08
3.3497715e-08
3.3248056e-08
3.2992613e-08
3.2732568e-08
3.2468806e-08
3.220062e-08
3.1927874e-08
3.1651492e-08
3.1371537e-08
3.1088105e-08
3.0800552e-08
3.0508864e-08
3.0212954e-08
2.9912996e-08
2.9608774e-08
2.9300874e-08
2.8989514e-08
2.8675175e-08
2.8357156e-08
2.8034967e-08
2.7708528e-08
2.7378571e-08
2.7044084e-08
2.6704717e-08
2.6359004e-08
2.6008886e-08
2.5651398e-08
2.5288418e-08
2.4914904e-08
2.4535421e-08
2.4143016e-08
2.3743478e-08
2.3327156e-08
2.2902706e-08
2.2457503e-08
2.2002216e-08
2.1519762e-08
2.1023732e-08
2.0493071e-08
1.9945225e-08
1.9354566e-08
1.8740805e-08
1.8074045e-08
1.7374423e-08
1.6610076e-08
1.578928e-08
1.4818792e-08
1.3881991e-08
1.370686e-08
1.3797729e-08
1.4010753e-08
1.4240642e-08
1.4464936e-08
1.4669367e-08
1.4838062e-08
1.4978227e-08
1.5080641e-08
1.5158653e-08
1.5205138e-08
1.5230272e-08
1.5232123e-08
1.5228136e-08
1.52567e-08
1.5329826e-08
1.5429988e-08
1.5552388e-08
1.569151e-08
1.5845676e-08
1.6011722e-08
1.6187209e-08
1.6367167e-08
1.6548346e-08
1.6727373e-08
1.6893837e-08
1.6950896e-08
1.6912719e-08
1.6821683e-08
1.6699186e-08
1.6556253e-08
1.6407167e-08
1.6256568e-08
1.6115976e-08
1.5987583e-08
1.5893543e-08
1.5807269e-08
1.5836976e-08
1.5786293e-08
1.7145727e-08
1.3884681e-09
5.5069485e-08
1.3671532e-09
6.047676e-08
1.5587778e-09
7.1810201e-08
2.283223e-09
1.9749343e-09
2.5486981e-08
4.1229943e-08
5.2855307e-08
6.4392204e-08
7.3389741e-08
7.8095722e-08
7.7705102e-08
7.0514061e-08
6.2649297e-08
1.46841e-07
6.7150361e-09
9.0500195e-08
8.3025712e-08
3.3176e-08
2.0960867e-07
1.0223974e-07
2.3376381e-07
1.0297714e-07
1.2501483e-08
4.924031e-08
3.2462897e-08
1.5163718e-08
4.9790997e-09
1.2358673e-09
4.3775103e-10
2.568352e-10
1.6920356e-10
1.3681132e-10
1.2076375e-10
1.1033172e-10
1.0527007e-10
1.0211297e-10
1.0152103e-10
1.0127486e-10
1.0240038e-10
1.0399956e-10
1.0718659e-10
1.1220742e-10
1.1990171e-10
1.2958384e-10
1.4165347e-10
1.5631312e-10
1.7434695e-10
1.9608467e-10
2.2263667e-10
2.5473705e-10
2.9372943e-10
3.4060441e-10
3.9681945e-10
4.629184e-10
5.392373e-10
6.2638485e-10
7.2758156e-10
8.4543187e-10
9.8343612e-10
1.141352e-09
1.3157653e-09
1.5069924e-09
1.7162308e-09
1.9401061e-09
2.2082969e-09
3.7344544e-09
9.9563711e-10
1.2838987e-09
5.2200776e-09
1.7519949e-09
4.5378243e-09
4.9389683e-09
5.3710122e-09
5.7683483e-09
6.1153414e-09
6.3796019e-09
6.5594044e-09
6.6322205e-09
6.6649466e-09
6.7038828e-09
7.0767507e-09
8.7055434e-09
1.0294455e-08
6.6510403e-09
7.5177977e-09
8.3343324e-09
9.2445667e-09
1.0099133e-08
1.0998656e-08
1.1884303e-08
1.3069942e-08
3.301244e-08
1.4501904e-08
1.5328318e-08
1.6201105e-08
1.7069603e-08
1.7943183e-08
1.8815435e-08
1.9691245e-08
2.0566887e-08
2.1445438e-08
2.2325353e-08
2.3211855e-08
2.4146582e-08
2.5806815e-08
6.3249431e-08
6.5614009e-08
6.7677118e-08
6.9765316e-08
7.1814794e-08
7.3857496e-08
7.5873097e-08
7.7872676e-08
7.9851428e-08
8.181823e-08
8.3787664e-08
8.5812086e-08
8.5698666e-08
3.6729737e-08
3.7608134e-08
3.852784e-08
3.9649465e-08
4.1212147e-08
4.5605714e-08
7.7292735e-08
7.8236398e-08
7.9401797e-08
8.040192e-08
8.1406112e-08
8.2345012e-08
8.3249261e-08
8.410516e-08
8.4918479e-08
8.568704e-08
8.6411396e-08
8.7090868e-08
8.7725628e-08
8.8315287e-08
8.8861137e-08
8.9362682e-08
8.9821094e-08
9.0235788e-08
9.0608712e-08
9.0939542e-08
9.1229775e-08
9.1478926e-08
9.1688909e-08
9.1859747e-08
9.1992878e-08
9.2089182e-08
9.2149363e-08
9.2171924e-08
9.2161882e-08
9.2118606e-08
9.2040864e-08
9.1927929e-08
9.1782846e-08
9.1616401e-08
9.1426335e-08
9.1195077e-08
9.0941282e-08
9.0659642e-08
9.0352909e-08
9.002141e-08
8.9666436e-08
8.9287923e-08
8.8887811e-08
8.8466278e-08
8.8025484e-08
8.7564846e-08
8.7085786e-08
8.6588462e-08
8.6075018e-08
8.5546013e-08
8.5001782e-08
8.4442359e-08
8.38686e-08
8.3281435e-08
8.2680789e-08
8.2066118e-08
8.1437082e-08
8.0796609e-08
8.014688e-08
7.9486157e-08
7.8814104e-08
7.8133001e-08
7.7443006e-08
7.674436e-08
7.6035482e-08
7.5316328e-08
7.4586692e-08
7.3847006e-08
7.3096732e-08
7.2337326e-08
7.1569317e-08
7.0793907e-08
7.0009363e-08
6.9214481e-08
6.8409061e-08
6.7594914e-08
6.6769543e-08
6.5932092e-08
6.5078935e-08
6.4214871e-08
6.333258e-08
6.2436706e-08
6.1514798e-08
6.057813e-08
5.9609535e-08
5.8623319e-08
5.7595636e-08
5.6547882e-08
5.5448868e-08
5.432496e-08
5.313396e-08
5.1909453e-08
5.0599426e-08
4.924699e-08
4.7788835e-08
4.6273677e-08
4.4627651e-08
4.2900537e-08
4.101363e-08
3.8987515e-08
3.6593414e-08