# y+ ()       
# Time        	patch         	min           	max           	average       
20000         	bottomWall	2.097749e-02	9.329842e-01	2.118747e-01
20000         	topWall	8.165767e-01	9.606272e-01	8.827558e-01
