y,R_0,R_1,R_2,R_3,R_4,R_5
0,6.6666667e-11,0,0,6.6666667e-11,0,6.6666667e-11
0.00048240845,2.3106104e-08,3.0587357e-12,2.4176439e-36,2.3106078e-08,1.4803675e-35,2.3106092e-08
0.00098049384,2.2725274e-08,2.150597e-11,-1.8146653e-33,2.2724866e-08,-6.9489936e-34,2.2725069e-08
0.0014947656,8.4100034e-08,1.7506126e-10,6.2176181e-33,8.409537e-08,4.8024603e-33,8.4097702e-08
0.0020257498,2.4806396e-07,9.1632984e-10,-7.7843247e-32,2.4803295e-07,4.6252724e-32,2.4804846e-07
0.0025739895,5.9156333e-07,3.51719e-09,-2.2214936e-31,5.9141934e-07,-2.9890974e-32,5.9149135e-07
0.0031400454,1.2187722e-06,1.0931361e-08,-9.6945266e-31,1.2182484e-06,-2.5157157e-31,1.2185103e-06
0.0037244966,2.2618068e-06,2.921616e-08,-7.3425879e-31,2.2602065e-06,-1.5410785e-30,2.2610067e-06
0.0043279408,3.8819694e-06,6.9715257e-08,2.8846527e-29,3.8776833e-06,-3.5183425e-30,3.8798265e-06
0.0049509953,6.2718331e-06,1.5217755e-07,3.9365946e-29,6.2614763e-06,1.2805812e-29,6.266655e-06
0.0055942973,9.6587535e-06,3.0891777e-07,-1.378953e-28,9.6357323e-06,3.4246553e-29,9.6472434e-06
0.0062585048,1.4309822e-05,5.900524e-07,-3.7312694e-28,1.4262088e-05,-4.345018e-30,1.4285956e-05
0.0069442972,2.0537737e-05,1.0698105e-06,-2.4956812e-28,2.0444445e-05,-3.2232153e-29,2.0491092e-05
0.007652376,2.8706799e-05,1.8538798e-06,-6.7299735e-28,2.8533521e-05,6.2114137e-29,2.862016e-05
0.0083834654,3.9237932e-05,3.087578e-06,-2.1541234e-27,3.8930065e-05,1.5232892e-29,3.9083997e-05
0.0091383131,5.2611472e-05,4.9642973e-06,-2.1199748e-27,5.2085435e-05,-3.4738825e-28,5.234845e-05
0.0099176913,6.9366258e-05,7.7327373e-06,2.5904831e-27,6.8498163e-05,-2.9877949e-28,6.8932203e-05
0.010722397,9.0093062e-05,1.1700455e-05,1.8159995e-27,8.8704717e-05,9.6985759e-29,8.9398876e-05
0.011553254,0.00011542012,1.7230336e-05,4.8458619e-27,0.00011326262,5.5257415e-28,0.00011434134
0.012411111,0.00014598885,2.4725859e-05,-8.4594004e-27,0.00014272452,-5.0826407e-29,0.00014435665
0.013296846,0.00018241872,3.4601565e-05,1.8580119e-26,0.00017760294,-1.4194203e-27,0.00018001079
0.014211364,0.00022526229,4.7237396e-05,7.7345351e-27,0.00021832738,4.7601872e-27,0.00022179479
0.015155603,0.00027495445,6.2919894e-05,-8.6990068e-26,0.00026519839,8.7537442e-27,0.00027007638
0.016130526,0.00033176343,8.1779008e-05,-1.528761e-25,0.00031834595,-3.2284524e-27,0.00032505466
0.017137132,0.00039575328,0.00010373445,3.287877e-26,0.00037770141,-2.1748852e-27,0.00038672732
0.018176449,0.00046676749,0.00012846658,-2.8943791e-25,0.00044299081,3.2135137e-26,0.00045487913
0.019249542,0.00054443944,0.00015542325,-7.2468774e-25,0.00051375352,2.5008592e-26,0.00052909645
0.020357507,0.00062823097,0.00018386504,-6.736104e-25,0.00058938561,-3.9745772e-27,0.00060880823
0.021501477,0.0007174894,0.00021293674,-4.4899742e-25,0.00066919804,-9.6633991e-27,0.00069334361
0.022682624,0.00081150891,0.00024174835,-1.3334695e-25,0.00075247638,-1.8388104e-26,0.00078199246
0.023902154,0.00090958774,0.00026945416,4.238812e-25,0.0008385332,-1.7674528e-26,0.0008740602
0.025161316,0.0010110734,0.00029531472,-7.8819427e-26,0.00092674674,4.2452979e-26,0.00096890974
0.026461397,0.0011153908,0.00031873573,-1.9875791e-24,0.0010165826,6.768702e-26,0.0010659863
0.027803728,0.0012220543,0.00033928374,-1.0705378e-24,0.0011076002,3.5391762e-27,0.0011648268
0.02918968,0.0013306668,0.0003566785,-2.375813e-24,0.0011994492,9.393255e-26,0.0012650575
0.030620672,0.001440912,0.00037077712,-3.2093445e-24,0.0012918596,4.4660939e-26,0.0013663853
0.032098167,0.0015525433,0.00038155227,1.2917638e-24,0.0013846286,-1.9139442e-25,0.0014685853
0.033623676,0.0016653711,0.00038906521,3.8678394e-24,0.0014776079,-1.3521462e-25,0.0015714888
0.03519876,0.0017792519,0.00039344128,8.2923938e-25,0.0015706917,1.9118025e-25,0.001674971
0.03682503,0.0018940776,0.00039484656,-7.8251003e-24,0.001663808,5.279841e-25,0.001778942
0.03850415,0.0020097682,0.00039346992,-1.2281707e-23,0.0017569107,4.8954936e-25,0.0018833386
0.040237836,0.0021262651,0.00038950865,-1.1359582e-23,0.0018499739,3.2484346e-25,0.0019881186
0.042027862,0.0022435262,0.00038315731,-8.228813e-24,0.0019429877,2.4402007e-25,0.0020932561
0.043876059,0.0023615221,0.00037460206,-8.2675366e-24,0.0020359548,2.3279937e-25,0.0021987377
0.045784317,0.0024802331,0.00036401626,2.7354699e-24,0.0021288881,-3.1033785e-25,0.0023045599
0.047754588,0.0025996467,0.00035155698,9.5298404e-24,0.0022218087,-4.06602e-25,0.0024107271
0.049788888,0.002719756,0.0003373653,-7.4372988e-24,0.0023147445,6.2124546e-25,0.0025172498
0.051889297,0.0028405579,0.00032156581,-4.3776865e-23,0.0024077287,2.5690697e-24,0.0026241431
0.054057963,0.0029620524,0.00030426664,-4.4822448e-23,0.0025007994,2.1686801e-24,0.0027314259
0.056297104,0.003084241,0.00028556179,2.5850877e-23,0.0025939984,-1.8381624e-24,0.00283912
0.058609012,0.0032071261,0.00026553247,4.2526332e-23,0.0026873707,-2.0123532e-24,0.0029472491
0.06099605,0.0033307104,0.00024424727,2.1285505e-23,0.0027809645,-9.3556847e-25,0.0030558385
0.06346066,0.003454996,0.00022176222,3.327541e-23,0.00287483,-1.5651476e-24,0.0031649145
0.066005363,0.0035799843,0.00019812381,1.4831236e-23,0.0029690202,-8.136719e-25,0.0032745041
0.068632762,0.0037056752,0.00017337114,3.6437848e-23,0.0030635894,-3.0901747e-24,0.0033846348
0.071345544,0.0038320674,0.00014753523,7.6522936e-23,0.003158594,-5.1019825e-24,0.0034953338
0.074146484,0.0039591577,0.00012063793,5.3442875e-23,0.0032540923,-3.1177595e-24,0.0036066286
0.077038447,0.0040869404,9.2693788e-05,-3.6409296e-24,0.0033501434,9.1442369e-25,0.0037185462
0.08002439,0.0042154082,6.3714979e-05,-4.0670133e-24,0.0034468083,-1.8244277e-25,0.0038311134
0.083107369,0.0043445508,3.370578e-05,-7.1210055e-23,0.0035441497,3.3436575e-24,0.0039443562
0.086290535,0.004474356,2.6642922e-06,8.6713881e-24,0.0036422308,-2.3953193e-24,0.0040583002
0.089577146,0.0046048087,-2.9411789e-05,1.9047139e-22,0.0037411168,-1.4717881e-23,0.0041729705
0.092970562,0.0047358905,-6.2533194e-05,8.9619862e-23,0.0038408746,-6.6651505e-24,0.0042883913
0.096474255,0.0048675804,-9.6714218e-05,1.1952032e-23,0.0039415718,-1.2965719e-24,0.004404586
0.10009181,0.004999855,-0.00013197068,1.0229705e-22,0.0040432777,-8.9015812e-24,0.0045215774
0.10382692,0.0051326872,-0.00016832446,-1.465853e-23,0.0041460633,3.2477187e-24,0.0046393873
0.10768342,0.0052660464,-0.00020579985,-1.1225451e-22,0.0042500008,1.1696946e-23,0.0047580369
0.11166524,0.005399899,-0.00024442422,-2.7834885e-23,0.0043551642,1.9737488e-24,0.0048775465
0.11577645,0.0055342083,-0.00028422828,-1.5764611e-22,0.00446163,1.390077e-23,0.0049979356
0.12002127,0.0056689338,-0.00032524534,-3.4887694e-23,0.0045694766,-7.6931601e-25,0.005119223
0.12440404,0.0058040314,-0.00036751206,1.6363797e-22,0.0046787833,-1.6261121e-23,0.005241427
0.12892923,0.0059394549,-0.00041106992,2.4198382e-22,0.004789631,-2.1889614e-23,0.0053645646
0.13360148,0.0060751537,-0.00045596067,2.0396014e-22,0.0049021039,-2.2773384e-23,0.0054886524
0.13842557,0.0062110728,-0.00050222663,2.0232825e-22,0.0050162867,-2.1054939e-23,0.0056137056
0.14340642,0.006347155,-0.00054991837,3.0668557e-22,0.0051322649,-3.585429e-23,0.0057397386
0.14854914,0.0064833394,-0.00059909009,3.5284955e-22,0.0052501265,-4.5111028e-23,0.0058667645
0.15385898,0.0066195604,-0.00064979614,3.0052632e-22,0.00536996,-3.4583347e-23,0.005994795
0.15934138,0.0067557484,-0.00070209464,3.1889385e-22,0.0054918556,-3.793197e-23,0.0061238406
0.16500194,0.0068918298,-0.00075604603,1.4862594e-22,0.0056159059,-1.7927577e-23,0.0062539103
0.17084645,0.0070277235,-0.00081171497,-6.5110598e-23,0.005742207,9.0378385e-24,0.0063850118
0.17688089,0.0071633402,-0.00086916486,6.4914422e-22,0.0058708618,-8.5630545e-23,0.0065171518
0.18311143,0.0072985844,-0.00092845771,5.8200076e-22,0.0060019786,-7.6614244e-23,0.0066503373
0.18954445,0.0074333576,-0.00098966072,-3.4834575e-22,0.0061356693,5.4657452e-23,0.0067845751
0.19618653,0.0075675586,-0.0010528423,-3.9592635e-22,0.0062720493,5.9283662e-23,0.0069198724
0.20304445,0.007701084,-0.0011180718,3.7678667e-22,0.0064112364,-5.8446552e-23,0.0070562363
0.21012524,0.0078338258,-0.0011854213,9.2150959e-22,0.006553353,-1.2572307e-22,0.0071936739
0.21743614,0.0079656701,-0.0012549637,1.9302793e-22,0.0066985274,-2.112664e-23,0.0073321925
0.22498461,0.0080964975,-0.0013267728,1.1448206e-22,0.0068468931,-2.635964e-23,0.0074717999
0.23277839,0.0082261842,-0.0014009254,2.346002e-22,0.0069985921,-2.9060314e-23,0.0076125047
0.24082545,0.0083546008,-0.0014774991,-5.5627351e-23,0.0071537753,2.2547976e-23,0.0077543179
0.24913402,0.0084816129,-0.0015565729,-5.2312709e-23,0.0073126028,1.7387521e-23,0.0078972524
0.25771259,0.0086070804,-0.001638225,-9.1161584e-22,0.0074752473,1.8484759e-22,0.0080413247
0.26656994,0.0087308599,-0.0017225337,-7.9103008e-22,0.0076418939,1.4752931e-22,0.0081865557
0.27571513,0.0088528045,-0.0018095842,-1.4032088e-23,0.0078127425,7.1037838e-24,0.0083329727
0.28515751,0.0089727652,-0.0018994629,-7.2155692e-22,0.0079880129,1.5619618e-22,0.008480611
0.29490674,0.0090905943,-0.0019922551,1.582783e-22,0.0081679455,-5.6257637e-23,0.0086295166
0.3049728,0.0092061451,-0.0020880512,6.5351088e-22,0.0083528052,-1.5613241e-22,0.0087797485
0.31536597,0.0093192733,-0.0021869479,-6.2516788e-23,0.0085428868,1.9140907e-23,0.0089313831
0.3260969,0.0094298465,-0.0022890488,4.1127596e-22,0.0087385191,-6.8131271e-23,0.0090845187
0.33717655,0.009537748,-0.0023944683,3.0240103e-22,0.0089400712,-4.5216352e-23,0.0092392806
0.34861625,0.0096428802,-0.002503335,3.114375e-22,0.0091479597,-7.5191526e-23,0.0093958292
0.36042772,0.0097451794,-0.0026157981,2.0270481e-21,0.0093626565,-5.5041144e-22,0.0095543689
0.37262303,0.0098446293,-0.0027320259,2.4079595e-21,0.0095846942,-6.1984084e-22,0.0097151593
0.38521464,0.0099412818,-0.0028522506,-3.4695695e-23,0.0098146825,3.8157047e-23,0.0098785287
0.39821546,0.010035266,-0.002976736,8.8188309e-22,0.010053325,-2.6727666e-22,0.010044891
0.41163876,0.01012682,-0.0031057678,2.0952017e-21,0.010301426,-5.5068144e-22,0.010214774
0.42549828,0.010216368,-0.0032397713,-7.5323815e-22,0.010559906,3.4504757e-22,0.01038885
0.4398082,0.010304575,-0.0033793,-1.4989378e-21,0.010829808,4.7949436e-22,0.010567965
0.45458315,0.010392407,-0.0035250321,-8.8462879e-22,0.011112308,2.6678783e-22,0.010753196
0.46983824,0.010481259,-0.0036778522,-4.6716935e-22,0.011408741,1.290663e-22,0.010945905
0.48558908,0.010573109,-0.0038389036,-2.7043168e-22,0.011720606,1.4052431e-22,0.011147832
0.50185179,0.010670747,-0.0040096585,-1.0080874e-21,0.012049557,5.3957468e-22,0.011361196
0.50880893,0.010715279,-0.0040852486,-1.3313463e-21,0.012193727,7.1402173e-22,0.011455575
0.51864298,0.010778195,-0.0041920216,-1.7309712e-21,0.012397402,9.3180051e-22,0.011588853
0.53597984,0.010900904,-0.0043883174,-9.9010247e-22,0.012765968,5.0805618e-22,0.011834461
0.5538801,0.011046305,-0.0046013696,-1.3324428e-22,0.013156929,1.7191076e-22,0.012102751
0.57236207,0.011224704,-0.0048341086,-1.957376e-22,0.013572015,5.784738e-23,0.012399876
0.59144465,0.011448385,-0.005088957,1.9051425e-22,0.014015316,-4.7234622e-22,0.012733178
0.61114736,0.011726472,-0.0053702964,6.9486296e-23,0.014492759,-1.8227648e-22,0.013109375
0.63149036,0.012062683,-0.0056864859,-5.0645193e-23,0.015003573,-9.5352271e-24,0.01353409
0.65249445,0.012461958,-0.0060971145,9.3333565e-23,0.015561506,2.5608335e-24,0.014014385
0.67418111,0.012974631,-0.0065386672,-3.5746693e-22,0.016155121,-1.1368342e-22,0.014565643
0.69657252,0.013652097,-0.0069295627,-5.1041902e-22,0.016787977,-1.3916752e-22,0.015221324
0.7196916,0.014497219,-0.0073657995,-1.2648639e-22,0.017528668,-1.5359824e-23,0.016014495
0.74356198,0.015471586,-0.0079130229,6.5276449e-22,0.018400031,3.2774005e-23,0.016935001
0.76820808,0.016487211,-0.0085607243,-2.1164437e-21,0.019351247,-1.318809e-23,0.017917375
0.79365511,0.017439387,-0.0092699135,-3.1514417e-21,0.020290127,-4.5990776e-23,0.018864459
0.8199291,0.018259129,-0.0099880689,-2.4051714e-21,0.021116619,4.2398459e-23,0.019687945
0.84705692,0.018926446,-0.010679211,-3.2631324e-21,0.021772187,7.3307327e-23,0.020343833
0.87506632,0.019442689,-0.011327268,1.2135642e-21,0.02221286,2.9964772e-25,0.020824457
0.90398595,0.019860062,-0.011839019,5.2311787e-21,0.022381446,-1.0811307e-22,0.021126363
0.93384538,0.020226428,-0.012040221,-5.2624799e-21,0.022261917,1.5208129e-22,0.021243975
0.96467516,0.020476207,-0.011938191,-1.0880911e-20,0.021910753,3.3339865e-22,0.021184723
0.99650683,0.02054539,-0.011635794,-1.5143795e-20,0.021437944,4.3792169e-22,0.020983751
1.0293729,0.020469394,-0.011182105,-5.2423297e-21,0.020958372,1.5817703e-22,0.020706618
1.0633071,0.020324087,-0.010648327,3.823514e-20,0.020550861,-9.4780444e-22,0.020429626
1.098344,0.02018063,-0.010102784,2.6460854e-20,0.020257708,-6.1389372e-22,0.020210993
1.1345196,0.020081423,-0.0095937258,-1.7145744e-20,0.020084553,4.5302057e-22,0.020074627
1.1668571,0.020040426,-0.0092062476,-1.2388462e-20,0.020017113,3.0595579e-22,0.020020245
1.1718726,0.020034121,-0.0091463663,-1.1323705e-20,0.020006932,2.7475325e-22,0.020012118
1.2104522,0.020021573,-0.0087688999,7.3458866e-21,0.019986203,-1.7722624e-22,0.019996278
1.250285,0.020018545,-0.0084593165,1.5639233e-20,0.019981913,-2.8726517e-22,0.019993349
1.2914115,0.019997458,-0.0082096346,-1.8684532e-20,0.019958254,4.1081985e-22,0.019971625
1.3338737,0.019934937,-0.0080085074,-2.1812344e-20,0.019886115,4.186442e-22,0.019904901
1.3777151,0.019811059,-0.0078419251,-3.607109e-20,0.019740976,6.4786371e-22,0.019770994
1.4229805,0.019610594,-0.0076938918,-6.2311721e-20,0.019504169,1.0359634e-21,0.019552961
1.4697159,0.019323594,-0.0075487452,-2.923973e-21,0.019166545,1.5544119e-23,0.019241064
1.5179692,0.018944657,-0.0073955049,-1.9486083e-20,0.01873285,3.9897559e-22,0.018835103
1.5662215,0.018483581,-0.0072330099,-7.9431103e-20,0.018222634,1.3263513e-21,0.018350059
1.6129542,0.017963668,-0.0070634857,-4.7371502e-20,0.017656731,6.4456598e-22,0.017807636
1.6582152,0.017401797,-0.0068836831,2.0886241e-21,0.017048841,-3.3534585e-23,0.017223077
1.7020508,0.016807637,-0.0066897177,-7.1358211e-20,0.016411343,1.1084997e-21,0.016607602
1.7445059,0.01619056,-0.0064810352,-5.302164e-20,0.015756116,7.0761457e-22,0.015971765
1.785624,0.015559234,-0.0062587692,1.5315082e-20,0.015092962,-2.9177684e-22,0.015324816
1.8070113,0.015216669,-0.0061331174,9.5346741e-21,0.014736854,-1.9087553e-22,0.014975618
1.8254639,0.014920985,-0.0060246075,2.7711338e-21,0.014429495,-7.9820762e-23,0.014674247
1.8640662,0.01428206,-0.0057805605,2.8562974e-20,0.013771712,-3.4741026e-22,0.014026175
1.9014509,0.013647666,-0.0055288107,-3.1070299e-20,0.013124324,4.4994775e-22,0.013385534
1.9376564,0.013021506,-0.0052712395,-2.6077028e-20,0.012490359,1.2655034e-22,0.012755681
1.97272,0.012406265,-0.0050095045,5.3907446e-20,0.011871806,-8.1228628e-22,0.012138954
2.0066778,0.011803922,-0.0047450994,3.3174613e-20,0.011269982,-3.2615443e-22,0.011537013
2.0395648,0.011216022,-0.0044793145,1.5308967e-21,0.010685779,1.0859811e-22,0.010951074
2.0714147,0.010643644,-0.0042131712,-2.7722718e-20,0.010119707,3.6929652e-22,0.010381934
2.1022603,0.010087537,-0.003947497,-3.4043421e-20,0.0095720527,3.687035e-22,0.0098301221
2.1321334,0.0095483917,-0.0036830241,-2.9556376e-20,0.0090431067,2.1820019e-22,0.0092961317
2.1610646,0.0090268928,-0.0034204052,-1.4873556e-21,0.0085331927,-9.5297518e-23,0.0087804527
2.1890837,0.0085236025,-0.003160172,1.9227673e-20,0.0080426455,-2.0338246e-22,0.0082835509
2.2162195,0.0080390926,-0.0029027884,2.762783e-21,0.0075718422,-6.6928759e-23,0.0078059066
2.2424998,0.0075739894,-0.0026487208,1.229001e-20,0.0071212186,5.8157886e-23,0.0073480373
2.2679518,0.0071289004,-0.0023984131,-3.7509832e-20,0.0066912735,5.6122021e-22,0.0069105073
2.2926015,0.0067045054,-0.0021522925,-2.42899e-20,0.0062825688,-1.7444073e-23,0.0064939352
2.3164742,0.0063015092,-0.0019107807,5.0695226e-21,0.0058957163,-2.4018799e-22,0.006098986
2.3395945,0.0059206824,-0.0016743187,7.8611256e-21,0.0055313773,-7.1474128e-23,0.0057263768
2.3619861,0.0055628767,-0.0014433798,1.3675633e-20,0.005190265,-7.1763648e-23,0.0053768825
2.3836721,0.0052289804,-0.001218453,1.1311895e-21,0.0048731327,1.8963911e-23,0.0050513323
2.4046746,0.0049199542,-0.0010000234,6.1909992e-21,0.0045807764,-9.9878106e-23,0.0047506052
2.4250153,0.0046368216,-0.0007886045,1.5237921e-20,0.0043140351,7.786717e-23,0.004475628
2.4298497,0.0045739399,-0.00073856397,2.6147249e-21,0.0042550711,1.5129392e-22,0.0044146958
2.4447218,0.0043805287,-0.00058461464,-3.5333304e-20,0.0040736696,3.6885347e-22,0.0042272502
2.463809,0.0041520845,-0.00038857838,-1.7369238e-20,0.0038605394,-1.8930494e-22,0.00400642
2.4822943,0.0039523814,-0.0002009671,3.5413745e-20,0.0036753008,-2.91153e-22,0.0038139125
2.5001966,0.0037821361,-2.2138467e-05,-2.3075867e-21,0.003518423,3.0834166e-22,0.0036503219
2.5175344,0.0036418118,0.00014768598,-2.7363048e-20,0.0033901585,2.3480116e-22,0.0035160023
2.5343255,0.0035314782,0.00030842236,-1.4324969e-20,0.0032904234,-3.7613257e-23,0.0034109468
2.5505871,0.0034507057,0.00046015319,-1.0034882e-21,0.0032186921,-1.3189668e-22,0.003334676
2.5663361,0.0033984642,0.00060312118,1.1403465e-20,0.0031739193,-5.0678458e-23,0.0032861545
2.5815885,0.0033731194,0.00073770716,-3.5268654e-21,0.0031545282,2.2835284e-22,0.0032637733
2.5963601,0.0033723571,0.0008643535,-2.3748869e-20,0.0031583579,1.1112163e-22,0.0032652965
2.610666,0.0033937465,0.00098357759,-1.1294668e-22,0.0031831646,-2.1607248e-22,0.0032883908
2.624521,0.0034347873,0.0010959312,1.1712961e-20,0.0032266193,-2.1174956e-23,0.0033306348
2.6379393,0.003492444,0.0012019038,-5.5270837e-21,0.0032858836,1.0961551e-22,0.0033890904
2.6509346,0.0035636141,0.0013019826,-6.2704114e-22,0.0033580695,-2.5591003e-23,0.003460767
2.6635203,0.0036454309,0.0013965979,-4.1913586e-22,0.0034405085,7.8036338e-23,0.0035428954
2.6757094,0.0037352892,0.0014861057,-1.1014465e-20,0.0035307683,9.0715773e-23,0.0036329543
2.6875143,0.0038308722,0.0015708242,-5.7780294e-21,0.0036266857,-1.2627808e-22,0.0037287072
2.6989472,0.0039301719,0.0016510237,1.0753586e-20,0.0037263659,-1.2608003e-22,0.0038281989
2.7100198,0.0040314524,0.0017269319,4.4310775e-21,0.003828176,1.2454823e-22,0.003929748
2.7207435,0.0041332461,0.001798734,-8.8142167e-21,0.0039307247,4.3669984e-23,0.0040319212
2.7311293,0.0042343085,0.0018665905,3.82053e-21,0.0040328068,-1.936783e-22,0.004133504
2.7411879,0.0043335894,0.0019306198,1.3464478e-20,0.0041333531,-4.4706162e-23,0.0042334706
2.7509295,0.0044302553,0.0019923269,2.0205944e-21,0.0042317507,1.2792706e-22,0.0043309554
2.7603642,0.0045229849,0.0020500412,-3.4653036e-21,0.004327978,-1.9946372e-23,0.0044253245
2.7695016,0.0046105272,0.0020979052,6.0652017e-21,0.0044219957,-8.0484091e-23,0.0045161838
2.7783512,0.0046931126,0.0021384857,3.3977575e-21,0.004512847,3.2002256e-23,0.0046029842
2.7869219,0.0047709049,0.00217675,6.8549922e-22,0.0045988669,4.8590534e-23,0.0046848425
2.7952227,0.0048433047,0.0022123437,-2.6105657e-21,0.0046787551,5.0411767e-23,0.0047610221
2.8032619,0.0049104287,0.0022438561,-4.0610342e-21,0.0047522011,1.8343088e-23,0.0048313534
2.8110479,0.0049727499,0.002268171,-3.0669742e-21,0.0048197115,-4.3030868e-23,0.0048961937
2.8185886,0.0050304195,0.0022882873,1.7786931e-21,0.0048818248,-8.2225129e-23,0.0049560598
2.8258918,0.0050835662,0.0023077961,5.2313047e-21,0.004939113,4.9009493e-23,0.0050113148
2.832965,0.0051323987,0.0023254722,-5.3206059e-21,0.0049920734,1.4734481e-22,0.0050622172
2.8398154,0.0051771822,0.0023414907,-8.7488019e-21,0.0050409206,-1.1402987e-22,0.0051090339
2.8464499,0.0052182035,0.0023560483,9.6215285e-21,0.0050858976,-1.8522361e-22,0.0051520361
2.8528756,0.0052557511,0.002369336,7.8069869e-21,0.0051272659,1.5765289e-22,0.0051914967
2.8590988,0.0052901127,0.0023815027,-9.2392485e-21,0.0051652845,1.4089513e-22,0.0052276873
2.865126,0.0053215603,0.0023926997,-4.1408566e-21,0.0052002111,-6.2751854e-23,0.0052608765
2.8709634,0.0053503684,0.0024030979,-1.4758295e-21,0.0052323004,-5.8879964e-23,0.0052913277
2.876617,0.0053768028,0.0024128553,2.3101935e-21,0.0052618033,-3.4227215e-23,0.0053192973
2.8820925,0.0054011139,0.0024220962,1.2705904e-21,0.0052889644,-3.8283974e-23,0.0053450333
2.8873956,0.0054235375,0.0024309463,5.4449471e-21,0.005314021,-4.6735411e-24,0.0053687739
2.8925316,0.0054442976,0.0024395378,2.9465543e-22,0.0053372014,9.1126389e-23,0.0053907465
2.897506,0.0054636129,0.0024479727,-3.3635331e-21,0.0053587234,-7.6419966e-24,0.0054111664
2.9023236,0.0054816818,0.0024563415,1.8378852e-21,0.0053787934,-2.3114592e-23,0.0054302361
2.9069896,0.0054986854,0.0024647345,-1.5857644e-21,0.0053976059,6.4048114e-24,0.0054481448
2.9115086,0.0055147924,0.0024732261,1.5332363e-21,0.0054153432,-3.5184051e-23,0.0054650675
2.9158853,0.0055301549,0.0024818745,1.297884e-21,0.0054321747,1.8506756e-23,0.0054811649
2.9201242,0.0055449075,0.0024907254,-4.2019883e-22,0.0054482538,6.1514035e-23,0.0054965812
2.9242297,0.0055591682,0.0024998089,-3.7943753e-21,0.0054637173,3.2900728e-23,0.0055114438
2.9282058,0.0055730413,0.0025091445,-2.348864e-21,0.005478689,-1.056357e-22,0.0055258665
2.9320568,0.0055866148,0.002518739,5.3340887e-21,0.0054932773,-4.7328045e-23,0.0055399476
2.9357864,0.0055999573,0.0025285864,6.7847387e-22,0.0055075725,1.2956626e-22,0.0055537666
2.9393987,0.0056131203,0.0025386679,-5.1471496e-21,0.0055216481,2.0823515e-23,0.005567386
2.9428972,0.0056261386,0.0025489526,-1.6318274e-22,0.0055355596,-6.588495e-23,0.0055808511
2.9462856,0.0056390302,0.0025593969,1.8763293e-22,0.0055493446,-1.2964106e-23,0.0055941895
2.9495673,0.005651796,0.0025699444,7.35096e-22,0.0055630225,-2.8210333e-23,0.0056074114
2.9527456,0.00566442,0.0025805292,2.0090527e-21,0.005576594,2.0543637e-24,0.0056205093
2.9558239,0.0056768694,0.0025910751,2.4548073e-22,0.0055900419,4.7170545e-23,0.005633458
2.9588052,0.0056890954,0.0026014967,-1.341828e-21,0.0056033308,2.884392e-23,0.0056462154
2.9616927,0.0057010329,0.0026117,-1.4868924e-21,0.0056164076,-3.0430787e-23,0.0056587226
2.9644893,0.0057126019,0.0026215807,8.5343291e-22,0.0056292024,-2.8918882e-23,0.0056709047
2.9671978,0.0057237083,0.0026310137,3.8663513e-22,0.0056416352,2.4891367e-23,0.0056826721
2.9698211,0.0057342446,0.0026398667,-7.5123502e-22,0.0056536102,-1.5356477e-23,0.0056939221
2.9723618,0.0057441152,0.0026489205,1.2679627e-21,0.0056649622,-8.396295e-24,0.0057045415
2.9748224,0.0057532204,0.0026564032,-2.4931852e-22,0.0056755192,4.6063669e-23,0.0057143856
2.9772057,0.0057614198,0.002661044,-1.3875496e-21,0.005685095,7.1594373e-24,0.005723264
2.9795138,0.0057684204,0.0026646122,-5.0046519e-22,0.0056934194,-2.8651033e-23,0.0057309164
2.9817494,0.0057737867,0.0026674458,2.9056342e-22,0.0057001926,-1.724262e-23,0.0057369885
2.9839145,0.0057770636,0.0026693477,4.1507729e-22,0.0057050446,-3.3499015e-24,0.0057410551
2.9860115,0.0057777714,0.0026700982,3.7804424e-22,0.0057075128,-1.8453437e-24,0.0057426436
2.9880424,0.0057754056,0.0026694619,4.0144649e-22,0.0057070874,-5.1709472e-25,0.0057412481
2.9900094,0.0057694368,0.0026671904,3.1940572e-22,0.0057032295,1.2534106e-23,0.0057363348
2.9919145,0.0057593141,0.0026630247,-1.9264217e-22,0.0056953764,1.2624727e-23,0.0057273468
2.9937597,0.0057444671,0.0026566964,-2.5229642e-22,0.0056829441,-2.7319822e-23,0.0057137071
2.9955467,0.0057243053,0.0026479272,9.0363144e-22,0.0056653269,9.1526611e-24,0.0056948176
2.9972775,0.0056982162,0.0026364286,-5.4669172e-22,0.0056418959,4.3347033e-23,0.0056700574
2.9989538,0.0056655634,0.0026219007,-8.1277455e-22,0.0056119975,-1.9483385e-23,0.0056387818
3.0005773,0.0056256841,0.0026040314,2.2786339e-22,0.0055749509,-2.7037344e-23,0.0056003187
3.0021497,0.0055778855,0.0025824951,2.3405561e-22,0.005530045,-5.726253e-25,0.0055539664
3.0036726,0.0055214427,0.0025569513,1.9519622e-22,0.005476536,2.4244207e-23,0.0054989904
3.0051476,0.0054555955,0.0025270439,-5.2106528e-22,0.0054136448,1.8084066e-23,0.0054346212
3.0065761,0.0053795472,0.0024924013,-3.7118459e-22,0.0053405553,-2.1069521e-23,0.0053600522
3.0079597,0.0052924639,0.0024526364,1.6086049e-22,0.0052564146,-1.6611425e-23,0.0052744402
3.0092997,0.005193477,0.0024073495,1.3807388e-22,0.0051603354,2.504552e-24,0.005176907
3.0105976,0.0050816869,0.0023561322,6.7707858e-23,0.0050514006,5.7989522e-24,0.0050665444
3.0118546,0.0049561658,0.0022984,-3.2866688e-23,0.0049286673,-1.5464378e-24,0.0049424172
3.013072,0.0048159811,0.002233731,8.424637e-23,0.0047911857,2.7304087e-24,0.0048035841
3.0142511,0.0046602304,0.0021618591,-7.8388463e-23,0.0046380347,7.9107835e-24,0.0046491332
3.015393,0.0044880745,0.0020823633,-8.8248667e-23,0.0044683611,-4.2487531e-25,0.0044782183
3.0164991,0.0042987895,0.0019948869,-5.0372444e-23,0.0042814282,-8.9585762e-24,0.0042901093
3.0175703,0.0040918353,0.0018991676,8.4239053e-23,0.0040766853,-2.9503012e-24,0.0040842608
3.0186078,0.0038669426,0.0017950739,1.4229265e-23,0.0038538539,7.3038953e-24,0.0038603988
3.0196126,0.0036242145,0.0016826504,-4.4500773e-23,0.0036130305,-3.6390431e-24,0.0036186229
3.0205858,0.0033642127,0.0015621574,5.162546e-23,0.0033547742,-8.8534595e-24,0.0033594936
3.0215284,0.0030877743,0.0014306744,7.8273222e-23,0.0030799384,5.7333976e-24,0.0030838565
3.0224413,0.0027960855,0.0012823498,-2.7111078e-23,0.0027897348,5.5809748e-24,0.0027929102
3.0233255,0.0024917809,0.0011212038,-1.1068313e-23,0.0024867716,-1.2651133e-24,0.0024892765
3.0241818,0.0021796381,0.00095549829,-2.3360167e-24,0.0021757908,7.7570846e-25,0.0021777147
3.0250112,0.0018663346,0.00078953842,-1.1628755e-23,0.0018634694,-1.6296107e-24,0.0018649023
3.0258144,0.0015600901,0.00062945342,9.1539506e-24,0.0015580291,-9.4601182e-25,0.0015590598
3.0265924,0.0012699575,0.00048190473,8.9832458e-25,0.001268531,1.4336547e-24,0.0012692444
3.0273459,0.0010046693,0.00035290843,-3.6246519e-24,0.0010037229,1.2565639e-27,0.0010041962
3.0280757,0.00077127998,0.00024653801,3.743495e-25,0.00077067999,-4.7154145e-25,0.00077098004
3.0287825,0.00057403819,0.00016406252,5.4221672e-25,0.00057367556,-8.646967e-26,0.00057385691
3.0294671,0.00041390222,0.00010394054,4.1122447e-25,0.00041369378,5.9051144e-26,0.00041379801
3.0301301,0.00028883935,6.2634229e-05,-3.6904255e-26,0.00028872579,7.4370847e-26,0.00028878258
3.0307722,0.00019470117,3.57846e-05,-7.7244221e-26,0.00019464288,2.3203082e-26,0.00019467203
3.0313942,0.00012628378,1.9222642e-05,-6.1447269e-26,0.00012625591,-1.3479764e-26,0.00012626985
3.0319965,7.8240594e-05,9.5405829e-06,1.4635328e-26,7.8228442e-05,-3.3394143e-27,7.8234519e-05
3.0325799,4.5696925e-05,4.2377137e-06,-5.6083723e-27,4.5692262e-05,-3.908601e-28,4.5694594e-05
3.033145,2.4568817e-05,1.5983236e-06,2.3828922e-27,2.4567331e-05,-1.7314278e-27,2.4568074e-05
3.0336922,1.1650509e-05,4.7259048e-07,8.1745129e-28,1.1650149e-05,2.509851e-28,1.1650328e-05
3.0342222,4.5266258e-06,9.7496083e-08,-3.7973523e-29,4.5265676e-06,1.9867521e-29,4.5265967e-06
3.0347356,1.3648302e-06,1.2033903e-08,8.8376366e-30,1.3648251e-06,1.9017983e-30,1.3648276e-06
3.0352328,1.0641922e-06,1.1952868e-09,-3.8175385e-31,1.064192e-06,3.8876607e-31,1.0641921e-06
3.035714,7.4230879e-10,7.5891961e-13,-2.4251051e-34,7.4230863e-10,2.4689466e-34,7.423087e-10
