/*--------------------------------*- C++ -*----------------------------------*\
  =========                 |
  \\      /  F ield         | OpenFOAM: The Open Source CFD Toolbox
   \\    /   O peration     | Website:  https://openfoam.org
    \\  /    A nd           | Version:  7
     \\/     M anipulation  |
\*---------------------------------------------------------------------------*/
FoamFile
{
    version     2.0;
    format      ascii;
    class       volScalarField;
    location    "20000";
    object      k_0;
}
// * * * * * * * * * * * * * * * * * * * * * * * * * * * * * * * * * * * * * //

dimensions      [0 2 -2 0 0 0 0];

internalField   nonuniform List<scalar> 
14751
(
1.20546e-09
1.18686e-09
1.17946e-09
1.16911e-09
1.15945e-09
1.15012e-09
1.13937e-09
1.12868e-09
1.11738e-09
1.10591e-09
1.09414e-09
1.08234e-09
1.07044e-09
1.05857e-09
1.04701e-09
1.03557e-09
1.02477e-09
1.01418e-09
1.00419e-09
9.94686e-10
9.85949e-10
9.77881e-10
9.70507e-10
9.63826e-10
9.57977e-10
9.52805e-10
9.48265e-10
9.44376e-10
9.41076e-10
9.38452e-10
9.36524e-10
9.35246e-10
9.34591e-10
9.34553e-10
9.35159e-10
9.36326e-10
9.37938e-10
9.40164e-10
9.42891e-10
9.46099e-10
9.49714e-10
9.53824e-10
9.58467e-10
9.63586e-10
9.69164e-10
9.7502e-10
9.81012e-10
9.87047e-10
9.93212e-10
9.99657e-10
1.00637e-09
1.01333e-09
1.02055e-09
1.02797e-09
1.03556e-09
1.0433e-09
1.05115e-09
1.05911e-09
1.06714e-09
1.07528e-09
1.08356e-09
1.09191e-09
1.10025e-09
1.10846e-09
1.11647e-09
1.12436e-09
1.13214e-09
1.13975e-09
1.14715e-09
1.1544e-09
1.16149e-09
1.16841e-09
1.17515e-09
1.18169e-09
1.18803e-09
1.19416e-09
1.19996e-09
1.20541e-09
1.21073e-09
1.21564e-09
1.22037e-09
1.2246e-09
1.22853e-09
1.23203e-09
1.23509e-09
1.23776e-09
1.24017e-09
1.24207e-09
1.24352e-09
1.24441e-09
1.24497e-09
1.24473e-09
1.24373e-09
1.24206e-09
1.23827e-09
1.23395e-09
1.22622e-09
1.2152e-09
1.20287e-09
3.91202e-08
3.85349e-08
3.83211e-08
3.804e-08
3.77952e-08
3.75674e-08
3.72983e-08
3.70324e-08
3.67469e-08
3.64551e-08
3.6152e-08
3.58464e-08
3.55356e-08
3.52232e-08
3.49176e-08
3.46131e-08
3.43256e-08
3.40419e-08
3.37743e-08
3.35197e-08
3.32868e-08
3.3073e-08
3.2879e-08
3.27049e-08
3.25551e-08
3.2425e-08
3.23138e-08
3.22218e-08
3.21475e-08
3.20936e-08
3.20608e-08
3.20479e-08
3.20539e-08
3.20789e-08
3.2124e-08
3.21865e-08
3.22626e-08
3.23582e-08
3.24693e-08
3.25957e-08
3.27352e-08
3.28902e-08
3.30618e-08
3.32474e-08
3.3447e-08
3.36549e-08
3.38663e-08
3.40779e-08
3.42927e-08
3.45159e-08
3.47469e-08
3.49852e-08
3.5231e-08
3.54823e-08
3.57378e-08
3.5997e-08
3.62586e-08
3.6522e-08
3.67863e-08
3.70519e-08
3.73201e-08
3.75878e-08
3.78531e-08
3.81118e-08
3.83614e-08
3.86045e-08
3.88406e-08
3.90683e-08
3.92858e-08
3.94946e-08
3.96947e-08
3.98852e-08
4.00659e-08
4.02359e-08
4.03954e-08
4.05437e-08
4.06767e-08
4.07938e-08
4.09025e-08
4.09936e-08
4.10746e-08
4.11348e-08
4.11819e-08
4.1211e-08
4.12229e-08
4.12193e-08
4.12048e-08
4.11718e-08
4.11233e-08
4.10559e-08
4.09778e-08
4.08734e-08
4.07465e-08
4.06018e-08
4.03946e-08
4.01793e-08
3.98668e-08
3.94676e-08
3.90507e-08
2.85631e-07
2.8178e-07
2.80834e-07
2.79959e-07
2.79612e-07
2.79506e-07
2.79214e-07
2.7898e-07
2.78624e-07
2.78222e-07
2.77724e-07
2.77183e-07
2.76582e-07
2.75927e-07
2.75264e-07
2.74557e-07
2.73909e-07
2.73231e-07
2.72608e-07
2.72021e-07
2.71531e-07
2.71123e-07
2.70806e-07
2.70577e-07
2.70466e-07
2.70453e-07
2.70536e-07
2.70718e-07
2.70993e-07
2.7138e-07
2.71887e-07
2.72507e-07
2.73235e-07
2.74074e-07
2.75037e-07
2.76104e-07
2.7725e-07
2.78523e-07
2.7989e-07
2.81354e-07
2.82907e-07
2.8454e-07
2.86256e-07
2.88055e-07
2.89939e-07
2.91864e-07
2.93788e-07
2.95683e-07
2.97574e-07
2.99505e-07
3.01472e-07
3.03468e-07
3.05493e-07
3.0753e-07
3.09569e-07
3.11602e-07
3.13616e-07
3.15604e-07
3.17557e-07
3.19469e-07
3.21348e-07
3.23165e-07
3.24905e-07
3.26543e-07
3.28054e-07
3.29448e-07
3.30717e-07
3.31853e-07
3.32835e-07
3.3367e-07
3.34357e-07
3.34886e-07
3.35253e-07
3.35449e-07
3.35477e-07
3.35332e-07
3.34978e-07
3.34412e-07
3.33699e-07
3.32764e-07
3.31675e-07
3.30345e-07
3.28849e-07
3.27154e-07
3.25278e-07
3.23242e-07
3.21089e-07
3.18777e-07
3.16342e-07
3.13773e-07
3.11143e-07
3.08339e-07
3.05426e-07
3.02486e-07
2.99234e-07
2.96134e-07
2.92577e-07
2.88837e-07
2.85438e-07
1.00554e-06
9.94352e-07
9.93213e-07
9.93598e-07
9.96896e-07
1.0016e-06
1.0058e-06
1.0103e-06
1.01458e-06
1.01885e-06
1.02288e-06
1.02679e-06
1.03057e-06
1.03414e-06
1.03762e-06
1.04088e-06
1.0442e-06
1.04731e-06
1.05047e-06
1.0536e-06
1.05689e-06
1.0603e-06
1.06385e-06
1.06752e-06
1.0714e-06
1.07543e-06
1.07964e-06
1.08403e-06
1.08859e-06
1.09337e-06
1.09841e-06
1.10369e-06
1.10919e-06
1.11494e-06
1.12097e-06
1.12724e-06
1.13365e-06
1.1404e-06
1.14736e-06
1.1544e-06
1.16151e-06
1.1688e-06
1.17627e-06
1.18391e-06
1.19172e-06
1.19955e-06
1.20724e-06
1.21466e-06
1.2219e-06
1.22915e-06
1.2364e-06
1.2436e-06
1.25076e-06
1.25781e-06
1.26471e-06
1.27144e-06
1.27793e-06
1.28415e-06
1.29007e-06
1.29564e-06
1.30088e-06
1.30568e-06
1.30999e-06
1.31376e-06
1.31687e-06
1.31935e-06
1.32116e-06
1.32226e-06
1.3226e-06
1.32217e-06
1.32097e-06
1.31897e-06
1.31616e-06
1.3125e-06
1.30801e-06
1.30269e-06
1.2964e-06
1.28912e-06
1.28114e-06
1.27217e-06
1.2625e-06
1.2518e-06
1.24039e-06
1.22818e-06
1.21525e-06
1.20169e-06
1.18756e-06
1.1729e-06
1.15789e-06
1.14254e-06
1.12707e-06
1.11124e-06
1.09531e-06
1.0796e-06
1.06356e-06
1.0485e-06
1.03305e-06
1.0184e-06
1.00621e-06
2.19646e-06
2.17811e-06
2.17794e-06
2.18249e-06
2.19391e-06
2.20914e-06
2.22419e-06
2.24054e-06
2.25665e-06
2.27202e-06
2.28721e-06
2.30228e-06
2.31747e-06
2.33238e-06
2.34713e-06
2.36156e-06
2.37602e-06
2.39005e-06
2.40403e-06
2.41788e-06
2.43182e-06
2.44582e-06
2.45986e-06
2.47393e-06
2.4881e-06
2.50235e-06
2.51667e-06
2.53107e-06
2.54555e-06
2.56017e-06
2.57502e-06
2.59003e-06
2.60517e-06
2.62044e-06
2.63603e-06
2.65175e-06
2.66742e-06
2.68285e-06
2.69828e-06
2.71375e-06
2.72919e-06
2.7447e-06
2.76027e-06
2.77584e-06
2.7914e-06
2.80673e-06
2.82155e-06
2.83548e-06
2.84868e-06
2.86161e-06
2.87424e-06
2.88649e-06
2.89837e-06
2.90977e-06
2.92063e-06
2.93087e-06
2.94041e-06
2.9492e-06
2.95715e-06
2.96418e-06
2.9703e-06
2.97538e-06
2.97932e-06
2.98204e-06
2.9834e-06
2.98338e-06
2.98194e-06
2.97904e-06
2.97455e-06
2.9685e-06
2.96087e-06
2.95161e-06
2.94071e-06
2.92809e-06
2.91382e-06
2.89796e-06
2.88016e-06
2.86024e-06
2.83816e-06
2.81413e-06
2.78858e-06
2.76117e-06
2.73231e-06
2.70196e-06
2.6703e-06
2.63747e-06
2.60366e-06
2.56895e-06
2.53363e-06
2.49779e-06
2.46182e-06
2.42543e-06
2.38911e-06
2.35353e-06
2.31815e-06
2.28511e-06
2.25272e-06
2.2233e-06
2.20022e-06
3.45335e-06
3.43235e-06
3.43287e-06
3.44077e-06
3.45825e-06
3.48142e-06
3.50513e-06
3.53105e-06
3.55719e-06
3.58314e-06
3.60903e-06
3.63475e-06
3.65974e-06
3.68457e-06
3.70925e-06
3.73372e-06
3.75822e-06
3.78223e-06
3.8061e-06
3.82977e-06
3.85344e-06
3.87706e-06
3.90062e-06
3.92406e-06
3.94743e-06
3.97071e-06
3.99389e-06
4.01694e-06
4.03988e-06
4.06272e-06
4.08561e-06
4.10847e-06
4.13116e-06
4.1536e-06
4.17559e-06
4.19729e-06
4.21866e-06
4.2397e-06
4.26051e-06
4.28111e-06
4.30142e-06
4.32149e-06
4.34128e-06
4.36074e-06
4.37983e-06
4.39835e-06
4.41598e-06
4.4321e-06
4.44686e-06
4.46097e-06
4.47438e-06
4.48703e-06
4.49891e-06
4.50992e-06
4.52e-06
4.52907e-06
4.53707e-06
4.54392e-06
4.54955e-06
4.55388e-06
4.55692e-06
4.55855e-06
4.55869e-06
4.55729e-06
4.55421e-06
4.54943e-06
4.54293e-06
4.53467e-06
4.52455e-06
4.51259e-06
4.49878e-06
4.4831e-06
4.46557e-06
4.44597e-06
4.42383e-06
4.39915e-06
4.37221e-06
4.34293e-06
4.31142e-06
4.27772e-06
4.24218e-06
4.20452e-06
4.16512e-06
4.12397e-06
4.08127e-06
4.03719e-06
3.99193e-06
3.94559e-06
3.89851e-06
3.85082e-06
3.80291e-06
3.75455e-06
3.70635e-06
3.6591e-06
3.6125e-06
3.56886e-06
3.52684e-06
3.48922e-06
3.46077e-06
4.47397e-06
4.45438e-06
4.45561e-06
4.46546e-06
4.48569e-06
4.51227e-06
4.54021e-06
4.57087e-06
4.60228e-06
4.63399e-06
4.66592e-06
4.69794e-06
4.7297e-06
4.76139e-06
4.79292e-06
4.82392e-06
4.85453e-06
4.88471e-06
4.91467e-06
4.94442e-06
4.97411e-06
5.0037e-06
5.03312e-06
5.06234e-06
5.09134e-06
5.1201e-06
5.14858e-06
5.17675e-06
5.20456e-06
5.23198e-06
5.25889e-06
5.28529e-06
5.31122e-06
5.33659e-06
5.36136e-06
5.38559e-06
5.4092e-06
5.43224e-06
5.45472e-06
5.47665e-06
5.49797e-06
5.51866e-06
5.53869e-06
5.55799e-06
5.5765e-06
5.59408e-06
5.61053e-06
5.62574e-06
5.6398e-06
5.65289e-06
5.66496e-06
5.67596e-06
5.68587e-06
5.69463e-06
5.70216e-06
5.70844e-06
5.71338e-06
5.71696e-06
5.7191e-06
5.71975e-06
5.71892e-06
5.71655e-06
5.71256e-06
5.70694e-06
5.69958e-06
5.6905e-06
5.67967e-06
5.66707e-06
5.65265e-06
5.63641e-06
5.61837e-06
5.59853e-06
5.57629e-06
5.55154e-06
5.52449e-06
5.49521e-06
5.46382e-06
5.43028e-06
5.39471e-06
5.3571e-06
5.31772e-06
5.27636e-06
5.23334e-06
5.18865e-06
5.14248e-06
5.09498e-06
5.04633e-06
4.99663e-06
4.94619e-06
4.89515e-06
4.84385e-06
4.79214e-06
4.74059e-06
4.68998e-06
4.64026e-06
4.5936e-06
4.54931e-06
4.51108e-06
4.4832e-06
5.23835e-06
5.22106e-06
5.22259e-06
5.23315e-06
5.25385e-06
5.28111e-06
5.3104e-06
5.34277e-06
5.3764e-06
5.41076e-06
5.44569e-06
5.48102e-06
5.51645e-06
5.55202e-06
5.5876e-06
5.6228e-06
5.65774e-06
5.69213e-06
5.72621e-06
5.75992e-06
5.7935e-06
5.82688e-06
5.85999e-06
5.89275e-06
5.92514e-06
5.9571e-06
5.98859e-06
6.01955e-06
6.04993e-06
6.07965e-06
6.10867e-06
6.13696e-06
6.1645e-06
6.19124e-06
6.21715e-06
6.24224e-06
6.26644e-06
6.28977e-06
6.31222e-06
6.33379e-06
6.3544e-06
6.37403e-06
6.39264e-06
6.41014e-06
6.42649e-06
6.44157e-06
6.45525e-06
6.46751e-06
6.47843e-06
6.48811e-06
6.4965e-06
6.50358e-06
6.50934e-06
6.51374e-06
6.51674e-06
6.51833e-06
6.51847e-06
6.51715e-06
6.51433e-06
6.51e-06
6.50417e-06
6.49682e-06
6.48791e-06
6.47747e-06
6.46543e-06
6.45183e-06
6.43665e-06
6.4199e-06
6.40156e-06
6.38161e-06
6.36007e-06
6.33628e-06
6.31047e-06
6.28274e-06
6.25321e-06
6.22194e-06
6.189e-06
6.15437e-06
6.11816e-06
6.08035e-06
6.04114e-06
6.00039e-06
5.95833e-06
5.91498e-06
5.87048e-06
5.82495e-06
5.77851e-06
5.73127e-06
5.68346e-06
5.6352e-06
5.58674e-06
5.53798e-06
5.48938e-06
5.44162e-06
5.39475e-06
5.35067e-06
5.30914e-06
5.27363e-06
5.24792e-06
5.78824e-06
5.77476e-06
5.77769e-06
5.78964e-06
5.81096e-06
5.83872e-06
5.869e-06
5.90256e-06
5.93775e-06
5.97402e-06
6.01114e-06
6.04887e-06
6.08694e-06
6.12529e-06
6.1638e-06
6.20205e-06
6.24009e-06
6.27749e-06
6.31444e-06
6.3508e-06
6.3869e-06
6.42267e-06
6.458e-06
6.4928e-06
6.52703e-06
6.56061e-06
6.59348e-06
6.62556e-06
6.65679e-06
6.68711e-06
6.71645e-06
6.74479e-06
6.77208e-06
6.79828e-06
6.82335e-06
6.84729e-06
6.87003e-06
6.89157e-06
6.91191e-06
6.931e-06
6.9488e-06
6.96527e-06
6.98036e-06
6.99401e-06
7.00618e-06
7.01679e-06
7.0258e-06
7.03322e-06
7.03913e-06
7.04359e-06
7.04659e-06
7.04812e-06
7.04819e-06
7.0468e-06
7.04394e-06
7.03963e-06
7.03386e-06
7.02666e-06
7.01803e-06
7.008e-06
6.99659e-06
6.98383e-06
6.96971e-06
6.95428e-06
6.93752e-06
6.91947e-06
6.90015e-06
6.87956e-06
6.8577e-06
6.83452e-06
6.80964e-06
6.78318e-06
6.75534e-06
6.72622e-06
6.69589e-06
6.66443e-06
6.63188e-06
6.59825e-06
6.5636e-06
6.52792e-06
6.49136e-06
6.45382e-06
6.41547e-06
6.37634e-06
6.33653e-06
6.2961e-06
6.25512e-06
6.21369e-06
6.17197e-06
6.13001e-06
6.08799e-06
6.04581e-06
6.00379e-06
5.96247e-06
5.92194e-06
5.88378e-06
5.84805e-06
5.81782e-06
5.79627e-06
6.17898e-06
6.17055e-06
6.1762e-06
6.19059e-06
6.21346e-06
6.24242e-06
6.27417e-06
6.30919e-06
6.34604e-06
6.38411e-06
6.42316e-06
6.46289e-06
6.50301e-06
6.54342e-06
6.58399e-06
6.62433e-06
6.6644e-06
6.70372e-06
6.74244e-06
6.7803e-06
6.81768e-06
6.8545e-06
6.89066e-06
6.92605e-06
6.96061e-06
6.99424e-06
7.02687e-06
7.05842e-06
7.08881e-06
7.11799e-06
7.1459e-06
7.17248e-06
7.19771e-06
7.22153e-06
7.24392e-06
7.26486e-06
7.28429e-06
7.30221e-06
7.31859e-06
7.33342e-06
7.34665e-06
7.35825e-06
7.36818e-06
7.37642e-06
7.38294e-06
7.38773e-06
7.39078e-06
7.39216e-06
7.39193e-06
7.39013e-06
7.3868e-06
7.38194e-06
7.37561e-06
7.36782e-06
7.35861e-06
7.34802e-06
7.33609e-06
7.32286e-06
7.30838e-06
7.2927e-06
7.27588e-06
7.25797e-06
7.23899e-06
7.219e-06
7.19803e-06
7.17611e-06
7.15327e-06
7.12953e-06
7.10487e-06
7.0791e-06
7.05224e-06
7.02452e-06
6.99606e-06
6.96696e-06
6.93729e-06
6.90711e-06
6.87648e-06
6.84539e-06
6.81389e-06
6.78197e-06
6.7497e-06
6.71703e-06
6.68407e-06
6.65085e-06
6.61742e-06
6.58383e-06
6.55012e-06
6.51631e-06
6.48248e-06
6.44865e-06
6.41489e-06
6.3811e-06
6.34748e-06
6.31441e-06
6.282e-06
6.25151e-06
6.22322e-06
6.19972e-06
6.18372e-06
6.45856e-06
6.45593e-06
6.46527e-06
6.4829e-06
6.50801e-06
6.53875e-06
6.5723e-06
6.60894e-06
6.64739e-06
6.68703e-06
6.72759e-06
6.76878e-06
6.81031e-06
6.85195e-06
6.89358e-06
6.93478e-06
6.97561e-06
7.0156e-06
7.05482e-06
7.09288e-06
7.13016e-06
7.16662e-06
7.20213e-06
7.23658e-06
7.26989e-06
7.30197e-06
7.33273e-06
7.36209e-06
7.38999e-06
7.41636e-06
7.44115e-06
7.46432e-06
7.48583e-06
7.50564e-06
7.52374e-06
7.54009e-06
7.55467e-06
7.56747e-06
7.57847e-06
7.58767e-06
7.59503e-06
7.60056e-06
7.60424e-06
7.60608e-06
7.60609e-06
7.60429e-06
7.60074e-06
7.59551e-06
7.58866e-06
7.58025e-06
7.57034e-06
7.55898e-06
7.54623e-06
7.53216e-06
7.51683e-06
7.5003e-06
7.48265e-06
7.46394e-06
7.44425e-06
7.42365e-06
7.40223e-06
7.38006e-06
7.35718e-06
7.33367e-06
7.30955e-06
7.28488e-06
7.25968e-06
7.23397e-06
7.20772e-06
7.1809e-06
7.15373e-06
7.12635e-06
7.09886e-06
7.07132e-06
7.04381e-06
7.01638e-06
6.98909e-06
6.96194e-06
6.93493e-06
6.90806e-06
6.88133e-06
6.85472e-06
6.82826e-06
6.80198e-06
6.77592e-06
6.75007e-06
6.72444e-06
6.69901e-06
6.6738e-06
6.64878e-06
6.62395e-06
6.5992e-06
6.57462e-06
6.55049e-06
6.52688e-06
6.5048e-06
6.48461e-06
6.46845e-06
6.45875e-06
6.662e-06
6.6653e-06
6.67864e-06
6.69966e-06
6.7272e-06
6.76008e-06
6.79558e-06
6.83375e-06
6.87349e-06
6.91416e-06
6.95551e-06
6.99724e-06
7.03908e-06
7.08078e-06
7.12224e-06
7.16301e-06
7.20319e-06
7.24228e-06
7.2803e-06
7.31707e-06
7.35279e-06
7.38738e-06
7.4207e-06
7.45265e-06
7.48315e-06
7.51209e-06
7.53942e-06
7.56504e-06
7.58891e-06
7.61096e-06
7.63117e-06
7.64948e-06
7.66588e-06
7.68034e-06
7.69285e-06
7.7034e-06
7.71198e-06
7.71859e-06
7.72324e-06
7.72593e-06
7.72667e-06
7.72548e-06
7.72238e-06
7.71742e-06
7.71064e-06
7.70211e-06
7.6919e-06
7.68011e-06
7.66681e-06
7.65208e-06
7.636e-06
7.61865e-06
7.60013e-06
7.58052e-06
7.55992e-06
7.53841e-06
7.51608e-06
7.49303e-06
7.46934e-06
7.4451e-06
7.4204e-06
7.39535e-06
7.37e-06
7.34442e-06
7.31866e-06
7.29276e-06
7.26674e-06
7.24062e-06
7.21445e-06
7.1884e-06
7.16264e-06
7.13726e-06
7.11233e-06
7.08789e-06
7.06396e-06
7.04062e-06
7.0179e-06
6.99581e-06
6.97434e-06
6.95345e-06
6.93313e-06
6.91333e-06
6.89401e-06
6.87522e-06
6.85694e-06
6.83915e-06
6.82183e-06
6.80492e-06
6.7884e-06
6.77219e-06
6.75626e-06
6.74047e-06
6.72487e-06
6.70961e-06
6.69478e-06
6.68114e-06
6.66905e-06
6.6603e-06
6.65706e-06
6.81202e-06
6.82103e-06
6.83855e-06
6.86288e-06
6.89263e-06
6.92696e-06
6.96358e-06
7.0024e-06
7.04244e-06
7.08312e-06
7.12418e-06
7.16531e-06
7.20633e-06
7.24688e-06
7.28695e-06
7.32606e-06
7.36427e-06
7.40098e-06
7.43641e-06
7.47045e-06
7.50311e-06
7.53432e-06
7.56396e-06
7.59193e-06
7.61814e-06
7.64252e-06
7.66501e-06
7.68554e-06
7.70408e-06
7.72058e-06
7.73501e-06
7.74736e-06
7.75761e-06
7.76577e-06
7.77183e-06
7.77581e-06
7.77772e-06
7.77758e-06
7.77543e-06
7.77131e-06
7.76523e-06
7.75726e-06
7.74745e-06
7.73587e-06
7.72262e-06
7.70778e-06
7.69145e-06
7.67374e-06
7.65474e-06
7.63456e-06
7.61329e-06
7.59103e-06
7.5679e-06
7.54401e-06
7.51947e-06
7.4944e-06
7.46889e-06
7.44303e-06
7.41693e-06
7.39068e-06
7.36437e-06
7.3381e-06
7.31195e-06
7.286e-06
7.26029e-06
7.23485e-06
7.20972e-06
7.18494e-06
7.16067e-06
7.13709e-06
7.11431e-06
7.09241e-06
7.07141e-06
7.05133e-06
7.03216e-06
7.01394e-06
6.9967e-06
6.98044e-06
6.96513e-06
6.95073e-06
6.93719e-06
6.92446e-06
6.91247e-06
6.9012e-06
6.89066e-06
6.88078e-06
6.87152e-06
6.86279e-06
6.85455e-06
6.8467e-06
6.83916e-06
6.83181e-06
6.82462e-06
6.81772e-06
6.81113e-06
6.80543e-06
6.80099e-06
6.79919e-06
6.80203e-06
6.92308e-06
6.93705e-06
6.95784e-06
6.98453e-06
7.01561e-06
7.05053e-06
7.08732e-06
7.12578e-06
7.16509e-06
7.20468e-06
7.24434e-06
7.28373e-06
7.32276e-06
7.361e-06
7.39844e-06
7.43446e-06
7.46918e-06
7.50233e-06
7.53387e-06
7.56373e-06
7.59193e-06
7.61838e-06
7.64299e-06
7.66567e-06
7.68635e-06
7.70498e-06
7.72151e-06
7.7359e-06
7.74814e-06
7.7582e-06
7.76608e-06
7.77177e-06
7.7753e-06
7.77667e-06
7.77591e-06
7.77306e-06
7.76816e-06
7.76126e-06
7.75243e-06
7.74173e-06
7.72922e-06
7.71497e-06
7.69909e-06
7.68165e-06
7.66277e-06
7.64256e-06
7.62116e-06
7.59867e-06
7.57522e-06
7.55093e-06
7.52589e-06
7.50023e-06
7.47406e-06
7.4475e-06
7.42068e-06
7.39373e-06
7.36676e-06
7.33986e-06
7.31313e-06
7.28664e-06
7.26049e-06
7.23475e-06
7.20951e-06
7.18487e-06
7.16086e-06
7.13751e-06
7.11484e-06
7.09305e-06
7.07222e-06
7.05246e-06
7.03388e-06
7.01651e-06
7.00037e-06
6.98545e-06
6.97172e-06
6.95917e-06
6.94783e-06
6.93768e-06
6.92868e-06
6.92078e-06
6.91391e-06
6.90802e-06
6.90296e-06
6.89875e-06
6.89539e-06
6.89282e-06
6.89096e-06
6.88973e-06
6.88904e-06
6.8888e-06
6.8889e-06
6.88922e-06
6.88969e-06
6.89037e-06
6.89127e-06
6.89285e-06
6.89542e-06
6.90011e-06
6.90866e-06
7.00269e-06
7.02059e-06
7.04373e-06
7.0718e-06
7.10328e-06
7.13783e-06
7.17376e-06
7.21082e-06
7.24831e-06
7.28571e-06
7.32286e-06
7.35941e-06
7.39523e-06
7.42976e-06
7.46305e-06
7.49478e-06
7.52483e-06
7.553e-06
7.57931e-06
7.60372e-06
7.62624e-06
7.64678e-06
7.66526e-06
7.68164e-06
7.69586e-06
7.70789e-06
7.71771e-06
7.7253e-06
7.73068e-06
7.73385e-06
7.73484e-06
7.73367e-06
7.73037e-06
7.72499e-06
7.71757e-06
7.70817e-06
7.69687e-06
7.68374e-06
7.66887e-06
7.65236e-06
7.63431e-06
7.61481e-06
7.59396e-06
7.57189e-06
7.5487e-06
7.52453e-06
7.49951e-06
7.47377e-06
7.44747e-06
7.42071e-06
7.39362e-06
7.36631e-06
7.33888e-06
7.31146e-06
7.28417e-06
7.25713e-06
7.23046e-06
7.20426e-06
7.17861e-06
7.15357e-06
7.12922e-06
7.10561e-06
7.08282e-06
7.06093e-06
7.03998e-06
7.01999e-06
7.00107e-06
6.98337e-06
6.96694e-06
6.95183e-06
6.9381e-06
6.92578e-06
6.91485e-06
6.9053e-06
6.89707e-06
6.89004e-06
6.88434e-06
6.87995e-06
6.87683e-06
6.87492e-06
6.87416e-06
6.87449e-06
6.87581e-06
6.8781e-06
6.88133e-06
6.88541e-06
6.89026e-06
6.89578e-06
6.90187e-06
6.90843e-06
6.91535e-06
6.92249e-06
6.92976e-06
6.93716e-06
6.94466e-06
6.95258e-06
6.96119e-06
6.9714e-06
6.98471e-06
7.05542e-06
7.07624e-06
7.10079e-06
7.12924e-06
7.16015e-06
7.19332e-06
7.22736e-06
7.26195e-06
7.29657e-06
7.33071e-06
7.36418e-06
7.3965e-06
7.42763e-06
7.45725e-06
7.48521e-06
7.51126e-06
7.53535e-06
7.55738e-06
7.57738e-06
7.59534e-06
7.61122e-06
7.625e-06
7.63662e-06
7.64605e-06
7.65328e-06
7.65828e-06
7.66108e-06
7.66168e-06
7.66012e-06
7.65644e-06
7.6507e-06
7.64295e-06
7.63326e-06
7.62167e-06
7.60828e-06
7.59315e-06
7.57637e-06
7.55804e-06
7.53828e-06
7.5172e-06
7.49494e-06
7.4716e-06
7.44731e-06
7.42219e-06
7.39635e-06
7.36992e-06
7.34302e-06
7.31581e-06
7.28843e-06
7.261e-06
7.23365e-06
7.20647e-06
7.17957e-06
7.15305e-06
7.127e-06
7.10154e-06
7.07677e-06
7.05278e-06
7.02962e-06
7.00736e-06
6.98605e-06
6.96574e-06
6.94647e-06
6.9283e-06
6.91127e-06
6.89537e-06
6.88084e-06
6.86767e-06
6.85583e-06
6.84535e-06
6.83636e-06
6.82887e-06
6.82285e-06
6.81828e-06
6.81512e-06
6.8133e-06
6.81288e-06
6.81383e-06
6.81609e-06
6.81963e-06
6.82435e-06
6.8302e-06
6.83711e-06
6.84507e-06
6.854e-06
6.86383e-06
6.87447e-06
6.88582e-06
6.89777e-06
6.9102e-06
6.923e-06
6.93605e-06
6.9492e-06
6.96242e-06
6.97562e-06
6.989e-06
7.00275e-06
7.01759e-06
7.03477e-06
7.08417e-06
7.10693e-06
7.13194e-06
7.15978e-06
7.18915e-06
7.21995e-06
7.25108e-06
7.28219e-06
7.31278e-06
7.34231e-06
7.37068e-06
7.39758e-06
7.42284e-06
7.4462e-06
7.46761e-06
7.48692e-06
7.50411e-06
7.51918e-06
7.53213e-06
7.54297e-06
7.55167e-06
7.55824e-06
7.56268e-06
7.56497e-06
7.56513e-06
7.56318e-06
7.55914e-06
7.55307e-06
7.54502e-06
7.53506e-06
7.52327e-06
7.50975e-06
7.49458e-06
7.47784e-06
7.45963e-06
7.44003e-06
7.41915e-06
7.3971e-06
7.37399e-06
7.34996e-06
7.32515e-06
7.29968e-06
7.27368e-06
7.24727e-06
7.22056e-06
7.19368e-06
7.16673e-06
7.13984e-06
7.11314e-06
7.08676e-06
7.06078e-06
7.03531e-06
7.01043e-06
6.98621e-06
6.96275e-06
6.94013e-06
6.9184e-06
6.89764e-06
6.87789e-06
6.8592e-06
6.84158e-06
6.82503e-06
6.80953e-06
6.79523e-06
6.78219e-06
6.77042e-06
6.76013e-06
6.75126e-06
6.74381e-06
6.7378e-06
6.73332e-06
6.73034e-06
6.72885e-06
6.72881e-06
6.73019e-06
6.73295e-06
6.73712e-06
6.74268e-06
6.74956e-06
6.75773e-06
6.76712e-06
6.77768e-06
6.78934e-06
6.80209e-06
6.81585e-06
6.83054e-06
6.84607e-06
6.86234e-06
6.87923e-06
6.89663e-06
6.91441e-06
6.93246e-06
6.95062e-06
6.96878e-06
6.98685e-06
7.00485e-06
7.02292e-06
7.04155e-06
7.06173e-06
7.09084e-06
7.1146e-06
7.13915e-06
7.1654e-06
7.19231e-06
7.21978e-06
7.24689e-06
7.27321e-06
7.29846e-06
7.32222e-06
7.34434e-06
7.36457e-06
7.38283e-06
7.39898e-06
7.41304e-06
7.42496e-06
7.43476e-06
7.44245e-06
7.44805e-06
7.45156e-06
7.45301e-06
7.45243e-06
7.44985e-06
7.44532e-06
7.43886e-06
7.43053e-06
7.42039e-06
7.4085e-06
7.39493e-06
7.37977e-06
7.36313e-06
7.34512e-06
7.32585e-06
7.30541e-06
7.2839e-06
7.26144e-06
7.23812e-06
7.21407e-06
7.18939e-06
7.1642e-06
7.13864e-06
7.11283e-06
7.08687e-06
7.06089e-06
7.03498e-06
7.00924e-06
6.98379e-06
6.95872e-06
6.93413e-06
6.91011e-06
6.88672e-06
6.86405e-06
6.84215e-06
6.82107e-06
6.80082e-06
6.78142e-06
6.76304e-06
6.74573e-06
6.72952e-06
6.71444e-06
6.70049e-06
6.68769e-06
6.67603e-06
6.66563e-06
6.65648e-06
6.64876e-06
6.64246e-06
6.63757e-06
6.6341e-06
6.63209e-06
6.63157e-06
6.63252e-06
6.63493e-06
6.63877e-06
6.64402e-06
6.65066e-06
6.65869e-06
6.6681e-06
6.67882e-06
6.69083e-06
6.70405e-06
6.71848e-06
6.73404e-06
6.75072e-06
6.76842e-06
6.78709e-06
6.80661e-06
6.8269e-06
6.84784e-06
6.86931e-06
6.89119e-06
6.91337e-06
6.93567e-06
6.95795e-06
6.98006e-06
7.00189e-06
7.0235e-06
7.04512e-06
7.06747e-06
7.0768e-06
7.10066e-06
7.12389e-06
7.14764e-06
7.17104e-06
7.19397e-06
7.21584e-06
7.2363e-06
7.2551e-06
7.272e-06
7.28689e-06
7.29967e-06
7.31033e-06
7.31886e-06
7.32529e-06
7.32967e-06
7.33202e-06
7.33242e-06
7.33086e-06
7.32741e-06
7.32209e-06
7.31496e-06
7.30611e-06
7.2956e-06
7.28349e-06
7.26987e-06
7.2548e-06
7.23839e-06
7.22071e-06
7.20186e-06
7.18194e-06
7.16109e-06
7.13938e-06
7.11694e-06
7.09385e-06
7.07024e-06
7.04619e-06
7.02182e-06
6.99723e-06
6.97253e-06
6.94782e-06
6.92319e-06
6.89872e-06
6.87451e-06
6.85065e-06
6.82719e-06
6.8042e-06
6.78167e-06
6.75974e-06
6.73854e-06
6.71812e-06
6.69854e-06
6.67984e-06
6.66204e-06
6.64515e-06
6.62922e-06
6.61435e-06
6.6006e-06
6.58796e-06
6.57646e-06
6.5661e-06
6.55688e-06
6.54883e-06
6.54203e-06
6.53649e-06
6.53236e-06
6.5296e-06
6.52822e-06
6.52822e-06
6.52964e-06
6.53248e-06
6.53675e-06
6.54241e-06
6.54945e-06
6.55787e-06
6.56765e-06
6.57878e-06
6.59125e-06
6.60501e-06
6.62003e-06
6.63628e-06
6.65372e-06
6.67233e-06
6.69205e-06
6.71282e-06
6.73457e-06
6.75721e-06
6.78064e-06
6.80474e-06
6.82941e-06
6.85452e-06
6.87996e-06
6.90555e-06
6.93112e-06
6.95646e-06
6.98136e-06
7.00575e-06
7.02961e-06
7.05333e-06
7.04326e-06
7.06627e-06
7.0872e-06
7.10735e-06
7.12618e-06
7.14363e-06
7.1593e-06
7.17296e-06
7.18455e-06
7.19399e-06
7.20128e-06
7.20644e-06
7.20952e-06
7.21056e-06
7.20963e-06
7.20685e-06
7.20226e-06
7.19598e-06
7.18803e-06
7.1785e-06
7.16743e-06
7.15491e-06
7.14104e-06
7.12588e-06
7.10953e-06
7.09209e-06
7.07363e-06
7.05426e-06
7.03406e-06
7.01315e-06
6.99163e-06
6.96958e-06
6.94709e-06
6.92425e-06
6.90115e-06
6.87789e-06
6.85454e-06
6.83117e-06
6.80785e-06
6.78459e-06
6.76152e-06
6.73879e-06
6.71645e-06
6.69457e-06
6.67321e-06
6.65242e-06
6.63223e-06
6.61264e-06
6.59378e-06
6.57575e-06
6.55857e-06
6.54228e-06
6.52691e-06
6.51246e-06
6.49896e-06
6.48645e-06
6.47502e-06
6.46467e-06
6.45542e-06
6.44727e-06
6.44023e-06
6.43431e-06
6.42954e-06
6.42596e-06
6.42363e-06
6.42263e-06
6.42292e-06
6.42451e-06
6.42742e-06
6.43166e-06
6.43724e-06
6.44415e-06
6.45238e-06
6.46193e-06
6.47278e-06
6.48494e-06
6.49839e-06
6.51313e-06
6.52911e-06
6.54633e-06
6.56476e-06
6.58438e-06
6.60516e-06
6.62706e-06
6.65003e-06
6.67399e-06
6.69887e-06
6.72457e-06
6.75097e-06
6.77797e-06
6.80545e-06
6.8333e-06
6.86134e-06
6.88935e-06
6.91711e-06
6.9443e-06
6.97071e-06
6.99607e-06
7.02045e-06
6.991e-06
7.01227e-06
7.03002e-06
7.04572e-06
7.05917e-06
7.07041e-06
7.07933e-06
7.08586e-06
7.09012e-06
7.09217e-06
7.09213e-06
7.09008e-06
7.08614e-06
7.08039e-06
7.07295e-06
7.06394e-06
7.05345e-06
7.04161e-06
7.02848e-06
7.01416e-06
6.99872e-06
6.98228e-06
6.96489e-06
6.94664e-06
6.92762e-06
6.90792e-06
6.88762e-06
6.86681e-06
6.84557e-06
6.82395e-06
6.80196e-06
6.77979e-06
6.75753e-06
6.73524e-06
6.71302e-06
6.69091e-06
6.66898e-06
6.64728e-06
6.62584e-06
6.60467e-06
6.58392e-06
6.56367e-06
6.54398e-06
6.52487e-06
6.5064e-06
6.48859e-06
6.47146e-06
6.45503e-06
6.43941e-06
6.42464e-06
6.41075e-06
6.39776e-06
6.38568e-06
6.37452e-06
6.36431e-06
6.35509e-06
6.34689e-06
6.33972e-06
6.33359e-06
6.3285e-06
6.32446e-06
6.32148e-06
6.31959e-06
6.31879e-06
6.31922e-06
6.32084e-06
6.32364e-06
6.32765e-06
6.33286e-06
6.33929e-06
6.34695e-06
6.35583e-06
6.36593e-06
6.37726e-06
6.38981e-06
6.40358e-06
6.41857e-06
6.43478e-06
6.45219e-06
6.47079e-06
6.49056e-06
6.51152e-06
6.53362e-06
6.55685e-06
6.58116e-06
6.60648e-06
6.63274e-06
6.65985e-06
6.68769e-06
6.71617e-06
6.74517e-06
6.77458e-06
6.80422e-06
6.83384e-06
6.86316e-06
6.89181e-06
6.91946e-06
6.94557e-06
6.96978e-06
6.92134e-06
6.94011e-06
6.95401e-06
6.96473e-06
6.97243e-06
6.97732e-06
6.97957e-06
6.97927e-06
6.97671e-06
6.97206e-06
6.9655e-06
6.95716e-06
6.94721e-06
6.93579e-06
6.92304e-06
6.9091e-06
6.89405e-06
6.87805e-06
6.86115e-06
6.84345e-06
6.825e-06
6.8058e-06
6.78606e-06
6.76585e-06
6.74527e-06
6.72439e-06
6.70329e-06
6.68204e-06
6.66069e-06
6.63927e-06
6.6178e-06
6.59647e-06
6.57533e-06
6.55444e-06
6.53384e-06
6.51359e-06
6.49371e-06
6.47425e-06
6.45521e-06
6.43665e-06
6.41864e-06
6.40126e-06
6.38452e-06
6.36846e-06
6.35309e-06
6.33842e-06
6.32449e-06
6.31132e-06
6.29897e-06
6.28747e-06
6.27683e-06
6.26705e-06
6.25815e-06
6.25014e-06
6.24303e-06
6.23686e-06
6.23163e-06
6.22735e-06
6.22402e-06
6.22164e-06
6.22023e-06
6.21979e-06
6.22034e-06
6.22188e-06
6.22453e-06
6.22823e-06
6.23299e-06
6.23882e-06
6.24573e-06
6.25372e-06
6.2628e-06
6.27297e-06
6.28425e-06
6.29665e-06
6.31016e-06
6.3248e-06
6.34057e-06
6.35747e-06
6.37551e-06
6.39469e-06
6.41501e-06
6.43647e-06
6.45907e-06
6.48279e-06
6.50759e-06
6.53343e-06
6.56022e-06
6.5879e-06
6.61634e-06
6.64546e-06
6.67515e-06
6.70528e-06
6.73567e-06
6.76604e-06
6.79608e-06
6.82531e-06
6.85331e-06
6.87923e-06
6.90244e-06
6.83649e-06
6.85228e-06
6.86205e-06
6.86776e-06
6.8699e-06
6.86888e-06
6.86507e-06
6.85874e-06
6.85027e-06
6.83997e-06
6.82802e-06
6.81459e-06
6.79986e-06
6.78397e-06
6.76699e-06
6.74916e-06
6.73059e-06
6.71146e-06
6.69182e-06
6.67175e-06
6.6513e-06
6.63049e-06
6.60952e-06
6.58846e-06
6.56738e-06
6.54635e-06
6.52542e-06
6.50464e-06
6.48406e-06
6.46369e-06
6.44359e-06
6.42388e-06
6.40458e-06
6.38574e-06
6.36739e-06
6.34954e-06
6.33221e-06
6.31543e-06
6.29922e-06
6.28361e-06
6.26865e-06
6.25437e-06
6.24079e-06
6.22791e-06
6.21575e-06
6.20432e-06
6.19362e-06
6.18369e-06
6.17456e-06
6.16623e-06
6.1587e-06
6.15198e-06
6.14608e-06
6.14099e-06
6.13674e-06
6.13332e-06
6.13075e-06
6.12902e-06
6.12813e-06
6.12809e-06
6.12889e-06
6.13055e-06
6.13308e-06
6.13649e-06
6.14085e-06
6.1461e-06
6.15226e-06
6.15933e-06
6.16733e-06
6.17626e-06
6.18613e-06
6.19695e-06
6.20874e-06
6.22152e-06
6.23529e-06
6.25008e-06
6.26589e-06
6.28275e-06
6.30067e-06
6.31965e-06
6.33972e-06
6.36091e-06
6.38319e-06
6.40659e-06
6.43107e-06
6.45659e-06
6.4831e-06
6.51051e-06
6.53873e-06
6.56767e-06
6.59721e-06
6.62724e-06
6.65755e-06
6.68784e-06
6.71774e-06
6.74669e-06
6.77414e-06
6.79899e-06
6.82045e-06
6.73983e-06
6.75247e-06
6.75824e-06
6.75933e-06
6.75651e-06
6.75034e-06
6.74138e-06
6.72999e-06
6.71663e-06
6.70157e-06
6.68514e-06
6.66753e-06
6.64894e-06
6.62951e-06
6.60933e-06
6.58867e-06
6.56766e-06
6.54647e-06
6.52514e-06
6.50376e-06
6.48236e-06
6.46102e-06
6.43987e-06
6.41896e-06
6.39836e-06
6.3781e-06
6.35823e-06
6.33878e-06
6.31976e-06
6.30122e-06
6.28319e-06
6.26573e-06
6.24887e-06
6.23261e-06
6.21696e-06
6.20194e-06
6.18755e-06
6.17379e-06
6.16068e-06
6.14825e-06
6.13651e-06
6.12547e-06
6.11513e-06
6.10549e-06
6.09656e-06
6.08833e-06
6.08081e-06
6.07402e-06
6.06796e-06
6.06263e-06
6.05803e-06
6.05415e-06
6.051e-06
6.04857e-06
6.04687e-06
6.04589e-06
6.04564e-06
6.0461e-06
6.04728e-06
6.04917e-06
6.05178e-06
6.0551e-06
6.05914e-06
6.06396e-06
6.06952e-06
6.07581e-06
6.08284e-06
6.09061e-06
6.09913e-06
6.10842e-06
6.11849e-06
6.12935e-06
6.14102e-06
6.15354e-06
6.16692e-06
6.18118e-06
6.19635e-06
6.21246e-06
6.22954e-06
6.2476e-06
6.26669e-06
6.28683e-06
6.30803e-06
6.33033e-06
6.35369e-06
6.3781e-06
6.40351e-06
6.42986e-06
6.45704e-06
6.48499e-06
6.51358e-06
6.54269e-06
6.57212e-06
6.60153e-06
6.6305e-06
6.65839e-06
6.68454e-06
6.70777e-06
6.72695e-06
6.6353e-06
6.64484e-06
6.6469e-06
6.64388e-06
6.63671e-06
6.62613e-06
6.6128e-06
6.59716e-06
6.57973e-06
6.56087e-06
6.54092e-06
6.52011e-06
6.49864e-06
6.47668e-06
6.45438e-06
6.43198e-06
6.40962e-06
6.38745e-06
6.3655e-06
6.34387e-06
6.32258e-06
6.30172e-06
6.28135e-06
6.26152e-06
6.24227e-06
6.22362e-06
6.20558e-06
6.18819e-06
6.17144e-06
6.15536e-06
6.13996e-06
6.12527e-06
6.11129e-06
6.09801e-06
6.08543e-06
6.07354e-06
6.06234e-06
6.05182e-06
6.04198e-06
6.03284e-06
6.02438e-06
6.0166e-06
6.0095e-06
6.00306e-06
5.99728e-06
5.99216e-06
5.98769e-06
5.98387e-06
5.98069e-06
5.97815e-06
5.97624e-06
5.97495e-06
5.97427e-06
5.9742e-06
5.97473e-06
5.97586e-06
5.97757e-06
5.97987e-06
5.98274e-06
5.98618e-06
5.99019e-06
5.99477e-06
5.99991e-06
6.00567e-06
6.01197e-06
6.01882e-06
6.02623e-06
6.0342e-06
6.04273e-06
6.05185e-06
6.06158e-06
6.07192e-06
6.08292e-06
6.09459e-06
6.10697e-06
6.1201e-06
6.134e-06
6.14872e-06
6.16429e-06
6.18075e-06
6.19816e-06
6.21654e-06
6.23594e-06
6.25638e-06
6.27788e-06
6.30041e-06
6.32395e-06
6.34845e-06