/*--------------------------------*- C++ -*----------------------------------*\
| =========                 |                                                 |
| \\      /  F ield         | OpenFOAM: The Open Source CFD Toolbox           |
|  \\    /   O peration     | Version:  2.4.0                                 |
|   \\  /    A nd           | Web:      www.OpenFOAM.org                      |
|    \\/     M anipulation  |                                                 |
\*---------------------------------------------------------------------------*/
FoamFile
{
    version     2.0;
    format      ascii;
    class       volScalarField;
    location    "35000";
    object      omega;
}
// * * * * * * * * * * * * * * * * * * * * * * * * * * * * * * * * * * * * * //

dimensions      [0 0 -1 0 0 0 0];

internalField   nonuniform List<scalar> 
15600
(
30335.679
30205.715
5082.136
5061.7108
1657.7384
1652.5311
760.17824
759.58383
427.99245
430.15852
276.71836
281.47892
196.47419
203.60252
148.20874
157.04771
116.23644
125.89283
93.576127
103.01117
76.769341
85.117438
63.939803
70.780861
53.935295
59.248445
45.996216
50.006713
39.61981
42.606928
34.447657
36.662461
30.212273
31.854504
26.709584
27.93069
23.78236
24.697053
21.309296
22.006521
30220.383
30213.375
30294.082
30326.245
30349.181
30351.567
30335.694
30297.561
30267.62
30273.998
30269.646
30260.894
30253.131
30250.521
30237.293
30229.907
30226.299
30225.276
30232.959
30309.119
30512.82
30668.558
30675.779
30540.191
30340.23
30274.603
30399.012
5063.5467
5062.5931
5075.8632
5081.1603
5084.8576
5085.1239
5082.2921
5075.7943
5070.8898
5071.8496
5071.05
5069.4609
5068.1559
5067.5888
5065.3286
5064.1011
5063.4757
5063.3324
5064.6662
5077.6936
5111.5469
5137.4089
5138.0417
5116.2312
5086.8484
5079.1162
5097.098
1648.2418
1647.9237
1652.0597
1653.6573
1654.8304
1654.912
1654.0062
1651.9038
1650.334
1650.6237
1650.3369
1649.7822
1649.3258
1649.1063
1648.3251
1647.8954
1647.6254
1647.5835
1647.9661
1652.2716
1663.2186
1672.0322
1672.0592
1666.5508
1660.2556
1662.1969
1667.8572
747.12469
746.88657
748.52022
749.0911
749.62098
749.69426
749.35293
748.4485
747.76332
747.89147
747.74455
747.46931
747.22586
747.10487
746.69575
746.45889
746.25113
746.24132
746.3443
748.35551
753.29165
757.88204
757.80593
757.33609
758.7312
766.3297
769.02328
407.93435
407.65347
408.26816
408.40009
408.69334
408.78642
408.6937
408.26745
407.92728
408.00131
407.90775
407.73621
407.56441
407.47624
407.19221
407.01066
406.79909
406.79522
406.76753
407.90523
410.56598
413.6913
413.61321
415.56414
422.05889
434.06761
434.85646
250.3151
249.95414
250.03821
249.90991
250.08686
250.19821
250.24476
250.06224
249.8956
249.94991
249.88242
249.75624
249.61055
249.52915
249.29123
249.11445
248.87214
248.84432
248.71644
249.3939
250.93451
253.38433
253.33866
256.91583
268.57755
283.10459
281.11745
166.39596
165.9533
165.71894
165.40003
165.49852
165.61542
165.74628
165.70799
165.64618
165.6961
165.64581
165.54213
165.40524
165.31714
165.09536
164.89855
164.61
164.52435
164.28949
164.63252
165.47721
167.48343
167.4836
172.54954
189.762
204.16087
198.54211
117.29111
116.78953
116.35625
115.87568
115.90259
116.00787
116.18934
116.24481
116.25645
116.31138
116.27706
116.18733
116.05306
115.95057
115.73171
115.49706
115.14424
114.96233
114.594
114.63096
114.95478
116.59578
116.67048
123.45546
145.92555
157.66362
148.42808
86.459552
85.93975
85.391711
84.768604
84.718893
84.794574
85.001053
85.119766
85.187746
85.254795
85.238597
85.161359
85.028974
84.908305
84.686441
84.401021
83.966064
83.654542
83.13016
82.874572
82.786181
84.120666
84.334574
93.289895
119.68652
127.18479
115.16686
65.972019
65.482471
64.886336
64.142997
64.009932
64.039923
64.249682
64.409373
64.521926
64.605796
64.610463
64.547786
64.419308
64.279925
64.052876
63.709427
63.1801
62.72202
62.041654
61.541146
61.160883
62.276397
62.744094
74.411601
102.55727
105.35912
91.71178
51.689416
51.272328
50.680327
49.846543
49.628229
49.600048
49.794335
49.975568
50.121144
50.223062
50.249415
50.204059
50.0824
49.926553
49.694477
49.293282
48.670249
48.076003
47.277709
46.625778
46.107798
47.114437
47.994774
62.809491
90.328974
88.651652
74.503552
41.327084
41.005958
40.454178
39.565935
39.268028
39.174548
39.337572
39.521472
39.686146
39.802387
39.847795
39.820509
39.707899
39.540105
39.304817
38.855528
38.158432
37.470395
36.629269
35.947626
35.442373
36.442496
37.914719
55.940902
80.955005
75.258654
61.541995
33.577197
33.352669
32.860303
31.955011
31.590251
31.431313
31.550777
31.719417
31.886936
32.008917
32.066733
32.054806
31.951847
31.778394
31.542768
31.064725
30.332445
29.616781
28.821955
28.220209
27.827943
28.891466
31.130349
52.04414
73.313641
64.243202
51.595237
27.661804
27.517134
27.089035
26.19998
25.785981
25.568111
25.636631
25.775435
25.929819
26.046369
26.107384
26.105021
26.01074
25.839218
25.606283
25.126013
24.408129
23.734294
23.056848
22.599997
22.358276
23.522439
26.687027
49.901822
66.807245
55.046973
43.850635
23.089219
23.000502
22.632143
21.784503
21.340409
21.07533
21.091102
21.191414
21.320466
21.421363
21.476592
21.47691
21.38962
21.226325
21.002071
20.545977
19.888396
19.307666
18.781871
18.486516
18.390491
19.67616
23.910967
48.752117
61.106229
47.307145
37.745533
19.523798
19.468649
19.151248
18.360778
17.904117
17.606274
17.572132
17.63203
17.729466
17.808232
17.851355
17.8487
17.766919
17.616616
17.407758
16.996536
16.429516
15.965313
15.591531
15.442938
15.47131
16.899682
22.340917
47.995509
56.017212
40.768966
32.876218
16.721388
16.683199
16.407364
15.681415
15.226176
14.909305
14.832342
14.854467
14.919692
14.974333
15.002592
14.99378
14.916759
14.782482
14.594342
14.239808
13.774513
13.42651
13.185633
13.156406
13.288683
14.890237
21.607726
47.355454
51.412393
35.241683
28.946031
14.498685
14.467088
14.224646
13.564392
13.120483
12.795743
12.685399
12.674496
12.710811
12.742816
12.75636
12.740654
12.668345
12.551244
12.386866
12.092156
11.724844
11.479248
11.34611
11.407058
11.632163
13.448431
21.496897
46.62924
47.185126
30.574908
25.733848
12.717222
12.686724
12.471248
11.874016
11.447711
11.123331
10.988975
10.950668
10.962966
10.975674
10.976282
10.954582
10.887273
10.786872
10.647163
10.409189
10.128127
9.9666825
9.916652
10.044429
10.359885
12.444265
21.854719
45.662613
43.212988
26.644902
23.073728
11.272933
11.241155
11.047796
10.508873
10.103627
9.7852338
9.6346593
9.5751203
9.5680543
9.565326
9.5552963
9.5292755
9.4672612
9.3820333
9.266413
9.0787464
8.8698569
8.7750306
8.7870828
8.9651245
9.3763444
11.769357
22.6483
44.242543
39.473943
23.344722
20.840818
30203.085
30203.164
30203.322
30203.559
30203.875
30204.27
30204.744
30205.296
30205.928
30206.639
30207.429
30208.298
30209.247
30210.274
30211.38
30212.565
30213.829
30215.173
30216.596
30218.097
30219.678
30221.338
30223.077
30224.896
30226.793
30228.77
30230.826
30232.961
30235.176
30237.47
30277.104
5059.4913
5059.5004
5059.5313
5059.5728
5059.6312
5059.7028
5059.7902
5059.8916
5060.0083
5060.1395
5060.2858
5060.4467
5060.6226
5060.8132
5061.0184
5061.238
5061.4716
5061.7193
5061.9803
5062.2547
5062.5415
5062.8412
5063.152
5063.4783
5063.8305
5064.2009
5064.5827
5064.9979
5065.4121
5065.958
5072.9553
1646.0913
1646.0899
1646.1085
1646.1287
1646.1604
1646.1981
1646.2455
1646.3004
1646.3645
1646.4367
1646.5179
1646.6072
1646.7052
1646.8113
1646.9251
1647.046
1647.1732
1647.3062
1647.4435
1647.5848
1647.7276
1647.8727
1648.0156
1648.1608
1648.3082
1648.4619
1648.6038
1648.771
1648.9015
1649.1784
1651.505
745.06207
745.05624
745.0753
745.09525
745.1281
745.16807
745.21898
745.2789
745.3494
745.4297
745.52042
745.62082
745.73112
745.85082
745.97894
746.11453
746.25583
746.4021
746.55044
746.70029
746.84708
746.9916
747.12638
747.25629
747.374
747.49103
747.578
747.68673
747.72647
747.93856
748.94005
405.33942
405.32724
405.34649
405.36854
405.40651
405.45528
405.51804
405.5939
405.68373
405.78757
405.90557
406.0372
406.18241
406.34082
406.5109
406.69144
406.87979
407.07484
407.27244
407.47155
407.6657
407.85535
408.03018
408.19533
408.33613
408.46952
408.55736
408.66087
408.66779
408.86001
409.31772
246.84599
246.82309
246.83814
246.859
246.89873
246.95398
247.02635
247.11682
247.22494
247.35215
247.49781
247.66193
247.84412
248.04443
248.26088
248.49223
248.73515
248.98838
249.24687
249.50916
249.76746
250.02173
250.25959
250.4859
250.68006
250.86159
250.98728
251.12223
251.14157
251.34728
251.56379
161.87769
161.84048
161.84622
161.86094
161.8964
161.95183
162.02662
162.12405
162.24197
162.38356
162.54721
162.73377
162.94253
163.17421
163.42667
163.69898
163.98754
164.29124
164.60478
164.92666
165.24858
165.57017
165.87818
166.17699
166.44305
166.6958
166.89013
167.09141
167.16986
167.43132
167.58902
111.73057
111.67842
111.67186
111.67651
111.70221
111.75076
111.81933
111.91333
112.02893
112.17103
112.33704
112.52883
112.74549
112.98849
113.25589
113.5474
113.85965
114.19216
114.54011
114.90247
115.27148
115.64701
116.01623
116.38354
116.72495
117.05894
117.34113
117.63631
117.81542
118.17876
118.41851
80.08415
80.0216
80.004128
79.998504
80.012563
80.049736
80.105835
80.187493
80.289708
80.418553
80.570633
80.748921
80.952311
81.182912
81.439266
81.721872
82.02804
82.358223
82.70872
83.079468
83.464193
83.863666
84.26685
84.678924
85.078015
85.481924
85.849393
86.245986
86.547879
87.045678
87.473566
59.208365
59.144019
59.121123
59.108926
59.113844
59.139488
59.181539
59.246601
59.329345
59.436109
59.563062
59.714105
59.887793
60.086657
60.309722
60.558123
60.830079
61.126913
61.446317
61.789337
62.151736
62.535517
62.932506
63.34911
63.767826
64.206565
64.629493
65.10483
65.517462
66.151466
66.819956
45.050311
44.992512
44.970468
44.956815
44.957085
44.974175
45.004382
45.053428
45.116358
45.198993
45.297393
45.416095
45.553118
45.711205
45.889603
46.089765
46.31069
46.554211
46.819214
47.107542
47.416903
47.750302
48.102688
48.481483
48.874631
49.300615
49.730645
50.236184
50.713481
51.44592
52.338232
35.256361
35.209608
35.19237
35.180907
35.180193
35.192182
35.213973
35.250139
35.296442
35.357789
35.430376
35.519016
35.621161
35.739605
35.873539
36.024424
36.19175
36.377427
36.581079
36.804827
37.047741
37.313231
37.598767
37.912028
38.245905
38.619066
39.009865
39.491434
39.972431
40.738117
41.776233
28.346217
28.311025
28.29971
28.291846
28.292005
28.30132
28.3176
28.344373
28.378147
28.422885
28.475049
28.539416
28.613031
28.698617
28.795176
28.904007
29.024824
29.159344
29.307501
29.4713
29.650511
29.848401
30.06399
30.304453
30.566154
30.866962
31.191034
31.610153
32.044464
32.777088
33.855996
23.357588
23.332322
23.326354
23.32204
23.32359
23.331584
23.344318
23.364527
23.389359
23.421965
23.459128
23.505377
23.557578
23.618302
23.68636
23.76284
23.847526
23.941847
24.045797
24.161083
24.287723
24.428555
24.583331
24.758309
24.951808
25.180075
25.431172
25.772606
26.134184
26.7878
27.815359
19.663871
19.646342
19.644587
19.643199
19.646056
19.65338
19.663802
19.679481
19.698067
19.722077
19.748618
19.781864
19.818688
19.86147
19.908889
19.961834
20.020096
20.084823
20.155965
20.23491
20.321688
20.418659
20.525803
20.648407
20.785649
20.951869
21.137413
21.40366
21.688718
22.243276
23.162698
16.858204
16.846449
16.84779
16.848627
16.852531
16.859478
16.868356
16.880898
16.895143
16.913123
16.932252
16.95631
16.982307
17.012412
17.045241
17.081519
17.121022
17.164668
17.212337
17.265144
17.32304
17.38797
17.459894
17.543262
17.637488
17.755106
17.887727
18.089871
18.307527
18.762499
19.552739
14.675074
14.667562
14.6711
14.673567
14.678253
14.684959
14.692781
14.703129
14.714347
14.728097
14.74207
14.759658
14.77808
14.79929
14.821896
14.846496
14.87285
14.901699
14.932857
14.967228
15.004668
15.046798
15.09346
15.148449
15.211117
15.292459
15.384836
15.535929
15.699421
16.065436
16.729346
12.938842
12.934445
12.939516
12.943164
12.948405
12.954947
12.962033
12.970833
12.979927
12.990697
13.00108
13.014101
13.027224
13.042192
13.057648
13.074089
13.091264
13.109783
13.129409
13.15089
13.173994
13.200103
13.22892
13.263752
13.303773
13.358724
13.421511
13.533356
13.655399
13.947183
14.499315
11.531081
11.52899
11.535119
11.539619
11.545252
11.551677
11.558245
11.565943
11.573543
11.582202
11.590084
11.599867
11.60928
11.619859
11.63031
11.64105
11.651825
11.663145
11.674738
11.687241
11.70035
11.715273
11.731584
11.752232
11.776188
11.812189
11.853632
11.935792
12.026977
12.259094
12.717571
10.370199
10.369833
10.376691
10.38181
10.387719
10.39406
10.400266
10.407176
10.413725
10.420886
10.427028
10.43451
10.441325
10.448813
10.45576
10.46252
10.468837
10.475149
10.481161
10.487427
10.493594
10.500741
10.508335
10.519058
10.531702
10.554185
10.580415
10.640236
10.708808
10.89393
11.276141
30202.925
30202.925
30202.925
30202.925
30202.925
30202.925
30202.925
30202.925
30202.925
30202.925
30202.925
30202.925
30202.925
30202.925
30202.925
30202.925
30202.925
30202.925
30202.925
30202.925
30202.925
30202.925
30202.925
30202.925
30202.925
30202.925
30202.925
30202.925
30202.925
30202.925
30202.925
30202.925
30202.925
30202.925
30202.925
30202.925
30202.925
30202.925
30202.925
30202.925
30202.925
30202.925
30202.925
30202.925
30202.925
30202.925
30202.925
30202.925
30202.925
30202.925
30202.925
30202.925
30202.925
30202.925
30202.925
30202.925
30202.925
30202.925
30202.925
30202.925
5062.8054
5061.5914
5062.1144
5062.1256
5061.9504
5062.0071
5061.9232
5061.9407
5061.9083
5061.8993
5061.8765
5061.8558
5061.83
5061.8036
5061.7752
5061.7454
5061.7143
5061.6833
5061.6513
5061.619
5061.5861
5061.5537
5061.5204
5061.4868
5061.4546
5061.422
5061.3915
5061.3608
5061.3268
5061.2985
5061.264
5061.2318
5061.2015
5061.1717
5061.1429
5061.1147
5061.0873
5061.0603
5061.0339
5061.0081
5060.9829
5060.9582
5060.9342
5060.9108
5060.8882
5060.8661
5060.8449
5060.8242
5060.8045
5060.7852
5060.767
5060.7492
5060.7328
5060.716
5060.702
5060.6853
5060.6755
5060.6577
5060.6511
5060.6623
1654.5829
1652.7072
1653.48
1653.4224
1653.2655
1653.2906
1653.1985
1653.1849
1653.1281
1653.0859
1653.0278
1652.9666
1652.8973
1652.824
1652.7464
1652.665
1652.5808
1652.4952
1652.4075
1652.3185
1652.2283
1652.1382
1652.0468
1651.9551
1651.8651
1651.7746
1651.687
1651.5981
1651.507
1651.4215
1651.33
1651.2423
1651.1577
1651.0748
1650.9939
1650.9148
1650.8373
1650.7613
1650.687
1650.6142
1650.5433
1650.474
1650.4066
1650.3411
1650.2777
1650.2162
1650.157
1650.0996
1650.0447
1649.9915
1649.9411
1649.8921
1649.8466
1649.8014
1649.7618
1649.7189
1649.6879
1649.6445
1649.623
1649.6079
760.43957
758.80905
759.23581
759.48963
759.18402
759.27448
759.13455
759.1169
759.02782
758.95796
758.8607
758.75676
758.63768
758.51026
758.37378
758.2297
758.07964
757.92545
757.76682
757.60481
757.4401
757.274
757.10546
756.93584
756.76774
756.59867
756.43276
756.26474
756.09427
755.92982
755.75902
755.59295
755.43145
755.2728
755.11753
754.96499
754.8153
754.66824
754.52404
754.38268
754.24445
754.10927
753.97763
753.84941
753.72505
753.60418
753.48747
753.3743
753.26565
753.16044
753.06027
752.96316
752.87213
752.78277
752.70207
752.61871
752.55188
752.4706
752.41915
752.3707
428.14345
427.67234
427.23327
428.05367
427.52875
427.75305
427.56044
427.56348
427.45108
427.36809
427.24232
427.10783
426.94932
426.77765
426.59105
426.39233
426.18319
425.96634
425.74189
425.51121
425.27534
425.03584
424.79213
424.54563
424.29955
424.05177
423.80621
423.55836
423.30679
423.06099
422.80894
422.56075
422.31847
422.07952
421.8449
421.61372
421.38625
421.16223
420.94203
420.72564
420.51351
420.3056
420.10261
419.90448
419.71176
419.52404
419.34222
419.16559
418.99541
418.83041
418.67261
418.51969
418.37518
418.23421
418.10435
417.97381
417.86219
417.73846
417.64584
417.56084
276.41634
277.44907
276.0463
277.43528
276.73167
277.10063
276.8788
276.9168
276.79902
276.72062
276.58575
276.44102
276.26424
276.07026
275.85578
275.6251
275.37949
275.12261
274.85494
274.57812
274.29336
274.00245
273.70536
273.4033
273.09993
272.79393
272.48844
272.18108
271.868
271.55995
271.24592
270.93338
270.6272
270.3241
270.02561
269.73068
269.43974
269.15256
268.86954
268.59078
268.31679
268.04762
267.78412
267.52638
267.2749
267.0294
266.79079
266.55856
266.33395
266.11592
265.90636
265.70332
265.50997
265.32219
265.14648
264.97304
264.81807
264.65688
264.52142
264.40567
196.64764
198.86036
196.82621
198.56338
197.80397
198.27218
198.0589
198.13242
198.0283
197.96784
197.84372
197.70788
197.53503
197.34238
197.12516
196.88892
196.63417
196.36541
196.08336
195.78997
195.48626
195.17426
194.85444
194.52757
194.19764
193.86421
193.52947
193.19373
192.85025
192.51092
192.16589
191.8193
191.47862
191.14019
190.80601
190.47505
190.14785
189.82424
189.50461
189.18916
188.87834
188.57237
188.27207
187.97781
187.68979
187.40809
187.13333
186.86554
186.60545
186.35282
186.1087
185.87233
185.64551
185.42609
185.218
185.01539
184.82835
184.64263
184.47286
184.33939
149.66135
152.49576
150.27146
152.08897
151.39702
151.90604
151.73558
151.8392
151.76345
151.7287
151.63094
151.51716
151.3652
151.192
150.99193
150.7713
150.52984
150.27254
150.00036
149.71567
149.4189
149.11233
148.79678
148.47259
148.14387
147.81094
147.47523
147.13952
146.79455
146.45295
146.10592
145.75449
145.40785
145.0624
144.72043
144.38113
144.04504
143.71214
143.38271
143.0571
142.73558
142.41855
142.10669
141.80074
141.50037
141.20618
140.91823
140.63734
140.36338
140.09726
139.83871
139.58864
139.34688
139.11392
138.8903
138.67496
138.47104
138.27565
138.08521
137.94783
119.16587
122.11113
120.04539
121.75012
121.20018
121.70775
121.60092
121.73165
121.69361
121.68995
121.6274
121.54417
121.42395
121.28151
121.11126
120.9197
120.706
120.47526
120.22868
119.96919
119.69647
119.41288
119.11946
118.81624
118.50731
118.19349
117.8758
117.55882
117.23177
116.90733
116.57769
116.24149
115.90856
115.57571
115.24535
114.91697
114.59112
114.26795
113.9476
113.63055
113.31689
113.00716
112.70191
112.40219
112.10714
111.81779
111.53369
111.25635
110.9848
110.721
110.46342
110.21455
109.97228
109.7396
109.5139
109.29842
109.09018
108.89605
108.69727
108.56465
97.747534
100.50993
98.754945
100.27153
99.878072
100.36835
100.32994
100.49006
100.49383
100.52534
100.49873
100.45151
100.36829
100.26169
100.12709
99.970722
99.791531
99.594305
99.381126
99.155774
98.916439
98.665491
98.403913
98.13165
97.85265
97.568015
97.278613
96.990109
96.691293
96.394203
96.092085
95.781977
95.473447
95.163868
94.855659
94.548611
94.243316
93.940054
93.638904
93.340424
93.044592
92.751967
92.46312
92.17928
91.899193
91.624119
91.353261
91.088539
90.828476
90.575666
90.327763
90.088248
89.853755
89.628909
89.408976
89.200158
88.99516
88.807793
88.608836
88.483473
81.79381
84.19625
82.839925
84.130986
83.893005
84.352264
84.381899
84.575901
84.622873
84.693736
84.704227
84.696946
84.65566
84.589573
84.496054
84.380589
84.242228
84.08507
83.910876
83.722543
83.519638
83.304423
83.077902
82.839895
82.594178
82.341999
82.08423
81.827032
81.559633
81.29294
81.02133
80.74085
80.460293
80.177556
79.895015
79.612731
79.331351
79.05126
78.77255
78.4958
78.220964
77.948554
77.679756
77.415832
77.154834
76.89801
76.644469
76.39621
76.151614
75.913436
75.67908
75.452332
75.229375
75.015484
74.804958
74.605509
74.407416
74.228575
74.033936
73.914752
69.376661
71.356987
70.37728
71.454962
71.346556
71.77487
71.864109
72.096201
72.183591
72.291565
72.341367
72.374406
72.37277
72.349748
72.298469
72.22521
72.129378
72.014065
71.881417
71.733435
71.570568
71.394629
71.206873
71.006932
70.798319
70.582351
70.359991
70.137401
69.90483
69.67188
69.433909
69.186614
68.937685
68.685442
68.432176
68.17815
67.924074
67.6704
67.417294
67.16531
66.914464
66.665202
66.418108
66.174474
65.933023
65.694861
65.459178
65.227816
64.999294
64.776185
64.556052
64.342496
64.131825
63.92927
63.728982
63.539175
63.348983
63.178436
62.98989
62.874466
59.411349
61.001179
60.32998
61.226168
61.215505
61.620946
61.757878
62.023267
62.148065
62.289763
62.37731
62.448313
62.486256
62.502163
62.492425
62.460636
62.406521
62.332309
62.240898
62.132977
62.010103
61.873308
61.724319
61.562533
61.39117
61.211644
61.02485
60.836807
60.638962
60.439659
60.235086
60.020989
59.803885
59.582384
59.358685
59.13319
58.906651
58.67956
58.452196
58.225062
57.998288
57.772243
57.547415
57.324976
57.10403
56.885422
56.668579
56.454985
56.24354
56.036332
55.831448
55.631877
55.434562
55.244071
55.05514
54.875581
54.694566
54.53246
54.351809
54.239164
51.249187
52.512509
52.073979
52.820201
52.877532
53.273846
53.443915
53.731008
53.889838
54.060763
54.182292
54.287378
54.361526
54.414174
54.442422
54.448105
54.434299
54.398878
54.346871
54.277188
54.1928
54.093579
53.982008
53.857021
53.721755
53.577562
53.425268
53.270667
53.106279
52.939456
52.766987
52.584939
52.398701
52.207073
52.012167
51.814471
51.614735
51.413477
51.211106
51.008057
50.804605
50.601045
50.39783
50.195948
49.9949
49.795248
49.596736
49.400403
49.205632
49.013906
48.823983
48.638071
48.453955
48.275291
48.097693
47.928203
47.756524
47.602562
47.430289
47.319703
44.465845
45.471097
45.199026
45.824105
45.925232
46.316536
46.508736
46.807873
46.994557
47.189272
47.339645
47.473998
47.579858
47.665129
47.727378
47.768175
47.789586
47.789472
47.774826
47.740635
47.692391
47.628349
47.552109
47.461792
47.360812
47.250085
47.130651
47.007813
46.875115
46.739143
46.597029
46.445368
46.288503
46.125378
45.958027
45.786979
45.61292
45.436405
45.257955
45.077937
44.896783
44.714726
44.532221
44.350045
44.168057
43.98657
43.805656
43.625908
43.4472
43.270395
43.094948
42.922265
42.751002
42.583866
42.41739
42.257794
42.095401
41.949453
41.785645
41.677126
38.766366
39.574275
39.417023
39.944905
40.071594
40.455405
40.661425
40.96451
41.171651
41.384139
41.557477
41.715733
41.848177
41.961348
42.053046
42.124691
42.177444
42.210216
42.227463
42.225831
42.211377
42.179637
42.136245
42.07804
42.009167
41.929681
41.841166
41.748101
41.645137
41.538149
41.424499
41.301372
41.172158
41.035966
40.894753
40.74906
40.59942
40.44646
40.290784
40.132693
39.972779
39.811223
39.648488
39.485151
39.321366
39.157251
38.993189
38.829356
38.666081
38.503655
38.342178
38.182328
38.023547
37.867689
37.712095
37.562295
37.409082
37.271204
37.115745
37.009855
33.937009
34.596911
34.516323
34.965879
35.105054
35.4762
35.689024
35.98927
36.209281
36.433338
36.623508
36.800078
36.953698
37.08974
37.206046
37.303976
37.383849
37.445355
37.491108
37.519265
37.533732
37.531607
37.518629
37.489711
37.45055
37.399859
37.340132
37.274694
37.199402
37.119402
37.032274
36.935748
36.832376
36.721481
36.604933
36.483269
36.356754
36.226163
36.092123
35.954884
35.815201
35.6732
35.529338
35.38403
35.23765
35.090185
34.942285
34.793768
34.645346
34.496822
34.348857
34.201511
34.054878
33.910112
33.765186
33.625154
33.48102
33.351398
33.204061
33.101739
29.817622
30.36845
30.3365
30.722401
30.865015
31.217801
31.43122
31.722979
31.948727
32.178338
32.379338
32.568673
32.738036
32.891836
33.02782
33.147359
33.249964
33.335924
33.406369
33.460544
33.500863
33.525506
33.538784
33.536385
33.524699
33.500187
33.466974
33.426879
33.377112
33.322047
33.259446
33.187555
33.108194
33.020917
32.927585
32.828631
32.72394
32.614563
32.501056
32.383649
32.263261
32.139942
32.01412
31.886099
31.756395
31.624943
31.492591
31.358863
31.22478
31.089748
30.954893
30.819782
30.68501
30.551198
30.416765
30.286513
30.15138
30.030266
29.890764
29.793196
26.285
26.757363
26.752988
27.087038
27.226896
27.556032
27.764642
28.043335
28.26854
28.498206
28.704476
28.901283
29.08114
29.247681
29.398483
29.534975
29.655882
29.761985
29.853166
29.929519
29.992199
30.040173
30.076917
30.098156
30.110183
30.109519
30.100519
30.083321
30.056841
30.024577
29.984446
29.935219
29.87801
29.812665
29.741149
29.663558
29.579407
29.49013
29.396083
29.297544
29.195588
29.090148
28.981584
28.870172
28.756484
28.640485
28.52314
28.403746
28.283543
28.161652
28.039566
27.916472
27.793319
27.670354
27.546284
27.425839
27.299669
27.187322
27.055343
26.963898
23.245999
23.655736
23.666606
23.959784
24.092304
24.393108
24.592551
24.854672
25.074127
25.299132
25.505788
25.705199
25.890645
26.065162
26.226125
26.375057
26.509891
26.63188
26.739789
26.834464
26.915889
26.983711
27.040668
27.082286
27.115354
27.136311
27.147279
27.151163
27.14562
27.133912
27.114112
27.085552
27.048608
27.003549
26.952486
26.894877
26.829965
26.759691
26.684059
26.603471
26.519146
26.430829
26.338781
26.243351
26.145068
26.044033
25.941211
25.835747
25.729015
25.619962
25.510352
25.399093
25.287356
25.175149
25.061352
24.950737
24.833538
24.730175
24.60544
24.521634
21.876474
19.287699
17.090791
15.197655
13.542194
12.076454
10.764364
9.579791
8.5017601
7.5184561
6.6227725
5.8111346
5.0800198
4.4279184
3.8534407
3.3537883
2.9242844
2.5587576
2.2502079
1.9911305
1.7741922
1.5926719
1.4406849
1.3132436
1.2062113
1.1162088
1.0405041
0.97690609
0.92366882
0.87941136
0.84305194
0.81375576
0.79089499
0.77401885
0.76283165
0.75720845
0.75713464
0.7623964
0.77409713
0.79248756
0.81851061
0.85367088
0.90032694
0.96219329
1.0451149
1.1533295
1.2829641
1.4262215
1.5752441
1.7196341
1.8489529
1.955154
2.0340714
2.085584
2.1126612
2.1200235
2.1137361
2.0979868
2.0770718
2.0550655
2.0349851
2.0190212
2.0088479
2.0056887
2.0102353
2.023358
2.0457855
2.0778336
2.1199923
2.1727956
2.2368588
2.3129126
2.4018358
2.5046898
2.6227585
2.7575954
2.9110829
3.0855077
3.2836591
3.5089586
3.7656367
4.0589649
4.3955822
4.783957
5.2350448
5.7632489
6.3878577
7.1352509
8.0423824
9.1624491
21.939888
19.32473
17.105884
15.19613
13.530302
12.056602
10.735586
9.5410104
8.4554858
7.4666796
6.5666834
5.7513699
5.0188858
4.3680509
3.7971313
3.3026777
2.8793244
2.5202589
2.2178514
1.9642737
1.7520808
1.5745634
1.425907
1.301213
1.1964365
1.1082831
1.034096
0.97174818
0.91954765
0.87615758
0.84053224
0.81186646
0.78955688
0.77317343
0.76243835
0.75719926
0.75746145
0.7631023
0.77516158
0.79389875
0.82028614
0.85583778
0.90293231
0.96532918
1.0489571
1.1582204
1.2894915
1.4351752
1.5874599
1.7357613
1.8692639
1.979444
2.0616834
2.1155727
2.144005
2.1517809
2.1451971
2.1285586
2.1062965
2.0826638
2.0607936
2.0429899
2.0309761
2.0260177
2.0289024
2.0403142
2.0611703
2.0917289
2.1324724
2.1839252
2.2466922
2.3214938
2.4091984
2.5108582
2.6277484
2.7614154
2.913736
3.0869931
3.2839749
3.5081048
3.7636132
4.0557826
4.3912758
4.7785966
5.2287551
5.7562422
6.3804899
7.1281214
8.0365089
9.1595895
22.046776
19.41011
17.172751
15.244402
13.558373
12.066392
10.733585
9.5308289
8.4390945
7.4455618
6.5422184
5.7250249
4.9920172
4.3419155
3.7727057
3.2806053
2.8599368
2.5036108
2.2037893
1.9525341
1.7423579
1.5665509
1.4193224
1.2958093
1.1920047
1.1046511
1.0311244
0.96932561
0.91758546
0.87458626
0.83929807
0.81092873
0.78888572
0.77274843
0.7622502
0.75726968
0.75778665
0.7637204
0.77607799
0.79514212
0.82189055
0.85785187
0.90543178
0.96844904
1.0529463
1.1634873
1.2966879
1.4451104
1.6009265
1.753305
1.8910264
2.0051048
2.0905033
2.1465562
2.1761149
2.1840886
2.1770432
2.1593553
2.1356309
2.1102967
2.0865765
2.0668885
2.0530006
2.0462206
2.0474372
2.0571374
2.0763872
2.1054734
2.1448274
2.1949662
2.2564866
2.3301006
2.4166684
2.5172349
2.6330685
2.7657101
2.9170319
3.089314
3.2853432
3.5085442
3.7631566
4.0544726
4.3891716
4.7757908
5.2254004
5.752594
6.3769735
7.1254395
8.0358297
9.1628857
22.129514
19.468414
17.211871
15.268546
13.570598
12.067472
10.721503
9.5066535
8.4043527
7.4023054
6.4929303
5.6724628
4.9389237
4.290728
3.72529
3.2381316
2.822913
2.4720428
2.17734
1.9306583
1.7244275
1.5519417
1.4074631
1.2862031
1.1842339
1.0983726
1.0260607
0.96525522
0.91433379
0.87201695
0.83730577
0.80943314
0.78782679
0.77208229
0.76194495
0.7573007
0.75811378
0.76438622
0.77707604
0.79649009
0.82361874
0.86000815
0.90809313
0.9717532
1.0571541
1.1689833
1.3041258
1.4553138
1.6147129
1.771249
1.9132941
2.0313889
2.1200489
2.1783226
2.209008
2.2171312
2.2095589
2.1907295
2.1654515
2.1383334
2.1126914
2.0910573
2.0752439
2.0666001
2.0660973
2.074094
2.0917065
2.1193049
2.1572565
2.2060692
2.26633
2.3387404
2.4241508
2.5235962
2.6383364
2.769904
2.9201641
3.0913908
3.2863663
3.5085131
3.7620733
4.0523536
4.3860625
4.7717837
5.2206579
5.7473875
6.3717486
7.1209297
8.0332555
9.164317
22.225956
19.539815
17.262403
15.300777
13.586421
12.06885
10.711662
9.4876509
8.3782218
7.3710847
6.4586122
5.6370295
4.9040565
4.2578283
3.6953222
3.211616
2.8000066
2.4525999
2.1610217
1.9170601
1.7131416
1.5425909
1.3997176
1.2797842
1.1789117
1.0939602
1.0224081
0.9622425
0.91186615
0.87002005
0.83572225
0.80821982
0.78695253
0.77152641
0.76169631
0.75735701
0.75845565
0.7650629
0.77808717
0.79785985
0.82538306
0.86222128
0.91084097
0.97518608
1.0615532
1.1747617
1.3119446
1.4660062
1.6290947
1.7898748
1.9363033
2.0584568
2.1504054
2.2108982
2.2426694
2.25087
2.2426969
2.2226291
2.1957049
2.1667166
2.1390723
2.1154245
2.0976303
2.0870771
2.0847574
2.0911008
2.1070435
2.1331272
2.1696542
2.2171221
2.2761066
2.3472976
2.4315342
2.5298405
2.6434655
2.773932
2.9230957
3.0932231
3.2870949
3.5081407
3.7606169
4.0498495
4.3825744
4.7674183
5.2155915
5.7419085
6.3663286
7.116343
8.0307891
9.1661518
22.314572
19.602296
17.303691
15.324269
13.59459
12.062711
10.692315
9.4567783
8.3377424
7.3232437
6.4059446
5.582261
4.8497977
4.2063247
3.6482091
3.169838
2.7638867
2.422017
2.1355548
1.896111
1.6960542
1.5287296
1.3885091
1.2707352
1.1716108
1.088072
1.0176636
0.95842889
0.90881691
0.86760639
0.83384577
0.80680659
0.78594835
0.77089312
0.7614089
0.75740155
0.75880222
0.76576075
0.77913246
0.79927669
0.82720904
0.86451444
0.91369419
0.9787604
1.0661492
1.1808156
1.320121
1.4771551
1.6440431
1.8091681
1.9600574
2.0863251
2.1815949
2.2443005
2.2771027
2.2852895
2.2764263
2.2550069
2.2263365
2.1953877
2.1656694
2.1399356
2.1201062
2.1075983
2.1034229
2.1080895
2.1223334
2.146879
2.1819595
2.2280608
2.2857458
2.3556915
2.4387238
2.5358541
2.648319
2.7776306
2.9256403
3.0946177
3.287349
3.5072697
3.7586435
4.0468123
4.3785392
4.7624963
5.2099677
5.7358871
6.3604078
7.1113418
8.0280701