/*--------------------------------*- C++ -*----------------------------------*\
| =========                 |                                                 |
| \\      /  F ield         | OpenFOAM: The Open Source CFD Toolbox           |
|  \\    /   O peration     | Version:  2.4.0                                 |
|   \\  /    A nd           | Web:      www.OpenFOAM.org                      |
|    \\/     M anipulation  |                                                 |
\*---------------------------------------------------------------------------*/
FoamFile
{
    version     2.0;
    format      ascii;
    class       volSymmTensorField;
    location    "35000";
    object      Rall;
}
// * * * * * * * * * * * * * * * * * * * * * * * * * * * * * * * * * * * * * //

dimensions      [0 2 -2 0 0 0 0];

internalField   nonuniform List<symmTensor> 
15600
(
(4.209346e-07 -1.0494043e-09 -2.7958692e-29 4.2094396e-07 2.9922972e-30 4.2093281e-07)
(3.4240315e-07 -9.3529464e-10 2.0477719e-33 3.4240402e-07 -6.2184461e-32 3.4240069e-07)
(1.3693276e-05 -2.1856196e-07 9.284769e-27 1.3692341e-05 -1.1457383e-27 1.3688051e-05)
(1.1150076e-05 -1.8749103e-07 -1.8417624e-29 1.1147969e-05 -3.2693499e-31 1.1145037e-05)
(0.00010215587 -5.2977348e-06 -1.7758465e-25 0.00010189666 4.5912465e-26 0.00010166725)
(8.3349868e-05 -4.4241251e-06 1.254403e-28 8.3090279e-05 -1.0790395e-27 8.292057e-05)
(0.00039483894 -4.5840534e-05 -2.4157028e-25 0.00038850408 1.4232874e-26 0.00038478596)
(0.00032346149 -3.7819151e-05 -2.8272073e-26 0.0003178059 7.8197028e-27 0.00031494284)
(0.0010829115 -0.00021485635 4.1496832e-24 0.0010265831 -5.150459e-25 0.00099931918)
(0.00089465629 -0.00017786561 1.9325591e-26 0.00084549126 4.4248053e-26 0.00082391708)
(0.0023514113 -0.00063944292 -2.6972471e-23 0.0021047672 4.2444604e-24 0.0020011066)
(0.0019737181 -0.00053797685 4.5739674e-26 0.001755487 -8.4264558e-26 0.001670852)
(0.0041644184 -0.0013309539 1.0977038e-22 0.0035336262 -1.860849e-23 0.003302446)
(0.0035752106 -0.0011452684 6.5602691e-26 0.0030012224 -9.7594283e-26 0.0028069199)
(0.0062107551 -0.0021402756 -2.0896866e-22 0.0050903292 1.3294828e-22 0.0047333842)
(0.0054634639 -0.0018829061 -1.1176153e-24 0.0044139233 -8.3246007e-25 0.004106817)
(0.0081879991 -0.0029103587 2.7103911e-22 0.006586089 -4.5497769e-23 0.0061417602)
(0.0073645706 -0.0026060618 -1.5952806e-23 0.0058268777 4.1784786e-24 0.0054353868)
(0.0099650859 -0.0035634242 -3.8987177e-22 0.0079428061 5.8291606e-23 0.0074515382)
(0.0091321338 -0.0032314812 2.2740928e-23 0.0071527245 8.2398814e-25 0.006706985)
(0.011531964 -0.0040793651 1.372839e-21 0.0091651253 -4.2132033e-22 0.0086599512)
(0.010726764 -0.0037288121 3.7994825e-23 0.0083760223 -1.1191587e-23 0.0079035727)
(0.012916176 -0.0044594121 -1.5635522e-21 0.010285543 2.2378702e-22 0.0097975414)
(0.012163059 -0.0040960799 -4.0236782e-23 0.0095193844 9.2080778e-25 0.0090523321)
(0.014157903 -0.0047163188 -2.2370458e-22 0.011341437 2.8573359e-22 0.010904567)
(0.013477605 -0.0043468083 -6.852908e-23 0.010613946 1.617335e-23 0.010191274)
(0.015297625 -0.0048687084 5.0180254e-22 0.012361106 -5.9757434e-22 0.01201164)
(0.014706978 -0.0044971245 7.7789593e-23 0.011683262 -7.0066014e-24 0.01134696)
(0.016370574 -0.0049362611 -5.6579463e-23 0.013361058 7.7122673e-24 0.013133587)
(0.015884959 -0.0045671486 5.4386534e-23 0.012739254 -1.1016282e-23 0.012528141)
(0.017404888 -0.0049380266 -5.7627987e-22 0.014348076 3.4541102e-22 0.014271999)
(0.01703797 -0.0045769482 6.0189868e-25 0.01378517 -6.7105217e-25 0.013730669)
(0.018420662 -0.0048908633 5.6826811e-21 0.015322936 -8.2747073e-22 0.015420903)
(0.018183369 -0.0045435248 7.9299887e-23 0.014819519 -8.8772429e-24 0.014944845)
(0.019429992 -0.0048074521 -6.6445775e-21 0.016282855 1.1032597e-21 0.016571898)
(0.019330709 -0.0044800907 1.1082422e-24 0.015839319 -1.4596158e-24 0.016160452)
(0.020439642 -0.0047004204 3.7788412e-22 0.017230849 -3.0007455e-22 0.017716402)
(0.020484193 -0.0043942288 0 0.016835682 0 0.017368805)
(0.021454003 -0.0045685408 1.0217721e-21 0.018126403 -7.8200837e-23 0.018846255)
(0.021643841 -0.0042928623 -4.7400734e-25 0.017811647 2.8885402e-25 0.018564718)
(7.8886738e-09 4.090077e-12 -4.3744806e-31 7.887726e-09 3.7462344e-32 7.8881973e-09)
(6.7139749e-09 3.1607573e-12 3.5218248e-30 6.7126418e-09 -1.5133661e-29 6.7133066e-09)
(6.1657527e-09 2.0934074e-12 3.7106265e-30 6.1640823e-09 -2.5514076e-29 6.1649178e-09)
(6.0681145e-09 2.1098585e-12 1.7691758e-30 6.0654726e-09 -4.2661033e-31 6.0667935e-09)
(5.9149204e-09 1.9382725e-12 1.645953e-29 5.9114887e-09 4.3353166e-29 5.9132046e-09)
(5.6945766e-09 1.7749057e-12 -4.2282e-32 5.6904085e-09 -3.3110432e-32 5.6924925e-09)
(5.3376976e-09 1.4948376e-12 -9.6568281e-29 5.3332597e-09 -1.8354218e-28 5.3354785e-09)
(4.9335644e-09 1.2124604e-12 2.2367107e-30 4.9291279e-09 4.1488323e-29 4.9313461e-09)
(4.5319676e-09 9.4865928e-13 -7.5493488e-31 4.5277447e-09 4.1494373e-31 4.5298561e-09)
(4.1677256e-09 7.4350061e-13 6.1171637e-31 4.1637626e-09 -4.3158522e-31 4.1657441e-09)
(3.8535596e-09 5.8674877e-13 -4.4809001e-29 3.8498986e-09 -3.6672864e-29 3.8517291e-09)
(3.5973804e-09 4.8369916e-13 4.1302674e-29 3.5939611e-09 3.3341471e-29 3.5956707e-09)
(3.4364655e-09 4.2052113e-13 -2.9000615e-29 3.4332447e-09 -3.8542567e-29 3.4348551e-09)
(3.3666231e-09 4.0375845e-13 -3.4075502e-29 3.3634473e-09 -6.1272644e-29 3.3650352e-09)
(3.4002354e-09 4.0205601e-13 6.9542171e-29 3.3970921e-09 9.0468042e-29 3.3986637e-09)
(3.6388755e-09 4.4940464e-13 -1.4039026e-29 3.6353365e-09 -1.9028141e-29 3.6371059e-09)
(4.6128002e-09 5.7489322e-13 1.1942884e-30 4.6081591e-09 -8.8433484e-31 4.6104796e-09)
(6.1032966e-09 8.418061e-13 -1.1862682e-28 6.0961758e-09 -1.5112433e-28 6.0997358e-09)
(8.7986846e-09 1.3903697e-12 1.0640288e-28 8.7860754e-09 2.0867346e-28 8.7923737e-09)
(1.1932091e-08 2.1457908e-12 -4.1607689e-30 1.1910681e-08 2.8577877e-30 1.1921369e-08)
(1.7475873e-08 3.2754177e-12 1.6123355e-28 1.7440867e-08 -1.1208552e-29 1.7458346e-08)
(1.9813205e-08 5.7166931e-12 -1.1635264e-28 1.9763483e-08 -1.5340092e-28 1.9788284e-08)
(1.9493905e-08 7.5986485e-12 -8.5688764e-29 1.9450625e-08 -1.1864047e-28 1.9472238e-08)
(5.4251299e-09 3.5279459e-12 -3.4296447e-29 5.4128176e-09 -5.9804573e-29 5.4189638e-09)
(2.1838417e-08 6.6544321e-12 8.1371833e-29 2.1823643e-08 1.5907357e-29 2.1831041e-08)
(1.1767075e-07 -1.5708866e-10 5.5039866e-28 1.1782248e-07 -4.1981649e-28 1.1774627e-07)
(3.0565702e-07 -1.1291049e-09 6.5828502e-29 3.0600922e-07 6.7158783e-28 3.0582912e-07)
(2.5700399e-07 8.0377467e-10 -1.9530055e-28 2.5680964e-07 -5.2236853e-27 2.569034e-07)
(2.187687e-07 6.1867755e-10 -5.491363e-28 2.1850197e-07 2.7836993e-27 2.1863302e-07)
(2.0101607e-07 4.7304104e-10 -3.9889559e-27 2.0063641e-07 -1.078112e-26 2.0082452e-07)
(1.9791253e-07 4.6721255e-10 -6.1309319e-28 1.9732749e-07 1.4680234e-28 1.9761808e-07)
(1.9297283e-07 4.2664085e-10 4.0323133e-27 1.9221719e-07 -1.1982933e-26 1.9259286e-07)
(1.8583023e-07 3.8691771e-10 7.2403555e-28 1.8492017e-07 -2.7582481e-28 1.8537278e-07)
(1.7420906e-07 3.2466987e-10 1.3165943e-26 1.7324163e-07 4.2529699e-26 1.7372287e-07)
(1.6103056e-07 2.6259371e-10 1.188201e-26 1.6006446e-07 1.2875958e-26 1.6054512e-07)
(1.4790474e-07 2.0525381e-10 2.6014955e-28 1.4698471e-07 -1.4478254e-28 1.4744253e-07)
(1.3600628e-07 1.6057046e-10 1.1676557e-26 1.351432e-07 1.6616674e-26 1.3557274e-07)
(1.25735e-07 1.2663809e-10 1.5533121e-26 1.2493727e-07 2.6092216e-26 1.2533435e-07)
(1.1736223e-07 1.0419835e-10 -1.4677693e-26 1.1661783e-07 -2.3746315e-26 1.169884e-07)
(1.1209186e-07 9.0633413e-11 -3.3381301e-27 1.1139045e-07 -4.5934046e-27 1.1173966e-07)
(1.0981075e-07 8.6785956e-11 -2.585602e-27 1.0912086e-07 1.0674306e-27 1.0946432e-07)
(1.1090384e-07 8.6775007e-11 -2.023321e-26 1.1021999e-07 -3.3835637e-26 1.1056049e-07)
(1.1871686e-07 9.665595e-11 -1.1115207e-26 1.1795141e-07 -5.3203427e-27 1.1833244e-07)
(1.5054732e-07 1.2424388e-10 -1.2264091e-29 1.4954372e-07 6.904564e-30 1.5004331e-07)
(1.9932296e-07 1.7984463e-10 1.6073464e-26 1.9780094e-07 3.8855105e-26 1.98558e-07)
(2.8745435e-07 2.6257623e-10 -6.8344703e-27 2.8508943e-07 -4.8724921e-26 2.862656e-07)
(3.9017337e-07 3.976689e-10 2.9848078e-26 3.8622351e-07 3.3061383e-26 3.8818516e-07)
(5.7170989e-07 6.0716736e-10 -6.3723593e-26 5.6526125e-07 -3.8106818e-26 5.6846291e-07)
(6.4861347e-07 1.0176845e-09 2.2302899e-26 6.3963317e-07 2.7844557e-26 6.4408215e-07)
(6.3720407e-07 1.3770634e-09 -5.0300821e-26 6.2930709e-07 3.3744398e-26 6.3322354e-07)
(1.7738842e-07 6.7537287e-10 -1.082762e-26 1.7494749e-07 2.2929824e-26 1.761538e-07)
(7.1171646e-07 3.4895334e-10 -4.4932418e-27 7.1030848e-07 2.366429e-26 7.1101324e-07)
(3.813039e-06 -3.5559294e-08 -1.7482463e-25 3.8445895e-06 -2.546512e-25 3.8282701e-06)
(9.9178865e-06 -2.0702713e-07 7.4607471e-25 9.9763187e-06 -1.8791583e-25 9.9416337e-06)
(1.9226489e-06 1.8641912e-08 -4.2603227e-26 1.9178377e-06 1.1641343e-25 1.9200037e-06)
(1.6375084e-06 1.4297433e-08 7.3455853e-26 1.6311315e-06 -7.0198852e-27 1.6341527e-06)
(1.5060206e-06 1.1063968e-08 7.6119517e-26 1.4970268e-06 3.5293424e-25 1.5014001e-06)
(1.4841284e-06 1.0706023e-08 -9.8544255e-26 1.4706588e-06 -3.5613519e-25 1.4772544e-06)
(1.4482901e-06 9.7077239e-09 -4.3385693e-25 1.4310168e-06 -6.0775992e-25 1.4395019e-06)
(1.3957811e-06 8.7101221e-09 -1.7678813e-26 1.3751753e-06 6.1678245e-27 1.385309e-06)
(1.3092198e-06 7.2745842e-09 4.6876484e-25 1.2873611e-06 4.668515e-25 1.2981194e-06)
(1.2106479e-06 5.8612588e-09 2.1230926e-26 1.1888485e-06 1.9095217e-26 1.1995839e-06)
(1.112115e-06 4.5727217e-09 -6.1386149e-27 1.0913469e-06 3.2765824e-27 1.1015806e-06)
(1.0227063e-06 3.5671023e-09 -8.4851998e-26 1.0032325e-06 -4.7947724e-25 1.0128329e-06)
(9.4540816e-07 2.8089116e-09 1.2777412e-25 9.273989e-07 -6.6356852e-26 9.3628149e-07)
(8.823947e-07 2.3046866e-09 -9.9018841e-26 8.6560527e-07 5.1790258e-26 8.7388854e-07)
(8.4263606e-07 2.004788e-09 7.6020406e-26 8.2681033e-07 3.768802e-25 8.3462087e-07)
(8.2546726e-07 1.914068e-09 4.3554306e-25 8.099416e-07 5.3122977e-25 8.1760391e-07)
(8.3360214e-07 1.9222176e-09 -4.4822571e-25 8.1818922e-07 -1.1385691e-25 8.2579803e-07)
(8.9257495e-07 2.132817e-09 1.6141155e-25 8.7543097e-07 3.1667565e-25 8.8388919e-07)
(1.132155e-06 2.7532135e-09 -4.9990274e-27 1.1096934e-06 3.3737327e-27 1.1207721e-06)
(1.5002256e-06 3.931832e-09 5.7917772e-25 1.4665944e-06 2.9018855e-25 1.4831501e-06)
(2.1646822e-06 5.7613319e-09 -1.2490421e-24 2.112443e-06 -1.1672948e-27 2.138137e-06)
(2.9429297e-06 8.533568e-09 8.4909872e-26 2.8572715e-06 -1.3084727e-24 2.8992476e-06)
(4.3153898e-06 1.2980274e-08 7.8059921e-25 4.1759059e-06 8.4769915e-25 4.2441422e-06)
(4.9041176e-06 2.0880968e-08 -6.4016803e-29 4.7141212e-06 -6.9470739e-29 4.8065682e-06)
(4.8064671e-06 2.8800481e-08 2.2858437e-25 4.6376175e-06 1.3764028e-24 4.7199421e-06)
(1.3382867e-06 1.2945945e-08 5.0777889e-25 1.2889801e-06 -4.8268996e-26 1.3128583e-06)
(5.3190315e-06 -1.4395737e-08 -2.1798588e-25 5.3210243e-06 -5.8171335e-25 5.3200089e-06)
(2.8232202e-05 -9.2186864e-07 -7.6828634e-24 2.89694e-05 9.3060142e-24 2.855654e-05)
(7.371411e-05 -4.4644229e-06 -1.6101956e-23 7.4690645e-05 -7.3766006e-24 7.3859647e-05)
(7.4506188e-06 1.6040101e-07 5.2119357e-25 7.4053936e-06 9.9960668e-25 7.4234247e-06)
(6.3509884e-06 1.226557e-07 -8.387429e-25 6.2935871e-06 -1.6352267e-24 6.3190656e-06)
(5.8488275e-06 9.5994099e-08 2.2814175e-26 5.7690813e-06 -5.4490737e-27 5.8065346e-06)
(5.772179e-06 9.0973725e-08 5.2137936e-25 5.6563048e-06 6.2408692e-24 5.7116124e-06)
(5.6410772e-06 8.1791483e-08 2.252409e-24 5.4938695e-06 5.4084501e-24 5.5646579e-06)
(5.4440081e-06 7.2486442e-08 -6.3956765e-28 5.2703043e-06 2.7814683e-28 5.3540728e-06)
(5.1115837e-06 6.0158643e-08 -2.6752489e-24 4.9278941e-06 -4.3913472e-24 5.0166412e-06)
(4.730061e-06 4.8210491e-08 -2.726592e-24 4.5472256e-06 -9.4019595e-24 4.6356767e-06)
(4.3465697e-06 3.7480949e-08 1.1240695e-25 4.1723761e-06 -5.700787e-26 4.2567556e-06)
(3.9977084e-06 2.9104566e-08 -3.879199e-24 3.8344882e-06 -2.1759203e-24 3.9136322e-06)
(3.6953886e-06 2.2843822e-08 -2.1914813e-24 3.5443883e-06 -2.6632259e-24 3.6176799e-06)
(3.4487913e-06 1.8662089e-08 1.9730448e-24 3.3081679e-06 2.4624148e-24 3.3764673e-06)
(3.2927565e-06 1.6219596e-08 3.0769634e-24 3.1601614e-06 1.561063e-24 3.2246076e-06)
(3.2254872e-06 1.5435717e-08 1.6070454e-24 3.0957511e-06 -1.0337497e-24 3.1588134e-06)
(3.2568105e-06 1.557487e-08 7.0930302e-24 3.1278296e-06 9.0745543e-24 3.1905554e-06)
(3.4884913e-06 1.7209365e-08 3.6208539e-24 3.3459483e-06 5.084195e-24 3.4151976e-06)
(4.4263495e-06 2.2289253e-08 -5.1363206e-28 4.2397968e-06 3.3729604e-28 4.3303592e-06)
(5.8722382e-06 3.1332332e-08 -3.1793394e-24 5.5967171e-06 -3.5371644e-24 5.7299949e-06)
(8.4793544e-06 4.5930208e-08 7.9670072e-24 8.0519502e-06 1.7942423e-24 8.2582697e-06)
(1.1552364e-05 6.6140823e-08 -1.190374e-23 1.0865609e-05 -1.6701451e-24 1.1194916e-05)
(1.6954137e-05 9.9536179e-08 6.8601901e-24 1.5841061e-05 7.4469662e-24 1.6372783e-05)
(1.931162e-05 1.5321415e-07 -8.0328611e-26 1.7832193e-05 3.4728282e-26 1.8532445e-05)
(1.8862293e-05 2.1661141e-07 1.3405101e-23 1.7535948e-05 -8.7214113e-24 1.8165634e-05)
(5.2440938e-06 8.7282641e-08 -9.2704557e-25 4.8817065e-06 -1.384771e-24 5.052537e-06)
(2.0545134e-05 -3.1761662e-07 -8.1673432e-26 2.0847347e-05 2.8467523e-26 2.068863e-05)
(0.00010808536 -8.5488626e-06 7.3422944e-23 0.0001139927 1.3299699e-23 0.00011010304)
(0.00028351615 -3.5052097e-05 -1.0549613e-23 0.00028778844 7.2095469e-23 0.00028023627)
(2.0608114e-05 8.1385641e-07 2.8935514e-26 2.0351792e-05 2.1046632e-25 2.0437011e-05)
(1.7585893e-05 6.211982e-07 1.4359622e-24 1.7276157e-05 8.0884478e-24 1.7400713e-05)
(1.6224178e-05 4.9128091e-07 3.6372814e-24 1.5802642e-05 1.5823381e-23 1.5990171e-05)
(1.6041722e-05 4.5604706e-07 1.0308368e-23 1.544857e-05 -1.8277305e-23 1.5720784e-05)
(1.5710241e-05 4.0588228e-07 1.3510815e-23 1.4965645e-05 2.8057974e-23 1.5312285e-05)
(1.5190024e-05 3.5470677e-07 -1.814828e-27 1.4322286e-05 -7.1381583e-27 1.4728625e-05)
(1.4283544e-05 2.9197054e-07 -1.3790633e-23 1.336989e-05 -2.3142074e-23 1.3799255e-05)
(1.3230973e-05 2.3228819e-07 -2.8036001e-23 1.2323961e-05 1.4280436e-23 1.2751258e-05)
(1.2165064e-05 1.796001e-07 1.2833848e-23 1.1301259e-05 1.7880779e-23 1.1709134e-05)
(1.1191431e-05 1.3853019e-07 -5.4896636e-25 1.0382823e-05 -6.7760946e-25 1.0765333e-05)
(1.0345034e-05 1.0813973e-07 3.9512724e-28 9.5968192e-06 4.8547085e-27 9.9513764e-06)
(9.6536862e-06 8.7795306e-08 -2.6106341e-27 8.9576748e-06 -2.8609476e-27 9.2878991e-06)
(9.2148291e-06 7.6143959e-08 -9.979467e-24 8.5583707e-06 -1.1095177e-23 8.8702179e-06)
(9.0256227e-06 7.2218986e-08 -1.8288266e-23 8.3850117e-06 -2.3094556e-23 8.6894333e-06)
(9.1117993e-06 7.3246147e-08 6.7186932e-24 8.4740455e-06 -2.1704173e-23 8.7773393e-06)
(9.7638557e-06 8.0620738e-08 8.7832994e-24 9.0636325e-06 -2.4095315e-23 9.3961434e-06)
(1.2393738e-05 1.0467366e-07 5.323246e-25 1.1478813e-05 -2.9759482e-25 1.1912667e-05)
(1.646251e-05 1.445999e-07 2.9244853e-25 1.5130903e-05 -1.8316826e-25 1.5758927e-05)
(2.3788823e-05 2.112712e-07 -3.0243538e-23 2.1729323e-05 2.2380167e-23 2.2696981e-05)
(3.2475011e-05 2.9455168e-07 -2.1554965e-24 2.9239702e-05 -5.1284577e-25 3.0744607e-05)
(4.7671768e-05 4.3534539e-07 4.3398874e-23 4.2470752e-05 -9.3589081e-23 4.4874842e-05)
(5.4413721e-05 6.403362e-07 -3.7799095e-23 4.7688847e-05 -3.7546668e-23 5.0758058e-05)
(5.2898236e-05 9.2826213e-07 -3.6172864e-23 4.6840935e-05 -3.9603826e-23 4.9617999e-05)
(1.4651577e-05 3.2273969e-07 -5.1024474e-24 1.3123037e-05 -6.8099995e-24 1.3823005e-05)
(5.6441801e-05 -2.5855822e-06 7.4446506e-24 5.9225898e-05 2.419766e-23 5.7640759e-05)
(0.00029612107 -4.4395783e-05 8.6046528e-24 0.00032089205 -1.4690291e-22 0.00029988596)
(0.00077354532 -0.00015443123 -3.8548313e-26 0.00077411765 1.2646606e-25 0.00073591921)
(4.6745288e-05 2.9885026e-06 1.4552312e-23 4.5675137e-05 5.6031432e-25 4.5951912e-05)
(3.9943456e-05 2.281034e-06 -7.9200501e-25 3.8713852e-05 -3.3627283e-26 3.9145286e-05)
(3.6934706e-05 1.8216152e-06 2.1701192e-23 3.5301887e-05 -6.0278956e-23 3.5974432e-05)
(3.6596856e-05 1.657345e-06 -6.9434555e-23 3.4375062e-05 1.6128167e-23 3.534016e-05)
(3.5933795e-05 1.4577183e-06 -2.8997083e-23 3.3185223e-05 -2.2233959e-22 3.4408552e-05)
(3.4821456e-05 1.2541481e-06 -5.3148252e-23 3.1663082e-05 -9.2361322e-23 3.3083766e-05)
(3.28042e-05 1.0217049e-06 -1.82766e-23 2.9497513e-05 1.1232705e-22 3.0994048e-05)
(3.0426348e-05 8.0524665e-07 1.046067e-22 2.7154747e-05 4.0737352e-23 2.8641519e-05)
(2.7996806e-05 6.176816e-07 6.3523605e-23 2.4883681e-05 -3.2824163e-23 2.6303536e-05)
(2.5765082e-05 4.7202279e-07 -4.7715223e-24 2.2854255e-05 8.5177209e-23 2.4185722e-05)
(2.3817837e-05 3.6543878e-07 -9.9376228e-25 2.1124219e-05 4.4010481e-25 2.2359657e-05)
(2.2223553e-05 2.9412821e-07 1.4613855e-29 1.9720631e-05 -2.0069815e-30 2.0870937e-05)
(2.1208345e-05 2.5413779e-07 4.093878e-23 1.8847001e-05 4.0435123e-23 1.9934358e-05)
(2.0769388e-05 2.402103e-07 -7.195989e-23 1.8470823e-05 -1.8536198e-23 1.9530109e-05)
(2.0964631e-05 2.4504159e-07 -1.0707287e-22 1.8673443e-05 -5.3582464e-23 1.9730476e-05)
(2.2472711e-05 2.6892313e-07 -1.1636234e-22 1.9973337e-05 -5.5087693e-23 2.112435e-05)
(2.8535274e-05 3.4973221e-07 -1.0321171e-24 2.5277487e-05 5.3060189e-25 2.6774452e-05)
(3.7937398e-05 4.7429928e-07 6.4650413e-23 3.3270124e-05 6.444252e-23 3.5399358e-05)
(5.483478e-05 6.8786943e-07 2.8496417e-22 4.7656874e-05 8.7992013e-23 5.0912698e-05)
(7.4929092e-05 9.2584699e-07 -2.0550593e-22 6.3937147e-05 1.4287659e-22 6.8858726e-05)
(0.00010982712 1.3339053e-06 -4.2142852e-22 9.2395868e-05 8.1225713e-23 0.00010013418)
(0.00012546157 1.8735202e-06 -3.1057156e-22 0.00010361693 4.3660696e-22 0.00011317727)
(0.00012118706 2.7724979e-06 -2.8741717e-22 0.00010155485 4.0099518e-22 0.00011020868)
(3.3369489e-05 7.6372783e-07 -1.1374153e-22 2.8878855e-05 9.4003907e-23 3.0887226e-05)
(0.00012680327 -1.2858715e-05 1.4730122e-22 0.00014016584 -1.2039568e-22 0.00013145977)
(0.00066503195 -0.00015455658 6.1652478e-24 0.00072940414 -6.6746794e-24 0.00065362992)
(0.0016834914 -0.00045254225 1.6071201e-28 0.0016329544 -1.5560653e-28 0.0015112299)
(9.3182061e-05 8.7847177e-06 -5.1121303e-24 8.9566945e-05 -5.1981883e-23 9.0235927e-05)
(7.975524e-05 6.7232596e-06 3.2646421e-24 7.5789278e-05 4.3927337e-25 7.695516e-05)
(7.3961164e-05 5.4191481e-06 -1.7248587e-22 6.8830098e-05 -1.5424606e-22 7.073842e-05)
(7.3437686e-05 4.838168e-06 3.95287e-22 6.6689779e-05 2.6328221e-22 6.9417164e-05)
(7.2312834e-05 4.1990639e-06 -4.6703311e-22 6.4106497e-05 1.2844483e-22 6.755196e-05)
(7.0236036e-05 3.5515314e-06 -9.6985776e-23 6.0951451e-05 3.5165928e-22 6.4918302e-05)
(6.6304957e-05 2.8574396e-06 5.6987331e-22 5.6651732e-05 3.7139314e-22 6.0816429e-05)
(6.1591372e-05 2.2259369e-06 -3.9375321e-22 5.2078844e-05 -9.0736442e-23 5.6208992e-05)
(5.6729021e-05 1.6892531e-06 -3.0207764e-22 4.7688165e-05 -3.5945324e-22 5.1634041e-05)
(5.2231603e-05 1.2749575e-06 3.0591642e-22 4.3788371e-05 6.3469006e-23 4.7489149e-05)
(4.8292153e-05 9.7541385e-07 1.4579891e-22 4.0478408e-05 1.3507483e-22 4.3916414e-05)
(4.505591e-05 7.7578253e-07 -2.857728e-24 3.7801986e-05 1.1088624e-24 4.1003422e-05)
(4.2989902e-05 6.6628251e-07 1.8029035e-23 3.6143713e-05 -2.0358371e-22 3.917371e-05)
(4.2091039e-05 6.2762891e-07 2.2540779e-22 3.544168e-05 4.1350533e-22 3.8388996e-05)
(4.248298e-05 6.4462971e-07 1.1273141e-22 3.5847553e-05 1.0674828e-22 3.879304e-05)
(4.5548989e-05 7.0663863e-07 -4.2728662e-24 3.8356243e-05 -3.7863215e-24 4.1543263e-05)
(5.7838837e-05 9.2001235e-07 -3.2807135e-24 4.8498025e-05 1.2532858e-24 5.2624401e-05)
(7.6898053e-05 1.2247689e-06 7.8549992e-23 6.3745048e-05 -3.6139797e-22 6.9507002e-05)
(0.00011103368 1.7561313e-06 -3.6571078e-22 9.1001572e-05 -9.6943907e-22 9.9711449e-05)
(0.00015153333 2.2819761e-06 6.4119008e-22 0.00012174703 6.327036e-22 0.00013451359)
(0.00022100863 3.1883797e-06 4.180505e-22 0.00017479011 3.2771202e-22 0.00019441632)
(0.00025210582 4.2759873e-06 1.7243313e-21 0.00019622515 -5.0259826e-22 0.00021966993)
(0.00024137567 6.3663945e-06 2.5606067e-21 0.00019178253 -1.5328006e-21 0.00021284277)
(6.605439e-05 1.0640558e-06 4.2888298e-22 5.6111422e-05 -1.3478916e-22 6.0506922e-05)
(0.00025040054 -4.5610265e-05 -4.2207906e-22 0.00029262921 -1.3183729e-22 0.00025971977)
(0.001288919 -0.00039245128 -1.5493262e-23 0.0014027196 2.1096612e-23 0.0012089988)
(0.0030417087 -0.00096369407 9.2477259e-22 0.0028462835 -1.751101e-21 0.0025843071)
(0.00016948277 2.1786418e-05 -6.5636328e-23 0.00015916156 -2.5740327e-22 0.00016038706)
(0.00014538843 1.6779988e-05 -5.1342229e-26 0.0001344753 -1.9056988e-27 0.00013705621)
(0.00013530845 1.364952e-05 1.7985554e-22 0.0001215316 4.0043616e-22 0.0001260442)
(0.00013458294 1.1980621e-05 -3.8406929e-22 0.00011705537 -7.6383717e-22 0.00012353714)
(0.00013288469 1.0249835e-05 1.092548e-21 0.000111967 5.3719283e-22 0.0001201451)
(0.00012933302 8.5150139e-06 6.3885217e-22 0.00010605339 -2.0806907e-22 0.00011540171)
(0.00012235296 6.75383e-06 -2.666091e-22 9.8339323e-05 -1.3674138e-21 0.00010812354)
(0.00011384174 5.1891418e-06 4.0742713e-22 9.028083e-05 5.0838027e-22 9.9969233e-05)
(0.00010498179 3.8844965e-06 -5.0543999e-22 8.2618289e-05 2.4423705e-22 9.187962e-05)
(9.6723437e-05 2.8850724e-06 -8.3633697e-22 7.5858276e-05 -7.1364055e-22 8.4549238e-05)
(8.9461895e-05 2.1711767e-06 8.7209367e-23 7.0146521e-05 -5.8727121e-22 7.8232743e-05)
(8.3470968e-05 1.6988444e-06 1.6471973e-23 6.5548241e-05 -4.7022699e-24 7.3083297e-05)
(7.9640619e-05 1.4456233e-06 -6.894949e-22 6.2714739e-05 -5.1742508e-23 6.9857771e-05)
(7.7959599e-05 1.3571764e-06 3.8734865e-22 6.1549239e-05 -7.0883197e-22 6.8492065e-05)
(7.8686368e-05 1.4058324e-06 2.2061103e-23 6.2294871e-05 -7.1151451e-24 6.9243312e-05)
(8.4367449e-05 1.5438753e-06 -8.688666e-23 6.6707026e-05 5.3652681e-22 7.4182516e-05)
(0.00010705938 2.0127904e-06 -8.8932083e-25 8.4252423e-05 1.5399516e-25 9.3872667e-05)
(0.00014211548 2.6343716e-06 -1.2255598e-21 0.00011061855 1.4834263e-23 0.00012379451)
(0.00020446879 3.7258918e-06 -3.0494817e-21 0.00015725103 9.2734205e-22 0.00017684327)
(0.00027770213 4.7007523e-06 7.1465483e-22 0.00020990398 -1.7332422e-21 0.00023767767)
(0.00040074395 6.3846967e-06 1.0911482e-21 0.00029899601 7.1825066e-22 0.00034039828)
(0.00045509624 8.156305e-06 -5.1814784e-23 0.0003371727 -4.9839657e-23 0.00038494279)
(0.0004305376 1.1775332e-05 -4.3296394e-21 0.00032874254 1.0351038e-21 0.00037084544)
(0.00011762352 -2.9602404e-07 -1.2412885e-22 0.00010109566 -1.5175322e-22 0.00010839373)
(0.00045230906 -0.00012294885 -7.1924126e-23 0.00054941159 5.3800941e-22 0.00045779219)
(0.002195454 -0.00077482482 1.8187479e-23 0.002342975 -3.4280332e-23 0.0019716738)
(0.0046889688 -0.0016094412 -2.7716137e-20 0.0042608102 6.1764508e-21 0.0038453966)
(0.00028693915 4.6847906e-05 -5.3040016e-22 0.00026160068 2.180847e-22 0.00026324037)
(0.00024699395 3.6470066e-05 -9.8043358e-24 0.00022082371 -3.3796254e-24 0.00022563318)
(0.00023087129 2.9947582e-05 -4.6320704e-22 0.00019849 -8.5775907e-22 0.000207643)
(0.00022988487 2.5910476e-05 -3.7181671e-22 0.00018991409 -8.1900825e-22 0.00020325446)
(0.00022749078 2.1848929e-05 -1.8270178e-21 0.00018070258 3.8879319e-22 0.00019756383)
(0.00022174475 1.7829613e-05 -3.0415718e-21 0.00017052279 -7.8379927e-22 0.0001897035)
(0.00021019906 1.3927918e-05 -2.7528467e-21 0.00015778894 -6.0629768e-22 0.00017782113)
(0.00019592569 1.0538438e-05 9.0627425e-22 0.00014471427 1.0768919e-21 0.00016453597)
(0.00018095493 7.7603671e-06 1.0740144e-21 0.0001323913 8.5404409e-22 0.00015135954)
(0.00016688967 5.6495268e-06 -2.9351052e-22 0.00012159328 1.4028156e-21 0.00013941579)
(0.00015447679 4.1585494e-06 -1.9439667e-21 0.00011250826 -1.0078991e-22 0.00012912482)
(0.00014418479 3.1817533e-06 -8.5721812e-22 0.00010523265 -5.9360521e-22 0.00012073952)
(0.00013760332 2.6699059e-06 3.309246e-23 0.00010077865 -1.1188871e-23 0.00011550954)
(0.00013468942 2.497657e-06 -3.3334874e-21 9.9025862e-05 -1.1733198e-25 0.00011334592)
(0.00013596504 2.6165399e-06 6.9766212e-22 0.00010031644 5.4842156e-22 0.00011466751)
(0.00014575042 2.8922587e-06 9.3689786e-22 0.00010756712 -5.5312964e-22 0.00012293125)
(0.00018458776 3.783419e-06 -9.4164012e-22 0.00013568896 -6.8455409e-22 0.00015530195)
(0.00024404817 4.8908455e-06 1.2780393e-21 0.00017803243 8.7877958e-22 0.00020434818)
(0.0003484075 6.8406053e-06 3.1042007e-21 0.00025182222 2.4212108e-21 0.00029008095)
(0.00046854956 8.5082761e-06 -4.7322908e-21 0.00033566854 2.7260415e-21 0.0003879376)
(0.00066380801 1.141167e-05 2.3400183e-21 0.00047390688 -7.2454109e-21 0.00054868542)
(0.00074796818 1.3708648e-05 6.8256477e-21 0.00053918164 -7.184828e-21 0.00062218373)
(0.00069663636 1.7554993e-05 1.2052492e-21 0.00052558096 9.1937019e-22 0.00059599038)
(0.00019233067 -7.8109181e-06 4.8766654e-26 0.00017525275 7.5878998e-26 0.00018224898)
(0.00075642841 -0.00026185906 -3.732644e-27 0.00093084144 6.9237246e-27 0.00073608806)
(0.0033396848 -0.0012647585 8.5337474e-24 0.0034828691 -1.1143196e-24 0.0029113942)
(0.0063960317 -0.0022656025 -7.3017508e-21 0.0056914018 6.3520508e-21 0.0051599711)
(0.00045617153 8.8604793e-05 1.2082796e-21 0.00040241437 1.1493197e-21 0.00040377529)
(0.00039477112 7.0030296e-05 5.2418906e-23 0.00033972221 2.3488997e-23 0.00034743659)
(0.0003709096 5.8089701e-05 -9.8834184e-22 0.00030370927 1.6812709e-21 0.00031994037)
(0.00036946044 4.9702939e-05 -1.9514273e-21 0.00028859024 1.7942031e-22 0.0003127887)
(0.00036614567 4.1357505e-05 3.7410912e-21 0.00027318616 -5.6963389e-22 0.00030392704)
(0.00035721048 3.3200348e-05 4.8119973e-21 0.00025697155 5.1329307e-21 0.00029187567)
(0.00033925856 2.5552762e-05 2.5040115e-21 0.000237441 2.2128713e-21 0.00027387936)
(0.00031687014 1.9034079e-05 3.1459145e-21 0.00021768558 -1.2580336e-21 0.00025376506)
(0.00029325572 1.3763263e-05 2.1736811e-21 0.00019919232 1.5603428e-21 0.00023378865)
(0.00027089623 9.7857399e-06 4.6378657e-21 0.00018308416 1.562957e-22 0.0002156649)
(0.00025109052 7.0010686e-06 3.8957785e-21 0.00016957947 2.4279867e-21 0.00020004166)
(0.0002345789 5.1959825e-06 -5.5025101e-22 0.0001588279 2.376342e-21 0.00018732447)
(0.00022403304 4.2701077e-06 -5.8346253e-22 0.0001522992 2.2617792e-21 0.00017944204)
(0.00021933858 3.9772692e-06 4.5747815e-21 0.0001498901 3.1530157e-21 0.0001763045)
(0.00022148494 4.2328522e-06 -9.847638e-22 0.00015203595 -3.2010946e-21 0.00017854128)
(0.00023730802 4.7432214e-06 -3.9826504e-21 0.00016335616 2.5336058e-22 0.00019161442)
(0.00029933223 6.2602868e-06 -1.0901323e-21 0.0002057884 3.0005946e-21 0.0002414814)
(0.00039284055 8.071445e-06 -6.7116231e-23 0.00026997475 1.0037473e-23 0.00031680156)
(0.00055324126 1.1290731e-05 2.5132188e-21 0.00037974575 2.2424442e-21 0.0004458236)
(0.00073223982 1.4198241e-05 1.3534109e-20 0.00050597907 -2.7531693e-21 0.00059249674)
(0.0010095422 1.9248605e-05 -3.2345198e-20 0.00070748593 1.4550807e-20 0.00082472164)
(0.0011251933 2.093899e-05 -2.6215685e-20 0.00081589381 5.2557439e-21 0.00093956633)
(0.0010285731 1.89024e-05 1.5977988e-21 0.00079828932 1.4812059e-21 0.00089553432)
(0.00029453967 -3.267078e-05 -2.3110028e-22 0.00029970266 -6.1445197e-22 0.00029079634)
(0.0011719636 -0.0004599673 -1.5781966e-25 0.0014310282 4.7418031e-25 0.0010993456)
(0.0046416798 -0.0018027005 2.0992924e-24 0.0047270127 -4.4421242e-24 0.0039740815)
(0.008008203 -0.0028460133 -7.7685825e-21 0.0070189519 5.4915622e-21 0.0064332641)
(0.00068254806 0.00014877911 -5.365498e-22 0.00058369013 -9.4105826e-22 0.00058370888)
(0.00059515977 0.00011984402 -7.9274959e-23 0.00049342557 -4.3609527e-23 0.00050438844)
(0.00056240507 0.00010051384 5.8515975e-21 0.00043900815 2.948516e-21 0.00046461029)
(0.00056005277 8.5359501e-05 2.621714e-21 0.00041442678 2.8806939e-21 0.00045362617)
(0.00055539273 7.026131e-05 -1.3339892e-20 0.00039057101 -3.587672e-21 0.00044075723)
(0.00054206063 5.5650625e-05 2.5040553e-21 0.00036656669 -5.9626161e-21 0.00042361773)
(0.00051584017 4.2289491e-05 -4.3547559e-21 0.0003385624 -3.4544516e-21 0.00039823045)
(0.00048302375 3.105799e-05 -4.8331343e-21 0.00031055023 -3.2958334e-21 0.00036978104)
(0.00044826763 2.2054468e-05 2.2564e-21 0.00028442638 -5.3013829e-21 0.00034141783)
(0.00041510494 1.5284874e-05 -4.0336372e-21 0.00026177129 -2.4093944e-21 0.00031563501)
(0.00038560749 1.0569218e-05 -1.9355648e-21 0.00024282608 -6.5647097e-21 0.00029338012)
(0.00036087194 7.5388842e-06 7.7691678e-21 0.00022783955 -3.6150658e-22 0.00027529434)
(0.00034511308 6.0120964e-06 7.3038595e-21 0.00021883545 -4.0723474e-22 0.00026418407)
(0.00033810711 5.5649792e-06 4.1722977e-21 0.00021580616 -2.1836654e-21 0.00026002114)
(0.00034157052 6.0579756e-06 -8.3477002e-21 0.00021927606 4.4607562e-21 0.00026369271)
(0.00036569165 6.9526612e-06 5.8415917e-21 0.00023628179 3.8990062e-21 0.00028345889)
(0.00045811523 9.3607294e-06 9.6577476e-21 0.00029726752 -8.3988865e-22 0.00035604547)
(0.00059435947 1.2228105e-05 -4.4949713e-21 0.000390171 -2.5728329e-21 0.00046532682)
(0.00082018476 1.7435455e-05 1.1687687e-20 0.00054551521 -6.8331454e-21 0.00064757726)
(0.0010619237 2.2668504e-05 -7.7555849e-21 0.00072703479 -4.7922515e-21 0.00085394482)
(0.0014143535 3.1247138e-05 2.1440386e-20 0.0010058617 1.5057908e-20 0.0011659052)
(0.0015564161 2.8467322e-05 -1.4594125e-20 0.0011797223 3.6077395e-20 0.0013355112)
(0.0013960725 4.3735608e-06 2.7155932e-20 0.0011634571 -2.1253797e-20 0.0012670699)
(0.00043632028 -9.3840918e-05 -6.6784303e-21 0.00050329745 7.4644412e-21 0.00043939849)
(0.0016921559 -0.00070325523 -4.1406398e-23 0.0020261934 1.1329282e-22 0.0015418756)
(0.0060334577 -0.0023398437 -1.5145584e-22 0.0059953256 1.4069557e-22 0.0051064593)
(0.0094662229 -0.0033143736 1.1005164e-19 0.0082023118 -2.0861538e-20 0.0076277894)
(0.00096191451 0.00022392486 -7.436305e-22 0.00080307577 -1.1991338e-21 0.00080104016)
(0.00084652479 0.00018431947 -2.1732037e-24 0.00068061838 -5.0462914e-25 0.00069496189)