/*--------------------------------*- C++ -*----------------------------------*\
| =========                 |                                                 |
| \\      /  F ield         | OpenFOAM: The Open Source CFD Toolbox           |
|  \\    /   O peration     | Version:  2.4.0                                 |
|   \\  /    A nd           | Web:      www.OpenFOAM.org                      |
|    \\/     M anipulation  |                                                 |
\*---------------------------------------------------------------------------*/
FoamFile
{
    version     2.0;
    format      ascii;
    class       volVectorField;
    location    "35000";
    object      U;
}
// * * * * * * * * * * * * * * * * * * * * * * * * * * * * * * * * * * * * * //

dimensions      [0 1 -1 0 0 0 0];

internalField   nonuniform List<vector> 
15600
(
(0.021255731 -0.00010995169 -1.093883e-23)
(0.023764197 1.1374877e-05 0)
(0.068191481 -0.00030267107 -6.8601454e-24)
(0.073955534 -0.0001087729 6.5700102e-24)
(0.12095265 -0.00063780693 -1.7823641e-23)
(0.12842129 -0.00029172902 0)
(0.17957977 -0.0010600899 -6.4898269e-24)
(0.18765569 -0.00052060663 3.5209806e-23)
(0.24320027 -0.0015373221 -8.4084522e-24)
(0.25156333 -0.00073559175 -2.1266348e-23)
(0.30920891 -0.0020107469 2.5616883e-24)
(0.31852287 -0.00087399628 0)
(0.37358464 -0.0024482013 -2.3201516e-24)
(0.38526347 -0.00089770699 0)
(0.432863 -0.002826174 -3.6056553e-23)
(0.44833536 -0.00078600802 1.1275437e-23)
(0.48542204 -0.0031098532 1.1351419e-24)
(0.50550761 -0.00051449921 7.774693e-23)
(0.53103901 -0.0032786668 6.446225e-24)
(0.55579936 -7.8923612e-05 -7.520842e-23)
(0.57010662 -0.0033319685 4.5870374e-24)
(0.59893828 0.00049947904 -5.6873426e-23)
(0.6032536 -0.003279157 -3.9122047e-24)
(0.63516598 0.0011901051 4.8533262e-23)
(0.63121144 -0.0031342545 0)
(0.66519507 0.0019631636 4.1200813e-23)
(0.65473673 -0.0029128948 0)
(0.68993376 0.0027935757 -3.5267612e-23)
(0.67455793 -0.0026295002 6.8052223e-24)
(0.71032488 0.0036632441 -7.5636164e-24)
(0.69133601 -0.0022957182 1.447497e-23)
(0.72723036 0.0045599308 0)
(0.70564109 -0.0019201289 -9.2206625e-25)
(0.74137686 0.0054761901 -5.6563227e-24)
(0.71794699 -0.0015091216 -5.7315716e-24)
(0.75334755 0.0064077182 0)
(0.72863299 -0.0010654731 0)
(0.76359995 0.0073517048 0)
(0.73800679 -0.00060675457 -1.8865117e-23)
(0.77248746 0.0083204385 0)
(-0.0045764954 0.00026079189 0)
(-0.0042103906 0.00043575728 -1.5516367e-19)
(-0.0035829541 0.00068923876 -3.1918117e-19)
(-0.0039791942 0.0011444427 -3.8635798e-23)
(-0.0041433462 0.0015722472 6.3461264e-19)
(-0.0044382178 0.0020506267 -1.5261047e-22)
(-0.0045037983 0.0023963049 6.1579173e-19)
(-0.004485665 0.0026595568 6.0439423e-19)
(-0.0043610278 0.0028206932 0)
(-0.0042457581 0.002940534 7.0525569e-23)
(-0.0040970806 0.0029879214 5.7230057e-19)
(-0.0040059778 0.0030286825 -5.6359605e-19)
(-0.0038962833 0.003008629 5.5254781e-19)
(-0.0039098039 0.0030390861 -6.4176377e-23)
(-0.0038307011 0.0029740119 -5.312796e-19)
(-0.0040361276 0.0031397737 -5.2603401e-19)
(-0.0041589542 0.0032567891 0)
(-0.0048172704 0.0038139819 4.983076e-19)
(-0.0051411592 0.0041341352 4.5656391e-19)
(-0.0064231669 0.005261607 0)
(-0.0071427942 0.005929565 -7.2311555e-19)
(-0.00930239 0.00737924 3.3884215e-19)
(-0.0088097482 0.0062385905 2.3101551e-23)
(-0.012128744 0.0069637343 2.028659e-19)
(-0.0048271664 0.0020360516 1.5745861e-19)
(0.011766215 -0.0027855177 -1.7564661e-19)
(0.03396146 -0.0026577869 1.6054908e-19)
(-0.014062857 0.00081245671 0)
(-0.012904505 0.001346924 2.4226159e-19)
(-0.01107093 0.002127285 4.9889263e-19)
(-0.012126479 0.0034814799 -6.0680075e-23)
(-0.012580539 0.0047670635 -9.9135876e-19)
(-0.013399258 0.0061876453 0)
(-0.013579575 0.0072254908 9.6191724e-19)
(-0.01351516 0.0080157343 -9.4432399e-19)
(-0.013145941 0.0085064285 1.1418809e-22)
(-0.012797393 0.0088679562 2.2022916e-22)
(-0.012356132 0.0090159565 -1.2758137e-23)
(-0.012076352 0.0091348032 -2.0883408e-22)
(-0.011750956 0.0090773222 2.0907591e-22)
(-0.011773428 0.009154982 8.5013382e-19)
(-0.011549451 0.0089667873 -8.2901664e-19)
(-0.012124702 0.0094287305 8.2098079e-19)
(-0.012496078 0.0097751701 0)
(-0.014365748 0.011360251 7.7751072e-19)
(-0.015341624 0.012314462 -1.4245503e-18)
(-0.018960254 0.015517269 3.2577611e-22)
(-0.021074133 0.017477486 5.6317247e-19)
(-0.027061826 0.02152362 9.7949359e-23)
(-0.025847348 0.018306851 2.7410952e-19)
(-0.03431214 0.019905524 3.1520657e-19)
(-0.0099918653 0.0045814936 -2.4479354e-19)
(0.040032815 -0.0090910872 2.7236667e-19)
(0.099664991 -0.0077910382 -2.4881306e-19)
(-0.024129342 0.0014155294 1.2958691e-19)
(-0.022096823 0.0023245327 -2.5417875e-19)
(-0.019080323 0.0036689331 -6.3035553e-23)
(-0.02066497 0.0059213897 0)
(-0.021371671 0.0080857156 1.0408566e-18)
(-0.022654978 0.010450393 -1.2418958e-22)
(-0.022934318 0.012197362 -1.0094904e-18)
(-0.022811604 0.013528096 0)
(-0.022197849 0.014365041 0)
(-0.021608274 0.014976386 -9.5534336e-19)
(-0.020873463 0.015234298 -9.3754812e-19)
(-0.020394001 0.015429909 9.2315471e-19)
(-0.019852655 0.015337532 9.0453163e-19)
(-0.019864921 0.015448415 0)
(-0.019506886 0.015141678 1.7397317e-18)
(-0.020415636 0.015866284 -1.4386221e-23)
(-0.02104354 0.016439557 0)
(-0.024036938 0.0189778 -8.1512418e-19)
(-0.025681774 0.020567506 1.4928258e-18)
(-0.031452744 0.025678676 -7.2933428e-19)
(-0.034943514 0.028898285 0)
(-0.04435302 0.03523134 0)
(-0.042629008 0.030150827 -9.8937481e-23)
(-0.054777488 0.031945177 -3.29731e-19)
(-0.010237099 0.0054924565 -5.4845995e-23)
(0.073878146 -0.016192277 2.8216463e-19)
(0.16479349 -0.01276797 2.5887973e-19)
(-0.03480512 0.0020732197 -1.3578104e-19)
(-0.031815698 0.0033723468 2.6658824e-19)
(-0.027645765 0.0053210346 1.3390713e-22)
(-0.029612893 0.0084707065 5.4622886e-19)
(-0.030526214 0.011532887 0)
(-0.032204722 0.014840412 2.6062763e-22)
(-0.032563558 0.017311243 -2.6066257e-22)
(-0.032369014 0.019194561 -1.0401067e-18)
(-0.03151126 0.020394322 4.9826101e-22)
(-0.030672965 0.021263555 1.0018864e-18)
(-0.029644446 0.021641037 0)
(-0.028954051 0.021911767 -2.3405776e-22)
(-0.028196945 0.021787205 -9.4810278e-19)
(-0.02817802 0.021915995 -9.3594953e-19)
(-0.027697222 0.021495329 2.1231441e-22)
(-0.028897502 0.02244507 -2.3653119e-22)
(-0.029786445 0.023239743 2.1006994e-22)
(-0.033800989 0.026645499 -2.0994693e-22)
(-0.036122365 0.028864767 -7.8199405e-19)
(-0.043828413 0.035697741 7.6332459e-19)
(-0.048651858 0.040127457 -1.4590654e-22)
(-0.061025379 0.048420952 1.4548199e-22)
(-0.058982097 0.041676978 -3.0003769e-19)
(-0.073201248 0.042998682 0)
(-0.004921375 0.0045734518 0)
(0.11318319 -0.024098137 -2.9114533e-19)
(0.22952974 -0.017594708 1.0060872e-22)
(-0.046111561 0.0027891517 0)
(-0.042086585 0.0044948219 0)
(-0.03679847 0.0070910605 0)
(-0.038988413 0.011135361 -1.1462861e-18)
(-0.040052294 0.015111655 2.7864847e-22)
(-0.04204693 0.019356654 -1.3870304e-22)
(-0.042460907 0.022563305 0)
(-0.042179034 0.02500989 2.180964e-18)
(-0.041077828 0.026588772 0)
(-0.03998332 0.027723882 -2.5411738e-22)
(-0.038661579 0.028230894 2.5403732e-22)
(-0.037749014 0.02857496 0)
(-0.036776526 0.028421007 0)
(-0.036704176 0.028551227 -2.2534834e-22)
(-0.036111378 0.028020841 -1.9120671e-18)
(-0.037556609 0.029154139 -1.8925725e-18)
(-0.038705836 0.030160504 0)
(-0.04362577 0.034336764 0)
(-0.046616815 0.037168078 8.1809683e-19)
(-0.056014248 0.045512418 -1.7633818e-22)
(-0.062091948 0.051075581 -6.4312883e-19)
(-0.076940804 0.06097827 1.1182281e-22)
(-0.074702732 0.052753466 -1.1175555e-22)
(-0.089275715 0.052946396 1.0232244e-23)
(0.0064992217 0.0016658993 -1.0060075e-23)
(0.15745329 -0.032693242 0)
(0.2938004 -0.022234059 0)
(-0.058053635 0.0035659065 -1.4877549e-19)
(-0.05292582 0.0056955779 7.2046366e-23)
(-0.046561031 0.0089847792 -6.0454123e-19)
(-0.048805027 0.01392034 1.2001925e-18)
(-0.04995221 0.018823154 -1.1996125e-18)
(-0.052174419 0.02399585 5.7649479e-22)
(-0.052613499 0.027946551 1.1628644e-18)
(-0.052226698 0.030965136 -1.1417556e-18)
(-0.050882436 0.032938686 -1.1200085e-18)
(-0.049524777 0.034347523 1.1002645e-18)
(-0.04791103 0.034994167 -2.659947e-22)
(-0.046765566 0.035409847 0)
(-0.04557818 0.035229228 -2.5238999e-22)
(-0.045429478 0.035343661 1.0272658e-18)
(-0.044733976 0.034706651 1.0011614e-18)
(-0.046373488 0.035978376 9.9055966e-19)
(-0.047774497 0.037180589 -2.3020311e-22)
(-0.053470854 0.042019138 2.2978227e-22)
(-0.057103102 0.045427823 -8.5384845e-19)
(-0.067920544 0.055049611 8.304179e-19)
(-0.075126274 0.061631013 6.6854708e-19)
(-0.091933327 0.072774026 6.2495618e-19)
(-0.089532323 0.063213916 3.2549595e-19)
(-0.1026578 0.061667733 3.7194416e-19)
(0.02435468 -0.003299478 -2.7675031e-19)
(0.20563206 -0.041734246 0)
(0.3566145 -0.026588418 0)
(-0.070603667 0.0044040245 -6.8699272e-23)
(-0.06432799 0.0069759427 -3.606521e-25)
(-0.056936477 0.01100443 6.3094148e-19)
(-0.059062131 0.016826935 -1.2524776e-18)
(-0.060213816 0.022663331 2.5033355e-18)
(-0.062566493 0.028748667 1.2318488e-18)
(-0.062994706 0.033446719 -1.213673e-18)
(-0.062483708 0.037043439 1.1922623e-18)
(-0.060897016 0.039425953 6.6374903e-23)
(-0.059270708 0.04111625 -1.1490057e-18)
(-0.057367464 0.041912744 0)
(-0.055979746 0.042398746 0)
(-0.054578211 0.042194105 -1.0873141e-18)
(-0.054330247 0.042275305 1.0729135e-18)
(-0.053538878 0.041532961 -2.541223e-22)
(-0.055318184 0.042894714 5.0130088e-22)
(-0.056951129 0.044268121 -2.4679589e-22)
(-0.06327996 0.049648208 -9.7416596e-19)
(-0.067493054 0.053574329 -8.8635637e-19)
(-0.079426974 0.064212483 -1.4751766e-22)
(-0.08756808 0.071642905 0)
(-0.10578729 0.083640936 -6.4301624e-19)
(-0.10313806 0.072843444 -6.7103501e-19)
(-0.11293756 0.06900995 -3.8428935e-19)
(0.048590237 -0.010239371 2.7910715e-19)
(0.25594996 -0.050829677 0)
(0.4159288 -0.030507775 0)
(-0.083674957 0.0053002378 -1.0572432e-22)
(-0.07624427 0.0083325838 7.7610582e-23)
(-0.067889161 0.013144951 0)
(-0.069728022 0.019847888 5.9394775e-23)
(-0.070795195 0.026617203 -1.2977362e-18)
(-0.073174925 0.033593333 -1.2778107e-18)
(-0.073551388 0.039035579 -1.2600487e-18)
(-0.072896767 0.043213155 -1.0749791e-22)
(-0.071069931 0.046017216 1.2150017e-18)
(-0.069172727 0.047996758 0)
(-0.066985155 0.048953654 -1.1730678e-18)
(-0.065348721 0.049509736 4.9938244e-24)
(-0.063734664 0.049283846 1.1318736e-18)
(-0.063365474 0.049314793 -2.2336618e-18)
(-0.06248159 0.048465922 -2.6927734e-22)
(-0.064342185 0.049866009 1.0757494e-18)
(-0.066170593 0.051373203 2.5608658e-22)
(-0.072968501 0.0571582 1.0074008e-18)
(-0.077655996 0.061505329 1.8238394e-18)
(-0.090362285 0.072864965 -8.777235e-19)
(-0.099158994 0.080903688 -1.8986336e-22)
(-0.11821311 0.09335625 -1.2066942e-22)
(-0.11509919 0.081369655 3.4000481e-19)
(-0.1195882 0.074755455 9.007313e-23)
(0.078586495 -0.018854272 0)
(0.30616185 -0.059511371 9.0279213e-23)
(0.46963013 -0.033862821 2.1014137e-19)
(-0.097087826 0.0062452158 3.2443153e-19)
(-0.088552211 0.0097541755 0)
(-0.079317052 0.01538859 -1.6315534e-22)
(-0.080714909 0.022960179 5.685889e-22)
(-0.081602465 0.030650461 1.3298424e-18)
(-0.083904053 0.038486437 1.3105263e-18)
(-0.08418599 0.044661394 1.2948389e-18)
(-0.083371286 0.04941817 -4.5319772e-22)
(-0.081311093 0.052654219 6.0566945e-22)
(-0.07914703 0.054931167 1.231752e-18)
(-0.076685402 0.056059845 1.2100274e-18)
(-0.074799054 0.056687762 0)
(-0.072976172 0.056444012 0)
(-0.072465906 0.056408933 2.3098031e-18)
(-0.071488381 0.055449243 0)
(-0.073366903 0.056832243 -1.1107852e-18)
(-0.075330474 0.058417686 0)
(-0.082407577 0.064449807 4.8162837e-22)
(-0.087400963 0.069072251 -5.1530703e-22)
(-0.10048791 0.080818964 8.7832713e-19)
(-0.1095642 0.089145164 -6.8616432e-19)
(-0.12885198 0.10164508 -6.3549543e-19)
(-0.12492943 0.088479067 0)
(-0.12190603 0.078575252 0)
(0.11307322 -0.028605708 0)
(0.35419226 -0.067370682 -8.0362125e-23)
(0.51663891 -0.036596702 -9.316911e-22)
(-0.110543 0.0072214521 -1.6139075e-19)
(-0.10102684 0.011217969 -7.937024e-23)
(-0.09102301 0.017699152 6.7415968e-19)
(-0.091852467 0.026117256 6.6984685e-19)
(-0.092466793 0.034700662 -1.3398477e-18)
(-0.094590572 0.043353503 -2.3034585e-22)
(-0.094738481 0.050239223 0)
(-0.093754725 0.055567929 -1.2923788e-18)
(-0.091476455 0.059243677 6.2627877e-22)
(-0.089059811 0.061826828 -1.2537945e-18)
(-0.086342774 0.063140078 0)
(-0.084213572 0.063844655 1.2193341e-18)
(-0.082189285 0.063587702 1.1954546e-18)
(-0.081521484 0.063472961 1.6377991e-24)
(-0.080443767 0.062394554 -1.1504261e-18)
(-0.08227064 0.063700633 1.133322e-18)
(-0.084277304 0.065284778 1.0685766e-18)
(-0.091410532 0.071380155 0)
(-0.096470188 0.076075418 -4.0266075e-23)
(-0.10950657 0.087841642 -8.5062663e-19)
(-0.11841908 0.096077046 1.298371e-18)
(-0.13734924 0.10823899 5.9667609e-19)
(-0.13215471 0.0938761 2.2548413e-22)
(-0.11893549 0.079975153 0)
(0.15017491 -0.038735611 0)
(0.39864882 -0.074154505 0)
(0.55698345 -0.038730652 -9.6511253e-22)
(-0.12363056 0.008203083 -7.5523289e-23)
(-0.11333569 0.012688638 7.7459592e-23)
(-0.10270515 0.020019684 -6.6165039e-19)
(-0.10287775 0.029245724 -8.5095106e-25)
(-0.10313667 0.03867399 1.3161779e-18)
(-0.10499726 0.048085801 -1.3012088e-18)
(-0.10498063 0.055647602 0)
(-0.10383044 0.061533522 -6.1997525e-22)
(-0.10136122 0.065652641 -1.2642575e-18)
(-0.098719799 0.068550924 0)
(-0.095777166 0.070062923 -1.2362102e-18)
(-0.093422998 0.070852637 -1.224204e-18)
(-0.091209889 0.070588819 -1.201605e-18)
(-0.09037242 0.07038356 -1.1874561e-18)
(-0.089181793 0.069174651 2.3124193e-18)
(-0.090880013 0.070339166 -5.1030819e-22)
(-0.092801295 0.071815202 -1.0586236e-18)
(-0.099735659 0.077765227 4.9440099e-22)
(-0.1045653 0.082284982 -8.6655779e-19)
(-0.11712225 0.093703979 -3.4960226e-22)
(-0.12544656 0.10148416 -2.3374235e-22)
(-0.14350702 0.11299787 5.3388438e-19)
(-0.13653094 0.097446938 -2.8772842e-19)
(-0.109749 0.078484824 3.8546676e-19)
(0.18785453 -0.048448097 -8.6695262e-23)
(0.43887565 -0.07976807 1.7807034e-22)
(0.59128394 -0.040332864 -1.2554172e-19)
(-0.13589645 0.0091597153 0)
(-0.12508154 0.014122447 1.4740685e-22)
(-0.11399009 0.022278525 -1.5185794e-22)
(-0.11346355 0.032253124 0)
(-0.11330524 0.042455336 -3.4853357e-22)
(-0.11483818 0.052551751 1.2439937e-18)
(-0.11463823 0.060740186 1.2409514e-18)
(-0.11333611 0.067158398 6.0982251e-22)
(-0.11071446 0.071717714 1.2277994e-18)
(-0.1078893 0.074937872 -6.0111014e-22)
(-0.10476201 0.076662503 2.4184483e-18)
(-0.10221182 0.07754854 1.1722545e-21)
(-0.099827709 0.077285347 -9.7235381e-24)
(-0.09881274 0.076981483 -5.7422979e-22)
(-0.097490146 0.075626612 -1.1364422e-18)
(-0.098975765 0.076581164 -1.1070917e-18)
(-0.10065261 0.077819908 -5.0767509e-22)
(-0.10712122 0.08340727 9.4731754e-19)
(-0.11141975 0.087498383 0)
(-0.12314835 0.098267684 3.111442e-22)
(-0.13059026 0.10533516 -5.0884549e-19)
(-0.1474206 0.11601619 -9.1475189e-19)
(-0.13815295 0.099329762 2.5125882e-19)
(-0.094658709 0.074276613 -7.353713e-19)
(0.22510544 -0.057404236 -2.0019211e-23)
(0.47474089 -0.084229785 -1.0074315e-22)
(0.62034091 -0.041483573 7.7501587e-23)
(-0.14695013 0.010063691 1.3303539e-19)
(-0.13588921 0.015476904 1.3547815e-22)
(-0.12451037 0.024404483 -4.2479854e-22)
(-0.12328791 0.035048073 -5.7951637e-19)
(-0.12267527 0.045933127 -1.1633209e-18)
(-0.12383829 0.056624717 -2.3079709e-18)
(-0.12344535 0.065374862 -2.3148135e-18)
(-0.12201177 0.072287112 5.7154241e-22)
(-0.11928101 0.077272361 -1.1563865e-18)
(-0.11632036 0.080814476 0)
(-0.11305561 0.082761381 -1.285321e-22)
(-0.1103456 0.083754459 1.1484781e-18)
(-0.10781129 0.083498625 1.131071e-18)
(-0.10661405 0.083089997 1.1190723e-18)
(-0.10513513 0.081571158 1.0858157e-18)
(-0.10632191 0.082247845 -1.0185719e-21)
(-0.10758699 0.083115436 1.2787242e-23)
(-0.11335422 0.088148225 -8.589833e-19)
(-0.11689233 0.091613743 3.3731403e-22)
(-0.12759611 0.1015543 -2.9814306e-22)
(-0.13404538 0.10780359 0)
(-0.14945117 0.11759707 3.8194404e-19)
(-0.13736676 0.099841397 -4.0466779e-23)
(-0.074213311 0.067679454 3.4488653e-19)
(0.26123211 -0.06539713 1.9426108e-23)
(0.50641761 -0.087622775 0)
(0.64494635 -0.042258417 8.8562027e-20)
(-0.15655696 0.01089655 -1.1790934e-19)
(-0.14549446 0.016720946 -2.4507593e-19)
(-0.13399001 0.026343771 0)
(-0.13211245 0.037563111 1.0458448e-18)
(-0.13103242 0.049027454 0)
(-0.13180211 0.060215186 2.083297e-18)
(-0.1312094 0.069449005 2.0975167e-18)
(-0.12966129 0.076802429 -5.1127684e-22)
(-0.12685876 0.082184553 1.0609348e-18)
(-0.12380747 0.08603701 1.0650181e-18)
(-0.12044977 0.088206527 -1.5868821e-22)
(-0.11761608 0.089312237 -2.1356355e-18)
(-0.11495114 0.089066985 -1.0537739e-18)
(-0.11356821 0.088548305 -1.0406759e-18)
(-0.11190622 0.08684737 -1.0074177e-18)
(-0.112716 0.087187183 9.6576792e-19)
(-0.11342964 0.087573019 8.5178417e-19)
(-0.11834156 0.091924028 3.5278255e-22)
(-0.12101688 0.09466678 -1.6534074e-23)
(-0.13066284 0.10373199 -5.0670356e-19)
(-0.13615181 0.10917691 -3.5383256e-19)
(-0.15005055 0.11811315 -1.1825385e-22)
(-0.13452397 0.099307932 2.2891845e-22)
(-0.049034353 0.059055075 -3.2185979e-19)
(0.2958034 -0.072336659 1.8872832e-23)
(0.53423503 -0.090058129 0)
(0.6658186 -0.042723637 -1.5204094e-19)
(-0.16466622 0.011651126 -9.9445878e-23)
(-0.15378737 0.017839888 2.1590499e-19)
(-0.14229207 0.028069202 4.6665873e-19)
(-0.13982579 0.039767091 -2.7284533e-23)
(-0.13828566 0.051705273 -9.2714496e-19)
(-0.13865309 0.063288995 -9.2174571e-19)
(-0.13785218 0.072921521 -9.3101811e-19)
(-0.13619588 0.080651509 -9.410299e-19)
(-0.13334393 0.086386575 0)
(-0.13023359 0.090523631 -9.5870546e-19)
(-0.12681586 0.092903434 -9.63093e-19)
(-0.12388683 0.094118473 1.9362341e-18)
(-0.12110568 0.09388157 -7.7979727e-24)
(-0.11953386 0.093247957 -8.9269881e-24)
(-0.11766459 0.091350365 -4.5031198e-22)
(-0.11804095 0.091313465 -1.7266669e-18)
(-0.11812426 0.091155358 3.7090782e-22)
(-0.12213442 0.094781454 -3.1766492e-22)
(-0.12396772 0.096801087 0)
(-0.13263252 0.10503443 4.2159086e-19)
(-0.13725525 0.10974389 2.9344533e-19)
(-0.14960218 0.11788537 1.3274602e-22)
(-0.12979944 0.097935354 -1.6548354e-19)
(-0.019941136 0.048878729 2.9717578e-19)
(0.32859002 -0.078216353 0)
(0.55858951 -0.091655416 -7.8313515e-20)
(0.6835852 -0.042935207 6.7731406e-22)
(-0.17137417 0.012329596 -6.4935456e-25)
(-0.16079786 0.018834033 -9.3715384e-23)
(-0.14941276 0.029578898 1.5645907e-22)
(-0.1464369 0.041662936 -4.0622785e-19)
(-0.14445937 0.053976949 8.1285668e-19)
(-0.14442699 0.065863815 -3.9625269e-22)
(-0.14340755 0.075811227 -8.1440705e-19)
(-0.14163825 0.083848128 1.2300646e-21)
(-0.13874204 0.089881989 -4.1143056e-22)
(-0.13558699 0.094266017 0)
(-0.13212625 0.096831832 0)
(-0.12911819 0.098143412 -8.6064129e-19)
(-0.12622849 0.097907428 0)
(-0.12446506 0.097154941 -8.0797404e-22)
(-0.12237215 0.095053392 7.958702e-22)
(-0.12229026 0.094625817 7.5475223e-19)
(-0.12173606 0.093917364 -6.4092849e-19)
(-0.1248896 0.096846604 0)
(-0.12597597 0.09820203 0)
(-0.13377724 0.10568319 3.1094238e-22)
(-0.13763113 0.10973477 2.4526177e-19)
(-0.14836381 0.1171419 0)
(-0.12313346 0.095769575 1.4803688e-19)
(0.012218342 0.037632761 2.7686233e-19)
(0.35950248 -0.08308457 -9.1578377e-23)
(0.57989477 -0.092532291 1.319542e-19)
(0.69878177 -0.042939049 5.7345028e-20)
(-0.17685808 0.012939837 -5.4578928e-25)
(-0.16664684 0.019713801 -1.6393738e-19)
(-0.15544078 0.030888729 -3.5808648e-19)
(-0.15203636 0.043276771 3.5460601e-19)
(-0.14965416 0.055881632 0)
(-0.14923335 0.067991545 3.3990267e-22)
(-0.1479858 0.078178009 7.085225e-19)
(-0.14609191 0.086454556 -2.673891e-22)
(-0.14314379 0.092730063 7.1787872e-22)
(-0.13994377 0.097317277 -7.4132008e-19)
(-0.13644295 0.10003727 7.3767849e-22)
(-0.13336079 0.10142584 0)
(-0.13036459 0.10118016 -7.4611635e-19)
(-0.12840876 0.10030706 -7.3243765e-19)
(-0.12608509 0.098001903 7.0076273e-19)
(-0.12555314 0.09719545 6.5111556e-19)
(-0.12441027 0.095973296 0)
(-0.12680282 0.098273133 0)
(-0.12725981 0.09904279 0)
(-0.13431143 0.10585192 0)
(-0.13747252 0.10931225 -2.0864715e-19)
(-0.14647557 0.11602808 1.9291705e-19)
(-0.11423809 0.092687077 0)
(0.046819551 0.025662719 -5.1369953e-19)
(0.38854502 -0.087024267 1.7503955e-23)
(0.59855421 -0.092800226 -2.3526702e-21)
(0.71185676 -0.0427717 -4.9721932e-20)
(-0.18131741 0.013492055 0)
(-0.17149441 0.020494313 1.4312837e-19)
(-0.16051056 0.032023215 -3.1403176e-19)
(-0.15675335 0.044644937 3.7741913e-23)
(-0.15400454 0.057470085 6.1919385e-19)
(-0.15321317 0.069737318 0)
(-0.1517313 0.080098761 0)
(-0.14969961 0.088555402 4.1643265e-22)
(-0.1466857 0.095018976 6.345057e-19)
(-0.1434317 0.099765828 -3.4274552e-22)
(-0.13988458 0.10260635 0)
(-0.13672552 0.10404997 0)
(-0.13362135 0.10378346 7.0425479e-22)
(-0.13147503 0.10279116 1.272923e-18)
(-0.12892357 0.10029047 6.3649904e-22)
(-0.12797181 0.099133587 -5.5875229e-19)
(-0.12631744 0.097455848 -4.6575659e-19)
(-0.12805662 0.099203986 3.9284447e-19)
(-0.12799312 0.099461684 0)
(-0.13438715 0.10566495 0)
(-0.13690494 0.10858554 -1.7986759e-19)
(-0.14398127 0.11462822 1.105858e-22)
(-0.10258225 0.088406491 4.5370569e-23)
(0.083296329 0.013258132 4.8013005e-19)
(0.41578162 -0.090140217 1.7109522e-23)
(0.61494762 -0.092560123 -4.6264811e-20)
(0.72318132 -0.042462544 8.8431304e-20)
(-0.18493792 0.01399656 0)
(-0.17550233 0.021191822 -1.2417662e-22)
(-0.16476475 0.033010892 2.7614821e-19)
(-0.16072026 0.045808823 -5.4728209e-19)
(-0.15764291 0.058798507 -5.4465553e-19)
(-0.156502 0.071171159 0)
(-0.15478374 0.081655887 0)
(-0.15260288 0.090242657 5.4731387e-19)
(-0.14950875 0.096847417 -5.5346959e-19)
(-0.14618949 0.10171399 5.6266285e-19)
(-0.14258696 0.10464292 5.6915285e-19)
(-0.13934588 0.10611984 -5.7364045e-19)
(-0.13613234 0.1058218 -4.8406944e-22)
(-0.13380093 0.10471356 -5.5252083e-19)
(-0.13103201 0.10203 -5.2378359e-19)
(-0.12970077 0.10055813 0)
(-0.12761629 0.098486456 3.9923986e-19)
(-0.12879948 0.099753707 -3.3665493e-19)
(-0.12830404 0.099559317 2.6094849e-19)
(-0.13410797 0.10520535 -2.2013462e-19)
(-0.13600512 0.10762512 1.5832225e-19)
(-0.14083934 0.11299217 -3.0912667e-19)
(-0.087706011 0.082704948 4.3117772e-23)
(0.1210434 0.0007953725 -2.2367422e-19)
(0.44131214 -0.092519922 3.3494726e-23)
(0.62941285 -0.091884454 -3.6553183e-20)
(0.73305163 -0.042022214 -3.9607606e-20)
(-0.18787646 0.014461702 1.7525747e-22)
(-0.17881671 0.021818181 -2.5799612e-22)
(-0.16833981 0.033866723 4.1970542e-22)
(-0.16406835 0.046786603 6.3387478e-24)
(-0.16070345 0.059890906 5.4559387e-22)
(-0.15923736 0.072327924 -5.3947651e-22)
(-0.15728534 0.082896149 5.4546976e-19)
(-0.15494685 0.09157499 -5.4661877e-19)
(-0.15175884 0.098285152 5.4770418e-19)
(-0.14836004 0.10324258 5.533693e-19)
(-0.14468884 0.10623705 -5.5485087e-19)
(-0.14135451 0.1077345 1.7666559e-22)
(-0.13802571 0.10740153 5.4132628e-19)
(-0.13551 0.1061881 -5.0734932e-22)
(-0.13253664 0.10333774 9.6898773e-22)
(-0.13086468 0.10158909 -4.5004922e-19)
(-0.12842537 0.099176197 1.0188317e-23)
(-0.12912819 0.10002446 3.0758365e-22)
(-0.12826986 0.099420273 -2.4261554e-19)
(-0.13352451 0.10455024 2.0447846e-19)
(-0.13480465 0.10649338 -1.4828231e-19)
(-0.13693723 0.11111189 1.4987236e-19)
(-0.069219806 0.075212638 0)
(0.15904497 -0.011457144 0)
(0.46531533 -0.094405674 6.6233213e-20)
(0.64228091 -0.090955398 6.7990892e-20)
(0.74172355 -0.04153852 1.6145866e-23)
(-0.0017094771 -4.7899288e-07 2.2651868e-26)
(-0.0020317284 -5.4904908e-07 0)
(-0.002407923 -4.5916571e-07 1.2193485e-24)
(-0.0027494209 -4.7633406e-07 -1.3950853e-24)
(-0.0031435398 -4.0023692e-07 0)
(-0.0035098765 -3.8492696e-07 2.3067791e-24)
(-0.0039133519 -3.1017046e-07 -2.6401629e-24)
(-0.0042987598 -2.6904588e-07 0)
(-0.0047066967 -1.892928e-07 -4.9395617e-24)
(-0.0051027693 -1.259024e-07 4.9394175e-24)
(-0.005509202 -3.6443763e-08 5.9427166e-25)
(-0.0059056317 4.6668846e-08 0)
(-0.0063022654 1.4872051e-07 0)
(-0.0066865642 2.5116227e-07 -8.5692906e-24)
(-0.0070601189 3.6765937e-07 8.0422487e-24)
(-0.0074160516 4.8530092e-07 0)
(-0.0077506096 6.1336977e-07 4.904725e-25)
(-0.0080607803 7.4195569e-07 6.4581947e-24)
(-0.008337049 8.7864118e-07 -7.4019264e-24)
(-0.0085807246 1.0122474e-06 -7.6744795e-24)
(-0.0087751097 1.1514171e-06 7.6368807e-24)
(-0.0089288947 1.2818404e-06 6.2201066e-24)
(-0.0090127283 1.4159871e-06 -1.2918646e-23)
(-0.0090501355 1.5346377e-06 6.6645608e-24)
(-0.0089859374 1.655356e-06 6.916676e-25)
(-0.0088760714 1.7609975e-06 0)
(-0.0086000989 1.8673587e-06 -6.3220705e-25)
(-0.008291616 1.996556e-06 6.0999623e-25)
(-0.0076521023 2.0609114e-06 0)
(-0.0070785215 2.5437038e-06 5.7654808e-25)
(-0.0054790385 1.6580997e-06 -1.783498e-23)
(-0.0048219842 -7.8706906e-06 -1.0889312e-24)
(-0.0057898206 -8.7974052e-06 1.1242147e-24)
(-0.0069141698 -8.8002133e-06 2.7444001e-25)
(-0.0079409047 -9.2396877e-06 5.4023845e-25)
(-0.0091184647 -9.3832426e-06 1.0604164e-24)
(-0.01021899 -9.649248e-06 -6.6816513e-24)
(-0.011425343 -9.785095e-06 8.2425318e-24)
(-0.012582316 -9.9388755e-06 0)
(-0.013803189 -1.001629e-05 7.7095604e-24)
(-0.014991844 -1.0062361e-05 -7.7088085e-24)
(-0.016209606 -1.0041516e-05 -2.7822028e-24)
(-0.017399777 -9.9649754e-06 1.8045929e-24)
(-0.018589948 -9.8068878e-06 0)
(-0.019745052 -9.5557244e-06 -1.698797e-24)
(-0.020868657 -9.20489e-06 8.2181807e-25)
(-0.021941191 -8.7531125e-06 1.0884382e-23)
(-0.022951442 -8.1877841e-06 -2.5247791e-23)
(-0.023890266 -7.4989338e-06 1.9364435e-24)
(-0.024730525 -6.6701905e-06 4.6548963e-25)
(-0.025474604 -5.6971573e-06 1.8209178e-24)
(-0.026075636 -4.5610955e-06 9.3165164e-24)
(-0.026555747 -3.251565e-06 7.2199445e-24)
(-0.02683349 -1.7505582e-06 -8.5170037e-24)
(-0.026970659 -1.8927114e-08 1.1314867e-24)
(-0.0268156 1.9410243e-06 1.3655188e-23)
(-0.026517166 4.3664579e-06 -1.4826044e-23)
(-0.025744651 7.1295279e-06 9.8609632e-25)
(-0.024854601 1.119882e-05 -2.8545201e-24)
(-0.023026968 1.5210747e-05 0)
(-0.021329862 2.5920946e-05 8.9951387e-25)
(-0.016745969 3.1217961e-05 2.7838135e-23)
(-0.0076580638 -2.4722298e-05 1.105634e-24)
(-0.0092871206 -2.7269774e-05 -1.765537e-24)
(-0.011171758 -2.7508477e-05 -5.147269e-24)
(-0.0129015 -2.8641912e-05 8.4964608e-24)
(-0.014874811 -2.9225392e-05 -5.6044536e-24)
(-0.016727584 -2.989531e-05 -1.0921579e-24)
(-0.018750358 -3.0388027e-05 0)
(-0.020696959 -3.0760158e-05 0)
(-0.022745788 -3.1027227e-05 2.0457963e-24)
(-0.024745243 -3.1096505e-05 -1.9967992e-24)
(-0.026790871 -3.1033337e-05 1.9450566e-24)
(-0.028793554 -3.0741324e-05 1.8922671e-24)
(-0.030795416 -3.0240156e-05 -1.4474555e-23)
(-0.0327411 -2.9420648e-05 2.2352018e-24)
(-0.03463492 -2.8321747e-05 2.7566715e-23)
(-0.036445476 -2.6889915e-05 -1.1884508e-23)
(-0.038154002 -2.5133099e-05 -1.2591594e-23)
(-0.039744973 -2.2974532e-05 2.1606592e-23)
(-0.041174763 -2.0418268e-05 -1.5066778e-23)
(-0.042445225 -1.7385901e-05 -1.1126011e-23)
(-0.043482115 -1.390556e-05 2.1768622e-23)
(-0.044317096 -9.8335566e-06 -8.0415489e-24)
(-0.044822541 -5.2677409e-06 0)
(-0.045090018 1.205253e-07 2.3719871e-24)
(-0.044883687 6.0241749e-06 -2.261628e-24)
(-0.044427486 1.3584761e-05 2.1647796e-24)
(-0.043208604 2.1818638e-05 4.1345569e-24)
(-0.0417641 3.4531874e-05 1.9947314e-24)
(-0.038821979 4.6353396e-05 0)
(-0.036004574 7.9578657e-05 -1.6724395e-23)
(-0.028602498 9.5087914e-05 1.4845923e-23)
(-0.010159402 -5.1613035e-05 0)
(-0.01246416 -5.653542e-05 -1.8219671e-24)
(-0.015119317 -5.7306802e-05 3.0393061e-24)
(-0.017568664 -5.9437029e-05 0)
(-0.020348018 -6.0819273e-05 2.3319944e-24)
(-0.022969718 -6.2080411e-05 0)
(-0.025820486 -6.3208892e-05 0)
(-0.028573251 -6.3913761e-05 8.6762222e-24)
(-0.031463198 -6.453552e-05 -1.0817201e-23)
(-0.03429011 -6.4652486e-05 2.0917841e-24)
(-0.037178466 -6.4572164e-05 -1.6079312e-23)
(-0.040011 -6.3967502e-05 1.2111329e-23)
(-0.042841321 -6.2975217e-05 1.1310865e-23)
(-0.045596232 -6.1300815e-05 -2.9835613e-23)
(-0.048279536 -5.9079101e-05 1.4676763e-23)
(-0.050848962 -5.61524e-05 0)
(-0.05327815 -5.2579449e-05 6.7184415e-24)
(-0.055544983 -4.8160377e-05 3.2322516e-24)
(-0.057590629 -4.2950411e-05 3.1036954e-24)
(-0.059414748 -3.6730515e-05 0)
(-0.060918768 -2.9629815e-05 -2.228746e-23)
(-0.06213982 -2.1258086e-05 4.3581199e-23)
(-0.062910451 -1.1940582e-05 -2.1294668e-23)
(-0.063343144 -8.2736056e-07 -4.9675648e-24)
(-0.063130467 1.1209357e-05 4.7365611e-24)
(-0.062553005 2.6828606e-05 -2.2261102e-23)
(-0.060946026 4.3583922e-05 1.3398379e-23)
(-0.058982163 6.9862276e-05 -1.6379128e-23)
(-0.055012152 9.3947701e-05 1.6382418e-23)
(-0.051088296 0.00016213805 0)
(-0.041061603 0.00019321231 -3.1200347e-23)
(-0.012258871 -8.9697784e-05 3.2556591e-25)
(-0.015251654 -9.778835e-05 3.1887412e-24)
(-0.018684583 -9.9411735e-05 -1.2835983e-24)
(-0.021867796 -0.00010287192 2.4835406e-24)
(-0.025460324 -0.00010542704 -2.436618e-24)
(-0.028864971 -0.00010749129 9.4675909e-24)
(-0.03255213 -0.00010954285 -1.9570047e-25)
(-0.036124734 -0.00011071134 -9.2641402e-24)
(-0.039865855 -0.00011185416 0)
(-0.043533991 -0.0001120497 4.3681682e-24)
(-0.047277019 -0.00011197079 0)
(-0.050954029 -0.00011095122 -4.1378748e-24)
(-0.054627015 -0.00010930253 4.0168898e-24)
(-0.058207526 -0.00010646767 -7.7870897e-24)
(-0.061697658 -0.00010271684 -1.4809608e-23)
(-0.065045313 -9.7744799e-05 2.9094122e-23)
(-0.068216592 -9.1682562e-05 -2.1296873e-23)
(-0.071182638 -8.415824e-05 -2.6452309e-23)
(-0.073870818 -7.5298487e-05 2.6449971e-23)
(-0.076277013 -6.4687657e-05 -2.4318059e-23)
(-0.078281505 -5.2593445e-05 3.0265415e-23)
(-0.079922884 -3.8284846e-05 -5.6875156e-24)
(-0.081000373 -2.2395299e-05 2.1234174e-23)
(-0.08163852 -3.3546945e-06 -2.6429195e-23)
(-0.081470882 1.7197019e-05 0)
(-0.080816154 4.3956722e-05 0)
(-0.078888635 7.2570269e-05 -1.778303e-23)
(-0.076451386 0.00011754735 9.0529818e-24)
(-0.071554115 0.00015890135 0)
(-0.066553751 0.00027479913 -1.6253702e-23)
(-0.054121983 0.00032716202 -2.3993496e-22)
(-0.013878901 -0.00014018215 -3.378642e-25)
(-0.017567327 -0.00015226025 -3.3079511e-24)
(-0.021779458 -0.00015509416 -3.8632041e-24)
(-0.025705556 -0.00016024666 2.6158161e-24)
(-0.030112161 -0.00016437672 0)
(-0.034307921 -0.0001674847 0)
(-0.038833453 -0.00017076717 -9.601048e-24)