/*--------------------------------*- C++ -*----------------------------------*\
| =========                 |                                                 |
| \\      /  F ield         | OpenFOAM: The Open Source CFD Toolbox           |
|  \\    /   O peration     | Version:  2006                                  |
|   \\  /    A nd           | Website:  www.openfoam.com                      |
|    \\/     M anipulation  |                                                 |
\*---------------------------------------------------------------------------*/
FoamFile
{
    version     2.0;
    format      ascii;
    class       volScalarField;
    location    "20000";
    object      p;
}
// * * * * * * * * * * * * * * * * * * * * * * * * * * * * * * * * * * * * * //

dimensions      [0 2 -2 0 0 0 0];


internalField   nonuniform List<scalar> 
14751
(
-8.78215e-05
-8.47764e-05
-8.2089e-05
-7.89086e-05
-7.60009e-05
-7.29988e-05
-7.00207e-05
-6.71279e-05
-6.42508e-05
-6.14917e-05
-5.87924e-05
-5.62472e-05
-5.37883e-05
-5.15002e-05
-4.93258e-05
-4.73364e-05
-4.54894e-05
-4.38209e-05
-4.2317e-05
-4.09884e-05
-3.98334e-05
-3.8849e-05
-3.80328e-05
-3.7386e-05
-3.69057e-05
-3.65913e-05
-3.64355e-05
-3.64385e-05
-3.65906e-05
-3.68907e-05
-3.73313e-05
-3.79091e-05
-3.8617e-05
-3.94508e-05
-4.04039e-05
-4.14724e-05
-4.26491e-05
-4.39297e-05
-4.53084e-05
-4.67788e-05
-4.83373e-05
-4.99763e-05
-5.16923e-05
-5.34779e-05
-5.53296e-05
-5.72402e-05
-5.92063e-05
-6.12195e-05
-6.32776e-05
-6.53721e-05
-6.74993e-05
-6.96523e-05
-7.18262e-05
-7.40145e-05
-7.62125e-05
-7.84121e-05
-8.061e-05
-8.27974e-05
-8.49704e-05
-8.71209e-05
-8.9244e-05
-9.13322e-05
-9.33805e-05
-9.53807e-05
-9.73277e-05
-9.92141e-05
-0.000101033
-0.00010278
-0.000104445
-0.000106023
-0.000107504
-0.000108884
-0.000110154
-0.000111314
-0.000112353
-0.00011327
-0.000114052
-0.000114699
-0.0001152
-0.000115555
-0.000115754
-0.000115794
-0.000115676
-0.000115384
-0.000114923
-0.000114293
-0.000113463
-0.000112504
-0.000111299
-0.000109985
-0.000108434
-0.000106745
-0.000104881
-0.000102854
-0.000100673
-9.82671e-05
-9.589e-05
-9.32195e-05
-9.05525e-05
-8.78225e-05
-8.47772e-05
-8.209e-05
-7.89097e-05
-7.60018e-05
-7.29995e-05
-7.00211e-05
-6.71282e-05
-6.42509e-05
-6.14917e-05
-5.87923e-05
-5.62472e-05
-5.37885e-05
-5.15007e-05
-4.93265e-05
-4.73374e-05
-4.54906e-05
-4.38223e-05
-4.23186e-05
-4.099e-05
-3.98352e-05
-3.88509e-05
-3.80347e-05
-3.73879e-05
-3.69076e-05
-3.65932e-05
-3.64374e-05
-3.64403e-05
-3.65924e-05
-3.68924e-05
-3.73329e-05
-3.79106e-05
-3.86184e-05
-3.94521e-05
-4.04052e-05
-4.14735e-05
-4.26501e-05
-4.39305e-05
-4.53091e-05
-4.67794e-05
-4.83377e-05
-4.99766e-05
-5.16925e-05
-5.34779e-05
-5.53296e-05
-5.724e-05
-5.9206e-05
-6.1219e-05
-6.32769e-05
-6.53713e-05
-6.74984e-05
-6.96512e-05
-7.1825e-05
-7.40132e-05
-7.6211e-05
-7.84105e-05
-8.06083e-05
-8.27956e-05
-8.49684e-05
-8.71188e-05
-8.92418e-05
-9.13299e-05
-9.3378e-05
-9.53781e-05
-9.73251e-05
-9.92113e-05
-0.00010103
-0.000102777
-0.000104442
-0.00010602
-0.000107501
-0.000108881
-0.000110151
-0.000111311
-0.00011235
-0.000113267
-0.000114049
-0.000114696
-0.000115197
-0.000115553
-0.000115752
-0.000115792
-0.000115674
-0.000115382
-0.000114921
-0.000114293
-0.000113463
-0.000112504
-0.000111299
-0.000109985
-0.000108434
-0.000106746
-0.000104882
-0.000102855
-0.000100674
-9.82679e-05
-9.58907e-05
-9.32204e-05
-9.05532e-05
-8.78253e-05
-8.4778e-05
-8.20932e-05
-7.89113e-05
-7.60028e-05
-7.29997e-05
-7.00203e-05
-6.71268e-05
-6.42486e-05
-6.1489e-05
-5.87891e-05
-5.62442e-05
-5.37858e-05
-5.14987e-05
-4.9325e-05
-4.73365e-05
-4.54903e-05
-4.38225e-05
-4.23192e-05
-4.0991e-05
-3.98365e-05
-3.88524e-05
-3.80364e-05
-3.73898e-05
-3.69096e-05
-3.65954e-05
-3.64396e-05
-3.64425e-05
-3.65945e-05
-3.68945e-05
-3.7335e-05
-3.79126e-05
-3.86203e-05
-3.94539e-05
-4.04068e-05
-4.1475e-05
-4.26514e-05
-4.39316e-05
-4.531e-05
-4.67801e-05
-4.83382e-05
-4.99769e-05
-5.16926e-05
-5.34778e-05
-5.53292e-05
-5.72394e-05
-5.92052e-05
-6.1218e-05
-6.32757e-05
-6.53699e-05
-6.74967e-05
-6.96493e-05
-7.18229e-05
-7.40109e-05
-7.62085e-05
-7.84078e-05
-8.06054e-05
-8.27925e-05
-8.49651e-05
-8.71153e-05
-8.92382e-05
-9.13261e-05
-9.3374e-05
-9.5374e-05
-9.73208e-05
-9.9207e-05
-0.000101026
-0.000102773
-0.000104437
-0.000106015
-0.000107496
-0.000108876
-0.000110146
-0.000111307
-0.000112345
-0.000113263
-0.000114045
-0.000114692
-0.000115193
-0.00011555
-0.000115749
-0.000115789
-0.000115672
-0.000115381
-0.000114921
-0.000114293
-0.000113463
-0.000112506
-0.000111302
-0.000109988
-0.000108437
-0.000106749
-0.000104885
-0.000102858
-0.000100677
-9.82691e-05
-9.58922e-05
-9.32216e-05
-9.05543e-05
-8.783e-05
-8.47794e-05
-8.20987e-05
-7.89142e-05
-7.60043e-05
-7.30002e-05
-7.00188e-05
-6.71244e-05
-6.42447e-05
-6.14843e-05
-5.87835e-05
-5.62389e-05
-5.37807e-05
-5.14946e-05
-4.93216e-05
-4.73341e-05
-4.54886e-05
-4.38215e-05
-4.23188e-05
-4.09912e-05
-3.98372e-05
-3.88535e-05
-3.80378e-05
-3.73915e-05
-3.69115e-05
-3.65975e-05
-3.64418e-05
-3.64447e-05
-3.65968e-05
-3.68967e-05
-3.73371e-05
-3.79146e-05
-3.86222e-05
-3.94556e-05
-4.04082e-05
-4.14762e-05
-4.26524e-05
-4.39324e-05
-4.53105e-05
-4.67803e-05
-4.83382e-05
-4.99766e-05
-5.16919e-05
-5.34768e-05
-5.5328e-05
-5.72379e-05
-5.92033e-05
-6.12159e-05
-6.32733e-05
-6.53671e-05
-6.74937e-05
-6.9646e-05
-7.18193e-05
-7.4007e-05
-7.62043e-05
-7.84033e-05
-8.06007e-05
-8.27875e-05
-8.496e-05
-8.71099e-05
-8.92326e-05
-9.13203e-05
-9.33681e-05
-9.53679e-05
-9.73146e-05
-9.92006e-05
-0.00010102
-0.000102766
-0.00010443
-0.000106008
-0.000107489
-0.00010887
-0.00011014
-0.000111301
-0.00011234
-0.000113258
-0.00011404
-0.000114688
-0.000115189
-0.000115546
-0.000115746
-0.000115787
-0.000115671
-0.000115381
-0.000114921
-0.000114295
-0.000113466
-0.00011251
-0.000111306
-0.000109993
-0.000108443
-0.000106754
-0.00010489
-0.000102862
-0.000100681
-9.82711e-05
-9.58949e-05
-9.32238e-05
-9.05564e-05
-8.7837e-05
-8.47826e-05
-8.21071e-05
-7.89195e-05
-7.60076e-05
-7.3002e-05
-7.00181e-05
-6.71224e-05
-6.42407e-05
-6.14793e-05
-5.87772e-05
-5.62328e-05
-5.37747e-05
-5.14899e-05
-4.93176e-05
-4.73313e-05
-4.54865e-05
-4.38203e-05
-4.23183e-05
-4.09913e-05
-3.98378e-05
-3.88545e-05
-3.80395e-05
-3.73939e-05
-3.69141e-05
-3.66002e-05
-3.64445e-05
-3.64474e-05
-3.65993e-05
-3.68992e-05
-3.73393e-05
-3.79165e-05
-3.86238e-05
-3.94568e-05
-4.04091e-05
-4.14768e-05
-4.26525e-05
-4.3932e-05
-4.53098e-05
-4.67791e-05
-4.83365e-05
-4.99744e-05
-5.16893e-05
-5.34738e-05
-5.53245e-05
-5.72339e-05
-5.91989e-05
-6.1211e-05
-6.3268e-05
-6.53614e-05
-6.74876e-05
-6.96395e-05
-7.18124e-05
-7.39997e-05
-7.61968e-05
-7.83954e-05
-8.05924e-05
-8.2779e-05
-8.49512e-05
-8.71009e-05
-8.92233e-05
-9.13109e-05
-9.33585e-05
-9.53582e-05
-9.73048e-05
-9.91908e-05
-0.00010101
-0.000102756
-0.000104421
-0.000105999
-0.00010748
-0.000108861
-0.000110132
-0.000111293
-0.000112332
-0.000113251
-0.000114034
-0.000114683
-0.000115185
-0.000115543
-0.000115744
-0.000115785
-0.000115671
-0.000115382
-0.000114923
-0.000114299
-0.000113471
-0.000112518
-0.000111314
-0.000110002
-0.000108452
-0.000106763
-0.000104898
-0.00010287
-0.000100689
-9.82753e-05
-9.58999e-05
-9.32279e-05
-9.05607e-05
-8.78474e-05
-8.47901e-05
-8.21198e-05
-7.89298e-05
-7.6015e-05
-7.30078e-05
-7.00209e-05
-6.71236e-05
-6.42395e-05
-6.14767e-05
-5.8773e-05
-5.62288e-05
-5.37707e-05
-5.14872e-05
-4.93156e-05
-4.73304e-05
-4.54864e-05
-4.3821e-05
-4.23195e-05
-4.0993e-05
-3.98398e-05
-3.88569e-05
-3.80423e-05
-3.73973e-05
-3.69175e-05
-3.66035e-05
-3.64475e-05
-3.64502e-05
-3.66017e-05
-3.69011e-05
-3.73407e-05
-3.79174e-05
-3.86241e-05
-3.94566e-05
-4.04082e-05
-4.14752e-05
-4.26503e-05
-4.39292e-05
-4.53062e-05
-4.67748e-05
-4.83316e-05
-4.99688e-05
-5.16831e-05
-5.34669e-05
-5.53169e-05
-5.72257e-05
-5.91902e-05
-6.12016e-05
-6.32581e-05
-6.53509e-05
-6.74766e-05
-6.9628e-05
-7.18005e-05
-7.39873e-05
-7.6184e-05
-7.83823e-05
-8.0579e-05
-8.27653e-05
-8.49373e-05
-8.70867e-05
-8.9209e-05
-9.12965e-05
-9.33441e-05
-9.53438e-05
-9.72904e-05
-9.91765e-05
-0.000100996
-0.000102742
-0.000104407
-0.000105986
-0.000107467
-0.000108849
-0.000110121
-0.000111283
-0.000112323
-0.000113242
-0.000114026
-0.000114676
-0.000115179
-0.000115538
-0.000115741
-0.000115784
-0.000115671
-0.000115384
-0.000114927
-0.000114305
-0.000113478
-0.000112528
-0.000111325
-0.000110015
-0.000108464
-0.000106775
-0.00010491
-0.000102881
-0.000100701
-9.82827e-05
-9.59082e-05
-9.3235e-05
-9.05693e-05
-8.78619e-05
-8.48037e-05
-8.21372e-05
-7.89463e-05
-7.60278e-05
-7.30183e-05
-7.00283e-05
-6.71288e-05
-6.42421e-05
-6.14775e-05
-5.87719e-05
-5.62274e-05
-5.37691e-05
-5.14869e-05
-4.93157e-05
-4.73314e-05
-4.5488e-05
-4.38231e-05
-4.2322e-05
-4.09957e-05
-3.98426e-05
-3.88596e-05
-3.8045e-05
-3.73999e-05
-3.69198e-05
-3.66055e-05
-3.64489e-05
-3.64511e-05
-3.6602e-05
-3.69008e-05
-3.73396e-05
-3.79156e-05
-3.86215e-05
-3.94532e-05
-4.0404e-05
-4.14702e-05
-4.26445e-05
-4.39225e-05
-4.52987e-05
-4.67665e-05
-4.83224e-05
-4.99588e-05
-5.16724e-05
-5.34553e-05
-5.53047e-05
-5.72127e-05
-5.91766e-05
-6.11873e-05
-6.32432e-05
-6.53355e-05
-6.74606e-05
-6.96116e-05
-7.17836e-05
-7.397e-05
-7.61664e-05
-7.83643e-05
-8.05608e-05
-8.27468e-05
-8.49187e-05
-8.70681e-05
-8.91904e-05
-9.12778e-05
-9.33256e-05
-9.53254e-05
-9.72723e-05
-9.91587e-05
-0.000100978
-0.000102725
-0.000104391
-0.00010597
-0.000107452
-0.000108835
-0.000110108
-0.00011127
-0.000112311
-0.000113232
-0.000114017
-0.000114669
-0.000115173
-0.000115534
-0.000115739
-0.000115783
-0.000115672
-0.000115387
-0.000114933
-0.000114314
-0.000113488
-0.000112542
-0.00011134
-0.000110031
-0.000108482
-0.000106792
-0.000104927
-0.000102897
-0.000100717
-9.82948e-05
-9.59208e-05
-9.32464e-05
-9.05838e-05
-8.78796e-05
-8.48232e-05
-8.21583e-05
-7.8968e-05
-7.60448e-05
-7.30324e-05
-7.0039e-05
-6.71366e-05
-6.42469e-05
-6.14799e-05
-5.87719e-05
-5.62267e-05
-5.3768e-05
-5.14866e-05
-4.93157e-05
-4.73321e-05
-4.54889e-05
-4.38244e-05
-4.23233e-05
-4.09969e-05
-3.98436e-05
-3.88604e-05
-3.80454e-05
-3.74e-05
-3.69195e-05
-3.66046e-05
-3.64474e-05
-3.64489e-05
-3.6599e-05
-3.6897e-05
-3.73349e-05
-3.79101e-05
-3.8615e-05
-3.94459e-05
-4.03957e-05
-4.1461e-05
-4.26343e-05
-4.39114e-05
-4.52867e-05
-4.67536e-05
-4.83087e-05
-4.99443e-05
-5.1657e-05
-5.34392e-05
-5.52879e-05
-5.71952e-05
-5.91584e-05
-6.11685e-05
-6.32238e-05
-6.53156e-05
-6.74403e-05
-6.95908e-05
-7.17625e-05
-7.39486e-05
-7.61447e-05
-7.83424e-05
-8.05388e-05
-8.27248e-05
-8.48967e-05
-8.70461e-05
-8.91686e-05
-9.12563e-05
-9.33043e-05
-9.53046e-05
-9.72519e-05
-9.91389e-05
-0.000100959
-0.000102707
-0.000104373
-0.000105953
-0.000107436
-0.00010882
-0.000110094
-0.000111258
-0.0001123
-0.000113223
-0.000114009
-0.000114662
-0.000115169
-0.000115532
-0.000115739
-0.000115785
-0.000115677
-0.000115395
-0.000114943
-0.000114327
-0.000113504
-0.000112561
-0.00011136
-0.000110054
-0.000108505
-0.000106815
-0.00010495
-0.000102919
-0.000100739
-9.83125e-05
-9.59384e-05
-9.32623e-05
-9.06046e-05
-8.78999e-05
-8.48487e-05
-8.21824e-05
-7.89942e-05
-7.60656e-05
-7.30496e-05
-7.00525e-05
-6.71464e-05
-6.42531e-05
-6.1483e-05
-5.87724e-05
-5.62258e-05
-5.37666e-05
-5.14855e-05
-4.93149e-05
-4.73315e-05
-4.54884e-05
-4.38238e-05
-4.23225e-05
-4.09959e-05
-3.98421e-05
-3.88584e-05
-3.80429e-05
-3.7397e-05
-3.69158e-05
-3.66003e-05
-3.64422e-05
-3.64429e-05
-3.65921e-05
-3.68891e-05
-3.73261e-05
-3.79003e-05
-3.86042e-05
-3.94341e-05
-4.03829e-05
-4.14472e-05
-4.26196e-05
-4.38957e-05
-4.52702e-05
-4.67361e-05
-4.82904e-05
-4.99251e-05
-5.16371e-05
-5.34185e-05
-5.52665e-05
-5.71731e-05
-5.91358e-05
-6.11453e-05
-6.32002e-05
-6.52915e-05
-6.74158e-05
-6.9566e-05
-7.17374e-05
-7.39233e-05
-7.61194e-05
-7.8317e-05
-8.05135e-05
-8.26996e-05
-8.48717e-05
-8.70214e-05
-8.91442e-05
-9.12323e-05
-9.32809e-05
-9.52817e-05
-9.72298e-05
-9.91176e-05
-0.000100938
-0.000102687
-0.000104354
-0.000105935
-0.000107419
-0.000108805
-0.00011008
-0.000111246
-0.00011229
-0.000113214
-0.000114002
-0.000114658
-0.000115167
-0.000115532
-0.000115741
-0.000115791
-0.000115685
-0.000115406
-0.000114957
-0.000114345
-0.000113524
-0.000112585
-0.000111386
-0.000110081
-0.000108534
-0.000106844
-0.000104979
-0.000102946
-0.000100766
-9.83358e-05
-9.59607e-05
-9.32826e-05
-9.06319e-05
-8.79227e-05
-8.488e-05
-8.22092e-05
-7.90248e-05
-7.60899e-05
-7.30694e-05
-7.00684e-05
-6.71577e-05
-6.42607e-05
-6.14867e-05
-5.87731e-05
-5.62246e-05
-5.37646e-05
-5.14835e-05
-4.93127e-05
-4.73293e-05
-4.5486e-05
-4.38211e-05
-4.23193e-05
-4.09921e-05
-3.98377e-05
-3.88532e-05
-3.8037e-05
-3.73905e-05
-3.69085e-05
-3.65921e-05
-3.6433e-05
-3.64328e-05
-3.65809e-05
-3.68769e-05
-3.73129e-05
-3.7886e-05
-3.85889e-05
-3.94177e-05
-4.03654e-05
-4.14287e-05
-4.26001e-05
-4.38753e-05
-4.52488e-05
-4.67139e-05
-4.82673e-05
-4.99012e-05
-5.16124e-05
-5.33931e-05
-5.52405e-05
-5.71465e-05
-5.91086e-05
-6.11177e-05
-6.31721e-05
-6.52631e-05
-6.73872e-05
-6.95372e-05
-7.17085e-05
-7.38944e-05
-7.60905e-05
-7.82882e-05
-8.04849e-05
-8.26713e-05
-8.48438e-05
-8.69939e-05
-8.91173e-05
-9.12061e-05
-9.32554e-05
-9.52572e-05
-9.72062e-05
-9.9095e-05
-0.000100917
-0.000102667
-0.000104335
-0.000105917
-0.000107403
-0.00010879
-0.000110067
-0.000111235
-0.000112281
-0.000113207
-0.000113998
-0.000114656
-0.000115167
-0.000115535
-0.000115747
-0.0001158
-0.000115697
-0.000115421
-0.000114976
-0.000114368
-0.00011355
-0.000112614
-0.000111418
-0.000110115
-0.000108568
-0.000106878
-0.000105013
-0.000102979
-0.000100799
-9.83648e-05
-9.59878e-05
-9.33072e-05
-9.06655e-05
-8.79479e-05
-8.49172e-05
-8.22387e-05
-7.90595e-05
-7.61175e-05
-7.30919e-05
-7.00866e-05
-6.71706e-05
-6.42693e-05
-6.14907e-05
-5.87739e-05
-5.62228e-05
-5.37618e-05
-5.14801e-05
-4.93092e-05
-4.73252e-05
-4.54815e-05
-4.3816e-05
-4.23135e-05
-4.09855e-05
-3.98301e-05
-3.88447e-05
-3.80276e-05
-3.73802e-05
-3.68972e-05
-3.65798e-05
-3.64196e-05
-3.64182e-05
-3.65653e-05
-3.68601e-05
-3.72949e-05
-3.78669e-05
-3.85686e-05
-3.93963e-05
-4.0343e-05
-4.14053e-05
-4.25757e-05
-4.38499e-05
-4.52224e-05
-4.66866e-05
-4.82392e-05
-4.98724e-05
-5.15829e-05
-5.3363e-05
-5.52097e-05
-5.71152e-05
-5.90769e-05
-6.10856e-05
-6.31397e-05
-6.52305e-05
-6.73544e-05
-6.95043e-05
-7.16757e-05
-7.38616e-05
-7.6058e-05
-7.8256e-05
-8.04531e-05
-8.26399e-05
-8.4813e-05
-8.69639e-05
-8.9088e-05
-9.11777e-05
-9.3228e-05
-9.52309e-05
-9.7181e-05
-9.90709e-05
-0.000100894
-0.000102645
-0.000104315
-0.000105899
-0.000107386
-0.000108775
-0.000110055
-0.000111225
-0.000112273
-0.000113202
-0.000113995
-0.000114656
-0.00011517
-0.000115541
-0.000115757
-0.000115813
-0.000115713
-0.000115441
-0.000114999
-0.000114395
-0.000113581
-0.000112648
-0.000111456
-0.000110155
-0.000108609
-0.000106919
-0.000105053
-0.000103018
-0.000100836
-9.83995e-05
-9.60197e-05
-9.33362e-05
-9.07055e-05
-8.79755e-05
-8.49602e-05
-8.22711e-05
-7.90982e-05
-7.61484e-05
-7.31171e-05
-7.01071e-05
-6.7185e-05
-6.4279e-05
-6.14951e-05
-5.87747e-05
-5.62204e-05
-5.37581e-05
-5.14753e-05
-4.9304e-05
-4.73192e-05
-4.54747e-05
-4.38083e-05
-4.23048e-05
-4.09757e-05
-3.98191e-05
-3.88325e-05
-3.80143e-05
-3.73658e-05
-3.68817e-05
-3.65631e-05
-3.64017e-05
-3.63991e-05
-3.65449e-05
-3.68385e-05
-3.7272e-05
-3.78428e-05
-3.85434e-05
-3.93699e-05
-4.03155e-05
-4.13767e-05
-4.25461e-05
-4.38193e-05
-4.51909e-05
-4.66543e-05
-4.8206e-05
-4.98385e-05
-5.15483e-05
-5.33278e-05
-5.5174e-05
-5.70791e-05
-5.90404e-05
-6.10488e-05
-6.31027e-05
-6.51934e-05
-6.73173e-05
-6.94673e-05
-7.16388e-05
-7.38251e-05
-7.60218e-05
-7.82203e-05
-8.04179e-05
-8.26055e-05
-8.47793e-05
-8.69311e-05
-8.90563e-05
-9.11471e-05
-9.31986e-05
-9.52028e-05
-9.71542e-05
-9.90456e-05
-0.00010087
-0.000102623
-0.000104294
-0.00010588
-0.00010737
-0.000108761
-0.000110044
-0.000111216
-0.000112267
-0.000113199
-0.000113995
-0.000114659
-0.000115177
-0.000115551
-0.00011577
-0.000115829
-0.000115734
-0.000115466
-0.000115027
-0.000114428
-0.000113618
-0.000112688
-0.0001115
-0.0001102
-0.000108656
-0.000106966
-0.0001051
-0.000103063
-0.000100879
-9.84401e-05
-9.60565e-05
-9.33698e-05
-9.07518e-05
-8.80059e-05
-8.50089e-05
-8.23065e-05
-7.91409e-05
-7.61826e-05
-7.31448e-05
-7.01299e-05
-6.72008e-05
-6.42897e-05
-6.14997e-05
-5.87753e-05
-5.62172e-05
-5.37534e-05
-5.1469e-05
-4.92971e-05
-4.7311e-05
-4.54654e-05
-4.37979e-05
-4.2293e-05
-4.09626e-05
-3.98045e-05
-3.88165e-05
-3.7997e-05
-3.73473e-05
-3.68618e-05
-3.65419e-05
-3.63791e-05
-3.63751e-05
-3.65195e-05
-3.68118e-05
-3.7244e-05
-3.78135e-05
-3.85129e-05
-3.93382e-05
-4.02827e-05
-4.13427e-05
-4.25111e-05
-4.37833e-05
-4.5154e-05
-4.66165e-05
-4.81675e-05
-4.97993e-05
-5.15085e-05
-5.32875e-05
-5.51332e-05
-5.70379e-05
-5.89989e-05
-6.10072e-05
-6.3061e-05
-6.51517e-05
-6.72757e-05
-6.9426e-05
-7.15978e-05
-7.37845e-05
-7.59817e-05
-7.81809e-05
-8.03793e-05
-8.25678e-05
-8.47426e-05
-8.68955e-05
-8.9022e-05
-9.11142e-05
-9.31672e-05
-9.51729e-05
-9.71259e-05
-9.9019e-05
-0.000100845
-0.0001026
-0.000104274
-0.000105862
-0.000107354
-0.000108748
-0.000110033
-0.000111209
-0.000112263
-0.000113198
-0.000113997
-0.000114665
-0.000115186
-0.000115564
-0.000115787
-0.00011585
-0.000115758
-0.000115495
-0.000115061
-0.000114465
-0.00011366
-0.000112734
-0.00011155
-0.000110251
-0.00010871
-0.000107019
-0.000105152
-0.000103113
-0.000100928
-9.84866e-05
-9.60983e-05
-9.34082e-05
-9.08044e-05
-8.80395e-05
-8.50633e-05
-8.23452e-05
-7.91876e-05
-7.62201e-05
-7.31753e-05
-7.0155e-05
-6.7218e-05
-6.43014e-05
-6.15045e-05
-5.87758e-05
-5.62132e-05
-5.37476e-05
-5.14611e-05
-4.92884e-05
-4.73005e-05
-4.54536e-05
-4.37845e-05
-4.2278e-05
-4.0946e-05
-3.97861e-05
-3.87965e-05
-3.79754e-05
-3.73242e-05
-3.68373e-05
-3.65158e-05
-3.63515e-05
-3.6346e-05
-3.6489e-05
-3.67798e-05
-3.72106e-05
-3.77788e-05
-3.84768e-05
-3.93009e-05
-4.02442e-05
-4.13032e-05
-4.24705e-05
-4.37417e-05
-4.51115e-05
-4.65733e-05
-4.81235e-05
-4.97546e-05
-5.14632e-05
-5.32418e-05
-5.50871e-05
-5.69916e-05
-5.89524e-05
-6.09607e-05
-6.30144e-05
-6.51053e-05
-6.72296e-05
-6.93802e-05
-7.15526e-05
-7.37399e-05
-7.59378e-05
-7.81379e-05
-8.03372e-05
-8.25268e-05
-8.47029e-05
-8.68572e-05
-8.89851e-05
-9.10789e-05
-9.31336e-05
-9.51411e-05
-9.7096e-05
-9.89912e-05
-0.00010082
-0.000102577
-0.000104253
-0.000105843
-0.000107338
-0.000108736
-0.000110024
-0.000111203
-0.00011226
-0.000113198
-0.000114002
-0.000114673
-0.000115198
-0.00011558
-0.000115807
-0.000115875
-0.000115787
-0.000115529
-0.000115099
-0.000114509
-0.000113708
-0.000112786
-0.000111606
-0.000110309
-0.00010877
-0.000107079
-0.000105211
-0.00010317
-0.000100982
-9.85392e-05
-9.61454e-05
-9.34517e-05
-9.08631e-05
-8.80768e-05
-8.51234e-05
-8.23877e-05
-7.92383e-05
-7.62611e-05
-7.32087e-05
-7.01823e-05
-6.72369e-05
-6.4314e-05
-6.15096e-05
-5.87761e-05
-5.62084e-05
-5.37406e-05
-5.14515e-05
-4.92776e-05
-4.72876e-05
-4.54391e-05
-4.3768e-05
-4.22596e-05
-4.09257e-05
-3.97637e-05
-3.87723e-05
-3.79494e-05
-3.72965e-05
-3.68079e-05
-3.64846e-05
-3.63187e-05
-3.63115e-05
-3.64529e-05
-3.67422e-05
-3.71715e-05
-3.77383e-05
-3.84349e-05
-3.92578e-05
-4.01999e-05
-4.12577e-05
-4.24239e-05
-4.36943e-05
-4.50632e-05
-4.65242e-05
-4.80737e-05
-4.97042e-05
-5.14123e-05
-5.31905e-05
-5.50355e-05
-5.69399e-05
-5.89006e-05
-6.09089e-05
-6.29628e-05
-6.5054e-05
-6.71787e-05
-6.93299e-05
-7.15029e-05
-7.3691e-05
-7.58898e-05
-7.8091e-05
-8.02915e-05
-8.24825e-05
-8.466e-05
-8.68159e-05
-8.89456e-05
-9.10413e-05
-9.3098e-05
-9.51075e-05
-9.70646e-05
-9.89622e-05
-0.000100793
-0.000102553
-0.000104232
-0.000105825
-0.000107324
-0.000108724
-0.000110016
-0.000111198
-0.00011226
-0.000113202
-0.000114009
-0.000114684
-0.000115214
-0.0001156
-0.000115832
-0.000115905
-0.000115821
-0.000115568
-0.000115143
-0.000114557
-0.000113763
-0.000112844
-0.000111669
-0.000110373
-0.000108836
-0.000107145
-0.000105276
-0.000103233
-0.000101042
-9.8598e-05
-9.6198e-05
-9.35005e-05
-9.09276e-05
-8.81186e-05
-8.51889e-05
-8.24343e-05
-7.92931e-05
-7.63055e-05
-7.3245e-05
-7.02121e-05
-6.72573e-05
-6.43277e-05
-6.1515e-05
-5.87762e-05
-5.62026e-05
-5.37323e-05
-5.14401e-05
-4.92648e-05
-4.72721e-05
-4.54216e-05
-4.37482e-05
-4.22376e-05
-4.09014e-05
-3.97371e-05
-3.87435e-05
-3.79186e-05
-3.72637e-05
-3.67732e-05
-3.64481e-05
-3.62804e-05
-3.62714e-05
-3.64111e-05
-3.66987e-05
-3.71265e-05
-3.76917e-05
-3.8387e-05
-3.92085e-05
-4.01494e-05
-4.12061e-05
-4.23713e-05
-4.36407e-05
-4.50087e-05
-4.6469e-05
-4.80178e-05
-4.96479e-05
-5.13556e-05
-5.31335e-05
-5.49783e-05
-5.68826e-05
-5.88433e-05
-6.08519e-05
-6.29061e-05
-6.49978e-05
-6.7123e-05
-6.92749e-05
-7.14487e-05
-7.36379e-05
-7.58378e-05
-7.80403e-05
-8.02422e-05
-8.24348e-05
-8.4614e-05
-8.67719e-05
-8.89035e-05
-9.10014e-05
-9.30603e-05
-9.50722e-05
-9.70319e-05
-9.89321e-05
-0.000100766
-0.000102529
-0.000104211
-0.000105807
-0.000107309
-0.000108713
-0.000110009
-0.000111196
-0.000112261
-0.000113207
-0.000114019
-0.000114699
-0.000115233
-0.000115624
-0.000115861
-0.000115939
-0.00011586
-0.000115612
-0.000115193
-0.000114612
-0.000113824
-0.000112908
-0.000111739
-0.000110445
-0.00010891
-0.000107218
-0.000105348
-0.000103303
-0.000101109
-9.86632e-05
-9.62562e-05
-9.35551e-05
-9.09978e-05
-8.81658e-05
-8.52599e-05
-8.24856e-05
-7.93521e-05
-7.63536e-05
-7.32845e-05
-7.02444e-05
-6.72794e-05
-6.43424e-05
-6.15206e-05
-5.87759e-05
-5.61959e-05
-5.37227e-05
-5.14267e-05
-4.92496e-05
-4.72538e-05
-4.5401e-05
-4.37248e-05
-4.22116e-05
-4.08728e-05
-3.97059e-05
-3.87098e-05
-3.78826e-05
-3.72256e-05
-3.6733e-05
-3.64058e-05
-3.62362e-05
-3.62251e-05
-3.63631e-05
-3.6649e-05
-3.70751e-05
-3.76388e-05
-3.83326e-05
-3.91528e-05
-4.00925e-05
-4.1148e-05
-4.23122e-05
-4.35807e-05
-4.49479e-05
-4.64075e-05
-4.79558e-05
-4.95854e-05
-5.12927e-05
-5.30705e-05
-5.49152e-05
-5.68196e-05
-5.87804e-05
-6.07894e-05
-6.28441e-05
-6.49364e-05
-6.70623e-05
-6.92152e-05
-7.13901e-05
-7.35804e-05
-7.57817e-05
-7.79858e-05
-8.01893e-05
-8.23838e-05
-8.4565e-05
-8.6725e-05
-8.8859e-05
-9.09593e-05
-9.30207e-05
-9.50354e-05
-9.69979e-05
-9.89012e-05
-0.000100738
-0.000102504
-0.00010419
-0.00010579
-0.000107296
-0.000108704
-0.000110004
-0.000111195
-0.000112265
-0.000113215
-0.000114032
-0.000114717
-0.000115256
-0.000115652
-0.000115894
-0.000115977
-0.000115904
-0.000115662
-0.000115248
-0.000114673
-0.000113891
-0.000112979
-0.000111816
-0.000110523
-0.00010899
-0.000107298
-0.000105428
-0.000103379
-0.000101182
-9.87351e-05
-9.63205e-05
-9.36158e-05
-9.10734e-05
-8.82192e-05
-8.53362e-05
-8.25417e-05
-7.94156e-05
-7.64055e-05
-7.33273e-05
-7.02792e-05
-6.73033e-05
-6.4358e-05
-6.15264e-05
-5.87752e-05
-5.61881e-05
-5.37114e-05
-5.14111e-05
-4.92319e-05
-4.72325e-05
-4.53768e-05
-4.36975e-05
-4.21813e-05
-4.08397e-05
-3.96698e-05
-3.86709e-05
-3.78412e-05
-3.71817e-05
-3.66868e-05
-3.63574e-05
-3.61857e-05
-3.61725e-05
-3.63085e-05
-3.65926e-05
-3.7017e-05
-3.75791e-05
-3.82715e-05
-3.90903e-05
-4.00288e-05
-4.10831e-05
-4.22464e-05
-4.3514e-05
-4.48805e-05
-4.63396e-05
-4.78873e-05
-4.95166e-05
-5.12237e-05
-5.30014e-05
-5.48462e-05
-5.67508e-05
-5.87119e-05
-6.07215e-05
-6.27767e-05
-6.48699e-05
-6.69968e-05
-6.91508e-05
-7.13269e-05
-7.35188e-05
-7.57216e-05
-7.79276e-05
-8.0133e-05
-8.23296e-05
-8.4513e-05
-8.66755e-05
-8.88121e-05
-9.09152e-05
-9.29793e-05
-9.49971e-05
-9.69629e-05
-9.88696e-05
-0.00010071
-0.00010248
-0.000104169
-0.000105774
-0.000107283
-0.000108696
-0.000110001
-0.000111196
-0.000112271
-0.000113227
-0.000114048
-0.000114738
-0.000115283
-0.000115685
-0.000115932
-0.000116021
-0.000115954
-0.000115718
-0.00011531
-0.00011474
-0.000113965
-0.000113056
-0.0001119
-0.000110608
-0.000109078
-0.000107386
-0.000105514
-0.000103463
-0.000101261
-9.88138e-05
-9.63912e-05
-9.3683e-05
-9.11542e-05
-8.82797e-05
-8.54179e-05
-8.26033e-05
-7.94835e-05
-7.64614e-05
-7.33734e-05
-7.03165e-05
-6.73289e-05
-6.43746e-05
-6.15324e-05
-5.87739e-05
-5.61789e-05
-5.36982e-05
-5.13932e-05
-4.92112e-05
-4.72077e-05
-4.53489e-05
-4.36659e-05
-4.21464e-05
-4.08015e-05
-3.96283e-05
-3.86264e-05
-3.77938e-05
-3.71316e-05
-3.66343e-05
-3.63023e-05
-3.61284e-05
-3.6113e-05
-3.62471e-05
-3.65292e-05
-3.69519e-05
-3.75123e-05
-3.82032e-05
-3.90207e-05
-3.9958e-05
-4.10113e-05
-4.21736e-05
-4.34404e-05
-4.48063e-05
-4.62648e-05
-4.78122e-05
-4.94413e-05
-5.11483e-05
-5.29261e-05
-5.4771e-05
-5.66761e-05
-5.86377e-05
-6.0648e-05
-6.2704e-05
-6.47982e-05
-6.69263e-05
-6.90817e-05
-7.12594e-05
-7.34529e-05
-7.56576e-05
-7.78657e-05
-8.00732e-05
-8.22723e-05
-8.44583e-05
-8.66236e-05
-8.8763e-05
-9.08692e-05
-9.29365e-05
-9.49578e-05
-9.69271e-05
-9.88375e-05
-0.000100682
-0.000102456
-0.000104149
-0.000105758
-0.000107272
-0.00010869
-0.00011
-0.0001112
-0.00011228
-0.000113241
-0.000114068
-0.000114764
-0.000115314
-0.000115722
-0.000115975
-0.000116071
-0.000116009
-0.000115779
-0.000115378
-0.000114814
-0.000114046
-0.000113141
-0.000111992
-0.000110701
-0.000109174
-0.000107482
-0.000105609
-0.000103555
-0.000101348
-9.88998e-05
-9.64685e-05
-9.37573e-05
-9.12399e-05
-8.83481e-05
-8.55048e-05
-8.26706e-05
-7.95562e-05
-7.65213e-05
-7.3423e-05
-7.03564e-05
-6.73563e-05
-6.4392e-05
-6.15383e-05
-5.87717e-05
-5.61683e-05
-5.36829e-05
-5.13724e-05
-4.91874e-05
-4.71792e-05
-4.53167e-05
-4.36297e-05
-4.21064e-05
-4.07578e-05
-3.95809e-05
-3.85757e-05
-3.774e-05
-3.70748e-05
-3.65748e-05
-3.62402e-05
-3.60639e-05
-3.60462e-05
-3.61781e-05
-3.64583e-05
-3.68792e-05
-3.7438e-05
-3.81274e-05
-3.89436e-05
-3.98797e-05
-4.0932e-05
-4.20935e-05
-4.33597e-05
-4.47249e-05
-4.61832e-05
-4.77302e-05
-4.93593e-05
-5.10663e-05
-5.28444e-05
-5.46897e-05
-5.65954e-05
-5.85577e-05
-6.0569e-05
-6.26261e-05
-6.47215e-05
-6.6851e-05
-6.9008e-05
-7.11875e-05
-7.33831e-05
-7.55898e-05
-7.78003e-05
-8.00104e-05
-8.22122e-05
-8.4401e-05
-8.65694e-05
-8.8712e-05
-9.08216e-05
-9.28925e-05
-9.49176e-05
-9.68908e-05
-9.88054e-05
-0.000100654
-0.000102432
-0.00010413
-0.000105744
-0.000107263
-0.000108686
-0.000110001
-0.000111207
-0.000112293
-0.000113259
-0.000114092
-0.000114793
-0.00011535
-0.000115764
-0.000116024
-0.000116126
-0.000116071
-0.000115847
-0.000115453
-0.000114895
-0.000114135
-0.000113234
-0.000112091
-0.000110803
-0.000109279
-0.000107586
-0.000105711
-0.000103654
-0.000101443
-9.89933e-05
-9.65529e-05
-9.38389e-05
-9.13307e-05
-8.8425e-05
-8.55971e-05
-8.27439e-05
-7.96338e-05
-7.65855e-05
-7.34761e-05
-7.03988e-05
-6.73853e-05
-6.44101e-05
-6.15439e-05
-5.87685e-05
-5.61558e-05
-5.36652e-05
-5.13486e-05
-4.91598e-05
-4.71464e-05
-4.52797e-05
-4.35881e-05
-4.20607e-05
-4.0708e-05
-3.95271e-05
-3.85182e-05
-3.76792e-05
-3.70108e-05
-3.65079e-05
-3.61705e-05
-3.59917e-05
-3.59715e-05
-3.61013e-05
-3.63794e-05
-3.67986e-05
-3.73557e-05
-3.80437e-05
-3.88586e-05
-3.97937e-05
-4.08451e-05
-4.20059e-05
-4.32714e-05
-4.46363e-05
-4.60943e-05
-4.76413e-05
-4.92705e-05
-5.09777e-05
-5.27563e-05
-5.46022e-05
-5.65087e-05
-5.84719e-05
-6.04845e-05
-6.25428e-05
-6.46398e-05
-6.6771e-05
-6.89299e-05
-7.11114e-05
-7.33093e-05
-7.55185e-05
-7.77317e-05
-7.99446e-05
-8.21495e-05
-8.43415e-05
-8.65133e-05
-8.86595e-05
-9.07729e-05
-9.28477e-05
-9.48769e-05
-9.68545e-05
-9.87735e-05
-0.000100627
-0.00010241
-0.000104113
-0.000105731
-0.000107256
-0.000108684
-0.000110005
-0.000111217
-0.000112309
-0.000113281
-0.000114121
-0.000114828
-0.000115392
-0.000115812
-0.000116078
-0.000116187
-0.000116139
-0.000115922
-0.000115535
-0.000114983
-0.000114232
-0.000113335
-0.0001122
-0.000110913
-0.000109392
-0.000107699
-0.000105822
-0.000103762
-0.000101545
-9.90946e-05
-9.66446e-05
-9.39282e-05
-9.14264e-05
-8.85109e-05
-8.5695e-05
-8.28235e-05
-7.97164e-05
-7.6654e-05
-7.35328e-05
-7.04437e-05
-6.74158e-05
-6.44287e-05
-6.15491e-05
-5.87639e-05
-5.6141e-05
-5.36444e-05
-5.13211e-05
-4.91281e-05
-4.71088e-05
-4.52375e-05
-4.35408e-05
-4.20088e-05
-4.06515e-05
-3.94663e-05
-3.84534e-05
-3.76107e-05
-3.69389e-05
-3.64329e-05
-3.60925e-05
-3.59111e-05
-3.58884e-05
-3.6016e-05
-3.62921e-05
-3.67095e-05
-3.7265e-05
-3.79517e-05
-3.87654e-05
-3.96996e-05
-4.07501e-05
-4.19103e-05
-4.31755e-05
-4.454e-05
-4.59981e-05
-4.75451e-05
-4.91747e-05
-5.08824e-05
-5.26617e-05
-5.45085e-05
-5.64161e-05
-5.83805e-05
-6.03945e-05
-6.24544e-05
-6.45532e-05
-6.66864e-05
-6.88475e-05
-7.10314e-05
-7.32319e-05
-7.54439e-05
-7.76601e-05
-7.98761e-05
-8.20845e-05
-8.428e-05
-8.64557e-05
-8.86058e-05
-9.07233e-05
-9.28025e-05
-9.48362e-05
-9.68184e-05
-9.87423e-05
-0.000100601
-0.000102389
-0.000104097
-0.000105721
-0.000107252
-0.000108685
-0.000110013
-0.00011123
-0.000112329
-0.000113307
-0.000114154
-0.000114868
-0.000115438
-0.000115865
-0.000116139
-0.000116256
-0.000116214
-0.000116005
-0.000115625
-0.00011508
-0.000114337
-0.000113445
-0.000112317
-0.000111032
-0.000109514
-0.000107821
-0.000105942
-0.000103879
-0.000101656
-9.92039e-05
-9.67441e-05
-9.40256e-05
-9.15273e-05
-8.86059e-05
-8.57986e-05
-8.29095e-05
-7.98042e-05
-7.67269e-05
-7.3593e-05
-7.0491e-05
-6.74477e-05
-6.44476e-05
-6.15536e-05
-5.87575e-05
-5.61237e-05
-5.36203e-05
-5.12896e-05
-4.90915e-05
-4.70658e-05
-4.51893e-05
-4.3487e-05
-4.19498e-05
-4.05877e-05
-3.93977e-05
-3.83805e-05
-3.75339e-05
-3.68584e-05
-3.63491e-05
-3.60056e-05
-3.58216e-05
-3.57962e-05
-3.59217e-05
-3.61958e-05
-3.66115e-05
-3.71654e-05
-3.78508e-05
-3.86634e-05
-3.95968e-05
-4.06467e-05
-4.18065e-05
-4.30715e-05
-4.44361e-05
-4.58943e-05
-4.74417e-05
-4.90719e-05
-5.07803e-05
-5.25606e-05
-5.44085e-05
-5.63174e-05
-5.82833e-05
-6.02991e-05
-6.23609e-05
-6.44619e-05
-6.65973e-05
-6.8761e-05
-7.09477e-05
-7.31512e-05
-7.53662e-05
-7.75859e-05
-7.98054e-05
-8.20175e-05
-8.4217e-05
-8.63968e-05
-8.85513e-05
-9.06733e-05
-9.27572e-05
-9.47959e-05
-9.67832e-05
-9.87123e-05
-0.000100576
-0.00010237
-0.000104084
-0.000105714
-0.00010725
-0.00010869
-0.000110024
-0.000111248
-0.000112354
-0.000113339
-0.000114192
-0.000114913
-0.000115491
-0.000115925
-0.000116207
-0.000116331
-0.000116296
-0.000116095