/*--------------------------------*- C++ -*----------------------------------*\
| =========                 |                                                 |
| \\      /  F ield         | OpenFOAM: The Open Source CFD Toolbox           |
|  \\    /   O peration     | Version:  2.4.0                                 |
|   \\  /    A nd           | Web:      www.OpenFOAM.org                      |
|    \\/     M anipulation  |                                                 |
\*---------------------------------------------------------------------------*/
FoamFile
{
    version     2.0;
    format      ascii;
    class       volScalarField;
    location    "60";
    object      nut;
}
// * * * * * * * * * * * * * * * * * * * * * * * * * * * * * * * * * * * * * //

dimensions      [0 2 -1 0 0 0 0];

internalField   nonuniform List<scalar> 
32000
(
4.468663e-07
1.2429661e-07
4.7971742e-07
4.8968604e-08
2.0127893e-08
3.7473648e-09
4.3523309e-09
1.7064293e-09
1.603224e-09
1.0886182e-09
8.9737236e-10
7.2359729e-10
6.1535926e-10
5.3413562e-10
4.7585073e-10
4.3281982e-10
4.0175639e-10
3.8007606e-10
3.6340121e-10
3.4954944e-10
3.3756642e-10
3.2696013e-10
3.1726546e-10
3.0822138e-10
2.9946451e-10
2.9081097e-10
2.8176595e-10
2.7274429e-10
2.644874e-10
2.5720122e-10
2.5087536e-10
2.4546347e-10
2.4093347e-10
2.3726051e-10
2.3451067e-10
2.3284639e-10
2.3221293e-10
2.3213349e-10
2.3240966e-10
2.3303169e-10
2.3402689e-10
2.3546193e-10
2.3750307e-10
2.4041372e-10
2.4479831e-10
2.5178624e-10
2.6655989e-10
2.8490573e-10
2.9751569e-10
3.0796943e-10
3.169202e-10
3.2486508e-10
3.3198549e-10
3.3843817e-10
3.4432197e-10
3.4971592e-10
3.5468064e-10
3.5926548e-10
3.635106e-10
3.6745035e-10
3.7111391e-10
3.7452631e-10
3.7770912e-10
3.8068145e-10
3.8346008e-10
3.8605982e-10
3.88494e-10
3.9077461e-10
3.9291209e-10
3.949161e-10
3.9679537e-10
3.9855788e-10
4.0021071e-10
4.017606e-10
4.0321357e-10
4.0457527e-10
4.0585161e-10
4.0704747e-10
4.0816925e-10
4.0922061e-10
4.1020738e-10
4.1112915e-10
4.1198423e-10
4.1277686e-10
4.1350913e-10
4.1418486e-10
4.148063e-10
4.1535956e-10
4.1582566e-10
4.1637129e-10
4.167975e-10
4.1717646e-10
4.1750955e-10
4.1779773e-10
4.180419e-10
4.182431e-10
4.1840196e-10
4.1851903e-10
4.1859466e-10
4.1862898e-10
4.1862302e-10
4.1857566e-10
4.1848668e-10
4.1835674e-10
4.1818506e-10
4.1797121e-10
4.1771445e-10
4.1741415e-10
4.170694e-10
4.1667915e-10
4.1624227e-10
4.1575742e-10
4.1522318e-10
4.146379e-10
4.139998e-10
4.1330691e-10
4.12557e-10
4.1174778e-10
4.1087655e-10
4.0994053e-10
4.0893667e-10
4.0786154e-10
4.0671142e-10
4.0548248e-10
4.0417016e-10
4.0276983e-10
4.0127632e-10
3.9968381e-10
3.979863e-10
3.9617696e-10
3.9424823e-10
3.9219209e-10
3.8999963e-10
3.8766075e-10
3.8516458e-10
3.8249894e-10
3.7964998e-10
3.7660267e-10
3.7333974e-10
3.6984178e-10
3.6608662e-10
3.6204898e-10
3.5769924e-10
3.5300281e-10
3.4791885e-10
3.4239779e-10
3.3637902e-10
3.2978351e-10
3.2251247e-10
3.1441027e-10
3.0529705e-10
2.9467841e-10
2.8191258e-10
2.6346068e-10
2.4856695e-10
2.4140348e-10
2.3678267e-10
2.3359185e-10
2.312971e-10
2.2955843e-10
2.2819462e-10
2.2725709e-10
2.2666554e-10
2.2644275e-10
2.2669456e-10
2.2782274e-10
2.3006983e-10
2.3316483e-10
2.3704198e-10
2.4172019e-10
2.4720529e-10
2.5354033e-10
2.6069914e-10
2.6847611e-10
2.7611048e-10
2.8323557e-10
2.8991249e-10
2.9696293e-10
3.0424828e-10
3.1205932e-10
3.2072573e-10
3.3063304e-10
3.4250402e-10
3.5835392e-10
3.8156756e-10
4.138505e-10
4.5758066e-10
5.1605651e-10
5.9749045e-10
7.0410307e-10
8.7684584e-10
1.0543546e-09
1.5406817e-09
1.5107186e-09
3.7041803e-09
2.5822458e-09
1.5425781e-08
2.8739239e-08
1.6761992e-07
1.49051e-07
2.1397763e-07
1.155004e-07
2.1169229e-07
6.4779715e-08
2.5319492e-08
3.7981185e-09
7.1249763e-09
3.7233696e-09
2.963351e-09
2.141067e-09
1.7116718e-09
1.3825658e-09
1.16028e-09
9.9594919e-10
8.7426611e-10
7.8212132e-10
7.1219412e-10
6.5944458e-10
6.1683478e-10
5.806327e-10
5.4902856e-10
5.2101565e-10
4.9572073e-10
4.725885e-10
4.5097328e-10
4.3046928e-10
4.1028102e-10
3.906741e-10
3.7240499e-10
3.556784e-10
3.4042416e-10
3.2652546e-10
3.1388518e-10
3.0242077e-10
2.9216602e-10
2.8330519e-10
2.7586194e-10
2.6943412e-10
2.6383727e-10
2.5907428e-10
2.551913e-10
2.5225496e-10
2.5045662e-10
2.5007216e-10
2.5174404e-10
2.5663179e-10
2.6940903e-10
2.8556762e-10
2.9660297e-10
3.0562168e-10
3.1332354e-10
3.2012914e-10
3.2622308e-10
3.317415e-10
3.36775e-10
3.413922e-10
3.4564611e-10
3.4957871e-10
3.5322377e-10
3.5661123e-10
3.5976566e-10
3.6270837e-10
3.6545784e-10
3.6803071e-10
3.7044188e-10
3.7270204e-10
3.7481984e-10
3.7680576e-10
3.7866887e-10
3.804178e-10
3.8206031e-10
3.8360357e-10
3.8505391e-10
3.864173e-10
3.8769901e-10
3.8890368e-10
3.9003599e-10
3.9109947e-10
3.920994e-10
3.9303868e-10
3.9392441e-10
3.9476443e-10
3.955508e-10
3.9626235e-10
3.9689064e-10
3.9743816e-10
3.9790001e-10
3.9825875e-10
3.9834019e-10
3.9872254e-10
3.9879928e-10
3.9878412e-10
3.986963e-10
3.985648e-10
3.9842803e-10
3.9830547e-10
3.9821341e-10
3.9816861e-10
3.9817628e-10
3.9822618e-10
3.9830577e-10
3.9839854e-10
3.9848754e-10
3.9856547e-10
3.9862535e-10
3.9865529e-10
3.9864071e-10
3.9856787e-10
3.9842699e-10
3.981992e-10
3.9787475e-10
3.9745202e-10
3.9693356e-10
3.963261e-10
3.9564068e-10
3.9489165e-10
3.9409426e-10
3.9326107e-10
3.923977e-10
3.9150087e-10
3.9055869e-10
3.8955433e-10
3.8847155e-10
3.8730085e-10
3.860442e-10
3.8471348e-10
3.8332409e-10
3.8188676e-10
3.8040728e-10
3.7888751e-10
3.7731784e-10
3.756811e-10
3.7395598e-10
3.7212092e-10
3.7015815e-10
3.6805297e-10
3.6579246e-10
3.6336232e-10
3.6074858e-10
3.5793975e-10
3.5491801e-10
3.5166265e-10
3.4814896e-10
3.4434637e-10
3.4022068e-10
3.3572866e-10
3.3081653e-10
3.2541328e-10
3.1942864e-10
3.1271842e-10
3.0511091e-10
2.9613138e-10
2.8508726e-10
2.678922e-10
2.5327403e-10
2.4696489e-10
2.4411654e-10
2.4339787e-10
2.4422514e-10
2.4618174e-10
2.4906681e-10
2.5290261e-10
2.5758715e-10
2.6309031e-10
2.6949494e-10
2.7720004e-10
2.8636963e-10
2.9666442e-10
3.080226e-10
3.2049112e-10
3.3410703e-10
3.4895736e-10
3.6503447e-10
3.8211916e-10
3.9937623e-10
4.1653169e-10
4.338605e-10
4.5247025e-10
4.7229355e-10
4.9385931e-10
5.1779005e-10
5.4486608e-10
5.7621356e-10
6.1564133e-10
6.6766308e-10
7.3559863e-10
8.240714e-10
9.3980531e-10
1.0956109e-09
1.3024009e-09
1.6102645e-09
1.9833412e-09
2.7341181e-09
3.0315876e-09
5.8433068e-09
2.5968233e-09
1.7905172e-08
3.4291556e-08
1.3317037e-07
1.4249907e-07
1.5262948e-08
2.3828671e-08
2.3927088e-08
2.7031689e-08
1.6890458e-08
2.0923635e-09
6.2638464e-09
4.0124347e-09
2.98403e-09
2.2989876e-09
1.822269e-09
1.482212e-09
1.2378222e-09
1.0575159e-09
9.2053291e-10
8.1465637e-10
7.3160689e-10
6.6628737e-10
6.1260181e-10
5.6688571e-10
5.2714573e-10
4.922071e-10
4.6110012e-10
4.331443e-10
4.0765038e-10
3.8411383e-10
3.617817e-10
3.4055207e-10
3.2077802e-10
3.0257046e-10
2.8584283e-10
2.7047358e-10
2.5635499e-10
2.4339326e-10
2.315729e-10
2.20989e-10
2.1168754e-10
2.0349237e-10
1.9628935e-10
1.9003521e-10
1.8470064e-10
1.8024291e-10
1.7671285e-10
1.7419508e-10
1.7300058e-10
1.736976e-10
1.7841721e-10
1.8517159e-10
1.8991421e-10
1.9380813e-10
1.971807e-10
2.0018417e-10
2.0290274e-10
2.0538654e-10
2.0767236e-10
2.0978595e-10
2.1174794e-10
2.1357329e-10
2.1527352e-10
2.1686284e-10
2.1835085e-10
2.1974616e-10
2.2105654e-10
2.222893e-10
2.2345138e-10
2.2454495e-10
2.2557185e-10
2.2653701e-10
2.2744465e-10
2.2829896e-10
2.2910373e-10
2.2986256e-10
2.3057857e-10
2.3125471e-10
2.3189326e-10
2.3249563e-10
2.3306451e-10
2.3360086e-10
2.3410694e-10
2.3458372e-10
2.3503659e-10
2.3547639e-10
2.3589358e-10
2.3625688e-10
2.365538e-10
2.367844e-10
2.3694072e-10
2.3701187e-10
2.3678155e-10
2.3687928e-10
2.3666686e-10
2.3636775e-10
2.3600674e-10
2.3562139e-10
2.3526093e-10
2.3495016e-10
2.3471063e-10
2.345638e-10
2.3451633e-10
2.3455255e-10
2.346611e-10
2.348185e-10
2.3499967e-10
2.3519722e-10
2.3540223e-10
2.355994e-10
2.357699e-10
2.358957e-10
2.3596393e-10
2.3594918e-10
2.3584032e-10
2.3563608e-10
2.3534088e-10
2.349649e-10
2.345241e-10
2.34039e-10
2.3353142e-10
2.3301962e-10
2.3251304e-10
2.3200945e-10
2.3149544e-10
2.3095137e-10
2.3035854e-10
2.297072e-10
2.2900315e-10
2.2826538e-10
2.2751802e-10
2.2677791e-10
2.2605764e-10
2.2536587e-10
2.2469592e-10
2.2403147e-10
2.2335123e-10
2.2263427e-10
2.2186529e-10
2.2103407e-10
2.201341e-10
2.1915642e-10
2.1809892e-10
2.1696032e-10
2.1573458e-10
2.1441449e-10
2.1299112e-10
2.1144965e-10
2.0978028e-10
2.0796687e-10
2.0598889e-10
2.0381867e-10
2.0142144e-10
1.9873737e-10
1.957004e-10
1.9208755e-10
1.8755989e-10
1.7955591e-10
1.7238677e-10
1.6983129e-10
1.6955736e-10
1.707332e-10
1.7307224e-10
1.7636448e-10
1.8055036e-10
1.8568316e-10
1.9175965e-10
1.9877263e-10
2.0678557e-10
2.1605384e-10
2.2663387e-10
2.3831141e-10
2.5105764e-10
2.6491673e-10
2.7992973e-10
2.9616895e-10
3.1360691e-10
3.3215087e-10
3.5132634e-10
3.711288e-10
3.9197727e-10
4.1473939e-10
4.3951597e-10
4.6689659e-10
4.9759043e-10
5.3251554e-10
5.726991e-10
6.2239694e-10
6.8455637e-10
7.626595e-10
8.6137171e-10
9.8795724e-10
1.1536367e-09
1.3734776e-09
1.6806788e-09
2.0842752e-09
2.7433434e-09
3.1230391e-09
5.1479149e-09
1.359494e-09
1.175752e-08
2.070006e-08
2.0034775e-08
2.5712832e-08
2.3186654e-10
1.1306673e-09
6.4667643e-10
5.6651328e-09
5.8661574e-09
8.5907729e-10
3.1862191e-09
2.4930706e-09
2.0857532e-09
1.8260275e-09
1.4937779e-09
1.2322331e-09
1.0325423e-09
8.8310008e-10
7.6584376e-10
6.7268255e-10
5.9708258e-10
5.356497e-10
4.8483015e-10
4.4175442e-10
4.0462428e-10
3.7234493e-10
3.4403036e-10
3.1900889e-10
2.9668027e-10
2.7654369e-10
2.5800271e-10
2.4069421e-10
2.2464329e-10
2.0991863e-10
1.9647076e-10
1.8422247e-10
1.7309724e-10
1.6302298e-10
1.5395821e-10
1.4590741e-10
1.388706e-10
1.3276767e-10
1.2752859e-10
1.2305421e-10
1.1923392e-10
1.1593051e-10
1.1307197e-10
1.1058294e-10
1.0851204e-10
1.0695755e-10
1.063039e-10
1.0673305e-10
1.0732705e-10
1.0790975e-10
1.0850719e-10
1.0909306e-10
1.0967318e-10
1.1023958e-10
1.1079116e-10
1.1132516e-10
1.1184058e-10
1.1233409e-10
1.1280187e-10
1.132501e-10
1.1367891e-10
1.1408886e-10
1.1448085e-10
1.1485618e-10
1.1521656e-10
1.1555904e-10
1.1588288e-10
1.161893e-10
1.164794e-10
1.1675445e-10
1.1701566e-10
1.1726421e-10
1.1750112e-10
1.1772736e-10
1.1794211e-10
1.1814225e-10
1.1833351e-10
1.185155e-10
1.1868862e-10
1.1885275e-10
1.1901127e-10
1.1917346e-10
1.1933143e-10
1.1945764e-10
1.1954132e-10
1.195813e-10
1.1957058e-10
1.1950306e-10
1.1922363e-10
1.1915666e-10
1.1887853e-10
1.1853859e-10
1.1815757e-10
1.1776659e-10
1.1740592e-10
1.1709622e-10
1.1685587e-10
1.1670256e-10
1.1664197e-10
1.1666001e-10
1.1675063e-10
1.1689296e-10
1.1706426e-10
1.1725983e-10
1.1747212e-10
1.1768844e-10
1.1789298e-10
1.1807035e-10
1.182092e-10
1.1828747e-10
1.1829688e-10
1.1823655e-10
1.1811047e-10
1.179276e-10
1.1770182e-10
1.1745085e-10
1.171936e-10
1.1694594e-10
1.1671651e-10
1.1650421e-10
1.1629857e-10
1.1608398e-10
1.1584555e-10
1.1557588e-10
1.1528073e-10
1.14977e-10
1.1468613e-10
1.1442097e-10
1.1419178e-10
1.1401203e-10
1.1387837e-10
1.137793e-10
1.1369916e-10
1.1362269e-10
1.1353959e-10
1.1344427e-10
1.1333425e-10
1.1320545e-10
1.1306291e-10
1.1290987e-10
1.1274755e-10
1.1257725e-10
1.1240025e-10
1.1220956e-10
1.1201389e-10
1.1181584e-10
1.1161808e-10
1.1142369e-10
1.1123802e-10
1.1106347e-10
1.1091315e-10
1.1075649e-10
1.1054489e-10
1.0915841e-10
1.0761377e-10
1.0746064e-10
1.0821183e-10
1.0951828e-10
1.1134369e-10
1.1367372e-10
1.1656721e-10
1.2012278e-10
1.2443314e-10
1.2954326e-10
1.355137e-10
1.4253218e-10
1.5063268e-10
1.5973871e-10
1.6984939e-10
1.8099283e-10
1.9319318e-10
2.0646278e-10
2.2062018e-10
2.3580854e-10
2.5188258e-10
2.6902754e-10
2.8770723e-10
3.0847454e-10
3.3155045e-10
3.5750651e-10
3.8702987e-10
4.2101773e-10
4.6026136e-10
5.0869336e-10
5.6714098e-10
6.383385e-10
7.2459034e-10
8.3183249e-10
9.6712899e-10
1.1432131e-09
1.3743422e-09
1.6855619e-09
2.1202848e-09
2.1037018e-09
2.9422559e-09
5.7667239e-10
5.2663868e-09
5.6118955e-09
5.8826251e-10
1.2082244e-09
2.2856789e-13
1.3413117e-11
1.633427e-12
6.1485118e-10
1.2045197e-09
2.7730116e-10
1.2226009e-09
1.1263179e-09
9.9999805e-10
9.3955123e-10
8.1462702e-10
7.1406596e-10
6.2436661e-10
5.5020525e-10
4.8567797e-10
4.2976062e-10
3.8076974e-10
3.3894443e-10
3.0421576e-10
2.7493234e-10
2.4981807e-10
2.2815487e-10
2.0934157e-10
1.9289195e-10
1.7845083e-10
1.6564417e-10
1.540714e-10
1.4327391e-10
1.3317053e-10
1.239179e-10
1.1557963e-10
1.0817586e-10
1.0170119e-10
9.6131051e-11
9.142691e-11
8.7527235e-11
8.4349272e-11
8.1775187e-11
7.9775338e-11
7.8211838e-11
7.6919606e-11
7.5711869e-11
7.4452167e-11
7.299037e-11
7.1242746e-11
6.9073958e-11
6.6010961e-11
6.3563219e-11
6.2392865e-11
6.1622704e-11
6.1119359e-11
6.0767777e-11
6.0532134e-11
6.0376385e-11
6.0280891e-11
6.0229592e-11
6.0211573e-11
6.0217092e-11
6.0238037e-11
6.0272779e-11
6.0317584e-11
6.0369769e-11
6.042749e-11
6.0489629e-11
6.0555653e-11
6.062114e-11
6.0684952e-11
6.0746923e-11
6.0807023e-11
6.0865426e-11
6.0922382e-11
6.0978182e-11
6.1033109e-11
6.1087421e-11
6.1132399e-11
6.1148402e-11
6.1166141e-11
6.1184821e-11
6.120405e-11
6.1223324e-11
6.1244662e-11
6.1275186e-11
6.1308792e-11
6.1324013e-11
6.1312627e-11
6.1273238e-11
6.1200447e-11
6.1090228e-11
6.0861499e-11
6.0720302e-11
6.0463477e-11
6.0165111e-11
5.9840786e-11
5.9513703e-11
5.9213415e-11
5.8955679e-11
5.8754544e-11
5.8623149e-11
5.8565925e-11
5.8572799e-11
5.8639607e-11
5.8750428e-11
5.8888318e-11
5.9049913e-11
5.9229344e-11
5.9417067e-11
5.9601028e-11
5.9769271e-11
5.991264e-11
6.0013927e-11
6.0067572e-11
6.0072937e-11
6.0033114e-11
5.9955029e-11
5.9849365e-11
5.9729764e-11
5.9610761e-11
5.9504656e-11
5.9418339e-11
5.9351402e-11
5.9296373e-11
5.9241832e-11
5.9176871e-11
5.909618e-11
5.9004411e-11
5.8914769e-11
5.8843759e-11
5.879391e-11
5.8756531e-11
5.8766062e-11
5.8821072e-11
5.8913724e-11
5.9032959e-11
5.9167984e-11
5.9311954e-11
5.946186e-11
5.9616304e-11
5.9775049e-11
5.9944826e-11
6.0130145e-11
6.0335123e-11
6.0564573e-11
6.0824193e-11
6.1116472e-11
6.1453628e-11
6.1846789e-11
6.2310039e-11
6.286199e-11
6.3528568e-11
6.4345233e-11
6.5366702e-11
6.6668509e-11
6.8359572e-11
7.0224273e-11
7.1502495e-11
7.2231196e-11
7.2912549e-11
7.3475269e-11
7.4018365e-11
7.4636181e-11
7.54469e-11
7.6579377e-11
7.8188949e-11
8.0365303e-11
8.315077e-11
8.6761647e-11
9.1267704e-11
9.6694417e-11
1.0305295e-10
1.1034543e-10
1.1855524e-10
1.2754225e-10
1.3651437e-10
1.46309e-10
1.5695065e-10
1.6866611e-10
1.8185419e-10
1.9682025e-10
2.1378036e-10
2.3323116e-10
2.5574651e-10
2.8206777e-10
3.1275358e-10
3.5086923e-10
3.9575017e-10
4.4894761e-10
5.0553947e-10
5.6923938e-10
6.4097537e-10
7.2404475e-10
8.1581696e-10
9.2013436e-10
1.0385475e-09
9.4168216e-10
1.1941793e-09
2.1690557e-10
1.2415509e-09
8.2679896e-10
1.6936253e-12
1.4188849e-11
2.057092e-17
5.6450062e-15
4.2774879e-17
2.6540555e-11
1.5372618e-10
7.2738894e-11
3.8928993e-10
4.2694856e-10
3.9577114e-10
3.9561218e-10
3.5701582e-10
3.2534286e-10
2.9179995e-10
2.6157503e-10
2.3310583e-10
2.0701454e-10
1.8314127e-10
1.6224054e-10
1.4501264e-10
1.3073344e-10
1.1872849e-10
1.0861436e-10
1.000461e-10
9.2726293e-11
8.6551734e-11
8.1319041e-11
7.6860724e-11
7.2932417e-11
6.9449224e-11
6.6492177e-11
6.4098017e-11
6.227774e-11
6.101878e-11
6.0287638e-11
6.0026574e-11
6.0104078e-11
6.0388171e-11
6.0186491e-11
4.7988434e-11
3.8854341e-11
3.2092857e-11
2.7140668e-11
2.3633383e-11
2.128433e-11
1.9983302e-11
1.9650662e-11
2.0446922e-11
2.143107e-11
2.217278e-11
2.2807513e-11
2.3403881e-11
2.3960147e-11
2.4492444e-11
2.5000084e-11
2.5486145e-11
2.5950589e-11
2.6394137e-11
2.6816953e-11
2.7219318e-11
2.7601466e-11
2.7963831e-11
2.8307157e-11
2.8632511e-11
2.8941321e-11
2.9235634e-11
2.9511994e-11
2.9770292e-11
3.0011867e-11
3.0237994e-11
3.0450086e-11
3.0649546e-11
3.0837765e-11
3.1016043e-11
3.1185613e-11
3.1347562e-11
3.1502627e-11
3.1651031e-11
3.1792619e-11
3.1927406e-11
3.2054922e-11
3.2175261e-11
3.2295533e-11
3.2421717e-11
3.2531095e-11
3.259714e-11
3.261764e-11
3.2588741e-11
3.2521171e-11
3.2289006e-11
3.2114916e-11
3.1808655e-11
3.143318e-11
3.1005461e-11
3.055286e-11
3.0111586e-11
2.9720818e-11
2.9394759e-11
2.9153816e-11
2.9011161e-11
2.8944855e-11
2.8990713e-11
2.912058e-11
2.9283052e-11
2.9483375e-11
2.9714154e-11
2.9965062e-11
3.0220991e-11
3.0463361e-11
3.0677062e-11
3.0841748e-11
3.093794e-11
3.0961037e-11
3.0911863e-11
3.0796828e-11
3.0628042e-11
3.0422703e-11
3.020109e-11
2.9982895e-11
2.9782729e-11
2.9606421e-11
2.9449275e-11
2.9298181e-11
2.9136589e-11
2.8951078e-11
2.8739047e-11
2.8511009e-11
2.8285852e-11
2.8080374e-11
2.7909394e-11
2.7787578e-11
2.7719086e-11
2.7697883e-11
2.7711374e-11
2.7743372e-11
2.7779638e-11
2.7811127e-11
2.7832295e-11
2.7836935e-11
2.7828814e-11
2.781185e-11
2.7787239e-11
2.7755777e-11
2.7718072e-11
2.7674602e-11
2.7625586e-11
2.757099e-11
2.7510396e-11
2.744222e-11
2.7364085e-11
2.7266725e-11
2.7139195e-11
2.6913197e-11
2.6445584e-11
2.4494919e-11
2.1881295e-11
2.1059871e-11
2.1577452e-11
2.3233631e-11
2.609639e-11
3.032448e-11
3.6287428e-11
4.4464544e-11
5.5501969e-11
5.7712343e-11
5.7351138e-11
5.731406e-11
5.7701354e-11
5.8609493e-11
6.0063597e-11
6.2079356e-11
6.4656744e-11
6.7752446e-11
7.114521e-11
7.5003208e-11
7.9379509e-11
8.442535e-11
9.0390468e-11
9.7376061e-11
1.054396e-10
1.1493602e-10
1.2621204e-10
1.3968776e-10
1.5571387e-10
1.7587517e-10
1.9886854e-10
2.2462081e-10
2.5152253e-10
2.8009205e-10
3.0949602e-10
3.4001585e-10
3.6789144e-10
3.9275436e-10
4.1200973e-10
3.4827905e-10
3.9723826e-10
7.6730511e-11
1.8242471e-10
6.4809773e-11
8.0101723e-17
5.4589572e-15
4.6211183e-22
3.1280608e-19
4.5136612e-23
1.8525366e-13
1.1273985e-11
1.3360839e-11
1.0602662e-10
1.4316998e-10
1.3671838e-10
1.4631433e-10
1.371424e-10
1.2990154e-10
1.1968687e-10
1.0962653e-10
9.9360446e-11
8.9534285e-11
8.0275204e-11
7.2061164e-11
6.5421693e-11
6.0101055e-11
5.5808148e-11
5.237151e-11
4.9643505e-11
4.7494514e-11
4.5889619e-11
4.4746285e-11
4.40305e-11
4.3677625e-11
4.3644859e-11
3.999703e-11
3.2390505e-11
2.5759506e-11
2.0101822e-11
1.5380678e-11
1.1535011e-11
8.5076419e-12
6.2449202e-12
4.6284078e-12
3.4810366e-12
2.6684837e-12
2.0966949e-12
1.6958417e-12
1.4215967e-12
1.2415645e-12
1.1400345e-12
1.1060671e-12
1.1462397e-12
1.2005348e-12
1.2431389e-12
1.2798637e-12
1.3152377e-12
1.3488521e-12
1.381593e-12
1.4132653e-12
1.4439735e-12
1.4736302e-12
1.5022185e-12
1.5296932e-12
1.5560263e-12
1.5811936e-12
1.6051916e-12
1.6280446e-12
1.6498064e-12
1.6705614e-12
1.6904239e-12
1.7090429e-12
1.7264774e-12
1.7428105e-12
1.7581264e-12
1.772521e-12
1.7860913e-12
1.798934e-12
1.8111406e-12
1.8227978e-12
1.8339813e-12
1.8447401e-12
1.8550827e-12
1.8649879e-12
1.8744483e-12
1.8834229e-12
1.8919261e-12
1.9005216e-12
1.9096533e-12
1.9174991e-12
1.9219961e-12
1.9229408e-12
1.9200163e-12
1.9138421e-12
1.8953225e-12
1.88096e-12
1.8564104e-12
1.8265452e-12
1.7927293e-12
1.7571016e-12
1.722429e-12
1.6916362e-12
1.6659048e-12
1.6467328e-12
1.6350943e-12
1.6292301e-12
1.6322085e-12
1.6418952e-12
1.6542015e-12
1.6696587e-12
1.6876647e-12
1.7074123e-12
1.7277188e-12
1.7471144e-12
1.7643948e-12
1.7777513e-12
1.7858387e-12
1.7882646e-12
1.7850846e-12
1.7768016e-12
1.7643692e-12
1.7491349e-12
1.7326766e-12
1.7165168e-12
1.7017817e-12
1.6889266e-12
1.6776095e-12
1.6668521e-12
1.6554164e-12
1.6423018e-12
1.6273195e-12
1.6112666e-12
1.5955748e-12
1.5813536e-12
1.5698899e-12
1.5622834e-12
1.5588648e-12
1.5591898e-12
1.5623076e-12
1.5669908e-12
1.5721592e-12
1.5771428e-12
1.5813837e-12
1.5845745e-12
1.5871172e-12
1.5892498e-12
1.5910832e-12
1.5927083e-12
1.594207e-12
1.5956574e-12
1.5971252e-12
1.5986661e-12
1.6003164e-12
1.602036e-12
1.6037297e-12
1.6047911e-12
1.6043916e-12
1.597352e-12
1.5725617e-12
1.4446171e-12
1.2698762e-12
1.219077e-12
1.2627962e-12
1.390001e-12
1.6115441e-12
1.9485637e-12
2.4437582e-12
3.1563164e-12
4.1718407e-12
5.6058435e-12
7.6231838e-12
1.03952e-11
1.4007062e-11
1.8551903e-11
2.4131642e-11
3.081362e-11
3.8626878e-11
4.3093159e-11
4.3304212e-11
4.3812273e-11
4.464544e-11
4.5839171e-11
4.7478025e-11
4.9584301e-11
5.2198176e-11
5.5479815e-11
5.959354e-11
6.4747079e-11
7.1063166e-11
7.9286712e-11
8.8505064e-11
9.8495838e-11
1.0872766e-10
1.1901744e-10
1.2857639e-10
1.3720422e-10
1.4259362e-10
1.448254e-10
1.4149493e-10
1.1386175e-10
1.1307843e-10
2.0997487e-11
1.5762163e-11
2.3267213e-12
4.7445788e-22
2.2146097e-19
1.0864755e-27
3.6769205e-24
9.610939e-30
5.4815572e-17
2.3068113e-13
9.3149699e-13
1.7094407e-11
4.5699923e-11
4.3615505e-11
5.0843445e-11
4.9709877e-11
4.9560714e-11
4.758356e-11
4.5402214e-11
4.2862631e-11
4.0351105e-11
3.7941841e-11
3.5804782e-11
3.4198509e-11
2.978628e-11
2.3886105e-11
1.9270684e-11
1.5662342e-11
1.2827679e-11
1.0589926e-11
8.7969826e-12
7.3383925e-12
6.0589707e-12
4.8988605e-12
3.8779802e-12
3.0050474e-12
2.2779392e-12
1.68757e-12
1.2207014e-12
8.6176788e-13
5.9607636e-13
4.0993979e-13
2.8535515e-13
2.0225143e-13
1.4669659e-13
1.0960122e-13
8.4754834e-14
6.8372379e-14
5.7869054e-14
5.191165e-14
4.9602075e-14
5.1080954e-14
5.3429542e-14
5.5362313e-14
5.7036474e-14
5.8694051e-14
6.0301509e-14
6.189606e-14
6.3461255e-14
6.4998035e-14
6.6498155e-14
6.7957799e-14
6.937207e-14
7.0737353e-14
7.2050496e-14
7.330978e-14
7.451528e-14
7.5668996e-14
7.6774879e-14
7.7835527e-14
7.8828639e-14
7.976046e-14
8.0635139e-14
8.1457094e-14
8.223145e-14
8.2963494e-14
8.3658531e-14
8.4321626e-14
8.4957583e-14
8.5570552e-14
8.6163095e-14
8.6735337e-14
8.7285582e-14
8.7812974e-14
8.8314983e-14
8.8792932e-14
8.9280986e-14
8.9803951e-14
9.0249345e-14
9.0493435e-14
9.052233e-14
9.0315332e-14
8.9898637e-14
8.8764892e-14
8.7854876e-14
8.6339777e-14
8.4508966e-14
8.2447666e-14
8.0285403e-14
7.8185466e-14
7.6316298e-14
7.4752978e-14
7.3578534e-14
7.2847224e-14
7.2454617e-14
7.2591232e-14
7.3137513e-14
7.385021e-14
7.4764665e-14
7.5843351e-14
7.7037297e-14
7.827489e-14
7.9466477e-14
8.0535939e-14
8.1365377e-14
8.1881193e-14
8.2057967e-14
8.1898288e-14
8.1432498e-14
8.0718477e-14
7.9837646e-14
7.8884638e-14
7.795008e-14
7.7100728e-14
7.6363877e-14
7.5720453e-14
7.5114539e-14
7.4475255e-14
7.3745628e-14
7.2915389e-14
7.2031077e-14
7.1172991e-14
7.0402215e-14
6.979927e-14
6.9427608e-14
6.930681e-14
6.9411185e-14
6.9685117e-14
7.0056788e-14
7.0463089e-14
7.0864677e-14
7.1219115e-14
7.1527422e-14
7.1810989e-14
7.2082101e-14
7.2348153e-14
7.2615752e-14
7.2891252e-14
7.3180965e-14
7.349081e-14
7.382635e-14
7.419225e-14
7.4588821e-14
7.5012306e-14
7.5428055e-14
7.5779078e-14
7.5750243e-14
7.4663011e-14
6.8023984e-14
5.890023e-14
5.641779e-14
5.9078698e-14
6.6459793e-14
7.9508632e-14
1.0001797e-13
1.3148139e-13
1.7909082e-13
2.5089037e-13
3.5873998e-13
5.2077979e-13
7.5874043e-13
1.0893196e-12
1.5316409e-12
2.1070022e-12
2.8340193e-12
3.7272196e-12
4.7933926e-12
6.02775e-12
7.4117556e-12
8.9951821e-12
1.0903115e-11
1.3330505e-11
1.6349054e-11
2.0148561e-11
2.4980574e-11
3.1173055e-11
3.4722516e-11
3.6250845e-11
3.8511775e-11
4.1020134e-11
4.3699084e-11
4.6414848e-11
4.8977843e-11
5.0932078e-11
5.2214195e-11
5.1615988e-11
4.9904925e-11
4.4849061e-11
3.6024468e-11
2.2808689e-11
2.2041839e-12
4.7140005e-13
1.448716e-14
3.83762e-27
1.4419892e-24
2.7959258e-31
1.3792878e-29
5.4336614e-27
4.0294702e-22
1.5085782e-15
4.630924e-14
1.4116205e-12
6.8797278e-12
6.9220306e-12
1.1448695e-11
1.2497804e-11
1.4014657e-11
1.3962199e-11
1.3212385e-11
1.1725812e-11
9.8707845e-12
7.8352621e-12
5.9573946e-12
4.5179297e-12
3.447081e-12
2.6459721e-12
2.0462835e-12
1.5971976e-12
1.2587935e-12
1.002208e-12
8.0443321e-13
6.4960403e-13
5.1855729e-13
4.0386714e-13
3.0681843e-13
2.2734258e-13
1.6418893e-13
1.1546014e-13
7.8984487e-14
5.254213e-14
3.4149755e-14
2.2073943e-14
1.4496607e-14
9.7397419e-15
6.7313348e-15
4.8195879e-15
3.5914891e-15
2.8077057e-15
2.3143359e-15
2.0316337e-15
1.9066998e-15
1.9366256e-15
2.0129117e-15
2.0807061e-15
2.1403955e-15
2.2020991e-15
2.2636724e-15
2.3262474e-15
2.3888145e-15
2.4511956e-15
2.5128671e-15
2.5735298e-15
2.6328583e-15
2.6905991e-15
2.7465322e-15
2.8005132e-15
2.8524906e-15
2.9025139e-15
2.9507426e-15
2.9969673e-15
3.040258e-15
3.0809648e-15
3.1192598e-15
3.1553332e-15
3.1894111e-15
3.2217297e-15
3.2525289e-15
3.2820386e-15
3.3104776e-15
3.3380328e-15
3.364814e-15
3.3908108e-15
3.4159223e-15
3.44009e-15
3.4631912e-15
3.4853118e-15
3.5081163e-15
3.5327018e-15
3.5534342e-15
3.5643046e-15
3.5645158e-15
3.5529563e-15
3.5304118e-15
3.4741051e-15
3.4269782e-15
3.3508131e-15
3.2593959e-15
3.1570874e-15
3.0503013e-15
2.9468894e-15
2.8547416e-15
2.7776858e-15
2.719358e-15
2.682125e-15
2.6611561e-15
2.6654852e-15
2.6899134e-15
2.7231079e-15
2.7667749e-15
2.819039e-15
2.8774835e-15
2.9385848e-15
2.9979107e-15
3.0514652e-15
3.093227e-15
3.1198214e-15
3.1299089e-15
3.1235641e-15
3.1022653e-15
3.0688652e-15
3.0273605e-15
2.9823624e-15
2.9382494e-15
2.8982304e-15
2.863631e-15
2.8335968e-15
2.8055506e-15
2.7762249e-15
2.7430143e-15
2.7054847e-15
2.6658347e-15
2.627593e-15
2.5937071e-15
2.5680992e-15
2.5537203e-15
2.5514866e-15
2.5601805e-15
2.5771566e-15
2.5990111e-15
2.6227586e-15
2.6463363e-15
2.6676679e-15
2.6875848e-15
2.7068954e-15
2.7261598e-15
2.7457788e-15
2.7661335e-15
2.7876067e-15
2.8105908e-15
2.835476e-15
2.8626493e-15
2.892464e-15
2.9250677e-15
2.9603563e-15
2.9966719e-15
3.0307721e-15
3.046954e-15
3.0117721e-15
2.7348244e-15
2.3486707e-15
2.2481687e-15
2.3734623e-15
2.712972e-15
3.3235069e-15
4.3135758e-15
5.895904e-15
8.4086505e-15
1.2412357e-14
1.8803449e-14
2.9055992e-14
4.5156644e-14
6.9035691e-14
1.0306384e-13
1.5004478e-13
2.1280461e-13
2.9397821e-13
3.9553171e-13
5.1818606e-13
6.6107222e-13
8.3080819e-13
1.0434652e-12
1.3253877e-12
1.6902438e-12
2.1690862e-12
2.8048022e-12
3.6563228e-12
4.8068424e-12
6.3434527e-12
8.4590208e-12
1.0793765e-11
1.3005619e-11
1.4931437e-11
1.6281627e-11
1.6649304e-11
1.6021302e-11
1.3836302e-11
1.112377e-11
7.2959043e-12
4.0992126e-12
2.0065677e-12
1.9573663e-13
3.9044044e-15
2.2772112e-17
3.0742725e-31
2.2007788e-30
4.0529877e-31
6.7676155e-31
4.4487598e-31
7.9020781e-29
2.6509061e-18
1.526195e-15
8.6512797e-14
5.9568896e-13
6.6015805e-13
1.2016798e-12
1.3880918e-12
1.6152237e-12
1.639434e-12
1.5561797e-12
1.3665985e-12
1.124487e-12
8.6106267e-13
6.2523507e-13
4.5225968e-13
3.2946214e-13
2.4175958e-13
1.7902489e-13
1.3408185e-13
1.0163216e-13
7.8019928e-14
6.0519317e-14
4.7335016e-14
3.6568038e-14
2.7475473e-14
2.0077868e-14
1.4274105e-14
9.8702334e-15
6.6350506e-15
4.3355985e-15
2.7561578e-15
1.7163753e-15
1.0699748e-15
6.8458729e-16
4.5305144e-16
3.11654e-16
2.240522e-16
1.6848585e-16
1.3299044e-16
1.1008655e-16
9.6030188e-17
8.8088144e-17
8.5761405e-17
8.6425282e-17
8.7783444e-17
8.9196123e-17
9.0977664e-17
9.2936026e-17
9.5074956e-17
9.7316891e-17
9.9633066e-17
1.019848e-16
1.0434742e-16
1.0669745e-16
1.0901643e-16
1.1128864e-16
1.1350292e-16
1.1565326e-16
1.1773929e-16
1.1976901e-16
1.2170331e-16
1.2351899e-16
1.2522953e-16
1.2684203e-16
1.2836481e-16
1.2980793e-16
1.3118212e-16
1.3249828e-16
1.33767e-16
1.349983e-16
1.3620063e-16
1.373786e-16
1.3853074e-16
1.3965102e-16
1.4073553e-16
1.4177823e-16
1.4278406e-16
1.4383452e-16
1.4497766e-16
1.4592647e-16
1.4638748e-16
1.4631026e-16
1.4563491e-16
1.4436884e-16
1.4155615e-16
1.3899743e-16
1.3507745e-16
1.3041225e-16
1.2523046e-16
1.1985691e-16
1.1467587e-16
1.1006261e-16
1.0621216e-16
1.032796e-16
1.013637e-16
1.0026392e-16
1.0035052e-16
1.0141164e-16
1.0296172e-16
1.0506219e-16
1.0761989e-16
1.1051496e-16
1.1357217e-16
1.1657025e-16
1.1929356e-16
1.2143865e-16
1.2284288e-16
1.2343378e-16
1.2321116e-16
1.2224722e-16
1.2068412e-16
1.1872084e-16
1.1658547e-16
1.1449276e-16
1.1259936e-16
1.1097085e-16
1.0956905e-16
1.0827448e-16
1.0693556e-16
1.0543261e-16
1.0374792e-16
1.0198798e-16
1.0030091e-16
9.8845173e-17
9.7808415e-17
9.7329967e-17
9.7454036e-17
9.8123018e-17
9.9210231e-17
1.0055306e-16
1.0200977e-16
1.0345216e-16
1.0482352e-16
1.0617252e-16
1.0753568e-16
1.0894303e-16
1.1041997e-16
1.1199252e-16
1.1368854e-16
1.1553834e-16
1.1757472e-16
1.1983338e-16
1.2235184e-16
1.2516164e-16
1.28284e-16
1.31666e-16
1.3515685e-16
1.3799727e-16
1.3854104e-16
1.2853253e-16
1.1274427e-16
1.0837933e-16
1.1356773e-16
1.2784219e-16
1.5383183e-16
1.9665873e-16
2.6664945e-16
3.810942e-16
5.7039419e-16
8.8666774e-16
1.4217675e-15
2.3121432e-15
3.7130356e-15
5.8303029e-15
8.9250279e-15
1.328946e-14
1.9228165e-14
2.7014593e-14
3.6827298e-14
4.8708767e-14
6.3363887e-14
8.2454584e-14
1.0883152e-13
1.4438562e-13
1.9308182e-13
2.6064829e-13
3.553749e-13
4.8958373e-13
6.7739851e-13
9.4893456e-13
1.2586124e-12
1.557153e-12
1.8157866e-12
1.9863321e-12
2.0095276e-12
1.8801632e-12
1.5480378e-12
1.1531999e-12
6.8439658e-13
3.4663909e-13
1.3042222e-13
1.4429169e-14
7.9770463e-18
1.2160035e-20
2.1170326e-27
6.5484347e-31
5.8028096e-31
2.0139305e-24
3.7161605e-22
3.5480865e-25
1.5191097e-21
3.2466269e-17
3.7386993e-15
4.0427193e-14
4.9572791e-14
1.0098785e-13
1.2470025e-13
1.5175798e-13
1.5781117e-13
1.5084846e-13
1.3143382e-13
1.059044e-13
7.8309404e-14
5.4339857e-14
3.7520149e-14
2.6126389e-14
1.8356631e-14
1.3043775e-14
9.4003884e-15
6.8774769e-15
5.1133717e-15
3.853831e-15
2.938506e-15
2.2151706e-15
1.6235148e-15
1.1583002e-15
8.0613639e-16
5.484104e-16
3.6562933e-16
2.3987503e-16
1.5583821e-16
1.0156704e-16
6.812244e-17
4.8139552e-17
3.5953926e-17
2.8277528e-17
2.3281958e-17
1.9831573e-17
1.7335723e-17
1.5372025e-17
1.3780854e-17
1.2330151e-17
1.1013751e-17
1.0296789e-17
9.9898727e-18
9.8146125e-18
9.7539371e-18
9.7579646e-18
9.8138644e-18
9.9043269e-18
1.0020795e-17
1.0155296e-17
1.030252e-17
1.0457984e-17
1.0618242e-17
1.0780478e-17
1.0942623e-17
1.1103355e-17
1.1262102e-17
1.1419518e-17
1.156758e-17
1.1706947e-17
1.1838329e-17
1.1962322e-17
1.2079721e-17
1.2191498e-17
1.2298705e-17
1.2402415e-17
1.2503675e-17
1.2603464e-17
1.2702589e-17
1.2801422e-17
1.2899648e-17
1.2996439e-17
1.3091205e-17
1.3183257e-17
1.3273147e-17
1.3369568e-17
1.3477038e-17
1.3563381e-17
1.3597161e-17
1.3571065e-17
1.3478159e-17
1.3312853e-17
1.3015372e-17
1.2687687e-17
1.2237093e-17
1.1707273e-17
1.1124841e-17
1.052629e-17
9.9530452e-18
9.4443141e-18
9.0215177e-18
8.6982655e-18
8.4827101e-18