/*--------------------------------*- C++ -*----------------------------------*\
| =========                 |                                                 |
| \\      /  F ield         | OpenFOAM: The Open Source CFD Toolbox           |
|  \\    /   O peration     | Version:  2.4.0                                 |
|   \\  /    A nd           | Web:      www.OpenFOAM.org                      |
|    \\/     M anipulation  |                                                 |
\*---------------------------------------------------------------------------*/
FoamFile
{
    version     2.0;
    format      ascii;
    class       volScalarField;
    location    "60";
    object      p;
}
// * * * * * * * * * * * * * * * * * * * * * * * * * * * * * * * * * * * * * //

dimensions      [0 2 -2 0 0 0 0];

internalField   nonuniform List<scalar> 
32000
(
-0.17425131
-0.14539384
-0.14836003
-0.14433684
-0.14137366
-0.13433735
-0.12977632
-0.12722868
-0.12580535
-0.12465394
-0.12363974
-0.12276867
-0.12210935
-0.12169253
-0.12166355
-0.12206987
-0.12290445
-0.12414261
-0.12576793
-0.12771233
-0.12985715
-0.13201726
-0.13401085
-0.13578042
-0.13738051
-0.13891844
-0.14047555
-0.14214169
-0.14396039
-0.14595385
-0.1481162
-0.15042571
-0.15285855
-0.15540203
-0.158067
-0.1608792
-0.16388803
-0.16715192
-0.17077817
-0.17483698
-0.17945507
-0.18459175
-0.19024328
-0.19603771
-0.20196398
-0.20756895
-0.21353912
-0.21936327
-0.22608857
-0.23263359
-0.23902829
-0.24475523
-0.24962208
-0.25334578
-0.25576057
-0.25672417
-0.25615629
-0.25401702
-0.25031049
-0.24507794
-0.2383919
-0.23035087
-0.22107498
-0.21069851
-0.19936463
-0.18721711
-0.17439617
-0.16103697
-0.14726676
-0.13320398
-0.11895621
-0.1046207
-0.0902844
-0.076024206
-0.061909796
-0.048004273
-0.034368637
-0.021065264
-0.0081606655
0.0042561458
0.016100922
0.027201541
0.037792851
0.048110716
0.057791275
0.06647631
0.07392379
0.079918093
0.084251962
0.08675139
0.087292525
0.085835587
0.082455111
0.077358271
0.070868464
0.063407872
0.055423997
0.047315801
0.039378088
0.031777083
0.024539414
0.017611672
0.0109644
0.0047078255
-0.00085985256
-0.0053131974
-0.0082519688
-0.0094596311
-0.0089629157
-0.0070103069
-0.004013897
-0.00049452851
0.0030024996
0.0059679035
0.0079857522
0.008788866
0.0082888525
0.0065889516
0.0039424225
0.00067377166
-0.0029274659
-0.0067050237
-0.010704367
-0.015183688
-0.020547515
-0.027218473
-0.035530011
-0.045701833
-0.057794408
-0.07166313
-0.086973215
-0.10325591
-0.11992713
-0.13644158
-0.15237175
-0.16739788
-0.18134417
-0.19410592
-0.20565646
-0.21599682
-0.22514242
-0.23310523
-0.23989493
-0.24551191
-0.24994826
-0.2531808
-0.25517083
-0.25584856
-0.25511976
-0.25280173
-0.24871154
-0.24230426
-0.23344897
-0.22150504
-0.21545021
-0.21083636
-0.2073009
-0.20436661
-0.20185031
-0.19948516
-0.19724647
-0.194955
-0.19253979
-0.18990288
-0.18702549
-0.18375925
-0.17969366
-0.17461596
-0.16839377
-0.1609145
-0.15211899
-0.14198058
-0.1305163
-0.11774568
-0.10394514
-0.089511446
-0.0748885
-0.060251744
-0.045846283
-0.031896628
-0.018616338
-0.0062093762
0.0050945681
0.015047665
0.023464448
0.029895619
0.033106273
0.031794022
0.024643998
0.0098841484
-0.014517057
-0.050689177
-0.098592574
-0.15482962
-0.20169447
-0.22905577
-0.23669358
-0.23325226
-0.21897921
-0.21201323
-0.17425207
-0.14539287
-0.1483571
-0.1443318
-0.14137232
-0.13434845
-0.12978856
-0.12723999
-0.12581464
-0.1246626
-0.12364811
-0.1227762
-0.1221154
-0.12169642
-0.12166402
-0.12206654
-0.12289732
-0.12413172
-0.1257535
-0.12769508
-0.12983821
-0.13199835
-0.13399344
-0.13576495
-0.13736636
-0.13890466
-0.14046123
-0.142126
-0.14394297
-0.14593466
-0.1480955
-0.15040396
-0.15283623
-0.1553795
-0.15804449
-0.16085677
-0.1638658
-0.16712977
-0.17075624
-0.17481533
-0.17943447
-0.18457288
-0.19022783
-0.19602637
-0.20195782
-0.20756712
-0.21354022
-0.21936502
-0.22609009
-0.23263389
-0.23902787
-0.24475375
-0.24961966
-0.25334237
-0.25575624
-0.25671898
-0.25615033
-0.25401038
-0.2503033
-0.24507032
-0.23838397
-0.23034277
-0.2210668
-0.21069038
-0.19935664
-0.18720937
-0.17438877
-0.16102998
-0.14726023
-0.13319794
-0.11895069
-0.10461575
-0.090280007
-0.07602041
-0.061906597
-0.048001707
-0.034366711
-0.021064011
-0.0081601
0.0042559994
0.016100104
0.027200252
0.037791043
0.048107943
0.057787448
0.066471658
0.073918408
0.079912086
0.084245565
0.08674487
0.087286243
0.085829936
0.082450522
0.077355083
0.07086694
0.063407998
0.055425802
0.047318868
0.039382103
0.031781498
0.024543961
0.017616121
0.010968809
0.0047122233
-0.00085555965
-0.005309246
-0.0082488371
-0.0094576808
-0.0089624561
-0.0070113656
-0.0040163689
-0.00049810436
0.0029981975
0.0059633276
0.0079814122
0.0087851945
0.0082861773
0.0065873813
0.0039418903
0.00067396459
-0.0029268721
-0.0067043568
-0.01070376
-0.015182937
-0.020546291
-0.027216145
-0.035526194
-0.045695963
-0.057786253
-0.071652557
-0.086960461
-0.10324141
-0.11991139
-0.13642538
-0.15235556
-0.16738222
-0.18132925
-0.19409193
-0.20564335
-0.21598465
-0.22513116
-0.23309491
-0.23988554
-0.2455035
-0.24994084
-0.25317442
-0.25516558
-0.25584451
-0.25511715
-0.25280074
-0.24871304
-0.24230871
-0.23346167
-0.22152157
-0.21545762
-0.21083623
-0.20729737
-0.20436028
-0.2018419
-0.1994748
-0.19723413
-0.1949401
-0.19252193
-0.18988163
-0.18700012
-0.18372698
-0.17965186
-0.17456333
-0.16832919
-0.16083731
-0.15202903
-0.1418782
-0.13040213
-0.11762186
-0.10381537
-0.089379607
-0.07475687
-0.060121996
-0.045720499
-0.031776583
-0.018503857
-0.0061063653
0.0051860029
0.015125926
0.023525385
0.029930329
0.033104847
0.031747109
0.02454149
0.0097171616
-0.014753375
-0.050980424
-0.098898722
-0.15505746
-0.20179437
-0.2290666
-0.23667352
-0.23323108
-0.21896408
-0.2120108
-0.17425205
-0.14539146
-0.14835364
-0.14432537
-0.1413702
-0.13435976
-0.12980149
-0.12725239
-0.125825
-0.12467225
-0.12365743
-0.12278459
-0.12212217
-0.12170082
-0.12166465
-0.122063
-0.12288959
-0.12411984
-0.12573769
-0.12767614
-0.12981739
-0.13197752
-0.13397423
-0.13574785
-0.1373507
-0.13888943
-0.14044541
-0.14210868
-0.14392374
-0.14591348
-0.14807266
-0.15037995
-0.1528116
-0.15535464
-0.15801965
-0.16083204
-0.1638413
-0.16710537
-0.17073208
-0.17479149
-0.1794118
-0.18455215
-0.19021093
-0.196014
-0.2019512
-0.2075651
-0.21354128
-0.21936655
-0.22609147
-0.23263394
-0.23902721
-0.24475196
-0.2496169
-0.25333857
-0.25575148
-0.25671331
-0.25614384
-0.25400318
-0.25029552
-0.24506208
-0.23837541
-0.23033404
-0.221058
-0.21068163
-0.19934804
-0.18720105
-0.17438081
-0.16102244
-0.14725318
-0.13319143
-0.11894475
-0.10461041
-0.090275288
-0.076016351
-0.061903195
-0.047999008
-0.034364718
-0.021062762
-0.0081596105
0.0042557046
0.016099081
0.027198659
0.037788825
0.048104685
0.057783056
0.066466389
0.073912361
0.079905376
0.084238463
0.086737662
0.087279325
0.085823725
0.082445495
0.077351598
0.070865302
0.063408163
0.055427853
0.047322321
0.039386672
0.031786547
0.024549207
0.017621247
0.010973852
0.0047171643
-0.00085085617
-0.0053050131
-0.0082455953
-0.0094557698
-0.0089622024
-0.0070127586
-0.0040192819
-0.00050217343
0.0029933874
0.0059582638
0.0079766551
0.008781196
0.008283281
0.0065856796
0.0039413129
0.00067416012
-0.0029262262
-0.0067035991
-0.010703007
-0.015181924
-0.020544686
-0.027213215
-0.035521608
-0.045689054
-0.0577768
-0.071640429
-0.086945968
-0.10322506
-0.11989372
-0.13640727
-0.15233749
-0.16736479
-0.18131266
-0.19407641
-0.20562881
-0.21597117
-0.22511868
-0.2330835
-0.23987517
-0.24549421
-0.24993265
-0.25316741
-0.25515984
-0.25584014
-0.25511441
-0.25279988
-0.2487151
-0.24231425
-0.2334768
-0.22154108
-0.2154674
-0.21083745
-0.20729464
-0.20435435
-0.20183362
-0.19946427
-0.19722136
-0.19492444
-0.19250295
-0.18985884
-0.18697269
-0.18369189
-0.17960616
-0.17450563
-0.16825821
-0.16075235
-0.15192989
-0.14176529
-0.13027621
-0.11748531
-0.10367233
-0.089234365
-0.074611926
-0.059979178
-0.04558211
-0.031644586
-0.018380285
-0.0059933342
0.0052861904
0.015211526
0.023591582
0.029967394
0.033101841
0.031693698
0.024426633
0.0095311798
-0.015015304
-0.051301403
-0.09923274
-0.15530061
-0.2018945
-0.22907084
-0.23664682
-0.23320562
-0.21894606
-0.21200783
-0.17425082
-0.14538991
-0.14834947
-0.14431846
-0.14136779
-0.13437061
-0.12981401
-0.12726484
-0.12583558
-0.12468214
-0.12366695
-0.12279318
-0.12212909
-0.12170532
-0.12166532
-0.1220594
-0.12288172
-0.12410773
-0.12572157
-0.12765684
-0.12979617
-0.13195628
-0.13395464
-0.13573039
-0.13733472
-0.13887386
-0.14042924
-0.14209098
-0.1439041
-0.14589182
-0.14804931
-0.1503554
-0.15278641
-0.1553292
-0.15799423
-0.16080671
-0.16381617
-0.16708031
-0.17070723
-0.17476695
-0.17938847
-0.18453087
-0.19019373
-0.19600159
-0.20194472
-0.20756326
-0.21354244
-0.21936791
-0.22609281
-0.23263411
-0.23902674
-0.24475048
-0.24961452
-0.25333521
-0.25574721
-0.25670815
-0.25613787
-0.25399646
-0.25028819
-0.24505426
-0.23836723
-0.23032562
-0.22104945
-0.21067309
-0.19933961
-0.18719283
-0.17437291
-0.16101492
-0.14724612
-0.13318487
-0.11893874
-0.10460499
-0.090270467
-0.076012182
-0.061899672
-0.047996186
-0.034362596
-0.02106138
-0.0081589763
0.0042555734
0.016098248
0.027197161
0.037786617
0.048101521
0.057778851
0.066461366
0.073906617
0.079899017
0.084231769
0.086730895
0.087272857
0.085817931
0.082440829
0.077348369
0.070863829
0.063408367
0.055429868
0.047325665
0.03939116
0.031791549
0.02455448
0.017626404
0.010978878
0.0047219531
-0.00084649369
-0.0053012676
-0.0082429461
-0.0094544437
-0.0089624701
-0.0070145386
-0.0040224284
-0.00050630154
0.002988679
0.0059534247
0.007972216
0.0087775452
0.0082807101
0.0065842228
0.0039408952
0.00067443381
-0.0029255162
-0.006702727
-0.010702022
-0.01518049
-0.020542513
-0.027209539
-0.0355162
-0.045681236
-0.057766468
-0.071627488
-0.086930803
-0.10320825
-0.11987573
-0.136389
-0.15231934
-0.16734738
-0.18129613
-0.19406101
-0.20561438
-0.21595783
-0.22510636
-0.23307226
-0.23986499
-0.24548516
-0.24992473
-0.25316072
-0.25515448
-0.25583622
-0.25511225
-0.25279977
-0.24871813
-0.24232127
-0.23349406
-0.2215635
-0.21548005
-0.21084129
-0.20729415
-0.20435039
-0.20182711
-0.19945535
-0.19721004
-0.19491007
-0.19248511
-0.18983701
-0.18694604
-0.18365729
-0.17956059
-0.17444763
-0.16818652
-0.16066622
-0.15182915
-0.14165031
-0.13014775
-0.11734592
-0.10352631
-0.089086136
-0.074464021
-0.059833481
-0.045440975
-0.031510017
-0.018254389
-0.0058782939
0.0053880627
0.015298448
0.023658425
0.030004364
0.033097846
0.031638153
0.024308426
0.0093407872
-0.015281909
-0.051625243
-0.099564015
-0.15553133
-0.20197663
-0.22906004
-0.23661163
-0.23317628
-0.21892695
-0.21200398
-0.1742483
-0.14538818
-0.14834424
-0.14431098
-0.1413652
-0.13438169
-0.1298266
-0.12727768
-0.12584666
-0.12469256
-0.123677
-0.12280226
-0.1221364
-0.12171007
-0.121666
-0.12205557
-0.12287337
-0.12409489
-0.12570449
-0.1276364
-0.12977373
-0.13193385
-0.13393394
-0.13571194
-0.13731781
-0.13885739
-0.1404121
-0.14207222
-0.14388327
-0.14586888
-0.14802456
-0.15032938
-0.1527597
-0.15530222
-0.15796724
-0.1607798
-0.16378945
-0.16705363
-0.17068072
-0.17474074
-0.17936356
-0.18450825
-0.19017558
-0.19598873
-0.20193825
-0.20756165
-0.21354382
-0.2193692
-0.22609428
-0.23263455
-0.23902666
-0.24474949
-0.2496127
-0.25333244
-0.25574354
-0.25670356
-0.25613243
-0.25399023
-0.25028129
-0.24504678
-0.2383593
-0.23031739
-0.221041
-0.21066457
-0.19933114
-0.18718453
-0.17436488
-0.16100723
-0.14723886
-0.13317808
-0.11893249
-0.10459932
-0.090265396
-0.076007774
-0.061895921
-0.047993155
-0.034360282
-0.021059824
-0.0081581832
0.0042556062
0.016097596
0.027195696
0.037784289
0.048098328
0.057774721
0.066456456
0.073901037
0.079892889
0.084225382
0.086724509
0.087266829
0.085812598
0.082436622
0.077345533
0.070862686
0.063408808
0.055432009
0.047329039
0.039395648
0.03179656
0.024559805
0.01763163
0.010983924
0.0047266116
-0.00084249885
-0.0052981193
-0.0082410738
-0.0094539508
-0.0089635288
-0.0070169761
-0.0040260547
-0.00051069997
0.0029839153
0.0059487189
0.0079680689
0.0087742757
0.0082785418
0.0065831098
0.0039407273
0.00067485804
-0.0029246991
-0.006701707
-0.01070075
-0.015178536
-0.020539581
-0.027204837
-0.035509558
-0.045671993
-0.057754646
-0.071613073
-0.086914278
-0.1031903
-0.11985683
-0.13637006
-0.15230069
-0.16732962
-0.18127937
-0.19404545
-0.20559981
-0.2159444
-0.22509399
-0.23306104
-0.23985489
-0.24547624
-0.24991702
-0.25315433
-0.25514953
-0.25583285
-0.2551108
-0.25280065
-0.24872251
-0.24233044
-0.23351476
-0.22159152
-0.21549762
-0.21084934
-0.20729718
-0.2043495
-0.20182327
-0.19944877
-0.19720076
-0.19489743
-0.19246863
-0.18981617
-0.18691995
-0.18362262
-0.17951411
-0.17438778
-0.16811193
-0.1605761
-0.15172332
-0.14152916
-0.13001214
-0.11719864
-0.10337199
-0.088929514
-0.074307732
-0.059679529
-0.045291846
-0.031367831
-0.01812139
-0.0057568012
0.0054956152
0.015390135
0.023728749
0.03004307
0.033093204
0.031578992
0.024183241
0.0091400602
-0.015561199
-0.051960636
-0.099899031
-0.15574884
-0.20203312
-0.22902507
-0.2365615
-0.23313946
-0.21890564
-0.21199875
-0.17424435
-0.14538615
-0.14833766
-0.14430273
-0.14136237
-0.13439313
-0.12983928
-0.12729087
-0.12585821
-0.12470351
-0.12368759
-0.12281185
-0.12214413
-0.12171507
-0.1216667
-0.12205149
-0.1228645
-0.12408126
-0.12568637
-0.12761472
-0.12974995
-0.13191009
-0.13391204
-0.13569241
-0.1372999
-0.13883991
-0.14039391
-0.1420523
-0.14386115
-0.1458445
-0.14799826
-0.15030173
-0.15273132
-0.15527353
-0.15793853
-0.16075115
-0.16376096
-0.16702514
-0.17065238
-0.1747127
-0.17933691
-0.18448414
-0.19015643
-0.19597543
-0.20193182
-0.20756031
-0.21354545
-0.21937045
-0.22609593
-0.23263536
-0.23902709
-0.24474916
-0.24961161
-0.25333046
-0.25574066
-0.25669976
-0.25612773
-0.25398467
-0.25027499
-0.24503982
-0.2383518
-0.23030947
-0.22103278
-0.21065619
-0.19932273
-0.18717624
-0.17435679
-0.16099943
-0.14723146
-0.13317113
-0.11892605
-0.10459346
-0.090260139
-0.07600319
-0.061892013
-0.047989991
-0.034357863
-0.021058185
-0.0081573256
0.004255712
0.016097045
0.027194142
0.03778168
0.048094966
0.057770553
0.066451536
0.073895515
0.079886911
0.084219251
0.086718491
0.087261268
0.085807795
0.08243297
0.0773432
0.070861979
0.06340959
0.055434329
0.047332464
0.039400103
0.031801526
0.024565113
0.017636862
0.010988924
0.0047310553
-0.00083899651
-0.0052957532
-0.0082402033
-0.0094545384
-0.0089656086
-0.0070202716
-0.0040303157
-0.00051547812
0.0029790401
0.0059441436
0.0079642544
0.0087714601
0.0082768617
0.0065824218
0.0039408654
0.00067546641
-0.0029237659
-0.0067005315
-0.01069916
-0.015175995
-0.020535764
-0.027198942
-0.035501447
-0.045661056
-0.05774105
-0.071596922
-0.086896171
-0.10317106
-0.11983697
-0.13635047
-0.15228164
-0.16731168
-0.18126257
-0.19402987
-0.20558523
-0.21593102
-0.22508171
-0.23304996
-0.23984498
-0.24546758
-0.24990965
-0.25314837
-0.25514513
-0.25583018
-0.25511025
-0.25280274
-0.24872853
-0.24234232
-0.23354002
-0.22162771
-0.21552241
-0.21086363
-0.20730555
-0.20435331
-0.2018236
-0.19944592
-0.1971948
-0.1948877
-0.19245463
-0.18979734
-0.18689532
-0.1835886
-0.17946727
-0.17432644
-0.16803464
-0.16048201
-0.15161222
-0.14140149
-0.12986886
-0.11704283
-0.10320872
-0.088763821
-0.074142351
-0.059516602
-0.045134001
-0.031217317
-0.01798058
-0.005628159
0.0056095065
0.015487147
0.023803077
0.030083928
0.03308809
0.031516137
0.0240508
0.0089286644
-0.015853105
-0.052306158
-0.10023338
-0.15594395
-0.20205203
-0.22895514
-0.23648929
-0.23309144
-0.21888105
-0.21199166
-0.1742389
-0.14538366
-0.14832934
-0.1442935
-0.14135918
-0.13440501
-0.12985202
-0.12730433
-0.12587019
-0.12471496
-0.12369874
-0.12282197
-0.12215229
-0.12172034
-0.1216674
-0.12204713
-0.12285505
-0.12406677
-0.12566712
-0.12759172
-0.12972476
-0.13188496
-0.13388888
-0.13567175
-0.13728093
-0.13882138
-0.14037461
-0.14203114
-0.14383765
-0.1458186
-0.14797033
-0.15027236
-0.15270116
-0.15524304
-0.15790799
-0.16072064
-0.16373058
-0.16699473
-0.17062207
-0.17468266
-0.17930837
-0.18445842
-0.1901362
-0.19596164
-0.20192544
-0.20755926
-0.21354736
-0.21937172
-0.22609791
-0.23263673
-0.23902824
-0.24474975
-0.24961156
-0.25332958
-0.2557389
-0.25669706
-0.25612407
-0.25398008
-0.25026956
-0.24503361
-0.23834493
-0.23030207
-0.22102496
-0.2106481
-0.19931455
-0.18716809
-0.17434877
-0.16099164
-0.14722401
-0.1331641
-0.11891952
-0.1045875
-0.090254779
-0.075998515
-0.061888038
-0.047986787
-0.034355436
-0.021056565
-0.0081565099
0.0042557891
0.016096499
0.027192362
0.037778642
0.048091296
0.057766217
0.066446478
0.073889935
0.07988099
0.084213307
0.086712805
0.08725617
0.085803545
0.082429913
0.077341412
0.070861734
0.063410726
0.055436787
0.047335868
0.039404413
0.031806328
0.024570278
0.017641988
0.010993762
0.0047351484
-0.00083615687
-0.0052943849
-0.0082405711
-0.0094564435
-0.0089689145
-0.0070245931
-0.0040353321
-0.00052071246
0.0029740235
0.0059397143
0.0079608215
0.0087691695
0.0082757448
0.0065822246
0.0039413517
0.00067628379
-0.0029227047
-0.0066991805
-0.010697205
-0.015172787
-0.020530926
-0.027191682
-0.03549165
-0.045648203
-0.05772546
-0.071578861
-0.086876372
-0.10315051
-0.11981625
-0.13633041
-0.15226243
-0.16729388
-0.18124603
-0.1940145
-0.20557087
-0.21591789
-0.22506973
-0.23303923
-0.23983547
-0.24545939
-0.24990283
-0.25314305
-0.25514148
-0.25582843
-0.25511084
-0.25280635
-0.24873656
-0.24235761
-0.23357112
-0.22167491
-0.21555699
-0.21088648
-0.20732139
-0.2043638
-0.20182993
-0.19944853
-0.19719378
-0.19488238
-0.1924445
-0.18978181
-0.18687331
-0.18355623
-0.17942088
-0.17426426
-0.16795511
-0.16038422
-0.15149595
-0.14126724
-0.12971768
-0.1168782
-0.10303613
-0.088588708
-0.073967501
-0.059344305
-0.044967033
-0.031058054
-0.017831527
-0.0054919294
0.0057301594
0.015589841
0.023881783
0.030127258
0.033082671
0.031449629
0.023911096
0.008706756
-0.016156837
-0.052659464
-0.10056172
-0.15610687
-0.20202096
-0.22883881
-0.23638709
-0.2330278
-0.21885185
-0.21198203
-0.17423188
-0.14538056
-0.14831875
-0.144283
-0.14135547
-0.13441743
-0.12986478
-0.12731797
-0.12588252
-0.1247269
-0.12371046
-0.12283265
-0.12216092
-0.12172589
-0.12166812
-0.12204247
-0.12284499
-0.12405137
-0.12564668
-0.12756731
-0.12969806
-0.13185836
-0.1338644
-0.13564991
-0.13726085
-0.13880175
-0.14035412
-0.14200866
-0.14381268
-0.14579108
-0.14794065
-0.15024116
-0.15266911
-0.15521062
-0.1578755
-0.16068815
-0.16369818
-0.16696223
-0.17058961
-0.17465047
-0.17927776
-0.18443092
-0.19011474
-0.19594729
-0.20191906
-0.20755844
-0.2135496
-0.21937316
-0.22610037
-0.23263893
-0.23903045
-0.24475162
-0.24961291
-0.25333018
-0.25573864
-0.25669582
-0.25612181
-0.25397678
-0.2502653
-0.24502844
-0.23833896
-0.23029542
-0.22101774
-0.2106405
-0.19930675
-0.18716022
-0.17434095
-0.16098398
-0.14721663
-0.13315709
-0.11891299
-0.10458152
-0.090249418
-0.075993853
-0.061884106
-0.047983658
-0.034353124
-0.021055094
-0.0081558711
0.0042557033
0.016095826
0.027190176
0.037775009
0.048087157
0.057761525
0.0664411
0.073884123
0.07987497
0.084207416
0.086707344
0.087251452
0.08579979
0.082427399
0.077340113
0.070861884
0.06341213
0.055439253
0.047339096
0.039408402
0.031810795
0.024575137
0.01764686
0.010998289
0.0047387253
-0.00083417127
-0.0052942355
-0.0082424034
-0.0094598789
-0.0089736223
-0.0070300809
-0.0040412057
-0.00052646992
0.002968834
0.0059354344
0.0079577982
0.0087674483
0.0082752362
0.0065825557
0.0039422069
0.00067732315
-0.0029215026
-0.0066976237
-0.010694821
-0.015168813
-0.02052493
-0.027182886
-0.035479961
-0.045633237
-0.057707699
-0.071558769
-0.08685484
-0.10312872
-0.11979484
-0.13631012
-0.15224341
-0.16727662
-0.18123007
-0.19399961
-0.20555704
-0.2159053
-0.22505831
-0.2330291
-0.2398266
-0.24545189
-0.24989677
-0.25313861
-0.25513883
-0.25582787
-0.25511286
-0.25281181
-0.24874708
-0.24237716
-0.23360956
-0.22173626
-0.21560428
-0.21092061
-0.20734722
-0.20438331
-0.20184445
-0.19945866
-0.19719961
-0.19488328
-0.19243991
-0.18977111
-0.18685527
-0.18352664
-0.17937585
-0.17420191
-0.16787379
-0.16028299
-0.15137455
-0.14112624
-0.12955828
-0.11670431
-0.10285379
-0.088403713
-0.073782699
-0.059162139
-0.044790428
-0.03088953
-0.017673713
-0.0053475969
0.0058580521
0.015698614
0.023965256
0.030173364
0.033077055
0.031379414
0.023763991
0.0084743199
-0.016471803
-0.053018456
-0.10087911
-0.15622841
-0.20192793
-0.22866427
-0.23624611
-0.23294331
-0.2188164
-0.21196895
-0.1742233
-0.14537666
-0.14830517
-0.14427087
-0.14135094
-0.13443047
-0.12987757
-0.12733168
-0.12589515
-0.1247393
-0.12372274
-0.1228439
-0.12217002
-0.12173174
-0.12166884
-0.12203749
-0.12283427
-0.12403498
-0.12562496
-0.12754139
-0.12966975
-0.13183021
-0.13383852
-0.13562683
-0.13723961
-0.13878094
-0.14033237
-0.14198478
-0.14378614
-0.14576183
-0.14790911
-0.15020798
-0.15263503
-0.15517613
-0.1578409
-0.16065352
-0.1636636
-0.16692748
-0.17055484
-0.17461591
-0.17924489
-0.18440143
-0.19009186
-0.1959322
-0.20191254
-0.20755774
-0.21355225
-0.21937504
-0.22610357
-0.23264232
-0.23903412
-0.24475524
-0.24961615
-0.25333276
-0.25574036
-0.2566965
-0.25612138
-0.25397519
-0.25026259
-0.24502464
-0.23833418
-0.23028978
-0.22101135
-0.21063361
-0.19929955
-0.18715282
-0.17433348
-0.16097658
-0.14720945
-0.13315024
-0.11890659
-0.10457567
-0.090244181
-0.075989334
-0.061880355
-0.04798075
-0.034351086
-0.021053939
-0.008155584
0.004255277
0.016094843
0.027187347
0.037770593
0.048082354
0.057756211
0.066435161
0.073877841
0.079868624
0.084201365
0.086701918
0.087246946
0.085796381
0.082425284
0.07733915
0.070862259
0.063413608
0.055441492
0.047341895
0.039411812
0.031814689
0.024579473
0.017651283
0.011002316
0.0047415863
-0.00083325243
-0.005295529
-0.0082459133
-0.0094650289
-0.0089798757
-0.0070368482
-0.0040480214
-0.00053281031
0.0029634352
0.0059312923
0.0079551892
0.0087663115
0.0082753488
0.0065834217
0.0039434278
0.00067858279
-0.0029201488
-0.0066958232
-0.010691933
-0.015163968
-0.020517634
-0.027172389
-0.035466186
-0.045615993
-0.057687636
-0.071536596
-0.086831626
-0.10310584
-0.11977301
-0.13628997
-0.15222511
-0.16726043
-0.18121507
-0.19398559
-0.20554406
-0.21589356
-0.22504777
-0.23301985
-0.23981865
-0.24544537
-0.24989176
-0.2531353
-0.25513746
-0.25582877
-0.25511662
-0.25281955
-0.2487606
-0.24240195
-0.23365701
-0.22181521
-0.21566753
-0.21096906
-0.20738591
-0.20441455
-0.20186969
-0.1994787
-0.19721454
-0.19489249
-0.1924428
-0.18976702
-0.18684279
-0.18350112
-0.17933322
-0.17414017
-0.16779119
-0.16017856
-0.15124805
-0.14097829
-0.12939027
-0.11652072
-0.1026612
-0.088208334
-0.073587407
-0.058969555
-0.044603642
-0.030711194
-0.017506597
-0.0051946366
0.0059936614
0.015813842
0.024053859
0.030222496
0.033071255
0.031305326
0.023609214
0.0082311967
-0.016797591
-0.053381297
-0.10118109
-0.15630033
-0.20176179
-0.22841986
-0.23605701
-0.23283192
-0.21877258
-0.2119512
-0.1742132
-0.14537171
-0.1482877
-0.14425663
-0.1413452
-0.13444418
-0.12989045
-0.12734534
-0.125908
-0.12475214
-0.12373561
-0.12285575
-0.12217964
-0.1217379
-0.12166956
-0.12203217
-0.12282285
-0.12401754
-0.12560189
-0.12751388
-0.12963974
-0.13180042
-0.13381116
-0.13560242
-0.13721712
-0.13875888
-0.14030928
-0.14195941
-0.14375794
-0.14573074
-0.14787557
-0.15017272
-0.15259879
-0.15513943
-0.15780406
-0.1606166
-0.16362667
-0.1668903
-0.17051757
-0.17457878
-0.17920951
-0.18436971
-0.19006734
-0.19591616
-0.20190568
-0.20755699
-0.21355544
-0.21937777
-0.22610784
-0.23264741
-0.2390398
-0.24476121
-0.24962191
-0.25333792
-0.25574465
-0.25669966
-0.25612329
-0.25397576
-0.25026184
-0.24502259
-0.23833093
-0.23028544
-0.22100606
-0.21062766
-0.19929317
-0.18714608
-0.17432654
-0.16096962
-0.14720263
-0.1331437
-0.11890047
-0.10457008
-0.090239227
-0.075985124
-0.061876959
-0.047978251
-0.034349519
-0.02105331
-0.0081558705
0.0042542807
0.01609331
0.027183607
0.037765147
0.048076639
0.057749946
0.066428349
0.07387078
0.079861647
0.084194866
0.086696255
0.087242399
0.085793079
0.082423328
0.077338267
0.070862587
0.063414849
0.055443155
0.047343895
0.039414284
0.031817678
0.024582998
0.017654998
0.0110056
0.0047434925
-0.00083363612
-0.0052984912
-0.0082512971
-0.0094720464
-0.0089877852
-0.0070449806
-0.0040558475
-0.00053978724
0.0029577854
0.0059272609
0.0079529756
0.008765745
0.0082760632
0.0065847974
0.0039449856
0.00068004361
-0.0029186374
-0.0066937374
-0.010688457
-0.015158133
-0.020508898
-0.027160024
-0.035450154
-0.045596338
-0.057665204
-0.071512375
-0.086806893
-0.1030822
-0.11975123
-0.13627051
-0.15220831
-0.16724597
-0.18120145
-0.19397289
-0.20553238
-0.21588309
-0.22503848
-0.23301185
-0.23981197
-0.24544013
-0.24988811
-0.25313345
-0.25513767
-0.2558315
-0.25512251
-0.25283004
-0.24877776
-0.24243309
-0.2337153
-0.22191537
-0.21575028
-0.21103525
-0.20744072
-0.20446061
-0.20190858
-0.19951143
-0.19724117
-0.19491245
-0.19245543
-0.1897716
-0.18683764
-0.18348114
-0.17929415
-0.1740799
-0.16770789
-0.16007123
-0.15111648
-0.14082321
-0.1292133
-0.11632694
-0.10245784
-0.08800206
-0.073381091
-0.058766013
-0.044406124
-0.030522507
-0.017329647
-0.0050325493
0.0061374215
0.015935845
0.024147892
0.030274824
0.033065175
0.031227085
0.023446378
0.0079770897
-0.017133937
-0.053746441
-0.10146392
-0.15631573
-0.20151282
-0.22809456
-0.23581016
-0.23268694
-0.2187178
-0.2119272
-0.17420171
-0.14536542
-0.14826517
-0.14423965
-0.14133765
-0.13445857
-0.12990355
-0.12735881
-0.12592098
-0.12476537
-0.12374905
-0.12286822
-0.12218979
-0.12174439
-0.1216703
-0.12202649
-0.12281069
-0.12399901
-0.12557738
-0.12748468
-0.12960794
-0.1317689
-0.13378225
-0.13557664
-0.13719333
-0.1387355
-0.14028476
-0.14193245
-0.14372797
-0.14569769
-0.14783992
-0.15013523
-0.15256024
-0.15510037
-0.15776481
-0.16057723
-0.16358725
-0.16685054
-0.17047761
-0.17453887
-0.1791714
-0.18433548
-0.19004087
-0.19589885
-0.20189818
-0.20755605
-0.2135593
-0.21938188
-0.22611368
-0.23265485
-0.23904821
-0.24477029
-0.24963091
-0.25334639
-0.25575218
-0.25670594
-0.25612812
-0.25397904
-0.25026354
-0.24502273
-0.23832959
-0.23028275
-0.22100219
-0.21062296
-0.19928785
-0.18714022
-0.17432035
-0.16096329
-0.14719636
-0.13313766
-0.11889481
-0.10456495
-0.09023475
-0.075981428
-0.061874136
-0.04797639
-0.034348669
-0.021053468
-0.0081570051
0.0042524271
0.016090923
0.027178672
0.037758354
0.048069671
0.057742352
0.066420283
0.073862554
0.079853655
0.084187546
0.086689999
0.087237471
0.085789557
0.082421201
0.07733712
0.070862481
0.063415411
0.055443762
0.047344591
0.039415328
0.031819317
0.024585322
0.017657667
0.011007837
0.0047441615
-0.00083558005
-0.0053033454
-0.0082587303
-0.0094810493
-0.0089974264
-0.0070545376
-0.0040647373
-0.00054744987
0.0029518367
0.0059232968
0.0079511155
0.0087657055
0.0082773283
0.0065866251
0.0039468242
0.00068166619
-0.0029169723
-0.0066913254
-0.010684304
-0.015151188
-0.020498562
-0.027145625
-0.035431734
-0.045574187
-0.057640406
-0.071486246
-0.086780952
-0.10305827
-0.11973012
-0.13625267
-0.15219401
-0.16723386
-0.18118984
-0.19396209
-0.20552253
-0.21587436
-0.22503089
-0.23300551
-0.23980695
-0.24543658
-0.24988619
-0.25313342
-0.25513985
-0.25583642
-0.25513096
-0.25284381
-0.2487993
-0.24247182
-0.23378642
-0.22204054
-0.21585631
-0.21112291
-0.20751525
-0.20452495
-0.20196439
-0.19955998
-0.19728244
-0.19494589
-0.19248032
-0.18978716
-0.18684183
-0.18346833
-0.17925992
-0.17402203
-0.16762451
-0.15996131
-0.15097986
-0.14066077
-0.12902696
-0.11612249
-0.10224322
-0.087784365
-0.073163206
-0.058550957
-0.044197329
-0.030322932
-0.017142354
-0.0048608582
0.0062897179
0.016064877
0.024247584
0.030330431
0.033058594
0.031144285
0.023274949
0.0077115539
-0.017480824
-0.054112789
-0.10172472
-0.1562694
-0.20117326
-0.22767858
-0.23549613
-0.23250117
-0.21864894
-0.21189498
-0.17418902
-0.14535741
-0.1482361
-0.14421911
-0.14132749
-0.13447354
-0.1299172
-0.12737196
-0.12593401
-0.12477898
-0.12376309
-0.12288134
-0.12220052
-0.12175124
-0.12167107
-0.12202044
-0.12279776
-0.12397932
-0.12555136
-0.1274537
-0.12957425
-0.13173557
-0.13375172
-0.1355494
-0.13716817
-0.13871072
-0.14025874
-0.14190381
-0.14369611
-0.14566257
-0.14780203
-0.15009537
-0.15251925
-0.15505881
-0.15772302
-0.16053525
-0.16354515
-0.166808
-0.17043477
-0.17449596
-0.1791303
-0.18429846
-0.19001213
-0.19587993
-0.20188966
-0.20755479
-0.21356409
-0.21938799
-0.22612176
-0.23266549
-0.23906023
-0.24478338
-0.24964407
-0.25335905
-0.25576377
-0.25671609
-0.25613656
-0.25398562
-0.25026823
-0.24502553
-0.2383306
-0.23028208
-0.2210001
-0.21061982
-0.19928386
-0.1871355
-0.17431515
-0.16095782
-0.14719087
-0.13313233
-0.11888983
-0.1045605
-0.090230987
-0.075978493
-0.061872145
-0.047975446
-0.03434883
-0.021054727
-0.0081593218
0.0042493644
0.016087308
0.027172223
0.037749846
0.048061012
0.05773298
0.066410503
0.073852698
0.079844183
0.084178948
0.086682706
0.087231736
0.085785403
0.082418486
0.07733527
0.070861452
0.063414729
0.055442698
0.047343327
0.039414304
0.031819017
0.024585938
0.017658849
0.011008648
0.0047432629
-0.00083936202
-0.0053103073
-0.0082683615
-0.0094921174
-0.0090088392
-0.0070655529
-0.0040747305
-0.00055584468
0.0029455342
0.0059193408
0.0079495447
0.0087661227
0.0082790627
0.006588816
0.003948859
0.00068338809
-0.0029151718
-0.0066885519
-0.010679388
-0.015143009
-0.020486461
-0.027129029
-0.035410827
-0.045549501
-0.057613334
-0.071458482
-0.086754297
-0.10303478
-0.11971058
-0.13623779
-0.1521834
-0.16722482
-0.18118102
-0.1939539
-0.20551515
-0.21586797
-0.22502555
-0.23300136
-0.23980407
-0.24543516
-0.24988644
-0.25313564
-0.25514441
-0.25584401
-0.25514248
-0.25286151
-0.24882604
-0.2425195
-0.23387244
-0.22219456
-0.2159896
-0.21123604
-0.20761345
-0.20461139
-0.20204078
-0.19962781
-0.19734161
-0.19499587
-0.1925203
-0.18981622
-0.18685752
-0.18346443
-0.17923186
-0.17396753
-0.16754166
-0.1598491
-0.1508382
-0.14049074
-0.12883083
-0.11590688
-0.10201679
-0.087554712
-0.072933185
-0.058323826
-0.043976698
-0.030111933
-0.016944211
-0.0046791212
0.0064508956
0.016201144
0.024353072
0.030389304
0.03305117
0.031056385
0.023094242