/*--------------------------------*- C++ -*----------------------------------*\
| =========                 |                                                 |
| \\      /  F ield         | OpenFOAM: The Open Source CFD Toolbox           |
|  \\    /   O peration     | Version:  2.4.0                                 |
|   \\  /    A nd           | Web:      www.OpenFOAM.org                      |
|    \\/     M anipulation  |                                                 |
\*---------------------------------------------------------------------------*/
FoamFile
{
    version     2.0;
    format      ascii;
    class       surfaceScalarField;
    location    "60";
    object      phi;
}
// * * * * * * * * * * * * * * * * * * * * * * * * * * * * * * * * * * * * * //

dimensions      [0 3 -1 0 0 0 0];

internalField   nonuniform List<scalar> 
63640
(
5.9268289e-07
-4.0209531e-08
5.6528549e-07
2.7397369e-08
5.3152689e-07
3.3758648e-08
2.6223137e-07
2.6929555e-07
-7.1387008e-09
2.6937014e-07
-1.991598e-07
1.9202112e-07
-2.2639771e-07
2.7237968e-08
-1.9846431e-07
-2.7933434e-08
-1.686132e-07
-2.9851086e-08
-1.4669346e-07
-2.191978e-08
-1.2518256e-07
-2.1510923e-08
-1.0205135e-07
-2.3131281e-08
-7.6488608e-08
-2.5562778e-08
-4.6449422e-08
-3.0039255e-08
-1.1210845e-08
-3.5238257e-08
2.7912084e-08
-3.9123332e-08
6.8720506e-08
-4.0808311e-08
1.0952365e-07
-4.0803499e-08
1.478071e-07
-3.8283539e-08
1.789926e-07
-3.1185594e-08
1.9891559e-07
-1.9923003e-08
2.0581348e-07
-6.8979304e-09
2.0314291e-07
2.6705395e-09
1.9693498e-07
6.2078778e-09
1.9135006e-07
5.5848728e-09
1.8762615e-07
3.7238327e-09
1.8562247e-07
2.0036122e-09
1.8370428e-07
1.9181091e-09
1.7999191e-07
3.7122914e-09
1.7345715e-07
6.5346666e-09
1.6441529e-07
9.0417668e-09
1.5461077e-07
9.8044194e-09
1.4687416e-07
7.7365452e-09
1.4433244e-07
2.5415792e-09
1.4973609e-07
-5.4037117e-09
1.6457265e-07
-1.48367e-08
1.9118919e-07
-2.6616589e-08
2.3257151e-07
-4.1382486e-08
2.9147021e-07
-5.8898754e-08
3.667194e-07
-7.5249388e-08
4.539857e-07
-8.7266369e-08
5.3749608e-07
-8.3510623e-08
6.0067112e-07
-6.3175036e-08
6.2266192e-07
-2.1991113e-08
6.054511e-07
1.7210769e-08
5.2894061e-07
7.6510172e-08
3.5798822e-07
1.7095203e-07
1.8419435e-07
1.7379378e-07
-2.3623136e-08
2.0781743e-07
-2.6816766e-07
2.4454398e-07
-5.2847994e-07
2.603117e-07
-8.0160943e-07
2.7312916e-07
-1.0756875e-06
2.7407706e-07
-1.3449582e-06
2.6927091e-07
-1.6026096e-06
2.5765061e-07
-1.8441253e-06
2.4151627e-07
-2.0654998e-06
2.2137268e-07
-2.2638253e-06
1.9832659e-07
-2.4368402e-06
1.7301339e-07
-2.5831398e-06
1.4630142e-07
-2.7021265e-06
1.1898639e-07
-2.7939152e-06
9.1789238e-08
-2.8591874e-06
6.5272159e-08
-2.8990682e-06
3.9880695e-08
-2.9148771e-06
1.5807824e-08
-2.9077777e-06
-7.0988316e-09
-2.8790954e-06
-2.8683809e-08
-2.8305015e-06
-4.8592665e-08
-2.7636687e-06
-6.6833945e-08
-2.6801789e-06
-8.3488256e-08
-2.5814556e-06
-9.8723476e-08
-2.4687327e-06
-1.1272214e-07
-2.3430104e-06
-1.2572171e-07
-2.2049991e-06
-1.380116e-07
-2.0551142e-06
-1.4988492e-07
-1.89343e-06
-1.6168434e-07
-1.7197786e-06
-1.7365214e-07
-1.5338163e-06
-1.8596174e-07
-1.3352501e-06
-1.9856672e-07
-1.1241087e-06
-2.1114079e-07
-9.0415371e-07
-2.1995534e-07
-6.845135e-07
-2.1963999e-07
-4.5456496e-07
-2.2994958e-07
-1.9399883e-07
-2.6056498e-07
9.3777438e-08
-2.8777645e-07
3.9835046e-07
-3.0457238e-07
7.145377e-07
-3.1618673e-07
1.0360927e-06
-3.2155529e-07
1.353623e-06
-3.1753034e-07
1.6551739e-06
-3.0155092e-07
1.9262518e-06
-2.7107796e-07
2.1512596e-06
-2.250081e-07
2.3158458e-06
-1.6458608e-07
2.4094837e-06
-9.3637883e-08
2.4279113e-06
-1.842787e-08
2.3730754e-06
5.483587e-08
2.2546657e-06
1.1840958e-07
2.0907934e-06
1.6387222e-07
1.902911e-06
1.8788221e-07
1.7104095e-06
1.9250132e-07
1.5249419e-06
1.8546768e-07
1.3483557e-06
1.7658557e-07
1.1756351e-06
1.7272109e-07
1.0018423e-06
1.7379236e-07
8.2925855e-07
1.7258404e-07
6.6973631e-07
1.5952182e-07
5.4052484e-07
1.2921187e-07
4.5735439e-07
8.3169817e-08
4.2975219e-07
2.7602847e-08
4.5986389e-07
-3.0111952e-08
5.4371165e-07
-8.3847355e-08
6.7224174e-07
-1.2853048e-07
8.3259021e-07
-1.6034814e-07
1.0091145e-06
-1.7652471e-07
1.1849796e-06
-1.7586459e-07
1.3443477e-06
-1.5936813e-07
1.4750134e-06
-1.3066574e-07
1.5714142e-06
-9.6400893e-08
1.636089e-06
-6.4674747e-08
1.6790731e-06
-4.2984145e-08
1.7146259e-06
-3.5552728e-08
1.7566068e-06
-4.1981578e-08
1.8138065e-06
-5.7199164e-08
1.8856546e-06
-7.1848566e-08
1.9621974e-06
-7.6542208e-08
2.028994e-06
-6.6796819e-08
2.071277e-06
-4.2282708e-08
2.0740125e-06
-2.7356278e-09
2.0243461e-06
4.9666582e-08
1.9167643e-06
1.0758173e-07
1.7531126e-06
1.6365202e-07
1.5411186e-06
2.1199433e-07
1.2954258e-06
2.4569258e-07
1.0326138e-06
2.6281249e-07
7.6587228e-07
2.6674108e-07
5.0457388e-07
2.6129823e-07
2.5346263e-07
2.5111143e-07
1.4149498e-08
2.3931291e-07
-2.1415272e-07
2.2830246e-07
-4.328108e-07
2.1865795e-07
-6.4304054e-07
2.1023e-07
-8.46003e-07
2.0296241e-07
-1.0428654e-06
1.9686253e-07
-1.234784e-06
1.9191837e-07
-1.422925e-06
1.8814134e-07
-1.6084884e-06
1.8556339e-07
-1.7925066e-06
1.8401832e-07
-1.9763041e-06
1.8379756e-07
-2.159568e-06
1.8326395e-07
-2.3429987e-06
1.8343029e-07
-2.5142451e-06
1.7124687e-07
-2.6598137e-06
1.4556832e-07
-2.6211542e-06
-3.8659086e-08
-2.2380828e-06
-3.830702e-07
-1.9269909e-06
-3.1109295e-07
-1.7548495e-06
-1.721416e-07
-1.6284215e-06
-1.2642773e-07
-1.5424178e-06
-8.600359e-08
-1.4811784e-06
-6.1239475e-08
-1.4353443e-06
-4.5833975e-08
-1.402558e-06
-3.278627e-08
-1.3792945e-06
-2.3263461e-08
-1.3619286e-06
-1.7365848e-08
-1.3497373e-06
-1.2191166e-08
-1.3502155e-06
4.7818155e-10
-1.3687364e-06
1.8521032e-08
-1.3958873e-06
2.715083e-08
-1.4230747e-06
2.7187519e-08
-1.4466273e-06
2.3552719e-08
-1.463738e-06
1.7110744e-08
-1.47245e-06
8.7120165e-09
-1.4712834e-06
-1.1665272e-09
-1.4573835e-06
-1.3899905e-08
-1.4237329e-06
-3.3650505e-08
-1.3655978e-06
-5.8135074e-08
-1.2848797e-06
-8.0718098e-08
-1.1891788e-06
-9.5700825e-08
-1.0820855e-06
-1.0709328e-07
-9.6530641e-07
-1.1677912e-07
-8.4104434e-07
-1.2426206e-07
-7.1073414e-07
-1.3031025e-07
-5.7503066e-07
-1.3570334e-07
-4.3480367e-07
-1.4022689e-07
-2.8409186e-07
-1.507117e-07
-1.0988938e-07
-1.7420229e-07
9.0275278e-08
-2.0016387e-07
3.196151e-07
-2.2934002e-07
5.9438581e-07
-2.7476954e-07
9.3248091e-07
-3.3809597e-07
1.354114e-06
-4.2163294e-07
1.8677636e-06
-5.1364955e-07
2.4442957e-06
-5.7653209e-07
2.9340227e-06
-4.8972695e-07
3.0585866e-06
-1.2456389e-07
2.7449092e-06
3.1367738e-07
2.1878052e-06
5.5710379e-07
1.554484e-06
6.3332101e-07
1.0670489e-06
4.8743491e-07
6.4991655e-07
4.1713213e-07
9.7442914e-08
1.9594541e-06
-1.1398643e-07
1.8328481e-06
1.5400328e-07
1.7387545e-06
1.2785234e-07
8.8490935e-07
1.1231407e-06
3.1007761e-08
1.1232718e-06
-6.0622256e-07
8.2925146e-07
-7.145081e-07
1.3552359e-07
-6.33722e-07
-1.0871957e-07
-5.3995936e-07
-1.236137e-07
-4.7014469e-07
-9.1734506e-08
-4.0159162e-07
-9.0064024e-08
-3.280645e-07
-9.66585e-08
-2.4688495e-07
-1.0674239e-07
-1.5204975e-07
-1.2487456e-07
-4.0816941e-08
-1.4647069e-07
8.2916591e-08
-1.6285735e-07
2.1205665e-07
-1.6994827e-07
3.4105132e-07
-1.6979862e-07
4.6223079e-07
-1.5946313e-07
5.6132461e-07
-1.3027953e-07
6.2544514e-07
-8.4043571e-08
6.4891192e-07
-3.0364756e-08
6.4188662e-07
9.6957895e-09
6.2283563e-07
2.5258795e-08
6.0471032e-07
2.3710118e-08
5.9166664e-07
1.6767407e-08
5.8318669e-07
1.0483474e-08
5.743097e-07
1.0794972e-08
5.5912278e-07
1.88991e-08
5.3450343e-07
3.1153883e-08
5.0159375e-07
4.1951322e-08
4.6602916e-07
4.5368864e-08
4.3680501e-07
3.6960594e-08
4.2370794e-07
1.5638466e-08
4.3532627e-07
-1.7022141e-08
4.7607845e-07
-5.558907e-08
5.5317234e-07
-1.0371056e-07
6.7549771e-07
-1.6370807e-07
8.5207965e-07
-2.3548078e-07
1.0787508e-06
-3.0192079e-07
1.3440333e-06
-3.5254901e-07
1.5985113e-06
-3.379889e-07
1.7944818e-06
-2.5914553e-07
1.8614955e-06
-8.9005245e-08
1.8079039e-06
7.0802282e-08
1.5522883e-06
3.3212532e-07
9.9627871e-07
7.2696113e-07
4.14061e-07
7.5601137e-07
-2.5933297e-07
8.8121126e-07
-1.045248e-06
1.0304583e-06
-1.871888e-06
1.0869509e-06
-2.7327534e-06
1.1339941e-06
-3.5898323e-06
1.1311548e-06
-4.4262712e-06
1.10571e-06
-5.2213149e-06
1.0526933e-06
-5.9617436e-06
9.8194566e-07
-6.6358371e-06
8.9546389e-07
-7.2353401e-06
7.9783081e-07
-7.7539942e-06
6.9166577e-07
-8.1881539e-06
5.8046328e-07
-8.5366147e-06
4.6744683e-07
-8.8003059e-06
3.5548108e-07
-8.9818009e-06
2.4676711e-07
-9.0849591e-06
1.4303882e-07
-9.1140581e-06
4.4905486e-08
-9.0727333e-06
-4.8423045e-08
-8.9651573e-06
-1.3626162e-07
-8.7965771e-06
-2.1717149e-07
-8.5721649e-06
-2.9124743e-07
-8.2967579e-06
-3.5889334e-07
-7.974684e-06
-4.2079752e-07
-7.6096566e-06
-4.7774849e-07
-7.2046557e-06
-5.3072189e-07
-6.7617793e-06
-5.8088844e-07
-6.2822114e-06
-6.2945286e-07
-5.766141e-06
-6.7775489e-07
-5.2130576e-06
-7.2673642e-07
-4.6220283e-06
-7.7699038e-07
-3.9924809e-06
-8.2811479e-07
-3.3249551e-06
-8.7866584e-07
-2.6319452e-06
-9.1296564e-07
-1.9345599e-06
-9.170249e-07
-1.199305e-06
-9.6520569e-07
-3.7340245e-07
-1.0864661e-06
5.3070256e-07
-1.1918816e-06
1.4825858e-06
-1.2564547e-06
2.4666116e-06
-1.3002119e-06
3.4628281e-06
-1.3177721e-06
4.4418074e-06
-1.2965097e-06
5.3663995e-06
-1.2261431e-06
6.1920683e-06
-1.0967469e-06
6.8713987e-06
-9.0433879e-07
7.3612411e-06
-6.5442844e-07
7.6304084e-06
-3.6280513e-07
7.6672222e-06
-5.5242058e-08
7.4782219e-06
2.4383612e-07
7.0932201e-06
5.0341127e-07
6.5679801e-06
6.8911206e-07
5.9685155e-06
7.8734663e-07
5.3543183e-06
8.0669834e-07
4.7615213e-06
7.7826468e-07
4.1971399e-06
7.4096632e-07
3.6487024e-06
7.21159e-07
3.1049762e-06
7.1751806e-07
2.5762686e-06
7.0129196e-07
2.0999227e-06
6.3586729e-07
1.7269113e-06
5.0222368e-07
1.5017729e-06
3.0830746e-07
1.4495153e-06
7.9861219e-08
1.5728126e-06
-1.5340952e-07
1.856246e-06
-3.6728026e-07
2.2700373e-06
-5.4232219e-07
2.7737026e-06
-6.6401307e-07
3.3192695e-06
-7.220921e-07
3.8562479e-06
-7.1284235e-07
4.3381534e-06
-6.4127376e-07
4.7303732e-06
-5.2288544e-07
5.0185987e-06
-3.8462666e-07
5.2125358e-06
-2.5861172e-07
5.3433511e-06
-1.7379953e-07
5.4534179e-06
-1.4561936e-07
5.58229e-06
-1.7085456e-07
5.7530678e-06
-2.2797629e-07
5.9605964e-06
-2.7937785e-07
6.1726833e-06
-2.8862829e-07
6.34499e-06
-2.3910377e-07
6.4327788e-06
-1.3007108e-07
6.3914055e-06
3.8637456e-08
6.1844158e-06
2.5665655e-07
5.7987397e-06
4.9325768e-07
5.2438516e-06
7.185405e-07
4.5474879e-06
9.0835856e-07
3.7562785e-06
1.0369017e-06
2.92088e-06
1.0982116e-06
2.0808811e-06
1.1067394e-06
1.2631427e-06
1.0790365e-06
4.8091134e-07
1.033343e-06
-2.622852e-07
9.8250919e-07
-9.6978336e-07
9.358009e-07
-1.6463965e-06
8.9527096e-07
-2.2959853e-06
8.5981909e-07
-2.9222172e-06
8.2919428e-07
-3.5286544e-06
8.0329988e-07
-4.1187792e-06
7.8204293e-07
-4.6959766e-06
7.6533915e-07
-5.2636381e-06
7.5322496e-07
-5.8243715e-06
7.4475177e-07
-6.3814263e-06
7.4085256e-07
-6.9321717e-06
7.3400928e-07
-7.4765219e-06
7.2777997e-07
-7.9707634e-06
6.6548898e-07
-8.3693183e-06
5.4412296e-07
-8.1922823e-06
-2.1569451e-07
-7.0745085e-06
-1.5008427e-06
-6.1247043e-06
-1.2608984e-06
-5.5940528e-06
-7.0279321e-07
-5.2037464e-06
-5.1673396e-07
-4.9374847e-06
-3.5226503e-07
-4.7460147e-06
-2.5270956e-07
-4.6027053e-06
-1.8914318e-07
-4.4984055e-06
-1.3708609e-07
-4.4232101e-06
-9.8458723e-08
-4.3658386e-06
-7.4737433e-08
-4.3252287e-06
-5.2800864e-08
-4.3234397e-06
-1.3107896e-09
-4.3744036e-06
6.9485051e-08
-4.4505628e-06
1.0331007e-07
-4.525921e-06
1.0254587e-07
-4.5891361e-06
8.6767924e-08
-4.6317595e-06
5.9734264e-08
-4.6478206e-06
2.4773175e-08
-4.6327337e-06
-1.6253348e-08
-4.5773096e-06
-6.932403e-08
-4.4613075e-06
-1.4965254e-07
-4.2709479e-06
-2.4849456e-07
-4.0125795e-06
-3.3908653e-07
-3.7081572e-06
-4.0012302e-07
-3.3690809e-06
-4.4616955e-07
-3.0004928e-06
-4.8536731e-07
-2.609088e-06
-5.1566681e-07
-2.1991142e-06
-5.402841e-07
-1.7725558e-06
-5.6226156e-07
-1.331664e-06
-5.8111849e-07
-8.5610927e-07
-6.2626627e-07
-3.0579314e-07
-7.2451813e-07
3.2270915e-07
-8.2866517e-07
1.0395634e-06
-9.4619444e-07
1.8967173e-06
-1.131922e-06
2.9481774e-06
-1.389557e-06
4.2545144e-06
-1.7279699e-06
5.8382494e-06
-2.0973844e-06
7.6093908e-06
-2.3476734e-06
9.1131957e-06
-1.9935318e-06
9.5477724e-06
-5.5914055e-07
8.6647132e-06
1.1967366e-06
7.0116984e-06
2.2101183e-06
5.0690757e-06
2.5759434e-06
3.5538105e-06
2.0026998e-06
2.1939246e-06
1.7770178e-06
4.0568993e-07
3.6184099e-06
-1.7331973e-07
3.3553039e-06
4.1710927e-07
3.1779316e-06
3.0522461e-07
1.6674686e-06
2.6336038e-06
1.3545466e-07
2.6552858e-06
-1.039537e-06
2.0042432e-06
-1.2684233e-06
3.6440995e-07
-1.1365809e-06
-2.4056202e-07
-9.7131134e-07
-2.8888322e-07
-8.4649163e-07
-2.1655427e-07
-7.2380423e-07
-2.1275145e-07
-5.9234788e-07
-2.2811493e-07
-4.4729628e-07
-2.5179404e-07
-2.7839385e-07
-2.9377707e-07
-8.0333039e-08
-3.4453116e-07
1.4032165e-07
-3.8351247e-07
3.7071935e-07
-4.0034587e-07
6.0067852e-07
-3.9975818e-07
8.1689982e-07
-3.7568453e-07
9.9426872e-07
-3.0764854e-07
1.1101178e-06
-1.9989264e-07
1.1541511e-06
-7.4398101e-08
1.14353e-06
2.0316819e-08
1.1103567e-06
5.8432028e-08
1.0774479e-06
5.6618888e-08
1.0524407e-06
4.1774494e-08
1.0343999e-06
2.8524147e-08
1.0146872e-06
3.0507624e-08
9.8282147e-07
5.0764729e-08
9.3336804e-07
8.0607199e-08
8.6852512e-07
1.0679413e-07
7.9847749e-07
1.1541638e-07
7.3928737e-07
9.6150624e-08
7.0823862e-07
4.6687059e-08
7.2039775e-07
-2.9181359e-08
7.8324824e-07
-1.1843973e-07
9.0918742e-07
-2.296498e-07
1.1133884e-06
-3.6790922e-07
1.4119121e-06
-5.3400459e-07
1.7971902e-06
-6.8719913e-07
2.2510635e-06
-8.0642239e-07
2.687901e-06
-7.7482664e-07
3.0277004e-06
-5.9894493e-07
3.1426621e-06
-2.0396735e-07
3.0444909e-06
1.6897338e-07
2.5715453e-06
8.0507062e-07
1.557524e-06
1.740982e-06
4.7786808e-07
1.8356672e-06
-7.4561005e-07
2.1046893e-06
-2.1585194e-06
2.4433671e-06
-3.6322951e-06
2.5607259e-06
-5.1558373e-06
2.6575359e-06
-6.6628561e-06
2.6381725e-06
-8.1245993e-06
2.5674533e-06
-9.5058735e-06
2.4339667e-06
-1.0784673e-05
2.2607463e-06
-1.194175e-05
2.052538e-06
-1.2963874e-05
1.819956e-06
-1.3841338e-05
1.5691283e-06
-1.456891e-05
1.3080375e-06
-1.5145497e-05
1.0440339e-06
-1.5573575e-05
7.835591e-07
-1.5858321e-05
5.3151299e-07
-1.6007018e-05
2.9173593e-07
-1.6027313e-05
6.5199063e-08
-1.5925557e-05
-1.5017796e-07
-1.5709234e-05
-3.5258667e-07
-1.5387637e-05
-5.3876667e-07
-1.4969764e-05
-7.0912156e-07
-1.4463957e-05
-8.646991e-07
-1.3877634e-05
-1.0071206e-06
-1.321711e-05
-1.1382713e-06
-1.2487413e-05
-1.260419e-06
-1.1692048e-05
-1.3762531e-06
-1.0832952e-05
-1.4885496e-06
-9.9104018e-06
-1.6003049e-06
-8.9235398e-06
-1.7135992e-06
-7.8709582e-06
-1.8295714e-06
-6.7520269e-06
-1.9470466e-06
-5.568464e-06
-2.0622281e-06
-4.3416773e-06
-2.1397527e-06
-3.1001786e-06
-2.1585235e-06
-1.7859609e-06
-2.2794245e-06
-3.1964074e-07
-2.5527851e-06
1.273798e-06
-2.7853205e-06
2.944425e-06
-2.927081e-06
4.6659573e-06
-3.0217437e-06
6.4028602e-06
-3.0546753e-06
8.1036456e-06
-2.997295e-06
9.703738e-06
-2.8262356e-06
1.1126261e-05
-2.5192702e-06
1.2289872e-05
-2.0679496e-06
1.3120883e-05
-1.4854396e-06
1.3566405e-05
-8.0832751e-07
1.3607337e-05
-9.6173924e-08
1.325504e-05
5.9613263e-07
1.2560563e-05
1.1978889e-06
1.1620168e-05
1.6295066e-06
1.0548341e-05
1.8591733e-06
9.448708e-06
1.9063314e-06
8.3854023e-06
1.8415704e-06
7.3735914e-06
1.7527766e-06
6.3964626e-06
1.6982882e-06
5.4401193e-06
1.6738609e-06
4.5265943e-06
1.6148172e-06
3.7212725e-06
1.4411887e-06
3.1092314e-06
1.1142652e-06
2.7620875e-06
6.5545066e-07
2.7169902e-06
1.2495916e-07
2.9729718e-06
-4.0939135e-07
3.4990346e-06
-8.9334258e-07
4.241059e-06
-1.284347e-06
5.1278695e-06
-1.5508232e-06
6.0768214e-06
-1.6710444e-06
7.0024275e-06
-1.6384479e-06
7.8273281e-06
-1.4661744e-06
8.4954286e-06
-1.1909859e-06
8.9854208e-06
-8.7461906e-07
9.3161845e-06
-5.8937525e-07
9.5415722e-06
-3.9918736e-07
9.7325379e-06
-3.3658493e-07
9.9532821e-06
-3.9159941e-07
1.0238617e-05
-5.1331035e-07
1.0575452e-05
-6.1621348e-07
1.0906324e-05
-6.1949955e-07
1.1154617e-05
-4.8739702e-07
1.1243685e-05
-2.1913927e-07
1.1098241e-05
1.840813e-07
1.0659348e-05
6.9554986e-07
9.9096805e-06
1.2429252e-06
8.8711175e-06
1.7571039e-06
7.5972229e-06
2.1822535e-06
6.1713242e-06
2.4628002e-06
4.6810485e-06
2.5884878e-06
3.1935892e-06
2.5941983e-06
1.7529689e-06
2.5196566e-06
3.802939e-07
2.4060182e-06
-9.2017229e-07
2.2829752e-06
-2.155917e-06
2.1715458e-06
-3.3362204e-06
2.0755743e-06
-4.4678615e-06
1.9914605e-06
-5.5573209e-06
1.9186537e-06
-6.6107424e-06
1.8567215e-06
-7.63402e-06
1.8053204e-06
-8.6327085e-06
1.7640279e-06
-9.6121539e-06
1.7326705e-06
-1.0576029e-05
1.7086272e-06
-1.152842e-05
1.6932436e-06
-1.2462587e-05
1.6681761e-06
-1.3373499e-05
1.6386915e-06
-1.4180305e-05
1.472295e-06
-1.4790887e-05
1.1547054e-06
-1.4413834e-05
-5.9274738e-07
-1.2543881e-05
-3.3707943e-06
-1.0921508e-05
-2.8832723e-06
-1.0000342e-05
-1.6239601e-06
-9.3242648e-06
-1.1928105e-06
-8.8610166e-06
-8.1551307e-07
-8.5259836e-06
-5.8774261e-07
-8.2746926e-06
-4.4043401e-07
-8.089839e-06
-3.2193971e-07
-7.9549083e-06
-2.3338927e-07
-7.850729e-06
-1.7891682e-07
-7.7767379e-06
-1.2679178e-07
-7.7697534e-06
-8.2952943e-09
-7.8511247e-06
1.5085648e-07
-7.9743544e-06
2.2653972e-07
-8.0949534e-06
2.2314512e-07
-8.1931463e-06
1.8496087e-07
-8.2543919e-06
1.2097988e-07
-8.2682782e-06
3.8659529e-08
-8.2266049e-06
-5.7926519e-08
-8.1129916e-06
-1.8293732e-07
-7.8937089e-06
-3.6893516e-07
-7.5460707e-06
-5.9613276e-07
-7.0817442e-06
-8.03413e-07
-6.5375213e-06
-9.4434592e-07
-5.9333605e-06
-1.0503303e-06
-5.2781267e-06
-1.1406012e-06
-4.5832843e-06
-1.2105092e-06
-3.8560123e-06
-1.2675562e-06
-3.0996384e-06
-1.3186352e-06
-2.3172299e-06
-1.3635269e-06
-1.4707278e-06
-1.4727682e-06
-4.9027798e-07
-1.7049677e-06
6.2492943e-07
-1.9438717e-06
1.8925126e-06
-2.2137778e-06
3.4048579e-06
-2.6442661e-06
5.2538671e-06
-3.2385671e-06
7.5409833e-06
-4.015086e-06
1.0299008e-05
-4.8554087e-06
1.3367345e-05
-5.4160108e-06
1.597132e-05
-4.5975064e-06
1.6787965e-05
-1.3757853e-06
1.5372356e-05
2.6123455e-06
1.2595711e-05
4.9867625e-06
9.2494792e-06
5.9221752e-06
6.5848294e-06
4.6673493e-06
4.1419484e-06
4.2198986e-06
9.885614e-07
5.6186208e-06
-1.5980895e-07
5.1867983e-06
8.4893172e-07
4.8805018e-06
6.1152123e-07
2.6471624e-06
4.8669433e-06
3.2804987e-07
4.9743984e-06
-1.4905176e-06
3.8228107e-06
-1.891648e-06
7.6554041e-07
-1.7133313e-06
-4.188787e-07
-1.4690345e-06
-5.3317998e-07
-1.2814227e-06
-4.0416616e-07
-1.0968166e-06
-3.9735765e-07
-8.9920279e-07
-4.2572881e-07
-6.8137836e-07
-4.6961854e-07
-4.284602e-07
-5.4669534e-07
-1.3207794e-07
-6.409131e-07
1.9860586e-07
-7.1419671e-07
5.4406586e-07
-7.4580581e-07
8.8861799e-07
-7.4431076e-07
1.2128795e-06
-6.9994622e-07
1.4797633e-06
-5.7453247e-07
1.6557079e-06
-3.7583722e-07
1.7250279e-06
-1.4371815e-07
1.7120891e-06
3.3255516e-08
1.663703e-06
1.0681807e-07
1.6135927e-06
1.067291e-07
1.5734155e-06
8.1951614e-08
1.5418551e-06
6.0084416e-08
1.5062128e-06
6.6149796e-08
1.4509586e-06
1.0601883e-07
1.3681485e-06
1.6341712e-07
1.2613701e-06
2.1357238e-07
1.1461196e-06
2.3066671e-07
1.0465178e-06
1.9575236e-07
9.8825281e-07
1.049518e-07
9.9348444e-07
-3.4413095e-08
1.07289e-06
-1.978455e-07
1.2442551e-06
-4.0101496e-07
1.5294788e-06
-6.5313316e-07
1.952188e-06
-9.5671394e-07
2.501362e-06
-1.2363733e-06
3.1522518e-06
-1.4573123e-06
3.7814547e-06
-1.4040299e-06
4.2744299e-06
-1.0919201e-06
4.439751e-06
-3.692889e-07
4.2846369e-06
3.2408729e-07
3.550808e-06
1.5388991e-06
1.9937958e-06
3.2979937e-06
3.1693825e-07
3.5125246e-06
-1.5522415e-06
3.9738688e-06
-3.6840113e-06
4.5751362e-06
-5.8911879e-06
4.7679017e-06
-8.154559e-06
4.9209064e-06
-1.0378796e-05
4.8624079e-06
-1.2522128e-05
4.7107857e-06
-1.4535018e-05
4.4468559e-06
-1.6386797e-05
4.112526e-06
-1.8051253e-05
3.7169915e-06
-1.9510846e-05
3.2795506e-06
-2.075327e-05
2.8115507e-06
-2.1772619e-05
2.3273885e-06
-2.2568831e-05
1.8402458e-06
-2.31468e-05
1.3615286e-06
-2.3515128e-05
8.9984059e-07
-2.3685297e-05
4.6190513e-07
-2.3668552e-05
4.8452965e-08
-2.347423e-05
-3.4450016e-07
-2.3113823e-05
-7.1299504e-07
-2.2601125e-05
-1.0514635e-06
-2.1949255e-05
-1.3609927e-06
-2.1170281e-05
-1.6436715e-06
-2.0274864e-05
-1.9025376e-06
-1.9272009e-05
-2.1411254e-06
-1.816883e-05
-2.363597e-06
-1.6970244e-05
-2.5748401e-06
-1.5678912e-05
-2.7798812e-06
-1.4295185e-05
-2.9840317e-06
-1.2817872e-05
-3.1909133e-06
-1.124523e-05
-3.4022129e-06
-9.5767556e-06
-3.6155215e-06
-7.815958e-06
-3.8230251e-06
-5.9922015e-06
-3.9635095e-06
-4.1375805e-06
-4.0131441e-06
-2.1689325e-06
-4.2480736e-06
1.2945928e-08
-4.7346622e-06
2.3670189e-06
-5.1393935e-06
4.8259747e-06
-5.3860359e-06
7.352555e-06
-5.5483234e-06
9.8940345e-06
-5.596155e-06
1.2375269e-05
-5.47853e-06
1.4702526e-05
-5.1534921e-06
1.6764722e-05
-4.5814664e-06
1.8444695e-05
-3.7479229e-06
1.963631e-05
-2.677055e-06
2.0263425e-05
-1.4354425e-06
2.0298586e-05
-1.3133466e-07
1.9757357e-05
1.137361e-06
1.8712258e-05
2.2429883e-06
1.7302041e-05
3.0397238e-06
1.569336e-05
3.4678534e-06
1.4038657e-05
3.5610345e-06
1.2434913e-05
3.4453141e-06
1.0910048e-05
3.2776414e-06
9.4473344e-06
3.161002e-06
8.0344713e-06
3.0867236e-06
6.7087896e-06
2.9404992e-06
5.5655707e-06
2.5844071e-06
4.7234852e-06
1.9563511e-06
4.2786232e-06
1.100312e-06
4.276071e-06
1.2751203e-07
4.7064806e-06
-8.3980118e-07
5.5190654e-06
-1.7059268e-06
6.6319e-06
-2.3971821e-06
7.9404353e-06
-2.8593582e-06
9.3255474e-06
-3.0561569e-06
1.0665945e-05
-2.9788448e-06
1.1853578e-05
-2.6538079e-06
1.2811914e-05
-2.1493222e-06
1.3514172e-05
-1.5768763e-06
1.3989872e-05
-1.0650757e-06
1.4316384e-05
-7.256995e-07
1.4593004e-05
-6.132048e-07
1.4907052e-05
-7.0564809e-07
1.5302324e-05
-9.0858179e-07
1.5754744e-05
-1.0686337e-06
1.6178998e-05
-1.043753e-06
1.6464071e-05
-7.7247073e-07
1.6499463e-05
-2.5453006e-07
1.6178402e-05
5.0514161e-07
1.542109e-05
1.4528618e-06
1.4209638e-05
2.4543772e-06
1.2583718e-05
3.3830246e-06
1.0629029e-05
4.1369432e-06
8.4707589e-06
4.6210698e-06
6.236613e-06
4.8226342e-06
4.0223858e-06
4.808425e-06
1.8887475e-06
4.6532947e-06
-1.3553751e-07
4.4303033e-06
-2.04747e-06
4.1949075e-06
-3.861364e-06
3.9854401e-06
-5.5914819e-06
3.805692e-06
-7.2478161e-06
3.6477949e-06
-8.8399585e-06
3.5107961e-06
-1.0376802e-05
3.3935648e-06
-1.1866668e-05
3.295186e-06
-1.3317137e-05
3.214498e-06
-1.473509e-05
3.1506233e-06
-1.6124551e-05
3.0980886e-06
-1.7488849e-05
3.0575415e-06
-1.8815082e-05
2.9944086e-06
-2.0087548e-05
2.911157e-06
-2.1183991e-05
2.5687389e-06
-2.1947918e-05
1.9186324e-06
-2.1312144e-05
-1.2285215e-06
-1.8673043e-05
-6.0098935e-06
-1.636115e-05
-5.1951666e-06
-1.5020318e-05
-2.964792e-06
-1.4039714e-05
-2.1734147e-06
-1.3363759e-05
-1.4914671e-06
-1.2872588e-05
-1.0789141e-06
-1.2502703e-05
-8.1031903e-07
-1.2227972e-05
-5.9667055e-07
-1.2024695e-05
-4.3666659e-07
-1.1866114e-05
-3.3749706e-07
-1.1752744e-05
-2.4016216e-07
-1.173589e-05
-2.5149177e-08
-1.1843076e-05
2.5804297e-07
-1.2008159e-05
3.9162281e-07
-1.2167401e-05
3.8238679e-07
-1.2291937e-05
3.0949708e-07
-1.2360767e-05
1.8980996e-07
-1.2358627e-05
3.6519969e-08
-1.227313e-05
-1.4342343e-07
-1.2080257e-05
-3.7581076e-07
-1.1732683e-05
-7.1650903e-07
-1.1199349e-05
-1.1294662e-06
-1.0497838e-05
-1.5049244e-06
-9.6803783e-06
-1.7618054e-06
-8.7758816e-06
-1.9548269e-06
-7.7972624e-06
-2.1192204e-06
-6.7609676e-06
-2.246804e-06
-5.6771618e-06
-2.351362e-06
-4.5504483e-06
-2.4453486e-06
-3.3838416e-06
-2.5301335e-06
-2.1179337e-06
-2.7386759e-06
-6.5111086e-07
-3.1717902e-06
1.0104179e-06
-3.6053995e-06
2.8921124e-06
-4.0954724e-06
5.1316565e-06
-4.8838089e-06
7.8601142e-06
-5.9670256e-06
1.1219396e-05
-7.3743675e-06
1.5249369e-05
-8.8853822e-06
1.971015e-05
-9.8767911e-06
2.3504921e-05
-8.3922774e-06
2.4791767e-05
-2.6626312e-06
2.2909342e-05
4.4947704e-06
1.9007453e-05
8.8886509e-06
1.4187368e-05
1.074226e-05
1.024335e-05
8.611367e-06
6.5888097e-06
7.874439e-06
1.945239e-06
8.0216619e-06
2.356295e-09
7.3819246e-06
1.488669e-06
6.8889025e-06
1.1045434e-06
3.8653935e-06
7.8904524e-06
6.3812419e-07
8.2016678e-06
-1.9476425e-06
6.4085773e-06
-2.5876564e-06
1.4055545e-06
-2.3713322e-06
-6.3520295e-07
-2.0405043e-06
-8.6400787e-07
-1.781598e-06
-6.6307248e-07
-1.5265505e-06
-6.5240516e-07
-1.2537955e-06
-6.9848391e-07
-9.5351361e-07
-7.699005e-07
-6.0582539e-07
-8.9438366e-07
-1.9877365e-07
-1.0479646e-06
2.5608127e-07
-1.169052e-06
7.3157348e-07
-1.221298e-06
1.2054775e-06
-1.2182151e-06
1.6518942e-06
-1.146363e-06
2.0206394e-06
-9.4327774e-07
2.2660792e-06
-6.2127704e-07
2.366253e-06
-2.4389201e-07
2.3527764e-06
4.6732009e-08
2.2881693e-06
1.7142511e-07
2.2181333e-06
1.7676502e-07
2.1589377e-06
1.4114718e-07
2.1089487e-06
1.1007333e-07
2.0510288e-06
1.2406955e-07
1.9641092e-06
1.9293832e-07
1.8375722e-06
2.8995401e-07
1.6767771e-06
3.7436738e-07
1.5034155e-06
4.0402821e-07
1.3507593e-06
3.484085e-07
1.2538621e-06
2.018488e-07
1.2425873e-06
-2.313841e-08
1.3308898e-06
-2.8614815e-07
1.5420527e-06
-6.1217792e-07
1.9050668e-06
-1.0161474e-06
2.451586e-06
-1.5032333e-06
3.1670955e-06
-1.951883e-06
4.0204545e-06
-2.3106715e-06
4.8493087e-06
-2.2328843e-06
5.5025296e-06
-1.7451412e-06
5.7184612e-06
-5.8522075e-07
5.4900069e-06
5.5254145e-07
4.4438569e-06
2.5850488e-06
2.2468384e-06
5.4950119e-06
-1.3946797e-07
5.8988308e-06
-2.7593766e-06
6.5937773e-06
-5.708094e-06
7.523853e-06
-8.7386831e-06
7.7984902e-06
-1.1819687e-05
8.0019094e-06
-1.4826671e-05
7.869391e-06
-1.7703946e-05
7.5880611e-06
-2.0388223e-05
7.1311318e-06
-2.2840671e-05
6.564975e-06
-2.502909e-05
5.9054085e-06
-2.6932648e-05
5.1831092e-06
-2.8537608e-05
4.4165098e-06
-2.9838561e-05
3.6283431e-06
-3.0837595e-05
2.8392796e-06
-3.1543036e-05
2.0669703e-06
-3.1967825e-05
1.3246289e-06
-3.2128532e-05
6.2261271e-07
-3.2039847e-05
-4.0233169e-08
-3.1714472e-05
-6.6987434e-07
-3.116904e-05
-1.2584291e-06
-3.0422125e-05
-1.7983771e-06
-2.9491232e-05
-2.2918869e-06
-2.839233e-05
-2.7425718e-06
-2.7139432e-05
-3.1554362e-06
-2.574428e-05
-3.5362759e-06
-2.4216088e-05
-3.8917889e-06
-2.2561157e-05
-4.2297708e-06
-2.0782854e-05
-4.5581845e-06
-1.8881586e-05
-4.8853003e-06
-1.6855861e-05
-5.2166388e-06
-1.4703729e-05
-5.5543439e-06
-1.2424978e-05
-5.8942735e-06
-1.0025181e-05
-6.222822e-06
-7.5401244e-06
-6.4485659e-06
-5.0020895e-06
-6.5511789e-06
-2.3031828e-06
-6.9469812e-06
6.6663252e-07
-7.7044766e-06
3.8484236e-06
-8.3211847e-06
7.1617954e-06
-8.6994072e-06
1.0557243e-05
-8.9437701e-06
1.3963866e-05
-9.002779e-06
1.7281869e-05
-8.796533e-06
2.0387239e-05
-8.2588621e-06
2.3133317e-05
-7.3275446e-06
2.5365429e-05
-5.9800351e-06
2.6942809e-05
-4.2544345e-06
2.7763746e-05
-2.2563801e-06
2.7790318e-05
-1.5790684e-07
2.7040656e-05
1.887023e-06
2.5607921e-05
3.6757239e-06
2.3674146e-05
4.973498e-06
2.1461463e-05
5.6805365e-06
1.917644e-05
5.8460568e-06
1.6955309e-05
5.6664454e-06
1.4845288e-05
5.387662e-06
1.2835767e-05
5.1705232e-06
1.0921028e-05
5.0014626e-06
9.157057e-06
4.7044704e-06
7.6700285e-06
4.0714353e-06
6.610618e-06
3.015762e-06
6.095868e-06
1.6150615e-06
6.1736885e-06
4.9692003e-08
6.8211743e-06
-1.4872871e-06
7.9636951e-06
-2.8484473e-06
9.4883664e-06
-3.9218537e-06
1.125513e-05
-4.6261219e-06
1.3107196e-05
-4.9082231e-06
1.4887199e-05
-4.7588469e-06
1.6456878e-05
-4.2234874e-06
1.772024e-05
-3.4126839e-06
1.8646113e-05
-2.50275e-06
1.9275417e-05
-1.6943797e-06
1.9709052e-05
-1.159334e-06
2.0073739e-05
-9.7789164e-07
2.0478011e-05
-1.1099204e-06
2.0971966e-05
-1.4025364e-06
2.1517921e-05
-1.6145899e-06
2.2000607e-05
-1.5264386e-06
2.2272806e-05
-1.0446694e-06
2.218795e-05
-1.6967346e-07
2.1607207e-05
1.0858841e-06
2.0432233e-05
2.6278365e-06
1.864856e-05
4.23805e-06
1.6319638e-05
5.7119469e-06
1.3570212e-05
6.8863688e-06
1.0572971e-05
7.6183114e-06
7.4990682e-06
7.8965369e-06
4.4737762e-06
7.8337167e-06
1.5739886e-06
7.5530822e-06
-1.163478e-06
7.1677701e-06
-3.7409093e-06
6.7723386e-06
-6.1831446e-06
6.4276756e-06
-8.508793e-06
6.1313404e-06
-1.0731537e-05
5.8705393e-06
-1.2864368e-05
5.6436271e-06
-1.4919052e-05
5.4482484e-06
-1.6906272e-05
5.2824064e-06
-1.8835365e-05
5.1435908e-06
-2.0714123e-05
5.0293817e-06
-2.2545929e-05
4.9298949e-06
-2.433135e-05
4.8429625e-06
-2.6048737e-05
4.7117957e-06
-2.7665453e-05
4.5278722e-06
-2.901367e-05
3.916956e-06
-2.9858098e-05
2.7630607e-06
-2.8902553e-05
-2.1840661e-06
-2.5490405e-05
-9.4220406e-06
-2.2485048e-05
-8.200524e-06
-2.0701057e-05
-4.7487837e-06
-1.9400829e-05
-3.473642e-06
-1.8498432e-05
-2.3938642e-06
-1.7839632e-05
-1.7377144e-06
-1.7340995e-05
-1.3089559e-06
-1.6967036e-05
-9.7062956e-07
-1.6686338e-05
-7.1736464e-07
-1.6465146e-05
-5.5868885e-07
-1.630566e-05
-3.9964824e-07
-1.6272784e-05
-5.8024706e-08
-1.6398843e-05
3.8410186e-07
-1.6597585e-05
5.90365e-07
-1.6785621e-05
5.7042315e-07
-1.6924379e-05
4.4825512e-07
-1.6986034e-05
2.5146525e-07
-1.6950074e-05
5.5920852e-10
-1.6799322e-05
-2.9417474e-07
-1.6501874e-05
-6.7325854e-07
-1.5997011e-05
-1.2213727e-06
-1.5246095e-05
-1.8803819e-06
-1.427327e-05
-2.477749e-06
-1.3146513e-05
-2.8885629e-06
-1.1904012e-05
-3.1973282e-06
-1.0563033e-05
-3.4601988e-06
-9.14513e-06
-3.664707e-06
-7.6634352e-06
-3.8330568e-06
-6.1236738e-06
-3.9851099e-06
-4.5276523e-06
-4.1261549e-06
-2.7905639e-06
-4.4757641e-06
-7.7748734e-07
-5.1848665e-06
1.4926259e-06
-5.875512e-06
4.0535361e-06
-6.6563827e-06
7.0932286e-06
-7.9235004e-06
1.0782224e-05
-9.6560216e-06
1.530117e-05
-1.1893313e-05
2.0693069e-05
-1.4277281e-05
2.6631526e-05
-1.5815248e-05
3.1703998e-05
-1.3464749e-05
3.3561601e-05
-4.5202351e-06
3.1306584e-05
6.7497876e-06
2.6310624e-05
1.3884611e-05
1.997381e-05
1.7079073e-05
1.4625916e-05
1.3959261e-05
9.6325279e-06
1.2867826e-05
3.3939395e-06
1.0901709e-05
4.0785567e-07
1.0005699e-05
2.3846785e-06
9.254184e-06
1.8560588e-06
5.3708598e-06
1.1773777e-05
1.1024615e-06
1.2470066e-05
-2.3946558e-06
9.9056946e-06
-3.3588867e-06
2.3697854e-06
-3.1182027e-06
-8.7588697e-07
-2.6935838e-06
-1.2886267e-06
-2.3541508e-06
-1.0025056e-06
-2.0193754e-06
-9.871806e-07
-1.6617259e-06
-1.0561335e-06
-1.2685229e-06
-1.1631036e-06
-8.1453369e-07
-1.348373e-06
-2.8367986e-07
-1.5788182e-06