/*--------------------------------*- C++ -*----------------------------------*\
| =========                 |                                                 |
| \\      /  F ield         | OpenFOAM: The Open Source CFD Toolbox           |
|  \\    /   O peration     | Version:  2.4.0                                 |
|   \\  /    A nd           | Web:      www.OpenFOAM.org                      |
|    \\/     M anipulation  |                                                 |
\*---------------------------------------------------------------------------*/
FoamFile
{
    version     2.0;
    format      ascii;
    class       volVectorField;
    location    "60";
    object      U;
}
// * * * * * * * * * * * * * * * * * * * * * * * * * * * * * * * * * * * * * //

dimensions      [0 1 -1 0 0 0 0];

internalField   nonuniform List<vector> 
32000
(
(0.0079739963 3.9926085e-05 -8.6870643e-21)
(0.0035230147 1.0324566e-06 -1.3759148e-21)
(0.0068720912 -0.00018982423 -2.8645229e-21)
(0.0034609513 -0.00026636557 -8.58481e-20)
(0.0015202212 -0.00023268684 2.1955447e-19)
(-0.0015510421 0.00037506265 8.0792543e-19)
(-0.0022445328 0.0007958028 -3.0543828e-19)
(-0.0020592817 0.00097649855 -1.8749319e-19)
(-0.0016825211 0.00096722683 -1.5744036e-18)
(-0.0014503728 0.00095151207 8.2305494e-19)
(-0.0012367106 0.00089087397 8.5084467e-19)
(-0.001021471 0.00078644259 1.8808094e-18)
(-0.00079054466 0.00063837618 1.8729999e-18)
(-0.00054361425 0.00045424643 1.1150311e-18)
(-0.00025298681 0.00021740524 -9.2678488e-21)
(6.4953904e-05 -5.1234709e-05 5.8858178e-19)
(0.00040075045 -0.00033448876 8.4045253e-20)
(0.00072558752 -0.00059953067 -4.9745182e-19)
(0.0010399398 -0.0008475338 -5.7272461e-19)
(0.001305821 -0.0010500379 -8.7003579e-19)
(0.0014924399 -0.0011855384 -5.546806e-19)
(0.001573166 -0.0012362119 5.2505391e-19)
(0.0015566023 -0.0012116256 1.9990812e-18)
(0.0014926028 -0.0011520774 -5.8505804e-19)
(0.0014255648 -0.0010926517 -7.8398878e-19)
(0.0013732711 -0.001046508 2.0676761e-18)
(0.0013369497 -0.0010141108 -1.1619832e-18)
(0.0013108046 -0.00098709868 -1.3004281e-18)
(0.0012782671 -0.00094985855 1.071442e-18)
(0.0012293391 -0.00089547296 -2.5973307e-18)
(0.0011610458 -0.00082312987 3.25265e-19)
(0.001081921 -0.00074078035 -1.8429948e-18)
(0.0010078636 -0.00066085252 -2.5227845e-18)
(0.00096098074 -0.00059805366 1.5255191e-18)
(0.00095932479 -0.00056100455 3.0270722e-18)
(0.0010198184 -0.00055430006 -1.3955409e-18)
(0.0011422981 -0.00057061889 4.8960639e-19)
(0.0013569797 -0.0006177536 1.1846548e-18)
(0.0016674227 -0.00068327686 -1.8333337e-18)
(0.0021089571 -0.00076583806 6.446203e-19)
(0.0026217943 -0.00082518422 5.6226021e-19)
(0.0032221359 -0.00085421351 1.9591027e-18)
(0.0036754543 -0.00078574256 6.12055e-19)
(0.0040390865 -0.00065219767 -1.5736052e-19)
(0.0039468932 -0.00042637532 1.0297153e-18)
(0.0038599896 -0.00020902617 3.6585764e-20)
(0.0029416568 -2.0942672e-05 -1.5369918e-20)
(0.0017072873 -3.4473476e-06 1.0129168e-23)
(0.00063971883 -2.1490097e-06 -1.3135208e-22)
(-0.00094394589 -1.2997641e-06 1.3383386e-22)
(-0.0025320115 -8.8856324e-08 -8.5013984e-23)
(-0.0042948038 1.0703623e-06 1.9562461e-23)
(-0.0060599152 2.3075864e-06 1.455249e-22)
(-0.0078291684 3.4961801e-06 -8.8506984e-23)
(-0.0095348262 4.6422802e-06 1.2927696e-24)
(-0.011153063 5.6991958e-06 -3.4016229e-23)
(-0.012651051 6.6515854e-06 3.4086504e-23)
(-0.014009221 7.4770534e-06 -1.2079943e-22)
(-0.015209902 8.1497089e-06 3.0613435e-24)
(-0.016241542 8.6762345e-06 1.1089031e-22)
(-0.017097562 9.0552111e-06 -3.0750067e-23)
(-0.017776773 9.2827849e-06 1.8455283e-23)
(-0.018281959 9.3694337e-06 3.4706619e-23)
(-0.018619049 9.3311936e-06 4.7376865e-25)
(-0.018796732 9.1951824e-06 2.9479835e-23)
(-0.018823227 8.9491728e-06 2.6224544e-23)
(-0.018705262 8.603304e-06 -4.1397401e-23)
(-0.018453264 8.2028174e-06 1.7801835e-23)
(-0.018078305 7.7360068e-06 -5.9328186e-23)
(-0.017590944 7.2164548e-06 2.1721201e-24)
(-0.017000963 6.6546631e-06 -5.5601273e-24)
(-0.016316979 6.0586989e-06 9.493957e-24)
(-0.015546286 5.4455145e-06 -3.9097478e-24)
(-0.014694416 4.8014027e-06 2.5505953e-24)
(-0.013765107 4.1474857e-06 1.0675651e-23)
(-0.012759818 3.4605346e-06 6.339292e-24)
(-0.011678137 2.7566069e-06 -5.8705353e-24)
(-0.010518275 2.0150305e-06 6.9928902e-25)
(-0.009277215 1.2447568e-06 -1.5920203e-24)
(-0.0079553508 4.2695938e-07 2.7919305e-25)
(-0.0065496367 -3.4149805e-07 1.4229707e-25)
(-0.0051274738 -6.4899431e-07 8.6680696e-24)
(-0.0037144607 -1.1233343e-06 -6.1142492e-24)
(-0.0021426388 -2.3710459e-06 -2.1442894e-24)
(-0.00035148565 -3.6343228e-06 -1.9441893e-24)
(0.0015684747 -4.6215643e-06 9.6278103e-24)
(0.0035792733 -5.5279276e-06 -5.8353554e-24)
(0.0056495247 -6.3304236e-06 -6.5225252e-24)
(0.0077286364 -6.8967333e-06 3.4580684e-24)
(0.0097468957 -7.1687124e-06 -1.1044406e-24)
(0.011618442 -7.0384926e-06 -9.6830229e-25)
(0.013242762 -6.4491664e-06 6.3568843e-24)
(0.014519173 -5.3693995e-06 -4.7634097e-24)
(0.015363866 -3.8752978e-06 9.2369609e-24)
(0.015725137 -2.0979667e-06 -1.5107018e-24)
(0.015601105 -2.8097711e-07 -1.0150782e-24)
(0.01501879 1.512247e-06 -2.5576865e-25)
(0.014075569 2.8867233e-06 -7.4064368e-25)
(0.012907147 3.8476461e-06 -7.848855e-25)
(0.011654465 4.2430333e-06 5.0180372e-26)
(0.010424456 4.3251672e-06 8.1040468e-26)
(0.0092597247 4.242901e-06 9.8403742e-26)
(0.0081413303 4.2935104e-06 -3.5294807e-25)
(0.0070249569 4.4950101e-06 1.1740005e-25)
(0.0058945485 4.6897071e-06 2.0273736e-25)
(0.0047982092 4.6286724e-06 1.9839748e-25)
(0.0038405765 4.0243896e-06 1.0916659e-25)
(0.0031371479 2.9111751e-06 -4.7789403e-25)
(0.0027732514 1.3828073e-06 -5.3242326e-25)
(0.0027854223 -2.9462695e-07 2.0086183e-25)
(0.0031649434 -1.9315551e-06 5.7699308e-25)
(0.0038683347 -3.3008912e-06 -3.4343198e-25)
(0.0048230441 -4.2846073e-06 -3.661795e-25)
(0.0059353279 -4.7778257e-06 7.0070414e-25)
(0.0070974727 -4.7106152e-06 -1.574431e-26)
(0.0082004104 -4.1264586e-06 -9.6963741e-26)
(0.0091490969 -3.1235592e-06 -1.1258504e-24)
(0.0098828807 -1.9134987e-06 1.0077731e-24)
(0.010391493 -7.1572169e-07 3.1195823e-25)
(0.010718646 1.9855224e-07 -2.6909929e-25)
(0.010950055 7.3196914e-07 1.0677712e-25)
(0.011183209 8.5369409e-07 -1.0481295e-24)
(0.011497812 7.3368807e-07 -3.7925603e-25)
(0.011925532 6.8742957e-07 -3.6745151e-25)
(0.012425706 9.716095e-07 3.4406504e-24)
(0.012910944 1.8805598e-06 3.639093e-25)
(0.013284662 3.2400258e-06 1.3025006e-24)
(0.013452248 5.2047161e-06 1.3065091e-24)
(0.013314171 7.579608e-06 1.5270265e-24)
(0.012805711 1.0138125e-05 1.8259128e-24)
(0.011921697 1.2508548e-05 -2.4107591e-23)
(0.01069023 1.4537293e-05 3.0037238e-23)
(0.0091861948 1.6054924e-05 -3.4275199e-23)
(0.0075221739 1.6828828e-05 1.9995353e-23)
(0.0057968507 1.7050097e-05 -2.3056187e-23)
(0.0040830526 1.6706363e-05 1.7810218e-16)
(0.0024260917 1.6053549e-05 1.9321006e-16)
(0.00084396546 1.5156767e-05 2.938395e-23)
(-0.00066213858 1.4228172e-05 -2.1883488e-16)
(-0.0021024385 1.3246369e-05 -2.3014558e-16)
(-0.0034845599 1.2277291e-05 -1.2707452e-22)
(-0.0048160809 1.1273546e-05 3.3610743e-23)
(-0.0061045343 1.0265674e-05 -6.5749265e-23)
(-0.007357293 9.2235499e-06 3.4800391e-23)
(-0.0085821653 8.1575737e-06 7.6554077e-23)
(-0.0097861241 7.0356328e-06 -1.4443577e-22)
(-0.010978147 5.8432346e-06 1.1278871e-22)
(-0.012162013 4.5502834e-06 -1.4624624e-22)
(-0.01335293 3.0995174e-06 2.6084622e-22)
(-0.014527409 1.339392e-06 -1.4531314e-22)
(-0.015730615 -8.4372267e-07 -3.2484584e-23)
(-0.016726011 -4.4770527e-06 2.3466094e-24)
(-0.017623437 -9.6237619e-06 2.6431772e-24)
(-0.015951571 -0.00011959538 1.3630079e-20)
(-0.013018012 -0.00071692577 9.2280806e-19)
(-0.011779345 -0.0012927945 1.3769448e-19)
(-0.010776876 -0.0017662686 -2.715392e-19)
(-0.010134505 -0.0022058381 2.1923048e-19)
(-0.0096787743 -0.0026176817 -1.2836198e-18)
(-0.0093608346 -0.0030145662 -9.3638986e-19)
(-0.0091272275 -0.0034042787 1.8546728e-18)
(-0.0089832262 -0.003797092 -3.9422473e-19)
(-0.0088893969 -0.004188426 -7.4194625e-19)
(-0.0088326528 -0.0045779204 -6.9186406e-19)
(-0.0088245082 -0.0049764995 2.3161969e-18)
(-0.0089512073 -0.0054269363 1.0210767e-18)
(-0.0091918602 -0.0059077807 2.2274351e-19)
(-0.0094607696 -0.0063719839 2.4147834e-18)
(-0.0097281118 -0.0068024454 2.2190215e-18)
(-0.0099714269 -0.0071809863 -1.2052924e-18)
(-0.010173548 -0.0074924613 2.0455414e-18)
(-0.010320389 -0.0077227441 3.2058047e-20)
(-0.010401251 -0.0078608674 -2.3161534e-18)
(-0.010374961 -0.0078760622 1.0530906e-18)
(-0.010178703 -0.0077451357 -3.1326507e-19)
(-0.0097908936 -0.0074762676 -7.3767009e-19)
(-0.0092494531 -0.0071111727 1.4691762e-18)
(-0.0086068802 -0.0066688672 1.0306196e-19)
(-0.0078634503 -0.006149399 6.4199453e-19)
(-0.0070348908 -0.0055610643 5.4079175e-20)
(-0.0061321517 -0.004906657 7.0759611e-21)
(-0.0051594126 -0.0041830685 -4.2629672e-20)
(-0.0041163986 -0.0033845378 5.2449155e-20)
(-0.0030103839 -0.0025063337 3.6734077e-20)
(-0.0017215789 -0.0014308798 -3.0131343e-19)
(-0.00013370452 -8.6597928e-05 -1.0390044e-19)
(0.0016915573 0.0014165713 2.4353126e-19)
(0.0039071232 0.0031347855 -2.4670106e-19)
(0.0066811085 0.0050948093 5.0509698e-20)
(0.010196536 0.0072623846 2.8543613e-20)
(0.014680958 0.0095152843 -1.1476396e-19)
(0.0200737 0.01139767 3.1426811e-19)
(0.025895487 0.012163388 -3.1192545e-19)
(0.029576596 0.010480359 4.2770146e-19)
(0.028651295 0.0069811228 -1.2192669e-20)
(0.023917344 0.0036085505 2.2774577e-19)
(0.01821386 0.0014389987 1.040895e-19)
(0.011694699 0.00033343105 -1.0908683e-20)
(0.0090750303 4.5081074e-06 6.0306502e-22)
(0.0029582189 -1.409981e-05 1.6873032e-21)
(0.02408341 0.00011759497 2.0577549e-20)
(0.011647708 1.3072344e-05 2.7997913e-21)
(0.020826031 -0.00057029003 6.7983534e-20)
(0.010917639 -0.00078457838 2.3397393e-19)
(0.005036647 -0.000701424 -6.1905959e-20)
(-0.0042677243 0.0011018749 -1.4781616e-18)
(-0.0066185708 0.0023824048 -1.9729375e-19)
(-0.0061776255 0.0029450258 6.8330802e-19)
(-0.0050776207 0.0029285765 9.8235038e-19)
(-0.0043822275 0.0028851879 -4.4830404e-19)
(-0.003739557 0.0027031892 -1.4114993e-18)
(-0.0030931179 0.0023884517 -2.3795149e-18)
(-0.0024004155 0.0019414337 -3.846821e-18)
(-0.0016628932 0.0013858471 -2.7204564e-19)
(-0.00079757494 0.00067218585 7.3389462e-19)
(0.00015006651 -0.00013807688 -1.74501e-18)
(0.0011528565 -0.00099345739 -2.7287481e-18)
(0.0021215983 -0.0017930444 -2.7049323e-19)
(0.0030593435 -0.0025407312 -1.4883904e-18)
(0.0038547317 -0.0031515495 -9.3277637e-19)
(0.0044175266 -0.0035613143 -2.6445541e-18)
(0.0046691468 -0.0037172804 1.5648104e-18)
(0.0046313676 -0.0036474171 -2.5823909e-18)
(0.0044477494 -0.0034710776 -6.6996688e-19)
(0.0042480931 -0.003292331 -1.1120504e-18)
(0.0040859588 -0.0031506532 -7.4188124e-19)
(0.0039659335 -0.0030477824 4.4381305e-18)
(0.0038712363 -0.0029584534 4.8455608e-18)
(0.0037534863 -0.0028363002 -2.0676111e-18)
(0.0035833883 -0.0026609406 3.6403424e-18)
(0.0033531436 -0.0024308909 6.3198394e-19)
(0.0030891574 -0.0021710095 6.5363324e-19)
(0.0028394686 -0.0019195103 1.3989908e-18)
(0.0026698432 -0.0017209627 -1.6383988e-18)
(0.0026334118 -0.0016014388 -7.149445e-19)
(0.0027793911 -0.0015743973 3.6089225e-18)
(0.0031055122 -0.0016179955 -2.0428279e-18)
(0.003699497 -0.0017548447 -1.1329979e-18)
(0.0045714416 -0.0019485531 -1.5030458e-19)
(0.0058258018 -0.0021943006 4.5030575e-19)
(0.0072897744 -0.0023736164 -9.7389723e-19)
(0.0090193338 -0.0024639563 -2.4930696e-18)
(0.010333389 -0.0022679553 -2.2984158e-19)
(0.011401544 -0.0018777669 2.6349903e-19)
(0.011131459 -0.0012160313 -5.4493258e-19)
(0.010837458 -0.00057179985 -3.7706687e-20)
(0.0080117027 -1.0321349e-05 -3.5439923e-21)
(0.0041707389 4.1781185e-05 6.3598048e-23)
(0.0008255469 5.0876254e-05 -2.1171885e-22)
(-0.0039762885 5.9470608e-05 2.5277337e-22)
(-0.008769456 6.3688314e-05 -6.4973129e-23)
(-0.014026698 6.6830917e-05 -1.9489566e-22)
(-0.019256203 6.7287312e-05 1.5059965e-22)
(-0.0244579 6.6253481e-05 -1.0608781e-23)
(-0.029440517 6.3612164e-05 -1.0804187e-23)
(-0.034136552 5.9843134e-05 -3.6430497e-23)
(-0.038455203 5.5097747e-05 1.497412e-23)
(-0.042343364 4.9622308e-05 -3.541965e-23)
(-0.045754096 4.3577662e-05 2.1063215e-22)
(-0.048658051 3.7174976e-05 -2.2813779e-22)
(-0.051040191 3.0617117e-05 -3.0645076e-23)
(-0.052900747 2.4069465e-05 1.9503051e-22)
(-0.054251003 1.7648207e-05 -6.39496e-23)
(-0.055110857 1.1495506e-05 3.944603e-23)
(-0.055507569 5.6574116e-06 -9.6988904e-23)
(-0.055465758 8.2427589e-08 3.2259169e-23)
(-0.055004957 -5.2004834e-06 5.1338517e-23)
(-0.054156525 -1.0068815e-05 -9.8189632e-24)
(-0.052952871 -1.455151e-05 -7.0942168e-23)
(-0.051424637 -1.8679755e-05 -1.31304e-24)
(-0.049599961 -2.248182e-05 8.7977845e-23)
(-0.047503446 -2.5999435e-05 -8.6913298e-23)
(-0.045155709 -2.9288597e-05 7.6159162e-23)
(-0.04257224 -3.241301e-05 -4.6608984e-23)
(-0.039763322 -3.5449586e-05 2.417388e-23)
(-0.036732766 -3.8475739e-05 -5.2221e-24)
(-0.033479263 -4.1553923e-05 -6.7807111e-24)
(-0.029997802 -4.4726981e-05 -6.1065855e-26)
(-0.026281489 -4.7969665e-05 -1.4821275e-24)
(-0.022332055 -5.1239799e-05 -4.3140161e-24)
(-0.018149678 -5.345887e-05 1.6418303e-24)
(-0.013911796 -5.3457841e-05 6.9140885e-24)
(-0.0096573514 -5.632063e-05 -1.0816829e-23)
(-0.0049309803 -6.4094575e-05 -7.9952369e-26)
(0.00039880449 -7.0872366e-05 -3.6626702e-24)
(0.006072187 -7.509583e-05 8.7027037e-24)
(0.011988946 -7.8071304e-05 1.0825559e-23)
(0.018054331 -7.9485372e-05 -4.1020615e-24)
(0.024117525 -7.8570974e-05 -1.3275603e-23)
(0.029973561 -7.4649798e-05 3.330479e-23)
(0.035371895 -6.7120741e-05 -2.6231574e-23)
(0.040022707 -5.5694859e-05 1.2271078e-23)
(0.043638354 -4.0696419e-05 -4.640602e-24)
(0.045982023 -2.308056e-05 3.413522e-24)
(0.046911828 -4.4339877e-06 -6.969465e-26)
(0.04642946 1.3744505e-05 -5.1816961e-26)
(0.044613082 2.9525368e-05 5.2830269e-25)
(0.041746114 4.0814291e-05 1.3757461e-24)
(0.038223181 4.676185e-05 -1.2742264e-24)
(0.034453352 4.7926776e-05 1.1416875e-25)
(0.030747431 4.6199373e-05 -2.8228589e-25)
(0.027233433 4.4013143e-05 -1.0050876e-25)
(0.023868846 4.3049444e-05 5.0368643e-25)
(0.020546192 4.3252173e-05 -9.6507218e-26)
(0.017242077 4.2838242e-05 -5.6057777e-26)
(0.01410997 3.9468743e-05 6.5323334e-25)
(0.011450144 3.1843631e-05 -1.0700594e-24)
(0.0095791657 2.0346663e-05 5.1496561e-25)
(0.0087191862 6.5394958e-06 -1.1461442e-24)
(0.0089505924 -7.7725251e-06 2.0048193e-24)
(0.010225777 -2.1053262e-05 -1.4206223e-24)
(0.01240308 -3.2061627e-05 3.9157994e-25)
(0.015263182 -3.9847625e-05 -5.2802508e-25)
(0.018531528 -4.3749227e-05 -5.7091503e-26)
(0.021899778 -4.3486243e-05 2.1671424e-24)
(0.025062099 -3.9314197e-05 -1.3197346e-24)
(0.027758575 -3.2163576e-05 7.9196889e-25)
(0.029831176 -2.3648323e-05 4.7080132e-25)
(0.03126498 -1.5763044e-05 -8.5513769e-25)
(0.03219414 -1.0337813e-05 -1.0012597e-24)
(0.032864092 -8.4080295e-06 5.0938113e-25)
(0.033543855 -9.8558846e-06 -3.0193105e-24)
(0.034443171 -1.3420169e-05 7.8033222e-24)
(0.035630167 -1.6826637e-05 -6.9109626e-25)
(0.036971152 -1.7722762e-05 3.9637217e-25)
(0.038208395 -1.5018074e-05 1.0849273e-25)
(0.039063829 -8.6496555e-06 -4.3922032e-24)
(0.039269698 1.4271877e-06 3.0631854e-24)
(0.038549972 1.469609e-05 -8.3535372e-24)
(0.036739627 2.9230435e-05 -4.4722373e-24)
(0.033846573 4.3169133e-05 3.6026408e-24)
(0.029977362 5.5125493e-05 -1.6874793e-23)
(0.025367855 6.3467093e-05 -8.7916623e-24)
(0.020348036 6.7743703e-05 -1.0088838e-23)
(0.015200124 6.8727309e-05 1.0980183e-22)
(0.010125822 6.7371409e-05 -1.5642981e-22)
(0.0052460534 6.4764863e-05 1.5250948e-22)
(0.00060444233 6.1715636e-05 -8.6738415e-23)
(-0.0038024253 5.8804041e-05 -1.0141967e-23)
(-0.0080098258 5.6227926e-05 -3.2907568e-23)
(-0.012041438 5.3938684e-05 -1.2217265e-23)
(-0.015919898 5.1926658e-05 8.4952824e-23)
(-0.019667277 5.0185133e-05 1.0589302e-22)
(-0.02330468 4.8715574e-05 -1.2642184e-22)
(-0.026853902 4.7510816e-05 -3.5960362e-23)
(-0.030333806 4.6577035e-05 1.417035e-23)
(-0.033767634 4.5872452e-05 8.5442097e-23)
(-0.037163022 4.5421884e-05 -1.0769634e-23)
(-0.040554957 4.4882211e-05 -1.0933073e-23)
(-0.043869332 4.4260533e-05 6.7121138e-23)
(-0.047200312 4.0824806e-05 -1.233809e-23)
(-0.049867697 3.261274e-05 1.1130451e-23)
(-0.05207529 -9.5461699e-06 -2.6098937e-22)
(-0.047241147 -0.00039504555 -6.3441143e-22)
(-0.038974331 -0.0022019375 3.3550173e-20)
(-0.035358119 -0.0039237576 1.7406487e-18)
(-0.032450755 -0.0053612914 -7.5146169e-19)
(-0.030576298 -0.0066954682 1.1249298e-18)
(-0.02924092 -0.0079485563 1.9268035e-18)
(-0.028303307 -0.0091562857 3.4697855e-18)
(-0.027610526 -0.010342158 -2.8868877e-18)
(-0.027173704 -0.011534397 -3.0103561e-19)
(-0.026881219 -0.012720786 3.4368187e-18)
(-0.026697921 -0.013900551 6.2262022e-19)
(-0.026659723 -0.015106346 1.8928787e-18)
(-0.027004265 -0.016457757 -3.9927844e-18)
(-0.027666157 -0.01789013 9.2661429e-19)
(-0.028402651 -0.019267432 -2.2984593e-18)
(-0.029128255 -0.02053852 -2.0467897e-18)
(-0.029778104 -0.021649838 2.5252481e-18)
(-0.030303068 -0.022556836 -3.265574e-18)
(-0.030662527 -0.023217903 9.8069108e-19)
(-0.030823203 -0.023599583 3.1457288e-18)
(-0.030668048 -0.023613224 -4.3273267e-20)
(-0.030022048 -0.023195152 8.0160183e-19)
(-0.028828029 -0.022372341 3.0296438e-19)
(-0.027193121 -0.02126607 3.1461079e-19)
(-0.025264998 -0.019929901 -2.0123182e-19)
(-0.02304545 -0.018365089 4.775859e-19)
(-0.020579493 -0.016595356 -5.3665043e-20)
(-0.017897906 -0.01462825 -1.2365008e-19)
(-0.015011821 -0.012453802 1.089883e-19)
(-0.011920041 -0.010054449 -3.3929462e-20)
(-0.0086358423 -0.0074113745 -1.2805761e-19)
(-0.0047941029 -0.0041683041 4.7415305e-20)
(-7.4405881e-05 -0.00012448015 3.581292e-19)
(0.0053138547 0.0043778437 -2.432347e-19)
(0.011838023 0.0095129904 -1.7866256e-19)
(0.019987098 0.015353852 3.9171306e-19)
(0.030283405 0.021788528 -1.821605e-19)
(0.043367529 0.028437979 2.3159889e-19)
(0.059050738 0.033950389 -8.5643194e-20)
(0.075932158 0.036133538 5.5189913e-19)
(0.086817097 0.03117368 1.6711772e-18)
(0.084777696 0.020935078 1.5909632e-18)
(0.071756362 0.010992074 2.2353736e-19)
(0.055474303 0.0044993484 -4.152606e-19)
(0.036529539 0.001119833 -1.7771847e-20)
(0.028391597 9.2437368e-05 -5.3946089e-21)
(0.010654445 -3.4001211e-05 1.7603439e-20)
(0.04097562 0.00019799252 3.1836715e-21)
(0.021179501 3.8904789e-05 1.5233414e-21)
(0.035392032 -0.00095648822 6.5039989e-21)
(0.019238502 -0.0012993567 -3.9455555e-19)
(0.0091907572 -0.0011927104 -3.0588672e-19)
(-0.006600502 0.0017865352 1.4000257e-18)
(-0.010993497 0.003977769 8.1964304e-19)
(-0.010419074 0.0049612087 3.0867489e-19)
(-0.0086091382 0.004955636 5.2658144e-19)
(-0.0074381933 0.0048895062 2.9020078e-19)
(-0.0063524828 0.0045839006 -2.6383786e-19)
(-0.0052612941 0.0040534722 1.5024552e-18)
(-0.0040925617 0.003299198 2.9081136e-18)
(-0.0028512718 0.0023624318 -2.2160469e-19)
(-0.0013983158 0.001161611 -2.5155691e-18)
(0.00019425308 -0.00020277128 -1.5272925e-19)
(0.001882431 -0.0016449819 1.4274192e-18)
(0.0035115394 -0.0029912948 2.9823866e-18)
(0.005088457 -0.0042490277 1.1525349e-18)
(0.0064291075 -0.005276957 8.1499371e-20)
(0.0073835451 -0.0059682957 2.3151728e-18)
(0.0078208995 -0.006236388 -1.7831885e-18)
(0.0077729447 -0.0061268964 -2.8424016e-18)
(0.0074741132 -0.005836514 1.4686084e-18)
(0.0071391019 -0.0055367964 5.324264e-19)
(0.006858614 -0.00529354 4.6560774e-19)
(0.006641708 -0.0051101388 -3.5099636e-18)
(0.0064607194 -0.0049438869 -2.0390099e-18)
(0.0062357087 -0.0047182451 1.9190122e-18)
(0.005917881 -0.0044000901 4.4373962e-19)
(0.0054953718 -0.0039889636 1.81942e-18)
(0.0050136139 -0.0035285998 -3.8562925e-19)
(0.0045540583 -0.0030848703 2.4454544e-18)
(0.0042268012 -0.0027331893 1.7168685e-18)
(0.0041200204 -0.0025174961 -1.6990345e-18)
(0.004314229 -0.002459668 2.943779e-19)
(0.0048036773 -0.0025232955 -1.2514322e-18)
(0.0057314265 -0.0027447237 -2.0287145e-18)
(0.0071138985 -0.003064715 1.1724379e-18)
(0.009123116 -0.003473886 -4.0783839e-18)
(0.0114781 -0.0037785688 2.0628955e-18)
(0.014279697 -0.0039390317 1.7070782e-18)
(0.016418515 -0.003633143 4.7875256e-19)
(0.018171999 -0.0030053129 6.9008661e-19)
(0.017723126 -0.0019328823 -3.9602224e-19)
(0.017163876 -0.00087576861 4.1696489e-19)
(0.012309246 5.2252391e-05 -2.4501619e-20)
(0.0056481323 0.00013726838 2.4380204e-22)
(-0.0002000078 0.00016022469 -6.8292411e-23)
(-0.008345666 0.00018591857 -1.2745939e-22)
(-0.016457795 0.0001959442 -1.2623117e-23)
(-0.025257661 0.00020371359 2.8426545e-23)
(-0.033963845 0.000202835 1.6457138e-22)
(-0.042563706 0.00019778474 -3.1542755e-22)
(-0.050755008 0.00018790512 2.2700024e-22)
(-0.058428945 0.00017485671 1.0042609e-22)
(-0.06544443 0.00015905529 -1.3843571e-22)
(-0.071720038 0.00014130177 -7.717487e-23)
(-0.077185743 0.00012207567 9.9032025e-23)
(-0.081799913 0.00010201456 -9.4180528e-24)
(-0.085544087 8.1700657e-05 1.4700354e-22)
(-0.088423941 6.1634751e-05 -1.7843678e-22)
(-0.090462455 4.2197434e-05 4.3995629e-23)
(-0.091695938 2.3683258e-05 -2.1063152e-23)
(-0.092171922 6.2115271e-06 -5.595299e-24)
(-0.091930484 -1.0414365e-05 1.6382359e-22)
(-0.091004387 -2.6042438e-05 -2.1610251e-22)
(-0.089446912 -4.041697e-05 2.1173054e-22)
(-0.087311414 -5.3567234e-05 -8.1175868e-23)
(-0.084647958 -6.556777e-05 -7.1212751e-23)
(-0.081502183 -7.6542555e-05 4.4546266e-23)
(-0.077913727 -8.6636822e-05 -4.581189e-24)
(-0.073915524 -9.602187e-05 -6.1668388e-24)
(-0.069532143 -0.00010491203 -2.0158843e-23)
(-0.064779634 -0.00011351805 2.8754749e-23)
(-0.059663741 -0.00012208194 1.5596644e-23)
(-0.054182221 -0.00013076478 -1.4358248e-23)
(-0.048327291 -0.00013967718 7.2497829e-25)
(-0.04209 -0.00014872357 -4.1026822e-24)
(-0.035474016 -0.00015769017 -4.0675706e-24)
(-0.028490304 -0.00016362571 1.2228379e-23)
(-0.021401887 -0.00016437459 -8.6418968e-24)
(-0.01422851 -0.00017330001 1.6358731e-24)
(-0.0062740148 -0.00019488636 -2.0570765e-23)
(0.002614628 -0.00021334921 1.5897082e-23)
(0.012023199 -0.00022459762 -1.1662818e-23)
(0.021805025 -0.00023220128 1.745027e-24)
(0.031799081 -0.00023510596 5.3397741e-24)
(0.041754794 -0.00023112463 7.0426813e-24)
(0.051335384 -0.00021834803 -1.3475915e-23)
(0.060131033 -0.00019510079 -1.3767781e-23)
(0.067671558 -0.00016064684 6.6229958e-24)
(0.073492217 -0.0001159762 1.0273024e-23)
(0.077211995 -6.3947733e-05 -7.1380131e-24)
(0.078606061 -9.1220106e-06 -2.6182798e-24)
(0.077681595 4.4140426e-05 5.079121e-24)
(0.074562511 9.0460507e-05 -2.184075e-24)
(0.069709225 0.00012358916 6.827779e-25)
(0.063766317 0.00014116904 8.6423131e-25)
(0.057404546 0.00014469049 5.852318e-25)
(0.051137814 0.000139666 3.3524113e-25)
(0.045187993 0.00013292026 3.1609521e-26)
(0.039507997 0.00012918695 -4.0850166e-26)
(0.033953066 0.00012814314 -3.2727194e-25)
(0.028515347 0.0001247407 -2.3076809e-25)
(0.023461259 0.00011264734 1.030985e-26)
(0.019273755 8.8512785e-05 7.4822882e-25)
(0.016443344 5.3835847e-05 -1.1425168e-24)
(0.015298156 1.3178858e-05 -5.1390023e-25)
(0.015934454 -2.8196793e-05 1.2278323e-24)
(0.018245069 -6.601897e-05 3.0176093e-25)
(0.021979218 -9.6883566e-05 -5.2680329e-25)
(0.02676812 -0.0001182395 1.1756047e-26)
(0.032161265 -0.00012835337 1.6179275e-24)
(0.037661812 -0.00012656486 -1.026469e-24)
(0.042784977 -0.00011379515 6.5227058e-25)
(0.047126913 -9.2843342e-05 -1.3291265e-24)
(0.050451607 -6.8419094e-05 -2.0055453e-24)
(0.052751576 -4.6153457e-05 1.4144231e-24)
(0.054252339 -3.1155457e-05 3.815514e-25)
(0.055347451 -2.608328e-05 -5.7860572e-25)
(0.056456641 -3.0370641e-05 -2.0400906e-24)
(0.057894363 -4.0210464e-05 4.4610832e-24)
(0.059742257 -4.8998659e-05 3.3865235e-24)
(0.061764908 -5.0348953e-05 1.402727e-24)
(0.063538114 -4.1262393e-05 -1.7119343e-23)
(0.064610514 -2.1693471e-05 5.9562044e-24)
(0.064551813 8.3986196e-06 -1.7317296e-23)
(0.062927262 4.7084629e-05 1.9767116e-23)
(0.059497822 8.8942428e-05 3.0506359e-23)
(0.054305876 0.00012857566 -4.5906081e-23)
(0.047560115 0.000161864 -6.3544822e-23)
(0.039671657 0.00018441118 1.8779269e-22)
(0.031185227 0.00019513664 -1.9989023e-22)
(0.022557377 0.00019661437 6.3485567e-23)
(0.014105173 0.00019168197 6.5847318e-23)
(0.0060124975 0.00018356873 -5.54648e-23)
(-0.0016587235 0.00017450376 3.0674029e-23)
(-0.0089246702 0.00016618276 1.3283954e-22)
(-0.015852972 0.00015898826 -6.167973e-23)
(-0.022482954 0.00015271586 -1.7473342e-22)
(-0.028852546 0.00014728825 -7.6156425e-23)
(-0.034998116 0.00014270977 9.084931e-23)
(-0.040953736 0.00013895258 2.8589169e-22)
(-0.046753671 0.00013599867 -7.4482614e-23)
(-0.05242671 0.00013384629 1.0100522e-22)
(-0.058006417 0.00013233511 -3.7544986e-22)
(-0.063500521 0.00013157167 -7.8776356e-23)
(-0.068951501 0.00013030041 1.0068933e-22)
(-0.074231468 0.00012882336 1.1627593e-22)
(-0.079434049 0.00011774309 9.6048181e-23)
(-0.083475755 9.425239e-05 -7.6133995e-23)
(-0.086468001 -3.5455962e-05 8.8198978e-23)
(-0.078596811 -0.00076293544 -3.2418206e-20)
(-0.065489708 -0.0037945594 -2.3649531e-19)
(-0.059535533 -0.0066618602 -2.0079829e-18)
(-0.054801446 -0.0090959636 1.1302803e-18)
(-0.051727038 -0.011356678 -4.873845e-19)
(-0.049531887 -0.013486694 -3.4038986e-18)
(-0.047982749 -0.015540347 -5.2868342e-19)
(-0.046834737 -0.017557184 4.2088199e-18)
(-0.046098972 -0.019579182 4.9744987e-19)
(-0.045598493 -0.021588754 -2.2285949e-18)
(-0.045279829 -0.023585107 -9.1029336e-19)
(-0.045206104 -0.02562246 -1.2105199e-18)
(-0.045746937 -0.027883807 -3.8703264e-18)
(-0.046790947 -0.030260646 -3.04592e-18)
(-0.047949137 -0.032535251 2.4995805e-19)
(-0.04908149 -0.03462219 3.4197489e-18)
(-0.050081824 -0.036433813 1.008267e-18)
(-0.050869801 -0.037897332 -2.4817643e-18)
(-0.051378102 -0.038944522 -2.6621264e-19)
(-0.051548316 -0.039518602 5.3494263e-19)
(-0.051191175 -0.039478371 -7.5251706e-19)
(-0.050029296 -0.038728695 1.7291562e-19)
(-0.04797678 -0.037319245 2.0594128e-19)
(-0.045206311 -0.035445691 -1.9131005e-18)
(-0.041953895 -0.033191233 -1.4151046e-19)
(-0.03822394 -0.030560176 -4.1481308e-20)
(-0.034089193 -0.027589926 -7.616192e-19)
(-0.029598628 -0.024291713 1.8202064e-19)
(-0.024768962 -0.020647691 -9.1427333e-21)
(-0.019597239 -0.016627761 -2.0953419e-20)
(-0.014092806 -0.012192137 1.7188501e-19)
(-0.0076320403 -0.0067396121 5.1495511e-19)
(0.00028791873 4.0884231e-05 -3.613701e-19)
(0.00928172 0.0075499921 -5.6468433e-19)
(0.020149215 0.016090601 -9.6442381e-20)
(0.033686659 0.025769697 -6.5938289e-19)
(0.050731674 0.03638324 1.5551365e-19)
(0.072290289 0.047276198 -4.1689104e-19)
(0.098016306 0.056226698 -4.3930986e-19)
(0.12557128 0.05966619 5.8065614e-19)
(0.1435853 0.051569285 -1.158742e-18)
(0.1411172 0.034967531 -3.7198064e-19)
(0.1208702 0.018690772 -1.4248431e-18)
(0.094644267 0.0078673222 3.1577988e-19)
(0.063728464 0.0021009305 -9.4241853e-20)
(0.049515142 0.00029800147 -6.4827213e-22)
(0.020550351 -3.6972112e-05 -3.2970039e-20)
(0.058725328 0.00028690282 -5.3721958e-20)
(0.032266761 8.3389469e-05 -3.8411082e-21)
(0.050538657 -0.0013456104 -6.9053085e-20)
(0.028545459 -0.0018087831 3.1371178e-19)
(0.014073394 -0.001707637 -9.2643587e-21)
(-0.0084444152 0.0024170202 -4.8164291e-19)
(-0.015339263 0.0055750389 4.5148517e-19)
(-0.01477648 0.0070213018 -8.1735599e-19)
(-0.012276969 0.00704694 5.152488e-19)
(-0.010618692 0.006963418 5.0278165e-19)
(-0.0090762278 0.0065322508 2.4061481e-18)
(-0.0075272457 0.005781115 -2.8104959e-18)
(-0.0058689945 0.0047118717 1.0992051e-18)
(-0.0041114128 0.0033849267 -4.3801486e-19)
(-0.0020594888 0.0016878484 3.6824256e-19)
(0.00019124286 -0.00024154435 3.5016134e-18)
(0.0025817911 -0.0022840527 3.2527636e-19)
(0.0048862982 -0.0041880475 -6.1305259e-19)
(0.0071164814 -0.0059648167 6.9647986e-20)
(0.0090171815 -0.0074176684 3.0253209e-18)
(0.01037853 -0.0083975043 -1.5384085e-18)
(0.011017457 -0.0087849507 -4.4492475e-19)
(0.010972366 -0.0086424556 2.8912858e-18)
(0.010564615 -0.0082416405 -1.3691499e-18)
(0.010092439 -0.0078195825 2.2245851e-18)
(0.0096848317 -0.0074682583 2.9444105e-18)
(0.0093565779 -0.0071931132 7.4684802e-19)
(0.009069301 -0.0069336048 -1.1261325e-18)
(0.008712187 -0.0065838064 -1.0387256e-18)
(0.0082168967 -0.0060987832 -2.628463e-18)
(0.0075684851 -0.0054810647 -3.5351887e-19)
(0.0068327126 -0.0047954413 -1.2417388e-18)
(0.0061258132 -0.0041374322 -2.8803954e-18)
(0.0056027343 -0.0036142353 -6.075963e-18)
(0.0053864994 -0.0032880151 -2.1207207e-18)
(0.0055875355 -0.003188394 -9.909588e-19)
(0.006195408 -0.0032645016 1.9792561e-18)
(0.0074053572 -0.0035650143 2.7725919e-18)
(0.0092401024 -0.0040091591 5.4775545e-19)
(0.01193627 -0.0045816538 2.4826135e-18)
(0.015111055 -0.0050173624 -1.7030823e-18)
(0.018913245 -0.0052572097 -2.0480051e-18)
(0.021829782 -0.0048611047 -2.0307314e-19)
(0.024237666 -0.0040169356 -7.1972509e-19)
(0.023606175 -0.00256278 7.1619034e-19)
(0.022707158 -0.0011081604 -6.2612003e-19)
(0.015697941 0.00017839206 3.7373596e-21)
(0.0059964771 0.00029550644 3.0321635e-23)
(-0.0025918629 0.00033847311 -3.1197559e-23)
(-0.014190129 0.00039071918 3.2012248e-23)
(-0.025722944 0.00040901134 3.3585089e-23)
(-0.038088698 0.00042330798 -5.9739141e-23)
(-0.050256137 0.0004195504 -2.1264476e-22)
(-0.062186935 0.00040750313 2.8104347e-22)
(-0.073483816 0.00038566924 -2.1585547e-22)
(-0.083999608 0.00035756797 2.8486569e-22)
(-0.093552233 0.00032402864 -6.375673e-23)
(-0.10203808 0.0002867081 -3.6216603e-23)
(-0.10937122 0.00024659199 -1.4178812e-22)
(-0.11550399 0.00020495637 2.041228e-22)
(-0.12042004 0.00016296438 -2.0060807e-22)
(-0.12413472 0.00012162176 9.2113104e-24)
(-0.12668594 8.1683731e-05 -2.670911e-23)
(-0.12812878 4.3736952e-05 1.5454945e-22)
(-0.12853279 7.9287384e-06 9.6304259e-23)
(-0.12795003 -2.614649e-05 -1.6151989e-22)
(-0.12642949 -5.813876e-05 -4.0197076e-23)
(-0.12404682 -8.7545046e-05 1.3321567e-22)
(-0.12087569 -0.00011444601 -1.2500547e-22)
(-0.11698469 -0.00013901001 1.4452718e-22)
(-0.11243588 -0.00016149726 -1.1709877e-22)
(-0.10728281 -0.00018220988 1.5553945e-23)
(-0.10156959 -0.00020150823 1.1734061e-23)
(-0.095328901 -0.00021981627 -2.5745339e-23)
(-0.088581767 -0.00023757618 3.7923513e-23)
(-0.08133551 -0.0002552552 -3.0841448e-23)