/*--------------------------------*- C++ -*----------------------------------*\
  =========                 |
  \\      /  F ield         | OpenFOAM: The Open Source CFD Toolbox
   \\    /   O peration     | Website:  https://openfoam.org
    \\  /    A nd           | Version:  7
     \\/     M anipulation  |
\*---------------------------------------------------------------------------*/
FoamFile
{
    version     2.0;
    format      ascii;
    class       volScalarField;
    location    "25000";
    object      omega;
}
// * * * * * * * * * * * * * * * * * * * * * * * * * * * * * * * * * * * * * //

dimensions      [0 0 -1 0 0 0 0];

internalField   nonuniform List<scalar> 
32000
(
4726.45
4726.98
4728.51
4745.01
4804.21
4944.47
5205.05
5571.51
5924.92
6212.12
6412.78
6521.31
6546.95
6496.36
6379.36
6202.76
5975.21
5718.58
5477.04
5257.48
5057.17
4874.4
4707.64
4554.87
4415.54
4287.71
4170.14
4051.56
3924.19
3788.98
3647.47
3501.19
3351.65
3200.34
3048.59
2899
2757.53
2630.02
2516.45
2416.68
2330.9
2259.27
2202.04
2159.63
2132.47
2121.04
2123.96
2125.12
2125.12
2125.12
2125.12
2125.12
2125.12
2125.12
2125.12
2125.12
2125.12
2125.12
2125.12
2125.12
2125.12
2125.12
2125.12
2125.12
2125.12
2125.12
2125.12
2125.12
2125.12
2125.12
2125.12
2125.12
2125.12
2125.12
2125.12
2125.12
2125.12
2125.12
2125.12
2125.12
2125.12
2125.12
2125.12
2125.12
2125.12
2125.12
2125.12
2125.12
2125.12
2125.12
2125.12
2125.12
2125.12
2125.12
2125.12
2125.12
2125.12
2125.12
2125.12
2125.12
2125.12
2125.12
2125.12
2125.12
2125.12
2125.12
2125.12
2125.12
2125.12
2125.12
2125.12
2125.12
2125.12
2125.12
2125.12
2125.12
2125.12
2125.12
2125.12
2125.12
2125.12
2125.12
2125.12
2125.12
2125.12
2125.12
2125.12
2125.12
2125.12
2125.12
2125.12
2125.12
2125.12
2125.12
2125.12
2125.12
2125.12
2125.12
2125.12
2125.12
2125.12
2125.12
2125.12
2125.12
2125.12
2125.12
2125.12
2125.12
2125.12
2125.12
2125.12
2125.12
2125.12
2123.96
2121.04
2132.48
2159.59
2202.08
2259.34
2330.73
2416.72
2516.55
2630.22
2757.49
2898.36
3048.65
3200.55
3351.84
3501.41
3647.68
3789.25
3924.51
4051.8
4170.19
4287.45
4413.11
4555.09
4707.88
4874.58
5057.28
5257.65
5477.13
5718.68
5975.29
6202.82
6379.41
6496.66
6547.08
6521.54
6413.31
6212.65
5924.15
5570.71
5205.4
4944.61
4804.12
4745.01
4728.51
4726.98
4726.45
787.237
787.276
787.483
790.179
799.967
823.212
866.47
927.427
986.311
1034.21
1067.72
1085.89
1090.26
1081.93
1062.53
1022.16
956.164
914.249
875.521
840.398
808.399
779.272
752.969
730.883
730.748
714.219
694.636
674.899
653.704
631.203
607.651
583.301
558.406
533.216
507.949
483.035
459.466
438.214
419.287
402.659
388.362
376.423
366.884
359.815
355.29
353.381
353.824
353.972
353.965
353.965
353.965
353.965
353.964
353.964
353.964
353.964
353.964
353.964
353.963
353.963
353.963
353.963
353.963
353.963
353.963
353.963
353.963
353.963
353.963
353.963
353.963
353.963
353.963
353.962
353.962
353.962
353.962
353.962
353.962
353.962
353.962
353.962
353.962
353.962
353.962
353.962
353.962
353.962
353.962
353.962
353.962
353.961
353.961
353.961
353.961
353.961
353.961
353.961
353.961
353.961
353.961
353.961
353.961
353.961
353.961
353.961
353.961
353.961
353.961
353.961
353.961
353.961
353.961
353.961
353.961
353.961
353.961
353.961
353.961
353.961
353.961
353.961
353.961
353.961
353.961
353.961
353.961
353.961
353.961
353.961
353.961
353.961
353.961
353.961
353.961
353.961
353.961
353.961
353.961
353.961
353.961
353.961
353.961
353.961
353.961
353.961
353.961
353.961
353.961
353.961
353.961
353.961
353.967
353.82
353.379
355.291
359.809
366.891
376.435
388.334
402.665
419.304
438.248
459.457
482.928
507.958
533.248
558.435
583.334
607.679
631.242
653.751
674.932
694.638
714.167
735.111
758.772
784.231
812.009
842.453
875.841
912.414
952.657
995.37
1033.2
1062.52
1081.96
1090.27
1085.92
1067.79
1034.28
986.174
927.303
866.563
823.279
799.993
790.217
787.52
787.311
787.255
253.798
253.802
253.875
254.752
257.898
265.355
279.248
298.87
317.857
333.32
344.151
350.037
351.47
348.809
342.589
330.883
312.769
299.138
286.476
274.982
264.505
254.961
246.308
238.786
236.141
230.289
223.98
217.619
210.791
203.541
195.951
188.103
180.079
171.959
163.814
155.782
148.18
141.324
135.218
129.854
125.241
121.39
118.312
116.032
114.573
113.957
114.093
114.129
114.125
114.124
114.124
114.124
114.123
114.123
114.123
114.122
114.122
114.122
114.122
114.122
114.122
114.122
114.122
114.121
114.121
114.121
114.121
114.121
114.121
114.121
114.121
114.121
114.121
114.121
114.12
114.12
114.12
114.12
114.12
114.12
114.12
114.12
114.12
114.12
114.119
114.119
114.119
114.119
114.119
114.119
114.119
114.119
114.119
114.118
114.118
114.118
114.118
114.118
114.118
114.118
114.118
114.118
114.118
114.117
114.117
114.117
114.117
114.117
114.117
114.117
114.117
114.117
114.117
114.117
114.117
114.117
114.117
114.117
114.117
114.116
114.116
114.116
114.116
114.116
114.116
114.116
114.116
114.116
114.116
114.116
114.116
114.116
114.116
114.116
114.116
114.116
114.116
114.116
114.116
114.116
114.116
114.116
114.116
114.117
114.117
114.117
114.117
114.117
114.117
114.117
114.117
114.117
114.121
114.085
113.955
114.573
116.031
118.315
121.394
125.233
129.856
135.223
141.334
148.175
155.745
163.814
171.966
180.083
188.107
195.953
203.545
210.798
217.622
223.972
230.269
237.025
244.657
252.869
261.829
271.648
282.417
294.213
307.19
320.953
333.13
342.562
348.806
351.458
350.03
344.162
333.338
317.821
298.865
279.351
265.46
257.978
254.826
253.944
253.863
253.828
113.742
113.744
113.795
114.206
115.619
118.935
125.12
133.886
142.388
149.323
154.186
156.834
157.487
156.305
153.53
148.6
141.252
135.119
129.402
124.21
119.476
115.162
111.242
107.774
105.961
103.212
100.386
97.537
94.4789
91.2319
87.8323
84.317
80.7224
77.0847
73.4352
69.8355
66.428
63.3543
60.6164
58.2111
56.1429
54.4159
53.0362
52.0145
51.3608
51.0866
51.1466
51.1584
51.1552
51.1548
51.1543
51.1539
51.1535
51.1532
51.1529
51.1527
51.1525
51.1524
51.1522
51.1521
51.152
51.152
51.1519
51.1518
51.1517
51.1516
51.1516
51.1515
51.1514
51.1513
51.1512
51.1511
51.151
51.1508
51.1507
51.1506
51.1504
51.1503
51.1501
51.15
51.1498
51.1497
51.1495
51.1493
51.1491
51.1489
51.1488
51.1486
51.1484
51.1482
51.148
51.1478
51.1476
51.1474
51.1472
51.147
51.1468
51.1467
51.1465
51.1463
51.1461
51.1459
51.1458
51.1456
51.1454
51.1453
51.1451
51.145
51.1449
51.1447
51.1446
51.1445
51.1443
51.1442
51.1441
51.144
51.1439
51.1438
51.1437
51.1437
51.1436
51.1435
51.1435
51.1434
51.1433
51.1433
51.1432
51.1432
51.1432
51.1432
51.1431
51.1431
51.1431
51.1431
51.1431
51.1431
51.1431
51.1431
51.1431
51.1432
51.1432
51.1432
51.1433
51.1433
51.1434
51.1435
51.1436
51.1437
51.1439
51.1441
51.1443
51.1445
51.1468
51.1361
51.0828
51.3607
52.0141
53.0382
54.4182
56.1391
58.2118
60.6179
63.3571
66.4236
69.8159
73.4312
77.0823
80.7179
84.3116
87.825
91.225
94.4725
97.5282
100.373
103.195
106.225
109.647
113.328
117.345
121.747
126.574
131.862
137.677
143.839
149.288
153.506
156.295
157.475
156.829
154.195
149.347
142.409
133.956
125.283
119.108
115.761
114.325
113.897
113.83
113.783
61.2974
61.3009
61.3513
61.5952
62.3616
64.1257
67.4217
72.1181
76.6903
80.4286
83.0542
84.4871
84.8451
84.2138
82.7245
80.1715
76.4639
73.1523
70.0586
67.2475
64.6842
62.3471
60.2215
58.3217
57.1421
55.6205
54.0978
52.5636
50.9171
49.1686
47.3378
45.4444
43.5082
41.5484
39.5823
37.6427
35.8061
34.149
32.673
31.3761
30.261
29.33
28.5864
28.0362
27.6846
27.539
27.5733
27.5775
27.5748
27.5746
27.574
27.5737
27.5733
27.573
27.5728
27.5726
27.5725
27.5724
27.5723
27.5723
27.5722
27.5722
27.5721
27.5721
27.572
27.572
27.5719
27.5718
27.5717
27.5716
27.5715
27.5714
27.5713
27.5711
27.5709
27.5708
27.5706
27.5704
27.5702
27.5699
27.5697
27.5694
27.5692
27.5689
27.5686
27.5684
27.5681
27.5678
27.5675
27.5672
27.5669
27.5666
27.5663
27.566
27.5657
27.5654
27.5651
27.5648
27.5645
27.5642
27.5639
27.5637
27.5634
27.5631
27.5628
27.5626
27.5623
27.5621
27.5619
27.5616
27.5614
27.5612
27.561
27.5608
27.5606
27.5605
27.5603
27.5601
27.56
27.5599
27.5597
27.5596
27.5595
27.5594
27.5593
27.5592
27.5591
27.559
27.559
27.5589
27.5589
27.5588
27.5588
27.5588
27.5588
27.5588
27.5588
27.5588
27.5588
27.5588
27.5589
27.5589
27.559
27.559
27.5591
27.5592
27.5594
27.5595
27.5597
27.56
27.5602
27.5605
27.5622
27.5595
27.5337
27.6839
28.0359
28.5878
29.3315
30.2589
31.3758
32.6724
34.1485
35.8009
37.6285
39.5754
41.5411
43.4984
45.4331
47.3245
49.1548
50.9031
52.5483
54.0806
55.6022
57.2362
59.0812
61.0658
63.2313
65.6043
68.2062
71.0559
74.189
77.506
80.4372
82.7064
84.2069
84.8416
84.4942
83.0791
80.4793
76.7656
72.2611
67.663
64.3841
62.578
61.7704
61.4946
61.4158
61.3503
37.0415
37.0458
37.1006
37.2716
37.7399
38.7822
40.7365
43.5463
46.2973
48.555
50.1442
51.0134
51.2337
50.8563
49.9607
48.4607
46.3218
44.32
42.4463
40.7432
39.1901
37.7738
36.4848
35.3252
34.533
33.5981
32.6786
31.7526
30.7589
29.7036
28.5984
27.4552
26.286
25.1026
23.9151
22.7436
21.634
20.6326
19.7404
18.9566
18.2826
17.7201
17.2709
16.9392
16.7275
16.6422
16.6662
16.6678
16.6654
16.6653
16.6647
16.6645
16.6642
16.664
16.6639
16.6638
16.6637
16.6637
16.6637
16.6638
16.6638
16.6638
16.6638
16.6638
16.6638
16.6637
16.6637
16.6636
16.6635
16.6634
16.6632
16.6631
16.6629
16.6627
16.6625
16.6622
16.662
16.6617
16.6614
16.6611
16.6607
16.6604
16.66
16.6597
16.6593
16.6589
16.6584
16.658
16.6576
16.6572
16.6567
16.6563
16.6559
16.6554
16.655
16.6545
16.6541
16.6537
16.6532
16.6528
16.6524
16.652
16.6516
16.6512
16.6508
16.6504
16.65
16.6497
16.6493
16.649
16.6487
16.6484
16.6481
16.6478
16.6475
16.6473
16.647
16.6468
16.6466
16.6463
16.6461
16.646
16.6458
16.6456
16.6455
16.6453
16.6452
16.6451
16.645
16.6449
16.6448
16.6448
16.6447
16.6447
16.6447
16.6446
16.6446
16.6446
16.6447
16.6447
16.6447
16.6448
16.6449
16.645
16.6451
16.6452
16.6454
16.6456
16.6459
16.6462
16.6465
16.6469
16.6482
16.6487
16.6349
16.7259
16.9384
17.2716
17.7207
18.2807
18.9552
19.7382
20.6295
21.6272
22.7305
23.9053
25.0912
26.2719
27.439
28.58
29.6841
30.7389
31.7318
32.6573
33.5773
34.5656
35.681
36.8808
38.1898
39.6241
41.1966
42.9185
44.8106
46.8118
48.5802
49.9503
50.8576
51.2436
51.0392
50.1938
48.641
46.4278
43.7612
41.0626
39.1345
38.0418
37.5144
37.2935
37.1943
37.1077
24.1825
24.1856
24.2456
24.3812
24.6911
25.3455
26.5817
28.3858
30.1676
31.6384
32.6767
33.2462
33.3928
33.1495
32.5683
31.6102
30.2623
28.9571
27.7335
26.6209
25.6063
24.6809
23.8383
23.0769
22.5244
21.9078
21.3085
20.7052
20.0579
19.3704
18.6502
17.9052
17.143
16.3714
15.5972
14.8333
14.1096
13.4563
12.8741
12.3627
11.9229
11.5561
11.2633
11.0477
10.9107
10.858
10.8776
10.8784
10.8763
10.8764
10.8759
10.8758
10.8755
10.8755
10.8754
10.8755
10.8755
10.8756
10.8757
10.8758
10.8759
10.8759
10.876
10.876
10.876
10.876
10.8759
10.8759
10.8757
10.8756
10.8754
10.8752
10.875
10.8747
10.8744
10.8741
10.8737
10.8733
10.8729
10.8725
10.872
10.8715
10.871
10.8705
10.87
10.8694
10.8689
10.8683
10.8677
10.8671
10.8665
10.8659
10.8653
10.8647
10.8641
10.8635
10.8629
10.8623
10.8617
10.8611
10.8605
10.86
10.8594
10.8589
10.8583
10.8578
10.8573
10.8568
10.8564
10.8559
10.8555
10.855
10.8546
10.8542
10.8538
10.8535
10.8532
10.8528
10.8525
10.8522
10.852
10.8517
10.8515
10.8513
10.8511
10.8509
10.8507
10.8506
10.8504
10.8503
10.8502
10.8501
10.85
10.85
10.8499
10.8499
10.8499
10.8499
10.8499
10.85
10.85
10.8501
10.8502
10.8503
10.8505
10.8507
10.8509
10.8512
10.8515
10.8519
10.8523
10.8528
10.8539
10.8558
10.848
10.9076
11.046
11.263
11.5555
11.9204
12.3599
12.87
13.4507
14.1007
14.8192
15.584
16.3558
17.1243
17.8839
18.6266
19.3454
20.0322
20.6791
21.2829
21.8838
22.5296
23.2579
24.0413
24.8961
25.8324
26.8586
27.9822
29.2159
30.5194
31.6719
32.5665
33.1613
33.4181
33.2929
32.7535
31.7609
30.3495
28.6653
26.9866
25.7894
25.0826
24.7003
24.4971
24.3735
24.2637
16.6968
16.6957
16.7599
16.8773
17.0944
17.5168
18.327
19.5395
20.753
21.7633
22.4797
22.8737
22.9769
22.8116
22.4136
21.7647
20.8611
19.9632
19.1201
18.3533
17.654
17.0162
16.4352
15.9087
15.5104
15.0825
14.6702
14.2553
13.8102
13.3373
12.8418
12.3291
11.8044
11.2732
10.7402
10.2142
9.71585
9.26576
8.86465
8.51229
8.20931
7.95679
7.75539
7.60784
7.51457
7.48156
7.49963
7.50035
7.49846
7.49868
7.4983
7.49834
7.49823
7.49831
7.49837
7.49852
7.49866
7.49883
7.49898
7.49914
7.49927
7.49938
7.49945
7.49949
7.4995
7.49946
7.49938
7.49926
7.4991
7.4989
7.49865
7.49836
7.49803
7.49766
7.49724
7.49679
7.49631
7.49578
7.49523
7.49464
7.49402
7.49338
7.4927
7.49201
7.4913
7.49057
7.48982
7.48906
7.48829
7.48751
7.48672
7.48593
7.48514
7.48434
7.48355
7.48277
7.48198
7.48121
7.48044
7.47968
7.47894
7.47821
7.47749
7.47678
7.47609
7.47542
7.47477
7.47414
7.47353
7.47294
7.47237
7.47182
7.47129
7.47079
7.47031
7.46986
7.46942
7.46901
7.46863
7.46826
7.46792
7.4676
7.46731
7.46703
7.46678
7.46655
7.46634
7.46615
7.46598
7.46584
7.46571
7.4656
7.46552
7.46545
7.46541
7.46538
7.46538
7.46539
7.46543
7.46549
7.46557
7.46567
7.46581
7.46597
7.46617
7.4664
7.4667
7.46702
7.46745
7.4679
7.46846
7.46903
7.47012
7.47268
7.46824
7.50933
7.60438
7.75343
7.95445
8.20523
8.50735
8.85802
9.25721
9.70398
10.1978
10.723
11.253
11.7807
12.3023
12.8124
13.3063
13.7784
14.2235
14.6397
15.0546
15.5007
16.0033
16.5439
17.1337
17.7796
18.4873
19.2619
20.1116
21.0081
21.8019
22.4204
22.8342
23.0174
22.9404
22.5817
21.918
20.9766
19.8684
18.7934
18.0384
17.5705
17.2767
17.0779
16.929
16.7949
12.0387
12.03
12.0963
12.204
12.3629
12.6344
13.1705
14.0079
14.8632
15.5847
16.0993
16.3833
16.4591
16.3423
16.0586
15.5999
14.966
14.3233
13.7188
13.1689
12.6675
12.2101
11.7934
11.4149
11.1199
10.8116
10.5163
10.2192
9.90058
9.56192
9.20696
8.83955
8.46348
8.08261
7.70038
7.32328
6.96593
6.64305
6.35525
6.10245
5.88511
5.70419
5.56011
5.45529
5.38973
5.36963
5.38748
5.38846
5.38679
5.3872
5.38694
5.3871
5.38711
5.3873
5.38745
5.38767
5.38788
5.38811
5.38831
5.38849
5.38864
5.38875
5.38881
5.38883
5.38879
5.38871
5.38856
5.38837
5.38812
5.38781
5.38745
5.38704
5.38658
5.38607
5.38551
5.3849
5.38425
5.38355
5.38282
5.38204
5.38124
5.3804
5.37953
5.37864
5.37772
5.37678
5.37583
5.37486
5.37388
5.37289
5.3719
5.3709
5.36991
5.36891
5.36792
5.36694
5.36596
5.36499
5.36404
5.3631
5.36217
5.36127
5.36038
5.35951
5.35866
5.35784
5.35703
5.35626
5.35551
5.35479
5.35409
5.35342
5.35278
5.35217
5.35159
5.35104
5.35052
5.35003
5.34956
5.34913
5.34872
5.34834
5.34799
5.34767
5.34737
5.3471
5.34686
5.34664
5.34645
5.34629
5.34615
5.34604
5.34595
5.34589
5.34585
5.34584
5.34585
5.34588
5.34595
5.34604
5.34615
5.3463
5.34648
5.34669
5.34696
5.34726
5.34764
5.34804
5.34857
5.34914
5.34983
5.35054
5.35163
5.35456
5.35204
5.38153
5.44938
5.55581
5.69946
5.87872
6.09474
6.34547
6.63091
6.95035
7.30329
7.67847
8.05698
8.4339
8.80658
9.17112
9.52425
9.86211
10.1811
10.48
10.7788
11.1001
11.4618
11.8507
12.275
12.7395
13.2482
13.8047
14.4143
15.0565
15.6264
16.0727
16.3742
16.5121
16.4658
16.2203
15.7619
15.1132
14.3638
13.6707
13.2076
12.9079
12.6812
12.4856
12.314
12.1558
8.99649
8.97591
9.04131
9.14404
9.26531
9.43211
9.77895
10.3634
10.98
11.5101
11.8914
12.1027
12.1603
12.0753
11.8669
11.5318
11.0716
10.5973
10.1506
9.74405
9.37337
9.03528
8.72728
8.44708
8.22362
7.99484
7.77681
7.55746
7.32219
7.07204
6.80973
6.53809
6.25994
5.97816
5.69535
5.41641
5.15207
4.91311
4.70005
4.51294
4.35213
4.21852
4.11236
4.03594
3.98895
3.97796
3.99629
3.99764
3.99618
3.99675
3.99659
3.99685
3.99693
3.99718
3.99738
3.99764
3.99786
3.99809
3.99828
3.99844
3.99855
3.9986
3.9986
3.99854
3.99841
3.99821
3.99795
3.99763
3.99724
3.99678
3.99627
3.99569
3.99505
3.99435
3.9936
3.9928
3.99194
3.99104
3.99009
3.9891
3.98808
3.98702
3.98593
3.98481
3.98367
3.98251
3.98133
3.98014
3.97894
3.97773
3.97652
3.97531
3.9741
3.9729
3.9717
3.97052
3.96935
3.96819
3.96705
3.96593
3.96483
3.96375
3.9627
3.96167
3.96067
3.9597
3.95876
3.95785
3.95697
3.95613
3.95532
3.95454
3.9538
3.9531
3.95243
3.95179
3.95119
3.95063
3.9501
3.94961
3.94915
3.94872
3.94833
3.94797
3.94765
3.94735
3.94709
3.94686
3.94666
3.94649
3.94635
3.94625
3.94617
3.94612
3.94611
3.94612
3.94616
3.94623
3.94634
3.94647
3.94664
3.94684
3.94709
3.94737
3.94771
3.94809
3.94857
3.94908
3.94973
3.95042
3.95127
3.95213
3.95329
3.95645
3.95509
3.97686
4.02669
4.10491
4.21061
4.34258
4.50168
4.68636
4.89663
5.13194
5.39182
5.66788
5.94636
6.22374
6.49808
6.76655
7.02684
7.27615
7.51198
7.73382
7.95613
8.1954
8.46424
8.75341
9.06876
9.4138
9.7915
10.2044
10.6558
11.1303
11.5526
11.8856
12.113
12.2208
12.1941
12.0217
11.6959
11.2361
10.7182
10.277
10.0192
9.85194
9.68777
9.50242
9.31401
9.13367
6.93764
6.90122
6.96215
7.06247
7.15991
7.2506
7.4585
7.86281
8.31259
8.71036
8.99995
9.16115
9.20619
9.14298
8.98619
8.735
8.39184
8.03337
7.69528
7.38746
7.10684
6.85091
6.6178
6.40548
6.23313
6.05947
5.89456
5.72863
5.55063
5.36128
5.16259
4.95672
4.74581
4.53206
4.31753
4.10602
3.9056
3.72433
3.56265
3.42073
3.29882
3.19781
3.11784
3.06115
3.02728
3.0231
3.04223
3.04395
3.04266
3.04334
3.04322
3.04352
3.04359
3.04383
3.044
3.04422
3.04439
3.04454
3.04464
3.0447
3.04469
3.04463
3.04448
3.04427
3.04398
3.04362
3.04317
3.04266
3.04207
3.04141
3.04068
3.03989
3.03903
3.0381
3.03712
3.03608
3.03499
3.03384
3.03266
3.03143
3.03016
3.02886
3.02754
3.02618
3.0248
3.02341
3.022
3.02059
3.01916
3.01774
3.01632
3.0149
3.01349
3.01209
3.0107
3.00933
3.00798
3.00664
3.00533
3.00405
3.00279
3.00156
3.00037
2.9992
2.99807
2.99697
2.99591
2.99489
2.99391
2.99297
2.99206
2.9912
2.99038
2.9896
2.98886
2.98817
2.98751
2.9869
2.98632
2.98579
2.9853
2.98484
2.98443
2.98405
2.98372
2.98341
2.98315
2.98292
2.98273
2.98257
2.98245
2.98237
2.98232
2.9823
2.98232
2.98238
2.98247
2.98259
2.98274
2.98294
2.98317
2.98344
2.98376
2.98412
2.98456
2.98503
2.98562
2.98625
2.98704
2.98787
2.98888
2.98991
2.99119
2.99451
2.99386
3.01027
3.04764
3.10638
3.1859
3.28525
3.40511
3.54427
3.70275
3.88009
4.07587
4.28367
4.49329
4.70214
4.9088
5.11118
5.30761
5.49606
5.67479
5.84369
6.0136
6.19661
6.40181
6.62254
6.86318
7.12629
7.41407
7.72831
8.07106
8.4302
8.7507
9.00529
9.18113
9.26713
9.25199
9.12698
8.88772
8.55186
8.18538
7.91324
7.80511
7.7501
7.65228
7.48912
7.29334
7.09522
5.50676
5.45107
5.50369
5.60298
5.68726
5.72177
5.82192
6.09105
6.41923
6.72224
6.94657
7.07218
7.10823
7.06041
6.94018
6.74803
6.48666
6.21053
5.9497
5.71214
5.49561
5.29818
5.11839
4.95452
4.81962
4.68539
4.55822
4.43023
4.2929
4.14669
3.99316
3.83396
3.67074
3.50526
3.33918
3.17555
3.02053
2.88024
2.75508
2.6453
2.55108
2.47333
2.41212
2.36968
2.34549
2.34668
2.36671
2.3687
2.3675
2.36819
2.36802
2.36824
2.36822
2.36835
2.36838
2.36845
2.36846
2.36844
2.36836
2.36822
2.36801
2.36773
2.36737
2.36693
2.3664
2.3658
2.36511
2.36434
2.3635
2.36258
2.3616
2.36054
2.35941
2.35823
2.35698
2.35568
2.35433
2.35293
2.35149
2.35001
2.34849
2.34695
2.34539
2.3438
2.34219
2.34058
2.33896
2.33733
2.3357
2.33408
2.33247
2.33087
2.32928
2.32771
2.32616
2.32463
2.32313
2.32165
2.32021
2.31879
2.31741
2.31607
2.31476
2.31349
2.31226
2.31108
2.30993
2.30883
2.30778
2.30677
2.3058
2.30489
2.30402
2.30319
2.30242
2.30169
2.301
2.30037
2.29978
2.29923
2.29873
2.29827
2.29786
2.29749
2.29716
2.29687
2.29662
2.29641
2.29625
2.29612
2.29603
2.29598
2.29597
2.296
2.29607
2.29618
2.29632
2.2965
2.29672
2.29698
2.29729
2.29763
2.29804
2.29849
2.29902
2.2996
2.3003
2.30105
2.30198
2.30297
2.30415
2.30536
2.30677
2.31023
2.31001
2.32255
2.35099
2.39582
2.45665
2.53274
2.62462
2.73133
2.8529
2.98895
3.13906
3.29825
3.45883
3.6189
3.7774
3.93275
4.08374
4.2289
4.36705
4.49835
4.63106
4.77415
4.93419
5.10635
5.29398
5.49892
5.72282
5.96694
6.23231
6.50909
6.75661
6.95456
7.09243
7.16105
7.15146
7.05629
6.87334
6.61893
6.35152
6.19207
6.19306
6.23534
6.20964
6.08315
5.89255
5.68348
4.4908
4.41372
4.45435
4.55319
4.63356
4.62779
4.64081
4.80303
5.03892
5.27189
5.44856
5.54821
5.57769
5.54107
5.44746
5.29803
5.09551
4.87952
4.67517
4.48897
4.31931
4.16467
4.02389
3.89554
3.78867
3.68338
3.58379
3.48348
3.3758
3.26105
3.14043
3.01522
2.88676
2.75645
2.62568
2.49697
2.37509
2.26473
2.16625
2.07996
2.00603
1.94538
1.89804
1.86625
1.8495
1.85507
1.87592
1.878
1.87679
1.87734
1.87699
1.87699
1.87674
1.87661
1.87638
1.87618
1.87591
1.87561
1.87524
1.87481
1.8743
1.87372
1.87305
1.8723
1.87147
1.87056
1.86957
1.8685
1.86736
1.86615
1.86486
1.86352
1.86211
1.86064
1.85912
1.85755
1.85594
1.85429
1.8526
1.85088
1.84914
1.84738
1.8456
1.8438
1.84201
1.8402
1.8384
1.8366
1.83482
1.83304
1.83128
1.82954
1.82783
1.82614
1.82447
1.82284
1.82124
1.81967
1.81814
1.81665
1.8152
1.81379
1.81242
1.8111
1.80982
1.80859
1.80741
1.80627
1.80519
1.80416
1.80317
1.80224
1.80136
1.80053
1.79975
1.79902
1.79834
1.79771
1.79713
1.7966
1.79612
1.79568
1.79529
1.79494
1.79464
1.79438
1.79417
1.794
1.79387
1.79378
1.79374
1.79374
1.79378
1.79386
1.79398
1.79414
1.79434
1.79459
1.79487
1.7952
1.79558
1.796
1.79649
1.79702
1.79765
1.79832
1.79913
1.8
1.80106
1.80219
1.80353
1.80491
1.80647
1.81002
1.81006
1.81972
1.84159
1.87619
1.92331
1.98234
2.05372
2.13667
2.23121
2.33701
2.45369
2.57729
2.70199
2.82636
2.94961
3.07054
3.18828
3.30176
3.41021
3.51399
3.61949
3.7334
3.86042
3.99707
4.14591
4.3083
4.48542
4.67813
4.88669
5.10274
5.29603
5.4513
5.55971
5.61336
5.6048
5.52755
5.3808
5.18007
4.97729
4.89057
4.9675
5.0915
5.14122
5.06547
4.89444
4.68354
3.75461
3.65595
3.68162
3.77986
3.8647
3.83323
3.77419
3.84738
4.01019
4.18987
4.33092
4.41126
4.43587
4.40758
4.3338
4.21602
4.05693
3.88585
3.72373
3.57593
3.44134
3.3187
3.20713
3.10541
3.01991
2.93635
2.85736
2.77771
2.69213
2.60082
2.50472
2.40484
2.30226
2.19814
2.0937
1.99104
1.89389
1.80588
1.72735
1.65866
1.59998
1.55222
1.51543
1.49187
1.48106
1.4903
1.51173
1.51365
1.51226
1.51249
1.51177
1.51139
1.51074
1.5102
1.50957
1.50897
1.5083
1.5076
1.50684
1.50602
1.50513
1.50417
1.50314
1.50203
1.50085
1.49959
1.49826
1.49687
1.4954
1.49388
1.4923
1.49067
1.48898
1.48725
1.48548
1.48367
1.48183
1.47996
1.47807
1.47616
1.47424
1.47231
1.47037
1.46843
1.4665
1.46457
1.46266
1.46076
1.45888
1.45702
1.45518
1.45338
1.4516
1.44986
1.44815
1.44648
1.44485
1.44326
1.44172
1.44021
1.43875
1.43734
1.43597
1.43465
1.43338
1.43217
1.431
1.42988
1.42882
1.42781
1.42686
1.42595
1.4251
1.4243
1.42355
1.42286
1.42222
1.42162
1.42108
1.42059
1.42014
1.41974
1.41939
1.41909
1.41883
1.41861
1.41844
1.41831
1.41823
1.41819
1.41819
1.41824
1.41833
1.41846
1.41863
1.41884
1.4191
1.41939
1.41973
1.42012
1.42055
1.42104
1.42159
1.42219
1.42288
1.42364
1.42453
1.42549
1.42665
1.42788
1.42936
1.43087
1.43255
1.43616
1.43632
1.44378
1.46071
1.48763
1.52447
1.57073
1.62676
1.6919
1.7662
1.84935
1.941
2.03796
2.1358
2.23346
2.33031
2.42547
2.51829
2.60801
2.69415
2.77725
2.86228
2.95424
3.05644
3.16638
3.28607
3.41642
3.55832
3.71227
3.87795
4.04796
4.19963
4.32156
4.40613
4.44633
4.43584
4.36887
4.24567
4.0813
3.92129
3.87879
4.0026
4.18929
4.31189
4.29749
4.16036
3.95826
3.20841
3.09032
3.0992
3.1959
3.29254
3.24988
3.13162
3.12711
3.22931
3.36719
3.4811
3.54685
3.5678
3.54586
3.48716
3.39332
3.26693
3.13005
3.0001
2.88159
2.77373
2.6755
2.58622
2.50484
2.43592
2.36897
2.30567
2.24172
2.17293
2.09942
2.02191
1.94125
1.8583
1.77406
1.68961
1.60675
1.52843
1.45745
1.39414
1.33891
1.29194
1.25416
1.22561
1.20859
1.20267
1.21498
1.23664
1.23806
1.23629
1.23597
1.2347
1.23374
1.23253
1.23144
1.23028
1.22915
1.22798
1.2268
1.22557
1.2243
1.22298
1.22161
1.22018
1.21869
1.21714
1.21554
1.21388
1.21217
1.21042
1.20862
1.20679
1.20491
1.203
1.20107
1.19911
1.19712
1.19513
1.19312
1.1911
1.18908
1.18707
1.18505
1.18305
1.18105
1.17907
1.17711
1.17518
1.17326
1.17138
1.16953
1.16771
1.16592
1.16417
1.16247
1.1608
1.15917
1.15759
1.15605
1.15456
1.15312
1.15172
1.15037
1.14907
1.14782
1.14662
1.14547
1.14437
1.14332
1.14233
1.14139
1.1405
1.13966
1.13888
1.13814
1.13746
1.13683
1.13624
1.13571
1.13522
1.13479
1.13439
1.13405
1.13375
1.13349
1.13328
1.13311
1.13298
1.1329
1.13286
1.13286
1.1329
1.13298
1.1331
1.13327
1.13347
1.13372
1.134
1.13433
1.1347
1.13512
1.13558
1.1361
1.13668
1.13731
1.13804
1.13883
1.13976
1.14076
1.14198
1.14326
1.1448
1.14639
1.14814
1.15173
1.15192
1.15768
1.17083
1.19191
1.22093
1.25745
1.30178
1.35336
1.41224
1.47813
1.5507
1.62735
1.70474
1.78203
1.85876
1.93424
2.00803
2.07957
2.14859
2.21575
2.28497
2.35998
2.44304
2.53236
2.62951
2.73513
2.84982
2.97378
3.10628
3.24053
3.35951
3.4547
3.51956
3.54778
3.53401
3.47323
3.36657
3.22871
3.09857
3.08058
3.22601
3.45274
3.63817
3.68967
3.59843
3.41614
2.79085
2.65773
2.64951
2.74284
2.8568
2.81765
2.65294
2.57822
2.62753
2.7315
2.82433
2.87891
2.89711
2.88012
2.83308
2.75766
2.65635
2.54594
2.44094
2.34512
2.25798
2.17869
2.1067
2.04113
1.98524
1.9312
1.88003
1.82821
1.77237
1.71257
1.64939
1.58352
1.5157
1.44678
1.37777
1.31022
1.24647
1.18868
1.1372
1.09247
1.05469
1.02479
1.00285
0.991158
0.989354
1.00418
1.02561
1.02615
1.02375
1.02265
1.02062
1.01892
1.01701
1.01525
1.01346
1.01174
1.01001
1.00831
1.00659
1.00486
1.00312
1.00134
0.999543
0.997713
0.995851
0.99396
0.992042
0.990097
0.98813
0.986143
0.984138
0.982118
0.980086
0.978045
0.975999
0.973953
0.97191
0.969871
0.967841
0.965823
0.963819
0.961833
0.959867
0.957924
0.956008
0.95412
0.952263
0.950439
0.94865
0.946899
0.945186
0.943513
0.941882
0.940292
0.938747
0.937244
0.935787
0.934375
0.933008
0.931688
0.930415
0.929189
0.92801
0.926879
0.925797
0.924763
0.923778
0.922842
0.921955
0.921116
0.920327
0.919585
0.918891
0.918245
0.917645
0.917091
0.916583
0.91612
0.915701
0.915326
0.914993
0.914702
0.914452
0.914243
0.914073
0.913942
0.91385
0.913797
0.913782
0.913805
0.913866
0.913965
0.914103
0.914277
0.91449
0.914739
0.915028
0.915354
0.915723
0.916131
0.91659
0.917092
0.917661
0.918279
0.918991
0.919763
0.920675
0.92166
0.922851
0.924124
0.925645
0.927222
0.928974
0.932436
0.932598
0.937021
0.947267
0.963859
0.986856
1.01589
1.0512
1.09233
1.1393
1.19186
1.24969
1.31068
1.37227
1.43384
1.49501
1.55527
1.6143
1.6717
1.72736
1.782
1.83871
1.90031
1.96824
2.04125
2.12058
2.20663
2.2998
2.40007
2.50638
2.61241
2.70534
2.7789
2.82752
2.84561
2.82872
2.77274
2.67952
2.56321
2.45591
2.44981
2.59664
2.8394
3.07061
3.18493
3.14715
2.99466
2.45962
2.31766
2.29366
2.38115
2.51525
2.49383
2.29664
2.15744
2.15816
2.23343
2.30955
2.35548
2.37162
2.35856
2.3207
2.25969
2.17791
2.0883
2.00291
1.92494
1.85411
1.78972
1.73135
1.67824
1.63271
1.58884
1.54719
1.50484
1.45912
1.41003
1.35802
1.30369
1.24767
1.19074
1.13381
1.07826
1.02595
0.978545
0.936411
0.900023
0.869584
0.84605
0.829528
0.822274
0.82397
0.840741
0.86137
0.860633
0.857372
0.855263
0.852322
0.849757
0.847056
0.844584
0.842137
0.839827
0.837563
0.835374
0.833219
0.831102
0.829003
0.826921
0.824846
0.822776
0.820709
0.818645
0.816582
0.814522
0.812467
0.810416
0.808372
0.806335
0.804308
0.802293
0.800292
0.798308
0.796343
0.794398
0.792474
0.790575
0.788701
0.786855
0.785038
0.783253
0.7815
0.779782
0.7781
0.776455
0.774848
0.773281
0.771755
0.770269
0.768824
0.767422
0.766061
0.764743
0.763468
0.762235
0.761044
0.759897
0.758792
0.75773
0.756712
0.755736
0.754804
0.753915
0.75307
0.752267
0.751508
0.750792
0.750118
0.749486
0.748896
0.748346
0.747838
0.747369
0.74694
0.746549
0.746196
0.745881
0.745603
0.745361
0.745153
0.744981
0.744842
0.744738
0.744666
0.744627
0.744622
0.74465
0.744711
0.744804
0.744931
0.74509
0.745282
0.745507
0.745766
0.746058
0.746388
0.746753
0.747165
0.747614
0.748125
0.748682
0.749326
0.750027
0.750859
0.751762
0.75286
0.754042
0.755461
0.756941
0.758596
0.761831
0.761915
0.765289
0.773304
0.786439
0.804786
0.828018
0.856335
0.889335
0.927046
0.969231
1.01558
1.06438
1.11368
1.16301
1.21206
1.26043
1.3079
1.3542
1.3993
1.44395
1.49061
1.54138
1.59713
1.65699
1.72196
1.79224
1.86809
1.94932
2.03471
2.11832
2.19047
2.24669
2.2823
2.29248
2.2737
2.22277
2.14205
2.04477
1.95644
1.95505
2.08958
2.32676
2.58228
2.74884
2.7663
2.65122
2.18588
2.04217
2.00526
2.08426
2.23808
2.24694
2.0328
1.83488
1.78883
1.83857
1.90106
1.94022
1.95482
1.94496
1.91443
1.86485
1.79851
1.72546
1.65568
1.59194
1.5341
1.4816
1.43409
1.39091
1.35372
1.31795
1.28384
1.249
1.21125
1.1706
1.12741
1.08217
1.03547
0.988004
0.940655
0.894645
0.851436
0.812324
0.777686
0.748026
0.723569
0.70527
0.693268
0.689749
0.694394
0.712484
0.731714
0.729321
0.725
0.721732
0.7178
0.714345
0.710876
0.707731
0.704705
0.701894
0.6992
0.696646
0.694182
0.691808
0.689499
0.687251
0.685049
0.682889
0.680766
0.678677
0.676619
0.67459
0.672591
0.670618
0.668673
0.666755
0.664864
0.663001
0.661168
0.659364
0.65759
0.655844
0.65413
0.652447
0.650796
0.649177
0.647593
0.646043
0.644528
0.643049
0.641606
0.640201
0.638833
0.637503
0.63621
0.634956
0.63374
0.632562
0.631422
0.630319
0.629254
0.628226
0.627235
0.626281
0.625364
0.624483
0.623639
0.622831
0.62206
0.621325
0.620626
0.619963
0.619335
0.618743
0.618187
0.617665
0.617177
0.616722
0.616301
0.615913
0.615556
0.615232
0.614938
0.614675
0.614442
0.614238
0.614063
0.613916
0.613797
0.613704
0.613639
0.613601
0.61359
0.613605
0.613648
0.613718
0.613814
0.613938
0.614088
0.614266
0.614472
0.614705
0.614971
0.615265
0.615599
0.615966
0.616386
0.616847
0.617384
0.617972
0.618679
0.619451
0.620401
0.621431
0.622677
0.623987
0.625468
0.628385
0.628366
0.63092
0.637227
0.647702
0.662452
0.681183
0.704053
0.730716
0.761193
0.795261
0.832639
0.871913
0.911615
0.951369
0.990931
1.02999
1.06837
1.1059
1.14261
1.17923
1.21772
1.25966
1.3055
1.35464
1.40789
1.46534
1.52712
1.59293
1.66151
1.72733
1.7831
1.8257
1.85134
1.85597
1.8369
1.79182
1.72327
1.64321
1.5712
1.57106
1.68633
1.90214
2.16025
2.36282
2.43117
2.35771
1.95048
1.8121
1.76626
1.83467
2.00457
2.05336
1.83882
1.58941
1.49683
1.52247
1.57341
1.60717
1.62062
1.6134
1.58882
1.54844
1.49447
1.43475
1.37756
1.32529
1.27793
1.23502
1.19626
1.1611
1.13069
1.10142
1.07334
1.04447
1.01308
0.979126
0.942933
0.904933
0.865648
0.825758
0.786093
0.747752
0.711877
0.679471
0.650934
0.626788
0.607279
0.593347
0.585158
0.58478
0.591836
0.610571
0.627809
0.623472
0.617992
0.613528
0.608652
0.604399
0.600289
0.596623
0.593182
0.590044
0.587099
0.584358
0.581765
0.579312
0.576968
0.574723
0.57256