/*--------------------------------*- C++ -*----------------------------------*\
  =========                 |
  \\      /  F ield         | OpenFOAM: The Open Source CFD Toolbox
   \\    /   O peration     | Website:  https://openfoam.org
    \\  /    A nd           | Version:  7
     \\/     M anipulation  |
\*---------------------------------------------------------------------------*/
FoamFile
{
    version     2.0;
    format      ascii;
    class       volScalarField;
    location    "25000";
    object      p;
}
// * * * * * * * * * * * * * * * * * * * * * * * * * * * * * * * * * * * * * //

dimensions      [0 2 -2 0 0 0 0];

internalField   nonuniform List<scalar> 
32000
(
-2.34494e-11
4.10864e-06
8.02678e-06
1.2773e-05
2.16144e-05
3.25582e-05
4.18872e-05
4.70301e-05
5.06231e-05
5.29888e-05
5.50252e-05
5.65234e-05
5.77907e-05
5.87934e-05
5.96594e-05
6.03669e-05
6.09611e-05
6.14421e-05
6.1859e-05
6.22187e-05
6.25351e-05
6.28186e-05
6.30763e-05
6.3317e-05
6.35503e-05
6.37832e-05
6.40316e-05
6.42997e-05
6.45881e-05
6.49e-05
6.52347e-05
6.55905e-05
6.59619e-05
6.63421e-05
6.67191e-05
6.70803e-05
6.74123e-05
6.77246e-05
6.80017e-05
6.82478e-05
6.84391e-05
6.8598e-05
6.86659e-05
6.87309e-05
6.86232e-05
6.86329e-05
6.81755e-05
6.81914e-05
6.80808e-05
6.82123e-05
6.83662e-05
6.86804e-05
6.90633e-05
6.95655e-05
7.01463e-05
7.08227e-05
7.15752e-05
7.24083e-05
7.33116e-05
7.4285e-05
7.53223e-05
7.64216e-05
7.7579e-05
7.87921e-05
8.00579e-05
8.13741e-05
8.27381e-05
8.41477e-05
8.56006e-05
8.70948e-05
8.8628e-05
9.01983e-05
9.18037e-05
9.34423e-05
9.51122e-05
9.68114e-05
9.85382e-05
0.000100291
0.000102067
0.000103865
0.000105684
0.000107521
0.000109375
0.000111244
0.000113127
0.000115021
0.000116925
0.000118837
0.000120757
0.000122681
0.00012461
0.00012654
0.000128472
0.000130404
0.000132333
0.00013426
0.000136183
0.0001381
0.000140012
0.000141915
0.000143811
0.000145697
0.000147574
0.000149439
0.000151292
0.000153133
0.000154961
0.000156775
0.000158575
0.000160359
0.000162128
0.000163881
0.000165618
0.000167339
0.000169042
0.000170728
0.000172396
0.000174047
0.00017568
0.000177295
0.000178891
0.00018047
0.00018203
0.000183573
0.000185097
0.000186603
0.00018809
0.00018956
0.000191012
0.000192445
0.000193861
0.000195259
0.00019664
0.000198003
0.000199349
0.000200677
0.000201989
0.000203283
0.000204562
0.000205823
0.00020707
0.000208298
0.000209515
0.00021071
0.000211898
0.000213061
0.000214223
0.000215354
0.000216495
0.000217593
0.000218721
0.000219785
0.00022091
0.000221941
0.000223036
0.000224063
0.000225175
0.000226267
0.000227426
0.000228586
0.000229798
0.00023102
0.000232275
0.000233535
0.000234804
0.000236054
0.000237262
0.000238385
0.000239394
0.000240231
0.000240866
0.000241228
0.000241302
0.00024101
0.000240407
0.000239449
0.000238214
0.000236556
0.000234505
0.000231977
0.000228856
0.000225065
0.000220289
0.000214383
0.000206382
0.00019609
0.000183041
0.000166734
0.000146559
0.000121657
9.16319e-05
5.54233e-05
1.64246e-05
-2.39908e-05
-4.72473e-05
-5.40842e-05
-4.87372e-05
-3.76049e-05
-2.38946e-05
-1.17745e-05
-3.53383e-09
4.1057e-06
8.02861e-06
1.27764e-05
2.16086e-05
3.25368e-05
4.18596e-05
4.70061e-05
5.06028e-05
5.29723e-05
5.50113e-05
5.65123e-05
5.77816e-05
5.87861e-05
5.96534e-05
6.03623e-05
6.09577e-05
6.14398e-05
6.18574e-05
6.22177e-05
6.25346e-05
6.28185e-05
6.30766e-05
6.33175e-05
6.35509e-05
6.37838e-05
6.40321e-05
6.43e-05
6.45881e-05
6.48998e-05
6.52342e-05
6.55899e-05
6.59611e-05
6.63413e-05
6.67184e-05
6.70798e-05
6.74121e-05
6.77247e-05
6.80019e-05
6.82483e-05
6.84398e-05
6.85989e-05
6.86668e-05
6.87319e-05
6.8624e-05
6.86339e-05
6.8177e-05
6.81931e-05
6.80824e-05
6.82139e-05
6.83677e-05
6.8682e-05
6.90648e-05
6.9567e-05
7.01478e-05
7.08241e-05
7.15767e-05
7.24097e-05
7.33131e-05
7.42864e-05
7.53236e-05
7.6423e-05
7.75803e-05
7.87934e-05
8.00592e-05
8.13754e-05
8.27393e-05
8.41489e-05
8.56018e-05
8.70959e-05
8.86291e-05
9.01994e-05
9.18048e-05
9.34433e-05
9.51131e-05
9.68124e-05
9.85391e-05
0.000100292
0.000102068
0.000103866
0.000105685
0.000107522
0.000109376
0.000111245
0.000113127
0.000115021
0.000116925
0.000118838
0.000120757
0.000122682
0.00012461
0.000126541
0.000128472
0.000130404
0.000132333
0.00013426
0.000136183
0.0001381
0.000140011
0.000141915
0.000143811
0.000145697
0.000147573
0.000149438
0.000151292
0.000153133
0.00015496
0.000156774
0.000158574
0.000160358
0.000162127
0.000163881
0.000165618
0.000167338
0.000169041
0.000170727
0.000172395
0.000174046
0.000175679
0.000177294
0.00017889
0.000180469
0.000182029
0.000183572
0.000185096
0.000186602
0.000188089
0.000189559
0.000191011
0.000192444
0.00019386
0.000195258
0.000196639
0.000198002
0.000199347
0.000200676
0.000201988
0.000203282
0.000204561
0.000205822
0.000207069
0.000208297
0.000209513
0.000210709
0.000211897
0.00021306
0.000214222
0.000215353
0.000216494
0.000217592
0.00021872
0.000219784
0.000220909
0.00022194
0.000223036
0.000224063
0.000225176
0.000226269
0.000227429
0.00022859
0.000229803
0.000231025
0.000232282
0.000233542
0.000234811
0.000236062
0.000237269
0.000238391
0.000239398
0.000240234
0.000240867
0.000241225
0.000241296
0.000241
0.000240394
0.000239432
0.000238195
0.000236532
0.000234477
0.000231943
0.000228815
0.000225016
0.000220228
0.000214305
0.000206282
0.000195966
0.00018289
0.000166552
0.000146344
0.00012141
9.1356e-05
5.5143e-05
1.61769e-05
-2.41347e-05
-4.72772e-05
-5.40607e-05
-4.87049e-05
-3.75822e-05
-2.38836e-05
-1.17725e-05
-7.16884e-09
4.1025e-06
8.03105e-06
1.27814e-05
2.1605e-05
3.25172e-05
4.18328e-05
4.69819e-05
5.05821e-05
5.29551e-05
5.49968e-05
5.65008e-05
5.77721e-05
5.87785e-05
5.96472e-05
6.03575e-05
6.09542e-05
6.14374e-05
6.18558e-05
6.22167e-05
6.25341e-05
6.28184e-05
6.30768e-05
6.3318e-05
6.35515e-05
6.37845e-05
6.40326e-05
6.43003e-05
6.45882e-05
6.48997e-05
6.52338e-05
6.55893e-05
6.59604e-05
6.63405e-05
6.67177e-05
6.70794e-05
6.74119e-05
6.77247e-05
6.80022e-05
6.82488e-05
6.84405e-05
6.85997e-05
6.86677e-05
6.87329e-05
6.86248e-05
6.8635e-05
6.81788e-05
6.81951e-05
6.80842e-05
6.82157e-05
6.83695e-05
6.86837e-05
6.90665e-05
6.95687e-05
7.01494e-05
7.08257e-05
7.15782e-05
7.24113e-05
7.33146e-05
7.42879e-05
7.53251e-05
7.64244e-05
7.75818e-05
7.87948e-05
8.00606e-05
8.13767e-05
8.27407e-05
8.41502e-05
8.56031e-05
8.70971e-05
8.86303e-05
9.02005e-05
9.18059e-05
9.34444e-05
9.51141e-05
9.68133e-05
9.854e-05
0.000100292
0.000102069
0.000103867
0.000105686
0.000107523
0.000109377
0.000111245
0.000113128
0.000115022
0.000116926
0.000118838
0.000120757
0.000122682
0.00012461
0.000126541
0.000128472
0.000130404
0.000132333
0.00013426
0.000136183
0.0001381
0.000140011
0.000141915
0.00014381
0.000145696
0.000147573
0.000149438
0.000151291
0.000153132
0.00015496
0.000156774
0.000158573
0.000160358
0.000162127
0.00016388
0.000165617
0.000167337
0.00016904
0.000170726
0.000172394
0.000174045
0.000175678
0.000177293
0.000178889
0.000180468
0.000182028
0.00018357
0.000185094
0.0001866
0.000188088
0.000189558
0.000191009
0.000192443
0.000193859
0.000195257
0.000196637
0.000198
0.000199346
0.000200674
0.000201986
0.000203281
0.00020456
0.000205821
0.000207067
0.000208296
0.000209512
0.000210708
0.000211895
0.000213059
0.000214221
0.000215352
0.000216493
0.00021759
0.000218719
0.000219782
0.000220908
0.000221938
0.000223036
0.000224064
0.000225178
0.000226271
0.000227432
0.000228594
0.000229808
0.000231031
0.000232288
0.000233549
0.000234818
0.000236069
0.000237276
0.000238397
0.000239403
0.000240236
0.000240866
0.000241222
0.000241289
0.00024099
0.00024038
0.000239416
0.000238174
0.000236507
0.000234448
0.000231908
0.000228773
0.000224965
0.000220165
0.000214225
0.000206179
0.000195838
0.000182734
0.000166366
0.000146123
0.000121157
9.10745e-05
5.48584e-05
1.59283e-05
-2.42749e-05
-4.73008e-05
-5.40316e-05
-4.86682e-05
-3.75563e-05
-2.38706e-05
-1.17697e-05
-1.01444e-08
4.09968e-06
8.03365e-06
1.27865e-05
2.16015e-05
3.24981e-05
4.18067e-05
4.69581e-05
5.05614e-05
5.2938e-05
5.49824e-05
5.64892e-05
5.77627e-05
5.87708e-05
5.9641e-05
6.03527e-05
6.09506e-05
6.14349e-05
6.18541e-05
6.22157e-05
6.25336e-05
6.28184e-05
6.30771e-05
6.33185e-05
6.35522e-05
6.37851e-05
6.40331e-05
6.43006e-05
6.45883e-05
6.48995e-05
6.52335e-05
6.55887e-05
6.59596e-05
6.63397e-05
6.6717e-05
6.70789e-05
6.74117e-05
6.77248e-05
6.80025e-05
6.82493e-05
6.84411e-05
6.86006e-05
6.86685e-05
6.87339e-05
6.86257e-05
6.86361e-05
6.81805e-05
6.81971e-05
6.8086e-05
6.82175e-05
6.83712e-05
6.86854e-05
6.90682e-05
6.95703e-05
7.0151e-05
7.08273e-05
7.15798e-05
7.24128e-05
7.33161e-05
7.42894e-05
7.53266e-05
7.64259e-05
7.75832e-05
7.87962e-05
8.00619e-05
8.1378e-05
8.2742e-05
8.41515e-05
8.56043e-05
8.70983e-05
8.86314e-05
9.02016e-05
9.18069e-05
9.34454e-05
9.51151e-05
9.68142e-05
9.85409e-05
0.000100293
0.000102069
0.000103868
0.000105686
0.000107523
0.000109377
0.000111246
0.000113128
0.000115022
0.000116926
0.000118838
0.000120757
0.000122682
0.00012461
0.000126541
0.000128472
0.000130404
0.000132333
0.00013426
0.000136182
0.0001381
0.000140011
0.000141914
0.00014381
0.000145696
0.000147572
0.000149437
0.00015129
0.000153131
0.000154959
0.000156773
0.000158572
0.000160357
0.000162126
0.000163879
0.000165616
0.000167336
0.000169039
0.000170725
0.000172393
0.000174044
0.000175677
0.000177291
0.000178888
0.000180467
0.000182027
0.000183569
0.000185093
0.000186599
0.000188087
0.000189556
0.000191008
0.000192442
0.000193857
0.000195255
0.000196636
0.000197999
0.000199345
0.000200673
0.000201985
0.000203279
0.000204558
0.000205819
0.000207066
0.000208294
0.000209511
0.000210706
0.000211894
0.000213057
0.00021422
0.00021535
0.000216492
0.000217589
0.000218717
0.000219781
0.000220906
0.000221937
0.000223035
0.000224064
0.000225179
0.000226273
0.000227435
0.000228598
0.000229813
0.000231037
0.000232295
0.000233556
0.000234826
0.000236076
0.000237283
0.000238403
0.000239408
0.000240239
0.000240866
0.000241218
0.000241283
0.000240979
0.000240367
0.000239399
0.000238154
0.000236482
0.000234418
0.000231872
0.000228731
0.000224913
0.000220102
0.000214144
0.000206076
0.000195709
0.000182577
0.000166178
0.000145903
0.000120904
9.07954e-05
5.4579e-05
1.56886e-05
-2.4404e-05
-4.73155e-05
-5.39979e-05
-4.86296e-05
-3.75296e-05
-2.38571e-05
-1.17664e-05
-1.24786e-08
4.09731e-06
8.03658e-06
1.27917e-05
2.15977e-05
3.24782e-05
4.17798e-05
4.69336e-05
5.05399e-05
5.29201e-05
5.49672e-05
5.64771e-05
5.77527e-05
5.87628e-05
5.96344e-05
6.03476e-05
6.09469e-05
6.14323e-05
6.18523e-05
6.22146e-05
6.25331e-05
6.28183e-05
6.30774e-05
6.3319e-05
6.35529e-05
6.37858e-05
6.40337e-05
6.43009e-05
6.45884e-05
6.48994e-05
6.5233e-05
6.5588e-05
6.59588e-05
6.63389e-05
6.67162e-05
6.70784e-05
6.74115e-05
6.77248e-05
6.80027e-05
6.82499e-05
6.84418e-05
6.86015e-05
6.86695e-05
6.87349e-05
6.86266e-05
6.86373e-05
6.81823e-05
6.81991e-05
6.80878e-05
6.82194e-05
6.8373e-05
6.86872e-05
6.90699e-05
6.9572e-05
7.01526e-05
7.0829e-05
7.15814e-05
7.24144e-05
7.33177e-05
7.42909e-05
7.53281e-05
7.64274e-05
7.75846e-05
7.87977e-05
8.00634e-05
8.13794e-05
8.27433e-05
8.41528e-05
8.56056e-05
8.70996e-05
8.86326e-05
9.02028e-05
9.1808e-05
9.34464e-05
9.51161e-05
9.68152e-05
9.85418e-05
0.000100294
0.00010207
0.000103868
0.000105687
0.000107524
0.000109378
0.000111246
0.000113129
0.000115023
0.000116926
0.000118839
0.000120758
0.000122682
0.00012461
0.000126541
0.000128472
0.000130404
0.000132333
0.00013426
0.000136182
0.000138099
0.00014001
0.000141914
0.000143809
0.000145696
0.000147572
0.000149437
0.00015129
0.000153131
0.000154958
0.000156772
0.000158572
0.000160356
0.000162125
0.000163878
0.000165615
0.000167335
0.000169038
0.000170724
0.000172392
0.000174043
0.000175675
0.00017729
0.000178887
0.000180465
0.000182026
0.000183568
0.000185092
0.000186598
0.000188085
0.000189555
0.000191007
0.00019244
0.000193856
0.000195254
0.000196635
0.000197998
0.000199343
0.000200672
0.000201984
0.000203278
0.000204557
0.000205818
0.000207065
0.000208293
0.000209509
0.000210705
0.000211893
0.000213056
0.000214218
0.000215349
0.00021649
0.000217588
0.000218716
0.00021978
0.000220905
0.000221936
0.000223035
0.000224065
0.00022518
0.000226276
0.000227438
0.000228602
0.000229818
0.000231043
0.000232301
0.000233564
0.000234833
0.000236084
0.00023729
0.00023841
0.000239412
0.000240242
0.000240866
0.000241215
0.000241276
0.000240969
0.000240352
0.000239381
0.000238132
0.000236456
0.000234387
0.000231835
0.000228687
0.000224859
0.000220036
0.000214059
0.000205966
0.000195574
0.000182413
0.000165982
0.000145673
0.000120642
9.05077e-05
5.42951e-05
1.54512e-05
-2.45219e-05
-4.73172e-05
-5.39555e-05
-4.85866e-05
-3.7501e-05
-2.38427e-05
-1.17625e-05
-1.41578e-08
4.09548e-06
8.04015e-06
1.27975e-05
2.15936e-05
3.24574e-05
4.17519e-05
4.69081e-05
5.05173e-05
5.29012e-05
5.49512e-05
5.64642e-05
5.77422e-05
5.87542e-05
5.96275e-05
6.03422e-05
6.0943e-05
6.14296e-05
6.18505e-05
6.22135e-05
6.25325e-05
6.28182e-05
6.30777e-05
6.33196e-05
6.35536e-05
6.37866e-05
6.40343e-05
6.43013e-05
6.45885e-05
6.48992e-05
6.52326e-05
6.55873e-05
6.5958e-05
6.63379e-05
6.67154e-05
6.70778e-05
6.74112e-05
6.77248e-05
6.8003e-05
6.82504e-05
6.84426e-05
6.86025e-05
6.86705e-05
6.87361e-05
6.86276e-05
6.86386e-05
6.81842e-05
6.82012e-05
6.80897e-05
6.82213e-05
6.83748e-05
6.8689e-05
6.90716e-05
6.95738e-05
7.01543e-05
7.08306e-05
7.15831e-05
7.24161e-05
7.33193e-05
7.42925e-05
7.53297e-05
7.64289e-05
7.75862e-05
7.87992e-05
8.00648e-05
8.13809e-05
8.27447e-05
8.41542e-05
8.56069e-05
8.71009e-05
8.86339e-05
9.0204e-05
9.18092e-05
9.34476e-05
9.51172e-05
9.68162e-05
9.85427e-05
0.000100295
0.000102071
0.000103869
0.000105688
0.000107525
0.000109378
0.000111247
0.000113129
0.000115023
0.000116927
0.000118839
0.000120758
0.000122682
0.00012461
0.000126541
0.000128472
0.000130403
0.000132333
0.000134259
0.000136182
0.000138099
0.00014001
0.000141914
0.000143809
0.000145695
0.000147571
0.000149436
0.000151289
0.00015313
0.000154958
0.000156771
0.000158571
0.000160355
0.000162124
0.000163877
0.000165614
0.000167334
0.000169037
0.000170723
0.000172391
0.000174042
0.000175674
0.000177289
0.000178886
0.000180464
0.000182025
0.000183567
0.000185091
0.000186596
0.000188084
0.000189554
0.000191005
0.000192439
0.000193855
0.000195253
0.000196633
0.000197996
0.000199342
0.00020067
0.000201982
0.000203276
0.000204555
0.000205816
0.000207063
0.000208291
0.000209508
0.000210703
0.000211891
0.000213055
0.000214217
0.000215347
0.000216489
0.000217586
0.000218715
0.000219778
0.000220904
0.000221935
0.000223034
0.000224065
0.000225182
0.000226278
0.000227442
0.000228607
0.000229824
0.000231049
0.000232309
0.000233571
0.000234842
0.000236093
0.000237298
0.000238417
0.000239418
0.000240245
0.000240866
0.000241212
0.000241268
0.000240957
0.000240337
0.000239362
0.000238109
0.000236428
0.000234354
0.000231796
0.00022864
0.000224802
0.000219965
0.000213968
0.000205851
0.000195431
0.000182239
0.000165776
0.000145431
0.000120368
9.02099e-05
5.40068e-05
1.52193e-05
-2.46224e-05
-4.72988e-05
-5.38995e-05
-4.85366e-05
-3.74692e-05
-2.3827e-05
-1.17578e-05
-1.50936e-08
4.09436e-06
8.04467e-06
1.28042e-05
2.15895e-05
3.24356e-05
4.17232e-05
4.68818e-05
5.04938e-05
5.28814e-05
5.49343e-05
5.64506e-05
5.7731e-05
5.87452e-05
5.96201e-05
6.03365e-05
6.09388e-05
6.14267e-05
6.18485e-05
6.22123e-05
6.25319e-05
6.28181e-05
6.3078e-05
6.33202e-05
6.35544e-05
6.37873e-05
6.40349e-05
6.43017e-05
6.45886e-05
6.4899e-05
6.52321e-05
6.55865e-05
6.5957e-05
6.63369e-05
6.67145e-05
6.70772e-05
6.74109e-05
6.77248e-05
6.80032e-05
6.82509e-05
6.84433e-05
6.86035e-05
6.86715e-05
6.87373e-05
6.86287e-05
6.86399e-05
6.8186e-05
6.82033e-05
6.80917e-05
6.82232e-05
6.83767e-05
6.86908e-05
6.90734e-05
6.95755e-05
7.01561e-05
7.08324e-05
7.15848e-05
7.24177e-05
7.3321e-05
7.42942e-05
7.53313e-05
7.64305e-05
7.75878e-05
7.88007e-05
8.00664e-05
8.13824e-05
8.27462e-05
8.41556e-05
8.56083e-05
8.71022e-05
8.86352e-05
9.02052e-05
9.18104e-05
9.34487e-05
9.51183e-05
9.68173e-05
9.85437e-05
0.000100296
0.000102072
0.00010387
0.000105688
0.000107525
0.000109379
0.000111248
0.00011313
0.000115023
0.000116927
0.000118839
0.000120758
0.000122682
0.000124611
0.000126541
0.000128472
0.000130403
0.000132333
0.000134259
0.000136182
0.000138099
0.00014001
0.000141913
0.000143808
0.000145694
0.00014757
0.000149435
0.000151289
0.000153129
0.000154957
0.000156771
0.00015857
0.000160354
0.000162123
0.000163876
0.000165613
0.000167333
0.000169036
0.000170722
0.00017239
0.00017404
0.000175673
0.000177288
0.000178884
0.000180463
0.000182023
0.000183565
0.000185089
0.000186595
0.000188083
0.000189552
0.000191004
0.000192437
0.000193853
0.000195251
0.000196632
0.000197995
0.00019934
0.000200669
0.000201981
0.000203275
0.000204554
0.000205815
0.000207062
0.00020829
0.000209506
0.000210702
0.00021189
0.000213053
0.000214215
0.000215346
0.000216487
0.000217585
0.000218713
0.000219777
0.000220902
0.000221934
0.000223034
0.000224066
0.000225183
0.00022628
0.000227445
0.000228612
0.000229829
0.000231056
0.000232316
0.00023358
0.000234851
0.000236101
0.000237306
0.000238424
0.000239423
0.000240248
0.000240866
0.000241208
0.00024126
0.000240945
0.000240321
0.000239342
0.000238085
0.000236399
0.000234319
0.000231754
0.000228589
0.000224741
0.00021989
0.000213872
0.000205728
0.000195279
0.000182056
0.000165558
0.000145178
0.000120083
8.99044e-05
5.37185e-05
1.49999e-05
-2.46961e-05
-4.72515e-05
-5.3824e-05
-4.84767e-05
-3.74332e-05
-2.38096e-05
-1.17522e-05
-1.51811e-08
4.09415e-06
8.05056e-06
1.28122e-05
2.15856e-05
3.24129e-05
4.16936e-05
4.68546e-05
5.04693e-05
5.28607e-05
5.49165e-05
5.64363e-05
5.77192e-05
5.87357e-05
5.96124e-05
6.03305e-05
6.09343e-05
6.14236e-05
6.18464e-05
6.2211e-05
6.25313e-05
6.2818e-05
6.30783e-05
6.33208e-05
6.35552e-05
6.37882e-05
6.40355e-05
6.43021e-05
6.45887e-05
6.48987e-05
6.52315e-05
6.55857e-05
6.5956e-05
6.63358e-05
6.67135e-05
6.70765e-05
6.74105e-05
6.77247e-05
6.80035e-05
6.82515e-05
6.84441e-05
6.86045e-05
6.86727e-05
6.87385e-05
6.86299e-05
6.86413e-05
6.81879e-05
6.82054e-05
6.80936e-05
6.82252e-05
6.83785e-05
6.86927e-05
6.90753e-05
6.95773e-05
7.01579e-05
7.08341e-05
7.15865e-05
7.24195e-05
7.33227e-05
7.42959e-05
7.5333e-05
7.64322e-05
7.75894e-05
7.88023e-05
8.00679e-05
8.13839e-05
8.27477e-05
8.41571e-05
8.56097e-05
8.71036e-05
8.86365e-05
9.02066e-05
9.18117e-05
9.34499e-05
9.51194e-05
9.68183e-05
9.85448e-05
0.000100297
0.000102073
0.000103871
0.000105689
0.000107526
0.00010938
0.000111248
0.00011313
0.000115024
0.000116927
0.00011884
0.000120758
0.000122683
0.000124611
0.000126541
0.000128472
0.000130403
0.000132333
0.000134259
0.000136181
0.000138098
0.000140009
0.000141913
0.000143808
0.000145694
0.00014757
0.000149435
0.000151288
0.000153129
0.000154956
0.00015677
0.000158569
0.000160353
0.000162122
0.000163875
0.000165612
0.000167332
0.000169035
0.00017072
0.000172389
0.000174039
0.000175672
0.000177286
0.000178883
0.000180462
0.000182022
0.000183564
0.000185088
0.000186594
0.000188081
0.000189551
0.000191002
0.000192436
0.000193852
0.00019525
0.00019663
0.000197993
0.000199339
0.000200667
0.000201979
0.000203273
0.000204552
0.000205813
0.00020706
0.000208288
0.000209504
0.0002107
0.000211888
0.000213051
0.000214213
0.000215344
0.000216486
0.000217583
0.000218712
0.000219776
0.000220901
0.000221932
0.000223033
0.000224066
0.000225185
0.000226283
0.000227449
0.000228616
0.000229835
0.000231063
0.000232324
0.000233589
0.00023486
0.000236111
0.000237315
0.000238432
0.000239429
0.000240251
0.000240866
0.000241204
0.000241252
0.000240932
0.000240304
0.000239321
0.000238059
0.000236367
0.000234282
0.000231709
0.000228536
0.000224676
0.00021981
0.00021377
0.000205598
0.000195119
0.000181863
0.00016533
0.000144914
0.000119789
8.95938e-05
5.34348e-05
1.48003e-05
-2.47326e-05
-4.71655e-05
-5.37221e-05
-4.84031e-05
-3.73913e-05
-2.37899e-05
-1.17454e-05
-1.43077e-08
4.0951e-06
8.05835e-06
1.28223e-05
2.15822e-05
3.23891e-05
4.16631e-05
4.68268e-05
5.0444e-05
5.2839e-05
5.48978e-05
5.64212e-05
5.77068e-05
5.87256e-05
5.96041e-05
6.03241e-05
6.09296e-05
6.14203e-05
6.18441e-05
6.22097e-05
6.25307e-05
6.28179e-05
6.30787e-05
6.33215e-05
6.35561e-05
6.3789e-05
6.40362e-05
6.43025e-05
6.45888e-05
6.48985e-05
6.52309e-05
6.55848e-05
6.59548e-05
6.63346e-05
6.67123e-05
6.70756e-05
6.741e-05
6.77245e-05
6.80036e-05
6.8252e-05
6.84449e-05
6.86055e-05
6.86738e-05
6.87398e-05
6.86311e-05
6.86427e-05
6.81898e-05
6.82076e-05
6.80956e-05
6.82271e-05
6.83804e-05
6.86946e-05
6.90771e-05
6.95792e-05
7.01597e-05
7.08359e-05
7.15883e-05
7.24213e-05
7.33245e-05
7.42977e-05
7.53348e-05
7.64339e-05
7.75911e-05
7.8804e-05
8.00696e-05
8.13855e-05
8.27493e-05
8.41586e-05
8.56112e-05
8.71051e-05
8.86379e-05
9.02079e-05
9.1813e-05
9.34512e-05
9.51206e-05
9.68195e-05
9.85459e-05
0.000100298
0.000102074
0.000103872
0.00010569
0.000107527
0.00010938
0.000111249
0.000113131
0.000115024
0.000116928
0.00011884
0.000120759
0.000122683
0.000124611
0.000126541
0.000128472
0.000130403
0.000132332
0.000134259
0.000136181
0.000138098
0.000140009
0.000141912
0.000143807
0.000145693
0.000147569
0.000149434
0.000151287
0.000153128
0.000154955
0.000156769
0.000158568
0.000160352
0.000162121
0.000163874
0.000165611
0.00016733
0.000169033
0.000170719
0.000172387
0.000174038
0.00017567
0.000177285
0.000178882
0.00018046
0.00018202
0.000183562
0.000185086
0.000186592
0.00018808
0.000189549
0.000191001
0.000192434
0.00019385
0.000195248
0.000196628
0.000197991
0.000199337
0.000200665
0.000201977
0.000203271
0.00020455
0.000205811
0.000207058
0.000208286
0.000209503
0.000210698
0.000211886
0.00021305
0.000214212
0.000215343
0.000216484
0.000217582
0.00021871
0.000219774
0.000220899
0.000221931
0.000223033
0.000224067
0.000225186
0.000226286
0.000227453
0.000228622
0.000229842
0.00023107
0.000232333
0.000233598
0.00023487
0.000236121
0.000237325
0.00023844
0.000239435
0.000240254
0.000240866
0.0002412
0.000241243
0.000240919
0.000240286
0.000239298
0.000238031
0.000236334
0.000234242
0.000231662
0.000228479
0.000224607
0.000219725
0.000213661
0.00020546
0.00019495
0.000181659
0.000165091
0.000144639
0.000119486
8.92801e-05
5.31602e-05
1.46285e-05
-2.47208e-05
-4.70292e-05
-5.35851e-05
-4.83108e-05
-3.73413e-05
-2.37671e-05
-1.17371e-05
-1.23304e-08
4.09749e-06
8.06873e-06
1.28353e-05
2.15799e-05
3.23644e-05
4.16316e-05
4.67982e-05
5.04177e-05
5.28164e-05
5.48782e-05
5.64054e-05
5.76937e-05
5.87149e-05
5.95954e-05
6.03173e-05
6.09246e-05
6.14168e-05
6.18418e-05
6.22082e-05
6.253e-05
6.28178e-05
6.30791e-05
6.33222e-05
6.3557e-05
6.379e-05
6.40369e-05
6.43029e-05
6.45889e-05
6.48982e-05
6.52302e-05
6.55838e-05
6.59536e-05
6.63332e-05
6.67111e-05
6.70747e-05
6.74094e-05
6.77243e-05
6.80037e-05
6.82524e-05
6.84456e-05
6.86065e-05
6.86749e-05
6.8741e-05
6.86324e-05
6.86442e-05
6.81916e-05
6.82097e-05
6.80976e-05
6.82291e-05
6.83823e-05
6.86964e-05
6.9079e-05
6.9581e-05
7.01615e-05
7.08378e-05
7.15902e-05
7.24231e-05
7.33263e-05
7.42995e-05
7.53365e-05
7.64357e-05
7.75928e-05
7.88057e-05
8.00713e-05
8.13872e-05
8.27509e-05
8.41602e-05
8.56128e-05
8.71066e-05
8.86394e-05
9.02093e-05
9.18143e-05
9.34525e-05
9.51219e-05
9.68207e-05
9.8547e-05
0.000100299
0.000102075
0.000103873
0.000105691
0.000107528
0.000109381
0.000111249
0.000113131
0.000115025
0.000116928
0.00011884
0.000120759
0.000122683
0.000124611
0.000126541
0.000128472
0.000130403
0.000132332
0.000134259
0.000136181
0.000138098
0.000140008
0.000141912
0.000143807
0.000145693
0.000147568
0.000149433
0.000151286
0.000153127
0.000154954
0.000156768
0.000158567
0.000160351
0.00016212
0.000163873
0.000165609
0.000167329
0.000169032
0.000170718
0.000172386
0.000174036
0.000175669
0.000177284
0.00017888
0.000180458
0.000182019
0.000183561
0.000185085
0.00018659
0.000188078
0.000189547
0.000190999
0.000192432
0.000193848
0.000195246
0.000196627
0.000197989
0.000199335
0.000200663
0.000201975
0.00020327
0.000204548
0.000205809
0.000207056
0.000208284
0.000209501
0.000210697
0.000211884
0.000213048
0.00021421
0.000215341
0.000216482
0.00021758
0.000218708
0.000219772
0.000220898
0.000221929
0.000223032
0.000224067
0.000225188
0.000226289
0.000227457
0.000228627
0.000229848
0.000231078
0.000232342
0.000233608
0.00023488
0.000236131
0.000237335
0.000238449
0.000239442
0.000240258
0.000240866
0.000241195
0.000241233
0.000240904
0.000240266
0.000239274
0.000238002
0.000236298
0.0002342
0.000231611
0.000228419
0.000224533
0.000219634
0.000213546
0.000205314
0.000194771
0.000181445
0.00016484
0.000144354
0.000119175
8.8966e-05
5.28993e-05
1.44924e-05
-2.46492e-05
-4.68304e-05
-5.3403e-05
-4.81935e-05
-3.728e-05
-2.37397e-05
-1.17267e-05
-9.0263e-09
4.10164e-06
8.08258e-06
1.28526e-05
2.15797e-05
3.23388e-05
4.15989e-05
4.67689e-05
5.03905e-05
5.27928e-05
5.48577e-05
5.63887e-05
5.76798e-05
5.87036e-05
5.95862e-05
6.03101e-05
6.09193e-05
6.14131e-05
6.18393e-05
6.22067e-05
6.25292e-05
6.28177e-05
6.30795e-05
6.3323e-05
6.35579e-05
6.37909e-05
6.40377e-05
6.43033e-05
6.45889e-05
6.48978e-05
6.52295e-05
6.55827e-05
6.59522e-05
6.63317e-05
6.67097e-05
6.70736e-05
6.74086e-05
6.77239e-05
6.80037e-05
6.82528e-05
6.84463e-05
6.86075e-05
6.8676e-05
6.87423e-05
6.86337e-05
6.86455e-05
6.81934e-05
6.82117e-05
6.80995e-05
6.8231e-05
6.83842e-05
6.86983e-05
6.90808e-05
6.95829e-05
7.01634e-05
7.08396e-05
7.1592e-05
7.2425e-05
7.33281e-05
7.43013e-05
7.53384e-05
7.64375e-05
7.75946e-05
7.88075e-05
8.0073e-05
8.13889e-05
8.27526e-05
8.41618e-05
8.56144e-05
8.71081e-05
8.86409e-05
9.02108e-05
9.18157e-05
9.34538e-05
9.51231e-05
9.68219e-05
9.85481e-05
0.0001003
0.000102076
0.000103874
0.000105692
0.000107528
0.000109382
0.00011125
0.000113132
0.000115025
0.000116929
0.000118841
0.000120759
0.000122683
0.000124611
0.000126541
0.000128472
0.000130403
0.000132332
0.000134258
0.00013618
0.000138097
0.000140008
0.000141911
0.000143806
0.000145692
0.000147568
0.000149432
0.000151285
0.000153126
0.000154953
0.000156767
0.000158566
0.00016035
0.000162119
0.000163871
0.000165608
0.000167328
0.000169031
0.000170716
0.000172384
0.000174035
0.000175667
0.000177282
0.000178878
0.000180457
0.000182017
0.000183559
0.000185083
0.000186588
0.000188076
0.000189545
0.000190997
0.00019243
0.000193846
0.000195244
0.000196625
0.000197987
0.000199333
0.000200661
0.000201973
0.000203268
0.000204546
0.000205807
0.000207054
0.000208282
0.000209499
0.000210695
0.000211882
0.000213046
0.000214208
0.000215339
0.00021648
0.000217578
0.000218707
0.000219771
0.000220896
0.000221927
0.000223031
0.000224067
0.00022519
0.000226292
0.000227462
0.000228633
0.000229855
0.000231087
0.000232351
0.000233618
0.000234891
0.000236143
0.000237345
0.000238458
0.000239449
0.000240262
0.000240866
0.00024119
0.000241223
0.000240888
0.000240246
0.000239248
0.00023797
0.00023626
0.000234155
0.000231557
0.000228354
0.000224454
0.000219537
0.000213423
0.000205158
0.000194582
0.00018122
0.000164579
0.000144058
0.000118858
8.86534e-05
5.26568e-05
1.43997e-05
-2.45061e-05
-4.65561e-05
-5.31644e-05
-4.80432e-05
-3.7203e-05
-2.37058e-05
-1.17134e-05
-3.99883e-09
4.108e-06
8.10096e-06
1.28758e-05
2.15828e-05
3.23128e-05
4.15648e-05
4.67389e-05
5.03626e-05
5.27684e-05
5.48363e-05
5.63712e-05
5.76653e-05
5.86918e-05
5.95764e-05
6.03025e-05
6.09137e-05
6.14092e-05
6.18366e-05
6.22051e-05
6.25284e-05
6.28176e-05
6.30799e-05
6.33237e-05
6.35589e-05
6.37919e-05
6.40385e-05
6.43038e-05
6.4589e-05
6.48974e-05
6.52286e-05
6.55814e-05
6.59507e-05
6.633e-05
6.6708e-05
6.70722e-05
6.74077e-05
6.77233e-05
6.80035e-05
6.82529e-05
6.84468e-05
6.86084e-05
6.86771e-05
6.87434e-05
6.86349e-05
6.86468e-05
6.81951e-05
6.82136e-05
6.81015e-05
6.82328e-05
6.8386e-05
6.87001e-05
6.90827e-05
6.95847e-05
7.01653e-05
7.08415e-05
7.15939e-05
7.24269e-05
7.333e-05
7.43032e-05
7.53403e-05
7.64394e-05
7.75965e-05
7.88093e-05
8.00748e-05
8.13907e-05
8.27543e-05
8.41635e-05
8.5616e-05
8.71097e-05
8.86424e-05
9.02122e-05
9.18171e-05
9.34552e-05
9.51244e-05
9.68231e-05
9.85492e-05
0.000100301
0.000102077
0.000103875
0.000105693
0.000107529
0.000109382
0.000111251
0.000113132
0.000115026
0.000116929
0.000118841
0.000120759
0.000122683
0.000124611
0.000126541
0.000128472
0.000130403
0.000132332
0.000134258
0.00013618
0.000138097
0.000140007
0.00014191
0.000143805
0.000145691
0.000147567
0.000149431
0.000151284
0.000153125
0.000154952
0.000156765
0.000158564
0.000160348
0.000162117
0.00016387
0.000165606
0.000167326
0.000169029
0.000170714
0.000172383
0.000174033
0.000175665
0.00017728
0.000178876
0.000180455
0.000182015
0.000183557
0.000185081
0.000186586
0.000188074
0.000189543
0.000190995
0.000192428
0.000193844
0.000195242
0.000196622
0.000197985
0.000199331
0.000200659
0.000201971
0.000203265
0.000204544
0.000205805
0.000207052
0.00020828
0.000209497
0.000210692
0.00021188
0.000213044
0.000214206
0.000215337
0.000216478
0.000217576
0.000218705
0.000219769
0.000220894
0.000221925
0.00022303
0.000224068
0.000225191
0.000226295
0.000227466
0.000228639
0.000229863
0.000231095
0.000232361
0.000233629
0.000234903
0.000236154
0.000237356
0.000238467
0.000239456
0.000240265
0.000240865
0.000241185
0.000241212
0.000240872
0.000240223
0.000239221
0.000237936
0.00023622
0.000234106
0.000231499
0.000228285
0.00022437
0.000219434
0.000213291
0.000204993
0.000194382
0.000180983
0.000164305
0.000143751
0.000118534
8.83442e-05
5.24361e-05
1.4357e-05
-2.42814e-05
-4.61938e-05
-5.28571e-05
-4.78508e-05
-3.71047e-05
-2.36625e-05
-1.16958e-05
3.46181e-09
4.11718e-06
8.12517e-06
1.29069e-05
2.15911e-05
3.22872e-05
4.15291e-05
4.67082e-05
5.03338e-05
5.2743e-05
5.48138e-05
5.63529e-05
5.765e-05
5.86792e-05
5.95662e-05
6.02945e-05
6.09077e-05
6.14051e-05
6.18338e-05
6.22033e-05
6.25276e-05
6.28174e-05
6.30803e-05
6.33246e-05
6.356e-05
6.3793e-05
6.40393e-05
6.43042e-05
6.4589e-05
6.4897e-05
6.52277e-05
6.558e-05
6.59489e-05
6.63281e-05
6.67061e-05
6.70706e-05
6.74064e-05
6.77224e-05
6.8003e-05
6.82529e-05
6.84471e-05
6.8609e-05
6.8678e-05
6.87444e-05
6.86361e-05
6.86479e-05
6.81966e-05
6.82155e-05
6.81033e-05
6.82346e-05
6.83878e-05
6.87019e-05
6.90845e-05
6.95866e-05
7.01672e-05
7.08434e-05
7.15959e-05