/*--------------------------------*- C++ -*----------------------------------*\
  =========                 |
  \\      /  F ield         | OpenFOAM: The Open Source CFD Toolbox
   \\    /   O peration     | Website:  https://openfoam.org
    \\  /    A nd           | Version:  7
     \\/     M anipulation  |
\*---------------------------------------------------------------------------*/
FoamFile
{
    version     2.0;
    format      ascii;
    class       surfaceScalarField;
    location    "25000";
    object      phi;
}
// * * * * * * * * * * * * * * * * * * * * * * * * * * * * * * * * * * * * * //

dimensions      [0 3 -1 0 0 0 0];

internalField   nonuniform List<scalar> 
63640
(
1.65002e-08
-2.44908e-09
1.8086e-08
-1.58587e-09
1.61335e-08
1.95249e-09
1.02521e-08
5.88141e-09
2.43566e-09
7.81649e-09
-3.54631e-09
5.98196e-09
-5.85888e-09
2.31257e-09
-5.81961e-09
-3.92709e-11
-4.98888e-09
-8.30726e-10
-4.19859e-09
-7.90293e-10
-3.57027e-09
-6.28321e-10
-3.07551e-09
-4.94756e-10
-2.69218e-09
-3.8333e-10
-2.38395e-09
-3.08236e-10
-2.12627e-09
-2.57681e-10
-1.91084e-09
-2.15425e-10
-1.74586e-09
-1.64979e-10
-1.6341e-09
-1.11764e-10
-1.56281e-09
-7.12874e-11
-1.52542e-09
-3.73916e-11
-1.52441e-09
-1.00636e-12
-1.56028e-09
3.5864e-11
-1.636e-09
7.57198e-11
-1.75289e-09
1.16891e-10
-1.91016e-09
1.57275e-10
-2.10207e-09
1.9191e-10
-2.3128e-09
2.10724e-10
-2.53258e-09
2.19788e-10
-2.7588e-09
2.26216e-10
-2.9848e-09
2.26001e-10
-3.20169e-09
2.16892e-10
-3.39929e-09
1.97602e-10
-3.56671e-09
1.67419e-10
-3.69431e-09
1.276e-10
-3.77967e-09
8.53587e-11
-3.83443e-09
5.47594e-11
-3.86549e-09
3.1054e-11
-3.85792e-09
-7.56133e-12
-3.80269e-09
-5.52383e-11
-3.70333e-09
-9.93558e-11
-3.56298e-09
-1.40351e-10
-3.40858e-09
-1.54402e-10
-3.25913e-09
-1.49444e-10
-3.19153e-09
-6.76045e-11
-3.22222e-09
3.06953e-11
-3.62841e-09
4.06188e-10
-4.96155e-09
1.33314e-09
-6.32464e-09
1.36309e-09
-7.55357e-09
1.22893e-09
-8.69405e-09
1.14049e-09
-9.7315e-09
1.03744e-09
-1.06778e-08
9.46265e-10
-1.1537e-08
8.5925e-10
-1.2319e-08
7.81976e-10
-1.30311e-08
7.12089e-10
-1.3681e-08
6.4995e-10
-1.42753e-08
5.94251e-10
-1.48196e-08
5.4429e-10
-1.53187e-08
4.99174e-10
-1.57769e-08
4.58169e-10
-1.61976e-08
4.2065e-10
-1.65836e-08
3.8603e-10
-1.69375e-08
3.5387e-10
-1.72612e-08
3.23754e-10
-1.75566e-08
2.95388e-10
-1.78251e-08
2.685e-10
-1.8068e-08
2.42908e-10
-1.82865e-08
2.18447e-10
-1.84815e-08
1.95002e-10
-1.86539e-08
1.72466e-10
-1.88047e-08
1.50743e-10
-1.89344e-08
1.29748e-10
-1.90438e-08
1.09403e-10
-1.91335e-08
8.96541e-11
-1.92039e-08
7.0449e-11
-1.92557e-08
5.17582e-11
-1.92892e-08
3.3555e-11
-1.93051e-08
1.58281e-11
-1.93036e-08
-1.42794e-12
-1.92854e-08
-1.8217e-11
-1.92509e-08
-3.45367e-11
-1.92005e-08
-5.03965e-11
-1.91347e-08
-6.57732e-11
-1.9054e-08
-8.06758e-11
-1.89589e-08
-9.51057e-11
-1.88499e-08
-1.09019e-10
-1.87275e-08
-1.22438e-10
-1.85921e-08
-1.35358e-10
-1.84444e-08
-1.47721e-10
-1.82848e-08
-1.5958e-10
-1.81139e-08
-1.70873e-10
-1.79323e-08
-1.81638e-10
-1.77404e-08
-1.91889e-10
-1.75389e-08
-2.01557e-10
-1.73281e-08
-2.10722e-10
-1.71087e-08
-2.19398e-10
-1.68812e-08
-2.27508e-10
-1.66461e-08
-2.35147e-10
-1.64038e-08
-2.42327e-10
-1.61548e-08
-2.48967e-10
-1.58996e-08
-2.55166e-10
-1.56387e-08
-2.60937e-10
-1.53725e-08
-2.66187e-10
-1.51015e-08
-2.71019e-10
-1.4826e-08
-2.75441e-10
-1.45467e-08
-2.79346e-10
-1.42639e-08
-2.82844e-10
-1.39779e-08
-2.85937e-10
-1.36894e-08
-2.88522e-10
-1.33987e-08
-2.90715e-10
-1.31062e-08
-2.92517e-10
-1.28123e-08
-2.93862e-10
-1.25174e-08
-2.94878e-10
-1.2222e-08
-2.95443e-10
-1.19263e-08
-2.95674e-10
-1.16307e-08
-2.95595e-10
-1.13356e-08
-2.95105e-10
-1.10413e-08
-2.94323e-10
-1.0748e-08
-2.93271e-10
-1.04562e-08
-2.91852e-10
-1.0166e-08
-2.90183e-10
-9.87769e-09
-2.88288e-10
-9.59161e-09
-2.86074e-10
-9.30796e-09
-2.83653e-10
-9.02691e-09
-2.81048e-10
-8.74875e-09
-2.78157e-10
-8.47367e-09
-2.75083e-10
-8.20185e-09
-2.71823e-10
-7.93357e-09
-2.68274e-10
-7.66907e-09
-2.64508e-10
-7.40853e-09
-2.60537e-10
-7.15231e-09
-2.56224e-10
-6.9006e-09
-2.51709e-10
-6.65372e-09
-2.46872e-10
-6.41193e-09
-2.41791e-10
-6.17558e-09
-2.36358e-10
-5.94488e-09
-2.307e-10
-5.72032e-09
-2.24554e-10
-5.5021e-09
-2.18221e-10
-5.29093e-09
-2.11171e-10
-5.08698e-09
-2.03949e-10
-4.89139e-09
-1.95587e-10
-4.70427e-09
-1.87126e-10
-4.52755e-09
-1.7672e-10
-4.36115e-09
-1.66398e-10
-4.2084e-09
-1.52746e-10
-4.06879e-09
-1.39609e-10
-3.94806e-09
-1.20736e-10
-3.84436e-09
-1.03699e-10
-3.76766e-09
-7.66944e-11
-3.71083e-09
-5.68367e-11
-3.68948e-09
-2.13458e-11
-3.65706e-09
-3.24179e-11
-3.67883e-09
2.17662e-11
-3.67842e-09
-4.13589e-13
-3.68585e-09
7.42855e-12
-3.64083e-09
-4.50135e-11
-3.5421e-09
-9.87283e-11
-3.37806e-09
-1.64044e-10
-3.15382e-09
-2.24237e-10
-2.86369e-09
-2.90137e-10
-2.51097e-09
-3.52711e-10
-2.09151e-09
-4.19463e-10
-1.60451e-09
-4.86998e-10
-1.04099e-09
-5.63526e-10
-3.89511e-10
-6.51477e-10
3.45652e-10
-7.35163e-10
1.15956e-09
-8.13909e-10
2.05032e-09
-8.90758e-10
3.01245e-09
-9.6213e-10
4.03974e-09
-1.02729e-09
5.11775e-09
-1.07801e-09
6.22464e-09
-1.10691e-09
7.30486e-09
-1.0802e-09
8.32616e-09
-1.02129e-09
9.2864e-09
-9.60248e-10
1.02426e-08
-9.56196e-10
1.11922e-08
-9.49632e-10
1.2155e-08
-9.62782e-10
1.31604e-08
-1.00542e-09
1.42435e-08
-1.08316e-09
1.54615e-08
-1.21794e-09
1.69325e-08
-1.47087e-09
1.8873e-08
-1.94056e-09
2.12792e-08
-2.40631e-09
2.41651e-08
-2.88584e-09
2.76378e-08
-3.47265e-09
3.18783e-08
-4.24046e-09
3.70985e-08
-5.22024e-09
4.35582e-08
-6.45973e-09
5.12321e-08
-7.67391e-09
5.94048e-08
-8.17269e-09
6.53404e-08
-5.93561e-09
6.36083e-08
1.73207e-09
5.43187e-08
9.28964e-09
4.17807e-08
1.2538e-08
2.98367e-08
1.1944e-08
2.07194e-08
9.11729e-09
1.52839e-08
5.43549e-09
1.23995e-09
5.43266e-08
-9.58765e-09
5.92531e-08
-6.51238e-09
5.31214e-08
8.08419e-09
3.4592e-08
2.44107e-08
9.54825e-09
3.28603e-08
-1.0121e-08
2.56512e-08
-1.82101e-08
1.04017e-08
-1.84305e-08
1.81181e-10
-1.59225e-08
-3.33869e-09
-1.34315e-08
-3.28137e-09
-1.14498e-08
-2.60994e-09
-9.87561e-09
-2.06899e-09
-8.65705e-09
-1.60189e-09
-7.67251e-09
-1.29277e-09
-6.85157e-09
-1.07862e-09
-6.16438e-09
-9.02611e-10
-5.63945e-09
-6.89911e-10
-5.28313e-09
-4.68079e-10
-5.05745e-09
-2.96974e-10
-4.94076e-09
-1.54078e-10
-4.94098e-09
-7.88242e-13
-5.05987e-09
1.54759e-10
-5.30674e-09
3.22586e-10
-5.68558e-09
4.95732e-10
-6.19387e-09
6.65561e-10
-6.81229e-09
8.10336e-10
-7.49123e-09
8.89661e-10
-8.19954e-09
9.28102e-10
-8.92827e-09
9.5494e-10
-9.65652e-09
9.54258e-10
-1.03559e-08
9.16308e-10
-1.09944e-08
8.36098e-10
-1.15375e-08
7.10495e-10
-1.19552e-08
5.45337e-10
-1.22402e-08
3.70349e-10
-1.24295e-08
2.44042e-10
-1.25422e-08
1.43684e-10
-1.25343e-08
-1.54051e-11
-1.23746e-08
-2.14967e-10
-1.20781e-08
-3.95884e-10
-1.16489e-08
-5.69529e-10
-1.11846e-08
-6.1863e-10
-1.0727e-08
-6.07094e-10
-1.05598e-08
-2.34808e-10
-1.0679e-08
1.49876e-10
-1.21087e-08
1.83589e-09
-1.632e-08
5.54443e-09
-2.07181e-08
5.76126e-09
-2.46278e-08
5.13864e-09
-2.82824e-08
4.79503e-09
-3.15825e-08
4.3376e-09
-3.46021e-08
3.96581e-09
-3.73337e-08
3.59082e-09
-3.98228e-08
3.27112e-09
-4.20848e-08
2.97404e-09
-4.41501e-08
2.71528e-09
-4.6036e-08
2.48011e-09
-4.7763e-08
2.27135e-09
-4.93453e-08
2.0815e-09
-5.0797e-08
1.90983e-09
-5.21285e-08
1.75219e-09
-5.33496e-08
1.60709e-09
-5.44678e-08
1.47206e-09
-5.54898e-08
1.34577e-09
-5.64211e-08
1.22671e-09
-5.72666e-08
1.11393e-09
-5.80302e-08
1.00655e-09
-5.87157e-08
9.03944e-10
-5.93263e-08
8.05593e-10
-5.98649e-08
7.11073e-10
-6.03341e-08
6.19969e-10
-6.07363e-08
5.31928e-10
-6.10735e-08
4.46622e-10
-6.13477e-08
3.63831e-10
-6.15606e-08
2.83332e-10
-6.17138e-08
2.05004e-10
-6.1809e-08
1.28734e-10
-6.18477e-08
5.44777e-11
-6.18313e-08
-1.77907e-11
-6.17614e-08
-8.80859e-11
-6.16396e-08
-1.56401e-10
-6.14672e-08
-2.22775e-10
-6.12458e-08
-2.87109e-10
-6.09771e-08
-3.49447e-10
-6.06624e-08
-4.09793e-10
-6.03034e-08
-4.6796e-10
-5.99018e-08
-5.2405e-10
-5.94592e-08
-5.78043e-10
-5.89772e-08
-6.29688e-10
-5.84575e-08
-6.79224e-10
-5.7902e-08
-7.26381e-10
-5.73124e-08
-7.7132e-10
-5.66901e-08
-8.14109e-10
-5.60372e-08
-8.54453e-10
-5.53553e-08
-8.92689e-10
-5.46458e-08
-9.28875e-10
-5.39106e-08
-9.62692e-10
-5.31512e-08
-9.94533e-10
-5.23691e-08
-1.02446e-09
-5.15659e-08
-1.05211e-09
-5.07432e-08
-1.07793e-09
-4.99022e-08
-1.10195e-09
-4.90446e-08
-1.12378e-09
-4.81717e-08
-1.14387e-09
-4.72849e-08
-1.16224e-09
-4.63858e-08
-1.17845e-09
-4.54757e-08
-1.19295e-09
-4.45559e-08
-1.20576e-09
-4.3628e-08
-1.21644e-09
-4.26932e-08
-1.22549e-09
-4.17528e-08
-1.23289e-09
-4.08083e-08
-1.23839e-09
-3.98607e-08
-1.24251e-09
-3.89114e-08
-1.24474e-09
-3.79614e-08
-1.24558e-09
-3.70119e-08
-1.24512e-09
-3.60641e-08
-1.24294e-09
-3.51189e-08
-1.23953e-09
-3.41771e-08
-1.235e-09
-3.32401e-08
-1.22893e-09
-3.23084e-08
-1.22181e-09
-3.1383e-08
-1.21375e-09
-3.04647e-08
-1.20435e-09
-2.95543e-08
-1.19408e-09
-2.86523e-08
-1.18304e-09
-2.77596e-08
-1.1708e-09
-2.68769e-08
-1.15777e-09
-2.60048e-08
-1.14399e-09
-2.51441e-08
-1.12896e-09
-2.42956e-08
-1.11304e-09
-2.34599e-08
-1.09622e-09
-2.26381e-08
-1.07803e-09
-2.18309e-08
-1.05889e-09
-2.10392e-08
-1.03852e-09
-2.02641e-08
-1.01694e-09
-1.95063e-08
-9.94138e-10
-1.8767e-08
-9.70017e-10
-1.80472e-08
-9.44342e-10
-1.73483e-08
-9.17168e-10
-1.66715e-08
-8.87939e-10
-1.60188e-08
-8.56635e-10
-1.5392e-08
-8.22357e-10
-1.4794e-08
-7.85142e-10
-1.42276e-08
-7.43142e-10
-1.36971e-08
-6.96842e-10
-1.32071e-08
-6.42801e-10
-1.27643e-08
-5.82429e-10
-1.23757e-08
-5.09342e-10
-1.20507e-08
-4.28649e-10
-1.18009e-08
-3.26518e-10
-1.16306e-08
-2.27173e-10
-1.15544e-08
-9.75002e-11
-1.14736e-08
-1.13243e-10
-1.15407e-08
8.88927e-11
-1.15535e-08
1.23913e-11
-1.15597e-08
1.36157e-11
-1.14129e-08
-1.91773e-10
-1.10797e-08
-4.31936e-10
-1.05474e-08
-6.96408e-10
-9.81473e-09
-9.56871e-10
-8.87748e-09
-1.22739e-09
-7.73652e-09
-1.49367e-09
-6.38624e-09
-1.76974e-09
-4.8192e-09
-2.05404e-09
-3.01011e-09
-2.37262e-09
-9.22664e-10
-2.73892e-09
1.42756e-09
-3.08539e-09
4.02638e-09
-3.41273e-09
6.86519e-09
-3.72957e-09
9.92947e-09
-4.02641e-09
1.31955e-08
-4.29336e-09
1.6623e-08
-4.50549e-09
2.0136e-08
-4.61988e-09
2.35709e-08
-4.5151e-09
2.68174e-08
-4.26781e-09
2.98796e-08
-4.02243e-09
3.29185e-08
-3.99511e-09
3.59417e-08
-3.97283e-09
3.90034e-08
-4.02448e-09
4.2196e-08
-4.19799e-09
4.56345e-08
-4.52175e-09
4.94885e-08
-5.07191e-09
5.41448e-08
-6.12717e-09
6.02401e-08
-8.03581e-09
6.78121e-08
-9.97838e-09
7.68937e-08
-1.19675e-08
8.78207e-08
-1.43995e-08
1.01155e-07
-1.75746e-08
1.17548e-07
-2.16137e-08
1.37823e-07
-2.67342e-08
1.61859e-07
-3.17104e-08
1.87598e-07
-3.39121e-08
2.06481e-07
-2.48183e-08
2.02446e-07
5.76737e-09
1.74622e-07
3.71135e-08
1.35914e-07
5.12456e-08
9.8305e-08
4.95534e-08
6.91944e-08
3.82279e-08
5.14897e-08
2.31401e-08
5.54169e-09
1.0002e-07
-2.14242e-08
1.08567e-07
-1.50593e-08
9.77628e-08
1.88888e-08
6.48928e-08
5.72808e-08
1.98433e-08
7.79097e-08
-1.63136e-08
6.18081e-08
-3.18811e-08
2.59692e-08
-3.2843e-08
1.14301e-09
-2.85653e-08
-7.61637e-09
-2.41567e-08
-7.68994e-09
-2.06328e-08
-6.13387e-09
-1.78173e-08
-4.88451e-09
-1.56351e-08
-3.78408e-09
-1.3867e-08
-3.06082e-09
-1.23936e-08
-2.55206e-09
-1.11593e-08
-2.13695e-09
-1.02169e-08
-1.63226e-09
-9.57662e-09
-1.10837e-09
-9.17268e-09
-7.00911e-10
-8.96582e-09
-3.60946e-10
-8.96997e-09
3.36362e-12
-9.18852e-09
3.73307e-10
-9.63785e-09
7.71923e-10
-1.03249e-08
1.18282e-09
-1.12451e-08
1.58568e-09
-1.23628e-08
1.92803e-09
-1.35898e-08
2.11667e-09
-1.48701e-08
2.20844e-09
-1.6187e-08
2.27187e-09
-1.75034e-08
2.27058e-09
-1.87683e-08
2.18121e-09
-1.99246e-08
1.99246e-09
-2.0911e-08
1.69691e-09
-2.16749e-08
1.30918e-09
-2.22035e-08
8.9899e-10
-2.2563e-08
6.03511e-10
-2.27851e-08
3.65842e-10
-2.27949e-08
-5.64487e-12
-2.25348e-08
-4.75112e-10
-2.20341e-08
-8.96494e-10
-2.12975e-08
-1.30615e-09
-2.05069e-08
-1.40922e-09
-1.9727e-08
-1.38703e-09
-1.949e-08
-4.71821e-10
-1.97669e-08
4.26833e-10
-2.24869e-08
4.55584e-09
-3.00158e-08
1.30734e-08
-3.7937e-08
1.36824e-08
-4.49396e-08
1.21412e-08
-5.14959e-08
1.13513e-08
-5.7397e-08
1.02387e-08
-6.27995e-08
9.36824e-09
-6.76778e-08
8.46919e-09
-7.21236e-08
7.71686e-09
-7.61591e-08
7.00955e-09
-7.98431e-08
6.39926e-09
-8.32042e-08
5.84127e-09
-8.62811e-08
5.34829e-09
-8.90982e-08
4.89857e-09
-9.16812e-08
4.49285e-09
-9.40488e-08
4.11971e-09
-9.62183e-08
3.77661e-09
-9.82033e-08
3.45708e-09
-1.00016e-07
3.15836e-09
-1.01666e-07
2.87667e-09
-1.03162e-07
2.60989e-09
-1.04511e-07
2.35586e-09
-1.0572e-07
2.11318e-09
-1.06795e-07
1.88055e-09
-1.07741e-07
1.65701e-09
-1.08563e-07
1.44156e-09
-1.09264e-07
1.23338e-09
-1.09849e-07
1.03168e-09
-1.10321e-07
8.35959e-10
-1.10684e-07
6.45683e-10
-1.10939e-07
4.60567e-10
-1.11091e-07
2.80348e-10
-1.11141e-07
1.04919e-10
-1.11093e-07
-6.57798e-11
-1.1095e-07
-2.31784e-10
-1.10713e-07
-3.9308e-10
-1.10386e-07
-5.49766e-10
-1.09972e-07
-7.01595e-10
-1.09472e-07
-8.48689e-10
-1.08891e-07
-9.91054e-10
-1.08231e-07
-1.12824e-09
-1.07494e-07
-1.26051e-09
-1.06685e-07
-1.38781e-09
-1.05805e-07
-1.50953e-09
-1.04858e-07
-1.62627e-09
-1.03847e-07
-1.73738e-09
-1.02775e-07
-1.84324e-09
-1.01645e-07
-1.94402e-09
-1.0046e-07
-2.03902e-09
-9.9224e-08
-2.12904e-09
-9.79386e-08
-2.21421e-09
-9.66075e-08
-2.29379e-09
-9.52334e-08
-2.3687e-09
-9.38187e-08
-2.43908e-09
-9.23667e-08
-2.5041e-09
-9.08799e-08
-2.56477e-09
-8.93606e-08
-2.62122e-09
-8.78119e-08
-2.67249e-09
-8.62361e-08
-2.71965e-09
-8.46357e-08
-2.76274e-09
-8.30134e-08
-2.80073e-09
-8.13717e-08
-2.83468e-09
-7.97128e-08
-2.86464e-09
-7.80396e-08
-2.88958e-09
-7.63545e-08
-2.91066e-09
-7.46595e-08
-2.92787e-09
-7.29573e-08
-2.94057e-09
-7.12498e-08
-2.95004e-09
-6.95395e-08
-2.95505e-09
-6.78283e-08
-2.95676e-09
-6.6118e-08
-2.9554e-09
-6.44109e-08
-2.95e-09
-6.27088e-08
-2.9417e-09
-6.1013e-08
-2.93074e-09
-5.93258e-08
-2.91614e-09
-5.76486e-08
-2.89908e-09
-5.59825e-08
-2.87979e-09
-5.43296e-08
-2.85731e-09
-5.26909e-08
-2.8328e-09
-5.10675e-08
-2.80644e-09
-4.9461e-08
-2.77725e-09
-4.78726e-08
-2.7462e-09
-4.63032e-08
-2.71335e-09
-4.47546e-08
-2.67752e-09
-4.32281e-08
-2.63964e-09
-4.17247e-08
-2.59955e-09
-4.02465e-08
-2.55627e-09
-3.87947e-08
-2.51065e-09
-3.7371e-08
-2.46226e-09
-3.59771e-08
-2.41078e-09
-3.46146e-08
-2.35668e-09
-3.32856e-08
-2.29903e-09
-3.19917e-08
-2.23826e-09
-3.07357e-08
-2.17312e-09
-2.95195e-08
-2.10418e-09
-2.83473e-08
-2.0288e-09
-2.72213e-08
-1.94839e-09
-2.61482e-08
-1.85817e-09
-2.5131e-08
-1.76043e-09
-2.41806e-08
-1.64722e-09
-2.33007e-08
-1.52273e-09
-2.25095e-08
-1.3736e-09
-2.18116e-08
-1.20726e-09
-2.12348e-08
-1.00547e-09
-2.07851e-08
-7.76198e-10
-2.049e-08
-5.22246e-10
-2.03504e-08
-2.37096e-10
-2.02292e-08
-2.34461e-10
-2.03527e-08
2.12422e-10
-2.03865e-08
4.61468e-11
-2.03796e-08
6.77952e-12
-2.01079e-08
-4.63523e-10
-1.94913e-08
-1.04853e-09
-1.8525e-08
-1.66273e-09
-1.71946e-08
-2.28727e-09
-1.55023e-08
-2.91967e-09
-1.34427e-08
-3.55327e-09
-1.10112e-08
-4.2012e-09
-8.19064e-09
-4.87464e-09
-4.93774e-09
-5.62551e-09
-1.18796e-09
-6.48871e-09
3.02941e-09
-7.30275e-09
7.69008e-09
-8.07339e-09
1.27767e-08
-8.81616e-09
1.82651e-08
-9.51486e-09
2.41101e-08
-1.01383e-08
3.02431e-08
-1.06385e-08
3.65236e-08
-1.09004e-08
4.26702e-08
-1.06617e-08
4.84814e-08
-1.0079e-08
5.39726e-08
-9.51363e-09
5.94144e-08
-9.43693e-09
6.48326e-08
-9.39101e-09
7.03178e-08
-9.50973e-09
7.6034e-08
-9.91418e-09
8.21894e-08
-1.06771e-08
8.90784e-08
-1.1961e-08
9.73989e-08
-1.44476e-08
1.08241e-07
-1.88784e-08
1.21712e-07
-2.34492e-08
1.37861e-07
-2.81161e-08
1.57275e-07
-3.38131e-08
1.80933e-07
-4.12329e-08
2.09967e-07
-5.06473e-08
2.45805e-07
-6.25729e-08
2.88199e-07
-7.4104e-08
3.33659e-07
-7.93721e-08
3.67329e-07
-5.84889e-08
3.61961e-07
1.11357e-08
3.14777e-07
8.42976e-08
2.47434e-07
1.18589e-07
1.80904e-07
1.16083e-07
1.28737e-07
9.03946e-08
9.65183e-08
5.5359e-08
1.3876e-08
1.55e-07
-3.78844e-08
1.6737e-07
-2.74287e-08
1.51388e-07
3.48698e-08
1.02343e-07
1.06327e-07
3.41885e-08
1.46064e-07
-2.17084e-08
1.17705e-07
-4.68149e-08
5.10757e-08
-4.91858e-08
3.51388e-09
-4.30821e-08
-1.37201e-08
-3.6538e-08
-1.4234e-08
-3.12674e-08
-1.14045e-08
-2.70368e-08
-9.11507e-09
-2.37497e-08
-7.07117e-09
-2.1081e-08
-5.72954e-09
-1.88564e-08
-4.77661e-09
-1.69922e-08
-4.00118e-09
-1.55689e-08
-3.05552e-09
-1.46016e-08
-2.07568e-09
-1.39935e-08
-1.309e-09
-1.36853e-08
-6.69231e-10
-1.36974e-08
1.5468e-11
-1.40352e-08
7.11124e-10
-1.47231e-08
1.45981e-09
-1.57712e-08
2.23097e-09
-1.71721e-08
2.98652e-09
-1.88713e-08
3.62724e-09
-2.07364e-08
3.98185e-09
-2.26829e-08
4.15492e-09
-2.46847e-08
4.27361e-09
-2.66858e-08
4.27171e-09
-2.86099e-08
4.10529e-09
-3.03713e-08
3.75392e-09
-3.18784e-08
3.20396e-09
-3.30532e-08
2.48396e-09
-3.38778e-08
1.72358e-09
-3.44507e-08
1.17643e-09
-3.4818e-08
7.33196e-10
-3.48699e-08
4.62061e-11
-3.452e-08
-8.25036e-10
-3.38133e-08
-1.60312e-09
-3.27573e-08
-2.36219e-09
-3.16279e-08
-2.53866e-09
-3.05239e-08
-2.49097e-09
-3.02533e-08
-7.42416e-10
-3.0796e-08
9.69491e-10
-3.50979e-08
8.85781e-09
-4.64588e-08
2.44342e-08
-5.84277e-08
2.56513e-08
-6.89886e-08
2.27022e-08
-7.88673e-08
2.12301e-08
-8.77441e-08
1.91156e-08
-9.58655e-08
1.74896e-08
-1.03191e-07
1.57951e-08
-1.09864e-07
1.43896e-08
-1.15917e-07
1.3062e-08
-1.21439e-07
1.19217e-08
-1.26474e-07
1.08765e-08
-1.31081e-07
9.95523e-09
-1.35296e-07
9.11364e-09
-1.39159e-07
8.35521e-09
-1.42696e-07
7.65717e-09
-1.45935e-07
7.01564e-09
-1.48896e-07
6.41795e-09
-1.51597e-07
5.85931e-09
-1.54053e-07
5.33244e-09
-1.56276e-07
4.83352e-09
-1.58279e-07
4.35843e-09
-1.6007e-07
3.90463e-09
-1.61659e-07
3.46964e-09
-1.63054e-07
3.05168e-09
-1.64261e-07
2.64887e-09
-1.65288e-07
2.25969e-09
-1.66139e-07
1.88268e-09
-1.6682e-07
1.51688e-09
-1.67335e-07
1.16131e-09
-1.6769e-07
8.15443e-10
-1.67889e-07
4.78783e-10
-1.67935e-07
1.51133e-10
-1.67833e-07
-1.67621e-10
-1.67587e-07
-4.77545e-10
-1.67202e-07
-7.78618e-10
-1.6668e-07
-1.07103e-09
-1.66028e-07
-1.35431e-09
-1.65248e-07
-1.6287e-09
-1.64344e-07
-1.89422e-09
-1.63323e-07
-2.15002e-09
-1.62187e-07
-2.39659e-09
-1.60941e-07
-2.63385e-09
-1.59589e-07
-2.86068e-09
-1.58138e-07
-3.07817e-09
-1.5659e-07
-3.28512e-09
-1.54951e-07
-3.48227e-09
-1.53225e-07
-3.66992e-09
-1.51417e-07
-3.84675e-09
-1.49532e-07
-4.01429e-09
-1.47573e-07
-4.17279e-09
-1.45546e-07
-4.32081e-09
-1.43455e-07
-4.46013e-09
-1.41303e-07
-4.59101e-09
-1.39095e-07
-4.71185e-09
-1.36835e-07
-4.82459e-09
-1.34527e-07
-4.92943e-09
-1.32175e-07
-5.02461e-09
-1.29783e-07
-5.1121e-09
-1.27353e-07
-5.19201e-09
-1.24892e-07
-5.26238e-09
-1.22401e-07
-5.32522e-09
-1.19885e-07
-5.38063e-09
-1.17348e-07
-5.42664e-09
-1.14793e-07
-5.46547e-09
-1.12224e-07
-5.49709e-09
-1.09644e-07
-5.52028e-09
-1.07057e-07
-5.53745e-09
-1.04466e-07
-5.54629e-09
-1.01873e-07
-5.54898e-09
-9.92829e-08
-5.54597e-09
-9.66975e-08
-5.53538e-09
-9.41198e-08
-5.51939e-09
-9.15521e-08
-5.49845e-09
-8.89975e-08
-5.47071e-09
-8.64582e-08
-5.43836e-09
-8.39362e-08
-5.40186e-09
-8.14341e-08
-5.3594e-09
-7.89537e-08
-5.31314e-09
-7.64968e-08
-5.26341e-09
-7.40657e-08
-5.20837e-09
-7.1662e-08
-5.14985e-09
-6.92874e-08
-5.08795e-09
-6.69445e-08
-5.02046e-09
-6.4635e-08
-4.94913e-09
-6.23609e-08
-4.87363e-09
-6.0125e-08
-4.7922e-09
-5.79293e-08
-4.70628e-09
-5.57763e-08
-4.61531e-09
-5.36687e-08
-4.51833e-09
-5.16087e-08
-4.41668e-09
-4.95998e-08
-4.30801e-09
-4.76441e-08
-4.19396e-09
-4.57462e-08
-4.07096e-09
-4.39086e-08
-3.94182e-09
-4.21383e-08
-3.79913e-09
-4.04377e-08
-3.64894e-09
-3.88183e-08
-3.47761e-09
-3.72829e-08
-3.29579e-09
-3.58502e-08
-3.0799e-09
-3.45233e-08
-2.84966e-09
-3.3333e-08
-2.56391e-09
-3.22818e-08
-2.25842e-09
-3.14177e-08
-1.86953e-09
-3.0742e-08
-1.45196e-09
-3.03071e-08
-9.57129e-10
-3.01e-08
-4.44166e-10
-2.99449e-08
-3.89636e-10
-3.01436e-08
4.11115e-10
-3.02023e-08
1.04907e-10
-3.01712e-08
-2.43342e-11
-2.97426e-08
-8.92104e-10
-2.87876e-08
-2.00358e-09
-2.73095e-08
-3.14078e-09
-2.52806e-08
-4.31619e-09
-2.271e-08
-5.49031e-09
-1.95855e-08
-6.67771e-09
-1.59037e-08
-7.88302e-09
-1.1636e-08
-9.14229e-09
-6.71866e-09
-1.05429e-08
-1.05583e-09
-1.21515e-08
5.30713e-09
-1.36657e-08
1.23341e-08
-1.51003e-08
1.99975e-08
-1.64796e-08
2.82621e-08
-1.77794e-08
3.70579e-08
-1.89341e-08
4.62839e-08
-1.98646e-08
5.57267e-08
-2.03431e-08
6.49734e-08
-1.99083e-08
7.37215e-08
-1.88272e-08
8.19985e-08
-1.77906e-08
9.01951e-08
-1.76335e-08
9.8359e-08
-1.75549e-08
1.06622e-07
-1.77731e-08
1.15229e-07
-1.85209e-08
1.24492e-07
-1.99399e-08
1.34849e-07
-2.23178e-08
1.47342e-07
-2.6941e-08
1.63565e-07
-3.51017e-08
1.83711e-07
-4.35946e-08
2.0785e-07
-5.22552e-08
2.36842e-07
-6.28051e-08
2.7212e-07
-7.65113e-08
3.15335e-07
-9.3862e-08
3.68559e-07
-1.15797e-07
4.31405e-07
-1.36951e-07
4.98839e-07
-1.46806e-07
5.4943e-07
-1.09079e-07
5.44033e-07
1.6532e-08
4.77068e-07
1.51263e-07
3.78779e-07
2.16879e-07
2.79972e-07
2.1489e-07
2.014e-07
1.68967e-07
1.52148e-07
1.04611e-07
2.74839e-08
2.20897e-07
-5.86979e-08
2.37211e-07
-4.37426e-08
2.15527e-07
5.65538e-08
1.48353e-07
1.735e-07
5.36603e-08
2.40757e-07
-2.57527e-08
1.97118e-07
-6.29152e-08
8.82383e-08
-6.75843e-08
8.1829e-09
-5.96525e-08
-2.16519e-08
-5.07532e-08
-2.31333e-08
-4.35187e-08
-1.8639e-08
-3.76856e-08
-1.49481e-08
-3.31394e-08
-1.16174e-08
-2.94414e-08
-9.42756e-09
-2.63571e-08
-7.8609e-09
-2.37719e-08
-6.5864e-09
-2.17978e-08
-5.02958e-09
-2.04562e-08
-3.41726e-09
-1.96159e-08
-2.14931e-09
-1.91946e-08
-1.0905e-09
-1.92202e-08
4.10669e-11
-1.97004e-08
1.19127e-09
-2.06683e-08
2.42775e-09
-2.21378e-08
3.7004e-09
-2.40973e-08
4.94609e-09
-2.64708e-08
6.00073e-09
-2.90757e-08
6.58669e-09
-3.17943e-08
6.87357e-09
-3.45896e-08
7.06895e-09
-3.73845e-08
7.06657e-09
-4.00734e-08
6.79422e-09
-4.25387e-08
6.21915e-09
-4.46544e-08
5.31972e-09
-4.6315e-08
4.14454e-09
-4.74974e-08
2.90597e-09
-4.83363e-08
2.01533e-09
-4.88935e-08
1.29037e-09
-4.90204e-08
1.73131e-10
-4.85994e-08
-1.24601e-09
-4.76925e-08
-2.51006e-09
-4.63131e-08
-3.74161e-09
-4.4841e-08
-4.01072e-09
-4.34236e-08
-3.90835e-09
-4.31723e-08
-9.9372e-10
-4.41214e-08
1.91858e-09
-5.03505e-08
1.50869e-08
-6.61148e-08
4.01986e-08
-8.27093e-08
4.22458e-08
-9.73418e-08
3.73346e-08
-1.11003e-07
3.48912e-08
-1.23264e-07
3.1377e-08
-1.3447e-07
2.86948e-08
-1.44569e-07
2.58945e-08
-1.53761e-07
2.35814e-08
-1.62093e-07
2.13939e-08
-1.6969e-07
1.9519e-08
-1.76613e-07
1.77993e-08
-1.82943e-07
1.6285e-08
-1.8873e-07
1.49011e-08
-1.94029e-07
1.36545e-08
-1.98879e-07
1.25068e-08
-2.03316e-07
1.14522e-08
-2.07367e-07
1.04695e-08
-2.11059e-07
9.55104e-09
-2.14411e-07
8.68479e-09
-2.17442e-07
7.86457e-09
-2.20167e-07
7.08354e-09
-2.226e-07
6.33757e-09
-2.24753e-07
5.62257e-09
-2.26637e-07
4.93562e-09
-2.28262e-07
4.27361e-09
-2.29636e-07
3.63406e-09
-2.30768e-07
3.01459e-09
-2.31665e-07
2.41362e-09
-2.32333e-07
1.82956e-09
-2.32779e-07
1.26152e-09
-2.33009e-07
7.0871e-10
-2.33029e-07
1.70797e-10
-2.32844e-07
-3.524e-10
-2.32461e-07
-8.60997e-10
-2.31884e-07
-1.35497e-09
-2.31121e-07
-1.83463e-09
-2.30176e-07
-2.29918e-09
-2.29055e-07
-2.74909e-09
-2.27765e-07
-3.18435e-09
-2.26312e-07
-3.60355e-09
-2.24701e-07
-4.00757e-09
-2.22938e-07
-4.39625e-09
-2.21031e-07
-4.76773e-09
-2.18986e-07
-5.12386e-09
-2.16808e-07
-5.46264e-09
-2.14505e-07
-5.78532e-09
-2.12083e-07
-6.0924e-09
-2.09548e-07
-6.3817e-09
-2.06906e-07
-6.65573e-09
-2.04164e-07
-6.91494e-09
-2.01328e-07
-7.15693e-09
-1.98403e-07
-7.38464e-09
-1.95396e-07
-7.59849e-09
-1.92312e-07
-7.79587e-09
-1.89156e-07
-7.97994e-09
-1.85935e-07
-8.15107e-09
-1.82653e-07
-8.30632e-09
-1.79316e-07
-8.44896e-09
-1.75929e-07
-8.57916e-09
-1.72498e-07
-8.69369e-09
-1.69027e-07
-8.79587e-09
-1.65522e-07
-8.88589e-09
-1.61988e-07
-8.96047e-09
-1.5843e-07
-9.02327e-09
-1.54853e-07
-9.07427e-09
-1.51262e-07
-9.11144e-09
-1.47661e-07
-9.13873e-09
-1.44055e-07
-9.15237e-09
-1.40448e-07
-9.15593e-09
-1.36843e-07
-9.15014e-09
-1.33247e-07
-9.1319e-09
-1.29661e-07
-9.10483e-09
-1.2609e-07
-9.06962e-09
-1.22538e-07
-9.02326e-09
-1.19007e-07
-8.96933e-09
-1.155e-07
-8.90858e-09
-1.12021e-07
-8.83803e-09
-1.08573e-07
-8.76124e-09
-1.05158e-07
-8.67874e-09
-1.01779e-07
-8.58751e-09
-9.84382e-08
-8.4905e-09
-9.51382e-08
-8.38795e-09
-9.18825e-08
-8.27616e-09
-8.86736e-08
-8.15805e-09
-8.55142e-08
-8.03303e-09
-8.24081e-08
-7.89828e-09
-7.93583e-08
-7.75604e-09
-7.63681e-08
-7.60559e-09
-7.34413e-08
-7.44504e-09
-7.0581e-08
-7.27701e-09
-6.7792e-08
-7.09702e-09
-6.50774e-08
-6.90859e-09
-6.24436e-08
-6.70472e-09
-5.98939e-08
-6.49155e-09
-5.74383e-08
-6.2547e-09
-5.50801e-08
-6.00717e-09
-5.28354e-08
-5.72227e-09
-5.07079e-08
-5.42333e-09
-4.87242e-08
-5.06358e-09
-4.68876e-08
-4.6863e-09
-4.52425e-08
-4.20903e-09
-4.37902e-08
-3.71065e-09
-4.26005e-08
-3.05924e-09
-4.16707e-08
-2.38177e-09
-4.10803e-08
-1.54751e-09
-4.08028e-08
-7.21714e-10
-4.06236e-08
-5.68798e-10
-4.09205e-08
7.07945e-10
-4.10085e-08
1.92965e-10
-4.09381e-08
-9.47549e-11
-4.03139e-08
-1.51625e-09
-3.89561e-08
-3.36139e-09
-3.68771e-08
-5.21984e-09
-3.40354e-08
-7.1579e-09
-3.04475e-08
-9.07822e-09
-2.60946e-08
-1.10306e-08
-2.09739e-08
-1.30037e-08
-1.50444e-08
-1.50718e-08
-8.21835e-09
-1.7369e-08
-3.66085e-10
-2.00038e-08
8.44851e-09
-2.24803e-08
1.81754e-08
-2.48273e-08
2.87757e-08
-2.70799e-08
4.02005e-08
-2.92043e-08
5.23524e-08
-3.10859e-08
6.5093e-08
-3.26052e-08
7.81275e-08
-3.33776e-08
9.08973e-08
-3.26782e-08
1.02989e-07
-3.09193e-08
1.14443e-07
-2.92441e-08
1.25779e-07
-2.89698e-08
1.37073e-07
-2.88483e-08
1.48501e-07
-2.9202e-08
1.60399e-07
-3.04181e-08
1.73194e-07
-3.27348e-08
1.87486e-07
-3.66101e-08
2.04698e-07
-4.41536e-08
2.26976e-07
-5.73791e-08
2.54618e-07
-7.12364e-08
2.87725e-07
-8.53627e-08
3.27448e-07
-1.02528e-07
3.75706e-07
-1.2477e-07
4.34708e-07
-1.52864e-07
5.07197e-07
-1.88286e-07
5.92652e-07
-2.22406e-07
6.84388e-07
-2.38542e-07
7.54225e-07
-1.78916e-07
7.50548e-07
2.02093e-08
6.63905e-07
2.37905e-07
5.32652e-07
3.48132e-07
3.9818e-07
3.49362e-07
2.89593e-07
2.77553e-07
2.20476e-07
1.73729e-07
4.78767e-08
2.99628e-07
-8.33467e-08
3.1989e-07
-6.40047e-08
2.91947e-07
8.44965e-08
2.04587e-07
2.6086e-07
7.9569e-08
3.65775e-07
-2.77313e-08
3.04418e-07
-8.00157e-08
1.40523e-07
-8.81509e-08
1.6318e-08
-7.84641e-08
-3.13386e-08
-6.69941e-08
-3.46033e-08
-5.75676e-08
-2.80655e-08
-4.99309e-08
-2.25848e-08
-4.39578e-08
-1.75905e-08
-3.90897e-08
-1.42957e-08
-3.50264e-08
-1.19242e-08
-3.16201e-08
-9.99269e-09
-2.90184e-08
-7.63129e-09
-2.72507e-08
-5.18493e-09
-2.61478e-08
-3.25228e-09
-2.56017e-08
-1.63658e-09
-2.56481e-08
8.75094e-11
-2.62976e-08
1.84074e-09
-2.75932e-08
3.72334e-09
-2.95523e-08
5.65955e-09
-3.21589e-08
7.55265e-09
-3.53112e-08
9.153e-09
-3.87698e-08
1.00454e-08
-4.23799e-08
1.04837e-08
-4.60911e-08
1.07802e-08
-4.98022e-08
1.07777e-08
-5.3375e-08
1.0367e-08
-5.66555e-08
9.49967e-09
-5.94802e-08
8.14445e-09
-6.1713e-08
6.37731e-09
-6.33263e-08
4.51923e-09
-6.44947e-08
3.1838e-09
-6.52972e-08
2.09288e-09
-6.55428e-08
4.18733e-10
-6.508e-08
-1.70884e-09
-6.39888e-08
-3.60129e-09
-6.22931e-08
-5.43729e-09
-6.04867e-08
-5.8171e-09
-5.87829e-08
-5.6122e-09
-5.86251e-08
-1.15146e-09
-6.01616e-08
3.45502e-09
-6.87239e-08
2.36492e-08
-8.95245e-08
6.09992e-08
-1.11378e-07
6.40994e-08
-1.30645e-07
5.66016e-08
-1.48589e-07
5.28349e-08
-1.64679e-07
4.74669e-08
-1.79362e-07
4.33778e-08
-1.92586e-07
3.91186e-08
-2.0461e-07
3.56057e-08
-2.15503e-07
3.22864e-08
-2.25427e-07
2.94436e-08
-2.34465e-07
2.68369e-08
-2.42722e-07
2.45422e-08
-2.50266e-07
2.24453e-08
-2.57168e-07
2.05566e-08
-2.63479e-07
1.88178e-08
-2.69247e-07
1.72199e-08
-2.74509e-07
1.5731e-08
-2.79297e-07
1.43394e-08
-2.83639e-07
1.30268e-08
-2.87558e-07
1.17841e-08
-2.91076e-07
1.06008e-08
-2.94209e-07
9.47065e-09
-2.96974e-07
8.38753e-09
-2.99385e-07
7.34699e-09
-3.01456e-07
6.34431e-09
-3.03197e-07
5.37577e-09
-3.04621e-07
4.43774e-09
-3.05735e-07
3.52786e-09
-3.06549e-07
2.64373e-09
-3.07072e-07
1.784e-09
-3.0731e-07
9.47482e-10
-3.07273e-07
1.33681e-10
-3.06968e-07
-6.57682e-10
-3.06402e-07
-1.42679e-09
-3.05583e-07
-2.17361e-09
-3.04519e-07
-2.89864e-09
-3.03218e-07
-3.60065e-09
-3.01687e-07
-4.28038e-09
-2.99933e-07
-4.93783e-09
-2.97966e-07
-5.57085e-09
-2.95793e-07
-6.18082e-09
-2.93421e-07
-6.76749e-09
-2.90861e-07
-7.32804e-09
-2.8812e-07
-7.86534e-09
-2.85206e-07
-8.37631e-09
-2.82128e-07
-8.86292e-09
-2.78895e-07
-9.3259e-09
-2.75515e-07
-9.76194e-09
-2.71995e-07
-1.01749e-08
-2.68345e-07
-1.05654e-08
-2.64572e-07
-1.09299e-08
-2.60684e-07
-1.12728e-08
-2.56688e-07
-1.15947e-08
-2.52592e-07
-1.18917e-08
-2.48403e-07
-1.21685e-08
-2.44129e-07
-1.24258e-08
-2.39776e-07
-1.26591e-08
-2.35351e-07
-1.28733e-08
-2.30862e-07
-1.30687e-08
-2.26315e-07
-1.32403e-08
-2.21718e-07
-1.33934e-08
-2.17076e-07
-1.3528e-08
-2.12397e-07
-1.36393e-08
-2.07687e-07
-1.37328e-08
-2.02953e-07
-1.38085e-08
-1.98201e-07
-1.38632e-08
-1.93437e-07
-1.39031e-08
-1.88667e-07
-1.39223e-08
-1.83897e-07
-1.39263e-08
-1.79131e-07
-1.39162e-08
-1.74375e-07
-1.38872e-08
-1.69635e-07
-1.38449e-08
-1.64915e-07
-1.37903e-08
-1.60219e-07
-1.37189e-08
-1.55552e-07
-1.36359e-08
-1.50918e-07
-1.35427e-08
-1.46322e-07
-1.34346e-08
-1.41766e-07
-1.33171e-08
-1.37254e-07
-1.31909e-08
-1.3279e-07
-1.30514e-08
-1.28377e-07
-1.29032e-08
-1.24018e-07
-1.27465e-08
-1.19719e-07
-1.25758e-08
-1.15481e-07
-1.23955e-08
-1.1131e-07
-1.22046e-08
-1.07209e-07
-1.1999e-08
-1.03183e-07
-1.1782e-08
-9.92361e-08
-1.15525e-08
-9.53736e-08
-1.13075e-08
-9.15993e-08
-1.10513e-08
-8.79196e-08
-1.07766e-08
-8.43388e-08
-1.04894e-08
-8.08654e-08
-1.01781e-08
-7.75036e-08
-9.85334e-09
-7.42668e-08
-9.49144e-09
-7.11594e-08
-9.11458e-09
-6.82029e-08
-8.67883e-09
-6.54019e-08
-8.22432e-09
-6.27919e-08
-7.67354e-09
-6.03771e-08
-7.10113e-09
-5.82165e-08
-6.36965e-09
-5.63114e-08
-5.61575e-09
-5.47546e-08
-4.61603e-09
-5.35411e-08
-3.59523e-09
-5.27792e-08
-2.30945e-09
-5.24296e-08
-1.07125e-09
-5.22408e-08
-7.57589e-10
-5.26637e-08
1.13079e-09
-5.27854e-08
3.14683e-10
-5.2656e-08
-2.24181e-10
-5.17894e-08
-2.3828e-09
-4.99541e-08
-5.1967e-09
-4.71719e-08
-8.00205e-09
-4.33884e-08
-1.09414e-08
-3.86276e-08
-1.3839e-08