/*--------------------------------*- C++ -*----------------------------------*\
| =========                 |                                                 |
| \\      /  F ield         | OpenFOAM: The Open Source CFD Toolbox           |
|  \\    /   O peration     | Version:  2.4.0                                 |
|   \\  /    A nd           | Web:      www.OpenFOAM.org                      |
|    \\/     M anipulation  |                                                 |
\*---------------------------------------------------------------------------*/
FoamFile
{
    version     2.0;
    format      ascii;
    class       volScalarField;
    location    "320";
    object      omega;
}
// * * * * * * * * * * * * * * * * * * * * * * * * * * * * * * * * * * * * * //

dimensions      [0 0 -1 0 0 0 0];

internalField   nonuniform List<scalar> 
19698
(
227134.93
220644.17
214005.21
207254.37
200428.97
193566.99
186709.47
179903.22
173262.16
167044.3
161298.04
156019.07
151204.62
146855.25
142973.85
139564.67
136634.53
134192.24
132247.52
130811.23
129895.27
129511.99
129657.27
129783.85
129783.85
129783.85
129783.85
129783.85
129783.85
129783.85
129783.85
129783.85
129783.85
129783.85
129783.85
129783.85
129783.85
129783.85
129783.85
129783.85
129783.85
129783.85
129783.85
129783.85
129783.85
129783.85
129783.85
129783.85
129783.85
129783.85
129783.85
129783.85
129783.85
129783.85
129783.85
129783.85
129783.85
129783.85
129783.85
129783.85
129783.85
129783.85
129783.85
129783.85
129783.85
129783.85
129783.85
129783.85
129783.85
129783.85
129783.85
129783.85
129783.85
129783.85
129783.85
129783.85
129783.85
129783.85
129783.85
129783.85
129783.85
129783.85
129783.84
129783.85
129783.85
129783.85
129783.85
129783.84
129783.85
129783.85
129783.85
129783.85
129783.85
129783.85
129783.85
129783.85
129783.84
129783.85
129783.85
129783.84
129783.85
129783.85
129783.85
129783.85
129783.85
129783.84
129783.85
129783.85
129783.85
129783.85
129783.85
129783.85
129783.85
129783.85
129783.84
129783.85
129783.85
129783.85
129783.84
129783.85
129783.85
129783.84
36889.468
35836.483
34759.809
33665.687
32560.658
31451.081
30296.163
25322.156
33729.836
23554.841
31345.523
22031.362
21371.53
28475.241
27690.658
19813.178
23123.493
22711.288
22382.077
22138.959
21983.939
21919.1
21945.63
25058.814
25063.527
18413.605
18418.508
25080.599
25083.429
25083.843
25084.062
25084.246
25084.348
25084.433
25084.473
25084.499
25084.487
25084.302
25067.801
18408.798
18407.23
18407.244
18407.267
18407.293
18407.326
18407.363
18407.406
18407.454
18407.51
18407.585
18407.848
18422.14
25081.638
25083.768
25083.598
25083.148
25062.6
18410.025
18408.585
18408.779
18409.008
18409.293
18409.67
18410.241
18411.403
18422.503
21960.684
21961.62
21961.618
21961.615
21961.613
21961.611
21961.609
21961.607
21961.605
21961.602
21961.6
21961.598
21961.595
21961.594
21961.591
21961.589
21961.587
21961.585
21961.582
21961.58
21961.578
21961.576
21961.574
21961.572
21961.57
21961.568
21961.566
21961.565
21961.563
21961.561
21961.559
21961.558
21961.557
21961.555
21961.554
21961.553
21961.551
21961.55
21961.55
21961.548
21961.548
21961.547
21961.546
21961.546
21961.545
21961.544
21961.544
21961.544
21961.543
21961.544
21961.543
21961.543
21961.543
21961.543
21961.543
21961.543
12375.88
12022.657
11661.423
11294.242
10923.242
10550.142
10127.316
6916.7017
13554.351
6467.0002
12526.059
6067.4078
5923.6087
11318.018
10945.897
5522.9007
7649.3551
7510.78
7401.8753
7321.4712
7270.2159
7248.8561
7260.6414
9840.6604
9839.4624
5159.9933
5165.4595
9855.9927
9862.0835
9862.4003
9862.5585
9862.6936
9862.7626
9862.8214
9862.8451
9862.8581
9862.8372
9862.4983
9834.7239
5157.5546
5154.6992
5154.7085
5154.7225
5154.7382
5154.7568
5154.7774
5154.8007
5154.8263
5154.8555
5154.8958
5155.1623
5173.3707
9857.4411
9862.1723
9862.0224
9861.3635
9826.0352
5157.8551
5155.3805
5155.4711
5155.5793
5155.7123
5155.888
5156.1547
5156.7729
5167.9782
7260.4254
7262.0692
7262.0653
7262.0603
7262.0558
7262.0511
7262.0463
7262.0415
7262.0365
7262.0313
7262.0261
7262.0209
7262.0155
7262.0102
7262.0046
7261.9992
7261.9936
7261.9883
7261.9828
7261.9775
7261.972
7261.9667
7261.9616
7261.9563
7261.9514
7261.9465
7261.9416
7261.937
7261.9323
7261.928
7261.9236
7261.9196
7261.9157
7261.9117
7261.9081
7261.9047
7261.9014
7261.8982
7261.8954
7261.8925
7261.8901
7261.8875
7261.8853
7261.8832
7261.8814
7261.8796
7261.878
7261.8767
7261.8752
7261.8743
7261.8732
7261.8724
7261.8717
7261.8712
7261.8707
7261.8704
5748.7515
5584.7145
5416.9398
5246.3763
5073.9942
4900.2605
4677.7912
2607.6964
7527.4237
2459.7086
6896.7587
2318.476
2293.2458
6185.1526
5927.5926
2154.7005
3529.0825
3462.5558
3412.3391
3375.2836
3351.6763
3341.9306
3350.3591
5283.2313
5276.8581
2034.0683
2039.6365
5292.9019
5300.3809
5300.5969
5300.693
5300.7773
5300.8141
5300.8468
5300.8543
5300.8559
5300.8279
5300.3406
5265.4222
2032.6706
2029.7902
2029.7994
2029.812
2029.8254
2029.8402
2029.8558
2029.8727
2029.8905
2029.9102
2029.9379
2030.2022
2048.6812
5294.3986
5300.2519
5300.1265
5299.2656
5254.7285
2032.6714
2030.2156
2030.2636
2030.3217
2030.3925
2030.4856
2030.6279
2031.0202
2041.2271
3345.9405
3347.7723
3347.7656
3347.7572
3347.7493
3347.741
3347.7326
3347.7238
3347.7148
3347.7055
3347.696
3347.6863
3347.6764
3347.6663
3347.6562
3347.646
3347.6357
3347.6254
3347.6151
3347.6049
3347.5946
3347.5845
3347.5745
3347.5646
3347.5549
3347.5453
3347.536
3347.5269
3347.5179
3347.5093
3347.5008
3347.4927
3347.4849
3347.4773
3347.47
3347.463
3347.4564
3347.45
3347.4441
3347.4384
3347.433
3347.428
3347.4233
3347.4189
3347.4148
3347.411
3347.4076
3347.4044
3347.4014
3347.3989
3347.3965
3347.3945
3347.3927
3347.3912
3347.3898
3347.3888
3203.8341
3112.442
3018.9584
2923.9102
2827.8308
2730.6901
2588.7944
1249.4974
4808.0553
1191.3677
4362.7267
1128.3561
1135.5119
3882.1248
3680.8557
1074.6281
1960.1787
1921.0971
1893.2319
1872.6881
1859.6162
1854.3183
1861.5772
3252.5755
3242.9275
1027.4738
1032.9887
3258.2608
3265.7525
3265.8878
3265.9347
3265.9791
3265.991
3266.004
3266
3265.9939
3265.9612
3265.3454
3227.9268
1026.6749
1024.1739
1024.1853
1024.1996
1024.2141
1024.2291
1024.2442
1024.2597
1024.2755
1024.292
1024.3147
1024.5728
1041.9882
3259.6043
3265.4784
3265.3722
3264.3326
3216.7021
1026.611
1024.4957
1024.5224
1024.5553
1024.595
1024.6469
1024.7271
1025
1033.7759
1855.8565
1857.5786
1857.5681
1857.5553
1857.5429
1857.5299
1857.5165
1857.5026
1857.4882
1857.4733
1857.4581
1857.4424
1857.4265
1857.4103
1857.3939
1857.3774
1857.3607
1857.344
1857.3273
1857.3106
1857.2939
1857.2774
1857.2611
1857.2449
1857.229
1857.2133
1857.1979
1857.1829
1857.1682
1857.154
1857.1401
1857.1266
1857.1136
1857.101
1857.0889
1857.0774
1857.0663
1857.0557
1857.0456
1857.0361
1857.0271
1857.0186
1857.0106
1857.0031
1856.9961
1856.9896
1856.9836
1856.9781
1856.973
1856.9685
1856.9643
1856.9606
1856.9573
1856.9545
1856.952
1856.9499
1999.0534
1942.0467
1883.7306
1824.4329
1764.481
1703.6108
1603.5124
734.12659
3266.464
706.69433
2935.977
671.41621
686.62227
2594.0753
2433.304
652.42569
1221.0516
1195.2029
1177.8659
1165.1024
1156.9991
1153.818
1160.4033
2134.4021
2123.312
630.50578
635.86718
2137.4814
2144.1804
2144.257
2144.2694
2144.2866
2144.2826
2144.2834
2144.2735
2144.2641
2144.2296
2143.5188
2107.3796
630.10035
628.05695
628.0721
628.08973
628.10712
628.12434
628.14128
628.15796
628.17433
628.19064
628.21192
628.4642
644.3756
2138.5963
2143.8475
2143.7547
2142.5824
2096.7601
630.06759
628.34579
628.3608
628.37976
628.4022
628.43139
628.47728
628.6769
635.97125
1154.5614
1156.0328
1156.017
1155.9987
1155.9806
1155.9617
1155.942
1155.9215
1155.9004
1155.8785
1155.8561
1155.8331
1155.8097
1155.7859
1155.7618
1155.7374
1155.7129
1155.6883
1155.6636
1155.639
1155.6145
1155.5902
1155.566
1155.5422
1155.5187
1155.4956
1155.4729
1155.4507
1155.4291
1155.408
1155.3875
1155.3676
1155.3483
1155.3298
1155.3119
1155.2947
1155.2783
1155.2626
1155.2477
1155.2336
1155.2202
1155.2075
1155.1956
1155.1845
1155.174
1155.1643
1155.1554
1155.1471
1155.1395
1155.1326
1155.1264
1155.1207
1155.1157
1155.1113
1155.1075
1155.1042
1345.5659
1307.2076
1267.9648
1228.0576
1187.7019
1146.522
1072.218
507.92523
2284.7981
491.72307
2036.1572
467.44015
482.9263
1788.4763
1661.2511
458.82401
821.19989
802.86264
791.21817
782.66431
777.25387
775.23739
781.23818
1449.1726
1438.0549
445.95415
451.04005
1450.6544
1456.2184
1456.2565
1456.2488
1456.2506
1456.2392
1456.2353
1456.2248
1456.2168
1456.1835
1455.4187
1423.0015
445.83653
444.22786
444.24773
444.26966
444.29096
444.31156
444.33145
444.35053
444.3688
444.38634
444.40767
444.65373
458.84716
1451.5583
1455.9128
1455.8286
1454.5828
1413.6809
445.87199
444.5165
444.52411
444.53423
444.54586
444.56099
444.58557
444.73077
450.59274
775.85165
777.02626
777.00389
776.97886
776.95373
776.92752
776.90028
776.87196
776.84268
776.8125
776.78151
776.74983
776.71752
776.68472
776.6515
776.61797
776.58423
776.55038
776.51651
776.48271
776.44906
776.41566
776.38259
776.34991
776.31771
776.28607
776.25503
776.22467
776.19502
776.16616
776.13811
776.11092
776.08462
776.05925
776.03484
776.01142
775.989
775.96761
775.94725
775.92793
775.90965
775.89241
775.87618
775.86098
775.84678
775.83358
775.82135
775.81009
775.79976
775.79037
775.78185
775.77422
775.7674
775.76142
775.75621
775.75175
955.96186
928.72035
900.84756
872.49974
843.82664
814.40985
757.90741
393.78041
1623.7965
381.70757
1436.7063
362.27727
375.45613
1256.3331
1157.3869
355.52486
583.10616
569.54349
561.28607
555.2403
551.43885
550.13459
555.55246
1006.2366
996.01063
345.80726
350.47895
1006.807
1011.194
1011.2106
1011.1948
1011.1913
1011.1801
1011.1776
1011.1714
1011.1684
1011.1393
1010.3621
982.86473
345.91896
344.69522
344.72036
344.74704
344.77266
344.7971
344.82034
344.84226
344.86284
344.88205
344.90363
345.1398
357.45676
1007.5655
1010.9888
1010.9096
1009.6512
975.1471
346.03106
344.99477
344.99672
345.00003
345.00355
345.0084
345.01718
345.1122
349.60773
550.8954
551.78092
551.75051
551.71746
551.68405
551.64927
551.61315
551.57569
551.53701
551.49721
551.45642
551.41476
551.37235
551.32934
551.28584
551.242
551.19792
551.15374
551.10958
551.06556
551.02177
550.97835
550.93538
550.89297
550.85121
550.81019
550.76999
550.73071
550.69237
550.65508
550.61885
550.58377
550.54986
550.51717
550.48574
550.45561
550.42679
550.39931
550.37318
550.3484
550.32498
550.30291
550.28216
550.26274
550.24463
550.22781
550.21226
550.19796
550.18486
550.17298
550.16223
550.15261
550.14408
550.13659
550.13011
550.12458
707.07017
686.92977
666.31982
645.35583
624.14542
602.27129
558.8845
327.01608
1166.9204
316.34141
1026.7495
299.39204
309.5021
895.23498
819.63367
291.57247
431.06681
420.77524
414.6794
410.23786
407.47019
406.63923
411.48
711.81723
702.96722
282.85669
286.99091
711.91626
715.24524
715.25339
715.2387
715.23758
715.23216
715.23579
715.23745
715.2424
715.21972
714.46694
692.15366
283.16101
282.26581
282.29634
282.32769
282.35752
282.38567
282.4121
282.43666
282.45931
282.47984
282.50096
282.72031
293.068
712.6065
715.19128
715.11441
713.89716
686.06261
283.34096
282.5729
282.56941
282.56627
282.56236
282.55804
282.55237
282.59354
285.80658
407.64413
408.27473
408.23489
408.19257
408.14966
408.10507
408.05889
408.01112
407.96191
407.91138
407.85971
407.80704
407.75353
407.69935
407.64464
407.58958
407.53431
407.47899
407.42377
407.36878
407.31416
407.26006
407.20657
407.15385
407.10199
407.0511
407.00128
406.95263
406.90522
406.85913
406.81441
406.77115
406.72937
406.68915
406.65051
406.61351
406.57816
406.5445
406.51251
406.48224
406.45365
406.42675
406.40151
406.37794
406.35599
406.33565
406.31689
406.29968
406.28398
406.26978
406.25699
406.2456
406.23555
406.2268
406.2193
406.21295
539.50255
524.14279
508.42228
492.42902
476.24268
459.47499
426.08593
281.71174
847.1873
271.41592
742.67718
256.03895
263.055
646.68357
589.81081
246.39155
328.71046
320.76778
316.12744
312.76985
310.7052
310.21155
314.50677
512.84239
505.52919
238.01536
241.53265
512.73707
515.19206
515.20093
515.19377
515.20017
515.20431
515.21715
515.22885
515.24331
515.22841
514.52854
497.07001
238.48457
237.86033
237.8958
237.93126
237.96469
237.99587
238.02478
238.05122
238.07512
238.09604
238.11525
238.30914
246.69654
513.42392
515.31402
515.23734
514.10241
492.45654
238.71119
238.16049
238.15087
238.14066
238.12879
238.11483
238.09361
238.07376
240.12116
311.46637
311.88593
311.83542
311.78268
311.72914
311.6737
311.61644
311.55738
311.49673
311.43461
311.37125
311.3068
311.24148
311.17546
311.10894
311.0421
310.97512
310.9082
310.84148
310.77516
310.70938
310.6443
310.58006
310.51681
310.45467
310.39378
310.33423
310.27615
310.21962
310.16473
310.11154
310.06014
310.01057
309.96291
309.91718
309.87346
309.83173
309.79206
309.75443
309.71888
309.68536
309.65389
309.62442
309.59695
309.57145
309.54789
309.52623
309.50644
309.48846
309.47227
309.45779
309.44498
309.43377
309.42411
309.41595
309.40916
421.95157
409.9456
397.655
385.14866
372.48698
359.32748
333.67203
246.8329
621.94738
236.62383
544.30303
222.50364
226.73853
474.03555
431.78406
211.1662
256.90872
250.70131
247.08372
244.49162
242.92899
242.68977
246.49423
376.71109
370.886
203.07481
205.95156
376.55336
378.32669
378.34211
378.34622
378.36304
378.37867
378.40211
378.42467
378.449
378.44228
377.81421
364.56999
203.68332
203.27398
203.31341
203.3519
203.38778
203.42081
203.45097
203.47803
203.50185
203.5217
203.53701
203.69712
210.24466
377.27737
378.62287
378.54455
377.51831
361.19803
203.9258
203.54379
203.5268
203.50826
203.48718
203.46212
203.4227
203.33435
204.36956
244.14855
244.401
244.33875
244.27461
244.20955
244.14243
244.07334
244.00232
243.9296
243.85536
243.77982
243.7032
243.62571
243.54757
243.46901
243.39023
243.31144
243.23285
243.15465
243.07703
243.00017
242.92424
242.84941
242.77584
242.70366
242.63303
242.56405
242.49687
242.43156
242.36824
242.30696
242.24783
242.19088
242.13621
242.08384
242.03384
241.9862
241.941
241.89819
241.85783
241.81986
241.7843
241.75108
241.72022
241.69165
241.66536
241.64128
241.61939
241.59962
241.58192
241.56622
241.55246
241.54056
241.53047
241.52211
241.51533
336.72025
327.14624
317.34263
307.36452
297.25892
286.7378
267.08522
217.55733
462.51194
207.46039
404.9043
194.51425
196.43854
353.17851
322.07465
181.98166
204.86202
199.95888
197.08573
195.05468
193.86605
193.82852
197.21054
282.50163
278.00023
174.34509
176.60978
282.3705
283.63414
283.65909
283.67592
283.70407
283.73146
283.76546
283.79841
283.83181
283.83266
283.28599
273.50584
175.0657
174.81929
174.86114
174.90107
174.93778
174.97101
175.00073
175.02667
175.04864
175.06553
175.07458
175.19468
180.11356
283.14365
284.07841
283.99667
283.09152
271.11056
175.28603
175.02821
175.0023
174.97386
174.94189
174.90366
174.84258
174.68013
174.88348
195.41351
195.53793
195.46316
195.38696
195.30978
195.23049
195.14915
195.06587
194.98086
194.89435
194.80659
194.7178
194.62825
194.53817
194.4478
194.35738
194.26713
194.17729
194.08806
193.99966
193.91227
193.82609
193.74128
193.65804
193.5765
193.49683
193.41915
193.34359
193.27025
193.19925
193.13065
193.06455
193.001
192.94008
192.88183
192.8263
192.77352
192.72351
192.67627
192.63183
192.59012
192.55117
192.5149
192.48131
192.45034
192.42197
192.39611
192.37274
192.35178
192.33317
192.31682
192.30268
192.29065
192.28066
192.27263
192.26639
273.22878
265.46681
257.51605
249.42141
241.22059
232.68279
217.67726
191.80161
349.07913
181.96731
306.27646
170.18725
170.32394
267.86323
245.09161
157.04927
166.11523
162.20368
159.88895
158.2826
157.38325
157.51275
160.5441
216.48892
213.09831
150.08442
151.80364
216.41871
217.31324
217.34839
217.37748
217.41624
217.45424
217.49745
217.53916
217.57978
217.58668
217.12315
210.07251
150.88614
150.75688
150.79912
150.83846
150.87394
150.90531
150.9325
150.95524
150.97324
150.98494
150.98525
151.06213
154.61685
217.22505
217.85829
217.77131
216.98819
208.3955
151.04157
150.86938
150.83287
150.79287
150.7482
150.69447
150.60804
150.36912
149.93086
159.12564
159.15443
159.06675
158.9782
158.88874
158.79721
158.70369
158.60828
158.51125
158.41282
158.31326
158.21285
158.11184
158.01049
157.90907
157.80782
157.70699
157.60683
157.50754
157.40936
157.31249
157.21713
157.12345
157.03166
156.94189
156.85433
156.76908
156.6863
156.60608
156.52853
156.45373
156.38178
156.31272
156.24665
156.18358
156.12358
156.06665
156.01285
155.96214
155.91455
155.87003
155.82857
155.7901
155.75462
155.72205
155.69236
155.66547
155.64134
155.61988
155.60102
155.58468
155.57077
155.5592
155.54988
155.54273
155.53756
224.85485
218.47387
211.93505
205.27566
198.52698
191.51397
180.08538
168.70993
267.84305
159.31539
235.8975
148.69855
147.55364
207.02662
190.38254
135.5048
136.6253
133.47463
131.59008
130.31471
129.64692
129.9197
132.66768
169.57165
167.07332
129.39414
130.65523
169.57003
170.20352
170.24764
170.28703
170.33429
170.38055
170.43056
170.47842
170.52352
170.53413
170.14944
165.17632
130.24089
130.1905
130.23067
130.26703
130.29888
130.32599
130.34828
130.36548
130.37716
130.38128
130.37041
130.40402
132.87312
170.36931
170.78498
170.69096
170.02248
163.98424
130.28662
130.1685
130.11984
130.06674
130.00765
129.93619
129.82109
129.50718
128.61024
131.44929
131.40814
131.30768
131.207
131.1056
131.0023
130.89719
130.79037
130.68211
130.57267
130.46234
130.35138
130.24008
130.12872
130.01754
129.90684
129.79684
129.6878
129.57995
129.47351
129.3687
129.26572
129.16474
129.06596
128.96954
128.87563
128.78437
128.6959
128.61031
128.52771
128.44818
128.3718
128.29863
128.22875
128.16218
128.09898
128.03915
127.98274
127.92972
127.88009
127.8338
127.79085
127.75115
127.7147
127.68141
127.65125
127.62412
127.59999
127.57874
127.56032
127.54462
127.53155
127.52101
127.5129
127.50713
127.50352
187.29141
181.98318
176.54102
170.9964
165.37632
159.5574
150.86346
147.95487
209.15715
139.15329
185.13197
129.67487
127.69356
163.10919
150.91375
116.8701
113.75961
111.19829
109.65327
108.64284
108.16632
108.56515
111.08758
135.68145
133.87527
111.73075
112.62598
135.7404
136.19194
136.24235
136.28883
136.3414
136.39261
136.44609
136.4967
136.54282
136.55417
136.23992
132.80188
112.58075
112.57869
112.61406
112.64477
112.67038
112.69067
112.70555
112.71475
112.71769
112.71184
112.68765
112.68058
114.32532
136.47347
136.73337
136.63069
136.0643
131.89475
112.47299
112.38461
112.32259
112.25522
112.18039
112.0894
111.94328
111.55981
110.36667
109.89444
109.80316
109.69068
109.57872
109.46635
109.35238
109.23687
109.11996
109.00191
108.88298
108.76346
108.64365
108.52381
108.40422
108.28517
108.1669
108.04966
107.93372
107.81929
107.7066
107.59584
107.48723
107.38093
107.27715
107.17601
107.07769
106.98231
106.89
106.80084
106.71496
106.6324
106.55326
106.47759
106.40546
106.33688
106.27192
106.21057
106.15287
106.09877
106.04829
106.00137
105.95799
105.91807
105.88159
105.84847
105.81866
105.79208
105.76866
105.7483
105.73093
105.71644
105.70474
105.69571
105.68925
105.68527
105.68359
157.64472
153.18349
148.60708
143.94254
139.21425
134.34478
127.72785
129.40551
166.28943
121.30391
148.02735
112.91135
110.45616
130.94124
121.94497
100.81406
95.746941
93.647134
92.376202
91.583136
91.269142
91.780542
94.123311
110.75778
109.4728
96.693846
97.308926
110.86
111.18497
111.23785
111.28728
111.34115
111.39326
111.44627
111.49561
111.5388
111.54749
111.2929
108.95958
97.499746
97.522711
97.550403
97.57274
97.58945
97.600358
97.605363
97.604192
97.596144
97.578143
97.538985
97.49569
98.540718
111.45564
111.60391
111.49133
111.01214
108.1737
97.199268
97.123114
97.047106
96.964912
96.873666
96.762139
96.584165
96.140216
94.785687
92.794445
92.668252
92.545234
92.423535
92.301832
92.178951
92.054918
91.929868
91.804061
91.677763
91.551259
91.424827
91.298742
91.173279
91.048695
90.925251
90.803183
90.682734
90.564115
90.447548
90.333213
90.221313
90.112007
90.005476
89.901851
89.801293
89.703903
89.609811
89.519088
89.431844
89.348124
89.26802
89.191559
89.118819
89.049804
88.984572
88.923102
88.865433
88.811516
88.761361
88.7149
88.672115
88.63292
88.597292
88.565138
88.536423
88.511044
88.488944
88.470015
88.454185
88.441332
88.431369
88.424172
88.419647
88.417679
88.418119
133.91569
130.13259
126.24928
122.28941
118.27594
114.17118
109.12315
112.97462
134.55284
105.62891
120.4858
98.246153
95.591561
106.98709
100.27769
87.053716
81.361942
79.628346
78.5834
77.972732
77.80015
78.412514
80.609173
92.073941
91.170862
83.940403
84.347779
92.196552
92.432029
92.482737
92.530339
92.580959
92.62945
92.67764
92.721416
92.757512
92.759951
92.553323
90.995878
84.650451
84.681424
84.698669
84.710029
84.715373
84.714567
84.707516
84.693947
84.673022
84.641201
84.586153
84.51213
85.137592
92.579479
92.647078
92.524036
92.116983
90.20432
84.126662
84.051194
83.961369
83.864626
83.757208
83.625306
83.4166
82.924428
81.513687
79.006702
78.857444
78.726127
78.596935
78.46823
78.338842
78.208765
78.078129
77.947177
77.816166
77.685365
77.55504
77.425451
77.296856
77.169498
77.043619
76.919439
76.797184
76.677047
76.559233
76.443905
76.331248
76.221405
76.114541
76.010773
75.910246
75.813046
75.719292
75.62904
75.542389
75.459375
75.38008
75.304522
75.23277
75.164823
75.10073
75.040467
74.984064
74.931472
74.882694
74.837659
74.796346
74.75867
74.724603
74.694055
74.666988
74.643298
74.622929
74.605772
74.591756
74.580757
74.572689
74.567429
74.56488
74.564929
74.567435
114.68945
111.45589
108.13419
104.74547
101.3122
97.830177
93.962809
98.556707
110.69104
91.97685
99.688604
85.512304
82.851198
88.827083
83.748979
75.320382
69.736248
68.297787
67.442861
66.988301
66.941068
67.643383
69.716102
77.790172
77.159176
73.155876
73.412284
77.906946
78.076495
78.119938
78.160616
78.203202
78.243435
78.282392
78.316296
78.341263
78.334023
78.163861
77.138706
73.7164
73.74355
73.747949
73.746152
73.738132
73.723798
73.703072
73.675685
73.640672
73.594121
73.523194
73.424428
73.766667
78.006685
78.015389
77.88224
77.533644
76.251197
72.951671
72.870342
72.767833
72.65782
72.535575
72.384853
72.148759
71.623079
70.23356
67.733479
67.570653
67.433954
67.30014
67.167338
67.034386
66.901247
66.768032
66.634961
66.502271
66.370207
66.239014
66.108928
65.980182
65.852997
65.72759
65.604158
65.482901
65.363991
65.247608
65.133894
65.023012
64.915085
64.810259
64.708631
64.610329
64.515422
64.424012
64.336144
64.251903
64.171312
64.094445
64.021309
63.951966
63.886408
63.824677
63.766745
63.712638
63.662301
63.615738
63.572875
63.533691
63.498102
63.466081
63.43754
63.412442
63.390685
63.372219
63.356934
63.344764
63.33559
63.329325
63.325852
63.325078
63.326891
63.331163
98.943168
96.15958
93.297741
90.376907
87.419804
84.449793
81.469462
86.011721
92.444065
80.1718
83.696009
74.526665
71.983368
74.802027
70.890293
65.354069
60.241382
59.044922
58.352639
58.033849
58.099105
58.880093
60.841405
66.656539
66.212948
64.048873
64.195853
66.73955
66.857256
66.888258
66.91698
66.946905
66.974467
67.000091
67.020222
67.030531
67.010706
66.866565
66.198098
64.408117
64.423817
64.413663
64.397253
64.374638
64.345775
64.310602
64.268859
64.219478
64.158305
64.072611
63.955222
64.112627
66.499544
66.465089
66.323285
66.021733
65.16036
63.401687
63.311903
63.198868
63.077915
62.943349
62.776834
62.518864
61.975897
60.661244
58.409782
58.241209
58.102524
57.967382
57.833755
57.7005
57.567549
57.434987
57.303003
57.171806
57.041611
56.912634
56.785079
56.659153
56.535043
56.41294
56.293011
56.175428
56.060337
55.94789
55.838206
55.731422
55.62764
55.526984
55.429531
55.335389
55.24461
55.157281
55.073432
54.993135
54.916402
54.843296
54.773817
54.708019
54.645887
54.587459
54.532703
54.48164
54.434218
54.390436
54.350225
54.313563
54.280371
54.250623
54.224237
54.201181
54.181358
54.164721
54.151171
54.140643
54.133026
54.128242
54.126179
54.126748
54.129848
54.135361
85.923403
83.511585
81.029736
78.495792
75.93328
73.387829
71.074286
75.16992
78.24252
70.019457
71.169947
65.09474
62.740404
63.769657
60.697932
56.907998
52.41391
51.419477
50.868543
50.669191
50.835955
51.683544
53.538437
57.815666
57.495075
56.353728
56.419893
57.836846
57.91054
57.924286
57.936511
57.949721
57.960855
57.96977
57.973037
57.966066
57.931636
57.804718
57.369435
56.466781
56.466809
56.441377
56.409904
56.372499
56.329155
56.279836
56.224288
56.161374
56.086852
55.988656
55.858715
55.899656
57.222568
57.15694
57.009018
56.745695
56.161442
55.23709
55.139195
55.018708
54.890076
54.74671
54.568722
54.29613
53.752513
52.54728
50.629829
50.461987
50.324879
50.191814
50.060696
49.930413
49.800866
49.672109
49.544299
49.417611
49.292224
49.168321
49.046072
48.925651
48.807215
48.69092
48.576904
48.46531
48.356255
48.249864
48.146232
48.045469
47.947658
47.852898
47.761249
47.672798
47.587583
47.505675
47.42709
47.351887
47.280073
47.211697
47.146754
47.085291
47.027289
46.972781
46.921735
46.874169
46.830033
46.789324
46.751981
46.717982
46.687255
46.659779
46.635478
46.614326
46.596236
46.581167
46.569027
46.559762
46.553269
46.549479
46.54829
46.549623
46.553385
46.55947
75.065795
72.963498
70.798112
68.586704
66.354015
64.163243
62.352138
65.844435
66.993604
61.318859
61.182881
57.020456
54.887945
54.938452
52.479269
49.754851
45.906341
45.083492
44.656886
44.563204
44.821419
45.722495
47.470557
50.67206
50.425872
49.834135
49.838179
50.604945
50.638743
50.631249
50.623376
50.616817
50.608827
50.598775
50.583272
50.557651
50.507783
50.391298
50.104416
49.668223
49.651125
49.610867
49.565058
49.513839
49.457234
49.395226
49.327572
49.2531
49.167644
49.060235
48.923628
48.89431
49.609486
49.522383
49.371746
49.140292
48.736586
48.25251
48.148805
48.024565
47.892122
47.744149
47.55986
47.281334
46.75266
45.67528
44.09681
43.934915
43.802737
43.674912
43.549353
43.424993
43.301707
43.179519
43.058549
42.938936
42.820826
42.704365
42.58969
42.476942
42.366245
42.257724
42.151489
42.047653
41.946306
41.847548
41.75145
41.658101
41.567562
41.479912
41.395194
41.313478
41.234789
41.159182
41.086665
41.017286
40.951043
40.887979
40.828084
40.771397
40.7179
40.667622
40.62053
40.576642
40.535911
40.498337
40.463863
40.432473
40.404101
40.378733
40.356302
40.336787
40.320112
40.306244
40.295103
40.286643
40.280773
40.277433
40.276535
40.278009
40.281773
40.287737
65.941188
64.098268
62.198221
60.257631
58.302729
56.410173
54.979033
57.844599
57.932295
53.873718
53.086883
50.115607
48.212261
47.755494
45.750168
43.691383
40.454188
39.779275
39.462919
39.463351
39.802504
40.742912
42.380335
44.805877
44.597705
44.285321
44.239051
44.627573
44.623822
44.592376
44.562146
44.534127
44.505714
44.475843
44.441112
44.396934
44.332138
44.221435
44.026258
43.824362
43.790887
43.737459
43.679206
43.616284
43.54873
43.476544
43.399488
43.3164
43.223335
43.110711
42.972938
42.904002
43.273349
43.17294
43.023439
42.819484
42.533047
42.274986
42.1688
42.044693
41.912463
41.764238
41.57958
41.30338
40.802628
39.859506
38.587865
38.435837
38.31139
38.191406
38.073872
37.957782
37.84299
37.729491
37.617373
37.50674
37.397705
37.29038
37.184873
37.081291
36.97973
36.880289
36.783048
36.688097
36.595502
36.505339
36.417661
36.332537
36.250009
36.170141
36.092962
36.018527
35.946849
35.877973
35.8119
35.748668
35.68827
35.630744
35.576077
35.524303
35.475404
35.429406
35.38628
35.346042
35.308651
35.27411
35.242367
35.213412
35.187188
35.163686
35.142848
35.124662
35.109062
35.096022
35.085475
35.077385
35.071672
35.068289
35.067158
35.068222
35.071411
35.076647
58.218773
56.594392
54.918108
53.206344
51.486977
49.846504
48.703801
50.986821
50.518655
47.500987
46.424484
44.206881
42.524494
41.828824
40.166866
38.540529
35.853459
35.307593
35.089353
35.173569
35.582495
36.547259
38.068603
39.916235
39.719256
39.534202
39.445202
39.609427
39.570114
39.513614
39.460387
39.410799
39.362226
39.313218
39.260318
39.199148
39.121241
39.013695
38.873479
38.781495
38.734024
38.670102
38.602255
38.530628
38.45526
38.376155
38.293079
38.204921
38.108075
37.994477
37.86039
37.771873
37.945406
37.838597
37.694023
37.514573
37.304783
37.159465
37.054348
36.933975
36.805649
36.661504
36.481572
36.215012
35.751779
34.940408
33.929986
33.790434
33.675734
33.565424
33.457615
33.351374
33.246539
33.143083
33.041064
32.940558
32.841646
32.744415
32.648942
32.55531
32.46359
32.373856
32.286168
32.200592
32.117178
32.035983
31.957042
31.880409
31.806114
31.734206
31.664704
31.597651
31.533053
31.470946
31.411327
31.354226
31.299634
31.247584
31.198063
31.151101
31.106681
31.064828
31.025516
30.988762
30.95453
30.922825
30.893605
30.866861
30.842549
30.820662
30.801154
30.784018
30.769199
30.756681
30.746405
30.738346
30.732437
30.728639
30.726889
30.727139
30.729333
30.733405
51.640377
50.20096
48.714321
47.196976
45.678495
44.252004
43.328865
45.102024
44.367391
42.03615
40.868331
39.139979
37.662026
36.87689
35.480903
34.151273
31.945012
31.512565
31.381534
31.539484
32.006612
32.980339
34.379999
35.784027
35.579162
35.437804
35.31151
35.338714
35.26639
35.185489
35.11032
35.04065
34.973702
34.907669
34.839026
34.763691
34.675544
34.570245
34.462112
34.416037
34.357991
34.286914
34.212896
34.136052
34.056408
33.973961
33.888485
33.798945
33.702157
33.591569
33.465099
33.369884
33.433743
33.326172
33.18979
33.032637
32.873815
32.78327
32.682377
32.568669
32.447208
32.310778
32.139581
31.888368
31.468523
30.780276
29.984137
29.858441
29.75465
29.655027
29.557839
29.462235
29.368044
29.275225
29.183811
29.093854
29.005411
28.918545
28.833313
28.749775
28.667984
28.587993
28.509848
28.433595
28.359272
28.28692
28.216565
28.148246
28.081986
28.017821
27.955763
27.895848
27.838078
27.782481
27.72905
27.677813
27.62876
27.581918
27.537277
27.494864
27.454664
27.416701
27.380953
27.347438
27.316125
27.287023
27.260095
27.235339
27.212717
27.192229
27.173837
27.157539
27.143291
27.131083
27.120868
27.112628
27.106308
27.101878
27.099287
27.098497
27.099462
27.10213
46.002269
44.719984
43.394772
42.043442
40.697185
39.452871
38.696992
40.039794
39.19985
37.335589
36.180568
34.781215
33.487697
32.694175
31.509358
30.396926
28.603514
28.271063
28.217046