/*--------------------------------*- C++ -*----------------------------------*\
| =========                 |                                                 |
| \\      /  F ield         | OpenFOAM: The Open Source CFD Toolbox           |
|  \\    /   O peration     | Version:  2.4.0                                 |
|   \\  /    A nd           | Web:      www.OpenFOAM.org                      |
|    \\/     M anipulation  |                                                 |
\*---------------------------------------------------------------------------*/
FoamFile
{
    version     2.0;
    format      ascii;
    class       volScalarField;
    location    "120";
    object      nut;
}
// * * * * * * * * * * * * * * * * * * * * * * * * * * * * * * * * * * * * * //

dimensions      [0 2 -1 0 0 0 0];

internalField   nonuniform List<scalar> 
32000
(
4.468663e-07
1.2429661e-07
4.7971742e-07
4.8968604e-08
2.0127893e-08
3.7473648e-09
4.3523309e-09
1.7064293e-09
1.603224e-09
1.0886182e-09
8.9737236e-10
7.2359729e-10
6.1535926e-10
5.3413562e-10
4.7585073e-10
4.3281982e-10
4.0175639e-10
3.8007606e-10
3.6340121e-10
3.4954944e-10
3.3756642e-10
3.2696013e-10
3.1726546e-10
3.0822138e-10
2.9946451e-10
2.9081097e-10
2.8176595e-10
2.7274429e-10
2.644874e-10
2.5720122e-10
2.5087536e-10
2.4546347e-10
2.4093347e-10
2.3726051e-10
2.3451067e-10
2.3284639e-10
2.3221293e-10
2.3213349e-10
2.3240966e-10
2.3303169e-10
2.3402689e-10
2.3546193e-10
2.3750307e-10
2.4041372e-10
2.4479831e-10
2.5178624e-10
2.6655989e-10
2.8490573e-10
2.9751569e-10
3.0796943e-10
3.169202e-10
3.2486508e-10
3.3198549e-10
3.3843817e-10
3.4432197e-10
3.4971592e-10
3.5468064e-10
3.5926548e-10
3.635106e-10
3.6745035e-10
3.7111391e-10
3.7452631e-10
3.7770912e-10
3.8068145e-10
3.8346008e-10
3.8605982e-10
3.88494e-10
3.9077461e-10
3.9291209e-10
3.949161e-10
3.9679537e-10
3.9855788e-10
4.0021071e-10
4.017606e-10
4.0321357e-10
4.0457527e-10
4.0585161e-10
4.0704747e-10
4.0816925e-10
4.0922061e-10
4.1020738e-10
4.1112915e-10
4.1198423e-10
4.1277686e-10
4.1350913e-10
4.1418486e-10
4.148063e-10
4.1535956e-10
4.1582566e-10
4.1637129e-10
4.167975e-10
4.1717646e-10
4.1750955e-10
4.1779773e-10
4.180419e-10
4.182431e-10
4.1840196e-10
4.1851903e-10
4.1859466e-10
4.1862898e-10
4.1862302e-10
4.1857566e-10
4.1848668e-10
4.1835674e-10
4.1818506e-10
4.1797121e-10
4.1771445e-10
4.1741415e-10
4.170694e-10
4.1667915e-10
4.1624227e-10
4.1575742e-10
4.1522318e-10
4.146379e-10
4.139998e-10
4.1330691e-10
4.12557e-10
4.1174778e-10
4.1087655e-10
4.0994053e-10
4.0893667e-10
4.0786154e-10
4.0671142e-10
4.0548248e-10
4.0417016e-10
4.0276983e-10
4.0127632e-10
3.9968381e-10
3.979863e-10
3.9617696e-10
3.9424823e-10
3.9219209e-10
3.8999963e-10
3.8766075e-10
3.8516458e-10
3.8249894e-10
3.7964998e-10
3.7660267e-10
3.7333974e-10
3.6984178e-10
3.6608662e-10
3.6204898e-10
3.5769924e-10
3.5300281e-10
3.4791885e-10
3.4239779e-10
3.3637902e-10
3.2978351e-10
3.2251247e-10
3.1441027e-10
3.0529705e-10
2.9467841e-10
2.8191258e-10
2.6346068e-10
2.4856695e-10
2.4140348e-10
2.3678267e-10
2.3359185e-10
2.312971e-10
2.2955843e-10
2.2819462e-10
2.2725709e-10
2.2666554e-10
2.2644275e-10
2.2669456e-10
2.2782274e-10
2.3006983e-10
2.3316483e-10
2.3704198e-10
2.4172019e-10
2.4720529e-10
2.5354033e-10
2.6069914e-10
2.6847611e-10
2.7611048e-10
2.8323557e-10
2.8991249e-10
2.9696293e-10
3.0424828e-10
3.1205932e-10
3.2072573e-10
3.3063304e-10
3.4250402e-10
3.5835392e-10
3.8156756e-10
4.138505e-10
4.5758066e-10
5.1605651e-10
5.9749045e-10
7.0410307e-10
8.7684584e-10
1.0543546e-09
1.5406817e-09
1.5107186e-09
3.7041803e-09
2.5822458e-09
1.5425781e-08
2.8739239e-08
1.6761992e-07
1.49051e-07
2.1394051e-07
1.1563552e-07
2.1167088e-07
6.4817105e-08
2.5322556e-08
3.7707317e-09
7.1234017e-09
3.7230435e-09
2.96318e-09
2.1408271e-09
1.7114753e-09
1.3823891e-09
1.1601956e-09
9.9590105e-10
8.7424362e-10
7.8208225e-10
7.1213161e-10
6.5945746e-10
6.1693677e-10
5.8085018e-10
5.4936817e-10
5.2146967e-10
4.9626309e-10
4.7312062e-10
4.5146624e-10
4.309038e-10
4.1064898e-10
3.9097738e-10
3.7263999e-10
3.5585393e-10
3.4056029e-10
3.26623e-10
3.1394702e-10
3.0245659e-10
2.921943e-10
2.8334709e-10
2.7592508e-10
2.6951466e-10
2.6394068e-10
2.5923299e-10
2.5544769e-10
2.5266072e-10
2.5102838e-10
2.5086042e-10
2.5276352e-10
2.5799908e-10
2.7113586e-10
2.8743172e-10
2.9839222e-10
3.0724911e-10
3.147483e-10
3.2134726e-10
3.2723506e-10
3.3256755e-10
3.3744797e-10
3.4195084e-10
3.4613297e-10
3.5002437e-10
3.5362304e-10
3.569434e-10
3.6000665e-10
3.6283094e-10
3.6544048e-10
3.6786262e-10
3.7012228e-10
3.722385e-10
3.7422453e-10
3.7608895e-10
3.7783618e-10
3.7946861e-10
3.8098779e-10
3.8239593e-10
3.8369698e-10
3.8490578e-10
3.8602367e-10
3.8705739e-10
3.8801927e-10
3.8892682e-10
3.8980473e-10
3.9067998e-10
3.9157127e-10
3.9252711e-10
3.9349176e-10
3.9430074e-10
3.9499219e-10
3.9562305e-10
3.961978e-10
3.9669831e-10
3.9694459e-10
3.9750381e-10
3.977641e-10
3.9795123e-10
3.9808559e-10
3.9819236e-10
3.9830416e-10
3.984415e-10
3.9859874e-10
3.9874428e-10
3.9883954e-10
3.9885902e-10
3.9880838e-10
3.9870072e-10
3.9854476e-10
3.9835344e-10
3.9813822e-10
3.9790549e-10
3.9765639e-10
3.9738844e-10
3.9709667e-10
3.9677601e-10
3.9642253e-10
3.9603357e-10
3.9560674e-10
3.951398e-10
3.9463077e-10
3.9407793e-10
3.9347954e-10
3.9283399e-10
3.9213947e-10
3.9139413e-10
3.9059592e-10
3.8974244e-10
3.8883101e-10
3.8785877e-10
3.8682206e-10
3.8571699e-10
3.8453886e-10
3.8328217e-10
3.8194098e-10
3.8050874e-10
3.7897784e-10
3.7734026e-10
3.7558682e-10
3.7370171e-10
3.7167037e-10
3.6947816e-10
3.6710987e-10
3.6455101e-10
3.6178828e-10
3.5881083e-10
3.5561013e-10
3.5217829e-10
3.4850319e-10
3.4456199e-10
3.4031882e-10
3.3571831e-10
3.3068262e-10
3.2510715e-10
3.1885433e-10
3.1173047e-10
3.0354199e-10
2.9390321e-10
2.8230838e-10
2.6561911e-10
2.5210271e-10
2.4647142e-10
2.4407369e-10
2.4371036e-10
2.4485872e-10
2.4715343e-10
2.5038051e-10
2.5449347e-10
2.5933163e-10
2.648181e-10
2.7097172e-10
2.7818842e-10
2.868117e-10
2.9672048e-10
3.0789644e-10
3.2034468e-10
3.3403845e-10
3.4900192e-10
3.6518851e-10
3.8235232e-10
3.9965173e-10
4.1682452e-10
4.3415456e-10
4.5274779e-10
4.725539e-10
4.9411029e-10
5.1805531e-10
5.4525411e-10
5.765212e-10
6.1572922e-10
6.6764835e-10
7.3573404e-10
8.2417881e-10
9.3976708e-10
1.0953843e-09
1.3017475e-09
1.609168e-09
1.9812127e-09
2.7301015e-09
3.0381602e-09
5.8296401e-09
2.6031656e-09
1.788279e-08
3.4279782e-08
1.331325e-07
1.4269068e-07
1.5256018e-08
2.3893306e-08
2.3921409e-08
2.7068972e-08
1.6896132e-08
2.064766e-09
6.2604281e-09
4.011579e-09
2.9836434e-09
2.2984189e-09
1.821798e-09
1.4817875e-09
1.237614e-09
1.0573938e-09
9.2047043e-10
8.1455951e-10
7.3145788e-10
6.663053e-10
6.1281214e-10
5.6733822e-10
5.2784683e-10
4.9313353e-10
4.6219316e-10
4.342029e-10
4.0861802e-10
3.8495556e-10
3.6248492e-10
3.4112342e-10
3.2121367e-10
3.0288924e-10
2.8608509e-10
2.7064327e-10
2.5645917e-10
2.4345062e-10
2.3161661e-10
2.2105562e-10
2.1178932e-10
2.0362179e-10
1.9645417e-10
1.9028637e-10
1.8510337e-10
1.80875e-10
1.7759557e-10
1.7540001e-10
1.7454252e-10
1.7573914e-10
1.8095172e-10
1.8784884e-10
1.9244127e-10
1.960786e-10
1.9914989e-10
2.0185348e-10
2.0427862e-10
2.0650012e-10
2.085716e-10
2.1052585e-10
2.1238751e-10
2.1415498e-10
2.1579087e-10
2.172885e-10
2.1865229e-10
2.1988705e-10
2.2100836e-10
2.2203811e-10
2.2299661e-10
2.2389785e-10
2.2474923e-10
2.2555294e-10
2.2630688e-10
2.2700686e-10
2.2764841e-10
2.2822846e-10
2.2874691e-10
2.2921819e-10
2.2963977e-10
2.300159e-10
2.3035946e-10
2.3068993e-10
2.3103524e-10
2.3142812e-10
2.318891e-10
2.3248171e-10
2.3313493e-10
2.336283e-10
2.340099e-10
2.3435237e-10
2.3466009e-10
2.3492126e-10
2.3491269e-10
2.352468e-10
2.352803e-10
2.3525014e-10
2.3518397e-10
2.3511454e-10
2.3508426e-10
2.3511934e-10
2.3521174e-10
2.3531924e-10
2.3539026e-10
2.3538914e-10
2.3532798e-10
2.3522217e-10
2.3508062e-10
2.3492269e-10
2.3476359e-10
2.3461208e-10
2.3447018e-10
2.3433506e-10
2.3420083e-10
2.340615e-10
2.3391272e-10
2.3375203e-10
2.3357728e-10
2.3338669e-10
2.3317897e-10
2.3295329e-10
2.3270897e-10
2.3244556e-10
2.3216266e-10
2.3185989e-10
2.3153675e-10
2.3119264e-10
2.3082676e-10
2.3043818e-10
2.3002547e-10
2.2958692e-10
2.2912018e-10
2.2862208e-10
2.280887e-10
2.2751719e-10
2.2690319e-10
2.2624208e-10
2.2552831e-10
2.2474814e-10
2.2389081e-10
2.2294609e-10
2.2190431e-10
2.2075781e-10
2.1950232e-10
2.1813878e-10
2.1667366e-10
2.1511704e-10
2.134771e-10
2.1174956e-10
2.0992253e-10
2.0796335e-10
2.0581833e-10
2.034126e-10
2.0064384e-10
1.9737899e-10
1.9351623e-10
1.889497e-10
1.8361466e-10
1.7628014e-10
1.7067448e-10
1.6910814e-10
1.6950175e-10
1.7121414e-10
1.7404919e-10
1.7787557e-10
1.8261464e-10
1.8821154e-10
1.9456375e-10
2.0157789e-10
2.0919965e-10
2.1767031e-10
2.2734229e-10
2.3837024e-10
2.508065e-10
2.6463297e-10
2.7978716e-10
2.9623442e-10
3.1387835e-10
3.3257579e-10
3.5183819e-10
3.7168108e-10
3.9253907e-10
4.1527635e-10
4.4002611e-10
4.6739543e-10
4.9812849e-10
5.3332286e-10
5.7334015e-10
6.2256347e-10
6.8450076e-10
7.6293756e-10
8.6157592e-10
9.8782191e-10
1.1530523e-09
1.3718933e-09
1.678041e-09
2.0792114e-09
2.734169e-09
3.1324698e-09
5.1203048e-09
1.3647624e-09
1.1721598e-08
2.0682834e-08
2.0020452e-08
2.5794479e-08
2.316692e-10
1.1358273e-09
6.4642601e-10
5.6787805e-09
5.8702063e-09
8.4358752e-10
3.1829977e-09
2.4920935e-09
2.0852965e-09
1.8252753e-09
1.4931204e-09
1.2316346e-09
1.0322359e-09
8.8291291e-10
7.6573779e-10
6.7253546e-10
5.9686628e-10
5.3565467e-10
4.8508489e-10
4.4231512e-10
4.054906e-10
3.7348014e-10
3.4535669e-10
3.2027978e-10
2.9782894e-10
2.7753185e-10
2.5881868e-10
2.4134869e-10
2.2513494e-10
2.1027108e-10
1.967334e-10
1.8440234e-10
1.7320382e-10
1.6307795e-10
1.5399851e-10
1.4597315e-10
1.3897496e-10
1.3290207e-10
1.2770073e-10
1.2331803e-10
1.1965869e-10
1.1659822e-10
1.1400343e-10
1.1184831e-10
1.1011721e-10
1.0904901e-10
1.0882801e-10
1.0930781e-10
1.0969429e-10
1.0999808e-10
1.1029224e-10
1.1058642e-10
1.1088893e-10
1.1121087e-10
1.1156498e-10
1.1195332e-10
1.1237688e-10
1.128172e-10
1.1322699e-10
1.1359412e-10
1.1391365e-10
1.1418329e-10
1.1441094e-10
1.146106e-10
1.1479545e-10
1.1497365e-10
1.1514814e-10
1.1531769e-10
1.1547791e-10
1.1562282e-10
1.1574653e-10
1.1584455e-10
1.159151e-10
1.159685e-10
1.1600035e-10
1.1601005e-10
1.1601191e-10
1.1602119e-10
1.1605989e-10
1.1615456e-10
1.1632117e-10
1.1661219e-10
1.169698e-10
1.1720755e-10
1.173643e-10
1.1750043e-10
1.176194e-10
1.1771435e-10
1.1762491e-10
1.1775942e-10
1.1769117e-10
1.1757871e-10
1.1744658e-10
1.1732227e-10
1.1724119e-10
1.1722502e-10
1.1726686e-10
1.1733106e-10
1.1737387e-10
1.1736425e-10
1.1731521e-10
1.1723815e-10
1.1713911e-10
1.170359e-10
1.1694118e-10
1.1686244e-10
1.1680151e-10
1.1675614e-10
1.1672157e-10
1.166929e-10
1.1666683e-10
1.1664162e-10
1.1661575e-10
1.1658814e-10
1.1655807e-10
1.1652532e-10
1.1648985e-10
1.1645178e-10
1.1641144e-10
1.1636914e-10
1.1632519e-10
1.1627991e-10
1.1623353e-10
1.1618617e-10
1.1613775e-10
1.1608796e-10
1.1603609e-10
1.1597953e-10
1.1591308e-10
1.1584026e-10
1.1575923e-10
1.1566803e-10
1.155639e-10
1.1543739e-10
1.1528234e-10
1.1509307e-10
1.1486477e-10
1.1459479e-10
1.1428412e-10
1.1393898e-10
1.1357136e-10
1.1319757e-10
1.1283389e-10
1.1248266e-10
1.1215094e-10
1.1182677e-10
1.1148296e-10
1.1107893e-10
1.1055592e-10
1.0984309e-10
1.089123e-10
1.0782935e-10
1.0681214e-10
1.0597548e-10
1.0590562e-10
1.0673713e-10
1.0816812e-10
1.1002926e-10
1.1237248e-10
1.1526259e-10
1.1873685e-10
1.2278003e-10
1.2737862e-10
1.3248335e-10
1.3802756e-10
1.4419083e-10
1.5132648e-10
1.5974551e-10
1.6953031e-10
1.8064501e-10
1.930062e-10
2.0651302e-10
2.2090877e-10
2.3627852e-10
2.5245974e-10
2.6965871e-10
2.8835616e-10
3.0910119e-10
3.3215191e-10
3.5810192e-10
3.8768538e-10
4.2202975e-10
4.6106088e-10
5.0886793e-10
5.670224e-10
6.3866399e-10
7.2479437e-10
8.3155641e-10
9.6621075e-10
1.1409152e-09
1.3705865e-09
1.678585e-09
2.1082324e-09
2.1090353e-09
2.9155459e-09
5.7902994e-10
5.2376503e-09
5.6035859e-09
5.8750142e-10
1.2147957e-09
2.2788437e-13
1.3502434e-11
1.6313605e-12
6.1710941e-10
1.2060127e-09
2.7127213e-10
1.2205683e-09
1.1255936e-09
9.9966748e-10
9.389754e-10
8.1408021e-10
7.1353899e-10
6.2407234e-10
5.5001199e-10
4.8555539e-10
4.2960415e-10
3.8054836e-10
3.3892761e-10
3.0442878e-10
2.7542284e-10
2.5058205e-10
2.2915624e-10
2.1050915e-10
1.9400682e-10
1.7945409e-10
1.6650343e-10
1.5477696e-10
1.4383531e-10
1.3358747e-10
1.2421123e-10
1.1579435e-10
1.0831987e-10
1.0178329e-10
9.6169866e-11
9.1454111e-11
8.7578259e-11
8.4436726e-11
8.1892272e-11
7.9929684e-11
7.845476e-11
7.7319681e-11
7.6351834e-11
7.5356066e-11
7.4224981e-11
7.2805788e-11
7.1081678e-11
6.8350757e-11
6.5845182e-11
6.4422208e-11
6.3374426e-11
6.2590324e-11
6.1978663e-11
6.1503017e-11
6.1139645e-11
6.0878596e-11
6.0706387e-11
6.0612166e-11
6.0573621e-11
6.0547561e-11
6.0517585e-11
6.047545e-11
6.0416621e-11
6.0344932e-11
6.0269324e-11
6.0198323e-11
6.0136751e-11
6.0085511e-11
6.0042466e-11
6.0003228e-11
5.9962321e-11
5.9914476e-11
5.9855604e-11
5.9783752e-11
5.9705975e-11
5.9611481e-11
5.9483129e-11
5.9357568e-11
5.9245935e-11
5.916427e-11
5.9132217e-11
5.9161297e-11
5.9290383e-11
5.9477147e-11
5.9579636e-11
5.9626012e-11
5.9661849e-11
5.9689849e-11
5.970543e-11
5.9623499e-11
5.9637996e-11
5.9543037e-11
5.9418283e-11
5.9283421e-11
5.9159306e-11
5.9072591e-11
5.9039526e-11
5.9054882e-11
5.9091721e-11
5.9116672e-11
5.9106458e-11
5.9070531e-11
5.9017071e-11
5.8951052e-11
5.8886306e-11
5.8832305e-11
5.8794761e-11
5.8775104e-11
5.8771667e-11
5.8780906e-11
5.8799096e-11
5.8824e-11
5.8854406e-11
5.8889316e-11
5.8928072e-11
5.897033e-11
5.9016127e-11
5.9065666e-11
5.9119292e-11
5.9177529e-11
5.9240936e-11
5.9310081e-11
5.9385589e-11
5.9468056e-11
5.9558024e-11
5.9655962e-11
5.9762182e-11
5.9876741e-11
5.9990791e-11
6.0082377e-11
6.0178428e-11
6.0278261e-11
6.0381164e-11
6.0485482e-11
6.0584846e-11
6.0675833e-11
6.0755261e-11
6.0820867e-11
6.0872308e-11
6.0912459e-11
6.0948766e-11
6.0993811e-11
6.1064289e-11
6.1177846e-11
6.1344522e-11
6.1575361e-11
6.1869817e-11
6.2217355e-11
6.2599503e-11
6.2986012e-11
6.3344394e-11
6.3685211e-11
6.415257e-11
6.5093708e-11
6.7342177e-11
6.9904295e-11
7.1555482e-11
7.2887833e-11
7.3982438e-11
7.5015513e-11
7.615088e-11
7.748051e-11
7.9026042e-11
8.0849829e-11
8.2965423e-11
8.5315735e-11
8.8138854e-11
9.1797402e-11
9.6637831e-11
1.0272592e-10
1.1000274e-10
1.1835957e-10
1.2756096e-10
1.3674896e-10
1.4670847e-10
1.5744929e-10
1.6921628e-10
1.8242299e-10
1.9737236e-10
2.1431289e-10
2.3376245e-10
2.5634247e-10
2.8301607e-10
3.1349188e-10
3.509848e-10
3.9557414e-10
4.492066e-10
5.0564747e-10
5.6885201e-10
6.3995056e-10
7.2177204e-10
8.1234946e-10
9.1435253e-10
1.0296637e-09
9.4238693e-10
1.1780845e-09
2.1755031e-10
1.2310166e-09
8.2488022e-10
1.6863338e-12
1.430323e-11
2.0480955e-17
5.7541145e-15
4.2712583e-17
2.6677971e-11
1.540412e-10
7.0970584e-11
3.8829479e-10
4.2652511e-10
3.9558476e-10
3.9527233e-10
3.5667117e-10
3.2499861e-10
2.9159335e-10
2.6143115e-10
2.3300589e-10
2.0689578e-10
1.8297959e-10
1.6221298e-10
1.4513637e-10
1.3103897e-10
1.1921374e-10
1.0925755e-10
1.0080338e-10
9.3456137e-11
8.7215175e-11
8.1894116e-11
7.73392e-11
7.3318714e-11
6.974054e-11
6.6699235e-11
6.4251647e-11
6.238192e-11
6.1077221e-11
6.0312394e-11
6.0043034e-11
6.01452e-11
6.0468725e-11
6.042877e-11
4.8240048e-11
3.917615e-11
3.2538848e-11
2.7759188e-11
2.441138e-11
2.2264485e-11
2.1179735e-11
2.1213509e-11
2.2443479e-11
2.3568713e-11
2.4184281e-11
2.4616128e-11
2.4973249e-11
2.5289e-11
2.5584573e-11
2.5878932e-11
2.6190358e-11
2.6525201e-11
2.6887076e-11
2.7264567e-11
2.7617309e-11
2.792497e-11
2.818187e-11
2.8384995e-11
2.8542298e-11
2.8668643e-11
2.8778317e-11
2.8880425e-11
2.8978546e-11
2.9071855e-11
2.9156166e-11
2.9225529e-11
2.9273995e-11
2.9297064e-11
2.9292997e-11
2.9271552e-11
2.9232059e-11
2.9177931e-11
2.9118432e-11
2.9069699e-11
2.9054294e-11
2.9099386e-11
2.9221666e-11
2.9471588e-11
2.9800364e-11
3.0018107e-11
3.0147076e-11
3.0248957e-11
3.0331581e-11
3.0404347e-11
3.0342354e-11
3.0345511e-11
3.0229231e-11
3.0068522e-11
2.9892404e-11
2.9732632e-11
2.962672e-11
2.9596459e-11
2.9633081e-11
2.9697374e-11
2.9741352e-11
2.9715164e-11
2.966875e-11
2.9606179e-11
2.9509015e-11
2.9409741e-11
2.9322173e-11
2.9254753e-11
2.9210066e-11
2.9186112e-11
2.9177963e-11
2.9180037e-11
2.9188631e-11
2.9201842e-11
2.9218104e-11
2.9236224e-11
2.9255419e-11
2.9275408e-11
2.9296113e-11
2.9317637e-11
2.9340297e-11
2.9364417e-11
2.9390303e-11
2.9418278e-11
2.9448572e-11
2.948126e-11
2.9516229e-11
2.9553048e-11
2.9590842e-11
2.9628441e-11
2.96644e-11
2.9696855e-11
2.9723616e-11
2.974237e-11
2.9748838e-11
2.9733247e-11
2.9689935e-11
2.9613454e-11
2.9499815e-11
2.9347721e-11
2.9159986e-11
2.8944637e-11
2.8714692e-11
2.848591e-11
2.8272262e-11
2.8080944e-11
2.7907793e-11
2.7735985e-11
2.7533848e-11
2.7255457e-11
2.6836128e-11
2.6198684e-11
2.5317029e-11
2.4275694e-11
2.326059e-11
2.1991377e-11
2.0660049e-11
2.058756e-11
2.1605293e-11
2.3719435e-11
2.7122101e-11
3.2097079e-11
3.906776e-11
4.843887e-11
6.0675491e-11
6.0198828e-11
5.9301017e-11
5.8458587e-11
5.807581e-11
5.8502132e-11
5.9761035e-11
6.1785288e-11
6.4486095e-11
6.7743867e-11
7.129164e-11
7.5262976e-11
7.9704316e-11
8.4781117e-11
9.0754448e-11
9.7725704e-11
1.0577324e-10
1.1526679e-10
1.2658637e-10
1.4029851e-10
1.5617409e-10
1.759061e-10
1.9870229e-10
2.247352e-10
2.5151517e-10
2.7974166e-10
3.0871256e-10
3.3844466e-10
3.6560503e-10
3.8923677e-10
4.070548e-10
3.4747556e-10
3.8986896e-10
7.6768212e-11
1.8020668e-10
6.4589001e-11
7.9604576e-17
5.584245e-15
4.5942279e-22
3.2042754e-19
4.5076442e-23
1.8814694e-13
1.1309987e-11
1.3005522e-11
1.0562789e-10
1.4295945e-10
1.3662965e-10
1.461444e-10
1.3695876e-10
1.2971133e-10
1.1956402e-10
1.0953567e-10
9.9291843e-11
8.9456378e-11
8.0171431e-11
7.2034058e-11
6.5484896e-11
6.0276553e-11
5.6100179e-11
5.2773071e-11
5.0133341e-11
4.798381e-11
4.6350739e-11
4.5161156e-11
4.4388786e-11
4.3978115e-11
4.3880186e-11
4.0332667e-11
3.2608898e-11
2.5889222e-11
2.0167249e-11
1.540871e-11
1.1550994e-11
8.5272811e-12
6.2687727e-12
4.652213e-12
3.5048352e-12
2.697702e-12
2.1355496e-12
1.7476331e-12
1.4845989e-12
1.3187852e-12
1.232624e-12
1.2257535e-12
1.2991839e-12
1.3630274e-12
1.3941386e-12
1.4147706e-12
1.4315688e-12
1.4466188e-12
1.461223e-12
1.4765539e-12
1.493881e-12
1.5136314e-12
1.5359702e-12
1.5600252e-12
1.5826533e-12
1.6022086e-12
1.6181318e-12
1.6301838e-12
1.6389536e-12
1.6455674e-12
1.6511094e-12
1.6562672e-12
1.6613053e-12
1.6661487e-12
1.6704661e-12
1.6737894e-12
1.6756497e-12
1.6756897e-12
1.6737646e-12
1.6705338e-12
1.6660218e-12
1.6604801e-12
1.6546114e-12
1.6496394e-12
1.6472781e-12
1.6496012e-12
1.6579246e-12
1.6760382e-12
1.7004818e-12
1.7167104e-12
1.7261576e-12
1.7335202e-12
1.7394351e-12
1.7444232e-12
1.7396183e-12
1.7394241e-12
1.7301855e-12
1.7173817e-12
1.7034066e-12
1.6907161e-12
1.6821839e-12
1.6794905e-12
1.6820046e-12
1.6867578e-12
1.6900455e-12
1.6878907e-12
1.6843407e-12
1.679638e-12
1.6721818e-12
1.6646382e-12
1.6580655e-12
1.6531113e-12
1.649964e-12
1.6484577e-12
1.6482013e-12
1.6487509e-12
1.6498433e-12
1.6513313e-12
1.6530966e-12
1.6550507e-12
1.6571372e-12
1.6593376e-12
1.6616493e-12
1.6640839e-12
1.6666691e-12
1.6694335e-12
1.6724048e-12
1.6756125e-12
1.6790788e-12
1.6828144e-12
1.6868161e-12
1.6910559e-12
1.6954728e-12
1.6999827e-12
1.70448e-12
1.7088264e-12
1.7128585e-12
1.7164088e-12
1.7190614e-12
1.7201254e-12
1.7191851e-12
1.715835e-12
1.7097904e-12
1.7009857e-12
1.6896832e-12
1.6765537e-12
1.6626516e-12
1.6492348e-12
1.6374167e-12
1.6277897e-12
1.6200846e-12
1.6130689e-12
1.6043747e-12
1.5905256e-12
1.5665888e-12
1.5266659e-12
1.4689835e-12
1.4005666e-12
1.3374309e-12
1.2623763e-12
1.1821192e-12
1.1859064e-12
1.2664286e-12
1.4289309e-12
1.6950879e-12
2.0982041e-12
2.6891479e-12
3.5247443e-12
4.6758426e-12
6.2198771e-12
8.2442682e-12
1.084864e-11
1.4158849e-11
1.8410441e-11
2.3807033e-11
3.0471378e-11
3.843739e-11
4.3065413e-11
4.3403017e-11
4.3994463e-11
4.4868965e-11
4.6076338e-11
4.77117e-11
4.9800249e-11
5.2396477e-11
5.5670087e-11
5.9806208e-11
6.5097347e-11
7.1310338e-11
7.9272524e-11
8.8377653e-11
9.8518991e-11
1.0867077e-10
1.1876448e-10
1.2808291e-10
1.3630538e-10
1.413485e-10
1.4304937e-10
1.3920475e-10
1.1310867e-10
1.1033191e-10
2.0849366e-11
1.5502328e-11
2.3033239e-12
4.7044661e-22
2.279121e-19
1.0787907e-27
3.7850255e-24
9.6046091e-30
5.5910328e-17
2.3319405e-13
9.0803014e-13
1.6932322e-11
4.5602989e-11
4.357724e-11
5.0765477e-11
4.9619796e-11
4.9462687e-11
4.7514551e-11
4.5347163e-11
4.2816961e-11
4.0299409e-11
3.7871954e-11
3.577978e-11
3.423326e-11
2.9989571e-11
2.4193903e-11
1.9643533e-11
1.6058082e-11
1.316827e-11
1.0864138e-11
9.0064343e-12
7.4908165e-12
6.1649527e-12
4.9663521e-12
3.9176394e-12
3.0290845e-12
2.2911071e-12
1.693481e-12
1.222773e-12
8.6279698e-13
5.9755787e-13
4.1181618e-13
2.8719225e-13
2.0402489e-13
1.4878478e-13
1.1226053e-13
8.8154872e-14
7.2367129e-14
6.2625212e-14
5.7504776e-14
5.6739583e-14
6.0171724e-14
6.2976572e-14
6.4118331e-14
6.4797474e-14
6.5332518e-14
6.582658e-14
6.6342419e-14
6.6937888e-14
6.767984e-14
6.8593111e-14
6.9682004e-14
7.0896523e-14
7.204879e-14
7.3035496e-14
7.3817174e-14
7.437957e-14
7.4756893e-14
7.5015456e-14
7.521915e-14
7.5408414e-14
7.5598633e-14
7.5785028e-14
7.5947659e-14
7.6058387e-14
7.6088959e-14
7.6017639e-14
7.5835309e-14
7.5575436e-14
7.5244218e-14
7.4856057e-14
7.4451978e-14
7.4103292e-14
7.3910035e-14
7.3993964e-14
7.4435325e-14
7.545365e-14
7.6863443e-14
7.7808788e-14
7.8354852e-14
7.8775953e-14
7.9112174e-14
7.9384368e-14
7.9108804e-14
7.9078184e-14
7.8522015e-14
7.7744975e-14
7.6897565e-14
7.6126062e-14
7.5599566e-14
7.541792e-14
7.55472e-14
7.5815867e-14
7.6005116e-14
7.5873568e-14
7.5662161e-14
7.5385928e-14
7.4944337e-14
7.450162e-14
7.4120658e-14
7.3839485e-14
7.3668308e-14
7.3596262e-14
7.3598961e-14
7.3649697e-14
7.3734072e-14
7.384339e-14
7.3970783e-14
7.4111233e-14
7.4261621e-14
7.4421047e-14
7.4589537e-14
7.476797e-14
7.4958148e-14
7.5161955e-14
7.5381228e-14
7.5617919e-14
7.5873562e-14
7.6149021e-14
7.6444337e-14
7.6758101e-14
7.7086936e-14
7.7426133e-14
7.7769615e-14
7.8109305e-14
7.8435627e-14
7.8739584e-14
7.8987965e-14
7.9146961e-14
7.9191484e-14
7.9098066e-14
7.8850942e-14
7.844812e-14
7.7907787e-14
7.7272758e-14
7.6608483e-14
7.599187e-14
7.5490752e-14
7.5141944e-14
7.4931752e-14
7.4789687e-14
7.4577671e-14
7.4090204e-14
7.3032839e-14
7.105189e-14
6.8047339e-14
6.4460875e-14
6.1325909e-14
5.7834109e-14
5.405091e-14
5.4632207e-14
5.9388279e-14
6.888081e-14
8.4789067e-14
1.0982163e-13
1.4829263e-13
2.0560164e-13
2.8897888e-13
4.0722024e-13
5.7137325e-13
7.9548803e-13
1.0981099e-12
1.5106312e-12
2.0651606e-12
2.788359e-12
3.698119e-12
4.7983155e-12
6.0783389e-12
7.5062488e-12
9.1253469e-12
1.1061342e-11
1.3511236e-11
1.6543805e-11
2.0357651e-11
2.521564e-11
3.1481467e-11
3.4946223e-11
3.6391297e-11
3.8480599e-11
4.0924881e-11
4.3684429e-11
4.6351759e-11
4.8811275e-11
5.0645598e-11
5.1742217e-11
5.1000698e-11
4.9090261e-11
4.3901353e-11
3.5585835e-11
2.1462764e-11
2.1661028e-12
4.5120177e-13
1.4285952e-14
3.7951338e-27
1.4926211e-24
2.7743277e-31
1.4265751e-29
5.4384754e-27
4.1295476e-22
1.5318888e-15
4.5285411e-14
1.3932315e-12
6.8422893e-12
6.9042955e-12
1.1401796e-11
1.2438487e-11
1.3942254e-11
1.390745e-11
1.3167163e-11
1.1688176e-11
9.8327983e-12
7.7930239e-12
5.9415903e-12
4.5253153e-12
3.4745455e-12
2.6873222e-12
2.0950794e-12
1.6473871e-12
1.3006022e-12
1.0347502e-12
8.2846709e-13
6.6648013e-13
5.2981381e-13
4.1067895e-13
3.1054915e-13
2.294288e-13
1.6522901e-13
1.1586145e-13
7.9083733e-14
5.2580104e-14
3.4235557e-14
2.2192772e-14
1.4612343e-14
9.8486424e-15
6.8550093e-15
4.9712411e-15
3.7785205e-15
3.0211706e-15
2.562154e-15
2.3177597e-15
2.2659049e-15
2.3884588e-15
2.4777538e-15
2.5003248e-15
2.5080262e-15
2.5129216e-15
2.5188933e-15
2.5282372e-15
2.5432786e-15
2.5666811e-15
2.5996744e-15
2.6421869e-15
2.6918841e-15
2.739593e-15
2.7799699e-15
2.8108319e-15
2.8314901e-15
2.8435854e-15
2.8503172e-15
2.8547664e-15
2.8588785e-15
2.8633892e-15
2.8680567e-15
2.8719103e-15
2.8735792e-15
2.8716822e-15
2.8651489e-15
2.8535125e-15
2.8381143e-15
2.8194751e-15
2.7982716e-15
2.7764431e-15
2.7573501e-15
2.7457109e-15
2.7473057e-15
2.7661091e-15
2.8124607e-15
2.8784753e-15
2.9234339e-15
2.9493554e-15
2.969168e-15
2.9849186e-15
2.9971798e-15
2.9848119e-15
2.9824172e-15
2.9554729e-15
2.9174458e-15
2.8759285e-15
2.8379875e-15
2.8116688e-15
2.8017722e-15
2.8068704e-15
2.8190021e-15
2.8277749e-15
2.821436e-15
2.811162e-15
2.7977979e-15
2.7765959e-15
2.755548e-15
2.7376953e-15
2.7248341e-15
2.7173887e-15
2.7147714e-15
2.7157212e-15
2.7189799e-15
2.7238982e-15
2.7300671e-15
2.7371663e-15
2.7449676e-15
2.7533348e-15
2.7622341e-15
2.7716771e-15
2.7817155e-15
2.7924441e-15
2.8039625e-15
2.8163689e-15
2.8297669e-15
2.8442412e-15
2.8598442e-15
2.8765894e-15
2.8944205e-15
2.9131876e-15
2.9326756e-15
2.9525997e-15
2.9725749e-15
2.9921351e-15
3.0108466e-15
3.0267435e-15
3.0385188e-15
3.0449313e-15
3.0448696e-15
3.0376245e-15
3.0231931e-15
3.0025866e-15
2.9780274e-15
2.9528272e-15
2.9308248e-15
2.9154016e-15
2.9084418e-15
2.9094179e-15
2.9150596e-15
2.9187807e-15
2.9105812e-15
2.875911e-15
2.7971159e-15
2.6691834e-15
2.5148736e-15
2.3888078e-15
2.2631996e-15
2.1252745e-15
2.1681671e-15
2.3935245e-15
2.8383978e-15
3.5997974e-15
4.8412297e-15
6.8346845e-15
9.9516867e-15
1.4722873e-14
2.1850361e-14
3.2300882e-14
4.743925e-14
6.9197718e-14
1.007524e-13
1.4578604e-13
2.0797044e-13
2.9050508e-13
3.9534282e-13
5.2280634e-13
6.7063378e-13
8.4466697e-13
1.0609343e-12
1.3459571e-12
1.71302e-12
2.1941709e-12
2.8339175e-12
3.6968152e-12
4.8886674e-12
6.407198e-12
8.444719e-12
1.0720493e-11
1.2982358e-11
1.4878355e-11
1.6142989e-11
1.6415913e-11
1.5660782e-11
1.3427536e-11
1.0667622e-11
6.9223585e-12
3.9406266e-12
1.8609399e-12
1.898757e-13
3.6937269e-15
2.2343476e-17
3.0309145e-31
2.2897913e-30
4.0229939e-31
7.030882e-31
4.4653085e-31
8.1410487e-29
2.7071115e-18
1.4997169e-15
8.4996524e-14
5.9112231e-13
6.5792849e-13
1.1953646e-12
1.3794519e-12
1.6042935e-12
1.6306674e-12
1.5487246e-12
1.360264e-12
1.1184358e-12
8.5474247e-13
6.2269015e-13
4.5280941e-13
3.3244868e-13
2.462581e-13
1.8420179e-13
1.3924215e-13
1.0579405e-13
8.1152748e-14
6.275782e-14
4.8852865e-14
3.7539895e-14
2.8034436e-14
2.0362532e-14
1.4419741e-14
9.9353239e-15
6.6553369e-15
4.3372886e-15
2.7558475e-15
1.7204112e-15
1.0766829e-15
6.9135926e-16
4.5952024e-16
3.1903745e-16
2.3315903e-16
1.7980194e-16
1.4604335e-16
1.2530375e-16
1.1353285e-16
1.0957821e-16
1.116487e-16
1.117721e-16
1.0998574e-16
1.0818478e-16
1.0668021e-16
1.0553328e-16
1.0478105e-16
1.0449069e-16
1.0474634e-16
1.0559457e-16
1.0700626e-16
1.0885861e-16
1.1067802e-16
1.1217231e-16
1.1321917e-16
1.1378448e-16
1.139512e-16
1.1387973e-16
1.1372326e-16
1.1357761e-16
1.1347803e-16
1.1341106e-16
1.1332759e-16
1.1315872e-16
1.1283512e-16
1.1230273e-16
1.1153708e-16
1.1059091e-16
1.0949991e-16
1.0829659e-16
1.0707371e-16
1.0599125e-16
1.0527356e-16
1.0519724e-16
1.0596081e-16
1.0805898e-16
1.1116055e-16
1.1330966e-16
1.145432e-16
1.1547488e-16
1.1621036e-16
1.1675165e-16
1.1623383e-16
1.160189e-16
1.1468978e-16
1.1280114e-16
1.1073683e-16
1.088425e-16
1.0750423e-16
1.0695427e-16
1.0713391e-16
1.0767301e-16
1.0807458e-16
1.077928e-16
1.0728239e-16
1.0660372e-16
1.0557771e-16
1.0457218e-16
1.0373572e-16
1.0315318e-16
1.0284089e-16
1.0276602e-16
1.0286243e-16
1.0307178e-16
1.0336455e-16
1.0372161e-16
1.041281e-16
1.0457386e-16
1.050531e-16
1.0556487e-16
1.0611047e-16
1.0669307e-16
1.0731793e-16
1.0799061e-16
1.0871667e-16
1.0950197e-16
1.1035157e-16
1.1126897e-16
1.1225587e-16
1.1331061e-16
1.1442702e-16
1.155957e-16
1.1680365e-16
1.1803265e-16
1.192598e-16
1.2046043e-16
1.2152701e-16
1.2240663e-16
1.2303712e-16
1.2336442e-16
1.2335601e-16
1.2301667e-16
1.2240408e-16
1.2163819e-16
1.208944e-16
1.2037506e-16
1.2026127e-16
1.2066174e-16
1.2156742e-16
1.2283157e-16
1.241347e-16
1.2496942e-16
1.2456865e-16
1.2197246e-16
1.168731e-16
1.1054643e-16
1.0622974e-16
1.0366043e-16
1.0066134e-16
1.0415829e-16
1.1498465e-16
1.3517474e-16
1.6951985e-16
2.2611473e-16
3.1855266e-16
4.6615296e-16
6.9785756e-16
1.0545157e-15
1.597738e-15
2.4250623e-15
3.6865728e-15
5.6302549e-15
8.5730206e-15
1.2874248e-14
1.8898155e-14
2.6938012e-14
3.7157199e-14
4.9483179e-14
6.4548294e-14
8.4001827e-14
1.1070592e-13
1.4651093e-13
1.9547195e-13
2.6350443e-13
3.5961526e-13
4.9898761e-13
6.8432351e-13
9.4481881e-13
1.2456347e-12
1.5499745e-12
1.8030551e-12
1.9603462e-12
1.9694667e-12
1.8235254e-12
1.4876686e-12
1.092686e-12
6.4031567e-13
3.2778287e-13
1.190096e-13
1.3780902e-14
7.4485154e-18
1.1855041e-20
2.0796892e-27
6.840768e-31
5.7690817e-31
2.1009327e-24
3.7472397e-22
3.6766787e-25
1.5620018e-21
3.2111808e-17
3.6521689e-15
3.9997888e-14
4.9352866e-14
1.0031291e-13
1.2369425e-13
1.5042803e-13
1.5667758e-13
1.4985569e-13
1.3057588e-13
1.0512181e-13
7.7539914e-14
5.4014592e-14
3.7537151e-14
2.6389484e-14
1.8757239e-14
1.3495325e-14
9.8382077e-15
7.2208917e-15
5.364622e-15
4.0285518e-15
3.0536977e-15
2.2865498e-15
1.6629222e-15
1.1771508e-15
8.1499442e-16
5.5193789e-16
3.6639854e-16
2.3962632e-16
1.5561904e-16
1.0176672e-16
6.861918e-17
4.8732876e-17
3.6613596e-17
2.9143887e-17
2.4503905e-17
2.1544168e-17
1.9522242e-17
1.8098897e-17
1.7009535e-17
1.6195119e-17
1.5263101e-17
1.4079275e-17
1.3115181e-17
1.2364367e-17
1.1776074e-17
1.131474e-17
1.0960853e-17
1.0706931e-17
1.0550629e-17
1.0490202e-17
1.0515485e-17
1.0608351e-17
1.0709195e-17
1.0779745e-17
1.0804321e-17
1.0779248e-17
1.0714603e-17
1.0629091e-17
1.0540133e-17
1.0458275e-17
1.0387049e-17
1.0324463e-17
1.0264653e-17
1.019964e-17
1.0121484e-17
1.002401e-17
9.9043305e-18
9.7668267e-18
9.6163963e-18
9.4565041e-18
9.2969147e-18
9.1543324e-18
9.0520759e-18
9.019011e-18
9.0766549e-18
9.2771024e-18
9.5904821e-18
9.8109272e-18
9.9351827e-18
1.0026936e-17
1.009814e-17
1.0144136e-17
1.0109305e-17
1.005995e-17
9.9133106e-18
9.7054302e-18
9.4784544e-18
9.2694556e-18
9.1188444e-18
9.0510087e-18
9.0607884e-18