/*--------------------------------*- C++ -*----------------------------------*\
| =========                 |                                                 |
| \\      /  F ield         | OpenFOAM: The Open Source CFD Toolbox           |
|  \\    /   O peration     | Version:  2.4.0                                 |
|   \\  /    A nd           | Web:      www.OpenFOAM.org                      |
|    \\/     M anipulation  |                                                 |
\*---------------------------------------------------------------------------*/
FoamFile
{
    version     2.0;
    format      ascii;
    class       volScalarField;
    location    "120";
    object      p;
}
// * * * * * * * * * * * * * * * * * * * * * * * * * * * * * * * * * * * * * //

dimensions      [0 2 -2 0 0 0 0];

internalField   nonuniform List<scalar> 
32000
(
-0.058021706
-0.026465832
-0.028878201
-0.023795078
-0.02156604
-0.015033257
-0.010457614
-0.0075232938
-0.0060933384
-0.0049979777
-0.0039974384
-0.0029593792
-0.0019728333
-0.001031697
-0.00024805662
0.00043869392
0.0010022881
0.0014830864
0.0018725483
0.0021737093
0.0023668654
0.002450911
0.0024414109
0.0023564073
0.0022421524
0.0021197793
0.0020551886
0.0020929004
0.0022701514
0.0025610191
0.0029001831
0.0032194051
0.0034981681
0.0037379014
0.0039393173
0.0041028868
0.0042327069
0.0043347864
0.0044186336
0.0044911112
0.0045623126
0.0046317102
0.0046930895
0.0047500326
0.0048186418
0.0049145888
0.0050635974
0.0052411813
0.0055798021
0.00608984
0.0067791457
0.0076150705
0.0085595718
0.0095608748
0.01057453
0.01156432
0.012506688
0.013379703
0.014163668
0.014828925
0.015322908
0.015597583
0.015627914
0.015419463
0.014991398
0.014365469
0.013556931
0.012577255
0.011437934
0.0101584
0.0087697459
0.007319401
0.0058691151
0.0044890723
0.0032469791
0.0021916241
0.0013402253
0.00066997187
0.00010430163
-0.0004745935
-0.0012052465
-0.002216651
-0.0035916214
-0.0054509164
-0.0079183631
-0.011040489
-0.014805637
-0.019152246
-0.02395428
-0.029015244
-0.03405608
-0.0387444
-0.042795561
-0.046052123
-0.048572555
-0.050603906
-0.052467508
-0.054441852
-0.056687033
-0.059233934
-0.062037737
-0.065051386
-0.068261173
-0.071673447
-0.075292737
-0.07910181
-0.083060722
-0.087107654
-0.091170397
-0.095170459
-0.099037926
-0.10271241
-0.1061442
-0.10929029
-0.11211641
-0.11459343
-0.1166973
-0.1184073
-0.11970443
-0.12057059
-0.12098855
-0.12094051
-0.12040864
-0.11937618
-0.11782731
-0.11574968
-0.11313605
-0.10998414
-0.10629982
-0.10209775
-0.097402391
-0.092247855
-0.08667897
-0.080745106
-0.074501337
-0.068002613
-0.061302447
-0.054448108
-0.047481891
-0.04044433
-0.033380235
-0.026349458
-0.019434916
-0.012751728
-0.0064480285
-0.00070921071
0.0042673552
0.0083058667
0.011359302
0.01364042
0.015737717
0.018404699
0.021894159
0.026031533
0.030132575
0.034198291
0.038202467
0.042146669
0.046007782
0.049722765
0.053076534
0.055934629
0.05836164
0.060518345
0.062504683
0.064318894
0.06600967
0.067818549
0.070279819
0.073945102
0.079050752
0.085427394
0.092671361
0.10035812
0.10804845
0.11537714
0.12209454
0.12810493
0.13331561
0.13766176
0.14105669
0.14343754
0.14470755
0.14451965
0.14239605
0.13801673
0.13072535
0.11974571
0.10411768
0.082732804
0.05438284
0.018000829
-0.025340592
-0.07200718
-0.10672625
-0.12373997
-0.12411542
-0.11785895
-0.1025737
-0.097372161
-0.058023165
-0.026465595
-0.028877898
-0.023792982
-0.021566209
-0.015045166
-0.010470996
-0.0075353212
-0.0061017633
-0.0050056366
-0.0040055792
-0.0029680699
-0.0019816547
-0.0010401833
-0.00025557086
0.00043202083
0.00099661308
0.0014782097
0.001868537
0.0021705678
0.0023647485
0.0024497304
0.0024410814
0.0023567093
0.0022427995
0.0021204816
0.0020554662
0.0020923609
0.0022685779
0.0025586453
0.0028975094
0.0032168698
0.0034959092
0.0037359155
0.0039376011
0.0041014331
0.0042314959
0.0043337784
0.0044177947
0.0044903816
0.0045615864
0.0046309819
0.0046924219
0.0047494197
0.0048181183
0.0049141332
0.005063379
0.0052415098
0.005580709
0.0060911423
0.0067807237
0.0076167509
0.0085612279
0.0095623659
0.010575759
0.011565207
0.012507177
0.013379771
0.014163328
0.014828191
0.015321841
0.015596272
0.015626479
0.015417972
0.014989877
0.014363911
0.013555334
0.012575621
0.011436309
0.010156843
0.0087683607
0.0073182919
0.005868386
0.0044888119
0.0032472185
0.0021923372
0.0013413061
0.00067120561
0.00010540327
-0.00047397314
-0.0012053852
-0.0022178061
-0.0035938228
-0.0054537674
-0.0079215225
-0.011043818
-0.014809007
-0.019155439
-0.023957034
-0.029017215
-0.034056956
-0.038744016
-0.042794055
-0.046050027
-0.048570536
-0.050602494
-0.052466899
-0.054441855
-0.056687271
-0.059234076
-0.062037626
-0.065050971
-0.06826043
-0.071672343
-0.075291225
-0.079099889
-0.083058395
-0.087104992
-0.091167454
-0.095167331
-0.099034659
-0.10270907
-0.10614082
-0.10928693
-0.11211309
-0.1145902
-0.11669418
-0.11840432
-0.11970161
-0.12056796
-0.12098615
-0.12093836
-0.12040679
-0.11937467
-0.1178262
-0.11574901
-0.11313588
-0.10998451
-0.10630079
-0.10209935
-0.097404648
-0.092250798
-0.086682575
-0.080749375
-0.074506206
-0.068008034
-0.061308328
-0.054454374
-0.047488462
-0.04045114
-0.033387245
-0.026356661
-0.019442324
-0.012759358
-0.0064558712
-0.00071717567
0.0042594866
0.0082984763
0.011352958
0.013635857
0.015735212
0.018403587
0.021893001
0.026029881
0.030133932
0.034203296
0.03821088
0.042158191
0.046021659
0.049737497
0.053090562
0.055947628
0.058374327
0.060531531
0.062518863
0.064334504
0.066027766
0.067842016
0.070312476
0.073989662
0.079106674
0.08549178
0.092740404
0.10042785
0.10811531
0.11543871
0.12214971
0.12815301
0.13335599
0.13769379
0.14107966
0.14345052
0.14470848
0.14450475
0.14236187
0.13795926
0.13063908
0.11962527
0.1039578
0.08253019
0.054138301
0.017732053
-0.025597919
-0.072178874
-0.10678636
-0.12373257
-0.12409176
-0.11783996
-0.10256093
-0.097371438
-0.058024017
-0.02646508
-0.028877589
-0.023790014
-0.021566161
-0.015057633
-0.01048535
-0.0075484266
-0.0061110639
-0.0050140727
-0.0040145526
-0.0029776631
-0.0019914168
-0.0010496033
-0.00026393708
0.00042458278
0.00099028921
0.0014727875
0.001864083
0.0021670886
0.0023624076
0.002448431
0.0024407279
0.0023570609
0.0022435422
0.0021213009
0.0020558259
0.0020918294
0.0022669062
0.0025560801
0.0028945919
0.0032140822
0.0034934131
0.0037337121
0.003935692
0.0040998095
0.0042301366
0.0043326426
0.0044168461
0.0044895527
0.0045607584
0.0046301471
0.0046916523
0.0047487081
0.0048175041
0.0049135895
0.0050631032
0.005241842
0.0055817006
0.006092584
0.0067824866
0.0076186359
0.0085630944
0.0095640495
0.010577145
0.011566201
0.012507722
0.013379834
0.014162926
0.014827348
0.015320631
0.015594791
0.015624865
0.015416294
0.014988168
0.01436216
0.013553542
0.012573786
0.011434486
0.010155092
0.0087668029
0.0073170404
0.0058675595
0.0044885068
0.0032474786
0.00219314
0.0013425396
0.00067263139
0.00010670609
-0.00047319681
-0.0012054573
-0.0022190355
-0.003596241
-0.0054569111
-0.0079250087
-0.0110475
-0.014812749
-0.019159001
-0.023960133
-0.029019473
-0.03405802
-0.038743694
-0.042792464
-0.046047741
-0.048568285
-0.050600874
-0.05246615
-0.054441783
-0.056687467
-0.059234174
-0.062037445
-0.065050441
-0.068259516
-0.071671015
-0.075289425
-0.07909763
-0.083055677
-0.087101908
-0.091164062
-0.095163746
-0.099030929
-0.10270527
-0.10613699
-0.10928313
-0.11210935
-0.11458656
-0.11669067
-0.11840096
-0.11969844
-0.12056502
-0.12098346
-0.12093597
-0.12040474
-0.119373
-0.11782498
-0.1157483
-0.11313574
-0.10998499
-0.10630193
-0.10210121
-0.097407237
-0.092254141
-0.086686649
-0.080754188
-0.074511682
-0.068014128
-0.061314932
-0.054461403
-0.047495826
-0.040458764
-0.033395084
-0.026364705
-0.019450589
-0.012767859
-0.0064646006
-0.00072602793
0.0042507527
0.0082902724
0.011345893
0.013630705
0.015732327
0.018402278
0.021891708
0.026028
0.030135289
0.034208627
0.038219907
0.042170618
0.046036669
0.04975347
0.053105803
0.055961756
0.058388136
0.060545903
0.062534346
0.064351499
0.066047344
0.067867322
0.070347665
0.074037875
0.079167486
0.08556209
0.092816024
0.10050436
0.10818875
0.1155064
0.12221038
0.1282059
0.13340039
0.13772898
0.14110486
0.14346468
0.14470927
0.144488
0.14232378
0.13789537
0.13054332
0.1194918
0.10378088
0.082306413
0.053869115
0.017437802
-0.025876513
-0.072359776
-0.10684363
-0.12371802
-0.12406196
-0.1178174
-0.10254561
-0.097370489
-0.058023773
-0.026464577
-0.028876809
-0.023786824
-0.021566213
-0.015069957
-0.010499518
-0.0075614974
-0.0061204611
-0.0050226218
-0.0040236711
-0.0029874316
-0.0020013795
-0.0010592434
-0.00027252293
0.00041694277
0.00098380033
0.0014672458
0.0018595502
0.002163574
0.002360064
0.0024471576
0.0024404212
0.0023574738
0.0022443544
0.002122183
0.0020562374
0.002091325
0.0022652326
0.0025534865
0.002891625
0.0032112299
0.0034908485
0.0037314438
0.0039337275
0.0040981378
0.0042287372
0.0043314739
0.0044158698
0.0044886987
0.0045599074
0.0046292906
0.0046908615
0.0047479715
0.0048168571
0.0049130072
0.0050627882
0.0052421238
0.0055826477
0.0060939936
0.0067842389
0.0076205288
0.008564989
0.0095657735
0.010578579
0.011567238
0.012508307
0.013379929
0.014162556
0.014826542
0.015319466
0.015593355
0.015623292
0.015414648
0.014986484
0.014360428
0.013551765
0.012571957
0.011432666
0.01015333
0.0087652217
0.0073157478
0.0058666762
0.0044881334
0.0032476659
0.0021938795
0.0013437347
0.00067405433
0.00010805614
-0.00047233194
-0.0012054126
-0.0022201403
-0.0035985286
-0.0054599087
-0.0079283443
-0.011051044
-0.014816384
-0.019162498
-0.023963238
-0.029021827
-0.03405928
-0.03874364
-0.042791155
-0.046045688
-0.048566161
-0.050599263
-0.052465327
-0.054441593
-0.056687542
-0.059234168
-0.062037172
-0.065049814
-0.06825849
-0.071669564
-0.075287492
-0.079095246
-0.083052839
-0.087098727
-0.091160592
-0.095160112
-0.099027164
-0.10270146
-0.10613317
-0.10927935
-0.11210564
-0.11458296
-0.11668721
-0.11839768
-0.11969536
-0.12056217
-0.12098089
-0.12093371
-0.12040284
-0.11937151
-0.11782396
-0.1157478
-0.11313582
-0.10998571
-0.10630332
-0.10210333
-0.097410086
-0.092257751
-0.086690984
-0.080759262
-0.074517408
-0.068020467
-0.061321767
-0.054468656
-0.047503407
-0.040466594
-0.033403118
-0.026372924
-0.019458999
-0.012776462
-0.0064733758
-0.00073485457
0.0042421147
0.0082822046
0.011338934
0.013625496
0.015729201
0.018400637
0.021890123
0.026025752
0.030136272
0.034213627
0.038228655
0.042182842
0.046051601
0.049769528
0.05312127
0.055976143
0.058402199
0.060560496
0.062549981
0.064368476
0.066066564
0.067891974
0.070382041
0.074085535
0.079228246
0.085632915
0.092892623
0.10058217
0.10826363
0.11557551
0.1222724
0.12826001
0.13344586
0.13776505
0.14113071
0.14347927
0.1447102
0.14447095
0.14228486
0.13783007
0.13044552
0.11935562
0.10360071
0.082079166
0.053597166
0.017143334
-0.026149956
-0.072527832
-0.10688528
-0.12369166
-0.12402595
-0.11779207
-0.10252949
-0.097368794
-0.058022368
-0.026464119
-0.028875295
-0.023783435
-0.02156638
-0.015082723
-0.010513941
-0.0075749494
-0.0061302514
-0.0050315842
-0.004033262
-0.0029977289
-0.0020118972
-0.0010694393
-0.00028162016
0.00040884233
0.00097692307
0.0014613856
0.0018547696
0.0021598856
0.0023576197
0.0024458504
0.0024401339
0.0023579442
0.0022452431
0.0021231352
0.0020566833
0.0020907942
0.0022634642
0.0025507489
0.0028884941
0.0032082141
0.0034881314
0.0037290385
0.0039316415
0.0040963654
0.0042272544
0.0043302359
0.0044148355
0.0044877933
0.0045590073
0.0046283865
0.0046900242
0.0047471829
0.0048161488
0.0049123569
0.0050624073
0.005242347
0.0055835596
0.0060953974
0.0067860188
0.0076224776
0.0085669643
0.0095675909
0.010580106
0.01156836
0.01250896
0.013380073
0.014162224
0.014825768
0.015318335
0.015591947
0.015621738
0.015413006
0.014984794
0.014358679
0.013549965
0.012570096
0.011430805
0.010151513
0.0087635728
0.0073143723
0.0058656995
0.0044876637
0.0032477642
0.0021945531
0.0013449036
0.00067550108
0.00010948872
-0.00047134246
-0.0012052236
-0.0022211155
-0.0036007046
-0.0054627908
-0.0079315662
-0.011054498
-0.014819972
-0.019166002
-0.023966431
-0.029024367
-0.034060826
-0.038743938
-0.042790197
-0.046043904
-0.048564165
-0.050597634
-0.052464392
-0.054441251
-0.056687472
-0.059234036
-0.062036784
-0.06504906
-0.06825731
-0.071667936
-0.075285362
-0.079092663
-0.083049805
-0.087095371
-0.091156973
-0.095156359
-0.099023297
-0.10269758
-0.10612928
-0.10927553
-0.11210191
-0.11457936
-0.11668377
-0.11839443
-0.11969234
-0.1205594
-0.12097842
-0.12093157
-0.12040109
-0.1193702
-0.11782315
-0.11574755
-0.11313619
-0.10998675
-0.10630507
-0.10210584
-0.097413348
-0.092261802
-0.086695783
-0.080764821
-0.074523628
-0.068027311
-0.06132911
-0.054476418
-0.047511497
-0.040474925
-0.033411635
-0.0263816
-0.019467827
-0.012785426
-0.0064824463
-0.0007438912
0.0042333528
0.0082740701
0.011331888
0.013620038
0.015725629
0.018398469
0.021888084
0.026022935
0.03013679
0.034218331
0.038237298
0.042195187
0.046066928
0.049786241
0.053137543
0.055991343
0.058417058
0.06057588
0.062566387
0.064386118
0.066086258
0.067917073
0.070417179
0.074134762
0.079291571
0.085707213
0.092973325
0.10066435
0.10834281
0.11564866
0.1223381
0.12831737
0.13349409
0.13780335
0.14115819
0.14349485
0.14471131
0.14445303
0.14224375
0.13776109
0.13034224
0.11921198
0.10341108
0.081840899
0.053313926
0.01684052
-0.026423645
-0.072682135
-0.10690503
-0.12364661
-0.12397938
-0.1177616
-0.10251201
-0.097366001
-0.058019669
-0.026463647
-0.028872845
-0.023779725
-0.02156655
-0.015095959
-0.010528551
-0.007588763
-0.0061404408
-0.005040991
-0.0040433678
-0.0030086045
-0.0020230183
-0.0010802343
-0.00029126501
0.0004002495
0.00096962538
0.0014551723
0.0018497054
0.0021559875
0.0023550429
0.0024444821
0.0024398429
0.0023584518
0.0022461891
0.0021241389
0.0020571414
0.0020902116
0.0022615739
0.0025478449
0.0028851855
0.003205029
0.0034852591
0.0037264943
0.0039294331
0.0040944895
0.004225684
0.0043289241
0.0044137384
0.0044868309
0.0045580514
0.0046274262
0.0046891298
0.0047463283
0.0048153608
0.0049116165
0.0050619349
0.0052424915
0.0055844204
0.0060967856
0.0067878217
0.007624484
0.0085690262
0.0095695116
0.010581739
0.011569574
0.012509688
0.01338027
0.014161931
0.014825033
0.015317241
0.01559057
0.015620206
0.015411371
0.014983098
0.014356916
0.013548143
0.012568203
0.011428901
0.010149637
0.0087618479
0.0073129022
0.0058646146
0.0044870806
0.0032477559
0.0021951457
0.0013460374
0.00067697386
0.00011101882
-0.00047020042
-0.0012048531
-0.002221924
-0.0036027365
-0.0054655254
-0.0079346436
-0.011057837
-0.014823496
-0.019169514
-0.023969731
-0.029027138
-0.03406273
-0.038744681
-0.042789689
-0.046042465
-0.048562335
-0.050595986
-0.052463315
-0.05444072
-0.056687222
-0.059233754
-0.062036259
-0.065048155
-0.068255951
-0.071666104
-0.075283008
-0.079089856
-0.083046559
-0.087091832
-0.09115321
-0.095152498
-0.099019342
-0.10269363
-0.10612536
-0.10927169
-0.11209819
-0.1145758
-0.11668038
-0.11839126
-0.11968941
-0.12055675
-0.1209761
-0.12092961
-0.12039954
-0.11936913
-0.11782262
-0.11574761
-0.11313691
-0.10998818
-0.10630723
-0.10210881
-0.097417098
-0.092266374
-0.086701133
-0.080770952
-0.074530434
-0.068034753
-0.061337056
-0.054484783
-0.047520183
-0.040483835
-0.033420707
-0.026390795
-0.019477126
-0.012794799
-0.0064918497
-0.00075316904
0.0042244392
0.0082658407
0.011324719
0.013614267
0.015721501
0.018395652
0.021885505
0.026019427
0.030136708
0.034222597
0.038245702
0.042207544
0.046082592
0.049803608
0.053154651
0.0560074
0.058432767
0.060592138
0.062583679
0.064404579
0.066106646
0.067942907
0.070453488
0.074186064
0.079358042
0.085785586
0.093058709
0.10075142
0.10842677
0.11572622
0.12240779
0.12837824
0.13354529
0.13784403
0.14118738
0.14351143
0.14471256
0.14443409
0.1422002
0.137688
0.13023292
0.11906022
0.10321131
0.081591055
0.053019425
0.01653079
-0.026693519
-0.07281479
-0.1068934
-0.12357496
-0.12391749
-0.11772363
-0.10249263
-0.097361792
-0.058015557
-0.026463084
-0.028869165
-0.023775572
-0.021566595
-0.015109686
-0.010543251
-0.0076028672
-0.0061509993
-0.0050508449
-0.0040540057
-0.0030200831
-0.0020347675
-0.0010916491
-0.00030147368
0.00039114964
0.0009618902
0.0014485849
0.0018443344
0.0021518549
0.00235231
0.0024430317
0.0024395287
0.0023589783
0.002247174
0.0021251747
0.0020575892
0.0020895519
0.0022595371
0.0025447559
0.0028816902
0.0032016733
0.0034822327
0.0037238127
0.0039271038
0.0040925098
0.0042240251
0.0043275367
0.0044125761
0.0044858088
0.0045570357
0.0046264046
0.0046881709
0.0047453961
0.0048144765
0.0049107642
0.0050613434
0.0052425337
0.0055852075
0.0060981399
0.006789633
0.0076265402
0.0085711726
0.0095715387
0.010583484
0.011570889
0.012510497
0.013380527
0.014161686
0.014824344
0.015316194
0.015589235
0.015618704
0.015409751
0.014981406
0.014355146
0.013546306
0.012566283
0.011426957
0.010147702
0.0087600416
0.0073113256
0.0058634032
0.0044863598
0.0032476124
0.0021956278
0.0013471116
0.00067846052
0.00011265144
-0.00046888052
-0.0012042584
-0.0022225155
-0.0036045731
-0.0054680623
-0.0079375289
-0.011061021
-0.014826925
-0.019173022
-0.023973152
-0.029030187
-0.034065074
-0.038745981
-0.042789761
-0.046041481
-0.048560731
-0.050594325
-0.052462065
-0.054439955
-0.056686756
-0.059233294
-0.062035575
-0.065047081
-0.068254392
-0.071664045
-0.075280413
-0.079086813
-0.083043097
-0.087088123
-0.091149333
-0.095148564
-0.09901534
-0.10268967
-0.10612146
-0.10926791
-0.11209454
-0.11457233
-0.11667711
-0.11838822
-0.11968664
-0.12055428
-0.12097399
-0.12092789
-0.12039827
-0.11936837
-0.11782244
-0.11574806
-0.11313806
-0.10999009
-0.10630991
-0.10211232
-0.097421423
-0.092271559
-0.08670713
-0.080777749
-0.07453792
-0.068042882
-0.061345688
-0.054493827
-0.047529537
-0.040493388
-0.033430389
-0.026400554
-0.019486934
-0.012804611
-0.0065016092
-0.00076270435
0.0042153635
0.0082575085
0.011317409
0.013608137
0.015716716
0.018392057
0.021882278
0.026015094
0.030135873
0.034226251
0.038253688
0.04221975
0.04609848
0.049821574
0.053172581
0.056024325
0.058449359
0.060609326
0.062601933
0.064423951
0.066127839
0.067969606
0.070491168
0.074239714
0.079428003
0.085868406
0.093149148
0.10084372
0.10851576
0.11580842
0.12248165
0.12844275
0.13359956
0.13788716
0.14121833
0.14352901
0.14471388
0.14441403
0.14215402
0.13761058
0.13011728
0.11890001
0.10300114
0.081329698
0.052714478
0.016216489
-0.026954617
-0.072917224
-0.1068403
-0.123468
-0.12383481
-0.11767527
-0.10247069
-0.09735569
-0.058009911
-0.026462346
-0.028863858
-0.023770833
-0.021566338
-0.015123945
-0.010557969
-0.0076171829
-0.0061618904
-0.0050611468
-0.0040651951
-0.0030321943
-0.0020471757
-0.0011037119
-0.00031227016
0.00038152046
0.00095369403
0.0014415975
0.00183863
0.0021474613
0.0023493973
0.0024414793
0.0024391738
0.0023595079
0.0022481823
0.0021262261
0.0020580065
0.0020887909
0.0022573277
0.0025414606
0.0028779953
0.0031981415
0.0034790495
0.0037209918
0.0039246516
0.0040904236
0.0042222744
0.0043260703
0.0044113453
0.0044847232
0.0045559558
0.004625316
0.0046871394
0.004744374
0.0048134774
0.0049097752
0.0050606012
0.0052424449
0.0055858949
0.0060994387
0.0067914361
0.007628637
0.0085734001
0.0095736752
0.010585348
0.011572315
0.012511398
0.013380854
0.014161497
0.014823712
0.015315205
0.015587952
0.015617241
0.015408153
0.014979721
0.014353374
0.013544458
0.012564342
0.011424975
0.010145706
0.0087581446
0.0073096257
0.0058620438
0.0044854691
0.0032472965
0.0021959608
0.0013480921
0.0006799411
0.00011438744
-0.00046735658
-0.001203392
-0.0022228313
-0.003606157
-0.0054703491
-0.0079401759
-0.011064009
-0.014830235
-0.01917652
-0.023976714
-0.02903357
-0.034067957
-0.038747973
-0.042790561
-0.046041078
-0.048559425
-0.05059266
-0.052460606
-0.054438906
-0.05668603
-0.059232625
-0.06203471
-0.065045818
-0.068252614
-0.071661743
-0.075277562
-0.079083528
-0.083039427
-0.087084279
-0.09114539
-0.095144602
-0.099011348
-0.10268577
-0.10611765
-0.10926425
-0.11209104
-0.11456903
-0.11667404
-0.11838541
-0.11968412
-0.12055209
-0.12097218
-0.1209265
-0.12039737
-0.11936802
-0.1178227
-0.11574901
-0.11313975
-0.10999256
-0.10631321
-0.10211649
-0.097426432
-0.092277467
-0.086713891
-0.080785322
-0.074546194
-0.068051801
-0.061355106
-0.054503642
-0.04753964
-0.040503657
-0.033440746
-0.026410937
-0.019497305
-0.012814911
-0.0065117701
-0.00077253746
0.0042060907
0.0082490443
0.011309931
0.013601598
0.015711177
0.018387549
0.021878279
0.026009792
0.030134122
0.034229114
0.038261074
0.042231639
0.046114472
0.049840083
0.053191325
0.056042139
0.058466875
0.060627511
0.062621226
0.064444299
0.066149884
0.067997197
0.070530303
0.074295891
0.079501736
0.085956025
0.093245024
0.10094161
0.10861009
0.1158955
0.12255988
0.12851108
0.13365704
0.13793283
0.14125109
0.14354757
0.14471522
0.1443927
0.14210501
0.13752849
0.12999489
0.11873091
0.10278019
0.081056746
0.052399752
0.015899819
-0.027202149
-0.07298107
-0.10673551
-0.12331642
-0.12372502
-0.11761292
-0.10244534
-0.097347024
-0.058002658
-0.026461316
-0.028856395
-0.023765312
-0.021565534
-0.015138783
-0.010572679
-0.0076316164
-0.0061730672
-0.0050718907
-0.0040769528
-0.0030449678
-0.0020602767
-0.0011164553
-0.00032368364
0.0003713342
0.00094500854
0.0014341811
0.0018325641
0.0021427803
0.0023462824
0.0024398069
0.0024387636
0.0023600281
0.0022492021
0.0021272798
0.0020583758
0.002087906
0.0022549204
0.0025379363
0.0028740858
0.0031944253
0.0034757039
0.0037180263
0.0039220716
0.0040882256
0.004220427
0.0043245203
0.0044100417
0.0044835692
0.0045548067
0.004624154
0.0046860264
0.0047432478
0.0048123424
0.004908621
0.005059671
0.0052421935
0.0055864529
0.0061006571
0.0067932111
0.0076307627
0.0085757035
0.0095759246
0.010587342
0.011573865
0.012512402
0.013381262
0.014161373
0.014823147
0.01531428
0.015586729
0.015615822
0.015406581
0.014978048
0.014351604
0.013542602
0.012562383
0.011422954
0.010143644
0.0087561436
0.0073077803
0.0058604985
0.0044843677
0.003246761
0.0021960947
0.0013489341
0.00068138644
0.00011622253
-0.00046560164
-0.0012021998
-0.0022228028
-0.0036074225
-0.0054723299
-0.0079425388
-0.011066769
-0.014833403
-0.01918001
-0.023980447
-0.029037355
-0.034071493
-0.038750808
-0.042792258
-0.046041401
-0.048558501
-0.050591004
-0.052458899
-0.054437518
-0.056684996
-0.059231714
-0.062033642
-0.065044346
-0.068250597
-0.071659179
-0.075274447
-0.079080004
-0.083035568
-0.087080355
-0.091141451
-0.095140673
-0.099007446
-0.102682
-0.10611402
-0.1092608
-0.1120878
-0.11456601
-0.11667127
-0.11838292
-0.11968195
-0.12055028
-0.12097077
-0.12092556
-0.12039695
-0.11936819
-0.11782353
-0.11575057
-0.11314209
-0.10999574
-0.10631725
-0.10212143
-0.097432262
-0.092284242
-0.086721553
-0.080793808
-0.074555389
-0.068061634
-0.061365425
-0.054514334
-0.047550588
-0.040514726
-0.033451856
-0.026422016
-0.019508309
-0.012825769
-0.0065224
-0.00078273344
0.0041965604
0.0082403946
0.011302236
0.013594589
0.015704775
0.018381981
0.021873364
0.026003367
0.03013129
0.034231003
0.038267672
0.042243041
0.046130449
0.049859079
0.053210877
0.056060867
0.058485361
0.060646762
0.062641621
0.064465644
0.066172727
0.068025568
0.07057082
0.074354632
0.07957942
0.086048735
0.093346689
0.10104545
0.10871009
0.11598773
0.12264272
0.12858341
0.13371788
0.13798116
0.14128569
0.1435671
0.14471649
0.14436995
0.14205289
0.13744139
0.1298653
0.11855239
0.102548
0.080772037
0.052075823
0.015582839
-0.027431586
-0.072998434
-0.10656903
-0.12311054
-0.12358107
-0.1175323
-0.10241538
-0.097334875
-0.057993729
-0.026459863
-0.02884611
-0.023758752
-0.021563843
-0.015154242
-0.010587411
-0.0076460568
-0.0061844668
-0.0050830594
-0.0040892895
-0.0030584303
-0.0020741037
-0.0011299131
-0.00033574643
0.00036055921
0.00093580223
0.0014263051
0.001826108
0.0021377864
0.0023429442
0.0024379991
0.0024382862
0.0023605296
0.0022502251
0.0021283264
0.0020586827
0.0020868772
0.0022522906
0.0025341598
0.0028699448
0.0031905144
0.0034721877
0.003714909
0.0039193565
0.0040859092
0.0042184766
0.0043228809
0.0044086601
0.0044823416
0.0045535826
0.0046229115
0.0046848215
0.0047420015
0.0048110472
0.0049072683
0.00505851
0.005241742
0.005586846
0.0061017646
0.0067949335
0.0076329017
0.0085780754
0.0095782901
0.010589474
0.011575551
0.012513522
0.013381763
0.014161324
0.014822657
0.015313429
0.015585573
0.015614451
0.015405036
0.014976386
0.014349836
0.01354074
0.012560405
0.01142089
0.010141507
0.0087540214
0.0073057617
0.0058587313
0.0044830059
0.0032459478
0.0021959673
0.0013495794
0.00068275569
0.00011814533
-0.00046358871
-0.0012006215
-0.0022223495
-0.0036082928
-0.0054739428
-0.0079445702
-0.011069264
-0.014836412
-0.019183496
-0.023984387
-0.029041622
-0.03407581
-0.038754659
-0.042795045
-0.046042618
-0.048558057
-0.050589374
-0.052456899
-0.054435725
-0.056683598
-0.059230526
-0.062032347
-0.065042647
-0.068248328
-0.071656345
-0.075271069
-0.079076255
-0.083031576
-0.087076426
-0.091137603
-0.09513687
-0.099003739
-0.10267849
-0.1061107
-0.10925771
-0.11208493
-0.1145634
-0.11666892
-0.11838089
-0.11968025
-0.12054897
-0.1209699
-0.12092519
-0.12039714
-0.11936902
-0.11782507
-0.11575288
-0.11314523
-0.10999977
-0.10632218
-0.10212731
-0.097439076
-0.092292047
-0.086730273
-0.080803362
-0.074565656
-0.068072525
-0.061376778
-0.054526025
-0.047562488
-0.040526695
-0.03346381
-0.026433878
-0.019520032
-0.012837272
-0.0065335875
-0.00079338068
0.0041866875
0.0082314819
0.011294258
0.013587033
0.015697395
0.018375191
0.021867365
0.02599566
0.030127208
0.034231736
0.038273298
0.04225379
0.046146293
0.049878508
0.053231233
0.056080532
0.058504865
0.060667143
0.062663164
0.064487946
0.066196195
0.068054434
0.070612459
0.074415812
0.079661113
0.086146741
0.093454434
0.10115553
0.10881604
0.11608535
0.12273038
0.12865991
0.13378221
0.13803223
0.14132217
0.14358756
0.1447176
0.14434559
0.14199739
0.13734886
0.129728
0.11836389
0.10230408
0.08047535
0.051743208
0.015267455
-0.027638825
-0.072962198
-0.10633155
-0.1228407
-0.12339535
-0.11742841
-0.10237927
-0.097318003
-0.057983089
-0.026457802
-0.028832291
-0.023750812
-0.021560799
-0.015170341
-0.010602305
-0.0076603777
-0.0061960084
-0.0050946233
-0.0041022084
-0.003072605
-0.0020886896
-0.0011441217
-0.0003484942
0.0003491598
0.00092604015
0.0014179368
0.0018192323
0.0021324548
0.0023393636
0.0024360424
0.0024377331
0.002361006
0.0022512462
0.0021293592
0.0020589159
0.0020856859
0.0022494139
0.0025301065
0.0028655535
0.0031863963
0.003468491
0.0037116304
0.0039164976
0.0040834657
0.0042164156
0.0043211454
0.0044071945
0.004481034
0.0045522773
0.0046215802
0.0046835128
0.0047406162
0.0048095636
0.0049056785
0.0050570674
0.0052410458
0.0055870329
0.0061027251
0.0067965737
0.0076350339
0.0085805066
0.0095807746
0.010591752
0.011577391
0.012514776
0.013382376
0.014161361
0.014822251
0.015312657
0.015584485
0.015613126
0.015403515
0.014974733
0.014348069
0.01353887
0.012558406
0.011418779
0.010139283
0.0087517563
0.0073035363
0.0058566953
0.0044813234
0.0032447862
0.0021955015
0.0013499543
0.00068399404
0.00012013543
-0.00046129178
-0.0011985888
-0.0022213768
-0.0036086779
-0.0054751177
-0.0079462193
-0.01107146
-0.014839245
-0.019186988
-0.023988578
-0.029046458
-0.034081051
-0.038759718
-0.042799138
-0.046044922
-0.048558212
-0.050587793
-0.052454559
-0.054433456
-0.056681778
-0.059229023
-0.062030803
-0.065040705
-0.068245794
-0.071653236
-0.075267438
-0.079072308
-0.08302755
-0.087072605
-0.091133947
-0.095133322
-0.099000373
-0.10267538
-0.10610784
-0.10925512
-0.11208261
-0.11456136
-0.11666718
-0.11837947
-0.1196792
-0.12054833
-0.12096973
-0.12092555
-0.1203981
-0.11937067
-0.11782748
-0.11575612
-0.11314936
-0.11000483
-0.1063282
-0.10213431
-0.097447062
-0.092301076
-0.08674024
-0.080814166
-0.074577171
-0.068084639
-0.061389319
-0.054538853
-0.047575468
-0.040539679
-0.033476714
-0.026446627
-0.019532579
-0.012849528
-0.0065454429
-0.0008045915
0.0041763614
0.0082222021
0.011285903
0.01357883
0.015688899
0.018366996
0.021860089
0.025986502
0.030121716
0.034231144
0.03827778
0.042263734
0.046161905
0.049898336
0.053252403
0.056101168
0.058525443
0.060688723
0.062685896
0.064511089
0.066219969
0.068083324
0.070654767
0.074479148
0.079746757
0.086250175
0.093568507
0.10127217
0.10892822
0.11618861
0.12282308
0.12874077
0.13385016
0.13808611
0.14136053
0.14360893
0.14471846
0.14431939
0.14193816
0.13725045
0.12958243
0.11816478
0.10204785
0.080166405
0.051402275
0.014955271
-0.027820384
-0.072866361
-0.10601485
-0.12249767
-0.12315991
-0.11729563
-0.10233503
-0.097294805
-0.057970749
-0.026454865
-0.028813446
-0.023741053
-0.021555761
-0.015187055
-0.010617682
-0.0076744258
-0.0062075896
-0.0051065387
-0.004115705
-0.0030875114
-0.0021040672
-0.0011591192
-0.00036196631
0.00033709604
0.00091568361
0.001409041
0.0018119066
0.0021267608
0.0023355222
0.002433926
0.0024370972
0.0023614535
0.002252263
0.0021303745
0.0020590658
0.0020843145
0.0022462657
0.0025257494
0.0028608902
0.0031820562
0.0034646017
0.0037081794
0.0039134843
0.0040808856
0.0042142357
0.0043193066
0.0044056383
0.0044796391
0.0045508837
0.0046201505
0.0046820856
0.0047390695
0.0048078582
0.0049038058
0.0050552842
0.0052400525
0.0055869642
0.0061034953
0.0067980954
0.0076371338
0.0085829849
0.0095833772
0.010594189
0.011579404
0.012516185
0.013383121
0.014161497
0.014821939
0.015311969
0.015583468
0.015611845
0.015402014
0.014973082
0.014346298
0.013536989
0.012556384
0.011416612
0.010136957
0.0087493223
0.0073010642
0.0058543349
0.0044792493
0.0032431922
0.0021946048
0.0013499681
0.00068503037
0.00012216116
-0.00045868703
-0.0011960262
-0.0022197749
-0.003608471
-0.0054757738
-0.00794743
-0.01107332
-0.014841888
-0.019190501
-0.023993071
-0.02905196
-0.034087374
-0.038766198
-0.042804777
-0.04604853
-0.048559101
-0.050586294
-0.052451829
-0.054430632
-0.056679469
-0.059227163
-0.062028985
-0.065038504
-0.068242988
-0.071649857
-0.075263582
-0.079068225
-0.08302363
-0.087069065
-0.091130616
-0.095130206
-0.098997536
-0.10267288
-0.10610566
-0.10925324
-0.11208103
-0.11456009
-0.11666623
-0.11837887
-0.11967898
-0.12054855
-0.12097045
-0.12092683
-0.12040003
-0.11937334
-0.11783095