/*--------------------------------*- C++ -*----------------------------------*\
| =========                 |                                                 |
| \\      /  F ield         | OpenFOAM: The Open Source CFD Toolbox           |
|  \\    /   O peration     | Version:  2.4.0                                 |
|   \\  /    A nd           | Web:      www.OpenFOAM.org                      |
|    \\/     M anipulation  |                                                 |
\*---------------------------------------------------------------------------*/
FoamFile
{
    version     2.0;
    format      ascii;
    class       volSymmTensorField;
    location    "8978";
    object      Ax;
}
// * * * * * * * * * * * * * * * * * * * * * * * * * * * * * * * * * * * * * //

dimensions      [0 0 0 0 0 0 0];

internalField   nonuniform List<symmTensor> 
32000
(
(-2.7110632e-07 3.7853425e-05 -2.2328464e-25 2.5789575e-07 7.6071938e-24 1.3210571e-08)
(7.087842e-08 3.1491338e-05 -1.4664911e-25 -9.3082044e-08 7.5738742e-25 2.2203624e-08)
(2.5783395e-06 4.5255855e-05 -1.7502928e-24 -2.5776207e-06 4.4425334e-23 -7.1884062e-10)
(5.6492061e-06 3.6093144e-05 3.7571032e-24 -5.6648326e-06 9.1327167e-23 1.5626546e-08)
(0 0 0 0 0 0)
(0 0 0 0 0 0)
(0 0 0 0 0 0)
(0 0 0 0 0 0)
(0 0 0 0 0 0)
(0 0 0 0 0 0)
(0 0 0 0 0 0)
(0 0 0 0 0 0)
(0 0 0 0 0 0)
(0 0 0 0 0 0)
(0 0 0 0 0 0)
(0 0 0 0 0 0)
(0 0 0 0 0 0)
(0 0 0 0 0 0)
(0 0 0 0 0 0)
(0 0 0 0 0 0)
(0 0 0 0 0 0)
(0 0 0 0 0 0)
(0 0 0 0 0 0)
(0 0 0 0 0 0)
(0 0 0 0 0 0)
(0 0 0 0 0 0)
(0 0 0 0 0 0)
(0 0 0 0 0 0)
(0 0 0 0 0 0)
(0 0 0 0 0 0)
(0 0 0 0 0 0)
(0 0 0 0 0 0)
(0 0 0 0 0 0)
(0 0 0 0 0 0)
(0 0 0 0 0 0)
(0 0 0 0 0 0)
(0 0 0 0 0 0)
(0 0 0 0 0 0)
(0 0 0 0 0 0)
(0 0 0 0 0 0)
(0 0 0 0 0 0)
(0 0 0 0 0 0)
(0 0 0 0 0 0)
(0 0 0 0 0 0)
(0 0 0 0 0 0)
(0 0 0 0 0 0)
(0 0 0 0 0 0)
(0 0 0 0 0 0)
(0 0 0 0 0 0)
(0 0 0 0 0 0)
(0 0 0 0 0 0)
(0 0 0 0 0 0)
(0 0 0 0 0 0)
(0 0 0 0 0 0)
(0 0 0 0 0 0)
(0 0 0 0 0 0)
(0 0 0 0 0 0)
(0 0 0 0 0 0)
(0 0 0 0 0 0)
(0 0 0 0 0 0)
(0 0 0 0 0 0)
(0 0 0 0 0 0)
(0 0 0 0 0 0)
(0 0 0 0 0 0)
(0 0 0 0 0 0)
(0 0 0 0 0 0)
(0 0 0 0 0 0)
(0 0 0 0 0 0)
(0 0 0 0 0 0)
(0 0 0 0 0 0)
(0 0 0 0 0 0)
(0 0 0 0 0 0)
(0 0 0 0 0 0)
(0 0 0 0 0 0)
(0 0 0 0 0 0)
(0 0 0 0 0 0)
(0 0 0 0 0 0)
(0 0 0 0 0 0)
(0 0 0 0 0 0)
(0 0 0 0 0 0)
(0 0 0 0 0 0)
(0 0 0 0 0 0)
(0 0 0 0 0 0)
(0 0 0 0 0 0)
(0 0 0 0 0 0)
(0 0 0 0 0 0)
(0 0 0 0 0 0)
(0 0 0 0 0 0)
(0 0 0 0 0 0)
(0 0 0 0 0 0)
(0 0 0 0 0 0)
(0 0 0 0 0 0)
(0 0 0 0 0 0)
(0 0 0 0 0 0)
(0 0 0 0 0 0)
(0 0 0 0 0 0)
(0 0 0 0 0 0)
(0 0 0 0 0 0)
(0 0 0 0 0 0)
(0 0 0 0 0 0)
(0 0 0 0 0 0)
(0 0 0 0 0 0)
(0 0 0 0 0 0)
(0 0 0 0 0 0)
(0 0 0 0 0 0)
(0 0 0 0 0 0)
(0 0 0 0 0 0)
(0 0 0 0 0 0)
(0 0 0 0 0 0)
(0 0 0 0 0 0)
(0 0 0 0 0 0)
(0 0 0 0 0 0)
(0 0 0 0 0 0)
(0 0 0 0 0 0)
(0 0 0 0 0 0)
(0 0 0 0 0 0)
(0 0 0 0 0 0)
(0 0 0 0 0 0)
(0 0 0 0 0 0)
(0 0 0 0 0 0)
(0 0 0 0 0 0)
(0 0 0 0 0 0)
(0 0 0 0 0 0)
(0 0 0 0 0 0)
(0 0 0 0 0 0)
(0 0 0 0 0 0)
(0 0 0 0 0 0)
(0 0 0 0 0 0)
(0 0 0 0 0 0)
(0 0 0 0 0 0)
(0 0 0 0 0 0)
(0 0 0 0 0 0)
(0 0 0 0 0 0)
(0 0 0 0 0 0)
(0 0 0 0 0 0)
(0 0 0 0 0 0)
(0 0 0 0 0 0)
(0 0 0 0 0 0)
(0 0 0 0 0 0)
(0 0 0 0 0 0)
(0 0 0 0 0 0)
(0 0 0 0 0 0)
(0 0 0 0 0 0)
(0 0 0 0 0 0)
(0 0 0 0 0 0)
(0 0 0 0 0 0)
(0 0 0 0 0 0)
(0 0 0 0 0 0)
(0 0 0 0 0 0)
(0 0 0 0 0 0)
(0 0 0 0 0 0)
(0 0 0 0 0 0)
(0 0 0 0 0 0)
(0 0 0 0 0 0)
(0 0 0 0 0 0)
(0 0 0 0 0 0)
(0 0 0 0 0 0)
(0 0 0 0 0 0)
(0 0 0 0 0 0)
(0 0 0 0 0 0)
(0 0 0 0 0 0)
(0 0 0 0 0 0)
(0 0 0 0 0 0)
(0 0 0 0 0 0)
(0 0 0 0 0 0)
(0 0 0 0 0 0)
(0 0 0 0 0 0)
(0 0 0 0 0 0)
(0 0 0 0 0 0)
(0 0 0 0 0 0)
(0 0 0 0 0 0)
(0 0 0 0 0 0)
(0 0 0 0 0 0)
(0 0 0 0 0 0)
(0 0 0 0 0 0)
(0 0 0 0 0 0)
(0 0 0 0 0 0)
(0 0 0 0 0 0)
(0 0 0 0 0 0)
(0 0 0 0 0 0)
(0 0 0 0 0 0)
(0 0 0 0 0 0)
(0 0 0 0 0 0)
(0 0 0 0 0 0)
(0 0 0 0 0 0)
(0 0 0 0 0 0)
(0 0 0 0 0 0)
(0 0 0 0 0 0)
(-4.9165085e-05 1.2950778e-05 3.7938049e-22 4.9079779e-05 -2.7660515e-22 8.5306689e-08)
(-5.5392313e-05 1.845351e-05 -5.1584868e-22 5.5291139e-05 3.9537355e-22 1.0117374e-07)
(-6.2594354e-05 2.7150719e-05 -3.0179695e-22 6.2470053e-05 2.9864206e-22 1.2430184e-07)
(-6.8528202e-05 3.9906264e-05 -1.679007e-22 6.8385949e-05 3.516681e-22 1.4225311e-07)
(-7.0862551e-05 5.7764538e-05 -3.6070776e-22 7.0699884e-05 1.0040649e-22 1.6266679e-07)
(-6.1078741e-05 7.4427612e-05 -7.5407049e-22 6.0943898e-05 1.7854039e-21 1.3484279e-07)
(-4.1701061e-05 7.9812269e-05 -4.7647323e-22 4.1613111e-05 1.1988923e-21 8.7949718e-08)
(-2.1796958e-05 7.015875e-05 -5.108804e-23 2.1766513e-05 3.5491787e-22 3.0445338e-08)
(-9.1874626e-06 5.7615567e-05 2.5501102e-23 9.166819e-06 -2.1922513e-22 2.0643606e-08)
(-2.2698759e-06 3.9309415e-05 -3.0180595e-25 2.2774378e-06 -2.148863e-23 -7.5618868e-09)
(-3.4799466e-08 3.5092817e-05 2.8064665e-25 1.5253667e-08 -3.2009389e-24 1.9545799e-08)
(2.3343749e-07 2.007064e-05 -5.1081177e-25 -2.2232416e-07 1.4324417e-23 -1.1113329e-08)
(6.0209927e-07 0.00022703883 1.4591883e-23 -9.2640873e-07 5.0802006e-23 3.2430946e-07)
(2.0951819e-06 0.00019821218 3.5624381e-24 -2.4571849e-06 9.9305722e-24 3.6200307e-07)
(1.7393487e-05 0.00026469747 7.4282094e-23 -1.7728476e-05 5.0102014e-23 3.3498833e-07)
(3.4736622e-05 0.00021926899 9.0940998e-23 -3.512341e-05 -1.0569127e-21 3.8678793e-07)
(5.3682056e-05 0.00017790701 -3.6652464e-22 -5.3872325e-05 -2.0489995e-21 1.9026925e-07)
(3.6853106e-05 7.7437398e-05 -1.9785325e-23 -3.6836232e-05 1.7119563e-21 -1.6874365e-08)
(-4.0968087e-06 -4.3989674e-07 1.333821e-21 4.233807e-06 3.4178734e-21 -1.3699831e-07)
(-5.6179826e-05 -4.3842097e-05 4.4576507e-22 5.6271183e-05 1.4728277e-21 -9.1357206e-08)
(-6.5676584e-05 -3.7852925e-05 2.6343728e-21 6.5735878e-05 4.873157e-21 -5.9293825e-08)
(-6.4982027e-05 -2.8064584e-05 -8.7514092e-22 6.5029962e-05 -1.115078e-21 -4.7934928e-08)
(-5.9875362e-05 -1.9912417e-05 -1.3102064e-21 5.9915668e-05 -2.364595e-21 -4.0305341e-08)
(-5.4350713e-05 -1.4283574e-05 -4.5509892e-22 5.4384062e-05 -1.2799711e-21 -3.3348565e-08)
(-5.0034424e-05 -1.0684386e-05 1.6335012e-21 5.006263e-05 5.2044757e-22 -2.8205976e-08)
(-4.6827391e-05 -8.4647607e-06 -1.5557765e-21 4.6851926e-05 -2.1005185e-21 -2.4535376e-08)
(-4.4320076e-05 -7.1686376e-06 -3.2619438e-21 4.4341774e-05 -3.3097344e-21 -2.1698656e-08)
(-4.2109053e-05 -6.5476029e-06 -8.3927652e-22 4.2127777e-05 -1.4875786e-21 -1.8724089e-08)
(0 0 0 0 0 0)
(0 0 0 0 0 0)
(0 0 0 0 0 0)
(0 0 0 0 0 0)
(0 0 0 0 0 0)
(0 0 0 0 0 0)
(0 0 0 0 0 0)
(0 0 0 0 0 0)
(0 0 0 0 0 0)
(0 0 0 0 0 0)
(0 0 0 0 0 0)
(0 0 0 0 0 0)
(0 0 0 0 0 0)
(-5.4313952e-05 -1.6217461e-05 3.1712523e-21 5.4308902e-05 5.0343326e-21 5.0496832e-09)
(-5.7115425e-05 -1.8474845e-05 1.3558199e-21 5.7109827e-05 2.2110857e-21 5.5971797e-09)
(-5.9698424e-05 -2.1261599e-05 1.5702388e-21 5.9691991e-05 2.2453418e-21 6.4330951e-09)
(-6.1881994e-05 -2.4622719e-05 4.7485309e-21 6.1874357e-05 7.4914422e-21 7.6364136e-09)
(-6.3444786e-05 -2.8585045e-05 2.5440731e-24 6.3435264e-05 2.012479e-23 9.5218275e-09)
(-6.418111e-05 -3.3179761e-05 -4.3011833e-21 6.4168724e-05 -7.1263747e-21 1.2385598e-08)
(-6.4049505e-05 -3.8460761e-05 1.3083887e-21 6.4033026e-05 3.1065273e-21 1.6479027e-08)
(-6.3285862e-05 -4.4469434e-05 -1.4361474e-21 6.3265399e-05 -2.9627438e-21 2.0462421e-08)
(-6.1728488e-05 -5.085941e-05 -2.2902487e-21 6.1703485e-05 -5.1806357e-21 2.5003035e-08)
(-5.9051999e-05 -5.7337844e-05 2.2765053e-21 5.9022841e-05 4.7139275e-21 2.9157159e-08)
(-5.5109602e-05 -6.3641076e-05 -3.0433437e-21 5.5075605e-05 -7.3646525e-21 3.3997564e-08)
(-4.9956088e-05 -6.9622575e-05 7.5268153e-22 4.9918624e-05 2.223701e-21 3.7463604e-08)
(-4.343733e-05 -7.4723799e-05 2.603143e-22 4.3394823e-05 -8.5722387e-22 4.2507458e-08)
(-3.6e-05 -7.928126e-05 1.0281696e-22 3.5956603e-05 -2.8344093e-22 4.3396586e-08)
(-2.7469944e-05 -8.2192517e-05 2.2592368e-22 2.7420391e-05 1.3482651e-21 4.9552233e-08)
(-1.8806435e-05 -8.5828076e-05 -2.8234805e-22 1.8761637e-05 -2.2902974e-21 4.4798016e-08)
(-9.764571e-06 -8.7943372e-05 4.837632e-23 9.7009952e-06 5.681556e-22 6.3575742e-08)
(-2.0296738e-06 -0.00010334175 1.9320776e-24 1.9653687e-06 -1.326385e-23 6.4305151e-08)
(-4.1673216e-07 -0.00012426082 8.5034968e-26 3.0023774e-07 3.3773151e-25 1.1649442e-07)
(6.4564546e-10 -0.00013588638 4.4959955e-26 -1.2403019e-07 6.9032632e-26 1.2338454e-07)
(2.4415818e-07 -0.00014599582 -4.4595723e-26 -3.9203584e-07 -3.3575131e-25 1.4787766e-07)
(4.4010493e-07 -0.00015272092 1.2879915e-27 -5.9662398e-07 9.4895541e-26 1.5651905e-07)
(5.8373966e-07 -0.00015836063 4.5450077e-26 -7.5394144e-07 -2.5952147e-27 1.7020178e-07)
(7.0036911e-07 -0.00016225888 -2.696991e-26 -8.7681506e-07 2.7553509e-26 1.7644595e-07)
(7.9102492e-07 -0.00016531172 -3.7947587e-28 -9.7481657e-07 -2.436141e-25 1.8379165e-07)
(8.6387921e-07 -0.00016728413 6.6114038e-28 -1.0510257e-06 2.4469158e-25 1.8714652e-07)
(9.2018131e-07 -0.00016857686 7.6276465e-27 -1.1103906e-06 1.3384674e-25 1.9020932e-07)
(9.634758e-07 -0.00016912399 -2.2288319e-27 -1.1543705e-06 -1.7165394e-25 1.9089472e-07)
(9.9562529e-07 -0.00016912704 1.0970331e-26 -1.1865015e-06 4.3457267e-26 1.9087624e-07)
(1.0187247e-06 -0.00016856104 -4.9703168e-26 -1.2079949e-06 9.8238993e-26 1.8927028e-07)
(1.0332632e-06 -0.00016752702 4.6541805e-26 -1.220124e-06 -1.2331093e-25 1.8686076e-07)
(1.0403055e-06 -0.00016604069 1.3954458e-26 -1.2236437e-06 1.5295272e-25 1.8333823e-07)
(1.0406544e-06 -0.00016416601 -4.4685043e-26 -1.2197648e-06 -1.6004592e-25 1.7911037e-07)
(1.0351837e-06 -0.00016192657 1.2159988e-26 -1.209276e-06 4.537838e-27 1.7409226e-07)
(1.0245785e-06 -0.00015936644 -1.0369608e-26 -1.193098e-06 -1.5272454e-26 1.6851948e-07)
(1.0095322e-06 -0.00015651076 2.4637533e-26 -1.1719321e-06 -3.2678603e-26 1.6239993e-07)
(9.9063693e-07 -0.00015339294 -6.3957195e-27 -1.1465235e-06 1.108948e-25 1.5588661e-07)
(9.6846093e-07 -0.00015003717 -1.4662854e-26 -1.1174841e-06 -1.3433195e-25 1.4902314e-07)
(9.4350766e-07 -0.00014647074 -2.2300199e-28 -1.0854271e-06 1.5101041e-25 1.4191944e-07)
(9.1624542e-07 -0.00014271629 2.2643589e-26 -1.0508738e-06 -1.9104077e-26 1.3462842e-07)
(8.8712594e-07 -0.00013879744 4.123386e-27 -1.014361e-06 -5.6723579e-26 1.2723506e-07)
(8.5654726e-07 -0.00013473444 -3.3982445e-26 -9.7633762e-07 4.2345177e-26 1.1979036e-07)
(8.2486826e-07 -0.00013054788 3.506027e-26 -9.3722842e-07 -1.4696958e-26 1.1236016e-07)
(7.9244535e-07 -0.00012625636 -3.4069986e-26 -8.9743456e-07 1.5656983e-27 1.049892e-07)
(7.5960793e-07 -0.00012187731 2.2705563e-26 -8.5733663e-07 -1.9228564e-26 9.7728703e-08)
(7.2664626e-07 -0.00011742635 -1.4707898e-26 -8.1725798e-07 1.4456573e-26 9.0611721e-08)
(6.9376095e-07 -0.00011291777 1.4041703e-27 -7.774386e-07 6.6469041e-27 8.3677651e-08)
(6.6105802e-07 -0.00010836657 5.3119821e-27 -7.380118e-07 -6.5709704e-27 7.6953785e-08)
(6.2885827e-07 -0.00010378886 -1.7322301e-27 -6.9932993e-07 -3.8988039e-29 7.0471658e-08)
(5.9743684e-07 -9.9194083e-05 -1.8883972e-27 -6.6168454e-07 -1.920754e-27 6.4247694e-08)
(5.6682163e-07 -9.459199e-05 -5.5817694e-27 -6.2511672e-07 -3.8728968e-27 5.8295088e-08)
(5.3711142e-07 -8.9993675e-05 8.7757418e-27 -5.8974131e-07 1.0158102e-26 5.2629884e-08)
(5.0841327e-07 -8.5407982e-05 6.7305225e-27 -5.5567438e-07 -1.4193871e-26 4.7261113e-08)
(4.8080782e-07 -8.0844051e-05 -7.6977735e-27 -5.2300217e-07 6.0207943e-27 4.2194343e-08)
(4.5439336e-07 -7.6309682e-05 9.8016821e-28 -4.9182959e-07 -1.5451949e-26 3.7436238e-08)
(4.2918324e-07 -7.1810842e-05 -6.5842998e-28 -4.6216636e-07 1.4835594e-26 3.2983118e-08)
(4.0520852e-07 -6.7354697e-05 3.5640764e-27 -4.3404544e-07 -1.8435992e-26 2.8836918e-08)
(3.8254401e-07 -6.2946972e-05 2.6503291e-27 -4.075381e-07 6.9210213e-27 2.4994091e-08)
(3.6115751e-07 -5.8591087e-05 -1.7220751e-27 -3.8260757e-07 1.0516904e-26 2.1450067e-08)
(3.4103434e-07 -5.4292786e-05 -1.8213983e-27 -3.5923052e-07 3.476155e-27 1.8196189e-08)
(3.2221326e-07 -5.0055568e-05 6.1822275e-27 -3.3744388e-07 -9.7177439e-27 1.5230619e-08)
(3.0464105e-07 -4.5882397e-05 -5.0195505e-27 -3.171798e-07 -1.57862e-26 1.2538752e-08)
(2.8833794e-07 -4.1776894e-05 2.5099618e-27 -2.9845424e-07 3.4270718e-28 1.0116302e-08)
(2.7324459e-07 -3.7739705e-05 -9.1304061e-28 -2.8119579e-07 2.0349992e-26 7.9511936e-09)
(2.5930857e-07 -3.3774524e-05 6.6398779e-28 -2.6534004e-07 -2.4693944e-26 6.0314698e-09)
(2.465636e-07 -2.9882683e-05 -1.0416827e-28 -2.5091493e-07 -3.8215905e-27 4.3513296e-09)
(2.3496005e-07 -2.6064394e-05 1.2880621e-29 -2.3785343e-07 1.0920688e-26 2.8933883e-09)
(2.2438029e-07 -2.232059e-05 1.7254996e-28 -2.2603381e-07 -5.9396369e-27 1.6535254e-09)
(2.1463956e-07 -1.8654717e-05 8.4227919e-29 -2.1525631e-07 2.7662801e-27 6.1674885e-10)
(2.0557931e-07 -1.5071279e-05 -2.5704388e-28 -2.0535831e-07 4.8412782e-27 -2.2099946e-10)
(1.9715319e-07 -1.1577415e-05 5.7917038e-29 -1.962799e-07 2.2838965e-27 -8.7328283e-10)
(1.8942274e-07 -8.1774734e-06 -9.1370779e-29 -1.8806969e-07 1.7975402e-27 -1.353054e-09)
(1.8250807e-07 -4.8734313e-06 1.7212878e-28 -1.8083508e-07 6.0166141e-29 -1.6729913e-09)
(1.7641272e-07 -1.6634782e-06 9.2035293e-29 -1.7456646e-07 9.325477e-27 -1.8462588e-09)
(1.7111385e-07 1.4521396e-06 -1.5984073e-28 -1.6922742e-07 -5.8325574e-27 -1.8864242e-09)
(1.6665493e-07 4.4772581e-06 -3.6774676e-28 -1.648497e-07 1.7192856e-26 -1.8052285e-09)
(1.6291457e-07 7.4154966e-06 7.3732807e-28 -1.6130283e-07 -7.79592e-27 -1.6117367e-09)
(1.5976267e-07 1.0267596e-05 -2.0461213e-28 -1.5844668e-07 -1.5439955e-26 -1.3159973e-09)
(1.5715325e-07 1.3034741e-05 2.19706e-28 -1.562258e-07 1.3062538e-26 -9.2745291e-10)
(1.5500288e-07 1.5717846e-05 -1.6459583e-27 -1.5454873e-07 3.0220064e-27 -4.5415025e-10)
(1.5325682e-07 1.8316383e-05 2.5640947e-27 -1.5334993e-07 -3.4472068e-26 9.3108769e-11)
(1.5189983e-07 2.0831544e-05 -2.3727835e-27 -1.5260873e-07 6.1795143e-27 7.0889956e-10)
(1.5085376e-07 2.3263644e-05 1.9749246e-28 -1.5223534e-07 1.142185e-26 1.3815839e-09)
(1.5009276e-07 2.5612638e-05 1.9303388e-27 -1.5219908e-07 1.8175452e-26 2.106318e-09)
(1.4956909e-07 2.7879306e-05 1.1930818e-27 -1.5244344e-07 2.2278183e-26 2.874346e-09)
(1.4922312e-07 3.0063151e-05 -3.3597227e-27 -1.5290056e-07 -2.9395418e-26 3.6774418e-09)
(1.4905124e-07 3.2164645e-05 7.6780637e-28 -1.5356082e-07 1.7790979e-26 4.5095808e-09)
(1.4898624e-07 3.4184294e-05 1.7730071e-28 -1.5435053e-07 6.978814e-28 5.3642833e-09)
(1.489776e-07 3.612113e-05 -2.3726093e-27 -1.5521095e-07 -1.2116923e-25 6.2333516e-09)
(1.4902644e-07 3.7975598e-05 1.455883e-28 -1.5613941e-07 -1.5533928e-26 7.1129767e-09)
(1.4906246e-07 3.9747692e-05 -3.4403365e-27 -1.5705745e-07 2.0698149e-25 7.9949932e-09)
(1.490407e-07 4.1436341e-05 5.9200928e-27 -1.5791479e-07 -4.1846028e-26 8.8740946e-09)
(1.4895767e-07 4.3041422e-05 -6.2612781e-27 -1.5870148e-07 7.4525177e-27 9.7438124e-09)
(1.4874846e-07 4.4562685e-05 8.4971765e-27 -1.5934895e-07 -1.2284291e-25 1.0600488e-08)
(1.4836422e-07 4.5998482e-05 1.7546702e-27 -1.5979969e-07 -3.6858175e-26 1.1435466e-08)
(1.4780115e-07 4.7348332e-05 -9.3634433e-28 -1.6004811e-07 4.580583e-26 1.2246964e-08)
(1.4699209e-07 4.861117e-05 1.7249973e-28 -1.6001827e-07 1.5564539e-25 1.3026177e-08)
(1.4588643e-07 4.9785089e-05 -2.7027498e-27 -1.5965725e-07 -5.1178241e-26 1.3770812e-08)
(1.4447415e-07 5.0868417e-05 1.0483089e-27 -1.5894585e-07 8.3225154e-26 1.4471701e-08)
(1.4268377e-07 5.1859861e-05 -1.8716687e-27 -1.5781362e-07 -9.9543311e-26 1.5129845e-08)
(1.404641e-07 5.2755835e-05 -1.8991715e-27 -1.5619582e-07 -1.0340954e-25 1.5731726e-08)
(1.3778482e-07 5.3554771e-05 1.5729801e-27 -1.5406765e-07 7.0341377e-26 1.6282833e-08)
(1.3458015e-07 5.4252456e-05 -1.487914e-27 -1.5134361e-07 2.3528385e-25 1.6763453e-08)
(1.3077199e-07 5.4846463e-05 -2.0529878e-27 -1.4795928e-07 -5.1264384e-25 1.7187292e-08)
(1.263368e-07 5.533025e-05 -4.2415311e-27 -1.4386042e-07 4.5855539e-25 1.7523617e-08)
(1.2114972e-07 5.5702448e-05 1.686275e-26 -1.3895164e-07 -1.827209e-25 1.7801912e-08)
(1.151995e-07 5.5951868e-05 4.8724348e-22 -1.3316476e-07 3.1276296e-19 1.7965261e-08)
(1.0835841e-07 5.6079761e-05 4.9399685e-22 -1.264398e-07 3.1635641e-19 1.8081386e-08)
(1.007288e-07 5.6068688e-05 -2.7470554e-27 -1.1876614e-07 7.8691275e-27 1.8037336e-08)
(9.1894988e-08 5.5928739e-05 -5.0201388e-22 -1.0987973e-07 -3.2236513e-19 1.7984739e-08)
(8.1849315e-08 5.5622766e-05 -5.050395e-22 -9.9542455e-08 -3.2609223e-19 1.769314e-08)
(7.0013756e-08 5.5170505e-05 -3.5919221e-27 -8.7490611e-08 5.7309785e-26 1.7476855e-08)
(5.6856331e-08 5.4504041e-05 3.4926417e-27 -7.3710258e-08 1.3402817e-25 1.6853927e-08)
(4.1307307e-08 5.3678889e-05 1.205298e-26 -5.7813779e-08 -2.1278586e-25 1.6506472e-08)
(2.4476922e-08 5.2565e-05 -5.338292e-27 -3.9896954e-08 -3.0531774e-25 1.5420032e-08)
(4.1489343e-09 5.1296343e-05 -5.3625004e-27 -1.9201217e-08 1.9586737e-25 1.5052282e-08)
(-1.7105966e-08 4.9611092e-05 -2.4550468e-27 3.836413e-09 -3.1434677e-25 1.3269553e-08)
(-4.4178283e-08 4.7813879e-05 6.2385288e-27 3.1013801e-08 6.1189895e-25 1.3164482e-08)
(-7.1346607e-08 4.5357074e-05 1.5379419e-27 6.110956e-08 -8.7866972e-26 1.0237046e-08)
(-1.0897707e-07 4.2912894e-05 -2.4338178e-27 9.7962095e-08 2.2054309e-25 1.1014978e-08)
(-1.4449995e-07 3.9330178e-05 2.5092605e-27 1.384289e-07 -3.5133588e-25 6.0710487e-09)
(-2.0120931e-07 3.6064008e-05 2.2369013e-28 1.9215232e-07 -1.7824361e-25 9.0569906e-09)
(-2.5123858e-07 3.0654073e-05 7.454847e-27 2.5084919e-07 1.0452313e-25 3.8938759e-10)
(-3.539345e-07 2.6217633e-05 1.2443322e-26 3.45471e-07 -1.1144382e-25 8.4635005e-09)
(-6.7414659e-07 1.7223436e-05 -1.1190122e-24 6.7944443e-07 7.3633149e-23 -5.2978369e-09)
(-1.2926952e-06 1.0353978e-05 -1.6138843e-22 1.2851137e-06 1.9627321e-21 7.5815378e-09)
(-2.3784079e-06 1.0903551e-05 -3.3614958e-22 2.3757246e-06 3.5047228e-21 2.6832953e-09)
(-3.5681751e-06 1.0908506e-05 3.9758154e-22 3.5547366e-06 -2.3823622e-21 1.3438442e-08)
(-5.7467024e-06 1.2949344e-05 -3.2802297e-22 5.7333209e-06 1.1327338e-21 1.3381463e-08)
(-8.2180479e-06 1.4431721e-05 -9.6992714e-22 8.1979012e-06 3.4718498e-21 2.014666e-08)
(-1.1533954e-05 1.6387096e-05 6.4237324e-22 1.151299e-05 -1.0794107e-21 2.0963902e-08)
(-1.5189799e-05 1.7847991e-05 1.3951301e-21 1.5164887e-05 -3.7010739e-21 2.4911856e-08)
(-1.9568946e-05 1.9316173e-05 3.9636257e-22 1.9543487e-05 -1.5287325e-21 2.5458283e-08)
(-2.4317483e-05 2.0361568e-05 -8.444193e-22 2.4290352e-05 2.1783917e-21 2.7130656e-08)
(-2.9663136e-05 2.1197676e-05 -4.848691e-23 2.9636278e-05 2.7833685e-22 2.6858128e-08)
(-3.5484425e-05 2.1709494e-05 -2.8204379e-21 3.5457893e-05 5.7032462e-21 2.653237e-08)
(-4.2170791e-05 2.2220965e-05 -5.1037749e-21 4.2145973e-05 7.96773e-21 2.4818509e-08)
(-4.9471739e-05 2.2747244e-05 -2.9619433e-21 4.9449366e-05 5.1488583e-21 2.2372915e-08)
(-5.7085038e-05 2.3218605e-05 -2.6926769e-21 5.706502e-05 3.4564401e-21 2.001815e-08)
(-6.501823e-05 2.3709928e-05 5.8875801e-22 6.5000409e-05 -1.7345371e-21 1.7821612e-08)
(-7.3142459e-05 2.4265604e-05 2.9922507e-21 7.3126644e-05 -3.5262417e-21 1.5814982e-08)
(-8.1459086e-05 2.4979777e-05 -5.9644071e-21 8.1444446e-05 7.2052567e-21 1.4640514e-08)
(-8.9750095e-05 2.5896234e-05 -1.165802e-22 8.9736061e-05 6.7614694e-22 1.4033597e-08)
(-9.8019763e-05 2.7129062e-05 4.7133432e-21 9.8004577e-05 -4.7647692e-21 1.5186305e-08)
(-0.00010563512 2.8594029e-05 -2.4325159e-21 0.00010561787 3.3080917e-21 1.7254657e-08)
(-0.00011223432 2.9966004e-05 1.1854797e-21 0.00011221232 -7.5198175e-22 2.2007052e-08)
(-0.0001177152 3.0894393e-05 1.7665709e-21 0.00011768877 -1.9848931e-21 2.6429454e-08)
(-0.00012295792 3.1334653e-05 -5.5325119e-21 0.00012292659 8.6562941e-21 3.1333379e-08)
(-0.00012838491 3.1612168e-05 -6.5340817e-22 0.00012835128 6.5266901e-22 3.3632932e-08)
(-0.00013366116 3.1560275e-05 -9.7158685e-22 0.00013362406 2.8871711e-21 3.7097787e-08)
(-0.00013926874 3.1259432e-05 -2.6093314e-21 0.00013922941 3.6846686e-21 3.9326467e-08)
(-0.0001452362 3.0695858e-05 3.6318601e-22 0.00014519511 -1.4941919e-21 4.1092024e-08)
(-0.00015214927 2.998096e-05 1.8470409e-21 0.00015210684 2.9098759e-22 4.2435142e-08)
(-0.0001601739 2.9093358e-05 9.3613814e-22 0.00016013136 -1.5008094e-21 4.2546602e-08)
(-0.00017150455 2.8676192e-05 5.7937919e-22 0.00017146119 1.4301252e-21 4.3364854e-08)
(-0.00018705399 3.0312784e-05 -8.9672512e-22 0.00018700991 1.9223669e-21 4.4074758e-08)
(-0.00020538496 3.4716517e-05 -5.691659e-22 0.00020532901 -6.7672578e-22 5.5949467e-08)
(-0.00022701964 4.283917e-05 1.4451035e-22 0.00022693941 8.7674297e-22 8.0231451e-08)
(-0.00025223398 5.6064302e-05 9.3525529e-22 0.00025211275 3.1027019e-22 1.2123176e-07)
(-0.00028259529 7.7010321e-05 -4.4821436e-21 0.00028240419 1.6146148e-21 1.9109931e-07)
(-0.00031702583 0.00010911704 4.5362855e-21 0.00031672497 -2.0657757e-22 3.0085973e-07)
(-0.00035593358 0.00015928402 6.411262e-21 0.00035544351 -3.0223103e-21 4.9007101e-07)
(-0.00038714945 0.00023237676 3.0426368e-21 0.00038638293 -6.2222884e-21 7.6651699e-07)
(-0.00039678641 0.00033298252 -1.9478123e-21 0.00039559275 5.4087348e-21 1.1936614e-06)
(-0.00034170203 0.00042809965 5.6473588e-21 0.00034018522 -6.3714034e-21 1.5168106e-06)
(-0.00023579191 0.00046359656 1.7236581e-21 0.00023418169 -8.326844e-22 1.6102186e-06)
(-0.00012650349 0.00041794049 1.1441006e-21 0.00012529332 -7.1435434e-21 1.2101636e-06)
(-5.4492021e-05 0.00034992328 -3.7626183e-22 5.3576106e-05 7.2175277e-22 9.1591568e-07)
(-1.4252892e-05 0.00025119839 1.8399525e-23 1.3887985e-05 -3.5018418e-22 3.6490637e-07)
(-1.1796644e-07 0.00022049412 -2.6272032e-25 -3.4660836e-07 -6.1034603e-24 4.645748e-07)
(2.3073931e-06 0.00014116066 2.9990129e-24 -2.2973518e-06 -1.4123814e-22 -1.0041255e-08)
(1.5526441e-05 0.00070455672 2.7879043e-23 -1.8717216e-05 -8.2950727e-22 3.1907747e-06)
(1.8037486e-05 0.00064325107 4.8170271e-24 -2.1137662e-05 -6.2417863e-23 3.1001758e-06)
(6.8082537e-05 0.0007989458 -3.376279e-23 -7.173095e-05 -1.5966751e-21 3.6484127e-06)
(0.00011724876 0.00068605973 -1.3355204e-21 -0.00012060887 5.8756881e-22 3.3601055e-06)
(0.00017172711 0.00055919377 -5.1246445e-22 -0.00017378567 5.6698243e-22 2.0585662e-06)
(0.00012728032 0.000274915 4.9047237e-21 -0.00012790473 1.1458182e-20 6.2440846e-07)
(7.6335584e-06 3.227069e-05 2.0525988e-21 -7.5784535e-06 6.3371239e-21 -5.5104811e-08)
(-0.00015423358 -0.00011769409 -6.0263759e-21 0.00015400965 -1.0713914e-20 2.2393251e-07)
(-0.00019048397 -0.00011126545 -2.3394068e-21 0.00019022292 -2.7745024e-21 2.6105099e-07)
(-0.00019115717 -8.4434664e-05 2.7777341e-21 0.0001909114 6.0720392e-21 2.4576137e-07)
(-0.00017779952 -6.0822468e-05 1.4861337e-20 0.00017760072 1.9332588e-20 1.987955e-07)
(-0.000162532 -4.4100356e-05 -1.9389414e-21 0.00016237315 1.1515575e-22 1.5884623e-07)
(-0.00015033244 -3.3234439e-05 1.6930138e-20 0.00015019974 2.5613255e-20 1.3270302e-07)
(-0.00014114951 -2.6478952e-05 -8.1725513e-22 0.0001410339 -9.0347164e-22 1.1560747e-07)
(-0.00013391243 -2.2519954e-05 -3.2984632e-22 0.00013380903 -3.7167309e-21 1.0340912e-07)
(-0.00012752122 -2.061795e-05 1.9629414e-20 0.00012742713 2.1476345e-20 9.4091336e-08)
(-0.000121667 -2.0339718e-05 1.1081328e-20 0.00012158023 1.3943061e-20 8.6776103e-08)
(-0.00011735793 -2.1321149e-05 -2.1773957e-21 0.00011727618 7.5607993e-22 8.174833e-08)
(-0.00011476294 -2.2599843e-05 4.9315839e-21 0.00011468334 7.480901e-21 7.9600314e-08)
(-0.00011310718 -2.3864922e-05 1.348357e-20 0.00011302832 1.6432281e-20 7.8856442e-08)
(-0.00011253599 -2.5164721e-05 3.4521416e-21 0.00011245667 6.4344276e-21 7.9318612e-08)
(-0.00011330388 -2.6590734e-05 -7.0990786e-21 0.00011322203 -9.3834895e-21 8.1844675e-08)
(-0.00011548696 -2.8185789e-05 1.9421157e-20 0.00011540064 2.0971545e-20 8.6324691e-08)
(-0.00011938314 -3.0070524e-05 -2.375233e-21 0.00011928985 -1.7117087e-21 9.329156e-08)
(-0.00012498286 -3.2238895e-05 1.0549008e-20 0.00012487954 1.4265232e-20 1.0331089e-07)
(-0.00013228826 -3.474441e-05 1.1244819e-20 0.00013217242 1.5640095e-20 1.1583752e-07)
(-0.00014063161 -3.7445064e-05 -1.1273901e-20 0.00014050041 -1.8483076e-20 1.3120316e-07)
(-0.00014905759 -4.0613408e-05 -1.8481278e-20 0.00014890976 -2.6706155e-20 1.4782966e-07)
(-0.00015761906 -4.4822857e-05 2.7261103e-21 0.00015745303 6.1690157e-21 1.6602745e-07)
(-0.00016628263 -5.032824e-05 -2.0253938e-20 0.00016609608 -2.6012275e-20 1.8655012e-07)
(-0.00017467575 -5.7291195e-05 -4.2992673e-21 0.00017446706 -2.6789561e-21 2.0869464e-07)
(-0.00018238531 -6.5874972e-05 -5.2149046e-21 0.00018215309 -8.4338133e-21 2.3222242e-07)
(-0.00018887876 -7.6219361e-05 -1.3747203e-20 0.00018862259 -1.6319141e-20 2.5616684e-07)
(-0.00019351936 -8.841582e-05 -1.3713902e-20 0.00019323947 -1.6974811e-20 2.7989347e-07)
(-0.00019572956 -0.00010257369 -3.0924907e-21 0.00019542688 -6.8790385e-21 3.0267551e-07)
(-0.00019538897 -0.00011885639 -1.1791257e-20 0.00019506318 -2.0902806e-20 3.2578824e-07)
(-0.00019306489 -0.00013734235 1.0160039e-20 0.00019271515 1.7622592e-20 3.4973527e-07)
(-0.00018827181 -0.00015701321 9.9865194e-21 0.00018789532 1.6748385e-20 3.7649152e-07)
(-0.00018008008 -0.00017702293 8.5803875e-22 0.00017968052 3.7750901e-21 3.9956006e-07)
(-0.00016807308 -0.00019659775 5.9885554e-21 0.00016765138 7.1730297e-21 4.2170289e-07)
(-0.00015233899 -0.00021526658 -1.9183302e-21 0.00015190204 -2.1245701e-21 4.3694873e-07)
(-0.00013254673 -0.00023152509 -1.7060719e-22 0.00013209403 3.3251752e-21 4.5269979e-07)
(-0.00010979063 -0.00024616211 -2.8255214e-22 0.00010933574 3.6208925e-22 4.5489859e-07)
(-8.390493e-05 -0.00025650056 -1.1938633e-21 8.3433565e-05 -4.3040607e-21 4.7136589e-07)
(-5.7188432e-05 -0.00026870922 6.3198723e-22 5.6726358e-05 5.7145174e-21 4.6207425e-07)
(-3.0012365e-05 -0.00027851115 -4.0475884e-22 2.9469995e-05 -2.4845855e-21 5.4236932e-07)
(-6.0392271e-06 -0.0003230931 -1.5565911e-23 5.4123017e-06 2.8400141e-23 6.2692547e-07)
(1.1693263e-07 -0.00038141951 2.036249e-24 -1.0800845e-06 -2.0188079e-25 9.6315191e-07)
(2.6368909e-06 -0.00041517474 1.7699264e-26 -3.7284136e-06 7.5573325e-25 1.0915227e-06)
(4.2237364e-06 -0.00044364088 1.3711922e-25 -5.4940115e-06 -9.4437372e-25 1.2702751e-06)
(5.4738618e-06 -0.00046282663 2.1417759e-26 -6.8398061e-06 3.8438906e-25 1.3659443e-06)
(6.4093914e-06 -0.00047853775 -2.116515e-26 -7.8786273e-06 5.0700953e-25 1.4692358e-06)
(7.1499358e-06 -0.00048939526 -1.6764485e-25 -8.679893e-06 -1.23038e-24 1.5299573e-06)
(7.719759e-06 -0.00049766365 3.0075683e-25 -9.3054359e-06 9.1105937e-25 1.5856769e-06)
(8.15854e-06 -0.00050287467 -1.8762131e-25 -9.7747008e-06 -6.0212473e-25 1.6161609e-06)
(8.4822139e-06 -0.00050605292 -1.3711037e-25 -1.0120295e-05 9.8535169e-25 1.6380813e-06)
(8.7097884e-06 -0.00050709794 1.312195e-25 -1.0353316e-05 -2.6808406e-25 1.6435275e-06)
(8.8566533e-06 -0.00050653401 9.2957674e-26 -1.0497059e-05 -2.0435598e-26 1.6404059e-06)
(8.9340952e-06 -0.00050432109 -8.2524044e-26 -1.055954e-05 -9.6501472e-25 1.6254453e-06)
(8.9480918e-06 -0.00050073533 -3.9654507e-27 -1.0550657e-05 1.1693679e-24 1.6025657e-06)
(8.9061102e-06 -0.00049584007 -1.5907347e-25 -1.0477123e-05 -4.233167e-25 1.5710128e-06)
(8.8149506e-06 -0.00048981078 1.9352699e-25 -1.0347981e-05 -5.077366e-25 1.5330302e-06)
(8.6809963e-06 -0.00048272403 -4.062455e-26 -1.0169741e-05 1.1049757e-25 1.4887449e-06)
(8.5099321e-06 -0.00047470367 1.9232922e-26 -9.9495362e-06 2.7535511e-25 1.4396041e-06)
(8.3070984e-06 -0.00046582654 1.173649e-26 -9.6931734e-06 4.6730863e-25 1.386075e-06)
(8.0773479e-06 -0.00045618811 -2.1024064e-25 -9.4065444e-06 -4.437124e-25 1.3291965e-06)
(7.8251883e-06 -0.00044586058 2.8681135e-25 -9.0947167e-06 -2.4094564e-25 1.2695285e-06)
(7.554742e-06 -0.00043492271 -2.9069327e-25 -8.7626177e-06 3.5413228e-25 1.2078757e-06)
(7.2698076e-06 -0.00042344131 1.0035554e-25 -8.4145944e-06 -1.2560279e-25 1.1447869e-06)
(6.9739952e-06 -0.00041148475 1.1558811e-25 -8.0549062e-06 3.2319277e-25 1.080911e-06)
(6.67051e-06 -0.00039911248 -6.5582885e-26 -7.6872453e-06 -4.6795165e-25 1.0167353e-06)
(6.3622586e-06 -0.00038638432 3.3483729e-27 -7.3150332e-06 2.3875447e-25 9.527746e-07)
(6.0520189e-06 -0.00037335452 1.4887597e-26 -6.9414596e-06 -1.5247892e-25 8.8944072e-07)
(5.7423111e-06 -0.0003600739 5.651384e-26 -6.5694512e-06 4.9549268e-26 8.2714008e-07)
(5.4353512e-06 -0.00034658803 -7.5398084e-26 -6.2015327e-06 3.0854584e-26 7.6618149e-07)
(5.1327648e-06 -0.00033293849 -6.6882856e-26 -5.8396314e-06 -5.5612176e-26 7.0686653e-07)
(4.8356744e-06 -0.00031916909 5.1534334e-26 -5.485117e-06 3.7846594e-26 6.4944264e-07)
(4.5462405e-06 -0.0003053265 -2.3191609e-26 -5.1404038e-06 5.068916e-27 5.9416331e-07)
(4.2661841e-06 -0.00029143859 4.2147959e-26 -4.8073595e-06 -4.0788597e-28 5.4117545e-07)
(3.9959141e-06 -0.0002775337 -5.4000479e-26 -4.4865056e-06 7.7305693e-28 4.9059147e-07)
(3.7361712e-06 -0.00026364417 1.0551111e-25 -4.1787089e-06 1.6642403e-27 4.4253776e-07)
(3.4876692e-06 -0.00024979613 -5.2458131e-26 -3.8847565e-06 5.4269275e-27 3.9708731e-07)
(3.2509346e-06 -0.00023601581 4.3643572e-27 -3.605226e-06 8.5182939e-27 3.542914e-07)
(3.0265043e-06 -0.00022232627 -4.3232447e-26 -3.3406942e-06 -4.9637638e-26 3.1418992e-07)
(2.8144619e-06 -0.00020874517 3.5338346e-26 -3.0912333e-06 3.3180576e-26 2.7677134e-07)
(2.6149359e-06 -0.00019529304 -1.584632e-26 -2.856972e-06 -5.3260287e-26 2.4203608e-07)
(2.4282213e-06 -0.00018198685 5.9113844e-27 -2.6381757e-06 4.7997027e-26 2.0995442e-07)
(2.2540419e-06 -0.00016883694 8.2955045e-27 -2.4345195e-06 -5.4533755e-26 1.804776e-07)
(2.0922132e-06 -0.00015585971 4.22162e-27 -2.2457601e-06 6.8667563e-26 1.5354694e-07)
(1.9427606e-06 -0.00014306573 -1.3411759e-26 -2.0718774e-06 -1.7206148e-25 1.2911676e-07)
(1.8052522e-06 -0.00013046366 -9.8327408e-27 -1.9123411e-06 8.2847834e-26 1.0708893e-07)
(1.6795936e-06 -0.00011806405 7.1117525e-27 -1.7669976e-06 3.1869351e-26 8.7404098e-08)
(1.5652766e-06 -0.00010586927 6.2035068e-27 -1.6352393e-06 -4.5507203e-27 6.9962659e-08)
(1.4618424e-06 -9.3889747e-05 -6.0657733e-27 -1.5165131e-06 1.503172e-26 5.4670633e-08)
(1.3692215e-06 -8.2129728e-05 -3.8422281e-28 -1.4106753e-06 -8.4361188e-27 4.1453827e-08)
(1.2869336e-06 -7.0590295e-05 3.2613692e-27 -1.3171272e-06 -6.835533e-27 3.0193589e-08)