/*--------------------------------*- C++ -*----------------------------------*\
  =========                 |
  \\      /  F ield         | OpenFOAM: The Open Source CFD Toolbox
   \\    /   O peration     | Website:  https://openfoam.org
    \\  /    A nd           | Version:  7
     \\/     M anipulation  |
\*---------------------------------------------------------------------------*/
FoamFile
{
    version     2.0;
    format      ascii;
    class       volVectorField;
    location    "0";
    object      C;
}
// * * * * * * * * * * * * * * * * * * * * * * * * * * * * * * * * * * * * * //

dimensions      [0 1 0 0 0 0 0];

internalField   nonuniform List<vector> 
32000
(
(0.024021779 1.0004176 0.089285714)
(0.072066783 1.0005547 0.089285714)
(0.1201037 0.99990557 0.089285714)
(0.16806508 0.99736973 0.089285714)
(0.21575978 0.99189266 0.089285714)
(0.26282663 0.98254633 0.089285714)
(0.30874267 0.96866828 0.089285714)
(0.3530037 0.95016793 0.089285714)
(0.39545857 0.92776357 0.089285714)
(0.43629427 0.90248968 0.089285714)
(0.47579169 0.87514994 0.089285714)
(0.51423248 0.84633529 0.089285714)
(0.55186782 0.81647822 0.089285714)
(0.5889239 0.78590033 0.089285714)
(0.62560115 0.75486709 0.089285714)
(0.66208867 0.72361079 0.089285714)
(0.69857259 0.69235133 0.089285714)
(0.73521548 0.66128144 0.089285714)
(0.77209203 0.63049132 0.089285714)
(0.80919536 0.59997461 0.089285714)
(0.84650311 0.56970747 0.089285714)
(0.88399285 0.53966468 0.089285714)
(0.92164021 0.50981862 0.089285714)
(0.9594205 0.48014126 0.089285714)
(0.99730847 0.45060178 0.089285714)
(1.0352786 0.42116793 0.089285714)
(1.0733077 0.3918092 0.089285714)
(1.1113996 0.36253126 0.089285714)
(1.1496077 0.33340585 0.089285714)
(1.1880101 0.30454011 0.089285714)
(1.2266913 0.27604818 0.089285714)
(1.2657362 0.24805601 0.089285714)
(1.3052293 0.220706 0.089285714)
(1.345264 0.19415531 0.089285714)
(1.3859328 0.16859073 0.089285714)
(1.4273283 0.1442271 0.089285714)
(1.469523 0.12127592 0.089285714)
(1.5125362 0.09990417 0.089285714)
(1.5563559 0.080245388 0.089285714)
(1.6009585 0.062437668 0.089285714)
(1.6463052 0.046622168 0.089285714)
(1.6923385 0.032938713 0.089285714)
(1.7389836 0.021523157 0.089285714)
(1.7861479 0.012501142 0.089285714)
(1.8337218 0.0059813643 0.089285714)
(1.8815787 0.0020508685 0.089285714)
(1.9295807 0.00058809015 0.089285714)
(1.9776241 0.00043384831 0.089285714)
(2.0256694 0.00043384831 0.089285714)
(2.0737147 0.00043384831 0.089285714)
(2.1217599 0.00043384831 0.089285714)
(2.1698051 0.00043384831 0.089285714)
(2.2178504 0.00043384831 0.089285714)
(2.2658957 0.00043384831 0.089285714)
(2.3139411 0.00043384831 0.089285714)
(2.3619862 0.00043384831 0.089285714)
(2.4100313 0.00043384831 0.089285714)
(2.4580767 0.00043384831 0.089285714)
(2.5061221 0.00043384831 0.089285714)
(2.5541673 0.00043384831 0.089285714)
(2.6022125 0.00043384831 0.089285714)
(2.6502577 0.00043384831 0.089285714)
(2.6983031 0.00043384831 0.089285714)
(2.7463484 0.00043384831 0.089285714)
(2.7943937 0.00043384831 0.089285714)
(2.8424389 0.00043384831 0.089285714)
(2.890484 0.00043384831 0.089285714)
(2.9385295 0.00043384831 0.089285714)
(2.9865748 0.00043384831 0.089285714)
(3.03462 0.00043384831 0.089285714)
(3.0826651 0.00043384831 0.089285714)
(3.1307104 0.00043384831 0.089285714)
(3.1787557 0.00043384831 0.089285714)
(3.2268009 0.00043384831 0.089285714)
(3.2748462 0.00043384831 0.089285714)
(3.3228914 0.00043384831 0.089285714)
(3.3709367 0.00043384831 0.089285714)
(3.4189821 0.00043384831 0.089285714)
(3.4670274 0.00043384831 0.089285714)
(3.5150725 0.00043384831 0.089285714)
(3.5631169 0.00043384831 0.089285714)
(3.6111633 0.00043384831 0.089285714)
(3.6592094 0.00043384831 0.089285714)
(3.7072527 0.00043384831 0.089285714)
(3.7552991 0.00043384831 0.089285714)
(3.8033452 0.00043384831 0.089285714)
(3.8513885 0.00043384831 0.089285714)
(3.8994349 0.00043384831 0.089285714)
(3.947481 0.00043384831 0.089285714)
(3.9955262 0.00043384831 0.089285714)
(4.0435715 0.00043384831 0.089285714)
(4.0916147 0.00043384831 0.089285714)
(4.139661 0.00043384831 0.089285714)
(4.1877072 0.00043384831 0.089285714)
(4.2357504 0.00043384831 0.089285714)
(4.2837967 0.00043384831 0.089285714)
(4.331843 0.00043384831 0.089285714)
(4.3798862 0.00043384831 0.089285714)
(4.4279325 0.00043384831 0.089285714)
(4.4759788 0.00043384831 0.089285714)
(4.524022 0.00043384831 0.089285714)
(4.5720683 0.00043384831 0.089285714)
(4.6201146 0.00043384831 0.089285714)
(4.6681578 0.00043384831 0.089285714)
(4.7162041 0.00043384831 0.089285714)
(4.7642504 0.00043384831 0.089285714)
(4.8122936 0.00043384831 0.089285714)
(4.8603399 0.00043384831 0.089285714)
(4.9083862 0.00043384831 0.089285714)
(4.9564294 0.00043384831 0.089285714)
(5.0044746 0.00043384831 0.089285714)
(5.0525198 0.00043384831 0.089285714)
(5.1005659 0.00043384831 0.089285714)
(5.1486123 0.00043384831 0.089285714)
(5.1966556 0.00043384831 0.089285714)
(5.2447017 0.00043384831 0.089285714)
(5.2927481 0.00043384831 0.089285714)
(5.3407914 0.00043384831 0.089285714)
(5.3888375 0.00043384831 0.089285714)
(5.4368839 0.00043384831 0.089285714)
(5.4849272 0.00043384831 0.089285714)
(5.5329733 0.00043384831 0.089285714)
(5.5810197 0.00043384831 0.089285714)
(5.629063 0.00043384831 0.089285714)
(5.6771091 0.00043384831 0.089285714)
(5.7251554 0.00043384831 0.089285714)
(5.7731988 0.00043384831 0.089285714)
(5.8212449 0.00043384831 0.089285714)
(5.8692912 0.00043384831 0.089285714)
(5.9173346 0.00043384831 0.089285714)
(5.9653807 0.00043384831 0.089285714)
(6.0134268 0.00043384831 0.089285714)
(6.0614712 0.00043384831 0.089285714)
(6.1095169 0.00043384831 0.089285714)
(6.157562 0.00043384831 0.089285714)
(6.205607 0.00043384831 0.089285714)
(6.2536527 0.00043384831 0.089285714)
(6.3016978 0.00043384831 0.089285714)
(6.3497428 0.00043384831 0.089285714)
(6.3977885 0.00043384831 0.089285714)
(6.4458336 0.00043384831 0.089285714)
(6.4938786 0.00043384831 0.089285714)
(6.5419242 0.00043384831 0.089285714)
(6.5899694 0.00043384831 0.089285714)
(6.6380144 0.00043384831 0.089285714)
(6.68606 0.00043384831 0.089285714)
(6.7341052 0.00043384831 0.089285714)
(6.7821501 0.00043384831 0.089285714)
(6.8301958 0.00043384831 0.089285714)
(6.878241 0.00043384831 0.089285714)
(6.9262859 0.00043384831 0.089285714)
(6.9743316 0.00043384831 0.089285714)
(7.0223761 0.00043384831 0.089285714)
(7.0704204 0.00058793182 0.089285714)
(7.1184234 0.002050688 0.089285714)
(7.1662783 0.0059819038 0.089285714)
(7.2138535 0.012500703 0.089285714)
(7.2610186 0.021522136 0.089285714)
(7.3076607 0.032939998 0.089285714)
(7.3536952 0.046622146 0.089285714)
(7.399044 0.062435462 0.089285714)
(7.4436453 0.080244918 0.089285714)
(7.4874623 0.099906547 0.089285714)
(7.5304738 0.12127953 0.089285714)
(7.5726727 0.14422647 0.089285714)
(7.6140722 0.16858691 0.089285714)
(7.6547396 0.19415299 0.089285714)
(7.694772 0.22070539 0.089285714)
(7.7342636 0.24805727 0.089285714)
(7.7733072 0.27605116 0.089285714)
(7.8119869 0.30454463 0.089285714)
(7.850387 0.33341174 0.089285714)
(7.8885932 0.36253842 0.089285714)
(7.9266852 0.39181755 0.089285714)
(7.9647152 0.42117553 0.089285714)
(8.0026927 0.45060187 0.089285714)
(8.0405868 0.4801356 0.089285714)
(8.0783652 0.50981395 0.089285714)
(8.116011 0.53966092 0.089285714)
(8.1534999 0.56970442 0.089285714)
(8.190807 0.59997228 0.089285714)
(8.2279099 0.63048969 0.089285714)
(8.2647861 0.66128029 0.089285714)
(8.3014287 0.69235052 0.089285714)
(8.3379123 0.72361023 0.089285714)
(8.3743997 0.7548668 0.089285714)
(8.4110764 0.78590068 0.089285714)
(8.4481319 0.81647931 0.089285714)
(8.4857667 0.846337 0.089285714)
(8.524206 0.8751528 0.089285714)
(8.5637012 0.90249429 0.089285714)
(8.6045379 0.92776722 0.089285714)
(8.6469976 0.95016706 0.089285714)
(8.6912594 0.96866652 0.089285714)
(8.7371724 0.98254729 0.089285714)
(8.7842399 0.99189353 0.089285714)
(8.8319357 0.99736957 0.089285714)
(8.8798956 0.99990558 0.089285714)
(8.9279332 1.0005547 0.089285714)
(8.9759789 1.0004176 0.089285714)
(0.024021331 1.0010169 0.089285714)
(0.072065439 1.0011539 0.089285714)
(0.12010146 1.000505 0.089285714)
(0.16806197 0.99796993 0.089285714)
(0.21575588 0.99249447 0.089285714)
(0.26282212 0.98315088 0.089285714)
(0.30873789 0.96927693 0.089285714)
(0.35299915 0.95078202 0.089285714)
(0.39545477 0.92838426 0.089285714)
(0.4362917 0.90311781 0.089285714)
(0.47579073 0.87578613 0.089285714)
(0.51423346 0.84697996 0.089285714)
(0.55187097 0.81713168 0.089285714)
(0.58892938 0.78656279 0.089285714)
(0.62560908 0.75553869 0.089285714)
(0.66209911 0.7242916 0.089285714)
(0.69858554 0.69304133 0.089285714)
(0.73523089 0.6619806 0.089285714)
(0.77210983 0.63119954 0.089285714)
(0.80921548 0.60069182 0.089285714)
(0.8465255 0.57043359 0.089285714)
(0.88401745 0.54039965 0.089285714)
(0.92166697 0.51056238 0.089285714)
(0.95944939 0.48089375 0.089285714)
(0.99733945 0.45136297 0.089285714)
(1.0353117 0.42193779 0.089285714)
(1.0733428 0.3925877 0.089285714)
(1.1114367 0.36331838 0.089285714)
(1.1496469 0.33420155 0.089285714)
(1.1880512 0.30534431 0.089285714)
(1.2267343 0.27686077 0.089285714)
(1.2657809 0.24887684 0.089285714)
(1.3052756 0.22153489 0.089285714)
(1.3453117 0.19499201 0.089285714)
(1.3859818 0.16943496 0.089285714)
(1.4273784 0.1450785 0.089285714)
(1.4695739 0.12213408 0.089285714)
(1.5125877 0.10076862 0.089285714)
(1.5564077 0.081115629 0.089285714)
(1.6010105 0.063313152 0.089285714)
(1.6463571 0.047502309 0.089285714)
(1.69239 0.033822883 0.089285714)
(1.7390347 0.022410689 0.089285714)
(1.7861984 0.01339133 0.089285714)
(1.8337715 0.006873472 0.089285714)
(1.8816275 0.0029441336 0.089285714)
(1.9296286 0.001481786 0.089285714)
(1.9776712 0.0013275896 0.089285714)
(2.0257156 0.0013275896 0.089285714)
(2.07376 0.0013275896 0.089285714)
(2.1218043 0.0013275896 0.089285714)
(2.1698486 0.0013275896 0.089285714)
(2.217893 0.0013275896 0.089285714)
(2.2659374 0.0013275896 0.089285714)
(2.3139819 0.0013275896 0.089285714)
(2.3620261 0.0013275896 0.089285714)
(2.4100703 0.0013275896 0.089285714)
(2.4581148 0.0013275896 0.089285714)
(2.5061593 0.0013275896 0.089285714)
(2.5542036 0.0013275896 0.089285714)
(2.6022479 0.0013275896 0.089285714)
(2.6502923 0.0013275896 0.089285714)
(2.6983367 0.0013275896 0.089285714)
(2.7463812 0.0013275896 0.089285714)
(2.7944255 0.0013275896 0.089285714)
(2.8424698 0.0013275896 0.089285714)
(2.8905141 0.0013275896 0.089285714)
(2.9385586 0.0013275896 0.089285714)
(2.9866031 0.0013275896 0.089285714)
(3.0346473 0.0013275896 0.089285714)
(3.0826915 0.0013275896 0.089285714)
(3.130736 0.0013275896 0.089285714)
(3.1787803 0.0013275896 0.089285714)
(3.2268247 0.0013275896 0.089285714)
(3.2748691 0.0013275896 0.089285714)
(3.3229134 0.0013275896 0.089285714)
(3.3709578 0.0013275896 0.089285714)
(3.4190022 0.0013275896 0.089285714)
(3.4670466 0.0013275896 0.089285714)
(3.5150908 0.0013275896 0.089285714)
(3.5631344 0.0013275896 0.089285714)
(3.6111799 0.0013275896 0.089285714)
(3.6592251 0.0013275896 0.089285714)
(3.7072675 0.0013275896 0.089285714)
(3.755313 0.0013275896 0.089285714)
(3.8033582 0.0013275896 0.089285714)
(3.8514006 0.0013275896 0.089285714)
(3.8994461 0.0013275896 0.089285714)
(3.9474913 0.0013275896 0.089285714)
(3.9955356 0.0013275896 0.089285714)
(4.04358 0.0013275896 0.089285714)
(4.0916223 0.0013275896 0.089285714)
(4.1396677 0.0013275896 0.089285714)
(4.1877131 0.0013275896 0.089285714)
(4.2357554 0.0013275896 0.089285714)
(4.2838008 0.0013275896 0.089285714)
(4.3318462 0.0013275896 0.089285714)
(4.3798885 0.0013275896 0.089285714)
(4.4279339 0.0013275896 0.089285714)
(4.4759793 0.0013275896 0.089285714)
(4.5240216 0.0013275896 0.089285714)
(4.572067 0.0013275896 0.089285714)
(4.6201124 0.0013275896 0.089285714)
(4.6681547 0.0013275896 0.089285714)
(4.7162001 0.0013275896 0.089285714)
(4.7642454 0.0013275896 0.089285714)
(4.8122878 0.0013275896 0.089285714)
(4.8603331 0.0013275896 0.089285714)
(4.9083785 0.0013275896 0.089285714)
(4.9564209 0.0013275896 0.089285714)
(5.0044652 0.0013275896 0.089285714)
(5.0525095 0.0013275896 0.089285714)
(5.1005547 0.0013275896 0.089285714)
(5.1486002 0.0013275896 0.089285714)
(5.1966426 0.0013275896 0.089285714)
(5.2446878 0.0013275896 0.089285714)
(5.2927333 0.0013275896 0.089285714)
(5.3407757 0.0013275896 0.089285714)
(5.3888209 0.0013275896 0.089285714)
(5.4368664 0.0013275896 0.089285714)
(5.4849088 0.0013275896 0.089285714)
(5.532954 0.0013275896 0.089285714)
(5.5809995 0.0013275896 0.089285714)
(5.6290419 0.0013275896 0.089285714)
(5.6770871 0.0013275896 0.089285714)
(5.7251326 0.0013275896 0.089285714)
(5.773175 0.0013275896 0.089285714)
(5.8212202 0.0013275896 0.089285714)
(5.8692657 0.0013275896 0.089285714)
(5.9173081 0.0013275896 0.089285714)
(5.9653533 0.0013275896 0.089285714)
(6.0133986 0.0013275896 0.089285714)
(6.0614421 0.0013275896 0.089285714)
(6.1094869 0.0013275896 0.089285714)
(6.1575311 0.0013275896 0.089285714)
(6.2055752 0.0013275896 0.089285714)
(6.2536199 0.0013275896 0.089285714)
(6.3016642 0.0013275896 0.089285714)
(6.3497083 0.0013275896 0.089285714)
(6.397753 0.0013275896 0.089285714)
(6.4457973 0.0013275896 0.089285714)
(6.4938414 0.0013275896 0.089285714)
(6.5418861 0.0013275896 0.089285714)
(6.5899304 0.0013275896 0.089285714)
(6.6379745 0.0013275896 0.089285714)
(6.6860192 0.0013275896 0.089285714)
(6.7340635 0.0013275896 0.089285714)
(6.7821075 0.0013275896 0.089285714)
(6.8301523 0.0013275896 0.089285714)
(6.8781966 0.0013275896 0.089285714)
(6.9262406 0.0013275896 0.089285714)
(6.9742854 0.0013275896 0.089285714)
(7.022329 0.0013275896 0.089285714)
(7.0703725 0.0014816277 0.089285714)
(7.1183745 0.0029439532 0.089285714)
(7.1662286 0.0068740114 0.089285714)
(7.213803 0.013390891 0.089285714)
(7.2609675 0.022409668 0.089285714)
(7.3076091 0.033824168 0.089285714)
(7.3536433 0.047502287 0.089285714)
(7.398992 0.063310947 0.089285714)
(7.4435934 0.081115159 0.089285714)
(7.4874107 0.100771 0.089285714)
(7.5304229 0.12213769 0.089285714)
(7.5726226 0.14507787 0.089285714)
(7.6140232 0.16943114 0.089285714)
(7.6546918 0.1949897 0.089285714)
(7.6947257 0.22153428 0.089285714)
(7.7342189 0.2488781 0.089285714)
(7.7732643 0.27686375 0.089285714)
(7.8119458 0.30534882 0.089285714)
(7.8503479 0.33420744 0.089285714)
(7.8885561 0.36332554 0.089285714)
(7.9266501 0.39259605 0.089285714)
(7.9646821 0.42194539 0.089285714)
(8.0026617 0.45136306 0.089285714)
(8.0405579 0.4808881 0.089285714)
(8.0783384 0.5105577 0.089285714)
(8.1159864 0.54039589 0.089285714)
(8.1534775 0.57043055 0.089285714)
(8.1907869 0.60068949 0.089285714)
(8.2278921 0.63119792 0.089285714)
(8.2647707 0.66197945 0.089285714)
(8.3014157 0.69304052 0.089285714)
(8.3379019 0.72429104 0.089285714)
(8.3743917 0.7555384 0.089285714)
(8.411071 0.78656314 0.089285714)
(8.4481288 0.81713277 0.089285714)
(8.4857658 0.84698167 0.089285714)
(8.524207 0.87578898 0.089285714)
(8.5637038 0.90312242 0.089285714)
(8.6045417 0.9283879 0.089285714)
(8.6470022 0.95078115 0.089285714)
(8.6912642 0.96927517 0.089285714)
(8.7371769 0.98315185 0.089285714)
(8.7842438 0.99249534 0.089285714)
(8.8319388 0.99796976 0.089285714)
(8.8798979 1.000505 0.089285714)
(8.9279345 1.001154 0.089285714)
(8.9759793 1.0010169 0.089285714)
(0.024020856 1.0016521 0.089285714)
(0.072064013 1.0017891 0.089285714)
(0.12009909 1.0011404 0.089285714)
(0.16805868 0.99860615 0.089285714)
(0.21575174 0.9931324 0.089285714)
(0.26281735 0.98379173 0.089285714)
(0.30873283 0.9699221 0.089285714)
(0.35299432 0.95143298 0.089285714)
(0.39545074 0.9290422 0.089285714)
(0.43628897 0.90378365 0.089285714)
(0.47578972 0.8764605 0.089285714)
(0.51423449 0.84766333 0.089285714)
(0.5518743 0.81782436 0.089285714)
(0.5889352 0.78726502 0.089285714)
(0.62561749 0.75625061 0.089285714)
(0.66211018 0.72501327 0.089285714)
(0.69859926 0.69377276 0.089285714)
(0.73524722 0.66272172 0.089285714)
(0.7721287 0.63195028 0.089285714)
(0.80923682 0.60145208 0.089285714)
(0.84654924 0.5712033 0.089285714)
(0.88404353 0.54117873 0.089285714)
(0.92169535 0.51135077 0.089285714)
(0.95948002 0.48169141 0.089285714)
(0.9973723 0.45216986 0.089285714)
(1.0353467 0.42275386 0.089285714)
(1.07338 0.39341294 0.089285714)
(1.1114761 0.36415275 0.089285714)
(1.1496884 0.33504501 0.089285714)
(1.1880948 0.30619678 0.089285714)
(1.2267798 0.27772213 0.089285714)
(1.2658283 0.24974694 0.089285714)
(1.3053247 0.22241352 0.089285714)
(1.3453624 0.19587894 0.089285714)
(1.3860338 0.17032986 0.089285714)
(1.4274316 0.14598101 0.089285714)
(1.4696279 0.12304375 0.089285714)
(1.5126423 0.10168496 0.089285714)
(1.5564627 0.082038107 0.089285714)
(1.6010656 0.064241188 0.089285714)
(1.6464121 0.048435282 0.089285714)
(1.6924447 0.034760126 0.089285714)
(1.7390889 0.023351495 0.089285714)
(1.7862519 0.014334953 0.089285714)
(1.8338242 0.0078191294 0.089285714)
(1.8816793 0.0038910177 0.089285714)
(1.9296795 0.0024291267 0.089285714)
(1.9777211 0.0022749784 0.089285714)
(2.0257645 0.0022749784 0.089285714)
(2.073808 0.0022749784 0.089285714)
(2.1218514 0.0022749784 0.089285714)
(2.1698947 0.0022749784 0.089285714)
(2.2179381 0.0022749784 0.089285714)
(2.2659816 0.0022749784 0.089285714)
(2.3140251 0.0022749784 0.089285714)
(2.3620684 0.0022749784 0.089285714)
(2.4101117 0.0022749784 0.089285714)
(2.4581552 0.0022749784 0.089285714)
(2.5061988 0.0022749784 0.089285714)
(2.5542421 0.0022749784 0.089285714)
(2.6022854 0.0022749784 0.089285714)
(2.6503289 0.0022749784 0.089285714)
(2.6983723 0.0022749784 0.089285714)
(2.7464158 0.0022749784 0.089285714)
(2.7944593 0.0022749784 0.089285714)
(2.8425026 0.0022749784 0.089285714)
(2.8905459 0.0022749784 0.089285714)
(2.9385895 0.0022749784 0.089285714)
(2.986633 0.0022749784 0.089285714)
(3.0346763 0.0022749784 0.089285714)
(3.0827196 0.0022749784 0.089285714)
(3.1307631 0.0022749784 0.089285714)
(3.1788065 0.0022749784 0.089285714)
(3.2268499 0.0022749784 0.089285714)
(3.2748933 0.0022749784 0.089285714)
(3.3229367 0.0022749784 0.089285714)
(3.3709801 0.0022749784 0.089285714)
(3.4190236 0.0022749784 0.089285714)
(3.4670671 0.0022749784 0.089285714)
(3.5151103 0.0022749784 0.089285714)
(3.5631529 0.0022749784 0.089285714)
(3.6111975 0.0022749784 0.089285714)
(3.6592418 0.0022749784 0.089285714)
(3.7072832 0.0022749784 0.089285714)
(3.7553278 0.0022749784 0.089285714)
(3.803372 0.0022749784 0.089285714)
(3.8514135 0.0022749784 0.089285714)
(3.899458 0.0022749784 0.089285714)
(3.9475022 0.0022749784 0.089285714)
(3.9955456 0.0022749784 0.089285714)
(4.043589 0.0022749784 0.089285714)
(4.0916304 0.0022749784 0.089285714)
(4.1396748 0.0022749784 0.089285714)
(4.1877192 0.0022749784 0.089285714)
(4.2357606 0.0022749784 0.089285714)
(4.2838051 0.0022749784 0.089285714)
(4.3318495 0.0022749784 0.089285714)
(4.3798908 0.0022749784 0.089285714)
(4.4279353 0.0022749784 0.089285714)
(4.4759797 0.0022749784 0.089285714)
(4.5240211 0.0022749784 0.089285714)
(4.5720655 0.0022749784 0.089285714)
(4.62011 0.0022749784 0.089285714)
(4.6681513 0.0022749784 0.089285714)
(4.7161958 0.0022749784 0.089285714)
(4.7642402 0.0022749784 0.089285714)
(4.8122816 0.0022749784 0.089285714)
(4.860326 0.0022749784 0.089285714)
(4.9083705 0.0022749784 0.089285714)
(4.9564118 0.0022749784 0.089285714)
(5.0044552 0.0022749784 0.089285714)
(5.0524986 0.0022749784 0.089285714)
(5.1005428 0.0022749784 0.089285714)
(5.1485874 0.0022749784 0.089285714)
(5.1966288 0.0022749784 0.089285714)
(5.2446731 0.0022749784 0.089285714)
(5.2927176 0.0022749784 0.089285714)
(5.3407591 0.0022749784 0.089285714)
(5.3888033 0.0022749784 0.089285714)
(5.4368478 0.0022749784 0.089285714)
(5.4848893 0.0022749784 0.089285714)
(5.5329336 0.0022749784 0.089285714)
(5.5809781 0.0022749784 0.089285714)
(5.6290196 0.0022749784 0.089285714)
(5.6770638 0.0022749784 0.089285714)
(5.7251083 0.0022749784 0.089285714)
(5.7731498 0.0022749784 0.089285714)
(5.8211941 0.0022749784 0.089285714)
(5.8692386 0.0022749784 0.089285714)
(5.9172801 0.0022749784 0.089285714)
(5.9653243 0.0022749784 0.089285714)
(6.0133686 0.0022749784 0.089285714)
(6.0614112 0.0022749784 0.089285714)
(6.109455 0.0022749784 0.089285714)
(6.1574983 0.0022749784 0.089285714)
(6.2055414 0.0022749784 0.089285714)
(6.2535853 0.0022749784 0.089285714)
(6.3016285 0.0022749784 0.089285714)
(6.3496717 0.0022749784 0.089285714)
(6.3977155 0.0022749784 0.089285714)
(6.4457588 0.0022749784 0.089285714)
(6.4938019 0.0022749784 0.089285714)
(6.5418457 0.0022749784 0.089285714)
(6.589889 0.0022749784 0.089285714)
(6.6379322 0.0022749784 0.089285714)
(6.685976 0.0022749784 0.089285714)
(6.7340193 0.0022749784 0.089285714)
(6.7820624 0.0022749784 0.089285714)
(6.8301062 0.0022749784 0.089285714)
(6.8781495 0.0022749784 0.089285714)
(6.9261926 0.0022749784 0.089285714)
(6.9742365 0.0022749784 0.089285714)
(7.0222791 0.0022749784 0.089285714)
(7.0703216 0.0024289685 0.089285714)
(7.1183227 0.0038908373 0.089285714)
(7.1661759 0.0078196686 0.089285714)
(7.2137496 0.014334514 0.089285714)
(7.2609133 0.023350474 0.089285714)
(7.3075544 0.034761411 0.089285714)
(7.3535883 0.04843526 0.089285714)
(7.3989369 0.064238984 0.089285714)
(7.4435384 0.082037636 0.089285714)
(7.4873561 0.10168734 0.089285714)
(7.5303689 0.12304736 0.089285714)
(7.5725695 0.14598038 0.089285714)
(7.6139712 0.17032605 0.089285714)
(7.6546412 0.19587662 0.089285714)
(7.6946766 0.22241291 0.089285714)
(7.7341715 0.2497482 0.089285714)
(7.7732188 0.27772511 0.089285714)
(7.8119023 0.30620129 0.089285714)
(7.8503064 0.3350509 0.089285714)
(7.8885167 0.36415991 0.089285714)
(7.9266129 0.39342128 0.089285714)
(7.9646471 0.42276145 0.089285714)
(8.0026288 0.45216994 0.089285714)
(8.0405272 0.48168576 0.089285714)
(8.07831 0.51134611 0.089285714)
(8.1159603 0.54117497 0.089285714)
(8.1534538 0.57120025 0.089285714)
(8.1907656 0.60144975 0.089285714)
(8.2278732 0.63194865 0.089285714)
(8.2647544 0.66272057 0.089285714)
(8.301402 0.69377195 0.089285714)
(8.3378908 0.72501271 0.089285714)
(8.3743833 0.75625031 0.089285714)
(8.4110651 0.78726537 0.089285714)
(8.4481254 0.81782545 0.089285714)
(8.4857647 0.84766503 0.089285714)
(8.524208 0.87646335 0.089285714)
(8.5637065 0.90378825 0.089285714)
(8.6045458 0.92904585 0.089285714)
(8.647007 0.95143211 0.089285714)
(8.6912692 0.96992035 0.089285714)
(8.7371817 0.9837927 0.089285714)
(8.7842479 0.99313326 0.089285714)
(8.8319421 0.99860598 0.089285714)
(8.8799002 1.0011405 0.089285714)
(8.927936 1.0017892 0.089285714)
(8.9759798 1.0016521 0.089285714)
(0.024020352 1.0023255 0.089285714)
(0.072062502 1.0024625 0.089285714)
(0.12009657 1.001814 0.089285714)
(0.16805518 0.99928055 0.089285714)
(0.21574736 0.99380862 0.089285714)
(0.26281228 0.98447104 0.089285714)
(0.30872747 0.97060601 0.089285714)
(0.3529892 0.952123 0.089285714)
(0.39544646 0.92973964 0.089285714)
(0.43628607 0.90448945 0.089285714)
(0.47578865 0.87717534 0.089285714)
(0.51423559 0.84838771 0.089285714)
(0.55187784 0.81855862 0.089285714)
(0.58894136 0.7880094 0.089285714)
(0.62562641 0.75700526 0.089285714)
(0.66212191 0.72577826 0.089285714)
(0.69861382 0.69454809 0.089285714)
(0.73526454 0.66350733 0.089285714)
(0.77214871 0.63274607 0.089285714)
(0.80925943 0.60225798 0.089285714)
(0.8465744 0.57201921 0.089285714)
(0.88407117 0.54200458 0.089285714)
(0.92172542 0.5121865 0.089285714)
(0.95951248 0.48253696 0.089285714)
(0.99740712 0.45302517 0.089285714)
(1.0353839 0.42361891 0.089285714)
(1.0734194 0.3942877 0.089285714)
(1.1115178 0.36503721 0.089285714)
(1.1497323 0.3359391 0.089285714)
(1.1881409 0.30710042 0.089285714)
(1.226828 0.2786352 0.089285714)
(1.2658785 0.25066927 0.089285714)
(1.3053768 0.2233449 0.089285714)
(1.3454161 0.1968191 0.089285714)
(1.3860889 0.17127848 0.089285714)
(1.4274879 0.14693769 0.089285714)
(1.4696852 0.12400803 0.089285714)
(1.5127002 0.10265631 0.089285714)
(1.556521 0.083015957 0.089285714)
(1.601124 0.06522493 0.089285714)
(1.6464704 0.049424256 0.089285714)
(1.6925027 0.035753628 0.089285714)
(1.7391463 0.024348774 0.089285714)
(1.7863086 0.015335217 0.089285714)
(1.83388 0.0088215505 0.089285714)
(1.8817342 0.0048947393 0.089285714)
(1.9297334 0.0034333323 0.089285714)
(1.977774 0.0032792351 0.089285714)
(2.0258164 0.0032792351 0.089285714)
(2.0738589 0.0032792351 0.089285714)
(2.1219012 0.0032792351 0.089285714)
(2.1699436 0.0032792351 0.089285714)
(2.217986 0.0032792351 0.089285714)
(2.2660285 0.0032792351 0.089285714)
(2.314071 0.0032792351 0.089285714)
(2.3621132 0.0032792351 0.089285714)
(2.4101555 0.0032792351 0.089285714)
(2.458198 0.0032792351 0.089285714)
(2.5062406 0.0032792351 0.089285714)
(2.5542829 0.0032792351 0.089285714)
(2.6023252 0.0032792351 0.089285714)
(2.6503676 0.0032792351 0.089285714)
(2.6984101 0.0032792351 0.089285714)
(2.7464526 0.0032792351 0.089285714)
(2.794495 0.0032792351 0.089285714)
(2.8425373 0.0032792351 0.089285714)
(2.8905797 0.0032792351 0.089285714)
(2.9386222 0.0032792351 0.089285714)
(2.9866647 0.0032792351 0.089285714)
(3.0347071 0.0032792351 0.089285714)
(3.0827493 0.0032792351 0.089285714)
(3.1307918 0.0032792351 0.089285714)
(3.1788342 0.0032792351 0.089285714)
(3.2268766 0.0032792351 0.089285714)
(3.274919 0.0032792351 0.089285714)
(3.3229613 0.0032792351 0.089285714)
(3.3710038 0.0032792351 0.089285714)
(3.4190463 0.0032792351 0.089285714)
(3.4670887 0.0032792351 0.089285714)
(3.515131 0.0032792351 0.089285714)
(3.5631725 0.0032792351 0.089285714)
(3.6112161 0.0032792351 0.089285714)
(3.6592594 0.0032792351 0.089285714)
(3.7072999 0.0032792351 0.089285714)
(3.7553434 0.0032792351 0.089285714)
(3.8033866 0.0032792351 0.089285714)
(3.8514271 0.0032792351 0.089285714)
(3.8994706 0.0032792351 0.089285714)
(3.9475138 0.0032792351 0.089285714)
(3.9955562 0.0032792351 0.089285714)
(4.0435986 0.0032792351 0.089285714)
(4.0916389 0.0032792351 0.089285714)
(4.1396824 0.0032792351 0.089285714)
(4.1877258 0.0032792351 0.089285714)
(4.2357661 0.0032792351 0.089285714)
(4.2838096 0.0032792351 0.089285714)
(4.331853 0.0032792351 0.089285714)
(4.3798934 0.0032792351 0.089285714)
(4.4279368 0.0032792351 0.089285714)
(4.4759802 0.0032792351 0.089285714)
(4.5240206 0.0032792351 0.089285714)
(4.572064 0.0032792351 0.089285714)
(4.6201075 0.0032792351 0.089285714)
(4.6681478 0.0032792351 0.089285714)
(4.7161912 0.0032792351 0.089285714)
(4.7642347 0.0032792351 0.089285714)
(4.812275 0.0032792351 0.089285714)
(4.8603185 0.0032792351 0.089285714)
(4.9083619 0.0032792351 0.089285714)
(4.9564023 0.0032792351 0.089285714)
(5.0044447 0.0032792351 0.089285714)
(5.052487 0.0032792351 0.089285714)
(5.1005302 0.0032792351 0.089285714)
(5.1485737 0.0032792351 0.089285714)
(5.1966142 0.0032792351 0.089285714)
(5.2446575 0.0032792351 0.089285714)
(5.292701 0.0032792351 0.089285714)
(5.3407414 0.0032792351 0.089285714)
(5.3887847 0.0032792351 0.089285714)
(5.4368282 0.0032792351 0.089285714)
(5.4848687 0.0032792351 0.089285714)
(5.5329119 0.0032792351 0.089285714)
(5.5809554 0.0032792351 0.089285714)
(5.6289959 0.0032792351 0.089285714)
(5.6770391 0.0032792351 0.089285714)
(5.7250826 0.0032792351 0.089285714)
(5.7731231 0.0032792351 0.089285714)
(5.8211664 0.0032792351 0.089285714)
(5.8692099 0.0032792351 0.089285714)
(5.9172503 0.0032792351 0.089285714)
(5.9652936 0.0032792351 0.089285714)
(6.0133369 0.0032792351 0.089285714)
(6.0613784 0.0032792351 0.089285714)
(6.1094213 0.0032792351 0.089285714)
(6.1574635 0.0032792351 0.089285714)
(6.2055057 0.0032792351 0.089285714)
(6.2535485 0.0032792351 0.089285714)
(6.3015907 0.0032792351 0.089285714)
(6.3496329 0.0032792351 0.089285714)
(6.3976757 0.0032792351 0.089285714)
(6.445718 0.0032792351 0.089285714)
(6.4937601 0.0032792351 0.089285714)
(6.5418029 0.0032792351 0.089285714)
(6.5898452 0.0032792351 0.089285714)
(6.6378873 0.0032792351 0.089285714)
(6.6859301 0.0032792351 0.089285714)
(6.7339724 0.0032792351 0.089285714)
(6.7820145 0.0032792351 0.089285714)
(6.8300574 0.0032792351 0.089285714)
(6.8780996 0.0032792351 0.089285714)
(6.9261418 0.0032792351 0.089285714)
(6.9741846 0.0032792351 0.089285714)
(7.0222262 0.0032792351 0.089285714)
(7.0702677 0.0034331741 0.089285714)
(7.1182678 0.004894559 0.089285714)
(7.16612 0.0088220896 0.089285714)
(7.2136929 0.015334778 0.089285714)
(7.2608559 0.024347754 0.089285714)
(7.3074964 0.035754912 0.089285714)
(7.35353 0.049424234 0.089285714)
(7.3988785 0.065222726 0.089285714)
(7.4434802 0.083015487 0.089285714)
(7.4872982 0.10265869 0.089285714)
(7.5303116 0.12401164 0.089285714)
(7.5725132 0.14693706 0.089285714)
(7.6139161 0.17127467 0.089285714)
(7.6545875 0.19681678 0.089285714)
(7.6946245 0.22334429 0.089285714)
(7.7341213 0.25067053 0.089285714)
(7.7731705 0.27863818 0.089285714)
(7.8118561 0.30710493 0.089285714)
(7.8502624 0.33594499 0.089285714)
(7.888475 0.36504436 0.089285714)
(7.9265734 0.39429605 0.089285714)
(7.96461 0.42362651 0.089285714)
(8.002594 0.45302526 0.089285714)
(8.0404948 0.48253131 0.089285714)
(8.07828 0.51218183 0.089285714)
(8.1159327 0.54200082 0.089285714)
(8.1534286 0.57201616 0.089285714)
(8.190743 0.60225565 0.089285714)
(8.2278532 0.63274445 0.089285714)
(8.2647371 0.66350618 0.089285714)
(8.3013874 0.69454728 0.089285714)
(8.3378791 0.7257777 0.089285714)
(8.3743744 0.75700496 0.089285714)
(8.411059 0.78800975 0.089285714)
(8.4481219 0.81855972 0.089285714)
(8.4857636 0.84838942 0.089285714)
(8.5242091 0.8771782 0.089285714)
(8.5637094 0.90449405 0.089285714)
(8.6045501 0.92974329 0.089285714)
(8.6470121 0.95212213 0.089285714)
(8.6912746 0.97060425 0.089285714)
(8.7371867 0.98447201 0.089285714)
(8.7842523 0.99380949 0.089285714)
(8.8319456 0.99928039 0.089285714)
(8.8799028 1.001814 0.089285714)
(8.9279375 1.0024626 0.089285714)
(8.9759803 1.0023255 0.089285714)
(0.024019818 1.0030393 0.089285714)
(0.072060901 1.0031763 0.089285714)
(0.1200939 1.002528 0.089285714)
(0.16805148 0.99999545 0.089285714)
(0.21574272 0.99452543 0.089285714)
(0.26280691 0.98519113 0.089285714)
(0.30872178 0.97133097 0.089285714)
(0.35298378 0.95285445 0.089285714)
(0.39544193 0.93047895 0.089285714)