/*--------------------------------*- C++ -*----------------------------------*\
| =========                 |                                                 |
| \\      /  F ield         | OpenFOAM: The Open Source CFD Toolbox           |
|  \\    /   O peration     | Version:  2.4.0                                 |
|   \\  /    A nd           | Web:      www.OpenFOAM.org                      |
|    \\/     M anipulation  |                                                 |
\*---------------------------------------------------------------------------*/
FoamFile
{
    version     2.0;
    format      ascii;
    class       surfaceScalarField;
    location    "390";
    object      phi;
}
// * * * * * * * * * * * * * * * * * * * * * * * * * * * * * * * * * * * * * //

dimensions      [0 3 -1 0 0 0 0];

internalField   nonuniform List<scalar> 
38538
(
2.6266509e-07
-4.4712591e-08
3.1937025e-07
-5.6705163e-08
3.3731621e-07
-1.7945959e-08
3.2522347e-07
1.2092743e-08
2.6032404e-07
6.4899424e-08
1.60551e-07
9.9773042e-08
4.0562288e-08
1.1998871e-07
-6.3408727e-08
1.0397101e-07
-1.1517352e-07
5.1764783e-08
-1.2379144e-07
8.6179099e-09
-1.0752333e-07
-1.6268104e-08
-8.7479156e-08
-2.00442e-08
-7.13611e-08
-1.6118037e-08
-6.0780146e-08
-1.0580965e-08
-5.4019242e-08
-6.7608955e-09
-4.9357855e-08
-4.6613442e-09
-4.6116719e-08
-3.2411737e-09
-4.3663041e-08
-2.4536764e-09
-4.1450133e-08
-2.2129041e-09
-3.9397129e-08
-2.0530028e-09
-3.7467824e-08
-1.9293052e-09
-3.5707794e-08
-1.7600285e-09
-3.4383616e-08
-1.3241752e-09
-3.3566276e-08
-8.1733801e-10
-3.3119129e-08
-4.4714675e-10
-3.3016533e-08
-1.0260597e-10
-3.3273158e-08
2.5663521e-10
-3.3895795e-08
6.2263577e-10
-3.4917932e-08
1.0221404e-09
-3.6359239e-08
1.4413039e-09
-3.8244792e-08
1.8855562e-09
-4.0580474e-08
2.3356829e-09
-4.3371112e-08
2.7906378e-09
-4.6573817e-08
3.2027052e-09
-5.0100265e-08
3.5264472e-09
-5.3719669e-08
3.6194047e-09
-5.7277222e-08
3.5575526e-09
-6.0823449e-08
3.5462279e-09
-6.4343776e-08
3.5203337e-09
3.4520952e-09
-1.4740153e-07
-3.6428422e-09
-1.4378516e-07
-3.6163653e-09
-1.4019718e-07
-3.5879832e-09
-1.3663985e-07
-3.5573338e-09
-1.3311384e-07
-3.5260016e-09
-1.2962109e-07
-3.4927564e-09
-1.2616119e-07
-3.4598957e-09
-1.227372e-07
-3.4239937e-09
-1.1934861e-07
-3.3885864e-09
-1.1599878e-07
-3.3498299e-09
-1.1268703e-07
-3.3117579e-09
-1.0941661e-07
-3.270419e-09
-1.0618618e-07
-3.2304296e-09
-1.0299904e-07
-3.1871396e-09
-9.9853398e-08
-3.1456421e-09
-9.6753535e-08
-3.0998615e-09
-9.3696872e-08
-3.0566641e-09
-9.0689078e-08
-3.0077922e-09
-8.7726456e-08
-2.962621e-09
-8.4815969e-08
-2.9104847e-09
-8.1952324e-08
-2.8636439e-09
-7.914493e-08
-2.8073919e-09
-7.6387213e-08
-2.757715e-09
-7.3691331e-08
-2.6958801e-09
-7.10484e-08
-2.6429282e-09
-6.8474432e-08
-2.5739665e-09
-6.5958119e-08
-2.5163116e-09
-6.3521406e-08
-2.4367115e-09
-6.1149107e-08
-2.3722979e-09
-5.8869868e-08
-2.2792387e-09
-5.6662759e-08
-2.207107e-09
-5.4566777e-08
-2.0959808e-09
-5.255466e-08
-2.0121155e-09
-5.0679e-08
-1.8756599e-09
-4.8904259e-08
-1.7747408e-09
-4.7302153e-08
-1.602106e-09
-4.5826325e-08
-1.4758272e-09
-4.4572628e-08
-1.2536963e-09
-4.3478914e-08
-1.0937121e-09
-4.2674742e-08
-8.0417185e-10
-4.2073805e-08
-6.0093502e-10
-4.1850407e-08
-2.2339813e-10
-4.1868961e-08
1.8555195e-11
-4.2293316e-08
4.2435464e-10
-4.2751245e-08
4.579295e-10
-4.3767602e-08
1.0163566e-09
-4.4287493e-08
5.1989108e-10
-4.4838665e-08
5.5117143e-10
-4.4740902e-08
-9.7762651e-11
-4.4252734e-08
-4.8816882e-10
-4.3161689e-08
-1.0910443e-09
-4.1632188e-08
-1.5295022e-09
-3.9547248e-08
-2.0849395e-09
-3.701494e-08
-2.5323081e-09
-3.3956244e-08
-3.0586953e-09
-3.0443232e-08
-3.5130126e-09
-2.6408073e-08
-4.0351588e-09
-2.1890806e-08
-4.5172665e-09
-1.6810109e-08
-5.0806973e-09
-1.115982e-08
-5.6502884e-09
-4.7881294e-09
-6.3716903e-09
2.2765625e-09
-7.0646918e-09
9.9976565e-09
-7.7210939e-09
1.8356652e-08
-8.3589939e-09
2.7333374e-08
-8.9767221e-09
3.6914149e-08
-9.5807741e-09
4.7074857e-08
-1.0160707e-08
5.7784595e-08
-1.0709738e-08
6.8985183e-08
-1.1200597e-08
8.0599163e-08
-1.1613968e-08
9.2486296e-08
-1.1887131e-08
1.0441464e-07
-1.1928345e-08
1.1584448e-07
-1.1429833e-08
1.2664825e-07
-1.0803771e-08
1.3701251e-07
-1.0364258e-08
1.4694123e-07
-9.9287151e-09
1.5648877e-07
-9.5475385e-09
1.650382e-07
-8.5494172e-09
1.7277937e-07
-7.7411254e-09
1.809804e-07
-8.2010554e-09
1.9011652e-07
-9.1360876e-09
2.0031218e-07
-1.0195678e-08
2.1171448e-07
-1.1402155e-08
2.2462049e-07
-1.2906103e-08
2.3993521e-07
-1.5314297e-08
2.594266e-07
-1.9491767e-08
2.8321212e-07
-2.378552e-08
3.1054183e-07
-2.7329729e-08
3.4213149e-07
-3.1589695e-08
3.7824852e-07
-3.6117052e-08
4.2060757e-07
-4.2359024e-08
4.6987095e-07
-4.9263545e-08
5.2936279e-07
-5.9491956e-08
6.0009448e-07
-7.0730948e-08
6.8643378e-07
-8.6340927e-08
7.854849e-07
-9.9064333e-08
8.9614718e-07
-1.106492e-07
9.9830942e-07
-1.0216201e-07
1.0599865e-06
-6.167687e-08
1.0295569e-06
3.0429777e-08
9.3434805e-07
9.5208952e-08
7.9063213e-07
1.4371597e-07
6.3845736e-07
1.521748e-07
4.8666438e-07
1.5179301e-07
3.6943894e-07
1.1722545e-07
2.7510501e-07
9.4333919e-08
2.309478e-07
4.4157222e-08
1.2995307e-08
8.4336355e-07
-1.7483118e-07
9.9350611e-07
-2.0684773e-07
1.0691597e-06
-9.3599521e-08
1.0155126e-06
6.5739856e-08
8.3043929e-07
2.4997272e-07
5.1591188e-07
4.1430046e-07
1.5212938e-07
4.8377121e-07
-1.7891082e-07
4.3501121e-07
-3.4484535e-07
2.1769931e-07
-3.8023444e-07
4.4006996e-08
-3.3100763e-07
-6.5494901e-08
-2.7176834e-07
-7.9283473e-08
-2.2127254e-07
-6.6613903e-08
-1.8942776e-07
-4.2425691e-08
-1.678624e-07
-2.8326254e-08
-1.5388743e-07
-1.8636349e-08
-1.4347042e-07
-1.3658163e-08
-1.3612471e-07
-9.7993879e-09
-1.2908081e-07
-9.2568122e-09
-1.2288961e-07
-8.2441994e-09
-1.1682823e-07
-7.9906897e-09
-1.1150616e-07
-7.0820988e-09
-1.073703e-07
-5.4600396e-09
-1.0492219e-07
-3.2654421e-09
-1.0353796e-07
-1.8313808e-09
-1.0329795e-07
-3.4260733e-10
-1.0411855e-07
1.0772309e-09
-1.0612358e-07
2.6276624e-09
-1.0933314e-07
4.2316996e-09
-1.1387294e-07
5.9811024e-09
-1.197659e-07
7.7785133e-09
-1.2707102e-07
9.6408027e-09
-1.3576465e-07
1.1484271e-08
-1.4573894e-07
1.3176991e-08
-1.566942e-07
1.4481713e-08
-1.6794347e-07
1.486867e-08
-1.7900357e-07
1.4617656e-08
-1.9002534e-07
1.4567998e-08
-2.0096571e-07
1.4460697e-08
1.4180134e-08
-4.5463224e-07
-1.4963019e-08
-4.4339512e-07
-1.4853491e-08
-4.3224659e-07
-1.4736508e-08
-4.2119217e-07
-1.4611759e-08
-4.1023545e-07
-1.448272e-08
-3.9938099e-07
-1.434721e-08
-3.8863078e-07
-1.4210106e-08
-3.7799072e-07
-1.4064057e-08
-3.6746286e-07
-1.3916448e-08
-3.5705327e-07
-1.3759422e-08
-3.4676394e-07
-1.3601084e-08
-3.3660025e-07
-1.3434113e-08
-3.2656356e-07
-1.3267119e-08
-3.166587e-07
-1.3092003e-08
-3.0688702e-07
-1.2917317e-08
-2.9725408e-07
-1.2732805e-08
-2.8776096e-07
-1.2549782e-08
-2.7841473e-07
-1.2354021e-08
-2.6921597e-07
-1.2161382e-08
-2.6017269e-07
-1.1953762e-08
-2.51285e-07
-1.1751327e-08
-2.4256334e-07
-1.1529051e-08
-2.340085e-07
-1.1312557e-08
-2.2563375e-07
-1.1070624e-08
-2.1743977e-07
-1.0836903e-08
-2.0944383e-07
-1.0569909e-08
-2.0164805e-07
-1.031209e-08
-1.9407659e-07
-1.0008168e-08
-1.8673202e-07
-9.7168637e-09
-1.7964565e-07
-9.3656106e-09
-1.728203e-07
-9.0324584e-09
-1.6629976e-07
-8.6165143e-09
-1.6008919e-07
-8.2226845e-09
-1.5424906e-07
-7.7157937e-09
-1.4878777e-07
-7.2360307e-09
-1.4379123e-07
-6.5986406e-09
-1.3927115e-07
-5.9959039e-09
-1.3534713e-07
-5.1777176e-09
-1.3203e-07
-4.4108371e-09
-1.2949036e-07
-3.343816e-09
-1.2772253e-07
-2.3687665e-09
-1.2696926e-07
-9.7665891e-10
-1.2714678e-07
1.9607324e-10
-1.2838993e-07
1.6675056e-09
-1.3000111e-07
2.0691117e-09
-1.3307891e-07
4.0941521e-09
-1.3480927e-07
2.2502482e-09
-1.3634169e-07
2.0835948e-09
-1.360781e-07
-3.6135712e-10
-1.3440371e-07
-2.1625595e-09
-1.3103078e-07
-4.4639688e-09
-1.2614915e-07
-6.4111319e-09
-1.1967495e-07
-8.5591368e-09
-1.1170214e-07
-1.0505126e-08
-1.0219463e-07
-1.2566206e-08
-9.119459e-08
-1.4513049e-08
-7.8650282e-08
-1.6579466e-08
-6.4553194e-08
-1.8614354e-08
-4.8772033e-08
-2.0861858e-08
-3.1186648e-08
-2.3235674e-08
-1.1413856e-08
-2.6144481e-08
1.0505104e-08
-2.8983652e-08
3.4426203e-08
-3.1642192e-08
6.0313179e-08
-3.4245968e-08
8.808942e-08
-3.6752963e-08
1.1771798e-07
-3.9209329e-08
1.4912035e-07
-4.1563081e-08
1.8220223e-07
-4.379161e-08
2.1678465e-07
-4.5783031e-08
2.5262854e-07
-4.7457847e-08
2.8932021e-07
-4.8578801e-08
3.2611059e-07
-4.8718717e-08
3.6140776e-07
-4.6727007e-08
3.9480484e-07
-4.4200847e-08
4.2685755e-07
-4.2416961e-08
4.5756335e-07
-4.0634513e-08
4.8707781e-07
-3.9061986e-08
5.1330616e-07
-3.4777752e-08
5.3699419e-07
-3.1429108e-08
5.6227954e-07
-3.3486439e-08
5.9042914e-07
-3.7285644e-08
6.2190409e-07
-4.167065e-08
6.5700432e-07
-4.6502224e-08
6.9680016e-07
-5.2702032e-08
7.4387517e-07
-6.2388858e-08
8.0376676e-07
-7.938375e-08
8.7644665e-07
-9.646542e-08
9.6044086e-07
-1.1132397e-07
1.0569401e-06
-1.2808895e-07
1.1680516e-06
-1.472286e-07
1.2971783e-06
-1.7148568e-07
1.4487861e-06
-2.0087152e-07
1.6297405e-06
-2.4044654e-07
1.8473741e-06
-2.8836387e-07
2.1095872e-06
-3.4855583e-07
2.4146445e-06
-4.0413558e-07
2.749362e-06
-4.4535287e-07
3.0650913e-06
-4.17891e-07
3.2508679e-06
-2.474532e-07
3.1759706e-06
1.0532732e-07
2.8897084e-06
3.8147129e-07
2.4703085e-06
5.6311598e-07
1.9984064e-06
6.2407687e-07
1.5491854e-06
6.0101409e-07
1.1697282e-06
4.9668262e-07
8.9893295e-07
3.6512918e-07
7.3274358e-07
2.103466e-07
3.2493941e-08
1.4984831e-06
-3.8984628e-07
1.7367954e-06
-4.4516001e-07
1.8790628e-06
-2.3586692e-07
1.7763034e-06
1.6849924e-07
1.4684416e-06
5.5783444e-07
9.2363264e-07
9.5910947e-07
2.9915246e-07
1.1082514e-06
-2.8330837e-07
1.017472e-06
-5.8138455e-07
5.1577548e-07
-6.5333275e-07
1.1595518e-07
-5.7134603e-07
-1.4748162e-07
-4.7165536e-07
-1.7897418e-07
-3.84166e-07
-1.5410323e-07
-3.2968005e-07
-9.6911666e-08
-2.9188556e-07
-6.6120736e-08
-2.6796729e-07
-4.2554539e-08
-2.4964285e-07
-3.1982661e-08
-2.3707473e-07
-2.2367507e-08
-2.2473984e-07
-2.1591699e-08
-2.1412915e-07
-1.8854882e-08
-2.0357416e-07
-1.8545677e-08
-1.9444904e-07
-1.6207223e-08
-1.872654e-07
-1.2643673e-08
-1.8308737e-07
-7.4434692e-09
-1.8070386e-07
-4.2148896e-09
-1.8036071e-07
-6.8577505e-10
-1.8182435e-07
2.5408971e-09
-1.85379e-07
6.1823104e-09
-1.9100185e-07
9.8545516e-09
-1.9895463e-07
1.3933881e-08
-2.0923746e-07
1.8061348e-08
-2.2197994e-07
2.2383279e-08
-2.3711246e-07
2.6616795e-08
-2.5446378e-07
3.0528313e-08
-2.7349555e-07
3.3513477e-08
-2.9304164e-07
3.4414763e-08
-3.1226628e-07
3.38423e-08
-3.3141748e-07
3.3719194e-08
-3.5042527e-07
3.3468501e-08
3.2817917e-08
-7.8423239e-07
-3.4615831e-08
-7.6472457e-07
-3.4361304e-08
-7.4537111e-07
-3.4089975e-08
-7.2618046e-07
-3.3802401e-08
-7.0715996e-07
-3.3503225e-08
-6.8831648e-07
-3.3190688e-08
-6.6965568e-07
-3.2870901e-08
-6.5118537e-07
-3.2534376e-08
-6.3291157e-07
-3.2190241e-08
-6.1484182e-07
-3.1829174e-08
-5.9698245e-07
-3.1460454e-08
-5.7933949e-07
-3.1077079e-08
-5.6191914e-07
-3.0687471e-08
-5.4472605e-07
-3.0285086e-08
-5.2776737e-07
-2.9876e-08
-5.110474e-07
-2.9452772e-08
-4.9457433e-07
-2.9022858e-08
-4.7835316e-07
-2.8575184e-08
-4.6239324e-07
-2.8121303e-08
-4.4669915e-07
-2.7647854e-08
-4.3128248e-07
-2.7167996e-08
-4.1614844e-07
-2.6663087e-08
-4.0131304e-07
-2.6147954e-08
-3.8678251e-07
-2.5601155e-08
-3.7257753e-07
-2.5041881e-08
-3.5870572e-07
-2.4441714e-08
-3.4519654e-07
-2.3821268e-08
-3.3206156e-07
-2.3143149e-08
-3.1933966e-07
-2.2438755e-08
-3.0704535e-07
-2.1659919e-08
-2.9523051e-07
-2.0847303e-08
-2.8391764e-07
-1.9929385e-08
-2.7317793e-07
-1.8962394e-08
-2.6304504e-07
-1.7848676e-08
-2.5361597e-07
-1.66651e-08
-2.4494485e-07
-1.5269766e-08
-2.3716005e-07
-1.3780704e-08
-2.3034529e-07
-1.1992471e-08
-2.2466103e-07
-1.0095092e-08
-2.2024179e-07
-7.7630554e-09
-2.1726042e-07
-5.3501428e-09
-2.1592938e-07
-2.3076927e-09
-2.1633875e-07
6.0544418e-10
-2.1846658e-07
3.7953374e-09
-2.2143799e-07
5.0405215e-09
-2.2673467e-07
9.3908259e-09
-2.2981054e-07
5.3261222e-09
-2.3230104e-07
4.5740933e-09
-2.3183269e-07
-8.2970936e-10
-2.2878071e-07
-5.2145337e-09
-2.2290937e-07
-1.0335313e-08
-2.1432477e-07
-1.4995732e-08
-2.0307493e-07
-1.9808979e-08
-1.8915702e-07
-2.4423035e-08
-1.7264965e-07
-2.9073572e-08
-1.5350446e-07
-3.3658242e-08
-1.3173717e-07
-3.8346753e-08
-1.0724253e-07
-4.3108993e-08
-7.9874941e-08
-4.8229451e-08
-4.9354721e-08
-5.3755893e-08
-1.5081596e-08
-6.0417606e-08
2.2904731e-08
-6.6969979e-08
6.4334627e-08
-7.3072088e-08
1.0916215e-07
-7.9073487e-08
1.5724268e-07
-8.4833494e-08
2.0851554e-07
-9.0482192e-08
2.6284334e-07
-9.5890872e-08
3.200604e-07
-1.0100867e-07
3.798624e-07
-1.0558504e-07
4.4182639e-07
-1.0942183e-07
5.0525014e-07
-1.1200254e-07
5.6883058e-07
-1.1229916e-07
6.2987606e-07
-1.0777248e-07
6.8767466e-07
-1.0199944e-07
7.4316479e-07
-9.7907097e-08
7.9634727e-07
-9.3816987e-08
8.4743227e-07
-9.0146973e-08
8.9258391e-07
-7.9929383e-08
9.3332194e-07
-7.216709e-08
9.7702379e-07
-7.7188323e-08
1.025695e-06
-8.5956849e-08
1.0801512e-06
-9.6126858e-08
1.1408221e-06
-1.0717295e-07
1.2096256e-06
-1.2150563e-07
1.2909264e-06
-1.4368923e-07
1.3942208e-06
-1.8267851e-07
1.5192343e-06
-2.2147892e-07
1.6639967e-06
-2.5608644e-07
1.8298964e-06
-2.939886e-07
2.0213473e-06
-3.3867959e-07
2.242958e-06
-3.9309632e-07
2.5039409e-06
-4.6185462e-07
2.8138711e-06
-5.5037688e-07
3.1880658e-06
-6.625579e-07
3.6362779e-06
-7.9676969e-07
4.1600303e-06
-9.279017e-07
4.7300725e-06
-1.0153814e-06
5.2716351e-06
-9.5945334e-07
5.5887936e-06
-5.6461143e-07
5.4789753e-06
2.1514571e-07
5.000896e-06
8.5955082e-07
4.3034226e-06
1.2605894e-06
3.4950817e-06
1.4324179e-06
2.7362208e-06
1.359875e-06
2.0701053e-06
1.1627981e-06
1.61488e-06
8.2035451e-07
1.3059417e-06
5.1928496e-07
5.4967627e-08
2.2330167e-06
-6.8926621e-07
2.560706e-06
-7.7284932e-07
2.7696671e-06
-4.4482797e-07
2.6166745e-06
3.214918e-07
2.1784205e-06
9.9608847e-07
1.391447e-06
1.7460829e-06
4.858502e-07
2.0138482e-06
-3.7203889e-07
1.8753611e-06
-8.2364598e-07
9.6738258e-07
-9.4246008e-07
2.3476927e-07
-8.2928218e-07
-2.606595e-07
-6.8752588e-07
-3.2073046e-07
-5.608668e-07
-2.8076241e-07
-4.8202058e-07
-1.7575781e-07
-4.2676538e-07
-1.2137592e-07
-3.9206534e-07
-7.7254638e-08
-3.6520833e-07
-5.8839649e-08
-3.4696902e-07
-4.0606812e-08
-3.2894303e-07
-3.9617699e-08
-3.1356388e-07
-3.4234027e-08
-2.9819025e-07
-3.3919305e-08
-2.8498515e-07
-2.9412331e-08
-2.7454319e-07
-2.3085635e-08
-2.6852277e-07
-1.3463888e-08
-2.6510084e-07
-7.6368176e-09
-2.6469016e-07
-1.0964493e-09
-2.6690107e-07
4.751796e-09
-2.7218568e-07
1.1466924e-08
-2.8047723e-07
1.8146091e-08
-2.9217908e-07
2.5635736e-08
-3.0726975e-07
3.3152014e-08
-3.2594791e-07
4.1061441e-08
-3.4809392e-07
4.8762806e-08
-3.7346156e-07
5.5895951e-08
-4.0125737e-07
6.1309286e-08
-4.2980552e-07
6.2962913e-08
-4.5788946e-07
6.1926239e-08
-4.8586009e-07
6.1689822e-08
-5.1361647e-07
6.1224885e-08
6.0033004e-08
-1.1369785e-06
-6.3295894e-08
-1.108511e-06
-6.282882e-08
-1.0802694e-06
-6.2331514e-08
-1.0522656e-06
-6.18062e-08
-1.0245108e-06
-6.1258058e-08
-9.9701442e-07
-6.0687061e-08
-9.6978604e-07
-6.0099286e-08
-9.4283555e-07
-5.9484866e-08
-9.1617325e-07
-5.8852539e-08
-8.8980837e-07
-5.8194052e-08
-8.637518e-07
-5.7517026e-08
-8.3801048e-07
-5.6818404e-08
-8.1259564e-07
-5.6102311e-08
-7.8751202e-07
-5.5368707e-08
-7.6277269e-07
-5.4615335e-08
-7.3838104e-07
-5.3844418e-08
-7.1435254e-07
-5.305136e-08
-6.9069049e-07
-5.223723e-08
-6.6741322e-07
-5.1398577e-08
-6.4452222e-07
-5.0538849e-08
-6.2204089e-07
-4.9649323e-08
-5.9996961e-07
-4.8734365e-08
-5.7834006e-07
-4.7777503e-08
-5.5715187e-07
-4.678934e-08
-5.3644635e-07
-4.5747398e-08
-5.1622201e-07
-4.4666051e-08
-4.9653655e-07
-4.3506725e-08
-4.7738962e-07
-4.2290077e-08
-4.588577e-07
-4.097067e-08
-4.4093922e-07
-3.9578398e-08
-4.2373691e-07
-3.8049615e-08
-4.072529e-07
-3.6413389e-08
-3.9162696e-07
-3.4588332e-08
-3.7686714e-07
-3.2608493e-08
-3.6316255e-07
-3.0369693e-08
-3.5053718e-07
-2.7895137e-08
-3.3924091e-07
-2.5076972e-08
-3.2932383e-07
-2.1909555e-08
-3.2110225e-07
-1.8316665e-08
-3.1467784e-07
-1.4187463e-08
-3.1040947e-07
-9.6185118e-09
-3.0848359e-07
-4.2335773e-09
-3.091702e-07
1.292057e-09
-3.1229608e-07
6.9212176e-09
-3.1681205e-07
9.5564965e-09
-3.2453912e-07
1.711789e-08
-3.2905802e-07
9.8450224e-09
-3.3251366e-07
8.0297404e-09
-3.3174819e-07
-1.5951844e-09
-3.2713464e-07
-9.8280858e-09
-3.1849034e-07
-1.8979612e-08
-3.0583916e-07
-2.7646912e-08
-2.8936703e-07
-3.6281108e-08
-2.6897288e-07
-4.4817182e-08
-2.4485493e-07
-5.3191521e-08
-2.1686953e-07
-6.1643646e-08
-1.851033e-07
-7.0112986e-08
-1.4934978e-07
-7.8862504e-08
-1.0944458e-07
-8.8134657e-08
-6.4937237e-08
-9.8263234e-08
-1.4999542e-08
-1.103553e-07
4.0325676e-08
-1.222952e-07
1.0063689e-07
-1.333833e-07
1.6587475e-07
-1.4431135e-07
2.3582464e-07
-1.5478337e-07
3.1039863e-07
-1.6505619e-07
3.8939292e-07
-1.7488515e-07
4.7256648e-07
-1.8418223e-07
5.5947306e-07
-1.9249162e-07
6.4950728e-07
-1.9945604e-07
7.4165336e-07
-2.0414861e-07
8.3400666e-07
-2.0465246e-07
9.2272739e-07
-1.9649321e-07
1.0068057e-06
-1.8607776e-07
1.0875437e-06
-1.786451e-07
1.1649471e-06
-1.7122037e-07
1.2392338e-06
-1.6443365e-07
1.304571e-06
-1.452666e-07
1.3634763e-06
-1.3107232e-07
1.4269349e-06
-1.4064698e-07
1.4976843e-06
-1.5670618e-07
1.5768383e-06
-1.7528089e-07
1.6649515e-06
-1.9528604e-07
1.7648989e-06
-2.2145307e-07
1.8828738e-06
-2.6166375e-07
2.032507e-06
-3.3231197e-07
2.2132734e-06
-4.0224536e-07
2.4228061e-06
-4.6561916e-07
2.6626339e-06
-5.338165e-07
2.9395574e-06
-6.1560307e-07
3.2594983e-06
-7.1303718e-07
3.6366156e-06
-8.3897219e-07
4.0833514e-06
-9.9711283e-07
4.6231491e-06
-1.2023551e-06
5.2681978e-06
-1.44182e-06
6.022418e-06
-1.6821334e-06
6.8400859e-06
-1.8330378e-06
7.6185716e-06
-1.7379388e-06
8.0777262e-06
-1.0237656e-06
7.9420628e-06
3.5080924e-07
7.2768807e-06
1.5247331e-06
6.2971941e-06
2.2402761e-06
5.1414196e-06
2.5881924e-06
4.0555489e-06
2.4457457e-06
3.0847518e-06
2.1335952e-06
2.4281919e-06
1.4769144e-06
1.9651238e-06
9.8235301e-07
8.6494724e-08
3.0550007e-06
-1.0715602e-06
3.472593e-06
-1.1904416e-06
3.7476032e-06
-7.1983814e-07
3.5434405e-06
5.2565449e-07
2.9670887e-06
1.5724402e-06
1.9261544e-06
2.7870172e-06
7.1820251e-07
3.2218001e-06
-4.4081465e-07
3.0343783e-06
-1.0699443e-06
1.5965122e-06
-1.2475802e-06
4.1240513e-07
-1.1054733e-06
-4.027664e-07
-9.2019919e-07
-5.0600461e-07
-7.5219768e-07
-4.4876386e-07
-6.4720941e-07
-2.8074612e-07
-5.7320812e-07
-1.953772e-07
-5.2684001e-07
-1.2362267e-07
-4.9079505e-07
-9.4884663e-08
-4.664064e-07
-6.4995456e-08
-4.4226932e-07
-6.3754769e-08
-4.2175743e-07
-5.4745917e-08
-4.0122539e-07
-5.4451344e-08
-3.8365233e-07
-4.6985386e-08
-3.6973544e-07
-3.700252e-08
-3.6175692e-07
-2.1442395e-08
-3.5726134e-07
-1.2132398e-08
-3.5682601e-07
-1.5318026e-09
-3.5990159e-07
7.8274015e-09
-3.6711317e-07
1.8678501e-08
-3.7835086e-07
2.9383785e-08
-3.9416576e-07
4.1450632e-08
-4.145125e-07
5.3498767e-08
-4.3966116e-07
6.6210091e-08
-4.6943343e-07
7.8535079e-08
-5.0350015e-07
8.9962677e-08
-5.4078886e-07
9.8597989e-08
-5.7908464e-07
1.012587e-07
-6.1676892e-07
9.9610523e-08
-6.542898e-07
9.9210698e-08
-6.9152011e-07
9.8455203e-08
9.653341e-08
-1.5136048e-06
-1.0173818e-07
-1.4754486e-06
-1.0098503e-07
-1.4375963e-06
-1.0018381e-07
-1.4000633e-06
-9.9339263e-08
-1.3628649e-06
-9.8456432e-08
-1.3260135e-06
-9.7538485e-08
-1.2895226e-06
-9.659012e-08
-1.2534047e-06
-9.5602782e-08
-1.2176744e-06
-9.4582798e-08
-1.1823431e-06
-9.352543e-08
-1.1474263e-06
-9.2433833e-08
-1.1129321e-06
-9.1312548e-08
-1.0788771e-06
-9.0157314e-08
-1.0452664e-06
-8.8979469e-08
-1.012119e-06
-8.7762653e-08
-9.7943793e-07
-8.6525525e-08
-9.4724599e-07
-8.5243299e-08
-9.1554523e-07
-8.3937992e-08
-8.8436314e-07
-8.2580661e-08
-8.5369859e-07
-8.1203396e-08
-8.2358702e-07
-7.9760898e-08
-7.940245e-07
-7.8296881e-08
-7.6505878e-07
-7.6743223e-08
-7.3668348e-07
-7.5164634e-08
-7.0896109e-07
-7.3469784e-08
-6.8188171e-07
-7.1745427e-08
-6.5553213e-07
-6.9856306e-08
-6.299009e-07
-6.7921304e-08
-6.0510332e-07
-6.5768245e-08
-5.8112275e-07
-6.3558973e-08
-5.581144e-07
-6.1057955e-08
-5.3606133e-07
-5.8466468e-08
-5.1517419e-07
-5.5475464e-08
-4.954371e-07
-5.2345584e-08
-4.7713459e-07
-4.8672203e-08
-4.6026273e-07
-4.4766992e-08
-4.4519746e-07
-4.0142241e-08
-4.3195817e-07
-3.5148849e-08
-4.2102298e-07
-2.9251855e-08
-4.1246474e-07
-2.27457e-08
-4.0683548e-07
-1.5247768e-08
-4.0430084e-07
-6.7682169e-09
-4.0531634e-07
2.3075533e-09
-4.0956525e-07
1.117013e-08
-4.1582856e-07
1.5819804e-08
-4.2621163e-07
2.7500959e-08
-4.3227314e-07
1.5906537e-08
-4.3669142e-07
1.2448016e-08
-4.3552106e-07
-2.7655461e-09
-4.291433e-07
-1.6205843e-08
-4.1742533e-07
-3.0697583e-08
-4.0032e-07
-4.4752243e-08
-3.7814733e-07
-5.8453773e-08
-3.5071075e-07
-7.2253763e-08
-3.1833317e-07
-8.5569102e-08
-2.8077329e-07
-9.9203527e-08
-2.3819015e-07
-1.1269613e-07
-1.9026929e-07
-1.2678336e-07
-1.3682526e-07
-1.415787e-07
-7.7222532e-08
-1.5786596e-07
-1.039722e-08
-1.7718061e-07
6.3600272e-08
-1.9629269e-07
1.4423036e-07
-2.1401339e-07
2.3142022e-07
-2.3150121e-07
3.2487703e-07
-2.4824019e-07
4.2448404e-07
-2.6466321e-07
5.2996381e-07
-2.8036492e-07
6.409984e-07
-2.9521682e-07
7.5698975e-07
-3.0848298e-07
8.7712161e-07
-3.195879e-07
1.0000559e-06
-3.2708294e-07
1.123233e-06
-3.2782953e-07
1.2416661e-06
-3.149263e-07
1.3539709e-06
-2.9838256e-07
1.4618707e-06
-2.8654492e-07
1.5653522e-06
-2.7470185e-07
1.6645342e-06
-2.6361562e-07
1.7513538e-06
-2.3208621e-07
1.8295556e-06
-2.0927407e-07
1.9141873e-06
-2.2527866e-07
2.0086262e-06
-2.5114504e-07
2.1142826e-06
-2.8093736e-07
2.2318091e-06
-3.1281236e-07
2.3650761e-06
-3.5472015e-07
2.5223086e-06
-4.1889591e-07
2.7212779e-06
-5.3128156e-07
2.9613772e-06
-6.4234471e-07
3.2397037e-06
-7.4394565e-07
3.558177e-06
-8.5228985e-07
3.9257827e-06
-9.8320882e-07
4.3500032e-06
-1.1372576e-06
4.8499584e-06
-1.3389276e-06
5.4414667e-06
-1.5886213e-06
6.1560395e-06
-1.9169274e-06
7.00868e-06
-2.294462e-06
8.0049447e-06
-2.6784084e-06
9.0824026e-06
-2.9104854e-06
1.0108699e-05
-2.7642344e-06
1.0721118e-05
-1.6361851e-06
1.0570216e-05
5.0171135e-07
9.7250217e-06
2.3699281e-06
8.4609808e-06
3.504317e-06
6.9484147e-06
4.1007585e-06
5.5185456e-06
3.8756148e-06
4.2251412e-06
3.4269996e-06
3.3494115e-06
2.352644e-06
2.7204315e-06
1.611333e-06
1.3421959e-07
3.9732804e-06
-1.5340621e-06
4.4805199e-06
-1.6976812e-06
4.8200415e-06
-1.0593597e-06
4.5639524e-06
7.8174361e-07
3.8416788e-06
2.2947138e-06
2.5351438e-06
4.0935522e-06
1.0028728e-06
4.7540712e-06
-4.8469403e-07
4.5219451e-06
-1.318175e-06
2.4299932e-06
-1.5684836e-06
6.6271373e-07
-1.4005076e-06
-5.7074237e-07
-1.1704899e-06
-7.3602231e-07
-9.5900048e-07
-6.6025344e-07
-8.2602586e-07
-4.1372065e-07
-7.3194448e-07
-2.8945856e-07
-6.7297498e-07
-1.8259225e-07
-6.2705277e-07
-1.4080684e-07
-5.9601088e-07
-9.6037345e-08
-5.6532468e-07
-9.4440976e-08
-5.3929604e-07
-8.0774563e-08
-5.1325633e-07
-8.0491046e-08
-4.9101596e-07
-6.9225765e-08
-4.7340258e-07
-5.46159e-08
-4.6334866e-07
-3.1496324e-08
-4.5774939e-07
-1.7731661e-08
-4.5734149e-07
-1.9396969e-09
-4.6141439e-07
1.190029e-08
-4.7076891e-07
2.8033027e-08
-4.8525542e-07
4.387029e-08
-5.0557609e-07
6.1771298e-08
-5.3166191e-07
7.958459e-08
-5.6385236e-07
9.8400534e-08
-6.0190657e-07
1.165893e-07
-6.4539774e-07
1.3345384e-07
-6.929542e-07
1.4615444e-07
-7.4178815e-07
1.5009265e-07
-7.8985713e-07
1.476795e-07
-8.3770587e-07
1.4705945e-07
-8.8517149e-07
1.4592081e-07
1.430672e-07
-1.9147798e-06
-1.507193e-07
-1.8661647e-06
-1.4960017e-07
-1.8179381e-06
-1.4841039e-07
-1.7701193e-06
-1.4715807e-07
-1.7227282e-06
-1.4584758e-07
-1.67578e-06
-1.4448661e-07
-1.6292929e-06
-1.4307725e-07
-1.5832817e-06
-1.4161394e-07
-1.537766e-06
-1.4009852e-07
-1.4927593e-06
-1.3853219e-07
-1.4482821e-06
-1.3691094e-07
-1.4043443e-06
-1.3525039e-07
-1.3609676e-06
-1.3353404e-07
-1.3181578e-06
-1.3178929e-07
-1.2759404e-06
-1.2998006e-07
-1.2343179e-06
-1.2814794e-07
-1.1933211e-06
-1.2624015e-07
-1.152951e-06
-1.2430812e-07
-1.1132444e-06
-1.2228717e-07
-1.0741983e-06
-1.2024956e-07
-1.0358602e-06
-1.1809902e-07
-9.982225e-07
-1.1593454e-07
-9.6134941e-07
-1.1361631e-07
-9.252293e-07
-1.1128474e-07
-8.8994627e-07
-1.0875282e-07
-8.554829e-07
-1.0620879e-07
-8.2195577e-07
-1.0338344e-07
-7.8934353e-07
-1.0053354e-07
-7.5780127e-07
-9.7310503e-08
-7.272986e-07
-9.4061643e-08
-6.9804473e-07
-9.0311821e-08
-6.7000524e-07
-8.6505955e-08
-6.4346389e-07
-8.2016809e-08
-6.1838296e-07
-7.7426521e-08
-5.9514546e-07
-7.1909702e-08
-5.7372237e-07
-6.6190079e-08
-5.5461992e-07
-5.9244689e-08
-5.378305e-07
-5.193827e-08
-5.2399958e-07
-4.3082766e-08
-5.1317623e-07
-3.3569058e-08
-5.0611223e-07
-2.2311762e-08
-5.0295873e-07
-9.921712e-09
-5.043617e-07
3.7105213e-09
-5.0987128e-07
1.6679713e-08
-5.181046e-07
2.4053117e-08
-5.3138416e-07
4.0780523e-08
-5.3908993e-07
2.3612309e-08
-5.4445651e-07
1.7814593e-08
-5.4275569e-07
-4.4663694e-09
-5.343871e-07
-2.4574428e-08
-5.1927193e-07
-4.5812759e-08
-4.9729125e-07
-6.6732916e-08
-4.6890509e-07
-8.6839936e-08
-4.3382717e-07
-1.0733168e-07
-3.9249915e-07
-1.2689712e-07
-3.445879e-07
-1.4711478e-07
-2.9032068e-07
-1.6696335e-07
-2.292755e-07
-1.8782854e-07
-1.6123711e-07
-2.0961708e-07
-8.5375261e-08
-2.3372781e-07
-3.8040619e-10
-2.6217547e-07
9.3684364e-08
-2.9035746e-07
1.9613664e-07
-3.1646566e-07
3.0688699e-07
-3.4225156e-07
4.2556006e-07
-3.6691326e-07
5.5200319e-07
-3.9110633e-07
6.8586477e-07
-4.1422651e-07
8.2673584e-07
-4.3608788e-07
9.7386237e-07
-4.5560952e-07
1.1262135e-06
-4.7193899e-07
1.2820834e-06
-4.8295286e-07
1.4382468e-06
-4.8399292e-07
1.5884647e-06
-4.6514423e-07
1.7310699e-06
-4.4098778e-07
1.8681151e-06
-4.2359009e-07
1.9995993e-06
-4.0618607e-07
2.1254563e-06
-3.8947258e-07
2.235062e-06
-3.4169192e-07
2.3337038e-06
-3.0791585e-07
2.4409863e-06
-3.325611e-07
2.5608335e-06
-3.7099224e-07
2.6948477e-06
-4.1495156e-07
2.8438251e-06
-4.6178965e-07
3.012712e-06
-5.2360713e-07
3.2117986e-06
-6.179822e-07
3.463162e-06
-7.8264517e-07
3.7661581e-06
-9.4534078e-07
4.1174769e-06
-1.0952645e-06
4.5192301e-06
-1.2540431e-06
4.9828461e-06
-1.4468248e-06
5.5173056e-06
-1.6717171e-06
6.1469194e-06
-1.9685417e-06
6.8910267e-06
-2.3327288e-06
7.7895415e-06
-2.8154421e-06
8.8605911e-06
-3.365513e-06
1.01102e-05
-3.9280264e-06
1.1459418e-05
-4.2596943e-06
1.2743967e-05
-4.0487829e-06
1.3521424e-05
-2.4136421e-06
1.3367692e-05
6.5544394e-07
1.2352137e-05
3.3854835e-06
1.0803833e-05
5.0526208e-06
8.9269273e-06
5.9776641e-06
7.1369572e-06
5.665585e-06
5.5033478e-06
5.060609e-06
4.3898981e-06
3.4660937e-06
3.5829667e-06
2.4182644e-06
2.0640777e-07
4.997498e-06
-2.0728003e-06
5.5932853e-06
-2.2934685e-06
5.9948025e-06
-1.4608769e-06
5.6860701e-06
1.090476e-06
4.8099584e-06
3.1708255e-06
3.2264161e-06
5.6770944e-06
1.3472361e-06
6.6332512e-06
-4.980436e-07
6.3672248e-06
-1.5657945e-06
3.4977441e-06
-1.9047866e-06
1.0017058e-06
-1.7149429e-06
-7.6058602e-07
-1.4392123e-06
-1.011753e-06
-1.1821407e-06
-9.17325e-07
-1.0192875e-06
-5.7657389e-07
-9.0374087e-07
-4.0500517e-07
-8.3118556e-07
-2.5514748e-07
-7.7466967e-07
-1.9732278e-07
-7.3644034e-07
-1.3426667e-07
-6.9875002e-07
-1.3213128e-07
-6.6680365e-07
-1.1272093e-07
-6.3489063e-07
-1.1240407e-07
-6.0767611e-07
-9.6440281e-08
-5.8613978e-07
-7.6152219e-08
-5.7389527e-07
-4.3740826e-08
-5.6716611e-07
-2.4460818e-08
-5.6685023e-07
-2.2555929e-09
-5.7206811e-07
1.7118183e-08
-5.8380425e-07
3.9769167e-08
-6.0186743e-07
6.1933482e-08
-6.2711762e-07
8.7021487e-08
-6.5946192e-07
1.119289e-07
-6.9930698e-07
1.3824559e-07
-7.4634075e-07
1.6362306e-07
-8.0002604e-07
1.8713913e-07
-8.5866928e-07
2.0479769e-07
-9.1887966e-07
2.1030304e-07
-9.7816573e-07
2.0696556e-07
-1.0371591e-06
2.0605286e-07
-1.0956751e-06
2.0443677e-07
2.0042666e-07
-2.3410807e-06
-2.110585e-07
-2.2811942e-06
-2.0948663e-07
-2.2217881e-06
-2.0781652e-07
-2.1628857e-06
-2.0606044e-07
-2.1045118e-06
-2.0422148e-07
-2.046685e-06
-2.0231344e-07
-1.9894278e-06
-2.0033443e-07
-1.9327582e-06
-1.9828353e-07
-1.8767007e-06
-1.9615606e-07
-1.8212713e-06
-1.9396153e-07
-1.7664961e-06
-1.9168619e-07
-1.7123865e-06
-1.8936001e-07
-1.6589698e-06
-1.8695071e-07
-1.6062531e-06
-1.8450603e-07
-1.554268e-06
-1.8196508e-07
-1.5030177e-06
-1.7939831e-07
-1.4525403e-06
-1.7671757e-07
-1.4028367e-06
-1.7401169e-07
-1.3539534e-06
-1.7117045e-07
-1.3058856e-06
-1.6831737e-07
-1.2586934e-06
-1.6529125e-07
-1.2123662e-06
-1.6226164e-07
-1.166985e-06
-1.5899754e-07
-1.1225337e-06
-1.5573606e-07
-1.0791184e-06
-1.5216812e-07
-1.0367153e-06
-1.486119e-07
-9.9547137e-07
-1.4462733e-07
-9.553567e-07
-1.4064821e-07
-9.1656713e-07
-1.3610007e-07
-8.7906017e-07
-1.315686e-07
-8.4310027e-07
-1.2627173e-07
-8.0863765e-07
-1.2096857e-07
-7.7603104e-07
-1.1462342e-07
-7.4522355e-07
-1.08234e-07
-7.1669947e-07
-1.0043378e-07
-6.9040818e-07
-9.2481374e-08
-6.6699003e-07
-8.2662837e-08
-6.4641499e-07
-7.2513313e-08
-6.2950092e-07
-5.999683e-08
-6.1627909e-07
-4.6790891e-08
-6.0770718e-07
-3.0883663e-08
-6.0392926e-07
-1.3699632e-08
-6.0578602e-07
5.5672842e-09
-6.1270769e-07
2.3601377e-08
-6.2315508e-07
3.4500509e-08
-6.3958746e-07
5.7212898e-08
-6.4903862e-07
3.3063474e-08
-6.5532731e-07
2.4103285e-08
-6.5295027e-07
-6.8434109e-09
-6.4234081e-07
-3.5183889e-08
-6.2347282e-07
-6.4680747e-08
-5.9616505e-07
-9.4040693e-08
-5.6101906e-07
-1.2198593e-07
-5.1765897e-07
-1.5069176e-07
-4.666498e-07
-1.779063e-07
-4.0756559e-07
-2.0619898e-07
-3.4070271e-07
-2.3382623e-07
-2.6552532e-07
-2.6300593e-07
-1.817839e-07
-2.933585e-07
-8.844047e-08
-3.2707124e-07
1.6064707e-08
-3.6668064e-07
1.3165297e-07
-4.0594572e-07
2.574963e-07
-4.4230899e-07
3.9348353e-07
-4.782388e-07
5.3915412e-07
-5.1258384e-07
6.9430666e-07
-5.4625887e-07
8.585231e-07
-5.7844295e-07
1.0312923e-06
-6.088571e-07
1.2116781e-06
-6.3599532e-07
1.39843e-06
-6.586909e-07
1.5894614e-06
-6.7398427e-07
1.7808333e-06
-6.7536475e-07
1.9650664e-06
-6.4937739e-07
2.1400939e-06
-6.1601526e-07
2.3083547e-06
-5.918509e-07
2.4698638e-06
-5.676951e-07
2.6242551e-06