/*--------------------------------*- C++ -*----------------------------------*\
| =========                 |                                                 |
| \\      /  F ield         | OpenFOAM: The Open Source CFD Toolbox           |
|  \\    /   O peration     | Version:  2.4.0                                 |
|   \\  /    A nd           | Web:      www.OpenFOAM.org                      |
|    \\/     M anipulation  |                                                 |
\*---------------------------------------------------------------------------*/
FoamFile
{
    version     2.0;
    format      ascii;
    class       volVectorField;
    location    "390";
    object      U;
}
// * * * * * * * * * * * * * * * * * * * * * * * * * * * * * * * * * * * * * //

dimensions      [0 1 -1 0 0 0 0];

internalField   nonuniform List<vector> 
19475
(
(0.0053373181 2.2956525e-05 1.2950212e-21)
(0.0039153913 1.9708368e-05 -1.2688411e-21)
(0.0066746348 -4.2306769e-05 1.0864178e-21)
(0.0052358645 -0.00016137709 -2.9906463e-20)
(0.0058254252 -0.00039535627 -8.4264744e-21)
(0.0033157001 -0.00038866635 1.618242e-20)
(0.0021348743 -0.00038690699 9.4751589e-21)
(-0.00063156615 0.00015259791 -3.3425444e-20)
(-0.0015685034 0.00051424886 -1.2235566e-20)
(-0.0023251638 0.00098024196 1.3731717e-20)
(-0.0019167526 0.0009666738 8.4481472e-21)
(-0.0016932659 0.0009781284 -2.1576366e-20)
(-0.0012519126 0.00079970218 3.369155e-21)
(-0.0011010999 0.00076223581 -1.5569544e-20)
(-0.00089907351 0.00066119175 1.1695851e-20)
(-0.00084366746 0.00065119231 -1.6470502e-20)
(-0.00074030294 0.00059248569 -5.1083459e-21)
(-0.00071357983 0.00058766152 2.3197247e-21)
(-0.00065165761 0.00054740337 -8.3199811e-21)
(-0.00062399382 0.00053123788 5.7597527e-21)
(-0.00057653292 0.00049389386 7.1812844e-21)
(-0.00054878372 0.00047023176 -5.6952286e-21)
(-0.00051258638 0.00043631258 -2.0051068e-21)
(-0.0004961122 0.00041760003 8.6361485e-22)
(-0.00047837784 0.00039805058 2.025454e-21)
(-0.0004716754 0.00038829125 4.617296e-22)
(-0.00046576895 0.00037956042 5.9147398e-22)
(-0.00046843342 0.0003781916 -1.9315229e-21)
(-0.00047374058 0.0003791915 -1.6083271e-21)
(-0.00048662384 0.00038647967 -1.0882809e-21)
(-0.00050360662 0.00039716636 1.1692231e-21)
(-0.00052749729 0.00041344426 2.5111482e-21)
(-0.00055611386 0.00043354882 9.7617169e-22)
(-0.00059078038 0.00045852346 1.3407851e-21)
(-0.00062924924 0.00048662992 -1.4729689e-21)
(-0.00067072011 0.0005173334 9.8128985e-22)
(-0.00071024534 0.00054614403 -1.5599029e-21)
(-0.0007488092 0.00057242296 -4.9643572e-23)
(-0.00078686744 0.00059612365 -2.1975698e-21)
(-0.00082377525 0.00061647757 3.38757e-22)
(-0.001732159 -3.0036214e-07 -8.3948464e-24)
(-0.0016900287 -3.0405566e-07 8.68835e-24)
(-0.0016481996 -3.0714734e-07 8.0568831e-25)
(-0.0016067329 -3.0984212e-07 -7.9207771e-24)
(-0.0015656032 -3.129771e-07 4.3936701e-24)
(-0.0015248755 -3.1553983e-07 -4.838847e-24)
(-0.0014844994 -3.187643e-07 7.1371804e-24)
(-0.0014445612 -3.2103843e-07 -1.8265286e-24)
(-0.0014049905 -3.2373477e-07 -3.5851044e-24)
(-0.001365906 -3.2559086e-07 1.1518763e-24)
(-0.0013272011 -3.280608e-07 4.6521814e-24)
(-0.0012890363 -3.3005897e-07 -5.3969132e-24)
(-0.0012512496 -3.32459e-07 4.7209854e-24)
(-0.0012140575 -3.3450542e-07 -5.1562304e-24)
(-0.001177226 -3.3652695e-07 2.6457889e-24)
(-0.0011410565 -3.3824588e-07 3.0223096e-24)
(-0.0011052199 -3.3978647e-07 4.903179e-24)
(-0.0010701326 -3.4103518e-07 -5.6148944e-24)
(-0.0010353395 -3.4228795e-07 -3.8628997e-24)
(-0.0010014044 -3.4312109e-07 4.9730683e-24)
(-0.00096770026 -3.4389802e-07 -1.0588727e-23)
(-0.00093499502 -3.4381664e-07 9.8574479e-24)
(-0.00090243591 -3.4403677e-07 -5.8466763e-24)
(-0.00087106781 -3.4308318e-07 5.0939323e-24)
(-0.00083973236 -3.4275866e-07 -5.9253265e-24)
(-0.00080983777 -3.4057872e-07 -4.0813633e-24)
(-0.00077982339 -3.3989483e-07 3.2318493e-24)
(-0.0007515937 -3.3669246e-07 -4.1329221e-24)
(-0.00072305123 -3.3619067e-07 1.0644676e-23)
(-0.00069674794 -3.3262552e-07 -6.4700805e-24)
(-0.00066986272 -3.3307193e-07 5.667857e-24)
(-0.00064581597 -3.2872706e-07 -9.7099868e-24)
(-0.00062084101 -3.2922347e-07 9.0883966e-25)
(-0.00059951353 -3.2301881e-07 3.3651236e-24)
(-0.00057681889 -3.2322602e-07 3.7778222e-24)
(-0.00055885825 -3.1446613e-07 -1.4409454e-23)
(-0.00053900058 -3.1504688e-07 8.4085108e-17)
(-0.00052530778 -3.041048e-07 8.4592297e-17)
(-0.00050907894 -3.0546951e-07 -4.2992512e-24)
(-0.00050084318 -2.9133133e-07 -6.3996292e-24)
(-0.00048936082 -2.9312836e-07 5.5845243e-24)
(-0.00048808521 -2.7506187e-07 1.016027e-24)
(-0.00048282815 -2.7809163e-07 -1.8475402e-24)
(-0.00049004034 -2.5770393e-07 -8.6798074e-17)
(-0.00049092229 -2.7057286e-07 -8.7311425e-17)
(-0.0005023254 -5.9918185e-06 -1.5636942e-20)
(-0.00051132092 -2.633681e-05 1.6226962e-19)
(-0.0005146564 -4.7390675e-05 7.3628342e-20)
(-0.00052089311 -6.8979057e-05 -4.7745243e-19)
(-0.00051331489 -8.8446164e-05 -7.9487719e-20)
(-0.00050782379 -0.00010756184 -5.3212669e-19)
(-0.00048961242 -0.00012275342 3.5587228e-20)
(-0.00047197517 -0.00013646576 -5.5543225e-21)
(-0.00044344949 -0.00014493299 1.9735378e-19)
(-0.00041389544 -0.00015061563 -1.5518632e-19)
(-0.00037496483 -0.00015000937 5.0591103e-19)
(-0.00033351279 -0.00014520908 -3.4478367e-19)
(-0.00028351383 -0.00013309528 -9.3734038e-20)
(-0.00022944999 -0.00011519446 -1.7227179e-19)
(-0.00016665438 -8.8601298e-05 9.7920737e-19)
(-9.7617063e-05 -5.3971119e-05 2.1443085e-19)
(-1.7256998e-05 -7.7489456e-06 -8.3687275e-19)
(7.0109697e-05 4.7647582e-05 -9.1886151e-19)
(0.00016788606 0.00011428939 -1.4691539e-19)
(0.00027318773 0.0001901096 7.0819145e-20)
(0.00038873677 0.00027668169 -9.8865404e-19)
(0.00051227807 0.00037203767 -6.6047852e-20)
(0.00064598853 0.00047727919 -1.7978725e-19)
(0.00078760375 0.00059013039 -1.1787546e-18)
(0.00093856433 0.0007110033 1.7896932e-19)
(0.0010959663 0.00083689405 9.6874387e-19)
(0.0012599765 0.00096700461 7.0255393e-19)
(0.0014243198 0.0010957583 -2.6317699e-19)
(0.0015820547 0.0012196729 -1.3037795e-19)
(0.0017360763 0.0013426361 -1.2093761e-19)
(0.00188811 0.0014663016 2.468612e-19)
(0.0020364108 0.0015896244 8.6769806e-19)
(0.0021848535 0.0017157447 -9.4330162e-19)
(0.0023113153 0.001827582 2.5295055e-19)
(0.0024431704 0.0019467527 2.6234764e-20)
(0.0025892985 0.0020809581 2.3871334e-19)
(0.0027524159 0.0022329367 1.4129372e-19)
(0.0029369886 0.002407082 -6.6261438e-20)
(0.0031416493 0.0026030045 3.3414123e-19)
(0.0033812594 0.002834016 -3.9986928e-20)
(0.003666135 0.0031074178 -6.9791775e-19)
(0.0040463157 0.0034518506 -1.6704211e-20)
(0.0044720139 0.0038139284 -4.5405421e-19)
(0.0049906989 0.0042285209 4.2264534e-19)
(0.0055588788 0.0046472411 3.4812728e-20)
(0.0062625648 0.0051302369 5.1641632e-20)
(0.0070331567 0.0056003109 -1.2014215e-19)
(0.0080227713 0.0061573889 7.2932459e-20)
(0.0091158659 0.0066702993 4.9010674e-20)
(0.010569675 0.0072782534 -2.2660967e-20)
(0.012142954 0.0077302376 1.286337e-19)
(0.014164362 0.0081558972 -9.5979534e-20)
(0.016022674 0.0080813417 -3.5343525e-19)
(0.017947523 0.0075793044 -4.2457817e-19)
(0.018155496 0.0060467089 -8.3429741e-20)
(0.017261617 0.0043315835 1.2615224e-19)
(0.014798667 0.0026445184 -1.5839359e-19)
(0.012640564 0.0014888402 -9.7214148e-20)
(0.0092838561 0.00063644694 -2.0586872e-20)
(0.0077753116 0.00024437691 -3.0547623e-20)
(0.0047787528 3.416813e-05 -1.8524442e-20)
(0.0050564001 -2.7593556e-05 -1.0623591e-20)
(0.0024348625 -1.0756537e-05 -1.8173324e-21)
(0.016148761 5.9858302e-05 1.4253353e-21)
(0.012384511 5.0897262e-05 3.6531539e-21)
(0.020189601 -0.00013523634 -3.9965305e-21)
(0.016032969 -0.00048722058 3.5141812e-20)
(0.017698875 -0.0011836723 5.0719954e-22)
(0.010342537 -0.0011771105 5.9606416e-20)
(0.0067690082 -0.0011768834 -2.4935764e-20)
(-0.0014985314 0.00041649168 4.7428741e-20)
(-0.0044711344 0.0015112136 3.700913e-20)
(-0.0068566981 0.0029206586 -3.248004e-20)
(-0.0057152123 0.002897964 -1.0150978e-20)
(-0.0050698534 0.0029380064 3.2683508e-21)
(-0.0037652982 0.0024106754 7.6257461e-20)
(-0.0033130032 0.0022981934 1.1709185e-20)
(-0.0027103737 0.0019972127 -3.185596e-20)
(-0.0025419931 0.0019661469 1.4664148e-20)
(-0.0022331244 0.0017909446 -8.2790536e-21)
(-0.0021514236 0.0017755689 -3.159212e-21)
(-0.0019664543 0.0016551675 -8.6772884e-21)
(-0.0018829235 0.0016060926 2.3967325e-21)
(-0.0017412519 0.0014941529 -3.3159003e-21)
(-0.0016580884 0.0014227576 2.7602856e-21)
(-0.0015501942 0.0013210091 3.2344391e-21)
(-0.0015008999 0.0012645485 6.8947728e-21)
(-0.0014482754 0.0012059052 -1.8323487e-21)
(-0.0014285548 0.0011765699 -2.420929e-21)
(-0.0014114777 0.0011505541 -3.3491402e-21)
(-0.0014200068 0.0011466217 1.6292615e-21)
(-0.0014366336 0.0011499635 7.0659123e-22)
(-0.0014759116 0.0011721929 3.6002523e-21)
(-0.0015275733 0.0012047376 -5.8805447e-21)
(-0.0015998715 0.00125408 -3.696697e-21)
(-0.0016863358 0.001314968 -7.0694864e-22)
(-0.0017908013 0.0013904506 -1.4315349e-21)
(-0.0019065506 0.0014753217 -4.2292771e-23)
(-0.0020311794 0.0015679132 4.6894255e-21)
(-0.0021500548 0.0016548453 3.6954032e-21)
(-0.0022660056 0.0017341258 1.5001989e-22)
(-0.002380407 0.0018055852 2.1650063e-21)
(-0.0024913655 0.0018669035 1.69375e-22)
(-0.0051748279 -1.2536892e-06 3.0793487e-24)
(-0.0050480316 -1.2454396e-06 -7.2496618e-24)
(-0.0049221499 -1.2366739e-06 9.1047112e-24)
(-0.0047973534 -1.2273887e-06 1.232787e-24)
(-0.0046735686 -1.2177168e-06 -8.0991749e-24)
(-0.0045509874 -1.2078837e-06 1.4370105e-23)
(-0.0044294732 -1.1976393e-06 -1.059844e-23)
(-0.0043092782 -1.1866107e-06 1.4085059e-24)
(-0.0041901963 -1.1754905e-06 1.9670159e-24)
(-0.0040725743 -1.1636937e-06 -1.0079202e-23)
(-0.0039560981 -1.1519413e-06 1.1242277e-23)
(-0.0038412373 -1.1394506e-06 2.205452e-24)
(-0.00372752 -1.1275279e-06 -5.7349244e-24)
(-0.0036155855 -1.1145447e-06 -5.8243304e-24)
(-0.0035047531 -1.1021003e-06 -1.1272942e-23)
(-0.0033959078 -1.0880018e-06 2.0512874e-23)
(-0.0032880868 -1.0748396e-06 1.4295935e-23)
(-0.0031825121 -1.0594988e-06 -3.0974026e-23)
(-0.0030778486 -1.0455238e-06 3.0872384e-23)
(-0.0029757549 -1.0286735e-06 -9.1992204e-24)
(-0.0028743942 -1.013616e-06 -1.4332821e-23)
(-0.0027760261 -9.9473177e-07 -1.1825677e-23)
(-0.0026781423 -9.7817669e-07 -4.7054731e-25)
(-0.002583818 -9.5698792e-07 2.6775029e-23)
(-0.0024896466 -9.3895662e-07 -1.9840608e-23)
(-0.0023997759 -9.1494775e-07 1.2486675e-23)
(-0.0023096119 -8.9489178e-07 -1.9942029e-23)
(-0.0022247617 -8.6743425e-07 2.220175e-23)
(-0.0021390433 -8.4575688e-07 -1.2272362e-23)
(-0.002059981 -8.1466151e-07 7.3254315e-24)
(-0.0019792677 -7.9099225e-07 2.4628582e-24)
(-0.0019070006 -7.5406756e-07 -1.2487744e-23)
(-0.0018320762 -7.2648703e-07 1.2991879e-23)
(-0.0017680079 -6.8085215e-07 -1.8134516e-25)
(-0.0017000013 -6.4730426e-07 5.0530436e-24)
(-0.001646081 -5.891782e-07 -2.3621692e-23)
(-0.0015866624 -5.471991e-07 1.597053e-23)
(-0.0015455819 -4.7248853e-07 5.1144363e-24)
(-0.0014971356 -4.1960753e-07 -2.3973645e-23)
(-0.0014724752 -3.2219669e-07 2.3621817e-23)
(-0.0014383694 -2.5504129e-07 1.636988e-23)
(-0.0014346313 -1.2820072e-07 -2.4229904e-23)
(-0.0014193 -4.8332229e-08 1.9099128e-23)
(-0.0014410582 8.8090526e-08 -2.7097907e-23)
(-0.0014444676 9.9851173e-08 -2.8791082e-23)
(-0.0014795052 -1.6801804e-05 4.0841099e-20)
(-0.0015068041 -7.7410833e-05 1.7782143e-20)
(-0.0015164758 -0.0001400603 8.5994482e-21)
(-0.001534289 -0.00020433243 5.7073675e-19)
(-0.0015109138 -0.00026224132 2.8513614e-19)
(-0.0014934159 -0.00031898315 1.3121415e-18)
(-0.0014379943 -0.00036396254 1.1598686e-18)
(-0.0013840252 -0.00040436846 -3.0156863e-19)
(-0.0012975514 -0.00042904418 -3.7522995e-19)
(-0.0012078026 -0.00044523556 8.2864566e-20)
(-0.0010900141 -0.00044255017 -2.6825903e-19)
(-0.00096453701 -0.00042716139 2.1519703e-19)
(-0.0008135035 -0.00038980189 -2.3962634e-19)
(-0.00065025284 -0.00033496779 -1.0648033e-19)
(-0.00046094048 -0.00025400583 -7.7924664e-19)
(-0.00025289983 -0.00014882991 1.8256273e-18)
(-1.1205356e-05 -8.8705446e-06 6.9319158e-19)
(0.00025136112 0.00015862662 4.5028402e-20)
(0.00054487009 0.00035984846 -4.7643422e-19)
(0.00086078688 0.0005886043 -5.5984038e-19)
(0.0012071311 0.00084958399 1.190104e-18)
(0.0015772235 0.0011369037 -2.1550957e-18)
(0.0019774989 0.001453818 4.8058917e-19)
(0.0024012466 0.0017935443 -2.3835303e-19)
(0.0028527257 0.0021572478 3.9047452e-19)
(0.0033234249 0.002535989 -8.898002e-19)
(0.003813753 0.0029272792 -2.5302245e-19)
(0.0043051503 0.0033145687 -5.7345494e-19)
(0.0047773387 0.0036876713 3.648485e-19)
(0.0052387544 0.0040580808 -7.9102309e-19)
(0.0056942825 0.0044306826 -4.3282111e-19)
(0.0061388564 0.0048024074 -7.759364e-19)
(0.0065822669 0.0051821054 3.8722147e-20)
(0.0069574402 0.0055172433 9.335554e-19)
(0.0073505036 0.0058754166 -3.6027233e-19)
(0.0077870983 0.0062793414 4.2053851e-19)
(0.008274704 0.0067368135 -2.6812035e-19)
(0.0088259402 0.0072607065 -1.308113e-18)
(0.0094369727 0.0078500811 2.4346362e-19)
(0.01015145 0.0085444007 1.4747556e-19)
(0.011000162 0.0093658048 1.2408113e-18)
(0.012128688 0.010397456 -2.1645524e-19)
(0.013393306 0.011482979 2.2260355e-19)
(0.014932712 0.012723553 -3.7424791e-20)
(0.016621269 0.013977905 -1.3330173e-19)
(0.018707847 0.015420304 -3.6080249e-19)
(0.020996226 0.016826248 5.0567259e-20)
(0.023927283 0.018485149 -6.5931853e-20)
(0.027170468 0.02001557 7.6398813e-20)
(0.031472149 0.021818135 7.9023246e-21)
(0.036141114 0.023162602 -1.5664896e-19)
(0.04211424 0.024409289 2.4583733e-19)
(0.047626956 0.024177632 9.498139e-20)
(0.053315795 0.022658703 5.1279324e-19)
(0.054073305 0.018122574 -2.6365342e-19)
(0.051617424 0.013029885 2.6507006e-19)
(0.044564281 0.008013218 -1.2389783e-19)
(0.038256271 0.0045424412 -3.5943585e-19)
(0.028422761 0.0019756295 -9.112966e-20)
(0.023850663 0.00077536618 8.5822286e-21)
(0.014998417 0.00012471075 2.9421197e-20)
(0.015641082 -7.0277155e-05 5.5534219e-21)
(0.0081276092 -3.5341286e-05 6.5990918e-21)
(0.027363416 8.5314339e-05 1.3346288e-21)
(0.021574055 7.135824e-05 -1.2513898e-21)
(0.034046204 -0.00023970474 -4.2789287e-22)
(0.027378558 -0.00082399463 -1.7689566e-20)
(0.029962199 -0.0019776969 5.1534542e-20)
(0.017922922 -0.0019977894 -3.9754718e-20)
(0.011850438 -0.0020069235 2.4747773e-20)
(-0.0019423109 0.00060529069 -1.008334e-19)
(-0.0071792843 0.0024593456 5.1130591e-20)
(-0.011338126 0.004839298 1.3272791e-21)
(-0.0095469248 0.0048376666 1.4266586e-20)
(-0.0084951159 0.0049151047 -1.7658217e-20)
(-0.0063350682 0.0040497143 -7.5819634e-20)
(-0.0055739944 0.0038617282 2.2881805e-20)
(-0.0045680736 0.00336334 3.4192868e-20)
(-0.0042816028 0.0033093606 -3.9187635e-21)
(-0.0037653672 0.0030184873 3.4376125e-21)
(-0.0036256988 0.0029910499 6.73639e-21)
(-0.0033165332 0.002790561 1.8551886e-20)
(-0.0031753267 0.0027073958 -9.8258826e-21)
(-0.0029384916 0.0025205117 -9.3993867e-21)
(-0.002798698 0.0024004221 -1.5744586e-21)
(-0.002618408 0.0022304838 3.7545311e-21)
(-0.0025355489 0.0021356155 -7.628316e-21)
(-0.0024478584 0.002037732 2.0024402e-22)
(-0.0024150624 0.0019886972 -2.8862642e-21)
(-0.0023871384 0.0019456526 2.5357228e-21)
(-0.0024020031 0.0019394941 1.5458441e-21)
(-0.0024307387 0.0019458188 7.82176e-23)
(-0.002497365 0.0019837439 1.7101611e-21)
(-0.0025849279 0.0020391404 -6.6727613e-22)
(-0.0027070063 0.0021226438 -6.1924469e-22)
(-0.0028528804 0.0022255683 -2.4952425e-21)
(-0.0030287833 0.0023528411 1.0285705e-22)
(-0.003223514 0.002495776 -5.7464077e-21)
(-0.0034329888 0.002651436 -4.2199942e-21)
(-0.0036329502 0.0027976352 -8.4325286e-22)
(-0.0038279454 0.0029309192 2.2341933e-22)
(-0.00402028 0.0030509498 3.0369267e-22)
(-0.0042068181 0.0031538677 -7.539726e-22)
(-0.0086461751 -3.5594739e-06 -1.3313221e-23)
(-0.0084329763 -3.5322526e-06 6.1165013e-24)
(-0.0082213253 -3.5032395e-06 -2.5636079e-24)
(-0.008011496 -3.4725115e-06 -4.7437728e-24)
(-0.007803371 -3.4411485e-06 2.5960727e-24)
(-0.0075972661 -3.4082959e-06 9.6055459e-24)
(-0.0073929665 -3.3750733e-06 -1.0755363e-23)
(-0.0071908843 -3.3397564e-06 8.6864544e-24)
(-0.0069906863 -3.3040382e-06 3.8755537e-24)
(-0.0067929372 -3.2661447e-06 -2.6723692e-24)
(-0.0065971259 -3.2281981e-06 -1.3914985e-23)
(-0.0064040192 -3.1885482e-06 1.7955458e-23)
(-0.0062128505 -3.1489534e-06 -1.9752671e-23)
(-0.0060246673 -3.1076704e-06 1.5907686e-23)
(-0.0058383635 -3.0663661e-06 -1.8366834e-23)
(-0.0056553861 -3.0229092e-06 1.6133425e-23)
(-0.0054741657 -2.9792879e-06 1.6370435e-23)
(-0.0052967005 -2.9328586e-06 -3.0387349e-23)
(-0.0051208109 -2.8868064e-06 2.2402003e-23)
(-0.0049492117 -2.837557e-06 -2.7352002e-23)
(-0.0047789048 -2.7886494e-06 3.1735507e-23)
(-0.0046135903 -2.7351619e-06 -2.5237235e-23)
(-0.0044491648 -2.6822739e-06 4.2006655e-24)
(-0.0042906672 -2.6235263e-06 2.6332575e-23)
(-0.0041325211 -2.565971e-06 -1.5268759e-23)
(-0.003981529 -2.5008376e-06 1.0544984e-23)
(-0.0038301635 -2.4371577e-06 -2.6033144e-23)
(-0.0036876237 -2.3630978e-06 2.4400666e-23)
(-0.0035437694 -2.2919733e-06 -3.3296252e-23)
(-0.0034109582 -2.2078693e-06 2.836693e-23)
(-0.0032755622 -2.1276011e-06 -2.6666365e-23)
(-0.0031541812 -2.0284699e-06 2.0445223e-23)
(-0.0030285818 -1.933576e-06 -1.8698007e-23)
(-0.0029209948 -1.8124568e-06 7.08737e-24)
(-0.0028071063 -1.6962565e-06 1.8171615e-23)
(-0.0027165859 -1.5434681e-06 -2.7361386e-23)
(-0.002617219 -1.3978639e-06 3.4760077e-23)
(-0.0025482703 -1.2022536e-06 -2.2992388e-23)
(-0.002467439 -1.0173626e-06 1.1226578e-23)
(-0.0024260701 -7.6191209e-07 -3.2619671e-24)
(-0.0023694405 -5.2658372e-07 -6.0086633e-24)
(-0.002363193 -1.9341494e-07 -1.6821634e-23)
(-0.0023381999 8.9990985e-08 1.8811819e-23)
(-0.0023747266 4.4273179e-07 2.1730092e-23)
(-0.0023815888 5.4540675e-07 -2.7820597e-23)
(-0.0024412975 -2.7188275e-05 -4.1776344e-20)
(-0.0024873868 -0.00012750666 -2.7923853e-19)
(-0.0025032536 -0.00023106485 -2.6643416e-20)
(-0.0025318651 -0.00033737324 -2.2102024e-19)
(-0.0024920311 -0.00043303642 -3.951376e-19)
(-0.0024613742 -0.00052655566 -8.5716005e-19)
(-0.0023676824 -0.00060043882 -9.89964e-20)
(-0.0022759476 -0.00066644323 1.08007e-18)
(-0.0021301079 -0.00070617329 -1.4145118e-19)
(-0.001978458 -0.00073149187 -1.6849624e-19)
(-0.0017800477 -0.00072525249 -8.9251255e-19)
(-0.0015685413 -0.00069756919 -6.0810233e-19)
(-0.0013143593 -0.00063313064 -1.0628289e-18)
(-0.0010395867 -0.00053929148 -4.6929832e-19)
(-0.00072126407 -0.00040172933 -4.781474e-19)
(-0.0003714326 -0.0002235196 -8.3242586e-19)
(3.4528757e-05 1.2738478e-05 -1.2671372e-18)
(0.00047543599 0.00029511148 -3.4670757e-20)
(0.00096799136 0.00063373692 1.7609493e-18)
(0.0014980538 0.001018439 5.0211078e-19)
(0.0020788781 0.0014568606 -6.2164077e-19)
(0.002699405 0.0019393277 2.1814547e-18)
(0.0033702553 0.0024710893 -1.7368827e-19)
(0.0040803235 0.0030409684 2.6388804e-20)
(0.0048365929 0.0036507391 -1.1223735e-18)
(0.0056250233 0.0042856369 9.8588807e-19)
(0.006446097 0.0049413368 -4.7789852e-19)
(0.0072690296 0.0055905247 -4.2562128e-19)
(0.0080605321 0.0062166012 -7.4806366e-19)
(0.0088344148 0.0068384092 8.3258281e-19)
(0.0095985488 0.0074640216 3.4655945e-20)
(0.010344676 0.0080885029 -1.2287145e-18)
(0.011086912 0.0087253117 4.112323e-20)
(0.011711527 0.0092848534 -1.0488976e-18)
(0.012368804 0.0098845444 -5.0492873e-19)
(0.013100261 0.010561651 -1.3921555e-18)
(0.013917433 0.01132861 1.2534202e-18)
(0.014840574 0.012206294 2.8254251e-19)
(0.015863782 0.013193624 -1.0125643e-18)
(0.017059153 0.014355432 8.6175843e-21)
(0.018478802 0.015729192 -5.0216329e-19)
(0.020360279 0.017448747 -3.8341634e-21)
(0.022470509 0.019260341 -4.241084e-19)
(0.025035689 0.021326046 -3.1450932e-19)
(0.02785278 0.023417562 2.3967399e-19)
(0.031325496 0.025813682 4.4360282e-19)
(0.035139371 0.028153538 -4.4495827e-19)
(0.040009883 0.030899987 2.1977932e-20)
(0.045408451 0.033440314 1.3850402e-20)
(0.052543802 0.036409916 1.5617545e-20)
(0.06030914 0.038633913 1.5676932e-19)
(0.07019133 0.040658157 -9.0256455e-20)
(0.079344183 0.040260079 -3.7313335e-19)
(0.088729236 0.037700823 -4.221644e-19)
(0.090170646 0.030245657 -2.1806745e-19)
(0.08633183 0.021837493 -5.4725975e-19)
(0.074983697 0.013541262 3.6761411e-19)
(0.064607573 0.0077324477 1.2625904e-19)
(0.048489378 0.0034282231 2.1964424e-19)
(0.040711485 0.0013742534 -8.209563e-21)
(0.026122383 0.00025042576 1.4284083e-20)
(0.026856542 -9.5382058e-05 1.7431438e-21)
(0.014702714 -6.2580536e-05 9.1281312e-21)
(0.039047964 9.8778053e-05 9.2476914e-22)
(0.031481333 8.0969145e-05 -2.1958611e-21)
(0.048231175 -0.00035700992 -6.1254214e-21)
(0.039315723 -0.0011710559 -1.0647888e-20)
(0.042613898 -0.0027767535 -2.0892486e-20)
(0.026101238 -0.0028513184 -1.1776544e-20)
(0.017403836 -0.002878398 -2.7370577e-20)
(-0.0019121075 0.00071341888 6.4073035e-20)
(-0.0096682142 0.0033534644 -1.5952496e-19)
(-0.015752151 0.0067312527 1.2087381e-20)
(-0.013407759 0.0067827766 -6.7134257e-21)
(-0.011965194 0.0069070787 2.8257285e-20)
(-0.0089618841 0.0057160276 3.8298032e-20)
(-0.0078835166 0.0054522754 -1.3718557e-20)
(-0.0064731368 0.0047595992 -1.9409022e-20)
(-0.0060625055 0.0046808237 1.2080274e-20)
(-0.0053378477 0.0042753971 2.4083438e-20)
(-0.005136642 0.004234304 1.7769157e-20)
(-0.0047025575 0.0039539272 -1.1330367e-20)
(-0.0045015988 0.0038354646 -1.55738e-21)
(-0.0041689088 0.0035733889 1.2105555e-20)
(-0.003971144 0.0034036574 1.2146364e-21)
(-0.0037179632 0.0031652658 -1.5202184e-21)
(-0.0036007272 0.003031356 -1.4388207e-21)
(-0.0034779076 0.0028941515 -1.7754636e-21)
(-0.0034319651 0.002825328 8.1215945e-21)
(-0.0033936089 0.0027655687 -2.0840362e-21)
(-0.0034152916 0.0027575646 -1.027449e-21)
(-0.0034570006 0.0027675696 -3.7332306e-22)
(-0.0035519531 0.0028219904 -2.4471843e-21)
(-0.0036767006 0.0029012834 3.605869e-21)
(-0.0038499584 0.0030200865 -2.5257159e-21)
(-0.0040568457 0.0031663393 3.8406043e-21)
(-0.0043058351 0.0033467082 -4.5271544e-22)
(-0.0045812625 0.0035490189 5.5242296e-21)
(-0.0048772482 0.0037689195 3.268308e-21)
(-0.0051600311 0.0039755212 -4.3831228e-21)
(-0.0054357257 0.0041637974 3.6132979e-21)
(-0.0057075665 0.0043331939 -7.2657853e-22)
(-0.0059712092 0.0044783099 -3.0736825e-22)
(-0.012141605 -7.3632854e-06 -9.2045204e-24)
(-0.01184027 -7.3084734e-06 8.2000947e-24)
(-0.011541136 -7.2499192e-06 8.9914956e-29)
(-0.011244577 -7.1880837e-06 -1.5430913e-23)
(-0.010950437 -7.124023e-06 1.365327e-23)
(-0.010659149 -7.0572562e-06 -5.5457998e-24)
(-0.010370429 -6.9891226e-06 8.6006101e-24)
(-0.010084841 -6.9172366e-06 -8.1926964e-24)
(-0.0098019338 -6.8437221e-06 6.3580092e-24)
(-0.0095224802 -6.7668042e-06 -2.2767856e-23)
(-0.0092457864 -6.6884244e-06 3.5801849e-23)
(-0.0089729006 -6.6073319e-06 -3.7892254e-23)
(-0.0087027815 -6.5251446e-06 4.731031e-24)
(-0.0084368627 -6.4404717e-06 1.9895304e-23)
(-0.0081736397 -6.3539283e-06 -6.9781577e-24)
(-0.0079150912 -6.2646052e-06 4.981834e-24)
(-0.0076590784 -6.1734969e-06 -2.4054056e-23)
(-0.0074083349 -6.0788542e-06 2.0241033e-23)
(-0.0071598853 -5.9823454e-06 2.0527003e-23)
(-0.0069174472 -5.882055e-06 -2.4449203e-23)
(-0.0066769243 -5.7795469e-06 7.1482903e-24)
(-0.0064433874 -5.6718253e-06 -5.440652e-26)
(-0.0062112211 -5.5610958e-06 -3.9035024e-24)
(-0.0059873366 -5.4439781e-06 5.2623951e-24)
(-0.0057640952 -5.3232577e-06 -7.2623031e-24)
(-0.0055508361 -5.19406e-06 2.3523507e-23)
(-0.0053372371 -5.0597747e-06 -2.5796266e-23)
(-0.0051359374 -4.9141184e-06 3.4954898e-24)
(-0.0049330166 -4.7626869e-06 -8.7516182e-26)
(-0.0047454715 -4.5967202e-06 -2.2077509e-24)
(-0.0045545798 -4.4230415e-06 2.4193665e-23)
(-0.0043831956 -4.2280325e-06 -2.6306408e-23)
(-0.0042062448 -4.0214181e-06 2.0365557e-23)
(-0.0040543596 -3.7844992e-06 -1.7102466e-23)
(-0.0038940743 -3.5309405e-06 -9.4993184e-26)
(-0.003766303 -3.2336034e-06 2.2878621e-23)
(-0.0036266664 -2.9150365e-06 -2.6989417e-23)
(-0.0035293515 -2.5345906e-06 2.2841248e-23)
(-0.0034160461 -2.1290028e-06 -2.5290358e-23)
(-0.0033576536 -1.6324427e-06 2.3284414e-23)
(-0.0032786884 -1.1164807e-06 5.5800685e-24)
(-0.0032698371 -4.6893252e-07 -9.8760473e-24)
(-0.0032356943 1.5423704e-07 5.852562e-24)
(-0.0032871441 8.3425083e-07 -2.5869381e-23)
(-0.0032985087 1.1088196e-06 -3.8887841e-23)
(-0.0033839342 -3.7063997e-05 2.0331537e-20)
(-0.0034492868 -0.00017640283 7.3749803e-20)
(-0.0034712036 -0.00032005126 9.6796418e-20)
(-0.0035096801 -0.00046759406 1.4603917e-19)
(-0.0034527225 -0.00060019048 2.5603105e-19)
(-0.0034076074 -0.0007294747 4.6099554e-19)
(-0.0032745764 -0.00083123824 -6.7629466e-19)
(-0.0031435265 -0.00092158175 -6.6471959e-19)
(-0.0029369015 -0.00097507509 8.2035791e-20)
(-0.002721575 -0.0010079924 3.4461622e-19)
(-0.0024408029 -0.00099660202 1.2183639e-19)
(-0.0021412478 -0.0009547947 2.086576e-19)
(-0.0017818553 -0.00086134023 -7.3539423e-19)
(-0.0013932411 -0.00072632376 8.8575637e-19)
(-0.00094347114 -0.00052984326 1.7956174e-18)
(-0.00044909014 -0.00027604345 -9.0052419e-19)
(0.00012396094 5.9129937e-05 2.4014511e-18)
(0.00074628469 0.00045916015 1.0810455e-18)
(0.0014410536 0.00093801305 -9.7739592e-19)
(0.0021886856 0.0014816281 1.1051525e-18)
(0.0030074962 0.002100468 6.102366e-19)
(0.0038821969 0.0027811684 -9.6330696e-19)
(0.0048274214 0.0035308304 4.3552517e-19)
(0.0058278074 0.0043339887 1.4594271e-18)
(0.0068928936 0.0051928858 2.1790254e-18)
(0.0080032421 0.0060870528 -1.1585207e-18)
(0.009159184 0.0070101848 1.120211e-18)
(0.010317851 0.0079244599 -5.0831054e-22)
(0.011433351 0.0088071692 -1.5545314e-19)
(0.012524594 0.0096842152 -3.1833515e-19)
(0.013602261 0.0105668 4.1542368e-19)
(0.014655137 0.011448316 8.1194801e-19)
(0.015699718 0.012345683 1.3376258e-19)
(0.01657417 0.013130314 1.2562917e-18)
(0.017498604 0.013973685 5.1133853e-19)
(0.01852923 0.014927199 -6.130551e-19)
(0.019680891 0.016007368 -4.4746236e-19)
(0.020980828 0.017242528 1.0423953e-18)
(0.022421738 0.018631882 8.4372829e-19)
(0.024103492 0.020264751 7.5372234e-19)
(0.026100714 0.022194395 4.1908221e-19)
(0.028738131 0.024601194 -1.2008026e-19)
(0.031699942 0.027140174 4.4277271e-19)
(0.035293908 0.030028456 -5.1462307e-19)
(0.039246657 0.032956951 -3.7179551e-19)
(0.044105497 0.036298641 -8.6445246e-20)
(0.049451244 0.039568138 8.4319451e-19)
(0.056254059 0.04338454 -2.7563646e-19)
(0.063811339 0.046923998 -7.0886098e-20)
(0.073757266 0.051028426 -1.256666e-20)
(0.08461552 0.054115961 6.1981625e-20)
(0.098347336 0.056870481 -8.2530456e-20)
(0.11112113 0.056296298 3.5098684e-19)
(0.12411568 0.052675717 4.8231747e-19)
(0.12639362 0.04239584 3.4327194e-19)
(0.12136083 0.030744838 -2.4330282e-19)
(0.10605258 0.019228678 -5.2779882e-19)
(0.091695526 0.011064113 -1.3146643e-19)
(0.069531337 0.0050000535 -2.3741186e-19)
(0.058383464 0.0020465582 -5.0853228e-20)
(0.038226656 0.00041418229 -1.2138649e-20)
(0.03872259 -0.00010009605 4.2027243e-22)
(0.022180866 -9.319518e-05 -1.6608434e-20)
(0.051230911 0.00010139247 -6.4220934e-22)
(0.042149609 8.0737334e-05 3.0829478e-21)
(0.062756961 -0.0004870542 9.7077548e-21)
(0.051871127 -0.0015288634 1.167521e-22)
(0.055671268 -0.0035819804 2.1201202e-20)
(0.034911504 -0.0037389627 6.6770297e-20)
(0.023462863 -0.0037930357 3.1874958e-21)
(-0.0013620126 0.00073831483 -4.172318e-20)
(-0.011906804 0.0041914799 -3.1044527e-21)
(-0.02008023 0.0085956675 -1.0957717e-20)
(-0.017289751 0.0087329769 -1.8463889e-20)
(-0.015475256 0.0089140966 -1.3431325e-20)
(-0.01164439 0.0074100975 -3.0525935e-20)
(-0.010240475 0.0070704875 -1.4937611e-20)
(-0.0084254746 0.0061867359 -3.5788034e-22)
(-0.0078843628 0.0060813048 1.5363028e-21)
(-0.0069506923 0.0055624638 -4.1579873e-20)
(-0.006684169 0.0055061184 -4.3415928e-21)
(-0.0061246959 0.0051460591 3.6942799e-21)
(-0.0058618491 0.0049910842 1.2539258e-20)
(-0.0054328115 0.0046535698 7.009722e-22)
(-0.0051757682 0.0044332436 6.7222643e-21)
(-0.004849387 0.0041261338 -3.0955457e-21)
(-0.0046970105 0.0039525421 5.3511015e-21)
(-0.004539122 0.0037759372 1.7679341e-21)
(-0.0044800231 0.003687241 -7.108514e-21)
(-0.0044317529 0.0036110938 -1.1476672e-21)
(-0.0044608006 0.003601641 -1.7639344e-21)
(-0.0045164349 0.0036160467 -3.1076157e-22)
(-0.0046407505 0.0036877888 -9.367098e-22)
(-0.0048040321 0.0037920532 3.5566447e-21)
(-0.0050299105 0.0039473269 1.6590485e-21)
(-0.0052994497 0.0041382327 -2.9988775e-21)
(-0.0056231801 0.0043730352 6.9058435e-22)
(-0.0059810064 0.0046360622 -1.4268222e-21)
(-0.0063651229 0.0049214022 -3.9045325e-21)
(-0.0067324252 0.005189568 -8.1345972e-23)
(-0.0070904342 0.0054338465 -4.9057647e-21)
(-0.0074433126 0.0056534218 -2.5485431e-21)
(-0.0077855414 0.0058413516 1.7101467e-21)
(-0.015656065 -1.2629791e-05 -1.2950984e-23)
(-0.015264874 -1.25358e-05 1.3070898e-23)
(-0.014876559 -1.2435678e-05 -4.5000457e-24)
(-0.014491587 -1.2330131e-05 -4.5877032e-24)
(-0.014109772 -1.2220459e-05 5.5284377e-24)
(-0.013731658 -1.2106378e-05 -4.6649875e-24)
(-0.013356898 -1.1988839e-05 7.9773553e-24)
(-0.012986199 -1.1865964e-05 5.7583922e-24)
(-0.012619007 -1.1739588e-05 -2.6271647e-23)
(-0.012256287 -1.1608057e-05 1.6764787e-23)
(-0.01189718 -1.147311e-05 -1.883399e-23)
(-0.011542998 -1.1334185e-05 6.1981701e-24)
(-0.011192447 -1.1191838e-05 1.7215931e-23)
(-0.010847322 -1.1046363e-05 -2.9195533e-24)
(-0.01050575 -1.0896714e-05 -1.654438e-23)
(-0.010170209 -1.074368e-05 6.4342598e-24)
(-0.0098380293 -1.058564e-05 1.7777573e-23)
(-0.0095126372 -1.0423859e-05 -1.9791811e-23)
(-0.0091903135 -1.0256673e-05 1.8017783e-23)
(-0.0088757211 -1.0085529e-05 -2.8589634e-23)
(-0.0085637336 -9.9074859e-06 1.8195172e-23)
(-0.0082607169 -9.7245051e-06 1.542043e-23)
(-0.0079596332 -9.532332e-06 -3.1928685e-26)
(-0.0076691673 -9.3341775e-06 -2.9315074e-23)
(-0.0073797346 -9.1243531e-06 1.8702653e-23)
(-0.0071030827 -8.9069565e-06 1.5837904e-23)
(-0.0068262448 -8.6732516e-06 -1.7824939e-23)
(-0.0065651354 -8.4288445e-06 1.01992e-23)
(-0.0063022472 -8.1636996e-06 -3.2076525e-24)
(-0.0060590038 -7.8855305e-06 -1.0929761e-23)
(-0.0058118362 -7.5796263e-06 -1.8358102e-23)
(-0.0055895807 -7.2533786e-06 -3.4383775e-24)
(-0.0053606386 -6.8881354e-06 1.9531426e-23)
(-0.0051636971 -6.492942e-06 -1.1234966e-23)
(-0.0049565409 -6.0442663e-06 1.9778304e-23)