/*--------------------------------*- C++ -*----------------------------------*\
  =========                 |
  \\      /  F ield         | OpenFOAM: The Open Source CFD Toolbox
   \\    /   O peration     | Website:  https://openfoam.org
    \\  /    A nd           | Version:  7
     \\/     M anipulation  |
\*---------------------------------------------------------------------------*/
FoamFile
{
    version     2.0;
    format      ascii;
    class       volSymmTensorField;
    location    "25000";
    object      R;
}
// * * * * * * * * * * * * * * * * * * * * * * * * * * * * * * * * * * * * * //

dimensions      [0 2 -2 0 0 0 0];

internalField   nonuniform List<symmTensor> 
32000
(
(9.63921e-12 -1.5253e-15 -4.15992e-33 9.63919e-12 3.33432e-36 9.6392e-12)
(9.8252e-12 -1.87879e-15 -1.16374e-30 9.8252e-12 -9.3373e-32 9.8252e-12)
(9.19811e-12 -1.75689e-15 -1.11063e-30 9.19829e-12 -6.65783e-31 9.1982e-12)
(7.97242e-12 -1.18925e-15 -4.35876e-31 7.97278e-12 -8.05033e-31 7.9726e-12)
(6.54946e-12 -4.4648e-16 -1.63449e-31 6.54973e-12 -1.40383e-31 6.54959e-12)
(5.41865e-12 5.28163e-17 -2.46891e-32 5.41859e-12 -1.87737e-31 5.41862e-12)
(4.73477e-12 2.03373e-16 1.13202e-35 4.73443e-12 -2.19151e-31 4.7346e-12)
(4.44235e-12 1.77378e-16 3.42457e-34 4.44191e-12 -1.43493e-36 4.44213e-12)
(4.37369e-12 1.23635e-16 -2.80997e-32 4.37326e-12 -1.84667e-31 4.37347e-12)
(4.34001e-12 8.06558e-17 -6.46016e-32 4.33963e-12 -1.86121e-31 4.33982e-12)
(4.30071e-12 5.4053e-17 -9.10181e-33 4.30038e-12 -6.87665e-33 4.30055e-12)
(4.26983e-12 3.67701e-17 2.63075e-33 4.26955e-12 3.26212e-33 4.26969e-12)
(4.25114e-12 2.62737e-17 -7.34502e-33 4.2509e-12 -1.04488e-32 4.25102e-12)
(4.24063e-12 1.96638e-17 9.46777e-31 4.24041e-12 1.12976e-30 4.24052e-12)
(4.23432e-12 1.57183e-17 9.7818e-31 4.23412e-12 1.1458e-30 4.23422e-12)
(4.23083e-12 1.34937e-17 3.36739e-33 4.23065e-12 -6.98023e-33 4.23074e-12)
(4.22937e-12 1.26502e-17 -1.96362e-31 4.22921e-12 -3.01638e-31 4.22929e-12)
(4.22777e-12 1.27642e-17 -2.23979e-31 4.22762e-12 -3.15553e-31 4.22769e-12)
(4.22693e-12 1.31635e-17 -1.08088e-31 4.22679e-12 -1.49799e-31 4.22686e-12)
(4.22668e-12 1.36333e-17 -1.23949e-31 4.22655e-12 -1.69687e-31 4.22661e-12)
(4.22691e-12 1.42931e-17 -2.53102e-33 4.22677e-12 4.72421e-33 4.22684e-12)
(4.22757e-12 1.51923e-17 -8.58305e-36 4.22743e-12 8.29252e-37 4.2275e-12)
(4.22864e-12 1.63909e-17 3.36662e-33 4.2285e-12 5.24707e-33 4.22857e-12)
(4.23006e-12 1.79731e-17 3.45247e-33 4.22991e-12 5.46849e-33 4.22999e-12)
(4.23083e-12 1.99228e-17 -1.75892e-32 4.23067e-12 -2.17814e-32 4.23075e-12)
(4.23309e-12 2.22725e-17 -8.42577e-33 4.23292e-12 -1.14645e-32 4.23301e-12)
(4.23627e-12 2.48761e-17 -1.28377e-32 4.23609e-12 -1.79746e-32 4.23618e-12)
(4.24014e-12 2.78878e-17 2.44575e-34 4.23993e-12 -1.1404e-35 4.24003e-12)
(4.24471e-12 3.17104e-17 -4.36673e-33 4.24448e-12 -6.64851e-33 4.24459e-12)
(4.25006e-12 3.65074e-17 3.66908e-33 4.24981e-12 7.02243e-33 4.24993e-12)
(4.25622e-12 4.23793e-17 4.84309e-33 4.25596e-12 7.34975e-33 4.25609e-12)
(4.26321e-12 4.93988e-17 -4.38204e-33 4.26293e-12 -7.81507e-33 4.26307e-12)
(4.27099e-12 5.75783e-17 -1.11651e-32 4.2707e-12 -1.59593e-32 4.27085e-12)
(4.27948e-12 6.68421e-17 1.82554e-32 4.27918e-12 -1.05282e-33 4.27933e-12)
(4.28853e-12 7.70865e-17 -2.19268e-31 4.28823e-12 -4.99893e-31 4.28838e-12)
(4.29805e-12 8.81876e-17 -2.5345e-31 4.29775e-12 -5.63404e-31 4.2979e-12)
(4.30808e-12 1.0002e-16 -2.19388e-31 4.30779e-12 -5.38927e-31 4.30793e-12)
(4.31852e-12 1.1145e-16 -1.84682e-30 4.31824e-12 -3.98962e-30 4.31838e-12)
(4.32893e-12 1.21612e-16 -1.61148e-30 4.32867e-12 -3.74339e-30 4.3288e-12)
(4.3388e-12 1.2964e-16 1.55782e-30 4.33857e-12 4.1631e-30 4.33869e-12)
(4.34772e-12 1.35659e-16 1.45094e-30 4.34752e-12 4.48687e-30 4.34762e-12)
(4.35506e-12 1.38162e-16 -2.54483e-33 4.3549e-12 -7.41598e-33 4.35498e-12)
(4.361e-12 1.40664e-16 1.08426e-30 4.36087e-12 4.96233e-30 4.36093e-12)
(4.36561e-12 1.3918e-16 8.53335e-31 4.36552e-12 5.18902e-30 4.36557e-12)
(4.37145e-12 1.47228e-16 6.41843e-32 4.37138e-12 4.3086e-33 4.37141e-12)
(4.38014e-12 1.48176e-16 7.21286e-32 4.3801e-12 -1.80214e-30 4.38012e-12)
(4.4018e-12 1.94349e-16 6.25403e-32 4.4018e-12 -1.76057e-30 4.4018e-12)
(4.44812e-12 2.70714e-16 -6.48145e-32 4.44812e-12 3.44646e-33 4.44812e-12)
(4.50219e-12 3.289e-16 -1.66333e-38 4.50219e-12 -2.51642e-36 4.50219e-12)
(4.55717e-12 3.9222e-16 3.47183e-38 4.55717e-12 2.54614e-36 4.55717e-12)
(4.6143e-12 4.47275e-16 -4.53448e-38 4.6143e-12 -1.04322e-36 4.6143e-12)
(4.67187e-12 5.01997e-16 4.57982e-38 4.67187e-12 -2.89273e-30 4.67187e-12)
(4.73021e-12 5.51652e-16 -5.50232e-38 4.73021e-12 -2.95054e-30 4.73021e-12)
(4.78856e-12 5.99495e-16 7.51382e-38 4.78856e-12 1.09419e-36 4.78856e-12)
(4.84705e-12 6.43888e-16 -1.94524e-38 4.84705e-12 8.97749e-40 4.84705e-12)
(4.90537e-12 6.86279e-16 7.48626e-32 4.90537e-12 -3.30478e-33 4.90537e-12)
(4.96355e-12 7.26142e-16 5.92599e-31 4.96355e-12 -2.10589e-30 4.96355e-12)
(5.02148e-12 7.64159e-16 4.27413e-31 5.02148e-12 -2.12905e-30 5.02148e-12)
(5.07915e-12 8.00192e-16 -4.02916e-31 5.07915e-12 1.10604e-30 5.07915e-12)
(5.13649e-12 8.34584e-16 -3.3891e-31 5.13649e-12 -5.75872e-30 5.13649e-12)
(5.19348e-12 8.67328e-16 -6.59741e-31 5.19348e-12 -1.18017e-29 5.19348e-12)
(5.25009e-12 8.98588e-16 -5.54503e-31 5.25009e-12 -4.89292e-30 5.25009e-12)
(5.30627e-12 9.28393e-16 8.65912e-32 5.30627e-12 -3.29927e-33 5.30627e-12)
(5.36198e-12 9.56824e-16 -1.16336e-38 5.36198e-12 1.14156e-38 5.36198e-12)
(5.41717e-12 9.839e-16 -2.17878e-38 5.41717e-12 -7.10654e-37 5.41717e-12)
(5.47179e-12 1.00966e-15 8.53233e-38 5.47179e-12 1.48178e-36 5.47179e-12)
(5.52579e-12 1.03411e-15 4.95591e-32 5.52579e-12 -1.64119e-33 5.52579e-12)
(5.57911e-12 1.05727e-15 4.7732e-31 5.57911e-12 -1.38987e-30 5.57911e-12)
(5.63169e-12 1.07914e-15 7.68785e-31 5.63169e-12 -1.58789e-29 5.63169e-12)
(5.68349e-12 1.09973e-15 2.87234e-31 5.68349e-12 -1.48556e-29 5.68349e-12)
(5.73445e-12 1.11903e-15 -5.33384e-32 5.73445e-12 1.60624e-33 5.73445e-12)
(5.78453e-12 1.13704e-15 7.97458e-40 5.78453e-12 -7.64001e-42 5.78453e-12)
(5.83368e-12 1.15376e-15 4.05913e-38 5.83368e-12 8.91764e-37 5.83368e-12)
(5.88185e-12 1.16919e-15 -7.24675e-38 5.88185e-12 -8.98258e-37 5.88185e-12)
(5.929e-12 1.18331e-15 1.58972e-38 5.929e-12 1.39285e-36 5.929e-12)
(5.9751e-12 1.19611e-15 -6.2763e-32 5.9751e-12 1.50985e-33 5.9751e-12)
(6.02012e-12 1.20761e-15 -4.93246e-31 6.02012e-12 1.75184e-30 6.02012e-12)
(6.064e-12 1.21779e-15 -3.68929e-31 6.064e-12 1.78506e-30 6.064e-12)
(6.10663e-12 1.22662e-15 6.53402e-32 6.10663e-12 -1.44272e-33 6.10663e-12)
(6.14789e-12 1.2341e-15 -5.93724e-38 6.14789e-12 2.06493e-36 6.14789e-12)
(6.18771e-12 1.24022e-15 7.09267e-32 6.18771e-12 -1.35259e-33 6.18771e-12)
(6.22606e-12 1.24498e-15 5.14766e-31 6.22606e-12 -1.97557e-30 6.22606e-12)
(6.2629e-12 1.2484e-15 3.71687e-31 6.2629e-12 -2.01192e-30 6.2629e-12)
(6.29819e-12 1.25047e-15 -7.34904e-32 6.29819e-12 1.25199e-33 6.29819e-12)
(6.3319e-12 1.25121e-15 4.08132e-38 6.3319e-12 -1.93798e-29 6.3319e-12)
(6.36401e-12 1.25064e-15 5.26427e-40 6.36401e-12 -1.98157e-29 6.36401e-12)
(6.3945e-12 1.24878e-15 1.93998e-38 6.3945e-12 -2.86136e-37 6.3945e-12)
(6.42335e-12 1.24565e-15 -4.14016e-38 6.42335e-12 3.17759e-37 6.42335e-12)
(6.45055e-12 1.24128e-15 1.10051e-38 6.45055e-12 -1.4051e-29 6.45055e-12)
(6.47611e-12 1.2357e-15 5.88579e-39 6.47611e-12 -1.43376e-29 6.47611e-12)
(6.5e-12 1.22895e-15 8.7783e-32 6.5e-12 -7.92281e-34 6.5e-12)
(6.52225e-12 1.22106e-15 5.23492e-31 6.52225e-12 -2.43466e-30 6.52225e-12)
(6.54287e-12 1.21208e-15 3.42551e-31 6.54287e-12 -2.47441e-30 6.54287e-12)
(6.56185e-12 1.20204e-15 -8.99917e-32 6.56185e-12 6.31589e-34 6.56185e-12)
(6.57923e-12 1.19099e-15 6.16373e-39 6.57923e-12 -3.71031e-41 6.57923e-12)
(6.59503e-12 1.17898e-15 9.58562e-32 6.59503e-12 -3.84607e-34 6.59503e-12)
(6.60924e-12 1.16605e-15 5.11928e-31 6.60924e-12 -2.65357e-30 6.60924e-12)
(6.62191e-12 1.15224e-15 3.13367e-31 6.62191e-12 -2.694e-30 6.62191e-12)
(6.63304e-12 1.13759e-15 -9.77768e-32 6.63304e-12 1.96321e-34 6.63304e-12)
(6.64267e-12 1.12217e-15 1.89176e-52 6.64267e-12 -7.16468e-38 6.64267e-12)
(6.6508e-12 1.10601e-15 -4.68772e-56 6.6508e-12 -1.77539e-41 6.6508e-12)
(6.65747e-12 1.08915e-15 -1.0487e-31 6.65747e-12 -2.10515e-34 6.65747e-12)
(6.66271e-12 1.07166e-15 -4.87235e-31 6.66271e-12 2.89684e-30 6.66271e-12)
(6.66651e-12 1.05356e-15 -2.69501e-31 6.66651e-12 -6.05124e-30 6.66651e-12)
(6.66893e-12 1.0349e-15 1.06367e-31 6.66893e-12 -9.10184e-30 6.66893e-12)
(6.67e-12 1.01574e-15 1.10248e-31 6.67e-12 6.63057e-34 6.67e-12)
(6.66967e-12 9.96112e-16 3.53705e-31 6.66967e-12 -3.04188e-30 6.66967e-12)
(6.66807e-12 9.76073e-16 -2.23399e-31 6.66807e-12 -3.49549e-33 6.66807e-12)
(6.66518e-12 9.55666e-16 -3.39567e-31 6.66518e-12 3.11805e-30 6.66518e-12)
(6.66105e-12 9.3494e-16 1.12734e-31 6.66105e-12 1.01754e-33 6.66105e-12)
(6.65571e-12 9.13938e-16 -3.81032e-38 6.65571e-12 4.43218e-37 6.65571e-12)
(6.64919e-12 8.92706e-16 -5.02969e-40 6.64919e-12 -1.3274e-36 6.64919e-12)
(6.64155e-12 8.71281e-16 1.11354e-38 6.64155e-12 -9.11517e-37 6.64155e-12)
(6.6328e-12 8.49713e-16 4.13607e-38 6.6328e-12 1.83103e-36 6.6328e-12)
(6.62299e-12 8.28043e-16 -5.2574e-38 6.62299e-12 -2.2973e-36 6.62299e-12)
(6.61215e-12 8.06303e-16 3.26773e-38 6.61215e-12 1.37608e-36 6.61215e-12)
(6.60033e-12 7.84533e-16 2.38402e-39 6.60033e-12 9.42819e-37 6.60033e-12)
(6.58753e-12 7.62772e-16 -5.22463e-38 6.58753e-12 1.87978e-36 6.58753e-12)
(6.57381e-12 7.4105e-16 1.53972e-38 6.57381e-12 -9.30152e-37 6.57381e-12)
(6.5592e-12 7.19398e-16 -1.25195e-31 6.5592e-12 -2.51402e-33 6.5592e-12)
(6.54371e-12 6.97852e-16 -3.73818e-31 6.54371e-12 3.4393e-30 6.54371e-12)
(6.52739e-12 6.76433e-16 1.11397e-32 6.52739e-12 3.4832e-30 6.52739e-12)
(6.51025e-12 6.55172e-16 4.85411e-31 6.51025e-12 -3.47825e-30 6.51025e-12)
(6.49231e-12 6.34095e-16 9.90816e-32 6.49231e-12 -3.52233e-30 6.49231e-12)
(6.47359e-12 6.13222e-16 -2.55578e-31 6.47359e-12 -6.28142e-33 6.47359e-12)
(6.45409e-12 5.9257e-16 -3.39927e-31 6.45409e-12 3.53654e-30 6.45409e-12)
(6.43381e-12 5.72168e-16 1.85307e-31 6.43381e-12 3.58525e-30 6.43381e-12)
(6.41275e-12 5.52027e-16 7.82241e-31 6.41275e-12 -7.13715e-30 6.41275e-12)
(6.39091e-12 5.32165e-16 1.19435e-31 6.39091e-12 -7.22442e-30 6.39091e-12)
(6.36827e-12 5.1261e-16 -3.91309e-31 6.36827e-12 -1.15205e-32 6.36827e-12)
(6.34481e-12 4.93369e-16 -3.07603e-31 6.34481e-12 2.58266e-29 6.34481e-12)
(6.32054e-12 4.74476e-16 -3.7752e-32 6.32054e-12 2.5917e-29 6.32054e-12)
(6.29544e-12 4.55934e-16 1.31143e-31 6.29544e-12 4.20734e-33 6.29544e-12)
(6.26949e-12 4.37786e-16 1.49479e-38 6.26949e-12 -2.05368e-36 6.26949e-12)
(6.24267e-12 4.20021e-16 -2.53682e-34 6.24267e-12 -6.86268e-36 6.24267e-12)
(6.21496e-12 4.02699e-16 -1.43153e-31 6.21496e-12 1.12433e-29 6.21496e-12)
(6.1863e-12 3.8578e-16 -1.36796e-31 6.1863e-12 1.13002e-29 6.1863e-12)
(6.15666e-12 3.69367e-16 -1.34357e-31 6.15666e-12 -5.1223e-33 6.15666e-12)
(6.12591e-12 3.53371e-16 -1.34561e-31 6.12591e-12 -7.61791e-30 6.12591e-12)
(6.09403e-12 3.37959e-16 1.32852e-31 6.09403e-12 -7.6253e-30 6.09403e-12)
(6.06079e-12 3.22955e-16 1.33174e-31 6.06079e-12 5.34453e-33 6.06079e-12)
(6.02615e-12 3.0867e-16 -3.02591e-38 6.02615e-12 -4.15383e-36 6.02615e-12)
(5.98972e-12 2.9475e-16 1.46455e-37 5.98972e-12 -1.76384e-38 5.98972e-12)
(5.95153e-12 2.81769e-16 1.01983e-37 5.95153e-12 2.26556e-29 5.95153e-12)
(5.91089e-12 2.6906e-16 -1.18535e-37 5.91089e-12 2.25896e-29 5.91089e-12)
(5.86799e-12 2.57664e-16 -9.81022e-38 5.86799e-12 -1.026e-35 5.86799e-12)
(5.8217e-12 2.46356e-16 -1.16214e-39 5.8217e-12 6.09443e-36 5.8217e-12)
(5.77256e-12 2.36994e-16 4.91082e-38 5.77256e-12 1.12304e-29 5.77256e-12)
(5.71883e-12 2.2737e-16 2.21039e-38 5.71883e-12 1.11643e-29 5.71883e-12)
(5.66176e-12 2.20717e-16 -2.08456e-38 5.66176e-12 -4.10633e-36 5.66176e-12)
(5.59915e-12 2.13191e-16 9.20701e-38 5.59915e-12 1.00194e-35 5.59915e-12)
(5.53275e-12 2.09947e-16 -1.40829e-37 5.53275e-12 5.96652e-36 5.53275e-12)
(5.46005e-12 2.04659e-16 -1.79145e-35 5.46005e-12 -2.17953e-29 5.46005e-12)
(5.37706e-12 2.01711e-16 1.38353e-31 5.37706e-12 -2.15303e-29 5.37706e-12)
(5.34641e-12 2.00956e-16 1.34222e-33 5.34646e-12 -3.17923e-32 5.34643e-12)
(5.3632e-12 1.97376e-16 3.25541e-33 5.36329e-12 -3.22027e-32 5.36325e-12)
(5.40599e-12 1.93493e-16 -7.23644e-33 5.40613e-12 4.74997e-32 5.40606e-12)
(5.4624e-12 1.82869e-16 -1.11822e-33 5.46256e-12 -7.05955e-35 5.46248e-12)
(5.52631e-12 1.6966e-16 1.00648e-31 5.52651e-12 3.6308e-32 5.52641e-12)
(5.5959e-12 1.51689e-16 -1.66685e-30 5.59612e-12 5.8409e-30 5.59601e-12)
(5.66959e-12 1.31742e-16 2.66955e-30 5.66981e-12 -7.13614e-30 5.6697e-12)
(5.74799e-12 1.09345e-16 4.97945e-30 5.74821e-12 -1.22451e-29 5.7481e-12)
(5.83066e-12 8.64963e-17 -1.74585e-31 5.83087e-12 -9.20824e-32 5.83077e-12)
(5.91885e-12 6.32042e-17 2.63239e-30 5.91903e-12 -5.44875e-30 5.91894e-12)
(6.01618e-12 4.07854e-17 5.92255e-30 6.01632e-12 -1.04201e-29 6.01625e-12)
(6.12804e-12 1.92072e-17 1.11261e-29 6.12812e-12 -1.7904e-29 6.12808e-12)
(6.25006e-12 -1.06951e-18 8.11738e-30 6.25006e-12 -1.23867e-29 6.25006e-12)
(6.37856e-12 -1.99885e-17 2.83915e-32 6.37846e-12 -4.18683e-32 6.37851e-12)
(6.51179e-12 -3.79835e-17 -3.29397e-33 6.51158e-12 -1.84682e-34 6.51169e-12)
(6.64814e-12 -5.53378e-17 5.92368e-32 6.6478e-12 -8.13241e-32 6.64797e-12)
(6.78477e-12 -7.27567e-17 -8.79113e-32 6.78429e-12 1.18036e-31 6.78453e-12)
(6.91872e-12 -9.06154e-17 -8.48113e-32 6.91808e-12 3.62714e-32 6.9184e-12)
(7.04427e-12 -1.09821e-16 -1.06366e-30 7.04346e-12 1.48281e-30 7.04387e-12)
(7.14922e-12 -1.30147e-16 -9.30737e-31 7.14824e-12 1.48913e-30 7.14873e-12)
(7.22684e-12 -1.49995e-16 -8.5004e-32 7.2257e-12 1.85547e-31 7.22627e-12)
(7.28271e-12 -1.67123e-16 -5.70807e-32 7.28142e-12 7.16461e-32 7.28207e-12)
(7.33552e-12 -1.80991e-16 -4.99999e-32 7.33408e-12 -1.86434e-33 7.3348e-12)
(7.38907e-12 -1.93498e-16 -8.67109e-31 7.38747e-12 1.36273e-30 7.38827e-12)
(7.44701e-12 -2.03503e-16 -6.60228e-31 7.44525e-12 1.24067e-30 7.44613e-12)
(7.51636e-12 -2.11727e-16 4.4508e-32 7.51444e-12 1.43136e-33 7.5154e-12)
(7.60512e-12 -2.18022e-16 1.031e-33 7.60301e-12 2.74557e-35 7.60407e-12)
(7.7229e-12 -2.23454e-16 -4.65319e-32 7.72057e-12 5.61452e-32 7.72173e-12)
(7.89323e-12 -2.28157e-16 3.33778e-32 7.89064e-12 6.79629e-34 7.89193e-12)
(8.16055e-12 -2.3838e-16 -1.64113e-30 8.15759e-12 2.01069e-30 8.15907e-12)
(8.53134e-12 -2.69982e-16 -3.19668e-30 8.52786e-12 3.74908e-30 8.5296e-12)
(9.00754e-12 -3.35097e-16 -3.05137e-30 9.00339e-12 3.52674e-30 9.00546e-12)
(9.61838e-12 -4.53391e-16 -1.58677e-30 9.61336e-12 1.83874e-30 9.61586e-12)
(1.04168e-11 -6.60022e-16 -5.8897e-32 1.04106e-11 -2.91897e-34 1.04137e-11)
(1.14656e-11 -1.02191e-15 1.40044e-30 1.14578e-11 -1.82976e-30 1.14617e-11)
(1.28524e-11 -1.65995e-15 2.61229e-30 1.28424e-11 -3.61877e-30 1.28474e-11)
(1.45928e-11 -2.79939e-15 2.29408e-30 1.45798e-11 -3.32058e-30 1.45863e-11)
(1.65413e-11 -4.70544e-15 8.24283e-31 1.65251e-11 -1.33172e-30 1.65332e-11)
(1.79893e-11 -7.39912e-15 2.89071e-30 1.7971e-11 1.63721e-30 1.79801e-11)
(1.7576e-11 -9.3385e-15 3.50939e-30 1.75605e-11 8.20562e-31 1.75683e-11)
(1.59089e-11 -8.82379e-15 -1.22003e-30 1.58996e-11 4.77992e-30 1.59042e-11)
(1.37556e-11 -6.64338e-15 -7.80883e-31 1.37514e-11 5.08256e-30 1.37535e-11)
(1.17474e-11 -4.33396e-15 -1.95729e-34 1.1746e-11 3.45477e-33 1.17467e-11)
(1.02286e-11 -2.66039e-15 1.26436e-32 1.02283e-11 4.93002e-34 1.02285e-11)
(9.32667e-12 -1.72175e-15 1.07653e-30 9.32666e-12 -5.14853e-31 9.32667e-12)
(9.15525e-12 -1.33105e-15 8.13859e-31 9.15528e-12 -2.53894e-31 9.15527e-12)
(1.78099e-10 -1.75673e-13 7.26449e-31 1.78097e-10 -5.81998e-34 1.78098e-10)
(1.84182e-10 -2.14629e-13 1.22472e-28 1.84183e-10 -2.23453e-29 1.84183e-10)
(1.63668e-10 -1.90697e-13 3.38184e-28 1.63687e-10 5.13738e-30 1.63677e-10)
(1.23598e-10 -1.14525e-13 1.73206e-28 1.23631e-10 2.73042e-29 1.23615e-10)
(7.70979e-11 -3.51325e-14 6.17724e-30 7.71168e-11 -2.49689e-29 7.71073e-11)
(4.01366e-11 5.5952e-16 -1.14216e-29 4.01347e-11 -4.24595e-29 4.01357e-11)
(1.77523e-11 4.11316e-15 -9.16558e-30 1.77452e-11 -2.08817e-29 1.77487e-11)
(8.14306e-12 1.8631e-15 2.67848e-30 8.13841e-12 5.61148e-30 8.14074e-12)
(5.86106e-12 9.68472e-16 2.69273e-31 5.85771e-12 1.58844e-30 5.85939e-12)
(4.74393e-12 5.19822e-16 4.02474e-31 4.74152e-12 1.15996e-30 4.74273e-12)
(3.44693e-12 2.5653e-16 1.47422e-30 3.44539e-12 1.98947e-30 3.44616e-12)
(2.42481e-12 1.24209e-16 -3.92652e-33 2.42386e-12 -1.42009e-32 2.42433e-12)
(1.8029e-12 6.64663e-17 4.84265e-32 1.80228e-12 -5.55708e-34 1.80259e-12)
(1.45001e-12 4.02374e-17 -1.54992e-30 1.44956e-12 -2.39105e-30 1.44979e-12)
(1.23594e-12 2.75333e-17 2.67818e-31 1.2356e-12 -1.04297e-32 1.23577e-12)
(1.11425e-12 2.16202e-17 1.06658e-30 1.11397e-12 1.3133e-30 1.11411e-12)
(1.06031e-12 1.98901e-17 -1.4005e-30 1.06006e-12 -1.52179e-30 1.06019e-12)
(1.00515e-12 1.90383e-17 -8.03068e-31 1.00493e-12 -8.91539e-31 1.00504e-12)
(9.7788e-13 1.90898e-17 -4.0256e-31 9.7768e-13 -4.67736e-31 9.7778e-13)
(9.70402e-13 1.96137e-17 -4.01261e-31 9.70211e-13 -4.73737e-31 9.70307e-13)
(9.78762e-13 2.07222e-17 1.0033e-32 9.78572e-13 -7.37364e-33 9.78667e-13)
(1.00118e-12 2.25025e-17 2.03196e-35 1.00099e-12 -1.53941e-36 1.00109e-12)
(1.03701e-12 2.50957e-17 -4.67996e-33 1.0368e-12 -7.59965e-33 1.03691e-12)
(1.08444e-12 2.86297e-17 1.37364e-32 1.08421e-12 1.70484e-32 1.08433e-12)
(1.11046e-12 3.14509e-17 4.47523e-32 1.11022e-12 5.96083e-32 1.11034e-12)
(1.18498e-12 3.71978e-17 1.34374e-32 1.1847e-12 1.81703e-32 1.18484e-12)
(1.28846e-12 4.50943e-17 -9.53287e-31 1.28811e-12 -1.23575e-30 1.28829e-12)
(1.41211e-12 5.53346e-17 -1.0769e-30 1.41169e-12 -1.40565e-30 1.4119e-12)
(1.55778e-12 6.93275e-17 -2.22956e-32 1.55728e-12 -2.80643e-32 1.55753e-12)
(1.72847e-12 8.84615e-17 6.48328e-32 1.72787e-12 8.10588e-32 1.72817e-12)
(1.92572e-12 1.14294e-16 2.81474e-32 1.925e-12 3.82589e-32 1.92536e-12)
(2.14985e-12 1.48589e-16 -3.64776e-32 2.14901e-12 -4.50038e-32 2.14943e-12)
(2.39962e-12 1.93148e-16 3.61434e-32 2.39864e-12 5.07328e-32 2.39913e-12)
(2.67185e-12 2.49477e-16 -4.44062e-32 2.67074e-12 1.0133e-31 2.67129e-12)
(2.96231e-12 3.18792e-16 -2.81335e-30 2.96107e-12 -3.97144e-30 2.96169e-12)
(3.26869e-12 4.02198e-16 -2.94245e-30 3.26735e-12 -4.66655e-30 3.26802e-12)
(3.59341e-12 5.01084e-16 -3.36904e-30 3.59198e-12 -5.27e-30 3.59269e-12)
(3.93298e-12 6.1076e-16 3.72591e-30 3.9315e-12 1.17712e-29 3.93224e-12)
(4.27181e-12 7.23812e-16 8.68986e-30 4.27031e-12 2.11972e-29 4.27106e-12)
(4.59325e-12 8.30277e-16 -6.94806e-30 4.59181e-12 -2.54495e-29 4.59253e-12)
(4.88362e-12 9.24981e-16 -8.27743e-30 4.8823e-12 -2.87466e-29 4.88296e-12)
(5.12248e-12 9.91264e-16 4.65826e-30 5.12133e-12 1.70721e-29 5.12191e-12)
(5.31534e-12 1.0502e-15 -1.26333e-30 5.31439e-12 -1.6251e-29 5.31487e-12)
(5.46506e-12 1.07537e-15 -5.23772e-30 5.46433e-12 -3.68916e-29 5.46469e-12)
(5.65496e-12 1.17745e-15 -6.07763e-30 5.65444e-12 -4.12402e-29 5.6547e-12)
(5.94341e-12 1.25952e-15 -5.70681e-30 5.94312e-12 -7.45077e-29 5.94327e-12)
(6.68152e-12 1.82954e-15 -4.78278e-31 6.68141e-12 -3.4264e-29 6.68147e-12)
(8.22544e-12 3.05403e-15 1.13051e-30 8.22536e-12 -6.01303e-32 8.2254e-12)
(9.99844e-12 4.43459e-15 -9.58375e-37 9.99836e-12 3.6895e-29 9.9984e-12)
(1.17977e-11 6.12975e-15 2.01068e-36 1.17976e-11 1.3079e-28 1.17977e-11)
(1.36674e-11 7.97289e-15 -9.45142e-31 1.36673e-11 1.01358e-28 1.36673e-11)
(1.55513e-11 1.00259e-14 -8.00153e-30 1.55512e-11 5.46882e-29 1.55513e-11)
(1.74603e-11 1.21921e-14 -7.22537e-30 1.74602e-11 1.26836e-28 1.74603e-11)
(1.93697e-11 1.44918e-14 1.3494e-30 1.93696e-11 7.30952e-29 1.93697e-11)
(2.12839e-11 1.68718e-14 0 2.12838e-11 4.37079e-35 2.12839e-11)
(2.31922e-11 1.93364e-14 -3.34973e-30 2.31921e-11 -1.77561e-28 2.31921e-11)
(2.50964e-11 2.18559e-14 -1.84583e-29 2.50963e-11 -2.32163e-28 2.50963e-11)
(2.69918e-11 2.44279e-14 -1.06193e-29 2.69917e-11 -4.12119e-29 2.69917e-11)
(2.88789e-11 2.70343e-14 1.12166e-29 2.88788e-11 7.92263e-29 2.88789e-11)
(3.07552e-11 2.96698e-14 -3.80543e-29 3.07552e-11 4.42943e-28 3.07552e-11)
(3.26205e-11 3.23223e-14 -6.53709e-29 3.26204e-11 6.85806e-28 3.26205e-11)
(3.44728e-11 3.49846e-14 -1.96688e-29 3.44728e-11 3.23392e-28 3.44728e-11)
(3.63114e-11 3.76474e-14 5.93764e-33 3.63113e-11 -2.21722e-34 3.63113e-11)
(3.81344e-11 4.03025e-14 -1.60627e-36 3.81343e-11 1.62254e-28 3.81343e-11)
(3.99405e-11 4.29413e-14 9.13125e-43 3.99404e-11 1.72919e-28 3.99405e-11)
(4.17279e-11 4.55558e-14 9.52314e-37 4.17278e-11 3.6612e-35 4.17279e-11)
(4.34948e-11 4.81375e-14 -3.68994e-30 4.34948e-11 1.22133e-31 4.34948e-11)
(4.52396e-11 5.06784e-14 -3.67682e-29 4.52395e-11 -1.42006e-28 4.52395e-11)
(4.69604e-11 5.31708e-14 -1.59641e-28 4.69603e-11 3.15125e-28 4.69603e-11)
(4.86554e-11 5.56071e-14 -1.14082e-28 4.86553e-11 4.88993e-28 4.86553e-11)
(5.0323e-11 5.79804e-14 1.76729e-29 5.0323e-11 4.82001e-28 5.0323e-11)
(5.19618e-11 6.02833e-14 -8.41327e-45 5.19617e-11 5.88848e-31 5.19617e-11)
(5.357e-11 6.25095e-14 2.96631e-46 5.35699e-11 -1.06477e-27 5.35699e-11)
(5.51461e-11 6.46527e-14 1.44732e-36 5.51461e-11 -5.58128e-28 5.51461e-11)
(5.66891e-11 6.6707e-14 7.95067e-36 5.66891e-11 -2.92187e-28 5.66891e-11)
(5.81977e-11 6.86672e-14 5.78046e-30 5.81977e-11 -3.05771e-28 5.81977e-11)
(5.96709e-11 7.05282e-14 3.0123e-29 5.96709e-11 2.20197e-28 5.96709e-11)
(6.11069e-11 7.22846e-14 1.86011e-29 6.11069e-11 8.93064e-28 6.11069e-11)
(6.2502e-11 7.39292e-14 -6.31282e-30 6.2502e-11 6.91023e-28 6.2502e-11)
(6.3852e-11 7.54542e-14 2.13118e-35 6.3852e-11 1.70147e-34 6.3852e-11)
(6.51551e-11 7.6856e-14 -7.06063e-30 6.51551e-11 -3.71784e-28 6.51551e-11)
(6.641e-11 7.81304e-14 -3.40445e-29 6.641e-11 -6.53436e-28 6.641e-11)
(6.76153e-11 7.92754e-14 -1.97719e-29 6.76154e-11 -2.77436e-28 6.76153e-11)
(6.877e-11 8.02887e-14 -1.59314e-29 6.877e-11 2.48294e-31 6.877e-11)
(6.98733e-11 8.11686e-14 -1.94078e-28 6.98734e-11 1.21159e-27 6.98733e-11)
(7.0924e-11 8.19142e-14 -1.47191e-28 7.0924e-11 1.24881e-27 7.0924e-11)
(7.1922e-11 8.25258e-14 2.50125e-29 7.1922e-11 -3.51429e-31 7.1922e-11)
(7.2866e-11 8.30033e-14 -1.77267e-29 7.2866e-11 2.13575e-31 7.2866e-11)
(7.3756e-11 8.33483e-14 -1.34529e-28 7.3756e-11 4.27177e-28 7.3756e-11)
(7.4592e-11 8.35619e-14 -9.84949e-29 7.4592e-11 4.3781e-28 7.4592e-11)
(7.5374e-11 8.36468e-14 9.01718e-30 7.5374e-11 1.0165e-27 7.5374e-11)
(7.6102e-11 8.36059e-14 -3.85517e-29 7.6102e-11 6.81527e-28 7.6102e-11)
(7.67766e-11 8.34416e-14 -1.88321e-29 7.67767e-11 -3.702e-28 7.67767e-11)
(7.73979e-11 8.31585e-14 1.00257e-29 7.73981e-11 -7.03417e-32 7.7398e-11)
(7.79666e-11 8.276e-14 4.00332e-49 7.79667e-11 -7.58078e-35 7.79667e-11)
(7.84833e-11 8.225e-14 -1.0779e-29 7.84834e-11 4.32874e-32 7.84833e-11)
(7.89486e-11 8.16336e-14 -3.90417e-29 7.89487e-11 1.79621e-28 7.89487e-11)
(7.93633e-11 8.09149e-14 -1.69025e-29 7.93634e-11 1.83083e-28 7.93633e-11)
(7.97273e-11 8.00987e-14 1.11028e-29 7.97274e-11 -2.22844e-32 7.97273e-11)
(8.00426e-11 7.91895e-14 -4.50655e-37 8.00427e-11 -2.93451e-37 8.00427e-11)
(8.03086e-11 7.81929e-14 9.66614e-38 8.03087e-11 -7.28803e-41 8.03087e-11)
(8.05273e-11 7.71133e-14 1.19839e-29 8.05274e-11 2.40564e-32 8.05273e-11)
(8.06979e-11 7.59558e-14 2.61417e-29 8.06981e-11 -1.99012e-28 8.0698e-11)
(8.08226e-11 7.47255e-14 -5.08683e-29 8.08227e-11 4.14884e-28 8.08227e-11)
(8.09019e-11 7.34276e-14 -5.13436e-29 8.09021e-11 6.25166e-28 8.0902e-11)
(8.09359e-11 7.20671e-14 -2.99754e-31 8.09361e-11 -1.41768e-32 8.0936e-11)
(8.09266e-11 7.06494e-14 -2.43032e-29 8.09267e-11 -4.70171e-28 8.09267e-11)
(8.08739e-11 6.91799e-14 2.55728e-29 8.08741e-11 7.06319e-31 8.0874e-11)
(8.07793e-11 6.76635e-14 2.33179e-29 8.07794e-11 4.80564e-28 8.07793e-11)
(8.06439e-11 6.61061e-14 -1.29003e-29 8.06441e-11 -1.16648e-31 8.0644e-11)
(8.04693e-11 6.45125e-14 4.50425e-36 8.04694e-11 -7.07758e-28 8.04693e-11)
(8.02559e-11 6.28882e-14 -6.32086e-36 8.02561e-11 -7.13211e-28 8.0256e-11)
(8.00059e-11 6.12379e-14 1.78378e-36 8.00061e-11 1.59105e-34 8.0006e-11)
(7.97199e-11 5.95666e-14 -1.85258e-36 7.97201e-11 -7.23785e-28 7.972e-11)
(7.93986e-11 5.78788e-14 -2.2314e-36 7.93987e-11 -1.45604e-27 7.93987e-11)
(7.90439e-11 5.61789e-14 5.89415e-36 7.90441e-11 -7.31781e-28 7.9044e-11)
(7.86573e-11 5.44714e-14 1.93546e-36 7.86574e-11 1.46911e-27 7.86573e-11)
(7.82386e-11 5.27602e-14 7.46649e-36 7.82387e-11 1.47428e-27 7.82387e-11)
(7.77893e-11 5.1049e-14 -7.6753e-36 7.77894e-11 6.41007e-35 7.77893e-11)
(7.73113e-11 4.93415e-14 1.39336e-29 7.73114e-11 2.79718e-31 7.73113e-11)
(7.68046e-11 4.76413e-14 3.04437e-29 7.68047e-11 5.15556e-28 7.68047e-11)
(7.62706e-11 4.59515e-14 -1.18207e-29 7.62707e-11 -9.7627e-28 7.62707e-11)
(7.57093e-11 4.42749e-14 -4.31068e-29 7.57094e-11 -2.00953e-27 7.57093e-11)
(7.51226e-11 4.26143e-14 -9.94871e-31 7.51227e-11 -5.16506e-28 7.51227e-11)
(7.45099e-11 4.0972e-14 2.77974e-29 7.45101e-11 7.49281e-28 7.451e-11)
(7.38719e-11 3.93503e-14 2.76452e-29 7.38721e-11 1.26483e-27 7.3872e-11)
(7.32079e-11 3.77509e-14 -2.86242e-29 7.32081e-11 2.00731e-27 7.3208e-11)
(7.25193e-11 3.61759e-14 -6.68119e-29 7.25194e-11 1.94547e-27 7.25193e-11)
(7.18046e-11 3.46268e-14 3.34843e-30 7.18047e-11 4.57267e-28 7.18047e-11)
(7.10633e-11 3.31058e-14 6.90662e-29 7.10634e-11 2.05149e-30 7.10633e-11)
(7.02959e-11 3.16137e-14 9.69737e-29 7.02961e-11 -1.6187e-27 7.0296e-11)
(6.95019e-11 3.01532e-14 1.21462e-29 6.95021e-11 -1.61604e-27 6.9502e-11)
(6.86799e-11 2.87248e-14 -4.05544e-29 6.86801e-11 -1.30162e-30 6.868e-11)
(6.78313e-11 2.73314e-14 3.63656e-36 6.78314e-11 -6.63897e-34 6.78313e-11)
(6.69533e-11 2.59726e-14 1.35454e-29 6.69534e-11 4.75916e-31 6.69533e-11)
(6.60467e-11 2.46522e-14 2.20758e-29 6.60468e-11 4.20271e-29 6.60468e-11)
(6.51088e-11 2.3368e-14 -4.98825e-30 6.51089e-11 3.96169e-29 6.51089e-11)
(6.4139e-11 2.21257e-14 -1.3079e-29 6.4139e-11 -4.85518e-31 6.4139e-11)
(6.3133e-11 2.09194e-14 6.20739e-36 6.3133e-11 1.14572e-27 6.3133e-11)
(6.20898e-11 1.97593e-14 -6.92878e-36 6.20898e-11 1.13327e-27 6.20898e-11)
(6.10018e-11 1.86335e-14 -1.59975e-45 6.10019e-11 -6.42007e-47 6.10019e-11)
(5.98685e-11 1.75597e-14 7.9972e-46 5.98686e-11 6.01586e-34 5.98685e-11)
(5.86764e-11 1.65162e-14 2.49467e-29 5.86765e-11 -1.33211e-27 5.86765e-11)
(5.74268e-11 1.55341e-14 4.64999e-29 5.74268e-11 -1.23222e-27 5.74268e-11)
(5.6097e-11 1.45743e-14 -3.23575e-30 5.6097e-11 6.95051e-29 5.6097e-11)
(5.46933e-11 1.36922e-14 -2.33447e-29 5.46934e-11 -1.05377e-30 5.46933e-11)
(5.31784e-11 1.28178e-14 1.1555e-29 5.31785e-11 5.45224e-31 5.31785e-11)
(5.15705e-11 1.20481e-14 1.97888e-29 5.15706e-11 -5.66471e-28 5.15705e-11)
(4.98123e-11 1.12623e-14 -2.84469e-30 4.98123e-11 -5.52315e-28 4.98123e-11)
(4.79449e-11 1.06222e-14 -1.04537e-29 4.79449e-11 -5.13723e-31 4.79449e-11)
(4.58963e-11 9.93006e-15 8.49103e-36 4.58963e-11 1.24366e-34 4.58963e-11)
(4.37237e-11 9.42713e-15 -1.94935e-29 4.37237e-11 -1.01699e-30 4.37237e-11)
(4.13421e-11 8.81041e-15 -3.09851e-29 4.13421e-11 9.31495e-28 4.13421e-11)
(3.86051e-11 8.25036e-15 -1.28873e-31 3.86053e-11 8.78187e-28 3.86052e-11)
(3.75797e-11 8.05748e-15 -3.27108e-29 3.75815e-11 9.08531e-28 3.75806e-11)
(3.81282e-11 8.00159e-15 -9.98411e-29 3.81318e-11 9.09898e-28 3.813e-11)
(3.95327e-11 8.05535e-15 3.49081e-31 3.95381e-11 -1.96072e-30 3.95354e-11)
(4.13832e-11 7.86887e-15 5.04261e-31 4.13905e-11 -2.12485e-30 4.13869e-11)
(4.34808e-11 7.55565e-15 3.32013e-31 4.34897e-11 -1.32338e-30 4.34853e-11)
(4.57638e-11 6.98898e-15 6.88426e-29 4.5774e-11 -2.70994e-28 4.57689e-11)
(4.81814e-11 6.26652e-15 -1.56349e-28 4.81924e-11 3.35833e-28 4.81869e-11)
(5.07537e-11 5.35309e-15 -2.49083e-28 5.0765e-11 6.06487e-28 5.07593e-11)
(5.34666e-11 4.33411e-15 1.72199e-29 5.34774e-11 5.25163e-30 5.3472e-11)
(5.63609e-11 3.20672e-15 -1.57236e-28 5.63703e-11 3.01828e-28 5.63656e-11)
(5.95564e-11 2.03996e-15 -3.42838e-28 5.95637e-11 5.74544e-28 5.95601e-11)
(6.32291e-11 8.28974e-16 -6.55175e-28 6.32329e-11 1.04231e-27 6.3231e-11)
(6.72339e-11 -4.05418e-16 -4.72273e-28 6.72328e-11 7.58073e-28 6.72333e-11)
(7.1449e-11 -1.65489e-15 1.52585e-29 7.14416e-11 3.6443e-30 7.14453e-11)
(7.5819e-11 -2.93756e-15 1.83993e-31 7.58037e-11 1.05079e-32 7.58113e-11)
(8.02898e-11 -4.26412e-15 -3.86769e-30 8.02649e-11 5.57045e-30 8.02773e-11)
(8.47688e-11 -5.67336e-15 6.21256e-30 8.47325e-11 -8.4793e-30 8.47507e-11)
(8.9158e-11 -7.1857e-15 2.0296e-30 8.91087e-11 6.42486e-30 8.91333e-11)
(9.32705e-11 -8.85425e-15 -1.83803e-28 9.32068e-11 2.36499e-28 9.32387e-11)
(9.6704e-11 -1.06339e-14 -2.00451e-28 9.66253e-11 2.35088e-28 9.66647e-11)
(9.92432e-11 -1.23687e-14 3.35568e-30 9.91501e-11 -1.49103e-29 9.91967e-11)
(1.01073e-10 -1.38738e-14 1.10741e-29 1.00966e-10 -1.45092e-29 1.01019e-10)
(1.02806e-10 -1.51327e-14 6.43451e-30 1.02686e-10 2.39495e-31 1.02746e-10)
(1.04564e-10 -1.62969e-14 -1.89877e-28 1.0443e-10 2.22742e-28 1.04497e-10)
(1.06469e-10 -1.72857e-14 -1.98359e-28 1.0632e-10 2.13925e-28 1.06395e-10)
(1.08751e-10 -1.81702e-14 -5.9314e-30 1.08586e-10 -1.90923e-31 1.08669e-10)
(1.11672e-10 -1.89636e-14 9.40633e-35 1.11489e-10 -1.16596e-34 1.11581e-10)
(1.15549e-10 -1.97763e-14 3.93736e-30 1.15343e-10 -4.75354e-30 1.15446e-10)
(1.21158e-10 -2.06989e-14 -6.01017e-30 1.20923e-10 7.3053e-30 1.21041e-10)
(1.29957e-10 -2.24065e-14 1.4748e-28 1.29679e-10 -1.73818e-28 1.29818e-10)
(1.42148e-10 -2.64691e-14 7.69719e-28 1.41809e-10 -8.99723e-28 1.41979e-10)
(1.57803e-10 -3.44265e-14 7.85312e-28 1.57378e-10 -9.15864e-28 1.57591e-10)
(1.77879e-10 -4.90148e-14 1.52677e-28 1.77337e-10 -1.84595e-28 1.77608e-10)
(2.04124e-10 -7.53944e-14 -1.60765e-31 2.03417e-10 -1.06168e-33 2.03771e-10)
(2.38598e-10 -1.23622e-13 -1.65826e-28 2.37653e-10 2.19125e-28 2.38126e-10)
(2.84163e-10 -2.12771e-13 -3.27797e-28 2.82878e-10 4.52506e-28 2.83521e-10)
(3.41298e-10 -3.78286e-13 -3.12691e-28 3.39542e-10 4.41133e-28 3.40422e-10)
(4.05138e-10 -6.64074e-13 -1.05713e-28 4.02842e-10 1.84357e-28 4.03992e-10)
(4.52329e-10 -1.06961e-12 -4.50812e-28 4.49682e-10 -1.20416e-28 4.51007e-10)