/*--------------------------------*- C++ -*----------------------------------*\
  =========                 |
  \\      /  F ield         | OpenFOAM: The Open Source CFD Toolbox
   \\    /   O peration     | Website:  https://openfoam.org
    \\  /    A nd           | Version:  7
     \\/     M anipulation  |
\*---------------------------------------------------------------------------*/
FoamFile
{
    version     2.0;
    format      ascii;
    class       volVectorField;
    location    "25000";
    object      U;
}
// * * * * * * * * * * * * * * * * * * * * * * * * * * * * * * * * * * * * * //

dimensions      [0 1 -1 0 0 0 0];

internalField   nonuniform List<vector> 
32000
(
(0.000142364 7.08526e-07 -3.17323e-29)
(0.000174033 4.91549e-08 -6.99994e-20)
(0.000173983 -4.77275e-06 -1.36661e-19)
(0.000135971 -1.06593e-05 -1.08561e-19)
(6.1634e-05 -9.49949e-06 -1.81296e-19)
(-1.37239e-05 3.02558e-06 -2.61283e-19)
(-5.29112e-05 1.86324e-05 -3.22473e-19)
(-5.83579e-05 2.75953e-05 0)
(-5.10009e-05 2.92576e-05 -3.31203e-19)
(-4.17745e-05 2.73683e-05 -3.16432e-19)
(-3.50641e-05 2.5236e-05 8.18246e-21)
(-2.93589e-05 2.25985e-05 8.33658e-21)
(-2.51958e-05 2.03418e-05 6.41416e-25)
(-2.17901e-05 1.81675e-05 1.64287e-26)
(-1.9095e-05 1.62254e-05 8.89546e-21)
(-1.67682e-05 1.43457e-05 9.12776e-21)
(-1.49237e-05 1.27036e-05 -7.07928e-19)
(-1.35802e-05 1.13967e-05 -7.32203e-19)
(-1.26874e-05 1.04891e-05 -3.6756e-19)
(-1.2066e-05 9.84055e-06 -3.78848e-19)
(-1.17496e-05 9.46512e-06 1.04724e-20)
(-1.17186e-05 9.33741e-06 1.63131e-25)
(-1.19759e-05 9.4526e-06 1.09481e-20)
(-1.25385e-05 9.81681e-06 1.11727e-20)
(-1.3384e-05 1.04115e-05 2.27789e-20)
(-1.45034e-05 1.1226e-05 1.16002e-20)
(-1.57941e-05 1.21815e-05 -4.2012e-26)
(-1.71252e-05 1.31317e-05 1.83969e-25)
(-1.84886e-05 1.40176e-05 -1.22785e-20)
(-1.98566e-05 1.47964e-05 1.25566e-20)
(-2.11733e-05 1.54071e-05 1.28614e-20)
(-2.23807e-05 1.57913e-05 -1.32002e-20)
(-2.34144e-05 1.58921e-05 1.35688e-20)
(-2.42084e-05 1.56608e-05 4.24923e-25)
(-2.47232e-05 1.50746e-05 -7.50968e-19)
(-2.49865e-05 1.41723e-05 -7.83404e-19)
(-2.51465e-05 1.30997e-05 -7.48841e-19)
(-2.51257e-05 1.18955e-05 -7.87418e-19)
(-2.4838e-05 1.05517e-05 -1.61425e-20)
(-2.42288e-05 9.0869e-06 8.26636e-21)
(-2.34449e-05 7.60022e-06 -5.14444e-25)
(-2.23095e-05 6.07466e-06 1.71873e-20)
(-2.14722e-05 4.70867e-06 -1.06359e-24)
(-2.02905e-05 3.35642e-06 -4.40284e-21)
(-2.08059e-05 2.30055e-06 8.84901e-21)
(-2.04196e-05 1.12498e-06 -1.99098e-18)
(-2.66936e-05 1.90112e-07 -1.98393e-18)
(-3.71141e-05 1.87945e-08 6.25762e-35)
(-4.46568e-05 1.95546e-08 5.37164e-25)
(-5.27591e-05 1.99917e-08 -5.37157e-25)
(-5.95101e-05 2.08186e-08 5.40129e-25)
(-6.60652e-05 2.12063e-08 -5.4012e-25)
(-7.17768e-05 2.17792e-08 5.46356e-25)
(-7.71223e-05 2.21191e-08 -5.46348e-25)
(-8.18917e-05 2.25207e-08 0)
(-8.63002e-05 2.27893e-08 0)
(-9.02899e-05 2.30549e-08 -2.07762e-18)
(-9.39653e-05 2.32307e-08 -2.10508e-18)
(-9.73192e-05 2.33734e-08 1.06359e-18)
(-0.000100406 2.34452e-08 1.07931e-18)
(-0.000103235 2.34711e-08 2.18652e-18)
(-0.000105835 2.34348e-08 2.22156e-18)
(-0.000108218 2.33476e-08 -4.67103e-27)
(-0.000110403 2.32029e-08 -4.88469e-27)
(-0.000112398 2.30062e-08 3.1301e-25)
(-0.000114215 2.27556e-08 -6.46764e-25)
(-0.000115863 2.24546e-08 6.46757e-25)
(-0.000117351 2.21033e-08 -1.22097e-18)
(-0.000118683 2.17047e-08 -2.48662e-18)
(-0.000119868 2.12601e-08 -1.26625e-18)
(-0.00012091 2.07718e-08 -3.46257e-25)
(-0.000121814 2.0241e-08 0)
(-0.000122584 1.96698e-08 -3.65024e-25)
(-0.000123226 1.90598e-08 3.65018e-25)
(-0.000123742 1.8413e-08 0)
(-0.000124135 1.77314e-08 8.88312e-35)
(-0.00012441 1.70169e-08 1.42999e-18)
(-0.000124568 1.62717e-08 1.45664e-18)
(-0.000124614 1.54982e-08 -3.9874e-25)
(-0.00012455 1.46986e-08 4.12911e-25)
(-0.000124379 1.38753e-08 -4.12923e-25)
(-0.000124104 1.30301e-08 -1.5605e-18)
(-0.000123729 1.21657e-08 -1.58844e-18)
(-0.000123255 1.12852e-08 2.21065e-25)
(-0.000122687 1.03894e-08 -2.2104e-25)
(-0.000122028 9.4815e-09 0)
(-0.00012128 8.56453e-09 -2.32289e-25)
(-0.000120448 7.6392e-09 2.32262e-25)
(-0.000119533 6.7087e-09 0)
(-0.000118541 5.77535e-09 0)
(-0.000117474 4.84097e-09 -1.23727e-25)
(-0.000116335 3.90815e-09 -1.83845e-18)
(-0.000115129 2.97733e-09 -1.86706e-18)
(-0.000113859 2.05104e-09 1.27533e-25)
(-0.000112527 1.13168e-09 0)
(-0.000111139 2.19135e-10 0)
(-0.000109696 -6.84423e-10 -1.97873e-18)
(-0.000108202 -1.57688e-09 -2.00681e-18)
(-0.00010666 -2.45862e-09 0)
(-0.000105074 -3.32774e-09 0)
(-0.000103447 -4.1824e-09 0)
(-0.00010178 -5.02315e-09 0)
(-0.000100079 -5.84831e-09 2.14449e-18)
(-9.83445e-05 -6.65621e-09 2.17136e-18)
(-9.65804e-05 -7.44754e-09 -7.40681e-26)
(-9.47894e-05 -8.22075e-09 0)
(-9.29746e-05 -8.97438e-09 -2.2501e-18)
(-9.11385e-05 -9.70927e-09 2.56462e-21)
(-8.9284e-05 -1.04242e-08 2.30392e-18)
(-8.74142e-05 -1.11181e-08 -3.1775e-25)
(-8.55315e-05 -1.17918e-08 3.17723e-25)
(-8.36386e-05 -1.24448e-08 0)
(-8.17381e-05 -1.3077e-08 3.28027e-25)
(-7.98326e-05 -1.36885e-08 -6.59505e-25)
(-7.79245e-05 -1.42785e-08 3.31443e-25)
(-7.6016e-05 -1.48484e-08 0)
(-7.41093e-05 -1.53978e-08 -3.41356e-25)
(-7.22067e-05 -1.59262e-08 3.4136e-25)
(-7.03101e-05 -1.64351e-08 3.47753e-25)
(-6.84214e-05 -1.69243e-08 -3.47794e-25)
(-6.65428e-05 -1.73936e-08 2.59831e-18)
(-6.46757e-05 -1.78443e-08 2.61925e-18)
(-6.28218e-05 -1.82765e-08 -2.64401e-18)
(-6.0983e-05 -1.86899e-08 -2.66419e-18)
(-5.91603e-05 -1.90861e-08 -7.26439e-25)
(-5.73555e-05 -1.94647e-08 2.71058e-18)
(-5.55698e-05 -1.98257e-08 2.72962e-18)
(-5.38047e-05 -2.01696e-08 -5.50966e-18)
(-5.20613e-05 -2.04971e-08 -5.54623e-18)
(-5.03418e-05 -2.08064e-08 0)
(-4.86468e-05 -2.11003e-08 2.81871e-18)
(-4.69792e-05 -2.1376e-08 2.83585e-18)
(-4.53391e-05 -2.16372e-08 0)
(-4.37305e-05 -2.18792e-08 7.83023e-25)
(-4.21521e-05 -2.21096e-08 -7.83047e-25)
(-4.061e-05 -2.2318e-08 5.53336e-21)
(-3.91004e-05 -2.25196e-08 -2.0879e-21)
(-3.76334e-05 -2.26933e-08 0)
(-3.62002e-05 -2.28677e-08 2.9688e-18)
(-3.48189e-05 -2.3003e-08 2.99133e-18)
(-3.34713e-05 -2.31522e-08 0)
(-3.21905e-05 -2.32401e-08 1.64672e-24)
(-3.09409e-05 -2.33664e-08 9.50665e-27)
(-2.97831e-05 -2.33913e-08 -1.65627e-24)
(-2.8649e-05 -2.34988e-08 -1.67489e-24)
(-2.76498e-05 -2.34336e-08 1.67488e-24)
(-2.66578e-05 -2.35319e-08 0)
(-2.58742e-05 -2.33319e-08 1.70205e-24)
(-2.5064e-05 -2.3447e-08 -1.70204e-24)
(-2.45829e-05 -2.30434e-08 1.71969e-24)
(-2.40116e-05 -2.32657e-08 -1.71965e-24)
(-2.39309e-05 -2.26071e-08 0)
(-2.36315e-05 -2.36225e-08 1.7455e-24)
(-2.36213e-05 -1.71943e-07 4.46226e-22)
(-2.37391e-05 -1.30292e-06 -7.20947e-21)
(-2.36297e-05 -2.58599e-06 1.4446e-20)
(-2.36733e-05 -3.86576e-06 -1.76516e-24)
(-2.30976e-05 -5.00217e-06 -8.72372e-27)
(-2.23627e-05 -6.01085e-06 2.84926e-20)
(-2.10825e-05 -6.73838e-06 -2.78034e-18)
(-1.95282e-05 -7.21878e-06 -5.61598e-18)
(-1.74738e-05 -7.3071e-06 -2.79857e-18)
(-1.50759e-05 -7.0109e-06 0)
(-1.21753e-05 -6.20483e-06 2.89723e-18)
(-8.84618e-06 -4.87085e-06 5.47882e-18)
(-4.89712e-06 -2.84026e-06 2.66317e-18)
(-3.11402e-07 -6.05219e-08 0)
(4.87292e-06 3.43583e-06 -4.90381e-20)
(1.07019e-05 7.6566e-06 2.94005e-24)
(1.71379e-05 1.25424e-05 4.73634e-20)
(2.42329e-05 1.80828e-05 0)
(3.18704e-05 2.41321e-05 4.58562e-20)
(4.0074e-05 3.06283e-05 1.74065e-18)
(4.84851e-05 3.72209e-05 1.7087e-18)
(5.67892e-05 4.37063e-05 -4.37246e-20)
(6.47211e-05 5.00019e-05 -4.2921e-20)
(7.26142e-05 5.64972e-05 -6.39125e-25)
(8.0825e-05 6.33925e-05 1.57395e-18)
(8.91299e-05 7.05803e-05 1.52837e-18)
(9.79945e-05 7.8469e-05 5.95966e-25)
(0.000107463 8.71445e-05 0)
(0.000118173 9.71609e-05 -3.62159e-20)
(0.000130382 0.00010883 0)
(0.000146156 0.000123732 -1.24478e-18)
(0.000166899 0.000141972 -2.31902e-18)
(0.000192027 0.000162216 -2.17552e-18)
(0.000222532 0.000184426 -9.96723e-19)
(0.000259724 0.000208429 -4.91009e-26)
(0.000305939 0.000234097 8.52456e-19)
(0.000363016 0.000259859 1.44402e-18)
(0.000434632 0.00028334 1.16358e-18)
(0.000515975 0.0002949 3.71131e-19)
(0.000599857 0.000283623 1.14958e-19)
(0.000635575 0.000226833 -1.8724e-19)
(0.000577051 0.0001417 8.0045e-21)
(0.000463637 7.04648e-05 2.32271e-21)
(0.000339842 2.69397e-05 -1.05328e-21)
(0.000234716 6.65643e-06 4.06918e-22)
(0.000164846 9.78473e-09 -4.07115e-19)
(0.000129174 -6.74268e-07 -2.00647e-19)
(0.00044672 1.76192e-06 -2.66652e-28)
(0.00053781 -1.57012e-07 1.10166e-19)
(0.000538031 -1.42971e-05 4.30425e-19)
(0.000425508 -3.18867e-05 5.11776e-19)
(0.00020293 -2.88336e-05 2.8688e-19)
(-2.74042e-05 8.23717e-06 4.11252e-19)
(-0.000152181 5.53236e-05 5.13246e-19)
(-0.000173482 8.2948e-05 0)
(-0.000153174 8.83877e-05 5.2141e-19)
(-0.000125985 8.29115e-05 5.23562e-19)
(-0.000105956 7.65821e-05 1.20601e-26)
(-8.88908e-05 6.86793e-05 -1.31242e-20)
(-7.63765e-05 6.18806e-05 1.33945e-20)
(-6.61304e-05 5.53118e-05 -1.5393e-18)
(-5.80071e-05 4.94307e-05 -1.57079e-18)
(-5.10015e-05 4.3736e-05 -1.2263e-24)
(-4.5446e-05 3.87569e-05 1.11572e-18)
(-4.14004e-05 3.47913e-05 1.1522e-18)
(-3.87127e-05 3.20359e-05 5.63767e-19)
(-3.68521e-05 3.00712e-05 5.9598e-19)
(-3.59145e-05 2.89381e-05 -1.64921e-20)
(-3.58425e-05 2.85599e-05 -2.58002e-25)
(-3.66439e-05 2.89218e-05 -1.72403e-20)
(-3.83688e-05 3.00412e-05 -1.75938e-20)
(-4.09486e-05 3.18612e-05 -9.50626e-26)
(-4.43522e-05 3.43469e-05 2.79275e-25)
(-4.8271e-05 3.72592e-05 1.8594e-20)
(-5.23145e-05 4.01554e-05 -5.79384e-25)
(-5.64548e-05 4.28552e-05 1.93346e-20)
(-6.06088e-05 4.52269e-05 -1.97715e-20)
(-6.46095e-05 4.70856e-05 -2.02524e-20)
(-6.82837e-05 4.8254e-05 2.07848e-20)
(-7.14401e-05 4.856e-05 -6.50146e-25)
(-7.38833e-05 4.78565e-05 0)
(-7.54983e-05 4.6076e-05 1.18528e-18)
(-7.63704e-05 4.33374e-05 1.25383e-18)
(-7.69321e-05 4.00763e-05 1.18184e-18)
(-7.6956e-05 3.64103e-05 3.69795e-18)
(-7.61859e-05 3.23167e-05 2.60679e-18)
(-7.44634e-05 2.78551e-05 -2.77566e-18)
(-7.22157e-05 2.33196e-05 -2.87679e-18)
(-6.89454e-05 1.8672e-05 -1.35293e-20)
(-6.655e-05 1.44943e-05 -3.00251e-18)
(-6.32218e-05 1.0382e-05 -3.07057e-18)
(-6.49072e-05 7.1354e-06 -1.39291e-20)
(-6.42981e-05 3.61124e-06 3.14756e-18)
(-8.34903e-05 8.62751e-07 3.11692e-18)
(-0.000114796 3.372e-07 -9.85009e-35)
(-0.000137679 3.02391e-07 8.4554e-25)
(-0.000162044 2.81835e-07 -8.45503e-25)
(-0.000182403 2.55857e-07 3.94982e-34)
(-0.00020209 2.33954e-07 1.56803e-18)
(-0.000219262 2.12351e-07 1.57964e-18)
(-0.000235298 1.93599e-07 0)
(-0.000249609 1.76368e-07 0)
(-0.00026282 1.61221e-07 0)
(-0.000274775 1.47531e-07 3.27498e-18)
(-0.000285777 1.3532e-07 3.30757e-18)
(-0.000295812 1.24246e-07 -1.67638e-18)
(-0.000305042 1.14207e-07 1.69597e-18)
(-0.000313492 1.04997e-07 3.43783e-18)
(-0.000321255 9.65076e-08 3.70121e-21)
(-0.000328363 8.86075e-08 -9.55085e-25)
(-0.000334871 8.12111e-08 0)
(-0.000340809 7.42349e-08 0)
(-0.000346212 6.76201e-08 0)
(-0.000351104 6.13164e-08 -5.1748e-25)
(-0.000355511 5.52876e-08 1.92364e-18)
(-0.000359452 4.95037e-08 9.77622e-18)
(-0.000362947 4.39392e-08 7.96301e-18)
(-0.000366011 3.85706e-08 0)
(-0.000368661 3.33766e-08 2.60472e-34)
(-0.000370909 2.83395e-08 0)
(-0.000372767 2.34449e-08 1.34917e-34)
(-0.000374248 1.86813e-08 -5.95099e-25)
(-0.00037536 1.40407e-08 5.95092e-25)
(-0.000376114 9.51723e-09 -2.25214e-18)
(-0.000376519 5.10822e-09 -2.29017e-18)
(-0.000376585 8.12472e-10 6.38531e-25)
(-0.00037632 -3.37074e-09 -1.28828e-24)
(-0.000375734 -7.44094e-09 6.49765e-25)
(-0.000374836 -1.13985e-08 2.45721e-18)
(-0.000373635 -1.5242e-08 2.49786e-18)
(-0.000372141 -1.89687e-08 3.47863e-25)
(-0.000370363 -2.25782e-08 7.75092e-18)
(-0.00036831 -2.60674e-08 7.88526e-18)
(-0.000365992 -2.94329e-08 3.5961e-25)
(-0.000363419 -3.26731e-08 -3.71427e-25)
(-0.000360602 -3.57849e-08 5.51629e-18)
(-0.00035755 -3.87659e-08 5.6066e-18)
(-0.000354274 -4.16149e-08 -5.98304e-27)
(-0.000350786 -4.43307e-08 2.89388e-18)
(-0.000347094 -4.69144e-08 2.93717e-18)
(-0.000343209 -4.93669e-08 0)
(-0.000339143 -5.16893e-08 0)
(-0.000334905 -5.38842e-08 0)
(-0.000330505 -5.59537e-08 3.11419e-18)
(-0.000325952 -5.78995e-08 3.1577e-18)
(-0.000321257 -5.97245e-08 -2.73175e-26)
(-0.000316429 -6.1431e-08 2.73144e-26)
(-0.000311477 -6.30208e-08 6.76016e-30)
(-0.00030641 -6.44962e-08 0)
(-0.000301237 -6.58589e-08 -3.37445e-18)
(-0.000295967 -6.71097e-08 -2.9272e-21)
(-0.000290608 -6.82496e-08 3.45645e-18)
(-0.000285169 -6.92789e-08 2.36024e-25)
(-0.000279659 -7.01977e-08 3.5402e-18)
(-0.000274086 -7.10069e-08 -2.02904e-21)
(-0.000268459 -7.17078e-08 -3.62697e-18)
(-0.000262787 -7.23021e-08 4.94565e-25)
(-0.000257077 -7.27923e-08 -5.05499e-25)
(-0.000251337 -7.31815e-08 5.05549e-25)
(-0.000245574 -7.34728e-08 0)
(-0.000239798 -7.36694e-08 0)
(-0.000234015 -7.37746e-08 5.26902e-25)
(-0.000228231 -7.3792e-08 -5.2684e-25)
(-0.000222453 -7.37248e-08 0)
(-0.000216689 -7.35765e-08 -1.08472e-24)
(-0.000210943 -7.33504e-08 -1.00728e-26)
(-0.000205222 -7.30502e-08 1.0948e-24)
(-0.000199532 -7.26796e-08 -4.08638e-18)
(-0.000193877 -7.22423e-08 -4.12581e-18)
(-0.000188263 -7.17421e-08 4.15801e-18)
(-0.000182695 -7.11825e-08 4.19698e-18)
(-0.000177177 -7.05665e-08 9.39781e-27)
(-0.000171712 -6.98956e-08 -4.26233e-18)
(-0.000166307 -6.9171e-08 -4.30064e-18)
(-0.000160964 -6.83907e-08 8.66328e-18)
(-0.000155687 -6.75534e-08 8.73911e-18)
(-0.000150483 -6.66552e-08 1.18948e-24)
(-0.000145354 -6.56953e-08 -1.32979e-17)
(-0.000140308 -6.4668e-08 -1.33886e-17)
(-0.000135346 -6.35759e-08 1.21563e-24)
(-0.00013048 -6.24104e-08 0)
(-0.000125706 -6.11797e-08 -2.87959e-34)
(-0.000121042 -5.98663e-08 -4.58725e-18)
(-0.000116477 -5.84862e-08 -4.62367e-18)
(-0.000112041 -5.70025e-08 1.59646e-26)
(-0.00010771 -5.54468e-08 -2.53032e-24)
(-0.000103534 -5.37448e-08 -5.94625e-34)
(-9.94637e-05 -5.19593e-08 0)
(-9.55937e-05 -4.99464e-08 0)
(-9.18221e-05 -4.7831e-08 -3.02653e-34)
(-8.83252e-05 -4.5343e-08 -9.64015e-18)
(-8.4907e-05 -4.27283e-08 -9.67818e-18)
(-8.18906e-05 -3.94879e-08 2.65103e-24)
(-7.89073e-05 -3.61116e-08 -2.65112e-24)
(-7.65429e-05 -3.16733e-08 -4.9268e-18)
(-7.41167e-05 -2.72136e-08 -4.9438e-18)
(-7.26656e-05 -2.09305e-08 1.38095e-26)
(-7.09709e-05 -1.55721e-08 -2.70713e-24)
(-7.07283e-05 -7.44898e-09 -2.7343e-24)
(-6.98698e-05 -9.39459e-09 1.01089e-17)
(-6.99159e-05 -4.44891e-07 1.01371e-17)
(-7.03113e-05 -3.83647e-06 2.26989e-20)
(-6.99688e-05 -7.68237e-06 2.783e-24)
(-7.00265e-05 -1.15182e-05 -2.27146e-20)
(-6.82299e-05 -1.49221e-05 2.75225e-24)
(-6.59273e-05 -1.79315e-05 -4.4854e-20)
(-6.19909e-05 -2.00893e-05 4.43846e-20)
(-5.72167e-05 -2.14922e-05 9.58272e-18)
(-5.09429e-05 -2.17066e-05 9.33788e-18)
(-4.36307e-05 -2.07523e-05 4.24661e-20)
(-3.48133e-05 -1.82537e-05 -8.33898e-20)
(-2.47052e-05 -1.41538e-05 8.17759e-20)
(-1.27422e-05 -7.9477e-06 7.56508e-18)
(1.11708e-06 5.20183e-07 7.34102e-18)
(1.67585e-05 1.11502e-05 7.72172e-20)
(3.43148e-05 2.39634e-05 0)
(5.36763e-05 3.87806e-05 0)
(7.49913e-05 5.55672e-05 -7.33749e-20)
(9.79212e-05 7.38857e-05 -7.22015e-20)
(0.000122525 9.3545e-05 -2.73548e-18)
(0.000147754 0.000113499 -2.69557e-18)
(0.000172679 0.000133142 -6.88379e-20)
(0.000196527 0.000152234 0)
(0.00022026 0.000171932 1.00619e-24)
(0.000244919 0.000192833 -2.47473e-18)
(0.000269878 0.000214632 -2.3467e-18)
(0.00029648 0.000238543 0)
(0.000324884 0.000264836 0)
(0.000356941 0.000295163 4.3027e-25)
(0.000393462 0.000330478 -4.21077e-25)
(0.000440452 0.000375462 -5.19857e-20)
(0.00050208 0.000430401 -4.90902e-20)
(0.000576801 0.000491342 4.59797e-20)
(0.000667483 0.000558109 -4.25523e-20)
(0.000777995 0.000630136 7.72133e-26)
(0.000915152 0.000706941 -5.04813e-23)
(0.00108443 0.000783751 0)
(0.00129641 0.000853284 -4.34366e-20)
(0.00153764 0.000886967 0)
(0.00178699 0.000852532 -1.78792e-19)
(0.00189999 0.000683912 2.9137e-19)
(0.0017408 0.000431049 -1.20605e-18)
(0.00141442 0.000217391 -1.42608e-18)
(0.00104988 8.5183e-05 2.66614e-26)
(0.000735219 2.24427e-05 -6.40286e-22)
(0.00052258 1.11542e-06 6.40748e-19)
(0.000412162 -1.86562e-06 3.15834e-19)
(0.000781815 2.43038e-06 0)
(0.000929431 -7.5791e-07 1.15686e-24)
(0.000930347 -2.40931e-05 -2.281e-19)
(0.000743049 -5.3791e-05 -3.61714e-19)
(0.000368662 -4.98748e-05 -1.54842e-21)
(-2.59013e-05 1.11756e-05 4.44585e-19)
(-0.000247029 9.0883e-05 5.259e-19)
(-0.000290331 0.000138901 -5.52882e-19)
(-0.00025872 0.000149001 -5.7839e-19)
(-0.000213594 0.000140248 -5.54672e-19)
(-0.000179961 0.000129804 -5.44917e-19)
(-0.000151228 0.000116619 1.39136e-20)
(-0.000130065 0.000105199 2.73155e-26)
(-0.00011272 9.41278e-05 1.6326e-18)
(-9.89445e-05 8.4186e-05 -1.46082e-20)
(-8.70694e-05 7.45545e-05 -1.16364e-18)
(-7.76451e-05 6.61282e-05 5.75716e-19)
(-7.07795e-05 5.94153e-05 1.22764e-25)
(-6.62182e-05 5.47505e-05 1.66197e-20)
(-6.30727e-05 5.14347e-05 0)
(-6.14965e-05 4.95336e-05 1.74846e-20)
(-6.13954e-05 4.89187e-05 0)
(-6.27809e-05 4.95646e-05 1.82783e-20)
(-6.57356e-05 5.14981e-05 0)
(-7.01427e-05 5.46219e-05 -1.90145e-20)
(-7.59449e-05 5.8871e-05 5.92154e-25)
(-8.26205e-05 6.38376e-05 7.57876e-19)
(-8.95118e-05 6.87748e-05 7.745e-19)
(-9.65671e-05 7.3374e-05 -2.90075e-27)
(-0.000103645 7.74093e-05 -2.09592e-20)
(-0.000110466 8.0568e-05 0)
(-0.000116736 8.25491e-05 0)
(-0.000122136 8.30624e-05 -6.93121e-25)
(-0.000126339 8.1861e-05 -2.33058e-20)
(-0.000129156 7.88347e-05 0)
(-0.000130735 7.4188e-05 -2.47607e-20)
(-0.000131792 6.86469e-05 1.55699e-24)
(-0.000131951 6.24104e-05 -2.6154e-18)
(-0.000130785 5.54415e-05 -2.74279e-18)
(-0.000128035 4.78467e-05 2.93541e-18)
(-0.000124402 4.01113e-05 3.02772e-18)
(-0.000119097 3.21937e-05 -1.57387e-18)
(-0.000115242 2.5042e-05 1.57296e-18)
(-0.000109964 1.80356e-05 3.24708e-18)
(-0.000113021 1.24336e-05 3.30417e-18)
(-0.000112814 6.48844e-06 3.31719e-18)
(-0.000145705 1.92864e-06 -8.99843e-25)
(-0.000198514 1.03639e-06 8.95958e-25)
(-0.000237432 9.21772e-07 -1.64993e-18)
(-0.000278556 8.61175e-07 -4.95686e-18)
(-0.000313003 7.77793e-07 -3.3144e-18)
(-0.000346194 7.11399e-07 -1.66465e-18)
(-0.000375169 6.43519e-07 -3.34404e-18)
(-0.000402177 5.86217e-07 -1.68878e-18)
(-0.000426284 5.32623e-07 -9.18203e-25)
(-0.000448514 4.86174e-07 3.42608e-18)
(-0.000468625 4.43815e-07 1.74031e-18)
(-0.000487119 4.06311e-07 -1.75137e-18)
(-0.000503981 3.72148e-07 -9.69878e-25)
(-0.000519478 3.41302e-07 -5.39291e-18)
(-0.000533659 3.12949e-07 -7.28959e-18)
(-0.000546676 2.86876e-07 -1.84226e-18)
(-0.000558585 2.62601e-07 0)
(-0.00056948 2.39911e-07 -1.90242e-18)
(-0.000579409 2.18518e-07 -1.93579e-18)
(-0.000588435 1.98263e-07 -1.07825e-24)
(-0.000596596 1.78976e-07 1.07822e-24)
(-0.000603936 1.60555e-07 1.11523e-24)
(-0.000610488 1.42901e-07 -6.21916e-18)
(-0.000616286 1.25939e-07 -6.31966e-18)
(-0.000621356 1.09594e-07 -4.28733e-18)
(-0.000625725 9.38018e-08 -5.06695e-21)
(-0.000629415 7.85064e-08 8.88712e-18)
(-0.000632447 6.36636e-08 4.52528e-18)
(-0.000634839 4.92377e-08 2.30456e-18)
(-0.00063661 3.52035e-08 2.34811e-18)
(-0.000637776 2.15426e-08 -6.53105e-25)
(-0.000638352 8.24593e-09 -4.85204e-18)
(-0.000638356 -4.69089e-09 -4.9424e-18)
(-0.000637801 -1.72708e-08 -6.76439e-25)
(-0.000636705 -2.94936e-08 2.55226e-18)
(-0.000635083 -4.13607e-08 2.59865e-18)
(-0.00063295 -5.28689e-08 7.24715e-25)
(-0.000630322 -6.40112e-08 -7.2471e-25)
(-0.000627215 -7.47861e-08 -8.21598e-18)
(-0.000623645 -8.51861e-08 -8.34848e-18)
(-0.00061963 -9.52015e-08 3.8723e-25)
(-0.000615185 -1.04828e-07 -7.8067e-25)
(-0.000610329 -1.14057e-07 -2.91959e-18)
(-0.000605078 -1.22883e-07 -2.96215e-18)
(-0.00059945 -1.31303e-07 -6.03048e-18)
(-0.000593464 -1.39313e-07 -6.12622e-18)
(-0.000587136 -1.46918e-07 0)
(-0.000580485 -1.54122e-07 -2.15783e-25)
(-0.000573528 -1.60928e-07 4.34739e-25)
(-0.000566282 -1.67345e-07 -2.18928e-25)
(-0.000558764 -1.7338e-07 -3.30155e-18)
(-0.000550991 -1.79039e-07 -3.34849e-18)
(-0.000542978 -1.8433e-07 0)
(-0.000534741 -1.89262e-07 0)
(-0.000526298 -1.9384e-07 0)
(-0.000517661 -1.98072e-07 0)
(-0.000508846 -2.01963e-07 3.57846e-18)
(-0.000499869 -2.05515e-07 6.17306e-21)
(-0.000490744 -2.08733e-07 -3.66266e-18)
(-0.000481485 -2.11617e-07 4.68604e-34)
(-0.000472107 -2.14169e-07 2.56077e-25)
(-0.000462625 -2.16391e-07 -2.56049e-25)
(-0.000453052 -2.18286e-07 0)
(-0.000443404 -2.19862e-07 5.29846e-25)
(-0.000433693 -2.21125e-07 3.9326e-18)
(-0.000423934 -2.22085e-07 3.97342e-18)
(-0.000414138 -2.22752e-07 -5.41332e-25)
(-0.00040432 -2.23135e-07 4.05946e-18)
(-0.000394491 -2.23245e-07 8.19945e-18)
(-0.000384662 -2.23092e-07 4.13939e-18)
(-0.000374845 -2.22686e-07 -8.35102e-18)
(-0.000365052 -2.22038e-07 -8.4253e-18)
(-0.000355291 -2.21158e-07 0)
(-0.000345573 -2.20056e-07 -1.17064e-24)
(-0.000335908 -2.18745e-07 1.17068e-24)
(-0.000326305 -2.17235e-07 8.74385e-18)
(-0.000316771 -2.15538e-07 8.81172e-18)
(-0.000307316 -2.13664e-07 -2.41347e-24)
(-0.000297946 -2.11622e-07 -4.4922e-18)
(-0.000288669 -2.09416e-07 -4.52422e-18)
(-0.000279491 -2.0705e-07 -9.11483e-18)
(-0.000270421 -2.04518e-07 -1.83625e-17)
(-0.000261464 -2.01814e-07 -9.24637e-18)
(-0.000252632 -1.98931e-07 -1.26052e-24)
(-0.000243927 -1.95857e-07 1.40903e-17)
(-0.000235364 -1.92588e-07 1.41981e-17)
(-0.000226945 -1.89113e-07 -2.59457e-24)
(-0.000218688 -1.85434e-07 5.20702e-24)
(-0.000210589 -1.81534e-07 -2.61253e-24)
(-0.000202677 -1.77416e-07 -1.2288e-33)
(-0.000194936 -1.7305e-07 3.09213e-34)
(-0.000187413 -1.68433e-07 0)
(-0.000180069 -1.63507e-07 -4.96721e-18)
(-0.00017299 -1.58259e-07 -4.98997e-18)
(-0.000166092 -1.52583e-07 0)
(-0.000159533 -1.46447e-07 -2.74729e-24)
(-0.000153147 -1.39673e-07 1.0159e-17)
(-0.000147222 -1.32198e-07 1.01811e-17)
(-0.000141441 -1.23734e-07 1.86183e-20)
(-0.000136333 -1.14165e-07 0)
(-0.000131297 -1.03078e-07 -2.82488e-24)
(-0.000127295 -9.02187e-08 5.21181e-18)
(-0.000123215 -7.52998e-08 5.24973e-18)
(-0.000120759 -5.74594e-08 1.46367e-26)
(-0.000117933 -3.88802e-08 -2.86921e-24)
(-0.000117525 -1.64611e-08 0)
(-0.000116135 -1.78981e-08 -1.06918e-17)
(-0.000116314 -7.28455e-07 -1.07682e-17)
(-0.000117027 -6.37987e-06 -1.08162e-17)
(-0.000116433 -1.2783e-05 -1.07402e-17)
(-0.000116436 -1.91681e-05 2.4072e-20)
(-0.000113327 -2.48249e-05 2.3952e-20)
(-0.000109332 -2.98016e-05 4.75443e-20)
(-0.000102593 -3.33383e-05 -4.70446e-20)
(-9.44252e-05 -3.55875e-05 -1.01323e-17)
(-8.37338e-05 -3.58274e-05 -9.87662e-18)
(-7.12825e-05 -3.4085e-05 -4.50141e-20)
(-5.62956e-05 -2.9734e-05 4.07478e-24)
(-3.91225e-05 -2.26736e-05 -5.2911e-24)
(-1.88195e-05 -1.20624e-05 -7.99949e-18)
(4.67557e-06 2.35605e-06 -7.80194e-18)
(3.11719e-05 2.04126e-05 -8.18579e-20)
(6.08872e-05 4.21374e-05 0)
(9.36406e-05 6.72301e-05 0)
(0.000129672 9.56257e-05 7.77815e-20)
(0.00016842 0.000126594 2.33606e-24)
(0.000209969 0.000159805 -2.29892e-24)
(0.000252575 0.000193524 0)
(0.000294689 0.000226744 7.2967e-20)
(0.000335035 0.000259072 7.16187e-20)
(0.000375197 0.000292422 -1.06642e-24)
(0.000416898 0.000327786 -6.84994e-20)
(0.000459139 0.00036469 -6.67371e-20)
(0.000504119 0.000405128 9.94263e-25)
(0.000552147 0.000449582 9.48715e-25)
(0.000606282 0.000500783 -9.29498e-25)
(0.000667954 0.000560359 -5.78459e-20)
(0.000747078 0.000635992 4.12198e-25)
(0.00085061 0.000728139 3.91775e-18)
(0.00097614 0.000830299 3.62277e-18)
(0.00112835 0.000942032 0)
(0.00131366 0.0010623 3.65893e-26)
(0.00154325 0.0011901 -5.42241e-23)
(0.00182616 0.00131738 -2.51261e-26)
(0.00217944 0.00143169 2.29659e-20)
(0.00258145 0.00148616 -1.75778e-26)
(0.00299699 0.00142775 -2.13323e-21)
(0.0031936 0.00114991 1.86762e-26)
(0.00294754 0.000732602 1.27685e-18)
(0.00241762 0.000375406 1.5054e-18)
(0.00181368 0.000150896 -1.75115e-21)
(0.00128479 4.2131e-05 -1.52819e-26)
(0.000922133 3.76427e-06 6.72094e-24)
(0.00073106 -2.84049e-06 -2.65681e-23)
(0.00115109 2.713e-06 -2.69631e-26)
(0.00135142 -1.79406e-06 -1.22554e-24)
(0.0013534 -3.41415e-05 0)
(0.00109148 -7.62901e-05 -1.00264e-26)
(0.000562159 -7.25634e-05 6.37093e-19)
(-6.27459e-06 1.17797e-05 4.60682e-19)
(-0.000335745 0.000125194 5.75856e-21)
(-0.000408216 0.00019538 1.17151e-18)
(-0.00036739 0.000211077 5.9937e-19)
(-0.000304517 0.000199397 5.7375e-19)
(-0.000257056 0.000184946 5.77725e-19)
(-0.000216386 0.000166476 1.42222e-26)
(-0.000186296 0.000150362 1.50476e-20)
(-0.000161604 0.000134684 1.53703e-20)
(-0.000141959 0.000120559 1.78143e-18)
(-0.00012503 0.000106867 1.21609e-18)
(-0.000111584 9.48819e-05 -6.26559e-19)
(-0.000101785 8.53314e-05 0)
(-9.52738e-05 7.86948e-05 1.76196e-20)
(-9.08013e-05 7.39928e-05 -1.80882e-20)
(-8.85734e-05 7.13148e-05 -2.82129e-25)
(-8.84595e-05 7.04795e-05 0)
(-9.04737e-05 7.14499e-05 3.80853e-25)
(-9.47308e-05 7.4261e-05 1.97752e-20)
(-0.000101063 7.87721e-05 0)
(-0.000109382 8.4882e-05 6.27774e-25)
(-0.000118947 9.20054e-05 -8.26088e-19)
(-0.000128825 9.90834e-05 -8.19298e-19)
(-0.000138937 0.000105671 6.64692e-25)
(-0.000149081 0.000111444 -1.30176e-24)
(-0.00015886 0.000115957 6.92777e-25)
(-0.000167861 0.00011878 0)
(-0.00017563 0.000119502 0)
(-0.000181711 0.000117776 2.47052e-20)
(-0.000185844 0.00011345 -2.54589e-20)
(-0.000188241 0.000106821 7.98739e-25)
(-0.000189904 9.8905e-05 0)
(-0.000190308 8.99847e-05 1.39088e-20)
(-0.000188853 8.00093e-05 -2.90688e-18)
(-0.000185184 6.91391e-05 -3.02541e-18)
(-0.000180272 5.80454e-05 2.98573e-20)
(-0.000173066 4.67037e-05 1.68743e-18)
(-0.000167881 3.64077e-05 3.41854e-18)
(-0.0001609 2.63701e-05 1.75619e-18)
(-0.000165563 1.82409e-05 -3.50216e-18)
(-0.000166483 9.81595e-06 -3.51521e-18)
(-0.000213894 3.45716e-06 -9.53548e-25)
(-0.000288792 2.18589e-06 9.49382e-25)
(-0.000344448 1.9369e-06 1.75194e-18)
(-0.000402801 1.81159e-06 5.25548e-18)
(-0.0004518 1.63262e-06 3.5042e-18)
(-0.000498837 1.49397e-06 -9.59242e-25)
(-0.000539936 1.34993e-06 1.77642e-18)
(-0.00057817 1.22997e-06 1.78558e-18)
(-0.000612305 1.11688e-06 -1.79428e-18)
(-0.000643743 1.01954e-06 -5.45116e-18)
(-0.000672179 9.30398e-07 -2.80752e-21)
(-0.000698306 8.51744e-07 3.70728e-18)
(-0.000722119 7.79936e-07 2.37633e-34)
(-0.000743987 7.15204e-07 3.80952e-18)
(-0.000763985 6.55631e-07 1.92635e-18)
(-0.000782325 6.00882e-07 -1.96111e-18)
(-0.000799092 5.49874e-07 -1.07182e-24)
(-0.000814416 5.02207e-07 2.01818e-18)
(-0.000828367 4.57247e-07 2.04736e-18)
(-0.000841032 4.14678e-07 2.63708e-34)
(-0.000852468 3.74135e-07 0)
(-0.000862737 3.35412e-07 0)
(-0.000871885 2.98295e-07 1.38692e-34)
(-0.00087996 2.62631e-07 0)
(-0.000887001 2.28258e-07 4.54664e-18)
(-0.000893046 1.95045e-07 -5.68859e-21)
(-0.000898126 1.62874e-07 -9.41292e-18)
(-0.00090227 1.31654e-07 -4.78768e-18)
(-0.000905506 1.01309e-07 -2.44351e-18)
(-0.00090786 7.17871e-08 2.476e-18)
(-0.000909354 4.30503e-08 5.05417e-18)
(-0.000910011 1.50798e-08 5.14394e-18)
(-0.000909856 -1.21335e-08 5.23007e-18)
(-0.000908909 -3.85957e-08 7.29054e-25)
(-0.000907194 -6.43063e-08 -2.70546e-18)
(-0.000904732 -8.92684e-08 -2.75024e-18)
(-0.000901546 -1.13475e-07 0)
(-0.000897659 -1.36912e-07 -7.80649e-25)
(-0.000893093 -1.59576e-07 7.80565e-25)
(-0.000887872 -1.81451e-07 0)
(-0.00088202 -2.02517e-07 -4.1015e-25)
(-0.000875561 -2.22765e-07 4.10107e-25)
(-0.000868518 -2.42179e-07 -3.10152e-18)
(-0.000860918 -2.60744e-07 -3.1495e-18)
(-0.000852785 -2.78455e-07 6.38995e-18)
(-0.000844145 -2.95308e-07 6.48653e-18)
(-0.000835022 -3.11309e-07 4.50344e-25)
(-0.000825443 -3.26468e-07 -2.21847e-25)
(-0.000815431 -3.40791e-07 -2.28568e-25)
(-0.000805011 -3.54298e-07 2.35247e-25)
(-0.000794208 -3.67002e-07 3.49761e-18)
(-0.000783044 -3.78917e-07 3.54648e-18)
(-0.000771542 -3.9006e-07 -6.13131e-26)
(-0.000759725 -4.00447e-07 6.13301e-26)
(-0.000747615 -4.10091e-07 -7.58672e-30)
(-0.000735234 -4.19008e-07 0)
(-0.000722603 -4.27207e-07 -3.79023e-18)
(-0.000709743 -4.34696e-07 -3.83873e-18)
(-0.000696674 -4.4148e-07 0)
(-0.000683418 -4.47564e-07 0)
(-0.000669996 -4.52947e-07 0)
(-0.000656427 -4.57638e-07 5.48786e-25)
(-0.000642732 -4.61643e-07 -5.48873e-25)
(-0.000628932 -4.64976e-07 0)
(-0.000615045 -4.67652e-07 -4.16428e-18)
(-0.00060109 -4.69691e-07 4.21141e-18)
(-0.000587087 -4.71112e-07 8.50798e-18)
(-0.000573052 -4.71938e-07 -4.29822e-18)
(-0.000559004 -4.72189e-07 -8.68674e-18)
(-0.000544959 -4.71887e-07 -4.38829e-18)
(-0.000530932 -4.71053e-07 8.84139e-18)
(-0.00051694 -4.69709e-07 1.78657e-17)
(-0.000502996 -4.67876e-07 9.00994e-18)
(-0.000489115 -4.65578e-07 -1.22912e-24)
(-0.000475311 -4.62837e-07 0)
(-0.000461596 -4.59678e-07 -9.2559e-18)
(-0.000447981 -4.56122e-07 -9.34509e-18)
(-0.00043448 -4.52194e-07 -9.42473e-18)
(-0.000421101 -4.47909e-07 -4.73858e-18)
(-0.000407855 -4.43281e-07 4.79884e-18)
(-0.000394754 -4.38309e-07 9.64713e-18)
(-0.000381806 -4.3299e-07 1.94567e-17)
(-0.000369022 -4.27301e-07 9.80918e-18)
(-0.000356415 -4.21238e-07 2.67137e-24)
(-0.000343993 -4.14766e-07 -4.98021e-18)
(-0.000331773 -4.0789e-07 -5.02298e-18)
(-0.00031976 -4.00564e-07 2.74938e-24)
(-0.00030798 -3.92823e-07 -2.74944e-24)
(-0.000296427 -3.8459e-07 0)
(-0.000285142 -3.7593e-07 0)
(-0.000274102 -3.66695e-07 -2.82372e-24)
(-0.000263374 -3.56996e-07 -1.79297e-26)
(-0.000252905 -3.46547e-07 5.25531e-18)
(-0.000242812 -3.35542e-07 5.29675e-18)
(-0.000232985 -3.23454e-07 -2.89443e-24)
(-0.000223637 -3.10636e-07 2.89443e-24)
(-0.000214544 -2.96131e-07 -1.07468e-17)
(-0.000206105 -2.80601e-07 -2.03161e-20)
(-0.000197884 -2.62356e-07 1.08899e-17)
(-0.000190611 -2.42625e-07 5.93919e-24)
(-0.000183465 -2.18543e-07 -2.97784e-24)
(-0.00017777 -1.92272e-07 3.00963e-24)
(-0.000172001 -1.59574e-07 1.56037e-26)
(-0.000168509 -1.23523e-07 -6.0663e-24)
(-0.00016455 -8.21391e-08 -1.52768e-26)
(-0.000163972 -3.75789e-08 6.12757e-24)
(-0.000162089 -3.52646e-08 -3.0716e-24)
(-0.000162486 -1.00666e-06 1.58433e-21)
(-0.000163562 -8.91027e-06 1.14116e-17)
(-0.000162692 -1.7858e-05 1.13838e-17)
(-0.000162557 -2.67773e-05 -3.05702e-26)
(-0.000158033 -3.46649e-05 -5.07655e-20)
(-0.000152207 -4.15655e-05 -6.13535e-24)
(-0.000142505 -4.64205e-05 -6.10275e-24)
(-0.000130757 -4.94292e-05 -4.92287e-20)
(-0.000115438 -4.95831e-05 -9.90362e-18)
(-9.76123e-05 -4.69109e-05 -9.48375e-18)
(-7.61961e-05 -4.05359e-05 4.68502e-20)
(-5.16661e-05 -3.03084e-05 9.19026e-20)
(-2.2696e-05 -1.50515e-05 -2.7424e-24)
(1.07927e-05 5.58994e-06 0)
(4.85317e-05 3.13744e-05 -2.65385e-24)
(9.08209e-05 6.23374e-05 2.59629e-24)