/*--------------------------------*- C++ -*----------------------------------*\
| =========                 |                                                 |
| \\      /  F ield         | OpenFOAM: The Open Source CFD Toolbox           |
|  \\    /   O peration     | Version:  2.4.0                                 |
|   \\  /    A nd           | Web:      www.OpenFOAM.org                      |
|    \\/     M anipulation  |                                                 |
\*---------------------------------------------------------------------------*/
FoamFile
{
    version     2.0;
    format      ascii;
    class       volScalarField;
    location    "30";
    object      nut;
}
// * * * * * * * * * * * * * * * * * * * * * * * * * * * * * * * * * * * * * //

dimensions      [0 2 -1 0 0 0 0];

internalField   nonuniform List<scalar> 
19475
(
7.9910187e-16
3.4943876e-12
2.3773717e-13
2.1582863e-12
4.7881323e-13
1.2449881e-12
3.1914854e-13
5.3480875e-13
9.9928727e-14
1.9173627e-13
5.1073305e-14
1.1417163e-13
5.5831667e-14
8.6944278e-14
5.5367536e-14
6.8916337e-14
5.1206175e-14
5.7440845e-14
4.8485307e-14
5.3780298e-14
5.2407344e-14
6.1087824e-14
6.843865e-14
8.7085677e-14
1.1130058e-13
1.4977827e-13
1.9991818e-13
2.6926241e-13
3.5566219e-13
4.6378046e-13
5.916073e-13
7.3523193e-13
8.874313e-13
1.0311634e-12
1.1564398e-12
1.2419543e-12
1.2623949e-12
1.2116485e-12
1.0902551e-12
9.0951799e-13
2.2327526e-11
2.1309412e-11
2.0280859e-11
1.9246199e-11
1.8210261e-11
1.7177453e-11
1.6152557e-11
1.5140072e-11
1.4144504e-11
1.3170173e-11
1.2221124e-11
1.1301239e-11
1.0413988e-11
9.562534e-12
8.7496124e-12
7.9775499e-12
7.2481917e-12
6.5629539e-12
5.9227457e-12
5.3280895e-12
4.7789533e-12
4.2749701e-12
3.8151973e-12
3.398534e-12
3.0232079e-12
2.6873264e-12
2.3883146e-12
2.1238099e-12
1.8904697e-12
1.6855749e-12
1.5052965e-12
1.3468459e-12
1.2061364e-12
1.0816123e-12
9.7077574e-13
8.7328586e-13
7.8543156e-13
7.0778626e-13
6.3594617e-13
5.7257835e-13
5.124378e-13
4.6149787e-13
4.1162589e-13
3.7253947e-13
3.3495082e-13
3.0152564e-13
2.9036379e-13
2.9697588e-13
3.1426992e-13
3.3486497e-13
3.5994328e-13
3.8176097e-13
3.9831039e-13
4.0125666e-13
3.8560564e-13
3.4579712e-13
2.8324733e-13
2.0457012e-13
1.2206111e-13
5.1741495e-14
8.621417e-15
4.5239774e-15
4.0468888e-14
1.1362369e-13
2.2186081e-13
3.6150971e-13
5.2961026e-13
7.2400807e-13
9.4201751e-13
1.1823698e-12
1.4408718e-12
1.7155215e-12
1.9925485e-12
2.2557966e-12
2.5131427e-12
2.7703528e-12
3.0293557e-12
3.2948651e-12
3.5694394e-12
3.8586476e-12
4.1681472e-12
4.5098208e-12
4.890182e-12
5.3395597e-12
5.8720168e-12
6.59101e-12
7.5805849e-12
8.7976436e-12
1.0278542e-11
1.209561e-11
1.4351192e-11
1.7175804e-11
2.0748222e-11
2.5299938e-11
3.10723e-11
3.7910926e-11
4.5475167e-11
5.154817e-11
5.3044951e-11
4.2411064e-11
2.5983756e-11
1.0273579e-11
3.4253418e-12
4.9858693e-15
1.1565068e-14
3.3102704e-12
1.6042477e-16
4.4746567e-12
7.7860155e-14
3.4726311e-12
5.3307909e-13
2.3577724e-12
8.1798824e-13
1.4113843e-12
2.4525762e-13
5.3619787e-13
1.0646097e-13
1.8525425e-13
5.2552085e-14
1.1079918e-13
5.670914e-14
8.6447003e-14
5.8623998e-14
7.2748676e-14
5.8286844e-14
6.5789877e-14
6.004245e-14
6.8057291e-14
7.1719084e-14
8.6291207e-14
1.0244155e-13
1.3249936e-13
1.7301455e-13
2.3310463e-13
3.1237681e-13
4.1968572e-13
5.5499524e-13
7.2596283e-13
1.6589406e-12
2.1266063e-12
2.714049e-12
1.6311966e-12
1.924688e-12
2.2148414e-12
2.472498e-12
2.6940411e-12
2.8701309e-12
2.9975578e-12
2.1928486e-11
2.0913729e-11
1.9891652e-11
1.886631e-11
1.7842069e-11
1.6823074e-11
1.5813645e-11
1.4818003e-11
1.384023e-11
1.2884359e-11
1.1954073e-11
1.1052978e-11
1.0184246e-11
9.3507913e-12
8.5551104e-12
7.7993419e-12
7.0851646e-12
6.4138718e-12
5.7862909e-12
5.2029066e-12
4.663673e-12
4.1682343e-12
3.7157124e-12
3.3051108e-12
2.9347762e-12
2.6029617e-12
2.3072573e-12
2.0454833e-12
1.8145871e-12
1.6149251e-12
1.4381647e-12
1.2821393e-12
1.1442508e-12
1.0231095e-12
9.1606342e-13
8.2251813e-13
7.3870418e-13
6.6504789e-13
5.9720751e-13
5.3761814e-13
4.812447e-13
4.3380426e-13
3.8809009e-13
3.5310672e-13
3.199941e-13
2.9057342e-13
2.8344615e-13
2.9403345e-13
3.1568567e-13
3.416944e-13
3.7358107e-13
4.0445325e-13
4.3246561e-13
4.4952752e-13
4.5022339e-13
4.2839455e-13
4.5013095e-13
4.2124388e-13
2.3448942e-13
1.763022e-13
1.358351e-13
1.266009e-13
1.51553e-13
1.1542437e-13
3.2066683e-13
4.4706226e-13
5.9855112e-13
7.7503527e-13
9.7420272e-13
1.1948794e-12
1.4331026e-12
1.6868045e-12
1.9424524e-12
2.1849839e-12
2.4226714e-12
2.7390048e-12
2.8448866e-12
3.1574708e-12
3.4130884e-12
3.6831471e-12
3.9725111e-12
4.2924102e-12
4.6490174e-12
5.0709598e-12
5.5716607e-12
6.248815e-12
7.1816805e-12
8.3293483e-12
9.7256289e-12
1.1438888e-11
1.3565726e-11
1.6229357e-11
1.9598419e-11
2.3890926e-11
2.9332591e-11
3.5777109e-11
4.2898172e-11
4.8609806e-11
4.999394e-11
3.9996111e-11
2.4536915e-11
9.7757638e-12
3.2863896e-12
6.1631131e-14
3.3781045e-14
3.1314903e-12
1.414134e-14
4.2323165e-12
1.7017189e-12
7.259258e-12
7.3981355e-12
8.9873026e-12
9.2475871e-12
6.2680575e-12
6.8184704e-13
1.2112575e-12
3.5168711e-13
2.8393404e-13
1.4176742e-13
1.8057095e-13
1.4075252e-13
1.8122149e-13
1.9014936e-13
2.328849e-13
2.6212671e-13
3.0321744e-13
3.5119999e-13
4.2081687e-13
5.2440627e-13
6.6871758e-13
8.722177e-13
1.156578e-12
1.5590387e-12
2.1047932e-12
2.8378681e-12
3.7990942e-12
5.031986e-12
6.6038785e-12
2.3307294e-11
3.043484e-11
4.004698e-11
1.699417e-11
2.1212849e-11
2.6041196e-11
3.1351958e-11
3.7178601e-11
4.3306657e-11
4.945656e-11
4.0891099e-11
3.8716554e-11
3.6584638e-11
3.4499053e-11
3.2460667e-11
3.0473637e-11
2.8538723e-11
2.6659995e-11
2.4838461e-11
2.3077573e-11
2.137862e-11
1.9744318e-11
1.8176119e-11
1.6675732e-11
1.5244168e-11
1.3882619e-11
1.2591671e-11
1.1371881e-11
1.0223554e-11
9.1470775e-12
8.1421114e-12
7.2081059e-12
6.3443724e-12
5.5507068e-12
4.8257302e-12
4.168363e-12
3.5764246e-12
3.0485737e-12
2.5835547e-12
2.2485406e-12
1.926282e-12
1.6236177e-12
1.3683773e-12
1.1615959e-12
9.9446788e-13
8.6073503e-13
7.5079759e-13
6.6264445e-13
5.8790066e-13
5.2745141e-13
4.7407856e-13
4.3565628e-13
4.1397816e-13
4.1539784e-13
4.2795862e-13
4.3644186e-13
4.9717012e-13
5.9575345e-13
7.259694e-13
8.8584336e-13
1.0852773e-12
1.3253169e-12
1.6051029e-12
1.911559e-12
2.2247264e-12
2.5150289e-12
3.8945183e-12
4.596419e-12
2.9451186e-12
2.9510032e-12
2.8477175e-12
2.7143369e-12
2.6072691e-12
7.790689e-13
2.55984e-12
2.5892521e-12
2.6050583e-12
2.6518876e-12
2.7315945e-12
2.8434871e-12
2.9831899e-12
3.1454683e-12
3.3057791e-12
3.4502903e-12
3.598824e-12
4.6925923e-12
3.5611379e-12
4.3522336e-12
4.5692299e-12
4.7991915e-12
5.0520327e-12
5.3401499e-12
5.6695536e-12
6.0708954e-12
6.556885e-12
7.2305952e-12
8.1876001e-12
9.3767679e-12
1.0822392e-11
1.2595504e-11
1.4798581e-11
1.7562536e-11
2.1064953e-11
2.5532592e-11
3.1190474e-11
3.7899652e-11
4.5290033e-11
5.1319763e-11
5.2807929e-11
4.322908e-11
2.7407301e-11
1.2524232e-11
4.7195924e-12
1.2902075e-12
5.2272414e-13
3.5339069e-12
3.0544407e-13
4.7681813e-12
1.3837216e-11
3.7061168e-11
5.8865728e-11
5.8738687e-11
7.2558961e-11
4.2479793e-11
4.1880145e-12
6.5152359e-12
2.2089382e-12
1.1234228e-12
8.2465663e-13
7.6018226e-13
7.8841537e-13
9.2611502e-13
1.183863e-12
1.4439726e-12
1.7817071e-12
2.0720803e-12
2.5068318e-12
3.029159e-12
3.8610551e-12
4.9574644e-12
6.5333123e-12
8.6854951e-12
1.1747234e-11
1.5862943e-11
2.1403007e-11
2.8642723e-11
3.7956888e-11
5.0087436e-11
1.8992617e-10
2.4778846e-10
3.2479527e-10
1.3180568e-10
1.6595996e-10
2.0474398e-10
2.4784066e-10
2.9555193e-10
3.4613654e-10
3.972446e-10
1.9308821e-10
1.8182615e-10
1.7096441e-10
1.6050677e-10
1.5043151e-10
1.4074556e-10
1.3142666e-10
1.2248052e-10
1.1388847e-10
1.0565241e-10
9.7758648e-11
9.0205817e-11
8.298497e-11
7.6090997e-11
6.9515779e-11
6.3255045e-11
5.7302608e-11
5.1654536e-11
4.6307961e-11
4.12629e-11
3.6516901e-11
3.2067815e-11
2.7915809e-11
2.4065838e-11
2.0517485e-11
1.7273421e-11
1.4331608e-11
1.1695418e-11
9.3670037e-12
7.5569562e-12
5.9006913e-12
4.4558326e-12
3.3136031e-12
2.4590552e-12
1.8320834e-12
1.3843831e-12
1.063389e-12
8.5129063e-13
7.0718231e-13
6.2186248e-13
5.7247826e-13
5.8165403e-13
7.1618946e-13
9.6564816e-13
1.307111e-12
1.6884583e-12
2.2386384e-12
2.9848334e-12
3.9197607e-12
5.0716711e-12
6.5126194e-12
8.2969941e-12
1.0429821e-11
1.2856258e-11
1.5446342e-11
1.7976884e-11
2.9566569e-11
3.4580757e-11
2.332431e-11
2.3743814e-11
2.3139601e-11
2.2071165e-11
2.1062954e-11
5.7274851e-12
1.899121e-11
1.8461203e-11
1.7586833e-11
1.6803803e-11
1.6142849e-11
1.5605964e-11
1.5183048e-11
1.4844328e-11
1.4476869e-11
1.4066405e-11
1.3708608e-11
1.835528e-11
1.0948197e-11
1.3788471e-11
1.3792689e-11
1.3807176e-11
1.3881338e-11
1.403584e-11
1.4275762e-11
1.4653929e-11
1.5180253e-11
1.6024333e-11
1.7425161e-11
1.9241457e-11
2.1443726e-11
2.4140304e-11
2.7503561e-11
3.175471e-11
3.7183804e-11
4.4144326e-11
5.2928893e-11
6.3412761e-11
7.4838047e-11
8.4871945e-11
8.7662244e-11
7.8143392e-11
5.513972e-11
3.5065607e-11
1.7269773e-11
1.0479039e-11
4.1787922e-12
7.3299266e-12
2.4779216e-12
9.8426019e-12
6.6600299e-11
1.6578502e-10
2.8275233e-10
2.7281663e-10
3.4806211e-10
1.9804101e-10
1.9593982e-11
2.9595725e-11
1.0236549e-11
4.7809011e-12
3.7708913e-12
3.2759744e-12
3.5818262e-12
4.1424639e-12
5.4606192e-12
6.6566652e-12
8.3154193e-12
9.6772789e-12
1.1769452e-11
1.4233714e-11
1.8188131e-11
2.3368855e-11
3.0832585e-11
4.0998508e-11
5.5475245e-11
7.4911955e-11
1.0108779e-10
1.3527777e-10
1.7933354e-10
2.3804655e-10
8.9483597e-10
1.1605422e-09
1.5092467e-09
6.2807945e-10
7.9505621e-10
9.8138309e-10
1.1888013e-09
1.4187122e-09
1.662768e-09
1.9095654e-09
8.5115667e-10
8.0073745e-10
7.5224341e-10
7.0567991e-10
6.6092962e-10
6.1801277e-10
5.7680959e-10
5.3733427e-10
4.9948513e-10
4.6325875e-10
4.2857842e-10
3.9542659e-10
3.6375088e-10
3.3351809e-10
3.0468188e-10
2.7721546e-10
2.510844e-10
2.2626624e-10
2.0274507e-10
1.805198e-10
1.5957919e-10
1.3991448e-10
1.2152962e-10
1.0445176e-10
8.8684462e-11
7.4246327e-11
6.1135611e-11
4.9375603e-11
3.8977762e-11
3.0601391e-11
2.312749e-11
1.6782697e-11
1.1844521e-11
8.2148643e-12
5.6129437e-12
3.8117203e-12
2.5755668e-12
1.7716499e-12
1.2830159e-12
1.0837825e-12
1.0460361e-12
1.3092516e-12
2.0924201e-12
3.3815873e-12
5.1115056e-12
7.1366676e-12
9.7884011e-12
1.3319986e-11
1.7718676e-11
2.3141477e-11
2.9928363e-11
3.8361143e-11
4.8469139e-11
6.0014899e-11
7.2392176e-11
8.4458229e-11
1.3750759e-10
1.5785947e-10
1.1214445e-10
1.1425591e-10
1.114402e-10
1.0628765e-10
1.0160847e-10
2.8136044e-11
8.9361218e-11
8.6710948e-11
8.2051467e-11
7.7747421e-11
7.3954803e-11
7.068625e-11
6.7905817e-11
6.5476034e-11
6.2902334e-11
6.0169025e-11
5.7641221e-11
7.6270911e-11
4.3539157e-11
5.4439551e-11
5.3647427e-11
5.281517e-11
5.2204647e-11
5.1873911e-11
5.1825028e-11
5.2211351e-11
5.3034472e-11
5.4770218e-11
5.8281024e-11
6.3024374e-11
6.8769838e-11
7.5786865e-11
8.4570692e-11
9.5752934e-11
1.1013686e-10
1.2865784e-10
1.5194257e-10
1.7987739e-10
2.0998695e-10
2.3818512e-10
2.4665305e-10
2.3485665e-10
1.7787586e-10
1.3254412e-10
7.1841562e-11
5.0428707e-11
2.0074757e-11
2.4161873e-11
1.1921269e-11
3.2337383e-11
2.3391133e-10
5.711386e-10
9.9314026e-10
9.4678261e-10
1.2225582e-09
6.8740156e-10
7.267571e-11
1.0282624e-10
3.5623097e-11
1.6347713e-11
1.3061481e-11
1.1213389e-11
1.2384166e-11
1.4274784e-11
1.8926422e-11
2.3068447e-11
2.8885762e-11
3.3620116e-11
4.0925587e-11
4.9494132e-11
6.3265055e-11
8.1285476e-11
1.0726345e-10
1.4262141e-10
1.9299522e-10
2.6060435e-10
3.5167717e-10
4.7061952e-10
6.2407779e-10
8.3280609e-10
2.8900048e-09
3.7142773e-09
4.7950553e-09
2.1928411e-09
2.7888985e-09
3.4427914e-09
4.1713813e-09
4.9797126e-09
5.8382039e-09
6.7066699e-09
2.9204957e-09
2.747374e-09
2.5809175e-09
2.4211392e-09
2.2676236e-09
2.1204354e-09
1.9791515e-09
1.8438155e-09
1.7140679e-09
1.5898916e-09
1.4710149e-09
1.3573727e-09
1.2487791e-09
1.1451158e-09
1.0462191e-09
9.5199403e-10
8.6232039e-10
7.7711996e-10
6.9633846e-10
6.1997359e-10
5.4798842e-10
4.803554e-10
4.1709235e-10
3.5829777e-10
3.0398936e-10
2.5423702e-10
2.0904127e-10
1.6848908e-10
1.3261175e-10
1.0314994e-10
7.7225113e-11
5.5497134e-11
3.8664683e-11
2.6341035e-11
1.7550125e-11
1.150509e-11
7.397243e-12
4.7207291e-12
3.1437553e-12
2.5831385e-12
2.5735933e-12
3.6345446e-12
6.4341747e-12
1.0961408e-11
1.7029433e-11
2.4330371e-11
3.3604391e-11
4.5915098e-11
6.1233934e-11
8.0124756e-11
1.037737e-10
1.3317825e-10
1.684422e-10
2.0874769e-10
2.519802e-10
2.9386447e-10
4.5828204e-10
5.2293427e-10
3.9442706e-10
4.0168603e-10
3.9177104e-10
3.7360188e-10
3.5773776e-10
1.0660073e-10
3.1047307e-10
3.0165252e-10
2.8509475e-10
2.6972017e-10
2.560889e-10
2.4424419e-10
2.3406648e-10
2.250733e-10
2.1557033e-10
2.0555154e-10
1.9605398e-10
2.5400568e-10
1.4756068e-10
1.8147095e-10
1.7836714e-10
1.7492664e-10
1.722147e-10
1.7041057e-10
1.6950713e-10
1.699738e-10
1.7179047e-10
1.7640214e-10
1.866137e-10
2.0058378e-10
2.1752761e-10
2.3817792e-10
2.6405549e-10
2.9707414e-10
3.3963691e-10
3.9447593e-10
4.6322756e-10
5.4572285e-10
6.3406886e-10
7.1848614e-10
7.4400825e-10
7.2406781e-10
5.6084136e-10
4.3642432e-10
2.4355638e-10
1.7711452e-10
7.0495643e-11
7.7064201e-11
4.1870382e-11
1.0294427e-10
6.6738245e-10
1.6159368e-09
2.835468e-09
2.6849063e-09
3.4917688e-09
1.9495195e-09
2.3127047e-10
2.9293905e-10
1.0141258e-10
4.6288639e-11
3.706505e-11
3.171618e-11
3.5111824e-11
4.0424758e-11
5.3674681e-11
6.5413113e-11
8.1964405e-11
9.5396506e-11
1.1614503e-10
1.4043943e-10
1.7950496e-10
2.3060421e-10
3.0428846e-10
4.0454111e-10
5.4740693e-10
7.3911898e-10
9.9740639e-10
1.3347186e-09
1.7703512e-09
2.3717176e-09
7.1669918e-09
9.1262131e-09
1.1733834e-08
6.2297919e-09
7.9529157e-09
9.8178955e-09
1.1896765e-08
1.4206617e-08
1.6660414e-08
1.9143615e-08
8.2357167e-09
7.7492578e-09
7.2814096e-09
6.8322155e-09
6.4005035e-09
5.9864639e-09
5.5889055e-09
5.2079599e-09
4.8426165e-09
4.4928369e-09
4.1578604e-09
3.837512e-09
3.5312768e-09
3.2388308e-09
2.9597196e-09
2.6936849e-09
2.4403983e-09
2.1996496e-09
1.9712971e-09
1.7553458e-09
1.5517019e-09
1.3602987e-09
1.1811989e-09
1.0146928e-09
8.6084198e-10
7.1985507e-10
5.9174497e-10
4.767684e-10
3.7499299e-10
2.9038083e-10
2.1658391e-10
1.552035e-10
1.0774861e-10
7.3046034e-11
4.8323922e-11
3.1354171e-11
1.9853333e-11
1.2331442e-11
7.9441782e-12
6.4528281e-12
6.5091252e-12
9.6316624e-12
1.7596601e-11
3.0423456e-11
4.7629657e-11
6.8730724e-11
9.5107882e-11
1.3009261e-10
1.7362066e-10
2.2731156e-10
2.9454215e-10
3.7815764e-10
4.7844908e-10
5.9308996e-10
7.1605296e-10
8.3457123e-10
1.2251192e-09
1.4032888e-09
1.1275019e-09
1.1477912e-09
1.1192517e-09
1.0671605e-09
1.0224904e-09
3.3941581e-10
8.8082878e-10
8.5631059e-10
8.0905568e-10
7.6510259e-10
7.2607904e-10
6.9210274e-10
6.6283347e-10
6.3688413e-10
6.0946989e-10
5.8065596e-10
5.5286069e-10
6.9566465e-10
4.2186222e-10
5.0698241e-10
4.9822901e-10
4.8813418e-10
4.8004582e-10
4.7448015e-10
4.7140653e-10
4.7210344e-10
4.7650126e-10
4.8854104e-10
5.1597649e-10
5.5347635e-10
5.9908545e-10
6.5454019e-10
7.2401948e-10
8.126719e-10
9.2691326e-10
1.0739146e-09
1.2576792e-09
1.477614e-09
1.7118572e-09
1.9361716e-09
2.0023825e-09
1.9614798e-09
1.5314345e-09
1.20948e-09
6.8449395e-10
5.0525194e-10
2.0118949e-10
2.1300115e-10
1.1949596e-10
2.8397749e-10
1.6445281e-09
3.9621665e-09
6.9947314e-09
6.5922561e-09
8.6189774e-09
4.789896e-09
6.5884724e-10
7.2287961e-10
2.5009888e-10
1.1385673e-10
9.1145388e-11
7.7893012e-11
8.6293346e-11
9.9286086e-11
1.318846e-10
1.6070116e-10
2.0141534e-10
2.344054e-10
2.8538497e-10
3.4500746e-10
4.4091032e-10
5.6632432e-10
7.4717191e-10
9.9318353e-10
1.3438102e-09
1.8142488e-09
2.4481388e-09
3.2758597e-09
4.3458066e-09
5.8331342e-09
1.487788e-08
1.8815867e-08
2.4190106e-08
1.5310869e-08
1.9593059e-08
2.418827e-08
2.9311299e-08
3.5015133e-08
4.1075708e-08
4.7211438e-08
2.0097605e-08
1.8918433e-08
1.7783701e-08
1.669356e-08
1.5645186e-08
1.4639091e-08
1.3672408e-08
1.2745512e-08
1.1855983e-08
1.1003778e-08
1.0187092e-08
9.405552e-09
8.6579528e-09
7.9435599e-09
7.2613104e-09
6.6106232e-09
5.9907489e-09
5.4012229e-09
4.8417487e-09
4.3123848e-09
3.8129446e-09
3.343307e-09
2.9036678e-09
2.4947766e-09
2.1168202e-09
1.7703423e-09
1.455407e-09
1.1726714e-09
9.2226811e-10
7.1226064e-10
5.3020796e-10
3.7954871e-10
2.6319214e-10
1.7814e-10
1.1757486e-10
7.6026887e-11
4.7895424e-11
2.9436379e-11
1.8715138e-11
1.5130954e-11
1.5325494e-11
2.3090821e-11
4.2618388e-11
7.4031208e-11
1.1619941e-10
1.6867079e-10
2.3355814e-10
3.1959701e-10
4.2665393e-10
5.5873839e-10
7.241742e-10
9.2996763e-10
1.1768214e-09
1.4589935e-09
1.7616109e-09
2.0524151e-09
2.824147e-09
3.2607734e-09
2.7844494e-09
2.8339523e-09
2.7628674e-09
2.6337952e-09
2.5223607e-09
9.5029457e-10
2.1659279e-09
2.1041779e-09
1.9878041e-09
1.8794657e-09
1.7832391e-09
1.6993972e-09
1.6270947e-09
1.5628807e-09
1.4950245e-09
1.4238659e-09
1.3544905e-09
1.6449186e-09
1.0566013e-09
1.2350691e-09
1.2138674e-09
1.1888925e-09
1.1687297e-09
1.1547023e-09
1.1467348e-09
1.1479031e-09
1.1580343e-09
1.1866666e-09
1.2525296e-09
1.3419857e-09
1.4512509e-09
1.5836739e-09
1.7494427e-09
1.9607336e-09
2.2326256e-09
2.5816349e-09
3.0163061e-09
3.5342837e-09
4.0823341e-09
4.6049355e-09
4.7524036e-09
4.6657376e-09
3.6597489e-09
2.9155874e-09
1.6676337e-09
1.2440559e-09
4.9594786e-10
5.178083e-10
2.9460659e-10
6.8861056e-10
3.6349874e-09
8.7276193e-09
1.5485146e-08
1.4541027e-08
1.909723e-08
1.0584833e-08
1.7188222e-09
1.6024918e-09
5.5434915e-10
2.5189308e-10
2.0145788e-10
1.72051e-10
1.9066365e-10
2.1926449e-10
2.9129296e-10
3.5486456e-10
4.4482226e-10
5.1762009e-10
6.3015015e-10
7.6162107e-10
9.731449e-10
1.2497091e-09
1.6484133e-09
2.1907713e-09
2.9638221e-09
4.000815e-09
5.398207e-09
7.2222855e-09
9.5822549e-09
1.2857301e-08
2.7573982e-08
3.4749973e-08
4.4814973e-08
3.3812775e-08
4.3309105e-08
5.3468461e-08
6.479637e-08
7.7433169e-08
9.0872289e-08
1.0448174e-07
4.3955927e-08
4.1403146e-08
3.8944253e-08
3.6579742e-08
3.4303569e-08
3.2117022e-08
3.0013994e-08
2.7995473e-08
2.605634e-08
2.4196688e-08
2.2412736e-08
2.0703859e-08
1.9067603e-08
1.7502548e-08
1.6006531e-08
1.4578449e-08
1.3216836e-08
1.1920836e-08
1.0689962e-08
9.5244954e-09
8.4241653e-09
7.3888407e-09
6.4190842e-09
5.5166637e-09
4.6821007e-09
3.916689e-09
3.2206642e-09
2.5955541e-09
2.041618e-09
1.5739413e-09
1.1702663e-09
8.3736644e-10
5.8040051e-10
3.9259491e-10
2.5887956e-10
1.671742e-10
1.0511087e-10
6.4282758e-11
4.0617908e-11
3.2761408e-11
3.3217554e-11
5.0435631e-11
9.3418985e-11
1.6254915e-10
2.5538763e-10
3.7225666e-10
5.1563085e-10
7.0570915e-10
9.422488e-10
1.2341593e-09
1.599879e-09
2.0549011e-09
2.600752e-09
3.2246955e-09
3.8937693e-09
4.5357577e-09
5.8804477e-09
6.8429333e-09
6.1705547e-09
6.2801017e-09
6.1210999e-09
5.8340206e-09
5.5791825e-09
2.4008787e-09
4.7907087e-09
4.6452161e-09
4.3877479e-09
4.1479748e-09
3.9349786e-09
3.7493157e-09
3.589082e-09
3.4465786e-09
3.2959125e-09
3.1382634e-09
2.9840337e-09
3.4864212e-09
2.3890465e-09
2.7101268e-09
2.663046e-09
2.6078207e-09
2.5629889e-09
2.5315956e-09
2.5134907e-09
2.5153505e-09
2.5368086e-09
2.5987333e-09
2.7418412e-09
2.9343157e-09
3.1708379e-09
3.4562001e-09
3.8129186e-09
4.2667655e-09
4.8494923e-09
5.5949176e-09
6.5187953e-09
7.6131528e-09
8.7612434e-09
9.8475616e-09
1.0133523e-08
9.9565142e-09
7.8418222e-09
6.2973054e-09
3.6402223e-09
2.744054e-09
1.0964332e-09
1.1370288e-09
6.5167607e-10
1.5071376e-09
7.3888934e-09
1.7695454e-08
3.1543648e-08
2.9531427e-08
3.8945831e-08
2.1571006e-08
4.1600695e-09
3.270835e-09
1.1318239e-09
5.1342739e-10
4.1016081e-10
3.5013421e-10
3.8811043e-10
4.4614648e-10
5.9272211e-10
7.2188341e-10
9.0491849e-10
1.0528499e-09
1.2816108e-09
1.5485993e-09
1.9782562e-09
2.5399212e-09
3.3493491e-09
4.4503477e-09
6.0197504e-09
8.1243994e-09
1.0960544e-08
1.4660804e-08
1.9451118e-08
2.6034217e-08
4.7651331e-08
6.0017885e-08
7.7796133e-08
6.8786824e-08
8.805843e-08
1.087218e-07
1.3176751e-07
1.5751456e-07
1.8495147e-07
2.127364e-07
8.8227549e-08
8.3177004e-08
7.8305604e-08
7.3614807e-08
6.9092871e-08
6.4742854e-08
6.0552944e-08
5.652563e-08
5.265111e-08
4.8930093e-08
4.5355482e-08
4.1926543e-08
3.8638869e-08
3.5490133e-08
3.2476455e-08
2.9596093e-08
2.6846593e-08
2.4226691e-08
2.173586e-08
1.9375096e-08
1.7144244e-08
1.5043417e-08
1.3074116e-08
1.1240248e-08
9.5431739e-09
7.985778e-09
6.5687916e-09
5.2955274e-09
4.1665256e-09
3.2082461e-09
2.3836616e-09
1.7053017e-09
1.181773e-09
7.9914187e-10
5.2672241e-10
3.3991715e-10
2.1353412e-10
1.3023235e-10
8.1995357e-11
6.6024891e-11
6.6931513e-11
1.0197238e-10
1.8910528e-10
3.2926043e-10
5.1753957e-10
7.5672026e-10
1.0484564e-09
1.4350945e-09
1.9163034e-09
2.5103101e-09
3.2547361e-09
4.1811394e-09
5.2925893e-09
6.5630827e-09
7.9253702e-09
9.2324954e-09
1.1388475e-08
1.332763e-08
1.2582493e-08
1.280738e-08
1.2479919e-08
1.1892243e-08
1.1349441e-08
5.5618512e-09
9.7665767e-09
9.4427037e-09
8.9177182e-09
8.4288679e-09
7.9945544e-09
7.615815e-09
7.2886912e-09
6.9973924e-09
6.6891618e-09
6.3673645e-09
6.0535887e-09
6.8045676e-09
4.9782982e-09
5.4811505e-09
5.3823639e-09
5.2697989e-09
5.1779724e-09
5.1132681e-09
5.0753905e-09
5.0776839e-09
5.1194323e-09
5.242716e-09
5.5289647e-09
5.9089209e-09
6.3797552e-09
6.944301e-09
7.6486464e-09
8.5424977e-09
9.6867697e-09
1.1144061e-08
1.2939126e-08
1.5049082e-08
1.7238843e-08
1.9288782e-08
1.9774818e-08
1.9429545e-08
1.5366207e-08
1.2446299e-08
7.2805761e-09
5.5532327e-09
2.2278621e-09
2.3041453e-09
1.3260178e-09
3.0418604e-09
1.4051661e-08
3.3588783e-08
6.0153716e-08
5.6171863e-08
7.4379227e-08
4.1229397e-08
9.4183073e-09
6.2538293e-09
2.165316e-09
9.8059944e-10
7.8244837e-10
6.677156e-10
7.4037342e-10
8.5077678e-10
1.130273e-09
1.376122e-09
1.7250239e-09
2.0066275e-09
2.4423304e-09
2.9502959e-09
3.7679326e-09
4.8365426e-09
6.3759586e-09
8.4694462e-09
1.1453784e-08
1.5454416e-08
2.0845171e-08
2.7873648e-08
3.6974482e-08
4.9277161e-08
7.8865793e-08
9.948525e-08
1.2972897e-07
1.3110848e-07
1.6754754e-07
2.068839e-07
2.5077462e-07
2.9984385e-07
3.5231896e-07
4.0543977e-07
1.6522429e-07
1.559476e-07
1.4698348e-07
1.383358e-07
1.299835e-07
1.2193346e-07
1.1416465e-07
1.0668294e-07
9.9471141e-08
9.2531847e-08
8.585297e-08
7.9434427e-08
7.3269227e-08
6.7354306e-08
6.1683556e-08
5.6254883e-08
5.1064903e-08
4.6112379e-08
4.1397455e-08
3.6923075e-08
3.268993e-08
2.8699173e-08
2.4954546e-08
2.1464268e-08
1.8231664e-08
1.5262862e-08
1.2559866e-08
1.012949e-08
7.9729355e-09
6.1343407e-09
4.5557086e-09
3.2591551e-09
2.2584417e-09
1.5269567e-09
1.0061511e-09
6.4905616e-10
4.0753439e-10
2.4811241e-10
1.5581832e-10
1.2527189e-10
1.2688699e-10
1.9355954e-10
3.5904672e-10
6.2532486e-10
9.8315614e-10
1.4408662e-09
1.9970319e-09
2.7336338e-09
3.6505281e-09
4.7826468e-09
6.201925e-09
7.9686079e-09
1.008852e-08
1.2511982e-08
1.5110517e-08
1.7606665e-08
2.0895524e-08
2.4527593e-08
2.4022326e-08
2.4456649e-08
2.3824782e-08
2.2698154e-08
2.1609203e-08
1.194739e-08
1.865882e-08
1.7979065e-08
1.6975047e-08
1.6040667e-08
1.5210349e-08
1.4485884e-08
1.3859568e-08
1.3301217e-08
1.2709664e-08
1.2093412e-08
1.1498058e-08
1.2466099e-08
9.69873e-09
1.0384389e-08
1.0186116e-08
9.970377e-09
9.7936849e-09
9.6682157e-09
9.5933925e-09
9.5941664e-09
9.669167e-09
9.8978213e-09
1.0432266e-08
1.1129721e-08
1.2003932e-08
1.3043448e-08
1.4337183e-08
1.597371e-08
1.806069e-08
2.0704716e-08
2.393717e-08
2.7700878e-08
3.1555344e-08
3.5115133e-08
3.5834457e-08
3.5185207e-08
2.7941247e-08
2.2844565e-08
1.3546348e-08
1.0475879e-08
4.2302308e-09
4.3775205e-09
2.5249828e-09
5.7523833e-09
2.5308948e-08
6.0424326e-08
1.0872978e-07
1.013082e-07
1.3469486e-07
7.478372e-08
2.0057773e-08
1.1342046e-08
3.929733e-09
1.776541e-09
1.4159075e-09
1.2079753e-09
1.3399986e-09
1.5393221e-09
2.0449496e-09
2.4887844e-09
3.1196168e-09
3.628015e-09
4.4151594e-09
5.331818e-09
6.8076198e-09
8.7358874e-09
1.1512673e-08
1.5287319e-08
2.0668137e-08
2.7878309e-08
3.7592155e-08
5.0248498e-08
6.6627668e-08
8.830736e-08
1.2696405e-07
1.6060618e-07
2.107179e-07
2.3694541e-07
3.0200969e-07
3.7296505e-07
4.5219938e-07
5.4073253e-07
6.3592609e-07
7.3220881e-07
2.921584e-07
2.7616105e-07
2.6066577e-07
2.4568183e-07
2.3117397e-07
2.1715676e-07
2.0359536e-07
1.905027e-07
1.7785096e-07
1.6564743e-07
1.5387337e-07
1.4253147e-07
1.3161215e-07
1.2111287e-07
1.1102541e-07
1.013487e-07
9.207947e-08
8.3218103e-08
7.4767409e-08
6.673506e-08
5.9124531e-08
5.1940014e-08
4.5190257e-08
3.889186e-08
3.3052497e-08
2.7684657e-08
2.2793332e-08
1.839196e-08
1.4483286e-08
1.1138073e-08
8.2700737e-09
5.9169618e-09
4.100163e-09
2.7718489e-09
1.8260425e-09
1.1775935e-09
7.3914716e-10
4.4944072e-10
2.8165766e-10
2.2604955e-10
2.2867524e-10
3.4880285e-10
6.4690697e-10
1.1268078e-09
1.7720489e-09
2.6013098e-09
3.6070925e-09
4.9377191e-09
6.5942406e-09
8.6401566e-09
1.1205968e-08
1.4400827e-08
1.8235315e-08
2.2619553e-08
2.7320852e-08
3.1845556e-08
3.6747878e-08
4.3168643e-08
4.3481008e-08
4.4277624e-08
4.3120726e-08
4.1072528e-08
3.9000159e-08
2.3994899e-08
3.3808583e-08
3.2459873e-08
3.0636245e-08
2.8940692e-08
2.7433457e-08
2.6117427e-08
2.4978452e-08
2.3962267e-08
2.288326e-08
2.1761826e-08
2.0693365e-08
2.1731407e-08
1.7850189e-08
1.8645566e-08
1.826406e-08
1.7869774e-08
1.7546029e-08
1.7313862e-08
1.7172215e-08
1.7165143e-08
1.7290035e-08
1.768887e-08
1.8630099e-08
1.9832322e-08
2.1362635e-08
2.3162491e-08
2.5396023e-08
2.821058e-08
3.1782697e-08
3.6281576e-08
4.1733675e-08
4.8011353e-08
5.4339268e-08
6.0088225e-08
6.098581e-08
5.9797201e-08
4.7666416e-08
3.9354185e-08
2.3697402e-08
1.8620509e-08
7.5929765e-09
7.8863175e-09
4.5550065e-09
1.0313214e-08
4.3564066e-08
1.0396078e-07
1.8799445e-07
1.7483746e-07
2.3343384e-07
1.298822e-07
4.0339394e-08
1.9694801e-08
6.8278091e-09
3.0810083e-09
2.4528151e-09
2.0921987e-09
2.3221719e-09
2.6668447e-09
3.5426704e-09
4.3096238e-09
5.4014344e-09
6.2799144e-09
7.6412068e-09
9.2245865e-09
1.1774322e-08
1.5104651e-08
1.9898384e-08
2.641121e-08
3.5694037e-08
4.8126776e-08
6.4871625e-08
8.6674612e-08
1.1485203e-07
1.5127842e-07
2.0053051e-07
2.5451788e-07
3.3585699e-07
4.0957003e-07
5.2042748e-07
6.427938e-07
7.7960858e-07
9.3225032e-07
1.0974127e-06
1.2643985e-06
4.9220291e-07
4.6608706e-07
4.4071508e-07
4.161072e-07
3.9220763e-07
3.6904545e-07
3.465664e-07
3.2479723e-07
3.0369594e-07
2.8328016e-07
2.6352353e-07
2.4443617e-07
2.2600757e-07
2.0823928e-07
1.9112274e-07
1.7466151e-07
1.5885575e-07
1.4371144e-07
1.2923867e-07
1.1545556e-07
1.0237274e-07
9.000186e-08
7.836217e-08
6.7486052e-08
5.7390254e-08
4.809934e-08
3.9624791e-08
3.1992199e-08
2.5207745e-08
1.9381336e-08
1.4390569e-08
1.0297876e-08
7.1361993e-09
4.8238658e-09
3.1772276e-09
2.0483645e-09
1.2853441e-09
7.8082504e-10
4.8835593e-10
3.9114079e-10
3.9503834e-10
6.0190065e-10
1.1158511e-09
1.9437669e-09
3.0576575e-09
4.493504e-09
6.2347194e-09
8.534758e-09
1.1398451e-08
1.4936289e-08
1.9374978e-08
2.4903977e-08
3.1541919e-08
3.9133393e-08
4.727525e-08
5.5129829e-08
6.2412235e-08
7.3256917e-08
7.5308956e-08
7.6706294e-08
7.4677337e-08
7.111309e-08
6.7349472e-08
4.5374349e-08
5.8613678e-08
5.6076636e-08
5.2901684e-08
4.9953162e-08
4.733094e-08
4.5039316e-08
4.3053539e-08
4.1280963e-08
3.9392259e-08
3.7435411e-08
3.5601068e-08
3.6398753e-08
3.1281448e-08
3.2001977e-08
3.1298822e-08
3.0604653e-08
3.0034298e-08
2.9620405e-08
2.9360974e-08
2.9330123e-08
2.952288e-08
3.0181823e-08
3.175767e-08
3.3717459e-08
3.6264039e-08
3.9216829e-08
4.2869449e-08
4.7452286e-08
5.3236261e-08
6.0473146e-08
6.9158243e-08
7.903207e-08
8.8803258e-08
9.7511216e-08
9.8354697e-08
9.6226445e-08
7.6946976e-08
6.4144331e-08
3.9276434e-08
3.1416596e-08
1.2988115e-08
1.3582857e-08
7.8549928e-09
1.7685461e-08
7.2149007e-08
1.7225433e-07
3.1307833e-07
2.9074683e-07
3.898919e-07
2.1744611e-07
7.6867443e-08
3.2978403e-08
1.1436876e-08
5.15072e-09
4.0961199e-09
3.4934479e-09
3.8802044e-09
4.4550834e-09
5.9178512e-09
7.1952971e-09
9.0168167e-09
1.0479827e-08
1.2749211e-08
1.5385481e-08
1.9631492e-08
2.5175094e-08
3.3150407e-08
4.3978392e-08
5.940754e-08
8.0059894e-08
1.0786269e-07
1.4403768e-07
1.9067897e-07
2.4966069e-07
3.1205217e-07
3.9749714e-07
5.271841e-07
6.8152039e-07
8.6324165e-07
1.0663401e-06
1.2937998e-06
1.5470705e-06
1.8228214e-06
2.1018097e-06
7.9561326e-07
7.5499449e-07
7.1538882e-07
6.7683674e-07
6.392538e-07
6.0269468e-07
5.6707922e-07
5.3245911e-07
4.9877513e-07
4.6606519e-07
4.3429608e-07
4.0349438e-07
3.7365344e-07
3.4478675e-07
3.1689044e-07
2.8998049e-07
2.6406809e-07
2.3917319e-07
2.1532262e-07
1.9255591e-07
1.7089973e-07
1.5038202e-07
1.310429e-07
1.1294353e-07
9.6118664e-08
8.0615052e-08
6.6457384e-08
5.3692939e-08
4.2335122e-08
3.2550317e-08
2.4172325e-08
1.7302363e-08
1.1991021e-08
8.1048972e-09
5.337164e-09
3.4398514e-09
2.1579073e-09
1.3099425e-09
8.1763075e-10
6.5326744e-10
6.5846007e-10
1.0012839e-09
1.8551782e-09
3.2318392e-09
5.0853361e-09
7.4784081e-09
1.0384148e-08
1.4214895e-08
1.8984916e-08
2.4879539e-08
3.2278574e-08
4.1499303e-08
5.2573798e-08
6.52435e-08
7.8835423e-08
9.1980923e-08
1.0288775e-07
1.2055191e-07
1.2569337e-07
1.2805115e-07
1.2461766e-07
1.1863799e-07
1.1207656e-07
8.1322598e-08
9.788336e-08
9.3339758e-08
8.8004367e-08
8.3055782e-08
7.8652394e-08
7.4800018e-08
7.1457321e-08
6.8472014e-08
6.5277025e-08
6.1981134e-08
5.8940121e-08
5.8978845e-08
5.2529545e-08
5.2845304e-08
5.1600337e-08
5.0416435e-08
4.9443504e-08
4.8727799e-08
4.8265456e-08
4.8176065e-08
4.8450184e-08
4.9486983e-08
5.2009873e-08
5.5047163e-08
5.9100493e-08
6.3718058e-08
6.9410366e-08
7.6518511e-08
8.5435245e-08
9.6510503e-08
1.0966619e-07
1.2441301e-07
1.3870429e-07
1.5116403e-07
1.5143e-07
1.477044e-07
1.1837048e-07
9.9564034e-08
6.2038627e-08
5.0578464e-08
2.1293471e-08
2.2493431e-08
1.3035679e-08
2.920368e-08
1.1555954e-07
2.7629112e-07
5.0490911e-07
4.6841927e-07
6.3101569e-07
3.5275962e-07
1.3925128e-07
5.35485e-08
1.8569532e-08
8.3455478e-09
6.6300004e-09
5.6541999e-09
6.2856144e-09
7.2155444e-09
9.5840092e-09
1.1646076e-08
1.4591371e-08
1.6952418e-08
2.0619116e-08
2.4872847e-08
3.172504e-08
4.0666736e-08
5.3522178e-08
7.0961522e-08
9.5801183e-08