/*--------------------------------*- C++ -*----------------------------------*\
| =========                 |                                                 |
| \\      /  F ield         | OpenFOAM: The Open Source CFD Toolbox           |
|  \\    /   O peration     | Version:  2.4.0                                 |
|   \\  /    A nd           | Web:      www.OpenFOAM.org                      |
|    \\/     M anipulation  |                                                 |
\*---------------------------------------------------------------------------*/
FoamFile
{
    version     2.0;
    format      ascii;
    class       volScalarField;
    location    "30";
    object      p;
}
// * * * * * * * * * * * * * * * * * * * * * * * * * * * * * * * * * * * * * //

dimensions      [0 2 -2 0 0 0 0];

internalField   nonuniform List<scalar> 
19475
(
-0.14517713
-0.067424731
-0.07689441
-0.052947318
-0.057972883
-0.041417851
-0.044798588
-0.03496503
-0.038374126
-0.03334578
-0.035898188
-0.032978982
-0.034226647
-0.032260619
-0.032693234
-0.031358079
-0.031427084
-0.030582033
-0.030573777
-0.030140397
-0.030214073
-0.030095055
-0.030289269
-0.030392426
-0.030619415
-0.030707165
-0.030704785
-0.030517391
-0.030010003
-0.029226205
-0.027998475
-0.026364535
-0.024288106
-0.021747213
-0.01874542
-0.015440743
-0.011973968
-0.0084583091
-0.0051008194
-0.0025769118
0.060470702
0.069357772
0.078182407
0.086930608
0.095588354
0.1041424
0.11257926
0.12088683
0.12905193
0.13706356
0.14491095
0.15258427
0.16007447
0.16737284
0.17447194
0.1813656
0.18804835
0.19451594
0.20076462
0.20679236
0.21259703
0.21817848
0.22353651
0.22867263
0.23358824
0.23828584
0.24276867
0.24704035
0.25110575
0.25496894
0.2586363
0.26211182
0.26540196
0.26850619
0.2714289
0.2741706
0.2767397
0.27913633
0.28137304
0.28344724
0.28537753
0.28715681
0.28881336
0.29032774
0.29174961
0.29304283
0.29420319
0.29530198
0.29640008
0.29750508
0.29866213
0.29987791
0.30118157
0.30257348
0.30406127
0.30562094
0.30722311
0.3088085
0.31031974
0.31168107
0.31283552
0.31370207
0.31422216
0.31436047
0.31409151
0.31338896
0.31222985
0.31059398
0.30846065
0.30581638
0.30264259
0.29894493
0.29471518
0.29002333
0.28489952
0.27932008
0.27325553
0.2666683
0.25950549
0.25170903
0.24319332
0.23386201
0.2235637
0.21215566
0.19932408
0.18483536
0.16785711
0.14801985
0.12515628
0.099010953
0.069258954
0.035543753
-0.0025099082
-0.045305089
-0.093193121
-0.14615143
-0.20273257
-0.261128
-0.31475228
-0.35640787
-0.36728852
-0.3596311
-0.3293376
-0.30691376
-0.26452956
-0.26418788
-0.21967463
-0.24488093
-0.14517996
-0.067421729
-0.076895915
-0.052950291
-0.057976729
-0.041428343
-0.044803173
-0.034976804
-0.038374456
-0.033353362
-0.035895804
-0.032984742
-0.034226047
-0.032266118
-0.032694346
-0.031362695
-0.031428546
-0.030585107
-0.030574568
-0.030141522
-0.030213493
-0.030094314
-0.030287252
-0.030390233
-0.030616832
-0.030704998
-0.030703523
-0.030517089
-0.030012035
-0.029229947
-0.028005502
-0.026374402
-0.024301262
-0.021764055
-0.018766049
-0.015464708
-0.012000458
-0.008486312
-0.005130194
-0.0026026128
0.060467072
0.069354035
0.078178559
0.086926652
0.095584306
0.10413826
0.11257506
0.12088257
0.12904762
0.13705921
0.14490658
0.15257988
0.16007007
0.16736845
0.17446757
0.18136126
0.18804405
0.19451169
0.20076044
0.20678826
0.21259301
0.21817456
0.2235327
0.22866893
0.23358465
0.23828239
0.24276534
0.24703716
0.25110269
0.25496601
0.2586335
0.26210915
0.2653994
0.26850375
0.27142658
0.2741684
0.27673761
0.27913434
0.28137115
0.28344545
0.28537584
0.28715521
0.28881187
0.29032634
0.29174828
0.2930419
0.29420311
0.29530268
0.29640148
0.29750717
0.29866495
0.29988151
0.301186
0.30257874
0.30406732
0.30562762
0.30723018
0.30881559
0.31032644
0.31168691
0.31284003
0.31370474
0.31422263
0.3143584
0.31408662
0.31338101
0.31221863
0.31057934
0.30844246
0.30579455
0.30261714
0.29891593
0.29468297
0.28998833
0.28486164
0.27927912
0.27321124
0.26662031
0.25945344
0.25165236
0.2431314
0.23379392
0.22348843
0.21207145
0.19922917
0.18472565
0.16772882
0.14787261
0.12498946
0.098823779
0.06905069
0.035314086
-0.002760869
-0.045576151
-0.093480577
-0.14644394
-0.20301496
-0.26137004
-0.31492338
-0.35646325
-0.36726379
-0.35956805
-0.32928506
-0.30687406
-0.26451098
-0.2641833
-0.21967378
-0.24487969
-0.14518257
-0.067418194
-0.076898016
-0.052952845
-0.057981304
-0.041439266
-0.044808446
-0.034989282
-0.038375077
-0.033361425
-0.03589347
-0.032990846
-0.034225405
-0.032271986
-0.032695503
-0.031367592
-0.031430029
-0.030588321
-0.030575362
-0.030142621
-0.030212788
-0.030093425
-0.030285021
-0.030387819
-0.030614042
-0.030702661
-0.030702369
-0.030516812
-0.030014661
-0.029234109
-0.028013493
-0.026385222
-0.024315488
-0.021782155
-0.018788141
-0.015490157
-0.012028377
-0.0085156924
-0.0051613624
-0.0026282925
0.0604631
0.069349952
0.078174353
0.086922326
0.095579878
0.10413373
0.11257047
0.1208779
0.12904291
0.13705446
0.1449018
0.15257508
0.16006527
0.16736366
0.1744628
0.18135653
0.18803936
0.19450707
0.20075589
0.20678378
0.21258864
0.21817028
0.22352854
0.22866489
0.23358076
0.23827862
0.24276173
0.24703369
0.25109937
0.25496284
0.25863047
0.26210625
0.26539664
0.26850112
0.27142408
0.27416602
0.27673535
0.27913219
0.28136912
0.28344352
0.28537402
0.28715348
0.28881026
0.29032483
0.29174684
0.29304088
0.29420303
0.29530343
0.29640297
0.29750941
0.29866799
0.29988537
0.30119075
0.30258437
0.30407379
0.30563476
0.30723772
0.30882316
0.31033358
0.31169312
0.3128448
0.31370753
0.31422302
0.31435606
0.31408123
0.31337232
0.31220643
0.31056345
0.30842276
0.30577092
0.30258963
0.29888455
0.29464815
0.28995053
0.28482073
0.27923486
0.27316338
0.2665685
0.25939721
0.25159116
0.2430645
0.23372035
0.2234071
0.21198047
0.19912659
0.1846071
0.16759019
0.14771356
0.1248093
0.098621736
0.068825935
0.035066401
-0.003031414
-0.04586812
-0.093789805
-0.14675801
-0.20331738
-0.26162782
-0.31510365
-0.35651873
-0.36723343
-0.35949778
-0.32922626
-0.30683052
-0.26448879
-0.26417899
-0.21967136
-0.2448792
-0.14518457
-0.06741496
-0.076899955
-0.052955095
-0.057985857
-0.0414498
-0.044813701
-0.03500142
-0.038375743
-0.033369353
-0.035891283
-0.032996862
-0.034224705
-0.032277784
-0.032696544
-0.031372375
-0.031431341
-0.030591388
-0.030576052
-0.030143571
-0.030211974
-0.030092436
-0.030282741
-0.030385384
-0.030611296
-0.03070038
-0.030701548
-0.030516667
-0.030017913
-0.029238503
-0.028022078
-0.026396336
-0.024329819
-0.021800216
-0.018810059
-0.015515085
-0.012055436
-0.0085439524
-0.0051918343
-0.0026513513
0.060459148
0.069345896
0.078170175
0.086918026
0.095575477
0.10412922
0.11256592
0.12087327
0.12903824
0.13704975
0.14489706
0.15257033
0.16006051
0.16735892
0.17445808
0.18135185
0.18803473
0.19450249
0.20075139
0.20677936
0.21258431
0.21816606
0.22352444
0.22866091
0.23357691
0.23827491
0.24275816
0.24703027
0.2510961
0.25495972
0.25862748
0.2621034
0.26539392
0.26849852
0.27142161
0.27416367
0.27673313
0.27913008
0.28136712
0.28344162
0.28537223
0.28715178
0.28880867
0.29032334
0.29174542
0.29303988
0.29420293
0.29530416
0.29640443
0.29751161
0.29867097
0.29988918
0.30119543
0.30258993
0.3040802
0.30564184
0.3072452
0.30883069
0.31034068
0.31169931
0.31284955
0.31371032
0.31422341
0.31435372
0.31407585
0.31336365
0.31219426
0.3105476
0.3084031
0.30574736
0.30256218
0.29885328
0.29461345
0.28991283
0.28477995
0.27919075
0.27311568
0.26651684
0.25934114
0.25153015
0.24299781
0.23364702
0.22332603
0.21188975
0.19902434
0.18448892
0.16745209
0.14755514
0.12462999
0.098420724
0.068602523
0.03482027
-0.0032998605
-0.046157397
-0.094095643
-0.14706769
-0.20361395
-0.26187857
-0.31527586
-0.35656725
-0.36719857
-0.35942563
-0.32916665
-0.3067868
-0.26446539
-0.26417475
-0.21966805
-0.24487895
-0.14518618
-0.067412073
-0.076901561
-0.05295731
-0.05799034
-0.041460393
-0.044818962
-0.035013697
-0.038376379
-0.033377454
-0.035889084
-0.033003049
-0.034223905
-0.032283742
-0.032697533
-0.031377256
-0.031432577
-0.030594458
-0.030576688
-0.030144448
-0.030211054
-0.030091339
-0.030280341
-0.030382842
-0.030608479
-0.030698042
-0.030700922
-0.030516585
-0.030021707
-0.029243212
-0.028031393
-0.026408071
-0.024344767
-0.021818931
-0.018832688
-0.01554064
-0.012082977
-0.0085726498
-0.0052231771
-0.0026736394
0.060455085
0.069341733
0.078165887
0.08691361
0.095570959
0.1041246
0.11256125
0.12086852
0.12903346
0.13704492
0.14489221
0.15256548
0.16005565
0.16735408
0.17445325
0.18134707
0.18803
0.19449782
0.2007468
0.20677486
0.21257991
0.21816176
0.22352026
0.22865685
0.23357299
0.23827113
0.24275453
0.24702679
0.25109277
0.25495654
0.25862444
0.2621005
0.26539115
0.26849589
0.27141911
0.2741613
0.27673087
0.27912794
0.28136509
0.28343969
0.28537041
0.28715006
0.28880705
0.29032184
0.29174397
0.29303885
0.29420282
0.29530489
0.2964059
0.29751385
0.29867401
0.29989306
0.30120021
0.30259564
0.30408677
0.30564911
0.30725292
0.30883846
0.31034803
0.31170571
0.31285448
0.31371322
0.31422384
0.31435133
0.31407031
0.31335472
0.31218171
0.31053125
0.30838282
0.30572304
0.30253386
0.298821
0.29457762
0.28987392
0.28473783
0.27914519
0.27306642
0.26646348
0.25928324
0.25146711
0.2429289
0.23357125
0.22324226
0.21179604
0.19891868
0.18436685
0.16730948
0.14739169
0.12444504
0.098213577
0.068372481
0.034567162
-0.003575658
-0.046454035
-0.0944083
-0.14738303
-0.20391396
-0.26212919
-0.3154436
-0.35660753
-0.36715587
-0.35934785
-0.32910405
-0.30674128
-0.26444041
-0.26417019
-0.21966403
-0.24487867
-0.1451873
-0.067409511
-0.076902827
-0.052959449
-0.057994725
-0.041471021
-0.044824198
-0.035026124
-0.03837697
-0.033385731
-0.035886859
-0.033009422
-0.034223037
-0.032289876
-0.032698504
-0.031382258
-0.031433778
-0.030597553
-0.030577295
-0.030145281
-0.030210047
-0.030090151
-0.030277828
-0.030380189
-0.030605573
-0.030695621
-0.030700417
-0.03051652
-0.030025919
-0.029248182
-0.028041327
-0.026420383
-0.024360338
-0.02183835
-0.018856114
-0.015566978
-0.012111257
-0.0086020469
-0.0052555719
-0.002695704
0.060450893
0.069337442
0.078161468
0.086909061
0.095566306
0.10411984
0.11255645
0.12086364
0.12902854
0.13703996
0.14488723
0.15256049
0.16005066
0.16734911
0.17444831
0.18134218
0.18802516
0.19449305
0.2007421
0.20677025
0.21257541
0.21815736
0.22351599
0.22865271
0.23356899
0.23826728
0.24275083
0.24702325
0.25108938
0.2549533
0.25862135
0.26209755
0.26538834
0.26849321
0.27141656
0.27415889
0.27672858
0.27912576
0.28136303
0.28343774
0.28536857
0.28714831
0.28880542
0.29032031
0.29174249
0.29303779
0.29420269
0.29530561
0.29640739
0.29751611
0.2986771
0.29989701
0.3012051
0.30260148
0.30409352
0.3056566
0.30726087
0.30884649
0.31035563
0.31171236
0.3128596
0.31371626
0.31422431
0.31434888
0.31406461
0.3133455
0.31216873
0.31051434
0.30836184
0.30569789
0.30250456
0.29878761
0.29454058
0.28983367
0.28469428
0.27909806
0.27301545
0.26640827
0.25922332
0.25140187
0.24285759
0.23349283
0.22315556
0.21169904
0.19880932
0.18424052
0.16716199
0.14722271
0.12425407
0.097999776
0.068135345
0.03430655
-0.0038590622
-0.046758172
-0.094727763
-0.14770352
-0.20421633
-0.2623775
-0.31560368
-0.35663574
-0.36710211
-0.35926233
-0.32903757
-0.30669352
-0.26441376
-0.26416527
-0.21965918
-0.24487845
-0.14518795
-0.067407262
-0.076903732
-0.052961484
-0.057998961
-0.041481624
-0.044829357
-0.03503867
-0.038377487
-0.033394166
-0.035884584
-0.033015975
-0.034222118
-0.032296178
-0.03269948
-0.031387388
-0.031434974
-0.030600688
-0.030577893
-0.030146093
-0.030208976
-0.03008889
-0.030275212
-0.03037743
-0.030602575
-0.030693113
-0.03069998
-0.030516451
-0.030030444
-0.029253374
-0.028051776
-0.026433218
-0.024376507
-0.021858472
-0.018880358
-0.015594169
-0.012140435
-0.0086322981
-0.0052890684
-0.0027179524
0.060446567
0.069333018
0.078156914
0.086904374
0.095561513
0.10411494
0.11255151
0.12085862
0.1290235
0.13703488
0.14488213
0.15255538
0.16004555
0.16734403
0.17444326
0.18133717
0.18802021
0.19448816
0.2007373
0.20676554
0.21257081
0.21815287
0.22351164
0.22864848
0.23356492
0.23826335
0.24274706
0.24701964
0.25108593
0.25495
0.2586182
0.26209455
0.26538548
0.26849049
0.27141398
0.27415644
0.27672627
0.27912356
0.28136094
0.28343577
0.2853667
0.28714655
0.28880376
0.29031876
0.29174098
0.2930367
0.29420254
0.29530633
0.29640888
0.2975184
0.29868023
0.29990103
0.30121009
0.30260745
0.30410044
0.3056643
0.30726907
0.30885479
0.3103635
0.31171925
0.31286492
0.31371943
0.31422483
0.31434639
0.31405873
0.31333599
0.31215533
0.31049688
0.30834016
0.30567191
0.30247431
0.29875313
0.29450233
0.28979211
0.28464929
0.27904938
0.27296279
0.26635122
0.25916138
0.25133445
0.24278386
0.23341175
0.22306589
0.21159873
0.1986962
0.18410987
0.16700957
0.14704828
0.12405702
0.097779537
0.067891235
0.034038778
-0.0041496771
-0.047069177
-0.09505306
-0.14802772
-0.20451879
-0.26262078
-0.31575229
-0.35664767
-0.36703395
-0.35916695
-0.32896636
-0.30664323
-0.26438544
-0.26415997
-0.21965334
-0.24487836
-0.145188
-0.067405356
-0.076904238
-0.052963402
-0.058002991
-0.041492153
-0.04483438
-0.03505131
-0.038377896
-0.033402745
-0.035882231
-0.033022707
-0.034221161
-0.032302642
-0.032700478
-0.031392656
-0.031436192
-0.030603877
-0.030578498
-0.030146906
-0.030207856
-0.03008757
-0.030272504
-0.030374571
-0.030599482
-0.030690519
-0.030699572
-0.030516371
-0.030035203
-0.029258774
-0.028062664
-0.026446547
-0.024393271
-0.021879312
-0.018905453
-0.015622287
-0.012170617
-0.0086635494
-0.0053237204
-0.0027407585
0.060442097
0.069328453
0.078152216
0.086899543
0.095556576
0.10410989
0.11254643
0.12085347
0.12901831
0.13702965
0.14487689
0.15255014
0.16004031
0.16733882
0.17443808
0.18133205
0.18801515
0.19448318
0.20073241
0.20676074
0.21256612
0.2181483
0.2235072
0.22864417
0.23356077
0.23825935
0.24274323
0.24701596
0.25108242
0.25494665
0.25861501
0.2620915
0.26538258
0.26848773
0.27141137
0.27415396
0.27672392
0.27912134
0.28135884
0.28343377
0.28536482
0.28714477
0.28880209
0.29031719
0.29173945
0.29303557
0.29420236
0.29530703
0.29641036
0.2975207
0.29868339
0.29990511
0.30121516
0.30261355
0.30410753
0.30567221
0.30727751
0.30886335
0.31037163
0.31172638
0.31287044
0.31372274
0.31422539
0.31434383
0.31405268
0.31332618
0.3121415
0.31047886
0.30831778
0.30564508
0.30244306
0.29871754
0.29446284
0.28974921
0.28460283
0.27899909
0.2729084
0.26629227
0.25909739
0.25126475
0.24270764
0.23332793
0.22297317
0.21149499
0.19857922
0.1839748
0.16685214
0.14686822
0.12385388
0.097552665
0.067640271
0.033763954
-0.0044473031
-0.047386529
-0.09538334
-0.14835433
-0.20481945
-0.26285598
-0.31588564
-0.35663894
-0.36694776
-0.3590593
-0.32888944
-0.30658993
-0.2643555
-0.26415427
-0.21964639
-0.24487849
-0.1451874
-0.067403806
-0.076904309
-0.052965177
-0.058006764
-0.041502562
-0.044839214
-0.035064018
-0.038378162
-0.033411458
-0.035879769
-0.033029611
-0.034220173
-0.032309264
-0.032701512
-0.031398069
-0.031437455
-0.030607132
-0.030579124
-0.030147734
-0.0302067
-0.030086204
-0.030269709
-0.030371614
-0.030596289
-0.030687841
-0.030699159
-0.030516282
-0.030040131
-0.029264378
-0.028073937
-0.026460358
-0.02441064
-0.021900897
-0.018931437
-0.015651408
-0.012201909
-0.0086959399
-0.0053595694
-0.0027644545
0.060437475
0.069323734
0.078147364
0.086894559
0.095551486
0.1041047
0.1125412
0.12084816
0.12901299
0.13702429
0.14487151
0.15254477
0.16003495
0.16733349
0.17443279
0.18132681
0.18800997
0.19447808
0.20072741
0.20675583
0.21256134
0.21814364
0.22350268
0.22863979
0.23355655
0.23825528
0.24273933
0.24701223
0.25107886
0.25494325
0.25861176
0.26208841
0.26537963
0.26848493
0.27140872
0.27415146
0.27672155
0.27911909
0.28135671
0.28343176
0.28536292
0.28714297
0.28880041
0.29031562
0.29173789
0.29303439
0.29420213
0.29530771
0.29641184
0.297523
0.29868657
0.29990924
0.30122031
0.30261976
0.30411478
0.30568033
0.30728621
0.30887218
0.31038005
0.31173376
0.31287618
0.3137262
0.31422601
0.31434121
0.31404644
0.31331606
0.31212722
0.31046024
0.30829466
0.30561737
0.3024108
0.2986808
0.29442209
0.28970491
0.28455487
0.27894717
0.2728522
0.26623137
0.25903125
0.25119271
0.24262886
0.23324125
0.22287729
0.21138771
0.19845821
0.18383513
0.16668945
0.14668241
0.12364448
0.097319155
0.067382343
0.033482064
-0.0047515973
-0.047709811
-0.095717906
-0.14868199
-0.20511634
-0.26308029
-0.31599976
-0.35660502
-0.36683964
-0.35893665
-0.32880557
-0.30653309
-0.26432398
-0.26414816
-0.2196382
-0.24487891
-0.1451861
-0.067402652
-0.076903908
-0.052966783
-0.058010228
-0.041512794
-0.0448438
-0.035076764
-0.038378245
-0.033420288
-0.03587717
-0.03303668
-0.03421916
-0.03231604
-0.032702594
-0.031403634
-0.031438784
-0.030610467
-0.030579781
-0.030148593
-0.030205518
-0.030084799
-0.030266832
-0.030368562
-0.030592992
-0.030685081
-0.030698713
-0.030516186
-0.030045178
-0.029270188
-0.028085552
-0.026474645
-0.024428628
-0.021923257
-0.018958354
-0.015681604
-0.012234404
-0.0087295935
-0.0053966574
-0.0027893266
0.060432687
0.06931885
0.078142347
0.086889412
0.095546232
0.10409935
0.11253582
0.12084271
0.12900751
0.13701878
0.14486599
0.15253925
0.16002944
0.16732802
0.17442736
0.18132145
0.18800469
0.19447287
0.2007223
0.20675083
0.21255647
0.21813889
0.22349808
0.22863533
0.23355225
0.23825115
0.24273537
0.24700844
0.25107524
0.2549398
0.25860847
0.26208527
0.26537665
0.26848211
0.27140605
0.27414893
0.27671916
0.27911683
0.28135457
0.28342974
0.28536101
0.28714116
0.28879871
0.29031403
0.29173631
0.29303316
0.29420187
0.29530835
0.29641329
0.2975253
0.29868977
0.29991341
0.30122554
0.30262609
0.30412219
0.30568866
0.30729516
0.3088813
0.31038874
0.31174141
0.31288213
0.31372981
0.31422667
0.31433854
0.31404002
0.31330562
0.31211248
0.310441
0.30827078
0.30558875
0.30237748
0.29864287
0.29438002
0.2896592
0.28450535
0.27889355
0.27279417
0.26616845
0.2589629
0.25111826
0.24254739
0.23315162
0.22277813
0.21127672
0.19833304
0.18369065
0.16652137
0.14649063
0.12342867
0.097078875
0.06711747
0.033193313
-0.0050624702
-0.048038571
-0.096055825
-0.14900945
-0.20540735
-0.26329064
-0.31609069
-0.35654122
-0.36670545
-0.358796
-0.32871334
-0.30647196
-0.26429096
-0.26414166
-0.21962863
-0.24487967
-0.14518398
-0.067401928
-0.076902996
-0.052968203
-0.058013332
-0.041522799
-0.044848084
-0.035089514
-0.038378106
-0.033429222
-0.035874406
-0.033043904
-0.034218124
-0.032322967
-0.032703733
-0.031409356
-0.031440194
-0.030613891
-0.030580477
-0.030149493
-0.030204319
-0.030083362
-0.030263876
-0.030365415
-0.030589588
-0.03068224
-0.030698212
-0.03051609
-0.030050304
-0.029276211
-0.02809748
-0.026489414
-0.024447259
-0.021946426
-0.018986244
-0.015712942
-0.012268195
-0.0087646201
-0.005435035
-0.0028156192
0.06042772
0.069313787
0.078137151
0.086884089
0.095540803
0.10409382
0.11253026
0.12083708
0.12900186
0.13701311
0.14486032
0.15253359
0.16002379
0.16732242
0.17442181
0.18131596
0.18799928
0.19446755
0.20071709
0.20674573
0.2125515
0.21813404
0.22349339
0.22863079
0.23354788
0.23824694
0.24273135
0.2470046
0.25107157
0.2549363
0.25860514
0.26208209
0.26537364
0.26847925
0.27140335
0.27414638
0.27671676
0.27911455
0.28135242
0.2834277
0.28535909
0.28713935
0.28879701
0.29031244
0.2917347
0.29303188
0.29420155
0.29530895
0.29641471
0.29752758
0.29869297
0.2999176
0.30123083
0.30263253
0.30412976
0.3056972
0.30730437
0.3088907
0.31039773
0.31174933
0.31288831
0.31373358
0.31422738
0.31433579
0.31403339
0.31329483
0.31209723
0.31042112
0.3082461
0.30555918
0.30234307
0.29860371
0.29433661
0.28961201
0.28445423
0.27883818
0.27273421
0.26610343
0.25889226
0.25104127
0.24246315
0.23305892
0.22267554
0.21116191
0.19820351
0.18354121
0.1663477
0.14629277
0.12320631
0.096831729
0.066845605
0.032897675
-0.0053795066
-0.048372341
-0.096396249
-0.14933527
-0.20569036
-0.26348406
-0.31615429
-0.35644271
-0.36654083
-0.35863407
-0.32861112
-0.30640567
-0.26425649
-0.26413479
-0.21961752
-0.24488087
-0.14518106
-0.067401688
-0.076901536
-0.052969422
-0.058016033
-0.041532516
-0.044852006
-0.035102225
-0.038377701
-0.03343824
-0.035871448
-0.033051296
-0.034217067
-0.032330043
-0.032704936
-0.03141524
-0.031441699
-0.030617417
-0.03058122
-0.030150443
-0.030203108
-0.030081899
-0.030260844
-0.030362176
-0.030586073
-0.030679318
-0.030697641
-0.030516003
-0.030055481
-0.029282454
-0.028109704
-0.026504672
-0.024466554
-0.021970437
-0.019015153
-0.015745484
-0.012303368
-0.0088011277
-0.0054747639
-0.0028435443
0.060422556
0.069308526
0.07813176
0.086878574
0.095535184
0.10408812
0.11252452
0.12083128
0.12899604
0.13700727
0.14485447
0.15252777
0.16001799
0.16731667
0.17441611
0.18131034
0.18799374
0.19446211
0.20071176
0.20674052
0.21254643
0.21812911
0.22348862
0.22862618
0.23354345
0.23824268
0.24272727
0.2470007
0.25106786
0.25493276
0.25860177
0.26207888
0.26537059
0.26847637
0.27140063
0.27414381
0.27671434
0.27911226
0.28135025
0.28342566
0.28535716
0.28713753
0.2887953
0.29031085
0.29173307
0.29303054
0.29420117
0.2953095
0.29641609
0.29752983
0.29869616
0.29992182
0.30123618
0.30263907
0.30413749
0.30570596
0.30731384
0.3089004
0.31040702
0.31175753
0.31289473
0.31373749
0.31422814
0.31433296
0.31402655
0.31328367
0.31208148
0.31040057
0.30822058
0.30552862
0.30230752
0.29856328
0.2942918
0.28956331
0.28440144
0.278781
0.27267227
0.26603623
0.25881924
0.25096167
0.24237604
0.23296303
0.22256939
0.21104309
0.19806946
0.1833866
0.16616822
0.14608861
0.12297725
0.096577652
0.066566684
0.03259532
-0.0057025747
-0.048710467
-0.096738374
-0.14965794
-0.2059633
-0.26365742
-0.31618652
-0.3563046
-0.36634123
-0.35844729
-0.32849701
-0.30633316
-0.26422064
-0.26412766
-0.21960473
-0.24488256
-0.14517714
-0.067401989
-0.076899497
-0.052970411
-0.058018288
-0.041541886
-0.044855507
-0.035114852
-0.038376981
-0.033447322
-0.035868268
-0.03305884
-0.034215988
-0.032337266
-0.032706209
-0.031421287
-0.03144331
-0.030621053
-0.030582015
-0.030151451
-0.03020189
-0.030080413
-0.030257737
-0.030358844
-0.030582445
-0.030676317
-0.030696989
-0.030515933
-0.030060689
-0.029288929
-0.028122211
-0.026520434
-0.024486542
-0.021995331
-0.019045124
-0.015779298
-0.012340002
-0.0088392222
-0.0055159233
-0.0028732863
0.060417174
0.069303048
0.078126154
0.086872847
0.095529356
0.10408221
0.11251858
0.12082529
0.12899003
0.13700124
0.14484846
0.15252177
0.16001203
0.16731076
0.17441027
0.18130458
0.18798807
0.19445654
0.20070632
0.2067352
0.21254126
0.21812408
0.22348376
0.22862148
0.23353894
0.23823835
0.24272313
0.24699675
0.25106409
0.25492917
0.25859836
0.26207564
0.26536752
0.26847346
0.27139789
0.27414123
0.27671191
0.27910996
0.28134809
0.28342361
0.28535523
0.28713571
0.28879359
0.29030925
0.29173142
0.29302912
0.29420072
0.29530998
0.29641742
0.29753205
0.29869933
0.29992604
0.30124157
0.30264571
0.30414537
0.30571493
0.30732358
0.3089104
0.3104166
0.311766
0.31290137
0.31374157
0.31422894
0.31433004
0.31401947
0.31327213
0.31206517
0.31037931
0.30819419
0.30549703
0.30227079
0.29852152
0.29424553
0.28951303
0.28434693
0.27872193
0.27260827
0.26596678
0.25874374
0.25087935
0.24228592
0.23286381
0.22245956
0.21092011
0.1979307
0.18322658
0.16598275
0.14587792
0.12274137
0.096316463
0.066280787
0.032286327
-0.0060313504
-0.049052533
-0.097081211
-0.14997616
-0.20622393
-0.26380774
-0.31618323
-0.35612199
-0.36610197
-0.35823189
-0.32836889
-0.30625312
-0.26418344
-0.26412039
-0.21959009
-0.24488485
-0.14517216
-0.067402899
-0.07689685
-0.052971162
-0.058020065
-0.041550847
-0.044858529
-0.035127344
-0.038375899
-0.033456444
-0.035864838
-0.033066521
-0.034214882
-0.032344636
-0.032707553
-0.031427501
-0.031445036
-0.030624807
-0.030582865
-0.030152521
-0.030200668
-0.030078905
-0.030254556
-0.03035542
-0.030578703
-0.030673238
-0.030696249
-0.03051589
-0.030065918
-0.029295647
-0.028135001
-0.026536717
-0.024507252
-0.022021147
-0.019076208
-0.01581445
-0.012378185
-0.0088790088
-0.0055586183
-0.0029050197
0.060411547
0.069297325
0.078120306
0.086866885
0.095523296
0.10407607
0.11251241
0.12081907
0.12898381
0.13699502
0.14484224
0.15251559
0.16000588
0.16730468
0.17440427
0.18129866
0.18798226
0.19445084
0.20070075
0.20672976
0.21253598
0.21811896
0.22347882
0.22861671
0.23353436
0.23823395
0.24271894
0.24699274
0.25106028
0.25492555
0.25859491
0.26207236
0.26536442
0.26847053
0.27139514
0.27413865
0.27670947
0.27910767
0.28134592
0.28342156
0.2853533
0.28713389
0.28879188
0.29030765
0.29172974
0.29302764
0.2942002
0.29531039
0.29641869
0.29753421
0.29870247
0.29993026
0.301247
0.30265244
0.3041534
0.30572412
0.30733359
0.30892071
0.3104265
0.31177475
0.31290826
0.31374579
0.31422976
0.31432701
0.31401213
0.31326017
0.31204828
0.31035729
0.30816688
0.30546435
0.30223281
0.29847837
0.29419776
0.2894611
0.28429063
0.27866091
0.27254214
0.26589498
0.25866567
0.25079419
0.24219268
0.23276112
0.22234583
0.21079277
0.19778702
0.18306098
0.16579105
0.14566058
0.12249842
0.096048146
0.065987807
0.031970792
-0.0063655461
-0.049398008
-0.097423843
-0.15028843
-0.20647017
-0.26393196
-0.31614049
-0.35589006
-0.36581832
-0.35798385
-0.32822439
-0.30616401
-0.26414502
-0.26411299
-0.2195734
-0.24488779
-0.14516602
-0.067404485
-0.076893577
-0.052971646
-0.058021341
-0.041559326
-0.04486101
-0.035139641
-0.038374398
-0.03346558
-0.035861128
-0.033074325
-0.034213745
-0.032352151
-0.03270897
-0.031433882
-0.031446882
-0.030628686
-0.030583772
-0.030153656
-0.030199445
-0.030077379
-0.030251301
-0.030351906
-0.030574845
-0.030670083
-0.030695419
-0.030515883
-0.030071164
-0.02930262
-0.028148079
-0.026553544
-0.024528717
-0.022047929
-0.019108454
-0.01585101
-0.012418009
-0.0089206077
-0.0056029823
-0.0029389167
0.060405642
0.069291324
0.078114185
0.086860655
0.095516973
0.10406968
0.11250599
0.12081262
0.12897735
0.13698856
0.1448358
0.1525092
0.15999954
0.16729841
0.17439808
0.18129258
0.18797629
0.19444498
0.20069504
0.2067242
0.21253059
0.21811373
0.22347378
0.22861185
0.2335297
0.2382295
0.24271469
0.24698869
0.25105643
0.25492189
0.25859143
0.26206906
0.2653613
0.26846759
0.27139237
0.27413605
0.27670703
0.27910537
0.28134375
0.28341952
0.28535137
0.28713208
0.28879017
0.29030606
0.29172804
0.29302607
0.29419959
0.29531072
0.29641987
0.2975363
0.29870556
0.29993446
0.30125246
0.30265924
0.30416157
0.30573352
0.30734388
0.30893132
0.3104367
0.31178379
0.31291537
0.31375015
0.3142306
0.31432385
0.3140045
0.31324775
0.31203076
0.31033447
0.30813859
0.30543053
0.30219353
0.29843379
0.29414842
0.28940747
0.28423247
0.27859785
0.27247376
0.26582073
0.25858491
0.25070608
0.24209616
0.2326548
0.22222809
0.2106609
0.19763822
0.18288952
0.16559289
0.14543631
0.12224832
0.09577252
0.065687754
0.0316488
-0.0067049075
-0.049746289
-0.097765398
-0.15059334
-0.20669996
-0.26402728
-0.31605442
-0.35560407
-0.36548548
-0.35769903
-0.32806086
-0.30606411
-0.2641056
-0.26410504
-0.21955456
-0.24489148
-0.1451586
-0.06740682
-0.07688967
-0.052971855
-0.058022101
-0.041567259
-0.044862892
-0.035151679
-0.038372423
-0.033474699
-0.035857107
-0.033082238
-0.034212569
-0.032359811
-0.03271046
-0.031440432
-0.031448852
-0.030632696
-0.030584738
-0.030154859
-0.030198221
-0.030075832
-0.030247973
-0.030348302
-0.030570873
-0.030666852
-0.030694499
-0.030515923
-0.030076428
-0.029309863
-0.028161457
-0.026570939
-0.024550972
-0.022075723
-0.019141925
-0.015889057
-0.012459579
-0.0089641512
-0.0056491866
-0.0029751648
0.060399416
0.069285004
0.078107749
0.086854118
0.095510348
0.104063
0.11249928
0.12080588
0.12897062
0.13698184
0.14482912
0.15250256
0.15999297
0.16729192
0.17439169
0.1812863
0.18797014
0.19443897
0.20068919
0.2067185
0.21252507
0.21810839
0.22346864
0.22860691
0.23352497
0.23822497
0.24271038
0.2469846
0.25105254
0.25491819
0.25858792
0.26206573
0.26535816
0.26846464
0.27138961
0.27413346
0.2767046
0.27910308
0.28134159
0.28341749
0.28534945
0.28713027
0.28878847
0.29030448
0.29172631
0.29302442
0.29419889
0.29531095
0.29642097
0.29753832
0.29870859
0.29993864
0.30125793
0.30266613
0.3041699
0.30574314
0.30735444
0.30894224
0.31044721
0.3117931
0.31292271
0.31375465
0.31423143
0.31432054
0.31399656
0.31323484
0.31201257
0.3103108
0.30810927
0.30539551
0.30215288
0.29838769
0.29409743
0.28935206
0.28417236
0.27853267
0.27240306
0.26574392
0.25850136
0.25061488
0.24199624
0.2325447
0.22210612
0.2105243
0.19748405
0.18271199
0.16538802
0.14520495
0.1219908
0.095489484
0.065380599
0.031320453
-0.0070491096
-0.050096929
-0.098105035
-0.15088956
-0.2069113
-0.26409088
-0.31592137
-0.35525951
-0.36509876
-0.35737313
-0.32787546
-0.30595148
-0.26406527
-0.26409606
-0.21953353
-0.24489602
-0.1451498
-0.067409983
-0.076885135
-0.052971756
-0.05802235
-0.041574571
-0.044864115
-0.035163384
-0.03836991
-0.033483765
-0.035852741
-0.033090243
-0.034211343
-0.032367613
-0.032712021
-0.03144715
-0.031450947
-0.030636841
-0.030585763
-0.03015613
-0.030196996
-0.030074266
-0.030244572
-0.030344609
-0.030566786
-0.030663548
-0.030693492
-0.030516018
-0.030081718
-0.02931739
-0.028175151
-0.026588931
-0.024574053
-0.022104581
-0.019176684
-0.015928681
-0.012503018
-0.009009798
-0.0056974463
-0.0030139716
0.060392817
0.069278313
0.078100948
0.086847221
0.095503371
0.10405597
0.11249224
0.12079882
0.12896357
0.13697482
0.14482214
0.15249565
0.15998613
0.16728518
0.17438507
0.1812798
0.18796379
0.19443277
0.20068316
0.20671265
0.21251942
0.21810293
0.2234634
0.22860187
0.23352016
0.23822038
0.24270601
0.24698045
0.25104861
0.25491447
0.25858439
0.26206238
0.265355
0.26846168
0.27138684
0.27413086
0.27670217
0.27910079
0.28133943
0.28341546
0.28534754
0.28712848
0.28878679
0.29030291
0.29172457
0.29302268
0.29419808
0.29531107
0.29642197
0.29754025
0.29871155
0.29994278
0.30126341
0.30267308
0.30417836
0.30575298
0.30736529
0.30895347
0.31045801
0.31180268
0.31293027
0.31375925
0.31423222
0.31431704
0.31398826
0.3132214
0.31199365
0.31028621
0.30807886
0.30535921
0.3021108
0.29834
0.29404472
0.2892948
0.28411022
0.27846527
0.27232993
0.26566446
0.25841487
0.25052045
0.24189276
0.23243064
0.22197975
0.21038274
0.19732432
0.1825281
0.16517621
0.14496622
0.12172574
0.095198922
0.06506624
0.030985831
-0.0073979719
-0.050449374
-0.098441872
-0.15117574