/*--------------------------------*- C++ -*----------------------------------*\
| =========                 |                                                 |
| \\      /  F ield         | OpenFOAM: The Open Source CFD Toolbox           |
|  \\    /   O peration     | Version:  2.4.0                                 |
|   \\  /    A nd           | Web:      www.OpenFOAM.org                      |
|    \\/     M anipulation  |                                                 |
\*---------------------------------------------------------------------------*/
FoamFile
{
    version     2.0;
    format      ascii;
    class       volScalarField;
    location    "20000";
    object      k;
}
// * * * * * * * * * * * * * * * * * * * * * * * * * * * * * * * * * * * * * //

dimensions      [0 2 -2 0 0 0 0];

internalField   nonuniform List<scalar> 
32000
(
0.0002708553
0.0010253474
0.0011011236
0.00056743154
0.00030721098
4.0887365e-05
8.4713936e-05
0.00011195259
5.1408102e-05
4.663885e-05
0.0001489094
0.00015269717
0.00015490199
5.2241477e-05
0.00017348401
0.00077278772
0.00071990215
0.00077310249
0.00038827316
0.00065157926
0.00020347465
0.00015131874
5.6122196e-05
2.2073432e-05
1.5773621e-05
2.7112376e-05
4.3594799e-05
5.0488689e-05
4.8997154e-05
5.4891162e-05
4.5114299e-05
3.9746329e-05
3.9264046e-05
3.6753935e-05
3.5554559e-05
4.2112683e-05
4.25663e-05
4.0831654e-05
3.5722493e-05
3.1001426e-05
2.7348765e-05
2.5791515e-05
2.4419451e-05
2.4014475e-05
2.4354484e-05
2.7317959e-05
2.8552286e-05
6.6278511e-05
9.9629523e-05
0.00012746425
0.00014055264
0.00013791417
0.00012043701
9.1126461e-05
0.00013866982
0.0002146627
0.00031019383
0.00040508688
0.00046428735
0.00046096398
0.00042044803
0.00036997305
0.0003166899
0.0002613943
0.00021220883
0.00017953048
0.00016676722
0.00016308184
0.00016036581
0.0001555987
0.00014792593
0.00013789966
0.00012544294
0.00011122817
9.572145e-05
7.7353355e-05
6.0587576e-05
5.3137063e-05
4.1944451e-05
2.9130217e-05
1.6157478e-05
7.7740739e-06
2.2393968e-05
4.8106354e-05
8.2716046e-05
0.00012520997
0.00017408694
0.0002277715
0.00028417529
0.00034100117
0.00039649949
0.00044864062
0.0004960401
0.00053761911
0.00057242599
0.00059997903
0.00062076925
0.00063422841
0.00064104899
0.00064137665
0.00063684251
0.00062708984
0.00061358634
0.0005963354
0.00057678253
0.0005546776
0.00053184172
0.00050751683
0.0004828606
0.00045758407
0.00043318918
0.00040861978
0.0003843326
0.00036040193
0.00033787952
0.00031578303
0.00029424967
0.00027359395
0.00025391201
0.00023489008
0.00021705623
0.00019982203
0.00018348487
0.00016799992
0.0001534672
0.0001396909
0.00012692295
0.00011481666
0.00010355712
9.3057898e-05
8.3525908e-05
7.4679553e-05
6.6547805e-05
5.915392e-05
5.2553471e-05
4.6648871e-05
4.142556e-05
3.6883746e-05
3.3681555e-05
3.1558261e-05
2.9748682e-05
2.8155093e-05
2.6848634e-05
2.5850419e-05
2.5189215e-05
2.4984564e-05
2.530074e-05
2.6170321e-05
2.7583027e-05
2.9685822e-05
3.2326982e-05
3.4693015e-05
3.6340952e-05
2.8857545e-05
2.0389271e-05
1.8213757e-05
1.6621192e-05
1.5926535e-05
1.6116229e-05
1.7727414e-05
2.2246274e-05
3.274502e-05
4.8874864e-05
6.2620944e-05
6.6475453e-05
6.030932e-05
4.7668524e-05
3.3753264e-05
3.01477e-05
3.9922521e-05
4.5094818e-05
4.5639865e-05
4.178855e-05
3.5456879e-05
5.9829472e-05
9.2511216e-05
0.00013215456
0.00017825175
0.00023099815
0.00029161004
0.00036297616
0.0004482339
0.00055374561
0.00069958643
0.00090132245
0.0011676611
0.0015146515
0.0019704078
0.0025696885
0.0033565661
0.0043579087
0.0054713077
0.0063955627
0.0061721024
0.0046108885
0.0024288498
0.0012191436
0.00054335772
0.00027768107
0.00033424782
0.00013845044
0.00052678524
0.00053832784
0.00023836864
0.00018532773
3.6477641e-05
6.8820959e-05
6.7193761e-05
3.7086052e-05
3.1705428e-05
7.8357057e-05
8.7371718e-05
8.51948e-05
2.9868928e-05
6.9153912e-05
0.0003083929
0.00029885009
0.00034119807
0.00019642793
0.00030595272
0.00010767738
7.2584483e-05
2.6747594e-05
1.1296579e-05
8.7243993e-06
1.4461072e-05
2.2710598e-05
2.6776437e-05
2.6679165e-05
2.8684608e-05
2.3196704e-05
2.046871e-05
2.120467e-05
2.0128041e-05
2.0147697e-05
2.5083468e-05
2.7099203e-05
2.7119102e-05
2.4795329e-05
2.238885e-05
2.0746483e-05
2.100276e-05
2.1123709e-05
2.1942211e-05
2.2386437e-05
2.44891e-05
2.200655e-05
5.2806173e-05
7.8851869e-05
0.00010248457
0.00011738396
0.00012382025
0.00012189172
0.0001130425
0.00013744878
0.00017391595
0.00021639433
0.00025583852
0.0002795896
0.00027814407
0.00026139259
0.00023949587
0.00021512422
0.00018886932
0.0001640154
0.00014543925
0.00013546099
0.00012930572
0.00012336933
0.00011637366
0.00010805837
9.8548178e-05
8.7567284e-05
7.5687338e-05
6.384609e-05
5.0822499e-05
3.9690907e-05
3.5441325e-05
2.9363756e-05
2.2566516e-05
1.548715e-05
1.2271281e-05
2.2307783e-05
3.6772067e-05
5.4663797e-05
7.5389717e-05
9.8159987e-05
0.00012218693
0.00014683938
0.00017099765
0.00019409731
0.00021541453
0.00023449176
0.000250994
0.00026462262
0.00027526843
0.0002831681
0.00028815421
0.00029050472
0.0002903063
0.00028817791
0.00028400833
0.00027833355
0.00027117881
0.00026305848
0.0002539062
0.00024438076
0.00023422207
0.00022384262
0.00021316253
0.00020273831
0.00019217697
0.00018164152
0.00017119381
0.00016123437
0.00015138372
0.0001416974
0.00013232212
0.00012329235
0.00011449928
0.00010616225
9.8050853e-05
9.0288878e-05
8.2875907e-05
7.5861889e-05
6.9172652e-05
6.2924033e-05
5.6978586e-05
5.1416256e-05
4.6215173e-05
4.1468451e-05
3.7059395e-05
3.3004302e-05
2.9317116e-05
2.6026898e-05
2.308529e-05
2.0489497e-05
1.8257925e-05
1.6769812e-05
1.5868244e-05
1.5091763e-05
1.4389407e-05
1.3802694e-05
1.3328278e-05
1.2976581e-05
1.2816992e-05
1.2856785e-05
1.3115974e-05
1.3567967e-05
1.4300885e-05
1.5210975e-05
1.6002446e-05
1.6456598e-05
1.3113163e-05
9.4832442e-06
8.5423335e-06
7.8533198e-06
7.5316771e-06
7.6495389e-06
8.5597674e-06
1.1306701e-05
1.851221e-05
3.1020252e-05
4.242246e-05
4.5765763e-05
4.0777695e-05
3.0910715e-05
2.0907145e-05
1.9750489e-05
3.1035622e-05
4.0827294e-05
4.8356282e-05
5.3308357e-05
5.6481659e-05
7.5353457e-05
9.6899439e-05
0.00012115794
0.0001481826
0.00017804149
0.00021167925
0.00025067604
0.00029679136
0.000353279
0.00043025491
0.00053343082
0.00066309257
0.00082307473
0.0010211173
0.0012640537
0.0015575812
0.0018955333
0.0022257241
0.0024635288
0.0023381823
0.0018509217
0.00097963475
0.00057326005
0.00027403926
0.00017866427
0.0002934633
5.240228e-05
0.00020661065
0.00020079889
6.8152477e-05
0.00010959327
2.7650958e-05
5.6427503e-05
4.0435583e-05
2.7066087e-05
2.1613037e-05
3.963683e-05
4.4365107e-05
4.2378988e-05
1.6316459e-05
2.7355163e-05
0.0001150349
0.00011386843
0.00013553965
8.5386063e-05
0.00012773594
4.948072e-05
3.1243301e-05
1.1454929e-05
5.2091227e-06
4.4525662e-06
7.3593932e-06
1.1387841e-05
1.3569571e-05
1.3781989e-05
1.4367277e-05
1.1804997e-05
1.0784475e-05
1.1680194e-05
1.1417618e-05
1.1717323e-05
1.4526702e-05
1.6012204e-05
1.6283239e-05
1.5312666e-05
1.4149308e-05
1.3450642e-05
1.3992851e-05
1.4421815e-05
1.5228684e-05
1.5598425e-05
1.6617895e-05
1.4210281e-05
3.1468797e-05
4.2585021e-05
5.066253e-05
5.4885943e-05
5.6199585e-05
5.5144957e-05
5.2499299e-05
5.9964386e-05
6.8607404e-05
7.7049128e-05
8.4147219e-05
8.7590761e-05
8.6875765e-05
8.4555597e-05
8.1951413e-05
7.8791183e-05
7.4550365e-05
6.9746726e-05
6.5690024e-05
6.3460805e-05
6.1760081e-05
5.9657181e-05
5.6896598e-05
5.3834494e-05
5.0604588e-05
4.6802837e-05
4.2263339e-05
3.7430695e-05
3.1445211e-05
2.582222e-05
2.3218006e-05
1.9894635e-05
1.6405872e-05
1.2781816e-05
1.1749916e-05
1.6893077e-05
2.3373449e-05
3.0780094e-05
3.8859197e-05
4.7307776e-05
5.5827189e-05
6.4378059e-05
7.2487746e-05
8.0071388e-05
8.6941481e-05
9.299793e-05
9.8182976e-05
0.0001024289
0.00010572739
0.00010817892
0.00010974392
0.00011050582
0.00011049037
0.00010989346
0.00010867922
0.00010699435
0.00010485247
0.00010238834
9.9587179e-05
9.6634468e-05
9.3457657e-05
9.016164e-05
8.6731298e-05
8.3333993e-05
7.9848359e-05
7.6304664e-05
7.2736756e-05
6.9272698e-05
6.5790465e-05
6.2294719e-05
5.8849503e-05
5.5459444e-05
5.2096408e-05
4.8838108e-05
4.5611752e-05
4.2456163e-05
3.9383799e-05
3.6419912e-05
3.3543666e-05
3.0806937e-05
2.816623e-05
2.5652823e-05
2.3270562e-05
2.1064633e-05
1.8995639e-05
1.7074619e-05
1.5310503e-05
1.3724213e-05
1.2293919e-05
1.1025122e-05
9.9392773e-06
9.2414783e-06
8.8403499e-06
8.4860246e-06
8.1504836e-06
7.8598663e-06
7.5999175e-06
7.3747508e-06
7.2249674e-06
7.1401818e-06
7.1327437e-06
7.1810992e-06
7.3324228e-06
7.5329385e-06
7.6750741e-06
7.6780734e-06
6.1183148e-06
4.5493078e-06
4.1661881e-06
3.8931438e-06
3.7818581e-06
3.8968167e-06
4.4496704e-06
6.1151438e-06
1.0730835e-05
1.9004815e-05
2.6489787e-05
2.8885513e-05
2.6137247e-05
2.0231065e-05
1.4171481e-05
1.4270023e-05
2.3305072e-05
3.1410944e-05
3.7904386e-05
4.2589247e-05
4.5898019e-05
5.5433168e-05
6.5347216e-05
7.5969265e-05
8.7405551e-05
9.9668004e-05
0.00011320013
0.00012854205
0.00014621975
0.00016715429
0.00019417081
0.000227131
0.00026387728
0.00030334219
0.00034495302
0.00038558321
0.0004190111
0.00043547631
0.00042361442
0.0004013174
0.00037152793
0.0004007314
0.0002014271
0.00022230595
0.00012630544
9.3077541e-05
0.00014439091
7.3814199e-09
9.7488304e-09
1.4014858e-06
1.3784873e-07
5.0312631e-05
1.5098536e-05
4.3257128e-05
2.4364332e-05
1.9465548e-05
1.4189407e-05
1.8890474e-05
1.8716724e-05
1.7581829e-05
8.3528641e-06
1.0748963e-05
3.9051918e-05
3.7139337e-05
4.4930195e-05
2.9737457e-05
4.4897387e-05
1.9899381e-05
1.2310398e-05
4.5632393e-06
2.2771519e-06
2.194069e-06
3.6048396e-06
5.4307227e-06
6.4179829e-06
6.5210179e-06
6.7054069e-06
5.8330053e-06
5.67045e-06
6.2761477e-06
6.2821006e-06
6.4283923e-06
7.4940728e-06
7.8944441e-06
7.8365732e-06
7.4128084e-06
6.9115175e-06
6.6170413e-06
6.869768e-06
7.147536e-06
7.5645515e-06
7.8230028e-06
8.0155919e-06
6.6947469e-06
1.1285279e-05
1.050645e-05
6.926704e-06
4.0922202e-06
2.5419662e-06
1.7922333e-06
1.4421881e-06
1.527312e-06
1.5019981e-06
1.4860228e-06
1.5648696e-06
1.7037999e-06
1.9860201e-06
2.5069916e-06
3.3248389e-06
4.4524284e-06
5.8147073e-06
7.3500562e-06
8.9057102e-06
1.0429143e-05
1.1771688e-05
1.2839699e-05
1.3617034e-05
1.4419224e-05
1.5474987e-05
1.6656979e-05
1.7538578e-05
1.7967099e-05
1.733314e-05
1.5787356e-05
1.4291145e-05
1.2549694e-05
1.0822159e-05
9.0458734e-06
8.5510772e-06
1.0243624e-05
1.211636e-05
1.4045864e-05
1.5971024e-05
1.7834787e-05
1.9586152e-05
2.1288142e-05
2.2820196e-05
2.4214923e-05
2.5454071e-05
2.6538767e-05
2.7479606e-05
2.8269241e-05
2.891075e-05
2.9436773e-05
2.983985e-05
3.012915e-05
3.0299796e-05
3.0398019e-05
3.040451e-05
3.0346023e-05
3.0212831e-05
3.0025247e-05
2.9772364e-05
2.9487406e-05
2.9152495e-05
2.8775861e-05
2.835181e-05
2.7916979e-05
2.7439911e-05
2.6911313e-05
2.6338931e-05
2.5754578e-05
2.5125972e-05
2.4440813e-05
2.3718766e-05
2.2956036e-05
2.214485e-05
2.1307176e-05
2.0424829e-05
1.9502303e-05
1.8548212e-05
1.7576619e-05
1.6582953e-05
1.559194e-05
1.4594011e-05
1.3600134e-05
1.2620758e-05
1.1681452e-05
1.0774725e-05
9.909262e-06
9.0909535e-06
8.3381433e-06
7.6418453e-06
7.0124416e-06
6.4666172e-06
6.1112263e-06
5.8958807e-06
5.696226e-06
5.4964691e-06
5.3138462e-06
5.1318434e-06
4.9531695e-06
4.8012828e-06
4.6644516e-06
4.5495628e-06
4.4439694e-06
4.3679264e-06
4.3027715e-06
4.1965e-06
4.0472562e-06
3.2075315e-06
2.4550357e-06
2.3081415e-06
2.214556e-06
2.2110372e-06
2.3312209e-06
2.6888086e-06
3.6679887e-06
6.2893161e-06
1.0645819e-05
1.4226164e-05
1.5701687e-05
1.5213232e-05
1.3014125e-05
1.0190171e-05
1.0641841e-05
1.5903779e-05
1.9707458e-05
2.1926143e-05
2.2747903e-05
2.2661527e-05
2.4506943e-05
2.6337181e-05
2.8275375e-05
3.0271535e-05
3.2305429e-05
3.44142e-05
3.6555142e-05
3.8599478e-05
4.0306014e-05
4.1047496e-05
3.919534e-05
3.4074626e-05
2.6238183e-05
1.7380994e-05
9.7770963e-06
4.6755739e-06
2.072755e-06
8.9292176e-07
5.6712224e-07
4.0136294e-07
3.4412128e-06
5.6611308e-09
5.4240665e-05
4.3694549e-05
1.7840402e-05
4.8897079e-06
1e-15
1e-15
1.0888958e-15
1.2633345e-13
3.6732856e-06
3.8219648e-06
2.799748e-05
1.3720947e-05
1.3044707e-05
8.4498024e-06
7.8750651e-06
5.5749971e-06
5.0928537e-06
3.7171242e-06
3.9315624e-06
1.0304191e-05
7.5352488e-06
8.7134106e-06
5.6418978e-06
9.9456835e-06
6.1254351e-06
4.1752633e-06
1.6453477e-06
9.3624226e-07
1.0268965e-06
1.6369175e-06
2.3184699e-06
2.6219024e-06
2.5766467e-06
2.6813107e-06
2.6127512e-06
2.7334803e-06
2.9213536e-06
2.84777e-06
2.7263178e-06
2.7296028e-06
2.3407731e-06
1.9415407e-06
1.7192257e-06
1.5922626e-06
1.5078519e-06
1.509109e-06
1.6619902e-06
1.8359191e-06
2.0234406e-06
1.8854118e-06
1.3539164e-06
3.4001363e-07
5.5994211e-08
1.7447148e-08
1.0559018e-08
8.7962124e-09
8.4402937e-09
8.5988817e-09
9.1452606e-09
9.9821485e-09
1.1260688e-08
1.3111661e-08
1.5501576e-08
1.9044738e-08
2.4938068e-08
3.4826225e-08
5.0901582e-08
7.6712848e-08
1.2251101e-07
1.9800962e-07
3.0389284e-07
4.5237869e-07
6.5448317e-07
9.1183815e-07
1.2520011e-06
1.789744e-06
2.7445735e-06
4.2187238e-06
6.0270577e-06
7.6985183e-06
8.3703482e-06
7.6675934e-06
6.8658207e-06
6.0698098e-06
5.2328399e-06
4.7355518e-06
4.6518195e-06
4.5406477e-06
4.4060257e-06
4.2590257e-06
4.1148604e-06
3.9853129e-06
3.8819755e-06
3.7970073e-06
3.7404543e-06
3.7073342e-06
3.6962965e-06
3.7091558e-06
3.7399653e-06
3.7871773e-06
3.853896e-06
3.9402115e-06
4.041769e-06
4.1548977e-06
4.2877163e-06
4.4348308e-06
4.6012937e-06
4.7810715e-06
4.9767411e-06
5.1845445e-06
5.4076278e-06
5.6451414e-06
5.8926356e-06
6.1476167e-06
6.4156682e-06
6.6907211e-06
6.9636371e-06
7.2306139e-06
7.4961823e-06
7.7520072e-06
7.986089e-06
8.1969073e-06
8.3780985e-06
8.5226374e-06
8.6302902e-06
8.6954893e-06
8.7083284e-06
8.6687563e-06
8.5815677e-06
8.4433016e-06
8.2631617e-06
8.0405155e-06
7.775242e-06
7.4764351e-06
7.1589963e-06
6.8264213e-06
6.4844638e-06
6.1372009e-06
5.8003045e-06
5.470878e-06
5.159967e-06
4.8776895e-06
4.6760471e-06
4.5322982e-06
4.3912948e-06
4.2451485e-06
4.1041437e-06
3.9549241e-06
3.799693e-06
3.6507609e-06
3.5006857e-06
3.3524764e-06
3.2003818e-06
3.0480559e-06
2.8972097e-06
2.7075122e-06
2.5190862e-06
1.9772109e-06
1.5459803e-06
1.4947282e-06
1.4725655e-06
1.5137381e-06
1.6208863e-06
1.8390962e-06
2.3311797e-06
3.473851e-06
4.911009e-06
5.7299599e-06
6.5469668e-06
7.5442068e-06
7.9019282e-06
7.2511838e-06
7.4876769e-06
9.1729999e-06
9.0835918e-06
7.8574889e-06
6.0419214e-06
4.0419143e-06
2.7707501e-06
1.9562786e-06
1.4490274e-06
1.1060875e-06
8.6913783e-07
6.9065474e-07
5.4075952e-07
4.0788666e-07
2.8829541e-07
1.7732322e-07
9.4533098e-08
4.8883944e-08
2.665181e-08
1.6019948e-08
1.0953249e-08
8.2877595e-09
6.9286122e-09
5.7412686e-09
5.3759991e-09
4.0383763e-09
1.084648e-08
5.7321435e-11
3.4217377e-06
3.9889938e-06
7.2889105e-15
1.7319561e-15
1e-15
1e-15
1e-15
1.0119159e-15
3.9801285e-13
3.4383839e-10
1.2811723e-05
6.2505981e-06
7.5734771e-06
4.165129e-06
2.4149421e-06
8.0539218e-07
6.717941e-07
1.2051125e-06
1.1111529e-06
1.1907915e-06
3.2962408e-07
2.7943805e-07
1.3351504e-07
2.8854451e-07
8.02961e-07
9.920789e-07
4.9342173e-07
3.4430416e-07
4.2591426e-07
6.2646702e-07
7.647061e-07
7.5715375e-07
6.6300429e-07
7.3739832e-07
8.9777274e-07
9.8923582e-07
8.3457778e-07
5.1941537e-07
1.4594214e-07
1.3580773e-08
2.1928918e-09
9.6056076e-10
8.7000864e-10
1.0581268e-09
1.2677853e-09
1.5278525e-09
2.8917522e-09
6.5353311e-09
1.6305153e-08
1.8129894e-08
9.9408654e-09
2.4859859e-09
2.2048276e-09
2.2764957e-09
2.3322221e-09
2.4455766e-09
2.6061725e-09
2.7653099e-09
2.9291614e-09
3.1785181e-09
3.52606e-09
3.9666732e-09
4.4104258e-09
4.9234346e-09
5.6777197e-09
6.7641861e-09
8.1962163e-09
1.0020897e-08
1.3191323e-08
1.8474481e-08
2.5453968e-08
3.6061182e-08
5.2948659e-08
7.7406431e-08
1.0711247e-07
1.478321e-07
2.3169008e-07
4.3927848e-07
9.6027151e-07
2.1466361e-06
3.2886257e-06
3.0774182e-06
2.8006675e-06
2.4860019e-06
2.1183675e-06
1.6653393e-06
1.1924599e-06
8.4904699e-07
6.2328639e-07
4.8003847e-07
3.9013736e-07
3.3371531e-07
2.9720924e-07
2.732087e-07
2.5926223e-07
2.5178224e-07
2.4909468e-07
2.5062377e-07
2.5506805e-07
2.6233299e-07
2.7235347e-07
2.8571162e-07
3.0165363e-07
3.2011464e-07
3.4214953e-07
3.6767856e-07
3.9808604e-07
4.330927e-07
4.7387103e-07
5.2103473e-07
5.7586866e-07
6.4065239e-07
7.159767e-07
8.0386366e-07
9.075055e-07
1.0295669e-06
1.1711259e-06
1.3335376e-06
1.520155e-06
1.7322839e-06
1.9675741e-06
2.223376e-06
2.4962242e-06
2.7801661e-06
3.0691186e-06
3.3576001e-06
3.6315023e-06
3.8831311e-06
4.1083883e-06
4.2991186e-06
4.4533156e-06
4.5681001e-06
4.6355428e-06
4.6597344e-06
4.6469993e-06
4.6023942e-06
4.5276942e-06
4.4258829e-06
4.3086765e-06
4.1761514e-06
4.0374812e-06
3.8962962e-06
3.7745817e-06
3.6687323e-06
3.559652e-06
3.4453538e-06
3.3298681e-06
3.2056337e-06
3.0739926e-06
2.9396555e-06
2.8005177e-06
2.6569996e-06
2.5075163e-06
2.3462885e-06
2.1843013e-06
1.9825118e-06
1.7990125e-06
1.3981926e-06
1.101473e-06
1.083756e-06
1.0819661e-06
1.127711e-06
1.1996389e-06
1.2956521e-06
1.4287002e-06
1.6042716e-06
1.4480479e-06
1.1012485e-06
1.4893631e-06
2.793709e-06
4.2904033e-06
4.785829e-06
4.5921771e-06
3.8431568e-06
1.9375825e-06
3.6221961e-07
5.7262022e-08
1.5634094e-08
7.5108674e-09
5.0596263e-09
4.029698e-09
3.4720866e-09
3.1346002e-09
2.9025523e-09
2.7103739e-09
2.5377783e-09
2.3831531e-09
2.2088879e-09
2.0744104e-09
1.99231e-09
1.9515127e-09
1.926048e-09
1.9009346e-09
1.8386721e-09
1.7409185e-09
1.5420875e-09
1.3502208e-09
1.1541741e-09
1.4178739e-09
3.0633774e-11
1.6642421e-09
4.611871e-10
1e-15
1e-15
1e-15
1.5437338e-10
1.8918143e-08
1.0148125e-10
1.0445268e-14
7.8694173e-13
1.8929194e-06
1.5485724e-06
3.3116716e-06
1.3663531e-06
3.7953332e-07
6.6790821e-08
4.8971378e-08
1.8053604e-07
1.6323345e-07
4.9617541e-08
1.6885676e-08
1.1068497e-08
4.1921689e-09
3.2168768e-09
1.8901141e-08
1.1181214e-07
1.1491075e-07
1.0757522e-07
1.3936782e-07
1.6740075e-07
1.3756948e-07
9.328852e-08
6.2749931e-08
7.8467235e-08
1.248903e-07
4.6866504e-08
1.1274701e-09
1.907409e-10
4.5400877e-11
2.9681412e-11
3.3219201e-11
4.0499525e-11
5.1398048e-11
6.6694074e-11
8.6902438e-11
1.1674808e-10
1.6547315e-10
2.477749e-10
4.0463014e-10
5.973061e-10
7.7531247e-10
8.8656933e-10
9.397065e-10
9.9283721e-10
1.0119562e-09
1.0491844e-09
1.1060252e-09
1.1567582e-09
1.2035212e-09
1.2836147e-09
1.4010789e-09
1.5502354e-09
1.6858185e-09
1.8262589e-09
2.0334624e-09
2.3147998e-09
2.6303378e-09
2.931216e-09
3.4280012e-09
4.1906035e-09
5.0218053e-09
6.2813903e-09
8.5348681e-09
1.2216273e-08
1.651371e-08
2.1018859e-08
2.8036568e-08
4.0110887e-08
6.2689011e-08
1.7675031e-07
5.5035758e-07
5.4807456e-07
5.1088109e-07
4.3210673e-07
3.2190288e-07
1.6485129e-07
7.3061123e-08
4.2128752e-08
2.9714427e-08
2.3844305e-08
2.0819657e-08
1.9285726e-08
1.8641761e-08
1.8307709e-08
1.8548357e-08
1.9119238e-08
1.9978134e-08
2.1132371e-08
2.2520788e-08
2.4177138e-08
2.6134107e-08
2.8494631e-08
3.1198689e-08
3.424094e-08
3.7763907e-08
4.1763777e-08
4.6466301e-08
5.180787e-08
5.7960667e-08
6.500814e-08
7.3133226e-08
8.273785e-08
9.396187e-08
1.0729058e-07
1.2345298e-07
1.4337563e-07
1.6809695e-07
1.9910989e-07
2.3880644e-07
2.9026387e-07
3.5690453e-07
4.4258768e-07
5.5182821e-07
6.8831185e-07
8.5421001e-07
1.050813e-06
1.2717617e-06
1.5107419e-06
1.760813e-06
2.0115642e-06
2.253806e-06
2.4798935e-06
2.6760316e-06
2.8399626e-06
2.9699917e-06
3.0683115e-06
3.1321147e-06
3.1633478e-06
3.1690478e-06
3.1505332e-06
3.11364e-06
3.0574344e-06
2.9875792e-06
2.9130522e-06
2.8323866e-06
2.7478763e-06
2.6582425e-06
2.5622349e-06
2.4599137e-06
2.3508371e-06
2.2374379e-06
2.1187307e-06
1.9948039e-06
1.8554053e-06
1.7135162e-06
1.5317403e-06
1.3707629e-06
1.056344e-06
8.275947e-07
8.1555055e-07
8.0964805e-07
8.3624239e-07
8.5917916e-07
8.4939475e-07
7.4881742e-07
4.8503864e-07
1.1567861e-07
3.7813098e-08
8.2224576e-08
5.3880656e-07
1.8791467e-06
2.7260775e-06
2.1810865e-06
5.6672286e-07
1.1554424e-08
1.5151181e-09
9.1196955e-10
7.6687308e-10
7.0861547e-10
6.8507106e-10
6.7642492e-10
6.7349777e-10
6.7364368e-10
6.7627177e-10
6.7861627e-10
6.8075287e-10
6.8549386e-10
6.8479383e-10
6.8964887e-10
6.9797131e-10
7.0899415e-10
7.1680782e-10
7.1504057e-10
6.9067231e-10
6.3466407e-10
5.427501e-10
4.215942e-10
4.1382588e-10
2.9148855e-10
2.7829144e-11
1.756028e-12
4.5246006e-11
1e-15
1e-15
1e-15
0.0038599137
0.0021361321
0.00056419463
6.9001287e-15
2.7528493e-13
3.0116982e-10
1.0970749e-08
6.4753874e-07
1.322759e-07
3.6816604e-08
1.1286121e-08
8.3059512e-09
1.3540168e-08
1.595898e-08
9.4471328e-09
6.4450282e-09
3.7098295e-09
1.3050902e-09
8.6872492e-10
2.2207012e-09
1.3079841e-08
2.7963107e-08
3.2209447e-08
3.5817513e-08
2.9805142e-08
1.4987615e-08
8.5393935e-09
6.0929152e-09
5.9205207e-09
2.0952098e-09
7.2140509e-11
2.7642171e-11
2.3030278e-11
2.2343968e-11
2.3884318e-11
2.7407445e-11
3.3084331e-11
4.1128263e-11
5.1774638e-11
6.4981585e-11
8.3287249e-11
1.1025008e-10
1.4884039e-10
2.070978e-10
2.7050568e-10
3.4984191e-10
3.9666158e-10
4.0449559e-10
4.1169001e-10
4.0680202e-10
4.0972234e-10
4.2100937e-10
4.2945754e-10
4.3582814e-10
4.5299866e-10
4.8152914e-10
5.1829075e-10
5.4819436e-10
5.7588941e-10
6.1978986e-10
6.7871882e-10
7.3762787e-10
7.7846005e-10
8.4696168e-10
9.4027697e-10
1.0059064e-09
1.0934525e-09
1.2605786e-09
1.53671e-09
1.8283879e-09
2.0790625e-09
2.4727835e-09
2.9834584e-09
3.117125e-09
3.822848e-09
6.7292788e-09
6.8424166e-09
6.6040635e-09
5.3523763e-09
3.8454705e-09
2.4122125e-09
1.7913789e-09
1.5683921e-09
1.4758328e-09
1.4421947e-09
1.4413235e-09
1.4662891e-09
1.5241835e-09
1.5662036e-09
1.6427641e-09
1.7358744e-09
1.8469523e-09
1.9782594e-09
2.1290005e-09
2.303757e-09
2.508962e-09
2.7554851e-09
3.0426057e-09
3.3743705e-09
3.7681632e-09
4.2313351e-09
4.7952628e-09
5.4632479e-09
6.2639157e-09
7.2200388e-09
8.3664068e-09
9.7674665e-09
1.1452979e-08
1.3499415e-08
1.6013229e-08
1.91155e-08
2.2958962e-08
2.7757769e-08
3.3874023e-08
4.1823756e-08
5.2380981e-08
6.6698022e-08
8.6701152e-08
1.1529316e-07
1.566551e-07
2.1681636e-07
3.0112324e-07
4.1456448e-07
5.593674e-07
7.3275338e-07
9.279151e-07
1.1364416e-06
1.3430287e-06
1.5398212e-06
1.7182769e-06
1.8753183e-06
2.0039014e-06
2.1040925e-06
2.1779977e-06
2.2264825e-06
2.2519547e-06
2.2504191e-06
2.2195547e-06
2.1751282e-06
2.1233662e-06
2.0692695e-06
2.0077959e-06
1.9428708e-06
1.8733193e-06
1.795461e-06
1.7148366e-06
1.6298696e-06
1.5407321e-06
1.435689e-06
1.3255924e-06
1.1772384e-06
1.0448597e-06
7.9771999e-07
6.1450551e-07
5.9630758e-07
5.7628436e-07
5.7395012e-07
5.4892154e-07
4.6712812e-07
2.8006067e-07
5.5827357e-08
5.079543e-09
3.2850579e-09
5.9904892e-09
3.6445487e-08
5.0119538e-07
1.1584142e-06
5.4081576e-07
1.9006363e-09
3.826196e-10
3.0381468e-10
2.7459666e-10
2.6086837e-10
2.5462313e-10
2.535274e-10
2.5532306e-10
2.5815841e-10
2.6144396e-10
2.6527906e-10
2.689666e-10
2.7270194e-10
2.7792153e-10
2.8154423e-10
2.873256e-10
2.9357889e-10
2.9987265e-10
3.036033e-10
3.0110209e-10
2.8658704e-10
2.5296556e-10
2.0620775e-10
1.3852056e-10
1.6559257e-10
6.3102626e-11
4.9444862e-11
6.3114994e-14
5.4603482e-09
1e-15
1.0406939e-11
6.4697684e-11
0.0082292556
0.0046860745
0.0013775033
6.37326e-06
2.6022378e-11
3.6044739e-11
1.2044244e-10
3.3709e-09
4.0289338e-09
7.1427217e-09
3.8813249e-09
2.9762814e-09
2.8468722e-09
3.695779e-09
3.9849675e-09
3.1564581e-09
1.7785035e-09
7.2820126e-10
5.2697676e-10
1.0220096e-09
4.7984732e-09
1.0891963e-08
1.244515e-08
1.1142844e-08
7.8763033e-09
4.2788087e-09
2.9570154e-09
2.2595614e-09
1.5935571e-09
1.7829123e-10
3.3636619e-11
2.1925892e-11
1.886824e-11
1.8399266e-11
1.9578493e-11
2.2228566e-11
2.6398642e-11
3.2087905e-11
3.9223585e-11
4.7557272e-11
5.8398963e-11
7.308601e-11
9.1714075e-11
1.157344e-10
1.3684646e-10
1.6076174e-10
1.6623914e-10
1.5881551e-10
1.5261359e-10
1.4486924e-10
1.4070492e-10
1.3987218e-10
1.3865712e-10
1.3727321e-10
1.3859407e-10
1.4240508e-10
1.4760291e-10
1.51186e-10
1.5394147e-10
1.5922837e-10
1.6630112e-10
1.7255333e-10
1.7525663e-10
1.8066947e-10
1.8727216e-10
1.8927081e-10
1.9142571e-10
1.9724411e-10
2.0608701e-10
2.1253291e-10
2.15231e-10
2.2113224e-10
2.2820408e-10
2.2486267e-10
2.2411435e-10
2.225547e-10
2.191618e-10
2.1776433e-10
2.1486942e-10
2.1270557e-10
2.1140382e-10
2.1241121e-10
2.150133e-10
2.1880359e-10
2.234936e-10
2.2889948e-10
2.3530978e-10
2.4488116e-10
2.5041494e-10
2.5944279e-10
2.6944357e-10
2.8050196e-10
2.9276717e-10
3.0608134e-10
3.2094647e-10
3.3759717e-10
3.5683985e-10
3.7817897e-10
4.0231178e-10
4.2987699e-10
4.6166747e-10
4.9919025e-10
5.4304166e-10
5.94563e-10
6.5594707e-10
7.2940846e-10
8.200407e-10
9.3042463e-10
1.0684743e-09
1.2431787e-09
1.4673348e-09
1.7576498e-09
2.1401824e-09
2.6526234e-09
3.3501635e-09
4.3155332e-09
5.6711472e-09
7.6216503e-09
1.0505772e-08
1.4909149e-08
2.1950529e-08
3.3535818e-08
5.3265578e-08
8.7060075e-08
1.4268362e-07
2.2683682e-07
3.4175114e-07
4.8066653e-07
6.3614689e-07
7.9654032e-07
9.5264938e-07
1.0939342e-06
1.2180291e-06
1.3221201e-06
1.4046987e-06
1.4646979e-06
1.4967731e-06
1.4951192e-06
1.4774639e-06
1.4525584e-06
1.4265712e-06
1.3924834e-06
1.3575424e-06
1.3197216e-06
1.2736248e-06
1.2264317e-06
1.1763982e-06
1.1229113e-06
1.0545414e-06
9.7807956e-07
8.6633647e-07
7.6295393e-07
5.7431219e-07
4.2917696e-07
4.0192096e-07
3.6767863e-07
3.3986394e-07
2.8509638e-07
1.8604381e-07
5.5093426e-08
3.8217255e-09
1.0429261e-09
9.2723129e-10
1.3259944e-09
3.1617077e-09
2.9044247e-08
1.8797229e-07
2.7115219e-09
1.5230981e-10
1.244132e-10
1.1362072e-10
1.0861936e-10
1.0639416e-10
1.0579904e-10
1.065955e-10
1.0833753e-10
1.1043831e-10
1.1267399e-10
1.1511428e-10
1.1754077e-10
1.2007807e-10
1.2344032e-10
1.2634191e-10
1.302263e-10
1.3415091e-10
1.3788719e-10
1.401985e-10
1.3903279e-10
1.315607e-10
1.1298526e-10
8.9645607e-11
5.1545752e-11
8.7970446e-11
1.4184813e-11
1.2801283e-10
5.4625535e-15
4.8124195e-07
1e-15
0.0012380544
0.0026598552
0.013320124
0.0077421862
0.002518494
0.00028330832
8.5204391e-08
9.2745372e-11
8.2395332e-11
1.4441466e-10
6.4506655e-10
2.5597413e-09
2.051757e-09
1.5969097e-09
1.2910259e-09
1.4659152e-09
1.7484438e-09
1.4595863e-09
8.6564851e-10
4.3978291e-10
3.4845247e-10
5.8642447e-10
2.420029e-09
5.575188e-09
6.2318374e-09
5.1871921e-09
3.8328923e-09
2.3382512e-09
1.7130798e-09
1.2349771e-09
6.437595e-10
7.1631439e-11
2.4613234e-11
1.728369e-11
1.5125699e-11
1.4771962e-11
1.5615561e-11
1.7508337e-11
2.0421521e-11
2.4242714e-11
2.8769366e-11
3.3731494e-11
3.9741463e-11
4.7124208e-11
5.521331e-11
6.3733724e-11
6.8739061e-11
7.1750883e-11
6.5915335e-11
5.885244e-11
5.3662822e-11
4.9658801e-11
4.7192106e-11
4.5935472e-11
4.4912895e-11
4.4113299e-11
4.3882934e-11
4.4103393e-11
4.453093e-11
4.4811811e-11
4.5008355e-11
4.55141e-11
4.6175355e-11
4.675068e-11
4.700293e-11
4.7484329e-11
4.8015436e-11
4.8252002e-11
4.8487392e-11
4.8937509e-11
4.9480846e-11
4.9908561e-11
5.0196718e-11
5.0613949e-11
5.1086772e-11
5.1395484e-11
5.1807609e-11
5.2260956e-11
5.2733547e-11
5.3318568e-11
5.3937564e-11
5.462916e-11
5.5336598e-11
5.6117968e-11
5.6931676e-11
5.7820944e-11
5.8753288e-11
5.9747787e-11
6.0840789e-11
6.2541933e-11
6.3195607e-11
6.4491286e-11
6.5859845e-11
6.7300092e-11
6.8830364e-11
7.0416776e-11
7.2157261e-11
7.4006313e-11
7.6049779e-11
7.816348e-11
8.0506971e-11
8.301289e-11
8.5801622e-11
8.8840577e-11
9.2219012e-11
9.5893062e-11
1.0004608e-10
1.0467386e-10
1.1002328e-10
1.1604114e-10
1.2314871e-10
1.3143593e-10
1.4134298e-10
1.5320448e-10
1.6796368e-10
1.8640559e-10
2.1015989e-10
2.4128475e-10
2.8354667e-10
3.4249157e-10
4.283804e-10
5.5802461e-10
7.6481845e-10
1.1100405e-09
1.7342643e-09
2.9647515e-09
5.6438534e-09
1.199465e-08
2.7585749e-08
6.2356108e-08
1.2609332e-07
2.1603485e-07
3.2079269e-07
4.302492e-07
5.4096839e-07
6.4402413e-07
7.3259455e-07
8.0312774e-07
8.5036646e-07
8.6762035e-07
8.7028104e-07
8.6672668e-07
8.6292226e-07
8.5167385e-07
8.4145914e-07
8.3016232e-07
8.1192494e-07
7.9422267e-07
7.7515351e-07
7.5315625e-07
7.1776331e-07
6.7146107e-07
5.9377669e-07
5.1697524e-07
3.8014805e-07
2.7048694e-07
2.3743561e-07
1.9692635e-07
1.5872825e-07
1.0542679e-07
4.3952471e-08
5.6808749e-09
6.0497471e-10
3.3015694e-10
3.0226313e-10
3.4440599e-10
4.4056873e-10
5.3532975e-10
4.8071037e-10
7.1336239e-11
5.6513344e-11
5.1604749e-11
4.9480915e-11
4.8642936e-11
4.8511265e-11
4.8845418e-11
4.9650068e-11
5.0842043e-11
5.221564e-11
5.3680588e-11
5.5277155e-11
5.693622e-11
5.8731834e-11
6.1058065e-11
6.3353915e-11
6.6231701e-11
6.9251219e-11
7.2357396e-11
7.5034395e-11
7.6200684e-11
7.4578256e-11
6.6528417e-11
5.810818e-11
3.4411377e-11
9.1042096e-11
8.3612787e-12
3.7448428e-10
1.3262067e-15
6.1812968e-06
1e-15
0.0031572579
0.0059411035
0.018757439
0.011205921
0.0040060107
0.00071477505
1.8309719e-05
3.8416282e-10
1.1544231e-10
8.9510597e-11
2.5580444e-10
1.4643521e-09
1.5612307e-09
1.1413656e-09
8.009717e-10
7.4337607e-10
7.7029947e-10
6.2084508e-10
4.0188669e-10
2.5422406e-10
2.2274924e-10
3.4618612e-10
1.2195785e-09
3.0111787e-09
3.4525135e-09
2.8742951e-09
2.253692e-09
1.4740389e-09
1.1052503e-09
7.2693868e-10
2.7830028e-10
4.0812562e-11
1.8413581e-11
1.3620133e-11
1.2064539e-11
1.1768736e-11
1.2333248e-11
1.3630693e-11
1.5592601e-11
1.8067392e-11
2.0839415e-11
2.3695444e-11
2.6895068e-11
3.0385142e-11
3.3548971e-11
3.5923589e-11
3.6054781e-11
3.3777236e-11
2.806102e-11
2.4250801e-11
2.1823963e-11
2.0362037e-11
1.9481802e-11
1.9001429e-11
1.8668412e-11
1.8445439e-11
1.8342507e-11
1.8317895e-11
1.8335442e-11
1.8359134e-11
1.8382177e-11
1.8451427e-11
1.8539294e-11
1.8628482e-11
1.869062e-11
1.8777826e-11
1.8871951e-11
1.8950505e-11
1.9030659e-11
1.9136517e-11
1.9247748e-11
1.935442e-11
1.9450805e-11
1.9565086e-11
1.9687328e-11
1.9803411e-11
1.9932315e-11
2.0071043e-11
2.0213548e-11
2.0374194e-11
2.0537667e-11
2.0712267e-11
2.0885289e-11
2.1065455e-11
2.1243825e-11
2.1436902e-11
2.1630934e-11
2.1840701e-11
2.2067499e-11
2.2472167e-11
2.25299e-11
2.2772252e-11
2.3021108e-11
2.3276247e-11
2.3542732e-11
2.381877e-11
2.4130611e-11
2.4452762e-11
2.479221e-11
2.5128864e-11
2.5511828e-11
2.5904412e-11
2.6340722e-11
2.6778996e-11
2.725324e-11
2.7740103e-11
2.8279479e-11
2.8853135e-11
2.9481989e-11
3.0148987e-11