/*--------------------------------*- C++ -*----------------------------------*\
| =========                 |                                                 |
| \\      /  F ield         | OpenFOAM: The Open Source CFD Toolbox           |
|  \\    /   O peration     | Version:  2.4.0                                 |
|   \\  /    A nd           | Web:      www.OpenFOAM.org                      |
|    \\/     M anipulation  |                                                 |
\*---------------------------------------------------------------------------*/
FoamFile
{
    version     2.0;
    format      ascii;
    class       volScalarField;
    location    "370";
    object      k;
}
// * * * * * * * * * * * * * * * * * * * * * * * * * * * * * * * * * * * * * //

dimensions      [0 2 -2 0 0 0 0];

internalField   nonuniform List<scalar> 
19477
(
0.030560979
0.030523187
0.030486783
0.030465986
0.030472131
0.030515451
0.03060297
0.030739299
0.030925298
0.03115665
0.031420948
0.031703296
0.031990377
0.032270551
0.032533812
0.032771237
0.032974944
0.033137947
0.033254119
0.033318301
0.033326464
0.033275888
0.033165319
0.032995095
0.032766994
0.032483897
0.032149658
0.031769169
0.03134854
0.030895592
0.030420532
0.029936207
0.029457074
0.02899773
0.028571969
0.028192413
0.041361599
0.04108878
0.040796604
0.040483936
0.040149664
0.039792756
0.039412329
0.039007719
0.038578581
0.03812506
0.03764818
0.037151188
0.036638716
0.036115826
0.035587782
0.035059932
0.034537527
0.034025159
0.033526831
0.033047543
0.032589169
0.032162225
0.031777793
0.031447986
0.031182535
0.030981213
0.0308376
0.030742151
0.030684404
0.030651108
0.030632618
0.030616114
0.030597957
0.029856114
0.029827444
0.029801459
0.029790509
0.029806242
0.029858774
0.029955403
0.03010105
0.030297081
0.030539793
0.030817459
0.031115815
0.031422109
0.031725189
0.032015484
0.032284443
0.032524489
0.032728855
0.032891523
0.033007305
0.033071981
0.033082455
0.033036912
0.032934972
0.032777652
0.032566965
0.032305742
0.031997638
0.031647214
0.031260164
0.030843789
0.030407557
0.029963099
0.029523276
0.029101046
0.028708788
0.028358095
0.02805982
0.027822744
0.027653197
0.027554552
0.02752691
0.027567003
0.040516322
0.040218718
0.039903781
0.039570515
0.039217978
0.038845316
0.038451838
0.038037073
0.03760086
0.037143498
0.03666611
0.036171936
0.03566547
0.035151518
0.034634957
0.034120648
0.033613321
0.033117233
0.032636254
0.032173201
0.031731947
0.031322133
0.030954234
0.030639771
0.030388037
0.030198785
0.030065822
0.029980005
0.029931265
0.029906858
0.029897276
0.029890131
0.029882014
0.029135321
0.029115603
0.029098938
0.029096714
0.029120867
0.029181348
0.029285645
0.029438932
0.029643027
0.029894812
0.030183237
0.030494698
0.030817025
0.031139573
0.031453222
0.031749807
0.032022075
0.032263503
0.032468219
0.032631056
0.032747668
0.03281467
0.032829779
0.032792018
0.032701767
0.032560331
0.032369711
0.032132598
0.03185239
0.031533288
0.031180545
0.030800889
0.030402948
0.029997111
0.029594754
0.029207399
0.028846336
0.028522487
0.028245622
0.028023951
0.027863575
0.027768148
0.027738626
0.039592987
0.039275366
0.038942496
0.038593509
0.038227606
0.037844087
0.037442423
0.037022295
0.036583679
0.036126977
0.035653353
0.035165965
0.034669107
0.034167272
0.033664932
0.033166478
0.032676148
0.03219796
0.031736011
0.031290176
0.030866855
0.030474764
0.030123731
0.029824685
0.029586487
0.029408894
0.02928597
0.02920899
0.029168314
0.029151736
0.029149936
0.02915102
0.029151881
0.028401193
0.028389647
0.028381327
0.028386772
0.028418184
0.028485339
0.028595844
0.028755079
0.028965257
0.029223808
0.029520362
0.029841989
0.030177123
0.030515638
0.030848882
0.031169093
0.031469357
0.031743421
0.031985593
0.032190775
0.032354558
0.032473342
0.03254447
0.032566464
0.032539175
0.032463313
0.032340202
0.032171751
0.031960454
0.031709421
0.031422478
0.031104396
0.030761288
0.03040089
0.0300324
0.029665869
0.029311691
0.028980286
0.028681496
0.028424215
0.028216016
0.028062706
0.027968143
0.038596978
0.038264385
0.037918627
0.037558949
0.037184672
0.036795225
0.036390204
0.035969407
0.035532904
0.035081147
0.034615289
0.034138351
0.03365437
0.033167498
0.032681809
0.032201269
0.031729638
0.031270586
0.030828271
0.030401067
0.029996492
0.029622618
0.029288668
0.029005013
0.028780102
0.028613715
0.028500198
0.028431264
0.028397721
0.028387933
0.028392807
0.028400997
0.028409707
0.027656185
0.027651849
0.027650891
0.027662972
0.027700498
0.02777306
0.02788832
0.028051819
0.028266108
0.02852913
0.028831188
0.02916004
0.029504735
0.029855688
0.03020472
0.030544489
0.030868437
0.031170605
0.031445514
0.031688179
0.031894185
0.032059791
0.032182049
0.032259075
0.032290276
0.032275863
0.032216594
0.032113736
0.031969055
0.031784819
0.031563832
0.031309526
0.031026188
0.030719283
0.030395659
0.030063407
0.029731504
0.029409397
0.029106395
0.028831319
0.028592212
0.028395999
0.02824822
0.037535204
0.037192829
0.036839317
0.036474005
0.036096314
0.035705774
0.035302075
0.034885094
0.034454954
0.034012117
0.033557679
0.033094477
0.03262626
0.032156832
0.031689883
0.031229002
0.030777496
0.030338565
0.029916199
0.029508807
0.029123619
0.028768274
0.028451474
0.028183071
0.027971122
0.027815446
0.02771069
0.027649017
0.027621696
0.027617686
0.027628157
0.027642349
0.027657788
0.026902731
0.026904604
0.02691001
0.026927707
0.026970222
0.027046947
0.027165538
0.027331647
0.027548114
0.027813349
0.028118323
0.028451487
0.02880252
0.029162382
0.029523385
0.029878612
0.030221881
0.030547546
0.030850371
0.031125525
0.031368643
0.03157591
0.031744169
0.031871216
0.031956092
0.031998597
0.031999008
0.031958055
0.031876905
0.031757151
0.031600818
0.03141039
0.031188911
0.030940182
0.030669022
0.030381435
0.030084582
0.029786535
0.029495608
0.029220052
0.028967715
0.028745847
0.028560758
0.036416063
0.036069098
0.035712909
0.035346908
0.034970594
0.034583572
0.034185597
0.033776593
0.033356699
0.032926354
0.032486562
0.032039946
0.031589955
0.031140042
0.030693541
0.030253698
0.029823427
0.029405503
0.029003599
0.028616564
0.028251054
0.027914312
0.02761456
0.027361152
0.027161763
0.027016265
0.026919616
0.026864431
0.026842455
0.026843249
0.026858282
0.026877406
0.026898488
0.026143258
0.026150349
0.02616113
0.026183439
0.026229849
0.026309529
0.026430072
0.026597192
0.026813964
0.027079225
0.027384597
0.02771923
0.028073434
0.028438725
0.028807908
0.029174505
0.029532719
0.029877238
0.030203092
0.030505646
0.030780633
0.031024228
0.03123314
0.031404927
0.031538347
0.031632856
0.031688336
0.031705062
0.031683697
0.031625279
0.031531212
0.031403265
0.031243612
0.031054915
0.030840495
0.030604559
0.030352372
0.030090295
0.029825374
0.029564888
0.029316092
0.029085954
0.028880929
0.035249331
0.034902806
0.034548803
0.034186795
0.033816337
0.033437089
0.033048842
0.032651539
0.032245311
0.031830543
0.031408128
0.030980462
0.030550687
0.03012192
0.029697166
0.029279351
0.028871148
0.028475173
0.028093918
0.027727339
0.027381484
0.0270632
0.026780239
0.026541461
0.026354168
0.026218286
0.02612909
0.026079645
0.026062173
0.026066847
0.026085459
0.026108495
0.026134179
0.025380158
0.025391513
0.025406707
0.025432658
0.025481908
0.025563384
0.025684563
0.025851173
0.026066468
0.026329668
0.026633026
0.02696639
0.0273207
0.027688029
0.028061677
0.028435613
0.028804435
0.029163174
0.029507155
0.029831968
0.030133492
0.030407946
0.030651982
0.030862996
0.031039535
0.031180788
0.031286311
0.031356002
0.0313901
0.031389176
0.031354123
0.031286143
0.031186757
0.03105783
0.030901663
0.030721136
0.030519908
0.030302585
0.03007467
0.029842227
0.029611599
0.029389118
0.029180915
0.034045938
0.033704554
0.033357229
0.033003483
0.032642912
0.032275208
0.03190018
0.031517768
0.031128072
0.03073141
0.030328553
0.029921666
0.029513594
0.029107143
0.028705022
0.028309846
0.027924224
0.027551169
0.027190149
0.026843785
0.026517346
0.026217213
0.025950662
0.025726066
0.025550354
0.02542351
0.025341122
0.025296703
0.025282945
0.025290635
0.025311907
0.025337898
0.025367201
0.024615751
0.024630466
0.024649158
0.024677826
0.024728916
0.024811098
0.024931678
0.025096352
0.025308502
0.025567684
0.025866759
0.026196261
0.026547754
0.026913867
0.027288395
0.02766575
0.02804093
0.028409326
0.028766572
0.029108509
0.029431202
0.029730971
0.030004469
0.030249009
0.030462996
0.030645422
0.030795588
0.030913086
0.030997805
0.031049924
0.031069905
0.031058486
0.031016671
0.030945738
0.030847267
0.03072322
0.030576062
0.030408941
0.030225812
0.030031357
0.029830782
0.029629536
0.029433099
0.032817651
0.032485612
0.032148933
0.031807164
0.031459933
0.031106946
0.030748015
0.030383062
0.030012145
0.029635507
0.029253799
0.028868961
0.028483556
0.028100119
0.027721097
0.027348801
0.026985716
0.026635205
0.026294546
0.025968154
0.025660797
0.025378398
0.025127784
0.024916853
0.024752172
0.02463378
0.024557579
0.024517514
0.024506741
0.024516653
0.024539742
0.024567803
0.024599812
0.023852237
0.023869474
0.023890805
0.023921329
0.023973329
0.024055207
0.024174052
0.024335483
0.02454296
0.024796325
0.025089021
0.025412253
0.025758195
0.026120024
0.026492021
0.026869041
0.027246484
0.027620102
0.027985851
0.02833985
0.028678378
0.028997902
0.029295139
0.02956738
0.029812956
0.030030731
0.030219819
0.030379575
0.030509606
0.03060977
0.03068017
0.030721155
0.030733308
0.030717442
0.030674605
0.030606114
0.03051359
0.030399079
0.03026525
0.030115442
0.029953632
0.02978425
0.029611925
0.034625139
0.034337764
0.034044047
0.033745134
0.033442091
0.033135908
0.032827491
0.032517557
0.032206115
0.031892665
0.03157664
0.031257507
0.030934778
0.030608029
0.030276904
0.029941116
0.02960047
0.029254864
0.028904306
0.028548969
0.028189391
0.027827302
0.027465007
0.027104801
0.026748906
0.026399413
0.026058638
0.025729398
0.025409227
0.025102505
0.024813769
0.024548571
0.02431333
0.024115491
0.023961266
0.02385075
0.023780144
0.023743811
0.023735363
0.023746782
0.02377093
0.02380026
0.023834142
0.02309165
0.023110643
0.023133828
0.023165419
0.023217483
0.023298142
0.023414232
0.02357125
0.023772686
0.024018623
0.024303051
0.024617823
0.024955709
0.025310417
0.025676704
0.02604986
0.02642568
0.026800279
0.027169946
0.027531087
0.027880226
0.028214013
0.028529277
0.028823351
0.02909455
0.029341669
0.029563705
0.029759844
0.029929477
0.030072207
0.030187847
0.030276424
0.030338172
0.030373521
0.030383104
0.03036776
0.030328503
0.030266586
0.030183706
0.030082103
0.029964605
0.029834515
0.029695529
0.033267289
0.032987901
0.032703069
0.032413912
0.03212146
0.031826657
0.03153036
0.031233239
0.030935294
0.030636047
0.03033496
0.030031526
0.029725283
0.029415827
0.029102813
0.028785955
0.028465047
0.02813996
0.027810662
0.027477258
0.027140191
0.026800995
0.026461751
0.026124542
0.025791378
0.02546434
0.02514603
0.024836788
0.024536395
0.024248688
0.023977918
0.02372927
0.023508764
0.023323401
0.023179048
0.023075844
0.023010278
0.022977118
0.022970408
0.022982705
0.023007245
0.023037136
0.023072142
0.022335807
0.022355874
0.022380205
0.022412161
0.022463538
0.022542174
0.022654617
0.022806206
0.023000415
0.023237522
0.023512027
0.023816404
0.024143996
0.024489023
0.024846701
0.025212741
0.025583325
0.025954928
0.026324169
0.026687756
0.027042472
0.027385182
0.027712868
0.028022955
0.028313795
0.028584171
0.028833021
0.029059427
0.029262631
0.029442048
0.029597265
0.029728051
0.029834353
0.029916294
0.029974166
0.03000843
0.030019644
0.030008477
0.029975905
0.029923341
0.029852666
0.029766188
0.029666649
0.031887774
0.031620556
0.031348622
0.031073042
0.03079479
0.030514752
0.030233725
0.029952326
0.029670545
0.029387926
0.02910396
0.028818167
0.028530109
0.028239398
0.027945699
0.027648729
0.027348271
0.027044176
0.026736375
0.026424925
0.026110182
0.025793515
0.02547681
0.02516197
0.024850827
0.024545539
0.024249027
0.023958971
0.023677524
0.023408066
0.023154518
0.022921702
0.022715248
0.022541726
0.02240666
0.02231023
0.022249198
0.022218712
0.022213232
0.022225867
0.022250228
0.022280066
0.022315543
0.021586262
0.02160681
0.021631671
0.02166338
0.021713425
0.021789354
0.021897401
0.022042712
0.022228706
0.022455809
0.022718994
0.023011325
0.023326686
0.023659789
0.024006285
0.024362288
0.024724356
0.025089313
0.025454103
0.025815738
0.026171274
0.02651781
0.026852516
0.02717295
0.027477542
0.027765111
0.02803459
0.028285016
0.028515547
0.028725471
0.028914213
0.029081347
0.0292266
0.029349842
0.029451091
0.029530503
0.029588281
0.029624645
0.029640036
0.029635239
0.029611393
0.02957001
0.02951298
0.030506547
0.030254638
0.029998575
0.029739359
0.029477893
0.029214994
0.028951392
0.028687648
0.028423741
0.028159242
0.02789367
0.027626576
0.027357544
0.027086207
0.026812241
0.02653537
0.026255374
0.02597209
0.025685426
0.0253954
0.025102304
0.024807366
0.024512311
0.024218898
0.023928943
0.023644805
0.023368148
0.023096819
0.022833576
0.022581586
0.022344479
0.022126743
0.021933638
0.021771317
0.021644969
0.021554805
0.021497846
0.021469599
0.021464919
0.021477442
0.021501148
0.02153042
0.021565809
0.020844266
0.020864794
0.020889661
0.020920613
0.020968791
0.021041459
0.021144511
0.021282875
0.021459877
0.021676049
0.021926797
0.022205737
0.022507262
0.022826548
0.023159655
0.023503081
0.023853739
0.024208785
0.024565484
0.024921147
0.025273107
0.02561871
0.025955338
0.026280711
0.026593375
0.02689222
0.027176221
0.02744442
0.027695946
0.027930022
0.028145972
0.028343238
0.028521383
0.028680089
0.028819159
0.028938512
0.029038061
0.029117663
0.029177343
0.029217406
0.029238443
0.029241339
0.029227293
0.029142087
0.028907506
0.028669168
0.028427995
0.028184811
0.027940359
0.0276953
0.027450137
0.027204843
0.026959018
0.026712217
0.026464021
0.026214043
0.025961941
0.02570741
0.025450184
0.02519005
0.02492684
0.024660451
0.024390876
0.02411836
0.023844024
0.023569465
0.023296366
0.023026777
0.022763336
0.022504656
0.022251145
0.022005236
0.021769865
0.021548381
0.021344955
0.021164489
0.021012731
0.020894548
0.020810176
0.020756875
0.020730493
0.020726257
0.020738301
0.02076097
0.020789258
0.020824098
0.020110721
0.020130824
0.020155272
0.020185061
0.020230955
0.02029994
0.020397559
0.020528496
0.020695952
0.020900526
0.021138014
0.021402543
0.021688985
0.021992941
0.022310856
0.022639585
0.022976371
0.02331869
0.023664107
0.024010227
0.024354655
0.024694992
0.025028847
0.025354124
0.025669507
0.025973986
0.026266614
0.026546481
0.026812733
0.027064581
0.027301306
0.027522275
0.027726946
0.027914871
0.0280857
0.028239164
0.028374954
0.02849264
0.028591929
0.028672752
0.028735251
0.028779822
0.028807139
0.028818209
0.028813964
0.028795759
0.028765146
0.028723854
0.028673556
0.028616109
0.028553306
0.028486784
0.028417982
0.028348127
0.02781026
0.027593856
0.027373956
0.027151389
0.026926897
0.02670115
0.026474741
0.026248122
0.026021265
0.025793805
0.025565336
0.025335478
0.025103879
0.024870224
0.024634236
0.024395669
0.024154318
0.023910025
0.023662681
0.023412269
0.023159012
0.022903962
0.022648643
0.022394857
0.022145098
0.021900452
0.021658862
0.021422231
0.021192772
0.020973161
0.020766477
0.020576587
0.02040805
0.020266229
0.020155677
0.020076649
0.02002663
0.020001789
0.019997703
0.020008977
0.020030313
0.020057296
0.020091218
0.019386142
0.019405516
0.019429226
0.019457551
0.019500869
0.019565892
0.019657807
0.019781034
0.019938624
0.020131206
0.020354921
0.02060437
0.020874856
0.021162378
0.021463732
0.021776099
0.022097032
0.022424298
0.022755751
0.02308927
0.023422729
0.02375398
0.024080864
0.024401487
0.024714681
0.025019559
0.025315273
0.025600994
0.025875926
0.02613931
0.026390431
0.026628634
0.026853329
0.027063992
0.02726017
0.02744147
0.027607423
0.027757389
0.02789081
0.028007312
0.028106709
0.028189018
0.028254466
0.0283035
0.028336696
0.028354838
0.028358945
0.028350129
0.028329721
0.028299145
0.028259918
0.028213495
0.028161217
0.028104291
0.028043782
0.026523143
0.026324663
0.026122834
0.025918395
0.02571201
0.025504277
0.025295731
0.025086782
0.02487741
0.024667289
0.024456061
0.024243388
0.024028958
0.023812491
0.023593738
0.023372478
0.023148525
0.022921729
0.022691987
0.022459289
0.022223878
0.0219868
0.021749647
0.021514526
0.021283881
0.021055787
0.020830553
0.020609979
0.020396117
0.020191417
0.019998716
0.019821591
0.019664277
0.019531768
0.01942832
0.019354203
0.019307115
0.019283524
0.019279345
0.019289626
0.019309415
0.019334864
0.019367594
0.018670634
0.01868908
0.018711853
0.018738518
0.018779093
0.018840032
0.018926152
0.019041603
0.019189262
0.019369752
0.019579517
0.019813583
0.020067647
0.020338066
0.020621953
0.020916788
0.021220403
0.021530835
0.021846201
0.022164639
0.022484278
0.022803215
0.023119522
0.02343151
0.023738169
0.024038742
0.024332497
0.024618708
0.024896663
0.025165666
0.025425048
0.025674174
0.025912452
0.026139332
0.026354314
0.026556932
0.02674661
0.026922565
0.02708405
0.027230461
0.02736135
0.027476428
0.027575578
0.027658862
0.027726458
0.02777869
0.027816162
0.027839429
0.027849457
0.027847236
0.027833983
0.027810901
0.027779144
0.027739792
0.027693843
0.027642199
0.025288163
0.025106376
0.024921334
0.024733685
0.024544018
0.024352866
0.024160718
0.023967953
0.023774563
0.023580272
0.023384769
0.023187761
0.022988979
0.022788179
0.022585142
0.022379671
0.0221716
0.021960795
0.021747175
0.021530779
0.021311931
0.021091812
0.020872391
0.020656028
0.020441935
0.020229298
0.020019468
0.019814065
0.019614931
0.019424292
0.019244752
0.019079616
0.01893281
0.01880898
0.018712099
0.018642452
0.01859794
0.01857532
0.018570835
0.018579963
0.018598079
0.018621879
0.01865324
0.017963897
0.017981307
0.018003081
0.018027994
0.018065812
0.018122724
0.018203177
0.018311042
0.018449004
0.018617644
0.018813661
0.019032456
0.019270078
0.019523202
0.019789226
0.020065896
0.020351295
0.020643704
0.020941479
0.021242998
0.021546625
0.021850689
0.02215349
0.022453541
0.022749988
0.023042208
0.023329593
0.02361153
0.023887407
0.02415662
0.024418568
0.024672672
0.024918375
0.025155147
0.025382482
0.025599888
0.025806734
0.026002155
0.026185289
0.026355367
0.026511747
0.026653911
0.026781475
0.026894195
0.026991914
0.027074628
0.02714249
0.027195723
0.027234726
0.027260274
0.027273246
0.027274561
0.027265139
0.027245871
0.027217615
0.027181175
0.027137293
0.024106858
0.023939962
0.023769851
0.023597114
0.023422283
0.023245844
0.023068262
0.022889891
0.022710742
0.022530582
0.022349151
0.022166198
0.021981491
0.02179482
0.021605989
0.021414828
0.021221194
0.021024988
0.020826201
0.020624994
0.020421911
0.020218505
0.020017003
0.019817361
0.01961803
0.019420121
0.019224919
0.01903386
0.018848599
0.018671164
0.018503946
0.018349997
0.018212953
0.018097127
0.018006224
0.017940554
0.017898219
0.017876262
0.017871279
0.017879196
0.017895647
0.017917834
0.017947754
0.01727644
0.017292784
0.017313619
0.017336877
0.017372183
0.017425441
0.017500736
0.017601665
0.017730709
0.017888373
0.018071541
0.018275924
0.018497873
0.018734344
0.018982977
0.019241755
0.019508982
0.01978315
0.020062828
0.020346605
0.020633056
0.020920725
0.021208119
0.021493943
0.021777497
0.022058286
0.02233582
0.022609608
0.022879141
0.023143918
0.023403424
0.02365716
0.023904629
0.024145353
0.024378854
0.024604656
0.024822126
0.025030356
0.025228422
0.025415472
0.025590733
0.025753524
0.025903264
0.026039481
0.026161743
0.026269822
0.026363483
0.026442618
0.026507238
0.026557927
0.026595187
0.026619684
0.026632099
0.026633114
0.026623414
0.026603662
0.026574489
0.022985693
0.022831385
0.022673966
0.022513965
0.022351868
0.022188141
0.022023204
0.021857388
0.021690739
0.021523058
0.02135411
0.021183689
0.021011584
0.020837614
0.020661608
0.020483427
0.020302977
0.020120262
0.019935433
0.019748913
0.019561685
0.019375519
0.0191903
0.01900483
0.018819566
0.018635618
0.018454174
0.01827654
0.018104227
0.017939103
0.017783375
0.017639873
0.017511974
0.017403694
0.017318493
0.017256692
0.01721656
0.017195395
0.017190131
0.017197119
0.017212205
0.017232984
0.01726151
0.016626439
0.016641789
0.016661752
0.016683524
0.016716583
0.016766531
0.016837139
0.01693176
0.017052684
0.017200342
0.017371769
0.017562935
0.017770437
0.017991458
0.018223841
0.01846576
0.018715701
0.018972331
0.019234396
0.019500664
0.019769893
0.020040805
0.0203121
0.02058265
0.02085189
0.021119441
0.021384923
0.021647954
0.021908126
0.022165044
0.022418273
0.022667416
0.022912031
0.023151729
0.023386065
0.023614636
0.023836806
0.024051695
0.024258373
0.02445599
0.024643665
0.02482063
0.024986163
0.025139639
0.025280436
0.025408049
0.025522025
0.025622036
0.025707854
0.025779638
0.025837689
0.025882521
0.025914583
0.025934344
0.0259423
0.025938954
0.025924801
0.021944752
0.021800712
0.021653703
0.021504232
0.021352733
0.021199714
0.021045536
0.020890514
0.020734664
0.020577845
0.020419834
0.020260453
0.020099508
0.019936849
0.019772342
0.01960592
0.019437621
0.019267665
0.019096511
0.018924886
0.018754041
0.018583129
0.018411205
0.018238528
0.018066043
0.017894767
0.017725786
0.0175603
0.017399707
0.017245741
0.01710046
0.016966506
0.01684704
0.016745822
0.016666099
0.016608181
0.016570463
0.016550437
0.016545283
0.016551682
0.016565736
0.016585292
0.01661254
0.016019048
0.016033526
0.016052666
0.016073081
0.016104048
0.016150876
0.016217066
0.016305757
0.016419081
0.016557419
0.016717963
0.016896916
0.017091082
0.017297832
0.017515165
0.017741406
0.017975181
0.018215298
0.018460645
0.018710139
0.018962689
0.019217174
0.019472444
0.019727524
0.019981953
0.020235453
0.020487747
0.020738537
0.020987518
0.021234371
0.021478767
0.021720367
0.021958837
0.02219383
0.022424997
0.022651965
0.022874179
0.023090806
0.023300933
0.023503676
0.023698185
0.023883645
0.024059283
0.02422439
0.024378275
0.024520225
0.024649639
0.024765874
0.024868443
0.024957226
0.025032441
0.02509431
0.025143089
0.025179064
0.02520256
0.025213918
0.025213488
0.020991254
0.020855437
0.020716916
0.020576153
0.020433582
0.020289593
0.020144554
0.019998771
0.019852258
0.019704864
0.019556414
0.019406728
0.019255664
0.019103116
0.018949062
0.018793585
0.018636969
0.01847979
0.018322777
0.018166263
0.018008922
0.017849743
0.017689022
0.017527603
0.017366368
0.017206243
0.017048227
0.016893433
0.016743163
0.01659904
0.01646299
0.016337498
0.016225534
0.016130638
0.016055867
0.01600152
0.0159661
0.015947256
0.015942338
0.015948276
0.015961456
0.015979894
0.016005982
0.015449766
0.015463486
0.015481879
0.015501079
0.015530155
0.015574126
0.015636251
0.015719474
0.015825784
0.015955521
0.01610603
0.016273731
0.016455617
0.016649218
0.016852665
0.017064402
0.017283169
0.017507885
0.01773755
0.0179712
0.018207869
0.018446568
0.018686275
0.018926142
0.019165801
0.01940506
0.01964373
0.019881593
0.020118436
0.020354008
0.020588074
0.020820351
0.021050593
0.021278497
0.021503797
0.021726147
0.021945079
0.022159802
0.022369436
0.022573082
0.022769945
0.022959194
0.023140061
0.02331176
0.023473539
0.02362463
0.023764347
0.023891882
0.024006573
0.024108192
0.024196672
0.024271928
0.02433406
0.024383186
0.024419467
0.024443097
0.024454289
0.020112215
0.019983698
0.019852695
0.01971964
0.019584962
0.019448968
0.019312016
0.019174399
0.019036176
0.01889719
0.018757313
0.018616411
0.018474436
0.018331409
0.018187509
0.018043077
0.017898572
0.017754832
0.017611128
0.017466369
0.017318982
0.017169456
0.017018514
0.016866941
0.016715543
0.016565174
0.016416761
0.016271343
0.016130142
0.015994679
0.015866769
0.015748752
0.015643432
0.01555415
0.015483793
0.015432649
0.015399316
0.015381579
0.01537693
0.015382498
0.015394934
0.01541237
0.015437401
0.014914743
0.014927805
0.014945535
0.014963654
0.014991038
0.015032427
0.01509086
0.015169096
0.015268993
0.015390855
0.015532164
0.015689543
0.015860156
0.016041676
0.016232351
0.016430725
0.016635632
0.016846076
0.01706115
0.017279983
0.017501707
0.017725442
0.017950279
0.018175473
0.018400737
0.018625943
0.018850969
0.019075676
0.019299918
0.019523528
0.019746327
0.01996812
0.020188706
0.020407864
0.020625363
0.02084093
0.021054128
0.021264227
0.021470406
0.02167183
0.02186768
0.022057138
0.022239399
0.022413674
0.022579141
0.022734981
0.022880427
0.023014705
0.023137104
0.023247223
0.023344827
0.023429759
0.023501918
0.023561237
0.023607694
0.023641348
0.023662283
0.01929528
0.019173819
0.019050008
0.018924267
0.018796987
0.018668518
0.01853919
0.018409283
0.018278863
0.01814785
0.018016176
0.017883839
0.017750942
0.017617732
0.017484554
0.01735198
0.017219908
0.017087312
0.016953246
0.016816656
0.016677578
0.016536495
0.016394104
0.016251136
0.016108344
0.015966523
0.015826542
0.015689375
0.015556169
0.01542836
0.015307658
0.015196276
0.015096864
0.015012585
0.014946168
0.014897892
0.014866435
0.014849704
0.014845317
0.014850575
0.014862366
0.014878911
0.014902982
0.014410659
0.014423151
0.014440298
0.01445746
0.01448334
0.01452241
0.014577506
0.014651221
0.014745288
0.014859972
0.014992883
0.015140825
0.01530112
0.015471573
0.015650532
0.015836633
0.016028784
0.016226066
0.016427641
0.016632717
0.016840509
0.017050221
0.017261038
0.017472298
0.017683775
0.01789539
0.018107071
0.018318735
0.01853029
0.018741633
0.018952644
0.019163195
0.019373147
0.019582342
0.019790608
0.019997734
0.020203337
0.020406754
0.020607226
0.020803973
0.020996207
0.02118313
0.021363941
0.021537848
0.021704005
0.021861563
0.022009696
0.022147535
0.022274297
0.02238953
0.022492943
0.022584306
0.022663394
0.02273002
0.022784059
0.022825437
0.022854112
0.01853479
0.01841992
0.018302892
0.018184099
0.0180639
0.017942639
0.017820644
0.017698204
0.017575438
0.017452366
0.017329057
0.017205694
0.017082493
0.016959857
0.016837874
0.016715759
0.01659281
0.016467777
0.016340509
0.016210915
0.016079044
0.015945331
0.015810427
0.015675016
0.0155398
0.015405525
0.015273005
0.015143157
0.015017062
0.014896077
0.014781818
0.014676379
0.014582272
0.014502493
0.014439628
0.014393942
0.014364187
0.014348375
0.014344242
0.014349238
0.014360468
0.01437622
0.014399419
0.013934643
0.013946646
0.013963283
0.013979604
0.01400415
0.014041141
0.014093231
0.014162854
0.01425163
0.01435979
0.014485052
0.014624387
0.014775259
0.014935592
0.015103828
0.01527868
0.015459125
0.015644304
0.015833443
0.016025811
0.016220691
0.016417358
0.016615077
0.016813252
0.017011706
0.017210396
0.017409289
0.017608344
0.01780751
0.018006731
0.018205936
0.018405045
0.01860397
0.018802611
0.019000847
0.019198524
0.019395319
0.019590639
0.019783796
0.019974069
0.020160721
0.020342992
0.020520104
0.020691281
0.020855678
0.021012434
0.021160699
0.021299564
0.021428194
0.021546074
0.021652817
0.021748106
0.021831655
0.021903209
0.021962586
0.02200961
0.02204415
0.017828001
0.017719256
0.017608551
0.017496259
0.017382737
0.017268336
0.017153419
0.017038332
0.016923286
0.016808465
0.016693971
0.016580158
0.016466959
0.016353744
0.016239939
0.016124713
0.016007536
0.01588833
0.015767031
0.015643592
0.015518066
0.015390863
0.015262592
0.015133893
0.015005425
0.014877888
0.01475205
0.014628773
0.01450908
0.014394252
0.014285822
0.014185772
0.014096486
0.014020806
0.013961187
0.013917877
0.01388969
0.013874738
0.01387086
0.013875642
0.013886389
0.013901441
0.013923851
0.013484216
0.013495804
0.013512
0.013527584
0.01355095
0.013586079
0.013635457
0.013701379
0.013785355
0.013887583
0.014005882
0.014137372
0.014279647
0.014430738
0.01458917
0.014753728
0.014923448
0.015097524
0.015275235
0.015455904
0.015638868
0.015823465
0.016009021
0.016195001
0.016381262
0.016567791
0.016754585
0.016941632
0.017128918
0.017316418
0.017504099
0.017691921
0.017879837
0.018067786
0.018255694
0.018443452
0.018630792
0.018817188
0.019002019
0.019184629
0.019364338
0.019540437
0.019712188
0.019878844
0.020039582
0.020193553
0.020339905
0.020477714
0.02060612
0.020724567
0.020832609
0.020929867
0.021015993
0.02109066
0.021153601
0.021204586
0.021243425
0.017171021
0.017067976
0.016963206
0.016857104
0.016750049
0.016642431
0.016534701
0.016427212
0.016320174
0.016214039
0.016108371
0.016002678
0.015896559
0.015789372
0.015680549
0.015570083
0.015457854
0.015343778
0.015227788
0.015109845
0.014990001
0.014868642
0.014746339
0.014623695
0.014501328
0.014379899
0.01426013
0.014142837
0.014028985
0.013919788
0.013816699
0.013721599
0.013636752
0.013564858
0.013508247
0.013467149
0.013440436
0.013426307
0.013422701
0.013427322
0.013437663
0.013452102
0.013473802
0.013057237
0.01306848
0.013084297
0.01309924
0.013121562
0.013155022
0.013201953
0.013264519
0.013344133
0.013440962
0.013552915
0.01367725
0.013811679
0.013954329
0.014103801
0.014258944
0.014418845
0.014582748
0.014749976
0.014919896
0.015091895
0.015265361
0.015439673
0.015614348
0.015789268
0.015964442
0.016139889
0.016315621
0.016491648
0.016667974
0.016844594
0.017021497
0.017198669
0.017376083
0.017553699
0.017731445
0.0179091
0.018086197
0.018262178
0.018436448
0.018608384
0.01877733
0.018942598
0.019103479
0.019259187
0.0194089
0.019551779
0.019686913
0.019813438
0.019930774
0.02003844
0.020136016
0.020223108
0.020299338
0.020364385
0.020417965
0.020459832
0.016559894
0.016462375
0.016363448
0.016263575
0.016163109
0.016062416
0.015962103
0.015862325
0.01576288
0.015663376
0.015563588
0.015462886
0.015360923
0.015257682
0.015153026
0.015046866
0.014939112
0.014829686
0.014718525
0.014605592
0.014490937
0.014374921
0.014258085
0.014140995
0.014024235
0.013908427
0.013794252
0.013682484
0.013574035
0.013470056
0.013371925
0.013281429
0.01320072
0.013132366
0.013078579
0.013039572
0.013014269
0.013000946
0.012997636
0.013002153
0.013012162
0.013026072
0.013047137
0.012651865
0.012662827
0.012678323
0.01269271
0.012714111
0.012746071
0.012790787
0.012850302
0.012925941
0.013017843
0.013124001
0.013241798
0.013369054
0.013503986
0.013645262
0.013791789
0.013942703
0.014097286
0.014254903
0.01441496
0.014576885
0.014740108
0.014904058
0.015068289
0.015232706
0.015397336
0.015562209
0.015727359
0.015892812
0.016058593
0.016224719
0.016391203
0.016558055
0.016725274
0.016892847
0.017060735
0.017228755
0.017396491
0.017563441
0.017729069
0.017892804
0.018054044
0.018212149
0.018366456
0.01851622
0.018660655
0.018798954
0.018930227
0.019053623
0.019168558