/*--------------------------------*- C++ -*----------------------------------*\
| =========                 |                                                 |
| \\      /  F ield         | OpenFOAM: The Open Source CFD Toolbox           |
|  \\    /   O peration     | Version:  2.4.0                                 |
|   \\  /    A nd           | Web:      www.OpenFOAM.org                      |
|    \\/     M anipulation  |                                                 |
\*---------------------------------------------------------------------------*/
FoamFile
{
    version     2.0;
    format      ascii;
    class       volScalarField;
    location    "370";
    object      nut;
}
// * * * * * * * * * * * * * * * * * * * * * * * * * * * * * * * * * * * * * //

dimensions      [0 2 -1 0 0 0 0];

internalField   nonuniform List<scalar> 
19477
(
0.021258441
0.021243615
0.021226353
0.021206182
0.021181917
0.021151889
0.021113624
0.021064133
0.020999801
0.020916806
0.02081219
0.020682705
0.020524395
0.020332824
0.020102897
0.019829156
0.019505841
0.019127259
0.018688313
0.018185211
0.017616321
0.016983046
0.01629048
0.01554703
0.014762885
0.013950162
0.013122278
0.012293017
0.011475992
0.010685531
0.0099371378
0.0092456998
0.0086206578
0.0080645372
0.0075752389
0.0071489301
0.014110384
0.01411368
0.014138647
0.014188253
0.014265881
0.014375377
0.014521137
0.014708099
0.0149416
0.015225932
0.01556691
0.015971049
0.016445373
0.016993177
0.01761458
0.018309877
0.019079859
0.01995468
0.020942117
0.021221706
0.021251238
0.021276295
0.021296907
0.021312802
0.021323769
0.02133015
0.021332145
0.021329894
0.021323547
0.021313598
0.021301193
0.021286972
0.021273272
0.021296105
0.021284754
0.021271281
0.021255071
0.021235281
0.021210498
0.021178601
0.021137006
0.021082596
0.021012085
0.020922995
0.020812541
0.020677287
0.020513357
0.020316259
0.020081137
0.019802774
0.019475876
0.019095458
0.018657382
0.018159032
0.017600072
0.016983082
0.016313413
0.015598071
0.014846096
0.014068244
0.013276254
0.012482136
0.011698249
0.01093811
0.010216658
0.0095474483
0.0089388779
0.0083933825
0.0079095181
0.0074844397
0.0071163987
0.0068027625
0.0065408783
0.0063281083
0.0061616323
0.0060384422
0.014158225
0.014176447
0.014216836
0.014282342
0.014376308
0.014502502
0.014665186
0.014869086
0.015119185
0.015419278
0.01577447
0.01619013
0.016671857
0.017221325
0.017837721
0.018521295
0.019271266
0.020127578
0.021115264
0.021234008
0.021263068
0.021287933
0.021308658
0.02132501
0.021336837
0.021344508
0.021348232
0.021348148
0.021344382
0.021337383
0.02132821
0.021317462
0.021307379
0.021329028
0.021320825
0.021310731
0.021298089
0.021282344
0.021262298
0.021236142
0.021201652
0.021156143
0.021096808
0.021021589
0.02092812
0.020813442
0.020674204
0.02050649
0.020306029
0.020068174
0.019788105
0.019461117
0.019083018
0.018650651
0.018162513
0.017619334
0.017024039
0.016380938
0.015696246
0.014978007
0.014235624
0.01347924
0.012719412
0.01196753
0.011236352
0.010539904
0.0098905512
0.0092959821
0.0087588188
0.0082786656
0.0078545008
0.0074844931
0.007166718
0.0068989372
0.0066787746
0.0065037145
0.01421114
0.014244545
0.014300551
0.014382076
0.014492395
0.014635169
0.014814479
0.015034778
0.015300612
0.01561519
0.015982838
0.016407791
0.016894374
0.017443044
0.018053012
0.018725897
0.019461582
0.020297487
0.021212574
0.021245117
0.021273574
0.021298101
0.021318766
0.021335387
0.021347865
0.021356598
0.021361804
0.021363623
0.021362148
0.021357788
0.021351517
0.021343905
0.021337115
0.021357209
0.021351869
0.021344804
0.021335357
0.021323251
0.021307476
0.021286496
0.0212584
0.021220881
0.021171547
0.021108702
0.021030353
0.02093397
0.020816683
0.020675115
0.020505557
0.020303925
0.020065914
0.019787206
0.019463757
0.0190922
0.01867033
0.018197594
0.017675103
0.017105022
0.016491152
0.015839022
0.015155646
0.014449098
0.013728129
0.013002069
0.01228122
0.01157766
0.010904439
0.010272973
0.0096905823
0.0091605889
0.0086840219
0.0082603016
0.0078881579
0.0075660294
0.0072918514
0.0070636383
0.014271015
0.014319794
0.014391535
0.014489102
0.014615678
0.014774775
0.014970245
0.015206206
0.015486703
0.015814306
0.016192552
0.016624658
0.017113972
0.017660198
0.018263142
0.018926256
0.019653258
0.020470568
0.021223435
0.021254974
0.021282681
0.021306697
0.021327112
0.021343796
0.021356709
0.021366276
0.021372723
0.021376187
0.021376732
0.02137472
0.021371045
0.02136626
0.021362449
0.021380564
0.021377809
0.021373467
0.02136688
0.02135804
0.021346113
0.021329801
0.021307466
0.02127713
0.021236752
0.021184947
0.021120041
0.021039884
0.02094204
0.020823624
0.020681454
0.020511989
0.020311447
0.020075955
0.019801754
0.019485499
0.019124637
0.0187178
0.018264824
0.017766275
0.017224024
0.016641443
0.016023321
0.015375633
0.014705232
0.014019604
0.013326902
0.012636574
0.01195984
0.011308818
0.010694153
0.010123354
0.0096007772
0.0091279451
0.0087048084
0.0083305668
0.0080038274
0.0077230816
0.014340041
0.014404305
0.014491805
0.014605326
0.014747926
0.014922931
0.015133915
0.015384608
0.015678516
0.016017563
0.016404566
0.01684192
0.017332315
0.017875123
0.018470835
0.019123703
0.019843637
0.020649133
0.021233
0.021263446
0.021290233
0.021313541
0.021333497
0.021350027
0.021363153
0.021373325
0.021380774
0.021385635
0.02138794
0.021388003
0.021386641
0.021384392
0.021383267
0.021398909
0.021398466
0.021396569
0.021392539
0.021386629
0.021378168
0.02136607
0.021348937
0.021325074
0.021292737
0.021250799
0.021197849
0.02113207
0.021051407
0.020953417
0.020835401
0.020694327
0.020526925
0.020329787
0.020099519
0.019832958
0.019527458
0.019181198
0.018793189
0.018362883
0.017890716
0.017378335
0.016828619
0.016245591
0.015634238
0.015000288
0.014350097
0.013690795
0.013030909
0.012380798
0.011751631
0.011153803
0.010595564
0.010081155
0.0096126768
0.009190525
0.0088145002
0.0084836581
0.014420733
0.01450049
0.014603653
0.014732899
0.014891131
0.015081446
0.015307103
0.015571416
0.015877343
0.01622621
0.016620224
0.017061177
0.01755135
0.018090162
0.018678621
0.019319973
0.020033555
0.020835992
0.021241153
0.021270324
0.021295988
0.021318373
0.021337647
0.021353798
0.021366908
0.021377451
0.021385667
0.021391681
0.021395496
0.021397375
0.021398058
0.021398073
0.02139936
0.02141195
0.021413558
0.021413843
0.021412091
0.021408805
0.021403468
0.021395181
0.021382762
0.021364754
0.021339666
0.021306572
0.021264282
0.021211253
0.02114576
0.021065751
0.02096896
0.020852821
0.020714548
0.020551195
0.020359769
0.020137386
0.019881483
0.019590055
0.019261636
0.018894976
0.018489522
0.018045634
0.017564672
0.017048991
0.016501873
0.015927389
0.015330229
0.014715693
0.01408998
0.013460792
0.01283755
0.012230917
0.011651394
0.011106713
0.010601697
0.010138823
0.0097191181
0.0093427647
0.014515897
0.014611022
0.014729599
0.014874169
0.015047447
0.015252272
0.015491562
0.015768212
0.01608466
0.01644171
0.016841104
0.017284215
0.017773098
0.018307684
0.018889415
0.019518996
0.020227575
0.0210394
0.021247674
0.021275322
0.02129963
0.021320858
0.021339214
0.021354748
0.021367605
0.021378284
0.021387028
0.021393956
0.021399036
0.021402482
0.021404955
0.021406977
0.021410416
0.021419276
0.021422683
0.0214249
0.021425167
0.021424223
0.021421701
0.02141687
0.021408737
0.021396052
0.021377532
0.021352407
0.021319658
0.021277967
0.021225886
0.021161701
0.021083523
0.020989209
0.020876413
0.020742631
0.020585279
0.020401801
0.020189831
0.019947362
0.019672716
0.01936426
0.019020823
0.018641888
0.018227688
0.017779261
0.017298451
0.016787843
0.016250651
0.015690629
0.015112208
0.014520699
0.01392297
0.013327861
0.012745503
0.012186042
0.01165697
0.01116332
0.010707996
0.010292539
0.014628568
0.01473876
0.014872302
0.015031577
0.015219085
0.015437389
0.015689065
0.0159766
0.016301974
0.016665571
0.017068827
0.017512847
0.017999638
0.01853013
0.019106144
0.019726605
0.020426885
0.021222838
0.021252208
0.021278064
0.021300764
0.021320584
0.02133777
0.021352436
0.021364792
0.021375363
0.021384394
0.021391995
0.021398101
0.021402869
0.021406886
0.021410668
0.021416011
0.021420347
0.021425307
0.021429213
0.021431253
0.021432391
0.021432403
0.021430713
0.021426494
0.021418677
0.021406147
0.021388251
0.021364093
0.021332533
0.02129235
0.021242113
0.02118026
0.021105014
0.021014428
0.020906405
0.020778752
0.020629262
0.020455825
0.020256555
0.020029746
0.019773617
0.019486671
0.019167851
0.018816629
0.018433082
0.01801793
0.017572531
0.017098827
0.016599262
0.016076774
0.015534923
0.014978288
0.014413263
0.013848313
0.013292984
0.012756259
0.012245654
0.011765971
0.01132049
0.014761862
0.01488658
0.015034382
0.015207472
0.01540812
0.015638613
0.015901195
0.016197996
0.016530611
0.016899122
0.017304803
0.017748614
0.018232715
0.018758953
0.019328972
0.019947147
0.020638063
0.021227191
0.021254289
0.02127809
0.021298912
0.021317049
0.021332789
0.021346317
0.02135791
0.021368118
0.02137719
0.021385221
0.021392114
0.021397965
0.021403286
0.021408587
0.021415597
0.021414467
0.02142074
0.021426102
0.021429677
0.021432651
0.02143494
0.021436109
0.021435484
0.021432147
0.021425124
0.021413837
0.021397476
0.021375033
0.021345466
0.021307573
0.02126007
0.021201495
0.021130246
0.021044591
0.020942703
0.020822714
0.020682799
0.020521264
0.020336489
0.020126714
0.019890329
0.019625999
0.019332741
0.019009991
0.018657664
0.018276182
0.017866453
0.017429839
0.016968114
0.016483492
0.015978836
0.015458357
0.014928195
0.014396023
0.013870262
0.013359177
0.012869649
0.012406903
0.014424913
0.014421273
0.014426299
0.014440993
0.014466413
0.014503742
0.014554551
0.014620241
0.014702046
0.014801023
0.014918727
0.015057115
0.015218144
0.015403828
0.015616209
0.01585731
0.016129083
0.016433357
0.016771434
0.017143207
0.017549896
0.017992395
0.018473297
0.018994689
0.019556206
0.020175075
0.020873523
0.021228717
0.02125336
0.021274825
0.021293471
0.021309621
0.021323616
0.021335712
0.021346263
0.02135584
0.021364698
0.021372914
0.021380354
0.021387053
0.021393442
0.021400029
0.021408473
0.021400753
0.021408105
0.021414691
0.021419575
0.021424151
0.021428481
0.02143226
0.021434949
0.021435768
0.021433853
0.021428668
0.021419451
0.021405287
0.021385267
0.021358375
0.02132355
0.021279592
0.021225197
0.021158952
0.021079357
0.020984861
0.020873925
0.020745079
0.020596864
0.020427639
0.020235832
0.020020022
0.019779001
0.019511834
0.019217916
0.018897011
0.018549263
0.018175188
0.017775658
0.017351872
0.016905454
0.016438996
0.015956558
0.015463591
0.01496685
0.014473331
0.013990846
0.0135259
0.014473813
0.014483154
0.014501428
0.01452958
0.01456861
0.014619637
0.014684155
0.014763478
0.014858763
0.014970972
0.015101558
0.015252362
0.015425188
0.015621865
0.015844227
0.016094064
0.016373086
0.016682896
0.017024589
0.017397974
0.017804265
0.018244411
0.018721806
0.019237919
0.01979021
0.020408342
0.021125189
0.021226863
0.02124872
0.021267528
0.021283667
0.021297499
0.021309417
0.021319764
0.02132897
0.021337637
0.021346016
0.021354168
0.021361917
0.021369227
0.021376453
0.021384098
0.021393749
0.021378082
0.021386282
0.02139387
0.021399843
0.021405802
0.021411958
0.021418125
0.021423893
0.0214286
0.021431471
0.021431983
0.021429387
0.021422826
0.021411484
0.021394486
0.021370947
0.021339884
0.021300239
0.021250869
0.021190561
0.021118049
0.021032062
0.020931363
0.020814688
0.020680575
0.02052758
0.020354325
0.020159548
0.019942145
0.019701221
0.019436132
0.019146504
0.018832248
0.018493546
0.018130858
0.017744945
0.017337237
0.016910254
0.016467519
0.016013728
0.015554528
0.015096408
0.014646034
0.014559154
0.014581063
0.014612101
0.014653141
0.014705101
0.014769023
0.014846312
0.014938181
0.015045709
0.015169755
0.015311665
0.015473172
0.015655938
0.015861628
0.0160919
0.016348358
0.016632535
0.016945875
0.017289355
0.017662768
0.018067361
0.018504365
0.018977798
0.019487891
0.020039204
0.020658729
0.021198906
0.021220819
0.021239509
0.021255283
0.021268537
0.021279669
0.02128914
0.021297381
0.021304914
0.021312368
0.021319994
0.021327828
0.021335647
0.021343339
0.021351178
0.021359658
0.021370296
0.021345019
0.021353848
0.021362222
0.021369078
0.021376219
0.021384006
0.021392371
0.021401025
0.021409411
0.02141682
0.021422718
0.021426341
0.021426855
0.021423504
0.021415513
0.021402132
0.021382549
0.021355905
0.021321283
0.02127771
0.02122417
0.021159634
0.021083089
0.020993471
0.020889527
0.020769986
0.020633598
0.020479154
0.020305525
0.020111703
0.019896831
0.019660231
0.019401419
0.019120115
0.018816244
0.018489979
0.018141959
0.017773608
0.017387095
0.016985336
0.016572343
0.016152963
0.015732743
0.014685688
0.014719367
0.014762255
0.014815132
0.014878826
0.014954289
0.015042838
0.015145591
0.01526356
0.015397506
0.015548685
0.015718736
0.015909209
0.016121642
0.016357557
0.016618427
0.016905663
0.01722062
0.017564221
0.017936267
0.018338144
0.018771764
0.01924074
0.019743975
0.02030261
0.020942818
0.021191288
0.021209512
0.021224609
0.021236909
0.02124683
0.021254821
0.021261417
0.021267153
0.02127265
0.021278569
0.021285154
0.021292413
0.021300066
0.021307918
0.021316153
0.021325257
0.021336672
0.021299735
0.021308986
0.021317948
0.021325498
0.021333639
0.021342893
0.021353305
0.021364699
0.021376612
0.02138839
0.021399459
0.021409014
0.021416215
0.021420336
0.021420668
0.021416558
0.021407324
0.021392264
0.021370644
0.021341688
0.02130459
0.021258534
0.021202707
0.02113624
0.021058089
0.020967182
0.02086243
0.020742748
0.020607077
0.02045441
0.020283827
0.020094508
0.019885755
0.019657009
0.019407852
0.019138032
0.018847692
0.018537556
0.018208822
0.017863255
0.017503376
0.017132457
0.016754569
0.014856929
0.014900991
0.014954167
0.015017149
0.015090678
0.015175637
0.015273271
0.015384632
0.015510686
0.015652124
0.015810134
0.015986295
0.016182078
0.016398928
0.016638278
0.016901514
0.017189974
0.017504974
0.017847424
0.018217156
0.018615994
0.019046733
0.019511791
0.020015185
0.020588165
0.021160105
0.021177478
0.021191522
0.021202519
0.021210825
0.021216891
0.021221228
0.021224461
0.021227242
0.021230304
0.021234339
0.021239586
0.02124601
0.02125327
0.021261069
0.0212695
0.021279035
0.021291032
0.021239899
0.021249388
0.021258763
0.021266844
0.021275836
0.021286429
0.021298781
0.021312825
0.021328185
0.021344244
0.021360367
0.021375682
0.021389321
0.021400555
0.021408714
0.021413211
0.021413458
0.021408872
0.021398861
0.021382809
0.021360082
0.021330039
0.021292043
0.021245404
0.021189274
0.021122778
0.021045007
0.02095503
0.020851909
0.020734718
0.020602567
0.020454613
0.02029008
0.020108272
0.01990858
0.019690518
0.019453891
0.019198985
0.018926365
0.018636945
0.018332281
0.018014387
0.01768586
0.017349149
0.017009574
0.016671717
0.016340487
0.016019766
0.015713317
0.015424161
0.015154662
0.01490661
0.014681344
0.01447984
0.01507371
0.015125888
0.015186921
0.015257436
0.015338128
0.015429844
0.015533805
0.015651034
0.015782486
0.015928811
0.01609115
0.016271051
0.01646993
0.016689174
0.016930149
0.017194176
0.017482549
0.017796584
0.018137211
0.018504472
0.01890105
0.019329956
0.019794762
0.020315216
0.02091497
0.021143202
0.021155711
0.021164962
0.021171243
0.021174933
0.021176529
0.021176619
0.021175931
0.021175252
0.02117544
0.021177223
0.021180823
0.021186156
0.021192805
0.02120036
0.021208812
0.02121861
0.02123102
0.021162562
0.02117214
0.021181785
0.021190269
0.021200001
0.021211853
0.021226095
0.021242768
0.021261576
0.021281922
0.021303091
0.021324118
0.021344082
0.021362229
0.021377904
0.021390554
0.021399656
0.021404717
0.021405249
0.02140076
0.021390753
0.021374731
0.021352204
0.021322635
0.021285355
0.021239673
0.021184855
0.021120137
0.021044723
0.020957811
0.020858597
0.020746293
0.020620136
0.020479399
0.020323407
0.020151561
0.019963462
0.01975909
0.01953865
0.019302603
0.019051766
0.018787344
0.018510941
0.018224639
0.017931499
0.017635107
0.01733955
0.017049276
0.016767076
0.016496469
0.016240208
0.0160006
0.015779547
0.015578521
0.015398255
0.015331719
0.015388747
0.015454323
0.015529076
0.015613711
0.015709089
0.015816441
0.015936795
0.016071113
0.016220011
0.016384593
0.016566379
0.016766739
0.016987003
0.017228472
0.017492408
0.017780081
0.018092863
0.018431918
0.018798043
0.019194902
0.019626181
0.020107764
0.020661553
0.021106141
0.02111658
0.021123542
0.021127273
0.021128097
0.021126436
0.021122847
0.021118012
0.021112775
0.021108081
0.021104923
0.021104064
0.021105705
0.021109701
0.021115544
0.021122696
0.021131032
0.021140966
0.021153657
0.021064038
0.021073593
0.021083408
0.021092202
0.021102612
0.021115701
0.021131854
0.021151218
0.021173567
0.021198317
0.021224643
0.021251465
0.021277786
0.021302806
0.02132586
0.021346409
0.02136397
0.021378109
0.021388415
0.02139449
0.02139594
0.021392383
0.021383445
0.021368719
0.021347694
0.021319839
0.021284587
0.02124133
0.021189425
0.021128204
0.021056984
0.02097507
0.02088177
0.0207764
0.020658297
0.020526828
0.020381527
0.020222186
0.020048776
0.019861461
0.019660635
0.019446963
0.019221436
0.018985457
0.018740987
0.018490624
0.018237038
0.017984429
0.017735228
0.017492522
0.017259085
0.017037392
0.016829653
0.016637765
0.016463154
0.016306767
0.015621253
0.015679691
0.015746602
0.015822649
0.015908578
0.016005279
0.016114006
0.01623579
0.016371596
0.016521985
0.016688005
0.016871122
0.017072641
0.01729382
0.017535893
0.017800092
0.018087738
0.018400539
0.018740668
0.019110484
0.019514414
0.019960851
0.020481725
0.02106558
0.021073133
0.021077112
0.021077639
0.021074977
0.021069483
0.02106163
0.021052051
0.021041536
0.021031068
0.02102176
0.02101476
0.021010866
0.021010246
0.021012681
0.021017561
0.021024201
0.02103234
0.021042339
0.02105522
0.020939756
0.020949208
0.020959139
0.020968188
0.02097927
0.020993643
0.021011805
0.021034007
0.021060094
0.021089472
0.021121185
0.021154014
0.021186861
0.021218862
0.021249323
0.021277698
0.021303523
0.021326401
0.021345975
0.021361913
0.021373898
0.021381632
0.021384835
0.021383205
0.021376362
0.021363919
0.021345453
0.021320501
0.021288565
0.02124911
0.021201583
0.021145404
0.02107998
0.021004709
0.020918984
0.020822216
0.02071393
0.02059383
0.020461736
0.020317646
0.0201617
0.019994237
0.019815811
0.019627311
0.019429988
0.019225521
0.019016041
0.018804287
0.0185931
0.018384456
0.018180826
0.017984536
0.017797797
0.017622645
0.017460821
0.01731374
0.017182483
0.015893786
0.015952203
0.01601943
0.01609617
0.016183177
0.016281335
0.016391887
0.016515835
0.016654111
0.016807185
0.016976003
0.017161949
0.017366244
0.017590082
0.017834709
0.018101476
0.018392045
0.018709412
0.019058028
0.019441668
0.019868898
0.020362504
0.020911599
0.021023742
0.021023906
0.021020434
0.021013524
0.021003474
0.020990688
0.020975712
0.020959269
0.02094227
0.020925851
0.020911315
0.020899977
0.020892669
0.02088952
0.020890227
0.020894058
0.020900143
0.020908062
0.020918105
0.020931111
0.020786607
0.0207959
0.020805933
0.020815234
0.02082703
0.020842764
0.020863048
0.02088824
0.020918244
0.020952449
0.020989747
0.021028753
0.021068256
0.02110731
0.021145174
0.021181284
0.021215174
0.021246466
0.021274835
0.021299993
0.021321678
0.021339654
0.021353706
0.021363616
0.021369111
0.021369922
0.021365756
0.021356268
0.021341092
0.021319813
0.021292004
0.021257193
0.021214903
0.021164613
0.021105815
0.02103798
0.020960652
0.020873541
0.020776416
0.020669135
0.020551699
0.020424242
0.020287067
0.020140741
0.019986136
0.019824137
0.019656403
0.019484888
0.019312019
0.019139005
0.018968028
0.018801026
0.01863994
0.018486665
0.018342939
0.01821032
0.018090187
0.016109934
0.016169935
0.016239423
0.016319045
0.016409497
0.016511613
0.016626544
0.016755217
0.016898506
0.017056769
0.017230859
0.017422105
0.017631698
0.017860931
0.018111376
0.018385043
0.018684817
0.019016749
0.019387914
0.019804104
0.020284866
0.020811383
0.020968072
0.020963593
0.020955261
0.02094326
0.020927851
0.020909386
0.020888336
0.020865329
0.020841188
0.020816958
0.020793935
0.020773619
0.020757499
0.020746435
0.020740502
0.020739297
0.02074196
0.020747421
0.020755081
0.020765123
0.020778183
0.020605851
0.020615
0.020625174
0.020634807
0.020647433
0.020664664
0.020687231
0.020715595
0.020749709
0.020788933
0.020831984
0.020877302
0.020923544
0.020969672
0.02101489
0.021058598
0.021100321
0.021139686
0.021176385
0.021210156
0.021240775
0.02126805
0.021291803
0.021311883
0.021328099
0.021340283
0.021348247
0.021351744
0.021350526
0.021344272
0.021332682
0.021315363
0.02129197
0.021262046
0.021225206
0.021180942
0.021128913
0.021068794
0.02100033
0.020923233
0.020837504
0.020743136
0.020640297
0.020529298
0.020410723
0.020285335
0.020154236
0.020018655
0.019880286
0.019740601
0.01960106
0.019462968
0.019327922
0.019197536
0.019073356
0.018956843
0.018849371
0.016323376
0.016387467
0.016461559
0.016546243
0.016642133
0.016750053
0.016871057
0.01700599
0.017155617
0.017320283
0.017500851
0.01769876
0.017915446
0.01815278
0.018413511
0.018701739
0.019023246
0.01938666
0.01980206
0.020275072
0.020782252
0.02090506
0.020895192
0.020881316
0.020863581
0.020842221
0.020817549
0.020789977
0.020760045
0.020728468
0.020696175
0.020664345
0.020634438
0.020608154
0.020587149
0.020572288
0.020563573
0.020560479
0.020562009
0.020566907
0.020574386
0.020584462
0.020597598
0.020398749
0.020407869
0.020418286
0.020428393
0.020442005
0.020460902
0.020485942
0.020517688
0.020556137
0.020600611
0.020649641
0.020701473
0.020754619
0.020807937
0.020860565
0.02091186
0.020961325
0.021008582
0.021053328
0.021095312
0.021134325
0.0211702
0.021202806
0.021232022
0.021257744
0.021279876
0.021298297
0.021312876
0.021323421
0.021329747
0.021331595
0.021328727
0.021320818
0.021307577
0.021288621
0.021263602
0.021232143
0.02119395
0.021148787
0.021096463
0.021036778
0.020969668
0.020895118
0.020813281
0.020724351
0.020628932
0.020527708
0.020421882
0.02031276
0.020201641
0.020089386
0.019977259
0.019866463
0.019758295
0.019654046
0.019554981
0.01946233
0.016579473
0.016648349
0.016727576
0.01681769
0.016919289
0.017033071
0.017160085
0.017301171
0.017457089
0.017628251
0.01781584
0.018021832
0.018248586
0.018499583
0.018780567
0.01909891
0.019460794
0.01987458
0.020339181
0.020826689
0.020831492
0.020815755
0.020795904
0.02077207
0.020744454
0.020713333
0.020679071
0.020642135
0.020603136
0.020562874
0.020522379
0.020482965
0.020446255
0.020414144
0.020388451
0.020370033
0.020358796
0.020354076
0.020354729
0.02035931
0.020366843
0.020377133
0.020390501
0.020164357
0.020173625
0.020184437
0.020195183
0.020209947
0.020230674
0.020258359
0.02029367
0.020336656
0.020386598
0.020441834
0.020500403
0.020560664
0.020621354
0.020681536
0.020740513
0.020797758
0.020852878
0.020905564
0.020955569
0.021002692
0.021046775
0.021087713
0.021125408
0.02115981
0.021190878
0.021218542
0.021242737
0.021263327
0.021280211
0.021293193
0.021302133
0.021306777
0.021306947
0.021302326
0.021292691
0.021277697
0.021257111
0.02123073
0.021198456
0.021160033
0.021115371
0.021064343
0.021007051
0.020943565
0.020874197
0.020799286
0.020719659
0.020636322
0.020550138
0.020461993
0.020373206
0.02028477
0.020197754
0.020113247
0.020032342
0.019956118
0.01686712
0.016941132
0.017025695
0.017121341
0.017228703
0.017348445
0.01748166
0.017629328
0.017792469
0.01797196
0.018169814
0.018389526
0.018635883
0.018915055
0.019234269
0.019602858
0.020015836
0.02045858
0.020762525
0.020744682
0.020722715
0.020696606
0.020666445
0.020632405
0.020594729
0.020553734
0.020509827
0.020463532
0.02041552
0.020366675
0.020318121
0.020271304
0.020228003
0.020190306
0.020160186
0.020138488
0.020125015
0.020118957
0.020119009
0.020123543
0.020131383
0.020142109
0.020155906
0.019902373
0.019911971
0.019923343
0.019934894
0.01995097
0.019973677
0.020004152
0.020043172
0.020090843
0.020146412
0.020208026
0.020273515
0.020341073
0.020409313
0.02047721
0.020544003
0.020609127
0.020672162
0.020732787
0.020790753
0.020845861
0.020897961
0.020946946
0.020992747
0.021035346
0.021074754
0.021110955
0.021143915
0.021173569
0.021199835
0.021222603
0.021241757
0.021257148
0.021268621
0.021275988
0.021279053
0.021277603
0.021271449
0.021260415
0.021244369
0.02122318
0.021196758
0.021165046
0.021128064
0.021085906
0.021038769
0.02098693
0.020930728
0.020870718
0.020807585
0.020742042
0.020674936
0.020607187
0.020539758
0.020473668
0.020409847
0.02034923
0.017178429
0.017258379
0.017349085
0.017451101
0.017565175
0.017692184
0.017833533
0.017990697
0.018165197
0.018359374
0.018577419
0.018825088
0.019108653
0.019435166
0.019801773
0.020203187
0.02061767
0.020666785
0.020642429
0.02061408
0.020581632
0.020545109
0.020504649
0.020460467
0.020412838
0.020362118
0.020308755
0.020253321
0.020196545
0.020139388
0.020083063
0.020029141
0.019979549
0.019936562
0.019902301
0.019877593
0.019862142
0.019854988
0.019854673
0.019859386
0.019867751
0.019879112
0.019893524
0.019613132
0.019623215
0.019635287
0.019647783
0.019665303
0.019690106
0.01972347
0.019766287
0.019818724
0.019880001
0.019948083
0.020020592
0.020095562
0.020171472
0.020247207
0.020321934
0.020395037
0.020466066
0.020534676
0.020600604
0.020663649
0.020723656
0.02078052
0.020834188
0.020884677
0.020932044
0.020976326
0.021017532
0.021055649
0.021090638
0.021122437
0.021150967
0.021176127
0.021197801
0.021215853
0.021230128
0.021240468
0.021246722
0.021248742
0.021246406
0.021239617
0.021228307
0.021212441
0.021192029
0.021167147
0.021137943
0.021104634
0.021067542
0.02102708
0.02098369
0.020937824
0.020890023
0.020841004
0.020791523
0.020742343
0.020694281
0.020648146
0.017515777
0.017602452
0.017700409
0.017810383
0.017933517
0.018070962
0.018225041
0.018398776
0.018594655
0.01881694
0.019071006
0.019363995
0.019692363
0.020048069
0.020418167
0.02058153
0.020554072
0.020523011
0.020488201
0.020449489
0.02040678
0.020360112
0.020309653
0.020255649
0.02019841
0.020138324
0.020075879
0.020011691
0.019946545
0.019881469
0.019817764
0.019757116
0.019701596
0.01965365
0.019615543
0.019588084
0.019570878
0.019562826
0.019562318
0.019567372
0.019576418
0.019588563
0.019603727
0.019297503
0.019308183
0.019321058
0.019334601
0.019353651
0.019380615
0.019416912
0.019463547
0.019520753
0.019587732
0.019662275
0.019741808
0.019824208
0.019907823
0.019991445
0.020074162
0.020155305
0.020234381
0.020311018
0.02038493
0.020455901
0.020523768
0.020588418
0.020649805
0.020707976
0.020763025
0.020815029
0.020864041
0.020910091
0.020953186
0.02099331
0.021030427
0.021064479
0.021095389
0.02112306
0.021147374
0.021168203
0.021185413
0.021198869
0.021208456
0.021214085
0.021215695
0.021213256
0.021206774
0.021196308
0.021181968
0.021163928
0.021142445
0.021117839
0.021090446
0.02106066
0.021028919
0.020995737
0.020961661
0.020927215
0.020893046
0.020859809
0.017887727
0.017982885
0.018090333
0.018211481
0.018348807
0.018503858
0.018680175
0.018882209
0.019112745
0.019378008
0.019669385
0.019981514
0.020307435
0.02048764
0.020456598
0.020422467
0.020384915
0.020343814
0.020299036
0.020250451
0.020197965
0.020141639
0.020081672
0.020018342
0.019951988
0.019883034
0.019812004
0.019739555
0.019666523
0.019594003
0.019523375
0.019456435
0.019395384
0.019342835
0.019301183
0.019271222
0.019252459
0.019243667
0.019243092
0.019248592
0.019258413
0.01927143
0.019287434
0.018956762
0.01896811
0.018981847
0.018996493
0.019017114
0.019046252
0.019085464
0.019135868
0.019197766
0.019270351
0.019351251
0.01943771
0.019527454
0.019618709
0.01971017
0.019800849
0.019890018
0.019977139
0.020061802
0.020143694
0.020222576
0.020298268
0.020370644
0.020439656
0.020505376
0.020567923
0.020627408
0.020683918
0.020737519
0.020788256
0.020836154
0.020881216
0.020923426
0.020962747
0.020999122
0.021032469
0.021062688
0.02108966
0.021113256
0.021133366
0.021149898
0.021162786
0.021171992
0.021177509
0.021179373
0.021177659
0.021172498
0.021164086
0.02115267
0.021138515
0.02112194
0.021103301
0.021082995
0.021061458
0.021039136
0.02101651
0.020994074
0.018304804
0.018412621
0.018534874
0.018674052
0.018834067
0.019016989
0.019227428
0.019464439
0.019719824
0.019989824
0.020269383
0.020383729
0.020348977
0.020311485
0.0202709
0.020227153
0.020180091
0.020129572
0.02007546
0.020017624
0.019955975
0.019890594
0.019821717
0.019749649
0.019674764
0.019597516
0.019518464
0.019438307
0.019357927
0.019278483
0.019201428
0.019128657
0.019062496
0.019005711
0.01896082
0.018928595
0.018908458
0.018899056
0.018898503
0.018904511
0.018915154
0.018929082
0.018945964
0.018592467
0.018604516
0.018619139
0.018634906
0.018657093
0.018688368
0.018730421
0.01878448
0.01885092
0.01892893
0.019015992
0.01910918
0.019206083
0.019304807
0.019403959
0.019502476
0.019599569
0.01969465
0.01978727
0.019877083
0.01996382
0.02004728
0.020127315
0.02020387
0.020277032
0.020346942
0.020413736
0.020477525
0.020538407
0.020596457
0.020651732
0.020704269
0.020754086
0.020801185
0.020845541
0.02088711
0.020925818
0.02096156
0.020994217
0.021023681
0.021049862
0.021072688
0.021092109
0.0211081
0.021120673
0.021129867
0.021135767
0.021138516
0.021138293
0.021135304
0.021129807
0.021122084
0.021112453
0.021101257
0.021088852
0.021075613
0.021061925
0.018782048
0.018908555
0.019052914
0.01921954
0.019406509
0.019609954
0.019823798
0.020053175
0.020284726
0.0202687
0.020230219
0.020189216
0.02014546
0.020098888
0.020049347
0.019996713
0.019940842
0.019881594
0.019818827
0.019752407
0.019682251
0.019608465
0.019531314
0.019451139
0.01936834
0.019283405
0.019196928
0.019109644
0.01902248
0.018936653
0.018853683
0.01877556
0.018704721
0.018644073
0.018596246
0.018561992
0.018540649
0.01853075
0.018530285
0.018536833
0.018548311
0.018563152
0.018580913
0.018206365
0.01821912
0.018234624
0.018251499
0.018275211
0.018308544
0.018353315
0.018410861
0.018481627
0.018564808
0.018657754
0.018757386
0.018861167
0.018967095
0.019073693
0.019179825
0.019284644
0.019387513
0.01948794
0.019585541
0.019680018
0.019771137
0.019858729
0.019942722
0.020023213
0.02010036
0.020174314
0.02024521
0.020313166
0.020378281
0.020440638
0.020500302
0.020557321
0.020611724
0.020663521
0.020712696
0.020759199
0.020802936
0.020843798
0.020881681
0.020916495
0.020948165
0.020976631
0.021001855
0.021023822
0.021042541