/*--------------------------------*- C++ -*----------------------------------*\
| =========                 |                                                 |
| \\      /  F ield         | OpenFOAM: The Open Source CFD Toolbox           |
|  \\    /   O peration     | Version:  2.4.0                                 |
|   \\  /    A nd           | Web:      www.OpenFOAM.org                      |
|    \\/     M anipulation  |                                                 |
\*---------------------------------------------------------------------------*/
FoamFile
{
    version     2.0;
    format      ascii;
    class       volVectorField;
    location    "370";
    object      U;
}
// * * * * * * * * * * * * * * * * * * * * * * * * * * * * * * * * * * * * * //

dimensions      [0 1 -1 0 0 0 0];

internalField   nonuniform List<vector> 
19477
(
(0.97481807 0.048459838 -2.7858035e-22)
(0.96608675 0.045077619 -1.2078734e-22)
(0.97023844 0.041469283 -8.6195319e-24)
(0.96988337 0.038281108 -2.244341e-22)
(0.96914325 0.035106166 -4.071851e-22)
(0.96789493 0.032094519 -8.7435709e-22)
(0.96598396 0.029197986 1.0641046e-21)
(0.96333243 0.026426864 -1.7480251e-22)
(0.95987292 0.023775738 1.5411288e-21)
(0.95554773 0.021246923 7.362945e-22)
(0.95040176 0.018847729 4.3288859e-22)
(0.94456532 0.016585609 -1.5949499e-21)
(0.93815218 0.01446738 -1.6086898e-22)
(0.93125804 0.012500417 6.2008465e-23)
(0.92396308 0.010689764 -2.2336839e-21)
(0.91633735 0.0090390612 -2.2455713e-22)
(0.90844042 0.0075492247 -7.1205727e-23)
(0.90032094 0.0062178409 -4.5622458e-22)
(0.89201922 0.0050386062 -7.4800176e-22)
(0.88356627 0.0040012702 -6.4798547e-22)
(0.87498235 0.0030918621 -1.6567885e-22)
(0.86627627 0.002293569 -1.7340188e-21)
(0.85744645 0.0015875085 -2.2587301e-21)
(0.84848343 0.00095430285 3.6582523e-21)
(0.83934462 0.00037484125 -1.019761e-21)
(0.82995942 -0.00016777229 -1.0136853e-21)
(0.82025001 -0.00068823653 3.2954415e-21)
(0.81013082 -0.0011986258 -1.794542e-21)
(0.79950896 -0.001708219 -4.3060599e-21)
(0.78828653 -0.0022232938 2.9634637e-21)
(0.77636431 -0.0027466444 -5.1203275e-21)
(0.76364618 -0.0032771827 -9.2502693e-21)
(0.75004355 -0.003809753 2.4571641e-21)
(0.73547794 -0.0043353318 -9.6283976e-21)
(0.71988301 -0.0048415703 -3.8834451e-21)
(0.70320283 -0.0053128906 2.5821725e-21)
(0.64573303 0.10149179 -3.7179844e-20)
(0.65938457 0.10473665 -2.3774783e-21)
(0.67325656 0.10774462 -6.9294344e-20)
(0.68733906 0.11047522 -5.1885702e-20)
(0.70161469 0.11288756 4.0606591e-20)
(0.71605833 0.11494163 -4.4699049e-20)
(0.73063619 0.11659979 -4.8982892e-20)
(0.74530543 0.11782835 1.231988e-20)
(0.76001475 0.11859956 -3.8419271e-20)
(0.77470409 0.1188945 2.4655533e-20)
(0.78931226 0.11870737 1.7751596e-20)
(0.80375599 0.11804999 -9.0462013e-21)
(0.81793266 0.11694942 5.7141931e-21)
(0.83175135 0.11544303 -4.2388204e-21)
(0.84513646 0.11357637 6.6657498e-21)
(0.85802668 0.11139976 5.6128286e-21)
(0.87037474 0.10895843 2.0937288e-21)
(0.88216282 0.1062742 -2.5967138e-23)
(0.89335292 0.10332806 -2.1759904e-22)
(0.90391653 0.10016601 4.5037618e-21)
(0.91384159 0.096820399 1.0880031e-20)
(0.92303508 0.093350445 -1.2424409e-20)
(0.93144216 0.089796161 9.95458e-21)
(0.93899114 0.08618506 -1.2010502e-20)
(0.94557432 0.082533524 -2.3580129e-20)
(0.95117665 0.078851094 -6.020466e-21)
(0.95582728 0.075123025 -5.7531235e-21)
(0.9596494 0.071366266 -1.2420524e-21)
(0.96258285 0.067540061 4.8424052e-21)
(0.96507665 0.063732091 -9.2744435e-22)
(0.96638613 0.05980123 -3.841226e-22)
(0.96868348 0.056063601 -2.0644251e-22)
(0.96444534 0.052080254 -3.6619493e-22)
(0.98097911 0.04816438 2.3989738e-22)
(0.97226727 0.044915515 8.9328541e-24)
(0.97642123 0.041451916 5.3699999e-23)
(0.97625765 0.038367256 2.0060785e-22)
(0.97558031 0.035304067 7.7767088e-22)
(0.97446263 0.032382147 4.6463402e-22)
(0.97268997 0.02956959 4.5166087e-22)
(0.97020312 0.026870766 -7.5266685e-22)
(0.96693139 0.024283024 -5.0891474e-21)
(0.96281968 0.021807738 -2.6056769e-21)
(0.95791004 0.019451699 -6.2628002e-22)
(0.95232661 0.017221474 1.6045245e-21)
(0.94617826 0.015123233 5.7060143e-22)
(0.93955645 0.013164 1.8932727e-21)
(0.93253799 0.01134894 -8.5154249e-23)
(0.92519049 0.0096823049 -5.4582415e-22)
(0.91757222 0.0081662432 -1.1225934e-21)
(0.90973204 0.0068002052 3.3955032e-23)
(0.90171219 0.0055803878 -1.4552557e-22)
(0.89354765 0.0044995552 1.3499991e-22)
(0.885265 0.0035470769 1.8577624e-21)
(0.87688172 0.0027094632 -1.6685636e-21)
(0.86840716 0.0019708519 1.9562507e-21)
(0.85984407 0.0013141589 -2.5111918e-21)
(0.85116418 0.00072182337 8.2922721e-22)
(0.84231289 0.00017763786 -6.5745601e-22)
(0.83322853 -0.00033319053 -4.2535346e-21)
(0.82384177 -0.00082352779 -8.7232425e-22)
(0.81407558 -0.0013040807 -1.2504336e-21)
(0.80384683 -0.0017832972 8.8582284e-23)
(0.79306823 -0.0022670995 -1.6732268e-21)
(0.78165111 -0.0027585373 3.7421183e-21)
(0.76950938 -0.0032573291 -1.7702437e-21)
(0.75656291 -0.0037596394 7.5675814e-21)
(0.74274005 -0.0042582021 2.529143e-21)
(0.72797591 -0.0047424462 3.9474103e-21)
(0.71221917 -0.0051978218 -1.0054016e-22)
(0.69546041 -0.0056065267 -4.9194308e-21)
(0.67772968 -0.0059510046 3.0933794e-21)
(0.65908584 -0.0062145077 4.199724e-21)
(0.63961881 -0.0063827858 8.7897555e-21)
(0.61945113 -0.0064455798 -1.4264361e-21)
(0.59873875 -0.0063968097 3.7174024e-21)
(0.66382842 0.099999119 3.9793103e-20)
(0.67712947 0.10302513 4.7824539e-20)
(0.69062202 0.10581165 1.565255e-20)
(0.70429455 0.10832153 7.2448597e-20)
(0.71812853 0.11051778 -5.1770935e-20)
(0.7320983 0.11236482 4.8583413e-20)
(0.74617031 0.11382982 4.3707322e-20)
(0.76030294 0.1148842 2.4899636e-20)
(0.77444724 0.11550545 3.239254e-20)
(0.78854701 0.11567961 -4.8361693e-20)
(0.80254597 0.11540504 -1.5636154e-20)
(0.81636808 0.11469628 1.7740589e-20)
(0.82992037 0.11358133 1.9971437e-21)
(0.84312188 0.1120967 -6.9287247e-21)
(0.85590716 0.11028485 -2.5302009e-21)
(0.86822354 0.10819053 -2.3550342e-22)
(0.88003217 0.10585127 1.2302054e-21)
(0.89132066 0.10328475 8.6502179e-23)
(0.90203944 0.1004676 4.7219786e-21)
(0.91216788 0.09743902 5.3431088e-23)
(0.9216903 0.094250576 -8.8748019e-21)
(0.93051557 0.090947134 2.1416304e-21)
(0.9385951 0.087564891 -1.3478096e-20)
(0.9458572 0.084128844 6.9618369e-21)
(0.95219904 0.080654936 1.1566199e-20)
(0.95760411 0.077151015 3.7269897e-21)
(0.96210348 0.073604905 1.1099487e-20)
(0.96580832 0.070028459 1.4744649e-21)
(0.96867638 0.06638864 -2.0890242e-21)
(0.97110769 0.062756905 1.444909e-21)
(0.97244862 0.059014781 -1.1784711e-22)
(0.97467451 0.055438634 -8.7471043e-23)
(0.97049421 0.051634646 -3.7391925e-22)
(0.98720515 0.047829237 1.7233842e-23)
(0.97851224 0.044711541 2.304961e-22)
(0.98266279 0.041390474 -5.9528159e-23)
(0.9826862 0.038409901 8.3617849e-23)
(0.98207117 0.03545758 3.578248e-23)
(0.98107965 0.032626918 -2.6816236e-22)
(0.97944424 0.029899448 -4.7768081e-21)
(0.97712065 0.027275169 -1.1171625e-22)
(0.97403665 0.024753381 4.4014373e-21)
(0.9701392 0.022334855 -1.8066861e-21)
(0.9654677 0.020025738 -1.1635229e-21)
(0.96014003 0.017831754 2.2373644e-22)
(0.95426007 0.015758379 -2.8026492e-21)
(0.94791491 0.013812188 -1.7910151e-21)
(0.94117777 0.011998304 3.9687052e-21)
(0.93411345 0.010321352 -1.2949968e-22)
(0.92677839 0.0087843766 -1.1292656e-21)
(0.91922087 0.007388281 -1.2105322e-22)
(0.91148387 0.0061312866 7.265283e-22)
(0.90360487 0.0050086823 -2.9456074e-23)
(0.89561483 0.0040127377 -8.4062832e-22)
(0.88753771 0.0031329855 2.0107358e-21)
(0.8793913 0.0023564834 -6.4852705e-24)
(0.87118815 0.0016686063 -3.0434352e-21)
(0.86291199 0.001053701 -3.2486648e-21)
(0.85452203 0.00049677229 5.0125985e-21)
(0.84597083 -1.6439163e-05 -1.9425226e-21)
(0.83720366 -0.00049890868 9.9699775e-22)
(0.8281582 -0.00096200548 3.2586609e-21)
(0.81876574 -0.0014153787 -1.8861795e-21)
(0.80895235 -0.0018668523 1.9413007e-21)
(0.79864017 -0.0023222408 2.220498e-21)
(0.78775005 -0.0027849294 -5.7419972e-21)
(0.77620467 -0.0032554336 8.5047368e-22)
(0.76393171 -0.0037311096 2.3281647e-21)
(0.75086282 -0.0042060019 -4.663182e-21)
(0.73693955 -0.0046702378 -4.1157477e-21)
(0.72213743 -0.0051104766 6.0298921e-21)
(0.70646394 -0.0055124972 -4.4981644e-21)
(0.68994931 -0.0058619181 3.5190868e-21)
(0.67264911 -0.0061454082 -4.2068659e-21)
(0.65464691 -0.0063520757 6.41502e-22)
(0.63605588 -0.0064739874 -3.7511932e-21)
(0.68211013 0.098425359 -1.0155897e-20)
(0.69502859 0.10123654 -4.170371e-20)
(0.70811101 0.10380754 2.5902193e-20)
(0.7213447 0.10610458 -2.5246368e-20)
(0.73471039 0.10809455 9.7675666e-21)
(0.74818229 0.10974609 -6.9764895e-20)
(0.76172753 0.11103096 -4.2271659e-20)
(0.77530621 0.11192536 -2.8490767e-21)
(0.78887214 0.11241144 1.6822895e-20)
(0.80237334 0.11247959 6.6243069e-21)
(0.81575868 0.11213158 -1.9797088e-20)
(0.82895944 0.11138378 1.5149156e-21)
(0.84189207 0.11026429 1.0542122e-20)
(0.85448491 0.10880796 -1.1933287e-21)
(0.86668145 0.10705375 -2.6853483e-21)
(0.87843573 0.10504076 6.720537e-22)
(0.88971554 0.102799 -1.4012806e-21)
(0.90050986 0.10034209 1.4738381e-22)
(0.91076443 0.097654152 -2.203549e-21)
(0.92046755 0.094755836 2.9202667e-22)
(0.92959 0.091718369 -3.62574e-21)
(0.9380513 0.088575537 7.8297261e-21)
(0.94580679 0.08535889 1.3395137e-20)
(0.95278537 0.082091312 -1.5906451e-21)
(0.95888891 0.078788204 1.4596417e-21)
(0.96409971 0.075456147 1.0950319e-20)
(0.9684499 0.072084972 -6.1524542e-21)
(0.97203985 0.068682532 1.7791192e-21)
(0.97484262 0.065221983 5.8104645e-22)
(0.9772133 0.061761118 -2.307506e-22)
(0.97858336 0.058200955 2.7939502e-22)
(0.98073673 0.0547823 -4.0119737e-23)
(0.97661363 0.051152671 4.8546457e-22)
(0.99348294 0.04745399 -4.3250134e-23)
(0.98480976 0.044465212 -7.8186698e-23)
(0.98895169 0.041284189 5.9459804e-23)
(0.98915753 0.03840803 -1.4752851e-22)
(0.98860451 0.035565585 -7.5843485e-22)
(0.98773481 0.03282742 -7.8168695e-22)
(0.98623553 0.030186015 3.8848007e-21)
(0.98407381 0.027638284 -1.0276483e-22)
(0.98117735 0.025184835 3.3589085e-22)
(0.97749484 0.022826087 5.0508451e-21)
(0.97306315 0.02056747 1.7739232e-21)
(0.96799389 0.018413894 -5.6405156e-21)
(0.96238587 0.016370113 1.1049887e-21)
(0.95632173 0.014442185 4.3945837e-21)
(0.94987094 0.012635058 -9.2005048e-22)
(0.94309526 0.010953526 4.0159727e-22)
(0.93604886 0.0094012517 1.3232003e-23)
(0.92877878 0.0079802342 -4.4168786e-22)
(0.92132789 0.006690298 -1.3009705e-21)
(0.91373486 0.0055288035 1.6679584e-22)
(0.90603353 0.0044904834 1.3890005e-21)
(0.89825237 0.0035675443 -8.16513e-22)
(0.89041554 0.0027497606 -8.5661135e-22)
(0.88254318 0.0020249743 1.1058801e-21)
(0.87462882 0.0013796256 3.1169493e-21)
(0.86664335 0.00080027957 -3.421762e-21)
(0.85855162 0.00027368478 6.8641688e-21)
(0.85031178 -0.00021269677 -1.2418841e-21)
(0.8418747 -0.00067030271 -6.645106e-22)
(0.83318502 -0.001109306 4.4029674e-21)
(0.82418191 -0.0015385391 -1.3226346e-21)
(0.81479969 -0.0019654321 2.6723433e-21)
(0.80496908 -0.0023957817 3.9185656e-21)
(0.7946194 -0.0028333285 1.8251236e-22)
(0.78368155 -0.0032792617 -2.1237242e-21)
(0.77208776 -0.0037317595 -3.4931465e-21)
(0.75977738 -0.0041853046 2.9743882e-21)
(0.74671772 -0.0046308276 -3.1478942e-21)
(0.73290173 -0.0050577456 -1.1764745e-22)
(0.71833989 -0.0054545734 -5.9618504e-22)
(0.70306285 -0.0058098454 -3.1121589e-21)
(0.68712445 -0.0061132832 2.4583151e-21)
(0.67060369 -0.0063564106 3.3635625e-21)
(0.70052364 0.096771971 2.1428734e-20)
(0.71302924 0.09937343 8.2178852e-21)
(0.72567305 0.10173587 -2.0949031e-20)
(0.73844151 0.10382889 -3.4224085e-20)
(0.75131501 0.10562309 -4.69742e-21)
(0.76426804 0.1070912 6.9920272e-20)
(0.77726885 0.10820926 2.2248334e-20)
(0.79027963 0.10895778 -1.703723e-20)
(0.80325733 0.10932306 -5.935233e-21)
(0.81615444 0.10929917 1.8898187e-20)
(0.82892509 0.10889049 3.0622138e-20)
(0.84150779 0.10811446 2.8024493e-21)
(0.85382786 0.10699852 -1.5920943e-20)
(0.86582208 0.10557529 1.0829089e-20)
(0.87744144 0.10388017 4.8254485e-22)
(0.88864522 0.1019471 -1.7804881e-21)
(0.89940657 0.099799205 -1.7706299e-21)
(0.90971246 0.097443756 -2.6262803e-22)
(0.91951317 0.094879271 6.8746037e-22)
(0.92879817 0.092113666 -2.2739037e-21)
(0.93752392 0.089221773 5.274543e-21)
(0.94562594 0.086233612 -1.0333708e-20)
(0.95306141 0.083176113 -1.5092719e-20)
(0.95976034 0.080070519 1.6669025e-20)
(0.96562905 0.076931596 -2.0077936e-21)
(0.97064888 0.073764959 -8.5568063e-21)
(0.97485229 0.070561993 2.4135625e-21)
(0.97832996 0.06732742 6.5302217e-22)
(0.98106785 0.064039333 -1.4258961e-21)
(0.98338001 0.060744052 1.0117379e-21)
(0.98477712 0.057359293 -4.4023533e-25)
(0.98685749 0.054094118 -4.2725991e-22)
(0.98279108 0.050633774 1.1693139e-22)
(0.99979936 0.047038023 -5.1267578e-23)
(0.99114687 0.044175796 -2.8200177e-23)
(0.99527549 0.041132208 1.1436802e-23)
(0.99565917 0.038360563 1.1147755e-22)
(0.99516796 0.035626906 -6.0772346e-23)
(0.99441593 0.032982197 -1.4361295e-22)
(0.99305154 0.030427694 -6.7056745e-22)
(0.99105027 0.027958268 -5.7706357e-22)
(0.98834103 0.025575353 9.8122814e-22)
(0.98487396 0.02327918 -3.9961587e-21)
(0.98068355 0.02107443 -2.2244321e-21)
(0.97587512 0.018965227 4.7672695e-21)
(0.97054241 0.016955591 8.0065663e-22)
(0.96476355 0.015051014 -7.1620148e-21)
(0.95860421 0.013256163 9.7729009e-22)
(0.95212287 0.011575836 -1.2110544e-21)
(0.94537115 0.010014083 4.3290503e-21)
(0.93839436 0.008573692 2.5104802e-21)
(0.93123451 0.0072557242 1.0823291e-21)
(0.92393053 0.0060592019 -3.0169269e-21)
(0.9165178 0.004980904 -4.4695856e-21)
(0.90902776 0.0040153445 9.9361466e-22)
(0.90148907 0.0031547458 -2.4084243e-21)
(0.89392753 0.0023893095 2.2591708e-21)
(0.88634449 0.0017076127 -5.3908629e-21)
(0.8787205 0.0010979744 -1.8867205e-21)
(0.87103082 0.00054847357 -1.1077518e-21)
(0.86324469 4.7422828e-05 4.6986052e-21)
(0.85532458 -0.00041622031 -5.6748336e-22)
(0.84722704 -0.00085264108 -4.3931141e-21)
(0.83890337 -0.0012710524 2.5059516e-21)
(0.83029984 -0.0016796764 -5.6894118e-21)
(0.82135827 -0.0020856595 1.7650649e-21)
(0.81201714 -0.0024948082 -4.862428e-21)
(0.80221378 -0.002911112 5.4545781e-22)
(0.7918843 -0.0033361279 5.9804674e-21)
(0.78096945 -0.0037681777 -9.0955508e-22)
(0.76943305 -0.0042022156 7.6839471e-21)
(0.75725956 -0.0046312993 -4.543596e-21)
(0.74444683 -0.0050470353 -2.1327876e-21)
(0.73100836 -0.0054403425 2.6766628e-21)
(0.71697648 -0.0058023538 3.199036e-21)
(0.70240426 -0.0061251055 -2.5867686e-21)
(0.71900956 0.095040368 -3.5718318e-20)
(0.73107455 0.097438258 2.5421804e-20)
(0.74325401 0.099600065 -5.4134904e-20)
(0.75553386 0.10149865 3.0929998e-20)
(0.76789452 0.10310823 5.4595278e-20)
(0.78031116 0.10440534 -6.2520666e-20)
(0.79275351 0.10536995 -3.7084995e-20)
(0.80518616 0.10598642 -2.634826e-21)
(0.8175695 0.10624464 -1.8811477e-20)
(0.8298606 0.10614166 -2.0026464e-20)
(0.84201881 0.10568376 -2.1980417e-20)
(0.85398951 0.10488875 -6.8861012e-21)
(0.86570619 0.10378285 1.107506e-20)
(0.8771131 0.10239616 3.8695656e-21)
(0.88816733 0.10076059 6.4635944e-21)
(0.89883257 0.098905586 4.124516e-21)
(0.9090871 0.09684863 9.5201798e-22)
(0.91891323 0.094589616 3.9635014e-22)
(0.92826766 0.092140472 -3.7251781e-22)
(0.93713817 0.089508178 2.6071887e-22)
(0.94547323 0.086757958 3.1284469e-21)
(0.95322197 0.083918708 8.1052295e-21)
(0.9603424 0.081014147 1.6829745e-20)
(0.96676619 0.078064286 -5.6302698e-23)
(0.97240401 0.075083205 6.3049367e-21)
(0.97723646 0.072075774 3.8943796e-21)
(0.98129579 0.069034579 -5.8203398e-21)
(0.98466396 0.065961909 2.955156e-21)
(0.98733769 0.062839769 -9.4095867e-22)
(0.98959359 0.059704872 4.3524249e-22)
(0.99101589 0.056489178 -7.2658386e-23)
(0.99302321 0.053373472 3.8233867e-22)
(0.98901309 0.050077394 2.3095997e-23)
(1.0061405 0.046580589 3.3051821e-23)
(0.99750976 0.043842472 7.4728809e-23)
(1.0016209 0.040933604 -2.4498415e-22)
(1.0021777 0.038266359 2.4536563e-22)
(1.0017482 0.035640309 -7.6098801e-22)
(1.0011099 0.033089743 1.3894582e-21)
(0.99987901 0.030622829 5.0215833e-22)
(0.99803672 0.028233227 -1.0530917e-21)
(0.99551417 0.025922833 -5.2962149e-21)
(0.99226281 0.023691804 -3.3075621e-21)
(0.98831483 0.021544063 7.2443881e-21)
(0.98376934 0.019482975 -2.630016e-21)
(0.97871499 0.017511831 2.6228521e-21)
(0.97322543 0.015635519 2.93841e-21)
(0.96736245 0.013858349 1.2487929e-21)
(0.96118117 0.012184994 -1.2396731e-21)
(0.95473042 0.010619693 -4.2896327e-23)
(0.94805342 0.0091657724 -2.8568951e-21)
(0.94119079 0.0078252103 1.9073937e-21)
(0.93418091 0.0065983295 1.7003164e-21)
(0.92705965 0.0054835705 2.9537796e-21)
(0.91986017 0.0044773912 5.7794151e-24)
(0.91261404 0.0035741584 -3.2051141e-22)
(0.90535104 0.0027662459 3.9485255e-22)
(0.89807856 0.0020443031 3.2357236e-21)
(0.890785 0.001398468 2.9609839e-21)
(0.88345418 0.00081833623 -5.0013013e-21)
(0.87606473 0.00029335728 -4.1298297e-21)
(0.86858911 -0.00018676292 2.0515093e-21)
(0.86099429 -0.00063182639 2.5303092e-21)
(0.85324232 -0.0010509829 -8.8707676e-22)
(0.84529044 -0.0014526892 6.2776966e-21)
(0.83709139 -0.001844681 -1.7002336e-21)
(0.82859384 -0.0022338539 6.3844493e-22)
(0.81974365 -0.0026259379 -2.8591585e-21)
(0.81048346 -0.0030249094 -1.1295938e-21)
(0.80075818 -0.0034321687 -1.4041974e-21)
(0.7905316 -0.0038462675 -3.7184681e-21)
(0.77978412 -0.0042637068 7.0204232e-22)
(0.76850615 -0.0046791853 -4.5100583e-21)
(0.75670017 -0.0050861983 4.7588728e-21)
(0.7443836 -0.0054778101 -4.8400946e-21)
(0.73159079 -0.0058472794 -5.3498092e-21)
(0.73750425 0.093231802 -2.4444021e-20)
(0.74910397 0.095433261 4.1917581e-21)
(0.76079669 0.097403199 4.491796e-20)
(0.77256814 0.099117636 -1.1682217e-21)
(0.78439908 0.10055417 -2.8686594e-20)
(0.79626569 0.10169289 6.0865434e-20)
(0.80813949 0.10251728 -7.5759029e-21)
(0.81998777 0.10301508 -6.3941039e-21)
(0.83177447 0.10317917 1.5524865e-20)
(0.84346123 0.10300894 6.8964009e-21)
(0.85501242 0.10251191 2.2975664e-20)
(0.86637977 0.10170571 2.8677452e-21)
(0.87750414 0.10061498 5.1338695e-21)
(0.88833627 0.099267202 -1.8123782e-21)
(0.89883814 0.097690925 -1.6568751e-21)
(0.90897768 0.095911487 -2.7527675e-21)
(0.91873825 0.093942485 1.4090015e-21)
(0.92809363 0.091776836 -2.5120868e-22)
(0.93700648 0.089438387 -6.2856347e-24)
(0.94546731 0.086936588 4.307296e-22)
(0.95341946 0.084323711 -1.8074316e-21)
(0.9608219 0.081627803 -3.7694062e-21)
(0.96763306 0.078870359 -2.6781975e-21)
(0.97378679 0.076070295 -5.7879998e-21)
(0.97919803 0.073241008 8.9938143e-21)
(0.98384695 0.070386807 -2.8147965e-21)
(0.98776513 0.067501221 4.8251629e-21)
(0.99102668 0.064584667 -3.1672773e-21)
(0.99363717 0.06162223 2.9238933e-21)
(0.99583921 0.058642607 -1.529744e-21)
(0.99728498 0.055589848 -4.6264738e-22)
(0.99921963 0.052619617 6.2215139e-23)
(0.9952654 0.049482844 -1.5883945e-22)
(1.0124918 0.046080857 -5.3359526e-23)
(1.0038839 0.043464335 -1.0769072e-22)
(1.0079737 0.040687379 4.0420587e-22)
(1.0086991 0.038124211 -5.8171806e-22)
(1.0083312 0.035604498 -9.9783034e-23)
(1.0078027 0.0331485 2.1779938e-21)
(1.0067038 0.030769702 -1.9395123e-21)
(1.0050189 0.028461202 2.0138543e-21)
(1.0026823 0.026225103 4.3911358e-21)
(0.9996466 0.02406155 1.3277867e-20)
(0.99594182 0.021973724 6.6996748e-22)
(0.99166095 0.019964252 6.8004617e-21)
(0.98688759 0.018035715 3.3944052e-22)
(0.98169092 0.016192376 1.1219861e-21)
(0.97612886 0.014438132 -1.8796048e-21)
(0.97025313 0.012777429 -1.2291785e-21)
(0.96410962 0.01121454 -1.9632243e-21)
(0.95773921 0.0097531152 2.3326479e-21)
(0.95118069 0.0083957835 3.3978203e-22)
(0.94447132 0.0071438527 -1.8496065e-21)
(0.93764665 0.0059970785 -1.1495389e-21)
(0.93074045 0.0049535169 -1.0467385e-21)
(0.92378597 0.0040093653 7.4145197e-22)
(0.91681553 0.0031589336 -4.5281245e-21)
(0.90984096 0.0023948016 -3.0048582e-21)
(0.90285688 0.00170889 9.9107702e-22)
(0.89585402 0.001092382 6.462413e-22)
(0.88881876 0.00053603421 2.5648172e-22)
(0.88173196 3.0548784e-05 -3.3706344e-21)
(0.87456952 -0.00043319263 -8.0154308e-22)
(0.86730283 -0.00086394653 9.0187626e-22)
(0.85989883 -0.0012700231 -5.1044239e-21)
(0.85232019 -0.0016592445 3.1971348e-21)
(0.84452556 -0.0020389031 -9.3215051e-22)
(0.8364701 -0.0024155868 -2.7364649e-21)
(0.82810466 -0.0027947265 1.3579273e-21)
(0.8193805 -0.0031799201 1.5004452e-21)
(0.81026398 -0.0035725798 3.0376582e-22)
(0.80073465 -0.0039722152 3.6662947e-21)
(0.7907793 -0.0043764791 7.0590012e-21)
(0.78039383 -0.0047815148 -7.7031606e-21)
(0.76958595 -0.0051825823 3.4999932e-21)
(0.75837697 -0.0055745978 4.4042192e-21)
(0.75594071 0.091347278 3.0869146e-20)
(0.76705423 0.093360348 -7.282883e-21)
(0.77824172 0.095147924 -1.9747916e-20)
(0.78948901 0.096689021 -2.0900781e-20)
(0.80077751 0.097964392 -7.1877413e-21)
(0.81208471 0.098957317 -1.7249311e-20)
(0.82338415 0.099654409 3.6398082e-21)
(0.83464594 0.10004628 2.6546892e-20)
(0.84583762 0.10012825 1.2809347e-21)
(0.85692527 0.099901434 2.1497383e-20)
(0.86787788 0.099374067 -1.0267036e-20)
(0.87865295 0.098563177 1.0889895e-21)
(0.8891979 0.097491637 -1.9688516e-20)
(0.89946905 0.096184366 -7.1998813e-21)
(0.90943215 0.094666553 -7.0039875e-21)
(0.91905965 0.09295959 -1.8412009e-21)
(0.92833888 0.091075678 -4.247213e-22)
(0.93723139 0.089003214 -1.5024652e-21)
(0.94570961 0.086770769 3.3801327e-22)
(0.95376737 0.084395736 1.9530909e-21)
(0.96134523 0.081915725 -1.5832963e-21)
(0.96840879 0.079357967 2.086968e-21)
(0.97491687 0.076742163 3.0349992e-21)
(0.98080594 0.07408623 -9.6025102e-22)
(0.98599519 0.071402953 -1.0992546e-20)
(0.99046462 0.068696229 3.6607177e-21)
(0.99424475 0.065960342 -2.6736489e-21)
(0.99740263 0.063194283 -5.6735257e-21)
(0.99995098 0.060385554 -1.2700585e-21)
(1.0021016 0.057556181 1.0424943e-21)
(1.0035692 0.054660432 7.2605285e-23)
(1.0054319 0.051831697 -2.1096126e-22)
(1.0015331 0.04884933 -1.3277765e-23)
(1.0188381 0.045537924 -2.3637387e-23)
(1.010254 0.043040414 1.6381473e-23)
(1.0143193 0.040392473 -1.7714473e-22)
(1.0152084 0.037932853 -2.3336611e-22)
(1.0149021 0.03551812 2.3217253e-21)
(1.0144797 0.033156858 -3.5618274e-21)
(1.0135111 0.030866534 -2.1214128e-21)
(1.0119819 0.028640178 -2.5874485e-22)
(1.0098301 0.026479921 -3.8096238e-21)
(1.0070096 0.024385931 -3.2602053e-21)
(1.0035484 0.022360675 -8.258832e-21)
(0.99953326 0.020406066 -3.8091852e-21)
(0.99504292 0.018523995 -4.6425776e-21)
(0.99014216 0.016718098 -2.5239799e-22)
(0.98488505 0.014991822 -7.3286909e-22)
(0.97931991 0.013349307 8.8486919e-22)
(0.9734896 0.011794738 2.8607278e-21)
(0.96743251 0.010331916 -2.3237334e-21)
(0.96118532 0.0089638958 -3.0568166e-21)
(0.95478367 0.0076927019 3.9069602e-21)
(0.9482622 0.0065191004 1.6499442e-21)
(0.94165444 0.005442428 -2.2266509e-21)
(0.93499428 0.0044604048 8.6754039e-22)
(0.92831537 0.0035690174 4.1619557e-21)
(0.92163265 0.0027625847 2.3891148e-21)
(0.91494548 0.0020346996 1.9399738e-21)
(0.90825005 0.0013781119 2.3900529e-21)
(0.90153893 0.00078495371 1.7703118e-22)
(0.89479993 0.00024707176 3.3842494e-21)
(0.88801643 -0.00024375818 -3.9578142e-21)
(0.88116776 -0.0006956472 -3.4764135e-21)
(0.87422921 -0.0011164811 9.6367833e-22)
(0.86717218 -0.0015138447 -4.0513282e-21)
(0.85996429 -0.0018949931 1.4203952e-21)
(0.85256975 -0.0022667537 3.5177318e-21)
(0.84494811 -0.0026352208 -3.6853028e-21)
(0.83705828 -0.0030052997 -2.9425438e-21)
(0.82887126 -0.0033803622 -1.6294746e-21)
(0.82036814 -0.0037623261 -1.5321908e-21)
(0.81153486 -0.0041514473 -5.1884701e-21)
(0.80236404 -0.0045463818 6.7479881e-21)
(0.79285747 -0.0049446464 -4.129857e-21)
(0.78302769 -0.0053430156 1.1747554e-21)
(0.77424973 0.089387507 -3.7310822e-20)
(0.78486039 0.091221027 -3.6027593e-20)
(0.79552857 0.092836358 3.1239716e-20)
(0.80624046 0.094215309 5.4839851e-20)
(0.81697838 0.095341506 -2.8054009e-20)
(0.8277213 0.096201082 -6.9532084e-21)
(0.83844497 0.096783344 2.6566288e-20)
(0.84912236 0.0970813 1.1293868e-20)
(0.85972455 0.097092179 2.6499138e-21)
(0.87022173 0.096818317 -2.84036e-20)
(0.88058709 0.096268228 -4.3643659e-21)
(0.89078323 0.095458062 9.3789817e-22)
(0.90076335 0.094408855 3.5720244e-23)
(0.91048845 0.093143133 -5.1911265e-21)
(0.91992711 0.0916828 -3.3618366e-21)
(0.92905641 0.090045505 7.4752033e-21)
(0.93786434 0.088243457 1.9012457e-21)
(0.94630174 0.086269333 2.0919701e-21)
(0.95435954 0.084136708 -3.795045e-22)
(0.96202186 0.081883156 -1.0809944e-23)
(0.96923399 0.079531321 2.8597737e-21)
(0.97596608 0.077106658 -3.8408027e-22)
(0.98217745 0.074627169 -1.4076188e-20)
(0.98780749 0.072109879 -5.2340286e-21)
(0.99277955 0.06956703 3.2493386e-21)
(0.99707365 0.067002216 -1.4796482e-21)
(1.000719 0.064410336 5.8138327e-21)
(1.0037762 0.061789305 4.6275289e-21)
(1.0062636 0.059128512 1.1577061e-21)
(1.0083651 0.056444449 -1.5066982e-21)
(1.009853 0.053699969 3.4920871e-22)
(1.0116446 0.051008772 5.7763224e-22)
(1.0078007 0.048175973 -6.6939133e-23)
(1.0251642 0.044950833 9.9921364e-24)
(1.0166047 0.042569686 -1.5939278e-22)
(1.0206425 0.040047783 1.8474935e-22)
(1.0216906 0.037690981 1.1026948e-22)
(1.0214458 0.035379771 -2.8961218e-21)
(1.0211257 0.033113166 -7.8365175e-22)
(1.0202855 0.030911493 4.1240696e-21)
(1.0189101 0.028768082 8.3624957e-22)
(1.0169416 0.026684979 4.9701158e-21)
(1.0143355 0.024662388 4.8700318e-22)
(1.0111174 0.022702092 -8.7920471e-22)
(1.0073686 0.020805319 -2.7290219e-21)
(1.0031627 0.018973301 1.7564857e-21)
(0.99856009 0.01720905 6.000391e-21)
(0.99361124 0.01551554 -9.8989188e-22)
(0.98836104 0.013896552 6.2340369e-21)
(0.98284933 0.012356088 -6.1084491e-21)
(0.97711189 0.010897961 1.7200558e-21)
(0.9711831 0.0095254697 2.8599415e-21)
(0.96509671 0.0082411277 -8.4177732e-22)
(0.95888589 0.007046449 3.1856948e-22)
(0.95258335 0.0059417673 2.6697906e-21)
(0.94622275 0.0049260369 2.8454578e-21)
(0.93983809 0.0039966577 -5.1461128e-22)
(0.93344632 0.0031494695 -7.3813452e-22)
(0.92705027 0.0023795782 -7.6606886e-22)
(0.92065024 0.0016812097 -2.8295494e-22)
(0.9142437 0.0010478587 -3.3241788e-22)
(0.90782396 0.00047257586 3.2008645e-21)
(0.90138057 -5.1844466e-05 -8.9791755e-22)
(0.89489946 -0.00053269368 4.0637806e-21)
(0.88836299 -0.00097722954 -3.4015319e-21)
(0.88174997 -0.0013925788 2.2108578e-21)
(0.87503585 -0.0017856836 4.8305025e-21)
(0.86819293 -0.0021632252 -6.2866934e-22)
(0.86118902 -0.0025314136 -1.0617913e-21)
(0.85399096 -0.0028956981 2.0466944e-21)
(0.84657562 -0.0032606129 -1.6903478e-21)
(0.83892746 -0.0036297539 -1.7016808e-21)
(0.83103371 -0.0040053652 2.9511682e-21)
(0.8228861 -0.0043883121 -4.5756354e-22)
(0.81448332 -0.0047782504 -8.3315799e-22)
(0.80583239 -0.0051737919 2.4690157e-21)
(0.79236139 0.087352897 6.962715e-20)
(0.80245733 0.08901639 1.6852116e-20)
(0.81259697 0.090470067 -3.2011608e-20)
(0.82276708 0.091698295 -2.97882e-20)
(0.83295108 0.092687282 2.4194644e-20)
(0.84312959 0.093425649 5.9256657e-21)
(0.8532806 0.093904988 -2.7180927e-20)
(0.8633799 0.094120245 8.4496257e-22)
(0.87340187 0.094070105 -5.4964994e-21)
(0.8833205 0.093757709 2.1240837e-20)
(0.89311262 0.093191522 1.6904593e-21)
(0.90274527 0.092386654 -8.7993163e-21)
(0.91217672 0.091362351 -1.9684563e-21)
(0.92137167 0.090138967 7.4167531e-21)
(0.93030136 0.088735538 1.3669385e-20)
(0.93894712 0.087166438 -7.9851655e-21)
(0.94729141 0.085439733 7.9662996e-22)
(0.95528849 0.083564873 -5.3364215e-22)
(0.9629408 0.081535655 -2.8195388e-22)
(0.97021435 0.079396995 -1.9780831e-21)
(0.97706906 0.077168422 3.6933901e-22)
(0.98347712 0.07487165 -4.1309768e-21)
(0.9893984 0.072523167 7.0168976e-21)
(0.99477529 0.070139138 1.2074334e-20)
(0.99953519 0.067731292 -3.9749532e-21)
(1.0036583 0.065302982 -2.2362885e-21)
(1.0071721 0.062849605 -3.7993729e-21)
(1.0101316 0.060368275 1.9880899e-22)
(1.0125593 0.057849842 -3.3015355e-23)
(1.0146141 0.055306226 5.7048341e-22)
(1.0161208 0.052707452 2.7085369e-22)
(1.0178424 0.050149848 -4.2045665e-22)
(1.0140527 0.047461842 2.1335188e-22)
(1.0314546 0.044318608 3.8427196e-24)
(1.0229202 0.0420511 1.3963634e-22)
(1.0269281 0.039652181 -6.5931685e-23)
(1.0281302 0.037397262 2.7667808e-23)
(1.0279466 0.035188018 3.0232651e-21)
(1.0277252 0.033015742 3.0923845e-21)
(1.0270112 0.030902705 2.748966e-21)
(1.0257874 0.028842797 4.2819804e-21)
(1.0240004 0.026837914 -6.2508565e-21)
(1.0216072 0.024888294 2.1504344e-21)
(1.0186314 0.022995076 8.9211249e-21)
(1.0151486 0.021158827 4.1701269e-22)
(1.0112276 0.019380156 2.7835069e-22)
(1.0069246 0.01766146 -1.0087916e-20)
(1.0022864 0.016005238 4.0153348e-21)
(0.99735466 0.014414872 -1.9183758e-21)
(0.99216611 0.012894111 -2.2276435e-21)
(0.98675395 0.011446673 -2.1104237e-21)
(0.98115015 0.010075952 -7.6631989e-22)
(0.97538632 0.0087847644 -2.2107505e-21)
(0.96949389 0.007575151 2.3873765e-21)
(0.9635042 0.0064481941 -2.4420103e-21)
(0.95745006 0.0054038204 -6.5506696e-21)
(0.95136503 0.0044405897 -1.1716357e-21)
(0.94526713 0.0035556366 3.8184623e-21)
(0.93916163 0.0027453932 -1.6618995e-21)
(0.93305182 0.0020054255 -2.9843213e-21)
(0.9269388 0.0013305142 1.0949399e-21)
(0.92082022 0.00071490133 -3.6322088e-21)
(0.91469049 0.0001524473 2.1752445e-21)
(0.90854094 -0.00036322027 3.3174506e-21)
(0.90235973 -0.00083859291 4.1214559e-21)
(0.89613193 -0.0012801761 3.5423819e-21)
(0.88983958 -0.0016944163 -5.1570572e-21)
(0.88346192 -0.0020876208 -3.4503164e-21)
(0.8769741 -0.0024657848 -2.0698576e-22)
(0.87035035 -0.0028344128 4.3176906e-21)
(0.86357365 -0.0031985322 6.2559178e-21)
(0.85663293 -0.0035626636 -5.7988331e-22)
(0.84951827 -0.0039304073 1.6419635e-21)
(0.84222235 -0.0043042898 -4.4954336e-21)
(0.83474283 -0.0046857289 4.0271874e-21)
(0.8270837 -0.0050751288 -1.7896402e-21)
(0.71820563 0.062498457 -5.5289449e-20)
(0.72688628 0.065190878 -1.8117088e-20)
(0.73573435 0.067825145 -4.0204686e-20)
(0.74472793 0.070388792 -5.1700046e-20)
(0.75384651 0.072869122 -3.1449744e-20)
(0.76307073 0.075253309 -6.6906095e-20)
(0.77238172 0.0775283 -2.0687838e-20)
(0.78175943 0.079680396 1.5092709e-20)
(0.79119124 0.081694392 -5.519515e-21)
(0.80067458 0.083554158 -3.7925372e-20)
(0.81020692 0.085243607 3.2748465e-21)
(0.81978146 0.08674715 8.4452823e-21)
(0.82938852 0.088050095 -1.6941053e-21)
(0.8390156 0.089139118 3.5495775e-20)
(0.84864736 0.090002699 4.2698852e-20)