/*--------------------------------*- C++ -*----------------------------------*\
| =========                 |                                                 |
| \\      /  F ield         | OpenFOAM: The Open Source CFD Toolbox           |
|  \\    /   O peration     | Version:  2.4.0                                 |
|   \\  /    A nd           | Web:      www.OpenFOAM.org                      |
|    \\/     M anipulation  |                                                 |
\*---------------------------------------------------------------------------*/
FoamFile
{
    version     2.0;
    format      ascii;
    class       volSymmTensorField;
    location    "8426";
    object      Ax;
}
// * * * * * * * * * * * * * * * * * * * * * * * * * * * * * * * * * * * * * //

dimensions      [0 0 0 0 0 0 0];

internalField   nonuniform List<symmTensor> 
32000
(
(0 0 0 0 0 0)
(3.9178029e-08 5.000851e-05 -2.2313195e-25 -1.2501497e-07 1.3708813e-24 8.5836941e-08)
(0 0 0 0 0 0)
(0 0 0 0 0 0)
(0 0 0 0 0 0)
(0 0 0 0 0 0)
(0 0 0 0 0 0)
(0 0 0 0 0 0)
(0 0 0 0 0 0)
(0 0 0 0 0 0)
(0 0 0 0 0 0)
(0 0 0 0 0 0)
(0 0 0 0 0 0)
(0 0 0 0 0 0)
(0 0 0 0 0 0)
(0 0 0 0 0 0)
(0 0 0 0 0 0)
(0 0 0 0 0 0)
(0 0 0 0 0 0)
(0 0 0 0 0 0)
(0 0 0 0 0 0)
(0 0 0 0 0 0)
(0 0 0 0 0 0)
(0 0 0 0 0 0)
(0 0 0 0 0 0)
(0 0 0 0 0 0)
(0 0 0 0 0 0)
(0 0 0 0 0 0)
(0 0 0 0 0 0)
(0 0 0 0 0 0)
(0 0 0 0 0 0)
(0 0 0 0 0 0)
(0 0 0 0 0 0)
(0 0 0 0 0 0)
(0 0 0 0 0 0)
(0 0 0 0 0 0)
(0 0 0 0 0 0)
(0 0 0 0 0 0)
(0 0 0 0 0 0)
(0 0 0 0 0 0)
(0 0 0 0 0 0)
(0 0 0 0 0 0)
(0 0 0 0 0 0)
(0 0 0 0 0 0)
(0 0 0 0 0 0)
(0 0 0 0 0 0)
(0 0 0 0 0 0)
(0 0 0 0 0 0)
(0 0 0 0 0 0)
(0 0 0 0 0 0)
(0 0 0 0 0 0)
(0 0 0 0 0 0)
(0 0 0 0 0 0)
(0 0 0 0 0 0)
(0 0 0 0 0 0)
(0 0 0 0 0 0)
(0 0 0 0 0 0)
(0 0 0 0 0 0)
(0 0 0 0 0 0)
(0 0 0 0 0 0)
(0 0 0 0 0 0)
(0 0 0 0 0 0)
(0 0 0 0 0 0)
(0 0 0 0 0 0)
(0 0 0 0 0 0)
(0 0 0 0 0 0)
(0 0 0 0 0 0)
(0 0 0 0 0 0)
(0 0 0 0 0 0)
(0 0 0 0 0 0)
(0 0 0 0 0 0)
(0 0 0 0 0 0)
(0 0 0 0 0 0)
(0 0 0 0 0 0)
(0 0 0 0 0 0)
(0 0 0 0 0 0)
(0 0 0 0 0 0)
(0 0 0 0 0 0)
(0 0 0 0 0 0)
(0 0 0 0 0 0)
(0 0 0 0 0 0)
(0 0 0 0 0 0)
(0 0 0 0 0 0)
(0 0 0 0 0 0)
(0 0 0 0 0 0)
(0 0 0 0 0 0)
(0 0 0 0 0 0)
(0 0 0 0 0 0)
(0 0 0 0 0 0)
(0 0 0 0 0 0)
(0 0 0 0 0 0)
(0 0 0 0 0 0)
(0 0 0 0 0 0)
(0 0 0 0 0 0)
(0 0 0 0 0 0)
(0 0 0 0 0 0)
(0 0 0 0 0 0)
(0 0 0 0 0 0)
(0 0 0 0 0 0)
(0 0 0 0 0 0)
(0 0 0 0 0 0)
(0 0 0 0 0 0)
(0 0 0 0 0 0)
(0 0 0 0 0 0)
(0 0 0 0 0 0)
(0 0 0 0 0 0)
(0 0 0 0 0 0)
(0 0 0 0 0 0)
(0 0 0 0 0 0)
(0 0 0 0 0 0)
(0 0 0 0 0 0)
(0 0 0 0 0 0)
(0 0 0 0 0 0)
(0 0 0 0 0 0)
(0 0 0 0 0 0)
(0 0 0 0 0 0)
(0 0 0 0 0 0)
(0 0 0 0 0 0)
(0 0 0 0 0 0)
(0 0 0 0 0 0)
(0 0 0 0 0 0)
(0 0 0 0 0 0)
(0 0 0 0 0 0)
(0 0 0 0 0 0)
(0 0 0 0 0 0)
(0 0 0 0 0 0)
(0 0 0 0 0 0)
(0 0 0 0 0 0)
(0 0 0 0 0 0)
(0 0 0 0 0 0)
(0 0 0 0 0 0)
(0 0 0 0 0 0)
(0 0 0 0 0 0)
(0 0 0 0 0 0)
(0 0 0 0 0 0)
(0 0 0 0 0 0)
(0 0 0 0 0 0)
(0 0 0 0 0 0)
(0 0 0 0 0 0)
(0 0 0 0 0 0)
(0 0 0 0 0 0)
(0 0 0 0 0 0)
(0 0 0 0 0 0)
(0 0 0 0 0 0)
(0 0 0 0 0 0)
(0 0 0 0 0 0)
(0 0 0 0 0 0)
(0 0 0 0 0 0)
(0 0 0 0 0 0)
(0 0 0 0 0 0)
(0 0 0 0 0 0)
(0 0 0 0 0 0)
(0 0 0 0 0 0)
(0 0 0 0 0 0)
(0 0 0 0 0 0)
(0 0 0 0 0 0)
(0 0 0 0 0 0)
(0 0 0 0 0 0)
(0 0 0 0 0 0)
(0 0 0 0 0 0)
(0 0 0 0 0 0)
(0 0 0 0 0 0)
(0 0 0 0 0 0)
(0 0 0 0 0 0)
(0 0 0 0 0 0)
(0 0 0 0 0 0)
(0 0 0 0 0 0)
(0 0 0 0 0 0)
(0 0 0 0 0 0)
(0 0 0 0 0 0)
(0 0 0 0 0 0)
(0 0 0 0 0 0)
(0 0 0 0 0 0)
(0 0 0 0 0 0)
(0 0 0 0 0 0)
(0 0 0 0 0 0)
(0 0 0 0 0 0)
(0 0 0 0 0 0)
(0 0 0 0 0 0)
(0 0 0 0 0 0)
(0 0 0 0 0 0)
(0 0 0 0 0 0)
(0 0 0 0 0 0)
(0 0 0 0 0 0)
(0 0 0 0 0 0)
(0 0 0 0 0 0)
(0 0 0 0 0 0)
(0 0 0 0 0 0)
(0 0 0 0 0 0)
(0 0 0 0 0 0)
(0 0 0 0 0 0)
(-0.00012957224 7.4812248e-05 -3.2165031e-22 0.00012887873 6.6108377e-22 6.9350823e-07)
(-0.00013384699 0.00010809711 -6.8338799e-22 0.00013298292 1.9108577e-22 8.6406515e-07)
(-0.00011490215 0.00013857936 -1.4488716e-21 0.00011404046 3.353374e-21 8.6169146e-07)
(-7.8115336e-05 0.00014772297 -9.1016912e-22 7.7427204e-05 2.2492945e-21 6.8813156e-07)
(-4.0443337e-05 0.00012826787 -1.0011534e-22 4.0048652e-05 6.6414917e-22 3.946847e-07)
(0 0 0 0 0 0)
(0 0 0 0 0 0)
(0 0 0 0 0 0)
(0 0 0 0 0 0)
(-3.6277866e-06 0.00039130969 2.3184705e-23 2.0839594e-07 9.3920508e-23 3.4193907e-06)
(1.3090227e-07 0.00031972594 5.8855936e-24 -2.6332649e-06 1.7932771e-23 2.5023627e-06)
(2.3412499e-05 0.00045528491 1.2636618e-22 -2.785141e-05 9.0566866e-23 4.4389115e-06)
(5.1908818e-05 0.00035897834 1.6675001e-22 -5.4984688e-05 -1.8934769e-21 3.0758698e-06)
(8.1158635e-05 0.0002816375 -5.9919657e-22 -8.3019639e-05 -3.6332388e-21 1.8610042e-06)
(4.2556558e-05 9.5192714e-05 1.9809499e-22 -4.2671402e-05 2.9442733e-21 1.1484393e-07)
(-3.2677892e-05 -3.250276e-05 2.386476e-21 3.2853809e-05 5.9212337e-21 -1.759168e-07)
(0 0 0 0 0 0)
(-0.00012189624 -6.9850539e-05 4.8143727e-21 0.0001216063 8.764255e-21 2.8994312e-07)
(-0.0001208254 -5.1741775e-05 -1.6058976e-21 0.00012056596 -2.0140682e-21 2.5943976e-07)
(-0.0001113635 -3.6684274e-05 -2.4185995e-21 0.00011116292 -4.3191762e-21 2.0058509e-07)
(-0.00010253084 -2.6662529e-05 -8.3306508e-22 0.00010236841 -2.3572897e-21 1.6242675e-07)
(-9.4771971e-05 -2.0022208e-05 3.0555891e-21 9.4638008e-05 9.3215104e-22 1.3396268e-07)
(0 0 0 0 0 0)
(0 0 0 0 0 0)
(0 0 0 0 0 0)
(0 0 0 0 0 0)
(0 0 0 0 0 0)
(0 0 0 0 0 0)
(0 0 0 0 0 0)
(0 0 0 0 0 0)
(0 0 0 0 0 0)
(0 0 0 0 0 0)
(0 0 0 0 0 0)
(0 0 0 0 0 0)
(0 0 0 0 0 0)
(0 0 0 0 0 0)
(0 0 0 0 0 0)
(0 0 0 0 0 0)
(0 0 0 0 0 0)
(-0.00011674578 -3.7420531e-05 2.593254e-21 0.00011644297 4.2050735e-21 3.0280575e-07)
(-0.00012212347 -4.3108891e-05 3.0153945e-21 0.00012178576 4.2619739e-21 3.3771576e-07)
(-0.00012659294 -4.9937352e-05 9.1138892e-21 0.00012621945 1.422593e-20 3.7348908e-07)
(-0.0001297135 -5.7955487e-05 1.0458296e-23 0.0001293044 3.4426871e-23 4.0909824e-07)
(-0.00013107792 -6.7217723e-05 -8.2995242e-21 0.00013063405 -1.3504927e-20 4.438641e-07)
(-0.00013062746 -7.7824089e-05 2.4917035e-21 0.00013014811 5.913566e-21 4.7934179e-07)
(-0.00012889691 -8.9865761e-05 -2.7512132e-21 0.00012837952 -5.6336999e-21 5.1739116e-07)
(-0.00012556109 -0.0001026341 -4.4284507e-21 0.00012500377 -9.8334816e-21 5.5731446e-07)
(-0.00011995549 -0.00011552375 4.4325602e-21 0.00011936248 8.93971e-21 5.9300809e-07)
(-0.00011178146 -0.0001279803 -5.9415115e-21 0.00011115706 -1.3981167e-20 6.2440313e-07)
(-0.00010116816 -0.00013969609 1.482229e-21 0.00010052046 4.224047e-21 6.4770113e-07)
(-8.7778215e-05 -0.00014946095 5.2641591e-22 8.7115084e-05 -1.6412243e-21 6.6313129e-07)
(-7.2606623e-05 -0.00015800603 1.9849491e-22 7.1939155e-05 -5.4069192e-22 6.6746828e-07)
(-5.5253031e-05 -0.00016288826 4.545747e-22 5.4586223e-05 2.5752862e-21 6.6680781e-07)
(-3.7911844e-05 -0.00016933195 -5.7984702e-22 3.7247375e-05 -4.3876277e-21 6.6446974e-07)
(-2.0002336e-05 -0.00017231593 1.0207633e-22 1.9300193e-05 1.0917825e-21 7.021425e-07)
(-5.3271952e-06 -0.0002041405 3.5050363e-24 4.4043678e-06 -2.5606763e-23 9.2282737e-07)
(-2.7039216e-06 -0.00024826423 1.7110094e-25 1.2878718e-06 6.553815e-25 1.4160499e-06)
(-2.217666e-06 -0.00027312418 9.1685153e-26 5.3834121e-07 1.3549465e-25 1.6793248e-06)
(-2.0692982e-06 -0.00029528032 -9.946901e-26 9.4089038e-08 -6.5435302e-25 1.9752091e-06)
(-1.9092176e-06 -0.00031030924 6.0180303e-27 -2.6074352e-07 1.8492474e-25 2.1699611e-06)
(-1.8298292e-06 -0.0003231572 9.2072417e-26 -5.2779525e-07 -4.8571072e-27 2.3576244e-06)
(-1.7453276e-06 -0.00033234744 -5.4489103e-26 -7.4353275e-07 5.3873727e-26 2.4888603e-06)
(-1.6868254e-06 -0.00033981535 -8.2843581e-27 -9.1654515e-07 -4.8034022e-25 2.6033706e-06)
(-1.6239706e-06 -0.0003450464 9.3768673e-27 -1.0579498e-06 4.8237114e-25 2.6819204e-06)
(-1.5695471e-06 -0.0003488872 2.0165546e-26 -1.1727354e-06 2.6518236e-25 2.7422825e-06)
(-1.5122027e-06 -0.00035119735 -1.0289836e-26 -1.2653611e-06 -3.4023953e-25 2.7775637e-06)
(-1.4574569e-06 -0.00035239328 2.4044294e-26 -1.3389802e-06 8.6443326e-26 2.7964371e-06)
(-1.3998176e-06 -0.00035247751 -1.0012244e-25 -1.3972668e-06 1.9556891e-25 2.7970844e-06)
(-1.3405694e-06 -0.00035163624 9.3653799e-26 -1.4429445e-06 -2.4583765e-25 2.7835139e-06)
(-1.2785794e-06 -0.00034989219 3.3907658e-26 -1.4769117e-06 3.0688006e-25 2.7554911e-06)
(-1.2154186e-06 -0.00034737281 -9.9507408e-26 -1.5002537e-06 -3.2159066e-25 2.7156723e-06)
(-1.1505559e-06 -0.00034412448 2.6117389e-26 -1.5141937e-06 9.0453352e-27 2.6647495e-06)
(-1.0847135e-06 -0.00034023257 -2.2627328e-26 -1.5198164e-06 -3.1155083e-26 2.6045298e-06)
(-1.0178056e-06 -0.0003357441 5.1631514e-26 -1.5181422e-06 -6.6377783e-26 2.5359478e-06)
(-9.5044892e-07 -0.00033072096 -1.0406163e-26 -1.5099028e-06 2.2527082e-25 2.4603517e-06)
(-8.829286e-07 -0.00032521028 -3.5873418e-26 -1.4958303e-06 -2.7439874e-25 2.3787589e-06)
(-8.1564305e-07 -0.00031926455 4.2887869e-27 -1.4766539e-06 3.0903636e-25 2.292297e-06)
(-7.4878953e-07 -0.00031292526 4.8892537e-26 -1.4531091e-06 -3.8667675e-26 2.2018986e-06)
(-6.8275684e-07 -0.00030623582 7.24563e-27 -1.4257345e-06 -1.170786e-25 2.1084913e-06)
(-6.1780157e-07 -0.0002992343 -7.3813694e-26 -1.3951168e-06 8.7639135e-26 2.0129184e-06)
(-5.5423349e-07 -0.00029195902 7.7735081e-26 -1.3617234e-06 -3.024556e-26 1.9159569e-06)
(-4.9223185e-07 -0.00028444408 -7.6517996e-26 -1.326107e-06 3.119715e-27 1.8183388e-06)
(-4.3198667e-07 -0.00027672269 5.0835359e-26 -1.2886988e-06 -4.0797666e-26 1.7206855e-06)
(-3.737242e-07 -0.00026882266 -3.3257964e-26 -1.2498596e-06 3.0872605e-26 1.6235838e-06)
(-3.1794799e-07 -0.00026077668 3.2947339e-27 -1.209625e-06 1.4908748e-26 1.527573e-06)
(-2.6456371e-07 -0.00025261863 1.2032165e-26 -1.168666e-06 -1.4386257e-26 1.4332297e-06)
(-2.1333175e-07 -0.00024436991 -4.1289747e-27 -1.1275453e-06 4.4237271e-28 1.3408771e-06)
(-1.6450802e-07 -0.00023604847 -4.6076458e-27 -1.086326e-06 -4.7640141e-27 1.250834e-06)
(-1.1835239e-07 -0.00022768025 -1.3718901e-26 -1.0450758e-06 -5.4642134e-27 1.1634282e-06)
(-7.4746176e-08 -0.00021928573 2.108016e-26 -1.0041844e-06 1.5842488e-26 1.0789306e-06)
(-3.3762753e-08 -0.0002108825 1.6403315e-26 -9.6375606e-07 -2.49324e-26 9.9751881e-07)
(4.5783455e-09 -0.00020248957 -1.8942967e-26 -9.2396538e-07 1.0740805e-26 9.1938703e-07)
(4.0397748e-08 -0.00019412318 1.9820973e-27 -8.8505858e-07 -2.9586913e-26 8.4466083e-07)
(7.3653949e-08 -0.0001857949 -1.6633962e-27 -8.4706472e-07 2.8283565e-26 7.7341077e-07)
(1.0435582e-07 -0.00017752099 8.732668e-27 -8.1006682e-07 -3.6052272e-26 7.05711e-07)
(1.3267008e-07 -0.00016931224 7.367501e-27 -7.7427538e-07 1.3353783e-26 6.4160529e-07)
(1.5857934e-07 -0.00016117838 -4.0728649e-27 -7.3964424e-07 2.0655008e-26 5.810649e-07)
(1.8219841e-07 -0.00015312965 -5.768159e-27 -7.0630227e-07 7.0448977e-27 5.2410386e-07)
(2.0358475e-07 -0.00014517416 1.7725936e-26 -6.742476e-07 -1.9209665e-26 4.7066285e-07)
(2.2278118e-07 -0.0001373195 -1.4558766e-26 -6.434747e-07 -3.1646455e-26 4.2069352e-07)
(2.3991809e-07 -0.00012957345 7.0744271e-27 -6.1405673e-07 6.5903373e-28 3.7413864e-07)
(2.5508716e-07 -0.00012193989 -2.4630251e-27 -5.8598351e-07 4.1031053e-26 3.3089636e-07)
(2.6834263e-07 -0.00011442476 1.7095404e-27 -5.592347e-07 -4.9905814e-26 2.9089208e-07)
(2.7977594e-07 -0.00010703315 -2.7456024e-28 -5.33797e-07 -7.8048796e-27 2.5402106e-07)
(2.8946732e-07 -9.9767923e-05 8.2694693e-29 -5.0964792e-07 2.2135336e-26 2.201806e-07)
(2.9751962e-07 -9.2633399e-05 4.288162e-28 -4.8677435e-07 -1.2115414e-26 1.8925473e-07)
(3.0405507e-07 -8.5631846e-05 6.5650784e-28 -4.6519302e-07 5.6101504e-27 1.6113795e-07)
(3.0909005e-07 -7.87646e-05 -9.454463e-28 -4.4478604e-07 9.873363e-27 1.3569598e-07)
(3.1272122e-07 -7.203481e-05 1.7938956e-28 -4.255477e-07 4.6704083e-27 1.1282648e-07)
(3.15047e-07 -6.5444214e-05 -3.8444614e-28 -4.0744769e-07 3.6868841e-27 9.240069e-08)
(3.1618459e-07 -5.899318e-05 1.4592513e-28 -3.9048824e-07 1.2819622e-28 7.4303651e-08)
(3.161545e-07 -5.2681845e-05 8.7734456e-28 -3.7456061e-07 1.9209961e-26 5.8406111e-08)
(3.1495781e-07 -4.6513023e-05 -3.9041139e-28 -3.5955981e-07 -1.198956e-26 4.4601996e-08)
(3.1264879e-07 -4.0487795e-05 -7.5019304e-28 -3.4541751e-07 3.5515283e-26 3.2768726e-08)
(3.091664e-07 -3.4609226e-05 -9.185788e-29 -3.3197061e-07 -1.6058241e-26 2.2804212e-08)
(3.0439775e-07 -2.8883922e-05 1.7918537e-27 -3.1898978e-07 -3.1931249e-26 1.4592033e-08)
(2.9857661e-07 -2.3318778e-05 -4.4236443e-28 -3.0660649e-07 2.7082828e-26 8.0298774e-09)
(2.9183641e-07 -1.7914317e-05 -1.1578545e-27 -2.9482332e-07 6.3042053e-27 2.9869118e-09)
(2.8439354e-07 -1.2675763e-05 5.1641941e-28 -2.8375007e-07 -7.1607878e-26 -6.4347051e-10)
(2.7640208e-07 -7.5973947e-06 1.2432872e-27 -2.7341229e-07 1.2781661e-26 -2.9897844e-09)
(2.6788578e-07 -2.6808772e-06 -4.4506909e-27 -2.637343e-07 2.3771215e-26 -4.1514809e-09)
(2.5900851e-07 2.0774482e-06 3.0533931e-27 -2.54761e-07 3.7888872e-26 -4.2475133e-09)
(2.4981989e-07 6.6804011e-06 3.1207794e-27 -2.4645036e-07 4.6552407e-26 -3.3695279e-09)
(2.4031317e-07 1.1131178e-05 -2.4797341e-27 -2.3869365e-07 -6.1332193e-26 -1.6195169e-09)
(2.305057e-07 1.5431465e-05 -1.0055721e-27 -2.3142758e-07 3.719569e-26 9.2187892e-10)
(2.2035678e-07 1.958268e-05 2.1472699e-27 -2.2451677e-07 1.4484014e-27 4.1599866e-09)
(2.098841e-07 2.3583334e-05 -2.1836296e-27 -2.1789897e-07 -2.5347315e-25 8.0148773e-09)
(1.9917128e-07 2.7434565e-05 -3.3582585e-29 -2.1157639e-07 -3.2598928e-26 1.2405109e-08)
(1.881985e-07 3.1136342e-05 -5.8204228e-27 -2.0545306e-07 4.3342551e-25 1.7254554e-08)
(1.7697979e-07 3.4687092e-05 6.0276089e-27 -1.9946318e-07 -8.7585576e-26 2.2483393e-08)
(1.6559696e-07 3.8086687e-05 -7.3867998e-27 -1.9361961e-07 1.5708914e-26 2.8022653e-08)
(1.5401912e-07 4.1334877e-05 6.8312405e-27 -1.878197e-07 -2.5760413e-25 3.3800576e-08)
(1.4225863e-07 4.4428791e-05 6.2216526e-27 -1.8200222e-07 -7.7414304e-26 3.9743589e-08)
(1.3038057e-07 4.7367979e-05 -1.5484043e-27 -1.7617046e-07 9.6036939e-26 4.5789891e-08)
(1.1835867e-07 5.0150444e-05 6.0289376e-29 -1.7022884e-07 3.2680453e-25 5.1870172e-08)
(1.0618244e-07 5.2773327e-05 -3.0238795e-27 -1.641052e-07 -1.0745218e-25 5.7922762e-08)
(9.392388e-08 5.5233519e-05 6.9641503e-28 -1.5780199e-07 1.7486195e-25 6.3878114e-08)
(8.1520962e-08 5.7529532e-05 -9.3454275e-28 -1.512085e-07 -2.0911862e-25 6.9687534e-08)
(6.8989476e-08 5.9654479e-05 -2.5640226e-27 -1.4425584e-07 -2.1728737e-25 7.5266368e-08)
(5.6331601e-08 6.1607053e-05 1.8464021e-27 -1.3691596e-07 1.4789949e-25 8.058436e-08)
(4.3545296e-08 6.337872e-05 -2.6959992e-27 -1.2908733e-07 4.9431145e-25 8.5542038e-08)
(3.0538354e-08 6.4967501e-05 3.3622417e-28 -1.2066938e-07 -1.0771235e-24 9.0131026e-08)
(1.7414672e-08 6.635984e-05 -1.1931553e-26 -1.1163043e-07 9.6344637e-25 9.4215758e-08)
(3.9591868e-09 6.7557412e-05 2.5857667e-26 -1.0180183e-07 -3.8382323e-25 9.7842644e-08)
(-9.6435072e-09 6.8536407e-05 -1.5226727e-21 -9.1153146e-08 6.5656964e-19 1.0079665e-07)
(-2.3763706e-08 6.9306096e-05 -1.5570185e-21 -7.9471508e-08 6.6393733e-19 1.0323521e-07)
(-3.802365e-08 6.9825347e-05 9.7497332e-28 -6.6760716e-08 1.6429072e-26 1.0478437e-07)
(-5.3092855e-08 7.0119996e-05 1.6040579e-21 -5.2732761e-08 -6.7605228e-19 1.0582562e-07)
(-6.8006481e-08 7.0117955e-05 1.6217832e-21 -3.7662067e-08 -6.8354171e-19 1.0566855e-07)
(-8.4512364e-08 6.988723e-05 -7.4696244e-27 -2.066212e-08 1.2023558e-25 1.0517448e-07)
(-1.0122572e-07 6.9280661e-05 1.0332414e-27 -1.7505103e-09 2.8048124e-25 1.0297623e-07)
(-1.2106788e-07 6.8431161e-05 2.1044213e-26 2.0244747e-08 -4.4550115e-25 1.0082313e-07)
(-1.4015808e-07 6.7061639e-05 -1.7870679e-27 4.4124403e-08 -6.3834967e-25 9.6033678e-08)
(-1.6426588e-07 6.5476719e-05 -1.0908007e-26 7.1994758e-08 4.0951947e-25 9.2271125e-08)
(-1.8599685e-07 6.3141721e-05 -3.6021913e-27 1.0174792e-07 -6.5526514e-25 8.4248935e-08)
(-2.1732402e-07 6.0697986e-05 4.6569487e-27 1.3795091e-07 1.2756094e-24 7.9373107e-08)
(-2.4279993e-07 5.7077928e-05 4.3688162e-27 1.7560373e-07 -1.8323609e-25 6.7196192e-08)
(-2.8673762e-07 5.3626208e-05 -5.8857595e-27 2.2426304e-07 4.5733238e-25 6.2474576e-08)
(-3.1900189e-07 4.8186663e-05 4.5882523e-27 2.7419148e-07 -7.2944864e-25 4.4810414e-08)
(-3.8801292e-07 4.3505194e-05 2.0859234e-27 3.4513959e-07 -3.6871269e-25 4.2873326e-08)
(-4.3484574e-07 3.5228804e-05 1.4750043e-26 4.1696491e-07 2.1663522e-25 1.7880823e-08)
(-5.6420409e-07 2.8896244e-05 3.4148986e-26 5.4009922e-07 -2.2908035e-25 2.4104866e-08)
(-9.0610543e-07 1.5404468e-05 -2.924776e-24 9.122019e-07 1.5145136e-22 -6.09647e-09)
(-7.8396302e-07 4.6796516e-06 -3.3836842e-22 7.7279651e-07 4.0168265e-21 1.116651e-08)
(-1.1497698e-06 5.3089209e-06 -7.2657079e-22 1.1452732e-06 7.1511776e-21 4.4966368e-09)
(-1.5890181e-06 5.1638897e-06 8.3172457e-22 1.5666533e-06 -4.8452368e-21 2.236476e-08)
(-3.7959737e-06 8.9029045e-06 -6.8942803e-22 3.7725189e-06 2.2953279e-21 2.3454845e-08)
(-6.6330202e-06 1.196185e-05 -2.0416525e-21 6.596252e-06 7.0166713e-21 3.6768156e-08)
(-1.1276331e-05 1.6285403e-05 1.1855045e-21 1.1234596e-05 -2.2195591e-21 4.1735156e-08)
(-1.6800918e-05 1.9961826e-05 2.9294563e-21 1.6747124e-05 -7.4369173e-21 5.3794343e-08)
(-2.4025277e-05 2.3891035e-05 8.1989782e-22 2.3962294e-05 -3.0746756e-21 6.2983215e-08)
(-3.2273635e-05 2.7156698e-05 -1.8349546e-21 3.2196415e-05 4.3273703e-21 7.7220236e-08)
(-4.2020908e-05 3.0115789e-05 -1.204938e-22 4.1928267e-05 5.4875443e-22 9.2640302e-08)
(-5.2948386e-05 3.2431746e-05 -5.7998881e-21 5.2835071e-05 1.1392293e-20 1.1331542e-07)
(-6.5722669e-05 3.4608471e-05 -1.0218695e-20 6.5582362e-05 1.6024285e-20 1.4030633e-07)
(-7.9836757e-05 3.66116e-05 -6.1046245e-21 7.9660728e-05 1.0231229e-20 1.7602958e-07)
(-9.4675221e-05 3.8323504e-05 -5.3269596e-21 9.445372e-05 6.9779465e-21 2.2150076e-07)
(-0.00011011087 3.9869965e-05 1.2930534e-21 0.00010983285 -3.3972788e-21 2.7801788e-07)
(-0.00012581082 4.1344954e-05 5.9694015e-21 0.00012546555 -7.0762626e-21 3.4527786e-07)
(-0.00014169755 4.2937327e-05 -1.1932384e-20 0.00014127272 1.4419761e-20 4.2482765e-07)
(-0.00015734192 4.4755958e-05 -3.4208437e-22 0.00015682769 1.2721111e-21 5.1423667e-07)
(-0.00017277703 4.7041675e-05 9.3646659e-21 0.00017216134 -9.5813107e-21 6.156984e-07)
(-0.00018695818 4.9696919e-05 -4.9343502e-21 0.00018623828 6.5711893e-21 7.1989587e-07)
(-0.00019931558 5.2185758e-05 2.3061618e-21 0.00019849313 -1.5605749e-21 8.224475e-07)
(-0.00020972509 5.3909421e-05 3.5575867e-21 0.0002088117 -3.9716014e-21 9.1338948e-07)
(-0.00021976753 5.4775496e-05 -1.1456142e-20 0.00021876306 1.7115732e-20 1.0044667e-06)
(-0.00023025953 5.5364257e-05 -1.3149975e-21 0.00022916121 1.3133076e-21 1.0983188e-06)
(-0.00024060824 5.5379133e-05 -2.1892341e-21 0.00023941249 5.6312137e-21 1.1957577e-06)
(-0.00025169683 5.4950775e-05 -5.3986108e-21 0.00025039557 7.3393656e-21 1.3012524e-06)
(-0.00026359183 5.4046187e-05 8.6732758e-22 0.00026217425 -2.9170052e-21 1.417575e-06)
(-0.00027735552 5.2841654e-05 3.5065237e-21 0.0002757981 3.8231297e-22 1.5574256e-06)
(-0.00029327911 5.1279259e-05 1.9981859e-21 0.00029155369 -2.9967427e-21 1.725419e-06)
(-0.00031538283 5.046487e-05 9.4108209e-22 0.00031340442 2.7313615e-21 1.9784043e-06)
(-0.00034540337 5.3275051e-05 -2.0814846e-21 0.00034304452 3.9342274e-21 2.358845e-06)
(-0.0003809295 6.1100214e-05 -9.8699795e-22 0.00037804664 -1.318424e-21 2.882862e-06)
(-0.0004229626 7.5706336e-05 4.094251e-22 0.00041936261 1.4240427e-21 3.599989e-06)
(-0.00047241378 9.9734955e-05 1.7364833e-21 0.00046782695 6.0794852e-22 4.5868351e-06)
(-0.00053213923 0.00013799583 -8.4799415e-21 0.00052612688 2.8303e-21 6.012352e-06)
(-0.00060080145 0.00019709426 8.6490225e-21 0.0005927538 -3.0536306e-22 8.0476503e-06)
(-0.00067867046 0.00028957816 1.2438396e-20 0.00066756288 -5.5259993e-21 1.1107583e-05)
(-0.00074322415 0.00042496172 6.21298e-21 0.00072806894 -1.1475016e-20 1.5155208e-05)
(-0.00076678704 0.00061077489 -4.1539985e-21 0.00074657444 1.0008713e-20 2.0212598e-05)
(-0.0006649403 0.00078616633 1.1298641e-20 0.00064224865 -1.1819195e-20 2.269165e-05)
(-0.00046337521 0.00085098916 3.3059594e-21 0.00044275989 -1.5653636e-21 2.0615321e-05)
(-0.00025079662 0.00076128038 2.657039e-21 0.00023649186 -1.3304568e-20 1.4304764e-05)
(-0.00011083751 0.0006276993 -7.2476078e-22 0.00010154413 1.3526913e-21 9.2933852e-06)
(-3.1083286e-05 0.00043397289 5.0282241e-23 2.6918641e-05 -6.5394304e-22 4.1646445e-06)
(-5.2495624e-06 0.00037712091 7.6784935e-26 1.7729722e-06 -1.1415285e-23 3.4765902e-06)
(2.023967e-06 0.0002147333 7.2895489e-24 -2.7960124e-06 -2.6373495e-22 7.7204534e-07)
(-1.8771232e-05 0.0012143192 1.4052661e-22 -1.4307952e-05 -1.5363787e-21 3.3079184e-05)
(-6.0801955e-06 0.0010530495 1.3688657e-23 -1.9635415e-05 -1.1310003e-22 2.5715611e-05)
(5.7611857e-05 0.0013773971 1.300929e-22 -9.9417071e-05 -2.8975114e-21 4.1805213e-05)
(0.00014805248 0.0011366025 -2.2256161e-21 -0.00017807899 1.0525478e-21 3.002651e-05)
(0.00024199991 0.00089880748 -7.8470969e-22 -0.00026127904 9.7072533e-22 1.9279125e-05)
(0.00015230693 0.00036408056 7.1717056e-21 -0.00015585913 2.039048e-20 3.5521982e-06)
(-6.6958459e-05 -4.4874068e-05 3.0394636e-21 6.6897618e-05 1.120212e-20 6.0840762e-08)
(-0.00031709537 -0.00024314285 -1.1267679e-20 0.00031357631 -1.8792291e-20 3.5190552e-06)
(-0.00035939366 -0.00020582236 -4.3600252e-21 0.00035566755 -4.9374086e-21 3.7261106e-06)
(-0.00035963275 -0.00015479162 5.1941578e-21 0.0003562727 1.0914018e-20 3.3600488e-06)
(-0.00033390213 -0.00011101255 2.7869645e-20 0.00033119716 3.4966463e-20 2.7049641e-06)
(-0.00030887899 -8.1252059e-05 -3.6549076e-21 0.00030664466 2.7396559e-22 2.2343372e-06)
(-0.0002865549 -6.1337117e-05 3.1797157e-20 0.00028467683 4.6870357e-20 1.8780692e-06)
(-0.00027011401 -4.899118e-05 -1.5262107e-21 0.00026846331 -1.6665601e-21 1.6507019e-06)
(-0.00025564975 -4.1579586e-05 -5.9327646e-22 0.00025418133 -6.9010469e-21 1.4684157e-06)
(-0.00024231015 -3.7957267e-05 3.700955e-20 0.00024099146 3.9503685e-20 1.3186882e-06)
(-0.00022936482 -3.7256483e-05 2.0929777e-20 0.00022817952 2.5742784e-20 1.1853011e-06)
(-0.000219984 -3.8915893e-05 -4.0758712e-21 0.00021888665 1.4098828e-21 1.0973477e-06)
(-0.00021465111 -4.1205186e-05 9.374575e-21 0.00021359888 1.3880592e-20 1.052237e-06)
(-0.00021196069 -4.3623382e-05 2.5626159e-20 0.00021092664 3.0567207e-20 1.0340444e-06)
(-0.00021194547 -4.6237823e-05 6.6105291e-21 0.00021090468 1.1998745e-20 1.0407891e-06)
(-0.0002152724 -4.9276818e-05 -1.3570963e-20 0.00021419173 -1.7540424e-20 1.0806632e-06)
(-0.00022190813 -5.2806133e-05 3.7193959e-20 0.00022075359 3.9234709e-20 1.1545422e-06)
(-0.00023234522 -5.7033556e-05 -4.57997e-21 0.00023107432 -3.1766582e-21 1.2709008e-06)
(-0.00024643655 -6.1911973e-05 2.0314669e-20 0.00024500226 2.6810122e-20 1.4342841e-06)
(-0.00026401665 -6.7490944e-05 2.1711011e-20 0.00026236846 2.9424945e-20 1.6481872e-06)
(-0.00028352026 -7.3425316e-05 -2.1688402e-20 0.00028161774 -3.4943031e-20 1.9025205e-06)
(-0.00030282675 -8.0217105e-05 -3.5806439e-20 0.00030065142 -5.0331581e-20 2.1753287e-06)
(-0.00032196004 -8.9002128e-05 5.172154e-21 0.00031948884 1.1752151e-20 2.4712073e-06)
(-0.00034086351 -0.00010030336 -3.9527488e-20 0.00033806904 -4.8864934e-20 2.7944774e-06)
(-0.00035882178 -0.00011446238 -8.5333164e-21 0.00035568371 -4.8780403e-21 3.1380761e-06)
(-0.00037507486 -0.00013182992 -1.0166424e-20 0.00037157973 -1.5900141e-20 3.495126e-06)
(-0.00038859691 -0.00015270349 -2.7142833e-20 0.00038474342 -3.0468144e-20 3.8534884e-06)
(-0.00039812164 -0.00017726888 -2.7086315e-20 0.00039392356 -3.1744644e-20 4.1980773e-06)
(-0.00040251004 -0.00020573541 -6.0309631e-21 0.00039799227 -1.3005184e-20 4.5177626e-06)
(-0.0004016038 -0.00023840885 -2.3346498e-20 0.000396778 -3.9295117e-20 4.8258008e-06)
(-0.00039673115 -0.00027545357 2.0269195e-20 0.00039156967 3.3085326e-20 5.1614807e-06)
(-0.00038689784 -0.00031480473 2.0011111e-20 0.00038138748 3.1454404e-20 5.5103577e-06)
(-0.00037017637 -0.00035473892 1.7420016e-21 0.00036435203 7.1333904e-21 5.8243446e-06)
(-0.00034569828 -0.00039364609 1.2133546e-20 0.00033960862 1.3439674e-20 6.0896565e-06)
(-0.00031367831 -0.00043054107 -3.9534178e-21 0.00030738134 -3.9606056e-21 6.2969749e-06)
(-0.00027334122 -0.00046218587 -2.5680607e-22 0.00026692553 6.3084778e-21 6.415686e-06)
(-0.00022717548 -0.00049026679 -5.4604844e-22 0.00022068814 6.8682117e-22 6.4873367e-06)
(-0.00017467914 -0.00050888259 -2.5291264e-21 0.0001682071 -8.2002506e-21 6.4720346e-06)
(-0.00012142241 -0.00053158874 1.5003557e-21 0.00011482489 1.0926378e-20 6.5975253e-06)
(-6.7929349e-05 -0.00054873147 -9.1784686e-22 6.1004561e-05 -4.770214e-21 6.9247876e-06)
(-2.4355575e-05 -0.0006416728 -2.7021032e-23 1.5212797e-05 5.3706347e-23 9.1427781e-06)
(-1.6992865e-05 -0.00076520807 3.9080805e-24 3.8030868e-06 -2.9887129e-25 1.3189778e-05)
(-1.5089574e-05 -0.00083780278 9.6154314e-26 -6.1221481e-07 1.4687879e-24 1.5701788e-05)
(-1.4833253e-05 -0.00090048075 1.9699216e-25 -3.3593194e-06 -1.8365126e-24 1.8192572e-05)
(-1.4384636e-05 -0.00094363217 7.7370643e-26 -5.5577433e-06 7.5112781e-25 1.9942379e-05)
(-1.4294351e-05 -0.00097971718 3.578412e-27 -7.2225869e-06 9.9463103e-25 2.1516938e-05)
(-1.4093345e-05 -0.0010056213 -4.5739705e-25 -8.5626017e-06 -2.4215587e-24 2.2655947e-05)
(-1.3976947e-05 -0.0010262241 7.0545233e-25 -9.6249388e-06 1.8000327e-24 2.3601885e-05)
(-1.3779653e-05 -0.0010405029 -4.4692758e-25 -1.0477843e-05 -1.1923917e-24 2.4257496e-05)
(-1.3584369e-05 -0.0010506173 -1.8326508e-25 -1.115022e-05 1.9456239e-24 2.473459e-05)
(-1.333102e-05 -0.0010563534 2.458602e-25 -1.1671803e-05 -5.2638038e-25 2.5002823e-05)
(-1.3057597e-05 -0.0010587975 1.9054093e-25 -1.2062159e-05 -3.6108991e-26 2.5119755e-05)
(-1.2736803e-05 -0.0010580387 -2.6918981e-25 -1.2345578e-05 -1.9259883e-24 2.5082382e-05)
(-1.23797e-05 -0.0010545469 1.093851e-25 -1.2537543e-05 2.3359624e-24 2.4917243e-05)
(-1.1982987e-05 -0.0010484405 -3.7630908e-25 -1.2645588e-05 -8.5088942e-25 2.4628575e-05)
(-1.1558326e-05 -0.001040068 3.5840883e-25 -1.2678148e-05 -1.015613e-24 2.4236474e-05)
(-1.1105243e-05 -0.0010295806 -7.583453e-26 -1.2644139e-05 2.1971186e-25 2.3749382e-05)
(-1.0630365e-05 -0.0010172174 6.8495561e-26 -1.255152e-05 5.5570837e-25 2.3181885e-05)
(-1.0135457e-05 -0.0010031229 6.9884852e-26 -1.2407718e-05 9.4888668e-25 2.2543175e-05)
(-9.6260308e-06 -0.00098747422 -4.9386709e-25 -1.2218619e-05 -9.0651944e-25 2.184465e-05)
(-9.1056286e-06 -0.00097041201 5.9744503e-25 -1.1989924e-05 -4.8460017e-25 2.1095552e-05)
(-8.578315e-06 -0.00095208737 -6.0065545e-25 -1.1727332e-05 7.1703702e-25 2.0305647e-05)
(-8.0469481e-06 -0.00093262295 2.0866069e-25 -1.1436211e-05 -2.555016e-25 1.9483159e-05)
(-7.515212e-06 -0.00091214475 2.8255843e-25 -1.1121009e-05 6.7258718e-25 1.8636221e-05)
(-6.9860273e-06 -0.00089076466 -1.8618726e-25 -1.0786108e-05 -9.7280574e-25 1.7772135e-05)
(-6.4624047e-06 -0.00086859393 2.8176338e-26 -1.0435359e-05 4.9866676e-25 1.6897764e-05)
(-5.9466392e-06 -0.00084573262 2.0897361e-26 -1.0072702e-05 -3.2076716e-25 1.6019341e-05)
(-5.4408179e-06 -0.00082227732 1.3261173e-25 -9.7016296e-06 1.0591242e-25 1.5142447e-05)
(-4.9471865e-06 -0.00079830915 -1.6930609e-25 -9.3247816e-06 6.4511881e-26 1.4271968e-05)
(-4.469307e-06 -0.00077392303 -1.5905389e-25 -8.9434236e-06 -1.2489566e-25 1.3412731e-05)
(-4.0077659e-06 -0.0007492178 1.2185723e-25 -8.5617676e-06 8.4906602e-26 1.2569533e-05)
(-3.5618816e-06 -0.00072425687 -5.497852e-26 -8.1835119e-06 1.11707e-26 1.1745393e-05)
(-3.1335212e-06 -0.00069909128 9.9434664e-26 -7.8093182e-06 -7.7584294e-27 1.0942839e-05)
(-2.7246274e-06 -0.00067379723 -1.3068836e-25 -7.4401767e-06 8.2281375e-27 1.0164804e-05)
(-2.3350737e-06 -0.00064843418 2.5652415e-25 -7.0784252e-06 6.2334081e-27 9.4134989e-06)
(-1.9655203e-06 -0.00062305421 -1.2755623e-25 -6.7250378e-06 8.3372947e-27 8.6905581e-06)
(-1.6163876e-06 -0.00059771168 1.1671428e-26 -6.3811248e-06 1.6494312e-26 7.9975124e-06)
(-1.2873073e-06 -0.00057245442 -1.1346489e-25 -6.0481546e-06 -9.5545233e-26 7.3354619e-06)
(-9.7856882e-07 -0.00054731717 9.142419e-26 -5.7263991e-06 6.43563e-26 6.7049679e-06)
(-6.9020767e-07 -0.00052234583 -4.4367155e-26 -5.4164575e-06 -1.0457976e-25 6.1066652e-06)
(-4.2148848e-07 -0.00049757302 1.6364999e-26 -5.119296e-06 9.3833311e-26 5.5407845e-06)
(-1.7237922e-07 -0.00047302721 1.9244183e-26 -4.8348018e-06 -1.0784941e-25 5.007181e-06)
(5.7698928e-08 -0.00044873791 1.6478078e-26 -4.5634794e-06 1.3686359e-25 4.5057805e-06)
(2.6916524e-07 -0.00042472951 -4.3718505e-26 -4.3053097e-06 -3.4366788e-25 4.0361445e-06)
(4.623728e-07 -0.00040102394 -2.7725718e-26 -4.0601466e-06 1.652439e-25 3.5977738e-06)
(6.381019e-07 -0.00037764406 2.0351897e-26 -3.8282061e-06 6.4171822e-26 3.1901042e-06)
(7.9704528e-07 -0.00035460176 2.0976202e-26 -3.6093161e-06 -8.8920564e-27 2.8122708e-06)
(9.3964466e-07 -0.00033191402 -1.8176142e-26 -3.4031509e-06 3.0305895e-26 2.4635063e-06)
(1.0665745e-06 -0.00030959622 -3.9916973e-27 -3.2094946e-06 -1.7004168e-26 2.1429201e-06)
(1.1784756e-06 -0.00028765699 1.1755285e-26 -3.0280104e-06 -1.3717136e-26 1.8495348e-06)
(1.2761137e-06 -0.0002661086 -6.9063812e-27 -2.858462e-06 -6.0434693e-27 1.5823484e-06)
(1.3603125e-06 -0.00024495833 2.2826271e-27 -2.7006579e-06 -2.3214624e-26 1.3403454e-06)
(1.4314468e-06 -0.00022421032 2.5415733e-27 -2.5538396e-06 6.000955e-27 1.1223929e-06)
(1.4902214e-06 -0.00020387359 1.9158014e-27 -2.4177078e-06 -8.5200659e-28 9.2748638e-07)
(1.537391e-06 -0.00018395366 1.3419047e-27 -2.2919124e-06 -1.2736606e-26 7.5452137e-07)
(1.5737857e-06 -0.00016445189 8.281992e-28 -2.1762012e-06 1.8984727e-26 6.024155e-07)
(1.5997634e-06 -0.00014536924 -3.5317794e-28 -2.0698189e-06 -4.1823276e-26 4.7005542e-07)
(1.6155435e-06 -0.00012671469 -1.8180748e-27 -1.9719789e-06 3.1108766e-27 3.5643533e-07)
(1.6216282e-06 -0.00010849173 4.1398155e-27 -1.8821123e-06 -5.5327579e-26 2.604841e-07)
(1.6179061e-06 -9.0711268e-05 -6.2107953e-27 -1.7991186e-06 1.5141712e-25 1.8121246e-07)
(1.6040872e-06 -7.3392901e-05 -3.6384432e-28 -1.7216831e-06 -1.3968542e-25 1.1759588e-07)
(1.5816258e-06 -5.6556431e-05 8.7458606e-27 -1.6502709e-06 1.29484e-26 6.8645073e-08)