/*--------------------------------*- C++ -*----------------------------------*\
| =========                 |                                                 |
| \\      /  F ield         | OpenFOAM: The Open Source CFD Toolbox           |
|  \\    /   O peration     | Version:  2.4.0                                 |
|   \\  /    A nd           | Web:      www.OpenFOAM.org                      |
|    \\/     M anipulation  |                                                 |
\*---------------------------------------------------------------------------*/
FoamFile
{
    version     2.0;
    format      ascii;
    class       volVectorField;
    location    "8426";
    object      U;
}
// * * * * * * * * * * * * * * * * * * * * * * * * * * * * * * * * * * * * * //

dimensions      [0 1 -1 0 0 0 0];

internalField   nonuniform List<vector> 
32000
(
(0.01367321 6.5282606e-05 -9.1142286e-21)
(0.010139698 -6.1380164e-06 -1.1902384e-21)
(0.016495592 -0.00044636801 -3.0298943e-21)
(0.012249304 -0.00096196475 -8.3541083e-20)
(0.0098128312 -0.0014851399 2.263816e-19)
(0.0024462204 -0.00063595221 7.8348051e-19)
(-0.0026123008 0.00088823518 -2.7072941e-19)
(-0.0054725128 0.0025677411 -1.4981541e-19)
(-0.0051110645 0.0029195342 -1.1918495e-18)
(-0.0046614794 0.0030408677 5.8996835e-19)
(-0.0040591904 0.0029109111 5.8520348e-19)
(-0.0035891298 0.0027530139 1.2470831e-18)
(-0.0032127964 0.0025856859 1.205727e-18)
(-0.0029451279 0.0024476817 6.9794844e-19)
(-0.0027196053 0.0023037209 -5.6079726e-21)
(-0.0025202382 0.0021493741 3.4912523e-19)
(-0.0023332542 0.0019803182 4.8615015e-20)
(-0.0021943261 0.001836401 -2.8050363e-19)
(-0.0021037241 0.0017345968 -3.1500133e-19)
(-0.0020417776 0.0016608671 -4.6687497e-19)
(-0.0020072423 0.0016129448 -2.9066909e-19)
(-0.0020065775 0.0015949628 2.6922491e-19)
(-0.0020376734 0.0016045414 1.0055595e-18)
(-0.0021051395 0.0016443444 -2.8946356e-19)
(-0.0022064791 0.0017124161 -3.8219482e-19)
(-0.0023407435 0.0018074015 9.936238e-19)
(-0.0024917351 0.0019169121 -5.4983617e-19)
(-0.0026390821 0.0020183827 -6.0477871e-19)
(-0.0027872146 0.0021076316 4.8885645e-19)
(-0.0029383056 0.0021836618 -1.1601363e-18)
(-0.0030881587 0.0022410716 1.4195415e-19)
(-0.0032333833 0.0022751454 -7.8473314e-19)
(-0.0033689834 0.0022802883 -1.0466183e-18)
(-0.0034884112 0.0022503862 6.1619733e-19)
(-0.003587511 0.0021813294 1.189856e-18)
(-0.003673456 0.0020778134 -5.3401597e-19)
(-0.0037706457 0.0019587299 1.8243361e-19)
(-0.0038691295 0.0018263686 4.2936778e-19)
(-0.0039519099 0.001673563 -6.4593659e-19)
(-0.0040107657 0.0014990629 2.205139e-19)
(-0.0040513952 0.0013084193 1.865374e-19)
(-0.0040466691 0.0010971941 6.2952981e-19)
(-0.0040388247 0.00088153676 1.9074211e-19)
(-0.0039562879 0.00065086346 -4.7590202e-20)
(-0.0039679375 0.00043622251 3.0442004e-19)
(-0.0038835132 0.00021252569 1.057384e-20)
(-0.0046717998 3.3194406e-05 -4.4220709e-21)
(-0.0058502979 3.039388e-06 2.8605378e-24)
(-0.0064786404 2.863042e-06 -3.4655116e-23)
(-0.0070617296 2.669474e-06 3.5267848e-23)
(-0.0074495791 2.6871685e-06 -2.0610155e-23)
(-0.007790393 2.6039475e-06 5.3888543e-24)
(-0.0080328424 2.6060113e-06 3.288274e-23)
(-0.008234918 2.5505528e-06 -1.958198e-23)
(-0.008377985 2.5252045e-06 3.0752201e-25)
(-0.0084871277 2.4685988e-06 -6.6770757e-24)
(-0.0085564869 2.4212524e-06 6.746205e-24)
(-0.0085981226 2.3571092e-06 -2.2301303e-23)
(-0.0086111019 2.2930773e-06 1.1836391e-24)
(-0.0086009374 2.217009e-06 1.9978828e-23)
(-0.0085677074 2.1377295e-06 -5.2339273e-24)
(-0.008514906 2.0519918e-06 3.2403416e-24)
(-0.0084435203 1.9633264e-06 5.8093664e-24)
(-0.0083558261 1.8707857e-06 5.0898099e-26)
(-0.0082529267 1.7757393e-06 4.7378672e-24)
(-0.0081364264 1.6786479e-06 4.1358423e-24)
(-0.0080074807 1.5802171e-06 -6.6535563e-24)
(-0.0078674413 1.4814104e-06 2.7953059e-24)
(-0.0077173372 1.3821254e-06 -9.3765439e-24)
(-0.0075582745 1.2836032e-06 3.4419386e-25)
(-0.0073912063 1.1855146e-06 -8.7989618e-25)
(-0.0072171084 1.0891942e-06 1.4929478e-24)
(-0.0070368367 9.9393613e-07 -6.3176342e-25)
(-0.006851236 9.0107328e-07 3.9037399e-25)
(-0.0066610089 8.0993933e-07 1.71822e-24)
(-0.0064669863 7.2230955e-07 1.0607432e-24)
(-0.00627003 6.3704227e-07 -9.7499494e-25)
(-0.0060706705 5.5479995e-07 1.4965305e-25)
(-0.0058693753 4.7512694e-07 -3.1852665e-25)
(-0.0056667975 3.9910113e-07 4.7350996e-26)
(-0.0054634597 3.2595736e-07 2.6562531e-26)
(-0.0052597978 2.5637985e-07 1.3037258e-24)
(-0.0050563085 1.9004035e-07 -8.9957527e-25)
(-0.0048533969 1.2711024e-07 -3.308245e-25)
(-0.0046513471 6.719212e-08 -3.1603053e-25)
(-0.0044505881 1.0849525e-08 1.626552e-24)
(-0.0042513815 -4.2874311e-08 -9.7207981e-25)
(-0.0040539737 -9.3102639e-08 -1.1835845e-24)
(-0.0038586294 -1.4075968e-07 5.8986876e-25)
(-0.0036655458 -1.8535418e-07 -2.9619266e-25)
(-0.0034749188 -2.2707037e-07 -3.2453092e-25)
(-0.0032869448 -2.6620123e-07 1.4484144e-24)
(-0.003101716 -3.0264149e-07 -1.3583651e-24)
(-0.0029193872 -3.3671274e-07 2.7949782e-24)
(-0.0027400826 -3.6824008e-07 -3.4269513e-25)
(-0.0025638723 -3.9767359e-07 -2.6077872e-25)
(-0.0023908699 -4.2471086e-07 2.5543298e-26)
(-0.0022211261 -4.4996113e-07 -3.0841131e-25)
(-0.0020546725 -4.7301202e-07 -5.3837639e-25)
(-0.0018915912 -4.9427207e-07 4.2931671e-26)
(-0.0017319218 -5.1358594e-07 1.259596e-25)
(-0.0015756709 -5.3151965e-07 2.9942963e-25)
(-0.0014228362 -5.4767698e-07 -1.1992256e-24)
(-0.0012734814 -5.6232175e-07 -2.7574079e-25)
(-0.0011276302 -5.7537242e-07 -7.1014255e-25)
(-0.00098533972 -5.8687283e-07 -1.7517832e-25)
(-0.00084677426 -5.9630699e-07 -6.5778507e-26)
(-0.00071211231 -6.0440476e-07 2.1031732e-24)
(-0.00058137443 -6.1100265e-07 2.7433527e-24)
(-0.0004546887 -6.1665132e-07 -1.538579e-25)
(-0.00033192227 -6.2137328e-07 -6.8891259e-24)
(-0.00021310805 -6.2541905e-07 -2.2823816e-26)
(-9.8158986e-05 -6.2874048e-07 -6.0322008e-25)
(1.2999617e-05 -6.3166977e-07 6.2020324e-24)
(0.00012043625 -6.3395553e-07 -2.978674e-25)
(0.00022419816 -6.3591708e-07 -5.3206223e-25)
(0.0003243278 -6.3718675e-07 -7.0993584e-24)
(0.00042078508 -6.3794934e-07 6.3870082e-24)
(0.00051360212 -6.3831995e-07 6.4055138e-24)
(0.00060278278 -6.3828521e-07 -7.34455e-24)
(0.00068828623 -6.3776535e-07 -2.7668108e-25)
(0.00077011185 -6.3703963e-07 6.7573822e-24)
(0.00084825997 -6.3596127e-07 -1.9713568e-25)
(0.00092265589 -6.345801e-07 -3.0097615e-25)
(0.00099329341 -6.3308646e-07 -8.831844e-24)
(0.0010601272 -6.3131584e-07 2.8394529e-25)
(0.0011230867 -6.2937259e-07 -9.4220758e-25)
(0.0011820957 -6.2736385e-07 -4.3824271e-25)
(0.0012371284 -6.2527791e-07 -3.4476107e-25)
(0.0012880061 -6.2293672e-07 -3.5047685e-25)
(0.0013347108 -6.2081583e-07 1.5303225e-23)
(0.0013770245 -6.1839711e-07 -1.678004e-23)
(0.0014149166 -6.1624702e-07 1.6379315e-23)
(0.0014480327 -6.1370454e-07 -9.059186e-24)
(0.0014764561 -6.1175224e-07 8.5247827e-24)
(0.0014995491 -6.0899556e-07 -6.327058e-17)
(0.0015176243 -6.074443e-07 -6.3980586e-17)
(0.001529563 -6.0427666e-07 -9.3378484e-24)
(0.0015361663 -6.0351469e-07 6.5148136e-17)
(0.0015354404 -5.9977122e-07 6.5869988e-17)
(0.0015293762 -6.0048217e-07 3.5630724e-23)
(0.0015139023 -5.9410924e-07 -9.1216162e-24)
(0.0014929501 -5.9621922e-07 1.7381987e-23)
(0.0014587729 -5.8524869e-07 -9.2197781e-24)
(0.0014202287 -5.9220641e-07 -1.9871494e-23)
(0.0013622925 -5.7277619e-07 3.7437557e-23)
(0.0013034485 -5.8844513e-07 -2.9265837e-23)
(0.0012136629 -5.5163576e-07 3.8411103e-23)
(0.0011314329 -5.8410915e-07 -6.9262735e-23)
(0.00099625356 -5.102108e-07 3.8896196e-23)
(0.0008862305 -5.713692e-07 9.2174625e-24)
(0.00067982663 -4.2043922e-07 -2.441306e-25)
(0.00053381686 -5.1692787e-07 -2.5451147e-25)
(0.00019735641 1.3181336e-06 -4.3931521e-21)
(-7.0735737e-05 -3.6644968e-06 -3.1093086e-19)
(-4.2166748e-05 -3.2087216e-06 -4.7948382e-20)
(-4.3849972e-05 -4.739817e-06 9.7549419e-20)
(6.6272107e-05 1.8058484e-05 -8.0783804e-20)
(0.00016489481 4.9310205e-05 4.8493932e-19)
(0.00031936251 0.00010860886 3.6176685e-19)
(0.00047605043 0.00018429851 -7.3261015e-19)
(0.00067331916 0.00029220097 1.5906463e-19)
(0.00088407046 0.00042494137 3.0596881e-19)
(0.0011292479 0.00059430937 2.9156782e-19)
(0.001399494 0.00079888454 -9.9799789e-19)
(0.0017219925 0.0010541468 -4.5025829e-19)
(0.002086601 0.0013519489 -1.0079459e-19)
(0.0024779226 0.0016809906 -1.1235632e-18)
(0.0028954953 0.0020383988 -1.067098e-18)
(0.0033319144 0.0024154797 6.0224068e-19)
(0.003787472 0.0028081777 -1.0686167e-18)
(0.0042507361 0.0032033776 -1.7703356e-20)
(0.0047252095 0.0035980219 1.35666e-18)
(0.0051794353 0.0039640765 -6.6450731e-19)
(0.0055918924 0.0042927936 2.166239e-19)
(0.0059526021 0.0045891177 5.6968001e-19)
(0.0063086156 0.0048993715 -1.2994205e-18)
(0.0066897672 0.005238106 -1.0769789e-19)
(0.0070734158 0.0055926095 -8.2931461e-19)
(0.0074912593 0.0059897617 -9.3802551e-20)
(0.0079451611 0.0064336936 -1.9185097e-20)
(0.0084745323 0.0069576898 3.0990549e-19)
(0.0090883993 0.0075753597 3.9358175e-19)
(0.0099375391 0.0084002171 7.6648063e-20)
(0.011104792 0.0094299761 -2.757651e-19)
(0.012512789 0.010550492 -3.184707e-20)
(0.014223863 0.011764695 -4.2078584e-20)
(0.016305694 0.013058588 1.866814e-19)
(0.018943847 0.014463649 -9.3650602e-20)
(0.022213047 0.015864912 -2.1591677e-19)
(0.026441782 0.017192731 -8.3193233e-19)
(0.031196369 0.017779965 9.0352851e-19)
(0.036300823 0.017102386 -5.9577842e-19)
(0.038180194 0.013577468 6.6147341e-19)
(0.035374214 0.0086553882 -1.6078284e-20)
(0.02817953 0.0042818964 2.8517449e-19)
(0.021759843 0.0017231854 1.2043891e-19)
(0.013647653 0.000396758 -1.2806921e-20)
(0.012204007 -4.2741062e-06 6.4589707e-22)
(0.0054253436 -2.4904997e-05 1.988917e-21)
(0.041798156 0.00015911214 2.1806017e-20)
(0.032409323 -4.8502653e-05 2.4439033e-21)
(0.049669824 -0.0013639376 7.2619397e-20)
(0.038054105 -0.0029123799 2.297102e-19)
(0.030600165 -0.0045057617 -6.4374764e-20)
(0.0091510697 -0.0020985337 -1.4458124e-18)
(-0.0065123897 0.0024456709 -1.7648041e-19)
(-0.01582075 0.0075969942 5.5060776e-19)
(-0.015129768 0.0087424104 7.4904304e-19)
(-0.013876535 0.0091408762 -3.2339708e-19)
(-0.01213742 0.0087772898 -9.7759252e-19)
(-0.01075987 0.0083178211 -1.5884921e-18)
(-0.0096516512 0.0078244299 -2.4933866e-18)
(-0.0088580742 0.0074137786 -1.7147031e-19)
(-0.0081902244 0.0069837993 4.5065716e-19)
(-0.0076008607 0.0065217144 -1.042726e-18)
(-0.0070509905 0.0060157742 -1.5890595e-18)
(-0.006642721 0.005584239 -1.5391911e-19)
(-0.0063772735 0.0052788158 -8.2554947e-19)
(-0.0061983054 0.0050585494 -5.0492677e-19)
(-0.0061018719 0.0049166428 -1.3985798e-18)
(-0.00610642 0.0048651257 8.0998427e-19)
(-0.006206028 0.0048969759 -1.3113059e-18)
(-0.0064136199 0.0050198011 -3.3476145e-19)
(-0.0067214636 0.0052275337 -5.4766384e-19)
(-0.0071254843 0.0055153937 -3.6023119e-19)
(-0.0075779998 0.005846247 2.1222931e-18)
(-0.0080203272 0.0061530261 2.2780913e-18)
(-0.0084647168 0.0064225448 -9.5387619e-19)
(-0.0089174594 0.0066515125 1.6449724e-18)
(-0.0093665699 0.0068238031 2.7919792e-19)
(-0.0098021975 0.0069252666 2.8174053e-19)
(-0.010210073 0.0069392338 5.8798223e-19)
(-0.010571846 0.0068477015 -6.7057398e-19)
(-0.010876522 0.0066388052 -2.848329e-19)
(-0.01114541 0.0063266468 1.4013089e-18)
(-0.011446898 0.0059662363 -7.7293519e-19)
(-0.011752407 0.0055647219 -4.1734391e-19)
(-0.012013192 0.0051011983 -5.3989601e-20)
(-0.012205647 0.0045721563 1.5691847e-19)
(-0.012344879 0.0039933512 -3.2916831e-19)
(-0.012356931 0.003353074 -8.1677266e-19)
(-0.01235884 0.0026970804 -7.3077715e-20)
(-0.012160293 0.0019980459 8.1299867e-20)
(-0.012233881 0.0013428698 -1.644141e-19)
(-0.012099429 0.00067154288 -1.1123077e-20)
(-0.014436438 0.00013169449 -1.040397e-21)
(-0.017847019 3.2874652e-05 1.7626466e-23)
(-0.019706499 2.3609566e-05 -5.7751782e-23)
(-0.021402744 1.8035618e-05 6.6650521e-23)
(-0.022540393 1.4156266e-05 -1.7359502e-23)
(-0.023528618 1.1015296e-05 -4.6630069e-23)
(-0.024233286 8.682433e-06 3.5488891e-23)
(-0.024814472 6.6476933e-06 -2.4008588e-24)
(-0.025224186 5.0148245e-06 -2.2555697e-24)
(-0.025531968 3.5584412e-06 -7.2546768e-24)
(-0.025723417 2.3356993e-06 3.2343374e-24)
(-0.02583227 1.2437163e-06 -6.4981191e-24)
(-0.025857035 2.8706249e-07 3.9053938e-23)
(-0.025813055 -5.9861281e-07 -4.1542328e-23)
(-0.025701126 -1.3973814e-06 -5.0441653e-24)
(-0.025531241 -2.1260753e-06 3.3953539e-23)
(-0.025306559 -2.7858217e-06 -1.1050604e-23)
(-0.025033663 -3.3877029e-06 6.5542761e-24)
(-0.024715928 -3.9362763e-06 -1.6122273e-23)
(-0.024358051 -4.4348971e-06 5.3434154e-24)
(-0.023963498 -4.8861097e-06 8.357144e-24)
(-0.023536236 -5.2924405e-06 -1.6206927e-24)
(-0.023079336 -5.6594224e-06 -1.1458639e-23)
(-0.022596061 -5.9870097e-06 -2.0653577e-25)
(-0.022089242 -6.2794415e-06 1.4188624e-23)
(-0.021561759 -6.5362829e-06 -1.4046397e-23)
(-0.021016153 -6.7629116e-06 1.2367025e-23)
(-0.020454916 -6.9584587e-06 -7.6082202e-24)
(-0.01988013 -7.1268402e-06 4.0091815e-24)
(-0.019294246 -7.261483e-06 -8.3706887e-25)
(-0.018699808 -7.3713668e-06 -1.143977e-24)
(-0.018098399 -7.4609186e-06 2.3412345e-26)
(-0.017491385 -7.5304598e-06 -2.0265844e-25)
(-0.016880703 -7.5766026e-06 -6.0109917e-25)
(-0.016267893 -7.6053892e-06 1.1266398e-25)
(-0.015654255 -7.6152046e-06 1.0329158e-24)
(-0.01504124 -7.6084288e-06 -1.6923996e-24)
(-0.014430051 -7.5878617e-06 -3.9452058e-26)
(-0.013821542 -7.5539259e-06 -6.4167425e-25)
(-0.013216957 -7.5061151e-06 1.4526995e-24)
(-0.012617087 -7.4495461e-06 1.9405792e-24)
(-0.012022658 -7.381539e-06 -6.9095614e-25)
(-0.011434448 -7.3062447e-06 -2.7209673e-24)
(-0.010853048 -7.2226366e-06 6.8867322e-24)
(-0.010279034 -7.1313561e-06 -5.8611003e-24)
(-0.0097129876 -7.0344619e-06 2.8859109e-24)
(-0.0091551883 -6.9319785e-06 -1.3283322e-24)
(-0.008606088 -6.825045e-06 9.6540929e-25)
(-0.0080660605 -6.7135424e-06 -6.1251682e-26)
(-0.0075353158 -6.5986265e-06 -7.4311298e-26)
(-0.0070141842 -6.4802281e-06 2.2209573e-25)
(-0.0065028242 -6.3605066e-06 9.2083016e-25)
(-0.0060013321 -6.2375311e-06 -9.0032243e-25)
(-0.0055099473 -6.1129877e-06 9.9912904e-26)
(-0.0050287925 -5.9867606e-06 -4.4865015e-25)
(-0.0045578908 -5.8605637e-06 -4.7914244e-25)
(-0.0040972422 -5.7329302e-06 1.4778938e-24)
(-0.0036470447 -5.6036093e-06 -8.8158537e-26)
(-0.0032073728 -5.4720034e-06 -7.0720948e-26)
(-0.002778421 -5.3369619e-06 -3.9529316e-24)
(-0.0023606787 -5.1945724e-06 5.5805608e-24)
(-0.0019546687 -5.048639e-06 -2.3126449e-24)
(-0.0015604428 -4.8996168e-06 5.9377212e-24)
(-0.001178385 -4.750886e-06 -1.2803009e-23)
(-0.00080808747 -4.6033715e-06 1.6728976e-23)
(-0.00044965907 -4.457334e-06 -1.3272648e-23)
(-0.0001028341 -4.3137978e-06 -2.6929108e-24)
(0.00023260617 -4.1734248e-06 1.8314356e-24)
(0.00055687104 -4.0345998e-06 1.2851879e-23)
(0.00087010034 -3.8978096e-06 -7.4022285e-24)
(0.0011724112 -3.7608825e-06 5.3225643e-24)
(0.001463688 -3.6237103e-06 7.1129272e-24)
(0.0017440217 -3.4870025e-06 -1.0449491e-24)
(0.0020134178 -3.3498782e-06 7.4040829e-24)
(0.0022717569 -3.2116811e-06 -2.0464788e-23)
(0.002519034 -3.0735336e-06 1.8476376e-23)
(0.0027552415 -2.9340532e-06 -3.7568302e-23)
(0.0029801613 -2.7928176e-06 7.3660804e-24)
(0.0031937684 -2.6506473e-06 2.1333801e-24)
(0.0033959223 -2.5062991e-06 2.1914214e-24)
(0.0035864122 -2.3592802e-06 7.8042391e-24)
(0.0037650094 -2.2100562e-06 -3.2529e-24)
(0.0039316227 -2.0575304e-06 8.040229e-24)
(0.0040857294 -1.90048e-06 2.4725965e-24)
(0.0042272573 -1.7399975e-06 -3.2826821e-24)
(0.0043555643 -1.5735732e-06 8.3826785e-24)
(0.0044705354 -1.4016845e-06 2.6259203e-24)
(0.0045711366 -1.2221817e-06 2.6763399e-24)
(0.0046575631 -1.0358061e-06 -4.3045474e-23)
(0.0047279732 -8.3830619e-07 5.6669712e-23)
(0.0047831934 -6.3279863e-07 -5.1975114e-23)
(0.0048200127 -4.112819e-07 2.8081951e-23)
(0.0048406162 -1.8175851e-07 2.7223139e-24)
(0.0048393211 6.8258493e-08 9.1258871e-24)
(0.0048216779 3.2823303e-07 2.8876329e-24)
(0.0047760788 6.3229071e-07 -2.3723086e-23)
(0.0047134401 9.4910432e-07 -2.8488294e-23)
(0.0046117704 1.3292193e-06 3.4021513e-23)
(0.0044958283 1.7050873e-06 9.5138113e-24)
(0.0043230485 2.1870304e-06 -3.7615833e-24)
(0.0041452763 2.6429281e-06 -2.2721176e-23)
(0.0038774623 3.285425e-06 2.7600051e-24)
(0.0036278728 3.851422e-06 2.8186646e-24)
(0.0032249915 4.7809569e-06 -1.9011633e-23)
(0.0028890498 5.5483876e-06 2.7020648e-24)
(0.0022748079 7.0332816e-06 -4.4355981e-24)
(0.0018251867 8.3531419e-06 8.186401e-23)
(0.00082400304 1.7391676e-05 2.1182106e-22)
(2.7219295e-05 5.3761906e-06 -1.1572711e-20)
(9.8218694e-05 1.0882579e-05 -6.2041489e-19)
(9.4964916e-05 1.3483406e-05 2.7617614e-19)
(0.0004187808 8.8048382e-05 -4.2384449e-19)
(0.00071456226 0.00018934037 -7.4377551e-19)
(0.0011737354 0.00037397635 -1.3686667e-18)
(0.0016427313 0.00060862119 1.1634226e-18)
(0.0022305863 0.00093929555 1.2383662e-19)
(0.0028600567 0.0013449921 -1.4435264e-18)
(0.0035906516 0.0018601471 -2.6703529e-19)
(0.004396685 0.0024811789 -8.2945029e-19)
(0.0053554621 0.0032530696 1.7883759e-18)
(0.006437515 0.0041516632 -4.2573988e-19)
(0.0075988275 0.0051436681 1.0852787e-18)
(0.0088374649 0.0062201951 9.9824131e-19)
(0.010132312 0.0073555229 -1.2783914e-18)
(0.011483604 0.0085371831 1.727763e-18)
(0.01285931 0.0097266001 -5.4687224e-19)
(0.014268041 0.010913827 -1.8647474e-18)
(0.015619778 0.012016555 2.7577051e-20)
(0.016852118 0.013009509 -5.6109037e-19)
(0.017936848 0.013908234 -2.3668321e-19)
(0.019006436 0.014848368 -2.8295064e-19)
(0.020145424 0.015872012 2.1215859e-19)
(0.021293521 0.016944391 -6.2501182e-19)
(0.022539199 0.018143611 9.2526181e-20)
(0.023891057 0.019483589 3.399502e-19)
(0.025460878 0.021061978 -8.1256609e-19)
(0.027282623 0.022922612 -2.6576704e-19)
(0.029784804 0.025396103 -2.6279768e-19)
(0.033206241 0.028470958 4.53442e-20)
(0.037344528 0.031816458 1.1147876e-19)
(0.042375534 0.035435928 4.2639671e-20)
(0.048501337 0.039286356 1.3770294e-19)
(0.056245395 0.043448933 -7.4471028e-19)
(0.065840022 0.04758213 1.3902631e-18)
(0.078176439 0.0514481 1.6639594e-18)
(0.092076331 0.053103559 -2.4706866e-19)
(0.10688294 0.050976589 1.0635709e-18)
(0.1128012 0.040585915 2.6016422e-18)
(0.10559155 0.026121559 2.1339185e-18)
(0.085755678 0.013169911 2.8227253e-19)
(0.067191363 0.0054320305 -4.8483653e-19)
(0.043851373 0.001343968 -2.1058209e-20)
(0.038636501 5.6744637e-05 -5.8347008e-21)
(0.019398042 -9.1024358e-05 2.0955644e-20)
(0.07160048 0.00020366912 3.374597e-21)
(0.057529227 -0.00013531358 1.3311875e-21)
(0.083992737 -0.0023240899 6.9477938e-21)
(0.066024893 -0.0049533221 -3.8794377e-19)
(0.053270794 -0.0076739191 -3.1849801e-19)
(0.01806323 -0.0039523613 1.3717068e-18)
(-0.0090456082 0.0036046293 7.3442138e-19)
(-0.025829225 0.01247573 2.4959507e-19)
(-0.025245779 0.01458316 4.0256336e-19)
(-0.023279778 0.015318885 2.1023755e-19)
(-0.020443679 0.014764852 -1.8331266e-19)
(-0.018165481 0.014026416 1.0052629e-18)
(-0.016323078 0.013219995 1.8887963e-18)
(-0.014995968 0.012540774 -1.4001869e-19)
(-0.013879287 0.011825836 -1.5473623e-18)
(-0.012894416 0.01105511 -9.173302e-20)
(-0.011978283 0.010212025 8.330243e-19)
(-0.011297755 0.0094919044 1.6990351e-18)
(-0.010856116 0.0089822844 6.4093202e-19)
(-0.010561525 0.0086167707 4.4190858e-20)
(-0.01040686 0.0083841648 1.2277129e-18)
(-0.010422063 0.0083038305 -9.2532077e-19)
(-0.010597593 0.0083642769 -1.4479259e-18)
(-0.010954102 0.0085774599 7.3614326e-19)
(-0.011478224 0.0089327996 2.6300522e-19)
(-0.012161578 0.0094207613 2.2678982e-19)
(-0.012924904 0.0099790576 -1.6838679e-18)
(-0.013672016 0.010496781 -9.616297e-19)
(-0.014422064 0.010950796 8.8849014e-19)
(-0.015185347 0.011335056 2.0138497e-19)
(-0.015942356 0.011622728 8.0676178e-19)
(-0.01667683 0.01179015 -1.6694775e-19)
(-0.017365604 0.0118097 1.0319424e-18)
(-0.017979409 0.011651985 7.0588998e-19)
(-0.018501695 0.011298202 -6.8003664e-19)
(-0.01896829 0.010772154 1.1478017e-19)
(-0.019488435 0.010162618 -4.7571806e-19)
(-0.020015856 0.0094819379 -7.5097474e-19)
(-0.02047152 0.0086962391 4.222228e-19)
(-0.020817278 0.0078001174 -1.4277101e-18)
(-0.021076058 0.0068182394 7.011655e-19)
(-0.021133905 0.0057338941 5.6242416e-19)
(-0.021174478 0.0046186095 1.5308502e-19)
(-0.020912204 0.0034342515 2.1421337e-19)
(-0.021094664 0.0023154905 -1.2020139e-19)
(-0.021040561 0.0011855962 1.237184e-19)
(-0.024934508 0.00027537944 -7.2301397e-21)
(-0.030497557 9.9483914e-05 6.9824912e-23)
(-0.033590747 7.0267111e-05 -1.9451673e-23)
(-0.036369493 5.4025594e-05 -3.3341442e-23)
(-0.038246771 4.1694798e-05 -2.0260592e-24)
(-0.039860646 3.2420087e-05 7.9677741e-24)
(-0.041013684 2.5092155e-05 3.833243e-23)
(-0.041955497 1.9012156e-05 -6.971688e-23)
(-0.042616585 1.3945614e-05 4.9731589e-23)
(-0.04310586 9.5628517e-06 2.0432946e-23)
(-0.04340361 5.8054546e-06 -2.7793077e-23)
(-0.043563136 2.5108643e-06 -1.4417363e-23)
(-0.043583782 -4.085806e-07 1.8984138e-23)
(-0.043489538 -3.0839522e-06 -1.5937152e-24)
(-0.04328271 -5.5056678e-06 2.6127056e-23)
(-0.042979419 -7.7005974e-06 -3.1345932e-23)
(-0.042585259 -9.6884398e-06 7.6940079e-24)
(-0.042110968 -1.1494232e-05 -3.4993524e-24)
(-0.041562316 -1.3136786e-05 -8.5253886e-25)
(-0.040947045 -1.462465e-05 2.7107549e-23)
(-0.040270987 -1.5966688e-05 -3.5553297e-23)
(-0.0395407 -1.7172082e-05 3.4615999e-23)
(-0.038761326 -1.8255238e-05 -1.3254664e-23)
(-0.037938279 -1.9218995e-05 -1.1576303e-23)
(-0.037076289 -2.0073801e-05 7.2385647e-24)
(-0.036180129 -2.0821451e-05 -7.4528337e-25)
(-0.035254041 -2.1474633e-05 -1.0128991e-24)
(-0.03430216 -2.2036093e-05 -3.3517025e-24)
(-0.033327951 -2.2512975e-05 4.7699106e-24)
(-0.032335482 -2.2889753e-05 2.692175e-24)
(-0.031328978 -2.31897e-05 -2.4449556e-24)
(-0.03031109 -2.3429981e-05 2.0648606e-25)
(-0.029284065 -2.3608489e-05 -8.0850652e-25)
(-0.02825113 -2.3718218e-05 -4.6050666e-25)
(-0.027214837 -2.377409e-05 1.6237446e-24)
(-0.026177367 -2.3775005e-05 -1.2402381e-24)
(-0.025141101 -2.3726139e-05 2.5886523e-25)
(-0.024108053 -2.3636313e-05 -3.3717891e-24)
(-0.023079657 -2.3505946e-05 2.5944186e-24)
(-0.022057951 -2.3335933e-05 -2.0508769e-24)
(-0.021044268 -2.3138343e-05 2.1191966e-25)
(-0.020039819 -2.2908707e-05 8.9807523e-25)
(-0.019045884 -2.2655938e-05 1.5134035e-24)
(-0.018063463 -2.2379447e-05 -2.70019e-24)
(-0.017093506 -2.2080664e-05 -3.2180481e-24)
(-0.016136979 -2.1765245e-05 1.4267476e-24)
(-0.015194361 -2.1434339e-05 2.8320467e-24)
(-0.014266392 -2.1089825e-05 -2.1936925e-24)
(-0.013353704 -2.0732728e-05 -1.1568826e-24)
(-0.01245665 -2.0365409e-05 1.9891573e-24)
(-0.011575771 -1.9988974e-05 -1.223944e-24)
(-0.010711343 -1.9608266e-05 1.905536e-25)
(-0.0098635304 -1.921923e-05 4.9220273e-25)
(-0.0090327269 -1.8825325e-05 5.1655818e-25)
(-0.0082191447 -1.8427325e-05 5.3719448e-25)
(-0.0074228269 -1.8029261e-05 3.5919702e-25)
(-0.0066437847 -1.7627813e-05 6.0207854e-25)
(-0.0058823613 -1.7221052e-05 -1.5115678e-24)
(-0.0051386875 -1.6808003e-05 2.8798235e-24)
(-0.0044131253 -1.6383709e-05 -1.5892006e-24)
(-0.003706494 -1.5938351e-05 -3.6670835e-24)
(-0.0030196555 -1.5482374e-05 5.1347435e-24)
(-0.0023526818 -1.5018093e-05 3.197331e-24)
(-0.0017062194 -1.4554692e-05 -6.7109988e-24)
(-0.0010795674 -1.4095902e-05 -7.0016426e-24)
(-0.00047292441 -1.3641316e-05 3.2055701e-24)
(0.00011415974 -1.3195137e-05 3.3890252e-24)
(0.00068203899 -1.2758471e-05 1.1215519e-23)
(0.0012310999 -1.2327566e-05 -7.3500629e-24)
(0.0017615565 -1.1902207e-05 3.6821575e-24)
(0.0022735917 -1.1476894e-05 -7.7018741e-24)
(0.0027670177 -1.1051008e-05 -1.9546919e-23)
(0.0032419794 -1.062662e-05 3.5226363e-24)
(0.0036984774 -1.0200861e-05 3.6051428e-23)
(0.0041363149 -9.7720807e-06 -8.0153266e-24)
(0.0045554786 -9.3431318e-06 7.6652291e-24)
(0.0049559436 -8.9103158e-06 -2.42619e-23)
(0.0053373508 -8.4722801e-06 -8.6864161e-24)
(0.0056996489 -8.0311339e-06 3.2217574e-25)
(0.0060425943 -7.5833407e-06 3.3549746e-23)
(0.0063658333 -7.1271685e-06 -1.2441338e-23)
(0.0066689807 -6.6641349e-06 1.7592876e-23)
(0.0069518629 -6.1905288e-06 -2.2213223e-23)
(0.0072136186 -5.7036393e-06 -2.2710042e-23)
(0.0074540995 -5.2049117e-06 3.1523913e-23)
(0.0076722412 -4.6889584e-06 3.2199544e-23)
(0.0078678164 -4.1544961e-06 -9.2820848e-23)
(0.0080391266 -3.5984391e-06 8.8681641e-23)
(0.00818642 -3.0179498e-06 -2.7619097e-23)
(0.0083066987 -2.4072013e-06 -2.406187e-23)
(0.0084011923 -1.7653063e-06 1.9105897e-23)
(0.0084647054 -1.0822652e-06 -9.9456327e-24)
(0.0085005969 -3.6180414e-07 -3.9710494e-23)
(0.0084997298 4.0440228e-07 1.937859e-23)
(0.0084708325 1.226545e-06 4.9903701e-23)
(0.0083952488 2.1495638e-06 2.0432537e-23)
(0.0082900761 3.1625822e-06 -2.5417536e-23)
(0.0081201075 4.2999064e-06 -7.7056998e-23)
(0.0079243799 5.5281319e-06 2.0228619e-23)
(0.0076348829 6.9381407e-06 -2.6997874e-23)
(0.0073336459 8.4772351e-06 1.0064288e-22)
(0.0068848365 1.0297264e-05 2.1810504e-23)
(0.0064601968 1.2304925e-05 -2.6852218e-23)
(0.0057855324 1.4837372e-05 -3.2143392e-23)
(0.0052110744 1.7718316e-05 -2.8071032e-23)
(0.0041838357 2.16251e-05 2.205768e-23)
(0.0034095028 2.6716822e-05 -2.8803194e-23)
(0.0017354713 4.7660956e-05 1.0811841e-20)
(0.00040483394 3.4770184e-05 8.242051e-20)
(0.00050230283 5.4721778e-05 7.224382e-19)
(0.0004982037 7.4732163e-05 -4.1914004e-19)
(0.0010323143 0.0002133968 1.8522474e-19)
(0.001528324 0.00039896749 1.324779e-18)
(0.0022934813 0.00072232144 2.1011405e-19)
(0.003079748 0.0011306894 -1.7090237e-18)
(0.0040624195 0.0016983373 -2.0608904e-19)
(0.0051172482 0.0023922483 9.4244799e-19)
(0.0063401258 0.0032682108 3.9299125e-19)
(0.0076912769 0.0043215504 5.3356155e-19)
(0.009295605 0.0056247013 1.7442057e-18)
(0.011104913 0.0071379848 1.4060687e-18)
(0.013047839 0.0088069246 -1.1840114e-19)
(0.015120328 0.010616123 -1.6765886e-18)
(0.01728801 0.012523315 -5.1322809e-19)
(0.019550274 0.014507073 1.3201844e-18)
(0.021855693 0.01650446 1.4852737e-19)
(0.024216108 0.018497389 -3.1905671e-19)
(0.026484688 0.020351756 4.8303526e-19)
(0.028559089 0.022026787 -1.2214441e-19)
(0.030394308 0.023549488 -1.6189157e-19)
(0.032203535 0.025140001 1.7185498e-18)
(0.034122852 0.026866138 1.5015027e-19)
(0.036060061 0.028676295 5.2523237e-20)
(0.038156624 0.030695743 1.3398028e-18)
(0.040430913 0.03295071 -5.0275493e-19)
(0.04306421 0.035599703 5.7865819e-20)
(0.046122841 0.038721371 -1.6207592e-19)
(0.050301949 0.042848401 3.5617461e-19)
(0.055989953 0.047954256 4.6835412e-19)
(0.062877676 0.053509708 -1.0887588e-19)
(0.071246643 0.059507898 1.0471436e-19)
(0.0814327 0.065874822 7.6445633e-20)
(0.094272519 0.072719426 1.2680951e-18)
(0.11015628 0.079479921 -1.2094299e-18)
(0.13045378 0.085702731 -2.9635316e-18)
(0.15331225 0.088266159 -1.2600535e-18)
(0.17746451 0.084540013 1.1165896e-18)
(0.18768552 0.06755977 -1.8063946e-18)
(0.17712011 0.043976262 -4.9951893e-19)
(0.14617762 0.022665701 -1.8020828e-18)
(0.11596094 0.0095983802 3.6942247e-19)
(0.078133204 0.0025547403 -1.1190467e-19)
(0.06809853 0.00022322506 -7.024922e-22)
(0.037301211 -0.00017571007 -3.9317899e-20)
(0.10325979 0.00020285192 -5.6958852e-20)
(0.085772028 -0.0002614989 -3.3589811e-21)
(0.11953547 -0.0033321767 -7.3806791e-20)
(0.096304348 -0.0070871841 3.0877807e-19)
(0.077994011 -0.010997475 -9.6481395e-21)
(0.029473463 -0.006218664 -4.7243252e-19)
(-0.0099092753 0.0043205046 4.0553115e-19)
(-0.035338591 0.017176696 -6.6149132e-19)
(-0.035384829 0.020425271 3.9508046e-19)
(-0.032822853 0.021563789 3.6506877e-19)
(-0.028946586 0.02086748 1.6740564e-18)
(-0.025784515 0.019876379 -1.8847678e-18)
(-0.023212304 0.018772563 7.1585641e-19)
(-0.021347801 0.017830446 -2.7742658e-19)
(-0.01977884 0.016832762 2.2694703e-19)
(-0.018395758 0.015753461 2.1020615e-18)
(-0.017113162 0.014574004 1.9032319e-19)
(-0.016160064 0.013565176 -3.5008656e-19)
(-0.015542808 0.012851419 3.890395e-20)
(-0.015135767 0.012342572 1.647536e-18)
(-0.014928214 0.012023198 -8.1860069e-19)
(-0.014960889 0.011919373 -2.3158983e-19)
(-0.0152209 0.012015324 1.4773981e-18)
(-0.015735873 0.012326697 -6.8847636e-19)
(-0.016486358 0.012837957 1.1027676e-18)
(-0.017458285 0.013533384 1.439243e-18)
(-0.018540901 0.014325184 3.5939833e-19)
(-0.019601859 0.015059423 -5.3307104e-19)
(-0.020666183 0.015702032 -4.8246253e-19)
(-0.021748003 0.016243708 -1.1962739e-18)
(-0.022820676 0.016646964 -1.5706467e-19)
(-0.023861674 0.016878586 -5.3966053e-19)
(-0.024839479 0.016900177 -1.2200137e-18)
(-0.025715047 0.016671539 -2.5077801e-18)
(-0.026467824 0.016167821 -8.5272248e-19)
(-0.027148487 0.015422747 -3.8828212e-19)
(-0.027903192 0.014556253 7.5583464e-19)
(-0.028669037 0.013586275 1.0314041e-18)
(-0.029338631 0.012466807 1.9831709e-19)
(-0.029860346 0.011190941 8.7393212e-19)
(-0.03026324 0.0097908956 -5.8222971e-19)
(-0.030401094 0.0082473201 -6.790912e-19)
(-0.030515119 0.0066534582 -6.5358116e-20)
(-0.03025058 0.0049666524 -2.2483127e-19)
(-0.030597713 0.0033608561 2.1877323e-19)
(-0.030767266 0.0017613407 -1.8692668e-19)
(-0.036211878 0.0004677381 1.1095453e-21)
(-0.043824845 0.00020559725 8.4727631e-24)
(-0.04814415 0.00014443699 -8.8846395e-24)
(-0.051963496 0.00011147884 8.2543845e-24)
(-0.054562717 8.5499823e-05 7.9442162e-24)
(-0.056773095 6.6579275e-05 -1.5089693e-23)
(-0.058354959 5.1210514e-05 -4.8919539e-23)
(-0.059633573 3.8732191e-05 6.377056e-23)
(-0.06052635 2.8152997e-05 -4.6457944e-23)
(-0.061175938 1.91199e-05 5.9282873e-23)
(-0.061560745 1.1297682e-05 -1.3646387e-23)
(-0.061751283 4.4906582e-06 -7.4796403e-24)
(-0.061749111 -1.5805653e-06 -2.6756028e-23)
(-0.061585547 -7.1245864e-06 3.7624144e-23)
(-0.061265345 -1.2152562e-05 -3.6234202e-23)
(-0.060810325 -1.6700701e-05 1.9058037e-24)
(-0.060228781 -2.082435e-05 -4.3792657e-24)
(-0.059535414 -2.4566386e-05 2.65003e-23)
(-0.058738505 -2.7970745e-05 1.6078048e-23)
(-0.057848772 -3.1052894e-05 -2.7106842e-23)
(-0.056874456 -3.3831925e-05 -6.6281263e-24)
(-0.055824658 -3.632802e-05 2.1961777e-23)
(-0.054706613 -3.8569354e-05 -2.0543142e-23)
(-0.053527863 -4.0563907e-05 2.3692898e-23)
(-0.052295039 -4.2330901e-05 -1.9190725e-23)
(-0.051014797 -4.3876919e-05 2.5484791e-24)
(-0.049693073 -4.5224762e-05 1.938259e-24)
(-0.048335638 -4.6384153e-05 -4.2897389e-24)
(-0.046947325 -4.7366149e-05 6.3823515e-24)