/*--------------------------------*- C++ -*----------------------------------*\
| =========                 |                                                 |
| \\      /  F ield         | OpenFOAM: The Open Source CFD Toolbox           |
|  \\    /   O peration     | Version:  2.4.0                                 |
|   \\  /    A nd           | Web:      www.OpenFOAM.org                      |
|    \\/     M anipulation  |                                                 |
\*---------------------------------------------------------------------------*/
FoamFile
{
    version     2.0;
    format      ascii;
    class       volScalarField;
    location    "310";
    object      k;
}
// * * * * * * * * * * * * * * * * * * * * * * * * * * * * * * * * * * * * * //

dimensions      [0 2 -2 0 0 0 0];

internalField   nonuniform List<scalar> 
19698
(
4.6032409e-08
4.9083606e-08
5.169592e-08
5.3729567e-08
5.5169656e-08
5.5891834e-08
5.602225e-08
5.5568359e-08
5.533999e-08
5.4738564e-08
5.4407432e-08
5.3275951e-08
5.2251032e-08
5.0893998e-08
4.9351249e-08
4.6900806e-08
4.5234111e-08
4.2546555e-08
4.1366226e-08
3.8787134e-08
3.9649071e-08
3.8799873e-08
4.9534466e-08
7.3848126e-08
9.2421298e-08
1.1140713e-07
1.2701598e-07
1.4286388e-07
1.5494397e-07
1.6613714e-07
1.747259e-07
1.8246926e-07
1.883265e-07
1.9325182e-07
1.9661147e-07
1.9911556e-07
2.0040234e-07
2.0096522e-07
2.0054011e-07
1.9856427e-07
1.9694449e-07
1.9493391e-07
1.925045e-07
1.898419e-07
1.8694559e-07
1.8394621e-07
1.8085436e-07
1.777643e-07
1.7468799e-07
1.7169744e-07
1.6879899e-07
1.6603441e-07
1.6490346e-07
1.6268586e-07
1.6070787e-07
1.589928e-07
1.5739031e-07
1.5458142e-07
1.5348415e-07
1.5264687e-07
1.5207387e-07
1.5177625e-07
1.5175713e-07
1.5202109e-07
1.5257604e-07
1.5342994e-07
1.5460956e-07
1.5614358e-07
1.5811786e-07
1.6056458e-07
1.636e-07
1.6804108e-07
1.7182247e-07
1.7554281e-07
1.790387e-07
1.82573e-07
1.8620855e-07
1.8998586e-07
1.9390789e-07
1.9796161e-07
2.0213248e-07
2.0639973e-07
2.1074199e-07
2.1513579e-07
2.1955444e-07
2.2397268e-07
2.2836073e-07
2.3269293e-07
2.369374e-07
2.4106848e-07
2.450545e-07
2.4887005e-07
2.5248522e-07
2.5587516e-07
2.5901396e-07
2.6187885e-07
2.6444958e-07
2.6670547e-07
2.6863137e-07
2.7020852e-07
2.7142706e-07
2.7227036e-07
2.7273292e-07
2.7280126e-07
2.7247522e-07
2.7174745e-07
2.7062281e-07
2.6910005e-07
2.6718829e-07
2.6489324e-07
2.6222737e-07
2.5920143e-07
2.558299e-07
2.521279e-07
2.4811185e-07
2.4380018e-07
2.3921125e-07
2.3436669e-07
2.2928598e-07
2.2399197e-07
2.185044e-07
2.1284713e-07
8.9680852e-09
9.6192403e-09
1.0206578e-08
1.0699822e-08
1.1075247e-08
1.1222942e-08
1.0144818e-08
7.8211368e-09
1.750948e-08
7.9095914e-09
1.8451038e-08
7.953152e-09
7.949175e-09
2.0064934e-08
1.8585672e-08
1.2279714e-08
1.2188049e-08
1.1937654e-08
1.189031e-08
1.161755e-08
1.1883014e-08
1.1965358e-08
1.4060651e-08
1.9232231e-08
2.5563672e-08
2.0700254e-08
2.2875987e-08
5.0930288e-08
5.512519e-08
5.9537275e-08
6.3224929e-08
6.6880373e-08
6.9991737e-08
7.2915768e-08
7.5526645e-08
7.7959334e-08
8.0194491e-08
8.2339912e-08
8.2586037e-08
3.2803168e-08
3.2780804e-08
3.2724046e-08
3.2608725e-08
3.2459879e-08
3.2278462e-08
3.2082365e-08
3.1873739e-08
3.1665446e-08
3.1459687e-08
3.1267794e-08
3.1104899e-08
3.1286376e-08
9.9277621e-08
1.0075646e-07
1.0234657e-07
1.0418305e-07
1.0351334e-07
3.1024992e-08
3.1129126e-08
3.1330885e-08
3.1587754e-08
3.1903359e-08
3.2281477e-08
3.2726562e-08
3.3245256e-08
3.3846778e-08
3.4551362e-08
3.5406178e-08
3.6597403e-08
3.9555115e-08
5.8222308e-08
1.0267363e-07
8.9188453e-08
8.5736351e-08
8.7698766e-08
8.9602465e-08
9.1515541e-08
9.345155e-08
9.5414482e-08
9.7402044e-08
9.9410431e-08
1.0143447e-07
1.034683e-07
1.0550583e-07
1.0753998e-07
1.0956408e-07
1.1157037e-07
1.1355199e-07
1.1550079e-07
1.1740995e-07
1.1927144e-07
1.210786e-07
1.2282378e-07
1.2450058e-07
1.2610218e-07
1.276228e-07
1.2905682e-07
1.3039924e-07
1.3164559e-07
1.3279148e-07
1.3383347e-07
1.3476741e-07
1.3559045e-07
1.3629893e-07
1.3689108e-07
1.3736498e-07
1.3772034e-07
1.3795651e-07
1.3807427e-07
1.3807439e-07
1.3795862e-07
1.3772886e-07
1.3738754e-07
1.3693753e-07
1.3638192e-07
1.3572428e-07
1.3496832e-07
1.3411832e-07
1.3317846e-07
1.3215337e-07
1.3104738e-07
1.2986542e-07
1.6159444e-08
1.7629666e-08
1.9099901e-08
2.0500445e-08
2.168089e-08
2.1989565e-08
1.5166653e-08
5.8629385e-09
5.5662603e-08
7.2126043e-09
6.2864795e-08
8.7765171e-09
9.9586687e-09
7.7804393e-08
7.1991989e-08
4.1218292e-08
4.2423494e-08
4.3369965e-08
4.4244993e-08
4.4915899e-08
4.596943e-08
4.7447854e-08
5.1675867e-08
6.2830532e-08
8.3500663e-08
4.6400416e-08
4.8136838e-08
1.8724812e-07
2.0171049e-07
2.1705719e-07
2.3040263e-07
2.4490612e-07
2.5903421e-07
2.7291453e-07
2.8638706e-07
2.9959106e-07
3.127769e-07
3.2613533e-07
3.2847989e-07
5.719073e-08
5.8545176e-08
6.0085461e-08
6.1586644e-08
6.3058579e-08
6.4509018e-08
6.5947056e-08
6.7378678e-08
6.8810042e-08
7.0246137e-08
7.1703292e-08
7.3293128e-08
7.7410788e-08
4.7391835e-07
4.8593826e-07
4.9843449e-07
5.1231335e-07
5.1044317e-07
8.6567079e-08
8.8330912e-08
9.0649424e-08
9.3119149e-08
9.5754062e-08
9.8576114e-08
1.0161026e-07
1.0489314e-07
1.0847897e-07
1.1248133e-07
1.17198e-07
1.2382661e-07
1.4158875e-07
2.6360042e-07
5.5982e-07
4.7153577e-07
4.4563583e-07
4.5636941e-07
4.666376e-07
4.7687008e-07
4.8712401e-07
4.9742549e-07
5.0777124e-07
5.1814843e-07
5.2854069e-07
5.3892729e-07
5.492878e-07
5.5959815e-07
5.6983562e-07
5.7997423e-07
5.8999031e-07
5.9985722e-07
6.0955156e-07
6.1904729e-07
6.2832195e-07
6.3735056e-07
6.4611193e-07
6.5458294e-07
6.6274477e-07
6.7057736e-07
6.7806533e-07
6.8519179e-07
6.9194393e-07
6.9830669e-07
7.0426708e-07
7.0980969e-07
7.149218e-07
7.1959033e-07
7.2380902e-07
7.2757078e-07
7.3087216e-07
7.3370935e-07
7.3608218e-07
7.379905e-07
7.3943708e-07
7.404248e-07
7.4095888e-07
7.4104507e-07
7.4069045e-07
7.3990307e-07
7.3869205e-07
7.3706765e-07
7.350402e-07
7.3262105e-07
7.2982148e-07
5.2853612e-08
5.7835657e-08
6.2885583e-08
6.7768651e-08
7.1936018e-08
7.2975026e-08
4.9104041e-08
1.75532e-08
1.6787472e-07
2.3005021e-08
1.9169116e-07
2.920448e-08
3.5016887e-08
2.4333553e-07
2.3355096e-07
1.4768755e-07
1.5265571e-07
1.5660561e-07
1.600671e-07
1.629662e-07
1.6679928e-07
1.7247657e-07
1.8676574e-07
2.2350733e-07
2.8906464e-07
1.7347064e-07
1.7974125e-07
5.9792112e-07
6.4157144e-07
6.8316934e-07
7.1881201e-07
7.6012669e-07
8.04752e-07
8.4873848e-07
8.9167074e-07
9.3387991e-07
9.762357e-07
1.0192932e-06
1.0284693e-06
2.1206714e-07
2.1762701e-07
2.2423131e-07
2.3072527e-07
2.3712605e-07
2.4346563e-07
2.4976548e-07
2.5604881e-07
2.6232937e-07
2.6862606e-07
2.749985e-07
2.8193468e-07
2.998658e-07
1.5035644e-06
1.5428503e-06
1.5838867e-06
1.629541e-06
1.627395e-06
3.3846434e-07
3.4556576e-07
3.551548e-07
3.6531539e-07
3.7609772e-07
3.8758466e-07
3.9986902e-07
4.130885e-07
4.274488e-07
4.4338612e-07
4.6206047e-07
4.8814954e-07
5.5635543e-07
9.9778913e-07
1.9762525e-06
1.7251356e-06
1.6464027e-06
1.6861614e-06
1.7241662e-06
1.7620232e-06
1.7999407e-06
1.838016e-06
1.8762386e-06
1.9145625e-06
1.9529294e-06
1.9912647e-06
2.0294951e-06
2.0675342e-06
2.1053006e-06
2.1427011e-06
2.1796506e-06
2.2160538e-06
2.2518268e-06
2.2868763e-06
2.3211219e-06
2.3544742e-06
2.3868572e-06
2.4181881e-06
2.4483994e-06
2.4774188e-06
2.5051917e-06
2.5316567e-06
2.5567686e-06
2.5804724e-06
2.6027216e-06
2.6234593e-06
2.6426384e-06
2.6602098e-06
2.6761522e-06
2.6904383e-06
2.7030552e-06
2.7139873e-06
2.7232331e-06
2.7307903e-06
2.7366675e-06
2.7408734e-06
2.7434256e-06
2.7443429e-06
2.7436493e-06
2.7413723e-06
2.737543e-06
2.7321969e-06
2.7253695e-06
2.7171003e-06
2.7074285e-06
1.3812648e-07
1.5121109e-07
1.6449999e-07
1.7738339e-07
1.884262e-07
1.912913e-07
1.3233123e-07
5.1648228e-08
3.7503234e-07
6.7668613e-08
4.310883e-07
8.5500107e-08
1.0476684e-07
5.5689388e-07
5.5819007e-07
3.925774e-07
4.0623906e-07
4.1692064e-07
4.2623488e-07
4.3410345e-07
4.4432755e-07
4.5955316e-07
4.9728247e-07
5.9211233e-07
7.4879939e-07
5.0003072e-07
5.2223617e-07
1.4109691e-06
1.5076859e-06
1.5870661e-06
1.6536123e-06
1.7380228e-06
1.8403072e-06
1.9411882e-06
2.0397318e-06
2.1366608e-06
2.2339974e-06
2.3330804e-06
2.3595231e-06
6.3369314e-07
6.5006741e-07
6.700048e-07
6.8961966e-07
7.0895659e-07
7.2811158e-07
7.4714498e-07
7.6612579e-07
7.8509199e-07
8.040993e-07
8.2332841e-07
8.4435303e-07
8.9971549e-07
3.4516538e-06
3.5418243e-06
3.6370767e-06
3.7434185e-06
3.7493698e-06
1.0142497e-06
1.0350052e-06
1.063554e-06
1.0937387e-06
1.1256917e-06
1.1596392e-06
1.1958311e-06
1.2346454e-06
1.2766517e-06
1.3230751e-06
1.3772078e-06
1.4523407e-06
1.6429671e-06
2.7751293e-06
4.9689612e-06
4.537548e-06
4.3909624e-06
4.4970675e-06
4.5984278e-06
4.6993928e-06
4.8005158e-06
4.9020561e-06
5.0039864e-06
5.1061845e-06
5.2084954e-06
5.3107204e-06
5.4126656e-06
5.5141007e-06
5.6148094e-06
5.7145439e-06
5.8130784e-06
5.9101596e-06
6.005564e-06
6.0990443e-06
6.190386e-06
6.2793518e-06
6.3657399e-06
6.4493295e-06
6.5299417e-06
6.6073837e-06
6.6815105e-06
6.7521588e-06
6.8192081e-06
6.8825121e-06
6.9419476e-06
6.9973623e-06
7.0486242e-06
7.0956058e-06
7.1382527e-06
7.1764922e-06
7.2102892e-06
7.2396022e-06
7.2644263e-06
7.2847548e-06
7.3006103e-06
7.3120154e-06
7.3190159e-06
7.3216615e-06
7.320016e-06
7.3141513e-06
7.3041495e-06
7.290105e-06
7.2721114e-06
7.2502733e-06
7.2246941e-06
2.9971893e-07
3.2815764e-07
3.5706228e-07
3.8512413e-07
4.0927408e-07
4.1609216e-07
2.991735e-07
1.3011794e-07
6.9888294e-07
1.6927826e-07
8.0889181e-07
2.1224872e-07
2.6273767e-07
1.0616008e-06
1.1093316e-06
8.5777295e-07
8.8810531e-07
9.1155837e-07
9.3199338e-07
9.4929567e-07
9.7168733e-07
1.0050632e-06
1.0873867e-06
1.2908792e-06
1.6034863e-06
1.182884e-06
1.2472794e-06
2.7749488e-06
2.9536151e-06
3.0767532e-06
3.177763e-06
3.3218701e-06
3.5174576e-06
3.7104028e-06
3.8989157e-06
4.0843599e-06
4.27062e-06
4.460493e-06
4.5243536e-06
1.5769825e-06
1.6174348e-06
1.6670577e-06
1.7158728e-06
1.7639865e-06
1.8116362e-06
1.8589693e-06
1.9061549e-06
1.9532844e-06
2.0004929e-06
2.0482361e-06
2.1006653e-06
2.238511e-06
6.6076159e-06
6.7788656e-06
6.962428e-06
7.1681157e-06
7.2036703e-06
2.5202094e-06
2.5709591e-06
2.6409158e-06
2.7147048e-06
2.7926092e-06
2.8751304e-06
2.9628165e-06
3.0565199e-06
3.1575357e-06
3.2686914e-06
3.3976575e-06
3.5753502e-06
4.011201e-06
6.3516973e-06
1.0239526e-05
9.7734354e-06
9.5965029e-06
9.8285524e-06
1.0050023e-05
1.0270636e-05
1.04916e-05
1.0713478e-05
1.0936212e-05
1.1159533e-05
1.1383104e-05
1.1606492e-05
1.1829273e-05
1.2050943e-05
1.2271032e-05
1.2488998e-05
1.2704348e-05
1.2916529e-05
1.3125052e-05
1.3329379e-05
1.352904e-05
1.3723517e-05
1.391237e-05
1.4095115e-05
1.4271362e-05
1.444069e-05
1.4602781e-05
1.4757279e-05
1.490392e-05
1.5042385e-05
1.5172406e-05
1.5293648e-05
1.5405795e-05
1.5508595e-05
1.560193e-05
1.5685638e-05
1.5759644e-05
1.5823857e-05
1.5878264e-05
1.5922851e-05
1.5957667e-05
1.5982761e-05
1.5998231e-05
1.6004187e-05
1.6000766e-05
1.5988125e-05
1.5966443e-05
1.5935926e-05
1.5896777e-05
1.5849225e-05
1.5793495e-05
5.7267508e-07
6.270734e-07
6.8239437e-07
7.3616916e-07
7.8264913e-07
7.9727647e-07
5.9795276e-07
2.9117216e-07
1.1701194e-06
3.7551441e-07
1.3640769e-06
4.6743644e-07
5.7974048e-07
1.8149013e-06
1.9654453e-06
1.6460472e-06
1.7047364e-06
1.7498794e-06
1.7892107e-06
1.8225665e-06
1.865637e-06
1.9298571e-06
2.0877689e-06
2.4731096e-06
3.0289002e-06
2.4390566e-06
2.5964161e-06
4.8792723e-06
5.1764641e-06
5.347153e-06
5.4847983e-06
5.7094391e-06
6.0456232e-06
6.3772805e-06
6.7013369e-06
7.0201232e-06
7.3403286e-06
7.6672888e-06
7.8037973e-06
3.4430321e-06
3.5318885e-06
3.6401333e-06
3.7465928e-06
3.8514961e-06
3.9553568e-06
4.0584919e-06
4.1612638e-06
4.2638652e-06
4.3665817e-06
4.4704152e-06
4.5847663e-06
4.8778587e-06
1.1367215e-05
1.1658407e-05
1.1975539e-05
1.2332148e-05
1.2438334e-05
5.4904497e-06
5.6005718e-06
5.7505347e-06
5.9082936e-06
6.0743715e-06
6.2497239e-06
6.4354006e-06
6.6330736e-06
6.8453204e-06
7.0778393e-06
7.3462232e-06
7.712969e-06
8.5789077e-06
1.2743674e-05
1.8638234e-05
1.8491851e-05
1.840473e-05
1.8850054e-05
1.9274627e-05
1.9697576e-05
2.0121211e-05
2.0546609e-05
2.0973655e-05
2.1401838e-05
2.183051e-05
2.2258841e-05
2.2686018e-05
2.3111079e-05
2.353312e-05
2.3951104e-05
2.4364086e-05
2.4771008e-05
2.5170932e-05
2.5562825e-05
2.5945789e-05
2.6318829e-05
2.6681101e-05
2.703168e-05
2.7369816e-05
2.7694699e-05
2.8005724e-05
2.8302203e-05
2.8583634e-05
2.8849403e-05
2.9098998e-05
2.9331766e-05
2.9547041e-05
2.9744417e-05
2.9923653e-05
3.0084443e-05
3.0226637e-05
3.0350061e-05
3.0454693e-05
3.0540501e-05
3.0607579e-05
3.0656017e-05
3.0686008e-05
3.0697755e-05
3.0691524e-05
3.0667614e-05
3.0626366e-05
3.0568174e-05
3.0493427e-05
3.040256e-05
3.0296007e-05
9.9991406e-07
1.0949895e-06
1.1917293e-06
1.285881e-06
1.3676383e-06
1.3965518e-06
1.0927162e-06
5.9456694e-07
1.8353492e-06
7.595117e-07
2.1547959e-06
9.3924961e-07
1.1598793e-06
2.8984612e-06
3.2277417e-06
2.8834034e-06
2.9865686e-06
3.0658729e-06
3.1349764e-06
3.193694e-06
3.2693411e-06
3.3821823e-06
3.6588009e-06
4.3267269e-06
5.2413714e-06
4.547887e-06
4.8832337e-06
7.9755268e-06
8.4403966e-06
8.666632e-06
8.8478001e-06
9.1840769e-06
9.7248195e-06
1.0258226e-05
1.0779407e-05
1.1292096e-05
1.1807054e-05
1.2333816e-05
1.2599823e-05
6.8030888e-06
6.9814863e-06
7.1951599e-06
7.4052572e-06
7.6122317e-06
7.8170877e-06
8.0204423e-06
8.2229975e-06
8.4251198e-06
8.6273533e-06
8.8316735e-06
9.0568563e-06
9.6072343e-06
1.8294749e-05
1.8757255e-05
1.9268833e-05
1.9845901e-05
2.0090718e-05
1.0823921e-05
1.1042272e-05
1.1333025e-05
1.1638053e-05
1.1958225e-05
1.2295154e-05
1.2650672e-05
1.3027737e-05
1.3430996e-05
1.3870838e-05
1.4375889e-05
1.5059721e-05
1.6607535e-05
2.3235895e-05
3.1244747e-05
3.1982769e-05
3.220478e-05
3.2984309e-05
3.3726747e-05
3.4466387e-05
3.5207257e-05
3.5951225e-05
3.6698094e-05
3.7446966e-05
3.819671e-05
3.8945877e-05
3.9693047e-05
4.0436539e-05
4.1174773e-05
4.1905939e-05
4.2628383e-05
4.3340257e-05
4.4039925e-05
4.4725578e-05
4.5395647e-05
4.6048396e-05
4.6682345e-05
4.7295879e-05
4.7887685e-05
4.8456349e-05
4.9000806e-05
4.9519859e-05
5.0012625e-05
5.0478037e-05
5.0915198e-05
5.1322886e-05
5.1699934e-05
5.2045715e-05
5.2359794e-05
5.2641636e-05
5.2890979e-05
5.3107514e-05
5.3291198e-05
5.344198e-05
5.3560013e-05
5.3645461e-05
5.369865e-05
5.3719938e-05
5.3709785e-05
5.3668711e-05
5.3597311e-05
5.3496267e-05
5.3366261e-05
5.320805e-05
5.3022389e-05
1.6332103e-06
1.7886481e-06
1.9468905e-06
2.101089e-06
2.2356377e-06
2.2889806e-06
1.8647677e-06
1.1261026e-06
2.7620747e-06
1.4244203e-06
3.2641426e-06
1.751225e-06
2.1439011e-06
4.4252683e-06
5.0266297e-06
4.7221334e-06
4.8911473e-06
5.0214258e-06
5.1349742e-06
5.2316959e-06
5.3559655e-06
5.5414679e-06
5.9946613e-06
7.0790164e-06
8.5044635e-06
7.8510677e-06
8.4920242e-06
1.2393999e-05
1.3094682e-05
1.3396633e-05
1.3640347e-05
1.4136865e-05
1.4969096e-05
1.5789832e-05
1.6591728e-05
1.7380503e-05
1.8172693e-05
1.8984439e-05
1.9465763e-05
1.2407027e-05
1.2739469e-05
1.3128768e-05
1.3511454e-05
1.3888365e-05
1.4261315e-05
1.463141e-05
1.4999906e-05
1.5367447e-05
1.5734985e-05
1.6106075e-05
1.6514385e-05
1.7448609e-05
2.8166046e-05
2.8868777e-05
2.9656863e-05
3.054812e-05
3.1034768e-05
1.9695966e-05
2.0098153e-05
2.0618733e-05
2.1163404e-05
2.1733494e-05
2.2331466e-05
2.2960318e-05
2.3624882e-05
2.4332919e-05
2.5101953e-05
2.5980507e-05
2.7158163e-05
2.9704305e-05
3.9381314e-05
4.9435713e-05
5.1805797e-05
5.2658281e-05
5.3932718e-05
5.5145464e-05
5.6353711e-05
5.7564015e-05
5.8779404e-05
5.999955e-05
6.1222992e-05
6.2447883e-05
6.3671857e-05
6.4892598e-05
6.6107367e-05
6.7313584e-05
6.8508297e-05
6.9688811e-05
7.0852111e-05
7.1995523e-05
7.3116102e-05
7.4211286e-05
7.5278243e-05
7.6314556e-05
7.7317589e-05
7.82852e-05
7.9215077e-05
8.0105483e-05
8.0954459e-05
8.1760568e-05
8.252207e-05
8.3237502e-05
8.3904621e-05
8.4521704e-05
8.5087785e-05
8.5602139e-05
8.6063895e-05
8.6472613e-05
8.6827791e-05
8.7129352e-05
8.7377204e-05
8.7571597e-05
8.7712789e-05
8.7801307e-05
8.783773e-05
8.7822802e-05
8.7757365e-05
8.7642387e-05
8.7478971e-05
8.7268227e-05
8.7011383e-05
8.6709667e-05
2.534376e-06
2.7757998e-06
3.0217067e-06
3.2616256e-06
3.4720146e-06
3.5647614e-06
3.0138825e-06
2.0000837e-06
4.0427677e-06
2.5055321e-06
4.8047976e-06
3.0645357e-06
3.7093531e-06
6.5450519e-06
7.5269637e-06
7.3443081e-06
7.6067578e-06
7.8100891e-06
7.9873684e-06
8.1388556e-06
8.3328359e-06
8.622718e-06
9.3281374e-06
1.1002113e-05
1.3136029e-05
1.2752085e-05
1.3875282e-05
1.8556206e-05
1.9587368e-05
2.0006419e-05
2.0352349e-05
2.1083447e-05
2.2324291e-05
2.3547519e-05
2.4742589e-05
2.5917982e-05
2.7098255e-05
2.8309413e-05
2.9128417e-05
2.1177338e-05
2.1758302e-05
2.2422059e-05
2.3074376e-05
2.3716719e-05
2.4352148e-05
2.4982529e-05
2.5609961e-05
2.6235502e-05
2.6860707e-05
2.7491486e-05
2.8182742e-05
2.9642179e-05
4.1999656e-05
4.3034946e-05
4.420906e-05
4.553929e-05
4.6414416e-05
3.3546568e-05
3.4242207e-05
3.5115498e-05
3.6026902e-05
3.6978315e-05
3.7973175e-05
3.9016203e-05
4.0114785e-05
4.1281128e-05
4.2543017e-05
4.3977558e-05
4.5879914e-05
4.9798025e-05
6.299879e-05
7.4932654e-05
7.9822455e-05
8.1721096e-05
8.3697074e-05
8.5576253e-05
8.7448571e-05
8.9324144e-05
9.1207613e-05
9.3098465e-05
9.4994436e-05
9.689267e-05
9.8789508e-05
0.00010068137
0.00010256402
0.00010443347
0.00010628515
0.00010811491
0.00010991808
0.00011169053
0.0001134277
0.00011512563
0.00011677995
0.00011838691
0.00011994245
0.00012144324
0.00012288571
0.00012426717
0.00012558459
0.00012683573
0.00012801793
0.00012912893
0.0001301646
0.00013112299
0.00013200251
0.00013280204
0.0001335202
0.00013415632
0.0001347096
0.00013517993
0.00013556715
0.00013587163
0.00013609375
0.00013623433
0.00013629425
0.00013627463
0.00013617678
0.00013600218
0.00013575251
0.0001354295
0.000135035
0.00013457093
3.7766077e-06
4.1366757e-06
4.5036179e-06
4.8620663e-06
5.1779885e-06
5.3312076e-06
4.6594082e-06
3.3594921e-06
5.7986099e-06
4.1700009e-06
6.923162e-06
5.0775182e-06
6.0685941e-06
9.4487254e-06
1.0932376e-05
1.0965607e-05
1.1356428e-05
1.1661234e-05
1.1927104e-05
1.2155141e-05
1.2446065e-05
1.2881422e-05
1.393599e-05
1.6419044e-05
1.9515309e-05
1.9716798e-05
2.1552797e-05
2.6984423e-05
2.847573e-05
2.9084446e-05
2.9602522e-05
3.0677431e-05
3.2482078e-05
3.4260192e-05
3.5997207e-05
3.7705376e-05
3.9420165e-05
4.1181574e-05
4.2504237e-05
3.4195815e-05
3.5155717e-05
3.6226064e-05
3.7277708e-05
3.8313085e-05
3.9337088e-05
4.0352685e-05
4.1363205e-05
4.2370292e-05
4.3376343e-05
4.4390494e-05
4.5494995e-05
4.7625047e-05
6.1079439e-05
6.2569513e-05
6.4273239e-05
6.6205276e-05
6.766613e-05
5.4056064e-05
5.5195188e-05
5.6582774e-05
5.8027589e-05
5.9532123e-05
6.1101029e-05
6.2741329e-05
6.4463798e-05
6.6286729e-05
6.8252007e-05
7.0475805e-05
7.3391649e-05
7.9103099e-05
9.6173137e-05
0.00010982794
0.00011821444
0.00012165473
0.00012459035
0.0001273813
0.00013016222
0.00013294803
0.00013574554
0.00013855397
0.00014136998
0.00014418932
0.00014700659
0.00014981647
0.0001526127
0.00015538938
0.00015813977
0.00016085767
0.00016353622
0.0001661693
0.00016875016
0.00017127295
0.00017373119
0.00017611936
0.00017843141
0.00018066244
0.00018280715
0.00018486156
0.00018682118
0.00018868271
0.0001904422
0.00019209603
0.00019363756
0.00019506482
0.00019637532
0.00019756734
0.00019863888
0.00019958888
0.00020041618
0.00020112057
0.00020170179
0.00020216038
0.00020249689
0.00020271248
0.00020280843
0.00020278641
0.00020264829
0.00020239625
0.00020203276
0.00020156032
0.00020098171
0.00020029968
5.4459845e-06
5.9656249e-06
6.495454e-06
7.0136561e-06
7.4727117e-06
7.7149213e-06
6.9415361e-06
5.3745799e-06
8.1830279e-06
6.6151953e-06
9.8031247e-06
8.0236444e-06
9.4665359e-06
1.3372122e-05
1.5488913e-05
1.5839383e-05
1.6402196e-05
1.6844486e-05
1.7230505e-05
1.7563031e-05
1.7985537e-05
1.8618865e-05
2.0144736e-05
2.3710102e-05
2.8089769e-05
2.9276127e-05
3.2113909e-05
3.8308567e-05
4.0433851e-05
4.1346749e-05
4.2147829e-05
4.3720573e-05
4.6290493e-05
4.8821052e-05
5.1292799e-05
5.3723036e-05
5.6161733e-05
5.8667739e-05
6.070944e-05
5.2690993e-05
5.4201057e-05
5.5847426e-05
5.7464648e-05
5.9056596e-05
6.0630734e-05
6.2191575e-05
6.3744158e-05
6.5290929e-05
6.6835389e-05
6.839076e-05
7.0071105e-05
7.3013906e-05
8.6967777e-05
8.9071417e-05
9.1488883e-05
9.4230112e-05
9.6529375e-05
8.3119674e-05
8.4897685e-05
8.7003781e-05
8.9192234e-05
9.1465987e-05
9.3831335e-05
9.6298234e-05
9.8881823e-05
0.00010160844
0.00010453866
0.00010783983
0.00011211798
0.00012008294
0.0001412537
0.00015658411
0.00016947844
0.00017501703
0.0001792257
0.00018322704
0.00018721415
0.00019120828
0.00019521903
0.00019924527
0.00020328221
0.00020732378
0.00021136226
0.00021539008
0.00021939831
0.00022337852
0.00022732111
0.00023121726
0.00023505716
0.0002388321
0.00024253249
0.00024614996
0.00024967529
0.00025310062
0.00025641732
0.00025961842
0.00026269633
0.00026564539
0.00026845919
0.00027113305
0.00027366132
0.00027603779
0.00027825343
0.00028030614
0.00028219221
0.00028390916
0.00028545409
0.0002868255
0.00028802167
0.00028904227
0.00028988692
0.00029055631
0.0002910512
0.00029137319
0.00029152406
0.00029150614
0.00029132205
0.00029097485
0.00029046801
0.00028980506
0.00028898988
0.00028802636
7.6431013e-06
8.3728911e-06
9.1173599e-06
9.8463926e-06
1.0495525e-05
1.0864162e-05
1.0023002e-05
8.2411768e-06
1.1384958e-05
1.0067182e-05
1.3669432e-05
1.2169621e-05
1.4179855e-05
1.8599062e-05
2.1488084e-05
2.2260809e-05
2.3049457e-05
2.3674263e-05
2.4219992e-05
2.4692423e-05
2.5290045e-05
2.618763e-05
2.8336592e-05
3.3319139e-05
3.93812e-05
4.2030679e-05
4.6222657e-05
5.3270065e-05
5.6256873e-05
5.7641762e-05
5.8889115e-05
6.1168793e-05
6.4759831e-05
6.8293324e-05
7.1744104e-05
7.5136096e-05
7.8538086e-05
8.2033002e-05
8.5062154e-05
7.8030452e-05
8.0306321e-05
8.2738744e-05
8.5127555e-05
8.7478678e-05
8.9803046e-05
9.2107264e-05
9.4398666e-05
9.6680752e-05
9.8958402e-05
0.00010124959
0.00010370157
0.00010759523
0.00012150541
0.00012442427
0.00012778579
0.00013159326
0.00013504012
0.00012282521
0.00012548593
0.00012856016
0.00013174881
0.00013505476
0.00013848687
0.0001420586
0.00014579059
0.00014971953
0.00015392994
0.00015865382
0.00016470299
0.00017541238
0.00020083878
0.00021799673
0.00023638458
0.00024461737
0.00025046844
0.00025603309
0.00026157806
0.00026713259
0.00027270977
0.00027830803
0.00028392071
0.00028953942
0.00029515349
0.00030075247
0.00030632401
0.00031185648
0.00031733664
0.00032275234
0.00032809006
0.00033333776
0.00033848224
0.00034351198
0.00034841429
0.00035317829
0.00035779215
0.00036224621
0.00036653003
0.00037063579
0.00037455465
0.00037828016
0.00038180454
0.00038511667
0.00038820668
0.00039107169
0.00039370644
0.00039610744
0.00039827067
0.00040019399
0.00040187501
0.00040331316
0.00040450788
0.00040546004
0.00040617061
0.00040664171
0.00040687572
0.00040687575
0.00040664533
0.0004061886
0.00040551025
0.00040461507
0.0004035083
0.00040219521
1.0484828e-05
1.1486517e-05
1.2508852e-05
1.3511234e-05
1.4408332e-05
1.4951369e-05
1.4091345e-05
1.2179985e-05
1.5631757e-05
1.4780602e-05
1.8790557e-05
1.7814962e-05
2.051853e-05
2.5463653e-05
2.9269301e-05
3.0570853e-05
3.1651115e-05
3.251409e-05
3.3268585e-05
3.3925353e-05
3.4752262e-05
3.5996934e-05
3.8955146e-05
4.5759181e-05
5.3990343e-05
5.8655944e-05
6.4623824e-05
7.2721671e-05
7.6860661e-05
7.8950121e-05
8.0871273e-05
8.4132108e-05
8.9061768e-05
9.3908494e-05
9.8640701e-05
0.00010329082
0.00010795139
0.00011273445
0.00011707315
0.00011171573
0.00011501968
0.00011849121
0.0001218997
0.0001252539
0.00012856927
0.00013185518
0.00013512194
0.00013837439
0.00014161906
0.00014487892
0.00014833158
0.00015331638
0.00016679088
0.00017077444
0.00017536024
0.00018054306
0.00018549908
0.0001754277
0.00017926406
0.00018360242
0.00018809503
0.00019274364
0.00019756134
0.00020256557
0.00020778371
0.00021326543
0.0002191251
0.00022567361
0.0002339584
0.00024792439
0.00027772573
0.00029710559
0.00032188168
0.00033341812
0.00034133198
0.00034886312
0.00035636746
0.00036388411
0.00037143039
0.00037900413
0.00038659637
0.00039419583
0.0004017882
0.00040935945
0.00041689305
0.00042437342
0.00043178285
0.00043910506
0.00044632198
0.00045341754
0.0004603741
0.00046717627
0.00047380708
0.00048025204
0.00048649531
0.00049252402
0.00049832417
0.00050388533
0.00050919567
0.00051424656
0.00051902721
0.0005235189
0.0005277137
0.00053160677
0.00053519089
0.00053846135
0.0005414127
0.00054404198
0.00054634593
0.00054832366
0.00054997432
0.00055129894
0.00055229869
0.00055297626
0.00055333469
0.00055337799
0.00055311076
0.00055253834
0.00055166688
0.00055050264
0.00054905247
0.00054732317
1.4106145e-05
1.5454321e-05
1.6830937e-05
1.8182375e-05
1.9398044e-05
2.0175792e-05
1.9361718e-05
1.7437602e-05
2.1191635e-05
2.1040475e-05
2.5480958e-05
2.5293585e-05
2.8829473e-05
3.4351652e-05
3.9221543e-05
4.1159644e-05
4.2611065e-05
4.3780235e-05
4.4803711e-05
4.5699995e-05
4.6822967e-05
4.851719e-05
5.2510039e-05
6.1616375e-05
7.2598847e-05
7.9905683e-05
8.8146582e-05
9.7621381e-05
0.00010327477
0.00010637706
0.00010927521
0.00011386542
0.00012051829
0.00012705332
0.00013343204
0.00013969756
0.00014597155
0.00015239919
0.00015842008
0.00015537154
0.00016001295
0.0001648206
0.00016953977
0.00017418296
0.00017877143
0.00018331804
0.0001878369
0.00019233451
0.00019681923
0.00020131864
0.00020603312
0.00021226251
0.00022512924
0.00023047705
0.00023661755
0.00024353484
0.00025040333
0.00024330466
0.00024865618
0.00025459904
0.00026074357
0.00026709073
0.00027365853
0.00028046917
0.00028755822
0.00029499119
0.00030291856
0.00031174426
0.00032277477
0.00034051556
0.00037480248
0.00039703607
0.00042893201
0.0004443636
0.000454799
0.00046473844
0.0004746418
0.00048455998
0.00049451523
0.00050450463
0.00051451644
0.00052453592
0.00053454441
0.00054452358
0.00055445195
0.00056430921
0.00057407235
0.00058372021
0.00059322934
0.00060257886
0.0006117459
0.00062071052
0.00062945071
0.0006379477
0.00064618094
0.00065413376
0.00066178797
0.00066913006
0.00067614463
0.00068282049
0.00068914039
0.00069508069
0.00070063445
0.00070579462
0.00071055167
0.00071489935
0.00071883052
0.0007223412
0.00072542701
0.00072808664
0.00073031881
0.00073212465
0.00073350548
0.00073446457
0.00073500566
0.0007351337
0.00073485442
0.00073417456
0.00073310183
0.00073164413
0.00072981011
0.00072760823
1.8662016e-05
2.0445878e-05
2.2268202e-05
2.4059459e-05
2.5678962e-05
2.6766105e-05
2.6080062e-05
2.4289301e-05
2.8375515e-05
2.9165668e-05
3.4102554e-05
3.4977015e-05
3.9501178e-05
4.5700589e-05
5.1783871e-05
5.4468603e-05
5.6386321e-05
5.79439e-05
5.9309505e-05
6.0513103e-05
6.2013673e-05
6.428287e-05
6.9579593e-05
8.1550874e-05
9.5966842e-05
0.00010661038
0.00011770162
0.00012901784
0.00013662572
0.00014113403
0.00014539787
0.00015174596
0.00016057586
0.0001692406
0.00017769475
0.00018599453
0.00019429618
0.00020278
0.00021089866
0.00021071689
0.00021705008
0.00022353324
0.00022989527
0.00023615354
0.0002423365
0.00024846138
0.00025454696
0.00026060179
0.00026663616
0.00027268099
0.00027894726
0.00028659983
0.00029893796
0.0003059972
0.00031406776
0.00032311988
0.00033232802
0.00032887049
0.00033611619
0.00034404149
0.00035222299
0.00036066186
0.00036938155
0.00037840987
0.00038779204
0.00039761242
0.00040806388
0.00041965612
0.00043396803
0.00045598257
0.00049485908
0.0005207569
0.00056026468
0.00058012621
0.0005935577
0.00060636492
0.00061912403
0.00063189948
0.00064471904
0.00065757893
0.00067046414
0.00068335592
0.00069623058
0.00070906487
0.00072183158
0.00073450501
0.00074705607
0.00075945803
0.00077168129
0.00078369953
0.00079548391
0.00080700935
0.00081824812
0.0008291766
0.00083976891
0.00085000408
0.00085985913
0.00086931706
0.00087835842
0.00088696913
0.00089511976
0.0009027884
0.00090996667
0.00091664506
0.00092281138
0.00092845762
0.00093357461
0.00093815716
0.00094219956
0.00094569991
0.00094865636
0.00095107001
0.00095294227
0.00095427692
0.00095507837
0.00095535251
0.00095510624
0.00095434768
0.00095308624
0.00095133149
0.00094909401
0.00094638401
2.4329192e-05
2.6654405e-05
2.903078e-05
3.1369618e-05
3.3494915e-05
3.4982786e-05
3.4526308e-05
3.3042933e-05
3.7538126e-05
3.9513119e-05
4.5065148e-05
4.7278053e-05
5.2967776e-05
5.9998097e-05
6.7444149e-05
7.0990412e-05
7.3486787e-05
7.5530904e-05
7.7326515e-05
7.8919721e-05
8.0896442e-05
8.3892349e-05
9.0809868e-05
0.00010629278
0.00012492382
0.00013966711
0.00015426727
0.00016802396
0.00017810688
0.00018450537
0.0001906156
0.0001992323
0.00021075924
0.0002220577
0.00023307585
0.00024388553
0.00025468262
0.00026568132
0.00027634363
0.00027950469
0.00028792282
0.00029645751
0.0003048299
0.00031306352
0.0003211955
0.00032924844
0.00033724675
0.00034520139
0.00035312454
0.00036104829
0.00036917854
0.00037846649
0.00039059845
0.00039975467
0.00041016276
0.000421774
0.00043374793
0.00043442963
0.0004439747
0.00045428463
0.00046491061
0.00047585659
0.00048715141
0.00049882929
0.00051094658
0.00052360935
0.00053705849
0.00055191924
0.00057004226
0.00059677248
0.00064031201
0.00067075639
0.00071805578
0.00074278056
0.00075966614
0.00077578795
0.00079184618
0.00080792033
0.0008240441
0.00084021268
0.0008564074
0.00087260504
0.00088877631
0.00090489248
0.00092092003
0.00093682733
0.00095257859
0.00096814097
0.00098347815
0.00099855783
0.0010133447
0.0010278081
0.0010419141
0.0010556337
0.0010689353
0.0010817933
0.0010941794
0.0011060729
0.0011174498
0.001128292
0.0011385525
0.00114822
0.0011572811
0.0011657236
0.0011735325
0.0011806976
0.0011872077
0.001193056
0.0011982354
0.0012027432
0.0012065768
0.0012097371
0.0012122256
0.0012140464
0.0012152044
0.0012157065
0.0012155607
0.0012147764
0.0012133646
0.0012113367
0.0012087051
0.0012054817
3.1307828e-05
3.4298383e-05
3.7355959e-05
4.0369079e-05
4.3120916e-05
4.5119994e-05
4.5017102e-05
4.4042902e-05
4.9078004e-05
5.2481444e-05
5.8825312e-05
6.265327e-05
6.971069e-05
7.7777643e-05
8.6734961e-05
9.1265567e-05
9.4471325e-05
9.7117442e-05
9.9447268e-05
0.00010152855
0.00010409917
0.00010800294
0.00011690819
0.00013663077