x,y,z,U_0,U_1,U_2
1.48055,0.27039,0.05,-6.07805e-07,3.64659e-07,5.99782e-24
1.48055,0.273158,0.05,-0.000546915,0.000328693,6.64966e-22
1.48055,0.275927,0.05,-0.000958885,0.00057689,-1.92886e-20
1.48055,0.278695,0.05,-0.00125328,0.000755135,-1.78259e-21
1.48055,0.281464,0.05,-0.00145897,0.000880848,8.14921e-21
1.48055,0.284232,0.05,-0.00161904,0.000979346,8.42912e-22
1.48055,0.287,0.05,-0.00173912,0.00105372,-7.81332e-21
1.48055,0.289769,0.05,-0.00182489,0.00110801,-1.64354e-21
1.48055,0.292537,0.05,-0.00190073,0.00115637,2.38601e-21
1.48055,0.295305,0.05,-0.00195415,0.0011913,1.15364e-21
1.48055,0.298074,0.05,-0.00200261,0.00122349,1.77392e-21
1.48055,0.300842,0.05,-0.00203908,0.00124846,2.72848e-21
1.48055,0.303611,0.05,-0.00207146,0.00127118,1.56921e-21
1.48055,0.306379,0.05,-0.00209609,0.00128926,-3.1891e-22
1.48055,0.309147,0.05,-0.00211822,0.00130596,-2.59352e-21
1.48055,0.311916,0.05,-0.00213421,0.00131903,-2.76402e-21
1.48055,0.314684,0.05,-0.00214954,0.00133093,-1.8848e-21
1.48055,0.317452,0.05,-0.00215874,0.00134091,-1.00851e-22
1.48055,0.320221,0.05,-0.00216819,0.00134993,1.59538e-21
1.48055,0.322989,0.05,-0.00217301,0.00135689,3.41739e-21
1.48055,0.325758,0.05,-0.00217722,0.00136319,2.86558e-21
1.48055,0.328526,0.05,-0.00217926,0.00136826,-8.26622e-22
1.48055,0.331294,0.05,-0.00217923,0.00137217,-1.27638e-21
1.48055,0.334063,0.05,-0.00217946,0.00137411,-8.2915e-22
1.48055,0.336831,0.05,-0.00217542,0.00137786,-1.4359e-21
1.48055,0.339599,0.05,-0.00217183,0.00137978,-1.25892e-21
1.48055,0.342368,0.05,-0.00216673,0.00138081,1.04778e-21
1.48055,0.345136,0.05,-0.00216005,0.00138104,1.21512e-21
1.48055,0.347905,0.05,-0.00215339,0.00138107,1.29632e-21
1.48055,0.350673,0.05,-0.00214445,0.00138018,4.74024e-23
1.48055,0.353441,0.05,-0.00213505,0.00137893,-4.05733e-22
1.48055,0.35621,0.05,-0.00212559,0.00137562,-6.87276e-22
1.48055,0.358978,0.05,-0.00211362,0.00137493,-7.3305e-22
1.48055,0.361746,0.05,-0.00210175,0.00137237,-7.21085e-22
1.48055,0.364515,0.05,-0.00208949,0.00136729,-6.61252e-22
1.48055,0.367283,0.05,-0.00207526,0.00136569,-3.46959e-22
1.48055,0.370052,0.05,-0.00206109,0.00136194,1.91414e-22
1.48055,0.37282,0.05,-0.00204632,0.00135534,2.57579e-22
1.48055,0.375588,0.05,-0.00203008,0.00135293,-8.57936e-22
1.48055,0.378357,0.05,-0.00201373,0.00134808,-1.19169e-21
1.48055,0.381125,0.05,-0.00199676,0.00134104,-7.35548e-22
1.48055,0.383894,0.05,-0.00197863,0.00133703,-1.82073e-22
1.48055,0.386662,0.05,-0.00196017,0.00133115,-8.27151e-23
1.48055,0.38943,0.05,-0.00194155,0.00132485,1.42216e-23
1.48055,0.392199,0.05,-0.00192128,0.00131825,5.96912e-23
1.48055,0.394967,0.05,-0.00190075,0.00131139,3.62638e-22
1.48055,0.397735,0.05,-0.00188022,0.00130453,6.65585e-22
1.48055,0.400504,0.05,-0.00185784,0.00129517,1.49825e-21
1.48055,0.403272,0.05,-0.00183574,0.00128903,1.88273e-21
1.48055,0.406041,0.05,-0.00181314,0.00128123,1.67499e-21
1.48055,0.408809,0.05,-0.00178948,0.0012717,1.12135e-21
1.48055,0.411577,0.05,-0.00176535,0.00126425,2.23373e-22
1.48055,0.414346,0.05,-0.00174064,0.00125553,3.86257e-22
1.48055,0.417114,0.05,-0.00171593,0.00124682,5.49141e-22
1.48055,0.419882,0.05,-0.00168817,0.00123414,3.52562e-22
1.48055,0.422651,0.05,-0.00166289,0.00122759,6.03186e-22
1.48055,0.425419,0.05,-0.00163602,0.00121797,5.92576e-22
1.48055,0.428188,0.05,-0.00160915,0.00120836,5.81967e-22
1.48055,0.430956,0.05,-0.00157874,0.0011955,5.28958e-22
1.48055,0.433724,0.05,-0.00155092,0.00118703,2.91795e-22
1.48055,0.436493,0.05,-0.0015218,0.00117652,-1.48446e-22
1.48055,0.439261,0.05,-0.00149269,0.00116602,-5.88687e-22
1.48055,0.442029,0.05,-0.00145935,0.00115227,-4.40471e-22
1.48055,0.444798,0.05,-0.00142929,0.00114272,-9.07066e-22
1.48055,0.447566,0.05,-0.00139784,0.00113134,-1.382e-21
1.48055,0.450335,0.05,-0.00136638,0.00111996,-1.85693e-21
1.48055,0.453103,0.05,-0.00132956,0.0011046,-2.74894e-21
1.48055,0.455871,0.05,-0.00129785,0.00109481,-3.06488e-21
1.48055,0.45864,0.05,-0.00126391,0.00108255,-2.40207e-21
1.48055,0.461408,0.05,-0.00122998,0.00107029,-1.73926e-21
1.48055,0.464176,0.05,-0.00118884,0.00105264,-7.01176e-23
1.48055,0.466945,0.05,-0.00115634,0.00104342,1.65038e-21
1.48055,0.469713,0.05,-0.00111979,0.00103029,1.66136e-21
1.48055,0.472482,0.05,-0.00108323,0.00101716,1.67233e-21
1.48055,0.47525,0.05,-0.00104093,0.00100009,5.9318e-22
1.48055,0.478018,0.05,-0.00100372,0.00098797,-1.47583e-21
1.48055,0.480787,0.05,-0.0009652,0.000974671,-1.92341e-21
1.48055,0.483555,0.05,-0.000925848,0.00096067,-2.13555e-21
1.48055,0.486324,0.05,-0.000885859,0.00094628,-2.24274e-21
1.48055,0.489092,0.05,-0.000837135,0.000926893,-3.05015e-22
1.48055,0.49186,0.05,-0.000799907,0.000915823,1.44213e-21
1.48055,0.494629,0.05,-0.000757563,0.000900956,2.10313e-21
1.48055,0.497397,0.05,-0.00071522,0.000886089,2.76413e-21
1.48055,0.500165,0.05,-0.000666711,0.000867816,2.42783e-21
1.48055,0.502934,0.05,-0.000620127,0.000851532,1.44803e-21
1.48055,0.505702,0.05,-0.000578137,0.000838154,1.02306e-21
1.48055,0.508471,0.05,-0.000532585,0.000822427,5.68483e-22
1.48055,0.511239,0.05,-0.000487033,0.0008067,1.13909e-22
1.48055,0.514007,0.05,-0.00043104,0.000785758,-5.5193e-23
1.48055,0.516776,0.05,-0.000384344,0.000770615,-4.89443e-23
1.48055,0.519544,0.05,-0.000338385,0.000755833,1.01052e-22
1.48055,0.522312,0.05,-0.000289388,0.000739256,3.17537e-22
1.48055,0.525081,0.05,-0.00024039,0.00072268,5.34022e-22
1.48055,0.527849,0.05,-0.000178658,0.000700332,1.1995e-21
1.48055,0.530618,0.05,-0.000128507,0.000684345,9.11032e-22
1.48055,0.533386,0.05,-7.97945e-05,0.000669054,6.79774e-22
1.48055,0.536154,0.05,-2.70945e-05,0.000651646,8.30602e-22
1.48055,0.538923,0.05,2.56055e-05,0.000634238,9.81429e-22
1.48055,0.541691,0.05,9.05092e-05,0.000611798,1.27461e-21
1.48055,0.544459,0.05,0.000148672,0.000592959,1.25715e-21
1.48055,0.547228,0.05,0.000198459,0.000578053,8.30324e-22
1.48055,0.549996,0.05,0.000255132,0.000559841,3.00432e-22
1.48055,0.552765,0.05,0.000311804,0.000541628,-2.2946e-22
1.48055,0.555533,0.05,0.000376383,0.000520443,-7.43304e-22
1.48055,0.558301,0.05,0.000448421,0.000496748,-1.04512e-21
1.48055,0.56107,0.05,0.000497669,0.000482859,-5.70579e-22
1.48055,0.563838,0.05,0.000558019,0.00046413,-5.34865e-22
1.48055,0.566606,0.05,0.000618938,0.000445154,-5.21604e-22
1.48055,0.569375,0.05,0.000679856,0.000426177,-5.08344e-22
1.48055,0.572143,0.05,0.000762251,0.000399829,-6.72158e-22
1.48055,0.574912,0.05,0.000824676,0.000381379,-6.0942e-22
1.48055,0.57768,0.05,0.000882148,0.000364855,-3.63329e-22
1.48055,0.580448,0.05,0.000947583,0.00034517,1.34142e-23
1.48055,0.583217,0.05,0.00101302,0.000325485,3.90158e-22
1.48055,0.585985,0.05,0.00108691,0.000303151,7.90879e-22
1.48055,0.588754,0.05,0.00117655,0.000275892,1.24278e-21
1.48055,0.591522,0.05,0.00123324,0.000260471,2.53956e-21
1.48055,0.59429,0.05,0.00129813,0.000242077,2.70826e-21
1.48055,0.597059,0.05,0.00136834,0.000221758,2.1463e-21
1.48055,0.599827,0.05,0.00143855,0.000201438,1.58434e-21
1.48055,0.602595,0.05,0.00152365,0.000176866,9.2573e-24
1.48055,0.605364,0.05,0.00161479,0.000150798,-2.40191e-21
1.48055,0.608132,0.05,0.0016756,0.000134706,-5.19121e-21
1.48055,0.610901,0.05,0.001746,0.000115443,-5.91039e-21
1.48055,0.613669,0.05,0.00182122,9.45815e-05,-5.58629e-21
1.48055,0.616437,0.05,0.00189645,7.37203e-05,-5.26219e-21
1.48055,0.619206,0.05,0.00198876,4.84212e-05,-3.05248e-21
1.48055,0.621974,0.05,0.00208775,2.15623e-05,3.37291e-22
1.48055,0.624742,0.05,0.00215294,4.8841e-06,3.61791e-21
1.48055,0.627511,0.05,0.00222636,-1.42831e-05,5.34798e-21
1.48055,0.630279,0.05,0.00230681,-3.55721e-05,5.75634e-21
1.48055,0.633048,0.05,0.00238725,-5.6861e-05,6.1647e-21
1.48055,0.635816,0.05,0.00248174,-8.14527e-05,5.19498e-21
1.48055,0.638584,0.05,0.00259165,-0.000109671,2.71228e-21
1.48055,0.641353,0.05,0.00266596,-0.000128074,3.05195e-22
1.48055,0.644121,0.05,0.00273944,-0.000146249,-1.67521e-21
1.48055,0.646889,0.05,0.00282526,-0.000167829,-2.25549e-21
1.48055,0.649658,0.05,0.00291107,-0.00018941,-2.83578e-21
1.48055,0.652426,0.05,0.00300178,-0.000212025,-3.16719e-21
1.48055,0.655195,0.05,0.00311842,-0.000240131,-2.17904e-21
1.48055,0.657963,0.05,0.00321484,-0.000263143,-1.3751e-21
1.48055,0.660731,0.05,0.00328946,-0.000280664,-7.69799e-22
1.48055,0.6635,0.05,0.00337627,-0.000301253,-3.30206e-22
1.48055,0.666268,0.05,0.00346755,-0.000322964,4.87299e-23
1.48055,0.669036,0.05,0.00355882,-0.000344676,4.27666e-22
1.48055,0.671805,0.05,0.00367104,-0.000370347,6.31022e-22
1.48055,0.674573,0.05,0.00379422,-0.000398091,7.42459e-22
1.48055,0.677342,0.05,0.00387868,-0.000416947,1.96471e-21
1.48055,0.68011,0.05,0.00395905,-0.000434863,3.24982e-21
1.48055,0.682878,0.05,0.00405578,-0.000456524,2.92246e-21
1.48055,0.685647,0.05,0.00415252,-0.000478186,2.59509e-21
1.48055,0.688415,0.05,0.00424925,-0.000499847,2.26773e-21
1.48055,0.691184,0.05,0.00437758,-0.000526783,4.94912e-22
1.48055,0.693952,0.05,0.00450219,-0.0005529,-1.4013e-21
1.48055,0.69672,0.05,0.0045868,-0.000570687,-3.92972e-21
1.48055,0.699489,0.05,0.00467437,-0.000589086,-6.03585e-21
1.48055,0.702257,0.05,0.00477646,-0.000610495,-6.06488e-21
1.48055,0.705025,0.05,0.00487855,-0.000631904,-6.0939e-21
1.48055,0.707794,0.05,0.00498366,-0.000653751,-5.87327e-21
1.48055,0.710562,0.05,0.00511869,-0.000679942,-3.17876e-21
1.48055,0.713331,0.05,0.00524757,-0.000704977,-4.55617e-22
1.48055,0.716099,0.05,0.00533721,-0.00072263,2.45023e-21
1.48055,0.718867,0.05,0.00542862,-0.000740614,5.08836e-21
1.48055,0.721636,0.05,0.00553583,-0.000761552,5.33614e-21
1.48055,0.724404,0.05,0.00564303,-0.000782489,5.58392e-21
1.48055,0.727172,0.05,0.0057511,-0.000803532,5.76491e-21
1.48055,0.729941,0.05,0.00589103,-0.000828511,3.46606e-21
1.48055,0.732709,0.05,0.00603097,-0.000853489,1.16721e-21
1.48055,0.735478,0.05,0.00612671,-0.000871011,-5.96628e-22
1.48055,0.738246,0.05,0.00622125,-0.000888328,-2.34587e-21
1.48055,0.741014,0.05,0.00633041,-0.000908097,-2.61053e-21
1.48055,0.743783,0.05,0.00644235,-0.000928332,-2.5925e-21
1.48055,0.746551,0.05,0.00655429,-0.000948568,-2.57446e-21
1.48055,0.749319,0.05,0.00669083,-0.000971302,-1.45808e-21
1.48055,0.752088,0.05,0.00683469,-0.000994781,-1.44171e-23
1.48055,0.754856,0.05,0.00695087,-0.0010141,4.58557e-22
1.48055,0.757625,0.05,0.00705006,-0.00103087,3.35419e-22
1.48055,0.760393,0.05,0.00715578,-0.00104862,2.67533e-22
1.48055,0.763161,0.05,0.00727191,-0.00106792,2.87426e-22
1.48055,0.76593,0.05,0.00738804,-0.00108721,3.07318e-22
1.48055,0.768698,0.05,0.00751402,-0.00110729,3.63114e-22
1.48055,0.771466,0.05,0.00766061,-0.001129,4.94042e-22
1.48055,0.774235,0.05,0.00780405,-0.00115029,6.06478e-22
1.48055,0.777003,0.05,0.00790746,-0.00116629,4.84726e-22
1.48055,0.779772,0.05,0.00801087,-0.00118229,3.62975e-22
1.48055,0.78254,0.05,0.00812624,-0.00119987,8.78257e-23
1.48055,0.785308,0.05,0.00824583,-0.001218,-2.41455e-22
1.48055,0.788077,0.05,0.00836542,-0.00123613,-5.70736e-22
1.48055,0.790845,0.05,0.00850439,-0.00125533,-9.63315e-22
1.48055,0.793614,0.05,0.00865229,-0.00127504,-1.38509e-21
1.48055,0.796382,0.05,0.00878655,-0.00129318,-1.52848e-21
1.48055,0.79915,0.05,0.0088936,-0.00130818,-1.11691e-21
1.48055,0.801919,0.05,0.00900066,-0.00132319,-7.05328e-22
1.48055,0.804687,0.05,0.00912127,-0.00133976,-4.59318e-22
1.48055,0.807455,0.05,0.00924342,-0.00135651,-2.31981e-22
1.48055,0.810224,0.05,0.00936557,-0.00137326,-4.64312e-24
1.48055,0.812992,0.05,0.00950944,-0.00139066,1.7289e-22
1.48055,0.815761,0.05,0.00965705,-0.00140817,3.41844e-22
1.48055,0.818529,0.05,0.0097895,-0.0014242,3.7642e-22
1.48055,0.821297,0.05,0.00989942,-0.00143801,2.11164e-22
1.48055,0.824066,0.05,0.0100093,-0.00145182,4.59088e-23
1.48055,0.826834,0.05,0.0101311,-0.00146681,1.02298e-22
1.48055,0.829602,0.05,0.0102547,-0.00148198,1.93256e-22
1.48055,0.832371,0.05,0.0103783,-0.00149716,2.84214e-22
1.48055,0.835139,0.05,0.0105202,-0.00151235,3.95673e-22
1.48055,0.837908,0.05,0.0106658,-0.00152754,5.11349e-22
1.48055,0.840676,0.05,0.010802,-0.00154197,5.63347e-22
1.48055,0.843444,0.05,0.0109138,-0.0015544,4.49604e-22
1.48055,0.846213,0.05,0.0110257,-0.00156684,3.35861e-22
1.48055,0.848981,0.05,0.0111452,-0.00157992,3.04803e-22
1.48055,0.851749,0.05,0.011269,-0.00159337,3.20437e-22
1.48055,0.854518,0.05,0.0113928,-0.00160681,3.36071e-22
1.48055,0.857286,0.05,0.0115277,-0.00161988,3.87624e-22
1.48055,0.860055,0.05,0.0116695,-0.0016327,4.61794e-22
1.48055,0.862823,0.05,0.0118113,-0.00164552,5.35965e-22
1.48055,0.865591,0.05,0.0119249,-0.0016565,1.37125e-21
1.48055,0.86836,0.05,0.0120375,-0.0016674,2.23735e-21
1.48055,0.871128,0.05,0.0121523,-0.00167846,2.88996e-21
1.48055,0.873896,0.05,0.012275,-0.00169008,2.79316e-21
1.48055,0.876665,0.05,0.0123977,-0.00170169,2.69636e-21
1.48055,0.879433,0.05,0.0125232,-0.00171308,2.45498e-21
1.48055,0.882202,0.05,0.0126595,-0.00172355,1.65706e-21
1.48055,0.88497,0.05,0.0127957,-0.00173402,8.5915e-22
1.48055,0.887738,0.05,0.012921,-0.00174394,-5.2678e-23
1.48055,0.890507,0.05,0.013033,-0.00175321,-1.10172e-21
1.48055,0.893275,0.05,0.013145,-0.00176248,-2.15077e-21
1.48055,0.896044,0.05,0.013262,-0.00177204,-2.63549e-21
1.48055,0.898812,0.05,0.0133821,-0.00178178,-2.76585e-21
1.48055,0.90158,0.05,0.0135023,-0.00179153,-2.89621e-21
1.48055,0.904349,0.05,0.0136279,-0.00180034,-2.60417e-21
1.48055,0.907117,0.05,0.0137571,-0.00180857,-2.03989e-21
1.48055,0.909885,0.05,0.0138862,-0.00181679,-1.47561e-21
1.48055,0.912654,0.05,0.0140009,-0.00182453,-1.08316e-21
1.48055,0.915422,0.05,0.014111,-0.00183212,-7.46038e-22
1.48055,0.918191,0.05,0.014221,-0.00183971,-4.0892e-22
1.48055,0.920959,0.05,0.014336,-0.00184754,-2.23537e-22
1.48055,0.923727,0.05,0.0144522,-0.00185542,-7.18072e-23
1.48055,0.926496,0.05,0.0145684,-0.0018633,7.99226e-23
1.48055,0.929264,0.05,0.0146883,-0.00186976,1.07608e-23
1.48055,0.932032,0.05,0.0148091,-0.00187591,-1.0674e-22
1.48055,0.934801,0.05,0.0149298,-0.00188205,-2.2424e-22
1.48055,0.937569,0.05,0.0150383,-0.00188801,-1.39186e-22
1.48055,0.940338,0.05,0.0151449,-0.00189393,-2.41504e-23
1.48055,0.943106,0.05,0.0152515,-0.00189986,9.08856e-23
1.48055,0.945874,0.05,0.0153617,-0.00190593,1.06037e-22
1.48055,0.948643,0.05,0.0154726,-0.00191202,1.01648e-22
1.48055,0.951411,0.05,0.0155835,-0.00191812,9.72598e-23
1.48055,0.954179,0.05,0.0156948,-0.0019227,2.39589e-22
1.48055,0.956948,0.05,0.0158062,-0.001927,4.08861e-22
1.48055,0.959716,0.05,0.0159176,-0.00193131,5.78133e-22
1.48055,0.962485,0.05,0.0160214,-0.00193564,4.79981e-22
1.48055,0.965253,0.05,0.0161233,-0.00193998,3.14816e-22
1.48055,0.968021,0.05,0.0162252,-0.00194432,1.4965e-22
1.48055,0.97079,0.05,0.0163288,-0.00194872,2.88959e-23
1.48055,0.973558,0.05,0.0164333,-0.00195317,-7.00291e-23
1.48055,0.976326,0.05,0.0165377,-0.00195761,-1.68954e-22
1.48055,0.979095,0.05,0.0166402,-0.00196088,-2.46758e-22
1.48055,0.981863,0.05,0.0167418,-0.00196361,-3.14768e-22
1.48055,0.984632,0.05,0.0168433,-0.00196634,-3.82779e-22
1.48055,0.9874,0.05,0.0169419,-0.00196915,-3.76593e-22
1.48055,0.990168,0.05,0.0170379,-0.00197203,-3.08323e-22
1.48055,0.992937,0.05,0.0171339,-0.00197492,-2.40052e-22
1.48055,0.995705,0.05,0.0172303,-0.00197783,-1.91415e-22
1.48055,0.998474,0.05,0.0173275,-0.0019808,-1.83835e-22
1.48055,1.00124,0.05,0.0174247,-0.00198377,-1.76256e-22
1.48055,1.00401,0.05,0.01752,-0.00198622,-1.91713e-22
1.48055,1.00678,0.05,0.0176116,-0.00198766,-2.52321e-22
1.48055,1.00955,0.05,0.0177032,-0.0019891,-3.12928e-22
1.48055,1.01232,0.05,0.0177945,-0.00199055,-3.60507e-22
1.48055,1.01508,0.05,0.0178837,-0.00199216,-3.00767e-22
1.48055,1.01785,0.05,0.017973,-0.00199376,-2.41027e-22
1.48055,1.02062,0.05,0.0180622,-0.00199536,-1.81287e-22
1.48055,1.02339,0.05,0.0181515,-0.00199705,-1.30083e-22
1.48055,1.02616,0.05,0.0182409,-0.00199876,-8.10314e-23
1.48055,1.02893,0.05,0.0183302,-0.00200047,-3.19796e-23
1.48055,1.03169,0.05,0.0184136,-0.00200114,-6.55758e-23
1.48055,1.03446,0.05,0.0184956,-0.00200156,-1.18379e-22
1.48055,1.03723,0.05,0.0185776,-0.00200198,-1.71181e-22
1.48055,1.04,0.05,0.0186596,-0.00200246,-3.32958e-22
1.48055,1.04277,0.05,0.0187415,-0.00200299,-6.06272e-22
1.48055,1.04554,0.05,0.0188234,-0.00200352,-8.79586e-22
1.48055,1.0483,0.05,0.0189053,-0.00200407,-1.12639e-21
1.48055,1.05107,0.05,0.0189866,-0.00200474,-1.13342e-21
1.48055,1.05384,0.05,0.0190679,-0.00200541,-1.14046e-21
1.48055,1.05661,0.05,0.0191483,-0.00200597,-1.11781e-21
1.48055,1.05938,0.05,0.0192213,-0.00200562,-8.47508e-22
1.48055,1.06215,0.05,0.0192943,-0.00200528,-5.77208e-22
1.48055,1.06491,0.05,0.0193673,-0.00200493,-3.06907e-22
1.48055,1.06768,0.05,0.0194413,-0.0020046,-1.88815e-22
1.48055,1.07045,0.05,0.0195158,-0.00200427,-1.3418e-22
1.48055,1.07322,0.05,0.0195902,-0.00200394,-7.95455e-23
1.48055,1.07599,0.05,0.0196644,-0.00200365,-3.16608e-23
1.48055,1.07876,0.05,0.0197378,-0.0020035,-6.35389e-24
1.48055,1.08152,0.05,0.0198112,-0.00200335,1.8953e-23
1.48055,1.08429,0.05,0.0198826,-0.00200303,3.84011e-23
1.48055,1.08706,0.05,0.0199475,-0.00200213,3.80278e-23
1.48055,1.08983,0.05,0.0200124,-0.00200123,3.76545e-23
1.48055,1.0926,0.05,0.0200773,-0.00200033,3.72812e-23
1.48055,1.09537,0.05,0.0201438,-0.00199937,2.56347e-22
1.48055,1.09814,0.05,0.0202108,-0.00199839,5.49769e-22
1.48055,1.1009,0.05,0.0202779,-0.0019974,8.43191e-22
1.48055,1.10367,0.05,0.0203447,-0.00199646,1.08054e-21
1.48055,1.10644,0.05,0.0204106,-0.00199569,1.08612e-21
1.48055,1.10921,0.05,0.0204765,-0.00199492,1.09169e-21
1.48055,1.11198,0.05,0.0205409,-0.00199405,1.05987e-21
1.48055,1.11475,0.05,0.0205986,-0.00199276,8.56131e-22
1.48055,1.11751,0.05,0.0206564,-0.00199147,6.52393e-22
1.48055,1.12028,0.05,0.0207141,-0.00199017,4.48656e-22
1.48055,1.12305,0.05,0.0207733,-0.00198878,3.15592e-22
1.48055,1.12582,0.05,0.0208335,-0.00198732,2.25486e-22
1.48055,1.12859,0.05,0.0208936,-0.00198587,1.35379e-22
1.48055,1.13136,0.05,0.0209537,-0.00198441,4.5273e-23
1.48055,1.13412,0.05,0.0210127,-0.00198319,8.48738e-23
1.48055,1.13689,0.05,0.0210717,-0.00198197,1.24708e-22
1.48055,1.13966,0.05,0.0211306,-0.00198074,1.64542e-22
1.48055,1.14243,0.05,0.0211825,-0.00197919,2.64523e-22
1.48055,1.1452,0.05,0.0212341,-0.00197762,3.66818e-22
1.48055,1.14797,0.05,0.0212857,-0.00197605,4.69114e-22
1.48055,1.15073,0.05,0.021338,-0.00197441,5.936e-22
1.48055,1.1535,0.05,0.0213918,-0.00197264,7.62006e-22
1.48055,1.15627,0.05,0.0214456,-0.00197086,9.30412e-22
1.48055,1.15904,0.05,0.0214994,-0.00196908,1.09882e-21
1.48055,1.16181,0.05,0.0215525,-0.00196746,1.13305e-21
1.48055,1.16458,0.05,0.0216053,-0.00196592,1.09361e-21
1.48055,1.16734,0.05,0.0216581,-0.00196438,1.05416e-21
1.48055,1.17011,0.05,0.0217072,-0.00196271,8.37583e-22
1.48055,1.17288,0.05,0.0217535,-0.00196095,4.95714e-22
1.48055,1.17565,0.05,0.0217999,-0.00195918,1.53845e-22
1.48055,1.17842,0.05,0.0218463,-0.00195742,-1.88024e-22
1.48055,1.18119,0.05,0.0218943,-0.00195546,-6.20002e-22
1.48055,1.18395,0.05,0.0219424,-0.00195347,-1.06276e-21
1.48055,1.18672,0.05,0.0219906,-0.00195149,-1.50552e-21
1.48055,1.18949,0.05,0.0220387,-0.00194953,-1.89272e-21
1.48055,1.19226,0.05,0.0220861,-0.00194778,-1.94519e-21
1.48055,1.19503,0.05,0.0221335,-0.00194603,-1.99766e-21
1.48055,1.1978,0.05,0.0221806,-0.00194426,-2.01953e-21
1.48055,1.20057,0.05,0.0222226,-0.00194236,-1.48602e-21
1.48055,1.20333,0.05,0.0222646,-0.00194045,-9.52521e-22
1.48055,1.2061,0.05,0.0223067,-0.00193854,-4.19019e-22
1.48055,1.20887,0.05,0.0223491,-0.00193658,2.27539e-23
1.48055,1.21164,0.05,0.0223924,-0.00193447,2.50551e-22
1.48055,1.21441,0.05,0.0224358,-0.00193236,4.78348e-22
1.48055,1.21718,0.05,0.0224791,-0.00193025,7.06145e-22
1.48055,1.21994,0.05,0.0225221,-0.00192825,8.46238e-22
1.48055,1.22271,0.05,0.0225649,-0.00192635,8.96692e-22
1.48055,1.22548,0.05,0.0226076,-0.00192445,9.47146e-22
1.48055,1.22825,0.05,0.0226488,-0.0019225,9.20265e-22
1.48055,1.23102,0.05,0.0226872,-0.00192048,7.60646e-22
1.48055,1.23379,0.05,0.0227256,-0.00191845,6.01027e-22
1.48055,1.23655,0.05,0.022764,-0.00191643,4.41407e-22
1.48055,1.23932,0.05,0.0228029,-0.00191432,3.23451e-22
1.48055,1.24209,0.05,0.022842,-0.00191214,2.37917e-22
1.48055,1.24486,0.05,0.0228812,-0.00190997,1.52382e-22
1.48055,1.24763,0.05,0.0229204,-0.00190779,6.68468e-23
1.48055,1.2504,0.05,0.0229593,-0.00190574,3.26527e-23
1.48055,1.25316,0.05,0.0229981,-0.00190374,1.9582e-23
1.48055,1.25593,0.05,0.0230369,-0.00190174,6.51139e-24
1.48055,1.2587,0.05,0.0230739,-0.00189967,-1.98938e-23
1.48055,1.26147,0.05,0.0231093,-0.00189753,-5.76795e-23
1.48055,1.26424,0.05,0.0231447,-0.0018954,-9.54653e-23
1.48055,1.26701,0.05,0.0231801,-0.00189327,-1.33251e-22
1.48055,1.26977,0.05,0.0232157,-0.00189109,-1.19721e-22
1.48055,1.27254,0.05,0.0232514,-0.00188887,-8.27639e-23
1.48055,1.27531,0.05,0.0232871,-0.00188666,-4.58064e-23
1.48055,1.27808,0.05,0.0233228,-0.00188445,-8.84898e-24
1.48055,1.28085,0.05,0.0233583,-0.00188234,-1.14558e-24
1.48055,1.28362,0.05,0.0233939,-0.00188026,-1.17494e-24
1.48055,1.28638,0.05,0.0234294,-0.00187819,-1.20429e-24
1.48055,1.28915,0.05,0.0234634,-0.00187602,-3.40638e-24
1.48055,1.29192,0.05,0.0234963,-0.00187379,-7.22752e-24
1.48055,1.29469,0.05,0.0235292,-0.00187156,-1.10487e-23
1.48055,1.29746,0.05,0.0235621,-0.00186933,-1.48698e-23
1.48055,1.30023,0.05,0.0235949,-0.0018671,-1.33384e-23
1.48055,1.303,0.05,0.0236277,-0.00186487,-9.28201e-24
1.48055,1.30576,0.05,0.0236605,-0.00186264,-5.22563e-24
1.48055,1.30853,0.05,0.0236933,-0.00186041,-1.16925e-24
1.48055,1.3113,0.05,0.023726,-0.00185824,-1.26684e-23
1.48055,1.31407,0.05,0.0237588,-0.00185611,-2.93808e-23
1.48055,1.31684,0.05,0.0237916,-0.00185397,-4.60932e-23
1.48055,1.31961,0.05,0.0238234,-0.00185174,-6.11202e-23
1.48055,1.32237,0.05,0.0238542,-0.00184941,-7.4289e-23
1.48055,1.32514,0.05,0.023885,-0.00184708,-8.74577e-23
1.48055,1.32791,0.05,0.0239158,-0.00184474,-1.00626e-22
1.48055,1.33068,0.05,0.0239463,-0.00184246,-9.91739e-23
1.48055,1.33345,0.05,0.0239766,-0.00184021,-8.56823e-23
1.48055,1.33622,0.05,0.024007,-0.00183796,-7.21907e-23
1.48055,1.33898,0.05,0.0240373,-0.00183572,-5.86991e-23
1.48055,1.34175,0.05,0.0240677,-0.0018335,-4.28516e-23
1.48055,1.34452,0.05,0.0240982,-0.00183131,-2.53683e-23
1.48055,1.34729,0.05,0.0241286,-0.00182911,-7.885e-24
1.48055,1.35006,0.05,0.0241587,-0.00182686,-4.42944e-24
1.48055,1.35283,0.05,0.0241877,-0.00182442,-4.19944e-23
1.48055,1.35559,0.05,0.0242167,-0.00182199,-7.95594e-23
1.48055,1.35836,0.05,0.0242457,-0.00181956,-1.17124e-22
1.48055,1.36113,0.05,0.0242745,-0.00181718,-1.32286e-22
1.48055,1.3639,0.05,0.0243028,-0.00181492,-9.54581e-23
1.48055,1.36667,0.05,0.024331,-0.00181266,-5.86301e-23
1.48055,1.36944,0.05,0.0243593,-0.0018104,-2.18021e-23
1.48055,1.3722,0.05,0.0243877,-0.00180815,7.6626e-24
1.48055,1.37497,0.05,0.0244162,-0.00180589,2.16558e-23
1.48055,1.37774,0.05,0.0244447,-0.00180364,3.5649e-23
1.48055,1.38051,0.05,0.0244732,-0.00180139,4.96422e-23
1.48055,1.38328,0.05,0.0245008,-0.00179888,6.47336e-23
1.48055,1.38605,0.05,0.0245282,-0.00179635,7.99222e-23
1.48055,1.38881,0.05,0.0245557,-0.00179381,9.51108e-23
1.48055,1.39158,0.05,0.0245831,-0.00179128,1.10299e-22
1.48055,1.39435,0.05,0.0246098,-0.00178899,9.71001e-23
1.48055,1.39712,0.05,0.0246363,-0.00178671,8.22733e-23
1.48055,1.39989,0.05,0.0246629,-0.00178443,6.74465e-23
1.48055,1.40266,0.05,0.0246895,-0.00178215,5.26197e-23
1.48055,1.40543,0.05,0.0247163,-0.00177984,1.83922e-24
1.48055,1.40819,0.05,0.0247432,-0.00177753,-5.06716e-23
1.48055,1.41096,0.05,0.02477,-0.00177522,-1.03183e-22
1.48055,1.41373,0.05,0.0247965,-0.00177276,-1.6094e-22
1.48055,1.4165,0.05,0.0248227,-0.00177013,-2.24489e-22
1.48055,1.41927,0.05,0.0248488,-0.00176749,-2.88037e-22
1.48055,1.42204,0.05,0.0248749,-0.00176486,-3.51586e-22
1.48055,1.4248,0.05,0.0249005,-0.00176239,-4.47511e-22
1.48055,1.42757,0.05,0.0249256,-0.00176009,-5.77019e-22
1.48055,1.43034,0.05,0.0249508,-0.00175779,-7.06528e-22
1.48055,1.43311,0.05,0.0249759,-0.00175549,-8.36036e-22
1.48055,1.43588,0.05,0.0250012,-0.00175315,-8.83624e-22
1.48055,1.43865,0.05,0.0250266,-0.00175078,-8.47204e-22
1.48055,1.44141,0.05,0.025052,-0.00174842,-8.10784e-22
1.48055,1.44418,0.05,0.0250775,-0.00174605,-7.74364e-22
1.48055,1.44695,0.05,0.0251024,-0.00174334,-5.92294e-22
1.48055,1.44972,0.05,0.0251273,-0.00174061,-3.99917e-22
1.48055,1.45249,0.05,0.0251523,-0.00173788,-2.0754e-22
1.48055,1.45526,0.05,0.0251772,-0.00173515,-1.51628e-23
1.48055,1.45802,0.05,0.0252011,-0.0017328,1.72968e-22
1.48055,1.46079,0.05,0.025225,-0.00173047,3.60853e-22
1.48055,1.46356,0.05,0.0252488,-0.00172815,5.48738e-22
1.48055,1.46633,0.05,0.0252727,-0.00172582,7.36623e-22
1.48055,1.4691,0.05,0.0252969,-0.0017234,7.82418e-22
1.48055,1.47187,0.05,0.0253211,-0.00172097,8.2079e-22
1.48055,1.47463,0.05,0.0253453,-0.00171854,8.59161e-22
1.48055,1.4774,0.05,0.0253693,-0.00171599,8.56462e-22
1.48055,1.48017,0.05,0.0253932,-0.00171317,7.59517e-22
1.48055,1.48294,0.05,0.025417,-0.00171034,6.62571e-22
1.48055,1.48571,0.05,0.0254409,-0.00170752,5.65625e-22
1.48055,1.48848,0.05,0.0254643,-0.00170484,4.71174e-22
1.48055,1.49124,0.05,0.0254871,-0.00170249,3.82061e-22
1.48055,1.49401,0.05,0.0255099,-0.00170013,2.92947e-22
1.48055,1.49678,0.05,0.0255326,-0.00169778,2.03833e-22
1.48055,1.49955,0.05,0.0255555,-0.00169538,1.32117e-22
1.48055,1.50232,0.05,0.0255786,-0.00169289,9.51963e-23
1.48055,1.50509,0.05,0.0256017,-0.0016904,5.82758e-23
1.48055,1.50786,0.05,0.0256248,-0.00168791,2.13553e-23
1.48055,1.51062,0.05,0.0256478,-0.00168517,7.16261e-24
1.48055,1.51339,0.05,0.0256706,-0.00168226,8.51601e-24
1.48055,1.51616,0.05,0.0256935,-0.00167935,9.8694e-24
1.48055,1.51893,0.05,0.0257163,-0.00167644,1.12228e-23
1.48055,1.5217,0.05,0.0257385,-0.00167385,1.0538e-23
1.48055,1.52447,0.05,0.0257603,-0.00167147,8.60462e-24
1.48055,1.52723,0.05,0.0257821,-0.00166908,6.67121e-24
1.48055,1.53,0.05,0.0258039,-0.0016667,4.7378e-24
1.48055,1.53277,0.05,0.0258259,-0.0016642,3.97649e-24
1.48055,1.53554,0.05,0.025848,-0.00166166,3.83988e-24
1.48055,1.53831,0.05,0.0258701,-0.00165911,3.70327e-24
1.48055,1.54108,0.05,0.0258922,-0.00165656,3.56666e-24
1.48055,1.54384,0.05,0.0259142,-0.00165365,-2.34003e-23
1.48055,1.54661,0.05,0.0259361,-0.00165066,-5.64624e-23
1.48055,1.54938,0.05,0.025958,-0.00164767,-8.95245e-23
1.48055,1.55215,0.05,0.02598,-0.00164468,-1.22587e-22
1.48055,1.55492,0.05,0.026001,-0.00164218,-1.00578e-22
1.48055,1.55769,0.05,0.0260219,-0.00163977,-6.96109e-23
1.48055,1.56045,0.05,0.0260428,-0.00163735,-3.86437e-23
1.48055,1.56322,0.05,0.0260638,-0.00163494,-7.67654e-24
1.48055,1.56599,0.05,0.0260849,-0.00163235,-5.22675e-24
1.48055,1.56876,0.05,0.0261062,-0.00162974,-5.34951e-24
1.48055,1.57153,0.05,0.0261274,-0.00162714,-5.47228e-24
1.48055,1.5743,0.05,0.0261486,-0.00162453,-5.59504e-24
1.48055,1.57706,0.05,0.0261696,-0.00162148,-4.41919e-24
1.48055,1.57983,0.05,0.0261907,-0.00161842,-3.21287e-24
1.48055,1.5826,0.05,0.0262118,-0.00161536,-2.00655e-24
1.48055,1.58537,0.05,0.0262328,-0.00161233,-8.52342e-25
1.48055,1.58814,0.05,0.0262529,-0.00160988,-7.14128e-25
1.48055,1.59091,0.05,0.026273,-0.00160743,-5.75914e-25
1.48055,1.59367,0.05,0.0262931,-0.00160498,-4.377e-25
1.48055,1.59644,0.05,0.0263132,-0.00160251,-2.96387e-24
1.48055,1.59921,0.05,0.0263336,-0.00159985,-2.20872e-23
1.48055,1.60198,0.05,0.0263539,-0.00159719,-4.12106e-23
1.48055,1.60475,0.05,0.0263743,-0.00159454,-6.0334e-23
1.48055,1.60752,0.05,0.0263947,-0.00159184,-8.13504e-23
1.48055,1.61029,0.05,0.0264149,-0.00158871,-1.21248e-22
1.48055,1.61305,0.05,0.0264352,-0.00158559,-1.61147e-22
1.48055,1.61582,0.05,0.0264554,-0.00158247,-2.01045e-22
1.48055,1.61859,0.05,0.0264755,-0.00157947,-2.56719e-22
1.48055,1.62136,0.05,0.0264948,-0.00157699,-3.76783e-22
1.48055,1.62413,0.05,0.0265141,-0.00157451,-4.96847e-22
1.48055,1.6269,0.05,0.0265335,-0.00157204,-6.16911e-22
1.48055,1.62966,0.05,0.0265529,-0.00156949,-6.89471e-22
1.48055,1.63243,0.05,0.0265725,-0.00156678,-6.63807e-22
1.48055,1.6352,0.05,0.0265921,-0.00156407,-6.38143e-22
1.48055,1.63797,0.05,0.0266116,-0.00156137,-6.12478e-22
1.48055,1.64074,0.05,0.0266312,-0.00155859,-5.59686e-22
1.48055,1.64351,0.05,0.0266506,-0.00155541,-3.72575e-22
1.48055,1.64627,0.05,0.0266701,-0.00155223,-1.85465e-22
1.48055,1.64904,0.05,0.0266895,-0.00154906,1.64464e-24
1.48055,1.65181,0.05,0.0267087,-0.00154609,2.20107e-22
1.48055,1.65458,0.05,0.0267273,-0.00154359,5.06761e-22
1.48055,1.65735,0.05,0.0267459,-0.00154108,7.93414e-22
1.48055,1.66012,0.05,0.0267645,-0.00153858,1.08007e-21
1.48055,1.66288,0.05,0.0267833,-0.00153595,1.22457e-21
1.48055,1.66565,0.05,0.0268021,-0.00153321,1.22161e-21
1.48055,1.66842,0.05,0.0268209,-0.00153046,1.21865e-21
1.48055,1.67119,0.05,0.0268398,-0.00152771,1.2157e-21
1.48055,1.67396,0.05,0.0268586,-0.00152486,1.1452e-21
1.48055,1.67673,0.05,0.0268772,-0.00152164,8.3394e-22
1.48055,1.67949,0.05,0.0268959,-0.00151842,5.22678e-22
1.48055,1.68226,0.05,0.0269146,-0.0015152,2.11416e-22
1.48055,1.68503,0.05,0.026933,-0.00151226,-9.87522e-23
1.48055,1.6878,0.05,0.0269509,-0.00150974,-4.07375e-22
1.48055,1.69057,0.05,0.0269688,-0.00150721,-7.15998e-22
1.48055,1.69334,0.05,0.0269868,-0.00150468,-1.02462e-21
1.48055,1.6961,0.05,0.0270048,-0.00150198,-1.15466e-21
1.48055,1.69887,0.05,0.0270229,-0.0014992,-1.18586e-21
1.48055,1.70164,0.05,0.027041,-0.00149641,-1.21706e-21
1.48055,1.70441,0.05,0.0270591,-0.00149362,-1.24826e-21
1.48055,1.70718,0.05,0.0270772,-0.00149072,-1.20985e-21
1.48055,1.70995,0.05,0.0270951,-0.00148746,-9.68807e-22
1.48055,1.71272,0.05,0.027113,-0.00148421,-7.27761e-22
1.48055,1.71548,0.05,0.027131,-0.00148095,-4.86714e-22
1.48055,1.71825,0.05,0.0271485,-0.00147805,-3.3305e-22
1.48055,1.72102,0.05,0.0271658,-0.0014755,-2.64662e-22
1.48055,1.72379,0.05,0.027183,-0.00147295,-1.96274e-22
1.48055,1.72656,0.05,0.0272003,-0.0014704,-1.27886e-22
1.48055,1.72933,0.05,0.0272176,-0.00146764,-8.08608e-23
1.48055,1.73209,0.05,0.027235,-0.00146482,-3.93264e-23
1.48055,1.73486,0.05,0.0272524,-0.001462,2.20803e-24
1.48055,1.73763,0.05,0.0272698,-0.00145918,4.37424e-23
1.48055,1.7404,0.05,0.0272872,-0.00145623,8.88931e-23
1.48055,1.74317,0.05,0.0273044,-0.00145295,1.42919e-22