x,y,z,U_0,U_1,U_2
1.08573,0.522747,0.05,0,0,0
1.08573,0.525263,0.05,-0.000455419,0.00030087,-1.88466e-20
1.08573,0.527779,0.05,-0.000792036,0.000523453,4.04062e-21
1.08573,0.530294,0.05,-0.00102539,0.00067887,7.01659e-21
1.08573,0.53281,0.05,-0.00119298,0.000791199,8.41192e-21
1.08573,0.535326,0.05,-0.00131724,0.00087514,7.76265e-21
1.08573,0.537842,0.05,-0.00140477,0.000934978,5.44521e-21
1.08573,0.540357,0.05,-0.00146615,0.00097795,6.00994e-22
1.08573,0.542873,0.05,-0.00151705,0.00101415,-6.15848e-21
1.08573,0.545389,0.05,-0.00155214,0.00104012,-6.81248e-21
1.08573,0.547905,0.05,-0.00157972,0.00106142,-1.35576e-21
1.08573,0.55042,0.05,-0.00160094,0.0010786,2.36009e-21
1.08573,0.552936,0.05,-0.00161444,0.00109107,1.68485e-21
1.08573,0.555452,0.05,-0.00162562,0.001102,2.86594e-21
1.08573,0.557968,0.05,-0.00162983,0.00110877,4.85397e-21
1.08573,0.560484,0.05,-0.00163336,0.00111504,4.9402e-21
1.08573,0.562999,0.05,-0.00163093,0.00111786,-1.10203e-21
1.08573,0.565515,0.05,-0.0016283,0.00112048,-4.47237e-21
1.08573,0.568031,0.05,-0.00162081,0.00112039,-2.83622e-21
1.08573,0.570547,0.05,-0.00161304,0.00112005,-2.61474e-21
1.08573,0.573062,0.05,-0.0016015,0.00111771,-4.31623e-21
1.08573,0.575578,0.05,-0.00158923,0.00111488,-4.37801e-21
1.08573,0.578094,0.05,-0.00157436,0.00111076,-2.39066e-21
1.08573,0.58061,0.05,-0.001558,0.00110576,-9.19884e-22
1.08573,0.583125,0.05,-0.00153845,0.00109931,5.29444e-22
1.08573,0.585641,0.05,-0.00152016,0.00109326,2.85341e-21
1.08573,0.588157,0.05,-0.00149999,0.00108634,3.85581e-21
1.08573,0.590673,0.05,-0.00147629,0.00107779,2.24793e-21
1.08573,0.593189,0.05,-0.00145246,0.00106911,1.83678e-21
1.08573,0.595704,0.05,-0.00142475,0.00105873,1.44204e-21
1.08573,0.59822,0.05,-0.00139945,0.00104937,-1.39918e-22
1.08573,0.600736,0.05,-0.00137201,0.00103905,7.87634e-23
1.08573,0.603252,0.05,-0.00134131,0.00102735,5.63716e-21
1.08573,0.605767,0.05,-0.00131024,0.00101548,5.05151e-21
1.08573,0.608283,0.05,-0.00127917,0.00100361,4.46587e-21
1.08573,0.610799,0.05,-0.00124363,0.000989916,-1.55971e-21
1.08573,0.613315,0.05,-0.00120885,0.000976548,-2.73105e-21
1.08573,0.61583,0.05,-0.00117407,0.000963179,-3.90239e-21
1.08573,0.618346,0.05,-0.00113389,0.000947709,-2.11312e-21
1.08573,0.620862,0.05,-0.00109527,0.000932882,-1.93572e-21
1.08573,0.623378,0.05,-0.00105664,0.000918055,-1.75832e-21
1.08573,0.625894,0.05,-0.00101203,0.000901,-1.57259e-21
1.08573,0.628409,0.05,-0.000969378,0.000884742,-1.00385e-21
1.08573,0.630925,0.05,-0.000926726,0.000868483,-4.35107e-22
1.08573,0.633441,0.05,-0.000877898,0.000850019,-2.25671e-21
1.08573,0.635957,0.05,-0.000830992,0.000832349,-1.59695e-21
1.08573,0.638472,0.05,-0.000784085,0.00081468,-9.37186e-22
1.08573,0.640988,0.05,-0.000726576,0.000793269,2.7114e-21
1.08573,0.643504,0.05,-0.000679892,0.000775912,3.3324e-21
1.08573,0.64602,0.05,-0.000628467,0.000756847,2.98315e-21
1.08573,0.648535,0.05,-0.000570119,0.00073541,1.82651e-21
1.08573,0.651051,0.05,-0.000515883,0.000715628,1.0042e-21
1.08573,0.653567,0.05,-0.000459637,0.000695182,2.18374e-21
1.08573,0.656083,0.05,-0.000403391,0.000674736,3.36327e-21
1.08573,0.658599,0.05,-0.000334728,0.000650346,5.64197e-21
1.08573,0.661114,0.05,-0.000277416,0.000629888,5.57111e-21
1.08573,0.66363,0.05,-0.000216015,0.000608078,4.98789e-21
1.08573,0.666146,0.05,-0.0001538,0.000586015,4.36479e-21
1.08573,0.668662,0.05,-8.17261e-05,0.000561175,1.64684e-21
1.08573,0.671177,0.05,-1.48159e-05,0.000538029,-2.99427e-22
1.08573,0.673693,0.05,5.20943e-05,0.000514883,-2.24569e-21
1.08573,0.676209,0.05,0.000135471,0.000486854,-4.21574e-21
1.08573,0.678725,0.05,0.000200153,0.000464824,-6.01353e-21
1.08573,0.68124,0.05,0.000272933,0.000440385,-5.52404e-21
1.08573,0.683756,0.05,0.000345713,0.000415946,-5.03455e-21
1.08573,0.686272,0.05,0.000442942,0.000384634,-3.25456e-21
1.08573,0.688788,0.05,0.000507663,0.000363039,-1.58426e-21
1.08573,0.691304,0.05,0.000586666,0.00033737,-2.34949e-22
1.08573,0.693819,0.05,0.000665669,0.000311701,1.11436e-21
1.08573,0.696335,0.05,0.000766968,0.000280113,2.47653e-21
1.08573,0.698851,0.05,0.000841417,0.000256298,4.37092e-21
1.08573,0.701367,0.05,0.00092697,0.000229489,3.13081e-21
1.08573,0.703882,0.05,0.00101252,0.00020268,1.8907e-21
1.08573,0.706398,0.05,0.00110574,0.000173958,1.29089e-22
1.08573,0.708914,0.05,0.00120173,0.000145153,-7.52962e-21
1.08573,0.71143,0.05,0.00129412,0.000117324,-7.11636e-21
1.08573,0.713945,0.05,0.00138651,8.94942e-05,-6.70311e-21
1.08573,0.716461,0.05,0.0014789,6.16646e-05,-6.28985e-21
1.08573,0.718977,0.05,0.00160807,2.54865e-05,2.63492e-22
1.08573,0.721493,0.05,0.00168804,1.52584e-06,2.54824e-21
1.08573,0.724009,0.05,0.00178749,-2.71721e-05,2.79679e-21
1.08573,0.726524,0.05,0.00188694,-5.587e-05,3.04534e-21
1.08573,0.72904,0.05,0.00200763,-8.91965e-05,2.17194e-21
1.08573,0.731556,0.05,0.00210833,-0.000117212,2.95249e-22
1.08573,0.734072,0.05,0.00221498,-0.000146593,3.49488e-22
1.08573,0.736587,0.05,0.00232164,-0.000175975,4.03726e-22
1.08573,0.739103,0.05,0.00242829,-0.000205356,4.57965e-22
1.08573,0.741619,0.05,0.00258704,-0.000245246,1.33111e-21
1.08573,0.744135,0.05,0.00266809,-0.000268032,3.45206e-21
1.08573,0.74665,0.05,0.00278199,-0.000297878,3.26572e-21
1.08573,0.749166,0.05,0.00289589,-0.000327724,3.07937e-21
1.08573,0.751682,0.05,0.00300979,-0.00035757,2.89303e-21
1.08573,0.754198,0.05,0.00317765,-0.000397195,-1.58245e-21
1.08573,0.756713,0.05,0.00326669,-0.000420832,-6.71128e-21
1.08573,0.759229,0.05,0.00338776,-0.000450891,-7.28337e-21
1.08573,0.761745,0.05,0.00350882,-0.00048095,-7.85547e-21
1.08573,0.764261,0.05,0.00362989,-0.000511009,-8.42756e-21
1.08573,0.766777,0.05,0.00380942,-0.00055071,-2.99109e-21
1.08573,0.769292,0.05,0.00390216,-0.000574139,1.39328e-21
1.08573,0.771808,0.05,0.00403017,-0.00060413,2.55594e-21
1.08573,0.774324,0.05,0.00415817,-0.000634121,3.71861e-21
1.08573,0.77684,0.05,0.00428618,-0.000664111,4.88127e-21
1.08573,0.779355,0.05,0.00446867,-0.000702285,2.89043e-21
1.08573,0.781871,0.05,0.00457177,-0.000726467,2.00302e-21
1.08573,0.784387,0.05,0.00470631,-0.000756082,1.46058e-21
1.08573,0.786903,0.05,0.00484085,-0.000785698,9.18134e-22
1.08573,0.789418,0.05,0.00497539,-0.000815313,3.75692e-22
1.08573,0.791934,0.05,0.00513476,-0.00084819,-1.7536e-23
1.08573,0.79445,0.05,0.00528653,-0.00087863,-1.18859e-23
1.08573,0.796966,0.05,0.00541256,-0.000905283,3.05728e-22
1.08573,0.799482,0.05,0.00555304,-0.000934198,7.32408e-22
1.08573,0.801997,0.05,0.00569353,-0.000963113,1.15909e-21
1.08573,0.804513,0.05,0.00583402,-0.000992028,1.58577e-21
1.08573,0.807029,0.05,0.00603771,-0.00102796,2.50408e-21
1.08573,0.809545,0.05,0.0061447,-0.00105038,1.72333e-21
1.08573,0.81206,0.05,0.00629035,-0.00107826,2.1465e-21
1.08573,0.814576,0.05,0.00643599,-0.00110614,2.56967e-21
1.08573,0.817092,0.05,0.00658163,-0.00113402,2.99284e-21
1.08573,0.819608,0.05,0.00673617,-0.00116269,3.53042e-21
1.08573,0.822123,0.05,0.00692521,-0.00119354,5.16497e-21
1.08573,0.824639,0.05,0.00704793,-0.00121669,6.11053e-21
1.08573,0.827155,0.05,0.00719774,-0.0012432,4.54234e-21
1.08573,0.829671,0.05,0.00734755,-0.00126971,2.97415e-21
1.08573,0.832187,0.05,0.00749735,-0.00129622,1.40596e-21
1.08573,0.834702,0.05,0.00766454,-0.00132381,-9.69076e-22
1.08573,0.837218,0.05,0.00784247,-0.00135079,-4.88338e-21
1.08573,0.839734,0.05,0.00797358,-0.0013733,-6.52043e-21
1.08573,0.84225,0.05,0.00812635,-0.00139813,-6.57866e-21
1.08573,0.844765,0.05,0.00827913,-0.00142295,-6.63688e-21
1.08573,0.847281,0.05,0.0084319,-0.00144777,-6.69511e-21
1.08573,0.849797,0.05,0.00859765,-0.00147299,-6.18041e-21
1.08573,0.852313,0.05,0.00878079,-0.00149767,-4.15308e-21
1.08573,0.854828,0.05,0.00891279,-0.00151858,-2.96888e-21
1.08573,0.857344,0.05,0.00906715,-0.00154143,-1.85146e-21
1.08573,0.85986,0.05,0.00922151,-0.00156427,-7.34029e-22
1.08573,0.862376,0.05,0.00937588,-0.00158711,3.83398e-22
1.08573,0.864892,0.05,0.00953118,-0.00160994,1.47453e-21
1.08573,0.867407,0.05,0.00972807,-0.00163224,1.36614e-21
1.08573,0.869923,0.05,0.00985674,-0.00165126,1.47207e-21
1.08573,0.872439,0.05,0.0100108,-0.00167186,7.99721e-22
1.08573,0.874955,0.05,0.0101653,-0.00169247,1.17457e-22
1.08573,0.87747,0.05,0.0103197,-0.00171308,-5.64806e-22
1.08573,0.879986,0.05,0.0104741,-0.0017337,-1.24707e-21
1.08573,0.882502,0.05,0.010649,-0.00175285,-2.02962e-21
1.08573,0.885018,0.05,0.0108054,-0.00177073,-1.92431e-21
1.08573,0.887533,0.05,0.0109483,-0.00178862,-1.17147e-21
1.08573,0.890049,0.05,0.0111012,-0.00180681,-4.83115e-22
1.08573,0.892565,0.05,0.011254,-0.00182501,2.05239e-22
1.08573,0.895081,0.05,0.0114069,-0.0018432,8.93593e-22
1.08573,0.897597,0.05,0.0115604,-0.00186127,1.59821e-21
1.08573,0.900112,0.05,0.0117351,-0.00187555,2.82207e-21
1.08573,0.902628,0.05,0.0118738,-0.00189132,1.79884e-21
1.08573,0.905144,0.05,0.0120207,-0.00190701,1.51504e-21
1.08573,0.90766,0.05,0.0121704,-0.00192265,1.45367e-21
1.08573,0.910175,0.05,0.01232,-0.0019383,1.3923e-21
1.08573,0.912691,0.05,0.0124696,-0.00195395,1.33094e-21
1.08573,0.915207,0.05,0.012622,-0.00196832,1.37684e-21
1.08573,0.917723,0.05,0.0127802,-0.00197924,1.66461e-21
1.08573,0.920238,0.05,0.0129171,-0.00199312,1.30762e-21
1.08573,0.922754,0.05,0.0130613,-0.00200624,7.60011e-22
1.08573,0.92527,0.05,0.013206,-0.00201929,1.96606e-22
1.08573,0.927786,0.05,0.0133508,-0.00203234,-3.66799e-22
1.08573,0.930302,0.05,0.0134956,-0.0020454,-9.30204e-22
1.08573,0.932817,0.05,0.0136407,-0.00205681,-1.54927e-21
1.08573,0.935333,0.05,0.0137859,-0.00206443,-2.17925e-21
1.08573,0.937849,0.05,0.0139213,-0.00207614,-1.44247e-21
1.08573,0.940365,0.05,0.0140592,-0.00208681,-1.09464e-21
1.08573,0.94288,0.05,0.0141977,-0.0020973,-8.13361e-22
1.08573,0.945396,0.05,0.0143361,-0.00210779,-5.32082e-22
1.08573,0.947912,0.05,0.0144745,-0.00211829,-2.50803e-22
1.08573,0.950428,0.05,0.014612,-0.00212804,9.02415e-23
1.08573,0.952943,0.05,0.0147434,-0.00213238,8.70052e-22
1.08573,0.955459,0.05,0.014875,-0.0021412,3.09757e-22
1.08573,0.957975,0.05,0.0150062,-0.00214982,2.68914e-24
1.08573,0.960491,0.05,0.0151369,-0.00215786,2.58314e-24
1.08573,0.963007,0.05,0.0152677,-0.0021659,2.47713e-24
1.08573,0.965522,0.05,0.0153984,-0.00217394,2.37113e-24
1.08573,0.968038,0.05,0.0155292,-0.00218199,2.26512e-24
1.08573,0.970554,0.05,0.0156494,-0.00218535,2.88746e-23
1.08573,0.97307,0.05,0.0157707,-0.00218976,2.9806e-23
1.08573,0.975585,0.05,0.0158961,-0.00219679,-2.58994e-24
1.08573,0.978101,0.05,0.0160181,-0.00220256,-2.61362e-24
1.08573,0.980617,0.05,0.0161402,-0.00220834,-2.6373e-24
1.08573,0.983133,0.05,0.0162623,-0.00221411,-2.66098e-24
1.08573,0.985648,0.05,0.0163844,-0.00221989,-2.68466e-24
1.08573,0.988164,0.05,0.0165025,-0.00222443,-8.09104e-23
1.08573,0.99068,0.05,0.016606,-0.00222442,-4.48107e-22
1.08573,0.993196,0.05,0.0167225,-0.00222885,-1.85508e-22
1.08573,0.995712,0.05,0.0168382,-0.0022333,-1.33738e-22
1.08573,0.998227,0.05,0.0169509,-0.00223705,-4.08207e-22
1.08573,1.00074,0.05,0.0170636,-0.00224079,-6.82677e-22
1.08573,1.00326,0.05,0.0171763,-0.00224454,-9.57146e-22
1.08573,1.00577,0.05,0.017289,-0.00224828,-1.23162e-21
1.08573,1.00829,0.05,0.0173917,-0.00224959,-1.6503e-21
1.08573,1.01081,0.05,0.0174842,-0.00224845,-2.31529e-21
1.08573,1.01332,0.05,0.0175941,-0.00225164,-4.02314e-21
1.08573,1.01584,0.05,0.0176995,-0.00225406,-4.64449e-21
1.08573,1.01835,0.05,0.0178025,-0.00225606,-4.64978e-21
1.08573,1.02087,0.05,0.0179055,-0.00225806,-4.65508e-21
1.08573,1.02338,0.05,0.0180085,-0.00226005,-4.66038e-21
1.08573,1.0259,0.05,0.0181114,-0.00226205,-4.66567e-21
1.08573,1.02842,0.05,0.0182025,-0.00226166,-3.61427e-21
1.08573,1.03093,0.05,0.0182845,-0.00225944,-1.56827e-21
1.08573,1.03345,0.05,0.0183848,-0.00226097,8.51643e-22
1.08573,1.03596,0.05,0.018481,-0.00226191,2.159e-21
1.08573,1.03848,0.05,0.0185742,-0.00226245,2.715e-21
1.08573,1.041,0.05,0.0186675,-0.00226299,3.271e-21
1.08573,1.04351,0.05,0.0187608,-0.00226354,3.827e-21
1.08573,1.04603,0.05,0.018854,-0.00226408,4.383e-21
1.08573,1.04854,0.05,0.0189387,-0.00226315,3.99751e-21
1.08573,1.05106,0.05,0.0190096,-0.00225985,2.10109e-21
1.08573,1.05357,0.05,0.0190981,-0.00225965,1.66509e-21
1.08573,1.05609,0.05,0.0191863,-0.00225954,1.47207e-21
1.08573,1.05861,0.05,0.0192702,-0.00225892,1.39709e-21
1.08573,1.06112,0.05,0.0193541,-0.0022583,1.3221e-21
1.08573,1.06364,0.05,0.019438,-0.00225768,1.24711e-21
1.08573,1.06615,0.05,0.0195218,-0.00225706,1.17213e-21
1.08573,1.06867,0.05,0.0196047,-0.00225629,1.10933e-21
1.08573,1.07118,0.05,0.0196677,-0.00225249,1.29014e-21
1.08573,1.0737,0.05,0.0197398,-0.00225018,1.28907e-21
1.08573,1.07622,0.05,0.0198209,-0.0022493,1.11203e-21
1.08573,1.07873,0.05,0.0198964,-0.00224784,9.11021e-22
1.08573,1.08125,0.05,0.0199715,-0.00224633,7.08183e-22
1.08573,1.08376,0.05,0.0200466,-0.00224482,5.05346e-22
1.08573,1.08628,0.05,0.0201217,-0.00224331,3.02509e-22
1.08573,1.08879,0.05,0.0201968,-0.0022418,9.96714e-23
1.08573,1.09131,0.05,0.0202622,-0.00223894,1.48732e-22
1.08573,1.09383,0.05,0.0203185,-0.00223482,4.35037e-22
1.08573,1.09634,0.05,0.0203895,-0.002233,1.95445e-22
1.08573,1.09886,0.05,0.02046,-0.00223119,4.01377e-25
1.08573,1.10137,0.05,0.0205271,-0.00222903,3.14562e-25
1.08573,1.10389,0.05,0.0205942,-0.00222686,2.27747e-25
1.08573,1.10641,0.05,0.0206612,-0.0022247,1.40932e-25
1.08573,1.10892,0.05,0.0207283,-0.00222253,5.4117e-26
1.08573,1.11144,0.05,0.0207954,-0.00222037,-3.26979e-26
1.08573,1.11395,0.05,0.0208497,-0.0022165,-5.87461e-26
1.08573,1.11647,0.05,0.0209026,-0.0022125,-6.53683e-26
1.08573,1.11898,0.05,0.0209664,-0.00221032,-5.60211e-26
1.08573,1.1215,0.05,0.0210284,-0.00220793,-9.96594e-23
1.08573,1.12402,0.05,0.0210883,-0.0022053,-3.05418e-22
1.08573,1.12653,0.05,0.0211482,-0.00220268,-5.11177e-22
1.08573,1.12905,0.05,0.0212081,-0.00220005,-7.16936e-22
1.08573,1.13156,0.05,0.021268,-0.00219742,-9.22695e-22
1.08573,1.13408,0.05,0.0213279,-0.00219479,-1.12845e-21
1.08573,1.13659,0.05,0.0213761,-0.00219057,-1.53335e-21
1.08573,1.13911,0.05,0.0214245,-0.00218645,-2.12806e-21
1.08573,1.14163,0.05,0.021481,-0.00218395,-3.40981e-21
1.08573,1.14414,0.05,0.0215362,-0.00218123,-3.90887e-21
1.08573,1.14666,0.05,0.0215899,-0.00217829,-3.53573e-21
1.08573,1.14917,0.05,0.0216435,-0.00217535,-3.16258e-21
1.08573,1.15169,0.05,0.0216972,-0.00217241,-2.78943e-21
1.08573,1.1542,0.05,0.0217508,-0.00216947,-2.41628e-21
1.08573,1.15672,0.05,0.0218045,-0.00216653,-2.04314e-21
1.08573,1.15924,0.05,0.02185,-0.00216235,-5.41434e-22
1.08573,1.16175,0.05,0.0218929,-0.0021578,1.37757e-21
1.08573,1.16427,0.05,0.0219432,-0.00215511,4.45558e-21
1.08573,1.16678,0.05,0.0219929,-0.00215229,6.66767e-21
1.08573,1.1693,0.05,0.0220412,-0.00214914,6.55504e-21
1.08573,1.17182,0.05,0.0220894,-0.00214599,6.44241e-21
1.08573,1.17433,0.05,0.0221377,-0.00214284,6.32978e-21
1.08573,1.17685,0.05,0.022186,-0.0021397,6.21715e-21
1.08573,1.17936,0.05,0.0222342,-0.00213655,6.10451e-21
1.08573,1.18188,0.05,0.0222787,-0.00213272,4.7148e-21
1.08573,1.18439,0.05,0.0223184,-0.00212802,1.678e-21
1.08573,1.18691,0.05,0.0223616,-0.00212462,-4.93649e-22
1.08573,1.18943,0.05,0.0224065,-0.00212184,-2.25344e-21
1.08573,1.19194,0.05,0.0224504,-0.00211861,-2.6775e-21
1.08573,1.19446,0.05,0.0224941,-0.00211533,-2.92196e-21
1.08573,1.19697,0.05,0.0225378,-0.00211204,-3.16642e-21
1.08573,1.19949,0.05,0.0225815,-0.00210876,-3.41088e-21
1.08573,1.202,0.05,0.0226252,-0.00210548,-3.65534e-21
1.08573,1.20452,0.05,0.0226689,-0.00210219,-3.89981e-21
1.08573,1.20704,0.05,0.0227063,-0.00209749,-2.70135e-21
1.08573,1.20955,0.05,0.0227439,-0.00209297,-1.55285e-21
1.08573,1.21207,0.05,0.0227843,-0.00209016,-1.30273e-21
1.08573,1.21458,0.05,0.0228246,-0.00208718,-1.0018e-21
1.08573,1.2171,0.05,0.0228644,-0.00208381,-5.85442e-22
1.08573,1.21961,0.05,0.0229043,-0.00208043,-1.69082e-22
1.08573,1.22213,0.05,0.0229441,-0.00207706,2.47279e-22
1.08573,1.22465,0.05,0.0229839,-0.00207369,6.6364e-22
1.08573,1.22716,0.05,0.0230238,-0.00207032,1.08e-21
1.08573,1.22968,0.05,0.0230623,-0.00206656,1.4482e-21
1.08573,1.23219,0.05,0.0230972,-0.00206167,1.67302e-21
1.08573,1.23471,0.05,0.0231328,-0.00205764,1.71249e-21
1.08573,1.23723,0.05,0.0231695,-0.00205483,1.49217e-21
1.08573,1.23974,0.05,0.0232061,-0.00205168,1.26679e-21
1.08573,1.24226,0.05,0.0232427,-0.00204825,1.0372e-21
1.08573,1.24477,0.05,0.0232793,-0.00204481,8.07622e-22
1.08573,1.24729,0.05,0.0233159,-0.00204138,5.7804e-22
1.08573,1.2498,0.05,0.0233525,-0.00203794,3.48457e-22
1.08573,1.25232,0.05,0.0233891,-0.00203451,1.18875e-22
1.08573,1.25484,0.05,0.0234243,-0.00203048,1.49139e-23
1.08573,1.25735,0.05,0.0234572,-0.0020255,1.15237e-22
1.08573,1.25987,0.05,0.0234905,-0.00202164,1.13736e-22
1.08573,1.26238,0.05,0.0235241,-0.00201885,1.48488e-23
1.08573,1.2649,0.05,0.0235579,-0.00201563,-1.53128e-23
1.08573,1.26741,0.05,0.0235917,-0.00201215,-1.21868e-24
1.08573,1.26993,0.05,0.0236256,-0.00200867,1.28754e-23
1.08573,1.27245,0.05,0.0236595,-0.00200518,2.69695e-23
1.08573,1.27496,0.05,0.0236933,-0.0020017,4.10636e-23
1.08573,1.27748,0.05,0.0237272,-0.00199822,5.51577e-23
1.08573,1.27999,0.05,0.0237602,-0.00199421,9.64824e-23
1.08573,1.28251,0.05,0.0237913,-0.00198914,1.93279e-22
1.08573,1.28502,0.05,0.0238225,-0.00198505,4.89543e-22
1.08573,1.28754,0.05,0.0238535,-0.00198228,1.053e-21
1.08573,1.29006,0.05,0.0238849,-0.00197914,1.29944e-21
1.08573,1.29257,0.05,0.0239164,-0.00197561,1.22103e-21
1.08573,1.29509,0.05,0.023948,-0.00197209,1.14262e-21
1.08573,1.2976,0.05,0.0239795,-0.00196856,1.06421e-21
1.08573,1.30012,0.05,0.0240111,-0.00196504,9.85803e-22
1.08573,1.30264,0.05,0.0240426,-0.00196151,9.07393e-22
1.08573,1.30515,0.05,0.024074,-0.00195782,7.54528e-22
1.08573,1.30767,0.05,0.0241036,-0.00195268,-6.20092e-23
1.08573,1.31018,0.05,0.0241332,-0.00194794,-9.29008e-22
1.08573,1.3127,0.05,0.0241621,-0.00194518,-2.04332e-21
1.08573,1.31521,0.05,0.0241912,-0.00194226,-2.91625e-21
1.08573,1.31773,0.05,0.0242208,-0.00193869,-2.86966e-21
1.08573,1.32025,0.05,0.0242503,-0.00193513,-2.82308e-21
1.08573,1.32276,0.05,0.0242799,-0.00193157,-2.7765e-21
1.08573,1.32528,0.05,0.0243095,-0.001928,-2.72992e-21
1.08573,1.32779,0.05,0.0243391,-0.00192444,-2.68333e-21
1.08573,1.33031,0.05,0.0243687,-0.00192088,-2.63675e-21
1.08573,1.33282,0.05,0.0243973,-0.00191616,-1.73919e-21
1.08573,1.33534,0.05,0.0244256,-0.00191095,-4.77127e-22
1.08573,1.33786,0.05,0.024453,-0.00190757,3.08927e-22
1.08573,1.34037,0.05,0.0244802,-0.00190482,9.29355e-22
1.08573,1.34289,0.05,0.0245079,-0.00190143,1.09932e-21
1.08573,1.3454,0.05,0.0245358,-0.00189783,1.12326e-21
1.08573,1.34792,0.05,0.0245637,-0.00189423,1.14721e-21
1.08573,1.35043,0.05,0.0245916,-0.00189064,1.17115e-21
1.08573,1.35295,0.05,0.0246194,-0.00188704,1.19509e-21
1.08573,1.35547,0.05,0.0246473,-0.00188344,1.21903e-21
1.08573,1.35798,0.05,0.0246751,-0.00187962,1.14895e-21
1.08573,1.3605,0.05,0.024702,-0.00187436,4.60914e-22
1.08573,1.36301,0.05,0.0247288,-0.00186948,-2.0157e-22
1.08573,1.36553,0.05,0.0247544,-0.00186673,-7.1908e-22
1.08573,1.36805,0.05,0.0247801,-0.00186386,-1.17342e-21
1.08573,1.37056,0.05,0.0248065,-0.00186023,-1.2431e-21
1.08573,1.37308,0.05,0.0248329,-0.0018566,-1.31277e-21
1.08573,1.37559,0.05,0.0248594,-0.00185297,-1.38244e-21
1.08573,1.37811,0.05,0.0248858,-0.00184934,-1.45211e-21
1.08573,1.38062,0.05,0.0249122,-0.0018457,-1.52178e-21
1.08573,1.38314,0.05,0.0249386,-0.00184207,-1.59145e-21
1.08573,1.38566,0.05,0.0249647,-0.00183777,-1.42689e-21
1.08573,1.38817,0.05,0.0249905,-0.00183248,-9.1431e-22
1.08573,1.39069,0.05,0.0250157,-0.00182821,-3.46289e-22
1.08573,1.3932,0.05,0.02504,-0.00182546,3.05198e-22
1.08573,1.39572,0.05,0.0250646,-0.00182238,7.66242e-22
1.08573,1.39823,0.05,0.0250897,-0.00181872,9.04856e-22
1.08573,1.40075,0.05,0.0251148,-0.00181506,1.04347e-21
1.08573,1.40327,0.05,0.0251399,-0.0018114,1.18208e-21
1.08573,1.40578,0.05,0.025165,-0.00180774,1.3207e-21
1.08573,1.4083,0.05,0.0251901,-0.00180408,1.45931e-21
1.08573,1.41081,0.05,0.0252152,-0.00180042,1.59793e-21
1.08573,1.41333,0.05,0.0252401,-0.00179591,1.48988e-21
1.08573,1.41584,0.05,0.0252647,-0.0017906,1.15135e-21
1.08573,1.41836,0.05,0.0252886,-0.00178657,8.65476e-22
1.08573,1.42088,0.05,0.0253118,-0.00178381,6.33105e-22
1.08573,1.42339,0.05,0.0253353,-0.00178064,4.43813e-22
1.08573,1.42591,0.05,0.0253593,-0.00177695,3.06652e-22
1.08573,1.42842,0.05,0.0253832,-0.00177327,1.69492e-22
1.08573,1.43094,0.05,0.0254071,-0.00176959,3.23319e-23
1.08573,1.43346,0.05,0.0254311,-0.00176591,-1.04828e-22
1.08573,1.43597,0.05,0.025455,-0.00176222,-2.41988e-22
1.08573,1.43849,0.05,0.025479,-0.00175854,-3.79149e-22
1.08573,1.441,0.05,0.0255027,-0.00175408,-5.9137e-22
1.08573,1.44352,0.05,0.0255263,-0.00174878,-8.84005e-22
1.08573,1.44603,0.05,0.0255492,-0.00174462,-1.15618e-21
1.08573,1.44855,0.05,0.0255714,-0.00174185,-1.40309e-21
1.08573,1.45107,0.05,0.0255938,-0.00173873,-1.53036e-21
1.08573,1.45358,0.05,0.0256167,-0.00173503,-1.47161e-21
1.08573,1.4561,0.05,0.0256396,-0.00173133,-1.41286e-21
1.08573,1.45861,0.05,0.0256625,-0.00172763,-1.35411e-21
1.08573,1.46113,0.05,0.0256854,-0.00172393,-1.29536e-21
1.08573,1.46364,0.05,0.0257083,-0.00172023,-1.23661e-21
1.08573,1.46616,0.05,0.0257312,-0.00171654,-1.17785e-21
1.08573,1.46868,0.05,0.025754,-0.00171235,-9.74622e-22
1.08573,1.47119,0.05,0.0257765,-0.00170708,-4.45357e-22
1.08573,1.47371,0.05,0.0257987,-0.00170246,8.50793e-23
1.08573,1.47622,0.05,0.02582,-0.00169969,6.18844e-22
1.08573,1.47874,0.05,0.0258414,-0.00169674,1.06241e-21
1.08573,1.48125,0.05,0.0258633,-0.00169303,1.13489e-21
1.08573,1.48377,0.05,0.0258852,-0.00168933,1.20736e-21
1.08573,1.48629,0.05,0.0259071,-0.00168562,1.27984e-21
1.08573,1.4888,0.05,0.025929,-0.00168191,1.35231e-21
1.08573,1.49132,0.05,0.0259509,-0.00167821,1.42479e-21
1.08573,1.49383,0.05,0.0259729,-0.0016745,1.49727e-21
1.08573,1.49635,0.05,0.0259948,-0.00167079,1.56974e-21
1.08573,1.49887,0.05,0.0260164,-0.00166556,1.25365e-21
1.08573,1.50138,0.05,0.026038,-0.00166032,9.36638e-22
1.08573,1.5039,0.05,0.0260585,-0.00165741,7.24545e-22
1.08573,1.50641,0.05,0.0260789,-0.00165464,5.18763e-22
1.08573,1.50893,0.05,0.0260998,-0.00165105,3.82792e-22
1.08573,1.51144,0.05,0.0261208,-0.00164734,2.56977e-22
1.08573,1.51396,0.05,0.0261418,-0.00164364,1.31162e-22
1.08573,1.51648,0.05,0.0261629,-0.00163993,5.34732e-24
1.08573,1.51899,0.05,0.0261839,-0.00163622,-1.20467e-22
1.08573,1.52151,0.05,0.0262049,-0.00163252,-2.46282e-22
1.08573,1.52402,0.05,0.0262259,-0.00162881,-3.72097e-22
1.08573,1.52654,0.05,0.0262468,-0.00162427,-4.98016e-22
1.08573,1.52905,0.05,0.0262674,-0.00161909,-6.24017e-22
1.08573,1.53157,0.05,0.0262876,-0.00161513,-8.7241e-22
1.08573,1.53409,0.05,0.0263072,-0.00161235,-1.2411e-21
1.08573,1.5366,0.05,0.0263271,-0.00160918,-1.42681e-21
1.08573,1.53912,0.05,0.0263473,-0.00160548,-1.37216e-21
1.08573,1.54163,0.05,0.0263675,-0.00160179,-1.31751e-21
1.08573,1.54415,0.05,0.0263876,-0.00159809,-1.26286e-21
1.08573,1.54666,0.05,0.0264078,-0.00159439,-1.20822e-21
1.08573,1.54918,0.05,0.026428,-0.0015907,-1.15357e-21
1.08573,1.5517,0.05,0.0264482,-0.001587,-1.09892e-21
1.08573,1.55421,0.05,0.0264683,-0.00158329,-1.03914e-21
1.08573,1.55673,0.05,0.0264882,-0.00157817,-5.4809e-22
1.08573,1.55924,0.05,0.026508,-0.00157306,-5.70414e-23
1.08573,1.56176,0.05,0.0265269,-0.00157018,4.30754e-22
1.08573,1.56428,0.05,0.0265459,-0.00156741,9.18386e-22
1.08573,1.56679,0.05,0.0265652,-0.00156384,1.03417e-21
1.08573,1.56931,0.05,0.0265846,-0.00156016,1.10037e-21
1.08573,1.57182,0.05,0.026604,-0.00155648,1.16656e-21
1.08573,1.57434,0.05,0.0266233,-0.0015528,1.23275e-21
1.08573,1.57685,0.05,0.0266427,-0.00154912,1.29895e-21
1.08573,1.57937,0.05,0.0266621,-0.00154544,1.36514e-21
1.08573,1.58189,0.05,0.0266815,-0.00154176,1.43133e-21
1.08573,1.5844,0.05,0.0267007,-0.00153761,1.36783e-21
1.08573,1.58692,0.05,0.0267197,-0.00153257,1.06734e-21
1.08573,1.58943,0.05,0.0267385,-0.00152821,8.01374e-22
1.08573,1.59195,0.05,0.0267567,-0.00152546,6.16917e-22
1.08573,1.59446,0.05,0.0267751,-0.00152249,4.61012e-22
1.08573,1.59698,0.05,0.0267937,-0.00151884,3.99223e-22
1.08573,1.5995,0.05,0.0268123,-0.00151518,3.37434e-22
1.08573,1.60201,0.05,0.026831,-0.00151153,2.75644e-22
1.08573,1.60453,0.05,0.0268496,-0.00150788,2.13855e-22
1.08573,1.60704,0.05,0.0268682,-0.00150422,1.52066e-22
1.08573,1.60956,0.05,0.0268869,-0.00150057,9.02768e-23
1.08573,1.61207,0.05,0.0269055,-0.00149692,2.84876e-23
1.08573,1.61459,0.05,0.0269239,-0.00149249,5.88294e-24
1.08573,1.61711,0.05,0.0269421,-0.00148755,9.55239e-24
1.08573,1.61962,0.05,0.0269599,-0.00148381,8.64701e-24
1.08573,1.62214,0.05,0.0269775,-0.00148107,3.98597e-24
1.08573,1.62465,0.05,0.0269952,-0.00147789,-2.25649e-23
1.08573,1.62717,0.05,0.0270131,-0.00147427,-7.15797e-23
1.08573,1.62969,0.05,0.0270311,-0.00147065,-1.20594e-22
1.08573,1.6322,0.05,0.027049,-0.00146704,-1.69609e-22
1.08573,1.63472,0.05,0.0270669,-0.00146342,-2.18624e-22
1.08573,1.63723,0.05,0.0270848,-0.0014598,-2.67639e-22
1.08573,1.63975,0.05,0.0271027,-0.00145618,-3.16653e-22
1.08573,1.64226,0.05,0.0271206,-0.00145256,-3.65668e-22
1.08573,1.64478,0.05,0.0271381,-0.00144801,-4.6681e-22
1.08573,1.6473,0.05,0.0271555,-0.00144317,-5.84689e-22
1.08573,1.64981,0.05,0.0271726,-0.00143985,-5.33782e-22
1.08573,1.65233,0.05,0.0271896,-0.00143712,-4.1653e-22
1.08573,1.65484,0.05,0.0272067,-0.00143382,-3.79119e-22
1.08573,1.65736,0.05,0.0272239,-0.00143025,-3.80148e-22
1.08573,1.65987,0.05,0.0272411,-0.00142667,-3.81177e-22
1.08573,1.66239,0.05,0.0272583,-0.00142309,-3.82206e-22
1.08573,1.66491,0.05,0.0272755,-0.00141951,-3.83235e-22
1.08573,1.66742,0.05,0.0272927,-0.00141593,-3.84264e-22
1.08573,1.66994,0.05,0.0273099,-0.00141236,-3.85293e-22
1.08573,1.67245,0.05,0.0273271,-0.00140878,-3.86322e-22
1.08573,1.67497,0.05,0.0273439,-0.00140422,-4.7554e-22
1.08573,1.67748,0.05,0.0273606,-0.00139948,-5.81617e-22
1.08573,1.68,0.05,0.027377,-0.00139641,-8.69626e-22
1.08573,1.68252,0.05,0.0273933,-0.00139371,-1.1991e-21
1.08573,1.68503,0.05,0.0274098,-0.00139036,-1.23723e-21
1.08573,1.68755,0.05,0.0274263,-0.00138683,-1.197e-21
1.08573,1.69006,0.05,0.0274429,-0.0013833,-1.15676e-21
1.08573,1.69258,0.05,0.0274594,-0.00137977,-1.11652e-21
1.08573,1.6951,0.05,0.0274759,-0.00137624,-1.07628e-21
1.08573,1.69761,0.05,0.0274924,-0.0013727,-1.03604e-21
1.08573,1.70013,0.05,0.027509,-0.00136917,-9.95804e-22
1.08573,1.70264,0.05,0.0275255,-0.00136564,-9.55566e-22
1.08573,1.70516,0.05,0.0275416,-0.00136117,-6.28878e-22
1.08573,1.70767,0.05,0.0275575,-0.00135654,-2.54606e-22
1.08573,1.71019,0.05,0.0275733,-0.00135358,-1.3912e-22
1.08573,1.71271,0.05,0.0275891,-0.00135092,-6.92942e-23
1.08573,1.71522,0.05,0.0276049,-0.00134756,-4.42986e-23
1.08573,1.71774,0.05,0.0276208,-0.00134409,-2.76112e-23
1.08573,1.72025,0.05,0.0276367,-0.00134061,-1.09238e-23
1.08573,1.72277,0.05,0.0276525,-0.00133713,5.7636e-24
1.08573,1.72528,0.05,0.0276684,-0.00133365,2.2451e-23
1.08573,1.7278,0.05,0.0276843,-0.00133017,3.91384e-23
1.08573,1.73032,0.05,0.0277001,-0.00132669,5.58258e-23
1.08573,1.73283,0.05,0.027716,-0.00132322,7.25132e-23
1.08573,1.73535,0.05,0.0277314,-0.00131889,1.6661e-22
1.08573,1.73786,0.05,0.0277466,-0.00131437,2.77397e-22
1.08573,1.74038,0.05,0.0277618,-0.00131143,5.49743e-22
1.08573,1.74289,0.05,0.027777,-0.0013088,8.53724e-22
1.08573,1.74541,0.05,0.0277922,-0.0013055,1.01918e-21
1.08573,1.74793,0.05,0.0278074,-0.00130208,1.16085e-21
1.08573,1.75044,0.05,0.0278226,-0.00129865,1.30251e-21
1.08573,1.75296,0.05,0.0278379,-0.00129523,1.44417e-21
1.08573,1.75547,0.05,0.0278531,-0.00129181,1.58583e-21
1.08573,1.75799,0.05,0.0278683,-0.00128839,1.72749e-21
1.08573,1.76051,0.05,0.0278835,-0.00128497,1.86916e-21
1.08573,1.76302,0.05,0.0278988,-0.00128155,2.01082e-21
1.08573,1.76554,0.05,0.0279135,-0.0012774,1.92287e-21
1.08573,1.76805,0.05,0.0279281,-0.001273,1.75702e-21
1.08573,1.77057,0.05,0.0279426,-0.00127002,1.83791e-21
1.08573,1.77308,0.05,0.0279572,-0.00126743,1.98643e-21
1.08573,1.7756,0.05,0.0279718,-0.0012642,1.92238e-21
1.08573,1.77812,0.05,0.0279864,-0.00126084,1.81446e-21
1.08573,1.78063,0.05,0.028001,-0.00125748,1.70653e-21
1.08573,1.78315,0.05,0.0280156,-0.00125412,1.59861e-21
1.08573,1.78566,0.05,0.0280301,-0.00125076,1.49069e-21
1.08573,1.78818,0.05,0.0280447,-0.0012474,1.38277e-21
1.08573,1.79069,0.05,0.0280593,-0.00124404,1.27484e-21
1.08573,1.79321,0.05,0.0280739,-0.00124068,1.16692e-21
1.08573,1.79573,0.05,0.0280881,-0.00123673,8.18955e-22
1.08573,1.79824,0.05,0.028102,-0.00123245,3.36996e-22
1.08573,1.80076,0.05,0.028116,-0.0012294,-3.6973e-23
1.08573,1.80327,0.05,0.02813,-0.00122685,-3.66394e-22
1.08573,1.80579,0.05,0.0281439,-0.00122371,-5.79425e-22
1.08573,1.8083,0.05,0.0281579,-0.00122042,-7.60048e-22
1.08573,1.81082,0.05,0.0281719,-0.00121712,-9.40671e-22
1.08573,1.81334,0.05,0.0281858,-0.00121382,-1.12129e-21
1.08573,1.81585,0.05,0.0281998,-0.00121053,-1.30192e-21
1.08573,1.81837,0.05,0.0282138,-0.00120723,-1.48254e-21
1.08573,1.82088,0.05,0.0282277,-0.00120394,-1.66316e-21
1.08573,1.8234,0.05,0.0282417,-0.00120064,-1.84378e-21
1.08573,1.82592,0.05,0.0282553,-0.00119689,-1.87356e-21
1.08573,1.82843,0.05,0.0282685,-0.00119273,-1.76426e-21
1.08573,1.83095,0.05,0.0282819,-0.00118959,-1.77881e-21
1.08573,1.83346,0.05,0.0282953,-0.00118709,-1.87e-21
1.08573,1.83598,0.05,0.0283086,-0.00118406,-1.8282e-21
1.08573,1.83849,0.05,0.028322,-0.00118083,-1.73605e-21
1.08573,1.84101,0.05,0.0283353,-0.0011776,-1.64389e-21
1.08573,1.84353,0.05,0.0283487,-0.00117437,-1.55173e-21
1.08573,1.84604,0.05,0.028362,-0.00117114,-1.45958e-21
1.08573,1.84856,0.05,0.0283754,-0.00116791,-1.36742e-21
1.08573,1.85107,0.05,0.0283887,-0.00116468,-1.27527e-21
1.08573,1.85359,0.05,0.0284021,-0.00116145,-1.18311e-21
1.08573,1.8561,0.05,0.0284151,-0.0011579,-9.68639e-22
1.08573,1.85862,0.05,0.0284277,-0.00115385,-5.66683e-22
1.08573,1.86114,0.05,0.0284404,-0.00115064,-3.77999e-22
1.08573,1.86365,0.05,0.0284533,-0.00114818,-3.811e-22
1.08573,1.86617,0.05,0.028466,-0.00114525,-3.03198e-22
1.08573,1.86868,0.05,0.0284788,-0.00114209,-1.8548e-22
1.08573,1.8712,0.05,0.0284915,-0.00113893,-6.77619e-23