/*--------------------------------*- C++ -*----------------------------------*\
| =========                 |                                                 |
| \\      /  F ield         | OpenFOAM: The Open Source CFD Toolbox           |
|  \\    /   O peration     | Version:  2.4.0                                 |
|   \\  /    A nd           | Web:      www.OpenFOAM.org                      |
|    \\/     M anipulation  |                                                 |
\*---------------------------------------------------------------------------*/
FoamFile
{
    version     2.0;
    format      ascii;
    class       volScalarField;
    location    "15000";
    object      p;
}
// * * * * * * * * * * * * * * * * * * * * * * * * * * * * * * * * * * * * * //

dimensions      [0 2 -2 0 0 0 0];

internalField   nonuniform List<scalar> 
15600
(
-4.1221357e-09
-0.085792662
-1.6337732e-05
-0.085781767
-3.8088552e-05
-0.085768921
-6.2075259e-05
-0.085752106
-8.4778365e-05
-0.085729767
-0.00010510962
-0.085699775
-0.00012202006
-0.085658256
-0.00013330673
-0.085599532
-0.00013552565
-0.085517482
-0.00012492855
-0.085407293
-9.8435481e-05
-0.085266026
-5.4053409e-05
-0.085092044
9.2557004e-06
-0.084884179
9.2041595e-05
-0.084641547
0.0001948409
-0.084363449
0.00031813521
-0.084049228
0.00046214769
-0.083698434
0.0006270016
-0.083309722
0.00081291426
-0.082878058
0.0010211283
-0.082397669
0.042500215
0.042371084
0.044595912
0.044993776
0.045362281
0.04496269
0.044299345
0.043467607
0.042636721
0.041839407
0.041094707
0.040467778
0.039929322
0.039539316
0.039227611
0.039123192
0.038852669
0.038584718
0.037657513
0.036909045
0.03436175
0.032374035
0.026247259
0.025946005
0.0041697392
-0.025312206
-0.048677016
0.042500982
0.042371651
0.044596638
0.044993084
0.045361447
0.044961446
0.044298274
0.043466838
0.042636178
0.041839007
0.041094488
0.040467761
0.03992947
0.039539609
0.039227945
0.039123294
0.038852334
0.038583888
0.037656008
0.036905837
0.034356391
0.032365027
0.026239966
0.025926805
0.0041686641
-0.025269186
-0.048662064
0.042501934
0.04237215
0.044597503
0.044992303
0.04536053
0.044960046
0.044297046
0.043465925
0.042635516
0.041838514
0.041094206
0.040467714
0.039929615
0.039539927
0.039228309
0.03912342
0.038851989
0.038583022
0.037654398
0.03690242
0.034350727
0.032355568
0.026232912
0.025907938
0.0041705244
-0.025216516
-0.048638763
0.042502801
0.04237253
0.044598348
0.044991489
0.045359524
0.044958497
0.044295627
0.043464812
0.042634665
0.041837859
0.041093792
0.040467569
0.039929699
0.039540212
0.039228664
0.039123554
0.038851675
0.038582198
0.03765285
0.036899062
0.034345211
0.032346258
0.026227202
0.02589195
0.0041758801
-0.025152479
-0.048605246
0.042503422
0.042372768
0.044599036
0.044990538
0.045358268
0.044956636
0.044293856
0.043463356
0.042633501
0.041836938
0.041093169
0.040467277
0.039929693
0.039540457
0.039229016
0.039123699
0.038851389
0.038581391
0.037651335
0.036895684
0.034339692
0.032336965
0.026222941
0.025879508
0.0041860768
-0.025068657
-0.048558197
0.042503641
0.042372778
0.04459943
0.044989309
0.04535659
0.044954277
0.044291555
0.0434614
0.042631887
0.041835638
0.04109225
0.040466778
0.039929567
0.039540655
0.039229371
0.039123859
0.03885113
0.038580591
0.037649826
0.036892229
0.034334073
0.032327651
0.026220401
0.025871029
0.0042032338
-0.024954902
-0.048490706
0.042503254
0.042372425
0.044599342
0.044987619
0.045354281
0.044951211
0.044288524
0.043458762
0.042629663
0.041833828
0.041090934
0.040466002
0.03992928
0.039540793
0.039229734
0.039124038
0.038850903
0.038579796
0.037648318
0.036888679
0.034328326
0.032318399
0.026220012
0.025866911
0.0042307366
-0.024799794
-0.048393855
0.042502003
0.042371542
0.044598525
0.044985224
0.045351073
0.044947173
0.044284519
0.043455225
0.042626639
0.04183135
0.0410891
0.040464865
0.039928783
0.039540852
0.039230105
0.039124242
0.038850716
0.038579009
0.037646809
0.036885015
0.03432242
0.032309306
0.026222241
0.025867195
0.0042736585
-0.024591372
-0.04825846
0.042499582
0.042369924
0.044596658
0.0449818
0.045346614
0.044941825
0.044279233
0.043450521
0.042622588
0.041828017
0.041086606
0.04046327
0.039928019
0.039540813
0.039230491
0.039124481
0.038850578
0.038578232
0.03764529
0.036881208
0.034316303
0.032300449
0.026227555
0.02587127
0.0043388614
-0.024319107
-0.04807679
0.042495651
0.042367332
0.044593338
0.044976923
0.045340457
0.044934745
0.044272296
0.043444334
0.04261724
0.041823612
0.041083286
0.040461102
0.039926927
0.039540656
0.039230902
0.039124769
0.038850501
0.038577464
0.037643745
0.036877213
0.03430989
0.03229188
0.026236415
0.025877613
0.0044344818
-0.023975946
-0.047843675
0.042489847
0.042363505
0.044588086
0.04497007
0.045332056
0.044925422
0.044263263
0.04343629
0.042610285
0.041817882
0.041078953
0.040458237
0.039925437
0.039540363
0.039231352
0.039125124
0.038850502
0.038576705
0.037642149
0.036872965
0.034303058
0.032283616
0.026249296
0.025883507
0.0045686448
-0.023559069
-0.047556478
0.042481811
0.042358173
0.044580362
0.044960631
0.045320773
0.044913262
0.044251628
0.043425965
0.042601373
0.041810548
0.041073398
0.040454536
0.039923474
0.039539914
0.039231866
0.039125575
0.0388506
0.038575951
0.037640466
0.036868376
0.034295638
0.032275626
0.026266756
0.025884805
0.0047477417
-0.023068874
-0.047214276
0.042471205
0.042351077
0.044569593
0.044947953
0.045305924
0.044897629
0.044236844
0.043412907
0.042590133
0.041801314
0.041066401
0.040449855
0.039920961
0.039539293
0.039232473
0.03912616
0.038850824
0.038575202
0.037638654
0.036863337
0.034287418
0.032267841
0.026289631
0.025876505
0.0049748702
-0.022506753
-0.046817135
0.042457728
0.042341981
0.044555221
0.0449314
0.04528684
0.044877896
0.044218369
0.043396662
0.042576192
0.04178988
0.041057742
0.040444049
0.03991782
0.039538486
0.039233212
0.039126926
0.038851214
0.038574465
0.037636666
0.036857719
0.034278155
0.032260163
0.026319284
0.02585784
0.0052487061
-0.021873121
-0.046365733
0.042441125
0.042330682
0.044536732
0.044910414
0.045262937
0.044853513
0.044195714
0.043376814
0.042559206
0.041775967
0.041047213
0.040436978
0.039913972
0.039537483
0.039234129
0.039127934
0.038851823
0.038573756
0.037634463
0.036851376
0.034267576
0.032252486
0.026357173
0.025836175
0.0055638754
-0.021167753
-0.045861262
0.042421197
0.042317009
0.044513697
0.044884554
0.045233768
0.044824054
0.044168491
0.043353024
0.042538888
0.041759338
0.041034636
0.040428518
0.039909346
0.039536283
0.039235272
0.039129252
0.038852714
0.038573101
0.037632011
0.036844153
0.034255397
0.032244729
0.02640428
0.025815912
0.0059133488
-0.020391084
-0.045305441
0.042397811
0.042300809
0.044485775
0.044853501
0.045199041
0.04478926
0.044136456
0.043325074
0.042515054
0.041739842
0.041019902
0.040418587
0.039903903
0.039534904
0.039236698
0.03913096
0.038853978
0.03857257
0.037629333
0.036835973
0.034241429
0.032237052
0.02646213
0.025793162
0.0062889928
-0.019543594
-0.044700102
0.042370896
0.042281924
0.044452683
0.044816993
0.045158561
0.044749016
0.044099534
0.043292921
0.042487695
0.041717489
0.041003043
0.040407225
0.039897712
0.039533451
0.039238518
0.0391332
0.038855787
0.038572413
0.037626688
0.036827204
0.034226084
0.032230666
0.026533271
0.025768466
0.0066814333
-0.018625368
-0.0440479
0.04234025
0.042260331
0.044414058
0.044774793
0.045112053
0.044703192
0.044057656
0.043256559
0.042456847
0.041692357
0.040984165
0.040394553
0.039890934
0.039532109
0.039240919
0.039136182
0.038858429
0.038573056
0.037624639
0.036818704
0.034210528
0.032227824
0.026619905
0.025753099
0.0070821581
-0.017635406
-0.043352642
0.04230502
0.042236669
0.044369067
0.044726446
0.045058219
0.044650129
0.044008817
0.04321385
0.042420427
0.041662578
0.040961722
0.040379361
0.039882793
0.039530449
0.03924381
0.039139828
0.038861764
0.03857371
0.037622108
0.036807935
0.034192127
0.032224485
0.026707562
0.02578501
0.0074781248
-0.016582823
-0.042616519
0.12730351
0.12366942
0.11975624
0.11593656
0.11195359
0.107991
0.10394576
0.099901399
0.095827956
0.091767557
0.087720892
0.083715301
0.079763482
0.075887894
0.072105171
0.068436487
0.06489881
0.0615136
0.058295386
0.055268355
0.052439553
0.049842936
0.047466129
0.045373622
0.043500206
0.042001791
0.04066814
0.039941011
0.039159021
0.039678596
0.039211277
0.127303
0.12366895
0.11975585
0.11593624
0.11195336
0.10799086
0.10394571
0.099901444
0.095828103
0.091767807
0.087721247
0.083715763
0.079764047
0.075888561
0.072105936
0.068437344
0.064899752
0.061514621
0.058296479
0.055269511
0.052440763
0.049844192
0.047467419
0.045374946
0.043501543
0.042003172
0.04066952
0.039942523
0.039160477
0.03968062
0.039212546
0.12730242
0.12366844
0.11975541
0.11593588
0.11195308
0.10799068
0.10394563
0.099901465
0.09582823
0.091768044
0.087721596
0.083716223
0.079764618
0.075889239
0.072106719
0.068438226
0.064900725
0.061515679
0.058297614
0.055270716
0.052442026
0.049845509
0.047468773
0.045376341
0.043502954
0.042004637
0.040670982
0.039944142
0.039162023
0.039682817
0.039213795
0.12730185
0.12366793
0.11975498
0.11593553
0.11195281
0.1079905
0.10394555
0.099901483
0.095828352
0.091768274
0.087721935
0.083716671
0.079765174
0.075889901
0.072107482
0.068439085
0.064901673
0.06151671
0.05829872
0.055271889
0.052443256
0.049846789
0.047470089
0.045377694
0.043504321
0.042006053
0.040672391
0.039945692
0.039163503
0.039684891
0.039214858
0.12730126
0.12366741
0.11975454
0.11593517
0.11195254
0.10799031
0.10394546
0.099901498
0.095828473
0.091768504
0.087722274
0.083717119
0.07976573
0.075890563
0.072108246
0.068439945
0.064902622
0.061517742
0.058299825
0.05527306
0.052444482
0.049848064
0.047471397
0.045379036
0.043505675
0.042007447
0.040673777
0.039947194
0.039164943
0.039686848
0.039215777
0.12730063
0.12366686
0.11975406
0.11593478
0.11195224
0.10799011
0.10394535
0.099901496
0.09582858
0.091768722
0.087722604
0.083717562
0.079766285
0.075891226
0.072109013
0.068440812
0.064903581
0.061518783
0.058300941
0.055274243
0.052445721
0.049849349
0.047472716
0.045380385
0.043507033
0.042008836
0.040675154
0.039948663
0.039166355
0.039688691
0.039216552
0.1272999
0.12366622
0.11975351
0.11593431
0.11195186
0.10798983
0.10394518
0.099901434
0.095828634
0.091768892
0.087722894
0.083717971
0.079766811
0.075891867
0.072109765
0.068441669
0.064904535
0.061519825
0.058302062
0.055275434
0.05244697
0.049850647
0.047474046
0.045381743
0.0435084
0.042010224
0.040676526
0.039950096
0.039167735
0.039690396
0.039217162
0.12729895
0.12366538
0.11975275
0.11593365
0.1119513
0.10798938
0.10394485
0.099901217
0.095828544
0.091768932
0.087723066
0.083718276
0.079767249
0.075892434
0.072110456
0.06844248
0.064905458
0.061520848
0.058303175
0.055276625
0.052448227
0.049851958
0.047475396
0.045383122
0.043509788
0.042011623
0.040677905
0.039951502
0.039169089
0.039691946
0.03921759
0.12729757
0.12366412
0.11975158
0.11593259
0.11195036
0.10798855
0.10394416
0.099900667
0.095828143
0.091768685
0.08772298
0.08371835
0.079767484
0.075892827
0.072111004
0.068443177
0.064906295
0.061521811
0.058304251
0.055277802
0.052449488
0.049853289
0.047476779
0.045384542
0.043511223
0.042013065
0.040679325
0.039952914
0.039170447
0.039693352
0.039217847
0.12729539
0.12366209
0.11974965
0.1159308
0.1119487
0.10798704
0.10394281
0.099899495
0.095827161
0.091767901
0.087722402
0.083717983
0.079767329
0.075892883
0.072111266
0.06844364
0.064906949
0.06152264
0.058305238
0.05527893
0.052450739
0.049854643
0.047478213
0.045386036
0.04351275
0.042014603
0.040680847
0.039954398
0.039171876
0.03969466
0.039217982
0.12729194
0.12365883
0.11974651
0.11592782
0.11194589
0.10798442
0.1039404
0.099897315
0.095825232
0.091766236
0.087721017
0.083716885
0.079766524
0.07589237
0.072111041
0.068443697
0.06490728
0.061523225
0.058306052
0.055279955
0.05245195
0.049856014
0.047479714
0.045387639
0.043514421
0.042016306
0.040682552
0.039956043
0.039173475
0.039695956
0.039218085
0.12728671
0.12365383
0.11974165
0.11592318
0.11194145
0.10798022
0.10393647
0.099893693
0.095821942
0.091763302
0.08771846
0.08371472
0.079764761
0.075891012
0.072110085
0.068443136
0.064907108
0.061523419
0.058306582
0.055280795
0.052453069
0.04985738
0.047481288
0.045389383
0.043516292
0.042018251
0.040684536
0.03995796
0.039175368
0.039697347
0.039218294
0.12727923
0.12364663
0.11973462
0.11591642
0.11193494
0.10797402
0.10393061
0.099888222
0.0958169
0.091758724
0.087714378
0.083711156
0.079761733
0.075888529
0.072108147
0.068441737
0.064906241
0.061523063
0.058306699
0.055281355
0.052454032
0.049858708
0.047482931
0.045391294
0.043518412
0.042020512
0.040686893
0.039960262
0.039177689
0.039698934
0.039218774
0.12726917
0.1236369
0.1197251
0.11590721
0.11192603
0.10796549
0.1039225
0.099880586
0.095809797
0.091752203
0.087708481
0.083705919
0.079757181
0.075884677
0.072105002
0.068439297
0.064904499
0.061522001
0.058306276
0.055281534
0.052454768
0.049859955
0.047484628
0.045393383
0.04352082
0.042023154
0.040689712
0.03996305
0.03918056
0.039700799
0.039219703
0.12725635
0.12362447
0.11971289
0.11589537
0.11191453
0.10795442
0.10391193
0.099870585
0.095800433
0.091743538
0.087700573
0.083698812
0.079750913
0.075879274
0.072100477
0.068435653
0.064901733
0.061520099
0.058305199
0.055281239
0.052455204
0.049861071
0.047486353
0.045395651
0.043523541
0.042026223
0.04069306
0.039966409
0.039184086
0.039702982
0.03922125
0.12724069
0.12360924
0.11969791
0.1158808
0.11190034
0.10794074
0.1038988
0.099858113
0.095788697
0.091732616
0.087690535
0.083689718
0.079742812
0.0758722
0.072094454
0.06843069
0.064897831
0.061517252
0.058303371
0.055280385
0.05245527
0.049862002
0.04748807
0.04539808
0.043526578
0.042029744
0.040696981
0.039970396
0.039188336
0.039705495
0.03922356
0.12722217
0.1235912
0.11968014
0.11586348
0.11188344
0.10792439
0.10388308
0.099843127
0.095774542
0.091719384
0.08767831
0.083678573
0.079732808
0.075863383
0.072086857
0.068424332
0.064892719
0.061513382
0.058300717
0.055278901
0.052454901
0.049862691
0.047489734
0.045400638
0.043529914
0.042033714
0.040701485
0.039975032
0.039193338
0.039708318
0.039226731
0.12720083
0.12357039
0.11965961
0.11584343
0.11186386
0.1079054
0.10386479
0.099825646
0.095757982
0.091703849
0.0876639
0.083665372
0.079720889
0.075852804
0.07207766
0.068416543
0.064886354
0.061508443
0.058297185
0.055276733
0.052454042
0.049863083
0.047491293
0.045403275
0.043533506
0.0420381
0.040706548
0.039980304
0.039199071
0.039711412
0.039230796
0.12717679
0.12354694
0.11963645
0.1158208
0.11184172
0.10788391
0.10384405
0.099805784
0.095739125
0.091686115
0.087647399
0.083650203
0.079707136
0.075840534
0.072066925
0.068407379
0.064878781
0.061502468
0.058292797
0.055273895
0.052452698
0.049863176
0.047492738
0.045405979
0.043537343
0.042042877
0.040712161
0.039986173
0.03920554
0.039714673
0.039235869
0.12714989
0.1235206
0.1196105
0.11579536
0.11181687
0.10785974
0.10382072
0.099783411
0.095717867
0.091666093
0.087628746
0.083633024
0.079691529
0.075826577
0.072054678
0.068396886
0.064870068
0.061495545
0.058287657
0.055270503
0.052451
0.049863104
0.047494223
0.04540889
0.043541598
0.042048176
0.040718531
0.039992692
0.039213041
0.039717848
0.039242832
0.073365293
0.1381279
0.1060502
0.11070645
0.10447146
0.10183877
0.098372626
0.095426676
0.092570472
0.089943383
0.08749986
0.085274893
0.083250741
0.081425638
0.0797927
0.078344962
0.077080914
0.075978094
0.075046755
0.074268331
0.073649047
0.073167244
0.072832218
0.07262952
0.072549356
0.072584408
0.072743484
0.072998623
0.0734254
0.073905875
0.074555565
0.075285104
0.076109736
0.077019205
0.078011007
0.07908092
0.080225742
0.081441625
0.082724778
0.08407154
0.085478088
0.086940673
0.088455165
0.090017212
0.091622861
0.09326766
0.094947594
0.096657836
0.098393622
0.1001502
0.10192377
0.10370915
0.10550312
0.1072986
0.10909715
0.11087832
0.11267771
0.11439373
0.11625736
0.11774149
0.073365856
0.13812994
0.10604778
0.11070782
0.10447138
0.10183906
0.0983728
0.095426896
0.0925707
0.089943637
0.087500141
0.085275194
0.083251058
0.081425969
0.079793043
0.078345313
0.077081271
0.075978458
0.075047124
0.074268705
0.073649423
0.073167624
0.072832599
0.072629898
0.072549735
0.072584789
0.072743876
0.072999027
0.0734258
0.073906289
0.074555971
0.075285499
0.076110126
0.077019591
0.07801139
0.079081299
0.080226118
0.081441998
0.082725147
0.084071906
0.08547845
0.08694103
0.088455517
0.090017559
0.091623201
0.093267994
0.09494792
0.096658155
0.098393933
0.1001505
0.10192407
0.10370943
0.1055034
0.10729886
0.1090974
0.11087855
0.11267794
0.11439394
0.11625758
0.1177418
0.073365894
0.13813283
0.10604507
0.11070905
0.10447135
0.10183933
0.098372969
0.09542711
0.092570924
0.08994389
0.087500421
0.085275499
0.083251381
0.081426307
0.079793396
0.078345676
0.077081642
0.075978838
0.075047511
0.074269098
0.07364982
0.073168026
0.072833003
0.0726303
0.072550139
0.072585197
0.072744295
0.072999456
0.073426231
0.073906731
0.074556408
0.075285926
0.076110548
0.077020008
0.078011804
0.079081711
0.080226526
0.081442404
0.082725549
0.084072305
0.085478844
0.08694142
0.088455902
0.090017938
0.091623575
0.09326836
0.094948279
0.096658506
0.098394277
0.10015084
0.10192439
0.10370975
0.1055037
0.10729915
0.10909768
0.11087882
0.1126782
0.11439417
0.11625784
0.11774212
0.073365236
0.13813457
0.10604393
0.11070922
0.10447157
0.10183946
0.098373123
0.095427273
0.092571108
0.089944099
0.087500658
0.08527576
0.083251663
0.081426607
0.079793712
0.078346005
0.07708198
0.075979186
0.075047869
0.074269464
0.073650191
0.073168403
0.072833383
0.072630682
0.072550522
0.072585585
0.072744692
0.072999864
0.073426644
0.073907152
0.074556829
0.07528634
0.076110958
0.077020414
0.078012208
0.079082112
0.080226925
0.081442801
0.082725944
0.084072697
0.085479233
0.086941805
0.088456283
0.090018314
0.091623946
0.093268725
0.094948638
0.096658858
0.098394622
0.10015118
0.10192472
0.10371006
0.10550401
0.10729945
0.10909796
0.11087909
0.11267846
0.11439441
0.1162581
0.11774241
0.073363705
0.13813478
0.10604485
0.11070801
0.10447216
0.10183943
0.098373279
0.095427391
0.092571263
0.089944273
0.087500861
0.085275991
0.083251918
0.081426883
0.079794005
0.078346315
0.077082303
0.075979521
0.075048214
0.074269819
0.073650555
0.073168774
0.07283376
0.072631062
0.072550905
0.072585973
0.072745088
0.073000271
0.07342706
0.073907574
0.074557256
0.075286762
0.076111375
0.07702083
0.078012621
0.079082524
0.080227335
0.081443209
0.08272635
0.084073101
0.085479635
0.086942204
0.088456678
0.090018706
0.091624332
0.093269106
0.094949013
0.096659227
0.098394984
0.10015153
0.10192507
0.1037104
0.10550433
0.10729977
0.10909827
0.11087938
0.11267875
0.11439469
0.11625837
0.1177427
0.073360953
0.13813359
0.10604795
0.1107052
0.10447322
0.10183924
0.09837346
0.09542748
0.092571407
0.089944433
0.087501055
0.085276218
0.083252175
0.081427166
0.079794311
0.078346641
0.077082647
0.075979878
0.075048585
0.074270203
0.07365095
0.073169178
0.072834172
0.072631481
0.072551327
0.072586401
0.072745523
0.073000716
0.07342752
0.073908037
0.07455773
0.075287236
0.076111842
0.077021294
0.078013083
0.079082984
0.080227794
0.081443666
0.082726806
0.084073555
0.085480087
0.086942653
0.088457123
0.090019146
0.091624768
0.093269536
0.094949437
0.096659645
0.098395395
0.10015193
0.10192546
0.10371079
0.10550471
0.10730013
0.10909862
0.11087972
0.11267907
0.114395
0.11625867
0.117743
0.073356477
0.13813119
0.10605344
0.11070052
0.10447485
0.1018389
0.098373703
0.095427567
0.092571575
0.089944616
0.087501279
0.085276485
0.083252482
0.081427506
0.079794682
0.078347039
0.077083069
0.075980317
0.075049043
0.074270677
0.07365144
0.073169678
0.072834685
0.072632004
0.072551853
0.072586933
0.072746059
0.073001266
0.073428091
0.073908607
0.07455832
0.075287828
0.076112425
0.077021873
0.078013659
0.079083557
0.080228365
0.081444235
0.082727372
0.084074118
0.085480647
0.086943209
0.088457675
0.090019693
0.091625309
0.09327007
0.094949963
0.096660162
0.098395904
0.10015243
0.10192595
0.10371126
0.10550517
0.10730058
0.10909905
0.11088014
0.11267946
0.1143954
0.11625904
0.11774335
0.073349686
0.13812759
0.10606168
0.11069364
0.1044772
0.1018384
0.098374043
0.095427681
0.092571802
0.089944859
0.087501576
0.08527684
0.083252893
0.081427963
0.079795179
0.078347576
0.077083639
0.07598091
0.075049661
0.074271318
0.073652102
0.073170353
0.072835379
0.072632711
0.072552564
0.07258765
0.072746778
0.073002003
0.073428859
0.073909369
0.074559115
0.075288626
0.076113209
0.077022653
0.078014432
0.079084327
0.080229131
0.081444997
0.08272813
0.084074872
0.085481396
0.086943953
0.088458412
0.090020422
0.091626029
0.093270781
0.094950663
0.096660851
0.09839658
0.10015309
0.10192659
0.10371189
0.10550578
0.10730117
0.10909962
0.1108807
0.11267998
0.11439593
0.11625951
0.11774378
0.073340001
0.13812252
0.10607323
0.11068412
0.10448034
0.10183771
0.098374493
0.095427826
0.092572101
0.089945178
0.087501968
0.085277313
0.083253442
0.081428575
0.079795849
0.0783483
0.077084409
0.075981713
0.075050499
0.074272188
0.073653001
0.073171272
0.072836324
0.072633676
0.072553532
0.072588625
0.072747754
0.073003001
0.073429901
0.073910402
0.074560197
0.075289715
0.07611428
0.077023716
0.078015488
0.079085376
0.080230175
0.081446035
0.082729163
0.084075898
0.085482415
0.086944964
0.088459415
0.090021414
0.091627009
0.093271748
0.094951616
0.096661788
0.098397499
0.100154
0.10192747
0.10371275
0.10550661
0.10730198
0.1091004
0.11088145
0.11268069
0.11439665
0.11626013
0.11774434
0.073326954
0.13811525
0.10608884
0.1106715
0.10448435
0.10183673
0.098375024
0.095427967
0.092572446
0.089945549
0.087502433
0.085277884
0.083254116
0.081429335
0.079796687
0.078349213
0.077085389
0.075982736
0.075051573
0.074273306
0.073654162
0.07317246
0.072837553
0.072634934
0.072554799
0.072589902
0.07274903
0.073004306
0.073431264
0.073911748
0.074561614
0.075291147
0.076115689
0.077025117
0.07801688
0.07908676
0.080231553
0.081447407
0.082730528
0.084077255
0.085483764
0.086946304
0.088460744
0.090022731
0.091628311
0.093273034
0.094952884
0.096663036
0.098398723
0.1001552
0.10192865
0.1037139
0.10550773
0.10730306
0.10910144
0.11088246
0.11268163
0.11439761
0.11626094
0.11774506
0.073310219
0.13810478
0.10610953
0.11065516
0.10448924
0.10183534
0.098375569
0.09542803
0.092572775
0.089945913
0.087502914
0.085278503
0.083254869
0.081430202
0.079797658
0.078350286
0.077086552
0.075983961
0.075052866
0.074274663
0.073655577
0.073173917
0.072839066
0.072636492
0.072556373
0.072591491
0.072750619
0.073005922
0.073432933
0.073913379
0.074563346
0.075292907
0.076117427
0.07702685
0.078018606
0.079088481
0.08023327
0.08144912
0.082732237
0.084078959
0.085485462
0.086947996
0.088462427
0.090024403
0.091629968
0.093274676
0.094954505
0.096664632
0.098400288
0.10015673
0.10193015
0.10371537
0.10550916
0.10730446
0.10910278
0.11088377
0.11268286
0.11439886
0.11626198
0.11774598
0.073289603
0.13809014
0.1061359
0.11063469
0.10449501
0.10183339
0.098376047
0.09542793
0.092573009
0.089946193
0.087503338
0.0852791
0.083255635
0.081431113
0.079798702
0.078351461
0.077087845
0.075985334
0.075054328
0.074276207
0.073657199
0.073175592
0.072840816
0.072638304
0.072558207
0.072593344
0.072752466
0.073007797
0.073434883
0.073915283
0.074565384
0.075294993
0.076119495
0.07702892
0.078020673
0.079090548
0.080235339
0.081451189
0.082734307
0.084081029
0.085487531
0.086950062
0.088464487
0.090026456
0.091632009
0.093276705
0.094956505
0.096666579
0.098402186
0.1001586
0.10193199
0.10371717
0.10551091
0.10730618
0.10910444
0.1108854
0.11268438
0.11440042
0.11626327
0.11774708
0.073264931
0.13807085
0.10616804
0.11060989
0.10450166
0.10183079
0.098376375
0.095427586
0.092573072
0.089946314
0.087503632
0.085279604
0.083256346
0.081432003
0.079799757
0.078352679
0.077089211
0.0759868
0.075055907
0.074277888
0.073658978
0.073177438
0.072842757
0.072640324
0.072560256
0.072595415
0.072754525
0.073009896
0.073437109
0.073917471
0.074567741
0.075297416
0.076121902
0.077031334
0.078023089
0.079092966
0.08023776
0.081453614
0.082736735
0.084083457
0.08548996
0.08695249
0.088466912
0.090028875
0.091634416
0.093279101
0.094958869
0.096668888
0.098404444
0.10016084
0.10193418
0.10371933
0.10551303
0.10730826
0.10910646
0.11088739
0.11268624
0.11440234
0.11626485
0.11774839
0.073235919
0.1380467
0.10620617
0.11058043
0.10450916
0.10182744
0.098376465
0.095426907
0.092572879
0.089946196
0.087503722
0.085279947
0.083256942
0.081432817
0.079800773
0.078353897
0.077090613
0.075988327
0.075057573
0.074279683
0.073660896
0.073179442
0.072844881
0.07264255
0.07256252
0.072597709
0.072756802
0.073012221
0.073439598
0.073919916
0.074570396
0.075300156
0.076124628
0.077034072
0.078025831
0.079095714
0.080240514
0.081456374
0.0827395
0.084086224
0.085492729
0.086955261
0.088469681
0.090031639
0.09163717
0.093281844
0.094961591
0.096671583
0.098407105
0.10016347
0.10193678
0.1037219
0.10551555
0.10731074
0.10910886
0.11088977
0.11268846
0.11440465
0.11626674
0.11774991
0.073202219
0.13801719
0.10625073
0.11054591
0.10451748
0.1018232
0.098376214
0.095425785
0.09257233
0.089945741
0.087503514
0.085280044
0.08325734
0.081433479
0.07980168
0.078355048
0.077091989
0.075989858
0.075059275
0.074281543
0.073662909
0.073181563
0.07284715
0.072644947
0.07256497
0.072600196
0.072759269
0.073014744
0.073442319
0.073922583
0.074573322
0.075303191
0.076127653
0.077037118
0.078028889
0.079098784
0.080243598
0.081459469
0.082742606
0.084089338
0.085495852
0.08695839
0.088472813
0.090034771
0.091640296
0.093284964
0.094964694
0.096674672
0.098410167
0.10016651
0.10193978
0.10372486
0.10551846
0.10731362
0.10911165
0.11089254
0.11269105
0.11440734
0.11626892
0.11775162
0.073163408
0.1379817
0.10630222
0.11050588
0.10452659
0.10181794
0.098375506
0.095424098
0.092571307
0.089944837
0.0875029
0.085279792
0.083257447
0.0814339
0.079802392
0.078356053
0.077093264
0.07599132
0.075060945
0.074283405
0.073664956
0.073183742
0.072849511
0.072647466
0.072567554
0.072602827
0.072761876
0.073017413
0.073445222
0.073925421
0.074576474
0.075306479
0.076130939
0.077040437
0.07803223
0.079102146
0.080246984
0.081462877
0.082746033
0.084092781
0.085499311
0.086961864
0.088476299
0.090038264
0.09164379
0.093288459
0.094968179
0.096678148
0.098413622
0.10016994
0.10194318
0.10372823
0.10552178
0.1073169
0.10911485
0.11089573
0.11269403
0.11441045
0.11627144
0.11775356
0.073119029
0.13793962
0.10636106
0.11045993
0.10453641
0.1018115
0.098374209
0.09542171
0.092569681
0.08994336
0.087501763
0.085279079
0.083257155
0.081433977
0.079802812
0.078356819
0.077094351
0.075992629
0.075062504
0.074285191
0.073666966
0.07318591
0.072851896
0.072650041
0.072570208
0.072605539
0.072764557
0.07302016
0.073448246
0.073928366
0.074579795
0.075309966
0.076134434
0.077043979
0.078035807
0.079105758
0.080250631
0.081466556
0.082749744
0.084096519
0.085503076
0.086965654
0.088480111
0.090042093
0.09164763
0.093292309
0.094972026
0.096681995
0.098417457
0.10017377
0.10194697
0.10373201
0.1055255
0.1073206
0.10911846
0.11089934
0.11269741
0.11441398
0.11627429
0.11775572
0.073069483
0.1378907
0.10642747
0.11040756
0.10454691
0.10180375
0.098372252
0.095418547
0.092567376
0.089941224
0.087500009
0.085277811
0.083256368
0.08143361
0.079802836
0.078357243
0.077095148
0.075993688
0.075063856
0.074286813
0.07366885
0.073187983
0.072854228
0.0726526
0.072572863
0.072608262
0.072767244
0.073022924
0.073451337
0.073931369
0.074583247
0.075313625
0.076138117
0.07704773
0.078039609
0.079109611
0.080254535
0.081470509
0.082753742
0.084100555
0.085507154
0.086969769
0.088484261
0.09004627
0.091651829
0.093296528
0.094976252
0.096686231
0.09842169
0.100178
0.10195118
0.1037362
0.10552966
0.10732474
0.1091225
0.1109034
0.11270122
0.11441797
0.1162775
0.11775811
0.07301796
0.13783462
0.10650244
0.1103478
0.10455828
0.10179473
0.098369815
0.095414771
0.09256454
0.089938536
0.087497701
0.085276012
0.083255078
0.081432763
0.079802407
0.078357256
0.077095579
0.075994412
0.07506491
0.074288169
0.073670506
0.073189858
0.072856408
0.072655051
0.072575434
0.072610923
0.072769877
0.07302567
0.073454482
0.073934445
0.074586873
0.075317515
0.076142059
0.07705177
0.078043727
0.079113803
0.080258801
0.081474843
0.082758139
0.084105008
0.085511664
0.08697433
0.088488872
0.090050919
0.091656511
0.093301239
0.094980976
0.096690974
0.098426437
0.10018275
0.10195592
0.10374093
0.10553434
0.10732942
0.10912708
0.110908
0.11270553
0.11442251
0.11628111
0.11776082
0.072965531
0.13776552
0.10659248
0.11027802
0.10457103
0.10178424
0.098366975
0.095410447
0.092561292
0.089935416
0.087494953
0.085273786
0.083253382
0.08143152
0.079801595
0.078356916
0.077095688
0.075994829
0.075065667
0.074289236
0.073671887
0.073191464
0.072858348
0.072657295
0.072577811
0.072613407
0.072772328
0.073028279
0.073457564
0.073937488
0.07459057
0.075321547
0.076146166
0.077056003
0.078048061
0.079118235
0.080263329
0.081479462
0.082762839
0.084109784
0.085516517
0.086979254
0.088493864
0.090055966
0.091661612
0.093306384
0.09498615
0.096696186
0.098431667
0.100188
0.10196117
0.10374619
0.10553957
0.10733465
0.10913222
0.11091319
0.11271039
0.11442768
0.11628513
0.11776387
0.11776665
0.11776986
0.11777264
0.11777542
0.11777852
0.11778226
0.11778699
0.1177932
0.1178015
0.11781266
0.11782758
0.11784688
0.11787061
0.11789838
0.11793093
0.11796964
0.11801513
0.11806796
0.11812867
0.11819776
0.11827572
0.11836301
0.11846012
0.11856746
0.11868544
0.11881445
0.11895491
0.1191072
0.11927172
0.11944882
0.11963879
0.11984189
0.12005831
0.1202882
0.1205316
0.12078892
0.12106042
0.12134528
0.12164313
0.12195391
0.1222762
0.12259807
0.12295473
0.12338036
0.12382679
0.12424284
0.12457693
0.12481782
0.12496178
0.12500445
0.12495512
0.12483628
0.12467618
0.12450195
0.12433377
0.1241806
0.12403785
0.12389192
0.12373482
0.12360065
0.12356366
0.12362053
0.12371211
0.12381811
0.12393988
0.12407504
0.12422161
0.12437729
0.12453997
0.12470763
0.12487805
0.12504915
0.1252191
0.12538628
0.12554929
0.12570697
0.12585834
0.12600266
0.12613937
0.12626809
0.12638857
0.12650071
0.1266045
0.12670004
0.12678747
0.12686702
0.12693892
0.12700335