/*--------------------------------*- C++ -*----------------------------------*\
| =========                 |                                                 |
| \\      /  F ield         | OpenFOAM: The Open Source CFD Toolbox           |
|  \\    /   O peration     | Version:  2.4.0                                 |
|   \\  /    A nd           | Web:      www.OpenFOAM.org                      |
|    \\/     M anipulation  |                                                 |
\*---------------------------------------------------------------------------*/
FoamFile
{
    version     2.0;
    format      ascii;
    class       volScalarField;
    location    "20";
    object      p;
}
// * * * * * * * * * * * * * * * * * * * * * * * * * * * * * * * * * * * * * //

dimensions      [0 2 -2 0 0 0 0];

internalField   nonuniform List<scalar> 
19475
(
-0.1593783
-0.073617103
-0.079298855
-0.050069738
-0.052550516
-0.032721341
-0.034892349
-0.023076821
-0.026178317
-0.02010455
-0.02296753
-0.019973674
-0.022684501
-0.022188693
-0.02521678
-0.02607134
-0.028190584
-0.027610806
-0.026000698
-0.02110873
-0.014513629
-0.0060477562
0.0021040637
0.0088192718
0.01214142
0.011360001
0.0070252695
-0.00056787689
-0.01085923
-0.022034165
-0.031416249
-0.035872355
-0.034665267
-0.029792415
-0.024328609
-0.020217842
-0.017813302
-0.015774276
-0.011219224
-0.0047652507
0.30318758
0.3024259
0.30170812
0.30103809
0.3004192
0.29985437
0.29934594
0.29889632
0.29850709
0.29817972
0.29791517
0.29771442
0.29757774
0.29750515
0.29749633
0.29755069
0.29766712
0.29784406
0.29807957
0.29837132
0.29871657
0.29911177
0.29955334
0.30003694
0.30055825
0.30111256
0.30169621
0.3023043
0.30293482
0.3035825
0.30424837
0.30492663
0.30562348
0.30633081
0.30706325
0.30781095
0.30860458
0.30943176
0.31033655
0.31126166
0.31224036
0.31318595
0.31418206
0.31511078
0.31611111
0.31698738
0.31797583
0.31895095
0.32006763
0.32117787
0.32235911
0.32348332
0.32459048
0.32557901
0.32647613
0.32719359
0.32773088
0.32800291
0.32800002
0.32765687
0.32697006
0.32588448
0.32437958
0.32242105
0.31998929
0.31705218
0.31360225
0.30962445
0.30509609
0.30000034
0.29434183
0.28817655
0.28150949
0.27447063
0.26710737
0.2594034
0.25133482
0.24286954
0.23394701
0.22450642
0.21443882
0.20364533
0.19192932
0.17915651
0.16493075
0.14901981
0.13043755
0.10884179
0.08411123
0.056054289
0.024415162
-0.011107513
-0.050793431
-0.095004484
-0.14389386
-0.19742482
-0.25362455
-0.31079596
-0.36113266
-0.39819047
-0.40160926
-0.38748487
-0.35010197
-0.32498919
-0.27959282
-0.27948182
-0.23570999
-0.25979365
-0.15937849
-0.073613295
-0.079301496
-0.050075492
-0.052556976
-0.032735404
-0.034900264
-0.023092085
-0.026180981
-0.020114083
-0.022965286
-0.019977229
-0.022677039
-0.022182951
-0.025203039
-0.02606091
-0.028181562
-0.027614663
-0.026017459
-0.021144419
-0.014562592
-0.0061057229
0.0020492814
0.0087767388
0.012122344
0.011366809
0.007054293
-0.00051712572
-0.010793313
-0.021965532
-0.0313632
-0.035851097
-0.034675645
-0.029820525
-0.024357886
-0.020239593
-0.01782576
-0.015790246
-0.01125644
-0.0048129251
0.30318807
0.30242642
0.30170867
0.30103865
0.30041979
0.29985497
0.29934656
0.29889695
0.29850772
0.29818035
0.29791581
0.29771505
0.29757836
0.29750577
0.29749693
0.29755128
0.2976677
0.29784461
0.2980801
0.29837183
0.29871706
0.29911223
0.29955377
0.30003734
0.30055861
0.30111289
0.30169651
0.30230456
0.30293505
0.30358269
0.30424852
0.30492675
0.30562357
0.30633086
0.30706327
0.30781093
0.30860451
0.30943159
0.31033625
0.31126122
0.31223984
0.31318535
0.31418143
0.31511005
0.31611036
0.3169869
0.31797579
0.31895143
0.32006865
0.32117944
0.32236126
0.32348592
0.32459344
0.32558204
0.32647902
0.32719593
0.32773235
0.32800307
0.32799849
0.32765321
0.32696389
0.32587528
0.32436711
0.32240497
0.31996942
0.31702838
0.31357447
0.30959267
0.30506033
0.29996064
0.29429857
0.28813002
0.2814604
0.27441972
0.26705456
0.25934852
0.25127759
0.24280957
0.23388381
0.22443931
0.21436711
0.2035678
0.19184497
0.17906314
0.16482651
0.14889997
0.13029786
0.10868244
0.083931954
0.055854877
0.02419527
-0.011347588
-0.051053204
-0.095281845
-0.14418495
-0.19771642
-0.25390177
-0.31102597
-0.36128764
-0.398225
-0.40156685
-0.38740877
-0.35004391
-0.32494779
-0.27957626
-0.27947787
-0.23570968
-0.25979137
-0.15937845
-0.073608761
-0.079304842
-0.050081033
-0.052564361
-0.032750179
-0.034909151
-0.02310833
-0.026184116
-0.020124206
-0.022963044
-0.019980907
-0.022669167
-0.022176636
-0.025188419
-0.026049607
-0.028172072
-0.027618938
-0.026035701
-0.021183006
-0.014615546
-0.0061683507
0.0019900371
0.0087306452
0.012101507
0.0113741
0.0070853733
-0.00046248033
-0.010722464
-0.021891474
-0.031305713
-0.035827607
-0.034686178
-0.029850192
-0.024388948
-0.02026275
-0.017839006
-0.015807244
-0.011296282
-0.0048642757
0.30318861
0.302427
0.30170927
0.30103928
0.30042044
0.29985564
0.29934724
0.29889764
0.29850843
0.29818106
0.29791652
0.29771576
0.29757907
0.29750646
0.29749762
0.29755195
0.29766835
0.29784525
0.29808071
0.29837242
0.29871761
0.29911276
0.29955426
0.3000378
0.30055904
0.30111328
0.30169687
0.30230488
0.30293533
0.30358293
0.30424873
0.30492692
0.3056237
0.30633096
0.30706333
0.30781094
0.30860446
0.30943142
0.31033594
0.31126076
0.3122393
0.31318471
0.31418075
0.31510928
0.31610956
0.31698639
0.31797574
0.31895192
0.32006974
0.32118111
0.32236356
0.32348871
0.32459661
0.32558529
0.32648209
0.32719841
0.32773389
0.32800319
0.32799679
0.32764922
0.3269572
0.32586534
0.32435365
0.32238762
0.31994797
0.31700272
0.31354452
0.30955844
0.30502182
0.2999179
0.29425203
0.28807995
0.28140759
0.27436492
0.2669977
0.25928938
0.25121592
0.24274496
0.23381571
0.22436698
0.21428979
0.20348416
0.19175392
0.17896235
0.16471392
0.14877052
0.13014696
0.10851036
0.083738406
0.055639705
0.02395805
-0.011606425
-0.051333174
-0.095580494
-0.14449799
-0.19802936
-0.25419844
-0.31127066
-0.36145045
-0.39825814
-0.40151754
-0.38732461
-0.34997918
-0.32490247
-0.27955636
-0.27947418
-0.23570799
-0.25978962
-0.15937824
-0.073604449
-0.079307934
-0.050086126
-0.052571609
-0.032764477
-0.034917965
-0.023124169
-0.026187241
-0.02013409
-0.022960829
-0.019984414
-0.022661434
-0.022170284
-0.0251742
-0.026038472
-0.028163178
-0.027623635
-0.026054379
-0.021221808
-0.014668509
-0.0062308068
0.0019310941
0.008685029
0.012081165
0.011382041
0.0071167933
-0.00040747342
-0.010651731
-0.021817612
-0.031248499
-0.035804291
-0.034696582
-0.029879441
-0.024419499
-0.020285486
-0.017852095
-0.015824231
-0.011335801
-0.0049149404
0.30318914
0.30242756
0.30170987
0.3010399
0.30042108
0.2998563
0.29934792
0.29889833
0.29850912
0.29818176
0.29791722
0.29771646
0.29757976
0.29750715
0.29749829
0.29755261
0.297669
0.29784587
0.29808132
0.298373
0.29871817
0.29911328
0.29955476
0.30003827
0.30055947
0.30111368
0.30169723
0.3023052
0.30293562
0.30358318
0.30424894
0.30492708
0.30562384
0.30633105
0.30706339
0.30781094
0.30860441
0.30943124
0.31033563
0.3112603
0.31223876
0.31318408
0.31418008
0.31510851
0.31610877
0.31698586
0.31797566
0.31895238
0.3200708
0.32118275
0.32236584
0.32349148
0.32459976
0.32558852
0.32648514
0.32720087
0.32773542
0.32800331
0.32799511
0.32764526
0.32695058
0.32585549
0.32434032
0.3223704
0.31992667
0.31697726
0.3135148
0.30952448
0.30498363
0.29987551
0.29420585
0.28803028
0.28135519
0.2743105
0.2669412
0.25923061
0.25115462
0.24268072
0.23374797
0.22429501
0.21421286
0.20340089
0.19166329
0.17886193
0.16460176
0.14864154
0.12999669
0.108339
0.083545836
0.055425696
0.023722316
-0.011863577
-0.051610907
-0.095876279
-0.14480745
-0.19833773
-0.25448907
-0.31150819
-0.36160524
-0.39828467
-0.40146423
-0.38723905
-0.34991382
-0.32485701
-0.27953518
-0.27947042
-0.23570559
-0.25978806
-0.15937805
-0.073600416
-0.079310592
-0.05009111
-0.052578715
-0.032778849
-0.034926812
-0.0231402
-0.026190355
-0.020144128
-0.022958514
-0.0199879
-0.022653491
-0.022163665
-0.025159772
-0.02602709
-0.028154441
-0.027628861
-0.026074096
-0.021262199
-0.014723429
-0.0062953597
0.0018703231
0.0086382352
0.012060586
0.01139088
0.0071497298
-0.00035011966
-0.010578493
-0.021741302
-0.031189618
-0.035780513
-0.034707473
-0.029909544
-0.024450798
-0.020308702
-0.017865543
-0.015841913
-0.011376535
-0.0049668437
0.30318967
0.30242813
0.30171046
0.30104052
0.30042174
0.29985696
0.2993486
0.29889902
0.29850983
0.29818247
0.29791793
0.29771716
0.29758046
0.29750784
0.29749897
0.29755328
0.29766965
0.29784651
0.29808193
0.29837358
0.29871873
0.29911381
0.29955526
0.30003873
0.30055991
0.30111408
0.30169759
0.30230553
0.30293591
0.30358342
0.30424915
0.30492725
0.30562397
0.30633114
0.30706345
0.30781094
0.30860435
0.30943105
0.3103353
0.31125981
0.3122382
0.31318342
0.31417938
0.31510772
0.31610795
0.31698531
0.31797555
0.31895284
0.32007188
0.32118444
0.32236819
0.32349435
0.32460303
0.32559188
0.32648832
0.32720345
0.32773704
0.32800348
0.32799342
0.32764122
0.32694381
0.32584537
0.32432664
0.32235271
0.31990476
0.31695107
0.31348422
0.30948954
0.30494433
0.29983189
0.29415834
0.28797917
0.28130124
0.27425444
0.26688297
0.25917001
0.25109141
0.24261446
0.23367811
0.22422074
0.21413346
0.2033149
0.1915697
0.17875822
0.16448588
0.14850832
0.12984152
0.10816224
0.08334724
0.055205214
0.023479658
-0.012127937
-0.051896138
-0.096179423
-0.1451236
-0.1986514
-0.2547826
-0.31174483
-0.36175484
-0.39830244
-0.40140297
-0.38714795
-0.34984556
-0.32480976
-0.27951235
-0.2794662
-0.2357027
-0.25978638
-0.15937781
-0.073596647
-0.079312796
-0.050095916
-0.052585624
-0.032793248
-0.034935645
-0.023156429
-0.026193446
-0.020154338
-0.022956093
-0.019991373
-0.022645312
-0.022156745
-0.02514503
-0.026015384
-0.028145725
-0.027634531
-0.026094804
-0.021304224
-0.014780417
-0.0063621915
0.0018075187
0.0085900625
0.012039607
0.011400478
0.0071841579
-0.00029040966
-0.010502632
-0.021662431
-0.031128991
-0.035756266
-0.03471893
-0.029940624
-0.024482958
-0.020332475
-0.017879388
-0.015860346
-0.01141865
-0.0050202255
0.30319021
0.30242871
0.30171107
0.30104115
0.30042239
0.29985764
0.29934929
0.29889972
0.29851054
0.29818318
0.29791865
0.29771787
0.29758117
0.29750854
0.29749966
0.29755395
0.2976703
0.29784714
0.29808254
0.29837417
0.29871929
0.29911435
0.29955576
0.3000392
0.30056035
0.30111448
0.30169796
0.30230586
0.3029362
0.30358367
0.30424936
0.30492742
0.30562411
0.30633123
0.3070635
0.30781093
0.30860426
0.30943084
0.31033494
0.31125931
0.31223761
0.31318275
0.31417866
0.31510691
0.3161071
0.31698471
0.3179754
0.31895327
0.32007296
0.32118618
0.32237062
0.32349732
0.32460642
0.32559537
0.32649163
0.32720614
0.32773875
0.3280037
0.32799171
0.32763709
0.32693685
0.32583495
0.32431254
0.32233445
0.31988214
0.31692403
0.31345264
0.30945347
0.30490376
0.29978686
0.2941093
0.28792641
0.28124558
0.27419655
0.26682282
0.2591074
0.25102609
0.24254598
0.23360587
0.22414393
0.21405133
0.20322594
0.19147285
0.17865087
0.16436595
0.14837045
0.12968106
0.10797951
0.08314223
0.054977712
0.023229608
-0.012400016
-0.052189069
-0.096489982
-0.14544628
-0.1989697
-0.25507771
-0.31197815
-0.36189579
-0.39830744
-0.40133053
-0.38704927
-0.34977361
-0.32476036
-0.27948775
-0.27946145
-0.23569919
-0.25978468
-0.15937758
-0.073593142
-0.079314499
-0.050100477
-0.052592248
-0.032807581
-0.034944381
-0.023172809
-0.026196479
-0.020164707
-0.022953556
-0.019994833
-0.022636881
-0.022149518
-0.025129918
-0.026003317
-0.028136938
-0.027640565
-0.026116418
-0.021347824
-0.014839449
-0.0064312983
0.0017426505
0.008540459
0.01201815
0.0114107
0.0072199833
-0.0002284754
-0.01042422
-0.0215811
-0.031066722
-0.03573165
-0.034731041
-0.029972749
-0.024516024
-0.020356825
-0.017893635
-0.015879561
-0.011462208
-0.0050751706
0.30319076
0.30242929
0.30171169
0.30104179
0.30042306
0.29985832
0.29934999
0.29890043
0.29851126
0.29818391
0.29791937
0.29771859
0.29758188
0.29750924
0.29750035
0.29755463
0.29767097
0.29784779
0.29808316
0.29837477
0.29871986
0.29911489
0.29955627
0.30003968
0.30056079
0.30111489
0.30169833
0.30230619
0.3029365
0.30358393
0.30424957
0.30492759
0.30562424
0.30633132
0.30706354
0.3078109
0.30860417
0.3094306
0.31033456
0.31125878
0.31223701
0.31318205
0.31417792
0.31510607
0.31610622
0.31698407
0.3179752
0.31895369
0.32007405
0.32118794
0.32237311
0.32350039
0.32460995
0.32559901
0.32649508
0.32720896
0.32774057
0.32800397
0.32798999
0.32763287
0.3269297
0.32582423
0.324298
0.32231562
0.31985879
0.31689613
0.31342004
0.30941624
0.30486189
0.29974038
0.29405869
0.28787196
0.28118812
0.27413681
0.26676072
0.25904275
0.25095861
0.24247523
0.23353121
0.22406455
0.21396642
0.20313394
0.19137268
0.17853985
0.16424187
0.14822784
0.12951522
0.1077909
0.082930724
0.054743432
0.022972315
-0.012679409
-0.052489224
-0.096807218
-0.14577439
-0.199291
-0.25537193
-0.31220517
-0.36202407
-0.39829529
-0.40124357
-0.38694101
-0.34969726
-0.32470855
-0.27946139
-0.27945613
-0.23569492
-0.25978301
-0.15937727
-0.073589951
-0.079315648
-0.050104746
-0.052598493
-0.032821766
-0.034952933
-0.023189298
-0.026199414
-0.020175223
-0.022950882
-0.019998281
-0.022628175
-0.022141972
-0.025114374
-0.025990849
-0.028127985
-0.027646886
-0.026138871
-0.021392967
-0.014900526
-0.0065027224
0.0016756491
0.0084893328
0.011996121
0.011421412
0.0072571211
-0.00016441462
-0.010343293
-0.021497363
-0.031002881
-0.035706763
-0.034743921
-0.03000602
-0.02455007
-0.020381792
-0.017908308
-0.015899603
-0.011507318
-0.0051317999
0.30319132
0.30242989
0.30171231
0.30104244
0.30042374
0.299859
0.29935069
0.29890114
0.29851199
0.29818463
0.2979201
0.29771931
0.2975826
0.29750995
0.29750104
0.29755531
0.29767163
0.29784843
0.29808378
0.29837537
0.29872043
0.29911543
0.29955678
0.30004016
0.30056124
0.3011153
0.3016987
0.30230653
0.3029368
0.30358419
0.30424979
0.30492776
0.30562438
0.3063314
0.30706358
0.30781087
0.30860405
0.30943034
0.31033415
0.31125823
0.31223637
0.31318133
0.31417715
0.31510521
0.31610531
0.31698337
0.31797495
0.31895407
0.32007513
0.32118975
0.32237568
0.32350358
0.3246136
0.32560279
0.32649869
0.32721192
0.32774249
0.3280043
0.32798827
0.32762856
0.32692235
0.32581317
0.324283
0.32229617
0.31983466
0.31686729
0.31338635
0.30937776
0.30481861
0.29969237
0.29400642
0.28781574
0.28112881
0.27407512
0.26669658
0.25897596
0.2508889
0.2424021
0.23345406
0.22398246
0.21387863
0.2030388
0.19126907
0.17842498
0.1641135
0.14808035
0.12934389
0.10759619
0.082712724
0.054502174
0.02270793
-0.012965957
-0.052796323
-0.097130499
-0.14610691
-0.19961378
-0.25566311
-0.31242256
-0.36213559
-0.39826141
-0.40113839
-0.38682079
-0.34961566
-0.324654
-0.27943326
-0.27945022
-0.23568979
-0.25978147
-0.15937689
-0.073587095
-0.079316191
-0.050108659
-0.052604281
-0.032835724
-0.03496122
-0.023205853
-0.026202208
-0.020185877
-0.022948049
-0.020001718
-0.022619166
-0.022134093
-0.025098333
-0.025977936
-0.028118773
-0.027653426
-0.026162102
-0.021439639
-0.014963675
-0.0065765288
0.0016064221
0.0084365705
0.011973406
0.011432463
0.0072954793
-9.8323944e-05
-0.010259875
-0.021411265
-0.030937533
-0.03568171
-0.034757703
-0.030040562
-0.024585184
-0.020407424
-0.017923428
-0.015920524
-0.011554092
-0.0051902516
0.30319188
0.30243049
0.30171294
0.30104309
0.30042442
0.29985969
0.2993514
0.29890185
0.29851272
0.29818536
0.29792083
0.29772004
0.29758332
0.29751066
0.29750174
0.29755599
0.29767229
0.29784908
0.29808441
0.29837596
0.298721
0.29911597
0.29955729
0.30004064
0.30056169
0.30111572
0.30169908
0.30230687
0.3029371
0.30358444
0.30425001
0.30492792
0.30562451
0.30633148
0.30706361
0.30781083
0.30860391
0.30943005
0.31033371
0.31125765
0.31223572
0.31318059
0.31417636
0.31510433
0.31610437
0.31698261
0.31797464
0.31895442
0.3200762
0.32119158
0.32237832
0.32350688
0.3246174
0.32560673
0.32650245
0.32721504
0.32774453
0.32800471
0.32798655
0.32762415
0.32691479
0.32580177
0.3242675
0.32227605
0.31980971
0.31683745
0.3133515
0.30933795
0.30477385
0.29964272
0.29395238
0.28775764
0.28106753
0.27401139
0.26663032
0.25890695
0.25081684
0.2423265
0.23337425
0.22389756
0.2137878
0.20294035
0.19116185
0.17830611
0.16398063
0.14792776
0.12916679
0.10739526
0.082488031
0.054253945
0.022436366
-0.013259628
-0.053109939
-0.097459293
-0.14644298
-0.19993648
-0.25594901
-0.31262718
-0.36222603
-0.39820096
-0.401011
-0.38668594
-0.34952771
-0.32459631
-0.27940333
-0.27944364
-0.23568366
-0.25978012
-0.15937641
-0.073584629
-0.079316085
-0.05011215
-0.05260953
-0.032849367
-0.03496916
-0.023222427
-0.026204812
-0.020196652
-0.02294503
-0.020005138
-0.022609825
-0.022125866
-0.02508173
-0.025964534
-0.028109213
-0.027660116
-0.02618606
-0.021487827
-0.015028928
-0.0066527861
0.0015348631
0.0083820422
0.011949869
0.011443685
0.0073349427
-3.0313921e-05
-0.010174008
-0.02132285
-0.030870752
-0.035656612
-0.034772534
-0.030076507
-0.024621461
-0.020433774
-0.017939019
-0.015942377
-0.011602652
-0.0052506626
0.30319246
0.30243109
0.30171357
0.30104374
0.3004251
0.29986039
0.29935211
0.29890257
0.29851345
0.2981861
0.29792157
0.29772076
0.29758404
0.29751137
0.29750244
0.29755667
0.29767296
0.29784972
0.29808503
0.29837656
0.29872157
0.29911651
0.2995578
0.30004112
0.30056214
0.30111613
0.30169946
0.30230721
0.3029374
0.3035847
0.30425022
0.30492809
0.30562463
0.30633155
0.30706362
0.30781076
0.30860375
0.30942973
0.31033324
0.31125704
0.31223503
0.31317982
0.31417553
0.31510342
0.31610339
0.31698179
0.31797426
0.31895472
0.32007726
0.32119345
0.32238104
0.32351029
0.32462134
0.32561084
0.32650639
0.32721831
0.3277467
0.32800519
0.32798483
0.32761964
0.32690701
0.32579
0.32425147
0.32225523
0.31978386
0.31680655
0.31331541
0.30929672
0.30472751
0.29959135
0.29389647
0.28769756
0.28100419
0.27394552
0.26656182
0.2588356
0.25074233
0.24224829
0.23329167
0.22380972
0.21369377
0.20283845
0.19105084
0.17818304
0.16384309
0.14776983
0.12898376
0.10718785
0.082256494
0.053998614
0.022157669
-0.013560154
-0.053429901
-0.097793028
-0.14678151
-0.20025762
-0.25622724
-0.3128156
-0.36229106
-0.3981089
-0.40085705
-0.38653343
-0.34943213
-0.32453489
-0.2793717
-0.27943639
-0.23567642
-0.25977906
-0.15937579
-0.073582594
-0.079315288
-0.050115171
-0.052614166
-0.032862616
-0.034976668
-0.023238966
-0.026207175
-0.020207531
-0.022941798
-0.020008535
-0.022600123
-0.022117272
-0.025064505
-0.0259506
-0.028099222
-0.027666898
-0.026210699
-0.02153753
-0.015096327
-0.0067315863
0.0014608452
0.0083255878
0.011925347
0.011454878
0.0073753667
3.9490084e-05
-0.010085747
-0.021232169
-0.030802618
-0.035631603
-0.034788581
-0.030114009
-0.024658997
-0.020460894
-0.0179551
-0.015965213
-0.011653118
-0.005313171
0.30319303
0.3024317
0.30171421
0.3010444
0.30042579
0.29986109
0.29935283
0.29890329
0.29851418
0.29818683
0.2979223
0.29772148
0.29758476
0.29751207
0.29750313
0.29755735
0.29767362
0.29785036
0.29808565
0.29837716
0.29872213
0.29911705
0.29955831
0.3000416
0.30056258
0.30111655
0.30169984
0.30230755
0.3029377
0.30358496
0.30425044
0.30492825
0.30562475
0.30633162
0.30706363
0.30781069
0.30860357
0.30942938
0.31033273
0.3112564
0.31223432
0.31317902
0.31417468
0.31510249
0.31610238
0.3169809
0.31797381
0.31895498
0.32007831
0.32119534
0.32238383
0.32351383
0.32462544
0.32561512
0.3265105
0.32722176
0.32774901
0.32800575
0.3279831
0.32761502
0.32689898
0.32577782
0.32423487
0.32223366
0.31975707
0.31677452
0.313278
0.30925398
0.30467948
0.29953815
0.2938386
0.28763539
0.28093867
0.2738774
0.26649098
0.25876179
0.25066524
0.24216735
0.23320622
0.22371877
0.21359642
0.20273294
0.19093588
0.17805559
0.16370062
0.14760633
0.12879454
0.10697381
0.08201795
0.053736087
0.021871814
-0.013867517
-0.053755702
-0.098131109
-0.14712146
-0.20057551
-0.25649536
-0.31298449
-0.36232613
-0.39798002
-0.40067196
-0.38635992
-0.3493274
-0.32446898
-0.27933842
-0.27942846
-0.23566791
-0.25977837
-0.15937511
-0.073581053
-0.079313772
-0.050117669
-0.052618125
-0.032875378
-0.034983662
-0.023255409
-0.02620924
-0.020218489
-0.022938323
-0.020011895
-0.022590025
-0.022108289
-0.025046596
-0.025936087
-0.028088722
-0.027673717
-0.026235985
-0.021588757
-0.015165929
-0.0068130439
0.0013842144
0.0082670118
0.011899627
0.011465797
0.0074165632
0.00011093349
-0.0099951643
-0.021139288
-0.030733216
-0.035606829
-0.034806033
-0.030153236
-0.024697903
-0.020488837
-0.017971691
-0.015989085
-0.011705615
-0.0053779198
0.30319361
0.30243232
0.30171485
0.30104506
0.30042647
0.29986178
0.29935354
0.29890401
0.29851491
0.29818755
0.29792303
0.2977222
0.29758547
0.29751277
0.29750382
0.29755802
0.29767427
0.297851
0.29808626
0.29837774
0.29872269
0.29911759
0.29955881
0.30004207
0.30056303
0.30111696
0.30170022
0.30230789
0.302938
0.30358521
0.30425065
0.30492841
0.30562487
0.30633167
0.30706363
0.30781059
0.30860335
0.30942899
0.31033218
0.31125573
0.31223357
0.3131782
0.31417379
0.31510152
0.31610133
0.31697993
0.31797328
0.31895518
0.32007933
0.32119727
0.3223867
0.32351749
0.3246297
0.32561958
0.32651481
0.32722538
0.32775146
0.32800638
0.32798136
0.32761028
0.32689068
0.32576522
0.32421765
0.32221127
0.31972927
0.31674128
0.31323918
0.30920963
0.30462966
0.29948302
0.29377865
0.28757102
0.28087087
0.27380694
0.26641769
0.25868543
0.25058545
0.24208355
0.23311771
0.22362458
0.21349557
0.20262363
0.19081674
0.17792353
0.16355301
0.14743702
0.12859888
0.1067529
0.081772228
0.053466302
0.021578759
-0.014181491
-0.054087131
-0.09847276
-0.14746186
-0.20088843
-0.25675101
-0.31313035
-0.36232672
-0.39780898
-0.40045088
-0.38616174
-0.34921169
-0.32439774
-0.27930355
-0.27941989
-0.23565801
-0.25977812
-0.15937421
-0.073580062
-0.079311523
-0.050119584
-0.052621354
-0.032887568
-0.034990061
-0.023271688
-0.026210949
-0.0202295
-0.022934574
-0.020015204
-0.022579497
-0.02209889
-0.025027941
-0.02592095
-0.028077636
-0.027680525
-0.026261893
-0.021641526
-0.015237813
-0.0068972971
0.0013047735
0.0082060684
0.011872438
0.011476131
0.0074582781
0.00018382665
-0.0099023659
-0.021044272
-0.030662639
-0.035582451
-0.034825101
-0.030194379
-0.024738293
-0.020517668
-0.017988808
-0.016014048
-0.011760267
-0.0054450511
0.30319419
0.30243293
0.30171549
0.30104572
0.30042715
0.29986247
0.29935425
0.29890472
0.29851563
0.29818827
0.29792374
0.29772291
0.29758617
0.29751346
0.29750449
0.29755868
0.29767491
0.29785162
0.29808686
0.29837832
0.29872324
0.29911811
0.29955931
0.30004254
0.30056347
0.30111736
0.30170059
0.30230822
0.3029383
0.30358547
0.30425086
0.30492857
0.30562497
0.30633172
0.30706361
0.30781048
0.30860311
0.30942856
0.31033159
0.31125502
0.31223279
0.31317734
0.31417287
0.31510053
0.31610024
0.31697888
0.31797266
0.31895532
0.32008033
0.32119921
0.32238965
0.32352129
0.32463413
0.32562423
0.32651931
0.32722918
0.32775405
0.3280071
0.32797962
0.3276054
0.3268821
0.32575215
0.32419976
0.32218801
0.31970039
0.31670673
0.31319886
0.30916356
0.30457794
0.29942586
0.29371651
0.28750433
0.28080067
0.273734
0.26634183
0.25860637
0.25050283
0.24199675
0.23302602
0.223527
0.21339104
0.20251035
0.19069327
0.17778665
0.16340002
0.14726161
0.12839654
0.10652486
0.081519192
0.053189064
0.021278605
-0.014501953
-0.054423783
-0.098817447
-0.14780155
-0.20119481
-0.25699164
-0.31324978
-0.36228826
-0.39759041
-0.40018879
-0.38593492
-0.34908298
-0.32431998
-0.27926718
-0.27941071
-0.23564654
-0.25977843
-0.15937311
-0.073579685
-0.079308543
-0.050120877
-0.052623816
-0.032899093
-0.034995782
-0.023287732
-0.026212236
-0.02024053
-0.022930514
-0.020018441
-0.0225685
-0.022089045
-0.025008478
-0.025905136
-0.028065897
-0.027687279
-0.026288408
-0.021695871
-0.015312077
-0.0069845279
0.0012222812
0.0081424477
0.011843424
0.01148547
0.0075001724
0.00025791516
-0.0098074964
-0.020947208
-0.030590987
-0.035558641
-0.034846019
-0.030237653
-0.024780296
-0.020547455
-0.018006466
-0.016040154
-0.011817203
-0.005514715
0.30319477
0.30243354
0.30171612
0.30104638
0.30042783
0.29986316
0.29935494
0.29890542
0.29851634
0.29818898
0.29792445
0.29772361
0.29758686
0.29751414
0.29750515
0.29755933
0.29767554
0.29785223
0.29808744
0.29837888
0.29872378
0.29911862
0.29955979
0.300043
0.30056389
0.30111776
0.30170096
0.30230855
0.30293859
0.30358571
0.30425106
0.30492871
0.30562507
0.30633175
0.30706358
0.30781034
0.30860283
0.30942809
0.31033096
0.31125427
0.31223199
0.31317646
0.31417192
0.31509951
0.31609912
0.31697774
0.31797195
0.3189554
0.3200813
0.32120119
0.32239268
0.32352522
0.32463873
0.32562909
0.32652402
0.32723318
0.32775679
0.3280079
0.32797784
0.32760037
0.32687319
0.32573857
0.32418115
0.32216382
0.31967034
0.31667079
0.31315693
0.30911565
0.30452419
0.29936653
0.29365205
0.2874352
0.28072795
0.27365846
0.26626327
0.25852449
0.25041723
0.2419068
0.23293098
0.22342583
0.21328266
0.20239288
0.19056519
0.17764471
0.16324137
0.14707982
0.12818721
0.1062895
0.081258557
0.052904352
0.020971252
-0.01482877
-0.054765301
-0.09916453
-0.14813945
-0.20149298
-0.25721488
-0.31333937
-0.36220635
-0.39731901
-0.39988054
-0.38567527
-0.34893889
-0.32423435
-0.27922933
-0.27940112
-0.23563335
-0.25977937
-0.15937177
-0.073579971
-0.079304865
-0.050121487
-0.052625497
-0.032909856
-0.035000747
-0.023303457
-0.026213032
-0.020251541
-0.022926106
-0.020021581
-0.022556989
-0.022078715
-0.024988144
-0.025888594
-0.028053436
-0.027693942
-0.026315525
-0.021751841
-0.015388842
-0.0070749542
0.0011364315
0.0080757575
0.011812117
0.011493277
0.0075417777
0.00033286609
-0.0097107528
-0.020848211
-0.030518363
-0.035535584
-0.034869044
-0.030283299
-0.024824049
-0.020578281
-0.018024679
-0.016067457
-0.011876548
-0.005587061
0.30319535
0.30243414
0.30171675
0.30104702
0.30042849
0.29986383
0.29935563
0.29890611
0.29851703
0.29818968
0.29792514
0.29772429
0.29758753
0.2975148
0.2975058
0.29755995
0.29767614
0.29785281
0.29808801
0.29837943
0.2987243
0.29911912
0.29956026
0.30004344
0.30056431
0.30111815
0.30170131
0.30230887
0.30293887
0.30358595
0.30425125
0.30492885
0.30562515
0.30633176
0.30706353
0.30781018
0.30860252
0.30942758
0.31033028
0.31125349
0.31223114
0.31317555
0.31417094
0.31509846
0.31609795
0.3169765
0.31797114
0.3189554
0.32008224
0.32120319
0.32239579
0.32352929
0.32464351
0.32563414
0.32652893
0.32723737
0.32775968
0.32800877
0.32797603
0.32759516
0.32686392
0.32572443
0.32416175
0.32213859
0.31963903
0.31663335
0.31311325
0.30906578
0.30446827
0.29930489
0.29358513
0.28736348
0.28065256
0.27358018
0.26618186
0.25843963
0.2503285
0.24181353
0.23283241
0.2233209
0.21317021
0.20227102
0.19043231
0.17749743
0.16307678
0.14689134
0.12797062
0.10604648
0.080990189
0.052611954
0.02065671
-0.01516183
-0.055111371
-0.099513309
-0.14847455
-0.20178129
-0.25741839
-0.31339598
-0.36207669
-0.39698957
-0.39952099
-0.38537836
-0.3487768
-0.32413919
-0.27918997
-0.2793913
-0.23561826
-0.25978107
-0.15937014
-0.073580959
-0.079300546
-0.050121385
-0.052626397
-0.032919769
-0.035004882
-0.023318775
-0.026213262
-0.020262489
-0.022921307
-0.020024596
-0.022544919
-0.022067858
-0.024966871
-0.025871267
-0.028040189
-0.027700482
-0.026343249
-0.021809495
-0.015468261
-0.0071688509
0.0010468497
0.0080054984
0.011777913
0.011498848
0.0075824721
0.00040823212
-0.0096124157
-0.020747426
-0.030444889
-0.035513475
-0.034894459
-0.030331584
-0.024869714
-0.020610242
-0.018043463
-0.016096008
-0.011938431
-0.0056622475
0.30319591
0.30243474
0.30171736
0.30104765
0.30042914
0.29986449
0.2993563
0.29890678
0.29851771
0.29819035
0.29792581
0.29772495
0.29758817
0.29751543
0.29750641
0.29756055
0.29767673
0.29785338
0.29808855
0.29837994
0.29872479
0.29911959
0.29956071
0.30004387
0.30056471
0.30111852
0.30170165
0.30230918
0.30293914
0.30358618
0.30425143
0.30492898
0.30562521
0.30633176
0.30706345
0.30780999
0.30860217
0.30942702
0.31032955
0.31125267
0.31223027
0.31317461
0.31416993
0.31509738
0.31609675
0.31697517
0.31797022
0.31895533
0.32008314
0.32120521
0.32239899
0.3235335
0.32464848
0.32563941
0.32653407
0.32724175
0.3277627
0.32800968
0.32797415
0.32758972
0.32685423
0.32570965
0.32414147
0.32211224
0.31960634
0.31659426
0.3130677
0.30901378
0.30441001
0.29924079
0.2935156
0.28728899
0.28057435
0.273499
0.26609744
0.25835163
0.25023646
0.24171677
0.23273014
0.22321201
0.21305348
0.20214452
0.19029435
0.17734455
0.16290593
0.14669586
0.12774641
0.10579559
0.080713783
0.052311738
0.020334936
-0.015501017
-0.055461625
-0.099863261
-0.14880589
-0.20205825
-0.25759996
-0.31341648
-0.36189525
-0.39659718
-0.39910504
-0.38503968
-0.34859384
-0.32403257
-0.27914899
-0.27938161
-0.23560106
-0.2597836
-0.15936819
-0.073582679
-0.079295683
-0.050120503
-0.052626554
-0.032928736
-0.035008115
-0.023333592
-0.026212848
-0.020273321
-0.022916068
-0.020027449
-0.022532233
-0.022056425
-0.024944587
-0.025853094
-0.028026092
-0.027706868
-0.026371592
-0.021868913
-0.015550514
-0.0072665488
0.00095306577
0.0079310516
0.011740046
0.011501282
0.007621435
0.00048342762
-0.0095128558
-0.020645055
-0.030370696
-0.035492519
-0.034922573
-0.030382808
-0.024917457
-0.020643462
-0.018062833
-0.016125862
-0.012002978
-0.0057404327
0.30319647
0.30243531
0.30171796
0.30104827
0.30042977
0.29986513
0.29935694
0.29890743
0.29851835
0.29819099
0.29792645
0.29772558
0.29758879
0.29751603
0.297507
0.29756112
0.29767727
0.29785391
0.29808906
0.29838043
0.29872526
0.29912003
0.29956113
0.30004427
0.30056508
0.30111887
0.30170198
0.30230947
0.30293939
0.30358639
0.3042516
0.30492909
0.30562527
0.30633174
0.30706335
0.30780978
0.30860178
0.30942641
0.31032878
0.31125181
0.31222935
0.31317363
0.31416888
0.31509627
0.31609551
0.31697375
0.3179692
0.31895518
0.32008401
0.32120725
0.32240227
0.32353786
0.32465363
0.32564489
0.32653942
0.32724632
0.32776585
0.32801064
0.32797218
0.32758401
0.32684406
0.32569416
0.3241202
0.32208463
0.31957212
0.31655337
0.31302008
0.30895947
0.30434923
0.29917403
0.29344326
0.28721157
0.28049311
0.27341475
0.26600983
0.25826029
0.25014092
0.2416163
0.23262392
0.22309892
0.21293224
0.20201312
0.19015104
0.17718575
0.16272854
0.14649298
0.12751427
0.10553646
0.08042913
0.052003539
0.020005799
-0.015846258
-0.055815862
-0.10021378
-0.14913249
-0.20232239
-0.25775755
-0.31339807
-0.36165839
-0.39613718
-0.39862776
-0.38465467
-0.3483869
-0.32391221