y,U_0,U_1,U_2
-2.7950884e-17,0,0,0
0.00086769924,2.0829281e-18,-1.2429592e-22,-5.7464126e-35
0.0017874829,4.2570885e-18,-4.737973e-22,-2.3907724e-35
0.0027624773,6.5563191e-18,-1.1205379e-21,5.0533675e-35
0.0037959966,8.9852147e-18,-2.1102032e-21,5.5288252e-43
0.0048915537,1.1548487e-17,-3.4966372e-21,6.2708196e-36
0.0060528726,1.4250961e-17,-5.3431592e-21,-9.7717081e-36
0.0072839007,1.7097575e-17,-7.7219056e-21,-5.1601928e-35
0.0085888223,2.0093381e-17,-1.0714029e-20,1.269854e-35
0.0099720729,2.3243547e-17,-1.4410743e-20,4.8268921e-35
0.011438354,2.6553354e-17,-1.8914542e-20,6.7511878e-36
0.01299265,3.0028198e-17,-2.4340482e-20,-3.5777584e-37
0.014640245,3.3673589e-17,-3.0817575e-20,2.2770242e-35
0.016386737,3.7495152e-17,-3.8490328e-20,3.0842496e-35
0.018238064,4.1498625e-17,-4.7520447e-20,-3.3663216e-35
0.020200518,4.5689861e-17,-5.8088713e-20,-1.8621676e-35
0.022280771,5.0074823e-17,-7.0397051e-20,-1.7429255e-35
0.024485892,5.4659586e-17,-8.4670805e-20,-1.5852971e-35
0.026823378,5.9450337e-17,-1.0116126e-19,1.7403369e-35
0.029301173,6.4453369e-17,-1.2014837e-19,4.495482e-41
0.0319277,6.9675083e-17,-1.4194386e-19,-4.0533964e-35
0.034711887,7.5121984e-17,-1.6689449e-19,2.3185497e-36
0.037663197,8.080068e-17,-1.9538576e-19,6.5001546e-35
0.040791661,8.6717876e-17,-2.2784592e-19,-1.3908663e-36
0.044107915,9.2880375e-17,-2.6475041e-19,-1.1743344e-34
0.047623229,9.9295069e-17,-3.0662662e-19,6.0909799e-35
0.051349553,1.0596895e-16,-3.5405927e-19,8.5509293e-35
0.055299553,1.1290907e-16,-4.0769611e-19,-5.7309702e-35
0.059486654,1.2012259e-16,-4.6825429e-19,-3.1341033e-37
0.06392509,1.2761671e-16,-5.3652719e-19,1.1706181e-34
0.068629948,1.3539873e-16,-6.1339197e-19,4.1925576e-35
0.073617218,1.4347599e-16,-6.9981767e-19,-1.253661e-34
0.078903853,1.5185588e-16,-7.9687404e-19,1.063586e-34
0.084507823,1.6054583e-16,-9.0574112e-19,-4.3610365e-35
0.090448176,1.6955333e-16,-1.0277195e-18,-1.5086012e-34
0.096745104,1.7888585e-16,-1.1642416e-18,3.7947426e-35
0.10342001,1.8855091e-16,-1.3168831e-18,-6.1037318e-40
0.11049558,1.98556e-16,-1.4873763e-18,-1.0205463e-40
0.11799587,2.0890859e-16,-1.6776228e-18,-6.4231028e-40
0.12594638,2.1961613e-16,-1.8897085e-18,5.2765215e-35
0.13437411,2.3068601e-16,-2.1259177e-18,-2.3796056e-36
0.14330773,2.4212555e-16,-2.3887493e-18,-5.7103986e-35
0.1527776,2.5394194e-16,-2.6809318e-18,-6.4668778e-39
0.1628159,2.6614227e-16,-3.0054399e-18,-5.6726045e-34
0.17345677,2.7873348e-16,-3.3655103e-18,1.1056854e-34
0.18473635,2.9172228e-16,-3.7646563e-18,5.9174061e-34
0.19669301,3.0511519e-16,-4.2066829e-18,-8.505145e-35
0.20936737,3.189184e-16,-4.6956984e-18,1.084327e-39
0.22280253,3.331378e-16,-5.2361245e-18,6.3717037e-40
0.23704414,3.4777886e-16,-5.8327021e-18,6.886572e-40
0.25214061,3.6284658e-16,-6.4904919e-18,-7.5801207e-39
0.26814327,3.783454e-16,-7.2148687e-18,-1.2986356e-38
0.28510649,3.9427907e-16,-8.0115062e-18,-5.0661846e-34
0.30308795,4.1065057e-16,-8.8863506e-18,2.5136515e-35
0.32214876,4.2746191e-16,-9.8455803e-18,5.2482816e-34
0.34235371,4.4471398e-16,-1.0895548e-17,1.169271e-38
0.36377149,4.6240632e-16,-1.2042698e-17,4.9754133e-38
0.38647488,4.8053686e-16,-1.3293463e-17,1.8846336e-38
0.41054106,4.9910156e-16,-1.4654123e-17,5.3672724e-39
0.43605183,5.1809405e-16,-1.6130629e-17,1.2740833e-33
0.46309391,5.3750514e-16,-1.7728381e-17,-6.808318e-35
0.49175922,5.5732221e-16,-1.9451958e-17,-1.2843265e-33
0.52214518,5.7752846e-16,-2.1304785e-17,-6.2592438e-38
0.55435509,5.9810206e-16,-2.3288734e-17,-3.0289549e-34
0.58849842,6.1901504e-16,-2.5403656e-17,-9.4260811e-36
0.62469124,6.4023198e-16,-2.7646832e-17,-2.3455986e-33
0.66305656,6.6170838e-16,-3.001234e-17,-1.4219471e-33
0.70372479,6.8338874e-16,-3.2490338e-17,2.7970847e-33
0.74683417,7.0520421e-16,-3.5066274e-17,1.391225e-33
0.79253123,7.2706982e-16,-3.7720006e-17,3.849906e-37
0.84097128,7.4888111e-16,-4.0424888e-17,6.4496782e-37
0.892319,7.7051027e-16,-4.3146805e-17,1.5852873e-37
0.9467489,7.9180152e-16,-4.5843229e-17,-1.2166662e-38
1.004446,8.1256578e-16,-4.8462333e-17,4.0742156e-33
1.0656064,8.3257463e-16,-5.094224e-17,-9.7516815e-34
1.1304381,8.5155342e-16,-5.3210514e-17,-4.1461638e-33
1.1668475,8.6088505e-16,-5.4255088e-17,-1.3979651e-33
1.1991613,8.691725e-16,-5.5187955e-17,1.0641089e-33
1.2720096,8.8504251e-16,-5.678196e-17,-2.0386271e-37
1.3492308,8.9870415e-16,-5.7885129e-17,6.0605109e-37
1.4310872,9.0961657e-16,-5.8387091e-17,-9.2030028e-35
1.5178571,9.1707587e-16,-5.8183538e-17,-1.4610043e-35
1.6046271,9.2039132e-16,-5.725097e-17,-5.0393662e-34
1.6864835,9.1952589e-16,-5.5707681e-17,8.6120823e-35
1.7637046,9.1491562e-16,-5.3705344e-17,4.6526431e-33
1.836553,9.0703266e-16,-5.1367345e-17,-2.3398842e-34
1.9052762,8.9632039e-16,-4.8798607e-17,-3.9693392e-33
1.9701079,8.8318918e-16,-4.6086581e-17,-1.762416e-33
2.0312683,8.6801437e-16,-4.3302824e-17,-6.0707438e-37
2.0889654,8.5113577e-16,-4.0504791e-17,-7.9062812e-35
2.1433953,8.3285831e-16,-3.7737699e-17,-2.1832756e-36
2.194743,8.1345351e-16,-3.5036312e-17,3.4421128e-33
2.2431831,7.9316151e-16,-3.2426604e-17,-6.1657803e-35
2.2888801,7.721933e-16,-2.9927248e-17,-1.4444337e-33
2.3319895,7.5073321e-16,-2.755094e-17,1.897119e-37
2.3726577,7.2894135e-16,-2.5305533e-17,7.8964686e-38
2.411023,7.0695607e-16,-2.3195019e-17,1.5675147e-37
2.4472159,6.8489627e-16,-2.122035e-17,1.1918879e-33
2.4813592,6.6286355e-16,-1.9380134e-17,6.504792e-35
2.5135691,6.4094426e-16,-1.7671198e-17,-1.1182963e-33
2.5439551,6.1921131e-16,-1.6089065e-17,1.804608e-37
2.5726204,5.9772587e-16,-1.462833e-17,-2.1565128e-33
2.5826559,5.8986347e-16,-1.4129412e-17,-2.1745965e-34
2.5996625,5.7654044e-16,-1.3283368e-17,3.0574715e-33
2.6251732,5.5569613e-16,-1.2047492e-17,6.1397985e-33
2.6492394,5.3522625e-16,-1.0913887e-17,-2.8040053e-33
2.6719428,5.1515842e-16,-9.8759578e-18,-3.8400555e-33
2.6933606,4.955145e-16,-8.9271875e-18,4.6684499e-37
2.7135655,4.7631142e-16,-8.0612213e-18,9.2389322e-34
2.7326263,4.5756188e-16,-7.2719289e-18,-4.6044497e-35
2.7506078,4.39275e-16,-6.553448e-18,-8.6164087e-34
2.767571,4.2145676e-16,-5.9002123e-18,-2.4668108e-34
2.7835737,4.0411058e-16,-5.3069683e-18,-1.552196e-34
2.7986701,3.8723763e-16,-4.768783e-18,2.3212946e-34
2.8129118,3.7083724e-16,-4.2810437e-18,-3.2585432e-34
2.8263469,3.5490714e-16,-3.839454e-18,1.2124534e-33
2.8390213,3.3944376e-16,-3.4400244e-18,-3.6870913e-35
2.8509779,3.2444242e-16,-3.0790611e-18,-1.1692063e-33
2.8622575,3.0989755e-16,-2.7531525e-18,3.6054773e-34
2.8728984,2.958028e-16,-2.4591543e-18,1.6715098e-34
2.8829367,2.8215124e-16,-2.1941745e-18,3.5391834e-34
2.8924066,2.689354e-16,-1.9555576e-18,-1.0304374e-33
2.9013402,2.5614744e-16,-1.7408692e-18,-2.8130881e-34
2.9097679,2.4377922e-16,-1.5478803e-18,8.3324541e-34
2.9177184,2.3182231e-16,-1.3745534e-18,5.393666e-34
2.9252187,2.2026815e-16,-1.2190275e-18,7.3950776e-34
2.9322943,2.0910803e-16,-1.0796048e-18,-4.741619e-34
2.9389692,1.9833315e-16,-9.547384e-19,6.3223195e-35
2.9452661,1.8793467e-16,-8.4301959e-19,-5.4574272e-35
2.9512065,1.7790372e-16,-7.43167e-19,-1.1155943e-33
2.9568104,1.6823146e-16,-6.5401596e-19,6.6303906e-35
2.9620971,1.5890907e-16,-5.7450871e-19,1.1543631e-33
2.9670843,1.4992778e-16,-5.0368531e-19,4.4692976e-35
2.9717892,1.412789e-16,-4.4067526e-19,-7.1605465e-34
2.9762276,1.329538e-16,-3.8468968e-19,-7.3526594e-35
2.9804147,1.2494394e-16,-3.350142e-19,-4.5536613e-36
2.9843647,1.1724091e-16,-2.9100234e-19,7.0402793e-35
2.9880911,1.0983639e-16,-2.5206946e-19,-1.5975952e-40
2.9916064,1.0272215e-16,-2.1768719e-19,-2.61175e-40
2.9949226,9.5890132e-17,-1.8737836e-19,-1.2845149e-34
2.9980511,8.9332361e-17,-1.6071231e-19,2.3676748e-34
3.0010024,8.3041005e-17,-1.3730063e-19,1.3420467e-34
3.0037866,7.7008363e-17,-1.1679326e-19,-2.288403e-34
3.0064131,7.1226865e-17,-9.8874914e-20,-1.1281922e-40
3.0088909,6.5689078e-17,-8.3261847e-20,-7.0213125e-42
3.0112284,6.0387705e-17,-6.9698882e-20,-3.4196089e-41
3.0134335,5.5315584e-17,-5.7956705e-20,-2.5163977e-34
3.0155138,5.0465695e-17,-4.7829409e-20,-1.7215429e-34
3.0174762,4.5831154e-17,-3.9132256e-20,-7.0302227e-35
3.0193275,4.1405218e-17,-3.1699637e-20,1.3189671e-34
3.021074,3.718128e-17,-2.5383225e-20,2.4894613e-34
3.0227216,3.3152874e-17,-2.0050288e-20,-1.9427507e-36
3.0242759,2.9313669e-17,-1.5582168e-20,3.1268237e-35
3.0257422,2.5657476e-17,-1.1872898e-20,-5.5831151e-35
3.0271255,2.2178239e-17,-8.8279401e-21,-8.2734351e-35
3.0284304,1.8870039e-17,-6.3630512e-21,4.7969405e-35
3.0296614,1.5727093e-17,-4.403234e-21,7.5448924e-35
3.0308227,1.2743749e-17,-2.8817459e-21,-8.9568772e-35
3.0319183,9.9144878e-18,-1.7392496e-21,-5.1320095e-36
3.0329518,7.2339194e-18,-9.2363482e-22,4.5355704e-35
3.0339268,4.696782e-18,-3.9053075e-22,-9.5468986e-35
3.0348466,2.2979416e-18,-1.0207648e-22,2.9281455e-36
3.0357143,0,0,0
