/*--------------------------------*- C++ -*----------------------------------*\
| =========                 |                                                 |
| \\      /  F ield         | OpenFOAM: The Open Source CFD Toolbox           |
|  \\    /   O peration     | Version:  2.4.0                                 |
|   \\  /    A nd           | Web:      www.OpenFOAM.org                      |
|    \\/     M anipulation  |                                                 |
\*---------------------------------------------------------------------------*/
FoamFile
{
    version     2.0;
    format      ascii;
    class       volScalarField;
    location    "20";
    object      p;
}
// * * * * * * * * * * * * * * * * * * * * * * * * * * * * * * * * * * * * * //

dimensions      [0 2 -2 0 0 0 0];

internalField   nonuniform List<scalar> 
78300
(
-0.1581031
-0.072494327
-0.078153838
-0.048962626
-0.051411444
-0.031609786
-0.033775451
-0.021994689
-0.025099386
-0.01906125
-0.02193985
-0.018987883
-0.021726349
-0.021266642
-0.024331966
-0.025246283
-0.027463484
-0.027034754
-0.025627644
-0.020973026
-0.014617286
-0.00636417
0.001668382
0.0083521983
0.011791996
0.011129881
0.006910376
-0.00051314645
-0.010644248
-0.021719795
-0.031177402
-0.035854273
-0.034859514
-0.030015995
-0.024413544
-0.02013008
-0.017593291
-0.015569037
-0.011212163
-0.0047982533
2.6668274e-07
0.0011824213
-0.00041219538
-0.0035423214
-0.0079435692
-0.014026067
-0.022744691
-0.035422018
-0.053492396
-0.078372298
-0.11066404
-0.14954318
-0.19162867
-0.23026497
-0.25704181
-0.26598299
-0.25847135
-0.2425242
-0.22681685
-0.21488277
-0.20379174
-0.19125845
-0.18112747
-0.17628356
-0.17529692
-0.17620292
-0.17856026
-0.1820354
-0.18698898
-0.19388826
-0.20330327
-0.21534021
-0.22963425
-0.24521991
-0.26099328
-0.27604028
-0.28976204
-0.30176421
-0.31182507
-0.31984344
-0.3258039
-0.32974099
-0.33172044
-0.33182225
-0.33013687
-0.32675621
-0.32177513
-0.31528621
-0.30738423
-0.29816182
-0.28771157
-0.27612356
-0.26348771
-0.24989243
-0.23542488
-0.22017137
-0.20421548
-0.18763742
-0.17051582
-0.15292919
-0.13495508
-0.11667051
-0.098151438
-0.079472924
-0.06070812
-0.041928794
-0.023204777
-0.0046048358
0.013805487
0.031962492
0.049805885
0.067277313
0.084322977
0.10089239
0.1169397
0.13242295
0.14730551
0.16155585
0.17514749
0.18805908
0.20027494
0.21178524
0.22258466
0.23267366
0.24205621
0.25074409
0.25874936
0.2660958
0.27281064
0.27893354
0.28455049
0.28967238
0.29425471
0.29829935
0.30182659
0.30487228
0.30747293
0.30966363
0.3114766
0.31294258
0.31409119
0.31495098
0.31554925
0.31591209
0.31606441
0.31603002
0.31583115
0.31548874
0.31502236
0.31445051
0.31379016
0.31305711
0.31226588
0.31143007
0.31056199
0.30967295
0.30877324
0.30787243
0.30697912
0.30610093
0.30524471
0.30441678
0.30362245
0.30286706
0.30215466
0.30148922
0.30087427
0.30031287
0.29980749
0.29936069
0.29897418
0.29864961
0.29838814
0.29819091
0.29805839
0.29799087
0.29798823
0.29805017
0.29817583
0.29836393
0.2986129
0.29892057
0.29928455
0.29970154
0.3001681
0.30068015
0.3012333
0.30182284
0.3024453
0.30309555
0.3037714
0.30446707
0.30518288
0.30591185
0.30665865
0.30741334
0.30818802
0.30896963
0.30978578
0.31062139
0.31152339
0.31243817
0.31340267
0.31432945
0.31530487
0.3162105
0.31718947
0.31804338
0.31901262
0.31996831
0.32106792
0.32216593
0.32334787
0.32449117
0.32564098
0.32669654
0.32768262
0.32850623
0.32916135
0.32955627
0.32967462
0.32944188
0.32884469
0.32781669
0.3263294
0.32434526
0.32184444
0.31880201
0.31521422
0.31107116
0.30636416
0.30109954
0.29527479
0.28894753
0.28213205
0.2749679
0.26750573
0.25972849
0.25160642
0.24310274
0.23415379
0.22469677
0.21462273
0.20383097
0.19212447
0.1793675
0.16516306
0.14927952
0.13073119
0.10917672
0.084495341
0.056494797
0.02492021
-0.010532024
-0.050137123
-0.094264465
-0.14305472
-0.19649074
-0.25257398
-0.30965349
-0.35987585
-0.39689329
-0.40026621
-0.3861998
-0.34880279
-0.32371541
-0.27828886
-0.27810691
-0.23434571
-0.25832552
-0.15810329
-0.072490535
-0.078156466
-0.048968392
-0.051417918
-0.031623862
-0.033783369
-0.022009939
-0.025102043
-0.019070752
-0.021937564
-0.018991368
-0.021718806
-0.021260859
-0.02431808
-0.025235607
-0.027453881
-0.027037637
-0.025643013
-0.021006993
-0.014664174
-0.006420113
0.0016152916
0.0083105491
0.011773003
0.011136349
0.0069385415
-0.00046368835
-0.0105797
-0.021652025
-0.031124176
-0.035832193
-0.034869404
-0.030044604
-0.024443925
-0.020152898
-0.017606568
-0.015584412
-0.011248047
-0.0048457309
-3.1123081e-05
0.0011772875
-0.0003990392
-0.0035213564
-0.007915246
-0.013987491
-0.022690139
-0.03534546
-0.053388264
-0.078237523
-0.11050138
-0.14936318
-0.1914525
-0.23012049
-0.25695208
-0.26595048
-0.25847519
-0.24253836
-0.22682803
-0.21489025
-0.20379901
-0.19126587
-0.18113399
-0.17628994
-0.17530218
-0.1762075
-0.17856454
-0.18203973
-0.18699374
-0.19389323
-0.20330785
-0.21534387
-0.22963676
-0.24522136
-0.26099383
-0.27603998
-0.28976094
-0.30176237
-0.31182256
-0.31984032
-0.32580022
-0.32973679
-0.33171575
-0.33181714
-0.33013137
-0.32675038
-0.32176901
-0.31527985
-0.3073777
-0.29815515
-0.28770481
-0.27611676
-0.26348091
-0.24988567
-0.23541822
-0.22016484
-0.20420911
-0.18763125
-0.17050989
-0.15292353
-0.13494973
-0.11666548
-0.098146749
-0.079468597
-0.060704168
-0.041925229
-0.023201607
-0.0046020649
0.013807851
0.031964457
0.04980745
0.06727849
0.084323768
0.10089282
0.11693977
0.13242268
0.14730494
0.16155498
0.17514635
0.1880577
0.20027334
0.21178346
0.22258272
0.23267159
0.24205404
0.25074185
0.25874707
0.2660935
0.27280837
0.27893129
0.2845482
0.28967005
0.29425244
0.29829717
0.30182452
0.30487032
0.30747107
0.30966188
0.31147497
0.31294107
0.3140898
0.3149497
0.3155481
0.31591106
0.3160635
0.31602923
0.31583047
0.31548817
0.3150219
0.31445015
0.3137899
0.31305693
0.31226579
0.31143006
0.31056205
0.30967309
0.30877343
0.30787269
0.30697942
0.30610129
0.30524511
0.30441722
0.30362293
0.30286757
0.30215519
0.30148977
0.30087485
0.30031346
0.29980809
0.2993613
0.2989748
0.29865023
0.29838876
0.29819153
0.298059
0.29799148
0.29798882
0.29805074
0.29817639
0.29836447
0.29861342
0.29892106
0.29928502
0.29970198
0.30016851
0.30068053
0.30123366
0.30182316
0.30244559
0.3030958
0.30377162
0.30446725
0.30518302
0.30591195
0.30665872
0.30741337
0.30818801
0.30896959
0.3097857
0.31062122
0.31152311
0.31243775
0.31340218
0.31432888
0.31530427
0.31620983
0.31718877
0.31804296
0.31901262
0.31996882
0.32106899
0.32216755
0.3233501
0.32449388
0.32564409
0.32669981
0.32768581
0.32850895
0.32916326
0.3295569
0.32967355
0.32943864
0.32883883
0.32780765
0.32631689
0.32432893
0.3218241
0.31877753
0.3151856
0.31103838
0.30632736
0.30105879
0.29523049
0.28890002
0.2820821
0.27491627
0.26745235
0.25967316
0.25154885
0.2430425
0.23409041
0.22462956
0.21455098
0.20375346
0.19204019
0.17927424
0.16505899
0.14915989
0.13059176
0.10901768
0.08431642
0.056295791
0.024700765
-0.010771602
-0.050396378
-0.094541255
-0.14334525
-0.19678173
-0.2528507
-0.30988303
-0.36003061
-0.39692773
-0.40022391
-0.38612376
-0.34874475
-0.32367398
-0.27827229
-0.2781029
-0.23434538
-0.25832324
-0.15810323
-0.072486021
-0.078159797
-0.048973951
-0.051425318
-0.031638655
-0.03379226
-0.022026173
-0.025105181
-0.019080857
-0.021935291
-0.018994982
-0.021710831
-0.021254501
-0.02430327
-0.025224054
-0.027443746
-0.02704088
-0.025659799
-0.021043794
-0.014714959
-0.0064806273
0.0015578195
0.0082653651
0.011752208
0.011143205
0.0069686792
-0.00041045982
-0.010510349
-0.021578907
-0.031066482
-0.035807786
-0.034879386
-0.030074791
-0.024476168
-0.020177201
-0.017620695
-0.015600772
-0.011286452
-0.0048968987
-6.5230031e-05
0.001171283
-0.00038518595
-0.0034991834
-0.0078851918
-0.013946561
-0.022632107
-0.035263938
-0.053277242
-0.078093827
-0.11032806
-0.14917171
-0.19126579
-0.22996845
-0.25685846
-0.26591734
-0.25847941
-0.24255241
-0.22683889
-0.21489795
-0.20380702
-0.19127407
-0.18114103
-0.17629686
-0.17530793
-0.17621249
-0.17856913
-0.18204429
-0.18699864
-0.1938982
-0.20331232
-0.21534726
-0.22963889
-0.24522241
-0.260994
-0.27603929
-0.28975945
-0.30176015
-0.31181966
-0.3198368
-0.32579612
-0.32973216
-0.33171062
-0.33181157
-0.3301254
-0.32674408
-0.32176241
-0.31527302
-0.30737068
-0.29814801
-0.28769758
-0.27610951
-0.26347368
-0.2498785
-0.23541115
-0.22015791
-0.20420237
-0.18762472
-0.17050363
-0.15291755
-0.13494407
-0.11666017
-0.098141802
-0.079464042
-0.060700016
-0.041921497
-0.023198302
-0.0045991902
0.013810285
0.031966461
0.049809019
0.067279642
0.084324503
0.10089316
0.11693972
0.13242228
0.14730419
0.16155393
0.17514501
0.1880561
0.20027151
0.21178142
0.22258052
0.23266925
0.24205159
0.25073933
0.25874451
0.26609093
0.27280583
0.27892876
0.28454563
0.28966746
0.2942499
0.29829473
0.30182221
0.30486813
0.307469
0.30965993
0.31147315
0.31293938
0.31408824
0.31494828
0.31554681
0.31590991
0.31606248
0.31602834
0.31582971
0.31548753
0.31502137
0.31444974
0.31378959
0.31305673
0.31226568
0.31143004
0.31056212
0.30967323
0.30877364
0.30787296
0.30697976
0.30610167
0.30524555
0.3044177
0.30362345
0.30286813
0.30215578
0.30149039
0.30087549
0.30031412
0.29980877
0.29936198
0.29897549
0.29865093
0.29838946
0.29819222
0.29805969
0.29799215
0.29798949
0.2980514
0.29817703
0.29836509
0.29861401
0.29892163
0.29928556
0.29970249
0.30016899
0.30068098
0.30123407
0.30182354
0.30244593
0.30309611
0.30377189
0.30446748
0.30518321
0.30591209
0.30665883
0.30741343
0.30818804
0.30896957
0.30978564
0.31062105
0.31152282
0.31243732
0.31340167
0.31432829
0.31530365
0.3162091
0.31718803
0.3180425
0.31901262
0.31996936
0.32107013
0.32216928
0.32335248
0.32449678
0.32564743
0.3267033
0.3276892
0.32851182
0.32916525
0.32955751
0.32967234
0.32943508
0.32883246
0.32779787
0.32630338
0.32431128
0.32180215
0.31875113
0.31515475
0.31100306
0.30628772
0.30101491
0.29518282
0.28884888
0.28202836
0.2748607
0.26739489
0.25961354
0.25148682
0.24297762
0.23402211
0.22455711
0.21447362
0.20366985
0.19194923
0.17917359
0.16494659
0.14903069
0.13044116
0.10884595
0.08412327
0.056081071
0.024464041
-0.01102989
-0.050675778
-0.09483928
-0.14365767
-0.19709402
-0.25314684
-0.31012721
-0.36019318
-0.39696077
-0.40017471
-0.38603966
-0.34868007
-0.32362863
-0.27825237
-0.27809915
-0.23434367
-0.25832148
-0.15810302
-0.07248173
-0.078162876
-0.048979066
-0.051432582
-0.031652975
-0.033801081
-0.022042006
-0.025108319
-0.019090737
-0.021933064
-0.018998441
-0.021702971
-0.021248115
-0.024288812
-0.025212679
-0.027434185
-0.02704457
-0.025677082
-0.021080911
-0.014765847
-0.0065410782
0.0015005384
0.0082205459
0.011731819
0.011150608
0.0069991253
-0.00035689529
-0.010441124
-0.021505977
-0.031008998
-0.035783497
-0.034889203
-0.030104538
-0.024507885
-0.020201073
-0.017634641
-0.015617122
-0.011324558
-0.0049474453
-9.8703063e-05
0.0011653109
-0.00037146645
-0.0034773338
-0.0078554114
-0.013905961
-0.022574367
-0.035182786
-0.053166763
-0.077951128
-0.11015666
-0.14898369
-0.19108466
-0.22982409
-0.2567733
-0.26589104
-0.25848708
-0.2425668
-0.226849
-0.21490548
-0.20381518
-0.19128186
-0.18114717
-0.17630311
-0.17531331
-0.17621722
-0.17857347
-0.18204853
-0.18700311
-0.19390265
-0.20331625
-0.21535018
-0.22964072
-0.24522336
-0.26099425
-0.27603881
-0.28975826
-0.30175827
-0.31181714
-0.31983367
-0.32579241
-0.32972791
-0.33170586
-0.33180636
-0.33011978
-0.32673811
-0.32175613
-0.31526649
-0.30736395
-0.29814114
-0.28769062
-0.2761025
-0.26346668
-0.24987154
-0.23540429
-0.22015116
-0.2041958
-0.18761835
-0.1704975
-0.15291168
-0.13493851
-0.11665494
-0.098136924
-0.079459543
-0.060695904
-0.041917791
-0.023195011
-0.0045963143
0.013812732
0.031968494
0.049810627
0.067280847
0.084325299
0.10089358
0.11693976
0.13242198
0.14730355
0.16155298
0.17514379
0.18805461
0.20026979
0.21177951
0.22257844
0.23266703
0.24204926
0.25073692
0.25874206
0.26608845
0.27280339
0.27892633
0.28454314
0.28966495
0.29424745
0.29829238
0.30181997
0.30486601
0.307467
0.30965804
0.31147139
0.31293774
0.31408673
0.3149469
0.31554556
0.31590879
0.31606149
0.31602747
0.31582897
0.3154869
0.31502086
0.31444933
0.3137893
0.31305652
0.31226558
0.31143002
0.31056218
0.30967336
0.30877385
0.30787322
0.30698008
0.30610205
0.30524597
0.30441817
0.30362396
0.30286868
0.30215636
0.30149099
0.30087612
0.30031476
0.29980943
0.29936265
0.29897617
0.29865161
0.29839015
0.2981929
0.29806037
0.29799282
0.29799015
0.29805204
0.29817766
0.2983657
0.2986146
0.2989222
0.2992861
0.299703
0.30016947
0.30068143
0.30123449
0.30182392
0.30244628
0.30309642
0.30377216
0.30446771
0.3051834
0.30591224
0.30665894
0.30741349
0.30818808
0.30896955
0.30978557
0.31062089
0.31152254
0.31243689
0.31340117
0.31432769
0.31530302
0.31620838
0.31718729
0.31804203
0.31901259
0.31996987
0.32107125
0.32217098
0.32335483
0.32449966
0.32565075
0.32670677
0.32769257
0.32851468
0.32916724
0.32955812
0.32967114
0.32943156
0.32882616
0.32778816
0.32628999
0.32429377
0.32178035
0.31872491
0.31512413
0.310968
0.3062484
0.30097138
0.29513553
0.28879815
0.28197503
0.27480551
0.26733779
0.25955431
0.25142516
0.24291312
0.2339542
0.22448506
0.21439667
0.20358663
0.19185871
0.17907333
0.16483464
0.14890196
0.1302912
0.10867495
0.083931118
0.055867534
0.024228822
-0.011286478
-0.050952929
-0.095134433
-0.14396652
-0.19740174
-0.25343694
-0.31036424
-0.36034775
-0.39698722
-0.40012152
-0.38595417
-0.34861476
-0.32358314
-0.27823118
-0.27809533
-0.23434126
-0.25831991
-0.15810284
-0.072477719
-0.078165522
-0.048984075
-0.051439703
-0.03166737
-0.033809937
-0.022058034
-0.025111454
-0.019100782
-0.02193075
-0.019001892
-0.021694886
-0.021241469
-0.024274099
-0.025201056
-0.027424739
-0.027048768
-0.025695398
-0.021119631
-0.014818696
-0.0066036434
0.0014414011
0.008174489
0.011711123
0.01115881
0.0070310263
-0.00030105332
-0.010369452
-0.021430617
-0.030949791
-0.035758673
-0.034899463
-0.030135144
-0.02454038
-0.020225457
-0.017648953
-0.015634137
-0.011363844
-0.004999257
-0.0001327845
0.0011592947
-0.00035724143
-0.0034548348
-0.0078246487
-0.013864005
-0.02251459
-0.035098828
-0.053052658
-0.077804253
-0.10998123
-0.14879302
-0.19090382
-0.22968409
-0.25669602
-0.26587315
-0.25850036
-0.24258308
-0.22685912
-0.21491326
-0.20382386
-0.19128944
-0.18115245
-0.17630875
-0.17531843
-0.17622181
-0.17857768
-0.18205258
-0.18700727
-0.1939067
-0.20331974
-0.21535276
-0.22964239
-0.24522441
-0.26099479
-0.27603872
-0.28975752
-0.30175688
-0.31181508
-0.31983098
-0.32578911
-0.32972404
-0.33170144
-0.33180145
-0.33011441
-0.32673236
-0.32175002
-0.31526011
-0.30735734
-0.29813436
-0.28768371
-0.27609552
-0.26345969
-0.24986458
-0.2353974
-0.22014436
-0.20418918
-0.1876119
-0.1704913
-0.15290572
-0.13493285
-0.1166496
-0.09813193
-0.079454924
-0.060691669
-0.041913959
-0.023191591
-0.0045933072
0.013815309
0.03197066
0.049812367
0.067282185
0.084326226
0.10089413
0.11693993
0.1324218
0.14730304
0.16155215
0.17514267
0.18805323
0.20026818
0.21177769
0.22257646
0.23266491
0.24204702
0.25073459
0.25873968
0.26608605
0.272801
0.27892393
0.28454069
0.28966249
0.29424505
0.29829007
0.30181778
0.30486393
0.30746502
0.30965618
0.31146965
0.31293612
0.31408524
0.31494553
0.31554433
0.31590768
0.3160605
0.31602661
0.31582823
0.31548629
0.31502036
0.31444894
0.31378901
0.31305633
0.31226548
0.31143001
0.31056225
0.3096735
0.30877405
0.30787349
0.30698041
0.30610243
0.30524641
0.30441865
0.30362448
0.30286924
0.30215694
0.3014916
0.30087675
0.30031541
0.29981009
0.29936333
0.29897686
0.2986523
0.29839084
0.29819359
0.29806105
0.2979935
0.29799081
0.29805269
0.29817829
0.29836632
0.29861519
0.29892277
0.29928664
0.29970352
0.30016995
0.30068188
0.30123491
0.30182431
0.30244663
0.30309673
0.30377243
0.30446794
0.30518359
0.30591238
0.30665905
0.30741356
0.3081881
0.30896952
0.3097855
0.3106207
0.31152223
0.31243644
0.31340065
0.31432708
0.31530238
0.31620765
0.31718652
0.31804153
0.31901252
0.31997037
0.32107237
0.32217273
0.32335726
0.32450263
0.32565418
0.32671037
0.32769607
0.32851766
0.32916933
0.3295588
0.32966995
0.32942797
0.3288197
0.32777819
0.32627623
0.32427576
0.32175791
0.31869792
0.31509261
0.31093189
0.30620791
0.30092656
0.29508685
0.28874593
0.28192013
0.27474867
0.26727894
0.25949323
0.2513616
0.2428466
0.23388416
0.22441071
0.21431727
0.20350071
0.19176525
0.17896981
0.16471899
0.14876903
0.13013638
0.10849859
0.083732971
0.055647552
0.023986709
-0.011550242
-0.051237548
-0.095436916
-0.14428202
-0.19771475
-0.25372993
-0.31060039
-0.36049713
-0.39700493
-0.4000604
-0.38586315
-0.34854654
-0.32353587
-0.27820835
-0.27809103
-0.23433835
-0.25831821
-0.1581026
-0.072473971
-0.078167713
-0.048988907
-0.051446626
-0.031681793
-0.03381878
-0.022074262
-0.02511457
-0.019111006
-0.021928338
-0.019005338
-0.021686551
-0.021234528
-0.024259038
-0.025189106
-0.027415279
-0.027053386
-0.025714686
-0.02115998
-0.014873597
-0.0066684834
0.001380223
0.0081270127
0.011689972
0.011167691
0.0070643579
-0.00024292233
-0.010295217
-0.02135272
-0.030888796
-0.035733317
-0.034910251
-0.030166736
-0.024573768
-0.020250433
-0.017663671
-0.015651875
-0.011404468
-0.0050525459
-0.0001676709
0.0011532032
-0.00034244695
-0.0034315637
-0.007792783
-0.013820541
-0.022452631
-0.035011912
-0.052934829
-0.077653242
-0.10980207
-0.14860042
-0.19072462
-0.22955051
-0.25662912
-0.26586623
-0.25852111
-0.24260209
-0.22686944
-0.21492136
-0.20383318
-0.19129687
-0.18115685
-0.17631376
-0.17532329
-0.17622626
-0.17858175
-0.18205643
-0.1870111
-0.19391029
-0.20332271
-0.21535491
-0.22964387
-0.24522557
-0.26099565
-0.27603906
-0.28975729
-0.30175602
-0.31181356
-0.3198288
-0.32578628
-0.32972059
-0.33169738
-0.33179687
-0.33010932
-0.32672685
-0.32174412
-0.3152539
-0.30735086
-0.29812768
-0.28767688
-0.27608859
-0.26345272
-0.24985761
-0.23539049
-0.22013753
-0.2041825
-0.18760538
-0.17048502
-0.15289968
-0.1349271
-0.11664416
-0.098126831
-0.079450195
-0.06068732
-0.04191001
-0.023188054
-0.0045901803
0.013818006
0.031972947
0.049814227
0.067283643
0.084327272
0.1008948
0.11694022
0.13242173
0.14730263
0.16155143
0.17514167
0.18805196
0.20026667
0.21177597
0.22257456
0.23266286
0.24204485
0.25073234
0.25873737
0.26608371
0.27279866
0.27892157
0.28453826
0.28966007
0.29424269
0.29828781
0.30181563
0.30486188
0.30746308
0.30965435
0.31146793
0.31293452
0.31408377
0.31494418
0.31554311
0.31590658
0.31605953
0.31602576
0.31582751
0.31548568
0.31501986
0.31444855
0.31378872
0.31305614
0.31226538
0.31143
0.31056232
0.30967365
0.30877427
0.30787377
0.30698075
0.30610282
0.30524684
0.30441914
0.30362501
0.3028698
0.30215754
0.30149222
0.3008774
0.30031607
0.29981077
0.29936401
0.29897756
0.298653
0.29839154
0.29819428
0.29806174
0.29799418
0.29799148
0.29805334
0.29817893
0.29836694
0.29861579
0.29892334
0.29928718
0.29970403
0.30017044
0.30068233
0.30123533
0.3018247
0.30244698
0.30309704
0.30377271
0.30446817
0.30518378
0.30591253
0.30665916
0.30741362
0.30818813
0.30896949
0.30978541
0.3106205
0.3115219
0.31243598
0.31340011
0.31432646
0.31530171
0.31620689
0.31718573
0.318041
0.31901242
0.31997086
0.32107351
0.32217451
0.32335975
0.32450571
0.32565774
0.32671411
0.32769972
0.32852077
0.32917153
0.32955954
0.32966876
0.3294243
0.32881308
0.32776793
0.32626205
0.32425717
0.32173474
0.31867005
0.31506005
0.31089461
0.30616612
0.30088029
0.2950366
0.28869203
0.28186347
0.27468997
0.26721816
0.25943013
0.25129591
0.24277785
0.23381174
0.22433382
0.21423514
0.20341183
0.19166854
0.17886266
0.16459931
0.14863147
0.12997628
0.10831629
0.083528436
0.055420581
0.023737235
-0.011821696
-0.05152984
-0.09574679
-0.14460405
-0.19803236
-0.2540245
-0.31083322
-0.36063789
-0.39700988
-0.39998812
-0.38576455
-0.34847464
-0.32348644
-0.27818376
-0.2780862
-0.23433482
-0.25831647
-0.15810237
-0.072470485
-0.078169405
-0.048993496
-0.051453262
-0.031696151
-0.033827525
-0.022090641
-0.025117631
-0.019121393
-0.021925817
-0.01900878
-0.021677954
-0.021227287
-0.02424358
-0.025176792
-0.027405716
-0.027058339
-0.025734854
-0.021201882
-0.014930513
-0.0067355789
0.0013169891
0.0080780812
0.011668303
0.011177133
0.0070990295
-0.00018262818
-0.010218487
-0.021272386
-0.030826122
-0.03570754
-0.034921666
-0.030199388
-0.024608095
-0.020276017
-0.017678803
-0.015670363
-0.011446489
-0.005107378
-0.00020344531
0.0011470363
-0.00032705677
-0.0034074598
-0.0077597618
-0.013775515
-0.022388457
-0.034922057
-0.052813439
-0.077498439
-0.10961984
-0.14840704
-0.19054884
-0.22942581
-0.25657566
-0.26587336
-0.25855166
-0.24262501
-0.22688023
-0.21492986
-0.20384319
-0.19130416
-0.18116033
-0.1763181
-0.17532788
-0.17623057
-0.17858568
-0.18206006
-0.18701455
-0.19391335
-0.2033251
-0.21535658
-0.22964516
-0.24522689
-0.26099692
-0.27603994
-0.28975769
-0.30175581
-0.31181269
-0.31982724
-0.32578402
-0.32971766
-0.33169379
-0.33179269
-0.3301046
-0.32672166
-0.32173849
-0.31524791
-0.30734456
-0.29812116
-0.28767017
-0.27608175
-0.26344582
-0.24985069
-0.2353836
-0.22013071
-0.20417582
-0.18759884
-0.17047869
-0.15289357
-0.13492127
-0.11663864
-0.098121649
-0.079445376
-0.060682877
-0.041905962
-0.023184415
-0.0045869483
0.01382081
0.031975343
0.049816197
0.067285214
0.08432843
0.10089558
0.11694062
0.13242178
0.14730233
0.16155082
0.17514077
0.18805079
0.20026526
0.21177434
0.22257276
0.2326609
0.24204277
0.25073017
0.25873514
0.26608144
0.27279639
0.27891925
0.28453587
0.28965769
0.29424039
0.2982856
0.30181353
0.30485987
0.30746118
0.30965255
0.31146625
0.31293295
0.31408232
0.31494286
0.31554191
0.3159055
0.31605858
0.31602493
0.3158268
0.31548509
0.31501938
0.31444817
0.31378845
0.31305597
0.3122653
0.31143
0.31056241
0.3096738
0.3087745
0.30787405
0.3069811
0.30610321
0.30524729
0.30441963
0.30362555
0.30287037
0.30215814
0.30149284
0.30087805
0.30031674
0.29981145
0.2993647
0.29897826
0.29865371
0.29839225
0.29819498
0.29806244
0.29799486
0.29799215
0.298054
0.29817957
0.29836756
0.29861639
0.29892391
0.29928773
0.29970455
0.30017093
0.30068279
0.30123576
0.30182509
0.30244734
0.30309736
0.30377299
0.3044684
0.30518397
0.30591267
0.30665927
0.30741368
0.30818815
0.30896945
0.30978531
0.31062028
0.31152155
0.31243549
0.31339955
0.31432581
0.31530102
0.31620611
0.31718491
0.31804041
0.31901228
0.31997132
0.32107464
0.32217633
0.32336231
0.32450888
0.32566142
0.32671799
0.32770351
0.32852402
0.32917384
0.32956035
0.32966758
0.32942055
0.32880627
0.32775736
0.32624744
0.32423799
0.32171081
0.31864128
0.31502643
0.31085612
0.30612297
0.30083252
0.29498473
0.2886364
0.28180498
0.27462938
0.26715541
0.25936497
0.25122806
0.24270684
0.2337369
0.22425437
0.21415024
0.20331992
0.19156852
0.17875185
0.1644755
0.1484892
0.12981083
0.10812813
0.083317431
0.055186856
0.023480543
-0.012100438
-0.051829331
-0.096063317
-0.14493147
-0.19835295
-0.25431817
-0.31105975
-0.36076599
-0.39699771
-0.39990134
-0.38565636
-0.34839835
-0.32343459
-0.27815742
-0.27808079
-0.23433053
-0.25831477
-0.15810207
-0.07246731
-0.078170541
-0.048997794
-0.051459518
-0.031710359
-0.033836086
-0.022107128
-0.025120596
-0.01913193
-0.021923162
-0.019012217
-0.021669074
-0.021219731
-0.024227669
-0.025164071
-0.027395959
-0.027063547
-0.025755823
-0.021245291
-0.014989433
-0.0068049556
0.0012516469
0.0080276205
0.011646036
0.011187017
0.0071349603
-0.00012026374
-0.010139296
-0.021189672
-0.030761851
-0.035681449
-0.034933831
-0.030233206
-0.024643438
-0.020302252
-0.01769437
-0.015689643
-0.011490011
-0.0051638605
-0.00024020737
0.001140787
-0.00031104137
-0.0033824544
-0.0077255218
-0.013728842
-0.022322002
-0.034829224
-0.052688529
-0.077340083
-0.10943505
-0.14821382
-0.19037806
-0.22931233
-0.2565387
-0.26589788
-0.25859474
-0.24265332
-0.22689188
-0.21493885
-0.20385396
-0.19131131
-0.18116282
-0.17632176
-0.17533221
-0.17623472
-0.17858945
-0.18206344
-0.18701757
-0.19391582
-0.20332683
-0.21535772
-0.22964631
-0.24522848
-0.26099874
-0.2760415
-0.28975886
-0.30175642
-0.31181261
-0.31982642
-0.32578245
-0.32971536
-0.33169076
-0.33178902
-0.33010031
-0.32671686
-0.32173319
-0.31524221
-0.30733852
-0.29811484
-0.28766362
-0.27607504
-0.26343902
-0.24984384
-0.23537676
-0.22012391
-0.20416915
-0.1875923
-0.17047235
-0.15288744
-0.13491541
-0.11663307
-0.098116405
-0.079440487
-0.060678358
-0.041901831
-0.02318069
-0.0045836248
0.013823709
0.031977838
0.049818267
0.067286887
0.084329693
0.10089647
0.11694112
0.13242193
0.14730214
0.16155032
0.17513997
0.18804971
0.20026394
0.21177282
0.22257104
0.23265904
0.24204078
0.25072808
0.25873299
0.26607924
0.27279418
0.27891697
0.28453352
0.28965536
0.29423814
0.29828345
0.30181149
0.30485792
0.30745932
0.30965079
0.3114646
0.31293141
0.3140809
0.31494156
0.31554073
0.31590445
0.31605765
0.31602412
0.31582611
0.31548451
0.31501892
0.31444781
0.3137882
0.3130558
0.31226523
0.31143001
0.3105625
0.30967397
0.30877473
0.30787434
0.30698145
0.30610361
0.30524775
0.30442014
0.3036261
0.30287095
0.30215875
0.30149347
0.30087871
0.30031741
0.29981214
0.2993654
0.29897897
0.29865442
0.29839296
0.29819568
0.29806314
0.29799555
0.29799283
0.29805466
0.29818022
0.29836818
0.29861699
0.29892449
0.29928828
0.29970507
0.30017142
0.30068325
0.30123619
0.30182548
0.30244769
0.30309768
0.30377327
0.30446864
0.30518417
0.30591282
0.30665937
0.30741374
0.30818816
0.3089694
0.3097852
0.31062004
0.31152118
0.31243498
0.31339896
0.31432514
0.31530031
0.31620531
0.31718406
0.31803978
0.31901208
0.31997176
0.32107577
0.32217818
0.32336494
0.32451216
0.32566524
0.32672202
0.32770745
0.32852742
0.32917627
0.32956124
0.32966641
0.32941673
0.32879928
0.32774647
0.32623235
0.32421817
0.32168609
0.31861154
0.31499168
0.31081634
0.30607838
0.30078317
0.29493115
0.28857895
0.28174461
0.27456682
0.26709061
0.25929766
0.25115796
0.24263343
0.23365957
0.22417222
0.21406246
0.20322488
0.19146507
0.17863721
0.16434742
0.14834206
0.12963991
0.10793389
0.083099953
0.054946177
0.023216782
-0.012386312
-0.052135745
-0.09638587
-0.1452633
-0.19867502
-0.25460881
-0.31127667
-0.36087736
-0.39696383
-0.39979636
-0.38553624
-0.34831681
-0.32338
-0.27812931
-0.27807478
-0.23432538
-0.2583132
-0.15810169
-0.072464466
-0.078171068
-0.049001735
-0.051465312
-0.031724339
-0.03384438
-0.022123681
-0.025123418
-0.019142605
-0.02192035
-0.019015645
-0.021659886
-0.021211848
-0.024211247
-0.025150899
-0.027385919
-0.027068937
-0.025777525
-0.021290178
-0.015050372
-0.0068766621
0.0011841208
0.0079755347
0.011623074
0.01119721
0.0071720624
-5.5921505e-05
-0.010057667
-0.021104624
-0.030696053
-0.035655159
-0.034946887
-0.030268323
-0.024679888
-0.020329187
-0.0177104
-0.015709766
-0.011535146
-0.0052221224
-0.00027806568
0.0011344404
-0.00029438043
-0.003356488
-0.0076899944
-0.013680437
-0.022253184
-0.034733363
-0.052560139
-0.077178347
-0.10924817
-0.14802162
-0.1902137
-0.22921226
-0.25652128
-0.26594337
-0.25865345
-0.24268886
-0.22690492
-0.21494846
-0.2038655
-0.19131833
-0.1811643
-0.17632473
-0.17533629
-0.17623872
-0.17859305
-0.18206655
-0.18702013
-0.19391763
-0.20332786
-0.21535833
-0.22964743
-0.2452305
-0.26100124
-0.27604393
-0.28976101
-0.30175801
-0.31181349
-0.31982652
-0.32578171
-0.32971381
-0.33168842
-0.33178596
-0.33009656
-0.32671253
-0.32172831
-0.31523687
-0.30733278
-0.29810878
-0.28765729
-0.27606852
-0.26343237
-0.2498371
-0.23537
-0.22011719
-0.20416252
-0.18758579
-0.17046601
-0.1528813
-0.13490952
-0.11662747
-0.09811112
-0.079435548
-0.060673782
-0.041897635
-0.023176894
-0.004580225
0.01382669
0.031980419
0.049820427
0.067288652
0.084331052
0.10089745
0.11694172
0.13242219
0.14730206
0.16154991
0.17513927
0.18804874
0.20026273
0.21177139
0.22256943
0.23265726
0.24203888
0.25072608
0.25873093
0.26607713
0.27279204
0.27891474
0.2845312
0.28965309
0.29423597
0.29828138
0.30180952
0.30485602
0.30745751
0.30964907
0.31146299
0.31292992
0.31407952
0.31494029
0.31553959
0.31590342
0.31605674
0.31602333
0.31582544
0.31548396
0.31501847
0.31444747
0.31378795
0.31305566
0.31226517
0.31143003
0.31056261
0.30967415
0.30877497
0.30787464
0.30698182
0.30610403
0.30524821
0.30442064
0.30362665
0.30287154
0.30215936
0.30149411
0.30087937
0.30031808
0.29981283
0.2993661
0.29897968
0.29865513
0.29839367
0.29819639
0.29806384
0.29799624
0.2979935
0.29805532
0.29818086
0.29836881
0.29861759
0.29892507
0.29928883
0.29970559
0.30017191
0.30068371
0.30123661
0.30182588
0.30244805
0.303098
0.30377355
0.30446888
0.30518436
0.30591296
0.30665948
0.30741379
0.30818817
0.30896935
0.30978506
0.31061978
0.31152078
0.31243444
0.31339835
0.31432445
0.31529957
0.31620449
0.31718318
0.31803909
0.31901182
0.31997215
0.32107689
0.32218006
0.32336764
0.32451555
0.32566919
0.32672621
0.32771157
0.32853098
0.32917884
0.32956222
0.32966525
0.32941282
0.32879208
0.32773524
0.32621676
0.32419768
0.32166051
0.31858077
0.31495573
0.31077518
0.30603226
0.30073213
0.29487575
0.28851958
0.28168224
0.27450219
0.26702365
0.25922811
0.25108551
0.24255755
0.23357957
0.22408725
0.21397164
0.20312653
0.19135802
0.17851858
0.16421485
0.14818983
0.12946323
0.10773344
0.082875801
0.054698547
0.022945863
-0.012679287
-0.052448655
-0.096713919
-0.14559866
-0.198997
-0.25489417
-0.31148083
-0.36096769
-0.39690342
-0.39966919
-0.38540148
-0.34822892
-0.32332227
-0.27809941
-0.27806809
-0.23431924
-0.25831181
-0.15810122
-0.072462007
-0.078170945
-0.049005254
-0.051470562
-0.031738001
-0.033852323
-0.022140252
-0.025126049
-0.019153401
-0.021917352
-0.019019059
-0.021650364
-0.021203621
-0.024194257
-0.02513723
-0.027375509
-0.027074439
-0.025799897
-0.021336517
-0.01511335
-0.0069507519
0.0011143204
0.0079217111
0.011599295
0.011207561
0.0072102249
1.029133e-05
-0.0099736426
-0.021017285
-0.030628809
-0.035628794
-0.034960988
-0.030304878
-0.024717545
-0.020356875
-0.017726912
-0.015730783
-0.011582008
-0.0052822944
-0.0003171318
0.0011279752
-0.00027706943
-0.0033295141
-0.0076531286
-0.013630227
-0.022181939
-0.034634427
-0.052428309
-0.07701343
-0.10905959
-0.1478312
-0.19005707
-0.22912767
-0.25652643
-0.2660135
-0.25873126
-0.24273382
-0.22692004
-0.21495886
-0.20387781
-0.19132522
-0.18116472
-0.17632705
-0.17534014
-0.17624258
-0.17859647
-0.18206937