/*--------------------------------*- C++ -*----------------------------------*\
| =========                 |                                                 |
| \\      /  F ield         | OpenFOAM: The Open Source CFD Toolbox           |
|  \\    /   O peration     | Version:  2.4.0                                 |
|   \\  /    A nd           | Web:      www.OpenFOAM.org                      |
|    \\/     M anipulation  |                                                 |
\*---------------------------------------------------------------------------*/
FoamFile
{
    version     2.0;
    format      ascii;
    class       volScalarField;
    location    "340";
    object      p;
}
// * * * * * * * * * * * * * * * * * * * * * * * * * * * * * * * * * * * * * //

dimensions      [0 2 -2 0 0 0 0];

internalField   nonuniform List<scalar> 
19477
(
-0.025603794
0.015349941
0.010860854
0.0097281935
0.0089202859
0.0081416696
0.0074126357
0.0067044251
0.0060095955
0.0053146671
0.0047230958
0.00425221
0.0038906592
0.0036400492
0.0034921604
0.0034415422
0.0034765615
0.0035880711
0.0037662723
0.0040006778
0.004280532
0.0045955936
0.0049378017
0.0052971139
0.0056431094
0.0059707035
0.0062738108
0.0065458366
0.0067815621
0.0069760916
0.00712454
0.0072219974
0.0072647378
0.0072507783
0.0071796555
0.0070496723
0.097038203
0.092153589
0.087001662
0.081592661
0.075942659
0.070073953
0.064015342
0.05780332
0.051481511
0.04510081
0.038721225
0.032379695
0.026135587
0.020045122
0.014152525
0.0084903051
0.0030770282
-0.0020705499
-0.0070622484
-0.012030522
-0.016953583
-0.021670196
-0.026202979
-0.030608674
-0.034925363
-0.039070979
-0.04305811
-0.046776725
-0.050366576
-0.053348175
-0.056737838
-0.058135743
-0.063892234
-0.023659633
0.017083005
0.012804775
0.011425113
0.010592237
0.0097197561
0.0089140253
0.0081250376
0.0073514025
0.0065793562
0.0059082417
0.0053558
0.0049112685
0.0045765404
0.0043441569
0.0042093096
0.0041613377
0.0041919197
0.0042922022
0.0044526564
0.0046635386
0.0049154926
0.005201311
0.0055113257
0.0058160118
0.0061100471
0.0063870986
0.0066401178
0.0068635268
0.0070524269
0.007202165
0.0073075574
0.0073636316
0.0073665922
0.0073144386
0.0072047891
0.0070423389
0.0068426705
0.0066083375
0.0063419647
0.0060471968
0.0057265963
0.0053834304
0.094995524
0.090140349
0.085036719
0.079696551
0.07413735
0.068382467
0.062461244
0.056409998
0.050271297
0.044094026
0.037934571
0.031826346
0.025822562
0.019972505
0.014313143
0.0088691348
0.0036573952
-0.0013129179
-0.0061769256
-0.011021723
-0.015791738
-0.020360492
-0.024762839
-0.029048871
-0.033253762
-0.037301155
-0.041196809
-0.044847978
-0.04836366
-0.051336439
-0.054638675
-0.056179063
-0.06171769
-0.021722632
0.018814227
0.014746212
0.013132598
0.012272952
0.011315113
0.010435946
0.009571322
0.0087232254
0.0078784765
0.0071320249
0.0065019757
0.0059781552
0.0055626928
0.0052488411
0.005032375
0.0049035349
0.0048547473
0.0048780026
0.0049646243
0.0051057561
0.0052928395
0.0055194491
0.0057763695
0.0060350881
0.0062902067
0.0065353788
0.0067633222
0.006968131
0.0071447531
0.0072887148
0.0073950903
0.0074586139
0.0074742871
0.0074384275
0.0073473723
0.0072048056
0.0070247664
0.0068096974
0.0065623854
0.0062866509
0.0059855349
0.0056624748
0.092947572
0.08813261
0.083088144
0.077827495
0.072369275
0.066737529
0.060961746
0.055077651
0.049126334
0.043154255
0.037213845
0.03133475
0.025564016
0.019944401
0.014506407
0.0092686301
0.0042485899
-0.00055469298
-0.0052879277
-0.010015723
-0.01463547
-0.019063502
-0.023339504
-0.027508678
-0.031604048
-0.035554244
-0.039359773
-0.042942174
-0.046385022
-0.049343408
-0.052561513
-0.054233832
-0.059556893
-0.019794645
0.020541775
0.016683145
0.014848517
0.013960677
0.012925613
0.011976586
0.011041381
0.010123302
0.0092103267
0.0083928564
0.0076892745
0.0070900065
0.0065973678
0.0062052768
0.0059100389
0.0057027336
0.0055764701
0.0055240013
0.0055374183
0.0056086523
0.0057298636
0.0058953296
0.0060963136
0.0063053783
0.0065171328
0.006725364
0.006922748
0.0071031774
0.0072613998
0.0073929321
0.0074931966
0.0075572809
0.0075799107
0.0075562673
0.0074812673
0.0073570206
0.0071955869
0.0069990019
0.0067699747
0.0065123072
0.0062293192
0.0059246394
0.090900623
0.08613654
0.081161791
0.075990823
0.070643025
0.065142778
0.059519332
0.053807426
0.048046296
0.04227962
0.036555643
0.030900153
0.025354258
0.019954899
0.014727107
0.009684979
0.004846503
0.0001976375
-0.0044074135
-0.0090141743
-0.013487945
-0.01778113
-0.021934152
-0.025989108
-0.029977089
-0.033831161
-0.037547817
-0.041060395
-0.044431564
-0.047370493
-0.050507563
-0.052301616
-0.057411492
-0.017877556
0.022263838
0.018613504
0.016570651
0.015653559
0.014549032
0.013533985
0.012533175
0.011549695
0.010573018
0.0096889391
0.0089160108
0.0082452702
0.0076791731
0.0072122595
0.0068413174
0.0065582091
0.0063566718
0.0062301529
0.0061714433
0.0061731839
0.0062281881
0.0063313611
0.0064744441
0.0066311065
0.0067959965
0.006963112
0.0071252217
0.0072761619
0.007410537
0.0075237536
0.0076114262
0.0076691362
0.0076920128
0.0076749802
0.0076120043
0.0075034973
0.0073592398
0.0071803024
0.0069689452
0.0067287187
0.0064630409
0.0061756871
0.088860896
0.084158085
0.079263134
0.074191321
0.068962493
0.063601016
0.058135539
0.052599461
0.047029839
0.041467305
0.035955816
0.030517387
0.025187635
0.01999852
0.01497045
0.010114363
0.0054478258
0.00094023472
-0.0035438452
-0.0080219028
-0.012352272
-0.016514814
-0.020547856
-0.024491137
-0.028373755
-0.032132822
-0.035761778
-0.039203721
-0.042504216
-0.045419102
-0.048478037
-0.05038397
-0.05528321
-0.015973206
0.023978611
0.020535194
0.018296707
0.017349666
0.016183061
0.015106053
0.014044532
0.013000298
0.011964481
0.011018271
0.010180276
0.0094421538
0.0088064595
0.0082683106
0.0078249344
0.0074689248
0.0071945975
0.0069960371
0.0068666801
0.0067998149
0.0067888565
0.0068292725
0.0069132721
0.0070156468
0.0071310885
0.007253833
0.0073768194
0.0074939404
0.0075997667
0.0076896191
0.0077591482
0.0078042599
0.0078206675
0.0078037096
0.0077472243
0.0076504508
0.0075208853
0.0073581499
0.0071636337
0.0069403678
0.0066916281
0.0064211392
0.086834441
0.082202855
0.077397143
0.072433126
0.067330792
0.062114162
0.056810963
0.051452942
0.046074737
0.040713773
0.035409764
0.030181185
0.025058745
0.020070178
0.015231855
0.010553317
0.006050104
0.0016694252
-0.0026959836
-0.0070406435
-0.011230188
-0.01526565
-0.019181624
-0.023015701
-0.026794913
-0.030460135
-0.034002511
-0.037373224
-0.040603932
-0.04349064
-0.046474146
-0.048482444
-0.053173812
-0.01408344
0.025684278
0.022446108
0.02002433
0.019046983
0.017825314
0.016690571
0.015573153
0.014472849
0.013382467
0.012378652
0.011479944
0.010678627
0.0099773205
0.0093716761
0.0088593195
0.0084335271
0.0080891507
0.0078208603
0.0076226929
0.007488534
0.0074123613
0.0073901499
0.0074145662
0.0074615363
0.0075257904
0.0076017985
0.0076827061
0.0077625283
0.007835896
0.0078981185
0.0079448418
0.0079721112
0.0079760773
0.0079526889
0.007896292
0.0078057981
0.0076869583
0.0075379166
0.0073588318
0.0071518739
0.0069198246
0.0066660608
0.084827015
0.080276013
0.075568198
0.070719651
0.065750211
0.060683256
0.055545305
0.050366224
0.04517807
0.040015022
0.034912716
0.029886418
0.024962594
0.020165312
0.015507502
0.011000028
0.0066542528
0.0023887456
-0.0018630326
-0.0060709954
-0.010122678
-0.014034594
-0.017836416
-0.0215637
-0.025241415
-0.028813993
-0.03227088
-0.035569967
-0.03873168
-0.041586496
-0.044497096
-0.046598599
-0.051085073
-0.012210101
0.027379009
0.024344139
0.021751119
0.020743431
0.019473342
0.018285211
0.017116623
0.015964935
0.014824564
0.013767691
0.012812675
0.011952427
0.011189598
0.01052033
0.0099426089
0.0094503478
0.0090388949
0.0087034595
0.0084386388
0.0082388742
0.0080986744
0.0080144782
0.0079794004
0.007970517
0.0079825928
0.0080103162
0.0080470492
0.0080869594
0.0081247918
0.0081559116
0.0081759944
0.0081811539
0.0081677803
0.0081322958
0.0080697264
0.0079792566
0.007865819
0.0077266059
0.0075604814
0.0073684551
0.0071524613
0.0069152315
0.082843983
0.078382187
0.073780019
0.069053561
0.064222235
0.059308519
0.05433751
0.049337024
0.044336477
0.039366869
0.034460012
0.029628388
0.024894918
0.020280453
0.015795444
0.011454015
0.0072584195
0.0031043606
-0.0010410889
-0.0051114844
-0.0090302895
-0.012822547
-0.016513146
-0.020136002
-0.0237141
-0.027195275
-0.030567748
-0.033794994
-0.036888436
-0.039708047
-0.042548092
-0.044733996
-0.049018765
-0.010355039
0.029060964
0.026227179
0.023474635
0.022436868
0.021124641
0.019887546
0.018672422
0.017474013
0.016288203
0.01518282
0.014175931
0.013261071
0.01244089
0.011711981
0.011072652
0.010517409
0.010042059
0.0096423087
0.0093132782
0.0090499296
0.0088472748
0.0087021799
0.0086082037
0.0085435904
0.0085031433
0.0084817539
0.0084729986
0.0084712066
0.0084712597
0.0084686223
0.0084590434
0.008438702
0.0084041177
0.0083519951
0.0082779177
0.0081815319
0.0080676288
0.0079331533
0.0077761334
0.0075964261
0.0073948994
0.0071734939
0.080890248
0.076525422
0.072035658
0.067436799
0.062747621
0.057989503
0.053185956
0.048362666
0.043546439
0.038765247
0.034047403
0.02940308
0.024852311
0.020413028
0.016094303
0.011912097
0.0078526409
0.0038103229
-0.00022767975
-0.0041628406
-0.0079544444
-0.011630569
-0.015212735
-0.018733449
-0.022213784
-0.025604839
-0.028893978
-0.032049334
-0.035075184
-0.037856653
-0.040628332
-0.042890198
-0.046976649
-0.0085200902
0.03072829
0.028093136
0.025192415
0.024125105
0.022776667
0.021495064
0.020237938
0.018997416
0.017770675
0.016621305
0.015566987
0.014601865
0.013728563
0.012944082
0.012247019
0.011632429
0.011096544
0.010635526
0.010244985
0.0099203695
0.0096571705
0.0094526493
0.009300806
0.0091810745
0.0090883093
0.0090175945
0.0089627203
0.008918175
0.0088789842
0.0088407287
0.0087992578
0.0087508319
0.0086920681
0.0086198366
0.0085300977
0.0084228858
0.0083030481
0.0081677665
0.0080149058
0.0078436016
0.0076537759
0.0074465045
0.11343243
0.11073805
0.10786979
0.10482826
0.10161503
0.098232485
0.094683555
0.090971843
0.087110102
0.083107391
0.078970219
0.074709193
0.070337545
0.065870684
0.061326549
0.056725274
0.05208869
0.04744035
0.042804543
0.038206426
0.033671162
0.029207083
0.024831723
0.020560225
0.016401937
0.012370918
0.0084278322
0.004494487
0.00057339843
-0.0032279744
-0.0068966026
-0.010459587
-0.013936013
-0.017356828
-0.020741252
-0.024043515
-0.027250416
-0.03033399
-0.033292901
-0.036033649
-0.038739007
-0.041068763
-0.044960467
-0.0067070898
0.032379138
0.029939939
0.026901984
0.025805914
0.024426845
0.023105188
0.02181048
0.020532377
0.019269143
0.018080264
0.016982945
0.015971917
0.01504976
0.014213842
0.013463013
0.012792835
0.012199931
0.011680884
0.011231755
0.010848452
0.010526918
0.010264781
0.010056479
0.0098826573
0.0097382426
0.009618508
0.0095174619
0.0094297498
0.0093505398
0.0092755326
0.0092006888
0.0091223671
0.0090372806
0.0089424102
0.00883396
0.0087121848
0.0085819509
0.0084408438
0.0082869432
0.0081192767
0.0079373082
0.0077413233
0.11115081
0.10844662
0.10557767
0.10254541
0.099352205
0.096001192
0.092496
0.088840929
0.085048757
0.08112878
0.077087822
0.07293645
0.068687595
0.06435606
0.059958812
0.055514644
0.051043677
0.046567377
0.042107667
0.037687117
0.033328101
0.029037518
0.02483049
0.020719898
0.016718129
0.012832371
0.0089901617
0.0051547562
0.0013608735
-0.0023078438
-0.0058573788
-0.009310278
-0.012683694
-0.016006856
-0.01929724
-0.022512092
-0.025637885
-0.028649932
-0.031542553
-0.03424034
-0.03688129
-0.039271235
-0.042971928
-0.0049178544
0.034011675
0.031765553
0.028600869
0.027477046
0.026072587
0.024715289
0.023387298
0.022076043
0.020780667
0.019556685
0.018420749
0.017368159
0.016401423
0.015518241
0.014717682
0.013995772
0.013349496
0.012775818
0.01227122
0.011832036
0.011454638
0.011136993
0.01087397
0.010647443
0.010452439
0.010284424
0.010137632
0.010006873
0.0098874539
0.009775194
0.009666166
0.0095568311
0.0094440019
0.0093247508
0.0091954564
0.0090564613
0.0089125465
0.0087616676
0.0086022205
0.0084334674
0.0082548732
0.0080663414
0.10882888
0.10612351
0.10326273
0.10024871
0.097084512
0.093773887
0.09032103
0.086730776
0.083015765
0.079185371
0.075246574
0.071209743
0.067087356
0.062893484
0.058644028
0.054356392
0.050049001
0.04574133
0.041453107
0.037204561
0.033015653
0.02889215
0.024846809
0.02089198
0.017042478
0.013285935
0.0095423963
0.0058017556
0.0021393353
-0.0014024188
-0.0048373606
-0.0081833224
-0.011456453
-0.014684201
-0.017882438
-0.021011314
-0.024057171
-0.026998087
-0.029825081
-0.032477988
-0.035056337
-0.037499135
-0.041012704
-0.0031541721
0.035624108
0.033567989
0.030286613
0.029136247
0.027711309
0.026322708
0.024965598
0.023625497
0.022302217
0.021047442
0.01987721
0.018787357
0.017780305
0.016854044
0.01600783
0.015238118
0.014542216
0.013917439
0.013360656
0.012868597
0.012438035
0.012067246
0.011751526
0.011473988
0.01122979
0.011014596
0.010822883
0.010649633
0.010490296
0.01034081
0.010197357
0.010056496
0.0099151366
0.0097704376
0.0096189178
0.0094609295
0.0093010805
0.0091376028
0.0089691865
0.0087953716
0.0086158264
0.0084304921
0.1064748
0.10377687
0.10093299
0.097945969
0.09481941
0.09155757
0.088165071
0.084647131
0.081016106
0.077281302
0.073449709
0.069531371
0.065538192
0.061483414
0.05738182
0.053249414
0.049102986
0.044960138
0.040838588
0.036756474
0.03273171
0.028768978
0.024879041
0.021075849
0.017370074
0.013719385
0.010072265
0.0064394163
0.0029070399
-0.00051361732
-0.0038374761
-0.0070794316
-0.01025491
-0.013389466
-0.016497473
-0.01954187
-0.022509014
-0.025379326
-0.028141385
-0.030747805
-0.03326527
-0.035753954
-0.039084424
-0.0014177943
0.037214733
0.03534532
0.031956781
0.030781282
0.029340448
0.027924781
0.026542571
0.025177781
0.023830701
0.022549325
0.021349023
0.020226138
0.019182987
0.018217817
0.017330039
0.016516495
0.015774788
0.015102549
0.014496999
0.013955235
0.013474403
0.013053063
0.012686922
0.012360337
0.012068623
0.01180766
0.01157218
0.011357352
0.011158782
0.010972525
0.010794873
0.01062248
0.010452344
0.010281703
0.010107202
0.0099291621
0.0097519661
0.0095740436
0.0093942837
0.0092124316
0.0090283744
0.0088422238
0.10409728
0.10141526
0.09859678
0.095645152
0.092564431
0.089359241
0.086034498
0.082595653
0.079054653
0.075420599
0.071700372
0.067903578
0.064041457
0.060126364
0.056171938
0.052192817
0.048204231
0.044222047
0.040262157
0.036340883
0.032474324
0.028666013
0.024926208
0.021270614
0.017693143
0.014134177
0.010575315
0.0070655998
0.0036619269
0.00035789462
-0.0028580915
-0.0059990494
-0.0090795319
-0.012123155
-0.015142901
-0.018104379
-0.020994089
-0.02379445
-0.02649231
-0.029050929
-0.03150918
-0.034037145
-0.037188679
0.00028959768
0.038782018
0.03709569
0.033608952
0.032409965
0.030957486
0.029518864
0.02811541
0.026729923
0.025362989
0.024059061
0.022832795
0.02168101
0.020605906
0.01960595
0.018680681
0.017827289
0.01704364
0.016327647
0.015676851
0.015088685
0.014560641
0.014091529
0.013677459
0.01330402
0.012966719
0.012661657
0.012383838
0.012128641
0.011891834
0.011669603
0.011458352
0.011254826
0.011056107
0.0108595
0.010661772
0.010463188
0.010267875
0.010074414
0.0098818207
0.0096899592
0.0094988615
0.0093087792
0.0091197676
0.0089335013
0.0087512536
0.0085741754
0.0084064122
0.0082511791
0.0081040628
0.0079673437
0.0078442649
0.0077379156
0.0076520396
0.10170542
0.099047572
0.096262688
0.093354481
0.090327329
0.087186093
0.083935857
0.080582159
0.077136424
0.073607436
0.070001858
0.066328778
0.062598708
0.058823085
0.055014418
0.05118603
0.047351692
0.043525676
0.039722262
0.035956212
0.032241843
0.028582033
0.024988951
0.021473268
0.017999223
0.014524734
0.011064459
0.0076845975
0.0044041421
0.0012121131
-0.0018994359
-0.00494252
-0.007930696
-0.010885689
-0.013819199
-0.016699385
-0.019513
-0.022244176
-0.024878625
-0.027388409
-0.029789112
-0.032350139
-0.035327042
0.0019664827
0.040324662
0.03881735
0.035240658
0.034020219
0.03255998
0.031102363
0.029681346
0.028278962
0.02689594
0.025573331
0.024325054
0.023148371
0.022045352
0.021014658
0.020055924
0.019166652
0.018344939
0.017588944
0.0168965
0.016265341
0.015693274
0.015179333
0.014720012
0.014302119
0.013921376
0.013574112
0.013255624
0.012961512
0.012687728
0.012430599
0.012186647
0.011952713
0.011725956
0.011503748
0.011282963
0.011063793
0.010850087
0.010640558
0.010434316
0.010231292
0.010031615
0.0098356544
0.009643667
0.0094574235
0.0092782231
0.0091070974
0.0089477769
0.0088030589
0.0086687351
0.0085468256
0.00844021
0.0083516365
0.0082844741
0.008241677
0.099308717
0.096683029
0.093939584
0.091082378
0.088115982
0.085045365
0.081875648
0.078612327
0.075266213
0.071845677
0.068357084
0.064808944
0.061211012
0.057573807
0.053908746
0.050227914
0.046543731
0.042869031
0.039216719
0.035600124
0.032031892
0.028516045
0.025064982
0.021668059
0.018278794
0.014889202
0.011547804
0.0082959494
0.0051324372
0.0020484843
-0.00096200954
-0.0039103023
-0.0068088395
-0.0096775159
-0.012526831
-0.015327388
-0.01806628
-0.020729113
-0.02330098
-0.025761164
-0.028106025
-0.03069449
-0.033501078
0.0036119796
0.041842932
0.040507596
0.036849421
0.035610268
0.034145565
0.032672761
0.03123768
0.029821997
0.028426459
0.027088854
0.025822343
0.024624601
0.023497566
0.022440064
0.021451802
0.020530557
0.019674624
0.01888238
0.018151909
0.017481217
0.016868397
0.016312673
0.015810911
0.015351117
0.014929245
0.01454186
0.01418456
0.013853186
0.013543888
0.013253149
0.01297762
0.012714246
0.012460265
0.012213108
0.011969755
0.011730301
0.011498296
0.011272584
0.011052346
0.010837554
0.010628408
0.010425357
0.010228712
0.010040257
0.0098613784
0.0096931764
0.009539114
0.0094016938
0.0092769884
0.0091668025
0.0090736795
0.009000031
0.0089488194
0.0089227153
0.0089245694
0.096918589
0.094332629
0.091637941
0.088838668
0.085939446
0.082945235
0.079861073
0.076692309
0.07344907
0.070139251
0.066768856
0.063345792
0.059879057
0.056378278
0.052853842
0.04931669
0.045778008
0.042249389
0.038742534
0.035269364
0.031841981
0.028466505
0.025143849
0.021837544
0.018524913
0.015239212
0.01202751
0.0088981226
0.0058463851
0.0028667343
-4.6203367e-05
-0.0029028144
-0.0057144079
-0.0084991164
-0.011266312
-0.013988926
-0.016654469
-0.019249813
-0.0217599
-0.024169934
-0.026460781
-0.029071488
-0.031713661
0.0052265668
0.043351907
0.0421538
0.038433185
0.037179609
0.035711931
0.03422765
0.032781832
0.031356199
0.029951467
0.028602322
0.02732115
0.026106016
0.02495873
0.023878248
0.022864327
0.021914977
0.021028668
0.020203951
0.019439131
0.018732449
0.018082245
0.017487909
0.016946661
0.016447676
0.015987163
0.015561922
0.015167859
0.014801071
0.01445792
0.014135059
0.013829285
0.013537657
0.013257497
0.012986298
0.012721141
0.012462005
0.012212113
0.011970423
0.011736183
0.011509389
0.011290268
0.011079296
0.010876806
0.010684564
0.010503978
0.010336221
0.010184641
0.010051574
0.0099333591
0.009831665
0.0097487801
0.0096868466
0.0096484767
0.0096359502
0.0096518294
0.0096988391
0.094568316
0.092029426
0.089390323
0.086655188
0.083828621
0.080915479
0.077920655
0.074849288
0.071710824
0.068512647
0.065260367
0.061961287
0.058623666
0.055256284
0.051868579
0.048470448
0.045072018
0.041683832
0.038316332
0.034980784
0.031691276
0.028447102
0.02521987
0.021983462
0.018763992
0.015604533
0.012517863
0.0095026712
0.0065569997
0.0036765624
0.00085637558
-0.0019130133
-0.0046418178
-0.0073464283
-0.010035035
-0.012682591
-0.015277081
-0.017806336
-0.020255733
-0.022615023
-0.024855111
-0.027474984
-0.029981454
0.006785236
0.044875419
0.043699406
0.039965474
0.03870585
0.037232832
0.035740717
0.034287235
0.032854382
0.031442891
0.030084687
0.028791452
0.027561661
0.026397054
0.025296691
0.024260373
0.023286303
0.022373094
0.021519446
0.020723846
0.019984739
0.019300673
0.018671175
0.018093809
0.017558802
0.017062635
0.016602325
0.01617408
0.015774256
0.015399435
0.015046453
0.014712263
0.014394046
0.014089221
0.013795353
0.013509615
0.013231863
0.012965012
0.012708114
0.012460487
0.012222133
0.011993286
0.011774418
0.011565854
0.011369302
0.011186154
0.011017606
0.010866932
0.010736359
0.010622463
0.010526836
0.010451555
0.010398537
0.010370117
0.010368259
0.010395166
0.010453296
0.092323665
0.089837909
0.08725957
0.084592796
0.081842097
0.079012188
0.076107786
0.073133808
0.070099075
0.067010477
0.06387323
0.060694063
0.057480542
0.054240666
0.050983033
0.047716661
0.044450849
0.041195114
0.037958894
0.034755289
0.031592889
0.028443757
0.025281837
0.022132276
0.019031883
0.015994527
0.013020815
0.010110771
0.0072634082
0.0044747803
0.0017403597
-0.00094840848
-0.0036006765
-0.006231153
-0.0088469025
-0.011424467
-0.013952369
-0.01641895
-0.018810852
-0.021119545
-0.023316937
-0.025905095
-0.028376524
0.0082444034
0.046369252
0.045100608
0.041400823
0.040143368
0.0386618
0.037164739
0.035705975
0.034267884
0.032851353
0.031485933
0.030182646
0.02894035
0.027760794
0.026643136
0.025587243
0.024591485
0.023654609
0.02277545
0.021952657
0.021184854
0.020470767
0.019810026
0.019200491
0.018633259
0.01810508
0.017613169
0.017154011
0.016724212
0.01632057
0.0159401
0.015579915
0.015237325
0.014909853
0.014595147
0.014290486
0.013995636
0.013713258
0.013442482
0.013182694
0.012933906
0.012696347
0.012470476
0.012256607
0.012056372
0.011871121
0.011702017
0.011552227
0.011423897
0.011313798
0.011223407
0.011154584
0.011109064
0.011088953
0.011095968
0.011132021
0.011199244
0.090228346
0.087798062
0.08528187
0.082683848
0.080008388
0.07726004
0.074443331
0.071562927
0.068627071
0.065642184
0.062613107
0.05954605
0.05644796
0.053326174
0.050188625
0.047043663
0.043900006
0.040766423
0.037652705
0.03456751
0.031492508
0.028405053
0.025326722
0.022289887
0.019306215
0.016377744
0.013505862
0.010691375
0.0079333717
0.0052282712
0.002572057
-4.3014473e-05
-0.0026251204
-0.0051874855
-0.0077363218
-0.010249558
-0.012716366
-0.015125304
-0.017464845
-0.019724956
-0.021888647
-0.024406076
-0.026942293
0.0095902741
0.047770296
0.046374898
0.042724789
0.041473365
0.03998299
0.038483202
0.037021242
0.035580037
0.034160736
0.032790705
0.031480258
0.030228525
0.02903726
0.02790571
0.02683381
0.025820083
0.024863399
0.023962714
0.023116822
0.0223245
0.021584623
0.020896892
0.020259402
0.019664009
0.019107716
0.018587933
0.018101401
0.017644965
0.017215625
0.016810576
0.016427087
0.016062601
0.015714747
0.015381273
0.015059575
0.014749361
0.014453062
0.014169865
0.013899209
0.013641109
0.013395782
0.013163668
0.012945069
0.012741568
0.012554457
0.012384825
0.012235701
0.012109176
0.01200219
0.011916067
0.011852478
0.011813001
0.011799553
0.011813651
0.011856985
0.011931451
0.088282674
0.085907577
0.083452462
0.080921298
0.07831833
0.075647921
0.072914383
0.070122117
0.067278808
0.06439042
0.061461462
0.058497681
0.055505526
0.052491876
0.04946407
0.046429815
0.043399215
0.040378889
0.037371825
0.034364445
0.031350672
0.028346003
0.025376188
0.02244954
0.01956911
0.016737737
0.013957489
0.011229129
0.0085518631
0.0059224941
0.0033374587
0.00078972255
-0.0017280489
-0.0042278089
-0.0067151297
-0.0091692986
-0.011580191
-0.013936488
-0.016228643
-0.018443367
-0.020578738
-0.023016323
-0.025644919
0.010831945
0.049072836
0.047544362
0.043947943
0.042704524
0.041206488
0.039705942
0.038242763
0.036800608
0.035380906
0.034008954
0.032694338
0.031436372
0.030236773
0.029094857
0.028010604
0.026982671
0.026010032
0.025091744
0.024226722
0.023413868
0.022652179
0.021941402
0.021279832
0.020660023
0.020079216
0.019535009
0.019024385
0.01854441
0.018092286
0.017665378
0.01726111
0.01687706
0.016510971
0.016160693
0.015823747
0.01549979
0.015191033
0.014896705
0.01461628
0.01434976
0.014097349
0.013859466
0.01363639
0.013429639
0.013240441
0.013069839
0.012920726
0.012795102
0.012690078
0.012606898
0.012547077
0.01251203
0.012503501
0.012522834
0.012571537
0.01265131
0.086475446
0.08415456
0.081758865
0.079292187
0.076758596
0.074162249
0.071507227
0.068797664
0.066040714
0.063241917
0.060405523
0.057536953
0.05464224
0.051727763
0.04880142
0.045869961
0.042943984
0.040016907
0.037078901
0.034136528
0.031209274
0.02830867
0.025440995
0.022610781
0.0198221
0.017077982
0.014380273
0.011729661
0.0091254827
0.0065648712
0.0040446512
0.0015584134
-0.00090045064
-0.003342785
-0.0057736468
-0.0081736234
-0.010533299
-0.012841361
-0.015090392
-0.017262793
-0.019373922
-0.021730999
-0.024456999
0.011978937
0.050284973
0.048620018
0.045080248
0.043845754
0.042341315
0.040841629
0.039378797
0.037937364
0.036519022
0.035147128
0.033830572
0.032568806
0.031363485
0.030213974
0.029120282
0.028081176
0.02709572
0.026163055
0.025282194
0.024452146
0.023672005
0.022941546
0.022259239
0.021618268
0.021016096
0.020450496
0.019918678
0.019417919
0.018945605
0.018499268
0.018076484
0.017674965
0.017292568
0.016927249
0.016576658
0.01624041
0.015920511
0.01561623
0.015327068
0.015053018
0.014794263
0.014551195
0.014324066
0.014114299
0.013923056
0.013751339
0.013601902
0.013476644
0.013372855
0.013291722
0.013234619
0.01320282
0.013197911
0.013221082
0.013273679
0.01335722
0.084797228
0.082528991
0.080190533
0.077785519
0.07531784
0.072791439
0.070210135
0.067577808
0.064901188
0.062185475
0.059434723
0.056653934
0.053849839
0.051027931
0.0481979
0.045362078
0.042511075
0.039647547
0.036781343
0.033930514
0.031100505
0.0282938
0.025515599
0.02277158
0.020065591
0.017400208
0.014777079
0.012196863
0.0096590069
0.0071609368
0.0046998177
0.0022697955
-0.00013510558
-0.0025247471
-0.0049037552
-0.0072539314
-0.009566583
-0.011830244
-0.014039878
-0.016172535
-0.018263261
-0.020539097
-0.023366149
0.013040201
0.051415061
0.049610666
0.04613045
0.044905139
0.04339543
0.041897929
0.040436677
0.038997267
0.03758161
0.036211258
0.034894451
0.033630757
0.032421752
0.03126684
0.030166046
0.029118231
0.02812253
0.027178155
0.026284202
0.025439768
0.024644025
0.023896767
0.023196611
0.022537313
0.02191654
0.021332225
0.020781789
0.020262703
0.019772532
0.019308962
0.018869717
0.018452638
0.018055696
0.017676951
0.01731418
0.016966967
0.016637125
0.016323958
0.016026994
0.015746217
0.015481789
0.015234072
0.015003287
0.014790773
0.014597616
0.01442475
0.014274774
0.014149507
0.014046422
0.013966634
0.013911383
0.013881832
0.013879427
0.013905228
0.013960432
0.014046402
0.083237845
0.081020348
0.078736652
0.076390224
0.073984798
0.071524163
0.069011881
0.066451618
0.063849669
0.061211069
0.05854088
0.055842729
0.05312556
0.050393443
0.047641226
0.044872158
0.042087237
0.039301245
0.03652631
0.033763851
0.031018987
0.028295076
0.025597513
0.022931445
0.020300174
0.01770599
0.015150413
0.012634075
0.010156521
0.0077154342
0.0053082789
0.0029296987
0.00057427334
-0.0017669749
-0.004098304
-0.0064026341
-0.0086720196
-0.010894657
-0.013068232
-0.015163332
-0.017237304
-0.019430917
-0.02236266
0.01402375
0.052470592
0.050524106
0.047106205
0.045889909
0.044375913
0.042881669
0.041422959
0.039986578
0.038574607
0.037206913
0.035891143
0.034626962
0.033415869
0.032257297
0.031151277
0.030096748
0.029092908
0.028139024
0.027234263
0.026377796
0.025568861
0.024807258
0.024091731
0.023416558
0.022779585
0.022178897
0.021612106
0.021076865
0.020570903
0.020092056
0.019638185
0.019207256
0.018797349
0.018406628
0.018032991
0.017676
0.017337287
0.017016185
0.016712248
0.016425446
0.016155919
0.015904
0.015669887
0.015454837
0.01525986
0.015085821
0.014935159
0.014809599
0.014706791
0.014627782
0.014573697
0.014545596
0.014544802
0.014572256
0.01462903
0.014716343
0.08178705
0.079618135
0.077386578
0.075095615
0.072748861
0.070350035
0.067902195
0.065409689
0.062878709
0.060313274
0.057721715
0.055106079
0.052462613
0.049796714
0.047109465
0.044410514
0.041710057
0.039008513
0.036312549
0.033626936
0.030958366
0.028309577
0.025685172
0.023089706
0.020526127
0.017996524
0.015502302
0.013044071
0.010621459
0.0082323848
0.0058745794
0.003543136
0.0012331278
-0.0010636179
-0.0033510421
-0.0056130827
-0.0078425801
-0.010027189
-0.012167731
-0.01422713
-0.016287828
-0.018398181
-0.021438042
0.014936695
0.05345828
0.051367242
0.048014272
0.046806514
0.045289081
0.04379895
0.042343521
0.040910942
0.039503402
0.038139201
0.036825441
0.035561881
0.034349939
0.033189078
0.032079329
0.031019698
0.030009435
0.029047854
0.028134181
0.027267648
0.026447549
0.025673685
0.02494491
0.024255972
0.023604883
0.022989861
0.022408698
0.021859212
0.021339284
0.020846891
0.020380023
0.019936765
0.019515302
0.019113896
0.018730565
0.01836485
0.018018219
0.017690031
0.017379859
0.017087659
0.016813549
0.016557831
0.01632068
0.016103272
0.015906549
0.01573131
0.015579838
0.015453759
0.015350885
0.015272198
0.015218719
0.015191414
0.015191495
0.0152198
0.015277287
0.01536505
0.080435534
0.078312949
0.07613085
0.073892141
0.071600961
0.069261792
0.066875601
0.064448384
0.061989268
0.059498194
0.056972971
0.05442044
0.051840908
0.049241673
0.046631273
0.044010611
0.041383609
0.038754323
0.036129241
0.033514284
0.030915519
0.028335105
0.025777166
0.023245831
0.020743771
0.018272904
0.015834542
0.013429279
0.011056823
0.008715306
0.0064026992
0.0041145073
0.0018462457
-0.0004095172
-0.0026564497
-0.0048794073
-0.00707207
-0.0092213237
-0.011331605
-0.013356878
-0.015407656
-0.017433681
-0.020584857
0.015785345
0.054384106
0.052146216
0.048860655
0.047660711
0.046140584
0.044655238
0.043203648
0.041775455
0.040372893
0.039012798
0.037701778
0.03643968
0.035227849
0.034065776
0.032953488
0.031890052
0.030874761
0.029906968
0.028985951
0.028110994
0.027281436
0.026497077
0.025756864
0.025055974
0.024392567
0.023764984
0.023171177
0.022609119
0.022076833
0.021572421
0.021093998
0.020639761
0.020207994
0.019797053
0.019405069
0.019031569
0.018677867
0.018343347
0.018027597
0.017730558
0.017452325
0.017193171
0.016953246
0.016733647
0.016535248
0.016358789
0.016206403
0.016079618
0.015976396
0.015897658
0.015844326
0.015817281
0.015817634
0.015846131
0.015903628
0.015991109
0.079175105
0.077097309
0.074963341
0.072774785
0.070537403
0.068259066
0.065938571
0.063574693
0.061175243
0.058744507
0.056280452
0.053790513
0.051282268
0.048755061