/*--------------------------------*- C++ -*----------------------------------*\
| =========                 |                                                 |
| \\      /  F ield         | OpenFOAM: The Open Source CFD Toolbox           |
|  \\    /   O peration     | Version:  2.4.0                                 |
|   \\  /    A nd           | Web:      www.OpenFOAM.org                      |
|    \\/     M anipulation  |                                                 |
\*---------------------------------------------------------------------------*/
FoamFile
{
    version     2.0;
    format      ascii;
    class       surfaceScalarField;
    location    "340";
    object      phi;
}
// * * * * * * * * * * * * * * * * * * * * * * * * * * * * * * * * * * * * * //

dimensions      [0 3 -1 0 0 0 0];

internalField   nonuniform List<scalar> 
38499
(
0.0032549097
0.00029040385
0.0032558754
0.00026580174
0.0032562555
0.0002953745
0.0032566728
0.00038293876
0.0032574171
0.00052532039
0.0032589035
0.00072016662
0.0032613934
0.00096133382
0.0032650684
0.0012384946
0.003269975
0.0015372979
0.0032759798
0.0018331682
0.0032826529
0.0020758349
0.0032895623
0.0022588591
0.0032963837
0.0023952152
0.0033028735
0.0024929613
0.0033088653
0.0025626992
0.0033142381
0.0026088999
0.0033189075
0.0026371687
0.0033228049
0.0026507634
0.0033258624
0.0026517802
0.003327999
0.0026416944
0.0033291109
0.0026214831
0.0033290621
0.002591679
0.0033276814
0.0025524127
0.0033247651
0.0025062231
0.0033200694
0.0024600242
0.0033132986
0.0024146866
0.0033041113
0.0023699914
0.0032921229
0.0023257033
0.0032769124
0.0022815988
0.0032580322
0.0022374048
0.003235024
0.0021928171
0.0032074381
0.0021476374
0.0031748492
0.0021016499
0.0031368669
0.0020546677
0.0030931449
0.0020065394
0.0019571268
0.0027829732
-0.0012741602
0.0028160728
-0.0013016454
0.002848883
-0.001332556
0.0028813017
-0.0013670752
0.0029131981
-0.0014053956
0.002944412
-0.0014476975
0.0029747543
-0.0014940407
0.0030040073
-0.0015444844
0.0030319297
-0.0015990037
0.003058261
-0.0016574278
0.0030827332
-0.0017184366
0.0031051046
-0.001774286
0.003125191
-0.0018215411
0.0031428676
-0.001859392
0.0031580835
-0.0018867032
0.0031708687
-0.001901921
0.0031813478
-0.0019032118
0.0031897198
-0.0018883599
0.0031962039
-0.0018540885
0.0032011396
-0.0017946039
0.0032047847
-0.0017049368
0.0032075225
-0.0015748627
0.0032098456
-0.0013959735
0.0032123349
-0.0011557382
0.003215517
-0.00086164291
0.0032195191
-0.00056592911
0.0032242621
-0.00029298257
0.0032295607
-5.6754104e-05
0.0032351016
0.00013295565
0.0032406012
0.00027080398
0.0032456135
0.000353677
0.0032499317
0.00038232946
0.00035382677
0.0033811514
0.0002882929
0.0033823834
0.00026456979
0.0033830694
0.00029468848
0.0033838454
0.00038216274
0.0033850412
0.00052412465
0.0033870863
0.00071812153
0.0033902706
0.00095814952
0.0033947909
0.0012339743
0.0034007056
0.0015313833
0.0034078771
0.0018259966
0.0034158464
0.0020678656
0.0034241461
0.0022505595
0.0034324238
0.0023869374
0.0034404133
0.0024849717
0.0034479322
0.0025551803
0.0034548473
0.0026019848
0.0034610691
0.002630947
0.0034665304
0.0026453021
0.0034711708
0.0026471398
0.0034749277
0.0026379376
0.0034777224
0.0026186884
0.0034794542
0.0025899472
0.003479994
0.0025518729
0.0034791887
0.0025070284
0.0034768532
0.0024623598
0.0034727559
0.0024187839
0.0034666202
0.0023761271
0.0034581278
0.0023341957
0.0034469218
0.0022928048
0.0034326116
0.002251715
0.0034147823
0.0022106465
0.0033930087
0.002169411
0.0033668712
0.0021277874
0.0033359692
0.0020855697
0.0032999298
0.0020425788
0.0032584149
0.0019986416
0.003211169
0.0019518708
0.0031580944
0.0018994222
0.0030992387
0.0018412742
0.0030348037
0.0017777548
0.0029651604
0.00170929
0.0028908509
0.0016363342
0.0015594111
0.0029498615
-0.001306391
0.0029817776
-0.0013335616
0.0030132979
-0.0013640763
0.0030443152
-0.0013980924
0.0030746941
-0.0014357746
0.0031042729
-0.0014772762
0.0031328632
-0.001522631
0.0031602519
-0.0015718732
0.0031862047
-0.0016249565
0.0032104741
-0.0016816972
0.0032328095
-0.001740772
0.0032529976
-0.001794474
0.0032708854
-0.0018394289
0.0032863843
-0.0018748908
0.0032994766
-0.0018997955
0.003310222
-0.0019126664
0.0033187681
-0.0019117578
0.0033253252
-0.0018949171
0.0033300938
-0.0018588571
0.0033334196
-0.0017979297
0.0033355723
-0.0017070895
0.003336958
-0.0015762484
0.0033380914
-0.0013971068
0.0033395817
-0.0011572286
0.0033419798
-0.00086404097
0.0033454097
-0.00056935902
0.0033497796
-0.00029735248
0.0033548795
-6.185394e-05
0.0033603759
0.00012745926
0.0033659478
0.00026523201
0.00337113
0.00034849479
0.0033756699
0.00037778964
0.00035045615
0.0035123761
0.00028592838
0.0035138744
0.00026307147
0.003514871
0.00029369184
0.0035160169
0.00038101689
0.0035176805
0.00052246109
0.0035203103
0.00071549166
0.0035242251
0.00095423475
0.0035296392
0.0012285601
0.0035366221
0.0015244004
0.0035450349
0.0018175839
0.0035543851
0.0020585153
0.0035641692
0.0022407754
0.003574006
0.0023771007
0.0035836029
0.0024753748
0.0035927602
0.002546023
0.0036013307
0.0025934143
0.0036092165
0.0026230612
0.0036163473
0.0026381713
0.0036226678
0.0026408194
0.0036281249
0.0026324804
0.0036326593
0.002614154
0.0036361974
0.0025864091
0.0036386446
0.0025494257
0.0036398892
0.0025057838
0.0036397988
0.0024624503
0.0036381988
0.0024203838
0.0036348735
0.0023794524
0.0036295662
0.0023395029
0.0036219827
0.0023003884
0.0036117936
0.0022619041
0.0035986387
0.0022238014
0.0035821342
0.0021859155
0.0035618862
0.0021480354
0.003537503
0.0021099529
0.0035086068
0.002071475
0.0034748401
0.0020324083
0.0034359034
0.0019908074
0.0033916198
0.0019437059
0.0033419262
0.0018909677
0.0032868871
0.001832794
0.003226708
0.0017694691
0.0031617471
0.0017012951
0.0016286346
0.0031253174
-0.0013372842
0.0031557979
-0.001364042
0.0031857793
-0.0013940578
0.00321515
-0.0014274631
0.0032437724
-0.001464397
0.0032714845
-0.0015049883
0.0032981002
-0.0015492468
0.0033234124
-0.0015971854
0.0033471968
-0.0016487408
0.0033692197
-0.0017037201
0.0033892502
-0.0017608026
0.0034071035
-0.0018123273
0.00342266
-0.0018549855
0.0034358642
-0.001888095
0.003446728
-0.0019106593
0.0034553338
-0.0019212722
0.0034618452
-0.0019182692
0.0034664878
-0.0018995596
0.0034694668
-0.0018618362
0.0034710888
-0.0017995516
0.0034716604
-0.0017076611
0.0034716154
-0.0015762034
0.0034714912
-0.0013969827
0.0034719262
-0.0011576635
0.0034734955
-0.00086561031
0.0034763205
-0.00057218407
0.0034802942
-0.00030132616
0.0034851815
-6.674117e-05
0.0034906256
0.0001220151
0.0034962675
0.00025959009
0.0035016204
0.00034314196
0.003506385
0.00037302498
0.0003468296
0.0036487369
0.00028330761
0.0036505039
0.00026130442
0.0036518173
0.00029237848
0.0036533433
0.00037949086
0.0036554926
0.00052031186
0.0036587339
0.00071225031
0.0036634164
0.0009495523
0.0036697735
0.001222203
0.0036778881
0.0015162857
0.0036876183
0.0018078537
0.0036984381
0.0020476956
0.0037098054
0.0022294081
0.0037213075
0.0023655985
0.0037326259
0.0024640564
0.0037435406
0.0025351083
0.003753888
0.0025830669
0.0037635593
0.0026133899
0.0037724792
0.0026292514
0.0037805907
0.0026327078
0.0037878471
0.0026252241
0.0037942017
0.0026077994
0.0037996004
0.0025810103
0.0038039753
0.0025450508
0.0038072488
0.0025025103
0.0038093336
0.0024603654
0.0038101063
0.0024196112
0.0038094046
0.0023801541
0.0038070297
0.0023418778
0.0038027463
0.0023046717
0.0037962846
0.0022683658
0.0037873423
0.0022327437
0.0037755886
0.0021976693
0.0037606702
0.0021629537
0.0037422224
0.0021284008
0.0037198796
0.0020938177
0.0036932858
0.0020590022
0.0036621225
0.0020219706
0.0036261644
0.001979664
0.0035852746
0.0019318575
0.0035394175
0.0018786511
0.0034886741
0.0018202125
0.0034332541
0.0017567151
0.0016883797
0.0033094924
-0.0013665763
0.0033382779
-0.0013928276
0.0033664656
-0.0014222454
0.0033939414
-0.0014549389
0.0034205665
-0.0014910221
0.00344618
-0.0015306018
0.0034706002
-0.001573667
0.0034936274
-0.0016202125
0.0035150487
-0.0016701621
0.0035346462
-0.0017233175
0.0035522096
-0.001778366
0.0035675829
-0.0018277006
0.0035806792
-0.0018680818
0.0035914729
-0.0018988887
0.0036000026
-0.001919189
0.0036063697
-0.0019276393
0.0036107503
-0.0019226498
0.0036133785
-0.0019021878
0.00361447
-0.0018629277
0.0036142927
-0.0017993744
0.0036131971
-0.0017065655
0.003611645
-0.0015746512
0.0036101954
-0.0013955331
0.0036095181
-0.0011569863
0.0036102148
-0.000866307
0.0036124019
-0.0005743711
0.003615957
-0.00030488133
0.0036206181
-7.1402198e-05
0.0036260031
0.00011663003
0.0036317135
0.00025387972
0.0036372384
0.00033761708
0.0036422309
0.00036803244
0.0003429444
0.0037903882
0.00028042854
0.0037924275
0.00025926514
0.003794063
0.00029074296
0.0037959807
0.00037757312
0.0037986332
0.00051765943
0.0038025139
0.0007083696
0.0038080023
0.00094406388
0.0038153535
0.0012148518
0.0038246645
0.0015069747
0.0038357908
0.0017967274
0.0038481722
0.0020353143
0.0038612252
0.002216355
0.0038745047
0.002352319
0.0038876634
0.0024508978
0.0039004602
0.0025223115
0.0039127137
0.0025708134
0.0039243023
0.0026018012
0.0039351409
0.0026184128
0.0039451695
0.0026226793
0.0039543421
0.0026160515
0.0039626191
0.0025995224
0.0039699592
0.0025736702
0.0039763139
0.0025386961
0.003981633
0.0024971912
0.0039858672
0.0024561312
0.0039889362
0.0024165421
0.0039907268
0.0023783635
0.0039910909
0.0023415137
0.0039898471
0.0023059155
0.003986782
0.0022714309
0.0039816505
0.0022378751
0.003974177
0.0022051427
0.0039640588
0.0021730719
0.003950972
0.0021414876
0.0039345799
0.0021102098
0.0039145425
0.0020790396
0.0038905423
0.0020459708
0.0038623292
0.0020078771
0.0038297213
0.0019644654
0.0037926159
0.0019157565
0.0037510038
0.0018618246
0.0037049831
0.0018027359
0.0017385919
0.0035025051
-0.0013939983
0.0035293322
-0.0014196547
0.00355547
-0.0014483832
0.0035808019
-0.0014802709
0.0036051899
-0.0015154101
0.0036284759
-0.0015538878
0.0036504838
-0.0015956749
0.0036710231
-0.0016407518
0.0036898937
-0.0016890328
0.0037068944
-0.0017403182
0.0037218351
-0.0017933067
0.0037345898
-0.0018404553
0.0037451009
-0.0018785929
0.003753371
-0.0019071588
0.0037594608
-0.0019252788
0.0037634907
-0.0019316691
0.0037656459
-0.001924805
0.0037661549
-0.0019026968
0.0037652445
-0.0018620173
0.0037631757
-0.0017973056
0.003760331
-0.0017037208
0.0037571955
-0.0015715157
0.0037543543
-0.0013926919
0.0037525085
-0.0011551405
0.0037522879
-0.00086608642
0.0037538042
-0.00057588737
0.0037569183
-0.00030799545
0.0037613401
-7.5824041e-05
0.0037666593
0.00011131082
0.0037724376
0.00024810143
0.0037781362
0.00033191847
0.0037833615
0.00036280714
0.0003387968
0.003937484
0.00027728778
0.0039397991
0.00025695012
0.0039417626
0.00028877941
0.0039440835
0.00037525219
0.0039472579
0.00051448505
0.0039518057
0.0007038218
0.0039581397
0.00093772995
0.0039665375
0.0012064539
0.0039771111
0.0014964012
0.0039897153
0.0017841232
0.0040037519
0.0020212776
0.0040185965
0.0022015105
0.0040337689
0.0023371466
0.0040488919
0.0024357747
0.0040637021
0.0025075014
0.004077998
0.0025565175
0.0040916433
0.002588156
0.0041045419
0.0026055141
0.0041166264
0.0026105948
0.0041278478
0.0026048301
0.0041381687
0.0025892015
0.0041475552
0.0025642837
0.0041559718
0.0025302795
0.0041633882
0.0024897749
0.0041697862
0.0024497332
0.0041751234
0.002411205
0.0041793274
0.0023741595
0.0041822954
0.0023385458
0.0041838949
0.002304316
0.004183963
0.0022713628
0.0041823075
0.0022395307
0.0041787075
0.0022087427
0.004172914
0.0021788654
0.0041646516
0.00214975
0.0041536245
0.0021212369
0.004139523
0.0020931412
0.0041220455
0.0020634483
0.004100935
0.0020289876
0.0040759863
0.0019894141
0.0040470554
0.0019446874
0.0040140724
0.0018948076
0.0039770542
0.001839754
0.0017795288
0.0037044396
-0.0014192802
0.003729045
-0.0014442601
0.0037528777
-0.0014722158
0.0037758203
-0.0015032135
0.0037977366
-0.0015373264
0.0038184725
-0.0015746237
0.0038378587
-0.0016150611
0.0038557154
-0.0016586085
0.0038718565
-0.0017051739
0.003886097
-0.0017545587
0.0038982684
-0.0018054781
0.0039082713
-0.0018504583
0.0039160771
-0.0018863986
0.003921712
-0.0019127938
0.003925257
-0.0019288238
0.0039268513
-0.0019332634
0.0039266856
-0.0019246393
0.003924961
-0.0019009722
0.0039219397
-0.0018589961
0.0039178884
-0.0017932543
0.0039132123
-0.0016990446
0.0039084184
-0.0015667218
0.0039041176
-0.0013883911
0.0039010469
-0.0011520697
0.0038998638
-0.00086490337
0.0039006773
-0.00057670087
0.0039033279
-0.00031064609
0.0039074974
-7.9993495e-05
0.0039127449
0.00010606337
0.0039185912
0.0002422551
0.0039244665
0.00032604312
0.0039299288
0.00035734484
0.00033438236
0.0040901761
0.00027388212
0.0040927705
0.00025435573
0.0040950691
0.00028648078
0.0040978053
0.00037251598
0.0041015202
0.00051077024
0.0041067639
0.00069857803
0.004113983
0.00093051091
0.0041234808
0.0011969561
0.0041353853
0.0014844966
0.0041495501
0.0017699584
0.0041653393
0.0020054884
0.0041820839
0.0021847658
0.0041992681
0.0023199624
0.0042164838
0.0024185591
0.0042334429
0.0024905422
0.0042499238
0.0025400366
0.0042657731
0.0025723068
0.0042808817
0.0025904055
0.0042951721
0.0025963044
0.0043085895
0.0025914127
0.0043210938
0.0025766973
0.0043326539
0.0025527235
0.0043432411
0.0025196924
0.0043528389
0.0024801771
0.004361454
0.0024411181
0.0043690746
0.0024035844
0.0043756634
0.0023675706
0.0043811574
0.0023330518
0.0043854655
0.0023000079
0.004388471
0.0022683574
0.0043900292
0.0022379724
0.0043899697
0.0022088022
0.0043880946
0.0021807405
0.0043841803
0.0021536643
0.0043779787
0.0021274386
0.0043692206
0.0021018993
0.004357632
0.0020750369
0.0043429643
0.0020436553
0.0043250051
0.0020073734
0.0043035883
0.0019661041
0.0042786061
0.0019197898
0.0042500201
0.0018683401
0.0018116762
0.0039153458
-0.0014421544
0.003937471
-0.0014663852
0.003958749
-0.0014934939
0.003979064
-0.0015235284
0.0039982818
-0.0015565443
0.0040162536
-0.0015925954
0.0040328193
-0.0016316268
0.0040478097
-0.0016735989
0.0040610528
-0.0017184169
0.004072381
-0.001765887
0.0040816442
-0.0018147413
0.0040887692
-0.0018575833
0.0040937535
-0.001891383
0.0040966448
-0.001915685
0.0040975405
-0.0019297195
0.0040965957
-0.0019323186
0.004094005
-0.0019220486
0.0040899401
-0.0018969073
0.0040847064
-0.0018537624
0.0040785836
-0.0017871314
0.0040719927
-0.0016924538
0.0040654636
-0.0015601927
0.0040596361
-0.0013825636
0.0040552828
-0.0011477164
0.0040530932
-0.00086271377
0.0040531705
-0.00057677818
0.0040553355
-0.00031281106
0.00405924
-8.3898e-05
0.0040644103
0.00010089308
0.0040703243
0.00023634109
0.00407638
0.00031998739
0.0040820843
0.00035164055
0.0003296962
0.0042486163
0.00027020738
0.0042514942
0.00025147791
0.004254134
0.00028384091
0.0042572974
0.00036935264
0.0042615718
0.00050649581
0.0042675409
0.00069260894
0.0042756857
0.00092236608
0.0042863376
0.0011863043
0.0042996418
0.0014711924
0.0043154517
0.0017541485
0.0043330922
0.0019878478
0.0043518478
0.0021660102
0.0043711659
0.0023006443
0.0043906053
0.0023991197
0.0044098539
0.0024712937
0.0044286668
0.0025212236
0.0044468735
0.0025541002
0.0044643501
0.0025729288
0.0044810067
0.0025796478
0.0044967793
0.0025756401
0.0045116226
0.002561854
0.0045255029
0.0025388432
0.0045383933
0.002506802
0.0045502855
0.0024682849
0.0045612052
0.0024301983
0.0045711658
0.0023936237
0.004580159
0.0023585774
0.0045881537
0.0023250571
0.0045950967
0.0022930649
0.0046009096
0.0022625444
0.004605491
0.0022333911
0.0046087148
0.0022055783
0.0046104309
0.0021790244
0.0046104647
0.0021536305
0.0046086166
0.0021292867
0.0046046645
0.0021058513
0.0045983707
0.0020813307
0.0045895062
0.0020525199
0.0045778644
0.0020190151
0.004563272
0.0019806964
0.0045456004
0.0019374615
0.0045247748
0.0018891657
0.0018356641
0.0041352423
-0.0014623607
0.0041546367
-0.0014857797
0.0041731208
-0.001511978
0.0041905799
-0.0015409876
0.0042068842
-0.0015728486
0.0042218914
-0.0016076027
0.0042354502
-0.0016451856
0.0042474031
-0.0016855518
0.0042575924
-0.0017286062
0.0042658655
-0.0017741601
0.0042720907
-0.0018209664
0.0042762192
-0.0018617117
0.004278271
-0.0018934348
0.0042783123
-0.0019157263
0.0042764535
-0.0019278607
0.00427286
-0.0019287252
0.0042677347
-0.0019169234
0.0042612474
-0.00189042
0.0042537042
-0.0018462192
0.0042454162
-0.0017788435
0.0042368244
-0.0016838621
0.0042284826
-0.0015518509
0.0042210596
-0.0013751406
0.0042153665
-0.0011420233
0.0042121251
-0.0008594723
0.0042114331
-0.00057608619
0.0042130906
-0.00031446854
0.0042167175
-8.7524925e-05
0.0042218046
9.5805937e-05
0.0042277874
0.00023035835
0.0042340268
0.00031374796
0.0042399792
0.00034568817
0.00032473378
0.0044129542
0.00026626048
0.0044161195
0.00024831265
0.0044191077
0.00028085267
0.0044227104
0.00036574992
0.0044275638
0.00050164241
0.004434287
0.00068588579
0.0044433987
0.00091325432
0.0044552593
0.0011744437
0.0044700332
0.0014564185
0.0044875738
0.001736608
0.0045071652
0.0019682565
0.0045280442
0.0021451312
0.0045496197
0.0022790688
0.0045714171
0.0023773223
0.0045930978
0.002449613
0.0046143947
0.0024999267
0.0046351174
0.0025333774
0.0046551261
0.0025529201
0.0046743172
0.0025604568
0.0046926152
0.0025573421
0.0047099655
0.0025445036
0.0047263294
0.0025224793
0.0047416764
0.002491455
0.0047560021
0.0024539593
0.0047693459
0.0024168546
0.0047817398
0.0023812298
0.0047931993
0.0023471179
0.0048037205
0.0023145359
0.0048132802
0.0022835052
0.0048218343
0.0022539904
0.0048293176
0.0022259078
0.0048356439
0.0021992521
0.0048407048
0.0021739635
0.0048443701
0.0021499652
0.004846487
0.0021271698
0.0048468799
0.0021054585
0.0048453519
0.0020828586
0.0048417017
0.0020561701
0.0048357393
0.0020249775
0.0048272957
0.00198914
0.004816234
0.0019485233
0.0048024591
0.0019029405
0.0018521958
0.0043641201
-0.0014796506
0.0043805459
-0.0015022054
0.00439601
-0.0015274421
0.0044104002
-0.0015553777
0.0044235914
-0.0015860398
0.0044354482
-0.0016194595
0.0044458287
-0.0016555661
0.0044545874
-0.0016943105
0.0044615795
-0.0017355984
0.0044666677
-0.0017792483
0.0044697347
-0.0018240334
0.0044707539
-0.001862731
0.0044697665
-0.0018924474
0.004466855
-0.0019128147
0.0044621429
-0.0019231486
0.0044558005
-0.0019223827
0.0044480293
-0.0019091522
0.0044390299
-0.0018814205
0.0044290783
-0.0018362676
0.0044185333
-0.0017682985
0.0044078556
-0.0016731843
0.0043976239
-0.0015416191
0.0043885375
-0.0013660543
0.0043814474
-0.0011349332
0.0043771092
-0.00085513404
0.0043756152
-0.00057459222
0.0043767429
-0.00031559623
0.0043800792
-9.086121e-05
0.0043850784
9.0806753e-05
0.0043911298
0.00022430693
0.0043975565
0.00030732123
0.0044037627
0.00033948195
0.00031948919
0.0045833397
0.00026203715
0.0045867969
0.00024485538
0.0045901393
0.00027751028
0.0045941941
0.00036169516
0.0045996457
0.00049619082
0.0046071526
0.00067837889
0.0046172722
0.00090313466
0.0046303962
0.0011613198
0.0046467095
0.0014401052
0.0046660667
0.0017172508
0.0046877091
0.001946614
0.004710825
0.0021220153
0.0047347826
0.0022551112
0.0047590733
0.0023530316
0.0047833316
0.0024253547
0.0048072663
0.002475992
0.0048306673
0.0025099764
0.0048533772
0.0025302102
0.0048752773
0.0025385567
0.0048962786
0.0025363409
0.0049163156
0.0025244666
0.0049353399
0.002503455
0.0049533153
0.0024734797
0.0049702351
0.0024370395
0.0049861487
0.0024009409
0.0050011027
0.0023662759
0.0050151297
0.0023330909
0.005028248
0.0023014176
0.0050404588
0.0022712944
0.0050517464
0.0022427028
0.0050620769
0.0022155773
0.0050713973
0.0021899316
0.0050796366
0.0021657243
0.0050867029
0.0021428988
0.0050924853
0.0021213875
0.0050968511
0.0021010926
0.0050996451
0.0020800647
0.0051006968
0.0020551183
0.0050998394
0.002025835
0.0050969176
0.0019920618
0.005091797
0.0019536439
0.0050843727
0.0019103648
0.0018619888
0.0044301048
-0.0012864647
0.0044496847
-0.0013181548
0.0044688987
-0.0013465185
0.0044876702
-0.0013717441
0.004505933
-0.0013939846
0.0045236291
-0.0014133131
0.0045407081
-0.0014297513
0.0045571269
-0.0014436415
0.0045728447
-0.0014579986
0.0045878083
-0.001474675
0.0046019497
-0.001493792
0.0046151863
-0.001515442
0.0046274217
-0.0015396775
0.0046385475
-0.0015665035
0.0046484432
-0.0015959356
0.0046569817
-0.001627998
0.00466403
-0.0016626143
0.0046694535
-0.001699734
0.0046731197
-0.0017392646
0.0046749037
-0.0017810322
0.0046747025
-0.0018238322
0.0046725082
-0.0018605368
0.0046683817
-0.0018883208
0.0046624198
-0.0019068529
0.0046547618
-0.0019154906
0.0046455796
-0.0019132005
0.0046350435
-0.0018986162
0.0046234196
-0.0018697966
0.0046109669
-0.0018238149
0.0045980784
-0.0017554099
0.0045852331
-0.001660339
0.0045730363
-0.0015294224
0.0045622193
-0.0013552373
0.0045536752
-0.001126389
0.0045481948
-0.00084965369
0.0045458662
-0.00057226359
0.0045464415
-0.00031617147
0.004549475
-9.3894722e-05
0.0045543803
8.5901415e-05
0.0045605014
0.00021818585
0.0045671196
0.00030070303
0.0045735849
0.00033301664
0.00031395776
0.0047599223
0.00025753382
0.004763675
0.00024110272
0.0047673792
0.00027380607
0.0047718975
0.00035717686
0.0047779661
0.00049012219
0.0047862856
0.00067005941
0.0047974538
0.00089196647
0.0048118961
0.0011468775
0.0048298185
0.0014221827
0.0048510778
0.0016959915
0.0048748717
0.0019228201
0.0049003376
0.0020965494
0.0049268029
0.0022286459
0.0049537223
0.0023261122
0.0049807043
0.0023983727
0.005007432
0.0024492643
0.0050336751
0.0024837333
0.0050592584
0.0025046269
0.0050840462
0.0025137688
0.005107935
0.0025124521
0.0051308459
0.0025015557
0.005152719
0.0024815819
0.0051735078
0.0024526909
0.0051932011
0.0024173461
0.0052118537
0.0023822883
0.0052295219
0.0023486077
0.0052462516
0.0023163612
0.0052620776
0.0022855916
0.005277021
0.002256351
0.0052910889
0.0022286348
0.0053042725
0.0022023937
0.0053165476
0.0021776565
0.0053278737
0.0021543982
0.0053381933
0.0021325793
0.0053474307
0.0021121501
0.0053554928
0.0020930305
0.0053622604
0.002073297
0.005367595
0.0020497838
0.0053713549
0.002022075
0.0053734046
0.0019900121
0.0053736195
0.001953429
0.0053718951
0.0019120892
0.0018657294
0.0047090483
-0.0013033494
0.004725592
-0.0013346985
0.0047417137
-0.0013626402
0.0047573433
-0.0013873737
0.0047724211
-0.0014090624
0.0047868951
-0.0014277871
0.0048007211
-0.0014435773
0.0048138621
-0.0014567824
0.0048262763
-0.0014704127
0.0048379083
-0.001486307
0.0048486894
-0.0015045732
0.0048585369
-0.0015252895
0.0048673564
-0.0015484969
0.0048750428
-0.00157419
0.0048814821
-0.0016023748
0.0048865535
-0.0016330694
0.0048901333
-0.0016661941
0.0048920969
-0.0017016975
0.0048923227
-0.0017394905
0.004890696
-0.0017794056
0.0048871252
-0.0018202614
0.0048816211
-0.0018550327
0.0048742601
-0.0018809597
0.004865154
-0.0018977468
0.0048544517
-0.0019047883
0.0048423224
-0.0019010712
0.0048289167
-0.0018852105
0.0048145608
-0.0018554407
0.0047995196
-0.0018087738
0.0047842019
-0.0017400922
0.0047691072
-0.0016452443
0.0047548698
-0.001515185
0.0047422553
-0.0013426227
0.0047322001
-0.0011163339
0.0047255336
-0.00084298715
0.0047223365
-0.00056906646
0.0047223379
-0.00031617292
0.0047250552
-9.6611962e-05
0.0047298614
8.10952e-05
0.0047360526
0.00021199466
0.0047428651
0.00029389045
0.0047495958
0.000326286
0.00030813455
0.0049428517
0.00025274788
0.0049469043
0.00023705019
0.0049509756
0.00026973471
0.0049559692
0.00035218325
0.0049626742
0.00048341723
0.0049718348
0.00066089877
0.0049840919
0.00087970938
0.0049999059
0.0011310636
0.0050195068
0.0014025818
0.0050427528
0.0016727455
0.0050687977
0.0018967751
0.0050967256
0.0020686215
0.0051258225
0.002199549
0.0051555062
0.0022964286
0.0051853572
0.0023685217
0.0052150334
0.0024195881
0.0052442832
0.0024544835
0.0052729128
0.0024759973
0.0053007696
0.0024859121
0.0053277335
0.0024854881
0.0053537109
0.0024755784
0.0053786282
0.0024566645
0.0054024266
0.0024288925
0.0054250865
0.0023946862
0.0054466652
0.0023607097
0.0054672251
0.0023280478
0.0054868214
0.0022967648
0.0055055004
0.0022669126
0.0055232987
0.0022385527
0.0055402405
0.002211693
0.0055563383
0.0021862959
0.0055715908
0.002162404
0.0055859831
0.002140006
0.0055994857
0.0021190766
0.0056120541
0.0020995817
0.0056236276
0.0020814569
0.0056341199
0.0020628047
0.0056434193
0.0020404845
0.0056514097
0.0020140845
0.0056579765
0.0019834453
0.00566301
0.0019483956
0.0056664122
0.001908687
0.0018640379
0.0049991648
-0.0013169976
0.0050124107
-0.0013479444
0.005025182
-0.0013754115
0.0050374172
-0.001399609
0.0050490636
-0.0014207087
0.0050600771
-0.0014388007
0.0050704208
-0.0014539209
0.0050800633
-0.0014664249
0.0050889644
-0.0014793138
0.0050970666
-0.0014944092
0.0051042998
-0.0015118064
0.0051105824
-0.0015315721
0.0051158223
-0.0015537368
0.005119918
-0.0015782857
0.0051227608
-0.0016052176
0.0051242368
-0.0016345454
0.00512423
-0.0016661874
0.005122625
-0.0017000926
0.0051193086
-0.0017361741
0.0051141758
-0.0017742727
0.0051071438
-0.0018132293
0.0050982386
-0.0018461275
0.0050875523
-0.0018702735
0.0050752077
-0.0018854021
0.0050613539
-0.0018909344
0.0050461532
-0.0018858705
0.0050298097
-0.001868867
0.005012621
-0.001838252
0.004994893
-0.0017910457
0.0049770552
-0.0017222544
0.0049596279
-0.001627817
0.0049432743
-0.0014988315
0.004928795
-0.0013281434
0.0049171729
-0.0011047118
0.0049092754
-0.00083508968
0.0049051781
-0.00056496916
0.0049045829
-0.00031557771
0.0049069716
-9.9000601e-05
0.0049116733
7.6393422e-05
0.0049179342
0.00020573376
0.0049249453
0.0002868794
0.0049319458
0.00031928552
0.0003020145
0.0051322799
0.00024767623
0.0051366355
0.00023269458
0.0051410804
0.00026528978
0.0051465605
0.00034670318
0.0051539195
0.00047605815
0.0051639491
0.00065086923
0.0051773348
0.00086632368
0.0051945731
0.0011138252
0.0052159197
0.0013812352
0.0052412358
0.0016474294
0.005269629
0.0018683819
0.00530013
0.0020381205
0.0053319806
0.0021676985
0.0053645621
0.002263847
0.0053974254
0.0023356584
0.0054302036
0.0023868099
0.0054626234
0.0024220637
0.0054944717
0.0024441489
0.0055255779
0.0024548059
0.0055558055
0.0024552605
0.0055850447
0.0024463392
0.0056132063
0.0024285029
0.0056402169
0.0024018819
0.0056660465
0.0023688566
0.0056907519
0.0023360043
0.0057143984
0.0023044013
0.0057370476
0.0022741157
0.0057587534
0.0022452068
0.0057795629
0.0022177432
0.0057995144
0.0021917415
0.0058186351
0.0021671751
0.0058369431
0.0021440961
0.0058544435
0.0021225055
0.0058711302
0.00210239
0.0058869841
0.0020837277
0.0059019723
0.0020664688
0.0059160355
0.0020487416
0.0059290839
0.002027436
0.0059410243
0.0020021442
0.0059517607
0.0019727088
0.0059612005
0.0019389559
0.0059692557
0.0019006318
0.0018574437
0.0053001573
-0.0013271711
0.0053098696
-0.0013576566
0.0053190595
-0.0013846014
0.0053276743
-0.0014082239
0.0053356708
-0.0014287052
0.0053430131
-0.001446143
0.0053496724
-0.0014605803
0.005355625
-0.0014723775
0.0053608314
-0.0014845202
0.0053652326
-0.0014988104
0.0053687578
-0.0015153315
0.0053713263
-0.0015341407
0.005372848
-0.0015552584
0.0053732251
-0.0015786628
0.0053723534
-0.001604346
0.0053701251
-0.001632317
0.0053664314
-0.0016624937
0.0053611631
-0.0016948243
0.0053542155
-0.0017292265
0.0053454895
-0.0017655467
0.0053349099
-0.0018026498
0.0053225172
-0.0018337348
0.0053084169
-0.0018561732
0.0052927402
-0.0018697254
0.0052756313
-0.0018738255
0.0052572375
-0.0018674768
0.0052378509
-0.0018494804
0.0052177312
-0.0018181323
0.0051972257
-0.0017705402
0.0051767818
-0.0017018105
0.0051569415
-0.0016079767
0.0051383987
-0.0014802886
0.00512199
-0.0013117348
0.0051087457
-0.0010914675
0.0050995738
-0.00082591782
0.0050945436
-0.00055993897
0.0050933307
-0.00031436479
0.0050953779
-0.00010104783
0.0050999693
7.1802048e-05
0.0051063004
0.00019940271
0.0051135125
0.00027966727
0.0051207881
0.00031200992
0.00029559439
0.0053283605
0.00024231781
0.005333023
0.00022803208
0.0053378466
0.00026046611
0.0053438234
0.0003407264
0.0053518545
0.00046802708
0.00536278
0.0006399437
0.0053773316
0.00085177208
0.0053960456
0.0010951113
0.0054192034
0.0013580773
0.0054466706
0.0016199622
0.0054775074
0.0018375451
0.0055106885
0.0020049394
0.0055454126
0.0021329745
0.0055810211
0.0022282385
0.0056170374
0.0022996421
0.0056530679
0.0023507795
0.0056888178
0.0023863138
0.0057240541
0.0024089126
0.0057585886
0.0024202714
0.0057922667
0.0024215824
0.0058249622
0.0024136437
0.0058565689
0.0023968962
0.0058869978
0.002371453
0.0059162052
0.0023396492
0.0059442463
0.0023079632
0.0059711873
0.0022774603
0.0059970919
0.0022482111
0.0060220196
0.0022202791
0.0060460245
0.0021937383
0.0060691537
0.0021686123
0.0060914469
0.0021448819
0.0061129349
0.0021226081
0.0061336402
0.0021018002
0.0061535746
0.0020824556
0.0061727395
0.0020645628
0.0061911249
0.0020480833
0.0062086928
0.0020311736
0.0062253715
0.0020107573
0.0062410844
0.0019864312
0.0062557531
0.0019580402
0.0062692983
0.0019254106
0.0062816444
0.0018882857
0.0018463678
0.005611725
-0.0013336607
0.0056176989
-0.0013636306
0.0056231068
-0.0013900093
0.0056279076
-0.0014130247
0.0056320679
-0.0014328655
0.0056355605
-0.0014496356
0.005638366
-0.0014633858
0.0056404689
-0.0014744804
0.0056418303
-0.0014858816
0.0056423896
-0.0014993697
0.0056420755
-0.0015150174
0.0056408077
-0.0015328729
0.0056384975
-0.0015529482
0.0056350501
-0.0015752153
0.0056303658
-0.0015996617
0.0056243414
-0.0016262926
0.0056168732
-0.0016550255
0.0056078588
-0.0016858099
0.0055971983
-0.001718566
0.0055847985
-0.0017531469
0.0055705893
-0.0017884405
0.0055546228
-0.0018177683
0.0055370157
-0.0018385662
0.0055178975
-0.0018506072
0.0054973992
-0.0018533272
0.0054757162
-0.0018457937
0.0054531691
-0.0018269334
0.005430029
-0.0017949922
0.0054066583
-0.0017471695
0.0053835263
-0.0016786785
0.0053611964
-0.0015856468
0.0053403935
-0.0014594858
0.0053219919
-0.0012933331
0.0053070719
-0.0010765474
0.0052965836
-0.0008154296
0.0052905899
-0.00055394521
0.0052887375
-0.00031251243
0.0052904311
-0.00010274137
0.0052949071
6.7325958e-05
0.0053013082
0.00019300164
0.0053087238
0.00027225171
0.0053162787
0.00030445503
0.00028887102
0.0055312518
0.00023667199
0.0055362256
0.00022305833
0.0055414329
0.00025525883
0.0055479154
0.00033424391
0.0055566346
0.00045930788
0.0055684815
0.0006280968
0.0055842357
0.00083601783
0.0056044739
0.0010748731
0.0056295058
0.0013330454
0.0056592012
0.0015902669
0.0056925727