/*--------------------------------*- C++ -*----------------------------------*\
| =========                 |                                                 |
| \\      /  F ield         | OpenFOAM: The Open Source CFD Toolbox           |
|  \\    /   O peration     | Version:  2.4.0                                 |
|   \\  /    A nd           | Web:      www.OpenFOAM.org                      |
|    \\/     M anipulation  |                                                 |
\*---------------------------------------------------------------------------*/
FoamFile
{
    version     2.0;
    format      ascii;
    class       volVectorField;
    location    "340";
    object      U;
}
// * * * * * * * * * * * * * * * * * * * * * * * * * * * * * * * * * * * * * //

dimensions      [0 1 -1 0 0 0 0];

internalField   nonuniform List<vector> 
19477
(
(0.9755509 0.049993824 -2.7740805e-22)
(0.9668783 0.046550238 -1.1906208e-22)
(0.97106088 0.042882995 -8.4451841e-24)
(0.97069805 0.039639906 -2.2137086e-22)
(0.96999717 0.036410681 -4.023383e-22)
(0.96878194 0.033349891 -8.6802039e-22)
(0.96692128 0.030405921 1.0590854e-21)
(0.96433416 0.027590274 -1.777856e-22)
(0.96095618 0.024896509 1.5494244e-21)
(0.95672991 0.022326729 7.496176e-22)
(0.95169773 0.019887621 4.5686873e-22)
(0.94598507 0.017586194 -1.6561199e-21)
(0.93970158 0.015428903 -1.735911e-22)
(0.93293976 0.013422852 8.1894145e-23)
(0.92577725 0.011572873 -2.3448125e-21)
(0.91828199 0.0098824316 -2.5111957e-22)
(0.91051183 0.0083523033 -8.9123233e-23)
(0.90251393 0.0069799528 -4.7075047e-22)
(0.89432731 0.0057589747 -7.9262115e-22)
(0.88598179 0.0046790444 -6.8135984e-22)
(0.87749652 0.0037261538 -1.7080985e-22)
(0.86887935 0.0028835031 -1.7910415e-21)
(0.8601278 0.0021322815 -2.3232194e-21)
(0.85123169 0.0014532361 3.7482423e-21)
(0.84214818 0.00082738792 -1.0396869e-21)
(0.83280676 0.00023799762 -1.0347521e-21)
(0.82312971 -0.00032944465 3.3496721e-21)
(0.81303171 -0.00088680032 -1.8181739e-21)
(0.80242014 -0.001443127 -4.3567822e-21)
(0.79119749 -0.0020044892 2.9938708e-21)
(0.77926491 -0.0025734876 -5.1612129e-21)
(0.76652672 -0.0031488494 -9.317757e-21)
(0.75289492 -0.0037252212 2.4751971e-21)
(0.73829184 -0.0042933568 -9.6804104e-21)
(0.72265221 -0.0048406532 -3.8970743e-21)
(0.70592134 -0.0053512649 2.5939362e-21)
(0.64834524 0.10538212 -3.724035e-20)
(0.66190993 0.10864924 -2.3823448e-21)
(0.6756971 0.11166955 -6.9204886e-20)
(0.68969649 0.11440231 -5.1739231e-20)
(0.70389036 0.11680645 4.0418319e-20)
(0.71825318 0.11884176 -4.440627e-20)
(0.7327507 0.12047047 -4.8548683e-20)
(0.74733958 0.12165876 1.2171016e-20)
(0.76196791 0.12237885 -3.7881187e-20)
(0.77657498 0.12261181 2.4225897e-20)
(0.79109872 0.12235202 1.7365928e-20)
(0.80545534 0.12161178 -8.8019416e-21)
(0.81954215 0.12041897 5.5135666e-21)
(0.83326788 0.11881213 -4.0358178e-21)
(0.84655644 0.11683821 6.2408572e-21)
(0.85934569 0.11454888 5.0290076e-21)
(0.87158937 0.11199003 1.5999584e-21)
(0.88327315 0.10918676 -6.9047503e-23)
(0.89435038 0.10612252 -2.6975436e-22)
(0.90480546 0.10284657 4.7799551e-21)
(0.91463242 0.099397417 1.1301782e-20)
(0.92373571 0.095825956 -1.2742197e-20)
(0.93206604 0.092173566 1.0126811e-20)
(0.93955482 0.08846825 -1.2146639e-20)
(0.94609913 0.084726993 -2.374379e-20)
(0.95168518 0.080959314 -6.0407482e-21)
(0.95633901 0.077149888 -5.7579455e-21)
(0.96018144 0.073315527 -1.240381e-21)
(0.96314597 0.069414221 4.8255468e-21)
(0.96568212 0.065534589 -9.2330869e-22)
(0.96703135 0.061532998 -3.8220859e-22)
(0.96937901 0.057728772 -2.0523565e-22)
(0.96519998 0.053678232 -3.6404561e-22)
(0.98146267 0.049682341 2.3882579e-22)
(0.97281676 0.046374822 8.6545954e-24)
(0.97700498 0.042854687 5.2664713e-23)
(0.97683541 0.039717334 1.9806642e-22)
(0.9762005 0.036601937 7.6889623e-22)
(0.9751192 0.03363275 4.6091854e-22)
(0.97339942 0.030774689 4.4782046e-22)
(0.97097966 0.028033186 -7.5373459e-22)
(0.96779188 0.025404717 -5.1160404e-21)
(0.96378147 0.022890402 -2.6320994e-21)
(0.95898803 0.020496425 -6.2895639e-22)
(0.95353098 0.018228874 1.6404535e-21)
(0.94751519 0.01609355 5.8263385e-22)
(0.94102897 0.014097197 1.9626585e-21)
(0.93414667 0.01224477 -7.2001271e-23)
(0.92693382 0.010540353 -5.750736e-22)
(0.91944702 0.0089859627 -1.1759575e-21)
(0.9117337 0.0075809407 4.3813709e-23)
(0.90383481 0.0063213918 -1.5686634e-22)
(0.89578418 0.0052000114 1.3592486e-22)
(0.88760733 0.0042061297 1.9199781e-21)
(0.87932078 0.0033262573 -1.717203e-21)
(0.87093297 0.00254458 2.0092935e-21)
(0.86244591 0.0018441071 -2.5711285e-21)
(0.85383106 0.0012073774 8.4761162e-22)
(0.84503387 0.00061830444 -6.723748e-22)
(0.83599275 6.2244814e-05 -4.3213147e-21)
(0.82663854 -0.0004734944 -8.8568814e-22)
(0.81689446 -0.00099943193 -1.2698242e-21)
(0.80667766 -0.0015238239 9.2037163e-23)
(0.79590124 -0.0020524129 -1.6909692e-21)
(0.78447688 -0.0025880865 3.7713492e-21)
(0.77231891 -0.0031304078 -1.7810096e-21)
(0.75934776 -0.0036753716 7.6160809e-21)
(0.74549253 -0.0042155091 2.545983e-21)
(0.73068932 -0.0047400133 3.9737721e-21)
(0.71488787 -0.0052340689 -9.7749455e-23)
(0.69808003 -0.0056795212 -4.9420644e-21)
(0.68029727 -0.0060586075 3.1057006e-21)
(0.66159978 -0.0063544804 4.2105062e-21)
(0.64207897 -0.0065526193 8.8012275e-21)
(0.62185879 -0.0066427942 -1.4311453e-21)
(0.6010966 -0.0066189267 3.7253569e-21)
(0.66612846 0.10379682 3.9841867e-20)
(0.67934164 0.10684173 4.7813586e-20)
(0.69274863 0.10963748 1.5623688e-20)
(0.70633761 0.11214672 7.2212499e-20)
(0.72008968 0.1143323 -5.1513117e-20)
(0.73397873 0.11615845 4.8247816e-20)
(0.74797074 0.11759224 4.33178e-20)
(0.76202357 0.11860502 2.461057e-20)
(0.77608763 0.11917424 3.1921193e-20)
(0.790106 0.11928603 -4.7504498e-20)
(0.80402139 0.118939 -1.5286981e-20)
(0.81775717 0.11814828 1.7254388e-20)
(0.83122024 0.11694288 1.9338718e-21)
(0.84432931 0.11536061 -6.6212939e-21)
(0.85701868 0.11344548 -2.3654371e-21)
(0.86923501 0.11124335 -2.0932513e-22)
(0.88094106 0.1087917 1.0388692e-21)
(0.89212649 0.10611124 1.8617907e-22)
(0.90273669 0.10318696 5.3346678e-21)
(0.91276552 0.10004778 5.5993517e-23)
(0.92219423 0.096759255 -9.2172848e-21)
(0.9309342 0.093358914 2.194699e-21)
(0.93894162 0.089883166 -1.3704079e-20)
(0.94614782 0.08635743 7.0387632e-21)
(0.95245462 0.08279824 1.1641112e-20)
(0.95784665 0.079213403 3.7391414e-21)
(0.96235203 0.075590191 1.1102588e-20)
(0.96607951 0.071940256 1.4722987e-21)
(0.96898093 0.068229412 -2.0807375e-21)
(0.97145658 0.064529858 1.437765e-21)
(0.9728396 0.060720777 -1.1716497e-22)
(0.97511814 0.057081526 -8.6902127e-23)
(0.97100213 0.053213589 -3.7152657e-22)
(0.98743474 0.049329016 1.7168518e-23)
(0.97881447 0.046155342 2.2721281e-22)
(0.98300248 0.042780131 -5.8525796e-23)
(0.98302136 0.039749107 8.2627049e-23)
(0.98245166 0.036746683 3.5638901e-23)
(0.98149955 0.033870655 -2.6594712e-22)
(0.97991929 0.031099639 -4.7505317e-21)
(0.9776651 0.028434557 -1.1161978e-22)
(0.97466707 0.025873978 4.4140065e-21)
(0.97087285 0.023418389 -1.8108835e-21)
(0.96631947 0.021073341 -1.1685244e-21)
(0.96112028 0.018844052 2.2053617e-22)
(0.95537525 0.016735614 -2.8635804e-21)
(0.94916842 0.014754318 -1.8390016e-21)
(0.9425706 0.012905074 4.0883165e-21)
(0.93564458 0.01119234 -1.3593687e-22)
(0.92844516 0.0096190403 -1.1647119e-21)
(0.92101921 0.008185977 -1.1832311e-22)
(0.9134085 0.00689129 7.4523234e-22)
(0.90564934 0.0057302059 -3.4398961e-23)
(0.8977717 0.0046949556 -8.6902345e-22)
(0.88979854 0.0037750644 2.0699009e-21)
(0.88174679 0.0029576209 -8.2237892e-24)
(0.87362822 0.0022280685 -3.1132512e-21)
(0.86542626 0.0015708284 -3.3155339e-21)
(0.85710012 0.00097099623 5.1046753e-21)
(0.84860243 0.00041442872 -1.976122e-21)
(0.83987858 -0.00011171206 1.0112697e-21)
(0.83086642 -0.00061864166 3.299731e-21)
(0.8214975 -0.0011158443 -1.9074486e-21)
(0.8116982 -0.001610978 1.9606826e-21)
(0.801391 -0.0021097053 2.2433587e-21)
(0.79049708 -0.0026152776 -5.7937681e-21)
(0.77893953 -0.0031280803 8.6239175e-22)
(0.76664654 -0.0036453197 2.3496352e-21)
(0.75355046 -0.0041608515 -4.6868295e-21)
(0.73959369 -0.0046645711 -4.1393258e-21)
(0.72475274 -0.0051428329 6.0556811e-21)
(0.70903626 -0.0055811649 -4.5136375e-21)
(0.69247563 -0.0059650239 3.5405995e-21)
(0.67512777 -0.0062808431 -4.21945e-21)
(0.65707753 -0.0065176598 6.4068264e-22)
(0.63843943 -0.0066674963 -3.7537288e-21)
(0.68407727 0.10212517 -1.0162308e-20)
(0.69690764 0.10495194 -4.1682784e-20)
(0.70990463 0.10752916 2.5852648e-20)
(0.72305519 0.10982287 -2.5150555e-20)
(0.73633966 0.11179981 9.7131322e-21)
(0.7497318 0.1134285 -6.9262511e-20)
(0.76319823 0.11468062 -4.1872233e-20)
(0.77669847 0.11553229 -2.8162004e-21)
(0.79018566 0.11596571 1.6581551e-20)
(0.80360699 0.11597142 6.4944468e-21)
(0.81691028 0.11555154 -1.9367692e-20)
(0.83002616 0.11472316 1.4819342e-21)
(0.8428709 0.1135155 1.0199188e-20)
(0.85537268 0.11196484 -1.1553245e-21)
(0.86747489 0.11011173 -2.5305079e-21)
(0.87913123 0.10799632 6.2109898e-22)
(0.89031143 0.10564793 -1.1413361e-21)
(0.90100423 0.1030804 -9.0003737e-23)
(0.91115902 0.10029205 -2.5136864e-21)
(0.92077114 0.097291772 3.1084909e-22)
(0.92980356 0.094157688 -3.7691293e-21)
(0.9381845 0.090922455 8.0240685e-21)
(0.94587266 0.08761673 1.3612333e-20)
(0.9527998 0.084263887 -1.606076e-21)
(0.95887221 0.080879857 1.4681281e-21)
(0.96407319 0.077471141 1.0975434e-20)
(0.9684321 0.074027035 -6.1510273e-21)
(0.97204688 0.070555129 1.774943e-21)
(0.97488508 0.067027527 5.7826399e-22)
(0.97730182 0.063502594 -2.294399e-22)
(0.97871603 0.05987916 2.7766712e-22)
(0.98092414 0.056400826 -3.9844294e-23)
(0.97687022 0.052710466 4.8213232e-22)
(0.99345437 0.048933465 -4.3035082e-23)
(0.98486024 0.045891368 -7.7033447e-23)
(0.98904266 0.042658579 5.8433887e-23)
(0.98924512 0.039734214 -1.4563135e-22)
(0.98874 0.036843788 -7.494493e-22)
(0.98791245 0.034062173 -7.7442748e-22)
(0.98647026 0.031379189 3.8595986e-21)
(0.98437984 0.028792546 -1.0240039e-22)
(0.98157095 0.026302253 3.3342502e-22)
(0.9779931 0.023908422 5.0771175e-21)
(0.97368092 0.021615898 1.7959051e-21)
(0.96874165 0.019429061 -5.709291e-21)
(0.96327034 0.017352269 1.1297282e-21)
(0.95734667 0.015391285 4.4795484e-21)
(0.95103777 0.013550841 -9.5163869e-22)
(0.94440344 0.011835566 4.0986069e-22)
(0.93749625 0.010249007 1.9376805e-23)
(0.93036187 0.0087930698 -4.4745989e-22)
(0.92304198 0.0074675058 -1.3429547e-21)
(0.91557415 0.0062696196 1.6772895e-22)
(0.90799119 0.0051941081 1.4237965e-21)
(0.90032064 0.0042331667 -8.3616952e-22)
(0.89258576 0.003376589 -8.7802187e-22)
(0.8848059 0.0026122667 1.1311284e-21)
(0.87697428 0.0019266948 3.1791884e-21)
(0.86906176 0.001306505 -3.4836624e-21)
(0.86103322 0.00073853363 6.9782952e-21)
(0.85284686 0.00021034933 -1.2609347e-21)
(0.8444537 -0.00028936373 -6.7447986e-22)
(0.83579855 -0.00077064244 4.4596168e-21)
(0.82682086 -0.0012421732 -1.3385753e-21)
(0.81745525 -0.0017112447 2.7044602e-21)
(0.80763274 -0.0021835278 3.9514105e-21)
(0.79728297 -0.0026626523 1.9013353e-22)
(0.7863372 -0.0031496958 -2.1362227e-21)
(0.77472815 -0.0036426972 -3.520378e-21)
(0.76239578 -0.0041359529 2.9940316e-21)
(0.74930812 -0.004620137 -3.1685733e-21)
(0.73545901 -0.0050844156 -1.1774323e-22)
(0.72085991 -0.0055171077 -5.9083843e-22)
(0.7055426 -0.0059065264 -3.1323087e-21)
(0.68956208 -0.0062422629 2.470266e-21)
(0.67299857 -0.0065157458 3.3832283e-21)
(0.70213666 0.10036811 2.1438884e-20)
(0.71455502 0.10298197 8.2050735e-21)
(0.72711456 0.10534777 -2.0893732e-20)
(0.73980134 0.10743494 -3.4089467e-20)
(0.75259533 0.10921399 -4.6756453e-21)
(0.76547054 0.11065752 6.939359e-20)
(0.77839467 0.11174152 2.2038977e-20)
(0.79132927 0.1124465 -1.6836585e-20)
(0.80423055 0.11275885 -5.8418221e-21)
(0.81705012 0.11267285 1.8555892e-20)
(0.82974101 0.11219336 2.9951777e-20)
(0.84224106 0.11133864 2.7401422e-21)
(0.85447545 0.11013735 -1.5382275e-20)
(0.86638098 0.10862356 1.0375548e-20)
(0.87790874 0.10683425 4.5214823e-22)
(0.88901815 0.10480434 -1.6404474e-21)
(0.89968493 0.10255617 -1.536114e-21)
(0.90989432 0.10009523 2.3423719e-24)
(0.91960302 0.097432267 8.0716486e-22)
(0.92880188 0.094573441 -2.4361011e-21)
(0.93744317 0.091590266 5.4790405e-21)
(0.94547066 0.088514333 -1.0587356e-20)
(0.95284405 0.08537218 -1.5329984e-20)
(0.95949625 0.082185729 1.6830375e-20)
(0.96533784 0.0789702 -2.0172626e-21)
(0.97035106 0.075731096 -8.5717049e-21)
(0.9745658 0.072459282 2.4110431e-21)
(0.97807033 0.069159174 6.5113478e-22)
(0.9808455 0.065807898 -1.4185965e-21)
(0.98320518 0.062452199 1.0054933e-21)
(0.9846482 0.05900776 -4.9096564e-25)
(0.98678509 0.055686246 -4.2404585e-22)
(0.98279248 0.052168325 1.1607109e-22)
(0.99950932 0.048495124 -5.1062716e-23)
(0.99094195 0.045582213 -2.7687677e-23)
(0.99511388 0.042489217 1.1273993e-23)
(0.99549501 0.0396716 1.1005677e-22)
(0.99505394 0.036892087 -6.0087746e-23)
(0.99434649 0.034205845 -1.421905e-22)
(0.99304075 0.031611725 -6.6608733e-22)
(0.99111227 0.029105279 -5.7411498e-22)
(0.98849172 0.026687459 9.7693472e-22)
(0.98513022 0.024358181 -4.0027226e-21)
(0.98106011 0.022121548 -2.2317726e-21)
(0.97638257 0.019981135 4.8159848e-21)
(0.97118771 0.017940554 8.1213542e-22)
(0.9655508 0.016004991 -7.2747597e-21)
(0.95953525 0.014178892 9.8806724e-22)
(0.95319765 0.012466891 -1.2366256e-21)
(0.94658804 0.010872922 4.4233595e-21)
(0.93975042 0.0093996859 2.5724619e-21)
(0.93272564 0.0080481773 1.105957e-21)
(0.92555154 0.0068173693 -3.0901397e-21)
(0.9182625 0.0057040086 -4.576348e-21)
(0.91088905 0.0047025968 1.0175644e-21)
(0.90345894 0.0038053679 -2.459977e-21)
(0.89599719 0.00300256 2.3054717e-21)
(0.88850477 0.0022827907 -5.4930405e-21)
(0.88096223 0.0016344271 -1.9201416e-21)
(0.87334478 0.0010456124 -1.1245261e-21)
(0.86562169 0.00050473975 4.7697941e-21)
(0.85775552 8.6093391e-07 -5.7641545e-22)
(0.84970295 -0.0004761014 -4.4475674e-21)
(0.84141548 -0.00093523933 2.5357478e-21)
(0.83283962 -0.001384649 -5.7493931e-21)
(0.82391748 -0.001831357 1.783687e-21)
(0.81458784 -0.0022810646 -4.9066939e-21)
(0.8047883 -0.0027376679 5.528812e-22)
(0.79445531 -0.0032026212 6.0314526e-21)
(0.78353004 -0.0036741066 -9.1505235e-22)
(0.77197677 -0.0041468742 7.743753e-21)
(0.75978063 -0.0046137566 -4.5781566e-21)
(0.74694022 -0.0050661572 -2.1422534e-21)
(0.73346996 -0.0054947825 2.68994e-21)
(0.71940316 -0.0058906019 3.2239029e-21)
(0.70479396 -0.0062455206 -2.5961711e-21)
(0.72024748 0.098526644 -3.5710414e-20)
(0.73222731 0.10093394 2.538582e-20)
(0.74432488 0.10309647 -5.3984524e-20)
(0.75652569 0.10498696 3.0791304e-20)
(0.7688097 0.10657953 5.4270359e-20)
(0.78115155 0.10785064 -6.2031577e-20)
(0.79352037 0.10878024 -3.6718849e-20)
(0.80588006 0.10935274 -2.6113333e-21)
(0.81819022 0.10955819 -1.8533062e-20)
(0.83040698 0.10939392 -1.9671912e-20)
(0.84248858 0.10886679 -2.1502222e-20)
(0.85437978 0.10799551 -6.693451e-21)
(0.86601404 0.10680759 1.0725649e-20)
(0.87733581 0.10533452 3.7300534e-21)
(0.88830247 0.10360965 6.1376625e-21)
(0.89887852 0.10166319 3.8369607e-21)
(0.90904539 0.09951205 8.255558e-22)
(0.91878129 0.097153466 2.4053612e-22)
(0.92804875 0.094610366 -4.386343e-22)
(0.9368384 0.091890567 2.6925918e-22)
(0.94509576 0.089054188 3.2551321e-21)
(0.9527764 0.086131808 8.3028534e-21)
(0.95984033 0.083147145 1.7087244e-20)
(0.9662223 0.080120876 -5.7744843e-23)
(0.97183703 0.077067479 6.3337015e-21)
(0.97666602 0.073991711 3.8988145e-21)
(0.98073916 0.070885663 -5.8117764e-21)
(0.98413605 0.067751288 2.9442592e-21)
(0.98684867 0.064569707 -9.356185e-22)
(0.9891533 0.061377934 4.3223717e-22)
(0.99062298 0.058106045 -7.2093661e-23)
(0.99268832 0.054937244 3.7933862e-22)
(0.98875629 0.051586672 2.2914828e-23)
(1.0055866 0.048013323 3.2898312e-23)
(0.99704667 0.045227115 7.3669383e-23)
(1.0012037 0.042271172 -2.4105412e-22)
(1.0017586 0.039560164 2.4234942e-22)
(1.0013811 0.036890375 -7.5194933e-22)
(1.0007894 0.034300182 1.3753298e-21)
(0.99961838 0.031795593 4.9770104e-22)
(0.99784992 0.029370847 -1.0463621e-21)
(0.99541668 0.027027467 -5.280491e-21)
(0.99227123 0.02476529 -3.3014022e-21)
(0.98844372 0.022587672 7.2673964e-21)
(0.98402936 0.020497414 -2.6450974e-21)
(0.97911331 0.018497388 2.6434547e-21)
(0.97376646 0.016592165 2.9801184e-21)
(0.96804845 0.01478583 1.2574473e-21)
(0.96201256 0.013082885 -1.2563577e-21)
(0.9557061 0.011487456 -5.4525964e-23)
(0.94917102 0.010002784 -2.9115874e-21)
(0.94244678 0.0086307851 1.9399137e-21)
(0.93557073 0.0073717385 1.7386649e-21)
(0.92857777 0.0062240557 3.0183394e-21)
(0.92150012 0.0051841828 6.0016788e-24)
(0.91436849 0.0042464938 -3.2394596e-22)
(0.90721185 0.0034033902 4.0127728e-22)
(0.9000372 0.0026455527 3.2942822e-21)
(0.89283289 0.0019631538 3.0109452e-21)
(0.88558268 0.0013458345 -5.0801224e-21)
(0.8782652 0.00078310351 -4.1905585e-21)
(0.87085292 0.00026473737 2.0796101e-21)
(0.86331291 -0.00021898333 2.5639053e-21)
(0.85560734 -0.00067711328 -8.9697946e-22)
(0.84769366 -0.0011180039 6.351561e-21)
(0.83952484 -0.0015492823 -1.717997e-21)
(0.83104982 -0.0019777424 6.4362785e-22)
(0.8222147 -0.0024090257 -2.886468e-21)
(0.81296241 -0.0028470235 -1.1353839e-21)
(0.80323812 -0.0032930297 -1.4177646e-21)
(0.7930059 -0.00374544 -3.7455755e-21)
(0.78224657 -0.0042005702 7.03164e-22)
(0.77095109 -0.0046529308 -4.5474602e-21)
(0.75912263 -0.0050958177 4.7986319e-21)
(0.74677942 -0.0055221181 -4.8748729e-21)
(0.73395669 -0.0059249377 -5.392746e-21)
(0.73834719 0.096601757 -2.4432132e-20)
(0.74986525 0.098809917 4.1859142e-21)
(0.76147981 0.10077825 4.4770625e-20)
(0.77317615 0.10248268 -1.1609819e-21)
(0.78493452 0.10390071 -2.8498141e-20)
(0.79673053 0.1050124 6.0369864e-20)
(0.80853503 0.10580125 -7.5100258e-21)
(0.82031459 0.1062551 -6.3282395e-21)
(0.83203229 0.10636707 1.5292621e-20)
(0.84364885 0.1061369 6.7631998e-21)
(0.85512754 0.10557275 2.2484515e-20)
(0.86641958 0.10469322 2.8031147e-21)
(0.87746592 0.10352422 4.9947157e-21)
(0.88821773 0.10209456 -1.7245089e-21)
(0.89863735 0.1004339 -1.55908e-21)
(0.9086942 0.098567947 -2.5597225e-21)
(0.91837472 0.096510564 1.2708188e-21)
(0.92764601 0.094252205 -1.6341691e-22)
(0.93647749 0.091824318 -4.8847165e-24)
(0.94486348 0.089240213 4.5319498e-22)
(0.95274502 0.086546336 -1.87706e-21)
(0.96008584 0.083772124 -3.8604465e-21)
(0.9668461 0.080939228 -2.7179477e-21)
(0.97296289 0.078067201 -5.838118e-21)
(0.97835502 0.075169837 9.0287478e-21)
(0.98300356 0.072251349 -2.816433e-21)
(0.98693789 0.069304804 4.8152184e-21)
(0.99022984 0.066330266 -3.1547657e-21)
(0.9928806 0.063312014 2.9057796e-21)
(0.99513231 0.06027894 -1.518766e-21)
(0.99662662 0.057173357 -4.5904161e-22)
(0.99862047 0.054153165 6.1723134e-23)
(0.99474831 0.050964905 -1.5753442e-22)
(1.0116729 0.047487318 -5.3082114e-23)
(1.0031609 0.044825249 -1.0613062e-22)
(1.0072991 0.042003515 3.9779652e-22)
(1.0080227 0.039398759 -5.7416218e-22)
(1.0077084 0.036837404 -9.8725893e-23)
(1.0072283 0.034343661 2.1548443e-21)
(1.00619 0.031929099 -1.9226504e-21)
(1.0045796 0.029587301 2.0007084e-21)
(1.0023323 0.027320095 4.3723886e-21)
(0.99940227 0.025127313 1.3256411e-20)
(0.99581749 0.02301158 6.6491853e-22)
(0.99166728 0.020974948 6.823239e-21)
(0.9870319 0.019019569 3.3586983e-22)
(0.98197794 0.017149382 1.1323798e-21)
(0.97656125 0.015368051 -1.9070342e-21)
(0.97083178 0.013679845 -1.23867e-21)
(0.96483393 0.012088923 -1.9983121e-21)
(0.95860738 0.01059885 2.3725522e-21)
(0.95218981 0.009212195 3.3693887e-22)
(0.94561743 0.0079302257 -1.8802626e-21)
(0.93892486 0.0067526721 -1.1699149e-21)
(0.93214496 0.0056775792 -1.0645794e-21)
(0.92531011 0.0047011492 7.5715992e-22)
(0.91845182 0.0038177144 -4.6045775e-21)
(0.91158152 0.0030198811 -3.053359e-21)
(0.90469374 0.0022995951 1.0067484e-21)
(0.89777916 0.0016480714 6.5609745e-22)
(0.89082408 0.0010561085 2.5992684e-22)
(0.88380936 0.00051445938 -3.4167271e-21)
(0.87671093 1.4066643e-05 -8.1074966e-22)
(0.86950027 -0.00045375417 9.136757e-22)
(0.86214445 -0.00089723076 -5.1628596e-21)
(0.85460631 -0.0013240946 3.2349015e-21)
(0.84684471 -0.0017415454 -9.439866e-22)
(0.83881508 -0.002156083 -2.7675011e-21)
(0.83046848 -0.0025730581 1.3761653e-21)
(0.82175639 -0.0029959787 1.5140893e-21)
(0.81264531 -0.0034261346 3.0893016e-22)
(0.80311502 -0.0038628887 3.700697e-21)
(0.79315265 -0.0043037341 7.1251571e-21)
(0.7827546 -0.0047446375 -7.7748838e-21)
(0.77192919 -0.0051806853 3.5339602e-21)
(0.76069841 -0.0056066318 4.441581e-21)
(0.75637093 0.094594425 3.0836304e-20)
(0.7674078 0.09661186 -7.2662464e-21)
(0.77852229 0.0983959 -1.9677875e-20)
(0.78969975 0.099925473 -2.0797408e-20)
(0.80092102 0.10118128 -7.1388837e-21)
(0.81216295 0.1021466 -1.7099254e-20)
(0.8233984 0.10280811 3.5930108e-21)
(0.8345967 0.10315658 2.6209058e-20)
(0.84572455 0.1031876 1.2649443e-21)
(0.85674709 0.10290274 2.1116598e-20)
(0.86763233 0.10231088 -1.003997e-20)
(0.87833734 0.10143004 1.0747264e-21)
(0.88880979 0.10028431 -1.9086997e-20)
(0.89900657 0.098899839 -6.9273545e-21)
(0.90889375 0.097302571 -6.6821062e-21)
(0.91844564 0.095513848 -1.7326327e-21)
(0.92765143 0.093547029 -3.743923e-22)
(0.93646566 0.091391888 -1.2372509e-21)
(0.94487183 0.089072916 5.4035544e-22)
(0.95286126 0.086620071 2.1173501e-21)
(0.96037528 0.084064082 -1.6482565e-21)
(0.96738337 0.081432824 2.1379691e-21)
(0.97384601 0.078746158 3.079121e-21)
(0.97970292 0.076022625 -9.6887274e-22)
(0.98487696 0.073275414 -1.1032245e-20)
(0.98934896 0.070508347 3.6607581e-21)
(0.99314745 0.067715278 -2.6671322e-21)
(0.99633723 0.064894836 -5.6473282e-21)
(0.99892699 0.062033788 -1.2616865e-21)
(1.0011279 0.059154264 1.0344885e-21)
(1.002645 0.05620894 7.1989315e-23)
(1.0045677 0.053333263 -2.0910382e-22)
(1.0007546 0.050302332 -1.316299e-23)
(1.0177541 0.04691631 -2.3470119e-23)
(1.0092706 0.044375737 1.620766e-23)
(1.0133865 0.041685271 -1.7425408e-22)
(1.0142737 0.039186196 -2.3038672e-22)
(1.0140222 0.036731885 2.2930763e-21)
(1.0136495 0.034334727 -3.5226007e-21)
(1.012742 0.032010505 -2.1012969e-21)
(1.0112873 0.029752654 -2.5686122e-22)
(1.0092244 0.027563117 -3.7892019e-21)
(1.0065088 0.025441762 -3.2548219e-21)
(1.0031663 0.023390512 -8.2539657e-21)
(0.99928065 0.021410703 -3.8199376e-21)
(0.99492722 0.01950379 -4.6617711e-21)
(0.99016835 0.017673076 -2.5433895e-22)
(0.98505617 0.015921766 -7.415648e-22)
(0.97963729 0.014253822 8.9944825e-22)
(0.97395318 0.012673306 2.8879592e-21)
(0.96804102 0.011183935 -2.3522721e-21)
(0.96193644 0.009788705 -3.1043655e-21)
(0.95567409 0.0084895993 3.9651922e-21)
(0.94928766 0.0072873607 1.67529e-21)
(0.94280981 0.0061813161 -2.2577677e-21)
(0.93627356 0.0051691892 8.8255088e-22)
(0.92971173 0.0042469858 4.2271397e-21)
(0.92313889 0.0034090496 2.4261252e-21)
(0.91655428 0.0026489938 1.9673636e-21)
(0.90995398 0.0019595902 2.4235407e-21)
(0.9033305 0.001333 1.7936032e-22)
(0.89667157 0.00076110465 3.4285181e-21)
(0.88996059 0.00023572297 -4.008374e-21)
(0.88317691 -0.00025120408 -3.5193995e-21)
(0.87629591 -0.00070750111 9.7527517e-22)
(0.86928907 -0.0011406829 -4.0966158e-21)
(0.86212421 -0.0015579261 1.4347941e-21)
(0.85476572 -0.0019659768 3.5549741e-21)
(0.84717336 -0.0023708504 -3.7225675e-21)
(0.83930624 -0.0027773674 -2.9751315e-21)
(0.83113543 -0.0031887942 -1.645359e-21)
(0.8226421 -0.0036069286 -1.5461069e-21)
(0.81381238 -0.0040318957 -5.2403058e-21)
(0.80463919 -0.0044622035 6.8151755e-21)
(0.79512474 -0.0048952118 -4.1702178e-21)
(0.7852821 -0.0053275367 1.1885268e-21)
(0.77425274 0.092505594 -3.7258002e-20)
(0.78479328 0.094341588 -3.5933237e-20)
(0.79539504 0.095951907 3.1118242e-20)
(0.80604366 0.097318298 5.4545789e-20)
(0.81672087 0.098424363 -2.7867221e-20)
(0.82740497 0.099256268 -6.8932094e-21)
(0.83807097 0.099803427 2.6285793e-20)
(0.84869108 0.10005905 1.1154371e-20)
(0.85923553 0.1000207 2.6153553e-21)
(0.86967363 0.099691193 -2.7906537e-20)
(0.8799777 0.099079702 -4.2718408e-21)
(0.89011 0.098203331 9.2806849e-22)
(0.90002414 0.09708426 2.5120771e-23)
(0.90968168 0.095746161 -5.0161802e-21)
(0.91905159 0.094211576 -3.2335588e-21)
(0.92811273 0.092497658 7.0778233e-21)
(0.93685231 0.090615679 1.7700632e-21)
(0.9452215 0.088567061 1.7526688e-21)
(0.95321724 0.086356243 -5.9205617e-22)
(0.96081651 0.084028414 -6.4004761e-24)
(0.96797099 0.081605348 2.9880378e-21)
(0.97465343 0.079111752 -3.9275648e-22)
(0.98082471 0.076565819 -1.4276897e-20)
(0.9864273 0.073985152 -5.2738189e-21)
(0.99138796 0.071382384 3.2591369e-21)
(0.9956875 0.068761047 -1.4790393e-21)
(0.99935324 0.066115632 5.7959145e-21)
(1.0024436 0.06344369 4.6049752e-21)
(1.0049734 0.060733937 1.1493558e-21)
(1.0071257 0.058002894 -1.4946762e-21)
(1.0086637 0.055211962 3.4624111e-22)
(1.010516 0.052476716 5.7226289e-22)
(1.006761 0.049598188 -6.6335833e-23)
(1.0238162 0.046299457 9.9607124e-24)
(1.0153615 0.04387766 -1.571791e-22)
(1.019452 0.041315438 1.8193133e-22)
(1.0204978 0.038921259 1.0884028e-22)
(1.0203085 0.036572499 -2.859808e-21)
(1.0200393 0.034271801 -7.7473815e-22)
(1.0192601 0.032038041 4.0833375e-21)
(1.0179588 0.029864883 8.2927871e-22)
(1.0160783 0.027754259 4.9383521e-21)
(1.0135755 0.025706095 4.8234079e-22)
(1.0104744 0.023721648 -8.7331739e-22)
(1.0068531 0.021801567 -2.7283753e-21)
(1.0027821 0.019946645 1.7610306e-21)
(0.99831978 0.018159553 6.0184106e-21)
(0.99351453 0.016443022 -9.9626733e-22)
(0.98840969 0.014800644 6.278084e-21)
(0.98304378 0.013236295 -6.1648153e-21)
(0.97745143 0.011753701 1.739651e-21)
(0.971666 0.010356097 2.8890499e-21)
(0.96572026 0.0090459577 -8.5491929e-22)
(0.95964649 0.0078247731 3.2069454e-22)
(0.95347652 0.006692867 2.7085976e-21)
(0.94724318 0.0056491962 2.8830029e-21)
(0.94097963 0.0046911781 -5.2214942e-22)
(0.93470243 0.0038146777 -7.4692269e-22)
(0.92841429 0.00301482 -7.7727436e-22)
(0.92211539 0.0022858471 -2.8709244e-22)
(0.91580308 0.0016212733 -3.3644982e-22)
(0.9094706 0.0010141723 3.240783e-21)
(0.90310745 0.00045736672 -9.0949137e-22)
(0.89669956 -5.6399292e-05 4.1118511e-21)
(0.8902293 -0.00053434068 -3.4417367e-21)
(0.88367555 -0.00098353306 2.2360006e-21)
(0.87701386 -0.0014108586 4.8865235e-21)
(0.87021667 -0.0018229302 -6.3485544e-22)
(0.86325197 -0.0022258853 -1.0743006e-21)
(0.85608676 -0.0026250912 2.067506e-21)
(0.84869795 -0.0030249821 -1.7103302e-21)
(0.84107001 -0.0034290478 -1.7206446e-21)
(0.83319023 -0.0038394205 2.9834693e-21)
(0.82505052 -0.0042568426 -4.6092402e-22)
(0.8166498 -0.0046808352 -8.4292501e-22)
(0.80799546 -0.0051098646 2.500433e-21)
(0.79192705 0.090336218 6.9500006e-20)
(0.80196081 0.092000796 1.6795254e-20)
(0.81204189 0.093448495 -3.1871445e-20)
(0.82215647 0.094663644 -2.9612195e-20)
(0.83228734 0.095632454 2.4015282e-20)
(0.84241442 0.096343616 5.8760324e-21)
(0.85251497 0.096788867 -2.6896302e-20)
(0.86256403 0.096963397 8.4069333e-22)
(0.87253518 0.096866249 -5.4117742e-21)
(0.88240159 0.096501062 2.0870704e-20)
(0.89213932 0.095876951 1.6578215e-21)
(0.9017152 0.095009919 -8.5839406e-21)
(0.91108798 0.093920263 -1.9250097e-21)
(0.92022289 0.092629386 7.1699481e-21)
(0.9290919 0.091156978 1.3125847e-20)
(0.93767807 0.089517099 -7.5725958e-21)
(0.94596122 0.087715602 7.6677351e-22)
(0.95389911 0.085768824 -4.5889202e-22)
(0.96149499 0.083670092 -7.9789173e-23)
(0.96871208 0.081462922 -2.2106603e-21)
(0.97551576 0.079168012 3.9590378e-22)
(0.98188013 0.076806761 -4.2345164e-21)
(0.98776675 0.074396136 7.1156453e-21)
(0.99312092 0.071952831 1.2162758e-20)
(0.9978732 0.069488958 -3.9854777e-21)
(1.0020045 0.067007816 -2.2344677e-21)
(1.0055407 0.064504418 -3.7870476e-21)
(1.0085345 0.061975514 1.9803504e-22)
(1.0110053 0.05941134 -3.2850368e-23)
(1.0131112 0.056823779 5.6574404e-22)
(1.0146682 0.054181544 2.6836688e-22)
(1.0164508 0.051582655 -4.164578e-22)
(1.0127528 0.048851662 2.1136832e-22)
(1.0298452 0.045635902 3.7371507e-24)
(1.0214191 0.043330081 1.3767458e-22)
(1.0254815 0.040892994 -6.4922382e-23)
(1.0266809 0.038602717 2.7276388e-23)
(1.0265532 0.036357903 2.9848725e-21)
(1.0263834 0.034153287 3.0563259e-21)
(1.02573 0.032009911 2.7201433e-21)
(1.0245795 0.029921938 4.2431899e-21)
(1.022879 0.027891218 -6.2058752e-21)
(1.020587 0.025917733 2.1360255e-21)
(1.0177256 0.024002117 8.8902482e-21)
(1.0143676 0.022144366 4.1779549e-22)
(1.0105788 0.020344647 2.7823205e-22)
(1.0064135 0.018605017 -1.0108075e-20)
(1.0019167 0.016927721 4.0266139e-21)
(0.99712842 0.015315951 -1.9331168e-21)
(0.99208431 0.013773323 -2.2370058e-21)
(0.98681641 0.012303461 -2.125015e-21)
(0.9813557 0.010909696 -7.7790646e-22)
(0.97573289 0.0095948 -2.2324812e-21)
(0.96997849 0.0083607887 2.4089276e-21)
(0.96412304 0.0072087333 -2.4667334e-21)
(0.95819849 0.0061385614 -6.6249585e-21)
(0.9522376 0.0051488492 -1.1852598e-21)
(0.94625798 0.0042367579 3.8632108e-21)
(0.94026476 0.0033987399 -1.6818883e-21)
(0.9342611 0.0026303747 -3.0191596e-21)
(0.92824798 0.0019264573 1.1078596e-21)
(0.92222293 0.0012812439 -3.6744662e-21)
(0.91618029 0.00068861247 2.200318e-21)
(0.91011134 0.00014221275 3.3558193e-21)
(0.90400424 -0.00036441901 4.1682922e-21)
(0.89784404 -0.00083775402 3.58339e-21)
(0.89161285 -0.0012841962 -5.2135417e-21)
(0.88528998 -0.0017100011 -3.4896786e-21)
(0.87885073 -0.0021211031 -2.1094883e-22)
(0.87226943 -0.0025229323 4.3678184e-21)
(0.86552907 -0.0029204214 6.3271559e-21)
(0.85861856 -0.0033179896 -5.874248e-22)
(0.85152796 -0.0037191343 1.6634574e-21)
(0.84425001 -0.0041262737 -4.5502446e-21)
(0.83678252 -0.0045407091 4.078075e-21)
(0.82912965 -0.0049627166 -1.8101696e-21)
(0.71812578 0.064986337 -5.5667263e-20)
(0.72670566 0.067743284 -1.8229448e-20)
(0.73545672 0.070435552 -4.0411268e-20)
(0.74435757 0.073050694 -5.1923559e-20)
(0.7533881 0.075576054 -3.1559478e-20)
(0.76252931 0.077998865 -6.7083898e-20)
(0.77176259 0.080306147 -2.0725432e-20)
(0.78106814 0.082484263 1.5108065e-20)
(0.7904333 0.084517979 -5.5182026e-21)
(0.79985508 0.086391062 -3.7887188e-20)
(0.80933037 0.088087325 3.2768011e-21)
(0.81885186 0.089591095 8.4165712e-21)
(0.82840927 0.090887628 -1.690555e-21)
(0.83798948 0.091963582 3.5295207e-20)
(0.8475765 0.092807472 4.2395171e-20)
(0.85715197 0.093410154 -3.4875972e-20)
(0.86669534 0.093765291 2.7897346e-21)
(0.87618437 0.093869639 -2.0889474e-20)