/*--------------------------------*- C++ -*----------------------------------*\
| =========                 |                                                 |
| \\      /  F ield         | OpenFOAM: The Open Source CFD Toolbox           |
|  \\    /   O peration     | Version:  2.4.0                                 |
|   \\  /    A nd           | Web:      www.OpenFOAM.org                      |
|    \\/     M anipulation  |                                                 |
\*---------------------------------------------------------------------------*/
FoamFile
{
    version     2.0;
    format      ascii;
    class       surfaceScalarField;
    location    "120";
    object      phi;
}
// * * * * * * * * * * * * * * * * * * * * * * * * * * * * * * * * * * * * * //

dimensions      [0 3 -1 0 0 0 0];

internalField   nonuniform List<scalar> 
156040
(
3.0102351e-07
-4.6404154e-08
3.5851966e-07
-5.7496154e-08
3.7481968e-07
-1.6300011e-08
3.6201421e-07
1.2805462e-08
2.920294e-07
6.9984815e-08
1.8485375e-07
1.0717565e-07
5.1527463e-08
1.3332628e-07
-6.4646544e-08
1.1617401e-07
-1.1989115e-07
5.5244605e-08
-1.2240802e-07
2.5168557e-09
-1.0205864e-07
-2.0349383e-08
-8.1711731e-08
-2.0346927e-08
-6.5310475e-08
-1.6401244e-08
-5.5508709e-08
-9.8017724e-09
-4.9615073e-08
-5.8936284e-09
-4.5491436e-08
-4.1236051e-09
-4.2564887e-08
-2.9265763e-09
-4.0219111e-08
-2.3457743e-09
-3.8077614e-08
-2.1414944e-09
-3.6074316e-08
-2.003297e-09
-3.4184477e-08
-1.8898381e-09
-3.2508566e-08
-1.6759106e-09
-3.1208172e-08
-1.3003916e-09
-3.0410566e-08
-7.9760369e-10
-2.9981732e-08
-4.2883327e-10
-2.9902513e-08
-7.9228451e-11
-3.016805e-08
2.6554708e-10
-3.0821472e-08
6.5342001e-10
-3.1857534e-08
1.0360658e-09
-3.33363e-08
1.4787627e-09
-3.5243747e-08
1.90745e-09
-3.7622022e-08
2.3782755e-09
-4.0449916e-08
2.8278943e-09
-4.3702989e-08
3.2530726e-09
-4.7286794e-08
3.5838051e-09
-5.098298e-08
3.6961862e-09
-5.4620833e-08
3.6378527e-09
-5.8260597e-08
3.6397641e-09
-6.189005e-08
3.6294598e-09
-6.5456384e-08
3.5663276e-09
-6.8963609e-08
3.5105923e-09
-7.2105498e-08
3.1419191e-09
-7.518643e-08
3.0809334e-09
-7.7852345e-08
2.665913e-09
-7.9999134e-08
2.1467893e-09
-8.1793267e-08
1.7941318e-09
-8.2993376e-08
1.2001086e-09
-8.397623e-08
9.8285385e-10
-8.4876697e-08
9.0046634e-10
-8.5562808e-08
6.8611082e-10
-8.5829551e-08
2.6674285e-10
-8.55876e-08
-2.4195075e-10
-8.4709465e-08
-8.7813569e-10
-8.3182031e-08
-1.5274336e-09
-8.0929044e-08
-2.2529871e-09
-7.8046262e-08
-2.8827826e-09
-7.4549644e-08
-3.496618e-09
-7.0823529e-08
-3.7261149e-09
-6.7105335e-08
-3.7181949e-09
-6.4486238e-08
-2.6190961e-09
-6.3804989e-08
-6.8124924e-10
-6.9054614e-08
5.2496244e-09
-8.9745043e-08
2.0690429e-08
-1.1218076e-07
2.2435717e-08
-1.3088737e-07
1.8706606e-08
-1.4772056e-07
1.6833196e-08
-1.6296833e-07
1.5247771e-08
-1.7680862e-07
1.3840291e-08
-1.8944833e-07
1.2639705e-08
-2.0101704e-07
1.1568714e-08
-2.1168548e-07
1.0668439e-08
-2.215437e-07
9.8582168e-09
-2.3071858e-07
9.1748847e-09
-2.3927274e-07
8.5541602e-09
-2.4729944e-07
8.0266977e-09
-2.548447e-07
7.5452566e-09
-2.6196666e-07
7.1219612e-09
-2.6869325e-07
6.7265924e-09
-2.7506315e-07
6.3698974e-09
-2.810966e-07
6.0334537e-09
-2.8681918e-07
5.7225804e-09
-2.9224337e-07
5.4241828e-09
-2.9738431e-07
5.1409382e-09
-3.0225044e-07
4.8661378e-09
-3.068505e-07
4.600057e-09
-3.1118864e-07
4.3381383e-09
-3.1526943e-07
4.080792e-09
-3.1910081e-07
3.8313823e-09
-3.226886e-07
3.5877906e-09
-3.2603336e-07
3.344756e-09
-3.2913681e-07
3.1034489e-09
-3.3200084e-07
2.8640288e-09
-3.3462857e-07
2.6277316e-09
-3.3702245e-07
2.3938861e-09
-3.3918648e-07
2.1640302e-09
-3.4112485e-07
1.9383675e-09
-3.4284499e-07
1.7201437e-09
-3.4435154e-07
1.5065463e-09
-3.4565564e-07
1.3040939e-09
-3.4676841e-07
1.1127772e-09
-3.4772714e-07
9.587238e-10
-3.485515e-07
8.2436218e-10
-3.4921034e-07
6.5883788e-10
-3.4965978e-07
4.4944578e-10
-3.4977339e-07
1.136031e-10
-3.4956428e-07
-2.0910475e-10
-3.4912153e-07
-4.4275425e-10
-3.4846158e-07
-6.5994714e-10
-3.4760059e-07
-8.6098473e-10
-3.4654742e-07
-1.0531746e-09
-3.4530674e-07
-1.2406761e-09
-3.4388313e-07
-1.4236101e-09
-3.4227977e-07
-1.6033599e-09
-3.4050415e-07
-1.7756241e-09
-3.3856212e-07
-1.9420353e-09
-3.3645883e-07
-2.1032876e-09
-3.3419501e-07
-2.2638139e-09
-3.3177623e-07
-2.4187829e-09
-3.2920555e-07
-2.5706823e-09
-3.2649396e-07
-2.7115932e-09
-3.2364404e-07
-2.8499169e-09
-3.2066319e-07
-2.9808501e-09
-3.1755232e-07
-3.1108725e-09
-3.1432408e-07
-3.228232e-09
-3.1098167e-07
-3.342411e-09
-3.0753457e-07
-3.4471037e-09
-3.0398133e-07
-3.5532373e-09
-3.0033399e-07
-3.6473375e-09
-2.9659446e-07
-3.739536e-09
-2.9277113e-07
-3.8233296e-09
-2.8886654e-07
-3.9045834e-09
-2.8488702e-07
-3.979522e-09
-2.8083764e-07
-4.0493864e-09
-2.7672333e-07
-4.1143017e-09
-2.7255272e-07
-4.1706151e-09
-2.6832447e-07
-4.228253e-09
-2.6404499e-07
-4.2794727e-09
-2.5971413e-07
-4.3308647e-09
-2.553444e-07
-4.369727e-09
-2.509343e-07
-4.4101051e-09
-2.4649195e-07
-4.4423471e-09
-2.4201948e-07
-4.4724657e-09
-2.375233e-07
-4.4961877e-09
-2.3300747e-07
-4.5158313e-09
-2.2847586e-07
-4.5316017e-09
-2.2393262e-07
-4.5432445e-09
-2.1937866e-07
-4.5539612e-09
-2.1482108e-07
-4.5575824e-09
-2.1026162e-07
-4.5594574e-09
-2.0571267e-07
-4.5489512e-09
-2.0116808e-07
-4.5445825e-09
-1.9663583e-07
-4.5322562e-09
-1.9211329e-07
-4.5225384e-09
-1.876145e-07
-4.4987881e-09
-1.8313671e-07
-4.4777873e-09
-1.7868234e-07
-4.4543704e-09
-1.7424808e-07
-4.4342667e-09
-1.6983904e-07
-4.4090362e-09
-1.6546042e-07
-4.3786173e-09
-1.6110866e-07
-4.3517664e-09
-1.56784e-07
-4.3246624e-09
-1.5248642e-07
-4.2975763e-09
-1.4823526e-07
-4.251163e-09
-1.4403729e-07
-4.1979646e-09
-1.3987359e-07
-4.1636978e-09
-1.3574378e-07
-4.1298151e-09
-1.3166108e-07
-4.0826993e-09
-1.2762779e-07
-4.033287e-09
-1.2364479e-07
-3.983005e-09
-1.19703e-07
-3.941788e-09
-1.1580395e-07
-3.8990542e-09
-1.1195425e-07
-3.8496951e-09
-1.0815264e-07
-3.8016115e-09
-1.0440904e-07
-3.7436109e-09
-1.0072095e-07
-3.6880914e-09
-9.71053e-08
-3.6156474e-09
-9.354926e-08
-3.5560425e-09
-9.0061642e-08
-3.4876165e-09
-8.6621293e-08
-3.4403507e-09
-8.3260046e-08
-3.3612448e-09
-7.9960481e-08
-3.299565e-09
-7.6742404e-08
-3.2180729e-09
-7.35718e-08
-3.1706024e-09
-7.0486755e-08
-3.0850413e-09
-6.7467901e-08
-3.0188513e-09
-6.4538069e-08
-2.9298272e-09
-6.1666272e-08
-2.8717938e-09
-5.8880744e-08
-2.7855253e-09
-5.6171768e-08
-2.7089732e-09
-5.3563485e-08
-2.6082812e-09
-5.1036491e-08
-2.5269919e-09
-4.8624191e-08
-2.4122992e-09
-4.6313589e-08
-2.310599e-09
-4.414191e-08
-2.1716779e-09
-4.2079247e-08
-2.0626615e-09
-4.0175549e-08
-1.9036972e-09
-3.8398606e-08
-1.7769419e-09
-3.682929e-08
-1.5693172e-09
-3.5424785e-08
-1.4045033e-09
-3.4289489e-08
-1.1352957e-09
-3.3352678e-08
-9.3680801e-10
-3.2760405e-08
-5.9227253e-10
-3.2419144e-08
-3.4125871e-10
-3.2539083e-08
1.1993918e-10
-3.2977935e-08
4.3885381e-10
-3.3974415e-08
9.9647919e-10
-3.529853e-08
1.3241161e-09
-3.7415782e-08
2.1172509e-09
-3.842711e-08
1.0113279e-09
-3.9137293e-08
7.1018154e-10
-3.8986418e-08
-1.5087509e-10
-3.8340726e-08
-6.4569273e-10
-3.6997457e-08
-1.3432694e-09
-3.517067e-08
-1.8267872e-09
-3.273824e-08
-2.4324297e-09
-2.9837111e-08
-2.9011297e-09
-2.6376158e-08
-3.4609532e-09
-2.2436577e-08
-3.939582e-09
-1.7929891e-08
-4.5066851e-09
-1.2904339e-08
-5.0255523e-09
-7.2700818e-09
-5.634257e-09
-1.0333282e-09
-6.2367541e-09
6.0046204e-09
-7.0379454e-09
1.3775502e-08
-7.7708844e-09
2.224307e-08
-8.4675645e-09
3.1349765e-08
-9.1066983e-09
4.1077059e-08
-9.7272918e-09
5.1382703e-08
-1.0305646e-08
6.2232978e-08
-1.0850272e-08
7.3591365e-08
-1.1358387e-08
8.5359441e-08
-1.1768062e-08
9.7478925e-08
-1.2119493e-08
1.0980393e-07
-1.2325005e-08
1.2208321e-07
-1.2279277e-08
1.3370569e-07
-1.1622479e-08
1.4459901e-07
-1.0893324e-08
1.5504594e-07
-1.0446935e-08
1.6523204e-07
-1.0186092e-08
1.7529075e-07
-1.0058706e-08
1.8536963e-07
-1.0078875e-08
1.9556769e-07
-1.0197936e-08
2.060639e-07
-1.0496328e-08
2.1698723e-07
-1.09232e-08
2.2854489e-07
-1.1557796e-08
2.4106247e-07
-1.2517418e-08
2.5484684e-07
-1.3784513e-08
2.710199e-07
-1.617309e-08
2.9068628e-07
-1.9666332e-08
3.141382e-07
-2.3451917e-08
3.4152719e-07
-2.7389007e-08
3.7366634e-07
-3.213918e-08
4.1073914e-07
-3.7072833e-08
4.5443419e-07
-4.3695063e-08
5.0540061e-07
-5.0966572e-08
5.6679006e-07
-6.1389575e-08
6.4007746e-07
-7.3285265e-08
7.2892862e-07
-8.8853966e-08
8.2900407e-07
-1.000872e-07
9.4027603e-07
-1.1126035e-07
1.0426946e-06
-1.0241833e-07
1.1045018e-06
-6.1806989e-08
1.0724346e-06
3.2067304e-08
9.7532838e-07
9.7106344e-08
8.2913459e-07
1.4619385e-07
6.7627805e-07
1.5285657e-07
5.2189005e-07
1.5438803e-07
4.0402146e-07
1.178686e-07
3.0796909e-07
9.6052362e-08
2.6660312e-07
4.1365977e-08
1.1983777e-08
9.6390051e-07
-1.8053495e-07
1.115053e-06
-2.0864866e-07
1.1871246e-06
-8.8371597e-08
1.1298655e-06
7.006462e-08
9.3048645e-07
2.6936384e-07
5.9319702e-07
4.4446509e-07
1.8911006e-07
5.3741324e-07
-1.8032987e-07
4.8561393e-07
-3.5809102e-07
2.3300576e-07
-3.7637038e-07
2.079621e-08
-3.1442561e-07
-8.2294137e-08
-2.5413757e-07
-8.0634959e-08
-2.026368e-07
-6.7902075e-08
-1.7311651e-07
-3.9322012e-08
-1.5419652e-07
-2.4813613e-08
-1.4189464e-07
-1.6425518e-08
-1.3244066e-07
-1.2380545e-08
-1.2543982e-07
-9.3466171e-09
-1.1860757e-07
-8.9737462e-09
-1.1257322e-07
-8.0376388e-09
-1.0662882e-07
-7.834238e-09
-1.0155884e-07
-6.7458968e-09
-9.749724e-08
-5.3619909e-09
-9.5107079e-08
-3.1877669e-09
-9.3779221e-08
-1.7566913e-09
-9.359609e-08
-2.6235342e-10
-9.4465157e-08
1.1346076e-09
-9.6542622e-08
2.7308867e-09
-9.9816259e-08
4.3096992e-09
-1.0445508e-07
6.1175892e-09
-1.1043465e-07
7.8870126e-09
-1.1787043e-07
9.8140566e-09
-1.26689e-07
1.1646464e-08
-1.3682435e-07
1.3388427e-08
-1.4795511e-07
1.471456e-08
-1.5944431e-07
1.5185385e-08
-1.7077754e-07
1.4971087e-08
-1.8210341e-07
1.4965632e-08
-1.9336985e-07
1.4895898e-08
-2.0441872e-07
1.46152e-08
-2.1522199e-07
1.4313785e-08
-2.2520682e-07
1.3126768e-08
-2.3470914e-07
1.258326e-08
-2.4305739e-07
1.1014158e-08
-2.4989475e-07
8.9841502e-09
-2.5542233e-07
7.3217173e-09
-2.5928929e-07
5.0670645e-09
-2.6242863e-07
4.1221909e-09
-2.65354e-07
3.8258399e-09
-2.6764081e-07
2.9729219e-09
-2.6861874e-07
1.2446751e-09
-2.6809183e-07
-7.688643e-10
-2.6556424e-07
-3.4057227e-09
-2.6111794e-07
-5.9737389e-09
-2.5436738e-07
-9.0035484e-09
-2.4583571e-07
-1.1414448e-08
-2.3527405e-07
-1.4058279e-08
-2.2430097e-07
-1.4699199e-08
-2.1309703e-07
-1.4922132e-08
-2.0585231e-07
-9.8638138e-09
-2.0417042e-07
-2.3631384e-09
-2.2194468e-07
2.3023879e-08
-2.8529662e-07
8.4042369e-08
-3.5482873e-07
9.1967824e-08
-4.1247296e-07
7.6350842e-08
-4.6467638e-07
6.903661e-08
-5.1165032e-07
6.2221713e-08
-5.5449412e-07
5.6684095e-08
-5.9343183e-07
5.1577413e-08
-6.2919929e-07
4.7336172e-08
-6.6206758e-07
4.3536726e-08
-6.9251999e-07
4.0310631e-08
-7.2078986e-07
3.7444753e-08
-7.4719065e-07
3.4954952e-08
-7.7191354e-07
3.2749585e-08
-7.9518361e-07
3.0815326e-08
-8.1711426e-07
2.9052609e-08
-8.3784121e-07
2.7453551e-08
-8.5744642e-07
2.5975101e-08
-8.760207e-07
2.4607737e-08
-8.936191e-07
2.3320977e-08
-9.1029933e-07
2.2104418e-08
-9.2609562e-07
2.0937228e-08
-9.4104431e-07
1.9814829e-08
-9.5516212e-07
1.871786e-08
-9.6846909e-07
1.7645114e-08
-9.8097859e-07
1.6590292e-08
-9.9271585e-07
1.5568638e-08
-1.0036912e-06
1.4563117e-08
-1.013912e-06
1.3565561e-08
-1.0233843e-06
1.2575785e-08
-1.0321139e-06
1.1593581e-08
-1.0401099e-06
1.0623732e-08
-1.0473811e-06
9.665162e-09
-1.0539407e-06
8.723627e-09
-1.0598033e-06
7.8009517e-09
-1.0649908e-06
6.9075748e-09
-1.0695199e-06
6.0357016e-09
-1.0734263e-06
5.2105325e-09
-1.0767294e-06
4.4158139e-09
-1.0795564e-06
3.7857624e-09
-1.0819793e-06
3.2472001e-09
-1.0838977e-06
2.5772323e-09
-1.0851855e-06
1.7372889e-09
-1.0854227e-06
3.5078686e-10
-1.0846379e-06
-9.9392058e-10
-1.0831375e-06
-1.9431407e-09
-1.0809642e-06
-2.8332405e-09
-1.0781729e-06
-3.6522452e-09
-1.0747845e-06
-4.441601e-09
-1.0708165e-06
-5.208683e-09
-1.0662834e-06
-5.9567252e-09
-1.0611984e-06
-6.6882933e-09
-1.0555811e-06
-7.3929611e-09
-1.0494474e-06
-8.0757452e-09
-1.0428126e-06
-8.7380831e-09
-1.0356854e-06
-9.3910613e-09
-1.0280827e-06
-1.0021432e-08
-1.0200178e-06
-1.063556e-08
-1.0115163e-06
-1.1213122e-08
-1.0025902e-06
-1.1776004e-08
-9.9325996e-07
-1.2311107e-08
-9.8353646e-07
-1.2834369e-08
-9.7344879e-07
-1.3315902e-08
-9.6301016e-07
-1.3781037e-08
-9.5224429e-07
-1.4212975e-08
-9.4115765e-07
-1.4639874e-08
-9.2977764e-07
-1.502735e-08
-9.1811528e-07
-1.5401893e-08
-9.0619228e-07
-1.5746333e-08
-8.940206e-07
-1.6076261e-08
-8.8161825e-07
-1.6381876e-08
-8.6900108e-07
-1.6666554e-08
-8.5618469e-07
-1.6930687e-08
-8.4318936e-07
-1.7165945e-08
-8.3001951e-07
-1.7398103e-08
-8.1669197e-07
-1.7607022e-08
-8.0321435e-07
-1.7808484e-08
-7.8961467e-07
-1.7969406e-08
-7.7589685e-07
-1.8127923e-08
-7.6207893e-07
-1.8260265e-08
-7.4817137e-07
-1.8380023e-08
-7.3419163e-07
-1.8475936e-08
-7.201522e-07
-1.8555253e-08
-7.060653e-07
-1.8618505e-08
-6.9194332e-07
-1.8665225e-08
-6.7779369e-07
-1.8703591e-08
-6.6363396e-07
-1.8717314e-08
-6.4947271e-07
-1.8720705e-08
-6.353345e-07
-1.8687163e-08
-6.2121458e-07
-1.8664507e-08
-6.0713073e-07
-1.8616102e-08
-5.9308388e-07
-1.8569386e-08
-5.7910041e-07
-1.8482258e-08
-5.6517976e-07
-1.839844e-08
-5.5132913e-07
-1.8304997e-08
-5.3754686e-07
-1.8216537e-08
-5.2384402e-07
-1.8111879e-08
-5.1023179e-07
-1.7990845e-08
-4.9670676e-07
-1.7876804e-08
-4.8327404e-07
-1.7757377e-08
-4.699392e-07
-1.7632421e-08
-4.5673575e-07
-1.7454605e-08
-4.4367781e-07
-1.7255906e-08
-4.3073652e-07
-1.7104987e-08
-4.1791364e-07
-1.6952697e-08
-4.0523395e-07
-1.6762391e-08
-3.927016e-07
-1.6565633e-08
-3.8032113e-07
-1.636348e-08
-3.680781e-07
-1.6184822e-08
-3.5597847e-07
-1.5998685e-08
-3.4403283e-07
-1.5795336e-08
-3.3224498e-07
-1.5589465e-08
-3.2063245e-07
-1.5356135e-08
-3.0919759e-07
-1.5122961e-08
-2.9796733e-07
-1.4845909e-08
-2.8692571e-07
-1.4597667e-08
-2.7608512e-07
-1.4328204e-08
-2.6541741e-07
-1.4108055e-08
-2.5497134e-07
-1.3807315e-08
-2.4472607e-07
-1.3544837e-08
-2.3470989e-07
-1.3234249e-08
-2.2487775e-07
-1.3002736e-08
-2.1528496e-07
-1.2677824e-08
-2.0591353e-07
-1.2390286e-08
-1.9679182e-07
-1.2051524e-08
-1.8788751e-07
-1.1776108e-08
-1.7923446e-07
-1.143857e-08
-1.7084222e-07
-1.1101205e-08
-1.627358e-07
-1.0714697e-08
-1.5491857e-07
-1.0344223e-08
-1.4742497e-07
-9.9058938e-09
-1.4028041e-07
-9.4551601e-09
-1.3351851e-07
-8.9335709e-09
-1.2715195e-07
-8.4292186e-09
-1.2122706e-07
-7.8285885e-09
-1.1577448e-07
-7.2295231e-09
-1.1088281e-07
-6.4609853e-09
-1.0659295e-07
-5.6943695e-09
-1.0302239e-07
-4.7058542e-09
-1.0019735e-07
-3.7618412e-09
-9.8296806e-08
-2.492815e-09
-9.7344472e-08
-1.2935897e-09
-9.7635129e-08
4.1059649e-10
-9.9135461e-08
1.9391874e-09
-1.0213377e-07
3.994783e-09
-1.0644904e-07
5.6393911e-09
-1.1286819e-07
8.5364026e-09
-1.1614331e-07
4.2864443e-09
-1.1814466e-07
2.7115284e-09
-1.1774112e-07
-5.5440917e-10
-1.1556156e-07
-2.8252587e-09
-1.1142785e-07
-5.4769772e-09
-1.0561512e-07
-7.6395165e-09
-9.8083782e-08
-9.9637701e-09
-8.8966089e-08
-1.2018823e-08
-7.823686e-08
-1.4190182e-08
-6.5924813e-08
-1.625163e-08
-5.1953633e-08
-1.8477864e-08
-3.6301002e-08
-2.0678183e-08
-1.8841583e-08
-2.3093676e-08
5.4249024e-10
-2.5620828e-08
2.2331261e-08
-2.8826713e-08
4.6417135e-08
-3.1856762e-08
7.2608355e-08
-3.4658781e-08
1.0077897e-07
-3.7277311e-08
1.3083118e-07
-3.9779505e-08
1.6266939e-07
-4.2143855e-08
1.9617869e-07
-4.4359572e-08
2.3123804e-07
-4.6417736e-08
2.6758452e-07
-4.8114529e-08
3.0499303e-07
-4.9528004e-08
3.4301751e-07
-5.0349486e-08
3.8084272e-07
-5.0104489e-08
4.167114e-07
-4.7491164e-08
4.5038597e-07
-4.4567897e-08
4.8270994e-07
-4.2770904e-08
5.1423833e-07
-4.1714476e-08
5.453745e-07
-4.1194862e-08
5.7656266e-07
-4.1267027e-08
6.0811054e-07
-4.1745692e-08
6.4053574e-07
-4.2921656e-08
6.7424729e-07
-4.4634611e-08
7.099011e-07
-4.721175e-08
7.483741e-07
-5.0990248e-08
7.908258e-07
-5.6236364e-08
8.4042145e-07
-6.5768779e-08
9.0050729e-07
-7.9752111e-08
9.7183945e-07
-9.4784077e-08
1.0558747e-06
-1.1142425e-07
1.1539712e-06
-1.3023575e-07
1.2681726e-06
-1.5127429e-07
1.4018337e-06
-1.7735614e-07
1.5591556e-06
-2.0828864e-07
1.7458904e-06
-2.4812457e-07
1.971521e-06
-2.9891366e-07
2.2413562e-06
-3.5869224e-07
2.5492549e-06
-4.0799824e-07
2.884885e-06
-4.4687823e-07
3.2012331e-06
-4.1876609e-07
3.3870862e-06
-2.4765987e-07
3.3085604e-06
1.1059333e-07
3.016534e-06
3.8913285e-07
2.5910299e-06
5.7169805e-07
2.1170452e-06
6.2684135e-07
1.6616482e-06
6.0978508e-07
1.2794647e-06
5.0005209e-07
1.0050725e-06
3.7044459e-07
8.4524623e-07
2.0119222e-07
2.74603e-08
1.7094382e-06
-4.0100547e-07
1.9482227e-06
-4.4743318e-07
2.0854152e-06
-2.255641e-07
1.9754779e-06
1.8000189e-07
1.6441537e-06
6.0068806e-07
1.0605578e-06
1.028061e-06
3.6727214e-07
1.2306989e-06
-2.8225303e-07
1.1351391e-06
-6.0255314e-07
5.5330586e-07
-6.4704732e-07
6.5290379e-08
-5.4314043e-07
-1.8620103e-07
-4.413911e-07
-1.8238432e-07
-3.520125e-07
-1.5728065e-07
-3.0142997e-07
-8.9904554e-08
-2.6816414e-07
-5.8079438e-08
-2.4714556e-07
-3.744404e-08
-2.3048136e-07
-2.9044793e-08
-2.1852024e-07
-2.1307735e-08
-2.065445e-07
-2.094948e-08
-1.9620662e-07
-1.8375517e-08
-1.8584929e-07
-1.8191568e-08
-1.7715279e-07
-1.5442388e-08
-1.7009837e-07
-1.2416408e-08
-1.6601814e-07
-7.2679959e-09
-1.6373195e-07
-4.0428759e-09
-1.6347626e-07
-5.1805995e-10
-1.6503897e-07
2.6973366e-09
-1.6870353e-07
6.3954384e-09
-1.7445317e-07
1.0059349e-08
-1.8256678e-07
1.4231198e-08
-1.9301475e-07
1.8334982e-08
-2.0598491e-07
2.2784216e-08
-2.2134339e-07
2.7004945e-08
-2.3898034e-07
3.1025376e-08
-2.5831841e-07
3.4052638e-08
-2.7828523e-07
3.5152201e-08
-2.980036e-07
3.468946e-08
-3.1769473e-07
3.4656764e-08
-3.3726127e-07
3.4462447e-08
-3.5643752e-07
3.3791444e-08
-3.7513864e-07
3.3014902e-08
-3.9264337e-07
3.0631527e-08
-4.0910931e-07
2.9049203e-08
-4.2366992e-07
2.5574771e-08
-4.3569242e-07
2.1006645e-08
-4.4530474e-07
1.6934038e-08
-4.5218217e-07
1.194449e-08
-4.5776886e-07
9.7088852e-09
-4.63016e-07
9.0729821e-09
-4.6718758e-07
7.1444973e-09
-4.6910368e-07
3.160773e-09
-4.6848009e-07
-1.3924532e-09
-4.6439756e-07
-7.4882533e-09
-4.5707426e-07
-1.3297035e-08
-4.4575867e-07
-2.0319137e-08
-4.3150418e-07
-2.5668942e-08
-4.1370061e-07
-3.1861852e-08
-3.9542033e-07
-3.2979476e-08
-3.7665156e-07
-3.3690899e-08
-3.6516086e-07
-2.135452e-08
-3.6319564e-07
-4.3283524e-09
-3.9571135e-07
5.5539586e-08
-5.0477125e-07
1.9310227e-07
-6.2496297e-07
2.1215954e-07
-7.2450828e-07
1.7589615e-07
-8.1483493e-07
1.5936327e-07
-8.9589466e-07
1.4328144e-07
-9.6994414e-07
1.3073358e-07
-1.0371107e-06
1.1874394e-07
-1.0988839e-06
1.0910937e-07
-1.1555697e-06
1.0022254e-07
-1.208136e-06
9.2876959e-08
-1.256885e-06
8.6193743e-08
-1.3024314e-06
8.0501366e-08
-1.3450444e-06
7.5362522e-08
-1.3851698e-06
7.09408e-08
-1.4229585e-06
6.6841283e-08
-1.4586762e-06
6.3171267e-08
-1.4924403e-06
5.9739177e-08
-1.5244256e-06
5.6593036e-08
-1.5547117e-06
5.3607096e-08
-1.5834106e-06
5.0803318e-08
-1.6105734e-06
4.8099976e-08
-1.6362693e-06
4.5510793e-08
-1.6605211e-06
4.2969598e-08
-1.6833681e-06
4.0492122e-08
-1.7048354e-06
3.8057593e-08
-1.7249642e-06
3.5697455e-08
-1.7437648e-06
3.3363684e-08
-1.7612565e-06
3.1057322e-08
-1.777451e-06
2.8770302e-08
-1.792358e-06
2.650057e-08
-1.8059934e-06
2.4259122e-08
-1.8183735e-06
2.2045262e-08
-1.8295215e-06
1.987162e-08
-1.8394642e-06
1.7743603e-08
-1.8482387e-06
1.568211e-08
-1.855877e-06
1.3674024e-08
-1.8624404e-06
1.1773969e-08
-1.8679437e-06
9.9190395e-09
-1.8726247e-06
8.466767e-09
-1.8766248e-06
7.2472921e-09
-1.8797666e-06
5.7190537e-09
-1.8818413e-06
3.8119631e-09
-1.882081e-06
5.9052757e-10
-1.880522e-06
-2.5528814e-09
-1.877732e-06
-4.7332326e-09
-1.8737792e-06
-6.7859611e-09
-1.8687617e-06
-8.6698233e-09
-1.8627106e-06
-1.0492621e-08
-1.8556588e-06
-1.2260476e-08
-1.8476315e-06
-1.3984091e-08
-1.8386539e-06
-1.5665838e-08
-1.8287572e-06
-1.7289668e-08
-1.8179679e-06
-1.88651e-08
-1.8063118e-06
-2.0394129e-08
-1.7938085e-06
-2.189441e-08
-1.7804871e-06
-2.3342813e-08
-1.7663731e-06
-2.4749584e-08
-1.7515049e-06
-2.6081323e-08
-1.7359063e-06
-2.7374548e-08
-1.7196109e-06
-2.8606493e-08
-1.7026432e-06
-2.9802145e-08
-1.6850462e-06
-3.0912836e-08
-1.6668455e-06
-3.1981727e-08
-1.648078e-06
-3.2980488e-08
-1.6287625e-06
-3.3955371e-08
-1.6089394e-06
-3.4850443e-08
-1.5886316e-06
-3.5709765e-08
-1.5678733e-06
-3.6504613e-08
-1.5466882e-06
-3.7261335e-08
-1.5251063e-06
-3.7963779e-08
-1.5031551e-06
-3.8617752e-08
-1.4808618e-06
-3.9224009e-08
-1.458257e-06
-3.977075e-08
-1.4353543e-06
-4.0300768e-08
-1.4121805e-06
-4.0780808e-08
-1.3887545e-06
-4.123449e-08
-1.3651172e-06
-4.1606779e-08
-1.3412814e-06
-4.1963717e-08
-1.3172732e-06
-4.2268446e-08
-1.2931135e-06
-4.2539719e-08
-1.2688307e-06
-4.2758686e-08
-1.2444465e-06
-4.293945e-08
-1.2199821e-06
-4.3082979e-08
-1.1954585e-06
-4.3188817e-08
-1.1708917e-06
-4.3270342e-08
-1.146309e-06
-4.330004e-08
-1.1217275e-06
-4.330221e-08
-1.09718e-06
-4.3234626e-08
-1.0726684e-06
-4.3176116e-08
-1.0482184e-06
-4.3066159e-08
-1.0238379e-06
-4.2949849e-08
-9.9956072e-07
-4.2759433e-08
-9.7539161e-07
-4.2567555e-08
-9.5134255e-07
-4.2354054e-08
-9.2741666e-07
-4.2142432e-08
-9.0362971e-07
-4.1898824e-08
-8.7999769e-07
-4.1622866e-08
-8.5652009e-07
-4.1354402e-08
-8.3320842e-07
-4.1069047e-08
-8.1007629e-07
-4.0764558e-08
-7.8716374e-07
-4.0367157e-08
-7.6449044e-07
-3.9929206e-08
-7.4202692e-07
-3.9568499e-08
-7.1977806e-07
-3.9201556e-08
-6.9777558e-07
-3.8764874e-08
-6.76025e-07
-3.8316218e-08
-6.5453511e-07
-3.7853369e-08
-6.332905e-07
-3.7429436e-08
-6.1230207e-07
-3.6987108e-08
-5.915815e-07
-3.6515909e-08
-5.7114075e-07
-3.6030219e-08
-5.5100103e-07
-3.5495859e-08
-5.3117358e-07
-3.4950415e-08
-5.1168729e-07
-3.4332199e-08
-4.9253129e-07
-3.3753672e-08
-4.7371615e-07
-3.3143338e-08
-4.5521946e-07
-3.2604744e-08
-4.370908e-07
-3.1935977e-08
-4.1931772e-07
-3.1317919e-08
-4.0192564e-07
-3.0626324e-08
-3.8487881e-07
-3.0049563e-08
-3.6822923e-07
-2.9327399e-08
-3.5197546e-07
-2.8644055e-08
-3.361369e-07
-2.7890078e-08
-3.2070177e-07
-2.7211235e-08
-3.0569155e-07
-2.6448778e-08
-2.9115051e-07
-2.5642247e-08
-2.7708751e-07
-2.4777693e-08
-2.6355236e-07
-2.3879368e-08
-2.505571e-07
-2.2901161e-08
-2.3819127e-07
-2.1820986e-08
-2.2645667e-07
-2.0668169e-08
-2.1544807e-07
-1.9437813e-08
-2.0517055e-07
-1.810611e-08
-1.9576774e-07
-1.6632331e-08
-1.8728101e-07
-1.4947715e-08
-1.7990186e-07
-1.3073518e-08
-1.7369072e-07
-1.0916993e-08
-1.6886353e-07
-8.5890346e-09
-1.6553979e-07
-5.8165509e-09
-1.6397902e-07
-2.8543519e-09
-1.6444251e-07
8.7408681e-10
-1.671578e-07
4.6544796e-09
-1.7231477e-07
9.151745e-09
-1.7997469e-07
1.3299318e-08
-1.9098289e-07
1.9544597e-08
-1.967388e-07
1.0042358e-08
-2.0002398e-07
5.9967074e-09
-1.9933319e-07
-1.2452032e-09
-1.9539987e-07
-6.7585757e-09
-1.882325e-07
-1.2644348e-08
-1.7803688e-07
-1.7835143e-08
-1.6497923e-07
-2.3021414e-08
-1.4908676e-07
-2.7911299e-08
-1.3049093e-07
-3.2786014e-08
-1.0908989e-07
-3.7652665e-08
-8.4885813e-08
-4.2681942e-08
-5.7721937e-08
-4.784206e-08
-2.7486633e-08
-5.332898e-08
6.1218056e-09
-5.9229266e-08
4.3836452e-08
-6.6541355e-08
8.5544231e-08
-7.3564545e-08
1.3085813e-07
-7.9972674e-08
1.796014e-07
-8.6020585e-08
2.3157204e-07
-9.175014e-08
2.8662977e-07
-9.7201594e-08
3.4457014e-07
-1.0229994e-07
4.051739e-07
-1.070215e-07
4.6802185e-07
-1.1096246e-07
5.3268164e-07
-1.141878e-07
5.9838563e-07
-1.1605348e-07
6.6371376e-07
-1.1543262e-07
7.2572887e-07
-1.0950628e-07
7.8400938e-07
-1.0284841e-07
8.3998406e-07
-9.8745578e-08
8.9460953e-07
-9.6339942e-08
9.4856161e-07
-9.5146938e-08
1.0025778e-06
-9.52832e-08
1.0572172e-06
-9.6384971e-08
1.1133373e-06
-9.9041914e-08
1.1716617e-06
-1.0295888e-07
1.2333275e-06
-1.0887769e-07
1.2997865e-06
-1.1744907e-07
1.373148e-06
-1.2959796e-07
1.4587084e-06
-1.5132922e-07
1.561993e-06
-1.830367e-07
1.6843746e-06
-2.171656e-07
1.8290788e-06
-2.5612856e-07
1.9976602e-06
-2.9881712e-07
2.194535e-06
-3.4814912e-07
2.424271e-06
-4.0709215e-07
2.6954176e-06
-4.794355e-07
3.0151682e-06
-5.6787528e-07
3.4031794e-06
-6.8692269e-07
3.8643756e-06
-8.1989144e-07
4.392613e-06
-9.362479e-07
4.9633625e-06
-1.0176156e-06
5.5056943e-06
-9.6109765e-07
5.8227823e-06
-5.6474763e-07
5.7080048e-06
2.25371e-07
5.2206015e-06
8.7653625e-07
4.5143497e-06
1.27795e-06
3.7031909e-06
1.4380002e-06
2.9354222e-06
1.3775538e-06
2.2644571e-06
1.1710172e-06
1.8043049e-06
8.3059685e-07
1.5044062e-06
5.0109088e-07
4.2898884e-08
2.5431997e-06
-7.0643456e-07
2.8703937e-06
-7.7462712e-07
3.0727209e-06
-4.2789131e-07
2.9087573e-06
3.4396554e-07
2.4376089e-06
1.0718365e-06
1.5954243e-06
1.8702455e-06
5.907637e-07
2.2353595e-06
-3.6528424e-07
2.091187e-06
-8.5196173e-07
1.0399834e-06
-9.3372862e-07
1.4705726e-07
-7.8902506e-07
-3.3090458e-07
-6.438507e-07
-3.2755867e-07
-5.1425379e-07
-2.8687763e-07
-4.4090922e-07
-1.6324906e-07
-3.9216518e-07
-1.0682347e-07
-3.6167654e-07
-6.7932727e-08
-3.3722866e-07
-5.349265e-08
-3.1988162e-07
-3.8654779e-08
-3.0237234e-07
-3.8458764e-08
-2.8738906e-07
-3.3358795e-08
-2.7229768e-07
-3.3282952e-08
-2.5970659e-07
-2.8033472e-08
-2.4945245e-07
-2.267055e-08
-2.435714e-07
-1.3149055e-08
-2.4029001e-07
-7.3242634e-09
-2.3999927e-07
-8.0879105e-10
-2.4236379e-07
5.0618496e-09
-2.4779959e-07
1.1831239e-08
-2.5628693e-07
1.8546678e-08
-2.6821861e-07
2.6162882e-08
-2.8356212e-07
3.3678494e-08
-3.0257642e-07
4.1798518e-08
-3.2506224e-07
4.9490762e-08
-3.508554e-07
5.6818533e-08
-3.7910539e-07
6.2302626e-08
-4.0827491e-07
6.4321721e-08
-4.3709586e-07
6.3510409e-08
-4.6586596e-07
6.3426861e-08
-4.9443681e-07
6.3033302e-08
-5.2243054e-07
6.1785171e-08
-5.4970461e-07
6.0288915e-08
-5.7537475e-07
5.6301683e-08
-5.9940742e-07
5.3081881e-08
-6.2073057e-07
4.6897918e-08
-6.3843e-07
3.8706076e-08
-6.5255373e-07
3.1057764e-08
-6.6281715e-07
2.2207913e-08
-6.7119587e-07
1.8087602e-08
-6.7910744e-07
1.6984555e-08
-6.8548348e-07
1.3520532e-08
-6.886156e-07
6.2928908e-09
-6.8811827e-07
-1.8897738e-09
-6.826307e-07
-1.2975827e-08
-6.724987e-07
-2.3429036e-08
-6.5661858e-07
-3.6199256e-08
-6.3658497e-07
-4.5702555e-08
-6.1145898e-07
-5.6987842e-08
-5.858204e-07
-5.861805e-08
-5.5956855e-07
-5.9942752e-08
-5.4421783e-07
-3.6705241e-08
-5.4300496e-07
-5.541225e-09
-5.9249148e-07
1.0502611e-07
-7.5064057e-07
3.5125136e-07
-9.2506585e-07
3.8658482e-07
-1.0696977e-06
3.2052797e-07
-1.2009481e-06
2.9061371e-07
-1.3186033e-06
2.6093665e-07
-1.4261062e-06
2.3823649e-07
-1.5235394e-06
2.1617713e-07
-1.613168e-06
1.9873794e-07
-1.6953685e-06
1.8242304e-07
-1.7716075e-06
1.6911598e-07
-1.8422816e-06
1.5686788e-07
-1.9083074e-06
1.4652709e-07
-1.9700505e-06
1.3710562e-07
-2.0281925e-06
1.2908286e-07
-2.0829266e-06
1.2157532e-07
-2.1346518e-06
1.1489652e-07
-2.1835277e-06
1.0861502e-07
-2.2298156e-06
1.0288096e-07
-2.2736241e-06
9.7415641e-08
-2.3151212e-06
9.2300353e-08
-2.3543774e-06
8.7356195e-08
-2.3914964e-06
8.2629825e-08
-2.4265087e-06
7.7981886e-08
-2.4594742e-06
7.3457568e-08
-2.490436e-06
6.9019468e-08
-2.5194463e-06
6.4707738e-08
-2.5465101e-06
6.0427474e-08
-2.5716657e-06
5.6212868e-08
-2.5949314e-06
5.203601e-08
-2.6163213e-06
4.7890498e-08
-2.635859e-06
4.3796849e-08
-2.6535692e-06
3.9755401e-08
-2.669486e-06
3.5788475e-08
-2.6836497e-06
3.190731e-08
-2.6961144e-06
2.8146801e-08
-2.7069295e-06
2.4489152e-08
-2.7161826e-06
2.1027053e-08
-2.7238677e-06
1.7604141e-08
-2.7303592e-06
1.4958268e-08
-2.7358911e-06
1.2779165e-08
-2.7401986e-06
1.002659e-08
-2.7429899e-06
6.6032464e-09
-2.7430865e-06
6.8714577e-10
-2.7405233e-06
-5.1161509e-09
-2.7361766e-06
-9.0798699e-09
-2.7301436e-06
-1.281896e-08
-2.7225669e-06
-1.6246509e-08
-2.7134895e-06
-1.9570107e-08
-2.7029602e-06
-2.2789741e-08
-2.6910158e-06
-2.5928499e-08
-2.6776947e-06
-2.8986925e-08
-2.6630405e-06
-3.1943905e-08
-2.6470913e-06
-3.4814281e-08
-2.6298846e-06
-3.7600795e-08
-2.6114513e-06
-4.0327704e-08
-2.5918337e-06
-4.2960412e-08
-2.5710703e-06
-4.5513045e-08
-2.5492136e-06
-4.7938004e-08
-2.5263002e-06
-5.0287934e-08
-2.5023777e-06
-5.2528992e-08
-2.4774848e-06
-5.4695045e-08
-2.4516801e-06
-5.6717487e-08
-2.4250024e-06
-5.865949e-08
-2.3975026e-06
-6.0480251e-08
-2.3692128e-06
-6.2245233e-08
-2.3401872e-06
-6.387599e-08
-2.3104615e-06
-6.5435441e-08
-2.2800836e-06
-6.6882519e-08
-2.2490896e-06
-6.8255381e-08
-2.2175221e-06
-6.9531251e-08
-2.1854213e-06
-7.0718565e-08
-2.1528267e-06
-7.1818587e-08
-2.1197803e-06
-7.2817161e-08
-2.0863054e-06
-7.3775676e-08
-2.0524392e-06
-7.4646989e-08
-2.0182127e-06
-7.5461025e-08
-1.9836804e-06
-7.6139071e-08
-1.9488651e-06
-7.6778962e-08
-1.9138014e-06
-7.7332163e-08
-1.8785213e-06
-7.7819835e-08
-1.843065e-06
-7.8215018e-08
-1.8074639e-06
-7.8540527e-08
-1.7717488e-06
-7.8798121e-08
-1.7359502e-06
-7.8987425e-08
-1.7000929e-06
-7.9127578e-08
-1.6642146e-06
-7.9178314e-08
-1.6283418e-06
-7.917501e-08
-1.5925164e-06
-7.9060087e-08
-1.5567471e-06
-7.8945447e-08
-1.5210676e-06
-7.8745563e-08
-1.4854941e-06
-7.8523422e-08
-1.450068e-06
-7.8185525e-08
-1.4148001e-06
-7.7835427e-08
-1.3797072e-06
-7.7446972e-08
-1.3447973e-06
-7.7052309e-08
-1.3100915e-06
-7.6604676e-08
-1.2756108e-06
-7.6103482e-08
-1.2413582e-06
-7.5607094e-08
-1.2073511e-06
-7.5076115e-08
-1.173612e-06
-7.4503691e-08
-1.1401887e-06
-7.3790379e-08
-1.1071073e-06
-7.3010602e-08
-1.0743367e-06
-7.2339102e-08
-1.0418848e-06
-7.165347e-08
-1.0097911e-06
-7.0858543e-08
-9.7806345e-07
-7.0043922e-08
-9.4671454e-07
-6.9202273e-08
-9.1572787e-07
-6.8416112e-08
-8.851192e-07
-6.7595776e-08
-8.5490201e-07
-6.6733096e-08
-8.2509679e-07
-6.5835445e-08
-7.9572903e-07
-6.4863627e-08
-7.6681962e-07
-6.3859822e-08
-7.3840003e-07
-6.2751793e-08
-7.1046461e-07
-6.1689092e-08
-6.8302177e-07
-6.0586179e-08
-6.5605482e-07
-5.9571698e-08
-6.296152e-07
-5.8375595e-08
-6.0369945e-07
-5.7233671e-08
-5.7833002e-07
-5.5995742e-08
-5.5348014e-07
-5.4899444e-08
-5.2919957e-07
-5.360796e-08
-5.0550429e-07
-5.2339331e-08
-4.8240485e-07
-5.0989519e-08
-4.5990992e-07
-4.9706158e-08
-4.3802931e-07