/*--------------------------------*- C++ -*----------------------------------*\
| =========                 |                                                 |
| \\      /  F ield         | OpenFOAM: The Open Source CFD Toolbox           |
|  \\    /   O peration     | Version:  2.4.0                                 |
|   \\  /    A nd           | Web:      www.OpenFOAM.org                      |
|    \\/     M anipulation  |                                                 |
\*---------------------------------------------------------------------------*/
FoamFile
{
    version     2.0;
    format      ascii;
    class       volVectorField;
    location    "120";
    object      U;
}
// * * * * * * * * * * * * * * * * * * * * * * * * * * * * * * * * * * * * * //

dimensions      [0 1 -1 0 0 0 0];

internalField   nonuniform List<vector> 
78300
(
(0.0060015267 2.5884275e-05 1.3322645e-21)
(0.0045785933 2.328379e-05 -1.2894904e-21)
(0.0073393824 -4.6431951e-05 1.1144891e-21)
(0.0058873766 -0.00018119955 -3.0515665e-20)
(0.0064309364 -0.00043607661 -8.6918985e-21)
(0.0038150503 -0.00044720104 1.6657905e-20)
(0.0024687396 -0.00044725448 9.697302e-21)
(-0.00057834984 0.00013823215 -3.3154727e-20)
(-0.0016631566 0.00054466364 -1.1548322e-20)
(-0.0023862511 0.0010054976 1.1770163e-20)
(-0.0018183819 0.00091657041 7.1474959e-21)
(-0.0016065025 0.00092838266 -1.7393243e-20)
(-0.0011467814 0.00073274021 2.7329615e-21)
(-0.0010058787 0.00069643609 -1.2246121e-20)
(-0.00082149441 0.0006042093 9.2366819e-21)
(-0.00077837855 0.00060092044 -1.2479329e-20)
(-0.00068196531 0.0005459221 -3.8441305e-21)
(-0.00065954228 0.00054330124 1.6504633e-21)
(-0.00059830523 0.00050268795 -5.7649564e-21)
(-0.00057333804 0.00048824391 3.6622965e-21)
(-0.00052608377 0.00045078297 4.281966e-21)
(-0.00050053663 0.00042899975 -2.9311793e-21)
(-0.0004657605 0.00039655564 -9.0655549e-22)
(-0.00044972438 0.0003786533 3.0459303e-22)
(-0.00043315951 0.0003605407 5.8999529e-22)
(-0.00042692459 0.0003515171 9.7771667e-23)
(-0.00042191732 0.00034389741 1.0557484e-22)
(-0.00042525393 0.00034343181 -3.6830541e-22)
(-0.00043123182 0.00034522258 -3.7947159e-22)
(-0.00044507952 0.00035358618 -3.5033907e-22)
(-0.00046262032 0.0003649032 4.7234576e-22)
(-0.00048760412 0.00038230859 1.2467165e-21)
(-0.00051693072 0.00040313029 5.6286664e-22)
(-0.00055270028 0.00042912146 8.6516514e-22)
(-0.00059212695 0.00045803849 -1.0352855e-21)
(-0.00063476794 0.00048966625 7.2355075e-22)
(-0.00067568254 0.00051967872 -1.1827461e-21)
(-0.00071569437 0.0005473307 -3.9451373e-23)
(-0.00075535795 0.00057245698 -1.8885923e-21)
(-0.00079388176 0.00059406195 3.1783184e-22)
(-0.00083115536 0.00061178079 -3.4326525e-24)
(-0.00086569191 0.00062522919 -3.1023121e-22)
(-0.00089779165 0.00063402241 -7.7032118e-22)
(-0.00092629566 0.00063609789 -1.3464976e-21)
(-0.00094984383 0.00063164036 2.840212e-21)
(-0.00096719607 0.00061919384 3.6202749e-21)
(-0.00097992071 0.00059973779 -1.4978369e-21)
(-0.00098625007 0.00057315083 -4.6218668e-21)
(-0.00099353974 0.00054387627 4.9647434e-21)
(-0.00099919929 0.00051239688 -4.2502564e-21)
(-0.0010024001 0.00047870911 -9.7499084e-21)
(-0.00099858303 0.00044106036 1.3184425e-21)
(-0.00099162814 0.00040182524 -1.8638062e-21)
(-0.0009730076 0.00035815725 -7.1118028e-21)
(-0.00095324314 0.0003149646 -2.2315758e-21)
(-0.00091715336 0.00026789291 1.8512381e-21)
(-0.00088616058 0.00022443878 1.2475212e-21)
(-0.00083363431 0.00017825972 2.2588802e-21)
(-0.00080252645 0.00013961974 2.2576642e-23)
(-0.00074499867 9.949313e-05 -1.6223353e-22)
(-0.00074793662 6.9396566e-05 -3.6376131e-22)
(-0.00072476702 3.742776e-05 -1.1166225e-22)
(-0.00088361457 1.058473e-05 -2.2533419e-22)
(-0.001196018 3.5299145e-07 7.0874945e-26)
(-0.0014100962 3.5305256e-07 -9.2046419e-26)
(-0.0016270021 3.1847013e-07 -4.0892606e-25)
(-0.0018037781 3.402748e-07 4.5292969e-25)
(-0.0019787518 3.2500911e-07 -4.6150486e-25)
(-0.0021268653 3.4187969e-07 2.9789833e-25)
(-0.0022708308 3.3628838e-07 -3.8429404e-25)
(-0.0023965382 3.4982586e-07 2.4638653e-25)
(-0.0025176768 3.4932339e-07 4.841975e-25)
(-0.0026260852 3.6019095e-07 -6.2696969e-25)
(-0.002730187 3.6234898e-07 -2.3389958e-18)
(-0.0028250985 3.7144044e-07 -2.1500397e-18)
(-0.0029162084 3.7632834e-07 9.1460376e-25)
(-0.0030005491 3.8434947e-07 -3.6481745e-25)
(-0.0030813532 3.8946082e-07 -2.3980572e-25)
(-0.003156878 3.957879e-07 1.7702682e-25)
(-0.0032291257 4.0006593e-07 -1.3034244e-25)
(-0.0032970571 4.053709e-07 9.6405445e-27)
(-0.0033619071 4.0913276e-07 4.548162e-26)
(-0.0034230433 4.1283451e-07 -2.8100099e-26)
(-0.0034812216 4.1439707e-07 -2.2692717e-25)
(-0.0035360636 4.1614641e-07 2.6197926e-25)
(-0.0035879914 4.1687063e-07 -4.0483399e-26)
(-0.0036367891 4.1737886e-07 4.1230809e-25)
(-0.0036827285 4.1583761e-07 -5.7137873e-25)
(-0.0037257707 4.1351313e-07 -4.9239609e-25)
(-0.0037660076 4.1195669e-07 7.4934534e-25)
(-0.0038034248 4.0930094e-07 -6.6491154e-25)
(-0.0038380609 4.0606921e-07 5.3285127e-25)
(-0.0038699216 4.0259727e-07 -3.1606684e-25)
(-0.0038990649 3.9768976e-07 -7.3562454e-26)
(-0.0039254984 3.9276872e-07 1.7774494e-26)
(-0.0039493019 3.8561561e-07 4.8583783e-25)
(-0.0039705075 3.7904317e-07 -4.1149349e-26)
(-0.003989232 3.7007024e-07 7.470856e-25)
(-0.0040054799 3.6150848e-07 4.2425065e-27)
(-0.0040195534 3.5172547e-07 -1.4913092e-24)
(-0.0040312894 3.4391935e-07 7.1167616e-25)
(-0.0040417911 3.371195e-07 -6.9103847e-26)
(-0.0040504434 3.2703229e-07 1.038187e-24)
(-0.0040570498 3.1605184e-07 -1.9996435e-26)
(-0.0040609329 2.9893067e-07 -2.0514135e-24)
(-0.0040597264 2.8349862e-07 -1.4837686e-25)
(-0.0040560022 2.6866869e-07 6.580158e-26)
(-0.004049483 2.5655875e-07 1.0672286e-24)
(-0.0040406604 2.4187916e-07 -1.0796797e-25)
(-0.0040295207 2.3040639e-07 -1.3649763e-24)
(-0.0040161983 2.1578898e-07 2.5248385e-24)
(-0.0040007151 2.0397127e-07 -2.9031637e-24)
(-0.003983134 1.891966e-07 2.7406891e-24)
(-0.0039635058 1.7637001e-07 -5.2733416e-25)
(-0.0039419197 1.6143614e-07 3.2573167e-25)
(-0.0039184211 1.4880444e-07 -1.3766143e-24)
(-0.0038930632 1.3483101e-07 7.8122668e-25)
(-0.0038658636 1.1999787e-07 2.1193941e-25)
(-0.0038368927 1.0532551e-07 -1.5258464e-25)
(-0.0038062156 8.9488299e-08 -1.5031169e-25)
(-0.0037739224 7.4808881e-08 3.1966795e-17)
(-0.0037400602 5.9227679e-08 3.2972504e-17)
(-0.0037046842 4.4613942e-08 1.9344629e-24)
(-0.003667877 2.9350575e-08 -1.566872e-25)
(-0.0036297222 1.4317713e-08 -1.8151105e-25)
(-0.0035902997 4.8366119e-10 -1.3211603e-25)
(-0.0035496479 -1.4524825e-08 -1.0903677e-26)
(-0.0035078445 -2.7717444e-08 -4.4870843e-25)
(-0.0034649484 -4.2119857e-08 -2.0655346e-25)
(-0.0034210415 -5.4495771e-08 7.1730976e-25)
(-0.0033761669 -6.8484673e-08 3.9355682e-26)
(-0.0033303954 -8.0833187e-08 3.9420639e-25)
(-0.0032837749 -9.3787452e-08 -6.5275771e-25)
(-0.0032363805 -1.0590874e-07 9.1374727e-26)
(-0.0031882796 -1.1766385e-07 2.1201964e-26)
(-0.0031395179 -1.3031123e-07 4.1555441e-26)
(-0.0030901247 -1.4140694e-07 4.0738052e-27)
(-0.0030401298 -1.5455186e-07 2.6693645e-25)
(-0.0029896183 -1.6431798e-07 -1.1801591e-25)
(-0.0029386448 -1.7684314e-07 -6.3881945e-25)
(-0.0028872576 -1.8625216e-07 1.2284339e-24)
(-0.0028354923 -1.978112e-07 -1.7793036e-24)
(-0.00278343 -2.0644816e-07 2.9694328e-26)
(-0.0027311059 -2.1683847e-07 9.4955444e-25)
(-0.0026785852 -2.2520732e-07 -2.6982759e-25)
(-0.0026258981 -2.3503873e-07 6.4608353e-25)
(-0.0025730865 -2.4224482e-07 -2.7248166e-25)
(-0.0025201871 -2.4988857e-07 -1.7408976e-26)
(-0.0024672612 -2.5719603e-07 -3.0943014e-25)
(-0.0024143859 -2.621701e-07 -3.1815927e-25)
(-0.002361592 -2.7090739e-07 -3.0178182e-25)
(-0.0023089011 -2.7479927e-07 1.1465433e-24)
(-0.0022563321 -2.8239082e-07 7.4677247e-25)
(-0.0022039696 -2.8490632e-07 1.226804e-24)
(-0.0021518536 -2.9331819e-07 -4.8588782e-25)
(-0.002100009 -2.9802419e-07 -1.376023e-24)
(-0.0020484026 -3.0523617e-07 -3.3339872e-24)
(-0.0019970782 -3.1114136e-07 6.5760415e-17)
(-0.001946058 -3.158622e-07 3.1500029e-20)
(-0.0018953899 -3.2384203e-07 -6.7279407e-17)
(-0.0018450045 -3.2725145e-07 -5.1287054e-24)
(-0.0017949629 -3.3177003e-07 7.489182e-25)
(-0.0017453343 -3.3137219e-07 -8.9456131e-24)
(-0.0016962925 -3.3492911e-07 9.2580592e-24)
(-0.0016477499 -3.4095076e-07 8.5845426e-25)
(-0.0015996116 -3.450971e-07 -8.4398391e-24)
(-0.0015519336 -3.4701164e-07 4.6814961e-24)
(-0.001504837 -3.5131236e-07 -5.1554459e-24)
(-0.0014582845 -3.5263414e-07 7.6038923e-24)
(-0.0014123094 -3.5916909e-07 -1.9459978e-24)
(-0.0013667618 -3.5884356e-07 -3.819084e-24)
(-0.0013218265 -3.5924523e-07 1.227128e-24)
(-0.0012773524 -3.574236e-07 4.9543895e-24)
(-0.0012336182 -3.531242e-07 -5.7469067e-24)
(-0.0011903982 -3.5106564e-07 5.0254362e-24)
(-0.0011480945 -3.457873e-07 -5.4874962e-24)
(-0.0011063597 -3.4796649e-07 2.8150499e-24)
(-0.0010655924 -3.4661578e-07 3.2135988e-24)
(-0.0010252389 -3.4879838e-07 5.2107881e-24)
(-0.00098591807 -3.4456499e-07 -5.9696832e-24)
(-0.00094706977 -3.4750695e-07 -4.1044467e-24)
(-0.00090944334 -3.4846033e-07 5.2813671e-24)
(-0.00087211406 -3.5273996e-07 -1.1242349e-23)
(-0.00083608308 -3.5058665e-07 1.0463751e-23)
(-0.0008003214 -3.5389101e-07 -6.2043214e-24)
(-0.00076616363 -3.5637271e-07 5.4041141e-24)
(-0.00073204337 -3.6047368e-07 -6.284652e-24)
(-0.0006997049 -3.5890918e-07 -4.3269311e-24)
(-0.00066721313 -3.57821e-07 3.4277508e-24)
(-0.00063701173 -3.5526671e-07 -4.379801e-24)
(-0.0006064015 -3.5372082e-07 1.1282284e-23)
(-0.00057862166 -3.4795459e-07 -6.85572e-24)
(-0.00055013212 -3.4605017e-07 6.0049687e-24)
(-0.00052530604 -3.424892e-07 -1.028429e-23)
(-0.00049928881 -3.4370814e-07 9.6394904e-25)
(-0.00047785395 -3.3760547e-07 3.5641663e-24)
(-0.00045456765 -3.3412401e-07 3.9997968e-24)
(-0.00043725223 -3.2070897e-07 -1.5249961e-23)
(-0.00041743802 -3.1798822e-07 8.8981067e-17)
(-0.00040547315 -3.0595524e-07 8.9499144e-17)
(-0.00039009636 -3.0923645e-07 -4.5492843e-24)
(-0.00038482339 -2.9573677e-07 -6.7689975e-24)
(-0.00037508988 -2.9986642e-07 5.9054033e-24)
(-0.00037833216 -2.8137827e-07 1.073751e-24)
(-0.0003762447 -2.8542932e-07 -1.953843e-24)
(-0.00039036247 -2.6038149e-07 -9.1762938e-17)
(-0.00039729145 -2.6805707e-07 -9.230133e-17)
(-0.00042330364 -5.0645775e-06 -1.6529419e-20)
(-0.00044275258 -2.279438e-05 1.715399e-19)
(-0.00044779467 -4.1183976e-05 7.7839737e-20)
(-0.00045577978 -6.0273404e-05 -5.0483482e-19)
(-0.00044571052 -7.666365e-05 -8.4058763e-20)
(-0.00043880481 -9.2763854e-05 -5.6284375e-19)
(-0.0004164653 -0.00010416649 3.7649271e-20)
(-0.00039577221 -0.00011412194 -5.8775957e-21)
(-0.00036234286 -0.00011802555 2.0888948e-19)
(-0.00032873268 -0.00011914804 -1.6429877e-19)
(-0.00028439813 -0.0001131931 5.3573386e-19)
(-0.00023786853 -0.00010287602 -3.6518043e-19)
(-0.00018161145 -8.438541e-05 -9.9292243e-20)
(-0.00012115522 -5.9675014e-05 -1.8249936e-19)
(-5.1137478e-05 -2.5424556e-05 1.0373286e-18)
(2.5623484e-05 1.7489754e-05 2.2714399e-19)
(0.00011494362 7.2949581e-05 -8.8629949e-19)
(0.00021172373 0.00013797029 -9.7285882e-19)
(0.00031944543 0.00021466997 -1.5548489e-19)
(0.00043481307 0.00030061461 7.4912965e-20)
(0.00056054054 0.00039737422 -1.0451128e-18)
(0.0006940905 0.00050274426 -6.9768656e-20)
(0.00083754983 0.00061767237 -1.8974795e-19)
(0.00098838323 0.00073969594 -1.2429124e-18)
(0.0011478391 0.00086897597 1.8854329e-19)
(0.0013131592 0.0010023548 1.0196733e-18)
(0.0014842708 0.0011386949 7.3880179e-19)
(0.0016543877 0.0012721926 -2.7645749e-19)
(0.0018156373 0.0013991547 -1.3679692e-19)
(0.0019729489 0.0015253071 -1.2674462e-19)
(0.0021284082 0.0016525402 2.5842011e-19)
(0.0022849318 0.0017834925 9.073637e-19)
(0.0024432486 0.0019189027 -9.8536698e-19)
(0.0026067015 0.0020618179 2.6406864e-19)
(0.0027752872 0.0022124506 2.7388245e-20)
(0.0029540555 0.0023755212 2.4918765e-19)
(0.0031424436 0.0025508037 1.4749529e-19)
(0.0033483688 0.0027453777 -6.9155795e-20)
(0.0035721525 0.0029603381 3.4845704e-19)
(0.0038278142 0.0032081971 -4.1647316e-20)
(0.0041322318 0.0035010474 -7.2536574e-19)
(0.004507966 0.0038426021 -1.7285335e-20)
(0.0049385732 0.004207449 -4.6675807e-19)
(0.0054659479 0.0046259815 4.3057501e-19)
(0.006052882 0.005055494 3.5041681e-20)
(0.006779682 0.0055519839 5.1221511e-20)
(0.0075832533 0.0060406989 -1.1734893e-19)
(0.0086107965 0.0066135212 7.0023516e-20)
(0.0097370102 0.0071299917 4.4720042e-20)
(0.011256933 0.0077574912 -7.0439263e-21)
(0.012860458 0.0081924736 1.4464968e-19)
(0.014903373 0.0085838482 -1.0243164e-19)
(0.016765592 0.0084556232 -3.7321351e-19)
(0.018713663 0.0079017473 -4.4673703e-19)
(0.018901018 0.0062947159 -8.7636252e-20)
(0.017997077 0.0045163738 1.3209541e-19)
(0.015466404 0.0027637776 -1.6574978e-19)
(0.013311851 0.0015674702 -1.0165706e-19)
(0.0099080715 0.00067872978 -2.1540989e-20)
(0.0083854597 0.00026312809 -3.1896423e-20)
(0.0053500132 3.778765e-05 -1.9317054e-20)
(0.0056455517 -3.107474e-05 -1.1022223e-20)
(0.003049084 -1.3803907e-05 -1.8846642e-21)
(0.018165186 6.8749459e-05 1.4617428e-21)
(0.014409066 6.1877424e-05 3.7010013e-21)
(0.022197399 -0.00014750252 -4.0870002e-21)
(0.018009271 -0.00054770881 3.5745244e-20)
(0.019529989 -0.0013062437 5.2148731e-22)
(0.011876001 -0.0013541899 6.1168622e-20)
(0.0078115883 -0.0013597959 -2.5442581e-20)
(-0.0012897819 0.00036813024 4.6903055e-20)
(-0.0047230073 0.0015966388 3.483968e-20)
(-0.007034611 0.0029942851 -2.7777423e-20)
(-0.0054285364 0.0027495281 -8.5657895e-21)
(-0.0048135413 0.0027894701 2.6339001e-21)
(-0.0034528739 0.0022098638 6.171285e-20)
(-0.0030282427 0.0021005319 9.1882775e-21)
(-0.002477547 0.001825641 -2.5100423e-20)
(-0.002345871 0.0018146323 1.1087374e-20)
(-0.002057835 0.0016504522 -6.2172144e-21)
(-0.0019890418 0.0016416906 -2.2493288e-21)
(-0.0018061327 0.0015202211 -6.002334e-21)
(-0.0017306329 0.0014762831 1.5221375e-21)
(-0.0015895803 0.0013640059 -1.9734103e-21)
(-0.0015129025 0.0012982299 1.4164138e-21)
(-0.0014092334 0.0012009033 1.4601134e-21)
(-0.0013612343 0.0011469033 2.4360866e-21)
(-0.0013120947 0.001092567 -5.3301011e-22)
(-0.0012936892 0.001065456 -5.1107348e-22)
(-0.0012792954 0.0010428396 -5.9588597e-22)
(-0.00128989 0.0010415857 3.0940177e-22)
(-0.0013084596 0.0010473898 1.6640256e-22)
(-0.0013507132 0.0010728136 1.1548565e-21)
(-0.0014040222 0.0011073401 -2.3673798e-21)
(-0.0014797475 0.0011600574 -1.8286854e-21)
(-0.0015684043 0.0012231425 -4.0688777e-22)
(-0.0016762741 0.0013017122 -9.2109942e-22)
(-0.0017949169 0.001389072 -3.0186329e-23)
(-0.0019230374 0.0014845054 3.4439951e-21)
(-0.0020462395 0.0015750933 2.7913804e-21)
(-0.0021668021 0.0016585121 1.1939446e-22)
(-0.0022860446 0.0017342814 1.8532196e-21)
(-0.0024014702 0.0017995191 1.5845869e-22)
(-0.002512667 0.0018529608 5.0012283e-25)
(-0.0026171483 0.0018935919 -1.7364418e-21)
(-0.0027148954 0.001919592 -4.8923884e-22)
(-0.0028005696 0.0019256612 -5.3884031e-22)
(-0.0028725327 0.0019123293 1.4724647e-21)
(-0.0029255855 0.001874511 -9.2056535e-21)
(-0.002964142 0.0018160832 3.3164405e-21)
(-0.0029845228 0.0017359749 -2.6713098e-21)
(-0.0030075296 0.0016478549 -3.003006e-22)
(-0.0030261398 0.0015529246 -2.7448033e-21)
(-0.0030374497 0.0014512335 1.9436433e-21)
(-0.0030281049 0.0013376623 -1.0377803e-20)
(-0.0030094875 0.0012191651 -7.2318863e-22)
(-0.0029563677 0.001087413 2.2844371e-21)
(-0.0028997589 0.00095682421 -5.9849683e-22)
(-0.002795186 0.00081477555 5.6385126e-21)
(-0.0027055957 0.00068321662 -4.7580455e-21)
(-0.0025531083 0.00054381933 2.9668339e-21)
(-0.0024640252 0.00042655734 -4.8656782e-22)
(-0.002298854 0.0003054429 4.7094382e-24)
(-0.0023133683 0.00021386485 -1.3110055e-22)
(-0.0022566106 0.00011797372 -2.4093288e-21)
(-0.0027381321 3.8436148e-05 3.4132565e-22)
(-0.0036691509 7.2903106e-06 -7.1673122e-25)
(-0.0043115192 6.1438033e-06 -1.0129806e-26)
(-0.0049601445 5.5079865e-06 -2.2460174e-25)
(-0.0054900022 5.0128121e-06 7.5273886e-25)
(-0.0060128721 4.5434933e-06 -4.6358445e-25)
(-0.006456241 4.1669075e-06 1.6452116e-25)
(-0.0068862835 3.8139392e-06 1.6469788e-25)
(-0.007262273 3.5306e-06 1.5646363e-25)
(-0.0076240556 3.265127e-06 -5.6628287e-25)
(-0.0079481238 3.0488731e-06 2.3056593e-25)
(-0.0082589596 2.8462798e-06 1.2768075e-25)
(-0.0085424529 2.6798143e-06 1.0005158e-25)
(-0.0088143699 2.5242219e-06 -7.0854423e-25)
(-0.0090661574 2.3906045e-06 4.2742072e-25)
(-0.0093071938 2.2636668e-06 -1.6949472e-25)
(-0.009532492 2.150878e-06 7.5005464e-26)
(-0.0097478653 2.0427982e-06 -9.0219819e-26)
(-0.0099503278 1.9444002e-06 8.0510333e-26)
(-0.010143469 1.8494107e-06 3.2911741e-26)
(-0.010325496 1.7593178e-06 -2.0133994e-26)
(-0.010498609 1.6707924e-06 -7.8378191e-26)
(-0.010661713 1.5850657e-06 -1.4163214e-25)
(-0.010816025 1.5007675e-06 -2.0977953e-25)
(-0.010960955 1.4174709e-06 4.3157751e-25)
(-0.011097312 1.3352555e-06 1.0595867e-25)
(-0.011224932 1.2556741e-06 9.0928505e-25)
(-0.011344082 1.1766466e-06 -1.4551631e-24)
(-0.011454764 1.0985593e-06 1.1109612e-24)
(-0.011557085 1.0206697e-06 -2.9012068e-25)
(-0.011651067 9.4375721e-07 -1.2184948e-24)
(-0.011736883 8.6793065e-07 -5.5341311e-25)
(-0.011814571 7.9275109e-07 5.0363841e-25)
(-0.01188438 7.1878137e-07 3.267003e-25)
(-0.011946412 6.4585411e-07 1.0322268e-24)
(-0.012001019 5.7449513e-07 8.6420026e-25)
(-0.01204825 5.0597704e-07 -2.5697906e-24)
(-0.012088932 4.411893e-07 8.6408446e-25)
(-0.012122485 3.8874476e-07 5.6940706e-25)
(-0.012152471 3.4284208e-07 1.5555978e-24)
(-0.01217699 2.864664e-07 -3.3677078e-24)
(-0.012195551 2.155162e-07 1.641325e-24)
(-0.012206038 1.0263013e-07 7.5785941e-25)
(-0.012200949 -7.4616781e-09 1.4118108e-24)
(-0.012188274 -8.5805521e-08 -3.6144702e-24)
(-0.012167269 -1.6043891e-07 8.1066415e-25)
(-0.012139375 -2.2846102e-07 2.3382248e-25)
(-0.012104547 -2.9443876e-07 3.0306936e-24)
(-0.012063167 -3.5657034e-07 -2.5916885e-24)
(-0.012015321 -4.1884158e-07 1.0595195e-24)
(-0.011961216 -4.7938879e-07 -5.7628076e-27)
(-0.011901005 -5.3891328e-07 -3.4042049e-24)
(-0.01183492 -5.9512232e-07 6.453679e-25)
(-0.011763086 -6.5014843e-07 7.6237777e-25)
(-0.01168569 -7.0411396e-07 4.8080724e-25)
(-0.011602823 -7.5665121e-07 1.312597e-24)
(-0.011514713 -8.0923166e-07 1.2441136e-25)
(-0.011421531 -8.5819889e-07 -7.3023574e-25)
(-0.011323521 -9.067638e-07 4.2646612e-25)
(-0.011220834 -9.5247471e-07 -6.1626201e-25)
(-0.011113667 -9.9875975e-07 2.6581568e-25)
(-0.011002256 -1.0410221e-06 -4.1307225e-25)
(-0.010886813 -1.0816828e-06 9.2615994e-25)
(-0.010767566 -1.1195252e-06 -1.7258012e-24)
(-0.01064466 -1.1568567e-06 -3.8106909e-25)
(-0.010518333 -1.1913105e-06 6.8215257e-25)
(-0.010388735 -1.2241101e-06 1.3046204e-24)
(-0.010256117 -1.2551328e-06 -1.7278934e-25)
(-0.010120607 -1.2841132e-06 -3.8160568e-25)
(-0.0099824307 -1.3116688e-06 -7.1872176e-25)
(-0.0098417249 -1.3371784e-06 6.6336999e-25)
(-0.0096987163 -1.3612952e-06 -1.6155032e-25)
(-0.0095535736 -1.3827811e-06 -1.302373e-26)
(-0.0094064461 -1.40392e-06 -8.2702753e-26)
(-0.0092574515 -1.4238998e-06 1.1063877e-26)
(-0.0091067088 -1.4426083e-06 3.9395831e-25)
(-0.0089544576 -1.4588151e-06 -7.1646374e-25)
(-0.0088008505 -1.4736078e-06 -1.1874483e-25)
(-0.0086460394 -1.48726e-06 -4.9426043e-25)
(-0.0084901138 -1.4987166e-06 1.4554259e-24)
(-0.0083333245 -1.5091676e-06 1.2323772e-24)
(-0.008175764 -1.5170442e-06 -2.2526916e-25)
(-0.008017628 -1.5243406e-06 -3.0943023e-24)
(-0.007859006 -1.5292772e-06 -1.8440282e-24)
(-0.0077000473 -1.5345187e-06 2.7030332e-24)
(-0.0075408629 -1.53659e-06 4.1860154e-24)
(-0.0073816285 -1.5374442e-06 -7.0817124e-24)
(-0.0072225171 -1.5358856e-06 1.7494176e-24)
(-0.0070636241 -1.534516e-06 -1.5868348e-25)
(-0.0069050539 -1.5327714e-06 3.505633e-24)
(-0.0067468771 -1.5291483e-06 -2.572181e-24)
(-0.0065893001 -1.5241298e-06 1.266305e-24)
(-0.0064323944 -1.5183568e-06 1.7785487e-24)
(-0.0062762756 -1.5146883e-06 3.9065511e-24)
(-0.0061208923 -1.5102485e-06 -9.7919895e-24)
(-0.0059663949 -1.5040157e-06 3.9288009e-24)
(-0.0058127981 -1.4973768e-06 -1.4658234e-25)
(-0.0056602595 -1.4901643e-06 -5.9880852e-24)
(-0.0055086403 -1.4834014e-06 -2.1555122e-25)
(-0.0053581751 -1.4718016e-06 1.0767826e-23)
(-0.0052089585 -1.456574e-06 3.2596085e-24)
(-0.0050613261 -1.4432072e-06 -7.673277e-24)
(-0.0049151432 -1.436134e-06 9.6367677e-24)
(-0.0047703056 -1.4255791e-06 1.304776e-24)
(-0.0046269092 -1.4099081e-06 -8.5719658e-24)
(-0.0044852088 -1.3943803e-06 1.5208324e-23)
(-0.0043450899 -1.3825249e-06 -1.1216286e-23)
(-0.0042067338 -1.3693689e-06 1.4906047e-24)
(-0.0040697792 -1.3548263e-06 2.0814148e-24)
(-0.0039347258 -1.3348354e-06 -1.066393e-23)
(-0.0038011172 -1.3139901e-06 1.1893927e-23)
(-0.0036697473 -1.2897027e-06 2.331903e-24)
(-0.0035399348 -1.2648616e-06 -6.0647765e-24)
(-0.0034127836 -1.2397465e-06 -6.155595e-24)
(-0.0032872608 -1.2195895e-06 -1.1908599e-23)
(-0.003164592 -1.2002177e-06 2.1673273e-23)
(-0.0030432621 -1.1819888e-06 1.5094436e-23)
(-0.002925034 -1.156056e-06 -3.2700373e-23)
(-0.0028081628 -1.1372027e-06 3.2581098e-23)
(-0.0026948655 -1.1169993e-06 -9.7091879e-24)
(-0.0025825539 -1.1031215e-06 -1.5116656e-23)
(-0.0024741787 -1.0765669e-06 -1.2464673e-23)
(-0.0023665839 -1.0587227e-06 -4.9052693e-25)
(-0.0022637207 -1.0365474e-06 2.8217465e-23)
(-0.002161065 -1.0224083e-06 -2.0903281e-23)
(-0.002063841 -9.9309699e-07 1.3154508e-23)
(-0.0019662394 -9.6794126e-07 -2.1000383e-23)
(-0.0018754535 -9.3414724e-07 2.3379616e-23)
(-0.0017835522 -9.0686496e-07 -1.2919274e-23)
(-0.0017001203 -8.6517336e-07 7.7118923e-24)
(-0.0016146331 -8.315358e-07 2.5921424e-24)
(-0.0015399936 -7.8694014e-07 -1.3137755e-23)
(-0.0014619125 -7.5426902e-07 1.3668152e-23)
(-0.0013975324 -6.9940256e-07 -1.9075825e-25)
(-0.0013278551 -6.532082e-07 5.3132231e-24)
(-0.0012759691 -5.7714642e-07 -2.4834076e-23)
(-0.0012167595 -5.2035027e-07 1.6790044e-23)
(-0.001180832 -4.3111777e-07 5.3750792e-24)
(-0.001134913 -3.7002104e-07 -2.5189116e-23)
(-0.0011190659 -2.5755687e-07 2.4818654e-23)
(-0.0010901879 -1.792263e-07 1.7194557e-23)
(-0.0010999404 -2.6594055e-08 -2.5450366e-23)
(-0.0010941427 7.6095647e-08 2.005839e-23)
(-0.001136621 2.6473001e-07 -2.8457195e-23)
(-0.0011582572 3.7127236e-07 -3.0231835e-23)
(-0.001236827 -1.3644815e-05 4.2883882e-20)
(-0.0012951913 -6.6350575e-05 1.86724e-20)
(-0.0013100232 -0.00012090458 9.0307252e-21)
(-0.0013330599 -0.00017753727 5.9947346e-19)
(-0.0013022686 -0.00022606804 2.9955719e-19)
(-0.0012805229 -0.00027360101 1.378914e-18)
(-0.0012127783 -0.00030706309 1.2192769e-18)
(-0.00114967 -0.00033603989 -3.1713314e-19)
(-0.0010485761 -0.00034687655 -3.9474518e-19)
(-0.00094676395 -0.00034922989 8.7209514e-20)
(-0.00081294868 -0.00033035461 -2.8243283e-19)
(-0.00067247035 -0.00029826455 2.2665039e-19)
(-0.00050295901 -0.00024164389 -2.5245779e-19)
(-0.0003208434 -0.00016624618 -1.122088e-19)
(-0.00011017719 -6.2210488e-05 -8.2131356e-19)
(0.00012064792 6.7921401e-05 1.9243823e-18)
(0.00038884603 0.0002355961 7.3065523e-19)
(0.00067926825 0.00043203202 4.7457437e-20)
(0.0010021875 0.00066340323 -5.0198897e-19)
(0.0013477999 0.00092255406 -5.8965355e-19)
(0.0017241769 0.0012140546 1.252834e-18)
(0.0021238846 0.0015314062 -2.2672321e-18)
(0.0025530376 0.0018773244 5.0523075e-19)
(0.0030042947 0.0022445148 -2.5035437e-19)
(0.0034812863 0.0026334036 4.0982429e-19)
(0.0039755851 0.0030345672 -9.3316199e-19)
(0.0044867173 0.0034445314 -2.6512884e-19)
(0.004994914 0.0038460365 -6.0028113e-19)
(0.0054774902 0.0042283522 3.8149205e-19)
(0.0059488591 0.0046083743 -8.2620911e-19)
(0.0064149764 0.0049917356 -4.5159529e-19)
(0.0068844024 0.0053862449 -8.0880131e-19)
(0.0073591191 0.005794258 4.0324815e-20)
(0.007849053 0.0062247401 9.7159151e-19)
(0.0083539173 0.0066786212 -3.74977e-19)
(0.0088888181 0.0071695429 4.377052e-19)
(0.0094520331 0.0076974705 -2.7908984e-19)
(0.010066519 0.0082829698 -1.3614152e-18)
(0.01073383 0.0089299094 2.5320829e-19)
(0.011495045 0.009675236 1.5320974e-19)
(0.01239913 0.010555102 1.2863697e-18)
(0.013508247 0.011576597 -2.2344438e-19)
(0.014784644 0.012670307 2.2830465e-19)
(0.016347635 0.013922304 -3.8072776e-20)
(0.018092983 0.015209282 -1.338334e-19)
(0.020252292 0.016691426 -3.5702992e-19)
(0.022646787 0.01815349 4.9274869e-20)
(0.025693912 0.019858313 -6.3161687e-20)
(0.029036176 0.021399317 6.949784e-20)
(0.033535477 0.023259947 2.5466552e-21)
(0.038292059 0.024551907 -1.7570215e-19)
(0.044318344 0.025692995 2.6170336e-19)
(0.049834885 0.025299398 1.0002955e-19)
(0.055587098 0.02362326 5.3806999e-19)
(0.056293995 0.018866227 -2.7614457e-19)
(0.053819065 0.01358543 2.7672875e-19)
(0.046579814 0.0083738229 -1.2925512e-19)
(0.040293333 0.0047811735 -3.7470009e-19)
(0.030339469 0.0021060214 -9.5056711e-20)
(0.025727986 0.0008334943 8.932973e-21)
(0.016775691 0.00013646 3.0584248e-20)
(0.017459095 -8.1072973e-05 5.7437955e-21)
(0.010032736 -4.4585781e-05 6.8221423e-21)
(0.030777825 9.9875357e-05 1.3679375e-21)
(0.025010022 8.9927716e-05 -1.267059e-21)
(0.0374309 -0.0002600161 -4.3732843e-22)
(0.030726143 -0.00092568407 -1.7982664e-20)
(0.033053673 -0.0021827402 5.2959915e-20)
(0.020546192 -0.0022978058 -4.0773737e-20)
(0.013654163 -0.0023172949 2.5236587e-20)
(-0.0015228555 0.00051272782 -9.9681674e-20)
(-0.0075569904 0.0025901425 4.8122985e-20)
(-0.011629376 0.0049574986 1.1253592e-21)
(-0.0090785769 0.0045934208 1.2035545e-20)
(-0.0080700155 0.0046681063 -1.4198819e-20)
(-0.0058143782 0.0037146984 -6.1332545e-20)
(-0.0050971867 0.0035310892 1.7952989e-20)
(-0.0041770313 0.0030755483 2.6933896e-20)
(-0.0039519411 0.0030548661 -2.9618974e-21)
(-0.0034705726 0.0027822686 2.5808939e-21)
(-0.003352606 0.002765838 4.7833505e-21)
(-0.0030469224 0.0025635837 1.282756e-20)
(-0.0029191121 0.0024889313 -6.2403328e-21)
(-0.0026833373 0.0023015176 -5.5991302e-21)
(-0.0025542972 0.0021907795 -8.1183301e-22)
(-0.0023810672 0.0020282172 1.6990677e-21)
(-0.0023003895 0.0019375032 -2.6974444e-21)
(-0.002218508 0.0018468163 5.8093231e-23)
(-0.0021878698 0.0018015578 -6.1200473e-22)
(-0.0021644787 0.0017641908 4.5229564e-22)
(-0.0021828105 0.0017625773 2.9264488e-22)
(-0.002214828 0.0017730409 1.8466335e-23)
(-0.0022864676 0.0018163697 5.451751e-22)
(-0.0023768542 0.0018751325 -2.665571e-22)
(-0.0025047672 0.0019643409 -3.0491087e-22)
(-0.0026544071 0.002071025 -1.4309564e-21)
(-0.0028361143 0.0022035308 6.5564963e-23)
(-0.0030357704 0.0023507242 -4.0170893e-21)
(-0.0032511524 0.0025112324 -3.0971318e-21)
(-0.0034585205 0.0026636266 -6.3658069e-22)
(-0.0036614472 0.0028039216 1.7741202e-22)
(-0.0038619492 0.0029312443 2.593245e-22)
(-0.0040558731 0.0030407796 -7.0506553e-22)
(-0.0042423467 0.0031304364 6.026827e-24)
(-0.0044185797 0.0031984092 2.7574111e-21)
(-0.0045834599 0.0032419279 2.1728925e-21)
(-0.0047275653 0.0032518438 1.3346093e-23)
(-0.0048496609 0.0032290024 -1.1834563e-20)
(-0.0049396902 0.0031654186 4.6581427e-21)
(-0.0050054444 0.0030670378 6.4398948e-21)
(-0.0050414034 0.0029326249 5.8900257e-21)
(-0.0050816706 0.0027845315 9.8850921e-22)
(-0.0051149498 0.0026249363 -2.7067381e-21)
(-0.0051361246 0.0024538075 1.0204683e-20)
(-0.0051232709 0.0022628415 2.7322074e-21)
(-0.0050949848 0.0020633113 1.2607919e-21)
(-0.005009732 0.0018417209 1.121216e-20)
(-0.0049183693 0.0016215598 -6.3757068e-21)
(-0.0047483589 0.0013825832 -6.7308496e-21)
(-0.0046026643 0.0011604154 1.7309843e-21)
(-0.004354548 0.00092574598 -1.7364809e-21)
(-0.0042107772 0.0007271111 9.937998e-22)
(-0.0039450531 0.00052306311 2.6874949e-22)
(-0.0039766175 0.0003672996 -1.4747247e-22)
(-0.003900904 0.00020643902 1.4845981e-22)
(-0.0047154986 7.4584382e-05 -4.9152155e-22)
(-0.006266435 2.1909703e-05 6.8569123e-25)
(-0.0073449471 1.8261307e-05 -9.5148732e-27)
(-0.008429015 1.6478771e-05 -1.812704e-25)
(-0.0093171874 1.4863511e-05 4.9311984e-25)
(-0.010190707 1.3522269e-05 -2.0955577e-25)
(-0.010932999 1.230934e-05 -2.3099408e-25)
(-0.011651279 1.1286042e-05 5.1715597e-25)
(-0.01228027 1.0381857e-05 -2.4577328e-25)
(-0.01288447 9.6045789e-06 -2.4092437e-25)
(-0.0134263 8.920859e-06 -2.241208e-25)
(-0.013945364 8.3209483e-06 1.5913928e-25)
(-0.014418992 7.7940171e-06 6.0057655e-26)
(-0.014872895 7.3298038e-06 1.1052077e-25)
(-0.015293373 6.9086736e-06 -1.7875506e-25)
(-0.015695568 6.5254161e-06 2.0608242e-26)
(-0.016071558 6.1719162e-06 -2.2253056e-25)
(-0.016430734 5.8439538e-06 1.3953968e-25)
(-0.016768352 5.5364891e-06 -4.1579752e-26)
(-0.017090215 5.245693e-06 8.8016532e-26)
(-0.017393489 4.9667985e-06 -3.8834815e-26)
(-0.017681733 4.6974591e-06 -5.9778321e-26)
(-0.017953206 4.4345653e-06 4.4844007e-25)
(-0.018209872 4.1778338e-06 -3.296101e-25)
(-0.018450815 3.9257243e-06 2.8547315e-25)
(-0.018677407 3.6797741e-06 -1.7574454e-25)
(-0.018889259 3.4379251e-06 -1.0396017e-25)
(-0.019086844 3.1996925e-06 4.4169826e-25)
(-0.01927022 2.963696e-06 5.6062066e-25)
(-0.019439555 2.7295328e-06 -2.0283365e-24)
(-0.019594893 2.4988106e-06 1.6067602e-24)
(-0.019736523 2.2707394e-06 -4.4968089e-25)
(-0.019864524 2.0470306e-06 -1.6075622e-24)
(-0.019979316 1.8269113e-06 6.8168125e-25)
(-0.020081083 1.613718e-06 2.4181518e-24)
(-0.020170415 1.4048014e-06 -4.3114366e-25)
(-0.020247437 1.2069133e-06 -6.972162e-25)
(-0.020313442 1.0148342e-06 -6.1867394e-25)
(-0.020367255 8.6366311e-07 -7.101091e-25)
(-0.020415359 7.3604398e-07 1.4769027e-24)
(-0.020454402 5.7583313e-07 -7.5636629e-25)
(-0.020483727 3.7675023e-07 -1.1011765e-24)
(-0.020499691 4.4371791e-08 1.7538437e-24)
(-0.020489026 -2.791443e-07 -9.1514842e-25)
(-0.020465623 -5.0571435e-07 -1.015094e-24)
(-0.020428329 -7.1763279e-07 9.9618087e-25)
(-0.020379513 -9.1305013e-07 1.7425228e-24)
(-0.020319104 -1.1006217e-06 2.2936079e-25)
(-0.02024772 -1.2830746e-06 -1.4828593e-24)
(-0.020165527 -1.4594983e-06 -1.2506198e-24)
(-0.020072881 -1.6328379e-06 4.1257782e-24)
(-0.019970038 -1.7995292e-06 -6.5469873e-24)
(-0.019857367 -1.9615385e-06 5.5761446e-24)
(-0.019735069 -2.1171565e-06 -4.7819072e-24)
(-0.019603477 -2.2704006e-06 1.8878142e-24)
(-0.019462768 -2.4188329e-06 8.9699221e-25)
(-0.019313334 -2.563815e-06 2.3186012e-25)
(-0.019155447 -2.701502e-06 -1.6790913e-24)
(-0.0189895 -2.8346175e-06 1.040212e-24)
(-0.018815754 -2.9617515e-06 -9.9203172e-25)