/*--------------------------------*- C++ -*----------------------------------*\
| =========                 |                                                 |
| \\      /  F ield         | OpenFOAM: The Open Source CFD Toolbox           |
|  \\    /   O peration     | Version:  2.4.0                                 |
|   \\  /    A nd           | Web:      www.OpenFOAM.org                      |
|    \\/     M anipulation  |                                                 |
\*---------------------------------------------------------------------------*/
FoamFile
{
    version     2.0;
    format      ascii;
    class       volVectorField;
    location    "220";
    object      U;
}
// * * * * * * * * * * * * * * * * * * * * * * * * * * * * * * * * * * * * * //

dimensions      [0 1 -1 0 0 0 0];

internalField   nonuniform List<vector> 
32000
(
(0.005970384 2.9541684e-05 -1.1804448e-21)
(0.0013502204 -9.1597034e-08 2.9388399e-23)
(0.0051501907 -0.00014380255 5.2200573e-24)
(0.0024829305 -0.00019128938 2.5811922e-21)
(0.0017080603 -0.00026109898 -8.7135728e-21)
(-0.00066586824 0.0001595847 -6.4824546e-20)
(-0.0016208406 0.0005732572 3.4760126e-20)
(-0.0017610064 0.00083400248 2.5855728e-20)
(-0.001379755 0.00079233434 2.3553124e-19)
(-0.0011474322 0.00075284396 -1.3025632e-19)
(-0.001001617 0.00072169485 -1.4045091e-19)
(-0.000912892 0.00070307308 -3.2376557e-19)
(-0.00080799396 0.00065215129 -3.3359187e-19)
(-0.00071053827 0.00059224011 -2.0451728e-19)
(-0.00060162404 0.00051102104 1.742017e-21)
(-0.00050853092 0.00043512984 -1.1120654e-19)
(-0.00042434978 0.00036151479 -1.5903188e-20)
(-0.00036162784 0.00030401962 9.3583163e-20)
(-0.00031681588 0.00026263472 1.06497e-19)
(-0.0002818334 0.00023055993 1.5921894e-19)
(-0.00025739627 0.00020787958 9.9717256e-20)
(-0.00024069549 0.00019196688 -9.2787346e-20)
(-0.00022514157 0.00017740811 -3.4828386e-19)
(-0.00020581344 0.00016027157 1.0085973e-19)
(-0.00017994487 0.00013857742 1.3426417e-19)
(-0.00014125572 0.00010745068 -3.5268653e-19)
(-9.3177609e-05 6.9589147e-05 1.9775104e-19)
(-3.6009711e-05 2.5057912e-05 2.2096641e-19)
(2.9334946e-05 -2.4929366e-05 -1.8176207e-19)
(9.8361086e-05 -7.6015947e-05 4.39453e-19)
(0.0001619637 -0.00012054777 -5.4824301e-20)
(0.00021280926 -0.00015282344 3.0915596e-19)
(0.00024305296 -0.00016764269 4.2093212e-19)
(0.00025131958 -0.0001652692 -2.5316629e-19)
(0.00024479181 -0.00015190001 -4.9966886e-19)
(0.00023662687 -0.00013671122 2.2908637e-19)
(0.00023829264 -0.00012641665 -7.9857754e-20)
(0.00025162295 -0.00012114949 -1.9168742e-19)
(0.00027528543 -0.00011868361 2.9365229e-19)
(0.00030708994 -0.00011659719 -1.0194765e-19)
(0.00034549679 -0.00011310977 -8.7518051e-20)
(0.00038659666 -0.0001060271 -2.9929733e-19)
(0.00043341502 -9.5498722e-05 -9.1545154e-20)
(0.0004800572 -7.9558504e-05 2.3031073e-20)
(0.00054089303 -5.9802954e-05 -1.4740217e-19)
(0.00059945959 -3.3001143e-05 -5.1291658e-21)
(0.00071487477 -4.8736287e-06 2.1064864e-21)
(0.00080309638 -1.0326886e-07 -1.3690724e-24)
(0.00081858652 -4.7465046e-08 1.6879467e-23)
(0.00084356577 -6.5647782e-08 -1.7185921e-23)
(0.00086420906 -1.3590816e-07 1.0397636e-23)
(0.00090185436 -2.2896227e-07 -2.5602352e-24)
(0.00095007721 -3.4129888e-07 -1.7188604e-23)
(0.0010151993 -4.6204856e-07 1.0352978e-23)
(0.0010933069 -5.8429434e-07 -1.5569575e-25)
(0.0011841411 -7.0168506e-07 3.7971042e-24)
(0.0012831881 -8.0690434e-07 -3.8157395e-24)
(0.0013866136 -8.9897903e-07 1.3241817e-23)
(0.0014898125 -9.7707679e-07 -4.2613126e-25)
(0.0015900866 -1.04671e-06 -1.2083763e-23)
(0.001686006 -1.1105602e-06 3.3149226e-24)
(0.00177806 -1.1771495e-06 -1.999642e-24)
(0.0018685597 -1.2492761e-06 -3.7319642e-24)
(0.0019612248 -1.3312957e-06 -4.6383361e-26)
(0.0020600343 -1.4170916e-06 -3.1304303e-24)
(0.0021674656 -1.4997816e-06 -2.7320318e-24)
(0.0022836048 -1.5626362e-06 4.4046235e-24)
(0.0024046483 -1.5937944e-06 -1.7693425e-24)
(0.0025250943 -1.5788251e-06 6.0273368e-24)
(0.002637528 -1.485543e-06 -2.6194523e-25)
(0.0027227251 -1.2721249e-06 4.5293654e-25)
(0.0027531693 -9.3604132e-07 -9.1512583e-25)
(0.0027051508 -5.0575578e-07 2.7146361e-25)
(0.0025616435 -6.2958447e-09 -2.5383599e-25)
(0.0023153338 4.8903239e-07 -8.1979715e-25)
(0.0019765417 8.919832e-07 -4.9297945e-25)
(0.0015755224 1.1155624e-06 4.4312563e-25)
(0.0011624166 1.091669e-06 -1.4567748e-25)
(0.00079631666 8.0236183e-07 2.7132457e-25)
(0.00053945768 2.7320561e-07 -1.8411084e-26)
(0.00043861202 -4.3539581e-07 -1.7333171e-26)
(0.00053891233 -1.2776313e-06 -6.4414455e-26)
(0.00086533399 -1.9938973e-06 -5.0227758e-26)
(0.0013229931 -2.3472527e-06 5.4386238e-26)
(0.0018079584 -2.3590152e-06 1.4892518e-25)
(0.0022448115 -2.1011124e-06 -1.0464497e-24)
(0.0025811276 -1.6701646e-06 5.8761241e-25)
(0.0027940257 -1.1350634e-06 9.8252062e-25)
(0.0028708863 -5.8441997e-07 -4.4559934e-25)
(0.002826243 -1.2910307e-07 3.4451864e-25)
(0.0026939439 1.5838523e-07 3.8346166e-25)
(0.0025228575 2.6387686e-07 -1.5008432e-24)
(0.002351231 2.604717e-07 1.4813715e-24)
(0.0021925084 2.4493277e-07 -3.0760739e-24)
(0.0020369971 2.8320078e-07 3.5647876e-25)
(0.0018648111 3.952675e-07 2.7558592e-25)
(0.0016570636 5.7243005e-07 -5.3340604e-26)
(0.0013995712 7.9683427e-07 3.5133306e-25)
(0.0010840216 1.0506826e-06 6.6020037e-25)
(0.00070767348 1.3169952e-06 -5.4017752e-26)
(0.00027181396 1.5800939e-06 -1.6764671e-25)
(-0.00021988965 1.8312066e-06 -4.1376596e-25)
(-0.00076317255 2.0665104e-06 1.6653201e-24)
(-0.0013524713 2.2772342e-06 4.1887127e-25)
(-0.0019808501 2.4558919e-06 1.064594e-24)
(-0.0026404325 2.5986426e-06 2.9888332e-25)
(-0.0033243899 2.7054432e-06 1.3094969e-25)
(-0.0040261146 2.7723616e-06 -3.1513335e-24)
(-0.0047388334 2.7997603e-06 -4.1471116e-24)
(-0.0054569468 2.7872879e-06 2.4377273e-25)
(-0.0061750634 2.7332434e-06 1.0332515e-23)
(-0.0068877221 2.6359748e-06 -5.2958235e-26)
(-0.0075899698 2.4957815e-06 7.475035e-25)
(-0.0082765808 2.3096145e-06 -8.907951e-24)
(-0.0089424007 2.0783447e-06 4.7037226e-25)
(-0.0095825058 1.7992573e-06 7.5413418e-25)
(-0.010191463 1.4733283e-06 8.8074182e-24)
(-0.010763854 1.1002146e-06 -7.9031843e-24)
(-0.011294386 6.818616e-07 -6.9026094e-24)
(-0.011778042 2.2079537e-07 7.795686e-24)
(-0.012210526 -2.7677539e-07 1.3166053e-25)
(-0.012588493 -8.0512619e-07 -5.3615907e-24)
(-0.012909159 -1.3579911e-06 7.5712335e-25)
(-0.013169959 -1.9300455e-06 7.9971589e-25)
(-0.013368892 -2.5138233e-06 4.1760392e-24)
(-0.013504321 -3.103399e-06 -6.0914426e-25)
(-0.013573996 -3.7137212e-06 -3.9353687e-25)
(-0.013574383 -4.3382291e-06 -6.7083057e-25)
(-0.0135014 -4.9750094e-06 -8.0021215e-25)
(-0.013350026 -5.6252772e-06 -9.1901282e-25)
(-0.013113816 -6.300558e-06 6.2675413e-24)
(-0.012784074 -6.9896302e-06 -8.9334916e-24)
(-0.012348385 -7.6989455e-06 1.1550749e-23)
(-0.011790789 -8.4256125e-06 -6.9844883e-24)
(-0.011091638 -9.165951e-06 9.1697015e-24)
(-0.010227796 -9.8933287e-06 -7.258424e-17)
(-0.0091789624 -1.0555173e-05 -8.2445138e-17)
(-0.0079341963 -1.104077e-05 -1.2901342e-23)
(-0.0065226918 -1.1147593e-05 1.0036432e-16)
(-0.0050327308 -1.0616815e-05 1.0828359e-16)
(-0.0036585806 -9.302148e-06 6.0502208e-23)
(-0.0026040218 -7.4988873e-06 -1.6280746e-23)
(-0.0018516922 -6.0044219e-06 3.2306286e-23)
(-0.0013134448 -4.9211145e-06 -1.705732e-23)
(-0.00097256683 -3.8944388e-06 -3.8288362e-23)
(-0.00078340669 -3.1420316e-06 7.2817504e-23)
(-0.00064791369 -2.7252769e-06 -5.7259618e-23)
(-0.00049459996 -2.4888583e-06 7.5767629e-23)
(-0.0002863008 -2.1129166e-06 -1.3671617e-22)
(-0.00015846495 -1.1943402e-06 7.6769813e-23)
(-0.00030349183 8.9142639e-08 1.798111e-23)
(-0.00085328233 9.6988566e-07 -6.0664363e-25)
(-0.0013963372 2.4198584e-07 -5.3259161e-25)
(-0.0016796625 -1.1999471e-05 -8.5113312e-21)
(-0.0014665273 -8.1662595e-05 -6.0240783e-19)
(-0.00057841251 -6.458068e-05 -9.3548337e-20)
(0.00061583019 0.00010085271 1.9072826e-19)
(0.0019162638 0.00041798914 -1.579802e-19)
(0.0030816299 0.00083465791 9.4170206e-19)
(0.0039394065 0.0012696243 6.9457244e-19)
(0.0043479667 0.0016219185 -1.3830339e-18)
(0.0043095527 0.0018209928 2.9465554e-19)
(0.0038967702 0.0018357948 5.5581482e-19)
(0.0032641159 0.0016936155 5.2093458e-19)
(0.0025862734 0.0014638393 -1.7610919e-18)
(0.0020241571 0.0012365271 -7.8915655e-19)
(0.0016747699 0.0010890363 -1.766098e-19)
(0.0016021804 0.0010934347 -1.9790788e-18)
(0.0017965289 0.0012698639 -1.8959488e-18)
(0.0021222058 0.0015382158 1.0789894e-18)
(0.0023959372 0.0017678643 -1.9232663e-18)
(0.0024607575 0.001837027 -3.1861809e-20)
(0.0021623215 0.0016221039 2.4287979e-18)
(0.0014181039 0.0010559677 -1.1811101e-18)
(0.00043031185 0.00029986475 3.8359929e-19)
(-0.00047411091 -0.00039128682 1.0183014e-18)
(-0.0011537468 -0.00091452305 -2.3806155e-18)
(-0.0015741827 -0.0012447893 -2.0624021e-19)
(-0.0017550415 -0.0013952879 -1.686826e-18)
(-0.0017326541 -0.0013904436 -2.0652838e-19)
(-0.0015468537 -0.0012566997 -4.6508866e-20)
(-0.0012199196 -0.0010059814 8.4718871e-19)
(-0.00078804882 -0.00066251897 1.2605667e-18)
(-0.00021011774 -0.0001847011 3.0330996e-19)
(0.00067555568 0.00056592395 -1.579096e-18)
(0.0016903597 0.0014154257 -4.190317e-19)
(0.0028885872 0.0023766315 8.5545633e-19)
(0.0043495225 0.0034681356 -8.4706219e-19)
(0.0061742165 0.0046967354 2.013577e-19)
(0.0084533213 0.0060177131 2.4488226e-19)
(0.011312013 0.0073368674 4.997749e-19)
(0.014632945 0.0083209981 -2.2955432e-19)
(0.018062242 0.0085017646 1.630434e-20)
(0.019825724 0.0070422065 8.0720556e-20)
(0.018551588 0.0045329773 -3.4060989e-21)
(0.014807916 0.002240955 6.945696e-20)
(0.01107809 0.00087920705 3.1456101e-20)
(0.0064786557 0.00018585624 -3.2162226e-21)
(0.0058035712 2.7348031e-06 1.598231e-22)
(0.00072948696 -3.440802e-06 4.4548465e-22)
(0.017836529 8.4196224e-05 2.799192e-21)
(0.0049301345 6.2592279e-06 -6.0016883e-23)
(0.015588491 -0.00044135249 -1.2386118e-22)
(0.0078574318 -0.00056910592 -7.0458757e-21)
(0.0054601184 -0.00078945343 2.4584102e-21)
(-0.0016526022 0.00045411897 1.1860643e-19)
(-0.0047101833 0.0017065137 2.2424863e-20)
(-0.0052582954 0.0025098252 -9.4198079e-20)
(-0.0041651384 0.0023991616 -1.4708528e-19)
(-0.0034717733 0.0022846709 7.1042102e-20)
(-0.0030304876 0.0021916677 2.331064e-19)
(-0.0027609613 0.0021350887 4.0982604e-19)
(-0.0024453021 0.0019816676 6.8542187e-19)
(-0.0021521259 0.0018003158 4.9918539e-20)
(-0.0018255611 0.0015551662 -1.3722634e-19)
(-0.0015459433 0.0013254784 3.2986905e-19)
(-0.0012935142 0.0011028954 5.1675385e-19)
(-0.0011049144 0.00092867111 5.093434e-20)
(-0.00097010614 0.00080318231 2.7703075e-19)
(-0.00086439085 0.00070575067 1.7087915e-19)
(-0.00078931448 0.00063631474 4.7598266e-19)
(-0.000736564 0.00058693384 -2.768648e-19)
(-0.00068633436 0.00054117408 4.5037923e-19)
(-0.00062382542 0.00048718087 1.1562813e-19)
(-0.00054104476 0.00041900394 1.9066411e-19)
(-0.00041954326 0.00032222316 1.2668753e-19)
(-0.0002695421 0.00020493444 -7.5616934e-19)
(-9.2242311e-05 6.7441764e-05 -8.2432599e-19)
(0.00010918027 -8.6287714e-05 3.5117993e-19)
(0.00032131988 -0.00024295685 -6.1669492e-19)
(0.00051715356 -0.00037951866 -1.066626e-19)
(0.00067468848 -0.00047865323 -1.0978471e-19)
(0.00077036174 -0.00052465226 -2.3374287e-19)
(0.00079962774 -0.00051826559 2.7226013e-19)
(0.00078361292 -0.00047822867 1.1816838e-19)
(0.00076165111 -0.00043229042 -5.9331027e-19)
(0.00076851339 -0.00040077837 3.3372469e-19)
(0.00081019165 -0.00038420735 1.8364408e-19)
(0.00088291003 -0.00037586571 2.4137774e-20)
(0.00098013167 -0.00036843415 -7.1380561e-20)
(0.0010971659 -0.00035648054 1.5192856e-19)
(0.0012222676 -0.00033347026 3.8179775e-19)
(0.0013642169 -0.00029974906 3.4467416e-20)
(0.0015055512 -0.00024964972 -3.8658395e-20)
(0.0016885897 -0.0001877152 7.8199807e-20)
(0.0018650522 -0.00010502502 5.2999248e-21)
(0.0022076709 -1.815847e-05 4.8718267e-22)
(0.0024697039 -1.9684932e-06 -8.3591788e-24)
(0.0025170985 -8.9056144e-07 2.7533175e-23)
(0.0025895557 -9.3701176e-07 -3.2159676e-23)
(0.0026473586 -1.2114819e-06 8.3241603e-24)
(0.0027536074 -1.7198764e-06 2.3505314e-23)
(0.0028902037 -2.2600955e-06 -1.8030311e-23)
(0.0030760429 -2.830385e-06 1.2465438e-24)
(0.0033000348 -3.3344341e-06 1.228352e-24)
(0.0035615437 -3.7440202e-06 4.074134e-24)
(0.0038473332 -4.0007257e-06 -1.7209666e-24)
(0.0041459761 -4.0967973e-06 3.8710078e-24)
(0.0044437713 -4.0575149e-06 -2.3104391e-23)
(0.0047326085 -3.9409865e-06 2.4926567e-23)
(0.0050081239 -3.8083503e-06 3.2897054e-24)
(0.0052716365 -3.7288432e-06 -2.1139007e-23)
(0.0055299632 -3.7633898e-06 6.9240382e-24)
(0.0057942371 -3.9417954e-06 -4.2361696e-24)
(0.0060765607 -4.2388819e-06 1.040585e-23)
(0.0063848394 -4.5790876e-06 -3.4597278e-24)
(0.0067200708 -4.8430348e-06 -5.3920405e-24)
(0.0070719329 -4.9248061e-06 1.0898886e-24)
(0.0074251717 -4.7529607e-06 7.1851782e-24)
(0.0077587803 -4.0526584e-06 -1.4225992e-26)
(0.0080168368 -2.4397909e-06 -8.2813023e-24)
(0.0081186676 1.5460022e-07 7.7997122e-24)
(0.0079937573 3.5112857e-06 -6.4337883e-24)
(0.007589934 7.339195e-06 3.7628448e-24)
(0.0068824317 1.1102799e-05 -1.8355067e-24)
(0.0058972146 1.407899e-05 3.657457e-25)
(0.004718602 1.5508497e-05 5.0003492e-25)
(0.0034906125 1.483529e-05 -9.2498352e-26)
(0.0023864355 1.1832299e-05 -6.6698462e-26)
(0.0015922362 6.7289988e-06 -1.8435332e-25)
(0.0012520483 -1.2094747e-07 4.434386e-25)
(0.0015064673 -8.3287498e-06 5.0947888e-26)
(0.0024357496 -1.5205749e-05 2.445647e-25)
(0.0037616993 -1.8255963e-05 1.6910393e-25)
(0.0051780486 -1.7875988e-05 4.7877807e-25)
(0.0064623401 -1.5026726e-05 -7.264138e-25)
(0.0074593349 -1.0730209e-05 -1.4479254e-24)
(0.0081007395 -5.730637e-06 4.2777166e-25)
(0.008347174 -7.6307567e-07 2.5922694e-24)
(0.0082369555 3.2686703e-06 -6.5393748e-24)
(0.0078636602 5.714067e-06 5.8460964e-24)
(0.0073659329 6.485494e-06 -2.9430463e-24)
(0.0068542062 6.2682899e-06 1.4172151e-24)
(0.0063687268 5.9852426e-06 -1.0281115e-24)
(0.0058828346 6.2733153e-06 7.3056718e-26)
(0.0053395449 7.3036388e-06 9.1669864e-26)
(0.004684276 8.9687486e-06 -2.4979238e-25)
(0.0038761631 1.1062555e-05 -1.1021142e-24)
(0.0028919632 1.3367597e-05 1.0847366e-24)
(0.0017254114 1.5700965e-05 -1.2340885e-25)
(0.00038225698 1.7937297e-05 5.8619056e-25)
(-0.0011250934 2.0016243e-05 6.5859706e-25)
(-0.0027830274 2.1904595e-05 -2.0007013e-24)
(-0.0045738713 2.3550109e-05 1.0706895e-25)
(-0.0064761016 2.4905736e-05 8.8898263e-26)
(-0.0084657203 2.597534e-05 5.7348882e-24)
(-0.010521902 2.6782285e-05 -8.1397029e-24)
(-0.012624654 2.7324974e-05 3.3996582e-24)
(-0.014753713 2.7625762e-05 -8.7981651e-24)
(-0.01689223 2.7709772e-05 1.8939334e-23)
(-0.019024084 2.7577443e-05 -2.4596948e-23)
(-0.021133064 2.7239205e-05 1.9368054e-23)
(-0.023204423 2.6699533e-05 3.7053839e-24)
(-0.02522278 2.5953912e-05 -2.7638163e-24)
(-0.027172979 2.5009007e-05 -1.731682e-23)
(-0.029040595 2.3857762e-05 9.8993619e-24)
(-0.030809895 2.2493879e-05 -6.3823109e-24)
(-0.032465232 2.0919042e-05 -7.6206335e-24)
(-0.033991458 1.9139627e-05 2.2023461e-24)
(-0.035374387 1.7175489e-05 -5.9996165e-24)
(-0.036601965 1.5057787e-05 1.9600151e-23)
(-0.037664892 1.2817341e-05 -1.4032483e-23)
(-0.038555481 1.0473276e-05 2.6087987e-23)
(-0.039266662 8.0409285e-06 -6.2307108e-24)
(-0.039792921 5.543816e-06 -2.4247879e-24)
(-0.040129693 2.981427e-06 -1.9424723e-24)
(-0.040270541 2.9802693e-07 -2.0863156e-24)
(-0.040204789 -2.5421217e-06 -1.0877275e-25)
(-0.039920198 -5.5518585e-06 7.7183789e-25)
(-0.039402148 -8.7833023e-06 1.408344e-24)
(-0.038631632 -1.2317739e-05 -4.7616996e-25)
(-0.037583093 -1.624598e-05 5.6228251e-24)
(-0.036220455 -2.0704671e-05 3.7819682e-24)
(-0.034497683 -2.5827345e-05 4.5960293e-24)
(-0.032358689 -3.1739882e-05 -4.27432e-23)
(-0.029738597 -3.845299e-05 6.3977821e-23)
(-0.026582052 -4.570533e-05 -6.4857526e-23)
(-0.022863533 -5.2578935e-05 3.8155604e-23)
(-0.018675118 -5.7123047e-05 5.0142241e-24)
(-0.014282384 -5.6285026e-05 1.5982087e-23)
(-0.010257653 -4.7911504e-05 6.3786923e-24)
(-0.0071802078 -3.5692496e-05 -4.1114226e-23)
(-0.0049871734 -2.5477894e-05 -5.2324015e-23)
(-0.0034390563 -1.7617159e-05 6.251692e-23)
(-0.0024851342 -1.0777162e-05 1.8149557e-23)
(-0.0019767793 -6.7233558e-06 -6.9553723e-24)
(-0.001623223 -5.9175889e-06 -4.3743395e-23)
(-0.0012143372 -7.1314736e-06 5.2559636e-24)
(-0.00065152227 -6.6221086e-06 5.4609512e-24)
(-0.00034501179 2.1844917e-08 -3.6618053e-23)
(-0.00085493025 1.2356298e-05 5.5287555e-24)
(-0.0025070507 2.0326933e-05 -8.1284207e-24)
(-0.0040566563 1.535683e-05 1.555348e-22)
(-0.0047964118 -2.9288241e-05 4.0305649e-22)
(-0.0040581485 -0.00024278541 -2.1992742e-20)
(-0.0013435546 -0.00018820107 -1.1875839e-18)
(0.0022279331 0.00031737949 5.2987825e-19)
(0.0060716234 0.0012782589 -8.1342464e-19)
(0.0094886654 0.0025371098 -1.4178579e-18)
(0.011978334 0.0038493883 -2.5808887e-18)
(0.013138048 0.0049143345 2.1584634e-18)
(0.012985254 0.005520838 2.2557327e-19)
(0.011737618 0.0055744238 -2.5809119e-18)
(0.009851312 0.0051548326 -4.699589e-19)
(0.0078438656 0.004470937 -1.4430084e-18)
(0.0061929506 0.003795522 3.0931123e-18)
(0.0051833639 0.0033624511 -7.367251e-19)
(0.0049882893 0.003382537 1.8892924e-18)
(0.0055535916 0.0039067119 1.7537679e-18)
(0.0064644335 0.0046898745 -2.2656084e-18)
(0.0071838415 0.0053422836 3.0773998e-18)
(0.007254516 0.0054999424 -9.744392e-19)
(0.0062295399 0.0047948454 -3.3064645e-18)
(0.0039085448 0.0030460427 4.8565031e-20)
(0.00094184618 0.00076032028 -9.8500125e-19)
(-0.0017077038 -0.0013023167 -4.195689e-19)
(-0.0036650562 -0.0028517265 -5.1516938e-19)
(-0.0048539021 -0.0038217575 4.029281e-19)
(-0.0053410295 -0.0042551908 -1.2631823e-18)
(-0.0052356099 -0.0042258355 2.0133796e-19)
(-0.0046537416 -0.0038119691 8.1933936e-19)
(-0.0036605328 -0.0030492268 -2.2100459e-18)
(-0.0023589927 -0.0020080304 -8.4317831e-19)
(-0.00061622186 -0.00055994014 -1.0422986e-18)
(0.0020377691 0.001708135 2.5206789e-19)
(0.0050513052 0.0042628817 1.4464823e-18)
(0.0086021164 0.0071489044 -8.5483309e-19)
(0.012923107 0.010419089 -6.1452747e-19)
(0.018307547 0.014089945 1.5731919e-18)
(0.025017581 0.018023684 -1.5677938e-18)
(0.033408085 0.021930914 -9.8853644e-19)
(0.043136095 0.024824569 6.2060737e-20)
(0.053164937 0.025323565 -3.0088086e-20)
(0.058478042 0.02101908 3.1739106e-19)
(0.055166565 0.01364369 4.4050441e-19)
(0.044656245 0.0068546922 6.8287142e-20)
(0.033857034 0.002759248 -1.2569629e-19)
(0.0204047 0.00062850522 -5.2470129e-21)
(0.018068926 5.8726954e-05 -1.4316813e-21)
(0.0034237653 -1.2476495e-05 4.653268e-21)
(0.030084083 0.00013529097 4.3331387e-22)
(0.0095415506 2.0567813e-05 -3.2740163e-23)
(0.026429536 -0.0007573036 -1.1956756e-23)
(0.013879796 -0.00095369106 1.1894605e-20)
(0.0096831998 -0.0013425059 1.2159436e-20)
(-0.0022611953 0.0007000231 -1.1229117e-19)
(-0.0077173031 0.0028259466 -9.3222448e-20)
(-0.0088311632 0.0042158865 -4.245243e-20)
(-0.0070639031 0.0040597543 -7.8801133e-20)
(-0.0058997468 0.0038760797 -4.5880378e-20)
(-0.005150532 0.0037211585 4.3516298e-20)
(-0.0046912662 0.0036244275 -2.586904e-19)
(-0.0041578314 0.0033658653 -5.1815654e-19)
(-0.0036617325 0.0030587499 4.0646069e-20)
(-0.0031106324 0.0026452943 4.7054072e-19)
(-0.0026375839 0.0022568877 2.8831925e-20)
(-0.0022110137 0.0018810103 -2.7038405e-19)
(-0.0018914077 0.0015861925 -5.6169233e-19)
(-0.001662815 0.001373651 -2.1460999e-19)
(-0.0014830533 0.0012082816 -1.4929996e-20)
(-0.0013538607 0.0010893721 -4.1689107e-19)
(-0.0012613672 0.001003479 3.1559235e-19)
(-0.0011721002 0.00092273164 4.9604786e-19)
(-0.0010610312 0.00082720951 -2.5361191e-19)
(-0.00091494918 0.00070691254 -9.1330819e-20)
(-0.00070327007 0.00053813577 -7.9548506e-20)
(-0.00044300233 0.00033444885 5.9832011e-19)
(-0.00013654452 9.6591825e-05 3.4704705e-19)
(0.00021018196 -0.00016809522 -3.2611097e-19)
(0.0005747074 -0.00043690992 -7.5219195e-20)
(0.00091185881 -0.00067110279 -3.0724224e-19)
(0.0011844836 -0.00084128671 6.481476e-20)
(0.001352794 -0.00092100881 -4.088295e-19)
(0.0014085331 -0.00091151312 -2.8549492e-19)
(0.0013867518 -0.00084447061 2.8101088e-19)
(0.0013535659 -0.00076673188 -4.8423902e-20)
(0.0013680072 -0.0007126226 2.045849e-19)
(0.0014408227 -0.00068320725 3.2909513e-19)
(0.0015659219 -0.00066718743 -1.883031e-19)
(0.0017323368 -0.00065223708 6.469705e-19)
(0.0019320275 -0.00062910835 -3.2219466e-19)
(0.0021453017 -0.00058698507 -2.6173809e-19)
(0.0023863784 -0.00052625868 -7.1878538e-20)
(0.0026264928 -0.0004378973 -1.0137746e-19)
(0.002935211 -0.00032906305 5.6899564e-20)
(0.0032339083 -0.00018623152 -5.8676631e-20)
(0.0038050975 -3.6244469e-05 3.3702645e-21)
(0.0042426312 -5.9320601e-06 -3.2784764e-23)
(0.0043247828 -2.5038149e-06 9.1356655e-24)
(0.0044430144 -2.6202226e-06 1.6109836e-23)
(0.0045346615 -3.3219218e-06 1.2450277e-24)
(0.0047038187 -4.7962129e-06 -3.72224e-24)
(0.0049222449 -6.3347009e-06 -1.9587991e-23)
(0.0052213849 -7.9909166e-06 3.6691881e-23)
(0.0055837207 -9.4380683e-06 -2.6316464e-23)
(0.0060083279 -1.0609214e-05 -1.1327267e-23)
(0.0064734641 -1.1312892e-05 1.5551832e-23)
(0.0069600047 -1.1533226e-05 8.492099e-24)
(0.0074450845 -1.1339302e-05 -1.0976085e-23)
(0.007915001 -1.0909349e-05 1.0166248e-24)
(0.0083622737 -1.0424125e-05 -1.6033756e-23)
(0.0087888571 -1.0098085e-05 1.9426905e-23)
(0.0092059878 -1.011654e-05 -4.7873061e-24)
(0.0096322898 -1.0579701e-05 2.2670278e-24)
(0.0100883 -1.1420855e-05 5.7791156e-25)
(0.010587964 -1.2425635e-05 -1.749663e-23)
(0.011133988 -1.3242416e-05 2.2890339e-23)
(0.011710573 -1.3560688e-05 -2.2051011e-23)
(0.012293721 -1.3172605e-05 8.4618764e-24)
(0.012849604 -1.1283277e-05 7.0099708e-24)
(0.01328679 -6.7436318e-06 -4.295458e-24)
(0.013472535 7.0518937e-07 4.2187935e-25)
(0.013289114 1.0496819e-05 5.0439987e-25)
(0.012647437 2.1742471e-05 1.5328546e-24)
(0.011501969 3.2929978e-05 -2.2224505e-24)
(0.0098892728 4.1947719e-05 -1.2262042e-24)
(0.0079419281 4.6531825e-05 1.0721715e-24)
(0.0058928833 4.4971269e-05 -2.8597568e-25)
(0.0040275667 3.6488967e-05 5.9074662e-25)
(0.002658224 2.1647592e-05 -5.2719006e-25)
(0.0020325484 1.3918135e-06 8.1428672e-25)
(0.0023943131 -2.3112067e-05 -2.7367627e-25)
(0.0038863549 -4.3783301e-05 -4.386509e-26)
(0.0060509176 -5.3106395e-05 1.2373393e-24)
(0.008379687 -5.2232551e-05 -8.9067825e-25)
(0.010503325 -4.4051352e-05 1.3957522e-24)
(0.012163624 -3.15765e-05 1.3329129e-25)
(0.013246026 -1.7006952e-05 -5.3600236e-25)
(0.013682451 -2.4450492e-06 -1.5042215e-24)
(0.013529739 9.5356054e-06 2.4653685e-24)
(0.012934071 1.6981863e-05 3.2462333e-24)
(0.012117279 1.9588085e-05 -1.4043e-24)
(0.011259019 1.9288605e-05 -2.9800878e-24)
(0.010426902 1.8752898e-05 2.3514106e-24)
(0.0095795183 1.9855687e-05 1.3011051e-24)
(0.0086247423 2.3122267e-05 -2.2057482e-24)
(0.0074735918 2.823969e-05 1.4227218e-24)
(0.0060596894 3.4594072e-05 -1.8976449e-25)
(0.0043464019 4.1522051e-05 -5.7050855e-25)
(0.0023260387 4.8470477e-05 -6.3463667e-25)
(1.1246602e-05 5.5067262e-05 -6.9809855e-25)
(-0.0025747965 6.1156296e-05 -4.9800824e-25)
(-0.0054084417 6.664708e-05 -8.5266408e-25)
(-0.0084582426 7.1381206e-05 2.065547e-24)
(-0.011686883 7.5232924e-05 -4.0962537e-24)
(-0.015053439 7.8221961e-05 2.2317936e-24)
(-0.018522317 8.0422799e-05 5.330972e-24)
(-0.022059598 8.1841437e-05 -7.5183316e-24)
(-0.025631276 8.2548512e-05 -4.7142056e-24)
(-0.029208894 8.2619776e-05 9.8684833e-24)
(-0.032765402 8.2063648e-05 1.0174314e-23)
(-0.036273801 8.0912257e-05 -4.7519169e-24)
(-0.039709427 7.9182332e-05 -4.8909546e-24)
(-0.043046869 7.6865367e-05 -1.5375041e-23)
(-0.046261087 7.3980383e-05 1.0169281e-23)
(-0.049328328 7.0511271e-05 -4.5081567e-24)
(-0.052222967 6.6443032e-05 9.6532537e-24)
(-0.054919587 6.1781242e-05 2.1924446e-23)
(-0.057393818 5.6551391e-05 -5.3915738e-24)
(-0.059623081 5.0815775e-05 -3.5952905e-23)
(-0.061588309 4.4664923e-05 8.6969126e-24)
(-0.063274894 3.8182261e-05 -4.6035859e-24)
(-0.06467084 3.141636e-05 1.7492614e-23)
(-0.065765147 2.4405256e-05 3.7682219e-24)
(-0.066549249 1.7198472e-05 -1.9615531e-24)
(-0.067015941 9.7814146e-06 -1.0545405e-23)
(-0.067154914 2.0374906e-06 4.1440539e-24)
(-0.066947408 -6.1585017e-06 1.2488229e-24)
(-0.066373483 -1.4869762e-05 -5.5713807e-26)
(-0.065409238 -2.4232672e-05 -6.6109668e-24)
(-0.064023247 -3.4454043e-05 1.1251898e-23)
(-0.062173341 -4.5865721e-05 2.1004609e-23)
(-0.059800677 -5.8863228e-05 -6.3209072e-23)
(-0.056830629 -7.3831071e-05 7.2315695e-23)
(-0.053173142 -9.1135951e-05 -2.3145777e-23)
(-0.048725842 -0.00011077955 -2.6876481e-23)
(-0.043403586 -0.00013199477 2.3494639e-23)
(-0.037173768 -0.00015201894 -1.3528433e-23)
(-0.030195991 -0.00016517232 -6.1909887e-23)
(-0.02291639 -0.0001623358 2.7883615e-23)
(-0.016279624 -0.00013732692 8.3921795e-23)
(-0.011215707 -0.0001016702 3.7792445e-23)
(-0.007610934 -7.188713e-05 -4.4174069e-23)
(-0.0050969379 -4.8331443e-05 -1.4253314e-22)
(-0.003584716 -2.8180261e-05 3.6660227e-23)
(-0.0028093503 -1.6551127e-05 -5.2180549e-23)
(-0.0022872877 -1.455616e-05 1.9243491e-22)
(-0.0016709375 -1.8494889e-05 4.2291382e-23)
(-0.00081318742 -1.6789569e-05 -5.1748245e-23)
(-0.00040794476 3.4534331e-06 -6.1958722e-23)
(-0.0013739945 4.0362188e-05 -5.3499338e-23)
(-0.0041491104 6.1583997e-05 4.20808e-23)
(-0.0066336996 4.461271e-05 -5.4344457e-23)
(-0.0077164011 -4.772226e-05 2.0435933e-20)
(-0.0063332285 -0.00041205447 1.5571766e-19)
(-0.0017035329 -0.00031095063 1.3743257e-18)
(0.0042774836 0.00055487321 -7.9913282e-19)
(0.010653898 0.0021810472 3.53191e-19)
(0.01628994 0.0043032497 2.5093528e-18)
(0.020368544 0.0065126554 3.9389308e-19)
(0.022243605 0.0083118161 -3.1519624e-18)
(0.021951844 0.0093484276 -3.7330859e-19)
(0.019852034 0.0094610398 1.6759641e-18)
(0.016697282 0.0087771792 6.8813154e-19)
(0.013350571 0.0076461749 9.2409446e-19)
(0.010611946 0.0065285832 3.0044003e-18)
(0.008955981 0.005818958 2.4238867e-18)
(0.0086511265 0.005860087 -2.053059e-19)
(0.009576616 0.006721181 -2.9362352e-18)
(0.011025913 0.0079856528 -9.0688914e-19)
(0.012110286 0.009006467 2.3448874e-18)
(0.012072201 0.0091763528 2.639494e-19)
(0.010176972 0.0078853736 -5.6423543e-19)
(0.0061492223 0.0048681071 8.4867189e-19)
(0.0011427271 0.0010119581 -2.1410679e-19)
(-0.0032436502 -0.0024189394 -2.8656585e-19)
(-0.0064424343 -0.0049742357 3.1182636e-18)
(-0.008356524 -0.0065592266 2.8495397e-19)
(-0.0091079504 -0.0072512525 1.0467004e-19)
(-0.0088808322 -0.0071747017 2.9257959e-18)
(-0.0078665368 -0.0064587895 -1.2105023e-18)
(-0.0061729258 -0.0051629918 1.547356e-19)
(-0.0039657808 -0.003401629 -5.1431333e-19)
(-0.0010068945 -0.00095107377 1.4073525e-18)
(0.0034740352 0.0028718435 2.6888015e-18)
(0.0085266998 0.0071544181 -1.4555087e-18)
(0.01447059 0.011982702 -1.9835001e-18)
(0.021689376 0.017439391 -3.3268799e-19)
(0.030661587 0.023544429 -2.6595237e-18)
(0.041811473 0.030061191 1.3576071e-18)
(0.05569886 0.036494514 1.7521377e-18)
(0.071748586 0.041222721 3.1238943e-19)
(0.08823068 0.041984695 -2.9190436e-20)
(0.097147541 0.03494534 -2.2057335e-19)
(0.092244432 0.02291141 -1.0315142e-19)
(0.075578276 0.011726807 -4.3583471e-19)
(0.057929543 0.0048516911 9.5710048e-20)
(0.03585634 0.0011912117 -2.7853184e-20)
(0.031349939 0.0001913429 -1.7207385e-22)
(0.0075264078 -2.1241267e-05 -8.7214877e-21)
(0.042738888 0.00018462743 -7.3158526e-21)
(0.015279175 4.5414419e-05 8.2567394e-23)
(0.037612796 -0.0010912802 1.2619113e-22)
(0.020632277 -0.0013437497 -9.4690196e-21)
(0.01442486 -0.0019196659 3.6960055e-22)
(-0.0024113344 0.00088939712 3.8621682e-20)
(-0.010603086 0.0039236493 -5.1240631e-20)
(-0.012466227 0.0059468121 1.1269464e-19)
(-0.010075595 0.0057721315 -7.7042788e-20)
(-0.0084329594 0.0055266454 -7.948719e-20)
(-0.0073634852 0.0053103343 -3.9723933e-19)
(-0.0067047674 0.0051711769 4.838448e-19)
(-0.0059467999 0.0048049932 -1.9573255e-19)
(-0.0052403783 0.0043678488 8.032658e-20)
(-0.0044581724 0.0037819998 -6.8908657e-20)
(-0.0037847317 0.0032301202 -6.6209963e-19)
(-0.0031781754 0.0026968333 -6.1630463e-20)
(-0.0027222843 0.0022776489 1.1550361e-19)
(-0.002395896 0.0019750812 -1.2981441e-20)
(-0.0021386116 0.0017390978 -5.548797e-19)
(-0.0019515754 0.0015677826 2.7723467e-19)
(-0.0018153288 0.0014419999 7.8786604e-20)
(-0.0016823166 0.0013220554 -5.0483792e-19)
(-0.001516969 0.0011798605 2.3656409e-19)
(-0.0013008057 0.0010013018 -3.8183523e-19)
(-0.00099127433 0.00075372984 -5.033401e-19)
(-0.0006120416 0.00045622556 -1.2737949e-19)
(-0.0001670379 0.00011020701 1.9178237e-19)
(0.00033448267 -0.0002729008 1.7661518e-19)
(0.00086090702 -0.00066057377 4.4577151e-19)
(0.0013487849 -0.00099809848 5.9714235e-20)
(0.0017453025 -0.0012435869 2.0882981e-19)
(0.0019939824 -0.0013596368 4.8179866e-19)
(0.0020822543 -0.0013479906 1.0108921e-18)
(0.0020589555 -0.0012536143 3.5098353e-19)
(0.0020174465 -0.0011429481 1.6312845e-19)
(0.0020418771 -0.0010646711 -3.2379104e-19)
(0.0021484408 -0.0010205975 -4.5013209e-19)
(0.002328924 -0.0009947821 -8.8061739e-20)
(0.0025679015 -0.00096981339 -3.9427257e-19)
(0.0028537926 -0.00093248164 2.6633303e-19)
(0.0031589761 -0.00086778354 3.145003e-19)
(0.0035026521 -0.00077598154 3.0536784e-20)
(0.0038453145 -0.00064508894 1.0587685e-19)
(0.0042825099 -0.00048447977 -1.0304153e-19)
(0.0047076575 -0.00027730781 8.8238967e-20)
(0.0055069537 -5.9799202e-05 -5.1509934e-22)
(0.006120665 -1.2382422e-05 -3.9887358e-24)
(0.0062411666 -5.0495545e-06 4.1637855e-24)
(0.0064029916 -5.2093386e-06 -4.0059427e-24)
(0.0065247949 -6.5521235e-06 -4.0114875e-24)
(0.006750119 -9.5813746e-06 7.4000294e-24)
(0.0070426351 -1.2750538e-05 2.5172043e-23)
(0.0074461111 -1.6202597e-05 -3.3090684e-23)
(0.0079376029 -1.9228993e-05 2.4881813e-23)
(0.0085159896 -2.1692608e-05 -3.2446647e-23)
(0.0091513897 -2.3180417e-05 7.3297436e-24)
(0.0098169335 -2.3655833e-05 4.1112595e-24)
(0.010480597 -2.3258095e-05 1.5702136e-23)
(0.011122904 -2.2356189e-05 -2.2493768e-23)
(0.011733054 -2.132788e-05 2.2024694e-23)
(0.012313375 -2.0622408e-05 -1.0347257e-24)
(0.012879343 -2.063595e-05 2.8857982e-24)
(0.013457049 -2.1587834e-05 -1.6814949e-23)
(0.014075695 -2.3355763e-05 -1.0369331e-23)
(0.014755864 -2.5504254e-05 1.7424317e-23)