/*--------------------------------*- C++ -*----------------------------------*\
| =========                 |                                                 |
| \\      /  F ield         | OpenFOAM: The Open Source CFD Toolbox           |
|  \\    /   O peration     | Version:  2.4.0                                 |
|   \\  /    A nd           | Web:      www.OpenFOAM.org                      |
|    \\/     M anipulation  |                                                 |
\*---------------------------------------------------------------------------*/
FoamFile
{
    version     2.0;
    format      ascii;
    class       volScalarField;
    location    "20000";
    object      Eta3;
}
// * * * * * * * * * * * * * * * * * * * * * * * * * * * * * * * * * * * * * //

dimensions      [0 0 0 0 0 0 0];

internalField   nonuniform List<scalar> 
32000
(
3.149466e-09
2.2187367e-09
-3.1945596e-10
2.3053478e-09
6.8447606e-09
-4.8425669e-10
-2.5399705e-10
-9.2384226e-10
-1.3407015e-09
-2.9150946e-09
-9.0577646e-11
-3.90898e-10
-1.7949702e-10
-2.4006271e-10
3.0008599e-10
-1.599395e-10
-4.8058441e-11
-5.5881455e-12
9.6389586e-11
2.2305014e-10
-5.9961513e-11
3.4564534e-11
-4.9327906e-10
3.3004503e-12
-6.1667959e-10
-1.5578334e-10
1.097869e-09
-7.8683253e-11
-7.457748e-11
1.8547523e-10
-1.0438939e-09
-6.1193839e-10
3.373143e-10
1.7297377e-10
2.2393013e-10
8.3778029e-10
6.3371447e-10
-3.3022936e-11
-6.6099074e-10
-2.2621511e-10
-4.7404106e-09
2.095277e-10
1.0471268e-08
-6.6319215e-09
-2.9174941e-09
5.2857978e-09
6.3852385e-09
-8.956429e-09
-6.8540351e-09
-1.1479862e-09
3.8372162e-09
-1.6906356e-10
3.8291108e-09
-5.85329e-10
-6.2368819e-10
-2.7653274e-10
-4.8202115e-11
1.7643339e-10
-2.8099979e-09
-3.7636387e-11
-5.7257182e-10
-1.429709e-09
-2.4535876e-10
-1.9246052e-09
4.2058615e-10
-3.2676085e-11
-9.4380858e-10
-3.0767443e-10
-1.3458497e-10
-3.5421339e-10
8.3565295e-10
-5.7195636e-11
8.6892105e-09
3.9137491e-09
-8.2055345e-10
9.6896126e-09
4.5932453e-09
-4.3898533e-10
8.9597115e-09
3.8992136e-09
-1.0208112e-09
7.8567866e-09
3.0833141e-09
-1.5231879e-09
7.2013261e-09
2.8681941e-09
-1.2730065e-09
-5.1731254e-09
3.8327809e-09
3.0248818e-10
-2.9759607e-09
6.4528589e-09
-8.848869e-09
1.0048874e-09
-1.3775624e-09
-3.5087379e-09
-5.4030368e-09
-7.0930397e-09
-8.5179727e-09
2.7597201e-09
-1.0745655e-08
-1.1586364e-08
3.8896362e-10
-4.0105086e-12
-1.9759802e-10
-2.0625545e-10
-6.5056664e-11
2.4739272e-10
7.1814586e-10
1.3243061e-09
2.0838839e-09
2.9817535e-09
-9.4932231e-09
-8.4339315e-09
-7.2552935e-09
-5.9451086e-09
9.5627643e-09
-2.9941401e-09
-1.3641518e-09
3.6121937e-10
2.1635331e-09
4.0560938e-09
6.0407279e-09
-7.2279381e-09
1.028001e-08
-3.232342e-09
-1.1268407e-09
1.0721388e-09
-1.3141923e-08
6.6771937e-10
-3.8598793e-10
2.5463084e-10
-8.2012079e-10
-1.3554114e-10
5.8249208e-10
1.3560853e-09
2.9243315e-10
1.165959e-09
1.4387596e-10
1.155568e-09
-1.8188825e-09
1.4809055e-09
7.7356462e-10
1.5049002e-10
-2.3526839e-10
-4.6659203e-10
-2.6476948e-10
2.1381422e-10
-1.2872991e-09
3.9524654e-10
-1.2352468e-11
6.0559966e-10
-3.1130679e-10
-1.4369981e-09
1.4227572e-09
-1.2127322e-09
3.6354216e-10
1.3145747e-11
1.6886366e-09
9.4577294e-10
-4.0327293e-10
-5.883299e-10
9.6630686e-11
-2.124516e-10
8.7653421e-11
5.7437316e-10
-2.7120835e-10
3.3864293e-10
5.0354625e-10
2.2182281e-10
1.4613002e-10
-5.674813e-11
-2.8222198e-09
-1.2521153e-09
1.1731168e-09
-2.6584459e-10
-1.4167736e-10
2.4327524e-09
3.6014459e-10
9.9402875e-10
-6.7274246e-10
-3.3159355e-10
4.2338678e-10
6.7252065e-10
-1.3729896e-09
7.572778e-10
-3.05067e-10
1.13529e-09
6.3764829e-11
7.0392562e-10
-6.9482203e-10
7.4588756e-11
-9.4889646e-10
2.9993003e-10
4.0739196e-10
1.056959e-09
-2.5421184e-09
2.2042394e-09
5.4605878e-09
-8.8822331e-10
-5.9717129e-09
3.2041419e-09
3.5494871e-09
5.5363987e-10
2.3432164e-09
-7.4472018e-10
-5.3461272e-10
7.4744138e-10
-5.2729383e-10
2.8345737e-10
-2.5772658e-10
-4.1627256e-10
1.1349636e-09
1.7041377e-10
1.7847093e-10
-7.576102e-10
-9.9814419e-10
-8.4719039e-10
-6.4418646e-10
4.3853753e-10
-7.6800584e-11
-9.6908221e-10
5.7153362e-11
2.8954558e-11
2.078697e-10
4.2414132e-10
1.3811752e-10
4.0921606e-11
-3.2821336e-10
-2.173729e-09
4.3261053e-10
1.2898073e-10
3.9859319e-10
-2.2046799e-11
1.8384635e-09
-3.7176448e-09
-3.1172593e-10
-1.4481984e-09
1.5384471e-09
-6.8953268e-10
-2.6277586e-10
2.9461842e-10
-1.2848155e-09
-1.0447621e-09
5.7932246e-10
2.5828691e-09
2.0487764e-09
-8.9251921e-10
6.6924098e-12
-5.5804843e-10
-4.2792413e-10
9.2887956e-10
1.3227197e-09
-3.1277702e-09
-5.485903e-09
7.6417734e-10
2.4428777e-09
-4.9504665e-09
2.4182319e-09
-3.3222703e-09
-6.5071754e-09
-1.7158891e-10
-1.9054972e-09
3.000896e-09
-5.2288056e-10
1.1309861e-09
1.1619444e-09
2.2428815e-10
-1.1002939e-09
-2.3053539e-09
-3.0136179e-09
2.3508966e-09
-1.335741e-09
-2.9390699e-09
2.7103867e-09
6.0842355e-10
2.5569212e-10
2.8283592e-09
-3.9913834e-09
-1.9405049e-09
3.832106e-10
-4.9954763e-10
7.0424665e-11
-2.0044389e-09
-1.7598748e-09
9.4560776e-10
-1.8994478e-09
-1.4095366e-09
-1.5095828e-09
-2.084181e-09
1.1122347e-09
-3.7196193e-09
-7.1265931e-10
2.4799629e-09
1.5686728e-09
9.7309507e-10
4.7674075e-10
-3.3137871e-10
-5.298868e-10
-5.6329485e-10
-2.0325866e-09
-1.4727886e-10
1.5292816e-09
2.1076738e-09
1.860767e-09
4.9549374e-10
1.3333999e-09
6.9297855e-10
-1.7436033e-09
1.6361486e-09
-1.0366678e-09
-1.9992177e-09
-1.1950277e-09
1.3471457e-09
-3.1102175e-09
-1.9469996e-09
4.0492786e-10
-6.9782352e-10
3.4394811e-09
-5.9758549e-10
9.5147112e-11
-3.3217319e-09
2.8790356e-09
1.4219664e-10
2.5010463e-09
2.6132941e-10
-2.0478366e-09
7.659442e-10
-1.4581206e-09
1.2217097e-09
-1.2410785e-09
-4.0820934e-09
-1.3163059e-09
1.2840109e-09
-1.3068253e-09
-4.0928071e-09
5.4050051e-09
3.3934915e-09
-3.2452182e-09
1.7985551e-09
-2.5115536e-09
-1.5101827e-09
-1.7475135e-09
-3.8437172e-09
-3.6672148e-09
-2.9374219e-12
5.0580066e-09
3.0459899e-09
-5.5973052e-09
-1.6359286e-09
-3.6385602e-09
-5.6692456e-09
-6.6189932e-09
5.8326655e-09
-3.4708231e-09
-3.995252e-09
-4.5553838e-09
5.9565576e-09
1.3398585e-09
-3.4007859e-10
-1.7714583e-09
-8.5301484e-10
1.9474541e-09
5.0651367e-10
2.6340888e-09
-2.8409577e-09
7.4954312e-12
2.8115799e-10
4.4419744e-10
-2.9551718e-10
-1.1533485e-09
-6.0665901e-10
2.9298683e-10
4.3703979e-10
7.0227005e-10
-1.4674339e-10
-8.719308e-11
-3.1749574e-10
-3.8931141e-10
4.2507359e-10
-5.2018655e-10
-8.41242e-12
1.2481044e-10
-1.8499729e-10
-7.1924019e-12
-3.3960506e-11
-2.5782737e-10
-2.6397542e-10
-1.8427115e-10
-1.0342976e-09
1.0285929e-09
5.9150101e-10
-2.2004552e-09
2.8650992e-09
-3.8662473e-09
-5.0436206e-09
-2.9419204e-09
2.0246759e-10
2.4251602e-10
6.2847513e-10
-1.1223279e-09
8.6389084e-11
-5.6666419e-10
7.6204963e-10
5.3107466e-10
3.0978211e-09
2.8817468e-09
6.5824554e-10
-2.7873705e-09
-1.5956965e-09
3.3978834e-11
-1.7643819e-09
3.057929e-10
1.3063715e-09
9.910295e-10
6.6518585e-10
-2.6303858e-10
-1.5826965e-10
1.3949409e-09
1.2669911e-10
5.799274e-10
9.3880919e-10
-2.9874486e-10
5.2777578e-10
-9.2078983e-10
7.3730855e-11
6.4598055e-10
-2.1098248e-11
-1.6061134e-10
-6.8332343e-12
-2.5972461e-10
1.3025468e-09
9.8464434e-10
3.0274884e-09
-1.4400662e-09
1.9817427e-09
4.24674e-09
-8.1634764e-12
-1.1519054e-09
-1.4256762e-09
1.9525957e-09
-4.168209e-09
9.8246603e-10
-4.6423621e-10
-2.8310396e-10
-2.969818e-09
-6.9004773e-12
3.6338537e-09
-2.0718889e-09
6.4699319e-11
1.494691e-09
-7.6551767e-10
8.2874286e-10
-9.6302994e-10
-1.2889249e-09
-9.6615338e-09
3.2150245e-09
-6.4760748e-09
8.8558157e-09
2.9257596e-09
7.147902e-09
-1.9919731e-09
-1.6100733e-09
-4.3409148e-09
3.4984604e-09
2.3434082e-09
1.1817583e-09
2.3780988e-09
5.3357313e-10
-1.6409995e-09
-2.1138625e-09
1.2844124e-09
-2.4798019e-09
3.2945777e-09
-4.3461348e-09
3.0270814e-09
-1.3254439e-10
7.9261541e-11
-3.2039996e-09
-1.2910365e-09
1.8057117e-09
4.0811522e-09
2.3261528e-09
2.4473519e-09
-1.9510642e-09
-4.2197933e-09
7.0161201e-10
1.7491445e-09
-5.9323966e-10
-5.3153694e-10
3.8666395e-09
-3.7314785e-09
-4.6771179e-10
-1.3369686e-09
-3.6116753e-09
6.4636835e-10
3.70606e-10
-1.217256e-09
3.6056939e-10
2.8539935e-09
3.2926351e-09
1.359957e-09
3.4506644e-09
1.6544515e-10
2.8694133e-09
-3.55347e-11
-1.1516055e-09
5.5495607e-10
3.7085317e-09
1.1378453e-09
-1.290482e-09
5.4348251e-10
1.284976e-09
-5.0775336e-09
1.7385515e-09
-2.1613889e-10
-1.4122194e-09
2.255985e-09
-7.5596806e-10
-1.6628742e-10
-3.4015606e-09
-4.0977382e-09
-2.1069913e-09
1.7521979e-09
1.9215892e-09
3.1501857e-09
-1.6394417e-09
-5.2270479e-09
4.287302e-09
2.3133916e-11
-4.1576867e-09
-2.9242583e-09
5.179372e-10
2.6631918e-09
-2.5240191e-10
-4.1182523e-09
-2.7715792e-09
5.1458309e-09
-9.7580419e-10
5.4905378e-09
-2.4923661e-09
-1.5827251e-09
5.6401234e-09
-1.6590329e-09
1.652035e-09
4.52232e-09
-2.7051883e-09
-5.2448092e-09
3.1461076e-09
-4.8025191e-09
7.6174878e-09
6.4576338e-09
4.9094083e-09
-3.4965996e-10
-2.8832531e-09
5.2364141e-09
-3.0899378e-09
6.6464398e-09
9.0313721e-09
6.5583839e-09
-1.2553333e-09
-1.7861732e-09
6.0583776e-10
-3.8918341e-09
2.8447468e-09
1.6507792e-09
-2.0775574e-10
-6.1707354e-10
5.3236349e-10
9.8390136e-10
-1.1795741e-09
1.3058293e-10
4.5819777e-10
2.0736978e-10
7.8183326e-10
2.7124891e-10
2.2612907e-10
-3.3569238e-10
1.4245838e-10
8.7345653e-10
-6.2658406e-11
4.6511059e-10
-2.5714917e-10
-4.0167139e-10
7.3624014e-12
-7.6664407e-11
2.5331064e-10
-2.5410305e-10
-2.4995098e-10
-3.3253882e-10
7.1453256e-11
1.0897712e-09
1.0824386e-09
-6.2742565e-10
4.3708567e-09
8.3343748e-09
-5.4860882e-10
7.4001401e-11
4.8527331e-10
1.4218412e-09
4.3588336e-10
-1.7867447e-09
1.7885837e-09
1.1665128e-09
-2.6226729e-09
7.8180684e-10
-7.0692361e-10
2.0736494e-09
-4.6473578e-10
-1.0994378e-09
2.1461547e-11
3.0091103e-10
2.0986467e-10
-3.6298067e-11
2.3435145e-10
1.7813549e-10
-2.3096967e-10
-3.6470121e-11
-1.7189708e-10
-8.0365405e-11
1.9543928e-10
3.1459121e-10
6.3413931e-12
-9.658026e-10
-8.1637717e-10
2.9439917e-10
2.4443152e-10
-4.1488535e-10
-1.0830971e-09
8.8031999e-10
-1.209507e-09
-6.4804166e-10
-4.3911186e-10
2.4721717e-10
1.4633842e-10
5.830691e-10
-1.1101028e-09
4.8449488e-11
-3.4803695e-10
-1.0902832e-09
1.8769554e-10
-4.6822523e-10
-3.9054143e-09
4.7152727e-09
-2.7402352e-09
-1.3533448e-08
9.3170308e-09
2.0256797e-09
2.8021326e-09
-2.8170778e-09
-8.9902059e-10
1.6665002e-09
3.494748e-09
-2.7328632e-09
-1.2081294e-09
-1.7271139e-09
8.1723705e-10
-8.2707597e-11
1.5699261e-10
-6.7230681e-10
8.1734615e-10
1.6908847e-09
-6.6152407e-10
-3.8820084e-10
2.4252316e-10
-3.7423478e-10
-3.2071968e-10
-1.6522656e-10
-6.2496522e-11
1.5165039e-10
-2.7660408e-10
9.8389983e-10
2.7128548e-10
-1.5101453e-10
4.1108118e-09
2.9923214e-09
-2.6774548e-09
-2.1930547e-09
2.8251986e-09
-7.9409026e-09
7.7361227e-10
-3.2279814e-09
1.200804e-09
2.0173929e-09
-1.6093793e-09
7.9641228e-09
4.4975065e-09
1.5576051e-09
7.7448264e-10
4.2039663e-09
4.6049007e-09
1.2016157e-08
-4.5562441e-09
6.5349142e-09
5.2157384e-10
-1.5399972e-09
-2.9125619e-09
4.4308667e-09
7.9612483e-09
6.6460488e-10
-3.2683601e-09
-2.7629916e-09
-6.435094e-09
-1.1572512e-09
2.9590739e-09
1.693794e-09
-2.034712e-10
1.2986865e-08
-3.0263376e-09
-3.0785648e-10
-4.177292e-09
-4.7746681e-09
-2.2470528e-09
1.8455665e-09
2.5037953e-09
-5.3446485e-10
2.3571852e-09
6.4158312e-09
-3.7130877e-09
-2.4793568e-09
-9.2977684e-09
-7.9645954e-09
2.023103e-09
2.5405721e-09
-5.0533731e-09
-9.5065148e-09
4.0071013e-09
5.3558507e-09
7.7827704e-13
-3.5390938e-10
2.7141866e-10
8.1800529e-11
-1.2205326e-10
5.7066798e-10
-2.1426118e-10
-4.2464136e-10
1.4061188e-10
-5.8945616e-10
5.2161447e-10
-9.45268e-10
1.3380703e-10
-9.911968e-10
-6.5435178e-10
6.1532404e-10
6.3293413e-12
-1.180842e-09
-1.0046329e-09
1.4232249e-10
-9.5439446e-10
7.3743712e-10
1.2266746e-11
-4.3050667e-10
2.2783828e-10
-2.6840212e-09
-2.8309722e-09
4.1023364e-10
-5.9707391e-10
6.2845007e-10
-4.7832034e-11
1.4094951e-11
-2.0779777e-10
7.408421e-11
-2.0349824e-10
-8.9931612e-11
6.3461695e-10
-4.1260207e-10
2.5603944e-10
5.216701e-10
-3.3855064e-10
9.3392206e-11
4.168904e-10
1.478591e-10
6.4652394e-10
-1.4613491e-09
2.0998604e-09
2.4778306e-11
1.4222545e-09
-2.493929e-09
-7.2669999e-10
2.4582825e-10
-1.57384e-09
-1.698116e-10
-1.7732221e-09
1.1949687e-09
7.2564644e-10
2.9541062e-10
-2.6018734e-11
-1.0620532e-09
-1.0709998e-09
-3.8194433e-10
1.0872558e-09
-1.3063226e-09
-1.2193129e-10
9.571339e-11
5.4598959e-10
5.4251685e-10
1.72529e-10
-2.7284428e-09
1.6465645e-10
3.4207209e-09
2.1354157e-11
9.2348859e-11
8.0281655e-10
8.0106331e-10
7.6911093e-10
1.7787358e-09
-2.7176111e-10
1.1447213e-09
1.3551167e-09
-1.1419999e-09
-7.9283798e-10
-9.6115452e-11
2.2916592e-10
-1.1143582e-09
8.6616272e-10
2.1654456e-10
-3.8074301e-10
-1.1907725e-09
-7.1887568e-10
-6.1756953e-10
-7.5432463e-10
-2.7833175e-10
1.5910555e-10
-6.8490147e-10
-7.7193446e-10
3.630093e-10
-1.4763758e-10
-2.2281149e-10
-5.4243182e-11
-6.4720921e-11
2.531288e-10
-2.0672936e-09
2.6759234e-09
7.3736684e-10
-1.4671754e-10
-2.7490355e-09
2.1301878e-09
-9.2022052e-10
-3.8585762e-10
-2.8396629e-10
6.0535963e-10
-5.1159381e-10
2.1062453e-09
1.2300343e-09
3.4661543e-09
-2.5178308e-09
3.4775877e-10
-1.1729956e-10
7.9112495e-10
-2.152227e-10
-8.9735904e-10
-2.6097102e-10
-1.026846e-09
4.5165229e-09
5.6052816e-09
7.8365638e-09
-5.196984e-09
1.0014112e-10
9.2872758e-10
1.6768671e-09
6.4556743e-09
-1.1136195e-10
6.5284139e-09
8.240745e-10
-4.8078955e-09
4.8314364e-09
6.308153e-09
-2.8234817e-09
-3.2982978e-09
2.3551508e-09
-2.7099776e-09
7.2354299e-10
2.2864329e-09
-1.8748174e-09
-2.7780696e-09
-3.1800608e-09
-3.2490987e-10
1.5511544e-09
2.9366879e-09
4.0045167e-09
-3.836264e-10
-5.1981882e-10
-2.2315469e-10
1.6922748e-09
-7.2843585e-10
-1.7300372e-09
1.5364769e-09
5.1848813e-10
1.2977572e-10
8.9903935e-10
1.4847312e-09
-3.0960309e-09
-1.6775626e-09
2.3371968e-09
-2.0891192e-12
-2.6447926e-10
3.1934648e-09
9.9480838e-10
-1.2853678e-09
-1.7058517e-09
-9.5923046e-10
-3.354928e-10
1.3500613e-09
-1.3546413e-09
7.6364513e-10
-1.9111651e-09
4.0851213e-10
2.3885507e-09
-1.2815178e-09
1.4597337e-09
3.2987599e-09
1.0641974e-09
-1.4123673e-09
-3.5067776e-09
-1.0868832e-09
-5.8958916e-10
2.3563212e-09
1.9510918e-09
1.0796415e-09
1.2693062e-09
3.0292289e-09
-2.4676103e-09
1.561635e-09
-1.7631237e-09
2.1205979e-09
2.720125e-09
-3.63045e-09
-5.650388e-10
3.029748e-09
3.0432466e-09
-4.1026013e-10
-1.2631958e-09
2.5215244e-09
2.3493311e-09
1.9658255e-09
7.4459705e-10
-3.9512031e-09
-8.3193669e-10
-4.7753136e-09
-4.0672493e-09
-3.518844e-09
-2.4693832e-09
1.1302599e-10
1.2001569e-09
-3.0272193e-09
3.610713e-09
1.3373921e-09
2.8111798e-09
5.4292838e-09
7.3497768e-09
-1.8737576e-09
-4.8856874e-09
-9.6849963e-09
5.2269157e-09
-2.828023e-09
2.4130176e-09
-8.744096e-10
5.1017562e-10
-4.0622767e-10
5.3810807e-09
-1.1328499e-09
-3.0012267e-09
5.8311898e-09
3.8642734e-09
1.9739605e-09
-1.4787744e-09
-7.350824e-10
2.1077651e-10
1.5223315e-09
-2.9298557e-10
-1.7327208e-09
-4.4976915e-10
1.380243e-09
-7.9770335e-11
1.2119594e-09
-3.0185875e-10
4.4328973e-10
-8.3121969e-10
-2.8674085e-10
1.9363257e-10
4.9923224e-10
-2.4406673e-10
-3.0947093e-10
1.0639091e-11
-1.1115996e-10
-1.0590577e-10
-1.4425254e-10
9.4459433e-11
1.8074148e-11
-2.0987244e-09
-4.430993e-09
5.8516832e-10
3.0957016e-10
-2.7030824e-09
7.5596469e-09
-8.7916676e-10
1.0573839e-09
-1.2222195e-10
1.0727674e-09
-2.3485086e-10
2.4562553e-09
-5.2671205e-10
-5.7733212e-09
-1.0801957e-09
-7.5671263e-11
3.3897146e-10
-2.0995849e-12
1.0250339e-10
7.0647134e-10
4.5426359e-11
-2.7338883e-10
2.4057825e-10
-2.8723565e-10
5.8526246e-10
1.3991427e-10
4.4580547e-10
-2.4898399e-10
1.2835683e-10
-3.8914942e-10
2.936332e-10
-2.9611565e-10
5.7411302e-10
5.152819e-10
-4.9293332e-10
8.9495611e-11
-1.9828887e-10
-2.4436996e-10
7.8879293e-10
1.9383137e-09
9.9127693e-10
4.8489368e-10
-9.9997727e-11
3.9530804e-10
-1.0524679e-09
1.2131915e-10
7.3219969e-10
-9.9496338e-10
7.619801e-10
1.2127915e-10
7.5375614e-10
7.0064156e-10
-6.7840884e-11
6.4038978e-10
-4.3063058e-10
1.1442997e-09
-1.3971469e-09
9.5659804e-10
-1.9935285e-09
-6.8521299e-09
1.8463099e-09
-2.5847096e-09
-1.1941035e-09
1.4370584e-09
-9.7705412e-10
2.4662544e-09
-1.3549396e-09
8.9132292e-10
1.6974609e-10
-2.0099257e-09
-1.9738593e-12
-2.8997173e-09
-1.6039732e-09
1.0428713e-09
2.5558497e-09
-1.9169006e-09
-1.9954114e-09
-8.9775472e-10
3.4943802e-10
-1.9872667e-10
-1.3366879e-10
-5.61399e-10
7.3313261e-10
-1.1557097e-09
6.6839491e-10
-1.5389931e-10
2.4080634e-09
5.1305167e-10
9.4685887e-10
7.2783579e-10
5.5245412e-10
8.9215721e-10
8.0599016e-10
2.5564819e-10
1.383303e-09
1.4888642e-09
-5.3715791e-10
1.2229916e-11
-5.9981469e-10
7.9206888e-10
7.6892091e-10
3.8156193e-10
8.6727571e-10
2.0697888e-10
-8.8720722e-10
-9.8809505e-11
-5.7520721e-10
1.7920695e-09
1.2717187e-09
5.897e-10
-1.0070791e-10
8.4130603e-10
8.0499911e-10
-5.6233976e-10
1.2590674e-09
-5.0946706e-10
-3.5203506e-10
6.4779668e-10
-7.4277227e-10
7.9225885e-10
2.7180776e-10
-1.4810637e-10
-4.1333703e-10
-1.094936e-09
1.3080968e-09
-3.4243237e-10
-1.2607683e-10
4.1069209e-10
-1.5217926e-09
1.5804251e-09
1.0186568e-09
-1.4453233e-09
-6.9248379e-10
1.6518442e-09
1.918634e-09
5.1754182e-10
1.2203816e-09
-1.9987701e-09
1.233372e-09
-1.524522e-09
3.1463005e-10
-2.3418746e-09
-1.2862661e-09
1.9914074e-09
-6.4143327e-11
-1.4157392e-09
-1.5301319e-09
7.201671e-11
1.3787195e-09
-1.5038021e-09
7.3958667e-10
-9.2984925e-10
-2.5369037e-09
1.5943855e-09
-7.4740223e-10
-1.6976135e-09
2.4957854e-09
-9.0602696e-11
-4.6172585e-10
-1.8562083e-09
-1.2361451e-09
-3.1034488e-09
-6.9467474e-10
-2.7560195e-09
-4.7352563e-09
3.0218966e-09
-8.0120998e-10
2.5098148e-10
-2.1511158e-09
-2.2003887e-09
-5.5817518e-10
4.8256689e-10
7.462885e-11
-5.3233726e-10
-1.503097e-10
-1.7837193e-09
-1.2134878e-10
7.0025623e-10
-8.6204404e-10
-8.1168181e-12
7.9023849e-10
-5.7350253e-10
-5.2524902e-10
2.8160472e-10
-2.4573709e-10
-3.0006664e-11
-1.1575255e-10
-5.5613867e-10
1.3862091e-10
-3.8033131e-10
-3.6424344e-10
-8.9645081e-11
-6.1691721e-11
8.6738058e-11
3.2947255e-11
-1.3238014e-09
-1.7982823e-09
-2.0558784e-10
-4.8715278e-11
7.2811776e-10
1.4842271e-09
4.9169265e-11
1.1608076e-09
9.1056004e-10
-1.2079493e-09
1.5772239e-09
3.0543554e-09
6.0353954e-10
-1.8596421e-09
1.2279313e-09
2.536442e-09
1.342319e-09
6.2571625e-11
-1.0430994e-09
-1.0068276e-09
-2.1845586e-09
6.2578863e-10
3.7760958e-09
-3.7259894e-11
3.750047e-09
-2.5860386e-09
2.4479208e-09
1.960358e-09
1.3414379e-11
-1.6390745e-10
-1.4409447e-10
-7.3776589e-11
8.9681087e-11
9.2635542e-11
1.0575227e-10
1.6524953e-10
5.095805e-10
2.7183804e-09
6.2499506e-11
1.6174715e-09
2.9869788e-10
-2.7772509e-10
-5.3157193e-10
-1.0647928e-09
-1.1326136e-09
5.6788972e-10
-1.2230028e-10
-2.0234246e-10
1.2517274e-10
4.5242033e-10
-1.8150421e-10
-7.2261593e-10
3.640738e-10
1.8198352e-09
8.0504144e-09
-3.755271e-09
-1.0143923e-09
3.7754053e-09
4.499169e-09
6.2545037e-09
5.581139e-09
-1.622171e-09
1.3131542e-09
-2.509319e-09
1.0187578e-09
1.7672396e-09
-1.6707239e-09
1.9654165e-09
-1.6713553e-09
-2.8074389e-09
1.3427344e-09
1.005913e-09
1.7119965e-09
2.9006416e-10
2.861053e-10
-6.7831998e-10
-1.4067809e-10
-4.0228202e-10
-3.2837894e-10
7.8212284e-10
-7.5542455e-10
-2.7684807e-10
8.4311276e-09
8.5125757e-10
9.5553278e-09
-2.2543358e-09
-2.1954709e-10
9.1255614e-10
6.8992682e-10
-3.5797336e-09
-3.5854943e-09
-9.0569332e-11
1.0248717e-08
2.6844466e-09
-4.2971498e-09
-6.1514539e-09
8.6869104e-11
-3.5033864e-09
8.0453698e-09
1.877185e-09
2.2361924e-09
-2.9921959e-09
7.3176374e-09
-1.9340298e-09
2.6705207e-09
6.3148414e-10
3.5717818e-10
5.2626488e-09
-4.5526603e-10
-1.1789452e-09
7.4423257e-09
2.1437461e-09
1.7057909e-09
-7.3944134e-09
1.882017e-09
-4.8882228e-09
-5.991846e-09
-6.2074481e-09
-4.8333828e-09
-1.7555965e-09
-4.1905838e-09
-4.3352387e-09
-6.4067265e-09
-7.0136205e-09
-8.8608042e-09
4.9635917e-09
3.0689247e-09
3.133921e-09
-1.0123107e-09
4.6747518e-09
-2.2504864e-09
-1.7492162e-09
1.2634663e-09
5.5968033e-09
8.5910338e-09
9.9220384e-10
-2.731221e-09
2.1726864e-10
-1.1926996e-09
-9.3427612e-10
-4.4029019e-09
9.7883726e-10
5.8051848e-09
-4.0107074e-09
4.9107651e-09
-6.2697611e-09
-4.2527721e-09
-2.9277466e-09
8.4680835e-09
-1.0397493e-08
4.3229383e-09
7.0622928e-10
-7.8233007e-12
-8.9594009e-09
-5.0259118e-09
-7.6350951e-09
1.3386168e-08
-2.0480237e-10
-7.4878349e-10
-9.0221801e-10
5.6324766e-12
1.3440083e-09
1.1451411e-09
-7.2347521e-10
1.2727416e-10
1.1102035e-09
1.5260197e-10
-2.0048103e-09
5.4955702e-10
-1.8377486e-10
1.445489e-09
9.152648e-10
-6.4580128e-10
-1.1417589e-09
2.9606637e-10
4.5746322e-10
-2.8284653e-11
7.7830502e-10
-4.422501e-10
7.8853598e-10
-1.2800967e-10
-2.9268125e-10
1.3630997e-10
3.3083459e-09
2.5986229e-09
2.1633133e-09
-9.3520498e-10
1.8584719e-09
-7.2662491e-10
-1.8998774e-09
-1.5223468e-10
5.7669979e-10
1.9541766e-09
9.5200119e-10
-1.1081393e-09
-8.0089118e-10
2.9967212e-10
1.4724823e-09
-1.6881686e-11
4.1996336e-11
-8.5411016e-10
-4.3131189e-10
-4.963233e-10
-7.4319084e-10
-6.5564365e-10
1.3973509e-10
3.9178397e-10
-1.4369564e-10
5.1595605e-10
-6.4441313e-10
-1.2552818e-09
1.9026225e-09
-1.5986233e-09
1.0286152e-09
-2.6175643e-09
3.4182138e-10
1.6713086e-09
1.294196e-09
-2.0912641e-10
-2.2780463e-09
-2.8482018e-09
4.1053104e-09
1.5924056e-09
7.3188314e-10
2.4959014e-09
-1.5439541e-09
-1.6479672e-09
1.1978839e-09
-5.702899e-10
-1.3267266e-09
-1.0455153e-09
-1.0616654e-10
2.9964588e-12
7.8170528e-10
2.3332329e-10
-1.724411e-09
-1.1793827e-10
-1.1267424e-09
1.0183713e-09
-6.5667384e-10
8.0405277e-10
-8.4903632e-10
-1.217695e-11
6.2987791e-10
-2.6364395e-10
-1.1208136e-10
3.0217082e-10
-3.3310661e-10
-5.0446922e-09
4.6776104e-09
-4.3167074e-09
-2.9700419e-09
-5.139396e-10
-5.6305239e-10
-7.0253117e-11
-4.081503e-09
-4.043404e-09
2.3083259e-09
9.6561917e-10
-7.2808806e-10
1.6160433e-09
1.6260663e-09
1.1405246e-09
-1.0786329e-09
-2.0910965e-09
-1.1324926e-09
7.1203591e-10
1.0176624e-09
8.7465937e-10
5.0325741e-10
-5.8989452e-10
6.8938368e-09
-1.6741217e-09
3.2156953e-10
-9.9627328e-09
4.7374432e-09
-7.6027433e-10
-1.3536923e-09
1.4316704e-09
-6.4868037e-09
2.2539267e-09
6.8992081e-09
1.044176e-09
2.8897019e-10
3.6988397e-10
-8.4700999e-10
-3.7270626e-09
3.6549556e-11
-2.654957e-09
-1.4886157e-10
1.0287675e-09
-2.0403623e-09
2.395685e-09
-2.000386e-09
-1.0133004e-09
-3.5151683e-09
-3.5166912e-09
-1.4982382e-09
1.0527206e-09
3.1892725e-09
-2.9321281e-09
9.7703956e-10
-5.4450747e-10
2.7039066e-10
1.1743061e-09
-2.5210804e-09
-1.4163701e-09
2.5405089e-09
-4.3032103e-09
3.0695026e-10
3.5127316e-09
-1.0477737e-09
2.0511171e-09
-5.216186e-10
-1.638174e-09
1.273521e-09
2.067614e-09
2.2658702e-09
-4.594151e-10
-6.3292263e-10
-3.6460786e-09
1.0595964e-10
1.4349793e-09
-2.7031529e-09
2.8471859e-09
1.9337972e-10
2.6128448e-10
-4.1839841e-09
3.8545307e-09
3.9454073e-09
-5.2428321e-10
-6.5647833e-10
1.8422594e-09
-3.5202105e-09
4.6061736e-09
-9.1944104e-10
1.4193024e-09
-8.5910096e-10
-1.142301e-09
3.0019e-10
3.2131293e-09
-5.0647807e-09
-4.4283805e-09
-4.799543e-10
-1.1389085e-09
-4.210264e-09
-1.0548737e-09
-3.9209023e-09
-9.8607829e-11
-4.6631659e-09
-5.2064451e-10
1.5118078e-09
-1.1303523e-10
-1.3531469e-09
3.2300802e-09
-1.9028067e-10
3.8013617e-09
1.1065516e-10
3.4085845e-10
1.1654619e-09
4.5438686e-10
-6.2749998e-10
8.1101806e-10
-1.9062038e-09
-6.5267132e-10
9.0242445e-09
3.534485e-09
1.2083292e-09
-1.720967e-10
-1.2070472e-08
-9.6303912e-10
3.0961164e-09
3.1581494e-09
-3.6178085e-10
2.0505075e-09
-2.7248104e-09
6.8941154e-09
-3.6562974e-09
-1.4148269e-10
-2.1553973e-09
5.1887021e-10
2.727728e-09
-1.8714767e-09
-2.2536494e-09
7.0501814e-10
-4.3536239e-11
1.5438134e-09
1.2378479e-10
1.3387577e-09
3.4335989e-11
4.6229032e-10
-3.2747239e-10
1.6007888e-10
7.0978911e-10
1.3265125e-09
7.4541874e-10
-3.4599527e-10
-4.2226352e-10
-5.3812905e-10
-1.8219019e-10
-1.0229238e-10
-3.7450913e-11
4.6762915e-10
-2.1905775e-10
1.3842838e-10
-2.21806e-11
3.0114113e-09
3.147275e-09
4.5577898e-09
8.14815e-10
-4.756594e-09
-5.592414e-09
-1.7579962e-09
5.9315306e-10
-1.6726084e-09
-1.8535956e-09
-8.0558708e-09
5.5648427e-09
6.6581501e-09
6.926383e-10
1.8173841e-09
-2.2603367e-09
1.1491948e-09
-2.9423779e-09
-5.0596714e-10
5.5274731e-10
-4.0515348e-10
-1.0512926e-10
6.8040628e-10
2.6692449e-10
4.0568861e-10
-1.656993e-10
1.3958588e-10
1.1282646e-10
-4.7267785e-10
-4.3975865e-10
5.4843611e-10
-5.403529e-10
-1.9759272e-10
3.8027003e-10
1.9676739e-10
5.1667955e-11
2.448234e-10
2.096185e-10
6.3832552e-10
8.8730655e-10
2.0511636e-09
1.7419599e-09
-3.2866701e-10
-6.8550135e-11
-4.4483264e-10
7.4476104e-10
-1.4307767e-09
6.8806146e-10
-1.083103e-09
9.6230908e-13
1.4936333e-09
-2.1482072e-09
1.6128012e-09
-1.2477021e-09
2.7412345e-09
2.0855172e-09
2.1403018e-09
-1.0853079e-09
-6.5579975e-10
-5.2776376e-10
-1.3441719e-09
-1.7022869e-09
-3.9230173e-09
-7.4152903e-10
2.5386115e-09
3.0600633e-09
-1.6758533e-09
5.1166526e-09
1.4973525e-09
4.2001832e-10
2.5565065e-11
-2.6422127e-09
-8.2631014e-10
-1.2685253e-09
-1.8474332e-09
-7.4269466e-11
-9.4760605e-10
-4.2372978e-09
1.0777271e-09
1.9888623e-09
-2.838699e-09
1.5956476e-09
1.2015659e-09
1.1286609e-09
-2.1252252e-09
2.6627733e-09
1.5483899e-09
8.3712342e-10
-3.2983157e-09
2.7642725e-09
4.1402401e-10
8.9006026e-10
2.1620798e-09
-7.123444e-10
-1.9334143e-09
-1.4506788e-09
7.0210764e-10
-8.990282e-10
2.6496814e-10
-1.2160674e-09
-1.1666927e-09
-2.7913276e-11
1.8648223e-09
-1.1871938e-09
7.3891585e-10
2.0347858e-09
5.811276e-10
-1.1580084e-09
3.3088176e-10
7.6952056e-11
-7.5205195e-10
2.8340737e-10
-1.6385755e-10
1.8023778e-10
-6.2333734e-11
-1.4262324e-09
7.9704636e-11
-1.8368237e-09
-8.0028005e-10
1.249771e-10
-2.9267027e-10
-9.1465305e-10
1.1317809e-09
-1.8011621e-09
1.3241072e-09
-8.7932759e-10
3.3833818e-09
-5.4359582e-10
1.9609022e-09
1.3707196e-09
4.2296872e-10
-2.3308647e-09
3.2419252e-09
-8.7893567e-10
-3.6771971e-10
-2.8224789e-09
1.0056533e-09
-7.0332283e-10
2.7590034e-09
-2.6960298e-09
3.9373415e-09
-4.7497743e-10
-4.174597e-09
1.9468838e-10
4.0577718e-09
-3.0305899e-09
-2.9442165e-10
2.1516317e-11
8.489264e-10
7.452252e-10
-1.6146237e-09
-2.3208391e-09
-2.283466e-09
2.4259316e-09
3.2514249e-09
-2.1258073e-09
4.9471704e-09
1.5102363e-09
5.6051559e-10
1.7130209e-09
-1.0365798e-09
1.2232486e-09
1.9824959e-09
-3.0394539e-09
-5.4302604e-09
-5.0442892e-10
-9.7316092e-11
-9.5201423e-10
-6.687175e-10
-1.5089966e-09
-2.169068e-09
-8.7896574e-10
-9.5193741e-10
9.7875472e-10
4.2857574e-10
-1.0083695e-09
1.894795e-10
-1.1415486e-10
-6.1053077e-10
1.0538416e-09
-7.7147442e-10
4.2643889e-10
-3.4174013e-10
-1.3063775e-10
-7.666358e-13
-3.6685355e-10
-6.5339097e-11
-3.5290218e-10
4.1640798e-10
2.2583579e-10
-2.8952544e-10
-3.1025912e-10
2.3953961e-10
3.3552239e-10
-8.576608e-11
-2.6996475e-10
2.677615e-10
-4.8567788e-10
-4.1813322e-10
1.2161561e-09
3.4160717e-09
-2.6658073e-09
8.9190625e-10
-2.5133983e-09
-2.021262e-09
8.9887026e-09
1.4837613e-09
-3.2048159e-09
-5.2181799e-09
-1.4659233e-09
-6.8798476e-10
-5.8369122e-10
-4.147326e-09
-6.2545175e-09
-5.1738568e-10
1.5054347e-09
5.915318e-09
-4.8128069e-10
-4.0811984e-10
9.6016223e-10
6.6760707e-10
1.2114801e-10
1.2245906e-10
3.5151898e-10
-2.5219574e-12
-2.580197e-11
-1.0027049e-10
-2.6384142e-10
5.223661e-11
1.4564881e-10
5.294739e-10
5.4753942e-10
2.2184386e-10
-3.0895041e-10
-4.2671561e-11
-1.7387436e-09
-1.2714714e-11
-1.0566936e-09
1.1631313e-09
1.9528605e-09
5.0546219e-10
-2.3549252e-10
-6.6835388e-10
1.1238744e-09
-1.2678682e-09
-1.1616453e-09
1.0338195e-09
1.5995115e-09
-1.0069808e-10
-3.2050279e-10
-1.3758189e-09
1.1347732e-09
5.0099101e-10
8.9472336e-10
-8.9257161e-10
6.2628215e-10
5.4020537e-11
2.9383175e-09
-7.8335986e-09
1.4349787e-09
4.763327e-09
-4.173371e-09
-6.5745657e-09
-2.4899197e-09
1.8521004e-09
-4.9232542e-11
-3.9279892e-09
6.6755543e-10
2.6038325e-09
1.437506e-09
-1.0312616e-10
-6.1056605e-10
1.2927532e-09
-1.7239719e-09
7.4577781e-10
-9.0377688e-11
-7.5774291e-10
1.0645799e-09
5.0236019e-10
1.1527345e-09
-2.1351384e-12
1.763348e-09
1.3725193e-09
-7.9944151e-10
-2.3185803e-09
1.5742947e-09
-1.0239681e-09
-1.9926757e-10
1.5566686e-10
2.7401795e-10
-1.5676913e-09
-2.0477501e-10
-1.9598083e-09
-2.5526599e-10
4.171128e-11
-2.0261003e-09
-7.0949551e-10
-1.4015099e-09
-1.1250643e-09
7.4423588e-11
-7.4010423e-10
4.6778497e-11
-2.8420721e-10
-5.9711868e-10
1.728303e-09
4.2761278e-10
-1.209821e-09
1.4169683e-10
3.2105093e-10
7.744914e-10
1.56371e-09
-1.7878146e-10
-1.3306514e-09
-1.3428151e-09
2.0347015e-10
8.0685352e-10
-1.3544468e-09
-6.8547972e-10
7.9765688e-10
-2.1780673e-11
8.4759206e-10
-1.1744156e-09
-5.2327124e-10
1.4620146e-09
-6.0330882e-11
-6.6518534e-10
-6.9381727e-11
-1.4017153e-10
-1.7914456e-10
1.1832448e-09
3.8402385e-10
1.3487767e-09
3.4999353e-11
3.6567942e-10
-9.1825911e-10
-8.5183265e-10
1.8623202e-09
3.727358e-10
1.3653553e-09
1.3650839e-09
7.1322133e-10
-4.5622732e-10
-2.2590533e-09
1.9927488e-10
1.5631577e-09
6.9867359e-10
-1.1593403e-11
2.8523356e-10
-4.5677569e-10
-1.1671478e-09
-2.5648384e-09
-1.5000596e-09
-1.0186213e-09
1.8394371e-09
-2.2073342e-09
-1.0063094e-09
5.4289962e-10
2.1937107e-09
-2.6228386e-09
1.1828868e-09
1.2115846e-10
-3.3207682e-09
1.4208677e-09
-4.3452627e-09
2.0429088e-09
9.4755827e-10
1.8664941e-09
1.3531159e-09
8.7972483e-10
-1.9889425e-10
2.0805475e-09
1.4717941e-09
1.8588699e-09
-1.2679661e-09
6.9176129e-10
7.778538e-10
-1.2105549e-10
4.8115298e-10
6.3432617e-10
-2.4743447e-10
1.761331e-10
-3.7760073e-10
-2.0766518e-10
2.2671676e-10
4.0462141e-10
4.5188444e-10
2.3033177e-11
6.1282078e-11
-2.1872672e-10
-2.8351407e-10
7.0741097e-11
-1.7696687e-10
9.1535001e-10
1.2380256e-09
-5.1253026e-11
-1.249753e-10
1.6854878e-10
2.3514943e-10
3.975941e-10
6.9305241e-10
1.5848051e-09
-1.7669104e-10
7.9268454e-10
7.4354841e-10
2.8024684e-09
-3.7538156e-11
-4.1836977e-09
7.9955244e-10
7.8194382e-11
-9.2952575e-10
1.5785258e-09
7.9636249e-10
-6.0617925e-09
1.3705546e-10
6.8737801e-10
-9.6045021e-10
6.5658206e-09
-2.7949901e-10
-7.655205e-10
7.6387338e-10
-5.9795323e-11
9.3973588e-11
4.0762567e-10
3.1866645e-10
-1.647251e-10
1.6638554e-10
-1.4741615e-10
-2.7076771e-10
8.1704004e-11
3.5644061e-11
-1.2637667e-11
2.2588515e-10
1.42105e-09
2.222914e-09
-1.351373e-09