/*--------------------------------*- C++ -*----------------------------------*\
| =========                 |                                                 |
| \\      /  F ield         | OpenFOAM: The Open Source CFD Toolbox           |
|  \\    /   O peration     | Version:  2.4.0                                 |
|   \\  /    A nd           | Web:      www.OpenFOAM.org                      |
|    \\/     M anipulation  |                                                 |
\*---------------------------------------------------------------------------*/
FoamFile
{
    version     2.0;
    format      ascii;
    class       volScalarField;
    location    "20000";
    object      Q7;
}
// * * * * * * * * * * * * * * * * * * * * * * * * * * * * * * * * * * * * * //

dimensions      [0 0 0 0 0 0 0];

internalField   nonuniform List<scalar> 
32000
(
0.99998696
0.22372829
0.096436773
0.1144711
0.10828487
0.24913886
0.20661536
0.12468717
0.059854575
0.036614746
0.02067335
0.016513138
0.014228495
0.012482532
0.010625115
0.00831791
0.0056317282
0.0036750175
0.0023217124
0.0011055229
0.00030539963
0.00016341417
0.0004578757
0.0004096973
0.00014525485
0.00068731109
0.0017134687
0.0026560834
0.0035222035
0.0043245219
0.0049703392
0.0054176558
0.0055954251
0.0054147849
0.0048010807
0.0038526501
0.0029751437
0.0020903915
0.0010431744
0.00021230123
0.0015611819
0.0034747695
0.0053168167
0.0082464777
0.010281753
0.015629977
0.013808104
0.0078559369
0.0063403393
0.0030962141
0.0012584171
0.0011022601
0.0027713466
0.0045550506
0.0060785094
0.0075857323
0.0089629437
0.010307511
0.011581946
0.012824573
0.014022958
0.015191636
0.016325362
0.017428596
0.018498086
0.019533504
0.02053101
0.021488952
0.022404947
0.023278029
0.024106634
0.024889813
0.025626281
0.026314783
0.026954084
0.027543478
0.028082623
0.028571325
0.029009336
0.029397392
0.029735662
0.030023971
0.030264844
0.030458314
0.030604377
0.03070667
0.030764489
0.030779023
0.030754027
0.03068933
0.030588105
0.030451887
0.030281404
0.030081124
0.029851624
0.029593993
0.029312682
0.029008086
0.028681201
0.028337564
0.027977281
0.027600289
0.027211109
0.026810384
0.026398762
0.025979766
0.025553778
0.025121389
0.024685352
0.024245724
0.023803559
0.023360372
0.022916151
0.022473122
0.022031678
0.021592324
0.021156952
0.020725739
0.020298947
0.019877898
0.019462569
0.019052775
0.018649296
0.01825257
0.017862139
0.017479515
0.017103628
0.01673545
0.016374797
0.016022343
0.015676727
0.015339931
0.015008742
0.014688062
0.014371286
0.014066543
0.01376358
0.013476108
0.013186808
0.012918718
0.012642356
0.012398543
0.012134309
0.011922999
0.011669894
0.011504926
0.01126031
0.011167246
0.010926682
0.010947025
0.010714465
0.01092147
0.010688239
0.011060853
0.011720157
0.011854743
0.012429191
0.012673313
0.013149934
0.013424156
0.013821605
0.014034806
0.014247284
0.014210556
0.013996009
0.013234986
0.011836931
0.0098275443
0.0071104024
0.0037541728
0.00091951691
0.0052429776
0.010651414
0.016124633
0.021261707
0.025746662
0.030744097
0.036951986
0.043589177
0.051914068
0.061776679
0.074835847
0.090939297
0.11595169
0.15247054
0.19445265
0.24475385
0.30262431
0.37570266
0.45728471
0.56490151
0.65663362
0.75372081
0.67731586
0.42851037
0.091982091
0.066431076
0.28669297
0.1681234
0.40456622
1
0.22382619
0.096392239
0.11459453
0.10814557
0.24619902
0.20249182
0.12142332
0.058467521
0.035734375
0.020136133
0.015806543
0.013507693
0.011819849
0.010083698
0.0079525185
0.005444442
0.0035715105
0.0022647843
0.001088151
0.00029998006
0.00017478617
0.00049565316
0.00051349724
0.00036948472
0.00067700816
0.0015809866
0.002467968
0.0033002892
0.0040833772
0.0047257899
0.0051876469
0.0053979377
0.0052653695
0.0047117358
0.0038153323
0.0029714897
0.002118554
0.0011170338
0.00036297579
0.0015558
0.0034481759
0.0052929914
0.0082312633
0.010277727
0.015632799
0.013854626
0.0079534052
0.0064175537
0.0032289586
0.0014932834
0.0013319234
0.0028576177
0.0046024086
0.0061100006
0.0076083104
0.0089798523
0.010320882
0.011592307
0.012832769
0.014029525
0.015196797
0.016329262
0.017431515
0.018500207
0.019534785
0.020531704
0.021489009
0.022404636
0.023277237
0.024105484
0.024888435
0.025624659
0.026312951
0.026952167
0.027541458
0.028080505
0.028569217
0.029007213
0.029395247
0.029733604
0.030022081
0.030263099
0.030456658
0.03060281
0.030705251
0.030763327
0.030778106
0.030753303
0.030688758
0.03058773
0.030451778
0.030281563
0.030081489
0.0298522
0.029594749
0.029313622
0.02900928
0.028682637
0.028339144
0.027979051
0.027602215
0.027213219
0.026812656
0.026401186
0.025982368
0.025556467
0.025124149
0.024688286
0.024248795
0.023806643
0.023363555
0.022919447
0.022476478
0.022035052
0.021595791
0.021160344
0.020729181
0.020302333
0.019881364
0.019465932
0.019056178
0.018652676
0.018255883
0.017865381
0.017482708
0.017106766
0.016738561
0.016377851
0.016025177
0.015679473
0.015342597
0.015011306
0.01469043
0.014373595
0.014068703
0.013765537
0.013477913
0.013188417
0.012920063
0.012643513
0.012399547
0.012134984
0.01192345
0.011669931
0.011504644
0.011259689
0.011166058
0.01092513
0.010944923
0.010711775
0.010918083
0.01068569
0.011062285
0.011730408
0.011863568
0.012425221
0.012647148
0.013090675
0.013324078
0.013668653
0.013820695
0.013961793
0.013848955
0.013553361
0.012722906
0.011291488
0.0092978717
0.0066727829
0.0035865792
0.0019468683
0.0056741912
0.010718191
0.015858622
0.02068912
0.024922548
0.029668438
0.035546644
0.041818985
0.04968084
0.058980131
0.071269338
0.086440806
0.10997681
0.14416442
0.18351844
0.23097042
0.2861214
0.35644012
0.43610522
0.54212408
0.63487736
0.73423542
0.66443234
0.42309209
0.095207017
0.072317945
0.28736465
0.16845344
0.40444423
0.9999881
0.22386362
0.096352156
0.11473465
0.10801694
0.2459657
0.20258998
0.12161807
0.058572484
0.0357832
0.020163699
0.01580629
0.013500806
0.011812789
0.010080281
0.0079559672
0.0054505817
0.0035781724
0.00227133
0.0010962106
0.0003069615
0.00017128412
0.00049180623
0.00050828198
0.00036267998
0.00067170565
0.0015748952
0.0024617413
0.0032934055
0.004076225
0.0047192861
0.0051826406
0.0053953764
0.0052666192
0.0047169137
0.003823166
0.0029802697
0.0021289482
0.001131743
0.00038066277
0.001555018
0.0034465268
0.0052914518
0.008231654
0.010277988
0.015628063
0.013841678
0.0079479279
0.0064148039
0.0032210826
0.0014765152
0.0013161572
0.0028511922
0.0045988869
0.0061076446
0.0076066131
0.0089787824
0.0103199
0.011591511
0.012832267
0.0140291
0.015196356
0.016328944
0.017431303
0.018499905
0.019534521
0.020531419
0.021488779
0.022404382
0.023277032
0.024105343
0.024888147
0.025624365
0.02631277
0.026951959
0.027541225
0.028080244
0.028568924
0.029007014
0.029395004
0.029733303
0.030021864
0.030262837
0.030456399
0.030602629
0.030704999
0.030763067
0.030777896
0.030753063
0.030688501
0.030587543
0.03045154
0.030281331
0.030081264
0.029852012
0.029594631
0.029313474
0.029009099
0.028682529
0.028339005
0.02797888
0.027602138
0.027213171
0.026812557
0.026401056
0.025982269
0.025556386
0.025124116
0.024688265
0.024248736
0.023806634
0.023363566
0.022919371
0.022476442
0.022035056
0.021595835
0.021160424
0.020729185
0.020302437
0.019881391
0.019466057
0.019056172
0.018652779
0.018255917
0.01786546
0.017482771
0.017106883
0.01673861
0.016377954
0.016025338
0.015679627
0.015342682
0.01501139
0.014690583
0.014373743
0.014068857
0.013765684
0.01347801
0.013188646
0.0129203
0.012643692
0.012399749
0.012135268
0.011923707
0.011670253
0.011505074
0.011260152
0.011166642
0.010925755
0.010945749
0.010712639
0.010919243
0.010687991
0.011068015
0.011740752
0.011876015
0.012438137
0.012660402
0.013103927
0.01333713
0.013681286
0.013832587
0.013972372
0.01385755
0.013558741
0.012723306
0.01128669
0.0092879618
0.0066590311
0.0035651226
0.0019381019
0.0056842892
0.010730187
0.015866292
0.020690271
0.02492238
0.029672718
0.035552101
0.041828189
0.049695694
0.059005115
0.071307382
0.086510083
0.1100906
0.14428794
0.18362906
0.23106509
0.286206
0.35648306
0.4360966
0.5419118
0.63436378
0.73321427
0.66357251
0.42383476
0.10121739
0.076021221
0.28745219
0.16839488
0.40430405
0.99997473
0.22391728
0.096333651
0.11489549
0.10797265
0.24572228
0.20273808
0.12188286
0.05868385
0.035822553
0.020181153
0.015803967
0.013493951
0.011805685
0.010076201
0.0079561419
0.0054548362
0.0035819463
0.0022766699
0.0011025877
0.00031493379
0.00016339147
0.00048376972
0.00049507593
0.00034252409
0.00065836351
0.0015658377
0.0024543515
0.0032857276
0.0040691009
0.0047131542
0.0051779525
0.0053933521
0.0052680335
0.0047229917
0.0038324848
0.0029908498
0.0021419335
0.0011515269
0.00041807653
0.0015594985
0.0034460454
0.0052902405
0.0082321895
0.010278524
0.015622559
0.013822154
0.007926954
0.006401918
0.0031948414
0.0014349702
0.0012757491
0.0028360397
0.0045908774
0.0061022356
0.0076029454
0.0089763204
0.010317809
0.01159008
0.012831147
0.014028106
0.015195591
0.016328359
0.017430759
0.018499384
0.019534111
0.020531125
0.021488527
0.022404098
0.023276789
0.024105094
0.024887968
0.025624255
0.026312582
0.026951752
0.027541057
0.028080113
0.028568758
0.029006799
0.029394877
0.029733123
0.030021615
0.030262682
0.030456162
0.030602342
0.030704767
0.030762863
0.030777656
0.030752806
0.030688196
0.030587276
0.030451337
0.030281036
0.030081001
0.029851715
0.029594302
0.029313206
0.029008797
0.028682253
0.028338795
0.027978596
0.027601854
0.027212856
0.026812311
0.026400835
0.025982015
0.02555616
0.025123793
0.024687958
0.02424854
0.02380639
0.023363295
0.022919197
0.022476192
0.022034826
0.021595579
0.021160259
0.020728996
0.020302229
0.019881167
0.019465876
0.019056041
0.018652629
0.018255809
0.017865269
0.017482587
0.017106745
0.016738523
0.016377802
0.016025237
0.015679518
0.01534264
0.015011351
0.014690534
0.014373696
0.014068862
0.013765709
0.013478059
0.013188638
0.012920394
0.012643775
0.012399913
0.01213549
0.011923956
0.011670493
0.01150541
0.011260533
0.011167251
0.010926424
0.01094653
0.010713602
0.010920474
0.010690184
0.011073693
0.011751105
0.011888729
0.012451527
0.012674232
0.013117932
0.013351153
0.013695093
0.013845781
0.013984708
0.013868135
0.013566119
0.0127253
0.011282435
0.0092760137
0.0066359427
0.0035205295
0.0018636953
0.0056674834
0.010724224
0.015861658
0.020683983
0.024916967
0.02967251
0.03555498
0.04183556
0.049710778
0.059031883
0.071349046
0.086584285
0.11021307
0.14442879
0.18377188
0.23121073
0.28636696
0.35664319
0.43626628
0.54200538
0.63441861
0.73331683
0.66515493
0.42848284
0.11508311
0.082932488
0.28776636
0.1682633
0.40417196
0.99995586
0.22398745
0.096366927
0.11521278
0.10816092
0.24542356
0.20279981
0.12215607
0.058856918
0.035922475
0.020241926
0.015826969
0.013507013
0.011816755
0.010090558
0.0079753929
0.0054747124
0.0035977225
0.0022897704
0.0011129195
0.00032385575
0.00015553623
0.00047751648
0.0004914627
0.00033088332
0.00064029032
0.0015509024
0.0024408697
0.0032742229
0.0040595395
0.0047061265
0.0051744113
0.0053945369
0.0052752715
0.0047367781
0.0038512995
0.0030121258
0.0021680314
0.0011929315
0.00049330874
0.0015747803
0.0034492942
0.0052901241
0.0082330838
0.010279549
0.015617439
0.013804427
0.0079081441
0.0063913287
0.0031729843
0.0014014315
0.0012433616
0.0028250679
0.0045855383
0.0060991809
0.0076009242
0.0089748598
0.010316849
0.011589476
0.012830612
0.014027741
0.015195364
0.016328127
0.017430571
0.018499294
0.019534074
0.020531036
0.021488443
0.022404076
0.023276762
0.024105053
0.024887909
0.025624167
0.026312529
0.026951666
0.027540869
0.028079882
0.028568614
0.029006666
0.029394636
0.029732965
0.030021392
0.030262395
0.030455949
0.03060212
0.030704595
0.030762569
0.030777369
0.030752625
0.030688017
0.030587008
0.030451073
0.030280836
0.030080772
0.029851552
0.029594107
0.029312982
0.029008636
0.028682061
0.028338669
0.027978473
0.027601765
0.027212834
0.026812192
0.026400752
0.025982003
0.025556119
0.025123829
0.024687984
0.024248477
0.023806407
0.023363344
0.022919226
0.02247624
0.022034852
0.021595647
0.021160306
0.020729131
0.020302366
0.019881331
0.019465976
0.019056217
0.018652747
0.018255961
0.017865489
0.017482794
0.01710688
0.016738714
0.016377986
0.016025413
0.015679709
0.015342866
0.015011513
0.01469076
0.014373916
0.014069145
0.013766013
0.013478385
0.013188865
0.01292071
0.012644197
0.012400216
0.012135832
0.011924466
0.011670985
0.011505979
0.011261116
0.011167897
0.010927164
0.010947409
0.010714564
0.010921628
0.010692039
0.011079335
0.011762181
0.011902163
0.012465538
0.012688631
0.013132285
0.0133651
0.013708407
0.013857734
0.013994637
0.013874851
0.013567724
0.012718987
0.01126754
0.0092518681
0.0066004405
0.0034689823
0.0018423926
0.005696466
0.010764487
0.015902297
0.020722046
0.024957444
0.029723469
0.03561505
0.041907705
0.049800768
0.059147128
0.071498852
0.08679534
0.11051271
0.1447824
0.18415622
0.23162753
0.28683003
0.35713648
0.4368081
0.54253395
0.63512127
0.73465763
0.67001146
0.43923492
0.14020879
0.095951975
0.28860868
0.16823086
0.40404349
0.9999256
0.22407831
0.096487282
0.11581223
0.10872702
0.24515086
0.20283341
0.12244737
0.059052922
0.036039452
0.020315645
0.015855818
0.013524142
0.011832382
0.010109405
0.0080008285
0.0055000464
0.0036176341
0.0023055039
0.0011257244
0.00033312173
0.00014918551
0.00047228771
0.00048746063
0.00031922184
0.00062019958
0.0015326939
0.0024258405
0.0032610308
0.004048708
0.0046989785
0.0051720987
0.005398388
0.0052872102
0.0047575089
0.0038797243
0.0030458074
0.0022118926
0.0012605953
0.00061338297
0.001607971
0.0034596001
0.0052934249
0.0082354379
0.01028153
0.015612691
0.013787194
0.0078894358
0.0063816356
0.0031533961
0.001371694
0.0012163947
0.0028161783
0.0045811003
0.0060966218
0.0075994596
0.0089738779
0.010316331
0.011589087
0.012830402
0.014027658
0.015195324
0.016328125
0.01743063
0.018499367
0.01953415
0.020531096
0.021488515
0.022404074
0.023276742
0.024105008
0.02488784
0.025624133
0.026312462
0.026951565
0.027540798
0.028079768
0.028568452
0.029006462
0.029394441
0.029732773
0.030021246
0.03026223
0.03045575
0.030601895
0.030704397
0.0307624
0.030777163
0.030752425
0.030687846
0.030586882
0.030450947
0.030280689
0.03008069
0.029851471
0.029594094
0.02931294
0.029008597
0.028682057
0.028338636
0.027978509
0.027601769
0.027212879
0.026812337
0.026400867
0.025982092
0.02555628
0.025123963
0.024688194
0.024248764
0.023806567
0.023363586
0.022919507
0.02247654
0.022035153
0.021595967
0.021160606
0.020729437
0.020302696
0.019881646
0.019466276
0.019056567
0.018653146
0.018256345
0.01786582
0.017483201
0.017107296
0.016739162
0.016378385
0.016025867
0.015680091
0.015343246
0.015012011
0.014691187
0.01437434
0.014069587
0.013766431
0.013478828
0.013189432
0.012921111
0.012644636
0.012400812
0.012136335
0.011924973
0.011671561
0.011506559
0.011261764
0.011168661
0.01092793
0.010948366
0.010715516
0.010922765
0.010693917
0.01108525
0.011773954
0.011916453
0.012480428
0.012703886
0.013147374
0.013379657
0.013721976
0.013869728
0.014004289
0.013880807
0.013567757
0.01271044
0.011250035
0.0092243985
0.0065641466
0.0034255473
0.0018673204
0.0057524924
0.010825874
0.015960514
0.020776003
0.025013835
0.029792702
0.035694953
0.042002243
0.049916893
0.059293778
0.071686471
0.08705446
0.11087299
0.14520022
0.18460471
0.23210853
0.28736009
0.35770716
0.4374679
0.54330019
0.63647469
0.73770048
0.67969768
0.45887357
0.17769327
0.11683736
0.29037105
0.16840362
0.40391251
0.99987632
0.22419878
0.096747342
0.11687902
0.10992356
0.2449686
0.20287397
0.12277671
0.059269749
0.036162639
0.020393227
0.015885098
0.013541436
0.011848005
0.010128955
0.0080267292
0.0055272575
0.0036387555
0.0023222683
0.0011389257
0.00034327818
0.00014440911
0.00046817817
0.00048302604
0.00030768999
0.00060035089
0.0015149659
0.0024100576
0.003247174
0.0040378926
0.0046924561
0.0051714304
0.0054052485
0.0053039178
0.0047859378
0.0039196875
0.0030964679
0.0022792955
0.0013671344
0.00078701123
0.0016693863
0.0034819823
0.0053033799
0.0082407985
0.010285185
0.015609085
0.013768815
0.0078699503
0.0063712092
0.0031339443
0.0013427437
0.0011903163
0.0028080607
0.0045772635
0.0060945715
0.0075985334
0.0089732886
0.010316067
0.011588941
0.012830396
0.01402771
0.015195354
0.016328253
0.017430742
0.018499514
0.019534214
0.020531163
0.021488626
0.022404169
0.023276762
0.024105012
0.024887884
0.025624088
0.02631239
0.026951465
0.027540669
0.02807967
0.028568384
0.029006433
0.02939436
0.029732603
0.030021084
0.030262103
0.030455707
0.030601886
0.030704258
0.030762339
0.030777177
0.030752409
0.030687882
0.030586948
0.030451026
0.03028081
0.030080755
0.029851608
0.029594302
0.029313155
0.029008852
0.028682382
0.028338999
0.027978847
0.027602118
0.027213234
0.02681273
0.02640137
0.025982568
0.025556735
0.025124494
0.024688666
0.024249316
0.023807198
0.023364156
0.022920097
0.022477136
0.022035768
0.021596528
0.021161316
0.020730087
0.020303373
0.019882328
0.019466984
0.019057178
0.018653786
0.018256996
0.017866499
0.017483828
0.017107912
0.016739794
0.016379108
0.016026518
0.015680799
0.015343901
0.015012559
0.014691793
0.014374963
0.014070205
0.013767107
0.013479458
0.013189996
0.012921736
0.012645252
0.012401427
0.012136977
0.011925619
0.011672207
0.011507244
0.011262477
0.011169455
0.010928708
0.01094934
0.010716543
0.010924013
0.010695735
0.011091444
0.011786537
0.011931663
0.012496289
0.01272009
0.013163424
0.013395229
0.013736692
0.013882771
0.014014955
0.013887817
0.013568933
0.012702962
0.01123388
0.0092008619
0.0065344921
0.0034027416
0.0019372482
0.0058295182
0.01089929
0.016028851
0.020837823
0.025078418
0.029870392
0.035784366
0.042107855
0.050045963
0.059456002
0.071892712
0.087338145
0.11126189
0.14564347
0.18507497
0.23261056
0.28792025
0.35833579
0.4382671
0.54441707
0.63879073
0.74313648
0.69563807
0.4893641
0.22667796
0.14640482
0.29372177
0.1689865
0.40377985
0.99979568
0.22436046
0.097220644
0.11868603
0.11215197
0.24494742
0.20292545
0.12314151
0.059514223
0.036293974
0.020475554
0.015915101
0.013559342
0.011864045
0.010149659
0.0080541996
0.0055561505
0.0036611044
0.0023400257
0.0011532334
0.00035412251
0.00013601972
0.00046347264
0.00048004895
0.0002964161
0.00058069845
0.0014960996
0.0023929913
0.0032328961
0.0040273146
0.0046874227
0.0051738714
0.0054173179
0.0053286632
0.0048270116
0.0039780774
0.0031722512
0.0023808436
0.0015258542
0.0010157869
0.0017760872
0.0035273931
0.0053248661
0.0082524707
0.010292527
0.015607848
0.013749786
0.0078497712
0.006360919
0.0031156225
0.001316033
0.0011687744
0.0028016707
0.004574692
0.0060936168
0.007597948
0.0089731289
0.010316116
0.011589054
0.012830604
0.014027881
0.015195672
0.016328519
0.017430953
0.018499709
0.019534333
0.020531284
0.021488662
0.022404199
0.023276837
0.024105012
0.024887874
0.02562413
0.026312354
0.026951422
0.027540671
0.028079662
0.028568303
0.029006409
0.029394421
0.029732704
0.03002122
0.030262228
0.030455801
0.030602142
0.030704626
0.030762673
0.030777498
0.03075285
0.030688343
0.030587465
0.030451691
0.030281555
0.030081521
0.029852365
0.029595176
0.02931411
0.029009827
0.028683313
0.028340023
0.027980018
0.027603337
0.027214496
0.026813985
0.026402577
0.025983924
0.025558072
0.025125884
0.024690096
0.024250669
0.023808603
0.023365609
0.022921599
0.022478619
0.022037261
0.021598001
0.021162695
0.020731554
0.020304787
0.019883727
0.019468395
0.019058634
0.018655187
0.018258338
0.017867833
0.017485169
0.01710926
0.016741019
0.016380264
0.016027706
0.015681973
0.015345088
0.01501375
0.014692868
0.014375987
0.014071178
0.013768031
0.013480435
0.013190987
0.012922641
0.012646112
0.012402274
0.012137816
0.011926478
0.011673028
0.011508135
0.011263274
0.011170344
0.010929641
0.010950331
0.010717665
0.010925453
0.010697616
0.011098056
0.011799859
0.011947784
0.012513169
0.012737365
0.013180607
0.013411935
0.013752537
0.01389718
0.014027171
0.013896759
0.013572376
0.012698913
0.011222801
0.0091856276
0.006522693
0.0034220386
0.0020939007
0.0059432736
0.010996918
0.016113221
0.020912856
0.025155283
0.029962105
0.035888069
0.042229559
0.050193341
0.059640277
0.072125514
0.087654338
0.11168737
0.14611775
0.18556935
0.23313463
0.28851096
0.35902572
0.43921827
0.54591961
0.64214601
0.75112235
0.71799913
0.53048601
0.28488262
0.18437385
0.29959353
0.17037085
0.40365951
0.99966578
0.22457774
0.097998641
0.12155649
0.11593698
0.24520775
0.20299815
0.12352255
0.059794471
0.036436429
0.020564379
0.015946724
0.013577752
0.011880619
0.010171237
0.0080834659
0.0055864588
0.0036850651
0.0023591294
0.0011686861
0.0003655505
0.00012740828
0.00045725412
0.00047381781
0.00028554785
0.00055633994
0.0014756487
0.0023753771
0.0032185994
0.004017718
0.0046848096
0.0051807047
0.0054375034
0.0053655398
0.0048865346
0.0040632477
0.003284184
0.0025337762
0.0017526997
0.0013191032
0.0019531024
0.0036095061
0.0053679717
0.0082764609
0.010307086
0.015611188
0.013730408
0.0078299798
0.0063512716
0.0031013219
0.0012961087
0.0011541226
0.0027985434
0.0045739004
0.0060936377
0.0075982751
0.0089737336
0.010316655
0.011589646
0.012831127
0.014028334
0.015196051
0.016328809
0.017431183
0.018499841
0.019534445
0.020531327
0.02148876
0.022404226
0.023276805
0.024105053
0.024887856
0.025624136
0.026312393
0.026951493
0.027540788
0.028079831
0.028568576
0.029006661
0.029394809
0.02973326
0.030021869
0.030263017
0.030456639
0.030603015
0.030705742
0.030764004
0.030778951
0.030754398
0.030690113
0.030589289
0.030453583
0.030283647
0.030083831
0.029854803
0.029597676
0.029316808
0.029012643
0.028686287
0.028342966
0.027983124
0.027606555
0.027217697
0.026817332
0.026406043
0.025987381
0.025561597
0.025129425
0.024693683
0.024254277
0.023812223
0.023369173
0.022925169
0.022482264
0.022040839
0.021601593
0.021166278
0.020735019
0.020308204
0.019887146
0.019471695
0.019061873
0.01865837
0.018261507
0.017870834
0.017488116
0.017112133
0.016743827
0.016382976
0.016030275
0.015684432
0.015347483
0.01501606
0.014695074
0.014378132
0.014073202
0.013769939
0.013482183
0.013192685
0.012924323
0.012647577
0.012403699
0.01213916
0.01192772
0.011674211
0.011509266
0.011264392
0.011171415
0.010930735
0.010951594
0.010719022
0.010927178
0.010699794
0.011105104
0.011813837
0.01196468
0.012530856
0.012755665
0.013198976
0.013430064
0.013770114
0.013913574
0.014041818
0.013908821
0.01358052
0.012702059
0.011223912
0.0091902537
0.006548005
0.0035341499
0.0024181313
0.0061371732
0.011143249
0.016231985
0.021015344
0.02525696
0.030080353
0.036018554
0.042380471
0.050373471
0.059862044
0.07240232
0.088023096
0.1121711
0.14663922
0.18609674
0.23367958
0.28911932
0.35974674
0.44025804
0.54768549
0.64627143
0.76108314
0.74526809
0.57938594
0.34876485
0.22917227
0.3089241
0.17313871
0.4035883
0.99946576
0.22486962
0.099188833
0.12574324
0.12176658
0.24593291
0.20312168
0.12388392
0.060120436
0.036592993
0.020662343
0.015980419
0.013597017
0.011897624
0.010193437
0.0081142395
0.005618442
0.0037105163
0.0023792557
0.0011852179
0.00037769758
0.00011883553
0.00044887119
0.00046767854
0.00027285983
0.00053097751
0.0014542013
0.0023570711
0.0032046421
0.0040103123
0.0046865734
0.005194877
0.0054684071
0.0054203338
0.0049711356
0.004188204
0.0034490354
0.0027546258
0.0020654145
0.0017127664
0.0022231983
0.0037512607
0.0054483429
0.0083226884
0.010334969
0.015621928
0.013709775
0.0078111524
0.0063430843
0.0030917795
0.0012877172
0.0011516751
0.0028001883
0.0045758933
0.0060954723
0.0076000857
0.0089751827
0.010317869
0.011590678
0.012831851
0.01402896
0.015196512
0.016329132
0.017431417
0.018499907
0.019534491
0.02053136
0.021488613
0.022404107
0.023276729
0.024105041
0.024887927
0.025624176
0.026312559
0.026951819
0.027541295
0.028080576
0.028569501
0.029007811
0.029396177
0.029734903
0.030023749
0.030265269
0.0304593
0.030605897
0.030708866
0.030767542
0.030782856
0.030758616
0.030694722
0.030594326
0.030458908
0.030289284
0.030089753
0.029861097
0.029604217
0.029323674
0.029019812
0.028693721
0.028350636
0.027990876
0.027614624
0.027226078
0.026825703
0.026414468
0.025996011
0.025570399
0.025138199
0.024702576
0.024263132
0.023821109
0.023378014
0.02293399
0.022491024
0.022049614
0.021610164
0.021174726
0.020743463
0.020316432
0.01989524
0.019479632
0.019069652
0.018665853
0.018268851
0.017878059
0.017494962
0.017118752
0.016750341
0.01638916
0.016036228
0.015690136
0.015352879
0.015021288
0.014700034
0.01438278
0.014077602
0.013774101
0.013486092
0.01319623
0.012927641
0.012650654
0.012406451
0.012141696
0.011930008
0.011676241
0.011511122
0.011266032
0.011172986
0.010932193
0.01095319
0.010720737
0.010929396
0.010702667
0.011112984
0.011828371
0.011982165
0.012549345
0.012774922
0.013218643
0.013450045
0.013790221
0.013933534
0.014061557
0.013928096
0.013599422
0.012722426
0.011252999
0.0092420798
0.0066604571
0.0038399308
0.0030162231
0.0064881336
0.011388632
0.016421543
0.021172896
0.025409154
0.030249186
0.036199888
0.042584868
0.050612303
0.060148885
0.072753424
0.088478778
0.11274915
0.14723456
0.18667132
0.23424308
0.28971888
0.36043472
0.44125026
0.54943562
0.65055471
0.77171935
0.77439323
0.63116929
0.41384162
0.27805987
0.32218717
0.17790708
0.40362862
0.99917799
0.22526381
0.10090841
0.13128439
0.12981272
0.24734555
0.20335451
0.12416556
0.06050525
0.036766932
0.02077185
0.016017103
0.013617262
0.011915493
0.010216645
0.0081468106
0.0056527494
0.0037375396
0.0024009728
0.0012027999
0.00039071531
0.00010741961
0.00044239359
0.00046205819
0.00025692476
0.00050634158
0.0014314719
0.0023386758
0.0031919695
0.0040061567
0.0046946942
0.0052197756
0.0055160472
0.005499299
0.0050937194
0.00436625
0.0036839411
0.0030652403
0.0024815631
0.0022076359
0.0026127623
0.0039850232
0.0055886875
0.0084054917
0.010385082
0.015643231
0.01368666
0.0077931246
0.0063374148
0.0030880438
0.001292355
0.001165421
0.0028079142
0.0045813712
0.006099758
0.0076033166
0.0089777433
0.010319921
0.011592105
0.012832983
0.014029782
0.015196965
0.016329313
0.017431343
0.018499766
0.019534272
0.02053103
0.021488355
0.022403896
0.023276607
0.024105045
0.024888128
0.025624661
0.026313241
0.026952836
0.027542777
0.028082578
0.028572024
0.029010887
0.029399793
0.029739116
0.030028659
0.030270771
0.030465546
0.030612963
0.030716614
0.030776001
0.030792211
0.03076864
0.030705444
0.030605899
0.030471261
0.030302283
0.03010357
0.029875503
0.029619359
0.029339293
0.029036026
0.028710524
0.028368017
0.028008673
0.027632659
0.027244546
0.026844706
0.026433803
0.026015346
0.025590036
0.02515803
0.024722457
0.024283155
0.023841065
0.02339796
0.022953725
0.022510722
0.022069068
0.021629612
0.021193819
0.020762235
0.020334883
0.019913308
0.01949736
0.019086995
0.018682844
0.018285143
0.017893988
0.0175106
0.017133691
0.016764662
0.016403141
0.016049558
0.015702909
0.015365054
0.015032815
0.014711061
0.014393153
0.014087302
0.013783121
0.013494528
0.013204006
0.012934759
0.012657132
0.012412233
0.012146814
0.011934603
0.011680114
0.011514473
0.011268894
0.011175553
0.010934325
0.010955385
0.010723199
0.01093265
0.010707205
0.011122408
0.011842968
0.011999602
0.012568185
0.012795329
0.013240274
0.013473258
0.013815156
0.01396062
0.014091738
0.01396368
0.013643178
0.012782051
0.011345087
0.0093970072
0.006953994
0.0044870668
0.004012475
0.0071319423
0.011833216
0.016754515
0.02144313
0.025660953
0.030517135
0.036477411
0.042888868
0.050955982
0.060550519
0.073230978
0.089078674
0.11348102
0.14795229
0.18732559
0.23483437
0.29028537
0.36100997
0.44201337
0.55078396
0.654151
0.78128409
0.80160246
0.68032694
0.47543819
0.32765002
0.33898722
0.18502061
0.4038479
0.99879335
0.22579959
0.10325953
0.13795738
0.13973517
0.24963629
0.20379211
0.12428735
0.060968102
0.036961222
0.020895839
0.01605798
0.01363871
0.011933802
0.010241048
0.0081809878
0.005689289
0.0037666192
0.0024245643
0.0012214655
0.00040458364
9.4852432e-05
0.00043511645
0.00045685268
0.00024315267
0.00047881323
0.001408307
0.0023204431
0.0031815527
0.0040071025
0.0047119866
0.0052593448
0.0055869776
0.0056120941
0.005266368
0.0046124667
0.0040090686
0.0034850166
0.0030147013
0.0028137794
0.0031401856
0.0043400383
0.0058169885
0.0085444161
0.010468178
0.015677879
0.013658788
0.0077751885
0.00633401
0.0030918062
0.0013154377
0.0011968572
0.0028240119
0.0045911527
0.0061070165
0.0076086622
0.0089818431
0.010322778
0.011594195
0.012834389
0.014030482
0.015197215
0.016329174
0.017430926
0.018499224
0.019533548
0.020530291
0.021487746
0.022403508
0.023276518
0.024105316
0.024888858
0.025625941
0.026315221
0.026955594
0.027546361
0.028087038
0.028577558
0.029017545
0.029407634
0.029748165
0.030038953
0.030282439
0.030478518
0.030627343
0.030732498
0.030793236
0.030810943
0.030788972
0.030727065
0.0306289
0.030495784
0.030328152
0.030130693
0.029903925
0.029648983
0.029370185
0.029067866
0.028743359
0.02840189
0.028043592
0.027668316
0.02728082
0.026881528
0.026471252
0.026053337
0.025628149
0.025196647
0.02476114
0.024322093
0.02388017
0.023436933
0.022992593
0.022549221
0.022107286
0.021667359
0.021231317
0.020799178
0.020371446
0.019948984
0.019532432
0.019121228
0.018716421
0.01831791
0.017925666
0.017541395
0.017163642
0.016793427
0.016430817
0.016076243
0.015728459
0.015389515
0.015055933
0.014733037
0.014413903
0.014106855
0.013801354
0.013511379
0.013219566
0.012948988
0.012669985
0.012423803
0.012156853
0.011943314
0.011687622
0.01152075
0.011273879
0.011179774
0.010937891
0.010958782
0.010726779
0.010937623
0.010714252
0.011134096
0.011857308
0.012016489
0.012586962
0.012816817
0.013264838
0.013502074
0.013849305
0.014002262
0.014143562
0.014031502
0.013736868
0.012920246
0.011560262
0.0097470237
0.0075663372
0.0056166429
0.0055088816
0.0082420703
0.012625558
0.017349924
0.021923548
0.026097692
0.030963339
0.03692625
0.04336635
0.051478884
0.061143258
0.073914991
0.089907215
0.11445626
0.14887088
0.18812067
0.23549115
0.29082131
0.36141682
0.44238281
0.55135229
0.65623919
0.78813509
0.8236173
0.72232628
0.52969217
0.37466555
0.35808282
0.19431266
0.40427904
0.99831018
0.2265227
0.10629082
0.14537841
0.15077256
0.25287292
0.20454657
0.12422406
0.061535415
0.037179807
0.021037778
0.016104056
0.013661655
0.011952634
0.010266334
0.0082170523
0.0057283326
0.003797989
0.0024497232
0.0012417522
0.00041931036