/*--------------------------------*- C++ -*----------------------------------*\
| =========                 |                                                 |
| \\      /  F ield         | OpenFOAM: The Open Source CFD Toolbox           |
|  \\    /   O peration     | Version:  2.4.0                                 |
|   \\  /    A nd           | Web:      www.OpenFOAM.org                      |
|    \\/     M anipulation  |                                                 |
\*---------------------------------------------------------------------------*/
FoamFile
{
    version     2.0;
    format      ascii;
    class       volScalarField;
    location    "20000";
    object      Q8;
}
// * * * * * * * * * * * * * * * * * * * * * * * * * * * * * * * * * * * * * //

dimensions      [0 0 0 0 0 0 0];

internalField   nonuniform List<scalar> 
32000
(
4.9133454e-06
1.5943417e-06
1.2686708e-05
1.3577841e-05
9.2943736e-06
2.2511181e-07
4.5430352e-06
6.1023744e-06
1.631829e-06
6.5394957e-07
2.2751583e-07
1.6563112e-07
1.2903795e-07
1.0157944e-07
7.5160472e-08
4.8974028e-08
2.690397e-08
1.5259789e-08
9.0406035e-09
4.2149622e-09
1.6963889e-09
6.0823475e-11
3.0716505e-10
1.2259942e-09
5.0736167e-09
1.3496878e-08
2.5949223e-08
3.9867244e-08
5.5191102e-08
7.1298556e-08
8.5141716e-08
9.4561761e-08
9.672907e-08
8.9451365e-08
7.2890641e-08
5.2390563e-08
3.5133765e-08
1.9191663e-08
3.0044572e-09
1.0783792e-08
2.1251867e-08
2.662543e-08
2.7461496e-08
2.0403949e-08
1.3449713e-08
1.3075877e-08
6.911745e-08
1.3566695e-07
1.3476072e-07
1.5792592e-07
1.5001035e-07
1.5073589e-07
1.372579e-07
1.2760434e-07
1.1188541e-07
9.7750355e-08
8.09064e-08
6.4502065e-08
4.6688914e-08
2.87721e-08
1.0004343e-08
9.0192534e-09
2.8536657e-08
4.8206174e-08
6.803048e-08
8.7750171e-08
1.0720259e-07
1.2609687e-07
1.4421913e-07
1.6135779e-07
1.7735273e-07
1.9205476e-07
2.0533623e-07
2.170784e-07
2.2719248e-07
2.3579843e-07
2.4293323e-07
2.484622e-07
2.5230742e-07
2.545263e-07
2.5517319e-07
2.5428319e-07
2.519872e-07
2.4839784e-07
2.4356884e-07
2.3766401e-07
2.3080554e-07
2.2307181e-07
2.1460499e-07
2.0552963e-07
1.9599218e-07
1.8609931e-07
1.7594613e-07
1.6564545e-07
1.5533718e-07
1.4505637e-07
1.34913e-07
1.2498936e-07
1.1527473e-07
1.058543e-07
9.6858926e-08
8.8272837e-08
8.0091418e-08
7.2363675e-08
6.5089663e-08
5.827681e-08
5.1946688e-08
4.6073241e-08
4.0657976e-08
3.5691111e-08
3.1151264e-08
2.7015844e-08
2.3266305e-08
1.9881185e-08
1.68414e-08
1.4126277e-08
1.1711517e-08
9.5853136e-09
7.7184649e-09
6.0949561e-09
4.6955496e-09
3.4986416e-09
2.4783612e-09
1.6221464e-09
9.0641547e-10
3.2250088e-10
1.5074185e-10
5.2170468e-10
8.0991605e-10
1.0170853e-09
1.1660132e-09
1.25399e-09
1.3058427e-09
1.3118825e-09
1.29908e-09
1.2513481e-09
1.2013889e-09
1.1233976e-09
1.0562236e-09
9.6525861e-10
8.9632576e-10
8.0572603e-10
7.4618453e-10
6.659762e-10
6.2472086e-10
5.6398571e-10
5.4947083e-10
5.1972381e-10
5.4640999e-10
5.7335265e-10
6.8409177e-10
8.4759662e-10
1.1756537e-09
1.6924785e-09
6.3727722e-10
1.6659848e-09
3.7893965e-09
5.4769295e-09
6.5125903e-09
6.3189598e-09
5.3367042e-09
3.344289e-09
1.276264e-09
7.9885028e-12
1.3261175e-09
7.7739541e-09
2.1473516e-08
4.1759814e-08
6.3300691e-08
7.4400218e-08
5.2862054e-08
2.7643809e-08
2.1151934e-07
5.1473316e-07
9.3951246e-07
1.4391354e-06
2.1137508e-06
3.0874312e-06
4.3671509e-06
6.2234649e-06
8.8279968e-06
1.2872493e-05
1.8817008e-05
2.9903735e-05
5.0685352e-05
8.3451582e-05
0.00013574594
0.00021565241
0.00034727962
0.00054083107
0.00086386484
0.001214121
0.0016199988
0.0013140696
0.00064166903
0.00015053176
7.0316379e-05
7.8679369e-06
1.9245644e-05
1.0270764e-06
0.00012240122
7.0823864e-06
0.00014423317
0.00019975659
0.00013653019
2.7119542e-06
2.2438205e-05
1.0380261e-05
6.8986066e-06
3.8718094e-06
1.631907e-06
6.1780408e-07
3.4818529e-07
2.6178792e-07
2.346895e-07
2.1038399e-07
1.5781553e-07
9.9806493e-08
6.0212965e-08
3.1667008e-08
5.2502035e-09
2.0843e-08
5.2251227e-08
9.1020101e-08
1.3832266e-07
1.8904962e-07
2.1985538e-07
2.2581642e-07
2.1913883e-07
1.9686899e-07
1.4971476e-07
7.8677604e-08
1.584745e-08
1.2393565e-07
2.1803651e-07
2.5765648e-07
2.6645994e-07
2.8481947e-07
3.1582014e-07
3.2767615e-07
3.4230346e-07
3.0974282e-07
2.8975077e-07
1.6774792e-07
1.0251126e-07
3.1384806e-07
1.3716406e-06
2.7152169e-06
2.7682641e-06
3.3749939e-06
3.4119193e-06
3.6557501e-06
3.6459464e-06
3.7270739e-06
3.7021983e-06
3.71366e-06
3.6765339e-06
3.6468588e-06
3.587192e-06
3.5186062e-06
3.4244194e-06
3.3123862e-06
3.1752013e-06
3.0160733e-06
2.8322302e-06
2.6256729e-06
2.3971526e-06
2.1503436e-06
1.8881249e-06
1.6138067e-06
1.3301771e-06
1.0402295e-06
7.4701244e-07
4.5383148e-07
1.6371781e-07
1.2453829e-07
4.1026988e-07
6.8790208e-07
9.5326431e-07
1.2044864e-06
1.4399268e-06
1.6575125e-06
1.8563448e-06
2.0361006e-06
2.1951452e-06
2.3335125e-06
2.4515473e-06
2.5482536e-06
2.6241856e-06
2.6801151e-06
2.7168204e-06
2.7355123e-06
2.7367727e-06
2.7217827e-06
2.6927716e-06
2.6501522e-06
2.5956306e-06
2.5309837e-06
2.4560568e-06
2.3727431e-06
2.2844278e-06
2.1912846e-06
2.0936981e-06
1.9934932e-06
1.8913777e-06
1.7883735e-06
1.6857196e-06
1.5837486e-06
1.4833029e-06
1.3850087e-06
1.289197e-06
1.1962521e-06
1.1064522e-06
1.020093e-06
9.3746467e-07
8.5872663e-07
7.8404418e-07
7.136238e-07
6.4738338e-07
5.8540252e-07
5.2765498e-07
4.7399795e-07
4.242327e-07
3.7831152e-07
3.3598949e-07
2.9725681e-07
2.6185419e-07
2.2967689e-07
2.004845e-07
1.7422983e-07
1.5055967e-07
1.2949635e-07
1.1058378e-07
9.3980178e-08
7.9160447e-08
6.636794e-08
5.4965781e-08
4.5369819e-08
3.6802574e-08
2.9859837e-08
2.357833e-08
1.8784908e-08
1.4296577e-08
1.1191272e-08
8.0329966e-09
6.1873275e-09
3.9210085e-09
2.9209761e-09
1.0683254e-09
4.0311644e-10
1.812028e-09
3.1965749e-09
7.6283283e-09
1.5077218e-08
1.2240805e-08
2.0398234e-09
2.3226857e-09
9.390748e-09
1.1930723e-08
1.3328986e-08
1.1718806e-08
7.8901544e-09
3.0236386e-09
4.4276621e-11
5.4809618e-09
3.4842795e-08
1.1245523e-07
2.6877826e-07
5.4093412e-07
9.7051755e-07
1.5901596e-06
2.4265284e-06
3.4206359e-06
4.4448627e-06
5.3675896e-06
6.5146175e-06
8.1502594e-06
1.0296362e-05
1.2985135e-05
1.6760798e-05
2.2225351e-05
3.0197466e-05
4.4575615e-05
6.9141301e-05
0.0001045982
0.00015256534
0.00022334588
0.000338228
0.00051267224
0.00080226367
0.0011334226
0.001438713
0.0005866206
0.0015173934
0.0034271473
0.0024739088
0.0017071813
0.00040326428
0.00039700059
1.9764836e-05
0.00051456149
1.8865389e-05
0.00052043682
0.0008807911
0.0006459136
1.6681496e-05
9.436301e-05
4.723983e-05
3.1705134e-05
1.8700394e-05
7.9041355e-06
3.1539784e-06
1.8406505e-06
1.3995337e-06
1.2342199e-06
1.0812337e-06
7.9930719e-07
5.0425921e-07
3.0449688e-07
1.5860282e-07
2.7231697e-08
1.0072497e-07
2.5206076e-07
4.3402716e-07
6.5181847e-07
8.7668755e-07
9.9930088e-07
9.9883546e-07
9.3354893e-07
7.9088326e-07
5.3457717e-07
1.7324076e-07
2.8357898e-07
7.8421982e-07
1.1996716e-06
1.3535881e-06
1.3622467e-06
1.415638e-06
1.5209287e-06
1.5443917e-06
1.5774865e-06
1.4095704e-06
1.287775e-06
7.2366314e-07
3.5615959e-07
1.5855884e-06
6.5706415e-06
1.2660467e-05
1.3045141e-05
1.5688205e-05
1.592422e-05
1.6966695e-05
1.6957893e-05
1.7295757e-05
1.7199665e-05
1.7236815e-05
1.7073197e-05
1.6927696e-05
1.665295e-05
1.6329363e-05
1.5891012e-05
1.5366679e-05
1.4727543e-05
1.3985694e-05
1.3130549e-05
1.2170496e-05
1.1110122e-05
9.9657009e-06
8.7507e-06
7.4802242e-06
6.1671508e-06
4.8253115e-06
3.468963e-06
2.1134774e-06
7.7274251e-07
5.6103158e-07
1.8834463e-06
3.1665514e-06
4.3928994e-06
5.5538001e-06
6.6417662e-06
7.6474414e-06
8.5665592e-06
9.3975477e-06
1.0133076e-05
1.0773209e-05
1.1319323e-05
1.1767133e-05
1.2119258e-05
1.2379165e-05
1.2550294e-05
1.2638274e-05
1.2645796e-05
1.2578517e-05
1.2446102e-05
1.2250984e-05
1.2000896e-05
1.170376e-05
1.1359255e-05
1.0975935e-05
1.0569052e-05
1.0139795e-05
9.6898837e-06
9.2275635e-06
8.7562676e-06
8.280703e-06
7.806436e-06
7.3352271e-06
6.8708162e-06
6.416148e-06
5.972777e-06
5.5425457e-06
5.1267311e-06
4.7267407e-06
4.3439423e-06
3.9790512e-06
3.6329262e-06
3.3064151e-06
2.9992481e-06
2.7117575e-06
2.4438279e-06
2.1947936e-06
1.9638293e-06
1.7506539e-06
1.5542101e-06
1.3743776e-06
1.2100601e-06
1.0606701e-06
9.2521469e-07
8.0333458e-07
6.9355583e-07
5.9580879e-07
5.0819479e-07
4.3119159e-07
3.6266321e-07
3.0338303e-07
2.5081993e-07
2.06405e-07
1.6709619e-07
1.3500492e-07
1.0640036e-07
8.4264821e-08
6.4073936e-08
4.9719626e-08
3.5799493e-08
2.7206443e-08
1.7557712e-08
1.2771239e-08
5.2833986e-09
1.9225676e-09
6.6657068e-09
1.3518504e-08
3.1041934e-08
6.472843e-08
5.1240713e-08
1.1237017e-08
7.6349463e-09
3.5064327e-08
4.5777037e-08
5.0834083e-08
4.4548351e-08
2.8975104e-08
9.7076994e-09
1.0282809e-09
2.7149058e-08
1.6397106e-07
5.2189683e-07
1.2454766e-06
2.5184029e-06
4.5516396e-06
7.5361525e-06
1.16242e-05
1.6627801e-05
2.1952359e-05
2.7078962e-05
3.3363569e-05
4.2291915e-05
5.4032576e-05
6.8921359e-05
8.9855803e-05
0.00011988184
0.00016422791
0.00024098145
0.00037303063
0.00056896251
0.0008401433
0.0012444882
0.0018850688
0.0028706374
0.0044324736
0.0063754434
0.008126984
0.0051757979
0.0042532225
0.013374955
0.01069823
0.0075775383
0.0019978237
0.0018116329
7.7919167e-05
0.0012644973
5.3945625e-05
0.0011439819
0.0024044254
0.0018802123
6.2200742e-05
0.00025132778
0.00016070336
7.9600841e-05
5.1168094e-05
2.201493e-05
8.885295e-06
5.1829426e-06
3.94688e-06
3.4867452e-06
3.0628522e-06
2.2739369e-06
1.437623e-06
8.6614923e-07
4.4622801e-07
6.7987641e-08
3.0071501e-07
7.3655409e-07
1.2583334e-06
1.8796646e-06
2.5181419e-06
2.8663642e-06
2.8607344e-06
2.6651756e-06
2.2466082e-06
1.5065283e-06
4.6959229e-07
8.3025206e-07
2.2446543e-06
3.4135886e-06
3.8573762e-06
3.8855246e-06
4.0304292e-06
4.3055767e-06
4.3585487e-06
4.4146943e-06
3.9295436e-06
3.5167754e-06
1.9040452e-06
6.4142066e-07
4.9532984e-06
1.9208273e-05
3.6221781e-05
3.7633031e-05
4.4670575e-05
4.5423446e-05
4.8105571e-05
4.8089264e-05
4.8882674e-05
4.8573331e-05
4.8559811e-05
4.802977e-05
4.7512834e-05
4.6650484e-05
4.5633026e-05
4.429976e-05
4.271781e-05
4.0817513e-05
3.8628138e-05
3.6126085e-05
3.3334523e-05
3.0269633e-05
2.6976397e-05
2.3493769e-05
1.9863923e-05
1.6123599e-05
1.2312298e-05
8.4704029e-06
4.6418335e-06
8.6435356e-07
2.8939205e-06
6.6119871e-06
1.0202965e-05
1.3627486e-05
1.6861128e-05
1.9883444e-05
2.2669958e-05
2.5208825e-05
2.7495302e-05
2.951137e-05
3.1257184e-05
3.2736208e-05
3.3938778e-05
3.4872366e-05
3.5547266e-05
3.5973549e-05
3.6166879e-05
3.6136123e-05
3.589762e-05
3.5477081e-05
3.4883373e-05
3.4137805e-05
3.326163e-05
3.2255699e-05
3.1143563e-05
2.9966672e-05
2.8729709e-05
2.7437435e-05
2.6111942e-05
2.4763608e-05
2.3405632e-05
2.2052708e-05
2.0710373e-05
1.9388881e-05
1.8096124e-05
1.6836569e-05
1.5615387e-05
1.443604e-05
1.3302432e-05
1.2218229e-05
1.1185459e-05
1.0206482e-05
9.2833731e-06
8.4155286e-06
7.603676e-06
6.8473774e-06
6.1447375e-06
5.4935219e-06
4.8927327e-06
4.3395231e-06
3.8333335e-06
3.3711931e-06
2.9512649e-06
2.5709033e-06
2.2288066e-06
1.9210978e-06
1.6472186e-06
1.4022172e-06
1.1869219e-06
9.9586605e-07
8.3054407e-07
6.8460714e-07
5.611374e-07
4.5261704e-07
3.6374898e-07
2.8542575e-07
2.2440057e-07
1.6978672e-07
1.3039448e-07
9.3454574e-08
6.9938573e-08
4.5109212e-08
3.1912909e-08
1.347021e-08
3.9135526e-09
1.6659508e-08
3.6421292e-08
7.9931004e-08
1.717047e-07
1.3167516e-07
2.7963025e-08
2.7717267e-08
9.7616727e-08
1.2682533e-07
1.3565929e-07
1.1551998e-07
6.9415887e-08
1.6867382e-08
5.0399227e-09
9.3719e-08
5.1688083e-07
1.5838883e-06
3.7008434e-06
7.382023e-06
1.3208215e-05
2.1709785e-05
3.3277086e-05
4.7397632e-05
6.2386329e-05
7.6971301e-05
9.4759761e-05
0.00011995459
0.00015284869
0.0001946759
0.00025325322
0.00033695141
0.00046069952
0.00067301126
0.0010358142
0.0015697838
0.0023067677
0.0034008855
0.005118851
0.0077529642
0.011855656
0.016954656
0.021325006
0.013969477
0.010084265
0.033567227
0.028337875
0.020533052
0.0059407519
0.0051037626
0.00015777567
0.0023107802
0.00018467272
0.0019031495
0.0051527627
0.0042670987
0.00017622978
0.00050882381
0.00041593664
0.00015400114
0.00010960437
4.8182992e-05
1.9731031e-05
1.1516425e-05
8.7718537e-06
7.745878e-06
6.8062912e-06
5.0663157e-06
3.207986e-06
1.924783e-06
9.7711022e-07
1.234115e-07
7.1024434e-07
1.6932714e-06
2.8652535e-06
4.2514527e-06
5.6661613e-06
6.4368494e-06
6.4143781e-06
5.9573983e-06
4.9998628e-06
3.3323324e-06
1.0117942e-06
1.8716538e-06
4.9827917e-06
7.5385227e-06
8.5288654e-06
8.6007712e-06
8.904622e-06
9.4639403e-06
9.5470998e-06
9.5875739e-06
8.4797501e-06
7.4105846e-06
3.7716756e-06
4.5268376e-07
1.2188645e-05
4.3815629e-05
8.1170345e-05
8.4908243e-05
9.9583799e-05
0.00010135094
0.0001067412
0.00010667577
0.00010809204
0.00010729658
0.00010700722
0.00010566584
0.00010428247
0.00010216886
9.9680087e-05
9.6507501e-05
9.2774935e-05
8.8350644e-05
8.3291689e-05
7.7557964e-05
7.1201143e-05
6.4263232e-05
5.6842266e-05
4.9025592e-05
4.0905954e-05
3.2565337e-05
2.4091145e-05
1.5573823e-05
7.1114198e-06
1.2240568e-06
9.5181062e-06
1.7696889e-05
2.5557285e-05
3.3034714e-05
4.0076718e-05
4.663862e-05
5.2671159e-05
5.8149649e-05
6.3061905e-05
6.7374782e-05
7.1088387e-05
7.4208986e-05
7.6721749e-05
7.8642778e-05
7.9995698e-05
8.0804497e-05
8.1102382e-05
8.0912368e-05
8.0271145e-05
7.9231964e-05
7.7818917e-05
7.6078202e-05
7.405404e-05
7.1752422e-05
6.9223753e-05
6.6555903e-05
6.3762723e-05
6.0854086e-05
5.7876283e-05
5.4854051e-05
5.1815731e-05
4.8791806e-05
4.5796093e-05
4.2850099e-05
3.9970416e-05
3.7167476e-05
3.4451992e-05
3.1831674e-05
2.9315134e-05
2.6909729e-05
2.4620052e-05
2.2451235e-05
2.0407072e-05
1.8486571e-05
1.6690946e-05
1.501888e-05
1.3466251e-05
1.2028223e-05
1.070219e-05
9.4821202e-06
8.3663701e-06
7.3485394e-06
6.4242854e-06
5.5879705e-06
4.8362344e-06
4.1609437e-06
3.5602647e-06
3.0239389e-06
2.5528976e-06
2.1359834e-06
1.7753527e-06
1.4582775e-06
1.1899815e-06
9.5559907e-07
7.6342946e-07
5.9571133e-07
4.6456753e-07
3.490973e-07
2.6510603e-07
1.8854424e-07
1.3888871e-07
8.9076903e-08
6.1473604e-08
2.6202694e-08
6.1815598e-09
3.2032694e-08
7.4353054e-08
1.5897689e-07
3.5091367e-07
2.6343523e-07
5.2574705e-08
7.116198e-08
2.0998838e-07
2.6936724e-07
2.7726714e-07
2.265604e-07
1.2108995e-07
1.0702216e-08
1.5857217e-08
2.4912737e-07
1.2701906e-06
3.7561711e-06
8.5991727e-06
1.6924913e-05
2.9989048e-05
4.8944078e-05
7.4590366e-05
0.00010582979
0.00013899912
0.00017161311
0.00021123568
0.00026695072
0.00033935136
0.00043155007
0.00056011894
0.00074315181
0.0010137262
0.0014741296
0.0022544634
0.0033972586
0.0049725352
0.0073012289
0.01092733
0.01646168
0.024947459
0.035473431
0.044192652
0.030080064
0.01750474
0.065073901
0.058187046
0.043385864
0.013706945
0.011305689
0.00016034319
0.0033652582
0.00057945574
0.0025351309
0.0095427966
0.008321112
0.00042348833
0.00084939827
0.00090665947
0.00025048087
0.00020204444
9.1069689e-05
3.7949737e-05
2.2197913e-05
1.6905361e-05
1.4901141e-05
1.3074745e-05
9.7457629e-06
6.1788008e-06
3.6872244e-06
1.8385565e-06
1.7412111e-07
1.4547715e-06
3.3676461e-06
5.63781e-06
8.3004463e-06
1.0994005e-05
1.2453906e-05
1.2383439e-05
1.1453984e-05
9.559823e-06
6.3168712e-06
1.8422644e-06
3.6598109e-06
9.5350491e-06
1.4322801e-05
1.620471e-05
1.6351769e-05
1.6881035e-05
1.7837309e-05
1.7906972e-05
1.7802707e-05
1.5589306e-05
1.3221539e-05
6.0831146e-06
1.322413e-06
2.5937741e-05
8.5940013e-05
0.00015680031
0.00016499445
0.00019131333
0.00019475775
0.00020403282
0.00020378336
0.00020584883
0.00020407701
0.00020302426
0.00020011114
0.0001969989
0.00019254723
0.00018732615
0.00018082525
0.00017324304
0.00016436473
0.00015428912
0.00014296203
0.0001304833
0.00011694384
0.0001025293
8.7407057e-05
7.1753111e-05
5.5725066e-05
3.9489488e-05
2.3220545e-05
7.1076057e-06
8.7594401e-06
2.4543511e-05
4.0030651e-05
5.4842664e-05
6.8894376e-05
8.2089692e-05
9.4345621e-05
0.00010557713
0.00011573962
0.00012480796
0.00013273119
0.00013950949
0.00014515229
0.00014964368
0.00015301391
0.00015530944
0.00015657979
0.00015688502
0.00015627612
0.0001548235
0.00015262167
0.00014972556
0.00014622142
0.00014218791
0.00013764478
0.00013268422
0.00012746653
0.0001220251
0.00011637724
0.00011060622
0.00010476247
9.8898677e-05
9.3069124e-05
8.730242e-05
8.1638053e-05
7.6105683e-05
7.0726096e-05
6.5518705e-05
6.0498009e-05
5.5680264e-05
5.1078289e-05
4.6701142e-05
4.2558035e-05
3.8654977e-05
3.4990539e-05
3.1566345e-05
2.8379201e-05
2.5421382e-05
2.2683795e-05
2.0160774e-05
1.7841301e-05
1.5721506e-05
1.378932e-05
1.2036183e-05
1.0451511e-05
9.028136e-06
7.7512542e-06
6.6163846e-06
5.6050447e-06
4.7175934e-06
3.9341545e-06
3.2570729e-06
2.6640969e-06
2.1626978e-06
1.7272298e-06
1.3702469e-06
1.0615759e-06
8.1991445e-07
6.1038086e-07
4.5733103e-07
3.2148278e-07
2.3248389e-07
1.4737907e-07
9.9149125e-08
4.2318766e-08
8.1586133e-09
5.1267829e-08
1.2593031e-07
2.6596633e-07
6.0617112e-07
4.4914414e-07
8.2598361e-08
1.4719526e-07
3.8144251e-07
4.8035612e-07
4.7333902e-07
3.6403293e-07
1.5858203e-07
3.7206587e-08
3.9978125e-08
5.6158236e-07
2.6780336e-06
7.6637908e-06
1.720757e-05
3.3433337e-05
5.8688989e-05
9.5139276e-05
0.00014422859
0.00020393311
0.00026750044
0.00033070199
0.00040723299
0.00051379206
0.00065181802
0.0008277308
0.0010719366
0.0014182919
0.0019297764
0.0027926112
0.0042416199
0.0063577213
0.0092738266
0.01356587
0.020193063
0.03025075
0.045439042
0.064240675
0.079525964
0.056777327
0.023579132
0.10685342
0.10182935
0.078538513
0.027046825
0.021602561
0.0001615727
0.003847627
0.001533614
0.0026047317
0.016049556
0.014653678
0.00091886953
0.0011968014
0.0017569165
0.00035262874
0.000335113
0.00015550147
6.60526e-05
3.874833e-05
2.950143e-05
2.5945684e-05
2.2718742e-05
1.6951497e-05
1.0759082e-05
6.3790277e-06
3.1142413e-06
1.7615919e-07
2.7063138e-06
6.0747414e-06
1.0053637e-05
1.4676684e-05
1.9307088e-05
2.1802454e-05
2.1629193e-05
1.9920367e-05
1.6532583e-05
1.0832637e-05
3.0381137e-06
6.4401839e-06
1.6446321e-05
2.4525052e-05
2.7740551e-05
2.8005179e-05
2.8810432e-05
3.0247628e-05
3.0177679e-05
2.9639049e-05
2.5581276e-05
2.0850665e-05
8.0687047e-06
6.7053246e-06
4.9983474e-05
0.00015219205
0.00027396344
0.00028982839
0.0003323318
0.00033822485
0.00035248326
0.00035171581
0.00035415235
0.00035056135
0.00034782853
0.00034210642
0.00033585425
0.0003273692
0.00031747493
0.00030541122
0.00029146643
0.00027532913
0.00025715761
0.00023689318
0.00021471558
0.0001907953
0.00016545514
0.00013898395
0.00011167866
8.3819951e-05
5.5692287e-05
2.7596927e-05
1.3264603e-07
2.7491194e-05
5.4669955e-05
8.1129679e-05
0.00010632582
0.00013015554
0.000152464
0.00017310666
0.00019195225
0.00020893438
0.00022400363
0.00023709219
0.00024820388
0.00025734999
0.00026452434
0.00026977963
0.00027319749
0.00027487037
0.00027489724
0.00027337759
0.00027043368
0.00026621684
0.00026083661
0.00025443923
0.00024715107
0.00023902017
0.00023019844
0.00022094919
0.00021134173
0.0002014044
0.00019127163
0.00018103591
0.00017078548
0.00016060726
0.00015055479
0.00014069308
0.0001310698
0.00012172228
0.00011268222
0.00010397448
9.5626378e-05
8.7658017e-05
8.0085377e-05
7.2923284e-05
6.6180049e-05
5.9853818e-05
5.3946159e-05
4.8450425e-05
4.3353435e-05
3.863952e-05
3.4297937e-05
3.0310298e-05
2.6668674e-05
2.3352427e-05
2.0346295e-05
1.763217e-05
1.5196604e-05
1.3014961e-05
1.1078e-05
9.3554917e-06
7.8458289e-06
6.5167903e-06
5.3697916e-06
4.3693688e-06
3.5247018e-06
2.7955341e-06
2.1986018e-06
1.6873659e-06
1.2874192e-06
9.460454e-07
6.965655e-07
4.8108347e-07
3.3956125e-07
2.1079013e-07
1.3752603e-07
5.8130276e-08
9.1282292e-09
6.9825852e-08
1.8296946e-07
3.8699593e-07
9.228573e-07
6.8052958e-07
1.1320334e-07
2.6184557e-07
6.1067387e-07
7.498587e-07
6.985017e-07
4.865835e-07
1.2846658e-07
1.7627967e-07
8.4108695e-08
1.1406703e-06
5.1107182e-06
1.4166165e-05
3.1194855e-05
5.9815139e-05
0.0001039959
0.00016740535
0.0002524182
0.00035565497
0.0004659871
0.00057689674
0.00071078384
0.00089509912
0.0011331889
0.0014366948
0.0018560181
0.0024484034
0.0033214988
0.0047814079
0.0072081933
0.010743841
0.015615656
0.022750974
0.033673363
0.050132369
0.074623716
0.1048432
0.12926312
0.097001292
0.024344046
0.15586066
0.15933768
0.12766668
0.047922981
0.03728133
0.0012921702
0.0028677768
0.0034689948
0.00154301
0.025242277
0.023997723
0.0018681486
0.0013832606
0.0031151564
0.00042860754
0.00051336535
0.00024638648
0.00010685458
6.2914736e-05
4.7886808e-05
4.2010955e-05
3.6696343e-05
2.7402034e-05
1.7409251e-05
1.0243891e-05
4.8779248e-06
5.112784e-08
4.6982237e-06
1.0216696e-05
1.6703656e-05
2.4163968e-05
3.1555538e-05
3.5513444e-05
3.5147183e-05
3.2227398e-05
2.6597858e-05
1.7285976e-05
4.6750513e-06
1.047942e-05
2.6279398e-05
3.8907437e-05
4.399e-05
4.441805e-05
4.549821e-05
4.7421127e-05
4.6938416e-05
4.5408251e-05
3.8389264e-05
2.9605276e-05
8.1179504e-06
1.8995138e-05
8.9531027e-05
0.00025032858
0.00044513754
0.00047320016
0.00053663959
0.00054571854
0.00056571222
0.00056370775
0.00056569356
0.00055887479
0.00055287413
0.00054238794
0.00053078034
0.00051569889
0.00049824071
0.00047736575
0.00045346309
0.00042611711
0.00039557886
0.00036180519
0.00032509424
0.00028575242
0.00024428498
0.00020116302
0.00015686696
0.00011183855
6.6533946e-05
2.1444375e-05
2.2879002e-05
6.6834283e-05
0.00011033994
0.00015219633
0.00019195015
0.0002294092
0.00026434163
0.00029653007
0.00032578998
0.000352018
0.00037513921
0.00039508053
0.00041184211
0.00042544416
0.00043591194
0.00044332649
0.00044782596
0.00044956805
0.00044870641
0.00044541881
0.00043990142
0.0004323805
0.00042305169
0.00041214805
0.00039985963
0.00038628318
0.00037165229
0.00035636549
0.00034055082
0.00032425388
0.00030767654
0.00029097394
0.00027428266
0.00025773269
0.00024141503
0.00022542864
0.00020984539
0.00019472681
0.00018012012
0.00016606517
0.00015260456
0.00013976709
0.00012757895
0.00011606179
0.00010522555
9.5068125e-05
8.5589878e-05
7.6778191e-05
6.8612135e-05
6.1066566e-05
5.4122489e-05
4.7751165e-05
4.1938087e-05
3.6650161e-05
3.1862169e-05
2.7545076e-05
2.3675636e-05
2.0215562e-05
1.7147803e-05
1.4426134e-05
1.2044689e-05
9.9547319e-06
8.1546256e-06
6.5916673e-06
5.2751568e-06
4.1461976e-06
3.2244621e-06
2.4432416e-06
1.833869e-06
1.322568e-06
9.5018902e-07
6.3810546e-07
4.3440362e-07
2.5931722e-07
1.6174467e-07
6.6224237e-08
8.4883434e-09
7.8560702e-08
2.2626853e-07
4.8973449e-07
1.2565124e-06
9.3330419e-07
1.3856318e-07
4.1065319e-07
8.7410766e-07
1.0358077e-06
8.8808359e-07
5.096191e-07
6.1311127e-08
4.7893061e-07
1.4271182e-07
2.1703425e-06
9.115378e-06
2.445253e-05
5.2768382e-05
9.978377e-05
0.00017172778
0.0002743665
0.00041134114
0.00057741161
0.00075568398
0.00093680769
0.0011547625
0.0014511601
0.0018329786
0.0023195546
0.0029883793
0.0039292525
0.0053119525
0.0076027223
0.011368969
0.016843121
0.024384712
0.035367806
0.052027133
0.0769171
0.11342099
0.15827018
0.194714
0.15364627
0.014756695
0.20712467
0.229091
0.19149187
0.078442618
0.059712425
0.0040569675
0.0007241364
0.0068793269
0.0012132833
0.037788654
0.03724079
0.0036408548
0.0011174334
0.005141423
0.00042595716
0.0007380504
0.00036842367
0.0001634203
9.666151e-05
7.3558083e-05
6.4361456e-05
5.6064767e-05
4.1887795e-05
2.663344e-05
1.5534825e-05
7.1822688e-06
3.2858651e-07
7.7416169e-06
1.6300876e-05
2.631062e-05
3.7694659e-05
4.8842647e-05
5.4768305e-05
5.4065528e-05
4.934773e-05
4.0500393e-05
2.6116277e-05
6.8314526e-06
1.6050737e-05
3.9587055e-05
5.8188152e-05
6.574463e-05
6.6366192e-05
6.7615334e-05
6.9883544e-05
6.847908e-05
6.4984534e-05
5.3335071e-05
3.7908396e-05
3.4241046e-06
4.3154105e-05
0.0001515263
0.00038942913
0.00068449258
0.00073065196
0.00081950835
0.0008321426
0.00085784743
0.00085314187
0.00085291628
0.00084051872
0.00082859849
0.0008102878
0.00078990798
0.00076440378
0.00073515924
0.00070082314
0.00066191625
0.00061793508
0.00056924636
0.00051586469
0.00045827039
0.00039697271
0.00033273286
0.00026626452
0.00019829376
0.0001294888
6.0544373e-05
7.7990589e-06
7.4799732e-05
0.0001415364
0.00020714016
0.00026945742
0.00032849968
0.00038389131
0.00043530506
0.00048243981
0.00052505521
0.00056300338
0.00059618291
0.00062452928
0.00064805532
0.00066679605
0.00068082114
0.00069027002
0.00069536451
0.00069635018
0.00069346172
0.00068699018
0.00067723354
0.00066451655
0.00064915513
0.00063150156
0.00061183561
0.00059033013
0.00056732247
0.00054337377
0.00051869804
0.00049337554
0.00046769051
0.00044188255
0.00041615247
0.00039068349
0.00036561831
0.00034109962
0.00031722915
0.00029410096
0.00027178229
0.00025033207
0.00022981267
0.00021026289
0.00019172189
0.00017421924
0.00015776537
0.00014235721
0.00012799199
0.00011464778
0.00010229267
9.0888145e-05
8.0403136e-05
7.0794781e-05
6.2038222e-05
5.4083275e-05
4.6890408e-05
4.0415383e-05
3.4620623e-05
2.9449524e-05
2.4873019e-05
2.0824166e-05
1.7289249e-05
1.4198431e-05
1.1543675e-05
9.250806e-06
7.3261887e-06
5.6884139e-06
4.3571137e-06
3.2422164e-06
2.377513e-06
1.666177e-06
1.152543e-06
7.3717643e-07
4.7097173e-07
2.5821496e-07
1.4702375e-07
5.4020777e-08
5.7608016e-09
6.2628189e-08
2.2126518e-07
5.1600643e-07
1.5171241e-06
1.1597397e-06
1.5292054e-07
5.6958611e-07
1.1117319e-06
1.2463598e-06
9.216275e-07
2.9334908e-07
5.4089956e-07
1.0217367e-06
1.4966752e-07
3.9989989e-06
1.5562527e-05
4.0257976e-05
8.4966933e-05
0.00015822933
0.00026928144
0.00042667119
0.00063568943
0.00088868544
0.0011615891
0.0014416918
0.0017774857
0.0022284797
0.0028076401
0.0035451638
0.0045533558
0.0059651242
0.0080319047
0.011422163
0.016932049
0.02491903
0.035919472
0.051835001
0.075734372
0.11107894
0.16216887
0.22460155
0.2760751
0.22875393
0.010472976
0.25410887
0.30751258
0.26947396
0.1206618
0.090367959
0.0097297214
0.0082337834
0.012261312
0.0060255418
0.054322839
0.05540966
0.0068838349
2.6356096e-05
0.0079815837
0.00026484961
0.0010055118
0.00052568507
0.00023894551
0.00014212963
0.00010815689
9.4371499e-05
8.1955863e-05
6.1251089e-05
3.8965019e-05
2.2499121e-05
1.0041889e-05
1.15712e-06
1.2245165e-05
2.4960601e-05
3.9746912e-05
5.6363528e-05
7.2431213e-05
8.089991e-05
7.964218e-05
7.2346559e-05
5.9046267e-05
3.779493e-05
9.5991934e-06
2.3407505e-05
5.6863032e-05
8.2982711e-05
9.366869e-05
9.4468825e-05
9.5596259e-05
9.7848832e-05
9.4675602e-05
8.7642337e-05
6.8905377e-05
4.3003641e-05
1.0379946e-05
8.6128814e-05
0.00024499478
0.00058029634
0.0010078817
0.0010790287
0.0011967202
0.0012122034
0.0012420746
0.0012317743
0.001225967
0.0012040476
0.0011818703
0.0011509476
0.0011165978
0.0010750283
0.0010279158
0.00097361102
0.00091278856
0.00084489522
0.00077046605
0.00068963834
0.00060315787
0.00051180444
0.00041668814
0.00031885812
0.00021934766
0.00011911989
1.9174914e-05
7.9433508e-05
0.00017618693
0.00027242669
0.00036596446
0.00045402287
0.00053707374
0.00061458477
0.00068611369
0.00075126225
0.0008097417
0.00086137504
0.0009060418
0.00094370948
0.00097442342
0.00099824822
0.0010153495
0.0010259387
0.0010303486
0.0010289671
0.001022126
0.0010102736
0.00099384768
0.00097328978
0.00094907672
0.00092172183
0.00089162086
0.00085905305
0.00082449569
0.00078867026
0.00075190438
0.00071435343
0.00067639397
0.00063836595
0.00060055046
0.00056319449
0.00052650615
0.00049067979
0.00045585204
0.00042215713
0.00038968589
0.0003585203
0.00032874546
0.00030041109
0.00027357135
0.00024826341
0.00022449581
0.00020226326
0.00018155668
0.0001623408
0.00014456844
0.00012818322
0.00011313729
9.9369133e-05
8.6838882e-05
7.5473903e-05
6.5215031e-05
5.5997975e-05
4.7765253e-05
4.0436751e-05
3.3966204e-05
2.8260947e-05
2.3294582e-05
1.8971553e-05
1.5272606e-05
1.2098183e-05
9.446911e-06
7.2115986e-06
5.4067454e-06
3.9169306e-06
2.7724277e-06
1.8532944e-06
1.2000882e-06
6.952599e-07
3.8356091e-07
1.5949356e-07
6.0318935e-08
4.3625951e-09
4.4378923e-10
3.2535602e-09
1.1833134e-07
3.8048434e-07
1.5554849e-06
1.2810384e-06
1.5130666e-07
6.8576957e-07
1.2150613e-06
1.2284433e-06
6.2079992e-07
3.4232333e-07
1.4353789e-06
1.8016807e-06
1.6149104e-07
7.3541842e-06
2.5954702e-05
6.4271765e-05
0.00013216171
0.00024179177
0.0004062307
0.00063755555
0.0009431067
0.0013122907
0.0017125077
0.0021271823
0.0026219387
0.0032785142
0.0041186354
0.0051871656
0.0066393951
0.0086624862
0.011610256
0.016393135
0.02407477
0.035172129
0.050449038
0.072381184
0.10494194
0.15251657
0.22026705
0.30247272
0.37151256
0.32194103
0.055313146
0.28925532
0.38860424
0.35918918
0.17600023
0.13073856
0.020065511
0.020965259
0.020133849
0.012977227
0.075128877
0.079488782
0.012646461
0.0025493187
0.011723417
0.00017059484
0.0013052964
0.00072109845
0.00033659313
0.00020157495
0.00015342861
0.00013348891
0.00011554329
8.635863e-05
5.494414e-05
3.1358528e-05
1.3414122e-05
2.7168813e-06
1.8738055e-05
3.6974996e-05
5.8050849e-05
8.1436183e-05
0.00010374429
0.00011538323
0.00011325026
0.00010236193
8.308395e-05
5.2818221e-05
1.3090059e-05
3.27604e-05
7.8512735e-05
0.00011376877
0.00012825235
0.00012913474
0.00012957391
0.00013115565
0.00012493746
0.00011198059
8.2622205e-05
4.0769896e-05
3.9481447e-05
0.00015697804
0.00038141722
0.00083615364
0.0014323539
0.0015350982
0.0016825652
0.0016977915
0.0017275318
0.0017061922
0.0016888159
0.001650897
0.0016116079
0.0015608267
0.0015048899
0.001439242
0.0013659092
0.0012829542
0.0011912742
0.0010903058
0.00098083907
0.00086323742
0.00073858325
0.00060802689
0.00047314036
0.00033535893
0.00019611051
5.6723179e-05
8.1470322e-05
0.00021698533
0.00035051057
0.00048234432
0.00060829817
0.00072629665
0.00083692747
0.00093946653
0.0010333855
0.0011182191
0.001193649
0.0012595026
0.001315659
0.0013621669
0.0013991371
0.0014266929
0.0014451335
0.0014547991
0.0014561646
0.0014497891
0.0014361518
0.0014158878
0.0013896113
0.0013579265
0.0013214742
0.0012809526
0.0012369259
0.0011898259
0.0011402762
0.0010891396
0.001036884
0.0009837789
0.00093030152
0.00087690279
0.0008239515
0.00077176553
0.00072062644
0.00067078476
0.00062241519
0.00057569556
0.00053074084
0.00048765787
0.00044655536
0.0004074932
0.00037054008
0.00033573889
0.00030309303
0.00027259218
0.00024421695
0.00021791418
0.00019361697
0.00017124651
0.00015073313
0.00013199229
0.0001149639
9.954788e-05
8.5660107e-05
7.3211212e-05
6.211824e-05