/*--------------------------------*- C++ -*----------------------------------*\
| =========                 |                                                 |
| \\      /  F ield         | OpenFOAM: The Open Source CFD Toolbox           |
|  \\    /   O peration     | Version:  2.4.0                                 |
|   \\  /    A nd           | Web:      www.OpenFOAM.org                      |
|    \\/     M anipulation  |                                                 |
\*---------------------------------------------------------------------------*/
FoamFile
{
    version     2.0;
    format      ascii;
    class       volSymmTensorField;
    location    "20000";
    object      T9;
}
// * * * * * * * * * * * * * * * * * * * * * * * * * * * * * * * * * * * * * //

dimensions      [0 0 0 0 0 0 0];

internalField   nonuniform List<symmTensor> 
32000
(
(-0.1666676 0.00015157614 1.7903123e-20 -0.16666496 7.4627472e-23 0.33333256)
(-0.1667672 0.00093939297 -4.7223151e-16 -0.16676958 -3.1009036e-16 0.33353679)
(-0.16680014 -0.00052667549 -5.8940716e-16 -0.16674216 -2.9513612e-16 0.3335423)
(-0.1668607 0.0003816346 -1.1706634e-15 -0.16697813 -6.5417343e-17 0.33383883)
(-0.1669391 -0.00023728401 -2.2050484e-16 -0.16679572 -1.2370147e-16 0.33373482)
(-0.16325643 0.0077083932 -1.8884146e-15 -0.17030132 2.797036e-16 0.33355775)
(-0.16904955 -0.0025364846 6.4220904e-16 -0.1647979 -3.8643915e-16 0.33384745)
(-0.1684404 -0.0012236871 -3.5162584e-19 -0.16541228 1.6630747e-19 0.33385267)
(-0.16811423 -0.00068251021 4.5011239e-16 -0.16575915 -4.0889813e-16 0.33387338)
(-0.16798791 -0.00048587017 6.3385253e-16 -0.16573687 -5.6846614e-16 0.33372479)
(-0.16767835 -0.00028531594 5.038952e-17 -0.16595261 -3.6301324e-17 0.33363096)
(-0.16757348 -0.00020993666 -2.155871e-17 -0.16595991 1.6623655e-17 0.3335334)
(-0.16751659 -0.00016509891 6.8075759e-17 -0.16595384 -5.912652e-17 0.33347042)
(-0.16747812 -0.00013732896 -8.5354737e-15 -0.16594307 7.1268612e-15 0.33342119)
(-0.16742512 -0.00011781003 -9.1878354e-15 -0.16595377 7.8158573e-15 0.33337889)
(-0.16733411 -0.0001022968 2.2451317e-17 -0.16600458 -1.5061171e-17 0.33333868)
(-0.16717529 -8.3730168e-05 2.3269749e-15 -0.16612559 -2.2949263e-15 0.33330088)
(-0.16701656 -6.5653738e-05 2.6593839e-15 -0.16626366 -2.5452806e-15 0.33328023)
(-0.16690128 -4.9612644e-05 1.3000865e-15 -0.1663791 -1.2268721e-15 0.33328038)
(-0.16677778 -2.7723999e-05 1.4972338e-15 -0.16650636 -1.3729009e-15 0.33328414)
(-0.16668479 -8.8351286e-06 -1.5187325e-17 -0.16660344 1.2238824e-17 0.33328823)
(-0.16661543 7.0931427e-06 2.6354159e-20 -0.16667745 -2.098043e-20 0.33329289)
(-0.16657203 1.8315636e-05 -3.90557e-17 -0.16672553 3.4863933e-17 0.33329755)
(-0.16657164 1.9723222e-05 -3.728195e-17 -0.16673129 3.3210193e-17 0.33330293)
(-0.16659773 1.4345577e-05 1.5753118e-16 -0.1667108 -1.1857338e-16 0.33330853)
(-0.16666242 -1.3950188e-06 7.1440836e-17 -0.16665164 -5.5303796e-17 0.33331406)
(-0.16674308 -2.2874165e-05 9.853328e-17 -0.16656873 -7.9981027e-17 0.33331181)
(-0.16680653 -4.2646162e-05 -5.820825e-19 -0.16648865 4.4632993e-19 0.33329518)
(-0.16685259 -6.0846626e-05 2.8781054e-17 -0.16641785 -2.5778146e-17 0.33327044)
(-0.16689108 -8.0271305e-05 -2.640903e-17 -0.16635206 2.3610267e-17 0.33324314)
(-0.16691542 -9.9672049e-05 -2.8198494e-17 -0.16629756 2.4415499e-17 0.33321297)
(-0.16692526 -0.00011923858 2.728216e-17 -0.16625381 -2.31039e-17 0.33317908)
(-0.16691612 -0.00013722271 6.1542014e-17 -0.16622425 -4.1744821e-17 0.33314037)
(-0.16688337 -0.00015080278 -2.7872669e-17 -0.16621162 1.8029382e-17 0.33309499)
(-0.16682076 -0.00015441744 1.5730465e-15 -0.16622108 -1.1511866e-15 0.33304185)
(-0.1667344 -0.00014415558 1.8080386e-15 -0.16625241 -1.2157456e-15 0.33298681)
(-0.16665154 -0.00012568881 1.7164175e-15 -0.16629245 -1.0672853e-15 0.33294399)
(-0.16658498 -0.00010659102 1.3624089e-14 -0.16632524 -6.61384e-15 0.33291022)
(-0.16651464 -7.4522467e-05 1.2919797e-14 -0.16636051 -5.4783791e-15 0.33287515)
(-0.16645089 -3.6245068e-05 -1.4503653e-14 -0.16638784 5.4256958e-15 0.33283874)
(-0.16639326 1.3381633e-05 -1.599612e-14 -0.16641256 5.1662663e-15 0.33280582)
(-0.16635041 5.7085316e-05 2.8548745e-17 -0.16641714 -6.1005734e-18 0.33276755)
(-0.16631874 0.00011617253 -1.936961e-14 -0.16642493 4.2206671e-15 0.33274367)
(-0.16631224 0.00010368041 -2.1818036e-14 -0.16638208 3.5787826e-15 0.33269432)
(-0.16631113 0.00017686608 -4.7995449e-17 -0.16638951 6.1899799e-18 0.33270063)
(-0.16631595 -5.8552388e-05 7.9900059e-15 -0.16630285 -7.9948543e-16 0.3326188)
(-0.16652384 0.00034830842 5.8518074e-15 -0.16653704 -4.1393503e-16 0.33306088)
(-0.16664946 8.1089299e-05 -7.9470762e-18 -0.16665013 1.348855e-20 0.33329959)
(-0.16666485 0.0001389471 5.0539951e-21 -0.16666563 4.3359388e-23 0.33333048)
(-0.16666568 7.8688851e-05 -4.399906e-21 -0.16666603 -3.9556388e-23 0.33333171)
(-0.16666603 9.229158e-05 1.6057171e-21 -0.16666635 4.8673754e-23 0.33333238)
(-0.16666624 7.3100056e-05 4.0370658e-15 -0.16666645 -3.3134099e-18 0.33333269)
(-0.16666637 7.5857599e-05 3.7940695e-15 -0.16666655 -2.6937435e-18 0.33333292)
(-0.16666645 6.8723861e-05 -1.3113243e-21 -0.16666659 -4.6186607e-23 0.33333304)
(-0.1666665 6.8820248e-05 -1.0026343e-24 -0.16666662 5.5061117e-28 0.33333312)
(-0.16666654 6.5764681e-05 3.4372143e-18 -0.16666664 -1.7024388e-21 0.33333318)
(-0.16666656 6.5217699e-05 2.0997978e-15 -0.16666665 -3.5615421e-16 0.33333322)
(-0.16666658 6.360843e-05 2.0184092e-15 -0.16666666 -3.5632204e-16 0.33333324)
(-0.16666659 6.2871321e-05 -1.0005092e-15 -0.16666667 1.7791539e-16 0.33333326)
(-0.1666666 6.1739892e-05 4.9985072e-15 -0.16666667 1.7584354e-16 0.33333327)
(-0.16666661 6.0888194e-05 9.8312087e-15 -0.16666667 3.5187393e-16 0.33333328)
(-0.16666661 5.9851404e-05 3.924117e-15 -0.16666667 3.5421635e-16 0.33333328)
(-0.16666662 5.886877e-05 2.5493847e-18 -0.16666667 -7.5466502e-22 0.33333328)
(-0.16666662 5.7765437e-05 -5.8421099e-24 -0.16666666 -4.3044215e-25 0.33333328)
(-0.16666662 5.6626476e-05 5.159333e-22 -0.16666666 2.3980519e-23 0.33333328)
(-0.16666662 5.5382377e-05 -1.0390752e-21 -0.16666666 -4.8731902e-23 0.33333328)
(-0.16666663 5.4068971e-05 1.1111483e-18 -0.16666666 -1.9864478e-22 0.33333328)
(-0.16666663 5.2666965e-05 9.2278379e-16 -0.16666665 -1.7772944e-16 0.33333328)
(-0.16666663 5.1194985e-05 1.0314073e-14 -0.16666665 -3.5729206e-16 0.33333328)
(-0.16666663 4.9649504e-05 9.4409188e-15 -0.16666665 -1.7943058e-16 0.33333327)
(-0.16666663 4.8035564e-05 -1.0022606e-18 -0.16666664 1.3203681e-22 0.33333327)
(-0.16666663 4.6353744e-05 1.5146107e-27 -0.16666664 -1.9638533e-31 0.33333327)
(-0.16666663 4.4605326e-05 -5.3588963e-22 -0.16666664 -2.4352651e-23 0.33333326)
(-0.16666663 4.2793508e-05 5.3368194e-22 -0.16666663 2.4283545e-23 0.33333326)
(-0.16666663 4.091841e-05 -8.1256474e-22 -0.16666663 7.8162141e-26 0.33333326)
(-0.16666662 3.8977087e-05 -8.684763e-19 -0.16666663 6.8382798e-23 0.33333325)
(-0.16666662 3.6954146e-05 -9.9881846e-16 -0.16666662 1.7761932e-16 0.33333325)
(-0.16666662 3.4866067e-05 -1.0088068e-15 -0.16666662 1.7767982e-16 0.33333324)
(-0.16666662 3.2716765e-05 8.1470246e-19 -0.16666662 -5.1510326e-23 0.33333324)
(-0.16666662 3.0523172e-05 -1.1547426e-21 -0.16666662 2.4385501e-23 0.33333324)
(-0.16666662 2.8269595e-05 7.5250312e-19 -0.16666661 -2.6714588e-23 0.33333323)
(-0.16666662 2.5967226e-05 1.0940915e-15 -0.16666661 -1.7755282e-16 0.33333323)
(-0.16666661 2.362991e-05 1.1125747e-15 -0.16666661 -1.7759529e-16 0.33333322)
(-0.16666661 2.1227312e-05 -6.9897243e-19 -0.16666661 -1.6907912e-23 0.33333322)
(-0.16666661 1.8789083e-05 1.0754722e-14 -0.1666666 5.4825577e-19 0.33333322)
(-0.16666661 1.6318654e-05 1.1025512e-14 -0.1666666 7.1976862e-19 0.33333321)
(-0.16666661 1.3779816e-05 1.6060422e-22 -0.1666666 -1.2140575e-23 0.33333321)
(-0.1666666 1.1222609e-05 -1.7689986e-22 -0.1666666 1.2286919e-23 0.3333332)
(-0.1666666 8.6222932e-06 7.9419952e-15 -0.1666666 8.5809667e-19 0.3333332)
(-0.1666666 5.9714234e-06 8.16736e-15 -0.1666666 9.9818793e-19 0.3333332)
(-0.1666666 3.3111113e-06 4.6171631e-19 -0.1666666 6.2191869e-23 0.33333319)
(-0.16666659 5.8303888e-07 1.4110378e-15 -0.16666659 -1.7751696e-16 0.33333319)
(-0.16666659 -2.1639801e-06 1.4506216e-15 -0.16666659 -1.7751685e-16 0.33333318)
(-0.16666659 -4.9416859e-06 -3.8636901e-19 -0.16666659 -6.8910446e-23 0.33333318)
(-0.16666659 -7.7737381e-06 2.3176127e-26 -0.16666659 4.8997983e-30 0.33333318)
(-0.16666658 -1.0638507e-05 2.4652606e-19 -0.16666659 5.7953199e-23 0.33333317)
(-0.16666658 -1.3528706e-05 1.6478699e-15 -0.16666659 -1.7737402e-16 0.33333317)
(-0.16666658 -1.6487238e-05 1.7020321e-15 -0.16666659 -1.7734786e-16 0.33333317)
(-0.16666657 -1.9466475e-05 -1.4148649e-19 -0.16666659 -4.3318716e-23 0.33333316)
(-0.16666657 -2.2466663e-05 4.7149666e-23 -0.16666659 1.2383332e-26 0.33333316)
(-0.16666656 -2.5552136e-05 1.1925297e-26 -0.16666659 3.3018405e-30 0.33333315)
(-0.16666656 -2.8681077e-05 1.2518431e-19 -0.16666659 2.6553995e-23 0.33333315)
(-0.16666656 -3.1846346e-05 -2.0280691e-15 -0.16666659 1.7712759e-16 0.33333314)
(-0.16666655 -3.5098362e-05 4.3478355e-15 -0.16666659 1.7912957e-16 0.33333314)
(-0.16666655 -3.8393268e-05 6.6993008e-15 -0.16666659 2.2432202e-18 0.33333313)
(-0.16666654 -4.1753247e-05 -4.7422953e-19 -0.16666659 -1.5321681e-22 0.33333313)
(-0.16666654 -4.5209333e-05 2.3574364e-15 -0.16666659 -1.7674209e-16 0.33333312)
(-0.16666653 -4.8739312e-05 2.7344797e-18 -0.16666659 1.7737194e-19 0.33333312)
(-0.16666652 -5.2348669e-05 -2.5591404e-15 -0.16666659 1.7671632e-16 0.33333311)
(-0.16666652 -5.6082166e-05 -8.3065854e-19 -0.16666659 -3.3813446e-22 0.33333311)
(-0.16666651 -5.9899784e-05 -3.8432876e-22 -0.16666659 1.2328625e-23 0.3333331)
(-0.1666665 -6.3853979e-05 1.2003e-21 -0.16666659 5.3440825e-25 0.33333309)
(-0.16666649 -6.7927077e-05 8.5063844e-22 -0.16666659 1.2470221e-23 0.33333308)
(-0.16666648 -7.2120029e-05 -1.7717808e-21 -0.16666659 -2.5451605e-23 0.33333308)
(-0.16666648 -7.6489294e-05 2.3033302e-21 -0.16666659 1.3683458e-23 0.33333307)
(-0.16666647 -8.0990179e-05 -1.4342003e-21 -0.16666659 -7.4151431e-25 0.33333306)
(-0.16666645 -8.5686655e-05 -1.0189114e-21 -0.16666659 -1.2617861e-23 0.33333305)
(-0.16666644 -9.0583511e-05 -2.1097457e-21 -0.1666666 1.1397033e-23 0.33333304)
(-0.16666643 -9.5707761e-05 1.0987995e-21 -0.1666666 1.2701566e-23 0.33333303)
(-0.16666642 -0.00010106326 2.9930306e-18 -0.1666666 1.7440789e-21 0.33333301)
(-0.1666664 -0.00010672022 -4.3938217e-15 -0.1666666 1.7489412e-16 0.333333)
(-0.16666638 -0.00011264895 -4.6556511e-15 -0.1666666 1.7455142e-16 0.33333298)
(-0.16666637 -0.00011893724 4.8718035e-15 -0.1666666 -1.7436218e-16 0.33333297)
(-0.16666635 -0.00012558264 5.1772563e-15 -0.1666666 -1.7394513e-16 0.33333295)
(-0.16666633 -0.00013266113 9.4781787e-18 -0.1666666 6.7277064e-21 0.33333293)
(-0.1666663 -0.00014012765 -5.753169e-15 -0.16666661 1.7329667e-16 0.33333291)
(-0.16666627 -0.00014822641 -6.1511349e-15 -0.16666661 1.7271869e-16 0.33333288)
(-0.16666625 -0.00015675022 1.2940427e-14 -0.16666661 -3.4484097e-16 0.33333286)
(-0.16666621 -0.00016607567 1.3867015e-14 -0.16666661 -3.4340801e-16 0.33333283)
(-0.16666618 -0.00017592178 2.2920594e-17 -0.16666662 2.0109056e-20 0.33333279)
(-0.16666614 -0.0001868242 -5.592915e-14 -0.16666662 1.2570669e-16 0.33333276)
(-0.16666609 -0.00019831861 -5.9801427e-14 -0.16666663 1.1942807e-16 0.33333272)
(-0.16666604 -0.00021130424 -1.0135154e-17 -0.16666664 -1.0195985e-20 0.33333268)
(-0.16666598 -0.00022472887 5.4138736e-21 -0.16666664 2.995984e-23 0.33333263)
(-0.16666592 -0.00024052736 1.8739352e-20 -0.16666665 -5.2103196e-24 0.33333257)
(-0.16666585 -0.0002562323 -3.4297632e-14 -0.16666666 1.3736114e-16 0.33333251)
(-0.16666577 -0.00027581357 -3.7228355e-14 -0.16666668 1.3128108e-16 0.33333245)
(-0.16666568 -0.00029399951 1.7743814e-17 -0.1666667 2.2875886e-20 0.33333238)
(-0.16666558 -0.00031876287 2.9529011e-14 -0.16666673 4.0731377e-17 0.33333231)
(-0.16666548 -0.00033928909 3.2184022e-14 -0.16666676 4.6688503e-17 0.33333224)
(-0.16666536 -0.00037136013 -2.4010267e-17 -0.16666681 -3.6315032e-20 0.33333217)
(-0.16666526 -0.00039255186 2.094777e-20 -0.16666684 8.2294656e-23 0.33333211)
(-0.16666514 -0.00043532556 4.6804092e-23 -0.16666694 -4.2839559e-24 0.33333209)
(-0.16666509 -0.0004517395 -1.3775448e-13 -0.16666698 -2.3764836e-16 0.33333207)
(-0.16666501 -0.00051026737 -1.5143009e-13 -0.16666715 -2.7461629e-16 0.33333216)
(-0.16666511 -0.00050788415 7.4775018e-20 -0.16666717 1.8652244e-22 0.33333228)
(-0.16666519 -0.00058914953 -4.8797653e-20 -0.16666743 -8.9376955e-23 0.33333262)
(-0.1666656 -0.00053672915 -9.5288466e-14 -0.16666734 -1.5417117e-16 0.33333294)
(-0.16666599 -0.00065003889 -1.0193784e-13 -0.16666762 -1.6346009e-16 0.33333361)
(-0.16666662 -0.00049638417 3.7533918e-20 -0.1666673 9.2719624e-23 0.33333392)
(-0.16666729 -0.00065238645 -9.4985474e-20 -0.16666729 -1.4608195e-22 0.33333458)
(-0.16666729 -0.00035567029 -5.207325e-20 -0.16666671 -6.7239564e-24 0.333334)
(-0.16664432 -0.00057011184 1.8470969e-13 -0.16664253 1.3379717e-17 0.33328685)
(-0.16647381 -0.00010285127 1.5449874e-13 -0.16647586 7.9568609e-16 0.33294967)
(-0.16635957 -2.655391e-05 1.9744058e-16 -0.16636531 1.0253238e-17 0.33272488)
(-0.16644173 0.00051515455 1.9698389e-16 -0.16621354 2.1393612e-17 0.33265527)
(-0.1666029 0.00074210437 -2.8266779e-16 -0.16610221 -4.6050203e-17 0.33270511)
(-0.16690873 0.0012104566 -1.034646e-18 -0.16579889 -2.2702146e-19 0.33270762)
(-0.16727379 0.0015281871 -5.7033857e-17 -0.16548238 -1.5000711e-17 0.33275617)
(-0.16787568 0.0020603408 -4.4495001e-14 -0.16489894 -1.420204e-14 0.33277462)
(-0.16870347 0.0026318126 6.6266919e-14 -0.16411197 2.444524e-14 0.33281544)
(-0.17034029 0.0037787925 1.5727658e-13 -0.1624892 6.5389564e-14 0.33282949)
(-0.17460584 0.0066567353 1.9540386e-16 -0.15821922 8.7587229e-17 0.33282506)
(-0.018201595 -0.04633969 -2.3064818e-12 -0.014817648 -2.3526021e-12 0.033019243)
(-0.15849444 -0.0048701517 -2.0723996e-13 -0.17448418 -1.202888e-13 0.33297862)
(-0.16303246 -0.0018218363 -1.6104752e-13 -0.17002503 -9.8990834e-14 0.33305749)
(-0.16467569 -0.00085273363 -6.7340397e-14 -0.16843575 -4.3695769e-14 0.33311144)
(-0.16554835 -0.00041234659 -1.5627131e-16 -0.16760658 -1.0611364e-16 0.33315493)
(-0.16612254 -0.00017002891 3.9446753e-18 -0.16707009 2.7809165e-18 0.33319263)
(-0.16652093 -2.9932133e-05 -1.7496353e-16 -0.16670443 -1.269993e-16 0.33322536)
(-0.16683049 6.1225179e-05 2.0381929e-16 -0.16642415 1.5135118e-16 0.33325464)
(-0.1670548 0.00011739409 8.9015736e-17 -0.16622633 7.1168647e-17 0.33328113)
(-0.16723989 0.00015966891 1.6676623e-15 -0.16606506 1.4257261e-15 0.33330494)
(-0.16735361 0.00018456545 1.3672841e-15 -0.16596559 1.2021005e-15 0.3333192)
(-0.16742792 0.00020151501 1.4549634e-16 -0.16589206 1.1196561e-16 0.33331998)
(-0.16745618 0.0002065278 6.0817692e-17 -0.16585444 4.700312e-17 0.33331062)
(-0.16750405 0.00021325666 1.7753739e-17 -0.16579902 1.3822891e-17 0.33330307)
(-0.16755418 0.00021849738 8.1934183e-16 -0.16574434 7.9718781e-16 0.33329852)
(-0.16760249 0.00022107904 6.3350737e-16 -0.16569042 6.5636484e-16 0.33329291)
(-0.16766408 0.00022388705 -1.2674497e-17 -0.16562365 -1.0162902e-17 0.33328773)
(-0.16772858 0.00022408678 -2.7316074e-19 -0.16555483 -2.2185297e-19 0.33328341)
(-0.16781869 0.00022595093 2.8899726e-17 -0.16546088 2.3799309e-17 0.33327956)
(-0.16791043 0.00022340636 -7.4824655e-18 -0.16536972 -6.2573843e-18 0.33328015)
(-0.16807698 0.00022943028 8.1409323e-16 -0.16522527 6.9470322e-16 0.33330225)
(-0.16826587 0.0002477604 1.3255291e-15 -0.16507547 1.1299892e-15 0.33334134)
(-0.16841425 0.00027865796 1.0586966e-15 -0.16496897 8.9643024e-16 0.33338322)
(-0.16854359 0.00033070346 4.5625462e-16 -0.16488279 3.8314932e-16 0.33342638)
(-0.16863214 0.00040373235 5.6687925e-18 -0.16484337 4.559516e-18 0.33347551)
(-0.1687196 0.0005113098 -2.8483286e-16 -0.16481359 -2.1450318e-16 0.33353319)
(-0.16873495 0.00063903876 -4.2467812e-16 -0.16487623 -3.0473804e-16 0.33361118)
(-0.16875314 0.0008188784 -2.9176744e-16 -0.16495627 -1.8682346e-16 0.33370941)
(-0.16858526 0.00096306804 -8.0544579e-17 -0.16525958 -4.6125149e-17 0.33384484)
(-0.16837257 0.0011207306 -5.6237333e-17 -0.16560756 1.2819511e-16 0.33398013)
(-0.16779762 0.00091889488 -8.626267e-17 -0.16628045 1.2605718e-16 0.33407807)
(-0.16732166 0.00054694168 4.5819727e-16 -0.16674612 1.1110272e-16 0.33406777)
(-0.1669883 -5.4671273e-05 7.6902438e-16 -0.16702258 1.1698884e-16 0.33401087)
(-0.1669092 -3.5247449e-05 7.722945e-19 -0.1669206 6.2105709e-20 0.3338298)
(-0.16682882 -0.00069341695 8.581407e-20 -0.16691171 -1.9317109e-19 0.33374053)
(-0.16673466 0.00049255427 -3.0387706e-16 -0.1667319 3.1077679e-16 0.33346656)
(-0.16665543 -0.0013720775 -8.6640801e-16 -0.16662801 3.1333003e-16 0.33328344)
(-0.16666451 -1.3227301e-05 -2.5449369e-20 -0.16666466 -8.4500707e-23 0.33332917)
(-0.16694444 0.0010989744 -9.3380569e-16 -0.1669517 2.7588296e-16 0.33389614)
(-0.16703041 -0.00073919414 1.381471e-16 -0.16694793 9.0767666e-16 0.33397833)
(-0.16729976 0.00055037948 6.2971032e-16 -0.16746103 6.9367159e-16 0.33476079)
(-0.16734909 -0.0004473864 -3.7371253e-16 -0.16709212 1.9541094e-16 0.33444122)
(-0.16698874 -0.003278003 -5.7223633e-15 -0.1644573 1.1181038e-15 0.33144603)
(-0.16466944 0.0027139296 4.1300624e-15 -0.16955783 -1.4274003e-15 0.33422727)
(-0.16611644 0.0010276765 -1.4594017e-15 -0.16868822 7.0629258e-16 0.33480466)
(-0.16631112 0.00067149015 -5.1014715e-16 -0.16861449 4.4975785e-16 0.33492561)
(-0.16631252 0.00041220861 -6.1531814e-16 -0.16820482 5.6085698e-16 0.33451734)
(-0.16633313 0.00026251489 -2.4102531e-15 -0.16790532 1.7407071e-15 0.33423845)
(-0.16626474 0.00018629632 1.7101277e-17 -0.16768918 -2.1078854e-17 0.33395393)
(-0.16618601 0.00014674416 -6.3345363e-17 -0.16757064 5.5293946e-17 0.33375665)
(-0.16612485 0.00012134428 7.6342265e-15 -0.16747738 -7.3088334e-15 0.33360223)
(-0.16608516 0.00010436643 -1.0321659e-15 -0.16738313 -3.0736083e-17 0.33346829)
(-0.16609274 8.9484841e-05 -6.9327869e-15 -0.16724808 5.9562615e-15 0.33334082)
(-0.16616291 7.2209796e-05 9.3867247e-15 -0.16706151 -7.7116287e-15 0.33322442)
(-0.16624926 5.8317977e-05 6.0585307e-15 -0.1669145 -4.7979097e-15 0.33316376)
(-0.16636052 4.2333748e-05 3.2563504e-15 -0.16680459 -2.5603858e-15 0.33316511)
(-0.16647279 2.3789598e-05 3.3119896e-15 -0.16670529 -2.5611515e-15 0.33317808)
(-0.16655971 7.9646073e-06 -6.8870242e-18 -0.16663306 -2.3230002e-18 0.33319277)
(-0.16663411 -6.7711974e-06 -4.3798175e-20 -0.16657479 3.4842392e-20 0.33320891)
(-0.16667499 -1.4795814e-05 3.6310924e-17 -0.16655051 -3.2477523e-17 0.3332255)
(-0.16668928 -1.6562684e-05 -8.53054e-17 -0.16655448 6.3083943e-17 0.33324375)
(-0.16667522 -1.1075196e-05 -2.5915045e-16 -0.16658733 2.0591615e-16 0.33326255)
(-0.16662652 3.4876887e-06 -6.7609738e-17 -0.16665368 5.2441038e-17 0.3332802)
(-0.16655176 2.2023575e-05 3.9017126e-15 -0.1667209 -3.0127799e-15 0.33327266)
(-0.1664656 3.8629324e-05 3.710596e-15 -0.16675554 -2.8526478e-15 0.33322115)
(-0.16637385 5.5261583e-05 6.5067196e-17 -0.16677116 -4.5704629e-17 0.333145)
(-0.16628681 7.2101443e-05 -1.5646374e-16 -0.16677365 1.1318738e-16 0.33306046)
(-0.1662046 8.9511621e-05 -6.199402e-17 -0.16676202 4.1527735e-17 0.33296662)
(-0.16612876 0.00010677201 6.4603211e-17 -0.16673213 -4.2034532e-17 0.33286089)
(-0.16605916 0.00012295951 -5.8788423e-17 -0.16668061 4.0004128e-17 0.33273978)
(-0.16599861 0.00013465095 -5.0733241e-17 -0.16659916 3.2826162e-17 0.33259777)
(-0.16594974 0.00013726898 3.6990075e-15 -0.16648294 -2.0744556e-15 0.33243268)
(-0.16592017 0.00012675581 3.8114633e-15 -0.16634381 -1.974655e-15 0.33226397)
(-0.16590187 0.00011527548 3.9235548e-15 -0.16623096 -1.878106e-15 0.33213282)
(-0.16589996 9.3831158e-05 -6.6523922e-15 -0.1661283 3.9839201e-15 0.33202826)
(-0.16588788 6.9957454e-05 -1.2000383e-14 -0.16603227 5.7643624e-15 0.33192014)
(-0.16588013 2.8341645e-05 1.3198776e-14 -0.16592928 -5.619897e-15 0.33180941)
(-0.16585594 -1.3951624e-06 1.4701967e-14 -0.16585394 -5.4245358e-15 0.33170987)
(-0.16584097 -7.0875872e-05 -8.8574882e-15 -0.16575858 2.384398e-15 0.33159955)
(-0.16579456 -5.9911628e-05 8.0764632e-15 -0.16574021 -2.4221801e-15 0.33153477)
(-0.16576562 -0.00017647492 1.9689789e-14 -0.16564771 -3.8714357e-15 0.33141333)
(-0.16572507 2.8184293e-05 2.1860597e-14 -0.16573748 -2.3816856e-15 0.33146256)
(-0.16569708 -0.00033895764 3.8077942e-14 -0.16561816 -1.8771797e-15 0.33131524)
(-0.1662416 0.00011686775 1.1945277e-14 -0.16624844 1.4237956e-16 0.33249004)
(-0.16659689 -0.00021232962 1.1377127e-17 -0.16659195 -3.6626128e-20 0.33318884)
(-0.16665037 -2.1962711e-05 -5.4892245e-15 -0.16665002 2.149127e-17 0.33330039)
(-0.16665736 -9.551167e-05 -1.441303e-14 -0.16665618 4.2294747e-17 0.33331354)
(-0.16666033 -4.7607513e-05 -8.759318e-15 -0.16665987 2.0407455e-17 0.3333202)
(-0.16666234 -6.7450337e-05 -3.8199992e-15 -0.1666618 3.5234928e-16 0.33332414)
(-0.16666351 -5.241687e-05 -7.3811253e-15 -0.16666317 3.5760294e-16 0.33332668)
(-0.16666433 -5.8174886e-05 -3.6147087e-15 -0.16666401 4.77093e-18 0.33332834)
(-0.16666487 -5.2992442e-05 -1.8736607e-21 -0.16666462 2.1320934e-24 0.33332949)
(-0.16666526 -5.4633104e-05 6.6553453e-15 -0.16666503 -6.5888915e-18 0.33333029)
(-0.16666553 -5.2635867e-05 7.7265246e-15 -0.16666533 3.3258765e-16 0.33333086)
(-0.16666573 -5.2955282e-05 1.2357795e-15 -0.16666555 3.3792919e-16 0.33333128)
(-0.16666588 -5.1995801e-05 -2.1341023e-15 -0.16666572 -1.6850116e-16 0.33333159)
(-0.16666598 -5.1807995e-05 -1.0833789e-14 -0.16666584 5.3158415e-16 0.33333183)
(-0.16666607 -5.1122304e-05 -1.5362528e-14 -0.16666594 1.0584727e-15 0.33333201)
(-0.16666613 -5.0666056e-05 -6.6782512e-15 -0.16666602 3.5908274e-16 0.33333215)
(-0.16666618 -4.9975741e-05 4.1937971e-21 -0.16666608 -1.4147146e-22 0.33333226)
(-0.16666622 -4.931448e-05 -2.8848624e-15 -0.16666613 1.1120865e-18 0.33333234)
(-0.16666625 -4.8511267e-05 -2.8748875e-15 -0.16666617 9.7108968e-19 0.33333241)
(-0.16666627 -4.7663562e-05 -5.6788102e-22 -0.1666662 1.6608054e-25 0.33333247)
(-0.16666629 -4.6705493e-05 -1.7761773e-18 -0.16666623 3.3866785e-22 0.33333252)
(-0.16666631 -4.5681588e-05 1.9841441e-15 -0.16666626 1.7078604e-16 0.33333257)
(-0.16666633 -4.4572032e-05 -4.1621372e-15 -0.16666628 1.3888989e-15 0.33333261)
(-0.16666634 -4.3392171e-05 -6.1678941e-15 -0.16666631 1.2190734e-15 0.33333264)
(-0.16666635 -4.2140282e-05 -5.8214034e-15 -0.16666632 5.484671e-19 0.33333267)
(-0.16666636 -4.0819178e-05 -6.8249057e-18 -0.16666634 4.0431821e-22 0.3333327)
(-0.16666637 -3.9432329e-05 1.1877812e-14 -0.16666635 -3.0348821e-19 0.33333272)
(-0.16666637 -3.7981098e-05 6.0100337e-15 -0.16666637 4.1645299e-20 0.33333274)
(-0.16666638 -3.6468761e-05 3.0455526e-15 -0.16666638 1.1647782e-19 0.33333275)
(-0.16666638 -3.4881004e-05 3.0932372e-15 -0.16666638 2.1331797e-19 0.33333276)
(-0.16666638 -3.3223663e-05 -2.1726887e-15 -0.16666638 -1.7227334e-16 0.33333276)
(-0.16666638 -3.1499676e-05 -8.5803547e-15 -0.16666639 -1.7301852e-16 0.33333277)
(-0.16666638 -2.9728436e-05 -6.4882187e-15 -0.16666639 -1.0237261e-18 0.33333277)
(-0.16666638 -2.7892711e-05 -1.5680096e-21 -0.1666664 -1.4263376e-22 0.33333278)
(-0.16666638 -2.6016776e-05 3.3620303e-15 -0.1666664 7.1765952e-19 0.33333278)
(-0.16666638 -2.4089611e-05 5.8247079e-15 -0.1666664 1.7384153e-16 0.33333278)
(-0.16666638 -2.2102707e-05 2.44418e-15 -0.1666664 1.7298799e-16 0.33333278)
(-0.16666638 -2.0090801e-05 -2.1867971e-18 -0.1666664 -6.6164147e-22 0.33333277)
(-0.16666637 -1.8021333e-05 -1.0439937e-14 -0.16666639 1.046944e-15 0.33333277)
(-0.16666637 -1.5897954e-05 -1.0687498e-14 -0.16666639 1.0472717e-15 0.33333276)
(-0.16666637 -1.3761556e-05 3.0803834e-18 -0.16666639 1.2574397e-21 0.33333275)
(-0.16666636 -1.1556627e-05 -1.8682876e-18 -0.16666638 -8.3039035e-22 0.33333275)
(-0.16666636 -9.3235233e-06 -3.6243729e-15 -0.16666638 6.9927323e-16 0.33333274)
(-0.16666636 -7.0674917e-06 -3.7177649e-15 -0.16666637 6.9950714e-16 0.33333273)
(-0.16666635 -4.7426817e-06 -8.6553891e-15 -0.16666636 -3.9703031e-18 0.33333272)
(-0.16666635 -2.4171002e-06 -5.8227898e-15 -0.16666635 1.7044417e-16 0.3333327)
(-0.16666635 -3.0838e-08 3.1923235e-15 -0.16666635 1.7483461e-16 0.33333269)
(-0.16666634 2.391561e-06 6.5834199e-19 -0.16666634 3.8793644e-22 0.33333268)
(-0.16666634 4.8359944e-06 6.638173e-22 -0.16666632 3.6191789e-25 0.33333266)
(-0.16666633 7.3267228e-06 -4.3736194e-19 -0.16666631 -2.9676145e-22 0.33333265)
(-0.16666632 9.870925e-06 -1.6043337e-15 -0.1666663 1.726134e-16 0.33333263)
(-0.16666632 1.2424044e-05 -1.6588318e-15 -0.16666629 1.7258582e-16 0.33333261)
(-0.16666632 1.5030318e-05 2.7285685e-19 -0.16666628 2.2600654e-22 0.33333259)
(-0.16666631 1.7690506e-05 2.7631817e-24 -0.16666626 2.2679056e-24 0.33333257)
(-0.1666663 2.0371116e-05 1.3395826e-27 -0.16666624 5.5526605e-28 0.33333254)
(-0.16666629 2.3122719e-05 -1.5181593e-19 -0.16666623 -3.3090555e-23 0.33333252)
(-0.16666629 2.5936744e-05 1.982238e-15 -0.16666621 -1.7256015e-16 0.3333325)
(-0.16666628 2.8774631e-05 -4.2515817e-15 -0.16666619 1.7435619e-16 0.33333247)
(-0.16666627 3.1697101e-05 -6.5556831e-15 -0.16666617 3.46667e-16 0.33333244)
(-0.16666626 3.4688678e-05 1.4672142e-19 -0.16666615 1.2879955e-22 0.33333241)
(-0.16666625 3.7732576e-05 5.209569e-15 -0.16666612 1.7822237e-16 0.33333238)
(-0.16666624 4.0865857e-05 -7.8083256e-18 -0.1666661 -7.8759949e-20 0.33333234)
(-0.16666623 4.4100852e-05 -5.6510422e-15 -0.16666607 -1.7921621e-16 0.3333323)
(-0.16666622 4.7398274e-05 1.2789111e-18 -0.16666604 9.9366003e-22 0.33333226)
(-0.1666662 5.0831544e-05 8.8742086e-15 -0.16666601 7.7041809e-18 0.33333222)
(-0.16666619 5.4349969e-05 9.2604473e-15 -0.16666598 8.239641e-18 0.33333217)
(-0.16666618 5.7992552e-05 -2.1440519e-21 -0.16666595 -1.9547442e-24 0.33333213)
(-0.16666616 6.1785832e-05 1.0123138e-14 -0.16666591 9.4546027e-18 0.33333208)
(-0.16666615 6.568092e-05 2.1184222e-14 -0.16666587 2.0269007e-17 0.33333202)
(-0.16666613 6.9770257e-05 1.1092358e-14 -0.16666583 1.0870176e-17 0.33333197)
(-0.16666612 7.4014141e-05 -2.3236821e-14 -0.16666579 -2.3323723e-17 0.3333319)
(-0.1666661 7.8453311e-05 -2.4371346e-14 -0.16666574 -2.5061187e-17 0.33333184)
(-0.16666608 8.309742e-05 -1.1083659e-21 -0.16666569 1.9036701e-24 0.33333176)
(-0.16666606 8.8005541e-05 -4.770038e-18 -0.16666563 -4.7656249e-21 0.33333168)
(-0.16666603 9.3146167e-05 -9.8337667e-15 -0.16666557 -1.868931e-16 0.3333316)
(-0.166666 9.8629538e-05 1.9574112e-14 -0.1666655 -1.5420455e-16 0.3333315)
(-0.16666598 0.00010440106 4.2499162e-14 -0.16666542 2.2600018e-16 0.3333314)
(-0.16666595 0.00011055508 1.1543606e-14 -0.16666535 1.9076613e-16 0.33333129)
(-0.16666592 0.00011706523 -1.7711495e-14 -0.16666526 -2.177889e-17 0.33333118)
(-0.16666588 0.0001241364 -3.1717194e-14 -0.16666516 -2.1735647e-16 0.33333105)
(-0.16666585 0.00013154222 -5.3500226e-14 -0.16666506 -2.4741875e-16 0.33333091)
(-0.16666581 0.00013972404 -5.5221118e-14 -0.16666494 2.8221668e-16 0.33333075)
(-0.16666577 0.00014831519 -1.3850001e-14 -0.16666482 3.3836255e-16 0.33333058)
(-0.16666572 0.00015794244 -6.3042561e-17 -0.16666468 -8.4469033e-20 0.3333304)
(-0.16666567 0.0001680179 5.6416298e-14 -0.16666452 -8.111293e-16 0.33333019)
(-0.16666562 0.00017957697 6.064092e-14 -0.16666434 -8.0338054e-16 0.33332997)
(-0.16666557 0.00019141525 5.001662e-17 -0.16666416 7.367973e-20 0.33332973)
(-0.16666552 0.00020565102 2.9165168e-20 -0.16666394 4.6978424e-23 0.33332946)
(-0.16666547 0.00021957894 -2.1463473e-17 -0.16666372 -3.3771204e-20 0.33332919)
(-0.16666543 0.0002375939 -2.1888215e-15 -0.16666346 -1.8641805e-16 0.33332889)
(-0.16666539 0.00025385549 -2.2640625e-15 -0.1666632 -1.879749e-16 0.3333286)
(-0.16666539 0.00027734545 2.8842362e-17 -0.1666629 4.9723812e-20 0.33332828)
(-0.16666539 0.00029590973 -7.9571823e-14 -0.16666263 -1.5047371e-16 0.33332802)
(-0.16666547 0.00032755156 -8.7289221e-14 -0.1666623 -1.6857588e-16 0.33332778)
(-0.16666559 0.00034725469 5.2095639e-33 -0.16666211 9.7427531e-36 0.3333277)
(-0.16666587 0.00039173806 -5.7728591e-20 -0.16666184 -1.1451311e-22 0.33332771)
(-0.16666622 0.00040817066 1.4413105e-13 -0.16666196 2.8817641e-16 0.33332818)
(-0.16666694 0.00047362988 1.4982282e-13 -0.16666197 -4.5765088e-16 0.33332891)
(-0.16666777 0.00047425396 -9.5880786e-15 -0.16666293 -7.6513136e-16 0.33333071)
(-0.16666925 0.00057361392 1.5547741e-16 -0.16666373 2.4000336e-19 0.33333298)
(-0.16667084 0.00052747069 -9.1618813e-17 -0.16666644 -1.2482032e-19 0.33333728)
(-0.16667293 0.00068020425 1.0862071e-13 -0.16666852 -3.1547125e-16 0.33334145)
(-0.16667495 0.00052371432 1.1803513e-13 -0.1666732 -3.765138e-16 0.33334816)
(-0.16667552 0.00075406953 1.1472015e-16 -0.1666757 -1.0498012e-19 0.33335123)
(-0.16667617 0.00040405413 -2.9328643e-20 -0.16667848 -1.0742451e-22 0.33335465)
(-0.16667026 0.00074008452 2.3776029e-16 -0.16667773 -8.1489097e-19 0.33334799)
(-0.16659152 0.00017960464 -2.0663625e-13 -0.16659437 1.6289355e-15 0.3331859)
(-0.16601092 0.00050369503 -1.6914563e-13 -0.16600879 6.9173915e-16 0.33201972)
(-0.16562462 -0.00022686806 -1.5225863e-13 -0.16567224 -8.0154319e-15 0.33129686)
(-0.16546944 -0.00030959027 -1.4843416e-13 -0.16560658 -1.631374e-14 0.33107602)
(-0.16532012 -0.00088296173 3.0415938e-16 -0.16592049 4.9074305e-17 0.3312406)
(-0.16510064 -0.0011094447 3.3838e-16 -0.16613169 7.5443161e-17 0.33123233)
(-0.16470189 -0.0016470995 2.1762727e-16 -0.16666801 5.723822e-17 0.3313699)
(-0.16415284 -0.0020730949 4.9317231e-14 -0.16722522 1.6492169e-14 0.33137806)
(-0.16308977 -0.002888585 -7.7510684e-14 -0.1683206 -2.9606925e-14 0.33141037)
(-0.16078829 -0.0042861568 -1.9556612e-13 -0.17030676 -8.8473197e-14 0.33109505)
(-0.14969122 -0.0094585984 2.4360826e-15 -0.17813767 1.4564515e-15 0.32782889)
(-0.17883144 0.014639463 2.8695683e-13 -0.14750336 1.1363342e-13 0.3263348)
(-0.17103062 0.0034007992 1.4719231e-13 -0.16075354 7.7352162e-14 0.33178416)