/*--------------------------------*- C++ -*----------------------------------*\
| =========                 |                                                 |
| \\      /  F ield         | OpenFOAM: The Open Source CFD Toolbox           |
|  \\    /   O peration     | Version:  2.4.0                                 |
|   \\  /    A nd           | Web:      www.OpenFOAM.org                      |
|    \\/     M anipulation  |                                                 |
\*---------------------------------------------------------------------------*/
FoamFile
{
    version     2.0;
    format      ascii;
    class       volVectorField;
    location    "20000";
    object      wallShearStress;
}
// * * * * * * * * * * * * * * * * * * * * * * * * * * * * * * * * * * * * * //

dimensions      [0 2 -2 0 0 0 0];

internalField   uniform (0 0 0);

boundaryField
{
    inlet
    {
        type            cyclic;
    }
    outlet
    {
        type            cyclic;
    }
    top
    {
        type            calculated;
        value           nonuniform List<vector> 
200
(
(-0.0058302089 9.7505432e-07 -9.0555236e-17)
(-0.0032281718 4.882723e-07 -1.2405908e-16)
(-0.0049480515 -1.4970349e-06 -2.0178272e-29)
(-0.0041763073 9.5858302e-07 -1.9678091e-23)
(-0.0044619302 -3.3647206e-07 3.702434e-23)
(-0.0043362114 1.5046043e-07 -7.0572982e-23)
(-0.0043757891 -8.2223497e-08 -1.0686721e-16)
(-0.0043569838 -1.9395626e-08 -2.1204148e-16)
(-0.0043642746 -4.1150446e-08 -1.0501643e-16)
(-0.0043600054 -2.7381466e-09 -1.6179656e-24)
(-0.0043577625 2.3168342e-08 1.3715623e-22)
(-0.0043520972 5.8965876e-08 -1.0223813e-16)
(-0.0043451963 9.217613e-08 -1.3738804e-20)
(-0.0043365388 1.2540797e-07 1.0052714e-16)
(-0.0043266043 1.5609744e-07 1.6522915e-26)
(-0.0043155399 1.840336e-07 1.3715855e-22)
(-0.0043036149 2.1019645e-07 -9.8194752e-17)
(-0.0042905364 2.3507013e-07 2.6080032e-22)
(-0.0042763788 2.5476621e-07 9.6805939e-17)
(-0.0042616551 2.7001087e-07 -9.6166369e-17)
(-0.0042464504 2.823486e-07 -2.8659902e-16)
(-0.0042308373 2.9247281e-07 -1.8979295e-16)
(-0.0042148099 3.0081999e-07 4.262568e-26)
(-0.0041983834 3.0708217e-07 7.7952101e-24)
(-0.0041816321 3.1108456e-07 -1.1605766e-22)
(-0.0041645986 3.1289602e-07 -3.4056222e-26)
(-0.0041474127 3.117701e-07 -7.6837826e-24)
(-0.0041302922 3.0965137e-07 -7.6235989e-24)
(-0.0041130837 3.0761946e-07 -1.8399011e-16)
(-0.0040956972 3.0478488e-07 -3.6645056e-16)
(-0.0040781239 3.0062528e-07 -1.8250498e-16)
(-0.0040604139 2.9556371e-07 -9.1002099e-17)
(-0.0040424936 2.8929185e-07 -9.0960675e-17)
(-0.0040244807 2.8173249e-07 3.2689969e-29)
(-0.0040063458 2.7398805e-07 -1.4973889e-23)
(-0.0039880669 2.6678273e-07 2.9925857e-23)
(-0.0039693962 2.5980106e-07 -2.7083728e-16)
(-0.0039504086 2.5042897e-07 -1.8030174e-16)
(-0.0039312834 2.397423e-07 9.0180324e-17)
(-0.0039121078 2.284659e-07 1.4910323e-23)
(-0.0038928853 2.1657191e-07 1.8021264e-16)
(-0.0038737747 2.0466704e-07 1.7980294e-16)
(-0.0038546655 1.9209127e-07 8.9918419e-17)
(-0.0038359375 1.8018358e-07 5.8258752e-23)
(-0.0038170469 1.6483852e-07 -9.0011423e-17)
(-0.0037994681 1.6355518e-07 9.0287902e-17)
(-0.0037777975 1.7337222e-07 9.0187879e-17)
(-0.0037556198 1.2351873e-07 7.750052e-31)
(-0.0037376792 9.883471e-08 6.369073e-31)
(-0.0037197266 8.5986809e-08 9.0932478e-17)
(-0.0037023198 7.5872637e-08 9.0980517e-17)
(-0.0036850307 6.7848982e-08 -1.5097945e-23)
(-0.0036678687 6.1108718e-08 1.5184082e-23)
(-0.0036507403 5.5466948e-08 -1.5184149e-23)
(-0.0036336216 5.0524172e-08 -9.2224751e-17)
(-0.0036165041 4.5978391e-08 -9.2375788e-17)
(-0.0035994019 4.1804982e-08 -3.2052443e-30)
(-0.0035823184 3.8058211e-08 -1.5448776e-23)
(-0.0035652579 3.4723955e-08 1.5448845e-23)
(-0.0035482249 3.1757457e-08 1.557324e-23)
(-0.0035312301 2.9125077e-08 -1.5573312e-23)
(-0.003514283 2.6850269e-08 -1.5288777e-30)
(-0.0034973916 2.495699e-08 -7.8891906e-24)
(-0.0034805604 2.3403109e-08 -9.5583889e-17)
(-0.0034638006 2.2183802e-08 -9.5898445e-17)
(-0.0034471174 2.1293822e-08 3.866032e-26)
(-0.0034305209 2.0682521e-08 9.6961995e-17)
(-0.0034140237 2.0315865e-08 9.7324073e-17)
(-0.0033976398 2.0231288e-08 -9.7942829e-17)
(-0.0033813763 2.0431796e-08 -9.8334359e-17)
(-0.0033652421 2.0889955e-08 8.1668131e-24)
(-0.0033492481 2.158157e-08 8.2545853e-24)
(-0.0033334042 2.2489386e-08 -1.0003646e-16)
(-0.0033177234 2.3577072e-08 -1.0048146e-16)
(-0.0033022182 2.4847812e-08 -8.3921655e-24)
(-0.0032869012 2.6304696e-08 -4.7217561e-26)
(-0.0032717809 2.7936877e-08 1.6926752e-23)
(-0.0032568698 2.9725129e-08 -1.0285999e-16)
(-0.0032421756 3.1664769e-08 -1.0336091e-16)
(-0.003227711 3.3746466e-08 -1.0404005e-16)
(-0.0032134802 3.5926651e-08 -2.0919868e-16)
(-0.0031995035 3.8176875e-08 -1.0516733e-16)
(-0.0031857837 4.0654326e-08 4.3672531e-24)
(-0.0031723119 4.3405397e-08 -2.0192777e-31)
(-0.0031590877 4.6207636e-08 -1.4346148e-31)
(-0.0031461298 4.8938772e-08 -6.0437335e-31)
(-0.0031334576 5.1584029e-08 6.1010104e-31)
(-0.0031210877 5.4186008e-08 -4.5209635e-24)
(-0.0031090335 5.6736692e-08 -1.0956071e-16)
(-0.0030973071 5.9240233e-08 -1.1013925e-16)
(-0.0030859191 6.1670612e-08 -4.5727279e-24)
(-0.0030748834 6.4007533e-08 5.9203208e-32)
(-0.0030642091 6.6297387e-08 -4.3999935e-33)
(-0.0030539032 6.8511933e-08 -1.1267042e-16)
(-0.0030439737 7.0620141e-08 -1.1326336e-16)
(-0.0030344292 7.2629479e-08 -1.1390153e-16)
(-0.003025276 7.4515886e-08 -2.290086e-16)
(-0.003016522 7.6256285e-08 -2.3022579e-16)
(-0.0030081742 7.7848365e-08 -1.1571349e-16)
(-0.0030002393 7.9274788e-08 -2.4040739e-33)
(-0.0029927247 8.0504546e-08 -1.7142419e-32)
(-0.0029856365 8.1541556e-08 1.1749184e-16)
(-0.0029789827 8.2343993e-08 2.3615013e-16)
(-0.0029727708 8.2913558e-08 2.3729488e-16)
(-0.002967006 8.3256626e-08 1.1922221e-16)
(-0.002961693 8.3343733e-08 1.1975496e-16)
(-0.0029568397 8.3162884e-08 1.2032965e-16)
(-0.0029524443 8.2793608e-08 2.0718187e-31)
(-0.0029485032 8.2186009e-08 7.4323689e-32)
(-0.0029450221 8.1223264e-08 5.0558825e-24)
(-0.0029420115 7.9875776e-08 2.0653925e-26)
(-0.0029394827 7.8129423e-08 1.228656e-16)
(-0.0029374442 7.5980153e-08 5.9670251e-20)
(-0.0029359057 7.3430903e-08 -2.4768402e-16)
(-0.0029348723 7.0465426e-08 -1.2433168e-16)
(-0.002934353 6.7072862e-08 -9.0955322e-31)
(-0.002934352 6.3220515e-08 -9.8829287e-31)
(-0.0029348819 5.8833309e-08 1.255334e-16)
(-0.0029359561 5.3894144e-08 2.5194415e-16)
(-0.0029375919 4.841726e-08 2.5270448e-16)
(-0.0029397953 4.2429244e-08 1.2676616e-16)
(-0.0029425747 3.5961857e-08 1.2700969e-16)
(-0.0029459269 2.901494e-08 1.2744706e-16)
(-0.00294986 2.1536755e-08 -1.631895e-30)
(-0.0029543732 1.3516172e-08 -1.0607186e-23)
(-0.0029594774 4.9448408e-09 2.1236164e-23)
(-0.0029651674 -4.1787053e-09 1.2845602e-16)
(-0.002971453 -1.3866805e-08 2.5751056e-16)
(-0.0029783278 -2.4218876e-08 2.579358e-16)
(-0.0029858194 -3.5304189e-08 1.2923295e-16)
(-0.0029939207 -4.7043198e-08 1.2925234e-16)
(-0.0030026503 -5.9400779e-08 1.295545e-16)
(-0.003011981 -7.2288372e-08 4.4863081e-31)
(-0.0030219256 -8.5850443e-08 -1.2961547e-16)
(-0.0030324668 -1.0002692e-07 -1.2986194e-16)
(-0.0030436131 -1.1484122e-07 1.0748527e-23)
(-0.0030553447 -1.3036299e-07 2.5952009e-16)
(-0.0030676826 -1.4658013e-07 3.8964787e-16)
(-0.0030806003 -1.635644e-07 1.299208e-16)
(-0.0030941366 -1.8146244e-07 -1.0733846e-23)
(-0.0031082739 -2.001334e-07 2.1478775e-23)
(-0.0031230379 -2.1968578e-07 5.4721297e-30)
(-0.0031384138 -2.4009262e-07 6.8386039e-31)
(-0.0031544325 -2.6140593e-07 1.2916267e-16)
(-0.003171067 -2.8346799e-07 2.5814695e-16)
(-0.0031883428 -3.0642784e-07 1.2895858e-16)
(-0.0032062278 -3.3023969e-07 1.2847009e-16)
(-0.0032247836 -3.5500682e-07 1.2841303e-16)
(-0.0032439028 -3.8046105e-07 -4.2373186e-23)
(-0.0032637746 -4.0694575e-07 2.1158483e-23)
(-0.0032839797 -4.3385523e-07 -5.7873259e-30)
(-0.003305404 -4.6332803e-07 2.0957033e-23)
(-0.0033262676 -4.9383789e-07 -2.0956887e-23)
(-0.0033512605 -5.6266183e-07 2.5148093e-16)
(-0.003377833 -5.9038709e-07 2.5088275e-16)
(-0.0034016882 -6.0682009e-07 -5.8746097e-29)
(-0.0034257849 -6.321698e-07 2.0487764e-23)
(-0.0034497454 -6.5810549e-07 -1.1409966e-25)
(-0.0034744408 -6.8789205e-07 -1.0163551e-22)
(-0.0034999892 -7.1743163e-07 -4.1526699e-30)
(-0.0035263065 -7.4447759e-07 -8.0261948e-23)
(-0.0035533116 -7.6877848e-07 -1.5945439e-22)
(-0.0035809117 -7.9010901e-07 2.3881584e-16)
(-0.0036091263 -8.081588e-07 2.3758331e-16)
(-0.0036377798 -8.214206e-07 -1.3654329e-22)
(-0.0036667554 -8.2982058e-07 -1.9416275e-23)
(-0.0036959842 -8.3485603e-07 -8.5390118e-29)
(-0.0037256375 -8.3672659e-07 -1.5159379e-29)
(-0.00375553 -8.3435067e-07 -4.449104e-28)
(-0.0037856635 -8.2801223e-07 2.2505455e-16)
(-0.0038158557 -8.179325e-07 4.460154e-16)
(-0.0038461819 -8.0449542e-07 2.2087077e-16)
(-0.0038763997 -7.8764351e-07 4.8934118e-28)
(-0.0039066523 -7.6862319e-07 1.4294747e-22)
(-0.0039367828 -7.4733456e-07 2.0952927e-29)
(-0.0039669258 -7.2333469e-07 -1.3957059e-22)
(-0.003996642 -6.9510625e-07 8.5581e-24)
(-0.0040260134 -6.6411915e-07 -8.5579419e-24)
(-0.0040548198 -6.3000532e-07 2.0253989e-16)
(-0.004083165 -5.9293888e-07 1.9994367e-16)
(-0.0041107489 -5.5261791e-07 -1.3047111e-22)
(-0.0041377229 -5.0955166e-07 2.9653537e-28)
(-0.0041638095 -4.6238468e-07 9.5564712e-17)
(-0.0041887848 -4.1003474e-07 9.4145447e-17)
(-0.0042121719 -3.5577864e-07 9.2611456e-17)
(-0.0042344682 -3.0201781e-07 3.1127914e-20)
(-0.004255418 -2.4787847e-07 -8.9653157e-17)
(-0.004274897 -1.9546845e-07 1.1675346e-22)
(-0.0042931213 -1.4379407e-07 -1.4079946e-26)
(-0.0043086991 -9.7444886e-08 -1.1322115e-22)
(-0.0043241325 -4.8972937e-08 4.3684666e-25)
(-0.0043324631 -2.1177783e-08 1.6443274e-16)
(-0.0043487537 3.1591809e-08 1.6167469e-16)
(-0.0043384061 -1.5364941e-08 -4.7594218e-29)
(-0.0043853446 8.3698737e-08 5.1835684e-23)
(-0.0043100223 -1.4530041e-07 -2.5218142e-23)
(-0.004500743 2.7260206e-07 -3.8280044e-25)
(-0.0041238962 -5.1841067e-07 3.828034e-25)
(-0.0049295569 6.5919017e-07 7.778022e-17)
(-0.0033633645 -8.1336063e-07 6.065729e-17)
)
;
    }
    hills
    {
        type            calculated;
        value           nonuniform List<vector> 
200
(
(-0.0039898037 -1.6535756e-05 9.8435472e-26)
(-0.0026958178 3.6199342e-06 2.1279133e-17)
(-0.0045447342 0.00012304631 1.0312828e-17)
(-0.0031413388 0.00024278044 8.3967915e-18)
(-0.0023715879 0.00035346055 7.7406429e-18)
(-0.00021500004 5.9021574e-05 1.0436334e-17)
(0.0011535869 -0.0003998878 1.2759945e-17)
(0.0016408437 -0.00076787749 -1.2096741e-24)
(0.0012843508 -0.00073101093 1.4003333e-17)
(0.00099702032 -0.00064917078 1.3539092e-17)
(0.00076324689 -0.00054757859 -3.4785406e-19)
(0.0006551793 -0.00050316135 -3.51953e-19)
(0.00058781903 -0.00047355188 -1.3976856e-23)
(0.00053621758 -0.00044600078 -2.8147114e-24)
(0.00048900246 -0.00041446468 -3.6082136e-19)
(0.00044166801 -0.00037691667 -3.6296624e-19)
(0.0003960821 -0.00033652709 2.7478313e-17)
(0.0003633746 -0.00030458141 2.7659644e-17)
(0.00034269983 -0.00028313148 1.3522508e-17)
(0.00032919509 -0.0002684564 1.3590468e-17)
(0.0003247416 -0.00026167968 -3.6673644e-19)
(0.00032728283 -0.00026092538 -5.3749741e-24)
(0.00033723803 -0.00026635842 -3.6662965e-19)
(0.00035448449 -0.00027768127 -3.6650683e-19)
(0.00037748722 -0.00029372042 -7.3281633e-19)
(0.00040591438 -0.00031410418 -3.6643168e-19)
(0.00043555769 -0.00033564177 -1.46355e-24)
(0.00046206942 -0.00035383063 -6.0586592e-24)
(0.0004854153 -0.00036738434 3.6786151e-19)
(0.00050580666 -0.00037611781 -3.6877049e-19)
(0.00052215394 -0.00037905069 -3.6975489e-19)
(0.00053378835 -0.00037564312 3.7098033e-19)
(0.00053993568 -0.00036544281 -3.7227764e-19)
(0.00053981849 -0.0003481922 -1.1257808e-23)
(0.00053326025 -0.00032419148 1.9556989e-17)
(0.00052219437 -0.000295357 1.9841629e-17)
(0.00051104054 -0.00026550559 1.844474e-17)
(0.00049867749 -0.00023546136 1.8885086e-17)
(0.00048283548 -0.00020455984 3.7753681e-19)
(0.00046284604 -0.00017309729 -1.8884662e-19)
(0.00043985191 -0.00014215237 1.1095774e-23)
(0.00041057615 -0.00011142214 -3.7696907e-19)
(0.00038270511 -8.3594921e-05 2.2687218e-23)
(0.00034743266 -5.7229752e-05 9.3606667e-20)
(0.00033387705 -3.6736797e-05 -1.85991e-19)
(0.00031398657 -1.749709e-05 4.1466008e-17)
(0.00042327809 -3.9486248e-06 4.1058896e-17)
(0.00058994943 -1.1535111e-06 8.1333521e-29)
(0.00069122372 -9.5100824e-07 -1.1000473e-23)
(0.00079662595 -8.7919135e-07 1.1000149e-23)
(0.000877915 -8.0163264e-07 -1.0969206e-23)
(0.00095522434 -7.530188e-07 1.0968889e-23)
(0.0010205111 -7.1117119e-07 -1.0996717e-23)
(0.0010811664 -6.817827e-07 1.0996471e-23)
(0.0011350428 -6.5838374e-07 5.4954405e-30)
(0.0011850699 -6.407113e-07 5.6193855e-30)
(0.0012307745 -6.2640361e-07 4.1088494e-17)
(0.0012733821 -6.1443056e-07 4.1408949e-17)
(0.001312846 -6.0371795e-07 -2.0808783e-17)
(0.001349691 -5.9349591e-07 -2.100142e-17)
(0.0013839489 -5.8321331e-07 -4.2314854e-17)
(0.0014158424 -5.7239364e-07 -4.2761531e-17)
(0.0014453952 -5.6074092e-07 5.8586926e-26)
(0.0014726947 -5.4799756e-07 6.2531873e-26)
(0.0014977469 -5.3399401e-07 -5.9464955e-24)
(0.0015205759 -5.1858798e-07 1.2165855e-23)
(0.0015411748 -5.0177964e-07 -1.2165675e-23)
(0.0015595563 -4.8364872e-07 2.2805547e-17)
(0.0015757327 -4.643097e-07 4.6237525e-17)
(0.0015897289 -4.4385116e-07 2.3443557e-17)
(0.0016015692 -4.2234042e-07 6.3972176e-24)
(0.0016112831 -3.9985349e-07 -6.3613921e-30)
(0.0016189015 -3.7646847e-07 6.6646589e-24)
(0.0016244608 -3.5229051e-07 -6.6645509e-24)
(0.0016280036 -3.2741384e-07 8.6104658e-30)
(0.0016295756 -3.0171897e-07 8.6499214e-30)
(0.0016291801 -2.7514454e-07 -2.5791557e-17)
(0.0016268422 -2.4797813e-07 -2.6187287e-17)
(0.0016226091 -2.2043689e-07 7.1571668e-24)
(0.001616538 -1.9266507e-07 -7.3664291e-24)
(0.0016086847 -1.6469287e-07 7.3666413e-24)
(0.001599104 -1.3668257e-07 2.7718122e-17)
(0.0015878697 -1.0875914e-07 2.8134395e-17)
(0.0015750406 -8.0865465e-08 -3.8991729e-24)
(0.001560674 -5.3236989e-08 3.8987379e-24)
(0.0015448565 -2.5950914e-08 -2.548988e-30)
(0.0015276447 1.0696276e-09 4.0641494e-24)
(0.0015091068 2.7528528e-08 -4.063697e-24)
(0.0014893329 5.3425466e-08 -5.7868979e-31)
(0.0014683861 7.8737919e-08 -1.3911245e-31)
(0.0014463509 1.0328519e-07 2.1421276e-24)
(0.0014233014 1.2719922e-07 3.1788723e-17)
(0.0013993013 1.5026727e-07 3.2199429e-17)
(0.0013744452 1.7245587e-07 -2.1965654e-24)
(0.0013487986 1.938871e-07 2.5125593e-31)
(0.0013224237 2.1438971e-07 -1.5751383e-31)
(0.0012954091 2.3393756e-07 3.3770418e-17)
(0.0012678144 2.5266879e-07 3.4159646e-17)
(0.0012396999 2.7029099e-07 -7.5942457e-32)
(0.0012111683 2.8681952e-07 -6.798805e-33)
(0.001182274 3.0263431e-07 -2.1218508e-32)
(0.0011530464 3.175308e-07 -6.4296618e-32)
(0.0011235682 3.3138459e-07 -3.6020355e-17)
(0.0010938935 3.4440145e-07 -3.6373638e-17)
(0.0010640651 3.5645359e-07 1.2390692e-24)
(0.0010341508 3.6759028e-07 6.9966541e-32)
(0.0010041911 3.7795107e-07 3.7387509e-17)
(0.00097422233 3.8743926e-07 -4.2496628e-20)
(0.00094429984 3.9609698e-07 -3.8073827e-17)
(0.0009144556 4.0402844e-07 5.229521e-24)
(0.00088472475 4.1114679e-07 -5.2291128e-24)
(0.00085514857 4.1753807e-07 1.8226192e-30)
(0.00082575654 4.2316008e-07 -5.3546156e-24)
(0.00079659225 4.2801291e-07 1.0750845e-23)
(0.00076768807 4.3219657e-07 -5.3956744e-24)
(0.00073907119 4.356494e-07 4.6344568e-30)
(0.00071077909 4.3846667e-07 5.5118513e-24)
(0.00068283566 4.4070351e-07 -5.5119546e-24)
(0.0006552599 4.4236346e-07 -5.584865e-24)
(0.00062807965 4.4348542e-07 5.5855532e-24)
(0.0006013105 4.4416372e-07 -4.1560981e-17)
(0.00057496294 4.4434698e-07 -4.1784083e-17)
(0.00054905811 4.4406513e-07 4.2066935e-17)
(0.00052361561 4.4333885e-07 4.2275887e-17)
(0.00049864388 4.4215506e-07 1.1512046e-23)
(0.00047417235 4.4054316e-07 -4.2786507e-17)
(0.00045020158 4.3860946e-07 -4.2974974e-17)
(0.00042675508 4.3621097e-07 8.6519161e-17)
(0.00040383999 4.3352951e-07 8.686971e-17)
(0.00038147842 4.3045877e-07 -3.7608049e-30)
(0.00035966384 4.2711703e-07 -4.3924793e-17)
(0.00033843465 4.2341588e-07 -4.408084e-17)
(0.00031776432 4.1939742e-07 -6.5362095e-30)
(0.00029773516 4.1494593e-07 -1.2096061e-23)
(0.00027827295 4.1030093e-07 1.2096457e-23)
(0.00025951827 4.0503757e-07 -8.5208058e-20)
(0.00024133923 3.9963425e-07 3.2017059e-20)
(0.00022397707 3.9336498e-07 -1.5931495e-29)
(0.00020718894 3.8708338e-07 -4.5367587e-17)
(0.00019138716 3.7962445e-07 -4.5604501e-17)
(0.00017612438 3.7223019e-07 6.7373619e-32)
(0.00016213957 3.6316096e-07 -2.4960702e-23)
(0.00014859146 3.5439337e-07 -8.7227698e-26)
(0.00013680744 3.4301471e-07 2.5048686e-23)
(0.00012524411 3.323615e-07 2.5217787e-23)
(0.00011627559 3.1750579e-07 -2.5217702e-23)
(0.000107098 3.0413227e-07 9.9004919e-30)
(0.00010194377 2.8378764e-07 -2.5461979e-23)
(9.5766514e-05 2.665742e-07 2.5461828e-23)
(9.6032284e-05 2.3683134e-07 -2.5619922e-23)
(9.3918152e-05 2.1391095e-07 2.5619346e-23)
(0.00010225371 1.6813843e-07 -1.415044e-29)
(0.00010610017 1.4321722e-07 -2.5852931e-23)
(0.00012554608 8.1450122e-07 -6.6006736e-21)
(0.00014430904 7.7840875e-06 1.0641789e-19)
(0.0001458511 1.5701546e-05 -2.1346885e-19)
(0.00014933626 2.3999435e-05 2.6145636e-23)
(0.0001418212 3.0175622e-05 1.7910333e-25)
(0.00013380774 3.5264561e-05 -4.3145555e-19)
(0.00011808325 3.6854087e-05 4.26944e-17)
(0.00010013962 3.5920498e-05 8.7678003e-17)
(7.5066821e-05 3.0047449e-05 4.4512615e-17)
(4.5740065e-05 1.9617995e-05 -7.8360331e-26)
(8.579642e-06 2.2858036e-06 -4.8077502e-17)
(-3.5669306e-05 -2.2478361e-05 -9.3049974e-17)
(-9.1634927e-05 -5.8051087e-05 -4.6305157e-17)
(-0.00015935175 -0.00010501094 -1.3299338e-24)
(-0.00023780968 -0.00016287152 8.9058715e-19)
(-0.00032757359 -0.00023188586 -5.5806666e-23)
(-0.00042794237 -0.00031120354 -8.9354229e-19)
(-0.0005396081 -0.00040067801 1.4037238e-24)
(-0.00066049036 -0.00049792865 -8.9328378e-19)
(-0.00079103295 -0.00060206295 -3.4374803e-17)
(-0.00092467783 -0.0007070113 -3.4154082e-17)
(-0.0010569102 -0.00081029623 8.8419014e-19)
(-0.0011847315 -0.00091192859 8.7867489e-19)
(-0.0013180387 -0.0010217471 3.2669066e-24)
(-0.0014632459 -0.0011433776 -3.3157954e-17)
(-0.0016168364 -0.0012754753 -3.270791e-17)
(-0.001787561 -0.0014257338 -2.15381e-23)
(-0.0019771322 -0.0015966832 1.4692152e-23)
(-0.0021977926 -0.0017990676 8.1791262e-19)
(-0.0024546077 -0.0020392728 3.1334723e-23)
(-0.0027914272 -0.002350879 2.9308958e-17)
(-0.003231842 -0.0027330707 5.5610079e-17)
(-0.0037549035 -0.0031518386 5.2858871e-17)
(-0.0043796548 -0.003604919 2.44208e-17)
(-0.0051203016 -0.0040795392 5.0426844e-23)
(-0.0060314137 -0.0045796872 -2.085551e-17)
(-0.0071124838 -0.0050506573 -3.4755092e-17)
(-0.0084556855 -0.0054646942 -2.7261177e-17)
(-0.0098770215 -0.0055950901 -7.8249523e-18)
(-0.011339227 -0.0053107576 -1.157735e-18)
(-0.011772558 -0.0041681266 7.7649235e-18)
(-0.010802826 -0.0026408592 -2.8326244e-19)
(-0.0085962434 -0.0013134929 -9.0438334e-20)
(-0.0066742456 -0.00053809988 4.0518589e-20)
(-0.0042260197 -0.00013041369 -2.0702726e-20)
(-0.003747674 -4.4505958e-06 1.8660825e-17)
(-0.0015880621 7.1143504e-06 2.4845192e-17)
)
;
    }
    front
    {
        type            empty;
    }
    back
    {
        type            empty;
    }
}


// ************************************************************************* //
