/*--------------------------------*- C++ -*----------------------------------*\
| =========                 |                                                 |
| \\      /  F ield         | OpenFOAM: The Open Source CFD Toolbox           |
|  \\    /   O peration     | Version:  2.4.0                                 |
|   \\  /    A nd           | Web:      www.OpenFOAM.org                      |
|    \\/     M anipulation  |                                                 |
\*---------------------------------------------------------------------------*/
FoamFile
{
    version     2.0;
    format      ascii;
    class       volScalarField;
    location    "400";
    object      p;
}
// * * * * * * * * * * * * * * * * * * * * * * * * * * * * * * * * * * * * * //

dimensions      [0 2 -2 0 0 0 0];

internalField   nonuniform List<scalar> 
32000
(
0.093162469
0.13850706
0.13247679
0.14052181
0.14352481
0.15147233
0.15674043
0.16018938
0.16310097
0.16467854
0.16474939
0.1634768
0.16069168
0.15620118
0.14999037
0.14288221
0.13640663
0.13228127
0.13205665
0.13650934
0.14543641
0.15790157
0.17271066
0.1884913
0.20397986
0.21815118
0.23022186
0.23969476
0.24713284
0.25287996
0.25681641
0.25942177
0.26119458
0.26258421
0.26387782
0.26518845
0.26649451
0.26771447
0.2687482
0.26942659
0.26963165
0.2693852
0.2688235
0.26806902
0.26719504
0.26613183
0.26481276
0.26268765
0.26042899
0.25792308
0.25522151
0.25231351
0.24920052
0.24586504
0.24229029
0.23845929
0.23435445
0.22995288
0.22522358
0.22012512
0.21460468
0.208598
0.20203182
0.19483424
0.18694948
0.17835031
0.16904593
0.15909413
0.1486116
0.13778563
0.12685746
0.11608958
0.10568422
0.095728247
0.086139952
0.076719715
0.067273112
0.057650098
0.047807391
0.037777249
0.027659586
0.017645373
0.0079770505
-0.0010939648
-0.009343241
-0.016579597
-0.022655992
-0.027472428
-0.030976605
-0.033158257
-0.034039652
-0.033670512
-0.032117781
-0.029461746
-0.025791712
-0.021199859
-0.015780249
-0.0096268302
-0.0028301086
0.0045220177
0.012345934
0.020564822
0.029106431
0.03790331
0.046893847
0.056020126
0.065228856
0.074472
0.083704684
0.092886201
0.10198047
0.11095472
0.11977996
0.12843067
0.13688502
0.14512515
0.15313557
0.16090396
0.16842114
0.1756795
0.18267374
0.18940079
0.19585845
0.20204615
0.20796494
0.21361635
0.21900312
0.22412927
0.22899915
0.23361819
0.23799289
0.24213014
0.24603772
0.24972427
0.25319899
0.25647183
0.25955346
0.26245515
0.26518902
0.26776784
0.27020484
0.27251355
0.27470732
0.27679906
0.27880148
0.28072766
0.28259136
0.2844085
0.28619509
0.28796972
0.28974069
0.29153485
0.2933307
0.29521683
0.29665864
0.29800889
0.29929709
0.30058362
0.30188756
0.30323435
0.3046313
0.30609138
0.30761965
0.30921972
0.31088832
0.31262851
0.31441417
0.31624321
0.31810999
0.31996221
0.32173887
0.32336926
0.32478015
0.32589341
0.32664239
0.32696899
0.32682783
0.32614524
0.32480685
0.32281443
0.32012285
0.31652958
0.31171948
0.30516979
0.29640615
0.28585666
0.27265936
0.25531774
0.23331887
0.20584803
0.17175111
0.13042536
0.08330812
0.03488325
0.002913274
-0.0075611442
-0.00076186912
0.012115718
0.034312041
0.037351907
0.093159267
0.1385093
0.13247385
0.14052278
0.14352242
0.15145834
0.15672477
0.16017159
0.1630837
0.1646697
0.16475115
0.16349004
0.16071962
0.15624731
0.15005286
0.14295016
0.13646375
0.13231094
0.13204636
0.13645474
0.14534175
0.15777638
0.17256705
0.18834205
0.20383618
0.21802189
0.23011417
0.23960958
0.24706572
0.2528303
0.25678324
0.25940047
0.26118052
0.26257359
0.26386835
0.26517926
0.26648566
0.26770643
0.26874192
0.26942304
0.26963097
0.26938642
0.26882527
0.26807028
0.26719524
0.26613035
0.26480928
0.26268408
0.26042579
0.2579199
0.25521835
0.25231031
0.24919726
0.2458617
0.24228685
0.23845573
0.23435075
0.22994897
0.22521942
0.22012062
0.21459977
0.20859264
0.20202596
0.19482788
0.18694266
0.17834313
0.16903856
0.15908679
0.14860458
0.13777923
0.12685195
0.1160851
0.1056807
0.095725426
0.086137559
0.076717616
0.067271347
0.057648836
0.047806821
0.037777504
0.02766072
0.017647333
0.0079797199
-0.0010907059
-0.0093395291
-0.01657559
-0.022651838
-0.027468259
-0.030972531
-0.033154365
-0.034036008
-0.033667166
-0.03211477
-0.029459096
-0.02578944
-0.021197975
-0.015778758
-0.0096257309
-0.0028293969
0.0045223493
0.012345894
0.02056442
0.029105677
0.03790222
0.046892436
0.05601841
0.065226851
0.074469724
0.083702152
0.09288343
0.10197748
0.11095152
0.11977658
0.12842712
0.13688133
0.14512132
0.15313164
0.16089995
0.16841706
0.17567538
0.18266959
0.18939662
0.19585429
0.202042
0.20796083
0.21361229
0.21899912
0.22412534
0.2289953
0.23361443
0.23798923
0.24212659
0.24603429
0.24972097
0.25319582
0.25646881
0.25955057
0.26245241
0.26518643
0.2677654
0.27020256
0.27251141
0.27470532
0.2767972
0.27879973
0.28072601
0.28258979
0.28440697
0.28619355
0.28796813
0.28973895
0.29153292
0.29332823
0.29521412
0.29665757
0.29800949
0.29929906
0.30058698
0.30189228
0.30324046
0.3046388
0.30610031
0.30763
0.30923146
0.3109014
0.31264275
0.31442931
0.3162591
0.31812616
0.319978
0.32175357
0.32338213
0.32479042
0.32590042
0.32664557
0.32696796
0.32682204
0.32613371
0.32478955
0.32279012
0.32008951
0.31648637
0.31166035
0.30509338
0.29631754
0.28574886
0.27251925
0.25514219
0.23310877
0.20560007
0.17146815
0.13012955
0.083039443
0.034718855
0.0028719858
-0.0075379628
-0.00072751418
0.012139553
0.034327185
0.03734757
0.093156386
0.13851212
0.13247048
0.14052456
0.14352008
0.15144343
0.1567078
0.16015187
0.16306436
0.16465968
0.16475296
0.16350464
0.1607507
0.15629874
0.15012265
0.14302621
0.1365279
0.13234447
0.13203526
0.13639414
0.14523633
0.15763673
0.17240677
0.1881754
0.20367568
0.21787741
0.2299938
0.23951433
0.24699063
0.25277474
0.25674612
0.25937664
0.26116481
0.26256173
0.26385781
0.26516905
0.2664758
0.26769745
0.26873486
0.26941905
0.26963019
0.26938774
0.26882718
0.26807159
0.26719535
0.26612856
0.26480528
0.26268004
0.26042222
0.25791636
0.25521485
0.25230678
0.24919367
0.24585802
0.24228308
0.23845184
0.2343467
0.22994471
0.22521487
0.22011571
0.21459443
0.20858678
0.20201955
0.19482091
0.18693518
0.17833525
0.16903044
0.15907869
0.14859681
0.13777213
0.12684581
0.11608007
0.10567674
0.095722291
0.086134962
0.076715407
0.067269562
0.05764765
0.047806436
0.037778057
0.027662246
0.017649749
0.0079828819
-0.0010869337
-0.0093352995
-0.01657108
-0.022647209
-0.027463651
-0.03096806
-0.03315012
-0.034032059
-0.033663562
-0.032111547
-0.02945628
-0.025787046
-0.021196012
-0.015777229
-0.0096246343
-0.0028287266
0.0045226023
0.01234574
0.020563867
0.029104738
0.037900912
0.046890777
0.056016418
0.065224544
0.074467119
0.083699267
0.092880283
0.10197409
0.11094791
0.11977276
0.12842311
0.13687716
0.14511702
0.15312722
0.16089544
0.16841248
0.17567075
0.18266493
0.18939195
0.19584962
0.20203736
0.20795622
0.21360773
0.21899463
0.22412093
0.22899098
0.23361022
0.23798514
0.24212262
0.24603046
0.24971727
0.25319228
0.25646542
0.25954735
0.26244936
0.26518355
0.26776269
0.27020002
0.27250904
0.27470311
0.27679514
0.27879781
0.2807242
0.28258805
0.28440528
0.28619185
0.28796635
0.28973701
0.29153075
0.2933254
0.29521098
0.29665624
0.29801004
0.29930117
0.30059063
0.30189746
0.30324717
0.30464709
0.30611019
0.30764147
0.30924448
0.31091594
0.31265857
0.31444613
0.31627675
0.31814413
0.31999553
0.32176988
0.32339639
0.32480178
0.32590815
0.32664907
0.32696682
0.32681589
0.32612268
0.32477065
0.32276171
0.32005033
0.31643628
0.3115896
0.3050041
0.29621823
0.2856281
0.27236163
0.25494545
0.23287363
0.20532406
0.17115496
0.12980385
0.082747414
0.034546345
0.0028362926
-0.0075052733
-0.00068622099
0.012165813
0.034344307
0.037343749
0.093154633
0.13851471
0.1324678
0.14052653
0.14351773
0.15142865
0.15669105
0.16013203
0.16304477
0.16464952
0.16475484
0.16351958
0.16078242
0.15635125
0.15019392
0.14310387
0.13659334
0.13237854
0.13202364
0.13633191
0.14512831
0.15749388
0.17224285
0.18800505
0.20351171
0.21772988
0.22987093
0.23941708
0.24691399
0.25271808
0.25670826
0.25935232
0.26114873
0.26254957
0.26384698
0.26515855
0.2664657
0.26768827
0.26872767
0.269415
0.2696294
0.26938903
0.268829
0.26807275
0.26719527
0.26612659
0.2648011
0.26267597
0.26041864
0.25791282
0.25521135
0.25230325
0.24919009
0.24585437
0.24227934
0.23844799
0.23434269
0.22994049
0.22521038
0.22011088
0.21458917
0.20858103
0.20201326
0.19481407
0.18692783
0.17832748
0.16902241
0.15907063
0.148589
0.1377649
0.12683946
0.11607479
0.10567252
0.095718952
0.086132255
0.076713181
0.067267833
0.057646556
0.04780615
0.037778686
0.027663793
0.017652093
0.0079858755
-0.0010834068
-0.0093313884
-0.016566949
-0.022643003
-0.027459493
-0.03096405
-0.033146336
-0.034028558
-0.033660388
-0.032108731
-0.029453843
-0.025785003
-0.02119437
-0.015775992
-0.0096238009
-0.0028282921
0.004522645
0.012345397
0.020563145
0.029103649
0.037899473
0.046889004
0.056014326
0.065222151
0.07446444
0.08369632
0.092877083
0.10197065
0.11094425
0.11976891
0.12841909
0.13687298
0.1451127
0.15312279
0.16089092
0.16840789
0.17566611
0.18266026
0.18938727
0.19584495
0.20203271
0.20795161
0.21360317
0.21899014
0.22411651
0.22898666
0.233606
0.23798103
0.24211864
0.24602662
0.24971358
0.25318874
0.25646204
0.25954413
0.2624463
0.26518066
0.26775997
0.27019747
0.27250666
0.2747009
0.27679307
0.27879587
0.28072237
0.28258631
0.28440357
0.28619011
0.28796454
0.28973501
0.29152851
0.29332249
0.29520767
0.29665475
0.29801046
0.29930319
0.30059424
0.30190264
0.30325394
0.30465547
0.30612021
0.30765313
0.30925774
0.31093075
0.31267471
0.31446331
0.31629478
0.31816248
0.32001344
0.32178655
0.32341096
0.3248134
0.32591606
0.32665272
0.32696597
0.32681055
0.32611386
0.32475161
0.3227334
0.32001296
0.3163876
0.31151063
0.3048951
0.29610766
0.28550195
0.27219985
0.2547438
0.23263329
0.20504458
0.17084063
0.12948033
0.082464273
0.034391249
0.0028196792
-0.0074594797
-0.00063953004
0.012193795
0.034362342
0.037341847
0.093154148
0.13851699
0.13246611
0.1405285
0.14351529
0.15141352
0.15667418
0.16011159
0.16302447
0.16463902
0.16475692
0.16353534
0.16081574
0.15640632
0.15026862
0.14318517
0.1366617
0.13241385
0.13201091
0.13626606
0.1450145
0.15734363
0.17207065
0.18782628
0.20333976
0.2175753
0.22974227
0.23931526
0.24683378
0.25265883
0.25666869
0.25932687
0.26113183
0.26253671
0.26383548
0.26514742
0.26645501
0.2676786
0.26872014
0.26941077
0.26962851
0.26939023
0.26883068
0.2680737
0.2671949
0.26612428
0.26479651
0.26267175
0.26041497
0.25790921
0.25520777
0.25229965
0.24918644
0.24585066
0.24227554
0.23844408
0.23433863
0.22993624
0.22520586
0.22010602
0.2145839
0.20857529
0.20200699
0.19480724
0.18692048
0.17831967
0.16901429
0.1590624
0.14858094
0.13775734
0.12683269
0.11606904
0.10566785
0.095715255
0.086129313
0.076710837
0.06726607
0.057645473
0.047805886
0.037779316
0.027665281
0.017654259
0.0079885894
-0.0010802279
-0.0093279035
-0.016563306
-0.022639327
-0.027455888
-0.030960597
-0.033143098
-0.034025584
-0.033657714
-0.032106384
-0.029451842
-0.025783362
-0.021193097
-0.015775092
-0.0096232747
-0.002828137
0.0045224341
0.012344819
0.020562204
0.02910236
0.03789785
0.04688706
0.056012077
0.06521961
0.074461623
0.083693241
0.092873758
0.1019671
0.11094049
0.11976495
0.12841495
0.13686868
0.14510827
0.15311825
0.16088629
0.16840319
0.17566136
0.18265548
0.18938249
0.19584017
0.20202796
0.2079469
0.21359852
0.21898555
0.224112
0.22898225
0.23360169
0.23797685
0.24211458
0.2460227
0.24970981
0.25318512
0.25645858
0.25954084
0.26244318
0.26517771
0.2677572
0.27019487
0.27250423
0.27469862
0.27679095
0.27879388
0.28072049
0.28258449
0.28440178
0.2861883
0.28796263
0.28973292
0.29152613
0.29331939
0.295204
0.29665298
0.29801067
0.2993051
0.30059784
0.30190791
0.3032609
0.30466415
0.30613063
0.30766529
0.30927159
0.31094625
0.31269162
0.31448131
0.31631368
0.31818173
0.32003224
0.32180406
0.32342627
0.32482562
0.3259244
0.32665663
0.32696525
0.32680507
0.32610401
0.32473182
0.32270514
0.31997835
0.31634522
0.31143813
0.30475243
0.29595598
0.28535739
0.27203114
0.25453277
0.23238152
0.20475503
0.17051848
0.12915424
0.082189069
0.034259435
0.0028320719
-0.0073918398
-0.0005816693
0.012227523
0.034382142
0.037341713
0.093155087
0.13851887
0.13246571
0.14053051
0.1435128
0.15139787
0.15665709
0.16009037
0.16300319
0.16462804
0.16475922
0.16355214
0.16085115
0.15646477
0.1503478
0.14327128
0.13673391
0.13245078
0.13199674
0.1361955
0.14489313
0.15718373
0.17188764
0.18763647
0.20315735
0.21741146
0.22960599
0.23920743
0.24674887
0.25259617
0.25662684
0.25929991
0.26111385
0.26252293
0.2638231
0.26513544
0.26644355
0.26766826
0.26871209
0.26940621
0.26962744
0.26939127
0.26883212
0.26807431
0.2671941
0.26612145
0.26479131
0.26266731
0.26041116
0.25790548
0.25520407
0.25229593
0.24918269
0.24584684
0.24227164
0.23844008
0.23433449
0.2299319
0.22520127
0.22010111
0.21457859
0.2085695
0.20200067
0.19480037
0.18691305
0.17831175
0.16900599
0.15905392
0.14857254
0.13774931
0.12682538
0.1160627
0.10566262
0.095711106
0.086126067
0.076708324
0.067264234
0.057644367
0.04780561
0.037779908
0.027666636
0.017656153
0.0079909203
-0.0010775046
-0.0093249631
-0.016560275
-0.022636307
-0.027452958
-0.030957819
-0.033140519
-0.034023241
-0.033655636
-0.032104594
-0.029450358
-0.025782196
-0.021192262
-0.015774593
-0.0096231141
-0.0028283161
0.0045219165
0.012343953
0.020560992
0.02910082
0.037895992
0.046884896
0.056009618
0.06521687
0.074458615
0.083689978
0.092870254
0.10196337
0.11093655
0.11976081
0.12841064
0.13686422
0.14510368
0.15311355
0.16088149
0.16839833
0.17565645
0.18265055
0.18937754
0.19583524
0.20202305
0.20794203
0.21359371
0.21898081
0.22410735
0.22897769
0.23359725
0.23797253
0.2421104
0.24601865
0.24970592
0.25318139
0.25645502
0.25953745
0.26243996
0.26517467
0.26775433
0.27019218
0.27250171
0.27469627
0.27678875
0.27879182
0.28071853
0.2825826
0.28439991
0.28618638
0.28796061
0.28973068
0.29152358
0.29331604
0.29519982
0.2966508
0.2980106
0.29930687
0.30060143
0.30191331
0.30326811
0.3046732
0.30614156
0.30767808
0.3092862
0.31096263
0.31270952
0.31450039
0.31633372
0.31820215
0.32005219
0.32182265
0.32344254
0.32483862
0.32593328
0.32666078
0.32696436
0.32679846
0.32609097
0.32471111
0.32267571
0.31994205
0.31630547
0.31139317
0.30460406
0.29574931
0.28518976
0.27185356
0.25431241
0.23211626
0.20445263
0.17018642
0.12882544
0.081925432
0.034160201
0.0028854848
-0.0072921839
-0.00050634926
0.012269833
0.034403509
0.03734366
0.093157615
0.13852028
0.13246705
0.14053259
0.14351037
0.15138166
0.15663988
0.1600684
0.16298091
0.16461654
0.16476176
0.16357005
0.16088879
0.15652682
0.15043179
0.14336248
0.13681012
0.13248931
0.13198087
0.13611976
0.14476356
0.15701346
0.17169301
0.18743485
0.20296375
0.2172377
0.22946155
0.23909316
0.24665893
0.25252987
0.25658255
0.25927131
0.26109466
0.26250809
0.26380971
0.26512247
0.26643119
0.26765715
0.26870345
0.26940125
0.26962607
0.26939199
0.26883315
0.26807442
0.26719268
0.26611792
0.2647853
0.26266258
0.26040718
0.25790163
0.25520025
0.25229211
0.24917883
0.24584293
0.24226766
0.23843599
0.23433027
0.2299275
0.22519663
0.22009616
0.21457326
0.20856371
0.20199437
0.1947935
0.1869056
0.17830375
0.16899755
0.15904519
0.14856375
0.13774078
0.12681745
0.11605569
0.10565675
0.095706433
0.086122465
0.076705608
0.067262299
0.057643206
0.047805273
0.037780392
0.027667709
0.017657592
0.007992683
-0.0010754531
-0.009322804
-0.016558104
-0.022634194
-0.027450949
-0.030955951
-0.033138819
-0.034021732
-0.03365434
-0.032103529
-0.029449541
-0.025781642
-0.021191983
-0.0157746
-0.0096234135
-0.0028289126
0.0045210155
0.01234273
0.020559448
0.029098974
0.037893852
0.046882469
0.056006914
0.0652139
0.074455388
0.083686506
0.092866549
0.10195944
0.11093242
0.11975649
0.12840615
0.13685958
0.14509891
0.15310867
0.16087653
0.1683933
0.17565138
0.18264545
0.18937243
0.19583014
0.20201798
0.20793701
0.21358874
0.21897592
0.22410255
0.228973
0.23359267
0.23796807
0.24210608
0.24601449
0.24970191
0.25317755
0.25645135
0.25953395
0.26243665
0.26517154
0.26775138
0.27018941
0.27249912
0.27469384
0.27678648
0.27878968
0.28071649
0.28258062
0.28439794
0.28618436
0.28795845
0.28972829
0.29152081
0.29331239
0.29519497
0.29664807
0.29801013
0.29930839
0.30060492
0.30191876
0.30327553
0.30468262
0.30615299
0.30769153
0.30930161
0.31097995
0.31272848
0.31452061
0.31635497
0.31822381
0.32007337
0.32184239
0.32345983
0.32485242
0.32594271
0.32666516
0.32696319
0.32679097
0.32607562
0.32468821
0.3226442
0.31990196
0.31626045
0.31136121
0.30452481
0.29556145
0.28500891
0.27166448
0.2540836
0.23183897
0.20413788
0.16984623
0.12849792
0.081680843
0.034105568
0.0029933862
-0.0071495017
-0.00040701428
0.01232378
0.034426501
0.037348471
0.093161891
0.13852115
0.1324707
0.14053481
0.14350817
0.15136486
0.15662268
0.16004576
0.16295763
0.16460453
0.16476455
0.16358913
0.16092878
0.15659264
0.15052079
0.14345895
0.13689042
0.13252933
0.13196299
0.13603836
0.14462521
0.15683209
0.17148609
0.18722073
0.20275834
0.21705348
0.22930851
0.23897211
0.24656371
0.25245973
0.25653566
0.25924097
0.26107414
0.26249207
0.26379516
0.26510839
0.26641779
0.26764516
0.2686941
0.26939576
0.26962428
0.26939226
0.26883362
0.26807384
0.26719047
0.2661135
0.26477828
0.26265754
0.26040302
0.25789765
0.25519631
0.25228817
0.24917487
0.24583893
0.24226359
0.23843184
0.234326
0.22992306
0.22519197
0.22009122
0.21456796
0.20855798
0.20198813
0.19478669
0.18689817
0.17829573
0.16898899
0.15903623
0.14855459
0.13773171
0.12680884
0.11604791
0.10565013
0.095701149
0.086118442
0.076702639
0.067260221
0.057641934
0.047804798
0.037780653
0.027668273
0.017658293
0.0079936222
-0.0010743839
-0.0093217607
-0.01655714
-0.022633332
-0.027450196
-0.030955309
-0.033138292
-0.034021327
-0.03365407
-0.032103409
-0.029449587
-0.025781873
-0.021192416
-0.015775249
-0.009624292
-0.0028300304
0.004519636
0.012341063
0.0205575
0.02909676
0.037891375
0.046879734
0.056003925
0.065210663
0.074451912
0.083682798
0.09286262
0.1019553
0.11092808
0.11975198
0.12840147
0.13685475
0.14509395
0.15310361
0.16087138
0.16838809
0.17564613
0.18264017
0.18936716
0.19582487
0.20201275
0.20793183
0.21358362
0.21897088
0.22409761
0.22896816
0.23358796
0.23796349
0.24210165
0.24601021
0.24969779
0.25317361
0.25644758
0.25953037
0.26243325
0.26516832
0.26774835
0.27018657
0.27249645
0.27469135
0.27678414
0.27878747
0.28071438
0.28257856
0.28439587
0.28618222
0.28795616
0.28972574
0.29151782
0.29330838
0.2951893
0.29664466
0.29800913
0.29930957
0.30060826
0.30192422
0.30328311
0.30469237
0.30616492
0.30770563
0.30931783
0.31099823
0.31274852
0.31454202
0.31637748
0.31824677
0.32009583
0.32186333
0.32347818
0.32486708
0.32595271
0.32666979
0.32696182
0.32678281
0.32605894
0.32466325
0.32261058
0.31985804
0.31620693
0.31131561
0.30449039
0.29544114
0.28482823
0.27146371
0.25384436
0.23155098
0.20381175
0.16950028
0.12817629
0.08146337
0.034108012
0.0031698847
-0.0069517007
-0.00027589616
0.012393535
0.034451731
0.037357238
0.093167976
0.13852142
0.13247746
0.14053728
0.14350642
0.15134739
0.15660553
0.16002252
0.16293333
0.16459199
0.16476761
0.16360945
0.16097126
0.15666244
0.1506151
0.14356095
0.13697489
0.13257072
0.13194276
0.13595075
0.14447737
0.15663885
0.17126602
0.18699328
0.20254031
0.2168581
0.22914631
0.23884384
0.24646286
0.2523855
0.256486
0.25920871
0.26105214
0.26247469
0.26377926
0.26509298
0.26640321
0.26763215
0.26868392
0.26938962
0.2696219
0.26939191
0.26883334
0.2680724
0.26718728
0.26610801
0.26477008
0.26265213
0.26039867
0.25789353
0.25519224
0.25228413
0.24917082
0.24583485
0.24225947
0.23842764
0.23432169
0.22991862
0.22518734
0.22008633
0.21456274
0.20855236
0.20198202
0.19478
0.18689084
0.17828773
0.16898036
0.15902706
0.14854503
0.13772205
0.12679945
0.11603925
0.10564265
0.095695147
0.086113914
0.076699349
0.067257931
0.057640469
0.047804071
0.037780464
0.027668035
0.01765791
0.0079933739
-0.0010747091
-0.0093222707
-0.016557828
-0.022634161
-0.02745112
-0.030956287
-0.0331393
-0.034022356
-0.033655122
-0.032104499
-0.029450734
-0.025783098
-0.021193744
-0.015776704
-0.0096258916
-0.0028317935
0.0045176635
0.01233885
0.020555061
0.029094102
0.037888495
0.046876631
0.056000598
0.065207117
0.074448148
0.083678821
0.092858437
0.10195092
0.11092351
0.11974724
0.12839657
0.13684972
0.1450888
0.15309835
0.16086605
0.1683827
0.1756407
0.18263473
0.18936171
0.19581945
0.20200736
0.20792649
0.21357835
0.2189657
0.22409252
0.22896319
0.23358311
0.23795879
0.2420971
0.24600582
0.24969358
0.25316957
0.25644373
0.25952671
0.26242978
0.26516504
0.26774526
0.27018366
0.27249373
0.2746888
0.27678174
0.2787852
0.28071219
0.28257642
0.28439371
0.28617996
0.28795371
0.28972299
0.29151456
0.29330396
0.29518264
0.29664042
0.29800749
0.29931031
0.30061134
0.30192963
0.30329083
0.30470243
0.30617735
0.30772041
0.30933489
0.31101752
0.31276972
0.31456468
0.31640132
0.3182711
0.32011963
0.32188555
0.32349765
0.32488262
0.32596333
0.3266747
0.32696035
0.3267741
0.32604127
0.32463658
0.32257487
0.3198108
0.31614576
0.31124915
0.30442546
0.29534106
0.28465521
0.27125391
0.2535927
0.23125274
0.20347511
0.16915078
0.12786503
0.081280843
0.034179686
0.0034292358
-0.0066858106
-0.00010393316
0.012484356
0.034480234
0.03737147
0.093175846
0.13852103
0.1324884
0.14054014
0.14350547
0.15132918
0.15658844
0.15999876
0.16290801
0.1645789
0.16477096
0.16363107
0.16101642
0.15673649
0.150715
0.14366873
0.13706362
0.13261333
0.13191978
0.13585631
0.14431923
0.15643284
0.17103181
0.18675152
0.20230876
0.21665074
0.22897424
0.2387078
0.24635597
0.25230685
0.2564333
0.25917434
0.26102846
0.26245574
0.26376177
0.26507603
0.26638722
0.26761794
0.26867275
0.26938267
0.26961879
0.26939073
0.26883212
0.2680699
0.26718294
0.26610127
0.2647605
0.26264629
0.2603941
0.25788928
0.25518804
0.25227998
0.24916669
0.24583072
0.24225529
0.23842341
0.23431738
0.2299142
0.22518276
0.22008153
0.21455767
0.20854692
0.20197611
0.19477351
0.18688367
0.17827982
0.1689717
0.15901769
0.14853507
0.13771174
0.12678921
0.1160296
0.10563417
0.095688305
0.086108773
0.076695645
0.067255335
0.057638691
0.047802934
0.037779461
0.027666593
0.017656038
0.0079914489
-0.0010769647
-0.0093248961
-0.016560733
-0.022637233
-0.027454243
-0.03095937
-0.033142287
-0.034025217
-0.033657855
-0.032107117
-0.02945326
-0.025785565
-0.021196186
-0.015779154
-0.0096283798
-0.0028343488
0.004514962
0.012335967
0.020552027
0.029090908
0.037885133
0.046873091
0.055996874
0.065203206
0.074444048
0.083674531
0.092853963
0.10194627
0.11091869
0.11974225
0.12839144
0.13684446
0.14508343
0.15309289
0.16086052
0.16837711
0.17563508
0.18262909
0.18935609
0.19581384
0.2020018
0.20792099
0.21357293
0.21896036
0.2240873
0.22895809
0.23357815
0.23795397
0.24209244
0.24600134
0.24968927
0.25316545
0.2564398
0.25952297
0.26242624
0.2651617
0.26774212
0.27018071
0.27249096
0.2746862
0.2767793
0.27878288
0.28070995
0.28257419
0.28439144
0.28617757
0.28795109
0.28972004
0.29151099
0.29329905
0.29517483
0.29663518
0.29800507
0.29931051
0.3006141
0.30193494
0.30329865
0.3047128
0.30619028
0.30773588
0.30935283
0.31103786
0.31279213
0.31458866
0.31642656
0.31829687
0.32014486
0.32190911
0.3235183
0.32489911
0.3259746
0.32667992
0.3269588
0.32676485
0.32602255
0.3246083
0.32253692
0.31976043
0.31607827
0.31116598
0.30432309
0.29522057
0.28448387
0.2710358
0.25332842
0.23094612
0.20312923
0.1687999
0.12756845
0.081140629
0.034332035
0.0037853258
-0.0063384242
0.00011898955
0.012602549
0.034513522
0.03739321
0.093185367
0.13851995
0.13250495
0.14054365
0.14350581
0.15131015
0.15657127
0.15997456
0.16288166
0.16456524
0.16477459
0.16365407
0.16106442
0.15681505
0.15082081
0.14378254
0.13715668
0.13265696
0.13189358
0.13575433
0.14414995
0.15621308
0.17078243
0.1864944
0.20206267
0.21643048
0.22879156
0.23856341
0.24624259
0.25222343
0.25637731
0.25913763
0.26100287
0.26243495
0.26374242
0.26505725
0.26636958
0.26760233
0.26866042
0.26937474
0.26961476
0.26938856
0.26882976
0.26806616
0.26717725
0.26609311
0.26474939
0.26263998
0.26038929
0.25788488
0.25518372
0.25227574
0.2491625
0.24582653
0.24225109
0.23841917
0.2343131
0.22990983
0.22517828
0.22007689
0.2145528
0.20854173
0.20197049
0.19476731
0.18687674
0.17827207
0.16896307
0.15900816
0.14852471
0.13770076
0.12677803
0.11601884
0.10562456
0.095680479
0.086102893
0.076691405
0.067252303
0.057636436
0.047801152
0.037777174
0.027663357
0.017652184
0.0079872105
-0.0010818384
-0.0093303477
-0.016566564
-0.022643227
-0.027460203
-0.030965146
-0.033147783
-0.034030387
-0.033662691
-0.032111636
-0.029457498
-0.025789563
-0.021199995
-0.015782823
-0.0096319518
-0.0028378742
0.0045113712
0.012332279
0.020548278
0.029087074
0.037881196
0.046869033
0.055992679
0.065198866
0.074439554
0.083669878
0.092849149
0.1019413
0.11091356
0.11973698
0.12838604
0.13683894
0.14507781
0.15308719
0.16085476
0.16837131
0.17562925
0.18262327
0.18935027
0.19580806
0.20199606
0.20791532
0.21356735
0.21895488
0.22408193
0.22895285
0.23357306
0.23794904
0.24208768
0.24599676
0.24968488
0.25316126
0.25643581
0.25951919
0.26242266
0.26515833
0.26773894
0.27017773
0.27248817
0.27468358
0.27677682
0.27878051
0.28070765
0.28257189
0.28438906
0.28617503
0.28794828
0.28971684
0.29150707
0.29329358
0.29516569
0.2966288
0.29800174
0.29931006
0.30061647
0.30194008
0.30330653
0.30472346
0.30620371
0.30775207
0.30937169
0.31105933
0.31281582
0.31461404
0.31645328
0.31832417
0.3201716
0.32193408
0.32354019
0.32491659
0.32598654
0.32668544
0.32695714
0.32675499
0.32600266
0.32457829
0.32249657
0.31970677
0.31600573
0.31106992
0.30419955
0.29507818
0.28430371
0.2708065
0.25305056
0.2306307
0.20277649
0.1684497
0.12729057
0.081049423
0.034575375
0.0042510898
-0.0058962312
0.00040376963
0.012755405
0.034553717
0.03742514
0.093196277
0.13851817
0.13252897
0.14054816
0.14350813
0.15129025
0.15655371
0.15995004
0.16285431
0.16455099
0.16477854
0.16367854
0.16111546
0.15689843
0.15093285
0.14390262
0.13725408
0.13270139
0.13186367
0.1356441
0.1439686
0.15597851
0.17051675
0.18622079
0.20180096
0.21619634
0.2285974
0.23841001
0.24612221
0.25213481
0.2563177
0.25909832
0.2609751
0.26241205
0.26372089
0.26503632
0.26635
0.26758508
0.26864672
0.26936564
0.26960962
0.2693852
0.26882607
0.26806102
0.26717009
0.26608341
0.26473663
0.26263317
0.26038421
0.25788032
0.25517926
0.25227141
0.24915824
0.24582232
0.24224689
0.23841496
0.23430887
0.22990557
0.22517395
0.22007246
0.21454821
0.20853689
0.20196525
0.19476149
0.18687016
0.17826457
0.16895454
0.15899853
0.14851396
0.13768908
0.12676582
0.11600683
0.10561366
0.095671514
0.086096121
0.076686479
0.067248664
0.05763349
0.047798259
0.037773084
0.02765764
0.017645657
0.0079798456
-0.0010901966
-0.0093395093
-0.016576187
-0.022652969
-0.027469766
-0.03097431
-0.033156415
-0.034038423
-0.033670122
-0.032118491
-0.029463826
-0.025795426
-0.021205465
-0.015787967
-0.0096368315
-0.0028425814
0.0045067067
0.012327635
0.020543677
0.029082479
0.037876578
0.046864361
0.055987931
0.065194023
0.0744346
0.0836648
0.092843942
0.10193596
0.11090809
0.11973139
0.12838033
0.13683314
0.14507192
0.15308124
0.16084875
0.16836528
0.1756232
0.18261722
0.18934425
0.19580208
0.20199014
0.20790948
0.2135616
0.21894924
0.22407642
0.22894748
0.23356785
0.237944
0.24208282
0.24599209
0.24968042
0.25315701
0.25643177
0.25951536
0.26241905
0.26515493
0.26773575
0.27017473
0.27248536
0.27468094
0.27677432
0.27877812
0.2807053
0.28256951
0.28438657
0.28617235
0.28794526
0.28971337
0.29150274
0.29328747
0.29515505
0.29662114
0.29799739
0.29930887
0.30061837
0.30194503
0.30331446
0.30473441
0.30621768
0.30776902
0.30939153
0.31108198
0.31284088
0.3146409
0.31648157
0.31835309
0.32019993
0.32196055
0.32356339
0.32493509
0.32599918
0.32669127
0.32695534
0.32674445
0.32598148
0.32454639
0.32245359
0.31964948
0.31592832
0.31096271
0.30406222
0.2949206
0.28411215
0.27056371
0.25275845
0.2303016
0.20241781
0.16810206
0.12703495
0.08101297
0.034918507
0.0048378837
-0.0053466221
0.00076169314
0.012951051
0.034603712
0.037470679
0.093208222
0.13851572
0.13256282
0.14055423
0.14351343
0.15126953
0.1565351
0.15992527
0.16282595
0.16453614
0.16478281
0.16370458
0.16116974
0.15698699
0.15105144
0.14402919
0.13735583
0.13274634
0.13182949
0.1355248
0.14377418
0.15572799
0.17023354
0.18592945
0.20152241
0.2159472
0.22839083
0.23824685
0.24599427
0.2520405
0.25625409
0.25905609
0.26094486
0.26238669
0.26369679
0.26501286
0.26632814
0.26756592
0.26863143
0.26935518
0.26960319
0.26938048
0.26882091
0.26805433
0.26716134
0.26607209
0.26472215
0.26262583
0.26037885
0.2578756
0.25517468
0.252267
0.24915395
0.24581811
0.24224271
0.2384108
0.23430473
0.22990145
0.22516984
0.22006832
0.21454398
0.20853247
0.20196049
0.19475616
0.18686403
0.17825742
0.16894619
0.15898885
0.14850287
0.13767668
0.12675253
0.11599346
0.10560131
0.095661237
0.08608828
0.076680677
0.067244196
0.057629575
0.047793523
0.037766482
0.027648721
0.01763553
0.0079683329
-0.0011031124
-0.0093534596
-0.016590648
-0.02266744
-0.027483833
-0.030987677
-0.033168907
-0.034049966
-0.033680712
-0.032128175
-0.029472678
-0.025803534
-0.021212926
-0.015794877
-0.0096432719
-0.0028487038
0.0045007591
0.012321861
0.020538068
0.029076986
0.037871156
0.04685897
0.055982532
0.065188591
0.074429108
0.083659227
0.092838277
0.10193019
0.11090223
0.11972543
0.12837428
0.136827
0.14506573
0.15307499
0.16084247
0.16835898
0.17561691
0.18261094
0.18933801
0.19579589
0.20198403
0.20790345
0.21355567
0.21894344
0.22407076
0.22894198
0.23356252
0.23793886
0.24207788
0.24598736
0.2496759
0.25315271
0.2564277
0.25951151
0.26241542
0.26515153
0.26773257
0.27017175
0.27248257
0.27467831
0.27677183
0.27877571
0.28070291
0.28256706
0.28438396
0.28616949
0.28794199
0.2897096
0.29149794
0.29328065
0.2951428
0.29661209
0.29799193
0.29930688
0.30061976
0.30194975
0.30332243
0.30474566
0.3062322
0.30778678
0.30941241
0.31110589
0.31286738
0.31466933
0.31651152
0.3183837
0.32022994
0.32198859
0.32358795
0.32495466
0.32601252
0.32669739
0.32695335
0.32673314
0.32595889
0.32451245
0.32240777
0.31958823
0.31584557
0.31084729
0.303914
0.29475009
0.28390894
0.27030735
0.25245288
0.22995805
0.20205253