/*--------------------------------*- C++ -*----------------------------------*\
| =========                 |                                                 |
| \\      /  F ield         | OpenFOAM: The Open Source CFD Toolbox           |
|  \\    /   O peration     | Version:  2.4.0                                 |
|   \\  /    A nd           | Web:      www.OpenFOAM.org                      |
|    \\/     M anipulation  |                                                 |
\*---------------------------------------------------------------------------*/
FoamFile
{
    version     2.0;
    format      ascii;
    class       volScalarField;
    location    "210";
    object      p;
}
// * * * * * * * * * * * * * * * * * * * * * * * * * * * * * * * * * * * * * //

dimensions      [0 2 -2 0 0 0 0];

internalField   nonuniform List<scalar> 
78300
(
-13.787121
-11.541869
-9.6345485
-7.9956642
-6.7141458
-5.6599988
-4.7277813
-3.9684282
-3.3964956
-2.9184265
-2.5773706
-2.3655039
-2.3067039
-2.0865211
-1.6326314
-1.595845
-1.5872418
-1.4289942
-1.3149746
-1.2008424
-1.1168216
-1.0634016
-1.0203911
-0.97896328
-0.94645379
-0.91745698
-0.88260503
-0.8684486
-0.84071115
-0.81976814
-0.78544945
-0.75778395
-0.72728777
-0.69821364
-0.65941322
-0.61554254
-0.59341994
-0.58206428
-0.50680231
-0.28983117
-4.2560695e-10
-0.52078704
-0.52117916
-0.47064523
-0.51227996
-0.53178137
-0.54395934
-0.53998463
-0.54704116
-0.54959149
-0.54873158
-0.54597788
-0.54245683
-0.53778306
-0.53208144
-0.52607666
-0.51958458
-0.5136693
-0.50848602
-0.50394168
-0.50009479
-0.49625319
-0.49304657
-0.48961487
-0.48578615
-0.48176066
-0.47724556
-0.47296042
-0.46818934
-0.46339987
-0.45888381
-0.45620202
-0.45448851
-0.45429121
-0.45515834
-0.4591722
-0.46415326
-0.470843
-0.47839645
-0.49040206
-0.50315835
-0.51665386
-0.52789468
-0.54063455
-0.55038492
-0.55720181
-0.55840523
-0.55838911
-0.55606711
-0.55213226
-0.5465734
-0.54204708
-0.5396146
-0.5395932
-0.54068762
-0.54341696
-0.54466859
-0.54563314
-0.54234187
-0.53686098
-0.52752034
-0.51493108
-0.49804591
-0.47529086
-0.44748718
-0.41174029
-0.374987
-0.33433153
-0.29369639
-0.25354845
-0.21660493
-0.18083167
-0.14855472
-0.12053708
-0.09998958
-0.088174274
-0.087216509
-0.095264136
-0.10909092
-0.12170562
-0.13354843
-0.14421565
-0.15398743
-0.15914942
-0.16136674
-0.16095191
-0.15946137
-0.15288289
-0.14238488
-0.1281882
-0.11316897
-0.097513927
-0.080488117
-0.061527821
-0.042656996
-0.027397503
-0.013035538
0.0015622122
0.017931971
0.029252275
0.038504417
0.045142432
0.050640388
0.05034533
0.044395888
0.03583479
0.027417087
0.02669615
0.032749726
0.048013386
0.068273066
0.095391038
0.12756773
0.16469608
0.20209597
0.23592768
0.2651344
0.28972949
0.30705014
0.3131301
0.30897716
0.29898245
0.27967777
0.25361277
0.22476825
0.19235222
0.1592759
0.13351269
0.11216243
0.096761006
0.084560538
0.083795464
0.097041148
0.12672428
0.175093
0.22905254
0.2908861
0.35044614
0.41756851
0.48775455
0.55631805
0.62046317
0.67497342
0.72855638
0.77286981
0.80763975
0.82477406
0.83024043
0.829423
0.82387556
0.81740055
0.8129217
0.82093132
0.82991382
0.84331292
0.83911902
0.84047619
0.84880976
0.87156044
0.88426409
0.88703145
0.8694651
0.84752196
0.80365902
0.75813047
0.70967078
0.68155253
0.65858725
0.64856734
0.64651772
0.65907476
0.67047429
0.68363022
0.71721756
0.74273436
0.75940414
0.78592786
0.82348316
0.79357598
0.60618584
0.42320741
0.3802722
0.76391112
2.7834144
6.3832496
7.9625916
10.462295
7.4494566
6.7087618
2.86493
0.36671902
-2.6635339
-4.450528
-5.7178882
-6.9924963
-8.1265504
-9.3520165
-10.350869
-11.244116
-11.298495
-11.153331
-7.7150499
-5.1549205
-0.4974862
3.6785463
5.1178644
6.7383933
9.2183107
17.51755
29.819436
42.497526
55.555435
61.722445
68.544448
64.070893
50.182133
20.732037
-24.197555
-62.846534
-79.421976
-78.272931
-68.595622
-58.612285
-49.532831
-40.817458
-33.761653
-27.95958
-23.456799
-19.509216
-16.388359
-13.786802
-11.541638
-9.6344
-7.9955196
-6.7138834
-5.6598271
-4.7278524
-3.9685191
-3.3965479
-2.918532
-2.5775972
-2.3657483
-2.3063488
-2.085674
-1.6330093
-1.5957974
-1.5865518
-1.4288489
-1.3149192
-1.2008805
-1.116884
-1.0634536
-1.0204313
-0.9790098
-0.94647241
-0.91743759
-0.8826378
-0.86840834
-0.84070814
-0.81973239
-0.78547377
-0.75779411
-0.72730389
-0.69822312
-0.65945184
-0.6155937
-0.59335695
-0.58184941
-0.50674923
-0.2901469
-0.0051722751
-0.52115011
-0.52163421
-0.47123265
-0.51230997
-0.53181218
-0.54397039
-0.54004282
-0.54703856
-0.54959374
-0.54873743
-0.54598669
-0.54246561
-0.53779009
-0.53208847
-0.52608272
-0.51959065
-0.51367409
-0.50848998
-0.50394547
-0.50009616
-0.49625577
-0.49304859
-0.48961649
-0.48578852
-0.48176109
-0.47724784
-0.47296072
-0.46819007
-0.46339973
-0.4588874
-0.45620442
-0.45449256
-0.45429246
-0.45516532
-0.45917391
-0.46415762
-0.47084135
-0.47840484
-0.4904015
-0.50316171
-0.51664521
-0.527897
-0.54062417
-0.55037891
-0.55718418
-0.55839524
-0.5583745
-0.55605466
-0.55211855
-0.54656249
-0.54203858
-0.53960715
-0.53958446
-0.54068229
-0.54340461
-0.54466225
-0.54561763
-0.54233153
-0.53684548
-0.52750558
-0.51491846
-0.4980288
-0.47528099
-0.44746439
-0.41173146
-0.37496822
-0.33432749
-0.29368538
-0.25355104
-0.21659623
-0.18083619
-0.14855401
-0.12054719
-0.099992593
-0.088186141
-0.087225377
-0.095273103
-0.10909458
-0.12170738
-0.13354862
-0.14421513
-0.15398492
-0.15914742
-0.16136219
-0.16095047
-0.15945448
-0.15287995
-0.14237914
-0.12818836
-0.11316406
-0.097514114
-0.080486795
-0.061531329
-0.042656942
-0.027399788
-0.013039094
0.0015592995
0.017927728
0.029248799
0.038498819
0.04513771
0.050635206
0.050339898
0.044391479
0.035832564
0.02742028
0.026697055
0.03275413
0.048009604
0.068279294
0.095385526
0.12756672
0.1646807
0.20209303
0.23591156
0.26512237
0.28970766
0.30703753
0.31311301
0.30896273
0.29896799
0.27966796
0.25360299
0.22476038
0.19234956
0.1592739
0.13351203
0.11216804
0.096761832
0.084568202
0.083795869
0.097055082
0.12672777
0.17509691
0.2290487
0.2908806
0.35043458
0.41756099
0.4877308
0.55630348
0.62043056
0.67495328
0.72851565
0.77284074
0.8075982
0.82474233
0.83020767
0.82939077
0.82384568
0.81737753
0.81290089
0.82090344
0.82989005
0.84328096
0.83910366
0.84044523
0.84877588
0.87152754
0.88423309
0.88699126
0.86945082
0.84749019
0.80367375
0.75811548
0.70969696
0.68154853
0.6586009
0.64856512
0.64652015
0.65909197
0.67048016
0.68366363
0.71724939
0.7428087
0.7594417
0.78601732
0.8235244
0.79338634
0.60570417
0.42265899
0.38051198
0.76640631
2.7855112
6.3854594
7.9648228
10.456523
7.4479584
6.6988224
2.8624886
0.35729845
-2.66457
-4.4518135
-5.7188158
-6.9933354
-8.1272234
-9.3518106
-10.350564
-11.242295
-11.294934
-11.140455
-7.7095242
-5.1420965
-0.49194447
3.681163
5.1193258
6.7347149
9.218004
17.517885
29.817221
42.493856
55.55487
61.723906
68.534309
64.038437
50.12903
20.699296
-24.252145
-62.845554
-79.406778
-78.252463
-68.583083
-58.606267
-49.528589
-40.81453
-33.760131
-27.958938
-23.456074
-19.508541
-16.38794
-13.786261
-11.541247
-9.6341464
-7.9952727
-6.7134494
-5.659531
-4.7279527
-3.9686486
-3.3966269
-2.9187007
-2.5779476
-2.3661251
-2.3057947
-2.0843224
-1.6336338
-1.5957401
-1.5854448
-1.4286133
-1.314827
-1.2009342
-1.1169718
-1.0635239
-1.020485
-0.97907445
-0.94649309
-0.91739771
-0.88268311
-0.86833694
-0.84069748
-0.81967023
-0.78550945
-0.75780805
-0.72732748
-0.69823656
-0.65951306
-0.61567587
-0.59325465
-0.58150332
-0.50666529
-0.29071011
-0.013189353
-0.52172876
-0.52236078
-0.47218118
-0.51235803
-0.53186005
-0.54398679
-0.54013594
-0.54703381
-0.54959688
-0.54874662
-0.54600078
-0.54247978
-0.53780162
-0.53210009
-0.52609289
-0.51960088
-0.5136823
-0.50849681
-0.50395197
-0.50009865
-0.49626015
-0.49305213
-0.48961934
-0.48579251
-0.48176198
-0.47725168
-0.47296136
-0.46819137
-0.46339964
-0.45889336
-0.45620846
-0.45449924
-0.45429463
-0.45517677
-0.45917688
-0.46416473
-0.47083882
-0.47841855
-0.49040084
-0.50316722
-0.51663138
-0.52790083
-0.54060758
-0.55036921
-0.55715572
-0.55837908
-0.55835093
-0.55603452
-0.55209638
-0.54654488
-0.54202489
-0.53959516
-0.53957039
-0.54067366
-0.5433847
-0.54465198
-0.54559262
-0.5423148
-0.53682048
-0.52748188
-0.51489833
-0.49800158
-0.47526553
-0.44742812
-0.41171723
-0.3749381
-0.33432098
-0.29366772
-0.25355526
-0.21658232
-0.18084349
-0.14855293
-0.12056346
-0.099997397
-0.088205177
-0.087239671
-0.095287648
-0.1091007
-0.12171037
-0.13354907
-0.14421438
-0.15398104
-0.15914427
-0.16135493
-0.16094812
-0.15944345
-0.1528752
-0.1423699
-0.12818854
-0.11315605
-0.097514362
-0.080484636
-0.061536896
-0.042656633
-0.027403387
-0.013044761
0.0015546148
0.017921139
0.029243302
0.038489947
0.045130218
0.050627146
0.050331415
0.044384554
0.035829127
0.027425369
0.026698525
0.032761135
0.048003556
0.068289328
0.095376626
0.12756505
0.16465596
0.20208852
0.23588571
0.26510311
0.28967266
0.30701756
0.31308572
0.30893959
0.29894505
0.27965245
0.25358735
0.224748
0.19234568
0.15927074
0.13351124
0.11217734
0.096763544
0.084580604
0.083796344
0.097077271
0.12673274
0.17510306
0.22904196
0.29087162
0.35041527
0.41754859
0.48769218
0.55627986
0.62037783
0.6749205
0.72844979
0.77279375
0.80753122
0.82469104
0.83015454
0.82933843
0.82379707
0.81733992
0.81286626
0.82085774
0.82985062
0.84322918
0.83907783
0.84039442
0.84872007
0.87147435
0.88418245
0.88692604
0.86942672
0.84743856
0.80369667
0.75809063
0.70973811
0.68154153
0.65862232
0.64856136
0.64652346
0.65911945
0.67048894
0.68371594
0.71729913
0.74292677
0.75950162
0.78616109
0.82359232
0.79307977
0.60491889
0.42175684
0.3808763
0.77035726
2.7887473
6.38907
7.9684591
10.447469
7.4454577
6.6829107
2.8584616
0.3420473
-2.6663628
-4.4539467
-5.7203736
-6.9947746
-8.1283977
-9.3515892
-10.350237
-11.239511
-11.289264
-11.119662
-7.700394
-5.1212459
-0.48268036
3.6855016
5.1217153
6.7290506
9.2177078
17.518345
29.81356
42.487725
55.554234
61.726322
68.517982
63.985477
50.042331
20.645526
-24.341441
-62.844731
-79.382011
-78.21917
-68.562611
-58.596329
-49.521575
-40.809682
-33.757614
-27.957847
-23.454864
-19.507405
-16.387231
-13.785452
-11.540664
-9.6337655
-7.9949061
-6.7128151
-5.6590825
-4.7280799
-3.9688186
-3.3967349
-2.9189444
-2.5784383
-2.3666548
-2.3050139
-2.0823766
-1.6345497
-1.5956805
-1.5838544
-1.4282725
-1.3146921
-1.2010044
-1.117087
-1.0636126
-1.0205515
-0.97915764
-0.94651371
-0.91733148
-0.8827416
-0.86822763
-0.84067653
-0.81957576
-0.78555703
-0.75782535
-0.7273587
-0.69825338
-0.65959923
-0.6157942
-0.59310859
-0.58100682
-0.50653892
-0.29158857
-0.024217712
-0.52253049
-0.52338426
-0.47354674
-0.5124284
-0.53192743
-0.54400835
-0.54026944
-0.54702674
-0.54960085
-0.5487594
-0.5460206
-0.54249976
-0.537818
-0.53211674
-0.5261076
-0.5196158
-0.51369444
-0.508507
-0.50396168
-0.5001025
-0.49626671
-0.49305757
-0.48962373
-0.48579845
-0.48176347
-0.47725741
-0.47296243
-0.46819336
-0.46339973
-0.45890223
-0.45621452
-0.45450903
-0.454298
-0.45519356
-0.45918135
-0.46417505
-0.47083535
-0.47843859
-0.49040011
-0.50317506
-0.51661133
-0.52790626
-0.54058355
-0.55035478
-0.55711428
-0.55835548
-0.55831671
-0.55600521
-0.55206416
-0.54651941
-0.54200518
-0.53957788
-0.53955007
-0.54066106
-0.5433558
-0.54463685
-0.54555621
-0.54229028
-0.53678408
-0.52744755
-0.5148692
-0.49796248
-0.47524344
-0.44737616
-0.41169655
-0.37489479
-0.3343115
-0.29364252
-0.25356142
-0.21656261
-0.18085416
-0.14855174
-0.12058712
-0.10000475
-0.088232954
-0.087260667
-0.095308925
-0.10910972
-0.1217148
-0.13354979
-0.14421336
-0.15397543
-0.15913966
-0.16134442
-0.16094462
-0.15942743
-0.15286815
-0.14235646
-0.12818862
-0.11314441
-0.097514573
-0.080481458
-0.061544789
-0.042656138
-0.02740853
-0.013052885
0.0015479254
0.017911653
0.029235357
0.038477162
0.045119458
0.050615557
0.050319202
0.044374632
0.03582432
0.027432932
0.026700945
0.032771473
0.04799517
0.068303996
0.095364038
0.1275627
0.16462047
0.20208197
0.23584838
0.26507514
0.2896221
0.30698856
0.31304609
0.30890595
0.29891192
0.27963001
0.25356467
0.22473028
0.19234052
0.15926655
0.13351058
0.11219132
0.096766629
0.08459897
0.083797448
0.09710943
0.12673985
0.1751118
0.22903181
0.29085823
0.35038682
0.4175304
0.48763598
0.55624539
0.62030114
0.67487276
0.72835422
0.77272539
0.80743389
0.82461632
0.83007719
0.82926226
0.82372633
0.81728499
0.81281543
0.82079076
0.82979244
0.84315312
0.83903925
0.84032027
0.84863889
0.87139687
0.88410788
0.88683014
0.86938976
0.84736201
0.80372785
0.75805341
0.70979665
0.68153093
0.6586531
0.64855627
0.64652834
0.65915859
0.67050077
0.68378985
0.71736747
0.74309316
0.75958665
0.78636639
0.82368598
0.79263181
0.60378673
0.42045906
0.38140892
0.77598779
2.7931895
6.3941462
7.9736774
10.434468
7.4418414
6.6601335
2.852699
0.32013457
-2.669002
-4.4570422
-5.7226729
-6.9969226
-8.1301842
-9.3513874
-10.349945
-11.235643
-11.281192
-11.089756
-7.6871113
-5.091177
-0.46906637
3.6917625
5.1252547
6.7212441
9.2175626
17.518849
29.808116
42.478592
55.55328
61.729599
68.494163
63.908483
49.916309
20.566984
-24.470558
-62.844525
-79.346472
-78.171317
-68.532908
-58.581657
-49.511209
-40.802544
-33.753909
-27.956211
-23.453065
-19.505718
-16.38617
-13.784377
-11.539893
-9.633259
-7.9944259
-6.711996
-5.6584853
-4.7282203
-3.9690196
-3.3968653
-2.9192567
-2.5790549
-2.3673253
-2.3040313
-2.0798809
-1.6357233
-1.5956206
-1.5818263
-1.4278345
-1.3145194
-1.2010896
-1.1172279
-1.0637186
-1.0206296
-0.97925737
-0.94653383
-0.91724072
-0.88281201
-0.86808389
-0.8406458
-0.81945141
-0.78561443
-0.75784507
-0.72739609
-0.6982725
-0.6597068
-0.61594527
-0.59292589
-0.5803794
-0.50636817
-0.29278946
-0.037578622
-0.52350497
-0.52465238
-0.47528321
-0.51252249
-0.53201284
-0.54403426
-0.54043916
-0.54701829
-0.54960554
-0.54877513
-0.54604504
-0.5425244
-0.5378382
-0.53213741
-0.52612594
-0.51963464
-0.51370996
-0.50852015
-0.50397426
-0.50010763
-0.49627532
-0.49306479
-0.48962949
-0.48580612
-0.48176547
-0.47726481
-0.47296381
-0.46819594
-0.4634
-0.45891381
-0.45622241
-0.45452161
-0.45430245
-0.45521518
-0.45918713
-0.46418806
-0.47083098
-0.47846427
-0.49039917
-0.50318455
-0.51658535
-0.52791273
-0.54055237
-0.5503354
-0.55706055
-0.55832467
-0.55827243
-0.55596718
-0.55202248
-0.54648665
-0.54197985
-0.53955564
-0.53952383
-0.54064448
-0.54331836
-0.54461676
-0.5455089
-0.54225808
-0.53673676
-0.52740318
-0.51483144
-0.49791236
-0.47521507
-0.44731007
-0.4116697
-0.37483959
-0.3342991
-0.29361073
-0.25356928
-0.21653803
-0.18086795
-0.14855088
-0.1206177
-0.10001493
-0.088268975
-0.087288076
-0.095336497
-0.10912139
-0.12172058
-0.13355073
-0.14421208
-0.15396811
-0.1591336
-0.16133089
-0.16093995
-0.15940675
-0.15285882
-0.14233917
-0.12818844
-0.1131295
-0.097514656
-0.0804774
-0.061554731
-0.042655625
-0.027415129
-0.013063327
0.0015393773
0.017899313
0.029225005
0.038460618
0.045105586
0.05060052
0.050303374
0.044361859
0.035818226
0.027442856
0.026704401
0.032784971
0.047984906
0.068322889
0.095348282
0.12755962
0.16457533
0.2020732
0.23580041
0.26503877
0.28955714
0.30695073
0.31299462
0.30886223
0.29886908
0.27960085
0.2535352
0.2247076
0.1923343
0.15926158
0.1335102
0.11220975
0.096771252
0.084622971
0.083799486
0.097150585
0.12674899
0.17512254
0.2290183
0.29084026
0.35034972
0.4175066
0.48756347
0.55620061
0.62020212
0.6748111
0.72823123
0.77263713
0.80730825
0.82451961
0.82997719
0.82916383
0.82363498
0.81721361
0.81274928
0.8207035
0.82971631
0.84305359
0.83898813
0.84022426
0.84853443
0.87129639
0.88401012
0.88670432
0.86933902
0.84726073
0.80376475
0.75800398
0.7098706
0.68151698
0.65869268
0.64855065
0.64653534
0.65920811
0.67051517
0.6838829
0.7174505
0.74330082
0.75969353
0.7866256
0.82379758
0.79205307
0.60235173
0.41883024
0.38213487
0.78309589
2.7985373
6.4003379
7.9801809
10.417733
7.4371948
6.6312903
2.8454802
0.29238138
-2.6723842
-4.4609803
-5.7256447
-6.9997078
-8.132537
-9.3512261
-10.349722
-11.23081
-11.270977
-11.051819
-7.6700971
-5.0530119
-0.45148641
3.6997423
5.1299653
6.7116637
9.2175894
17.519157
29.800841
42.466478
55.551603
61.733123
68.46319
63.809617
49.754752
20.465882
-24.634711
-62.846005
-79.302254
-78.111097
-68.494835
-58.562382
-49.497589
-40.793208
-33.749037
-27.954023
-23.450684
-19.503493
-16.384762
-13.783038
-11.538934
-9.6326265
-7.9938366
-6.7110087
-5.6577455
-4.7283627
-3.9692427
-3.3970128
-2.919633
-2.5797833
-2.3681199
-2.3028643
-2.0768873
-1.6371261
-1.5955607
-1.5794101
-1.4273066
-1.3143121
-1.2011873
-1.117392
-1.0638401
-1.0207176
-0.97937141
-0.94655297
-0.91712776
-0.88289297
-0.86790935
-0.84060583
-0.81930001
-0.78567976
-0.75786647
-0.72743835
-0.69829315
-0.65983271
-0.61612544
-0.59271266
-0.57964084
-0.50615619
-0.2943234
-0.05272896
-0.52459294
-0.52611834
-0.47734399
-0.5126436
-0.53211439
-0.54406387
-0.54064073
-0.54700943
-0.54961082
-0.54879327
-0.54607315
-0.54255269
-0.53786131
-0.53216124
-0.52614711
-0.51965669
-0.51372833
-0.5085359
-0.50398938
-0.50011393
-0.49628582
-0.49307365
-0.48963647
-0.48581532
-0.48176792
-0.47727368
-0.47296541
-0.468199
-0.4634005
-0.45892788
-0.45623197
-0.45453664
-0.45430795
-0.45524112
-0.45919401
-0.46420328
-0.4708258
-0.47849488
-0.49039794
-0.50319505
-0.51655383
-0.52791969
-0.54051444
-0.55031092
-0.55699538
-0.558287
-0.55821879
-0.55592095
-0.55197203
-0.54644719
-0.54194933
-0.53952876
-0.53949209
-0.54062394
-0.54327294
-0.54459169
-0.54545136
-0.54221843
-0.53667916
-0.52734945
-0.51478549
-0.49785221
-0.47518075
-0.44723146
-0.41163689
-0.3747739
-0.33428388
-0.29357338
-0.25357856
-0.21650956
-0.18088461
-0.14855083
-0.12065461
-0.10002821
-0.088312656
-0.08732154
-0.095369853
-0.10913544
-0.1217276
-0.13355182
-0.14421053
-0.15395915
-0.15912613
-0.16131462
-0.16093404
-0.1593818
-0.15284725
-0.14231842
-0.12818786
-0.11311172
-0.097514522
-0.080472633
-0.061566426
-0.042655262
-0.027423082
-0.01307595
0.0015291138
0.01788419
0.029212319
0.038440499
0.045088779
0.050582156
0.050284105
0.044346429
0.035810945
0.027454979
0.026708934
0.032801372
0.047973219
0.068345504
0.09532987
0.12755569
0.1645217
0.202062
0.23574272
0.26499434
0.28947902
0.30690431
0.31293198
0.30880886
0.29881712
0.27956522
0.25349922
0.22468034
0.1923272
0.15925604
0.13351023
0.11223235
0.096777552
0.084652217
0.083802801
0.097199732
0.12676014
0.1751348
0.22900165
0.29081766
0.35030454
0.41747736
0.48747595
0.55614605
0.62008244
0.67473641
0.72808307
0.77253035
0.80715642
0.82440236
0.82985617
0.82904475
0.82352451
0.81712668
0.81266879
0.82059711
0.8296233
0.84293174
0.83892487
0.84010801
0.84840881
0.8711743
0.88389019
0.88654982
0.86927395
0.84713536
0.80380494
0.75794268
0.70995787
0.68149999
0.65874039
0.64854511
0.64654479
0.65926655
0.67053162
0.68399244
0.71754484
0.74354267
0.75981883
0.78693076
0.82391905
0.79135234
0.60065476
0.41693748
0.38309288
0.79147868
2.8045264
6.4073031
7.9876376
10.397428
7.4315291
6.5971557
2.8369973
0.25959424
-2.6764279
-4.465621
-5.7291833
-7.0030235
-8.1353749
-9.3510869
-10.349554
-11.225098
-11.258831
-11.006953
-7.649651
-5.0078761
-0.4302925
3.7092266
5.1357904
6.7006659
9.2177791
17.519067
29.791709
42.451545
55.548927
61.736402
68.425358
63.690899
49.561593
20.344207
-24.829174
-62.85057
-79.251584
-78.04063
-68.44916
-58.538601
-49.480802
-40.781739
-33.742995
-27.951262
-23.44772
-19.500731
-16.383007
-13.781427
-11.537784
-9.6318647
-7.9931403
-6.7098691
-5.6568703
-4.728498
-3.9694797
-3.3971726
-2.9200687
-2.580611
-2.369021
-2.301524
-2.0734532
-1.6387323
-1.5954952
-1.5766558
-1.4266957
-1.3140726
-1.201295
-1.1175768
-1.0639753
-1.0208141
-0.97949781
-0.94657097
-0.91699553
-0.8829831
-0.86770774
-0.84055723
-0.81912469
-0.78575134
-0.75788906
-0.72748451
-0.69831485
-0.65997437
-0.61633136
-0.59247416
-0.5788095
-0.50590822
-0.29619951
-0.06921729
-0.52573363
-0.52774269
-0.47968313
-0.51279537
-0.53222983
-0.54409689
-0.54086971
-0.547001
-0.54961656
-0.54881333
-0.54610406
-0.54258374
-0.53788656
-0.53218748
-0.52617041
-0.51968135
-0.5137491
-0.50855389
-0.5040067
-0.50012132
-0.49629805
-0.49308402
-0.48964453
-0.48582582
-0.48177077
-0.47728383
-0.47296719
-0.46820247
-0.46340125
-0.45894423
-0.45624303
-0.4545538
-0.45431443
-0.45527083
-0.45920186
-0.46422025
-0.47081997
-0.47852967
-0.49039634
-0.50320596
-0.51651727
-0.5279266
-0.54047029
-0.55028126
-0.55691978
-0.55824285
-0.55815656
-0.55586715
-0.55191353
-0.54640166
-0.54191404
-0.53949755
-0.53945525
-0.54059947
-0.54322017
-0.54456162
-0.54538435
-0.54217162
-0.53661199
-0.52728712
-0.51473182
-0.49778304
-0.47514075
-0.44714198
-0.41159833
-0.37469915
-0.33426587
-0.29353152
-0.2535889
-0.21647819
-0.18090386
-0.14855208
-0.12069724
-0.10004483
-0.088363335
-0.08736063
-0.095408418
-0.10915159
-0.12173577
-0.13355301
-0.14420871
-0.15394861
-0.15911729
-0.16129584
-0.16092684
-0.15935299
-0.15283349
-0.14229461
-0.12818672
-0.11309148
-0.097514088
-0.080467354
-0.061579568
-0.042655217
-0.02743228
-0.013090627
0.0015172655
0.017866369
0.029197389
0.038417004
0.045069225
0.050560617
0.050261611
0.044328568
0.035802587
0.027469097
0.026714541
0.032820351
0.047960525
0.068371256
0.095309276
0.12755071
0.16446072
0.20204807
0.23567625
0.26494214
0.28938901
0.30684958
0.31285884
0.30874634
0.2987566
0.27952338
0.25345707
0.22464888
0.19231937
0.15925008
0.1335107
0.11225878
0.096785628
0.084686253
0.083807716
0.09725581
0.12677325
0.1751481
0.22898216
0.29079042
0.35025188
0.41744275
0.48737469
0.55608209
0.61994372
0.67464941
0.72791195
0.77240633
0.8069805
0.82426599
0.82971572
0.82890661
0.82339645
0.81702509
0.81257493
0.82047278
0.82951458
0.84278893
0.83884999
0.8399731
0.84826411
0.87103199
0.88374935
0.88636819
0.86919429
0.84698694
0.80384621
0.75787011
0.71005632
0.68148036
0.6587954
0.6485401
0.64655691
0.65933241
0.67054963
0.68411588
0.71764783
0.74381222
0.75995935
0.78727429
0.82404328
0.79053795
0.59873223
0.41484404
0.3843221
0.80093845
2.810942
6.414734
7.9957226
10.37367
7.4248061
6.5584617
2.82736
0.22253712
-2.6810913
-4.47083
-5.7331786
-7.0067579
-8.1386071
-9.3509366
-10.349406
-11.218582
-11.244935
-10.956246
-7.6259538
-4.9568361
-0.40574917
3.7200449
5.1426439
6.6885881
9.2180998
17.518416
29.780536
42.433979
55.545028
61.739035
68.380897
63.554168
49.340731
20.203667
-25.049455
-62.859714
-79.196554
-77.961844
-68.396577
-58.510386
-49.460912
-40.768177
-33.735741
-27.9479
-23.444148
-19.497416
-16.380896
-13.779532
-11.536434
-9.6309663
-7.9923364
-6.7085925
-5.6558672
-4.7286185
-3.9697234
-3.3973398
-2.9205592
-2.581527
-2.3700127
-2.3000175
-2.0696365
-1.6405176
-1.5954139
-1.5736118
-1.4260089
-1.3138037
-1.2014105
-1.1177802
-1.0641227
-1.0209178
-0.97963487
-0.94658781
-0.91684714
-0.88308096
-0.8674827
-0.84050055
-0.8189286
-0.78582762
-0.7579125
-0.72753377
-0.69833728
-0.66012954
-0.6165599
-0.59221506
-0.57790215
-0.50562981
-0.29842117
-0.086646346
-0.5268704
-0.52949209
-0.48225578
-0.51298111
-0.53235683
-0.54413334
-0.54112165
-0.54699374
-0.54962267
-0.54883493
-0.54613704
-0.54261681
-0.53791332
-0.53221549
-0.52619523
-0.51970807
-0.51377181
-0.5085738
-0.50402588
-0.5001297
-0.49631182
-0.49309576
-0.48965352
-0.48583744
-0.481774
-0.47729506
-0.47296907
-0.46820627
-0.46340232
-0.4589626
-0.45625543
-0.45457278
-0.45432187
-0.45530377
-0.45921053
-0.46423852
-0.47081368
-0.47856788
-0.49039435
-0.5032167
-0.51647626
-0.52793295
-0.54042049
-0.55024644
-0.55683487
-0.55819266
-0.55808658
-0.55580639
-0.55184775
-0.54635068
-0.54187436
-0.53946234
-0.53941372
-0.54057112
-0.54316072
-0.54452662
-0.54530871
-0.54211797
-0.53653604
-0.527217
-0.51467095
-0.49770586
-0.47509532
-0.44704322
-0.41155419
-0.37461675
-0.33424511
-0.29348613
-0.2535999
-0.2164449
-0.18092539
-0.14855509
-0.12074495
-0.10006499
-0.088420311
-0.087404881
-0.095451588
-0.10916956
-0.12174498
-0.13355421
-0.14420662
-0.15393656
-0.15910712
-0.1612748
-0.16091827
-0.15932072
-0.1528176
-0.14226816
-0.12818484
-0.11306921
-0.097513279
-0.080461773
-0.061593862
-0.042655652
-0.02744262
-0.013107242
0.0015039429
0.017845945
0.029180312
0.038390335
0.045047108
0.050536069
0.050236141
0.044308525
0.03579327
0.027484976
0.026721175
0.032841533
0.047947198
0.068399505
0.095286914
0.12754439
0.16439349
0.20203109
0.23560192
0.26488246
0.28928834
0.3067868
0.31277592
0.30867516
0.29868813
0.27947563
0.25340908
0.22461359
0.1923109
0.15924382
0.13351164
0.11228864
0.096795545
0.08472457
0.083814521
0.097317754
0.12678831
0.17516196
0.22896014
0.29075857
0.35019234
0.41740276
0.48726092
0.55600907
0.61978755
0.67455072
0.72771992
0.77226623
0.80678254
0.82411184
0.82955735
0.82875089
0.82325221
0.81690963
0.81246859
0.82033166
0.82939133
0.84262659
0.83876407
0.83982106
0.84810226
0.87087077
0.88358892
0.88616116
0.86909998
0.84681683
0.80388656
0.75778708
0.71016383
0.68145852
0.65885678
0.64853594
0.64657179
0.65940425
0.67056885
0.6842508
0.71775749
0.74410364
0.76011237
0.78764918
0.82416448
0.78961855
0.59661666
0.41260731
0.38585489
0.8112877
2.8176131
6.4223664
8.0041387
10.346488
7.4169676
6.5158939
2.8166231
0.18193115
-2.6863669
-4.4764901
-5.737533
-7.0108091
-8.1421476
-9.3507423
-10.34924
-11.211336
-11.229456
-10.900749
-7.5991112
-4.9008704
-0.37803661
3.7320866
5.1504408
6.6757519
9.2185065
17.51709
29.766925
42.413929
55.539658
61.74066
68.329958
63.401123
49.095925
20.045789
-25.291316
-62.874814
-79.139011
-77.876464
-68.337727
-58.477802
-49.437963
-40.752535
-33.727209
-27.943901
-23.439918
-19.493512
-16.37841
-13.777337
-11.534873
-9.6299219
-7.9914228
-6.7071924
-5.6547433
-4.7287171
-3.9699673
-3.39751
-2.9210994
-2.582521
-2.3710808
-2.2983488
-2.0654931
-1.6424591
-1.5953046
-1.5703251
-1.4252531
-1.3135082
-1.2015322
-1.1180003
-1.0642811
-1.0210278
-0.97978104
-0.94660356
-0.91668572
-0.88318508
-0.86723771
-0.84043625
-0.81871477
-0.78590712
-0.75793652
-0.72758547
-0.69836022
-0.66029619
-0.61680813
-0.59193951
-0.57693416
-0.5053264
-0.30098475
-0.10466239
-0.52795311
-0.53133744
-0.48501859
-0.51320364
-0.53249315
-0.54417342
-0.54139217
-0.5469883
-0.54962908
-0.54885772
-0.54617148
-0.54265129
-0.53794108
-0.53224474
-0.5262211
-0.51973634
-0.5137961
-0.50859533
-0.50404659
-0.50013898
-0.49632696
-0.49310873
-0.48966333
-0.48584999
-0.48177756
-0.47730718
-0.47297104
-0.46821033
-0.46340374
-0.45898277
-0.45626903
-0.45459327
-0.45433025
-0.45533938
-0.45921991
-0.4642577
-0.47080711
-0.47860875
-0.49039197
-0.50322677
-0.5164314
-0.52793824
-0.54036564
-0.55020654
-0.5567418
-0.55813688
-0.55800968
-0.55573935
-0.55177548
-0.54629485
-0.54183068
-0.53942343
-0.53936792
-0.54053896
-0.54309525
-0.54448675
-0.54522528
-0.54205786
-0.5364521
-0.52713988
-0.51460338
-0.49762166
-0.4750447
-0.44693668
-0.41150458
-0.37452804
-0.33422159
-0.29343814
-0.25361114
-0.21641059
-0.1809489
-0.14856029
-0.12079708
-0.10008886
-0.088482872
-0.087453811
-0.095498763
-0.10918912
-0.12175513
-0.13355535
-0.14420425
-0.15392307
-0.15909564
-0.16125174
-0.16090823
-0.15928542
-0.15279966
-0.14223949
-0.12818207
-0.11304529
-0.097512031
-0.0804561
-0.06160903
-0.042656724
-0.027454008
-0.013125702
0.0014892295
0.017823012
0.029161179
0.038360681
0.045022597
0.050508683
0.050207955
0.044286557
0.035783109
0.027502367
0.026728758
0.032864515
0.047933569
0.068429582
0.095263134
0.12753641
0.16432098
0.2020107
0.23552058
0.2648155
0.2891782
0.30671621
0.31268393
0.30859578
0.29861224
0.27942223
0.25335559
0.22457484
0.19230185
0.15923729
0.13351303
0.11232152
0.096807345
0.084766632
0.083823467
0.097384469
0.12680527
0.17517589
0.22893591
0.29072208
0.35012652
0.41735731
0.48713575
0.55592722
0.61961542
0.67444081
0.72750891
0.77211107
0.80656447
0.82394118
0.82938246
0.82857894
0.82309309
0.81678099
0.81235055
0.82017474
0.82925462
0.84244611
0.83866762
0.83965322
0.84792498
0.87069183
0.88341021
0.88593053
0.86899107
0.8466266
0.80392417
0.75769454
0.7102783
0.68143495
0.65892359
0.64853285
0.64658941
0.6594807
0.67058908
0.68439493
0.71787237
0.74441175
0.76027561
0.78804909
0.82427813
0.78860336
0.59433766
0.41027903
0.3877149
0.82235445
2.8244042
6.429984
8.0126189
10.315745
7.4079553
6.4700892
2.8048112
0.13845513
-2.6922672
-4.4825018
-5.7421628
-7.0150887
-8.1459201
-9.3504762
-10.349021
-11.203429
-11.21255
-10.841453
-7.5691952
-4.8408659
-0.3472814
3.7452926
5.1591028
6.6624583
9.218939
17.515018
29.750487
42.391492
55.532521
61.740922
68.272617
63.23335
48.830765
19.872046
-25.550776
-62.897011
-79.08054
-77.786002
-68.273213
-58.440907
-49.411977
-40.734806
-33.717356
-27.939217
-23.434952
-19.488981
-16.375523
-13.774833
-11.53309
-9.6287241
-7.9903977
-6.7056811
-5.6535047
-4.7287868
-3.9702053
-3.3976787
-2.921684
-2.5835835
-2.3722134
-2.2965199
-2.0610756
-1.6445348
-1.5951556
-1.5668399
-1.424435
-1.3131889
-1.201659
-1.1182354
-1.0644492
-1.0211431
-0.97993486
-0.94661829
-0.91651428
-0.88329398
-0.86697608
-0.84036473
-0.81848611
-0.78598847
-0.75796087
-0.72763902
-0.6983835
-0.66047244
-0.61707325
-0.5916512
-0.57591968
-0.50500352
-0.30388021
-0.12295699
-0.52893875
-0.53325241
-0.48793027
-0.51346516
-0.53263673
-0.54421742
-0.5416771
-0.54698524
-0.54963573
-0.5488814
-0.54620685
-0.54268668
-0.53796943
-0.5322748
-0.52624758
-0.51976578
-0.51382164
-0.50861819
-0.50406853
-0.50014908
-0.49634328
-0.4931228
-0.48967385
-0.48586329
-0.48178145
-0.47732002
-0.47297306
-0.4682146
-0.46340557
-0.45900447
-0.45628366
-0.45461497
-0.45433952
-0.45537712
-0.45922988
-0.46427739
-0.47080046
-0.47865153
-0.4903892
-0.5032357
-0.51638332
-0.52794204
-0.54030638
-0.55016169
-0.55664174
-0.55807599
-0.5579267
-0.55566669
-0.55169748
-0.54623474
-0.54178335
-0.53938109
-0.53931824
-0.54050303
-0.54302445
-0.5444421
-0.54513494
-0.54199165
-0.53636101
-0.52705653
-0.51452962
-0.49753138
-0.47498909
-0.44682372
-0.4114496
-0.37443422
-0.33419532
-0.29338835
-0.25362224
-0.2163761
-0.18097414
-0.14856807
-0.12085305
-0.10011659
-0.08855034
-0.08750696
-0.095549376
-0.10921002
-0.12176616
-0.13355639
-0.14420156
-0.15390823
-0.1590829
-0.16122687
-0.16089664
-0.15924746
-0.15277974
-0.14220896
-0.12817826
-0.11302012
-0.097510293
-0.08045054
-0.061624827