/*--------------------------------*- C++ -*----------------------------------*\
| =========                 |                                                 |
| \\      /  F ield         | OpenFOAM: The Open Source CFD Toolbox           |
|  \\    /   O peration     | Version:  2.4.0                                 |
|   \\  /    A nd           | Web:      www.OpenFOAM.org                      |
|    \\/     M anipulation  |                                                 |
\*---------------------------------------------------------------------------*/
FoamFile
{
    version     2.0;
    format      ascii;
    class       surfaceScalarField;
    location    "210";
    object      phi;
}
// * * * * * * * * * * * * * * * * * * * * * * * * * * * * * * * * * * * * * //

dimensions      [0 3 -1 0 0 0 0];

internalField   nonuniform List<scalar> 
156040
(
-1.243131e-06
-2.6120327e-07
-1.0342707e-06
-2.0886023e-07
-8.4265886e-07
-1.9161158e-07
-6.6733316e-07
-1.7532545e-07
-5.7784252e-07
-8.9490513e-08
-5.7040918e-07
-7.4331101e-09
-5.1708261e-07
-5.3326506e-08
-4.4564015e-07
-7.1442349e-08
-3.8186817e-07
-6.3771851e-08
-3.3400051e-07
-4.7867706e-08
-2.6423264e-07
-6.9767891e-08
-7.4962055e-08
-1.8927001e-07
-5.3321342e-08
-2.1641217e-08
-2.0941396e-07
1.5609282e-07
-4.4888746e-08
-1.6452562e-07
-6.6978776e-08
2.2089722e-08
-1.8320803e-07
1.1622961e-07
-1.7442643e-07
-8.7816274e-09
-1.7613469e-07
1.708245e-09
-1.5777415e-07
-1.8360544e-08
-1.348164e-07
-2.2957761e-08
-1.19513e-07
-1.5303414e-08
-1.0953517e-07
-9.9778488e-09
-9.5358992e-08
-1.4176248e-08
-8.5609125e-08
-9.7498439e-09
-8.6244782e-08
6.3595369e-10
-6.5666891e-08
-2.057819e-08
-7.3154351e-08
7.4875751e-09
-6.378562e-08
-9.3688661e-09
-7.3444843e-08
9.6593637e-09
-6.6064518e-08
-7.3804455e-09
-6.8877588e-08
2.8130875e-09
-6.851785e-08
-3.5972635e-10
-7.6816972e-08
8.2991201e-09
-8.1149294e-08
4.3323182e-09
-6.5692943e-08
-1.5456362e-08
-5.9166546e-08
-6.5264059e-09
-1.1243403e-07
5.326747e-08
-2.4687977e-07
1.3444566e-07
-4.9437073e-07
2.4749098e-07
4.1297611e-07
-9.0734241e-07
-1.1513025e-07
5.281061e-07
-1.2726152e-07
1.2131301e-08
-1.0776009e-08
-1.1648551e-07
-5.354552e-08
4.2769552e-08
-6.0276256e-08
6.7307272e-09
-7.587232e-08
1.5596096e-08
-5.9983582e-08
-1.5888753e-08
-6.7402902e-08
7.4193269e-09
-7.0212081e-08
2.8091829e-09
-7.1932541e-08
1.7204687e-09
-7.1776979e-08
-1.5555369e-10
-7.0129776e-08
-1.6471918e-09
-6.7208028e-08
-2.9217342e-09
-6.1830644e-08
-5.3773722e-09
-5.5766495e-08
-6.0641372e-09
-4.7321213e-08
-8.4452726e-09
-3.9296603e-08
-8.0245994e-09
-3.2513229e-08
-6.7833661e-09
-2.8372272e-08
-4.1409519e-09
-2.8440038e-08
6.7775508e-11
-3.3629102e-08
5.1890689e-09
-5.1655213e-08
1.8026124e-08
-7.1033576e-08
1.9378371e-08
-8.7329442e-08
1.6295876e-08
-1.038603e-07
1.6530859e-08
-1.1784289e-07
1.3982604e-08
-1.3205321e-07
1.4210325e-08
-1.4388523e-07
1.1832022e-08
-1.5467974e-07
1.0794511e-08
-1.6197701e-07
7.2972874e-09
-1.7021221e-07
8.2352079e-09
-1.7651045e-07
6.2982437e-09
-1.8374429e-07
7.2338484e-09
-1.8672349e-07
2.9792123e-09
-1.9308066e-07
6.3571781e-09
-1.9699202e-07
3.9113637e-09
-2.0294223e-07
5.9502114e-09
-2.0257179e-07
-3.704283e-10
-2.0888987e-07
6.3180803e-09
-2.1346461e-07
4.5747532e-09
-2.2343452e-07
9.9698988e-09
-2.2630433e-07
2.8698256e-09
-2.3717798e-07
1.0873641e-08
-2.4600046e-07
8.8224873e-09
-2.600954e-07
1.4094932e-08
-2.66632e-07
6.5366027e-09
-2.7518455e-07
8.5525433e-09
-2.8137516e-07
6.1906018e-09
-2.8740003e-07
6.0248574e-09
-2.8890625e-07
1.5062145e-09
-2.89011e-07
1.0474268e-10
-2.8840003e-07
-6.1095699e-10
-2.9021243e-07
1.8123927e-09
-2.907896e-07
5.7717929e-10
-2.9719667e-07
6.407059e-09
-3.0095859e-07
3.7619298e-09
-3.1259928e-07
1.164068e-08
-3.2089039e-07
8.2911037e-09
-3.3314149e-07
1.2251087e-08
-3.4501706e-07
1.1875559e-08
-3.5983941e-07
1.4822341e-08
-3.776057e-07
1.776628e-08
-3.9238333e-07
1.4777615e-08
-4.105944e-07
1.8211075e-08
-4.1382639e-07
3.2319873e-09
-4.2166542e-07
7.8390299e-09
-4.2095992e-07
-7.0550825e-10
-4.1962381e-07
-1.3361106e-09
-4.125613e-07
-7.0625153e-09
-4.0892234e-07
-3.6389628e-09
-4.0027306e-07
-8.6492751e-09
-3.9019269e-07
-1.0080378e-08
-3.7386495e-07
-1.6327741e-08
-3.555367e-07
-1.8328253e-08
-3.3338989e-07
-2.2146816e-08
-3.1517496e-07
-1.8214937e-08
-3.0241979e-07
-1.2755176e-08
-3.0167535e-07
-7.4443243e-10
-2.9968869e-07
-1.9866615e-09
-2.9909012e-07
-5.9857755e-10
-2.9782642e-07
-1.2636989e-09
-3.0310071e-07
5.2742915e-09
-3.0494512e-07
1.8444122e-09
-3.0687133e-07
1.9262172e-09
-3.0590534e-07
-9.6599543e-10
-3.122211e-07
6.3157693e-09
-3.1586535e-07
3.644251e-09
-3.1921682e-07
3.3514742e-09
-3.1728574e-07
-1.9310809e-09
-3.1533116e-07
-1.9545721e-09
-3.1438818e-07
-9.4297418e-10
-3.1388907e-07
-4.9910496e-10
-3.0975183e-07
-4.1372446e-09
-2.9953716e-07
-1.0214665e-08
-2.9435082e-07
-5.1863475e-09
-2.9003649e-07
-4.3143231e-09
-2.8845146e-07
-1.5850375e-09
-2.7424267e-07
-1.4208785e-08
-2.6568593e-07
-8.5567518e-09
-2.5512637e-07
-1.0559556e-08
-2.4727971e-07
-7.84667e-09
-2.3113366e-07
-1.6146058e-08
-2.1572404e-07
-1.5409632e-08
-2.0638042e-07
-9.3436217e-09
-2.0236292e-07
-4.0175167e-09
-2.1264906e-07
1.0286143e-08
-2.2126539e-07
8.6163306e-09
-2.3502753e-07
1.3762135e-08
-2.4089951e-07
5.8719781e-09
-2.5069585e-07
9.7963448e-09
-2.5684159e-07
6.1457367e-09
-2.6267155e-07
5.829958e-09
-2.5941386e-07
-3.2576905e-09
-2.4909782e-07
-1.0316048e-08
-2.3629475e-07
-1.280307e-08
-2.2291825e-07
-1.3376508e-08
-2.0430122e-07
-1.8617035e-08
-1.7827035e-07
-2.6030865e-08
-1.5301425e-07
-2.525611e-08
-1.3574344e-07
-1.7270812e-08
-1.1366936e-07
-2.2074088e-08
-9.7197854e-08
-1.6471498e-08
-8.779434e-08
-9.4035167e-09
-7.9666574e-08
-8.1277648e-09
-7.8148374e-08
-1.5181901e-09
-8.9517602e-08
1.1369236e-08
-9.4785068e-08
5.2674804e-09
-1.0367801e-07
8.8929488e-09
-1.0694344e-07
3.2654477e-09
-1.2395069e-07
1.7007262e-08
-1.4355448e-07
1.9603805e-08
-1.6464897e-07
2.1094526e-08
-1.891645e-07
2.4515557e-08
-1.8949933e-07
3.3486144e-10
-1.9602208e-07
6.5227649e-09
-1.8349739e-07
-1.2524661e-08
-1.898647e-07
6.3673152e-09
-1.8869008e-07
-1.1745853e-09
-1.7995913e-07
-8.7309489e-09
-1.6791586e-07
-1.2043256e-08
-1.4637317e-07
-2.1542698e-08
-1.4307888e-07
-3.2942789e-09
-1.2447747e-07
-1.8601429e-08
-1.0783907e-07
-1.6638399e-08
-7.6527368e-08
-3.1311731e-08
-5.7119886e-08
-1.940749e-08
-4.8055944e-08
-9.0639631e-09
-4.1986275e-08
-6.0696834e-09
-4.2784959e-08
7.9866288e-10
-4.5413659e-08
2.628697e-09
-6.6494367e-08
2.1080703e-08
-6.4130241e-08
-2.364129e-09
-7.1170859e-08
7.0406115e-09
-3.6574113e-08
-3.4596747e-08
-4.779957e-08
1.1225451e-08
-5.9505764e-08
1.170619e-08
-8.6082835e-08
2.6577063e-08
-6.2940129e-08
-2.3142703e-08
-3.7661258e-08
-2.5278872e-08
1.2414024e-08
-5.0075275e-08
3.1632782e-08
-1.921876e-08
8.2958032e-08
-5.1325244e-08
8.8847554e-08
-5.8895259e-09
9.3937263e-08
-5.0897073e-09
4.8664585e-08
4.527267e-08
3.1324397e-08
1.7340186e-08
-5.5184257e-09
3.6842813e-08
-3.1832145e-08
2.6313714e-08
-7.0421426e-08
3.8589269e-08
-7.8607539e-08
8.1861123e-09
-9.0247836e-08
1.1640292e-08
-1.3071913e-07
4.0471292e-08
-1.2197628e-07
-8.7428569e-09
-1.0939664e-07
-1.2579639e-08
-1.2106228e-07
1.1665638e-08
-1.3042151e-07
9.359229e-09
-3.3813579e-08
-9.6607936e-08
1.8681312e-07
-2.206267e-07
1.5072214e-07
3.6090981e-08
-5.2161414e-08
2.0288356e-07
-6.9523914e-07
6.4307773e-07
-3.1079904e-06
2.4127497e-06
-5.2938968e-06
2.1859081e-06
-2.1583504e-06
-3.1355407e-06
-3.1436473e-06
9.8529144e-07
4.1569001e-06
-7.3005486e-06
9.2783291e-07
3.2290683e-06
4.5925236e-06
-3.6646908e-06
2.7011369e-06
1.8913869e-06
3.4086294e-06
-7.074924e-07
1.96452e-06
1.4441095e-06
1.46992e-06
4.9460007e-07
1.4467637e-06
2.3156269e-08
1.2375118e-06
2.0925198e-07
1.3079165e-06
-7.0404732e-08
1.0541208e-06
2.5379572e-07
9.1161072e-07
1.4251012e-07
1.0431092e-07
8.073001e-07
-1.4568127e-08
1.1887926e-07
-2.6254565e-06
2.6108894e-06
-1.5802668e-06
-1.0451904e-06
-3.2462091e-06
1.6659436e-06
-2.7810272e-06
-4.6518276e-07
-8.7872966e-07
-1.902295e-06
-9.6671416e-07
8.7982778e-08
-1.4374244e-06
4.7071857e-07
-5.7644738e-06
4.327041e-06
-8.5110787e-06
2.7466046e-06
-8.50151e-06
-9.5690841e-09
-8.192746e-06
-3.0876462e-07
-3.3127975e-06
-4.8799488e-06
-3.8142277e-06
5.0143084e-07
2.3872094e-06
-6.2014414e-06
7.4722615e-06
-5.0850553e-06
1.5715397e-05
-8.2431154e-06
2.4136604e-05
-8.4212545e-06
2.1215805e-05
2.920534e-06
1.0092727e-05
1.1123342e-05
1.4006871e-06
8.6920454e-06
-3.4456599e-06
4.846352e-06
-4.3675586e-06
9.2190176e-07
-4.4058453e-06
3.8289939e-08
-4.4172193e-06
1.1375242e-08
-3.6878761e-06
-7.2934229e-07
-3.2288803e-06
-4.5899515e-07
-2.6454359e-06
-5.8344392e-07
-2.3416588e-06
-3.0377737e-07
-1.8672534e-06
-4.7440513e-07
-3.6291884e-07
-1.908716e-06
-7.5565538e-07
-1.517981e-06
-5.9959527e-07
-1.1609075e-06
-5.4868491e-07
-9.3083473e-07
-4.0539802e-07
-8.5378833e-07
-1.6653692e-07
-9.3968728e-07
7.8466037e-08
-9.3260056e-07
-6.0413327e-08
-8.8245452e-07
-1.215883e-07
-7.7418351e-07
-1.7204293e-07
-7.4671383e-07
-7.5337627e-08
-6.4283534e-07
-1.736466e-07
-1.8800356e-07
-6.4410168e-07
1.7544222e-08
-2.271884e-07
-2.6290402e-07
4.3654036e-07
-1.0923654e-07
-3.1819333e-07
-2.0318251e-07
1.1603642e-07
-4.2933701e-07
3.4238381e-07
-4.3997162e-07
1.8530276e-09
-4.4219709e-07
3.9337607e-09
-4.1061212e-07
-4.9945476e-08
-3.6677095e-07
-6.6798903e-08
-3.2793209e-07
-5.4142237e-08
-2.9688263e-07
-4.1027255e-08
-2.609804e-07
-5.0078427e-08
-2.3328629e-07
-3.7443936e-08
-2.2692966e-07
-5.7207565e-09
-1.8711688e-07
-6.0390868e-08
-1.9242914e-07
1.2799869e-08
-1.7119182e-07
-3.0606156e-08
-1.822028e-07
2.0670349e-08
-1.6728365e-07
-2.2299565e-08
-1.7080135e-07
6.3308071e-09
-1.7055849e-07
-6.025797e-10
-1.8041821e-07
1.8158849e-08
-1.8442461e-07
8.3387214e-09
-1.6961339e-07
-3.0267576e-08
-1.66359e-07
-9.7807871e-09
-2.2274866e-07
1.0965713e-07
-3.9113608e-07
3.0283311e-07
-9.8877207e-07
8.451269e-07
3.3483194e-07
-2.2309456e-06
-3.5865915e-07
1.221597e-06
-2.9785631e-07
-4.867151e-08
-1.1966867e-07
-2.9467318e-07
-2.0758435e-07
1.3068526e-07
-2.1451512e-07
1.3661479e-08
-2.2802467e-07
2.9105673e-08
-2.0391289e-07
-4.0000548e-08
-2.1674545e-07
2.0251885e-08
-2.1760486e-07
3.6686004e-09
-2.18373e-07
2.4886147e-09
-2.1596727e-07
-2.5612724e-09
-2.0782823e-07
-9.7862184e-09
-1.9590395e-07
-1.4846008e-08
-1.7824383e-07
-2.3037485e-08
-1.5792163e-07
-2.6386318e-08
-1.3316999e-07
-3.3196907e-08
-1.1020399e-07
-3.0990587e-08
-9.091675e-08
-2.6070597e-08
-8.0092737e-08
-1.4964958e-08
-8.0475542e-08
4.5059041e-10
-9.8769153e-08
2.3482684e-08
-1.5426925e-07
7.3526238e-08
-2.1349875e-07
7.8607875e-08
-2.6378569e-07
6.6582827e-08
-3.1383716e-07
6.6582328e-08
-3.5809144e-07
5.8236896e-08
-4.0090124e-07
5.7020136e-08
-4.3769945e-07
4.8630236e-08
-4.7205069e-07
4.5145747e-08
-5.0010901e-07
3.5355621e-08
-5.285064e-07
3.6632609e-08
-5.5252411e-07
3.0315967e-08
-5.7800398e-07
3.2713715e-08
-5.9638068e-07
2.1355936e-08
-6.1885879e-07
2.8835289e-08
-6.360572e-07
2.1109779e-08
-6.5696162e-07
2.6854629e-08
-6.6870278e-07
1.1370754e-08
-6.9030843e-07
2.7923732e-08
-7.0674916e-07
2.101549e-08
-7.3107247e-07
3.4293206e-08
-7.4433988e-07
1.6137239e-08
-7.6924658e-07
3.5780341e-08
-7.8828005e-07
2.7855953e-08
-8.1576292e-07
4.1577788e-08
-8.3253781e-07
2.3311495e-08
-8.5227864e-07
2.8293363e-08
-8.6685367e-07
2.0765631e-08
-8.8087638e-07
2.0047553e-08
-8.8855928e-07
9.1891145e-09
-8.9490946e-07
6.4549102e-09
-8.9998604e-07
4.4656366e-09
-9.0877303e-07
1.0599376e-08
-9.1529312e-07
7.0972772e-09
-9.307622e-07
2.187613e-08
-9.4161496e-07
1.4614699e-08
-9.6523509e-07
3.5260797e-08
-9.8453452e-07
2.7590529e-08
-1.0112092e-06
3.8925701e-08
-1.0385656e-06
3.9231974e-08
-1.0720945e-06
4.8351252e-08
-1.110223e-06
5.5894752e-08
-1.1417826e-06
4.6337236e-08
-1.1752612e-06
5.1689637e-08
-1.1823578e-06
1.0328608e-08
-1.1952012e-06
2.0682395e-08
-1.1931284e-06
-2.7782462e-09
-1.190209e-06
-4.255561e-09
-1.1776015e-06
-1.9669965e-08
-1.1695879e-06
-1.1652592e-08
-1.1529521e-06
-2.5285074e-08
-1.1339076e-06
-2.9124899e-08
-1.1049095e-06
-4.5325873e-08
-1.073224e-06
-5.0013773e-08
-1.035909e-06
-5.9461774e-08
-1.0052595e-06
-4.886448e-08
-9.8224522e-07
-3.5769422e-08
-9.7632225e-07
-6.6674062e-09
-9.6791262e-07
-1.0396286e-08
-9.625482e-07
-5.9630034e-09
-9.5592604e-07
-7.8858557e-09
-9.5883047e-07
8.1787228e-09
-9.5599805e-07
-9.8800849e-10
-9.5423259e-07
1.6075902e-10
-9.4804647e-07
-7.1521093e-09
-9.5275819e-07
1.1027497e-08
-9.5268022e-07
3.5662852e-09
-9.5227658e-07
2.9478353e-09
-9.4388863e-07
-1.031903e-08
-9.3583756e-07
-1.0005635e-08
-9.2885866e-07
-7.9218708e-09
-9.2164501e-07
-7.7127458e-09
-9.0907557e-07
-1.6706697e-08
-8.8776023e-07
-3.1529991e-08
-8.7414801e-07
-1.8798576e-08
-8.6004996e-07
-1.8412364e-08
-8.4994415e-07
-1.1690859e-08
-8.2044797e-07
-4.3704964e-08
-7.9975758e-07
-2.9247148e-08
-7.7452844e-07
-3.5788693e-08
-7.5341093e-07
-2.8964201e-08
-7.2001378e-07
-4.954321e-08
-6.8845961e-07
-4.6963816e-08
-6.6687011e-07
-3.0933127e-08
-6.5384104e-07
-1.7046598e-08
-6.632436e-07
1.9688703e-08
-6.7021794e-07
1.5590668e-08
-6.8597798e-07
2.9522176e-08
-6.8964869e-07
9.5426821e-09
-6.9995387e-07
2.0101527e-08
-7.0426028e-07
1.0452146e-08
-7.0772555e-07
9.2952283e-09
-6.9678517e-07
-1.4198073e-08
-6.7498622e-07
-3.2114996e-08
-6.4869086e-07
-3.9098432e-08
-6.2043571e-07
-4.1631664e-08
-5.8373679e-07
-5.5315965e-08
-5.3552008e-07
-7.4247579e-08
-4.8707474e-07
-7.3701445e-08
-4.5060974e-07
-5.3735822e-08
-4.0907744e-07
-6.36064e-08
-3.775639e-07
-4.7985023e-08
-3.5678873e-07
-3.0178693e-08
-3.416521e-07
-2.3264396e-08
-3.3803865e-07
-5.1316265e-09
-3.5167462e-07
2.5005214e-08
-3.5503573e-07
8.6286086e-09
-3.6507958e-07
1.8936807e-08
-3.6575617e-07
3.942051e-09
-3.8516902e-07
3.6420131e-08
-4.0548927e-07
3.9924075e-08
-4.2368616e-07
3.9291453e-08
-4.4610124e-07
4.6930671e-08
-4.3139244e-07
-1.4373897e-08
-4.2913865e-07
4.2689979e-09
-3.9739618e-07
-4.4267097e-08
-3.9574579e-07
4.7169253e-09
-3.833307e-07
-1.3589634e-08
-3.6131903e-07
-3.0742615e-08
-3.3689133e-07
-3.6470936e-08
-2.9843216e-07
-6.0001884e-08
-2.9056209e-07
-1.1164339e-08
-2.5969254e-07
-4.9471005e-08
-2.3532342e-07
-4.1007523e-08
-1.8912437e-07
-7.7510813e-08
-1.6226063e-07
-4.627123e-08
-1.5164746e-07
-1.9677162e-08
-1.4579278e-07
-1.1924384e-08
-1.5029483e-07
5.3006892e-09
-1.5256415e-07
4.8980122e-09
-1.8168392e-07
5.0200456e-08
-1.7187899e-07
-1.2169054e-08
-1.8078488e-07
1.5946492e-08
-1.2486493e-07
-9.0516704e-08
-1.4309347e-07
2.9453984e-08
-1.5873492e-07
2.7347632e-08
-1.9873637e-07
6.6578502e-08
-1.5657282e-07
-6.5306246e-08
-1.0772019e-07
-7.4131507e-08
-1.2924719e-08
-1.4487074e-07
3.3113223e-08
-6.5256706e-08
1.2706553e-07
-1.4527755e-07
1.4034048e-07
-1.9164476e-08
1.4745358e-07
-1.2202808e-08
6.7181783e-08
1.2554446e-07
2.8502594e-08
5.6019372e-08
-4.7181304e-08
1.125267e-07
-1.0484161e-07
8.3974013e-08
-1.8145437e-07
1.1520201e-07
-2.1019642e-07
3.6928158e-08
-2.4159033e-07
4.30342e-08
-3.0982313e-07
1.0870409e-07
-3.0647865e-07
-1.2087349e-08
-2.9305329e-07
-2.6004994e-08
-3.0467404e-07
2.328638e-08
-3.0628106e-07
1.0966244e-08
-1.7956882e-07
-2.2332017e-07
1.1700321e-07
-5.1719873e-07
3.0026974e-08
1.2306723e-07
-2.5876202e-07
4.9167256e-07
-1.2865268e-06
1.6708425e-06
-5.176561e-06
6.3027823e-06
-8.6989023e-06
5.7082512e-06
-3.4174213e-06
-8.4170155e-06
-4.7298749e-06
2.2977391e-06
6.9695474e-06
-1.8999972e-05
1.4647813e-06
8.7338355e-06
7.1500246e-06
-9.3499341e-06
3.9334008e-06
5.1080108e-06
5.3115041e-06
-2.0855955e-06
3.0935963e-06
3.6620174e-06
2.4926556e-06
1.0955409e-06
2.46915e-06
4.6661863e-08
2.0963974e-06
5.8200469e-07
2.2275618e-06
-2.0156917e-07
1.8335262e-06
6.4783134e-07
1.5810696e-06
3.9496671e-07
2.7433883e-07
2.1140313e-06
1.59497e-07
2.3372134e-07
-3.6426216e-06
6.4130091e-06
-1.6751496e-06
-3.0126632e-06
-4.3732421e-06
4.3640376e-06
-3.6775094e-06
-1.1609165e-06
-1.0579393e-06
-4.5218622e-06
-1.2132828e-06
2.4332454e-07
-1.8750218e-06
1.1324665e-06
-9.3856625e-06
1.1837673e-05
-1.4162482e-05
7.5234236e-06
-1.412853e-05
-4.3521803e-08
-1.318683e-05
-1.2504649e-06
-4.6824741e-06
-1.3384305e-05
-5.7704983e-06
1.5894557e-06
3.513952e-06
-1.5485897e-05
1.1289899e-05
-1.2861006e-05
2.3774387e-05
-2.0727584e-05
3.7064645e-05
-2.1711566e-05
3.3227844e-05
6.7570526e-06
1.7168667e-05
2.7182802e-05
5.1384523e-06
2.0722267e-05
-2.4471835e-06
1.2431994e-05
-4.8612695e-06
3.3359917e-06
-5.6903958e-06
8.6742037e-07
-6.0249381e-06
3.4591922e-07
-5.2104157e-06
-1.5438634e-06
-4.8865627e-06
-7.8284729e-07
-4.2223058e-06
-1.2477003e-06
-3.7708394e-06
-7.5524405e-07
-3.0276946e-06
-1.2175495e-06
-9.8744508e-07
-1.9056158e-06
-1.3844355e-06
-1.4141599e-06
-1.0910511e-06
-9.6652299e-07
-9.9632141e-07
-7.8976793e-07
-5.8215271e-07
-7.9925233e-07
-1.5705228e-07
-1.0257233e-06
3.0493737e-07
-1.1305625e-06
4.4426032e-08
-1.1699784e-06
-8.2172298e-08
-1.0510607e-06
-2.909603e-07
-1.0879091e-06
-3.8489241e-08
-9.8745531e-07
-2.7410033e-07
-2.9784483e-07
-1.3337114e-06
1.5485298e-07
-6.7988701e-07
-1.831323e-07
7.7452604e-07
-1.7097496e-07
-3.3035123e-07
-3.5229244e-07
2.9735324e-07
-6.477296e-07
6.3782159e-07
-6.9261349e-07
4.6736853e-08
-6.9373675e-07
5.0569618e-09
-6.5623265e-07
-8.7449605e-08
-5.9916445e-07
-1.2386713e-07
-5.3787441e-07
-1.1543232e-07
-4.8396975e-07
-9.4931973e-08
-4.2744602e-07
-1.066023e-07
-3.8124361e-07
-8.3646313e-08
-3.6419076e-07
-2.2773146e-08
-3.1241829e-07
-1.1216381e-07
-3.088611e-07
9.2428258e-09
-2.7777482e-07
-6.1692645e-08
-2.8339774e-07
2.6293483e-08
-2.633729e-07
-4.23246e-08
-2.6579351e-07
8.7514467e-09
-2.6606715e-07
-3.289273e-10
-2.7198034e-07
2.407203e-08
-2.7231517e-07
8.6735485e-09
-2.7037898e-07
-3.2203793e-08
-2.7736519e-07
-2.7945953e-09
-2.9791542e-07
1.3020733e-07
-4.1508247e-07
4.2000004e-07
-1.295422e-06
1.7254665e-06
-5.9994812e-08
-3.4663728e-06
-6.2003686e-07
1.7816387e-06
-4.4801336e-07
-2.2069497e-07
-2.6947775e-07
-4.7320878e-07
-3.8919915e-07
2.5040671e-07
-3.9181064e-07
1.627297e-08
-3.908519e-07
2.8146972e-08
-3.67116e-07
-6.3736469e-08
-3.821507e-07
3.5286598e-08
-3.7838424e-07
-9.7856042e-11
-3.767591e-07
8.6348923e-10
-3.7150824e-07
-7.8121205e-09
-3.5559373e-07
-2.5700714e-08
-3.3322671e-07
-3.7213008e-08
-3.0225288e-07
-5.4011296e-08
-2.6629413e-07
-6.2345055e-08
-2.2471835e-07
-7.4772674e-08
-1.8651134e-07
-6.9197586e-08
-1.5454762e-07
-5.8034305e-08
-1.374118e-07
-3.2100773e-08
-1.3850457e-07
1.543376e-09
-1.7212386e-07
5.7101977e-08
-2.68012e-07
1.694144e-07
-3.7008233e-07
1.8067822e-07
-4.5718665e-07
1.5368717e-07
-5.4306682e-07
1.524625e-07
-6.203983e-07
1.3556839e-07
-6.9365886e-07
1.302807e-07
-7.5749214e-07
1.1246352e-07
-8.1754459e-07
1.051982e-07
-8.6989027e-07
8.7701324e-08
-9.2097701e-07
8.7719357e-08
-9.6565925e-07
7.4998225e-08
-1.0117378e-06
7.879228e-08
-1.0497951e-06
5.9413255e-08
-1.0904999e-06
6.9540068e-08
-1.1238349e-06
5.4444838e-08
-1.1616147e-06
6.4634355e-08
-1.1907567e-06
4.0512767e-08
-1.2292915e-06
6.6458612e-08
-1.2593352e-06
5.1059123e-08
-1.2967536e-06
7.1711663e-08
-1.3226579e-06
4.2041515e-08
-1.3594157e-06
7.2538109e-08
-1.3866755e-06
5.5115827e-08
-1.4229763e-06
7.7878538e-08
-1.44952e-06
4.9855219e-08
-1.4787886e-06
5.7561973e-08
-1.5007952e-06
4.2772206e-08
-1.5218344e-06
4.1086722e-08
-1.5372041e-06
2.4558834e-08
-1.5522782e-06
2.1528937e-08
-1.5658367e-06
1.8024198e-08
-1.5831152e-06
2.7877902e-08
-1.5976002e-06
2.1582247e-08
-1.621133e-06
4.5408939e-08
-1.639275e-06
3.2756728e-08
-1.6712338e-06
6.721951e-08
-1.6999637e-06
5.6320455e-08
-1.7379941e-06
7.695606e-08
-1.7785813e-06
7.9819178e-08
-1.8278444e-06
9.7614356e-08
-1.8820254e-06
1.1007577e-07
-1.9271206e-06
9.1432348e-08
-1.9691332e-06
9.3702301e-08
-1.9792411e-06
2.0436472e-08
-1.9932963e-06
3.4737552e-08
-1.9897847e-06
-6.2897937e-09
-1.9853975e-06
-8.6428225e-09
-1.9700036e-06
-3.5063793e-08
-1.9583304e-06
-2.3325851e-08
-1.9366749e-06
-4.6940557e-08
-1.9121494e-06
-5.3650373e-08
-1.8770384e-06
-8.0436905e-08
-1.8396445e-06
-8.7407653e-08
-1.796831e-06
-1.0227525e-07
-1.7615278e-06
-8.4167725e-08
-1.7329916e-06
-6.4305673e-08
-1.7201244e-06
-1.9534613e-08
-1.7040081e-06
-2.6512556e-08
-1.6921609e-06
-1.7810186e-08
-1.6786853e-06
-2.1361468e-08
-1.6742286e-06
3.7220092e-09
-1.6633465e-06
-1.1870044e-08
-1.654774e-06
-8.4117928e-09
-1.6417319e-06
-2.019424e-08
-1.6393713e-06
8.6669717e-09
-1.6312657e-06
-4.5393108e-09
-1.6229709e-06
-5.3469655e-09
-1.6067488e-06
-2.654111e-08
-1.5912818e-06
-2.5472665e-08
-1.5762738e-06
-2.2929845e-08
-1.5598058e-06
-2.4180716e-08
-1.538246e-06
-3.8266549e-08
-1.5084983e-06
-6.1277649e-08
-1.4865209e-06
-4.0775977e-08
-1.4616116e-06
-4.3321695e-08
-1.4404858e-06
-3.2816712e-08
-1.3995772e-06
-8.4613525e-08
-1.367726e-06
-6.1098373e-08
-1.3293002e-06
-7.421447e-08
-1.2949716e-06
-6.3292771e-08
-1.2487504e-06
-9.5764424e-08
-1.2053526e-06
-9.0361638e-08
-1.1729676e-06
-6.3318194e-08
-1.1498609e-06
-4.0153275e-08
-1.150236e-06
2.0063775e-08
-1.148395e-06
1.3749731e-08
-1.1566491e-06
3.7776247e-08
-1.1527516e-06
5.6451774e-09
-1.1563945e-06
2.3744366e-08
-1.153412e-06
7.4697369e-09
-1.1489726e-06
4.8558299e-09
-1.1293694e-06
-3.3801289e-08
-1.0986844e-06
-6.2799994e-08
-1.0625379e-06
-7.5244968e-08
-1.0228032e-06
-8.1366365e-08
-9.7394751e-07
-1.0417168e-07
-9.1320436e-07
-1.3499073e-07
-8.5053274e-07
-1.3637307e-07
-7.9961872e-07
-1.0464985e-07
-7.4650653e-07
-1.167186e-07
-7.0561069e-07
-8.8880848e-08
-6.759409e-07
-5.9848488e-08
-6.5643626e-07
-4.2769038e-08
-6.4998232e-07
-1.1585551e-08
-6.5806499e-07
3.3087892e-08
-6.5464133e-07
5.2049655e-09
-6.5947819e-07
2.3773678e-08
-6.5383235e-07
-1.7037719e-09
-6.6400235e-07
4.6590146e-08
-6.7105503e-07
4.6976781e-08
-6.702108e-07
3.8447263e-08
-6.7227432e-07
4.8994219e-08
-6.3644746e-07
-5.0200711e-08
-6.1731438e-07
-1.4864057e-08
-5.6793845e-07
-9.3642993e-08
-5.5065998e-07
-1.2561545e-08
-5.2339422e-07
-4.085535e-08
-4.8933267e-07
-6.4804166e-08
-4.5607969e-07
-6.9723891e-08
-4.0989524e-07
-1.0618635e-07
-3.975349e-07
-2.3524667e-08
-3.6277131e-07
-8.4234613e-08
-3.3911872e-07
-6.466011e-08
-2.9438617e-07
-1.2224339e-07
-2.7043616e-07
-7.0221255e-08
-2.6358626e-07
-2.6527089e-08
-2.6172512e-07
-1.3785538e-08
-2.7011042e-07
1.368596e-08
-2.6990899e-07
4.6965777e-09
-2.9497013e-07
7.5261596e-08
-2.7674874e-07
-3.0390444e-08
-2.8296485e-07
2.2162586e-08
-2.2247645e-07
-1.5100511e-07
-2.4192131e-07
4.8898843e-08
-2.5415746e-07
3.9583779e-08
-2.9306024e-07
1.0548127e-07
-2.4132828e-07
-1.170382e-07
-1.7819577e-07
-1.3726402e-07
-5.7838801e-08
-2.6522769e-07
1.1046839e-08
-1.3414235e-07
1.2632319e-07
-2.6055389e-07
1.4552007e-07
-3.836136e-08
1.5167541e-07
-1.8358148e-08
5.5890328e-08
2.2132953e-07
-3.0783886e-10
1.1221754e-07
-1.0322874e-07
2.1544759e-07
-1.8529072e-07
1.6603599e-07
-2.86691e-07
2.1660228e-07
-3.3851337e-07
8.8750525e-08
-3.8928519e-07
9.3806019e-08
-4.6677578e-07
1.8619467e-07
-4.7751567e-07
-1.3474592e-09
-4.7277407e-07
-3.0746603e-08
-4.7640172e-07
2.6914036e-08
-4.6001921e-07
-5.4162764e-09
-3.6145882e-07
-3.2188056e-07
-1.201552e-07
-7.5850236e-07
-2.5124336e-07
2.5415539e-07
-5.1048108e-07
7.5091028e-07
-1.608573e-06
2.7689345e-06
-5.7959828e-06
1.0490191e-05
-9.5796863e-06
9.4919565e-06
-3.5992379e-06
-1.4397458e-05
-4.6640159e-06
3.3625114e-06
7.8252686e-06
-3.1489258e-05
1.5073192e-06
1.5051786e-05
7.3231022e-06
-1.5165717e-05
3.661701e-06
8.7694122e-06
5.4617453e-06
-3.8856398e-06
3.2388028e-06
5.8849601e-06
2.8574879e-06
1.4768558e-06
2.8563544e-06
4.7795423e-08
2.4131139e-06
1.0252452e-06
2.5838609e-06
-3.7231619e-07
2.190405e-06
1.0412873e-06
1.8901706e-06
6.9520115e-07
4.7569696e-07
3.5285053e-06
4.4947997e-07
2.5993858e-07
-3.0989963e-06
9.9614865e-06
-6.1142089e-07
-5.5002394e-06
-3.5352903e-06
7.2879084e-06
-2.847413e-06
-1.8487947e-06
-6.2494174e-07
-6.7443307e-06
-8.5061829e-07
4.6899934e-07
-1.4835165e-06
1.7653734e-06
-1.0273076e-05
2.0627224e-05
-1.5848759e-05
1.3099106e-05
-1.5773073e-05
-1.192082e-07
-1.4175612e-05
-2.8479275e-06
-4.1792696e-06
-2.3380647e-05
-5.7235247e-06
3.1337116e-06
3.3332618e-06
-2.4542689e-05
1.1156722e-05
-2.0684471e-05
2.3545462e-05
-3.3116305e-05
3.7501847e-05
-3.5668002e-05
3.4451745e-05
9.8068773e-06
1.9568452e-05
4.2066373e-05
9.2093747e-06
3.108135e-05
1.436554e-06
2.0204821e-05
-2.2987879e-06
7.0713372e-06
-4.1920364e-06
2.7606728e-06
-4.9859049e-06
1.1397893e-06
-4.5905021e-06
-1.9392651e-06
-4.7982665e-06
-5.7508212e-07
-4.4565012e-06
-1.5894651e-06
-4.0249719e-06
-1.1867737e-06
-3.2570585e-06
-1.9854625e-06
-1.7101073e-06
-1.8760315e-06
-2.1527009e-06
-1.2795769e-06
-1.6875057e-06
-7.3811739e-07
-1.5377808e-06
-6.1679007e-07
-7.0347986e-07
-7.2016333e-07
-5.3679067e-08
-1.0984187e-06
6.8319296e-07
-1.3312298e-06
2.7723697e-07
-1.4743488e-06
6.0946751e-08
-1.3524696e-06
-4.1283957e-07
-1.4557523e-06
6.4793096e-08
-1.3570023e-06
-3.7285059e-07
-4.2127075e-07
-2.2694429e-06
2.9270529e-07
-1.3938621e-06
-1.0465447e-07
1.1718848e-06
-2.4552184e-07
-1.8948409e-07
-5.2084696e-07
5.7267933e-07
-8.8798884e-07
1.0049631e-06
-9.680566e-07
1.2680468e-07
-9.6684281e-07
3.84324e-09
-9.2149164e-07
-1.3280072e-07
-8.4907574e-07
-1.9628299e-07
-7.6342996e-07
-2.0107805e-07
-6.8500065e-07
-1.7336121e-07
-6.0631344e-07
-1.8528943e-07
-5.4026193e-07
-1.4969781e-07
-5.1158406e-07
-5.1451173e-08
-4.471273e-07
-1.7662038e-07
-4.3406257e-07
-3.8218975e-09
-3.9268758e-07
-1.0306756e-07
-3.9264835e-07
2.6254228e-08
-3.6741261e-07
-6.7560275e-08
-3.6873743e-07
1.0076286e-08
-3.697418e-07
6.7545137e-10
-3.7174336e-07
2.6073605e-08
-3.683267e-07
5.2568884e-09
-3.8027574e-07
-2.0254739e-08
-3.9913088e-07
1.6060552e-08
-3.8260506e-07
1.1368152e-07
-4.5026752e-07
4.8766254e-07
-1.5957514e-06
2.8709503e-06
-4.5405076e-07
-4.6080728e-06
-8.9540296e-07
2.2229908e-06
-6.1206512e-07
-5.0403279e-07
-4.3351088e-07
-6.5176305e-07
-5.8561236e-07
4.0250822e-07
-5.8388191e-07
1.4542509e-08
-5.6803634e-07
1.2301416e-08
-5.4508449e-07
-8.668834e-08
-5.6246416e-07
5.2666271e-08
-5.5430119e-07
-8.2608196e-09
-5.5059247e-07
-2.8452197e-09
-5.4274636e-07
-1.565822e-08
-5.1904008e-07
-4.9406992e-08
-4.8594848e-07
-7.0304596e-08
-4.4113266e-07
-9.8827101e-08
-3.8882431e-07
-1.146534e-07
-3.2956129e-07
-1.3403568e-07
-2.7525865e-07
-1.2350022e-07
-2.2994896e-07
-1.0334398e-07
-2.062976e-07
-5.5752125e-08
-2.0864702e-07
3.8927977e-09
-2.5938936e-07
1.0784433e-07
-3.9883337e-07
3.0885842e-07
-5.4720534e-07
3.2905019e-07
-6.7426329e-07
2.8074513e-07
-7.9883175e-07
2.7703097e-07
-9.1186223e-07
2.4859887e-07
-1.0179428e-06
2.3636125e-07
-1.1109406e-06
2.054614e-07
-1.1985884e-06
1.9284598e-07
-1.2769242e-06
1.6603708e-07
-1.3522474e-06
1.630426e-07
-1.419029e-06
1.4177982e-07
-1.4869555e-06
1.467188e-07
-1.5458323e-06
1.1829005e-07
-1.6058733e-06
1.295811e-07
-1.6565234e-06
1.0509491e-07
-1.7122046e-06
1.2031562e-07
-1.7596091e-06
8.7917221e-08
-1.8158742e-06
1.2272369e-07
-1.8605347e-06
9.5719663e-08
-1.9119614e-06
1.2313836e-07
-1.9512604e-06
8.1340551e-08
-2.0005466e-06
1.2182426e-07
-2.0369751e-06
9.1544357e-08
-2.0830404e-06
1.239438e-07
-2.1200692e-06
8.6884095e-08
-2.1594016e-06
9.6894377e-08
-2.1894643e-06
7.2834812e-08
-2.2181265e-06
6.9748964e-08
-2.2416486e-06
4.8080944e-08
-2.2658002e-06
4.5680486e-08
-2.2881882e-06
4.0412259e-08
-2.3142899e-06
5.3979598e-08
-2.3370949e-06
4.4387185e-08
-2.3690663e-06
7.7380373e-08
-2.3949479e-06
5.8638273e-08
-2.4356942e-06
1.0796583e-07
-2.4743474e-06
9.4973629e-08
-2.5243719e-06
1.2698057e-07
-2.5790935e-06
1.345408e-07
-2.6453477e-06
1.6386848e-07
-2.7171073e-06
1.8183539e-07
-2.7777853e-06
1.5211032e-07
-2.8295369e-06
1.4545392e-07
-2.8427223e-06
3.36219e-08
-2.8579144e-06
4.9929582e-08
-2.8528648e-06
-1.1339357e-08
-2.846557e-06
-1.4950614e-08
-2.8279578e-06
-5.3663032e-08
-2.8120882e-06
-3.9195464e-08
-2.7849235e-06
-7.4105235e-08
-2.7541565e-06
-8.4417392e-08
-2.7121507e-06
-1.224427e-07
-2.6680302e-06
-1.3152817e-07
-2.6186478e-06
-1.5165762e-07
-2.5774968e-06
-1.2531874e-07
-2.5424017e-06
-9.9400758e-08
-2.5219594e-06
-3.9976887e-08
-2.4975796e-06
-5.0892432e-08
-2.4786181e-06
-3.6771651e-08
-2.4576088e-06
-4.2370774e-08
-2.4452868e-06
-8.6000047e-09
-2.4258599e-06
-3.1296878e-08
-2.4098837e-06
-2.4388049e-08
-2.3893408e-06
-4.0737141e-08
-2.3793768e-06
-1.2970079e-09
-2.3627761e-06
-2.1139977e-08
-2.3460523e-06
-2.2070816e-08
-2.3213921e-06
-5.1201248e-08
-2.2977378e-06
-4.912693e-08
-2.2740123e-06
-4.6655354e-08
-2.2476356e-06
-5.0557481e-08
-2.2164183e-06
-6.9483836e-08
-2.1772786e-06
-1.0041731e-07
-2.1460325e-06
-7.2022042e-08
-2.1095045e-06
-7.9849743e-08
-2.0765993e-06
-6.5721959e-08
-2.0231557e-06
-1.3805712e-07
-1.9790196e-06
-1.0523439e-07
-1.9262933e-06
-1.269408e-07
-1.8776943e-06
-1.1189176e-07
-1.8173637e-06
-1.5609505e-07
-1.7608055e-06
-1.4691982e-07
-1.7164492e-06
-1.0767456e-07
-1.6822758e-06
-7.432671e-08
-1.6730089e-06
1.0796875e-08
-1.6618374e-06
2.5782645e-09
-1.6621168e-06
3.8055651e-08
-1.6502024e-06
-6.2692602e-09
-1.6466728e-06
2.0214781e-08
-1.6359353e-06
-3.2676999e-09
-1.6229021e-06
-8.1774612e-09
-1.5939744e-06
-6.2728968e-08
-1.5534005e-06
-1.033739e-07
-1.5064723e-06
-1.2217317e-07
-1.4540934e-06
-1.3374522e-07
-1.3918883e-06
-1.6637685e-07
-1.3171771e-06
-2.0970194e-07
-1.239096e-06
-2.1445411e-07
-1.1727024e-06
-1.7104348e-07
-1.1066944e-06
-1.8272658e-07
-1.0553889e-06
-1.4018632e-07
-1.016444e-06
-9.8793407e-08
-9.9163257e-07
-6.7580496e-08
-9.8103199e-07
-2.2186119e-08
-9.8295772e-07
3.5013631e-08
-9.7224373e-07
-5.5090056e-09
-9.7133878e-07
2.2868732e-08
-9.5876813e-07
-1.4274406e-08
-9.5927748e-07
4.7099511e-08
-9.5289332e-07
4.0592647e-08
-9.3299204e-07
1.8546027e-08
-9.1483883e-07
3.0841043e-08
-8.5731789e-07
-1.0772161e-07
-8.2086506e-07
-5.1316865e-08
-7.5315728e-07
-1.6135074e-07
-7.2007637e-07
-4.5642451e-08
-6.7733765e-07
-8.3594034e-08
-6.3051249e-07
-1.1162932e-07
-5.8810463e-07
-1.1213173e-07
-5.3343086e-07
-1.6086014e-07
-5.1591078e-07
-4.1044735e-08
-4.7645715e-07
-1.2368826e-07
-4.5260768e-07
-8.8509587e-08
-4.083044e-07
-1.6654671e-07
-3.8627026e-07
-9.225541e-08
-3.8228351e-07
-3.0513864e-08
-3.8357186e-07