/*--------------------------------*- C++ -*----------------------------------*\
| =========                 |                                                 |
| \\      /  F ield         | OpenFOAM: The Open Source CFD Toolbox           |
|  \\    /   O peration     | Version:  2.4.0                                 |
|   \\  /    A nd           | Web:      www.OpenFOAM.org                      |
|    \\/     M anipulation  |                                                 |
\*---------------------------------------------------------------------------*/
FoamFile
{
    version     2.0;
    format      ascii;
    class       volVectorField;
    location    "210";
    object      U;
}
// * * * * * * * * * * * * * * * * * * * * * * * * * * * * * * * * * * * * * //

dimensions      [0 1 -1 0 0 0 0];

internalField   nonuniform List<vector> 
78300
(
(-0.021795286 3.4146534e-05 1.5364088e-19)
(-0.021421566 -9.8556946e-06 -2.3220102e-19)
(-0.014758153 -6.1976706e-05 1.401876e-19)
(-0.013963008 -8.4521828e-05 -3.8812916e-18)
(-0.0098328886 -0.00018211214 -8.3473358e-19)
(-0.010721936 1.7127312e-05 1.6349901e-18)
(-0.0087150356 -8.6345593e-05 8.6460662e-19)
(-0.0089780856 0.0004781304 -3.6234838e-18)
(-0.0067702466 0.00042611671 -1.5235702e-18)
(-0.0059904044 0.00076016347 2.2719619e-18)
(-0.0052687189 0.0012661832 1.5705286e-18)
(-0.0033908225 0.0011900618 -5.3570158e-18)
(-0.00070054515 -0.00036458186 9.5518869e-19)
(-0.0017467515 -0.00091911497 -5.2534333e-18)
(-0.0020568904 -0.0003316687 3.4387201e-18)
(-0.0010758091 0.00064834679 -6.0016201e-18)
(-0.0021230372 0.0011825274 -2.0841511e-18)
(-0.0029849207 0.0014080785 1.0782619e-18)
(-0.002750117 0.0013998751 -4.1494226e-18)
(-0.0025584016 0.0013528562 3.3872507e-18)
(-0.0022365968 0.001336574 4.7787996e-18)
(-0.0019125651 0.0012306791 -4.7567924e-18)
(-0.0016824193 0.0010684178 -1.9699754e-18)
(-0.0014920561 0.00092998627 1.0484789e-18)
(-0.0013077438 0.00081838325 2.8278544e-18)
(-0.0012250357 0.00073077584 7.5696139e-19)
(-0.0010863598 0.00065964157 1.030274e-18)
(-0.00098067572 0.00061418661 -3.6100609e-18)
(-0.00096303299 0.00054654073 -2.9019167e-18)
(-0.00094922467 0.00050170132 -1.8795165e-18)
(-0.00095180796 0.00044542936 1.8112047e-18)
(-0.00090259072 0.00042065562 3.5336313e-18)
(-0.00092448838 0.00042122416 1.2344419e-18)
(-0.00098087574 0.00041740923 1.5672117e-18)
(-0.0010171563 0.00035250536 -1.6074268e-18)
(-0.00090580348 0.00034098122 1.0451192e-18)
(-0.00088715222 0.00052528174 -1.779673e-18)
(-0.0012810175 0.00057934855 -6.561329e-20)
(-0.0023159467 0.00019034478 -3.5317313e-18)
(-0.0034623178 -0.00026063314 5.7561358e-19)
(-0.00018327307 -0.00016858418 -1.3601641e-20)
(0.0022485808 0.0012327018 6.8347306e-19)
(-0.00099773445 0.00030425885 1.0592988e-18)
(-0.00059708963 0.00019485575 1.0901215e-18)
(-0.00038587614 0.0005802736 -1.8820748e-18)
(-0.00072797194 0.00063073323 -2.1088472e-18)
(-0.00076147623 0.00051057437 7.4074149e-19)
(-0.00076973253 0.00044721823 1.9909712e-18)
(-0.00076750933 0.0004693265 -1.9442302e-18)
(-0.00080293817 0.00042055735 1.5445301e-18)
(-0.00082341169 0.00037687729 3.3599026e-18)
(-0.00084125049 0.00034406409 -4.372279e-19)
(-0.0008302926 0.00030335926 6.1216113e-19)
(-0.00079488242 0.00025481229 2.357139e-18)
(-0.00075424262 0.00021074874 7.7753042e-19)
(-0.00067824998 0.00016198487 -6.9880463e-19)
(-0.00059932366 0.00012064916 -5.5650682e-19)
(-0.00049223478 8.20777e-05 -1.293802e-18)
(-0.00041675873 5.6608593e-05 -2.3453316e-20)
(-0.00033392609 3.4779432e-05 1.3483355e-18)
(-0.0003302839 2.6362008e-05 -3.1809113e-19)
(-0.00032087391 1.6191062e-05 -4.6229859e-20)
(-0.0004685953 9.1293164e-06 -5.1991838e-20)
(-0.00073208816 5.0694882e-06 6.5927463e-24)
(-0.00091443465 5.084528e-06 -1.7123313e-23)
(-0.0011161534 5.8742712e-06 -5.1915997e-23)
(-0.0012863086 5.2976039e-06 5.4574812e-23)
(-0.0014576281 5.8678046e-06 -5.0986482e-23)
(-0.0016022884 5.8360053e-06 3.2439439e-23)
(-0.0017344364 5.7571258e-06 -4.0095317e-23)
(-0.0018382681 3.269463e-06 2.5572232e-23)
(-0.0019324601 1.9929339e-06 5.2050011e-23)
(-0.002013177 1.8491528e-08 -6.9710297e-23)
(-0.0020904267 -6.1792715e-07 -2.7563226e-16)
(-0.0021519866 -4.6436369e-06 -2.7581856e-16)
(-0.0022092285 -5.1655982e-06 1.3547446e-22)
(-0.002265709 -7.3337642e-06 -5.1010543e-23)
(-0.0023184044 -6.817281e-06 -4.7253268e-23)
(-0.0023528556 -1.2388556e-05 5.5048543e-23)
(-0.0023943834 -1.2007154e-05 -4.4628886e-23)
(-0.0024566876 -1.3694994e-05 2.6974573e-23)
(-0.0025347297 -9.2604442e-06 -7.5596888e-23)
(-0.0026100314 -1.206361e-05 3.9566268e-23)
(-0.0026964382 -7.3752804e-06 6.2046452e-23)
(-0.0028094258 -5.8895501e-06 -6.3069965e-23)
(-0.0029323981 1.311957e-06 8.3721155e-24)
(-0.0030545208 1.7179696e-06 -4.7413116e-23)
(-0.0031474711 4.5039484e-06 6.3703402e-23)
(-0.0032322947 5.3589965e-06 3.8098188e-23)
(-0.0032993353 6.9247644e-06 -5.9775116e-23)
(-0.0033413505 6.0549054e-06 4.1549303e-23)
(-0.0033530233 4.0567334e-06 -3.2540275e-23)
(-0.0033525739 1.9827507e-06 1.5086782e-23)
(-0.003357692 1.1680713e-06 1.6703772e-24)
(-0.0033738158 -8.1409364e-07 -2.2355407e-24)
(-0.0034130339 1.3764784e-06 -1.8916934e-23)
(-0.0034727202 2.072865e-07 1.6625777e-24)
(-0.0035599242 4.5913507e-06 -2.2939147e-23)
(-0.0036729659 4.9513553e-06 1.8536722e-24)
(-0.0037955685 8.3111077e-06 4.0866321e-23)
(-0.0039307536 1.0092557e-05 -1.8544489e-23)
(-0.0040904841 1.1702453e-05 1.5718576e-24)
(-0.0042807697 1.5762977e-05 -2.0558958e-23)
(-0.0044753038 1.6499568e-05 2.4370028e-24)
(-0.0046663996 2.3310645e-05 3.3923211e-23)
(-0.0047844372 2.0299232e-05 -2.0020046e-25)
(-0.004855281 2.389054e-05 -3.1221387e-24)
(-0.0048879083 1.9751918e-05 -1.2478627e-23)
(-0.0048790099 2.0793641e-05 7.2855228e-25)
(-0.0048310534 1.5368258e-05 8.7705464e-24)
(-0.0047700016 1.7044281e-05 -1.5524616e-23)
(-0.0046965008 1.1686291e-05 1.3434375e-23)
(-0.0045875129 1.0918764e-05 -1.0939459e-23)
(-0.0044343658 4.9832168e-06 1.9562953e-24)
(-0.0042309401 3.4519891e-06 -5.7438832e-25)
(-0.003999158 -2.7074576e-06 2.8026059e-24)
(-0.0037629179 -4.921196e-06 -1.5154984e-24)
(-0.0035921137 -6.7189634e-06 -4.4695299e-25)
(-0.0035101141 -4.9031654e-06 3.0882577e-25)
(-0.0034888512 -3.9849407e-06 3.5942097e-25)
(-0.0034737679 -3.0360141e-06 -8.098699e-17)
(-0.0034670124 -2.4514674e-06 -8.7431205e-17)
(-0.003490537 -6.6984827e-07 -5.2502168e-24)
(-0.0035272127 -1.4464561e-07 4.3684992e-25)
(-0.003548967 1.0991994e-06 5.08074e-25)
(-0.0035575685 4.0428577e-07 3.5835917e-25)
(-0.0035909502 2.7958298e-06 3.4059889e-26)
(-0.0036442615 2.1217555e-06 1.0248346e-24)
(-0.0036865048 3.1520517e-06 3.210154e-25)
(-0.0036913669 1.2516669e-06 -1.4242429e-24)
(-0.0036728661 2.3952363e-06 -3.1462562e-26)
(-0.0036566256 9.7191608e-07 -4.5109478e-25)
(-0.0036489943 1.2565774e-06 7.7954053e-25)
(-0.0036150307 -5.3067244e-07 -9.429646e-26)
(-0.0035357015 -3.7094082e-07 -1.4743962e-26)
(-0.0034500095 -8.5658149e-07 -1.0759632e-26)
(-0.003397035 -1.2944485e-06 7.4732793e-27)
(-0.0033544625 -1.1809256e-06 4.0801667e-26)
(-0.0032635203 -2.5657089e-06 1.7946747e-26)
(-0.0031379689 -1.8742728e-06 -2.3402562e-25)
(-0.0030241071 -2.4702182e-06 5.6076688e-25)
(-0.0029161485 -1.9537227e-06 -9.280406e-25)
(-0.0027710536 -2.3223916e-06 -3.1195518e-27)
(-0.0025966099 -1.5304829e-06 5.4061889e-25)
(-0.0024470194 -1.2164296e-07 -1.1661147e-25)
(-0.0023762797 1.1392001e-06 2.472745e-25)
(-0.0024094699 2.9053187e-06 -9.7185996e-26)
(-0.0025170212 6.7482826e-07 -3.3170267e-27)
(-0.0026483709 3.9943355e-08 -1.2090978e-25)
(-0.002759358 -4.6244569e-06 -2.2894198e-25)
(-0.0028549143 -3.61125e-06 -3.7413241e-25)
(-0.0029447322 -9.0105195e-06 1.0183014e-24)
(-0.0030168604 -9.8304939e-06 1.1550697e-24)
(-0.0030268622 -1.5627218e-05 2.5145857e-24)
(-0.0029504843 -1.2913329e-05 -2.9426804e-25)
(-0.0028199582 -1.5601703e-05 -2.7530395e-24)
(-0.0026655176 -1.3352321e-05 -8.4874121e-24)
(-0.0024783073 -1.4424738e-05 1.7563764e-16)
(-0.0022178573 -9.083343e-06 8.7381586e-20)
(-0.001931373 -5.722662e-06 -1.8991476e-16)
(-0.0016715794 -9.6610806e-07 -1.3892674e-23)
(-0.0014397734 2.077824e-06 2.5984493e-24)
(-0.0012286122 7.7772253e-06 -2.1554326e-23)
(-0.0010733916 1.1054275e-05 2.0414948e-23)
(-0.00095718292 1.3381878e-05 3.9877109e-25)
(-0.00092790829 1.6766379e-05 -1.395448e-23)
(-0.00097838486 1.6777656e-05 6.65936e-24)
(-0.0010667444 1.3890092e-05 -5.4787153e-24)
(-0.0011523359 1.3154317e-05 7.1727624e-24)
(-0.0012235104 9.1029986e-06 -1.86363e-24)
(-0.0013550938 7.8177616e-06 -2.6911163e-24)
(-0.0015523199 -1.6259945e-06 7.9089873e-25)
(-0.0018077904 -7.6282121e-06 4.2439964e-24)
(-0.0020403478 -2.2097543e-05 -5.6421117e-24)
(-0.0021987827 -3.2652125e-05 7.2546674e-24)
(-0.0022250421 -3.9851426e-05 -9.6560946e-24)
(-0.0022057974 -4.4627592e-05 5.9500088e-24)
(-0.0021647056 -4.7897722e-05 9.7242275e-24)
(-0.002188628 -5.2699496e-05 1.9847233e-23)
(-0.0021327375 -5.9226138e-05 -1.9031895e-23)
(-0.0020087527 -5.605422e-05 -1.6691924e-23)
(-0.0018234611 -5.6914984e-05 2.5068127e-23)
(-0.0016719487 -4.9312748e-05 -5.6900482e-23)
(-0.0015475318 -5.2376954e-05 5.553814e-23)
(-0.0013342045 -4.2187076e-05 -3.500528e-23)
(-0.0010705215 -3.5203795e-05 3.1661636e-23)
(-0.00077124163 -1.9308567e-05 -3.7486377e-23)
(-0.00061467298 -1.0810595e-05 -2.5750594e-23)
(-0.00051620931 -5.5092211e-06 2.0708335e-23)
(-0.00050039913 -1.5560836e-06 -2.5209161e-23)
(-0.0005232908 1.630781e-07 6.5657467e-23)
(-0.00065117011 -4.7281357e-06 -3.9432988e-23)
(-0.00075555544 -1.4880023e-05 3.4546484e-23)
(-0.00077127034 -1.6014037e-05 -5.9818155e-23)
(-0.00062143936 -1.4519827e-05 5.5928393e-24)
(-0.0004951922 -8.3467068e-07 2.0929111e-23)
(-0.00062876652 -1.1698198e-05 2.3148273e-23)
(-0.00083544683 -2.3137684e-05 -8.9566381e-23)
(-0.00087189381 -2.8755693e-05 5.2815125e-16)
(-0.0005853609 -1.7100581e-05 5.3654236e-16)
(-0.00016318163 -3.7872075e-06 -2.7722864e-23)
(0.00026706451 1.9513289e-05 -3.9931099e-23)
(0.00067131518 2.8181661e-05 3.2697664e-23)
(0.0010134042 5.7453406e-05 3.8806794e-24)
(0.0010577472 5.280802e-05 -1.1602718e-23)
(0.00084424544 5.6788762e-05 -4.3003112e-16)
(0.00045780397 3.1610496e-05 -4.1358513e-16)
(0.00017378102 2.3828584e-05 -7.1278899e-20)
(-0.0002447969 -1.1799771e-05 7.2524399e-19)
(-0.00056879152 -4.5735259e-05 3.2666093e-19)
(-0.00087580751 -9.1278113e-05 -2.1495126e-18)
(-0.00097485131 -0.00013497631 -3.6241016e-19)
(-0.0013217081 -0.00018854199 -2.4617721e-18)
(-0.001382611 -0.00021252839 1.7186141e-19)
(-0.0014227788 -0.00028965366 -2.7652749e-20)
(-0.0013060289 -0.00029258553 9.9909726e-19)
(-0.0015057091 -0.00031686929 -8.0867086e-19)
(-0.00069653871 -0.00024790015 2.747622e-18)
(0.00082177463 -0.00057100044 -1.794465e-18)
(0.0018725879 -0.00080593288 -3.7198433e-19)
(0.00020208548 -0.0010522033 -4.723088e-19)
(-0.0042227224 -0.00059550215 2.4011354e-18)
(-0.023054367 -0.00073352532 1.0446845e-18)
(-0.050629386 -0.0016502958 -1.4848915e-17)
(-0.045652025 -0.0020109112 -3.7182232e-17)
(-0.032279743 0.00093950142 -7.3813708e-18)
(0.0073704902 0.00024789758 4.6547905e-18)
(0.029033717 7.0890848e-05 -4.6041686e-17)
(0.034591007 -0.0028575787 -2.7783473e-18)
(0.042690606 -0.003768241 -3.1957268e-18)
(0.037694369 -0.0043414754 -2.6606768e-18)
(0.033608674 -0.00073779729 -2.9534669e-18)
(0.022576728 0.00069091772 -2.6732031e-17)
(0.019325556 0.0012536723 -2.4948888e-17)
(0.017442481 0.00070564791 1.1462603e-17)
(0.016847314 0.00071575286 6.6292792e-18)
(0.016090045 0.0012571255 7.1163968e-18)
(0.013605239 0.0011156769 -1.6188309e-17)
(0.0071937717 0.0013120175 -6.2315514e-17)
(0.0016504852 0.0025707581 6.8723122e-17)
(-0.016368371 0.0077140774 -1.8418483e-17)
(-0.02547201 0.0099470261 -1.3399394e-18)
(-0.0319318 0.011738752 -8.2582948e-18)
(-0.040090182 0.010203872 -4.8226416e-19)
(-0.025236904 0.0055552536 -1.7004952e-18)
(-0.016454094 0.00034011087 1.2289997e-17)
(-0.016768225 0.0040202135 -1.9956008e-18)
(-0.053789428 0.0032800334 -4.953408e-17)
(-0.10917895 -0.0021767658 -2.3658601e-18)
(-0.13091197 -0.0045510332 -1.1654984e-16)
(-0.13163141 -0.004124327 1.6753683e-16)
(-0.087796982 0.0053392669 2.0099072e-17)
(-0.052482056 0.0095703242 3.820116e-17)
(-0.013633729 -0.0042164995 -1.2151261e-16)
(0.066582847 -0.023491225 9.3068675e-17)
(0.17658758 -0.033074516 8.6915498e-17)
(0.30782977 -0.040511695 -1.1400811e-16)
(0.35787104 -0.039913654 1.188653e-16)
(0.25839145 -0.0056907121 -1.0440662e-16)
(0.10823793 0.020402379 -2.8969264e-16)
(-0.0050362935 0.026304441 -2.4824465e-16)
(-0.063629318 0.01561317 -3.2587043e-17)
(-0.076934313 0.0071488829 3.7228235e-17)
(-0.076418613 0.0042135914 -3.5802125e-17)
(-0.068830165 0.0025124693 -1.8306396e-17)
(-0.060657338 0.00097477392 -3.1601688e-18)
(-0.050852878 0.00034774699 -4.259408e-18)
(-0.044638545 0.00021264964 -2.1772511e-18)
(-0.035037025 0.00012892175 -1.2062446e-18)
(-0.031219394 6.7838097e-05 -1.6909892e-19)
(-0.030847962 -9.999882e-05 1.6968896e-19)
(-0.03343431 -0.00014069588 6.7088367e-19)
(-0.018057 -0.00022601061 -5.1752736e-19)
(-0.020158009 -0.00027444942 4.576573e-18)
(-0.01218822 -0.00062969648 5.0423203e-20)
(-0.017368768 1.469878e-05 6.0423525e-18)
(-0.013665913 -0.00013886326 -2.2828645e-18)
(-0.017194479 0.0015314403 5.1594009e-18)
(-0.01282152 0.0013788342 4.6166635e-18)
(-0.012252011 0.0024105045 -5.3803993e-18)
(-0.011981452 0.0039296514 -1.8925837e-18)
(-0.0083591504 0.003661267 8.0364911e-19)
(-0.00038459631 -0.0012327993 2.1578303e-17)
(-0.0009448123 -0.0030511189 3.9611904e-18)
(-0.0027978249 -0.00073854239 -9.3889683e-18)
(-0.0029791397 0.0019985558 5.3511751e-18)
(-0.0054972953 0.0033215639 -3.3798534e-18)
(-0.0071849767 0.0041938236 -1.453847e-18)
(-0.0067328633 0.0041904775 -4.3270313e-18)
(-0.006305958 0.0040755738 1.4088735e-18)
(-0.0057361153 0.0040226963 -2.2097118e-18)
(-0.0050414766 0.0036965459 2.3133083e-18)
(-0.0044238081 0.0032076389 3.1824852e-18)
(-0.0039105848 0.0027949941 8.3650621e-18)
(-0.0034484512 0.0024493975 -2.5632985e-18)
(-0.0031781641 0.00216864 -3.9810884e-18)
(-0.0028534572 0.0019799086 -5.8524521e-18)
(-0.0026129083 0.00181085 3.0523795e-18)
(-0.0024769651 0.0016238771 1.2790378e-18)
(-0.002377793 0.0014731761 6.2385101e-18)
(-0.0022900472 0.0013323159 -9.1415027e-18)
(-0.0021715317 0.0012520398 -5.2208282e-18)
(-0.0022098632 0.0012551673 -8.9640117e-19)
(-0.0022896692 0.0012372263 -1.6788622e-18)
(-0.0022266941 0.0010528898 -4.5908607e-20)
(-0.0020417081 0.0010292299 5.0122869e-18)
(-0.0023602177 0.0015295542 4.2273554e-18)
(-0.0030412482 0.0015853442 2.0632477e-19)
(-0.0038397747 0.00042469511 3.4879294e-18)
(-0.0046542232 -0.00076656055 2.8617179e-19)
(-0.00074754499 0.002872818 -2.764889e-23)
(0.00086969914 0.0041541484 3.9070644e-18)
(-0.0022468038 0.0011956948 6.796463e-19)
(-0.0014685681 0.00096534146 4.3871782e-19)
(-0.0019175181 0.0018159019 -9.9293659e-19)
(-0.0025920611 0.0019401325 5.4168788e-18)
(-0.0024074682 0.0015530353 -1.6558317e-18)
(-0.0023496511 0.0013959396 1.167143e-18)
(-0.0024566278 0.0014233822 1.2006684e-19)
(-0.0024559228 0.0012752106 1.008017e-18)
(-0.002443007 0.0011443572 -6.7754477e-19)
(-0.0024581203 0.0010468049 3.4814934e-18)
(-0.002397223 0.00092272419 2.4060369e-19)
(-0.0022583946 0.00077361453 -7.6663083e-19)
(-0.0021145543 0.00063918538 2.1123551e-19)
(-0.0018734506 0.00049053851 -2.155901e-18)
(-0.0016362978 0.00036518755 2.1509851e-18)
(-0.0013347447 0.00024836534 -1.7213921e-18)
(-0.0011289006 0.00017092573 5.0866518e-19)
(-0.00090223786 0.00010560928 -4.5688316e-20)
(-0.00090305927 7.7578543e-05 -1.1637664e-19)
(-0.0008893607 4.8616013e-05 -1.0132011e-18)
(-0.0013435897 2.8414227e-05 7.9890343e-20)
(-0.0021268748 1.5197973e-05 -1.4376634e-22)
(-0.0026695674 1.4733657e-05 -5.2281957e-26)
(-0.0032665572 1.4830127e-05 -2.7147516e-23)
(-0.003776242 1.438363e-05 8.9990525e-23)
(-0.004288347 1.3986008e-05 -5.3726147e-23)
(-0.0047167246 1.3566388e-05 1.7613146e-23)
(-0.0051190337 1.2658662e-05 1.7261105e-23)
(-0.0054663187 1.0199763e-05 1.7027748e-23)
(-0.0057954211 7.499081e-06 -6.0773437e-23)
(-0.0060792863 4.8817089e-06 2.6210343e-23)
(-0.0063537426 2.3874924e-06 1.7201877e-23)
(-0.0066067447 -1.4564881e-06 1.7464527e-23)
(-0.0068450926 -4.9120272e-06 -1.0452234e-22)
(-0.0070588856 -7.350997e-06 7.0493787e-23)
(-0.0072600221 -9.6123544e-06 -3.6097795e-23)
(-0.0074494326 -1.3673226e-05 1.7927927e-23)
(-0.0076569824 -1.7229716e-05 -5.6190017e-23)
(-0.0078680703 -1.81468e-05 1.7773128e-23)
(-0.0080790663 -1.7168186e-05 1.8794205e-23)
(-0.0082927059 -1.6489604e-05 1.9729403e-23)
(-0.008526343 -1.5171883e-05 2.0608077e-23)
(-0.008769514 -1.0866657e-05 2.1236759e-23)
(-0.0090020531 -5.2035542e-06 2.1382285e-23)
(-0.009258344 -1.2685195e-06 -6.3070181e-23)
(-0.0094788771 7.7154608e-07 -1.0304527e-23)
(-0.0096696894 2.8439545e-06 -7.3580843e-23)
(-0.0098193096 4.5502632e-06 1.1525789e-22)
(-0.0099364697 4.1164294e-06 -7.2623974e-23)
(-0.010022008 2.1433054e-06 2.0707098e-23)
(-0.010093357 -6.6838138e-07 6.1518874e-23)
(-0.010166007 -2.3251423e-06 2.0455477e-23)
(-0.010258419 -3.7294698e-06 -2.5559608e-23)
(-0.010378279 -3.3713384e-06 -1.4949172e-23)
(-0.010528086 -2.2166896e-06 -3.6693191e-23)
(-0.010715587 7.9572555e-07 -2.5832504e-23)
(-0.01094899 3.9330426e-06 7.7486418e-23)
(-0.011217277 7.0277017e-06 -2.5793515e-23)
(-0.011506713 1.032267e-05 -1.464687e-23)
(-0.011863089 1.4699195e-05 -3.398888e-23)
(-0.01226939 1.9000363e-05 7.1099618e-23)
(-0.012677716 2.3518312e-05 -3.2760948e-23)
(-0.013044739 2.7136543e-05 -1.1867767e-23)
(-0.013252169 2.780593e-05 -1.7654239e-23)
(-0.013383284 2.8394137e-05 4.663052e-23)
(-0.013418521 2.8771865e-05 -1.0598604e-23)
(-0.013398874 2.6329747e-05 -2.9212942e-24)
(-0.013313699 2.449759e-05 -2.0927612e-23)
(-0.013200788 2.1167734e-05 1.7523483e-23)
(-0.013056058 1.937513e-05 -4.4991476e-24)
(-0.012854585 1.4941591e-05 1.0740085e-24)
(-0.012584654 1.0684758e-05 9.8915814e-24)
(-0.012236892 3.9183547e-06 -2.5022407e-24)
(-0.011858123 -1.3755034e-06 -1.8648822e-24)
(-0.011470351 -5.9474774e-06 -9.4322852e-25)
(-0.011194363 -7.9830934e-06 -2.7396042e-24)
(-0.011021 -6.4204312e-06 -4.704936e-25)
(-0.010924911 -6.2647077e-06 1.6505312e-24)
(-0.010847353 -5.3576409e-06 -1.1642411e-24)
(-0.010791701 -4.9438144e-06 1.6072526e-24)
(-0.010771406 -2.297175e-06 -7.4840111e-25)
(-0.010758388 -1.7207889e-06 1.1523935e-24)
(-0.010732193 -1.1109771e-06 -2.5145412e-24)
(-0.010696348 -8.6912876e-07 4.6104993e-24)
(-0.010694703 9.2369106e-07 8.4078577e-25)
(-0.010707796 1.6482581e-06 -1.8021204e-24)
(-0.010709739 1.6477607e-06 -2.805125e-24)
(-0.010650658 1.2049488e-06 5.1699881e-25)
(-0.010569963 1.6241071e-07 7.427116e-25)
(-0.010487172 9.2972835e-07 9.6572838e-25)
(-0.010409354 5.0515029e-07 -7.867509e-25)
(-0.010277786 -1.2336771e-07 1.6229321e-25)
(-0.010098907 -2.7723713e-06 9.184821e-27)
(-0.0099133372 -1.445656e-06 2.1718777e-26)
(-0.0097637609 -1.432268e-06 -1.6483458e-26)
(-0.009603524 -1.2559215e-06 3.3981711e-26)
(-0.0093831491 -4.635209e-06 -1.5314543e-25)
(-0.0091200334 -3.1271731e-06 -9.5095316e-26)
(-0.0088534709 -3.2846918e-06 -2.8872719e-25)
(-0.0085895426 -2.5695608e-06 7.4707648e-25)
(-0.0082662371 -4.1238629e-06 7.1968694e-25)
(-0.0079262398 -2.5454174e-06 -1.9461182e-25)
(-0.0076103261 1.2084152e-07 -1.5011964e-24)
(-0.0074353571 1.7842537e-06 -4.7218538e-25)
(-0.0074057879 3.7635482e-06 9.7272944e-25)
(-0.0074916149 1.3314817e-06 1.2958498e-24)
(-0.007623763 -8.0234223e-07 -2.6153097e-24)
(-0.007724172 -4.7318385e-06 3.9552316e-25)
(-0.0078164285 -8.2011357e-06 -5.7831273e-25)
(-0.0078908893 -1.065183e-05 3.3119475e-24)
(-0.0079421953 -1.4600744e-05 -3.244125e-24)
(-0.0078855098 -1.7052935e-05 1.8659544e-24)
(-0.0077086377 -2.0995862e-05 3.7870705e-24)
(-0.007449188 -1.8206635e-05 9.8304648e-24)
(-0.0071352811 -1.7136181e-05 -2.4235782e-23)
(-0.006765462 -1.407152e-05 1.0237574e-23)
(-0.0062839237 -1.2102211e-05 -4.2265998e-25)
(-0.0057731333 -4.2487685e-06 -1.6930247e-23)
(-0.0052583497 3.0205228e-06 -9.025183e-27)
(-0.004809876 7.4828205e-06 2.8753649e-23)
(-0.0044342599 1.4844897e-05 8.6434205e-24)
(-0.0041263858 2.1068769e-05 -1.5728692e-23)
(-0.0038848472 2.4419779e-05 1.986723e-23)
(-0.0038547834 2.8082046e-05 1.7055606e-24)
(-0.0038912856 2.9348256e-05 -1.1216558e-23)
(-0.0039636024 2.2944582e-05 1.7042008e-23)
(-0.0040489611 1.8803914e-05 -1.1191371e-23)
(-0.0041113069 1.4205101e-05 1.4086525e-24)
(-0.0042647376 1.004587e-05 1.4895299e-24)
(-0.0044439024 -8.0073864e-07 -7.7809116e-24)
(-0.0047161179 -1.8434097e-05 9.1373864e-24)
(-0.0048527689 -3.5106064e-05 3.5448924e-24)
(-0.0049362407 -5.5763101e-05 -7.8497895e-24)
(-0.004802693 -6.1588785e-05 -1.3201569e-23)
(-0.0046558107 -7.1068499e-05 -3.3316138e-23)
(-0.0044541588 -6.9771196e-05 5.5438956e-23)
(-0.0043562805 -8.0565404e-05 5.3861219e-23)
(-0.004167695 -8.2610824e-05 -1.2197109e-22)
(-0.0038963497 -8.3026808e-05 1.3857568e-22)
(-0.0035716587 -7.54127e-05 -4.0319819e-23)
(-0.0032900499 -6.7253143e-05 -7.688826e-23)
(-0.0030785627 -6.2629549e-05 -7.2399296e-23)
(-0.0027431853 -5.2501995e-05 -8.0737257e-24)
(-0.0023877433 -3.6499013e-05 1.6670203e-22)
(-0.0019633396 -1.4913147e-05 -1.2649185e-22)
(-0.0017759354 7.4216294e-07 7.9830778e-23)
(-0.0016536873 9.3576985e-06 -1.2585153e-22)
(-0.0016874065 1.5186972e-05 1.3993542e-22)
(-0.0017352402 1.36786e-05 -7.5677839e-23)
(-0.0018833875 7.1150069e-06 4.5129063e-23)
(-0.0019806523 -8.8562072e-06 1.5093912e-23)
(-0.001941718 -1.1363774e-05 -7.7599678e-23)
(-0.0017068483 -1.0682114e-05 8.0717627e-23)
(-0.0015229622 8.9496021e-06 -1.1285203e-24)
(-0.0017149396 7.321701e-07 3.1212975e-23)
(-0.001981551 -1.3436453e-05 -1.4744531e-22)
(-0.0020176594 -3.13401e-05 9.9719901e-23)
(-0.0014907743 -1.4930918e-05 3.2583458e-23)
(-0.00072512038 6.9110248e-06 -1.5127225e-22)
(0.00014911087 3.3830075e-05 1.4847419e-22)
(0.00092232528 5.3119063e-05 9.5515779e-23)
(0.001553973 8.1150128e-05 -1.402905e-22)
(0.0016118608 9.1990887e-05 1.0079527e-22)
(0.0012600268 8.3409233e-05 -1.3617911e-22)
(0.0005208289 5.6708736e-05 -1.3199914e-22)
(-3.2632004e-05 3.4209191e-05 1.8755051e-19)
(-0.00093866427 -3.9613318e-05 8.0056417e-20)
(-0.0015341958 -0.00012431953 3.8432028e-20)
(-0.0022312133 -0.00026363473 2.5881691e-18)
(-0.0025230937 -0.0003832813 1.3093485e-18)
(-0.0032041632 -0.00054703442 6.1133808e-18)
(-0.0032031171 -0.00061058326 5.6414137e-18)
(-0.0035811741 -0.00088984244 -1.5112357e-18)
(-0.0032489256 -0.00087163202 -1.9121359e-18)
(-0.0035241097 -0.00096932519 4.3481938e-19)
(-0.0019678885 -0.00077787955 -1.4659944e-18)
(-0.00072713652 -0.0017293844 1.1263685e-18)
(0.00022392093 -0.0023130628 -9.5720661e-19)
(-0.0026782335 -0.0028717642 -2.9127019e-19)
(-0.0079599912 -0.0016471449 -1.9216375e-18)
(-0.03649098 -0.0020353379 9.0116313e-18)
(-0.078686708 -0.0023373635 1.2363728e-17)
(-0.070835981 -0.0039959191 1.8257323e-18)
(-0.045920949 0.0039682984 -2.4054866e-17)
(0.013342041 0.0033401826 -3.6870834e-17)
(0.042276347 -0.0011219719 5.5645012e-17)
(0.046977202 -0.0055877372 -9.0272167e-17)
(0.055945691 -0.013050497 8.5933967e-18)
(0.048611121 -0.010492261 -4.3628897e-19)
(0.048658716 -0.0039332688 -6.472109e-18)
(0.035136039 0.0012331499 2.4650631e-17)
(0.031485986 0.00301187 9.0169618e-18)
(0.027715533 0.0015378702 2.5070094e-17)
(0.026999298 0.0015921931 -1.8623912e-17)
(0.026891319 0.0029119538 4.6713937e-17)
(0.023153606 0.002768408 2.8482263e-17)
(0.013621976 0.0030113529 5.5913399e-17)
(0.0073714214 0.0061273483 -2.8388359e-18)
(-0.011871583 0.017756194 -6.807029e-17)
(-0.021409007 0.028226951 1.8417633e-17)
(-0.028950115 0.030584422 -1.449984e-17)
(-0.044006326 0.029672847 8.9465104e-19)
(-0.02831139 0.017078815 -3.3803987e-17)
(-0.024044511 0.0016616888 8.9910391e-18)
(-0.020103256 0.013802679 7.3861106e-18)
(-0.08078466 0.010532147 8.8237732e-17)
(-0.17550922 -0.0047170071 -3.071009e-17)
(-0.21289718 -0.010677538 5.7217475e-17)
(-0.21389127 -0.0093761515 -1.4761135e-17)
(-0.12960139 0.015847178 -7.7318099e-17)
(-0.0683958 0.026989688 -2.6758438e-16)
(-0.027590556 -0.0086573297 5.1294484e-17)
(0.066718794 -0.055534523 -8.4315301e-17)
(0.22447253 -0.074180576 1.3627416e-16)
(0.41768639 -0.10256169 3.925597e-17)
(0.49498664 -0.088459319 -1.4487808e-16)
(0.39623365 -0.015274683 2.6773223e-16)
(0.21718634 0.051399853 7.7695544e-17)
(0.062044104 0.064635536 3.0042861e-16)
(-0.048161163 0.037885373 -1.0317894e-16)
(-0.090965031 0.016967585 7.8449087e-17)
(-0.098212637 0.0092547122 -2.810364e-17)
(-0.090127257 0.0050391572 -6.7936055e-17)
(-0.0868468 0.0015697094 -1.4041347e-17)
(-0.076393336 0.00037445632 1.2007493e-18)
(-0.071342385 1.0971582e-05 3.4702222e-18)
(-0.052876868 -0.00014490713 6.3273725e-19)
(-0.0512156 -0.00010845414 6.1616827e-19)
(-0.027742868 -0.00011601378 1.5898243e-19)
(-0.034439512 -0.00017254694 -2.2994817e-19)
(-0.012117254 -0.00032224286 -5.545069e-20)
(-0.01851936 -0.00038983478 -2.3053503e-18)
(-0.0083665763 -0.00094775605 5.1269137e-18)
(-0.018628523 8.3742979e-05 -4.0326096e-18)
(-0.014207163 -0.00021414692 2.267147e-18)
(-0.021997829 0.002546488 -1.0958811e-17)
(-0.016374272 0.0023505035 6.3726577e-18)
(-0.016661209 0.0040858743 2.2616841e-19)
(-0.017489624 0.0065434775 2.6540343e-18)
(-0.012836496 0.006050097 -4.3871857e-18)
(0.00056763169 -0.0019556041 -2.1444955e-17)
(0.0015834626 -0.0048604513 7.7101901e-18)
(-0.0025780878 -0.0011733982 1.0071525e-17)
(-0.0048803745 0.0034586308 -1.4300926e-18)
(-0.0084255959 0.0057604004 1.401333e-18)
(-0.010804825 0.0071040615 3.131732e-18)
(-0.010243957 0.0070647379 9.2548405e-18)
(-0.0096551829 0.0068394683 -5.7720095e-18)
(-0.0089673915 0.00672405 -6.2464701e-18)
(-0.0079853536 0.0061702551 -1.3096563e-18)
(-0.0069985457 0.0053561327 3.6826801e-18)
(-0.006180754 0.0046626656 -9.2501692e-18)
(-0.0054585073 0.0040887228 2.8068518e-19)
(-0.0049748728 0.0036245047 -4.7346465e-18)
(-0.0045143761 0.0032991178 4.4291473e-18)
(-0.0041344733 0.0030302662 2.8936148e-18)
(-0.0038665968 0.0027104244 1.4176051e-19)
(-0.0036490862 0.0024659661 2.9663233e-18)
(-0.0034637333 0.0022198077 -1.0417087e-18)
(-0.0032802932 0.0020902005 -8.7669726e-19)
(-0.0033283636 0.0020933401 -3.1715453e-18)
(-0.0033997487 0.0020631667 1.2132907e-19)
(-0.0031922243 0.0017481689 -6.3025866e-18)
(-0.0029891066 0.0017102565 -4.5134876e-18)
(-0.0037258787 0.002572189 -9.6823448e-19)
(-0.0044627439 0.0026782775 3.051486e-19)
(-0.0043100166 0.00065952056 4.8398597e-19)
(-0.004057365 -0.001358732 -1.2770344e-18)
(-0.0037982816 0.0038465635 2.7499933e-20)
(-0.0026805286 0.0070055748 -6.2414195e-18)
(-0.0035052595 0.0019345916 -3.0535164e-18)
(-0.0025362716 0.0015216876 -1.4190562e-20)
(-0.003758592 0.0030800328 7.9531145e-18)
(-0.0046439876 0.0032672602 -2.7474655e-18)
(-0.0041352495 0.0026164536 -3.2292921e-18)
(-0.004007216 0.002344085 -2.5674873e-18)
(-0.0042350611 0.0024054234 -3.91472e-19)
(-0.0041663932 0.0021533099 9.9691823e-19)
(-0.0040990272 0.001932426 -3.5674384e-18)
(-0.0041020826 0.0017673644 -9.1860932e-19)
(-0.0039838026 0.0015578191 -4.1997618e-19)
(-0.0037319247 0.0013070087 -3.7713095e-18)
(-0.0034781171 0.001079372 2.2548883e-18)
(-0.0030682459 0.00082897847 2.5797309e-18)
(-0.002672799 0.0006169164 -7.842835e-19)
(-0.0021832992 0.00042069354 1.0102103e-18)
(-0.0018532045 0.00028969946 -1.0420857e-18)
(-0.0014909786 0.00017970628 -2.2413161e-18)
(-0.001500812 0.00013204691 -1.3136469e-19)
(-0.0014937399 8.3073316e-05 6.2479377e-20)
(-0.0022650605 5.062757e-05 -1.1539248e-19)
(-0.0035719945 2.7737715e-05 1.2796887e-22)
(-0.0044826402 2.5314918e-05 -7.9883592e-24)
(-0.0054781564 2.5750554e-05 -2.6690832e-23)
(-0.0063334309 2.3767639e-05 5.6456465e-23)
(-0.0071903945 2.3390193e-05 -2.6509449e-23)
(-0.0079055527 2.1705036e-05 -2.6019329e-23)
(-0.00858378 2.0489074e-05 5.4741402e-23)
(-0.0091899026 1.5941408e-05 -2.569052e-23)
(-0.0097720009 1.3253631e-05 -2.5234969e-23)
(-0.010275775 9.2627825e-06 -2.5008077e-23)
(-0.010763846 7.4737338e-06 1.9461908e-23)
(-0.011232156 8.8810713e-07 9.8053877e-24)
(-0.011674769 -1.0766656e-06 2.1006103e-23)
(-0.012062729 -5.2571569e-06 -2.5120073e-23)
(-0.012429233 -5.6404196e-06 1.0400746e-23)
(-0.012803067 -1.3681671e-05 -6.3977564e-23)
(-0.013203509 -1.3979992e-05 5.9349502e-23)
(-0.013572177 -1.6944764e-05 -2.7342294e-23)
(-0.013910848 -1.1929114e-05 -8.0927997e-23)
(-0.014259464 -1.5480206e-05 6.2853975e-23)
(-0.014630785 -9.4337533e-06 2.2926669e-23)
(-0.014972992 -7.0510611e-06 -8.5711948e-23)
(-0.015272635 3.0474056e-06 6.700524e-23)
(-0.015627864 3.9435174e-06 -3.0690533e-23)
(-0.015955534 7.6297434e-06 2.5164321e-23)
(-0.016231418 8.4095459e-06 1.1910223e-23)
(-0.01644791 1.0428331e-05 -3.0095321e-23)
(-0.016638477 8.4492571e-06 -2.9536905e-23)
(-0.016814837 5.6577402e-06 1.1883923e-22)
(-0.016982038 2.1979091e-06 -8.3667182e-23)
(-0.017141674 1.2705102e-06 2.3081851e-23)
(-0.017324524 -1.4279906e-06 6.5653324e-23)
(-0.017525645 1.9285787e-06 -2.9681856e-23)
(-0.017755327 9.728032e-07 -8.4358059e-23)
(-0.018018109 8.3015166e-06 1.8148642e-23)
(-0.018335405 9.849259e-06 2.34215e-23)
(-0.018714678 1.5579994e-05 1.78722e-23)
(-0.019119262 1.9159249e-05 1.7261244e-23)
(-0.01963156 2.4386288e-05 -3.4315479e-23)
(-0.020200527 3.0759626e-05 1.6778031e-23)
(-0.020767819 3.2707925e-05 1.9742085e-23)
(-0.021249934 3.9621019e-05 -3.0044759e-23)
(-0.021496027 3.2735065e-05 1.3899748e-23)
(-0.021657891 3.6499124e-05 1.1394608e-23)
(-0.021674958 3.1009896e-05 -1.2207876e-23)
(-0.021645262 3.0028753e-05 -1.4787001e-23)
(-0.021540729 2.3289644e-05 6.0649214e-25)
(-0.021398104 2.3093559e-05 1.0266341e-23)
(-0.02120703 1.6649646e-05 5.6501579e-24)
(-0.02095404 1.2856708e-05 -1.4986964e-23)
(-0.020629261 4.2282793e-06 1.973574e-23)
(-0.020223942 -1.6014229e-06 -1.3904666e-23)
(-0.019801925 -1.0178419e-05 9.9053917e-24)
(-0.019367582 -1.3298894e-05 -3.7185394e-24)
(-0.019060756 -1.4471867e-05 -1.7941578e-24)
(-0.018817949 -9.1840253e-06 -5.6438858e-25)
(-0.01863553 -8.9718137e-06 4.1425437e-24)
(-0.018483244 -7.1055189e-06 -2.5620763e-24)
(-0.018364134 -6.6967692e-06 2.7543933e-24)
(-0.018267243 -2.0675507e-06 -4.3694484e-24)