/*--------------------------------*- C++ -*----------------------------------*\
| =========                 |                                                 |
| \\      /  F ield         | OpenFOAM: The Open Source CFD Toolbox           |
|  \\    /   O peration     | Version:  2.4.0                                 |
|   \\  /    A nd           | Web:      www.OpenFOAM.org                      |
|    \\/     M anipulation  |                                                 |
\*---------------------------------------------------------------------------*/
FoamFile
{
    version     2.0;
    format      ascii;
    class       volScalarField;
    location    "190";
    object      nut;
}
// * * * * * * * * * * * * * * * * * * * * * * * * * * * * * * * * * * * * * //

dimensions      [0 2 -1 0 0 0 0];

internalField   nonuniform List<scalar> 
32000
(
4.468663e-07
1.2429661e-07
4.7971742e-07
4.8968604e-08
2.0127893e-08
3.7473648e-09
4.3523309e-09
1.7064293e-09
1.603224e-09
1.0886182e-09
8.9737236e-10
7.2359729e-10
6.1535926e-10
5.3413562e-10
4.7585073e-10
4.3281982e-10
4.0175639e-10
3.8007606e-10
3.6340121e-10
3.4954944e-10
3.3756642e-10
3.2696013e-10
3.1726546e-10
3.0822138e-10
2.9946451e-10
2.9081097e-10
2.8176595e-10
2.7274429e-10
2.644874e-10
2.5720122e-10
2.5087536e-10
2.4546347e-10
2.4093347e-10
2.3726051e-10
2.3451067e-10
2.3284639e-10
2.3221293e-10
2.3213349e-10
2.3240966e-10
2.3303169e-10
2.3402689e-10
2.3546193e-10
2.3750307e-10
2.4041372e-10
2.4479831e-10
2.5178624e-10
2.6655989e-10
2.8490573e-10
2.9751569e-10
3.0796943e-10
3.169202e-10
3.2486508e-10
3.3198549e-10
3.3843817e-10
3.4432197e-10
3.4971592e-10
3.5468064e-10
3.5926548e-10
3.635106e-10
3.6745035e-10
3.7111391e-10
3.7452631e-10
3.7770912e-10
3.8068145e-10
3.8346008e-10
3.8605982e-10
3.88494e-10
3.9077461e-10
3.9291209e-10
3.949161e-10
3.9679537e-10
3.9855788e-10
4.0021071e-10
4.017606e-10
4.0321357e-10
4.0457527e-10
4.0585161e-10
4.0704747e-10
4.0816925e-10
4.0922061e-10
4.1020738e-10
4.1112915e-10
4.1198423e-10
4.1277686e-10
4.1350913e-10
4.1418486e-10
4.148063e-10
4.1535956e-10
4.1582566e-10
4.1637129e-10
4.167975e-10
4.1717646e-10
4.1750955e-10
4.1779773e-10
4.180419e-10
4.182431e-10
4.1840196e-10
4.1851903e-10
4.1859466e-10
4.1862898e-10
4.1862302e-10
4.1857566e-10
4.1848668e-10
4.1835674e-10
4.1818506e-10
4.1797121e-10
4.1771445e-10
4.1741415e-10
4.170694e-10
4.1667915e-10
4.1624227e-10
4.1575742e-10
4.1522318e-10
4.146379e-10
4.139998e-10
4.1330691e-10
4.12557e-10
4.1174778e-10
4.1087655e-10
4.0994053e-10
4.0893667e-10
4.0786154e-10
4.0671142e-10
4.0548248e-10
4.0417016e-10
4.0276983e-10
4.0127632e-10
3.9968381e-10
3.979863e-10
3.9617696e-10
3.9424823e-10
3.9219209e-10
3.8999963e-10
3.8766075e-10
3.8516458e-10
3.8249894e-10
3.7964998e-10
3.7660267e-10
3.7333974e-10
3.6984178e-10
3.6608662e-10
3.6204898e-10
3.5769924e-10
3.5300281e-10
3.4791885e-10
3.4239779e-10
3.3637902e-10
3.2978351e-10
3.2251247e-10
3.1441027e-10
3.0529705e-10
2.9467841e-10
2.8191258e-10
2.6346068e-10
2.4856695e-10
2.4140348e-10
2.3678267e-10
2.3359185e-10
2.312971e-10
2.2955843e-10
2.2819462e-10
2.2725709e-10
2.2666554e-10
2.2644275e-10
2.2669456e-10
2.2782274e-10
2.3006983e-10
2.3316483e-10
2.3704198e-10
2.4172019e-10
2.4720529e-10
2.5354033e-10
2.6069914e-10
2.6847611e-10
2.7611048e-10
2.8323557e-10
2.8991249e-10
2.9696293e-10
3.0424828e-10
3.1205932e-10
3.2072573e-10
3.3063304e-10
3.4250402e-10
3.5835392e-10
3.8156756e-10
4.138505e-10
4.5758066e-10
5.1605651e-10
5.9749045e-10
7.0410307e-10
8.7684584e-10
1.0543546e-09
1.5406817e-09
1.5107186e-09
3.7041803e-09
2.5822458e-09
1.5425781e-08
2.8739239e-08
1.6761992e-07
1.49051e-07
2.1393904e-07
1.1564113e-07
2.1166868e-07
6.4821696e-08
2.5322979e-08
3.7656143e-09
7.1226063e-09
3.725099e-09
2.96285e-09
2.1407802e-09
1.7113772e-09
1.3823359e-09
1.160139e-09
9.9583815e-10
8.7418023e-10
7.8201101e-10
7.1204655e-10
6.5936503e-10
6.1683353e-10
5.8073781e-10
5.4925383e-10
5.2135287e-10
4.9614382e-10
4.7305432e-10
4.5145944e-10
4.3096382e-10
4.1078769e-10
3.9117577e-10
3.7287074e-10
3.5607313e-10
3.4071994e-10
3.2670961e-10
3.1396273e-10
3.0241325e-10
2.9210517e-10
2.8322483e-10
2.7578405e-10
2.693697e-10
2.637977e-10
2.5908176e-10
2.5526737e-10
2.5244064e-10
2.5078191e-10
2.5059121e-10
2.5247203e-10
2.5766259e-10
2.7070768e-10
2.8695237e-10
2.9795504e-10
3.0687797e-10
3.1446393e-10
3.2115085e-10
3.2712018e-10
3.3251532e-10
3.3742921e-10
3.4193446e-10
3.4608612e-10
3.4993124e-10
3.5349672e-10
3.5680838e-10
3.5988967e-10
3.6275847e-10
3.654244e-10
3.6789347e-10
3.701795e-10
3.7230447e-10
3.742818e-10
3.7612259e-10
3.7783713e-10
3.7943487e-10
3.8092447e-10
3.8231532e-10
3.8361854e-10
3.8484925e-10
3.8601374e-10
3.8712178e-10
3.8818486e-10
3.892197e-10
3.902369e-10
3.9123973e-10
3.9222289e-10
3.9316305e-10
3.9403226e-10
3.9481521e-10
3.9550386e-10
3.9609535e-10
3.9658488e-10
3.9695537e-10
3.9703672e-10
3.9742376e-10
3.9756761e-10
3.9769073e-10
3.978256e-10
3.9799205e-10
3.9819064e-10
3.9840368e-10
3.9860372e-10
3.987653e-10
3.9887387e-10
3.989208e-10
3.9890722e-10
3.9883802e-10
3.987127e-10
3.9853399e-10
3.983048e-10
3.9802783e-10
3.9770798e-10
3.9735478e-10
3.9697898e-10
3.9659009e-10
3.9619285e-10
3.9578468e-10
3.9535811e-10
3.9490404e-10
3.9441446e-10
3.9388465e-10
3.9331154e-10
3.9269144e-10
3.9202078e-10
3.9129628e-10
3.9051471e-10
3.8967279e-10
3.8876716e-10
3.8779448e-10
3.8675088e-10
3.8563256e-10
3.8443518e-10
3.8315385e-10
3.8178342e-10
3.8031844e-10
3.7875268e-10
3.7707957e-10
3.7529175e-10
3.7338098e-10
3.713383e-10
3.6915358e-10
3.6681522e-10
3.6430972e-10
3.6162128e-10
3.5873293e-10
3.5562511e-10
3.5227555e-10
3.4865831e-10
3.4474231e-10
3.4049371e-10
3.3587063e-10
3.3082135e-10
3.2527677e-10
3.1914677e-10
3.1228582e-10
3.0451567e-10
2.9537279e-10
2.8416776e-10
2.6732254e-10
2.5347362e-10
2.4767339e-10
2.4519438e-10
2.4472059e-10
2.4565724e-10
2.4759926e-10
2.5041617e-10
2.5416602e-10
2.5878053e-10
2.6423797e-10
2.7061875e-10
2.783155e-10
2.8751638e-10
2.9792387e-10
3.0943346e-10
3.2192691e-10
3.3526769e-10
3.4952059e-10
3.6491799e-10
3.815075e-10
3.9860066e-10
4.1587087e-10
4.3344448e-10
4.523017e-10
4.722959e-10
4.9396375e-10
5.1796432e-10
5.4516044e-10
5.7647544e-10
6.1563279e-10
6.6752463e-10
7.3557922e-10
8.239792e-10
9.3950741e-10
1.0950285e-09
1.3012967e-09
1.6084426e-09
1.9806394e-09
2.7282919e-09
3.0438186e-09
5.8253976e-09
2.6050811e-09
1.7879098e-08
3.4278729e-08
1.331303e-07
1.4269946e-07
1.5255689e-08
2.3896192e-08
2.3920725e-08
2.7073718e-08
1.6896964e-08
2.0600916e-09
6.2588244e-09
4.0157076e-09
2.9829086e-09
2.2983036e-09
1.821571e-09
1.4816638e-09
1.2374837e-09
1.0572492e-09
9.2032576e-10
8.1439842e-10
7.312677e-10
6.6610158e-10
6.1258811e-10
5.6709801e-10
5.2760599e-10
4.9289117e-10
4.6194907e-10
4.3406757e-10
4.0860182e-10
3.8506962e-10
3.6274915e-10
3.4149886e-10
3.2164677e-10
3.0329788e-10
2.8638098e-10
2.7080407e-10
2.5649192e-10
2.4337942e-10
2.3146722e-10
2.2085178e-10
2.1155661e-10
2.0338553e-10
1.9622407e-10
1.9004577e-10
1.8481923e-10
1.8053128e-10
1.7721411e-10
1.7498744e-10
1.7410079e-10
1.7523607e-10
1.8032468e-10
1.8716145e-10
1.9182286e-10
1.9555892e-10
1.9875531e-10
2.0158339e-10
2.0412194e-10
2.0643029e-10
2.0854787e-10
2.1050537e-10
2.1232578e-10
2.1403054e-10
2.1562149e-10
2.1710724e-10
2.1849574e-10
2.1979092e-10
2.2098849e-10
2.2208144e-10
2.230753e-10
2.2398829e-10
2.2482777e-10
2.2559961e-10
2.2630964e-10
2.2696313e-10
2.2756506e-10
2.2812194e-10
2.2864319e-10
2.2914381e-10
2.2962754e-10
2.3010257e-10
2.3058045e-10
2.3107947e-10
2.3160901e-10
2.3217058e-10
2.327531e-10
2.3332601e-10
2.3385357e-10
2.3431253e-10
2.3469054e-10
2.34981e-10
2.3517584e-10
2.3526471e-10
2.350376e-10
2.3514338e-10
2.3502093e-10
2.3490594e-10
2.3484045e-10
2.3484979e-10
2.3493396e-10
2.3506889e-10
2.3521787e-10
2.3534674e-10
2.3543547e-10
2.3547062e-10
2.3545857e-10
2.354039e-10
2.3530315e-10
2.3516218e-10
2.3498495e-10
2.3477514e-10
2.3453979e-10
2.34292e-10
2.3404666e-10
2.3381707e-10
2.3361033e-10
2.3342406e-10
2.3324945e-10
2.330757e-10
2.328933e-10
2.3269782e-10
2.3248673e-10
2.3225682e-10
2.3200537e-10
2.3173006e-10
2.3142885e-10
2.3109995e-10
2.3074164e-10
2.3035232e-10
2.2993026e-10
2.2947383e-10
2.2898115e-10
2.2844981e-10
2.2787693e-10
2.2726113e-10
2.2659983e-10
2.2589039e-10
2.2512982e-10
2.2431484e-10
2.2344192e-10
2.2250698e-10
2.2150531e-10
2.2043045e-10
2.1927504e-10
2.1803183e-10
2.166924e-10
2.1524732e-10
2.1368588e-10
2.1199241e-10
2.1015741e-10
2.081664e-10
2.060014e-10
2.036371e-10
2.0103868e-10
1.9814407e-10
1.9487817e-10
1.9103349e-10
1.8628466e-10
1.7877842e-10
1.7272384e-10
1.7092701e-10
1.7121428e-10
1.7277031e-10
1.7528742e-10
1.7856892e-10
1.8266265e-10
1.87678e-10
1.9366354e-10
2.0062486e-10
2.0862225e-10
2.1790331e-10
2.2856681e-10
2.4047156e-10
2.5351672e-10
2.6745008e-10
2.8198672e-10
2.9714496e-10
3.1333291e-10
3.3095455e-10
3.4981658e-10
3.6982998e-10
3.9114481e-10
4.1438893e-10
4.3950583e-10
4.6709583e-10
4.9793948e-10
5.3312476e-10
5.7324027e-10
6.2235183e-10
6.8422539e-10
7.6258833e-10
8.611209e-10
9.8722478e-10
1.1522309e-09
1.3708445e-09
1.6763732e-09
2.0778343e-09
2.7301565e-09
3.1420238e-09
5.1118664e-09
1.3664688e-09
1.1715727e-08
2.0681391e-08
2.0019672e-08
2.5798689e-08
2.316581e-10
1.1360758e-09
6.4638954e-10
5.6805822e-09
5.8708315e-09
8.4126999e-10
3.1816137e-09
2.4956834e-09
2.0844479e-09
1.8251177e-09
1.4928181e-09
1.2314676e-09
1.0320603e-09
8.8271679e-10
7.6554194e-10
6.7231848e-10
5.9661215e-10
5.3538564e-10
4.8479296e-10
4.4200613e-10
4.0518469e-10
3.7317637e-10
3.4505447e-10
3.2011203e-10
2.9780549e-10
2.7766268e-10
2.5912437e-10
2.4178195e-10
2.2563246e-10
2.1073949e-10
1.9707249e-10
1.8458846e-10
1.7324701e-10
1.6300669e-10
1.5384218e-10
1.4575818e-10
1.3872915e-10
1.3265268e-10
1.274581e-10
1.2306422e-10
1.1935837e-10
1.1623447e-10
1.1360013e-10
1.1141405e-10
1.0965672e-10
1.0853344e-10
1.0820619e-10
1.0864875e-10
1.091139e-10
1.0951787e-10
1.0993259e-10
1.1034353e-10
1.1074987e-10
1.1115068e-10
1.1154632e-10
1.119376e-10
1.1232503e-10
1.1271039e-10
1.130808e-10
1.134375e-10
1.13779e-10
1.1410165e-10
1.1439577e-10
1.1465018e-10
1.1486551e-10
1.150538e-10
1.1521779e-10
1.1535973e-10
1.1548209e-10
1.1558702e-10
1.1567672e-10
1.1575481e-10
1.1582759e-10
1.1590608e-10
1.1599091e-10
1.1608466e-10
1.1620032e-10
1.1635191e-10
1.1654593e-10
1.1678272e-10
1.1705165e-10
1.1732708e-10
1.1757924e-10
1.1778764e-10
1.1794126e-10
1.1803368e-10
1.180576e-10
1.1800743e-10
1.1773401e-10
1.1767596e-10
1.1747442e-10
1.1729017e-10
1.1715826e-10
1.1709969e-10
1.1711429e-10
1.1718177e-10
1.1727121e-10
1.1735363e-10
1.1741151e-10
1.1743243e-10
1.174249e-10
1.173913e-10
1.1732698e-10
1.1723843e-10
1.1712888e-10
1.1700112e-10
1.168615e-10
1.1672122e-10
1.1659299e-10
1.1648825e-10
1.1641328e-10
1.1636642e-10
1.1634059e-10
1.1632702e-10
1.1631788e-10
1.1631036e-10
1.1630269e-10
1.1629268e-10
1.1627868e-10
1.1625939e-10
1.162338e-10
1.1620119e-10
1.1616098e-10
1.1611274e-10
1.1605608e-10
1.1599072e-10
1.1591633e-10
1.1583089e-10
1.157301e-10
1.1561868e-10
1.1549627e-10
1.1536264e-10
1.1521748e-10
1.1506053e-10
1.148916e-10
1.1471041e-10
1.1451659e-10
1.143083e-10
1.1408431e-10
1.1384379e-10
1.135858e-10
1.1330956e-10
1.1301467e-10
1.1269314e-10
1.1235374e-10
1.120002e-10
1.1163717e-10
1.1126942e-10
1.1090185e-10
1.1053433e-10
1.1017164e-10
1.0979738e-10
1.0938613e-10
1.0847033e-10
1.0801972e-10
1.0864449e-10
1.0997921e-10
1.1167934e-10
1.1368284e-10
1.1598958e-10
1.1877514e-10
1.2220096e-10
1.2641361e-10
1.3147021e-10
1.3742789e-10
1.4446955e-10
1.5267602e-10
1.6204887e-10
1.7250801e-10
1.8375029e-10
1.9542524e-10
2.0747725e-10
2.2021772e-10
2.3435715e-10
2.500717e-10
2.6745929e-10
2.8668469e-10
3.0802542e-10
3.3151368e-10
3.5772996e-10
3.874472e-10
4.2177546e-10
4.6092836e-10
5.0858675e-10
5.6665132e-10
6.381874e-10
7.2416894e-10
8.3073263e-10
9.650808e-10
1.139474e-09
1.3683453e-09
1.6766739e-09
2.1031607e-09
2.1166494e-09
2.907544e-09
5.7989575e-10
5.2330074e-09
5.6029437e-09
5.8746346e-10
1.215179e-09
2.2785176e-13
1.350707e-11
1.6310919e-12
6.174177e-10
1.2062532e-09
2.7050257e-10
1.2197783e-09
1.127608e-09
9.990724e-10
9.3885125e-10
8.1384296e-10
7.1339977e-10
6.2392038e-10
5.4983571e-10
4.8537565e-10
4.2940279e-10
3.8031181e-10
3.3867812e-10
3.0415953e-10
2.751393e-10
2.5030273e-10
2.2888055e-10
2.1023637e-10
1.9385392e-10
1.7942908e-10
1.6661395e-10
1.5504036e-10
1.4421043e-10
1.3401889e-10
1.2461921e-10
1.1609194e-10
1.0848657e-10
1.0182773e-10
9.6115806e-11
9.1325378e-11
8.7395921e-11
8.4223435e-11
8.1671515e-11
7.9710658e-11
7.8220845e-11
7.7037012e-11
7.6003211e-11
7.4964436e-11
7.3800596e-11
7.2357016e-11
7.0586875e-11
6.7777416e-11
6.5263102e-11
6.3922903e-11
6.2968945e-11
6.2291535e-11
6.1780085e-11
6.1391192e-11
6.1093038e-11
6.0866079e-11
6.0696337e-11
6.0573464e-11
6.0491147e-11
6.043362e-11
6.0395218e-11
6.0370775e-11
6.0354146e-11
6.0335041e-11
6.0302472e-11
6.0255332e-11
6.0201617e-11
6.0141976e-11
6.0077208e-11
6.0008332e-11
5.9936197e-11
5.9861781e-11
5.978726e-11
5.9716874e-11
5.9658484e-11
5.9604851e-11
5.9541156e-11
5.9502847e-11
5.9499871e-11
5.9536563e-11
5.9612684e-11
5.9719531e-11
5.9837594e-11
5.9944417e-11
6.002401e-11
6.006774e-11
6.0070384e-11
6.0026251e-11
5.9931757e-11
5.9710419e-11
5.9578656e-11
5.9380806e-11
5.9201099e-11
5.9065852e-11
5.8990806e-11
5.8975862e-11
5.9005796e-11
5.9057271e-11
5.9108207e-11
5.9144717e-11
5.9157676e-11
5.9153462e-11
5.913335e-11
5.9094062e-11
5.9040781e-11
5.8975822e-11
5.8900986e-11
5.8821506e-11
5.8745894e-11
5.8683915e-11
5.864437e-11
5.8632151e-11
5.8646147e-11
5.8681117e-11
5.8730453e-11
5.8788302e-11
5.8853097e-11
5.8923588e-11
5.8998366e-11
5.9076469e-11
5.9157211e-11
5.9240138e-11
5.9325081e-11
5.9412001e-11
5.9500967e-11
5.959219e-11
5.9685973e-11
5.9782622e-11
5.9873737e-11
5.9938054e-11
6.0003381e-11
6.0070196e-11
6.0139084e-11
6.0210699e-11
6.0285897e-11
6.03657e-11
6.0451266e-11
6.054388e-11
6.06437e-11
6.0752226e-11
6.0871362e-11
6.1003451e-11
6.1151568e-11
6.1319929e-11
6.1510038e-11
6.1733946e-11
6.2003431e-11
6.2333828e-11
6.2744792e-11
6.3261489e-11
6.3916822e-11
6.4758717e-11
6.5875039e-11
6.7405747e-11
6.96875e-11
7.1973496e-11
7.3451414e-11
7.4692514e-11
7.5614937e-11
7.6292514e-11
7.6841192e-11
7.7502305e-11
7.8472198e-11
7.9956642e-11
8.2054238e-11
8.4802397e-11
8.8416935e-11
9.3009163e-11
9.8669109e-11
1.0533475e-10
1.1271324e-10
1.2045046e-10
1.2834545e-10
1.3605457e-10
1.4492762e-10
1.5526121e-10
1.6720153e-10
1.8088622e-10
1.9637656e-10
2.1371755e-10
2.3341269e-10
2.5611586e-10
2.8277019e-10
3.1335937e-10
3.50705e-10
3.952002e-10
4.4872139e-10
5.050146e-10
5.6803241e-10
6.3886111e-10
7.2043616e-10
8.1041674e-10
9.127654e-10
1.0260955e-09
9.4579045e-10
1.1733799e-09
2.178651e-10
1.2293367e-09
8.2474447e-10
1.6861043e-12
1.4310779e-11
2.0475933e-17
5.7586406e-15
4.270157e-17
2.6697281e-11
1.5409367e-10
7.0788141e-11
3.8794905e-10
4.2741084e-10
3.9526308e-10
3.9519724e-10
3.5653135e-10
3.2491328e-10
2.9149831e-10
2.6131788e-10
2.3288879e-10
2.0676347e-10
1.8282348e-10
1.6204833e-10
1.449588e-10
1.3085177e-10
1.1902878e-10
1.0907435e-10
1.0062114e-10
9.3351497e-11
8.7195018e-11
8.1965439e-11
7.7516934e-11
7.3579533e-11
7.0049921e-11
6.7003283e-11
6.4483829e-11
6.2520277e-11
6.1121e-11
6.0273281e-11
5.9934297e-11
5.9979998e-11
6.0264655e-11
5.9977673e-11
4.7870978e-11
3.8848576e-11
3.2205186e-11
2.7404247e-11
2.405778e-11
2.1911617e-11
2.0819936e-11
2.0809302e-11
2.1933326e-11
2.3005019e-11
2.3672998e-11
2.4184908e-11
2.4646548e-11
2.5066986e-11
2.545765e-11
2.5825396e-11
2.6175632e-11
2.6512622e-11
2.6839405e-11
2.7161316e-11
2.7470932e-11
2.7764058e-11
2.8039731e-11
2.8294539e-11
2.8519553e-11
2.8703296e-11
2.8845209e-11
2.8958217e-11
2.9046485e-11
2.9112199e-11
2.9158101e-11
2.9186679e-11
2.9200531e-11
2.9203746e-11
2.9202997e-11
2.9209646e-11
2.9227765e-11
2.9263676e-11
2.9325201e-11
2.942643e-11
2.9573978e-11
2.9768822e-11
3.0000263e-11
3.0242728e-11
3.0465999e-11
3.0647756e-11
3.0775022e-11
3.0839416e-11
3.0831923e-11
3.0761259e-11
3.051162e-11
3.0312668e-11
3.0045172e-11
2.9797562e-11
2.9608125e-11
2.9502113e-11
2.9482881e-11
2.9531963e-11
2.9617072e-11
2.9705005e-11
2.9772083e-11
2.9786923e-11
2.9793057e-11
2.9784152e-11
2.9730562e-11
2.9653487e-11
2.9556438e-11
2.94416e-11
2.931459e-11
2.918652e-11
2.9071235e-11
2.898227e-11
2.8928598e-11
2.891083e-11
2.89223e-11
2.8953107e-11
2.8993211e-11
2.9038946e-11
2.9088299e-11
2.9138878e-11
2.918879e-11
2.9236522e-11
2.9280885e-11
2.932107e-11
2.9356417e-11
2.938639e-11
2.941059e-11
2.9428698e-11
2.9440364e-11
2.9445236e-11
2.9442986e-11
2.9433287e-11
2.941584e-11
2.9390407e-11
2.9356694e-11
2.9314436e-11
2.926337e-11
2.9203091e-11
2.9133174e-11
2.9051229e-11
2.8955954e-11
2.8846292e-11
2.8721102e-11
2.8579426e-11
2.842071e-11
2.8245167e-11
2.805379e-11
2.7848336e-11
2.7630743e-11
2.7401429e-11
2.7158311e-11
2.6891611e-11
2.6588673e-11
2.6204686e-11
2.5652609e-11
2.4180094e-11
2.2399391e-11
2.2128394e-11
2.309759e-11
2.5140846e-11
2.8307235e-11
3.274276e-11
3.8912846e-11
4.7354883e-11
5.8790852e-11
5.9310385e-11
5.8843477e-11
5.8743536e-11
5.9144616e-11
6.0186019e-11
6.1818727e-11
6.3827243e-11
6.598177e-11
6.8241863e-11
7.0736316e-11
7.3977574e-11
7.8173691e-11
8.3396495e-11
8.9711123e-11
9.7054818e-11
1.0537471e-10
1.1503385e-10
1.2643543e-10
1.4013373e-10
1.5608281e-10
1.7571671e-10
1.9844819e-10
2.2440617e-10
2.5108771e-10
2.7919304e-10
3.0799706e-10
3.3758652e-10
3.6442423e-10
3.8827489e-10
4.0516876e-10
3.4856112e-10
3.8777757e-10
7.6852753e-11
1.7985816e-10
6.457468e-11
7.9592216e-17
5.5922095e-15
4.5924782e-22
3.207777e-19
4.5059595e-23
1.8848046e-13
1.131614e-11
1.2913506e-11
1.0550555e-10
1.432883e-10
1.3648452e-10
1.4610612e-10
1.3688965e-10
1.2966747e-10
1.1951408e-10
1.0947411e-10
9.9226765e-11
8.9381308e-11
8.0081074e-11
7.1936941e-11
6.5378095e-11
6.0161373e-11
5.5983357e-11
5.2654106e-11
5.0011391e-11
4.7910066e-11
4.633375e-11
4.5210297e-11
4.4520903e-11
4.4183168e-11
4.413742e-11
4.0828474e-11
3.2926977e-11
2.604495e-11
2.0207891e-11
1.5383745e-11
1.1496464e-11
8.4657808e-12
6.2130123e-12
4.6074188e-12
3.4700548e-12
2.6682639e-12
2.1067643e-12
1.7180892e-12
1.456042e-12
1.2909537e-12
1.2047179e-12
1.194696e-12
1.2601186e-12
1.3200031e-12
1.3552675e-12
1.3820494e-12
1.4068629e-12
1.4299354e-12
1.4517856e-12
1.4727475e-12
1.493089e-12
1.5130327e-12
1.5327305e-12
1.5525121e-12
1.5717489e-12
1.5900948e-12
1.6074387e-12
1.6234817e-12
1.6374941e-12
1.6485479e-12
1.6565914e-12
1.6626111e-12
1.6668824e-12
1.6695805e-12
1.6709073e-12
1.6710449e-12
1.6701848e-12
1.6686324e-12
1.666889e-12
1.6657972e-12
1.6657005e-12
1.6670756e-12
1.6705076e-12
1.6770512e-12
1.6872363e-12
1.7011563e-12
1.7180191e-12
1.7358853e-12
1.7524278e-12
1.7658924e-12
1.7752324e-12
1.7797643e-12
1.7787742e-12
1.7727215e-12
1.7534417e-12
1.737661e-12
1.7164834e-12
1.6968746e-12
1.6817541e-12
1.673047e-12
1.6710382e-12
1.6743713e-12
1.6806187e-12
1.6872338e-12
1.6923299e-12
1.6933344e-12
1.693882e-12
1.6933882e-12
1.6893484e-12
1.6835449e-12
1.6762386e-12
1.6675576e-12
1.6580001e-12
1.6484273e-12
1.6399125e-12
1.6334965e-12
1.6298595e-12
1.6290358e-12
1.6304981e-12
1.6334495e-12
1.6371285e-12
1.6412996e-12
1.6457975e-12
1.6504424e-12
1.6550935e-12
1.659639e-12
1.663992e-12
1.6680941e-12
1.6718987e-12
1.6753686e-12
1.6784777e-12
1.6812061e-12
1.6835321e-12
1.6854348e-12
1.6868955e-12
1.6878965e-12
1.6884236e-12
1.6884675e-12
1.6880163e-12
1.6870613e-12
1.6855951e-12
1.6836023e-12
1.6810534e-12
1.6777621e-12
1.6736844e-12
1.6687619e-12
1.6629369e-12
1.656172e-12
1.6484677e-12
1.6398912e-12
1.6305794e-12
1.6207391e-12
1.6106056e-12
1.6003204e-12
1.5898646e-12
1.5786899e-12
1.566085e-12
1.5490483e-12
1.5217874e-12
1.4317113e-12
1.3166962e-12
1.3059127e-12
1.3842556e-12
1.5434295e-12
1.7929382e-12
2.1525038e-12
2.6729923e-12
3.4195843e-12
4.486197e-12
5.9955862e-12
8.1235012e-12
1.1057357e-11
1.4919038e-11
1.9868704e-11
2.5970844e-11
3.2986156e-11
4.0448671e-11
4.3412374e-11
4.2903597e-11
4.2975486e-11
4.3723014e-11
4.5083632e-11
4.6992226e-11
4.9353238e-11
5.2139252e-11
5.5524181e-11
5.9713852e-11
6.4998122e-11
7.1254856e-11
7.9162e-11
8.8231036e-11
9.8331509e-11
1.0843034e-10
1.1846065e-10
1.2769583e-10
1.3585207e-10
1.4075609e-10
1.4256865e-10
1.3838393e-10
1.1335878e-10
1.0957925e-10
2.0870069e-11
1.5462184e-11
2.3021297e-12
4.7037512e-22
2.2838718e-19
1.0782043e-27
3.7904841e-24
9.5997396e-30
5.6041357e-17
2.3354022e-13
9.029128e-13
1.687998e-11
4.5715112e-11
4.3518698e-11
5.0747681e-11
4.9588563e-11
4.9441795e-11
4.7489884e-11
4.5315043e-11
4.2781355e-11
4.0256189e-11
3.7816995e-11
3.5717297e-11
3.4160657e-11
2.9839003e-11
2.4061879e-11
1.9528686e-11
1.5957505e-11
1.3116336e-11
1.0854624e-11
9.0327813e-12
7.5494439e-12
6.2407978e-12
5.0430401e-12
3.980493e-12
3.0682787e-12
2.3099152e-12
1.6987483e-12
1.2208838e-12
8.5801491e-13
5.9230587e-13
4.0727333e-13
2.8372921e-13
2.0147282e-13
1.467239e-13
1.103244e-13
8.6236239e-14
7.0566638e-14
6.0910933e-14
5.5814843e-14
5.4878427e-14
5.7843889e-14
6.042563e-14
6.1825299e-14
6.2872747e-14
6.3885366e-14
6.4856683e-14
6.5801521e-14
6.6731339e-14
6.7655662e-14
6.858321e-14
6.9519445e-14
7.0480146e-14
7.1425536e-14
7.2334507e-14
7.3198929e-14
7.3999366e-14
7.4690254e-14
7.5213983e-14
7.5567839e-14
7.5809657e-14
7.5953913e-14
7.6011594e-14
7.5994378e-14
7.5912757e-14
7.577781e-14
7.5607253e-14
7.5430178e-14
7.5294617e-14
7.5223048e-14
7.5243184e-14
7.538889e-14
7.5720766e-14
7.6271755e-14
7.7048807e-14
7.8007249e-14
7.9034299e-14
7.9992051e-14
8.0774177e-14
8.1315359e-14
8.1572474e-14
8.150184e-14
8.111984e-14
7.9984338e-14
7.9028057e-14
7.7745673e-14
7.6556851e-14
7.5632719e-14
7.5085893e-14
7.4934976e-14
7.5104344e-14
7.5454738e-14
7.5836583e-14
7.6134772e-14
7.6190316e-14
7.6225687e-14
7.6203893e-14
7.5968539e-14
7.5630241e-14
7.5203105e-14
7.4694839e-14
7.4137976e-14
7.3584325e-14
7.3097997e-14
7.2740362e-14
7.2550669e-14
7.2529645e-14
7.2644787e-14
7.2845208e-14
7.308954e-14
7.3365014e-14
7.3661638e-14
7.3969027e-14
7.4279144e-14
7.4585631e-14
7.4883579e-14
7.5169719e-14
7.544147e-14
7.5696808e-14
7.5934378e-14
7.6153177e-14
7.6352125e-14
7.6530247e-14
7.6686714e-14
7.6820771e-14
7.693196e-14
7.7020118e-14
7.7084987e-14
7.7126573e-14
7.7144991e-14
7.7140048e-14
7.7108807e-14
7.7041701e-14
7.693822e-14
7.6795993e-14
7.6613013e-14
7.6388732e-14
7.6125242e-14
7.582888e-14
7.5510602e-14
7.5185946e-14
7.4872738e-14
7.4584228e-14
7.4325385e-14
7.4072533e-14
7.3793316e-14
7.3326772e-14
7.2358454e-14
6.8025867e-14
6.216943e-14
6.1927832e-14
6.6651695e-14
7.6079649e-14
9.1090462e-14
1.1337798e-13
1.47001e-13
1.9765578e-13
2.7412638e-13
3.8909011e-13
5.6206314e-13
8.1703302e-13
1.175297e-12
1.6642985e-12
2.303096e-12
3.074866e-12
3.9293487e-12
4.8381696e-12
5.849563e-12
7.0399722e-12
8.5358357e-12
1.0476747e-11
1.3025329e-11
1.6196772e-11
2.0127933e-11
2.5064571e-11
3.1365347e-11
3.487902e-11
3.6354553e-11
3.8413129e-11
4.0839326e-11
4.3579492e-11
4.6222148e-11
4.8653171e-11
5.0451995e-11
5.152335e-11
5.0732019e-11
4.8873382e-11
4.3583308e-11
3.561889e-11
2.1102521e-11
2.1643885e-12
4.4825506e-13
1.4276294e-14
3.7946843e-27
1.4969229e-24
2.7723388e-31
1.4291775e-29
5.4349603e-27
4.1418739e-22
1.5352169e-15
4.5117841e-14
1.3880056e-12
6.8763426e-12
6.8816931e-12
1.1391838e-11
1.2419266e-11
1.3927414e-11
1.3889003e-11
1.3143328e-11
1.1663181e-11
9.8056958e-12
7.7640389e-12
5.9148174e-12
4.5005004e-12
3.4521757e-12
2.6684391e-12
2.0792593e-12
1.6340578e-12
1.29381e-12
1.0333374e-12
8.3130791e-13
6.7290095e-13
5.379642e-13
4.1869241e-13
3.1693299e-13
2.3330047e-13
1.6704942e-13
1.1639965e-13
7.8988535e-14
5.2250738e-14
3.3878799e-14
2.1896322e-14
1.4396528e-14
9.6966236e-15
6.7369211e-15
4.8636829e-15
3.674687e-15
2.9258066e-15
2.472919e-15
2.2310389e-15
2.1715683e-15
2.2720063e-15
2.3516119e-15
2.3879582e-15
2.4142659e-15
2.4428866e-15
2.4724197e-15
2.5028131e-15
2.5341998e-15
2.5667348e-15
2.600624e-15
2.6359623e-15
2.6733283e-15
2.7106849e-15
2.7469897e-15
2.7817828e-15
2.8140464e-15
2.8414621e-15
2.8611155e-15
2.8729317e-15
2.8796489e-15
2.8819152e-15
2.880287e-15
2.8753219e-15
2.8675171e-15
2.8573975e-15
2.8458011e-15
2.8340985e-15
2.8245041e-15
2.8182081e-15
2.8165161e-15
2.8210192e-15
2.8345276e-15
2.8587055e-15
2.8939669e-15
2.9382925e-15
2.9863872e-15
3.031635e-15
3.0687985e-15
3.0945585e-15
3.1066939e-15
3.1030249e-15
3.0838535e-15
3.0300394e-15
2.9830442e-15
2.9202782e-15
2.8619851e-15
2.816289e-15
2.7885029e-15
2.7795957e-15
2.7861933e-15
2.8018845e-15
2.8195987e-15
2.833696e-15
2.8363687e-15
2.8381301e-15
2.8372367e-15
2.826112e-15
2.8100981e-15
2.7897575e-15
2.7655944e-15
2.7392796e-15
2.713353e-15
2.6909173e-15
2.6748904e-15
2.667079e-15
2.667429e-15
2.6742729e-15
2.6849909e-15
2.6978601e-15
2.7122864e-15
2.7277938e-15
2.7439e-15
2.7602356e-15
2.7765097e-15
2.7924989e-15
2.8080549e-15
2.8230624e-15
2.8374319e-15
2.8511063e-15
2.8640448e-15
2.8762042e-15
2.8875484e-15
2.8980493e-15
2.9076844e-15
2.9164475e-15
2.9243484e-15
2.9313951e-15
2.9376107e-15
2.9430263e-15
2.9476729e-15
2.9512725e-15
2.9535569e-15
2.9545487e-15
2.9541882e-15
2.9524478e-15
2.9493848e-15
2.9452032e-15
2.9403299e-15
2.9354406e-15
2.931459e-15
2.9294551e-15
2.9303359e-15
2.9346747e-15
2.9418066e-15
2.9506747e-15
2.9543929e-15
2.9389766e-15
2.7777414e-15
2.5392227e-15
2.5438245e-15
2.7718332e-15
3.2186282e-15
3.9380404e-15
5.0336633e-15
6.7516031e-15
9.4646788e-15
1.3786317e-14
2.0681749e-14
3.1751931e-14
4.9212215e-14
7.544639e-14
1.136501e-13
1.6661546e-13
2.3391222e-13
3.1145874e-13
3.9695606e-13
4.9585874e-13
6.1708696e-13
7.7581368e-13
9.9070281e-13
1.2856313e-12
1.6683641e-12
2.1635203e-12
2.8130143e-12
3.6800233e-12
4.8649732e-12
6.3920009e-12
8.4079482e-12
1.0663086e-11
1.2901714e-11
1.4770776e-11
1.6008213e-11
1.6255229e-11
1.5491342e-11
1.3249555e-11
1.0544957e-11
6.8004022e-12
3.9358792e-12
1.8240772e-12
1.8929995e-13
3.663853e-15
2.2323463e-17
3.0307635e-31
2.2984949e-30
4.0195606e-31
7.046542e-31
4.4618463e-31
8.1710336e-29
2.7153773e-18
1.4976697e-15
8.4622794e-14
5.9407517e-13
6.5532563e-13
1.1940228e-12
1.376908e-12
1.6022492e-12
1.6280848e-12
1.5453201e-12
1.3566991e-12
1.1146234e-12
8.5077792e-13
6.1916758e-13
4.496789e-13
3.2973937e-13
2.4405824e-13
1.8242754e-13
1.3780482e-13
1.0507078e-13
8.0985431e-14
6.3002309e-14
4.9421383e-14
3.825035e-14
2.8715361e-14
2.0891272e-14
1.4733035e-14
1.0080322e-14
6.7002615e-15
4.3351485e-15
2.7370758e-15
1.6996568e-15
1.0596042e-15
6.7907132e-16
4.509119e-16
3.1230951e-16
2.2692607e-16
1.7365682e-16
1.4028186e-16
1.1983395e-16
1.0820551e-16
1.0387666e-16
1.0489838e-16
1.0473664e-16
1.038719e-16
1.0317334e-16
1.029953e-16
1.0313139e-16
1.0350363e-16
1.0407337e-16
1.0481789e-16
1.0572594e-16
1.0678587e-16
1.0801144e-16
1.0928996e-16
1.1056499e-16
1.1180827e-16
1.1296334e-16
1.1390696e-16
1.1448641e-16
1.14703e-16
1.1468888e-16
1.1447539e-16
1.1409082e-16
1.1356242e-16
1.1291415e-16
1.1217121e-16
1.1137369e-16
1.1058698e-16
1.0991407e-16
1.0941811e-16
1.091608e-16
1.0921746e-16
1.0971891e-16
1.1074966e-16
1.1233356e-16
1.1437862e-16
1.1663389e-16
1.187783e-16
1.2055011e-16
1.2177795e-16
1.2234536e-16
1.2214161e-16
1.2115186e-16
1.186103e-16
1.1621672e-16
1.1309929e-16
1.1019879e-16
1.0790518e-16
1.0647011e-16
1.0594288e-16
1.0617261e-16
1.0686375e-16
1.0768114e-16
1.0834918e-16
1.085049e-16
1.0858741e-16
1.0852606e-16
1.0799653e-16
1.0723363e-16
1.0625521e-16
1.050999e-16
1.0385188e-16
1.0263747e-16
1.0160823e-16
1.0090352e-16
1.0060594e-16
1.0070746e-16
1.0111823e-16
1.0170717e-16
1.0240401e-16
1.031808e-16
1.0401508e-16
1.048846e-16
1.0577251e-16
1.0666564e-16
1.0755397e-16
1.0843096e-16
1.0929165e-16
1.1013229e-16
1.1095074e-16
1.1174565e-16
1.1251565e-16
1.1325984e-16
1.1397781e-16
1.1466956e-16
1.1533611e-16
1.1597936e-16
1.1660135e-16
1.1720517e-16
1.1779443e-16
1.1837344e-16
1.1892073e-16
1.1943881e-16
1.1993048e-16
1.203976e-16
1.2084474e-16
1.2128204e-16
1.2172878e-16
1.2221755e-16
1.2279644e-16
1.2353002e-16
1.2449575e-16
1.2577116e-16
1.2742755e-16
1.2949218e-16
1.3198785e-16
1.3469879e-16
1.3709974e-16
1.3366172e-16
1.2576678e-16
1.2728482e-16
1.3818169e-16
1.5809304e-16
1.8939538e-16
2.3700074e-16
3.1332992e-16
4.3781972e-16
6.4400094e-16
9.8839648e-16
1.5717328e-15
2.5479839e-15
4.1078534e-15
6.5227481e-15
1.0065187e-14
1.4782125e-14
2.0417291e-14
2.6845974e-14
3.4585761e-14
4.4487348e-14
5.8015654e-14
7.7147118e-14
1.0461956e-13
1.4183895e-13
1.9214461e-13
2.6114891e-13
3.5763366e-13
4.960574e-13
6.8228349e-13
9.3985068e-13
1.2375561e-12
1.5382965e-12
1.7872309e-12
1.9404585e-12
1.9460846e-12
1.7994878e-12
1.4639495e-12
1.0769729e-12
6.2709716e-13
3.2614152e-13
1.1629867e-13
1.3703012e-14
7.3759659e-18
1.1840761e-20
2.0797991e-27
6.8736527e-31
5.7640083e-31
2.1064843e-24
3.7440639e-22
3.6929393e-25
1.5684636e-21
3.2152977e-17
3.6339882e-15
4.0192408e-14
4.9120903e-14
1.0017051e-13
1.2342628e-13
1.5020198e-13
1.5638555e-13
1.4946071e-13
1.3016128e-13
1.0468334e-13
7.7096016e-14
5.3634832e-14
3.7213242e-14
2.611998e-14
1.854632e-14
1.3331104e-14
9.7098823e-15
7.1568361e-15
5.3483507e-15
4.0457976e-15
3.0959216e-15
2.3390698e-15
1.7125862e-15
1.2153152e-15
8.375589e-16
5.6249317e-16
3.6991054e-16
2.3979771e-16
1.5451577e-16
1.0037678e-16
6.7348282e-17
4.7705722e-17
3.5792366e-17
2.840105e-17
2.3704395e-17
2.0639547e-17
1.8571401e-17
1.7120776e-17
1.6020901e-17
1.5155258e-17
1.4133861e-17
1.299816e-17
1.2224849e-17
1.1663483e-17
1.1277855e-17
1.1000678e-17
1.0800915e-17
1.0660721e-17
1.0568798e-17
1.0517803e-17
1.0501927e-17
1.0519147e-17
1.0553539e-17
1.059711e-17
1.0645355e-17
1.0690621e-17
1.0717479e-17
1.0707444e-17
1.0661613e-17
1.0594478e-17
1.0509659e-17
1.0410306e-17
1.0299381e-17
1.0179403e-17
1.0052991e-17
9.9243321e-18
9.8002546e-18
9.6912322e-18
9.6044895e-18
9.5462727e-18
9.5242652e-18
9.5516388e-18
9.6376144e-18
9.7849663e-18
9.9843852e-18
1.0209705e-17
1.0426702e-17
1.0606597e-17
1.0729943e-17
1.0783321e-17
1.0754376e-17
1.0636082e-17
1.0384472e-17
1.010087e-17
9.7584941e-18
9.4397011e-18
9.1854328e-18
9.0215041e-18
8.9531078e-18
8.9654796e-18
9.0290645e-18
9.1094216e-18