/*--------------------------------*- C++ -*----------------------------------*\
| =========                 |                                                 |
| \\      /  F ield         | OpenFOAM: The Open Source CFD Toolbox           |
|  \\    /   O peration     | Version:  2.4.0                                 |
|   \\  /    A nd           | Web:      www.OpenFOAM.org                      |
|    \\/     M anipulation  |                                                 |
\*---------------------------------------------------------------------------*/
FoamFile
{
    version     2.0;
    format      ascii;
    class       volVectorField;
    location    "190";
    object      U;
}
// * * * * * * * * * * * * * * * * * * * * * * * * * * * * * * * * * * * * * //

dimensions      [0 1 -1 0 0 0 0];

internalField   nonuniform List<vector> 
32000
(
(0.0063884785 3.1318101e-05 -3.6532009e-21)
(0.0014931291 -1.6407331e-07 -4.1246303e-22)
(0.0055399741 -0.00015456758 -8.9402138e-22)
(0.0026179777 -0.00020171117 -2.4810091e-20)
(0.0015744023 -0.00024117589 6.1906937e-20)
(-0.0010664064 0.0002571358 2.0353469e-19)
(-0.001921295 0.00068034264 -6.9582589e-20)
(-0.0019212279 0.00091048317 -3.9498132e-20)
(-0.0015238318 0.00087555419 -3.1903029e-19)
(-0.0013280002 0.00087142467 1.6170372e-19)
(-0.0012051524 0.00086825576 1.624548e-19)
(-0.0011102998 0.0008547403 3.4777868e-19)
(-0.0010011526 0.00080781947 3.3555078e-19)
(-0.00089166382 0.00074263361 1.9345911e-19)
(-0.00077877086 0.00066085165 -1.5468299e-21)
(-0.000674886 0.00057643609 9.6212642e-20)
(-0.00058774999 0.00049910167 1.3367774e-20)
(-0.00052123669 0.00043596447 -7.6734788e-20)
(-0.00046024771 0.00037870343 -8.5607627e-20)
(-0.00040823452 0.0003309126 -1.2578272e-19)
(-0.00035369261 0.00028267499 -7.7501042e-20)
(-0.0003041105 0.00024000214 7.0960357e-20)
(-0.00025024699 0.00019528737 2.6179815e-19)
(-0.00019330096 0.00014933385 -7.4501089e-20)
(-0.00013325303 0.000102061 -9.7416925e-20)
(-6.5122663e-05 4.9362444e-05 2.5172839e-19)
(6.5259325e-06 -5.3873503e-06 -1.3915917e-19)
(8.1140349e-05 -6.1811125e-05 -1.5382322e-19)
(0.00015542388 -0.00011661085 1.2570163e-19)
(0.00023011069 -0.00016944106 -3.0354474e-19)
(0.00030109326 -0.00021632182 3.8020053e-20)
(0.00036821777 -0.00025640256 -2.1626735e-19)
(0.00043094276 -0.00028859355 -2.9810371e-19)
(0.00049103267 -0.00031340357 1.8193963e-19)
(0.00054982359 -0.00033078399 3.6491958e-19)
(0.00060745945 -0.00034000272 -1.7011686e-19)
(0.0006625441 -0.00034066215 6.0317872e-20)
(0.00071029871 -0.00033201798 1.4728068e-19)
(0.00074542545 -0.00031274692 -2.2933834e-19)
(0.00076409246 -0.00028307202 8.0823842e-20)
(0.00076268026 -0.00024425577 7.0306306e-20)
(0.00073858597 -0.00019863696 2.4305884e-19)
(0.00069059087 -0.00014951928 7.4946789e-20)
(0.00061834454 -0.00010083642 -1.8953266e-20)
(0.00052537093 -5.7116298e-05 1.2155859e-19)
(0.00040920368 -2.1875876e-05 4.2268304e-21)
(0.00028674991 -1.2511614e-06 -1.7286151e-21)
(0.00010303202 9.4214049e-07 1.1198383e-24)
(-0.00014625804 1.1643202e-06 -1.3500378e-23)
(-0.00039862516 1.2604554e-06 1.3738277e-23)
(-0.00064545986 1.3027712e-06 -7.9850581e-24)
(-0.00087175489 1.3124924e-06 2.1068628e-24)
(-0.0010764 1.3020888e-06 1.2660384e-23)
(-0.0012531949 1.2770633e-06 -7.520992e-24)
(-0.0013997459 1.2303385e-06 1.2004621e-25)
(-0.0015096995 1.1569413e-06 -2.4961411e-24)
(-0.0015771472 1.0404619e-06 2.5295691e-24)
(-0.001592849 8.8472803e-07 -8.0688015e-24)
(-0.001549058 6.9923221e-07 6.0222153e-25)
(-0.0014451863 4.8899162e-07 7.0907744e-24)
(-0.0012820158 2.6432622e-07 -1.7423393e-24)
(-0.0010656719 5.1368375e-08 1.124246e-24)
(-0.00080517922 -1.4723516e-07 1.8840799e-24)
(-0.00050785494 -3.1890535e-07 1.1290694e-27)
(-0.00019495116 -4.1459207e-07 1.433688e-24)
(0.00010943834 -4.4959518e-07 1.2219936e-24)
(0.00039280631 -4.3598523e-07 -2.0098035e-24)
(0.00064612194 -3.8862341e-07 8.5278279e-25)
(0.00086118566 -2.950586e-07 -2.8457804e-24)
(0.0010312719 -1.742894e-07 8.9509055e-26)
(0.0011512945 -2.0488616e-08 -3.0943655e-25)
(0.0012190955 1.3532341e-07 4.6696694e-25)
(0.0012378247 2.7390398e-07 -2.510515e-25)
(0.0012189712 3.5553711e-07 1.0231749e-25)
(0.0011796296 3.6128688e-07 6.5564892e-25)
(0.0011444552 2.5821589e-07 4.953995e-25)
(0.0011414319 4.7092851e-08 -4.3726488e-25)
(0.0012008495 -2.944414e-07 1.681931e-25)
(0.0013549144 -7.625474e-07 -3.1081296e-25)
(0.0016386628 -1.3769136e-06 1.1076648e-26)
(0.0020854266 -2.1099934e-06 5.8644856e-27)
(0.0027134458 -2.9038103e-06 -8.6527457e-25)
(0.003513775 -3.6669671e-06 5.9520323e-25)
(0.0044533672 -4.3188091e-06 2.1517377e-25)
(0.0054830015 -4.7742076e-06 2.749279e-25)
(0.0065416163 -4.9648067e-06 -1.7619906e-24)
(0.0075529133 -4.7834787e-06 9.8206852e-25)
(0.0084178147 -4.0948725e-06 1.6853193e-24)
(0.009012045 -2.8314464e-06 -7.1834706e-25)
(0.0092115843 -1.0894289e-06 6.9114641e-25)
(0.0089547252 8.0594483e-07 7.7550821e-25)
(0.0082756664 2.3209288e-06 -2.8499611e-24)
(0.0073498447 3.1144846e-06 2.7847934e-24)
(0.0063846088 3.1390053e-06 -5.698454e-24)
(0.0055470707 2.6176285e-06 7.4211251e-25)
(0.0049329817 1.8015685e-06 5.6082436e-25)
(0.0045675334 9.458765e-07 -3.2969355e-27)
(0.0044219502 2.1426121e-07 6.0168837e-25)
(0.0044403233 -2.9987939e-07 9.7723241e-25)
(0.004555235 -5.6525195e-07 -7.6334281e-26)
(0.0047119414 -6.646003e-07 -2.1851878e-25)
(0.0048747827 -6.1659818e-07 -5.1810314e-25)
(0.005021758 -5.054505e-07 2.0829184e-24)
(0.0051462379 -3.6617227e-07 4.9999604e-25)
(0.0052384016 -1.7867964e-07 1.3033252e-24)
(0.0052824124 1.0183226e-07 3.9628964e-25)
(0.0052547276 4.8619719e-07 2.3102103e-25)
(0.0051230825 1.036709e-06 -3.9772623e-24)
(0.0048559315 1.7032294e-06 -5.588835e-24)
(0.0044291035 2.4738061e-06 7.5169398e-26)
(0.0038337435 3.2816531e-06 1.5020898e-23)
(0.0030854922 3.9963732e-06 4.6169512e-25)
(0.0022167599 4.5944257e-06 1.8609726e-24)
(0.0012698762 4.9775142e-06 -1.5081811e-23)
(0.00028516588 5.1859262e-06 6.5444475e-25)
(-0.00071235221 5.245316e-06 1.3354865e-24)
(-0.0017052022 5.214647e-06 1.9327823e-23)
(-0.0026786108 5.082634e-06 -1.7410824e-23)
(-0.0036212617 4.8859384e-06 -1.8079676e-23)
(-0.0045245038 4.6141934e-06 2.0771483e-23)
(-0.0053831707 4.3054539e-06 8.1704421e-25)
(-0.0061942283 3.9482778e-06 -1.9468411e-23)
(-0.0069557146 3.567191e-06 5.7854476e-25)
(-0.0076672297 3.1557783e-06 9.2702358e-25)
(-0.008329253 2.7293617e-06 2.5244407e-23)
(-0.008942344 2.2786812e-06 -9.2443043e-25)
(-0.0095071465 1.8167778e-06 2.4634145e-24)
(-0.010024073 1.3321516e-06 9.654365e-25)
(-0.010493343 8.330349e-07 6.2729109e-25)
(-0.010915136 3.1704308e-07 5.5702741e-25)
(-0.01128965 -2.1070861e-07 -3.9091283e-23)
(-0.011616581 -7.5684869e-07 4.1823451e-23)
(-0.011895157 -1.3107649e-06 -3.9280756e-23)
(-0.012124528 -1.8733913e-06 2.1388512e-23)
(-0.012303549 -2.4373798e-06 -1.847766e-23)
(-0.012431101 -3.0007169e-06 1.3403801e-16)
(-0.012506428 -3.561709e-06 1.287832e-16)
(-0.012528865 -4.1187217e-06 1.8063011e-23)
(-0.012498229 -4.6565938e-06 -1.1663561e-16)
(-0.01241639 -5.167865e-06 -1.1031966e-16)
(-0.012286835 -5.6432602e-06 -5.6914128e-23)
(-0.012114486 -6.0830458e-06 1.3232836e-23)
(-0.011905629 -6.4825653e-06 -2.2305224e-23)
(-0.01166703 -6.8453945e-06 1.2152786e-23)
(-0.0114048 -7.1813971e-06 2.0801468e-23)
(-0.011122467 -7.4968189e-06 -3.5526833e-23)
(-0.010820041 -7.8159758e-06 2.5513949e-23)
(-0.010488424 -8.1526584e-06 -2.6428122e-23)
(-0.010115671 -8.5261482e-06 4.1838404e-23)
(-0.009667865 -8.9451719e-06 -2.1391593e-23)
(-0.0091300603 -9.3716494e-06 -2.9983734e-24)
(-0.0084201211 -9.8650005e-06 1.0625905e-24)
(-0.0075630099 -1.029201e-05 9.1964626e-25)
(-0.0062337471 -4.9954565e-05 4.662962e-22)
(-0.0048475667 -0.0002688191 1.4753287e-20)
(-0.0038511351 -0.0004232259 8.1867317e-23)
(-0.002902294 -0.00047442694 3.2776636e-21)
(-0.0021664711 -0.0004675577 -5.0402759e-21)
(-0.0017347999 -0.00046144794 4.3035689e-20)
(-0.0017148299 -0.00054075911 4.2582982e-20)
(-0.0020132465 -0.00073619239 -1.1126939e-19)
(-0.0024302721 -0.0010093057 3.056211e-20)
(-0.0027835272 -0.0012905541 7.2440186e-20)
(-0.0030283329 -0.0015466709 8.249103e-20)
(-0.0031894554 -0.0017751605 -3.287898e-19)
(-0.0033238305 -0.0019923182 -1.697226e-19)
(-0.0034376911 -0.0021883923 -4.3070895e-20)
(-0.0034108372 -0.0022782085 -5.3786403e-19)
(-0.0031044509 -0.0021536886 -5.6895953e-19)
(-0.0026005536 -0.0018580771 3.5253738e-19)
(-0.0021610013 -0.0015792011 -6.7830974e-19)
(-0.0019714629 -0.0014656216 -1.2189553e-20)
(-0.0021598011 -0.0016279674 1.0017647e-18)
(-0.0028333427 -0.0021546319 -5.3091724e-19)
(-0.0037652187 -0.0028737308 1.9063597e-19)
(-0.0044518543 -0.0034076657 5.6657311e-19)
(-0.0046194701 -0.0035586811 -1.4787996e-18)
(-0.0043353635 -0.0033669325 -1.4073921e-19)
(-0.0037574079 -0.0029470821 -1.2377773e-18)
(-0.0030314721 -0.0024052142 -1.6004241e-19)
(-0.0022314541 -0.0017931404 -3.7444071e-20)
(-0.0013943677 -0.001135971 7.001506e-19)
(-0.00039552417 -0.00032461948 1.0598294e-18)
(0.00062143007 0.00052681026 2.5703964e-19)
(0.001683285 0.0014269064 -1.3346073e-18)
(0.00287961 0.0024214902 -3.5046661e-19)
(0.0043044325 0.0035499302 7.0114804e-19)
(0.0060323868 0.0048163797 -6.6936194e-19)
(0.0081704755 0.0062197174 1.4911641e-19)
(0.010836978 0.0077170569 1.5879226e-19)
(0.014177251 0.0091953819 2.3038837e-19)
(0.018065061 0.010270814 2.0358844e-20)
(0.022052551 0.010376676 -1.3436056e-19)
(0.024007265 0.0085251654 2.344089e-19)
(0.022286834 0.0054449279 -7.0603076e-21)
(0.017705614 0.002680367 1.320943e-19)
(0.013014503 0.0010337585 5.8786711e-20)
(0.007580459 0.00021825522 -6.0066875e-21)
(0.006382369 3.6035101e-06 3.1557576e-22)
(0.00065385142 -2.8604805e-06 8.7776906e-22)
(0.019159983 8.798614e-05 8.6697828e-21)
(0.0054791585 6.4617226e-06 8.407706e-22)
(0.016793488 -0.00047418295 2.1256162e-20)
(0.0083159238 -0.00059847499 6.774044e-20)
(0.0051085778 -0.00072936057 -1.7485848e-20)
(-0.0028342041 0.00074686215 -3.7307163e-19)
(-0.005625625 0.0020313287 -4.5049895e-20)
(-0.005750401 0.0027428959 1.4423598e-19)
(-0.0046017051 0.0026521683 1.9932278e-19)
(-0.0040144176 0.0026438613 -8.8162221e-20)
(-0.0036420268 0.0026352734 -2.6988881e-19)
(-0.0033545998 0.0025945061 -4.4059444e-19)
(-0.00302577 0.0024528762 -6.9017162e-19)
(-0.0026961042 0.0022556795 -4.7270994e-20)
(-0.0023565884 0.0020082389 1.2380019e-19)
(-0.0020432232 0.0017521599 -2.8572388e-19)
(-0.0017791491 0.0015170544 -4.3428562e-19)
(-0.0015764407 0.0013243217 -4.1861077e-20)
(-0.0013900868 0.0011493486 -2.2292114e-19)
(-0.0012306277 0.0010029095 -1.3512537e-19)
(-0.0010639306 0.00085545476 -3.7033847e-19)
(-0.00091235819 0.00072491169 2.1197165e-19)
(-0.00074878931 0.00058858853 -3.3882792e-19)
(-0.00057663557 0.0004489 -8.5499521e-20)
(-0.00039623299 0.00030565868 -1.3849411e-19)
(-0.0001926543 0.00014657046 -9.0519545e-20)
(2.0732326e-05 -1.8357973e-05 5.3263054e-19)
(0.00024229792 -0.00018797695 5.7442358e-19)
(0.00046216473 -0.00035238266 -2.4310162e-19)
(0.00068272509 -0.00051056769 4.2641152e-19)
(0.00089190124 -0.00065065257 7.4045131e-20)
(0.0010892634 -0.00077009963 7.6884217e-20)
(0.0012733749 -0.0008657673 1.65713e-19)
(0.0014496978 -0.00093931234 -1.9590868e-19)
(0.0016225537 -0.00099074514 -8.6430238e-20)
(0.0017926101 -0.0010179293 4.4117057e-19)
(0.0019558888 -0.0010196407 -2.5242235e-19)
(0.0020984836 -0.00099365441 -1.4130038e-19)
(0.0022047699 -0.00093599263 -1.8857424e-20)
(0.0022632682 -0.00084723414 5.6658053e-20)
(0.0022631096 -0.00073107513 -1.2223835e-19)
(0.0021963171 -0.00059443104 -3.1054598e-19)
(0.0020589602 -0.00044712692 -2.8263174e-20)
(0.0018496282 -0.00030090191 3.1870099e-20)
(0.0015785888 -0.00016925409 -6.46053e-20)
(0.0012384901 -6.291221e-05 -4.3755907e-21)
(0.00087932677 2.8381245e-07 -4.0057642e-22)
(0.00033849278 8.3977598e-06 6.7802719e-24)
(-0.0003997142 9.6563905e-06 -2.2181075e-23)
(-0.0011517061 9.6387269e-06 2.5539945e-23)
(-0.001889601 9.153658e-06 -6.6610441e-24)
(-0.002566852 8.3757696e-06 -1.7744262e-23)
(-0.0031786906 7.4445449e-06 1.3486938e-23)
(-0.0037057165 6.3497681e-06 -9.082823e-25)
(-0.0041400829 5.0779974e-06 -8.4087625e-25)
(-0.0044625618 3.5630677e-06 -2.6647697e-24)
(-0.0046557255 1.7427905e-06 1.2266344e-24)
(-0.0046926566 -3.9573881e-07 -2.2745075e-24)
(-0.0045512709 -2.6828619e-06 1.371809e-23)
(-0.0042305001 -4.973052e-06 -1.4353773e-23)
(-0.0037334468 -7.1383242e-06 -1.5324183e-24)
(-0.0030778143 -9.0131317e-06 1.1120836e-23)
(-0.0022893517 -1.0596139e-05 -3.5824172e-24)
(-0.0013912737 -1.1627591e-05 1.9888093e-24)
(-0.00044885806 -1.1775584e-05 -4.8985402e-24)
(0.00046614114 -1.1214891e-05 1.6117923e-24)
(0.0013176368 -1.02417e-05 2.4743418e-24)
(0.0020791021 -8.9364313e-06 -4.7014062e-25)
(0.0027261715 -7.3400325e-06 -3.4415766e-24)
(0.003238845 -5.5124023e-06 -1.142618e-25)
(0.0036018664 -3.5438167e-06 4.4853986e-24)
(0.0038085068 -1.5956215e-06 -4.6007123e-24)
(0.0038676278 6.2154307e-08 4.246038e-24)
(0.0038128219 1.1665853e-06 -2.7181858e-24)
(0.0036942083 1.4603175e-06 1.5740094e-24)
(0.0035847144 7.3618368e-07 -2.6374218e-25)
(0.0035677824 -1.1075547e-06 -4.8767691e-25)
(0.0037344784 -4.1523052e-06 1.139392e-25)
(0.0041814671 -8.4890065e-06 1.1304849e-25)
(0.0050129746 -1.4137346e-05 4.3444951e-25)
(0.0063265662 -2.0780631e-05 -5.8363665e-25)
(0.0081734537 -2.7611937e-05 -7.3382193e-25)
(0.010524084 -3.3641417e-05 1.1322521e-24)
(0.013278984 -3.8089334e-05 1.2332277e-25)
(0.016293069 -4.0413345e-05 7.3065157e-25)
(0.019388301 -4.0094017e-05 -1.2864237e-24)
(0.022344153 -3.638597e-05 -2.4391494e-24)
(0.024875685 -2.8357961e-05 6.7765171e-25)
(0.026626695 -1.550484e-05 4.7203224e-24)
(0.027240894 9.476741e-07 -1.195087e-23)
(0.026540794 1.7918378e-05 1.0984202e-23)
(0.024614275 3.0753339e-05 -5.5933053e-24)
(0.021955836 3.6234663e-05 2.6714315e-24)
(0.019161435 3.4528704e-05 -1.9480827e-24)
(0.01671979 2.7793887e-05 1.1009036e-25)
(0.014917296 1.8744269e-05 1.2584016e-25)
(0.013833639 9.7670339e-06 -4.2717889e-25)
(0.013388167 2.4120946e-06 -1.6515591e-24)
(0.013418195 -2.5769633e-06 1.6048696e-24)
(0.013728327 -5.2010545e-06 -1.7456898e-25)
(0.014158169 -6.1018043e-06 7.6478701e-25)
(0.01460253 -5.8800142e-06 8.1380721e-25)
(0.014996441 -5.1071459e-06 -2.5187011e-24)
(0.015316433 -4.0222283e-06 1.419184e-25)
(0.015529732 -2.4290641e-06 1.1039213e-25)
(0.015586726 -7.9966867e-08 7.0997651e-24)
(0.015415535 3.3523831e-06 -1.0155365e-23)
(0.014921515 8.0134775e-06 4.3079854e-24)
(0.014014084 1.3736586e-05 -1.1842229e-23)
(0.012627292 2.0089945e-05 2.6206143e-23)
(0.01074352 2.6310077e-05 -3.5775605e-23)
(0.0084168577 3.1588292e-05 2.927082e-23)
(0.0057497358 3.5435167e-05 6.7309518e-24)
(0.0028709973 3.767839e-05 -3.9292527e-24)
(-0.00010051962 3.8651287e-05 -3.2308961e-23)
(-0.0030935429 3.8786121e-05 1.8758819e-23)
(-0.0060596354 3.8300504e-05 -1.4321578e-23)
(-0.0089566228 3.7306987e-05 -1.9764252e-23)
(-0.011752561 3.5920081e-05 2.3420574e-24)
(-0.014423372 3.4261659e-05 -2.1132741e-23)
(-0.016954972 3.2439196e-05 5.7379087e-23)
(-0.01933935 3.0512377e-05 -5.2291531e-23)
(-0.021571645 2.8534678e-05 1.0628271e-22)
(-0.023651271 2.6552836e-05 -2.098e-23)
(-0.025580097 2.4583434e-05 -6.232114e-24)
(-0.027360185 2.2633841e-05 -6.375512e-24)
(-0.028993706 2.0700919e-05 -2.1567768e-23)
(-0.030482136 1.8775176e-05 8.6756859e-24)
(-0.031826476 1.6853427e-05 -2.1237485e-23)
(-0.033027538 1.4933974e-05 -6.0238946e-24)
(-0.034086172 1.3008682e-05 8.6320155e-24)
(-0.035001801 1.106286e-05 -1.9838411e-23)
(-0.035772555 9.0868213e-06 -5.0597823e-24)
(-0.036396349 7.0772285e-06 -4.6220614e-24)
(-0.036870305 5.0336675e-06 9.3243309e-23)
(-0.037191683 2.9602461e-06 -1.1742728e-22)
(-0.037358764 8.5263154e-07 1.0308094e-22)
(-0.037370027 -1.2680455e-06 -5.3166535e-23)
(-0.037225206 -3.3517357e-06 -3.8403972e-24)
(-0.036930376 -5.3269245e-06 -1.3351903e-23)
(-0.03649611 -7.1359068e-06 -2.0560645e-24)
(-0.035937139 -8.7250008e-06 3.4622956e-23)
(-0.035272052 -1.0064172e-05 3.4945737e-23)
(-0.034520795 -1.1150659e-05 -4.1594484e-23)
(-0.033701341 -1.2042262e-05 -9.0983714e-24)
(-0.032824095 -1.2863232e-05 4.8479548e-24)
(-0.031888909 -1.3844683e-05 1.8528683e-23)
(-0.030869511 -1.5243332e-05 -3.3354219e-24)
(-0.029730314 -1.7460324e-05 -2.7195635e-24)
(-0.028374259 -2.0694643e-05 7.394738e-24)
(-0.02675563 -2.5521375e-05 -3.6821337e-24)
(-0.024642945 -3.1813287e-05 -1.3158607e-24)
(-0.022102724 -4.2463655e-05 -1.4385751e-23)
(-0.018242635 -0.0001704651 -1.8784384e-23)
(-0.01422137 -0.00082099808 5.4641063e-22)
(-0.011290276 -0.0012766834 1.0566882e-21)
(-0.0084881053 -0.0014258425 9.1271757e-21)
(-0.0062954422 -0.0013944613 -2.604517e-20)
(-0.0049844763 -0.0013573611 -6.5017989e-20)
(-0.0048853479 -0.0015701723 -1.5871313e-19)
(-0.0057430971 -0.0021349206 1.7424844e-19)
(-0.0069778062 -0.0029450822 2.350501e-20)
(-0.0080465018 -0.0037924121 -3.3715874e-19)
(-0.0088062475 -0.0045714986 -7.461702e-20)
(-0.0093191738 -0.0052693192 -2.7025805e-19)
(-0.0097425457 -0.0059295791 6.6546172e-19)
(-0.010087666 -0.0065211531 -1.7999789e-19)
(-0.010005055 -0.0067936795 5.1450663e-19)
(-0.0090973929 -0.0064270047 5.2722325e-19)
(-0.0076103251 -0.005545262 -7.4086746e-19)
(-0.0063185241 -0.0047096033 1.0865707e-18)
(-0.0057863346 -0.0043758594 -3.7198253e-19)
(-0.0064002678 -0.0048800336 -1.3654446e-18)
(-0.0084424763 -0.0064723669 2.1808674e-20)
(-0.011196565 -0.008625293 -4.903935e-19)
(-0.013186037 -0.010216333 -2.3374767e-19)
(-0.013643851 -0.010663696 -3.2152953e-19)
(-0.012782777 -0.010087293 2.7499707e-19)
(-0.011063612 -0.0088279207 -9.2819558e-19)
(-0.008909959 -0.0072012017 1.558384e-19)
(-0.0065362899 -0.0053619475 6.6022776e-19)
(-0.0040460207 -0.0033833288 -1.8279685e-18)
(-0.0010637778 -0.00093400114 -7.0931431e-19)
(0.0019555757 0.0016285344 -8.8374412e-19)
(0.0051008111 0.0043337849 2.1327243e-19)
(0.008643417 0.007320662 1.2105214e-18)
(0.012856406 0.010703609 -7.008898e-19)
(0.01795625 0.014492267 -4.8548975e-19)
(0.02425359 0.018678613 1.1634275e-18)
(0.032089699 0.023129065 -1.0167553e-18)
(0.041874911 0.02749667 -4.5340272e-19)
(0.053240499 0.030645372 -5.8785522e-21)
(0.064878404 0.030906953 2.3758542e-19)
(0.07078692 0.025447184 9.1843813e-19)
(0.066301898 0.016399631 9.2351982e-19)
(0.053468549 0.0082113655 1.2993242e-19)
(0.039902175 0.0032555503 -2.3505032e-19)
(0.023994837 0.00074456221 -9.8067592e-21)
(0.020030492 7.243251e-05 -2.8288283e-21)
(0.0034581592 -9.6715725e-06 9.1759395e-21)
(0.032426678 0.00013998911 1.3423406e-21)
(0.010651644 2.1698621e-05 4.5774946e-22)
(0.02851632 -0.00081282565 2.0351523e-21)
(0.014737549 -0.0010007449 -1.1431203e-19)
(0.0091669631 -0.001242377 -8.6454854e-20)
(-0.0042195053 0.001189437 3.5360159e-19)
(-0.0092829325 0.0033781383 1.8721977e-19)
(-0.0096781336 0.0046140369 6.5266344e-20)
(-0.0078065975 0.004490515 1.0693313e-19)
(-0.0068165252 0.0044843713 5.7179096e-20)
(-0.0061837194 0.0044712439 -5.052191e-20)
(-0.005695391 0.0044017481 2.7842635e-19)
(-0.0051391658 0.0041623937 5.2207053e-19)
(-0.0045812821 0.0038286403 -3.8548254e-20)
(-0.0040069662 0.0034101337 -4.2439876e-19)
(-0.0034753795 0.0029760213 -2.5114872e-20)
(-0.0030258016 0.0025766173 2.2728231e-19)
(-0.0026791024 0.0022477454 4.6111032e-19)
(-0.0023600269 0.0019488882 1.7276021e-19)
(-0.0020862747 0.0016979407 1.1798605e-20)
(-0.001800945 0.0014459007 3.2445007e-19)
(-0.0015413909 0.0012225393 -2.4161795e-19)
(-0.0012627368 0.00099013251 -3.7343405e-19)
(-0.00097045553 0.00075276172 1.8764865e-19)
(-0.00066557057 0.00051018252 6.6367543e-20)
(-0.00032297743 0.00024188964 5.6864968e-20)
(3.5320227e-05 -3.5577464e-05 -4.2165221e-19)
(0.00040656517 -0.00032023977 -2.4191449e-19)
(0.00077409016 -0.00059547704 2.2585175e-19)
(0.0011420777 -0.00085966755 5.2033097e-20)
(0.0014904443 -0.001093034 2.1334558e-19)
(0.0018183816 -0.0012913699 -4.5393954e-20)
(0.0021236567 -0.0014496677 2.8987758e-19)
(0.0024156295 -0.0015709682 2.054125e-19)
(0.0027019798 -0.0016555833 -2.0551521e-19)
(0.0029841721 -0.0017000931 3.6015448e-20)
(0.0032558546 -0.0017024208 -1.547586e-19)
(0.0034942733 -0.00165885 -2.5324485e-19)
(0.0036735676 -0.001562709 1.4732237e-19)
(0.0037745217 -0.0014147923 -5.1384887e-19)
(0.0037789416 -0.0012210976 2.5931806e-19)
(0.0036732979 -0.00099299175 2.1298873e-19)
(0.0034507399 -0.0007466999 5.89706e-20)
(0.0031084838 -0.00050172136 8.3613971e-20)
(0.0026632805 -0.00028039447 -4.7032572e-20)
(0.0021029084 -0.00010095894 4.8470252e-20)
(0.0015099793 7.8124848e-06 -2.7725021e-21)
(0.00061479688 2.4818198e-05 2.6808604e-23)
(-0.00061360891 2.8720599e-05 -7.4714164e-24)
(-0.0018724722 2.8687063e-05 -1.2724704e-23)
(-0.0031110984 2.7214682e-05 -7.3763812e-25)
(-0.0042492064 2.4789744e-05 3.0556872e-24)
(-0.0052765308 2.188706e-05 1.4491104e-23)
(-0.0061593261 1.8469596e-05 -2.6171599e-23)
(-0.0068833476 1.451896e-05 1.8644019e-23)
(-0.0074160013 9.85527e-06 7.5145074e-24)
(-0.0077283023 4.3209303e-06 -1.0163646e-23)
(-0.0077762018 -2.1560709e-06 -5.0635597e-24)
(-0.0075243151 -9.0740821e-06 6.7804672e-24)
(-0.0069717601 -1.5940407e-05 -5.0229278e-25)
(-0.0061248009 -2.2412858e-05 8.676323e-24)
(-0.0050121418 -2.8023718e-05 -1.0246389e-23)
(-0.0036752952 -3.2705995e-05 2.5011124e-24)
(-0.002155405 -3.5693778e-05 -1.0425768e-24)
(-0.00056434063 -3.6015018e-05 -2.1450223e-25)
(0.0009778957 -3.4239178e-05 8.0526434e-24)
(0.0024129234 -3.1250884e-05 -1.0506101e-23)
(0.0036967933 -2.7290107e-05 1.0242146e-23)
(0.0047888397 -2.2464373e-05 -3.9083954e-24)
(0.0056556424 -1.6964969e-05 -3.5410151e-24)
(0.0062715245 -1.1036786e-05 2.2461532e-24)
(0.0066247997 -5.1632982e-06 -2.3915823e-25)
(0.0067295325 -1.1679246e-07 -3.5642976e-25)
(0.0066409523 3.2904649e-06 -1.2742395e-24)
(0.0064416771 4.3164754e-06 1.7911183e-24)
(0.0062527723 2.3099659e-06 1.2436633e-24)
(0.0062138173 -3.0544674e-06 -1.0507536e-24)
(0.0064783641 -1.2042338e-05 3.3964779e-25)
(0.0072091449 -2.4895055e-05 -6.646898e-25)
(0.0085801831 -4.1643605e-05 8.6659126e-25)
(0.010752085 -6.1269158e-05 -1.8342288e-24)
(0.01380611 -8.1331375e-05 1.0017295e-24)
(0.017689022 -9.8907168e-05 -1.7309188e-25)
(0.022233442 -0.00011175453 2.566646e-24)
(0.027199335 -0.00011833553 -1.9037352e-24)
(0.032294763 -0.00011721311 2.3162889e-24)
(0.037160797 -0.00010628258 2.3802393e-25)
(0.041335542 -8.2894634e-05 -8.3892861e-25)
(0.044243404 -4.5631694e-05 -2.7873672e-24)
(0.045307044 2.0283043e-06 4.4108819e-24)
(0.044237639 5.1402839e-05 6.1478759e-24)
(0.041162754 8.9249239e-05 -2.6531033e-24)
(0.036863988 0.00010593675 -5.6427861e-24)
(0.032304686 0.00010157861 4.3723601e-24)
(0.028290794 8.2262265e-05 2.2042737e-24)
(0.025305709 5.5894454e-05 -3.8514242e-24)
(0.0234918 2.9577041e-05 2.2370819e-24)
(0.022723001 7.9772713e-06 -3.9819169e-25)
(0.022733049 -6.6887214e-06 -8.9497101e-25)
(0.023203128 -1.4413681e-05 -8.9745075e-25)
(0.023868157 -1.7037643e-05 -9.1049597e-25)
(0.024552984 -1.6322481e-05 -6.0593512e-25)
(0.025149039 -1.3912973e-05 -1.0302815e-24)
(0.025611329 -1.0454942e-05 2.5686032e-24)
(0.025880189 -5.4117294e-06 -5.0332355e-24)
(0.025868973 1.967302e-06 2.7241906e-24)
(0.025454725 1.2547441e-05 6.6904138e-24)
(0.024481261 2.6734085e-05 -9.6451599e-24)
(0.022801755 4.3935901e-05 -6.5618794e-24)
(0.020314479 6.279e-05 1.3396e-23)
(0.017002395 8.0999809e-05 1.5231486e-23)
(0.012966934 9.6176727e-05 -6.5086729e-24)
(0.0083881576 0.00010695806 -7.5548661e-24)
(0.0034855962 0.00011292438 -2.7335965e-23)
(-0.0015423584 0.00011519846 1.776334e-23)
(-0.006582184 0.00011510721 -9.7786116e-24)
(-0.011558465 0.00011329456 2.0115589e-23)
(-0.016402696 0.00011003377 5.315416e-23)
(-0.02106395 0.00010569431 -8.8426076e-24)
(-0.025504415 0.00010060611 -9.9894827e-23)
(-0.029702388 9.5100006e-05 2.2112685e-23)
(-0.033645986 8.9331006e-05 -2.1641715e-23)
(-0.037328527 8.3466372e-05 6.8180303e-23)
(-0.040749935 7.7621543e-05 2.4216461e-23)
(-0.043914009 7.1854835e-05 -1.2093639e-24)
(-0.046824801 6.6170312e-05 -9.2439677e-23)
(-0.049486336 6.0564529e-05 3.438074e-23)
(-0.051901533 5.5001906e-05 -4.6347263e-23)
(-0.054072609 4.9479889e-05 5.9050329e-23)
(-0.056001361 4.3988313e-05 5.7646586e-23)
(-0.057689595 3.8504568e-05 -7.9028104e-23)
(-0.059136863 3.2973187e-05 -7.5848373e-23)
(-0.060340678 2.7368155e-05 2.1692428e-22)
(-0.061298208 2.1668129e-05 -2.0021967e-22)
(-0.062005443 1.5861858e-05 6.2057549e-23)
(-0.062458696 9.9679882e-06 4.9537646e-23)
(-0.062655938 4.00945e-06 -3.7736716e-23)
(-0.062595041 -1.9768636e-06 1.8585915e-23)
(-0.062276121 -7.8593748e-06 6.6593743e-23)
(-0.061710277 -1.3421151e-05 -3.5380469e-23)
(-0.06091552 -1.849464e-05 -7.550393e-23)
(-0.059916593 -2.292893e-05 -2.4389709e-23)
(-0.058744362 -2.6617867e-05 3.6585427e-23)
(-0.057431762 -2.9577183e-05 8.7937659e-23)
(-0.056008306 -3.1989833e-05 -2.6589751e-23)
(-0.054490988 -3.4207754e-05 1.955514e-23)
(-0.052878924 -3.6928285e-05 -8.3949802e-23)
(-0.051129196 -4.0877706e-05 -9.8673957e-24)
(-0.049181621 -4.7319037e-05 2.109941e-23)
(-0.046880245 -5.6689422e-05 1.7402458e-23)
(-0.044144945 -7.1059224e-05 9.2792326e-24)
(-0.040611373 -8.9313621e-05 -7.7332327e-24)
(-0.036370166 -0.00012150225 3.70336e-24)
(-0.030051429 -0.00034543707 -1.1250221e-21)
(-0.023478704 -0.0014139903 -3.8198965e-21)
(-0.018625357 -0.002156934 -1.2315076e-21)
(-0.013978951 -0.0023946537 -1.3779541e-20)
(-0.010317237 -0.0023207197 1.1336015e-20)
(-0.008096756 -0.0022232501 1.1530354e-19)
(-0.0078806054 -0.0025320908 2.4155683e-20)
(-0.0092770518 -0.0034358472 -2.5515486e-19)
(-0.011340209 -0.0047729381 -3.8938734e-20)
(-0.013161316 -0.0061966279 2.1932274e-19)
(-0.014484267 -0.0075201742 1.0952021e-19)
(-0.015395901 -0.0087113763 1.729984e-19)
(-0.016141794 -0.0098332484 6.4806112e-19)
(-0.016729945 -0.01082982 5.9048618e-19)
(-0.016587304 -0.01129199 -5.5554943e-20)
(-0.015072326 -0.010692405 -8.8344057e-19)
(-0.01259966 -0.0092281669 -2.970326e-19)
(-0.010461449 -0.0078329766 8.2935327e-19)
(-0.0096199177 -0.0072891 1.0031296e-19)
(-0.010728117 -0.00816684 -2.3365203e-19)
(-0.014204536 -0.010854954 3.8259589e-19)
(-0.018794472 -0.014447676 -1.0717773e-19)
(-0.022056295 -0.017087786 -1.5999589e-19)
(-0.022766315 -0.017824396 1.9403211e-18)
(-0.021296255 -0.016856673 1.9470933e-19)
(-0.018409452 -0.014749271 7.6263228e-20)
(-0.014802633 -0.012025324 2.269084e-18)
(-0.010827896 -0.008942606 -9.7556646e-19)
(-0.0066477512 -0.0056200973 1.2780927e-19)
(-0.0016279464 -0.0014942927 -4.3275113e-19)
(0.0034311515 0.0028060222 1.1934451e-18)
(0.0086950124 0.0073377296 2.2733031e-18)
(0.014623436 0.012335714 -1.2175644e-18)
(0.021663278 0.017983943 -1.6251857e-18)
(0.030168338 0.024293211 -2.6240388e-19)
(0.040644842 0.031240955 -1.9646406e-18)
(0.053644342 0.038595194 8.7908025e-19)
(0.069811573 0.045762949 8.0008212e-19)
(0.088526994 0.050880561 -3.3661885e-20)
(0.10761603 0.051223405 2.5149607e-19)
(0.11755289 0.042297494 -6.3765162e-19)
(0.11089729 0.027551081 -2.1614499e-19)
(0.090591839 0.014066218 -8.2911923e-19)
(0.068458866 0.0057432377 1.7895627e-19)
(0.042332801 0.0014215707 -5.2062079e-20)
(0.034988754 0.00023439585 -3.4018637e-22)
(0.0079814329 -1.3649268e-05 -1.7201462e-20)
(0.046234676 0.00019003551 -2.2668421e-20)
(0.017136436 4.8689704e-05 -1.1552766e-21)
(0.040656579 -0.001170005 -2.162237e-20)
(0.021982132 -0.0014073975 9.0969367e-20)
(0.013811145 -0.0017802643 -2.6205389e-21)
(-0.0051313366 0.0015753555 -1.2174162e-19)
(-0.012857197 0.0047131414 1.0326817e-19)
(-0.013693478 0.0065189946 -1.7274799e-19)
(-0.011138892 0.0063890098 1.047383e-19)
(-0.0097355405 0.0063924906 9.9129029e-20)
(-0.0088311368 0.006375958 4.6074876e-19)
(-0.0081330404 0.006276125 -5.2122976e-19)
(-0.0073417617 0.0059360624 1.975833e-19)
(-0.0065475757 0.0054612491 -7.6261802e-20)
(-0.0057303961 0.0048663878 6.2136175e-20)
(-0.0049718745 0.0042479525 5.7412632e-19)
(-0.0043282098 0.0036777333 5.1836074e-20)
(-0.0038294875 0.0032060219 -9.482325e-20)
(-0.0033702458 0.002776962 1.0471741e-20)
(-0.0029751076 0.0024154458 4.3922976e-19)
(-0.0025646036 0.0020533464 -2.1590537e-19)
(-0.0021909195 0.0017321139 -6.0337079e-20)
(-0.0017917709 0.0013991246 3.8015244e-19)
(-0.0013744961 0.0010601794 -1.7508565e-19)
(-0.00094111495 0.00071501655 2.7766937e-19)
(-0.00045621652 0.00033493645 3.600468e-19)
(4.9881382e-05 -5.7144801e-05 8.9776272e-20)
(0.00057320652 -0.00045837087 -1.3375939e-19)
(0.0010901028 -0.00084530234 -1.2234485e-19)
(0.0016066574 -0.001215765 -3.084392e-19)
(0.002094809 -0.0015421217 -4.1485518e-20)
(0.0025532159 -0.0018185246 -1.4630097e-19)
(0.0029789596 -0.0020383101 -3.4174345e-19)
(0.0033854867 -0.0022061484 -7.2760105e-19)
(0.0037842306 -0.0023229191 -2.5670879e-19)
(0.0041777788 -0.0023840499 -1.2132941e-19)
(0.0045576451 -0.002386583 2.4501453e-19)
(0.0048925696 -0.0023252977 3.4649556e-19)
(0.005146624 -0.002190788 6.8917564e-20)
(0.0052927925 -0.0019839092 3.1327326e-19)
(0.0053055113 -0.0017128022 -2.1446289e-19)
(0.0051655528 -0.0013931182 -2.5602726e-19)
(0.0048629657 -0.0010473283 -2.5064605e-20)
(0.0043932924 -0.00070261448 -8.7372492e-20)
(0.0037793794 -0.00038997697 8.5220766e-20)
(0.0030042677 -0.00013545523 -7.293842e-20)
(0.0021821698 2.2184808e-05 4.2410837e-22)
(0.00093806881 5.1508531e-05 3.2376991e-24)
(-0.00077852702 5.998447e-05 -3.4006036e-24)
(-0.0025493367 6.0145101e-05 3.1371733e-24)
(-0.0042964048 5.7175709e-05 2.9982151e-24)
(-0.0059036865 5.210272e-05 -5.7244511e-24)
(-0.0073533421 4.5971891e-05 -1.8398757e-23)
(-0.0085961211 3.8714133e-05 2.393543e-23)
(-0.0096103378 3.0323265e-05 -1.7271695e-23)
(-0.010349588 2.0443485e-05 2.183812e-23)
(-0.010773307 8.7781565e-06 -5.093518e-24)
(-0.010821071 -4.8157235e-06 -2.7654829e-24)
(-0.010445519 -1.9299191e-05 -9.3498101e-24)
(-0.0096466822 -3.364698e-05 1.2863543e-23)
(-0.0084348072 -4.7173193e-05 -1.2110728e-23)
(-0.0068488719 -5.8954575e-05 7.4743213e-25)
(-0.0049451423 -6.8764202e-05 -1.2526934e-24)
(-0.002784831 -7.4940398e-05 8.2078372e-24)
(-0.00052879098 -7.5519572e-05 4.7565099e-24)
(0.001654273 -7.1761534e-05 -8.0923416e-24)
(0.0036857809 -6.5516664e-05 -1.9475097e-24)
(0.0055043847 -5.7241829e-05 6.4830286e-24)