/*--------------------------------*- C++ -*----------------------------------*\
| =========                 |                                                 |
| \\      /  F ield         | OpenFOAM: The Open Source CFD Toolbox           |
|  \\    /   O peration     | Version:  2.4.0                                 |
|   \\  /    A nd           | Web:      www.OpenFOAM.org                      |
|    \\/     M anipulation  |                                                 |
\*---------------------------------------------------------------------------*/
FoamFile
{
    version     2.0;
    format      ascii;
    class       volScalarField;
    location    "340";
    object      nut;
}
// * * * * * * * * * * * * * * * * * * * * * * * * * * * * * * * * * * * * * //

dimensions      [0 2 -1 0 0 0 0];

internalField   nonuniform List<scalar> 
32000
(
1.2702175e-08
4.5807813e-09
8.875911e-09
3.4766045e-09
2.1859738e-09
2.1082863e-10
4.6453104e-10
2.6933967e-10
2.3239968e-10
1.6176847e-10
1.3694182e-10
1.1779408e-10
1.0446765e-10
9.3695732e-11
8.4382267e-11
7.6517685e-11
7.0044291e-11
6.5285031e-11
6.0897292e-11
5.6246413e-11
5.1609184e-11
4.6027663e-11
3.9916853e-11
3.2954549e-11
3.596455e-11
4.5920939e-11
5.6593401e-11
6.7634417e-11
7.8621419e-11
8.8957602e-11
9.8055871e-11
1.0529512e-10
1.1011298e-10
1.1215498e-10
1.1145712e-10
1.0845195e-10
1.0383707e-10
9.8276303e-11
9.2688863e-11
8.7935273e-11
8.4299883e-11
8.1872676e-11
8.0639764e-11
8.0418038e-11
8.127206e-11
8.315013e-11
8.7386703e-11
9.4176391e-11
1.0182018e-10
1.1112251e-10
1.2168479e-10
1.3356674e-10
1.4660515e-10
1.6068557e-10
1.7542301e-10
1.9030457e-10
2.045505e-10
2.1704184e-10
2.2625214e-10
2.3037525e-10
2.275199e-10
2.1623118e-10
1.9598419e-10
1.6740557e-10
1.3233318e-10
9.3866635e-11
5.5780861e-11
5.870207e-11
8.3743147e-11
9.5236589e-11
9.4508484e-11
8.6654731e-11
7.502941e-11
6.3300757e-11
5.4818584e-11
4.9825387e-11
4.8808606e-11
5.1435488e-11
5.7321586e-11
6.6017128e-11
7.7217424e-11
9.0633669e-11
1.0585559e-10
1.2230139e-10
1.3904595e-10
1.5489394e-10
1.6810056e-10
1.7643223e-10
1.7725659e-10
1.6789296e-10
1.4342192e-10
9.8212437e-11
4.6674029e-11
1.3435458e-10
2.4453257e-10
3.7847079e-10
5.3203182e-10
6.9591057e-10
8.4716417e-10
9.4292994e-10
9.2239157e-10
7.3233954e-10
4.2195937e-10
1.3805061e-10
1.2476819e-10
1.892293e-10
1.9077296e-10
1.9497159e-10
2.287205e-10
2.5478066e-10
2.2908341e-10
1.6676319e-10
1.0650005e-10
6.470831e-11
4.088847e-11
5.4834495e-11
7.21185e-11
9.6482222e-11
1.3082563e-10
1.7628056e-10
2.3226996e-10
2.9775255e-10
3.7028793e-10
4.448422e-10
5.1302159e-10
5.6305316e-10
5.8234101e-10
5.6260332e-10
5.0415627e-10
4.1865605e-10
3.281004e-10
2.564342e-10
2.2019109e-10
2.2167159e-10
2.4773716e-10
2.7751801e-10
2.9465262e-10
2.9218587e-10
2.6642606e-10
2.1141558e-10
1.2495636e-10
7.2361172e-11
2.0452541e-10
3.5255209e-10
5.090826e-10
6.6791372e-10
8.2437703e-10
9.7512795e-10
1.1183395e-09
1.2508591e-09
1.3714931e-09
1.4601505e-09
1.5068664e-09
1.302686e-09
1.0176817e-09
8.9715961e-10
8.0753135e-10
7.4933082e-10
7.1036983e-10
6.8365262e-10
6.6516065e-10
6.543055e-10
6.4766183e-10
6.4390125e-10
6.4420811e-10
6.545262e-10
6.7258459e-10
6.9151532e-10
7.0897015e-10
7.2345791e-10
7.3391663e-10
7.3964723e-10
7.4017581e-10
7.3263743e-10
7.121873e-10
6.7777463e-10
6.331522e-10
5.8333731e-10
5.2844647e-10
4.700408e-10
4.0929803e-10
3.4646395e-10
2.8228842e-10
2.1629399e-10
1.483792e-10
5.3132631e-11
1.05099e-10
2.3897954e-10
4.1129873e-10
6.4037692e-10
9.7206317e-10
1.3454903e-09
2.0264621e-09
1.8704621e-09
3.2507121e-09
2.0434473e-09
4.6607854e-09
4.6477733e-09
9.6067493e-09
4.6722379e-09
6.892704e-09
4.1097398e-09
5.5192948e-09
2.9363861e-09
2.0436024e-09
2.6992313e-10
5.4893145e-10
4.687546e-10
3.2121974e-10
2.4756829e-10
2.0296625e-10
1.7590489e-10
1.5418435e-10
1.3667729e-10
1.209288e-10
1.0725765e-10
9.5652265e-11
8.6746367e-11
7.8679645e-11
7.0492461e-11
6.2538743e-11
5.3474821e-11
4.3867712e-11
3.3237248e-11
3.656275e-11
4.8817441e-11
6.1848175e-11
7.5092033e-11
8.7958781e-11
9.9638887e-11
1.0934895e-10
1.1630337e-10
1.1984968e-10
1.196594e-10
1.1594976e-10
1.0948081e-10
1.0135804e-10
9.254981e-11
8.4158005e-11
7.7143596e-11
7.1782851e-11
6.8130404e-11
6.6143737e-11
6.5628932e-11
6.6687871e-11
6.9357833e-11
7.5224396e-11
8.3428897e-11
9.1822833e-11
1.0149584e-10
1.1218529e-10
1.2399085e-10
1.3678864e-10
1.504852e-10
1.6472461e-10
1.7902796e-10
1.9266468e-10
2.045841e-10
2.1335415e-10
2.1728271e-10
2.1460775e-10
2.0398984e-10
1.8496551e-10
1.5816473e-10
1.2534776e-10
8.9452337e-11
5.4138564e-11
5.7558955e-11
8.1406359e-11
9.2493673e-11
9.1894779e-11
8.4428283e-11
7.3363914e-11
6.2209968e-11
5.4145229e-11
4.941421e-11
4.8459615e-11
5.0946791e-11
5.6483943e-11
6.4625131e-11
7.506734e-11
8.7532359e-11
1.0163574e-10
1.1683799e-10
1.3228223e-10
1.4686064e-10
1.5895008e-10
1.6648235e-10
1.6696426e-10
1.579581e-10
1.3480206e-10
9.2392416e-11
4.5803878e-11
1.2756013e-10
2.3102932e-10
3.5696361e-10
5.0140082e-10
6.5536131e-10
7.9686929e-10
8.8523965e-10
8.6390971e-10
6.8535126e-10
3.9740416e-10
1.3605486e-10
1.2319477e-10
1.8288778e-10
1.8457426e-10
1.8833474e-10
2.1921213e-10
2.4286795e-10
2.1855925e-10
1.6016022e-10
1.0365897e-10
6.4438336e-11
4.2101591e-11
5.4488268e-11
7.0535548e-11
9.3188092e-11
1.2514558e-10
1.6748247e-10
2.1969794e-10
2.808602e-10
3.4874881e-10
4.1872669e-10
4.8300647e-10
5.3061619e-10
5.4974162e-10
5.3250403e-10
4.7908468e-10
4.0012258e-10
3.1593685e-10
2.4884351e-10
2.1443892e-10
2.1517642e-10
2.3910617e-10
2.6677135e-10
2.8263835e-10
2.7990347e-10
2.5495498e-10
2.0226422e-10
1.1997265e-10
7.0613795e-11
1.9545974e-10
3.3706063e-10
4.881789e-10
6.430831e-10
7.9748459e-10
9.4834646e-10
1.0940932e-09
1.2319195e-09
1.3608413e-09
1.4613696e-09
1.5219653e-09
1.3274684e-09
1.0390669e-09
9.1648415e-10
8.285613e-10
7.7467413e-10
7.4225003e-10
7.2386096e-10
7.153512e-10
7.1612033e-10
7.2251114e-10
7.3284558e-10
7.4837641e-10
7.7593449e-10
8.1263521e-10
8.5020088e-10
8.8554069e-10
9.1651178e-10
9.4149335e-10
9.5931372e-10
9.6914092e-10
9.6708033e-10
9.4718805e-10
9.0838329e-10
8.5564042e-10
7.9489966e-10
7.2620327e-10
6.5139293e-10
5.7184667e-10
4.8770087e-10
3.9975216e-10
3.0716861e-10
2.0934286e-10
7.2164323e-11
1.5161708e-10
3.4910155e-10
5.9539553e-10
9.1645738e-10
1.3355432e-09
1.8556167e-09
2.4404323e-09
2.6594116e-09
2.935788e-09
1.5433604e-09
3.3416598e-09
3.4844718e-09
5.7089189e-09
4.4249895e-09
5.9190899e-10
8.4544257e-10
7.5466039e-10
9.5622047e-10
7.7406445e-10
1.1648386e-10
3.0134118e-10
4.1185408e-10
2.290707e-10
2.0173973e-10
1.6217867e-10
1.4430328e-10
1.2679709e-10
1.1280619e-10
9.9557571e-11
8.7740355e-11
7.739079e-11
6.9155027e-11
6.1775736e-11
5.4548365e-11
4.7719836e-11
4.0311854e-11
3.2735695e-11
2.4629929e-11
2.6459208e-11
3.4279242e-11
4.2514749e-11
5.0713519e-11
5.8416435e-11
6.5050831e-11
7.0096138e-11
7.3076785e-11
7.3655918e-11
7.175302e-11
6.765735e-11
6.199515e-11
5.5593379e-11
4.9152795e-11
4.3305399e-11
3.8519425e-11
3.4863884e-11
3.229134e-11
3.0717118e-11
3.0009635e-11
3.0181518e-11
3.1256313e-11
3.3787766e-11
3.7206376e-11
4.0721783e-11
4.4711568e-11
4.9094739e-11
5.3904238e-11
5.909366e-11
6.4623399e-11
7.034762e-11
7.6070867e-11
8.1496816e-11
8.6201116e-11
8.9608591e-11
9.1044369e-11
8.9815621e-11
8.5407109e-11
7.7658339e-11
6.6850305e-11
5.3711604e-11
3.9432189e-11
2.5514608e-11
2.7014672e-11
3.6554734e-11
4.1008588e-11
4.0758006e-11
3.7726096e-11
3.3247137e-11
2.8743345e-11
2.5489544e-11
2.3587924e-11
2.3204406e-11
2.4194548e-11
2.6388585e-11
2.9599574e-11
3.3701e-11
3.8580541e-11
4.4087477e-11
5.0012191e-11
5.6022085e-11
6.1686027e-11
6.6370193e-11
6.9271967e-11
6.9379134e-11
6.5786277e-11
5.660335e-11
3.9859054e-11
2.1745657e-11
5.4036401e-11
9.5218536e-11
1.4545648e-10
2.0312387e-10
2.6449297e-10
3.205106e-10
3.5461893e-10
3.446793e-10
2.7318547e-10
1.602059e-10
5.8931722e-11
5.3938713e-11
7.7287717e-11
7.8121595e-11
7.9522754e-11
9.1421261e-11
1.0055933e-10
9.0960746e-11
6.7863004e-11
4.5461077e-11
2.9903654e-11
2.1066068e-11
2.5826508e-11
3.2136565e-11
4.1074855e-11
5.3711056e-11
7.0481754e-11
9.1203958e-11
1.1552031e-10
1.4255915e-10
1.7048014e-10
1.9617524e-10
2.1525832e-10
2.230112e-10
2.1632219e-10
1.9529557e-10
1.6415204e-10
1.3092744e-10
1.0443444e-10
9.0845526e-11
9.1176279e-11
1.0074737e-10
1.1182598e-10
1.1817374e-10
1.1701662e-10
1.0689143e-10
8.5627006e-11
5.2524562e-11
3.2751869e-11
8.309486e-11
1.4111712e-10
2.0387968e-10
2.6919765e-10
3.3546174e-10
4.0157427e-10
4.6705905e-10
5.3097346e-10
5.9314446e-10
6.4549293e-10
6.8228347e-10
6.0392549e-10
4.7558195e-10
4.2140531e-10
3.8502436e-10
3.6541145e-10
3.5687348e-10
3.5594636e-10
3.6082459e-10
3.7132977e-10
3.8579474e-10
4.0328662e-10
4.2446505e-10
4.5306009e-10
4.8726535e-10
5.2225532e-10
5.5596482e-10
5.8677274e-10
6.1334746e-10
6.346202e-10
6.4978267e-10
6.5607115e-10
6.4988842e-10
6.3074766e-10
6.0196827e-10
5.6680063e-10
5.2512735e-10
4.7791391e-10
4.258467e-10
3.687486e-10
3.0684708e-10
2.3925859e-10
1.6491885e-10
5.9660148e-11
1.2349683e-10
2.7759118e-10
4.632459e-10
6.9928962e-10
9.7136472e-10
1.3408729e-09
1.5247837e-09
1.8738047e-09
1.3146645e-09
5.0134613e-10
1.1089203e-09
1.0955923e-09
7.3696373e-10
9.4792174e-10
5.70212e-12
3.3650495e-11
1.6113201e-11
1.5508275e-10
1.6622159e-10
2.6622342e-11
1.0311394e-10
2.3695864e-10
1.0802948e-10
1.1159242e-10
8.8640842e-11
8.1845553e-11
7.2486971e-11
6.4985879e-11
5.731786e-11
5.0203895e-11
4.3708262e-11
3.8319401e-11
3.3556345e-11
2.90883e-11
2.5018688e-11
2.0870604e-11
1.6834081e-11
1.2728591e-11
1.3120397e-11
1.6120677e-11
1.9227439e-11
2.2201358e-11
2.4803561e-11
2.6784921e-11
2.7948141e-11
2.8147875e-11
2.7327103e-11
2.5554176e-11
2.304228e-11
2.0113067e-11
1.7136955e-11
1.4398844e-11
1.2073677e-11
1.024519e-11
8.8745869e-12
7.8984294e-12
7.25523e-12
6.8869247e-12
6.7752293e-12
6.9195819e-12
7.3725434e-12
7.9701729e-12
8.6136875e-12
9.3396424e-12
1.0138632e-11
1.1012794e-11
1.1953917e-11
1.2953709e-11
1.3984634e-11
1.5010056e-11
1.5974962e-11
1.6801202e-11
1.7383855e-11
1.7601341e-11
1.7332551e-11
1.6489777e-11
1.5050996e-11
1.3074767e-11
1.0699392e-11
8.1435667e-12
5.6864506e-12
5.9685542e-12
7.6774086e-12
8.4771798e-12
8.4270349e-12
7.8700438e-12
7.0498129e-12
6.2276817e-12
5.6345933e-12
5.290216e-12
5.2214672e-12
5.3996975e-12
5.7909788e-12
6.3596465e-12
7.0818537e-12
7.9373465e-12
8.8999706e-12
9.9336782e-12
1.0981232e-11
1.1967974e-11
1.2783597e-11
1.3289856e-11
1.3296943e-11
1.2665148e-11
1.1039866e-11
8.0778141e-12
4.8677581e-12
1.0628855e-11
1.8058335e-11
2.7159581e-11
3.7623675e-11
4.8729443e-11
5.8742473e-11
6.4548322e-11
6.2295277e-11
4.9236008e-11
2.9275616e-11
1.1761564e-11
1.0940853e-11
1.5048104e-11
1.5251999e-11
1.547816e-11
1.7519142e-11
1.9109382e-11
1.7425718e-11
1.3313631e-11
9.3027038e-12
6.5161823e-12
4.9414411e-12
5.7760629e-12
6.8923895e-12
8.4842904e-12
1.0743482e-11
1.3750799e-11
1.747653e-11
2.1857981e-11
2.6737339e-11
3.1778232e-11
3.6410452e-11
3.9831523e-11
4.1187819e-11
3.9946404e-11
3.6148329e-11
3.0569452e-11
2.465578e-11
1.9970248e-11
1.7596462e-11
1.770746e-11
1.9465675e-11
2.1478315e-11
2.2619781e-11
2.2391747e-11
2.0536719e-11
1.6682248e-11
1.0715459e-11
7.137014e-12
1.6267895e-11
2.7025017e-11
3.8882051e-11
5.1483604e-11
6.457954e-11
7.8017932e-11
9.1774043e-11
1.0575285e-10
1.2002229e-10
1.3308106e-10
1.4361557e-10
1.293388e-10
1.0209841e-10
9.0917842e-11
8.4465507e-11
8.2234222e-11
8.3041997e-11
8.6183037e-11
9.1393275e-11
9.8770552e-11
1.0806524e-10
1.1910342e-10
1.3216264e-10
1.4839885e-10
1.6715398e-10
1.8681173e-10
2.0650294e-10
2.2541029e-10
2.4277978e-10
2.579287e-10
2.7028414e-10
2.7851539e-10
2.8131106e-10
2.7860356e-10
2.7178502e-10
2.6168464e-10
2.4811546e-10
2.3125085e-10
2.1114898e-10
1.8745789e-10
1.5993544e-10
1.2785828e-10
9.005622e-11
3.4980464e-11
7.0330344e-11
1.5294839e-10
2.4827328e-10
3.6510312e-10
4.7829782e-10
6.4765794e-10
6.2461254e-10
8.3407796e-10
3.7578189e-10
9.2220968e-11
2.2598857e-10
1.8847547e-10
1.5215159e-11
3.9316484e-11
4.6760779e-15
1.6887032e-13
2.1397273e-14
1.2266203e-11
2.2686332e-11
4.251134e-12
2.4880324e-11
8.8828602e-11
3.4983277e-11
4.2439815e-11
3.3660556e-11
3.2426673e-11
2.9029213e-11
2.6232518e-11
2.3069602e-11
1.9985795e-11
1.7039629e-11
1.45038e-11
1.2315638e-11
1.0371407e-11
8.6837563e-12
7.0915993e-12
5.6411494e-12
4.2686602e-12
4.1627385e-12
4.7638115e-12
5.3696582e-12
5.900134e-12
6.2809742e-12
6.4560355e-12
6.3950318e-12
6.0918623e-12
5.5693569e-12
4.8808134e-12
4.1039369e-12
3.3250478e-12
2.6242565e-12
2.0470336e-12
1.5997995e-12
1.2713427e-12
1.0372388e-12
8.7519129e-13
7.6797141e-13
7.0282479e-13
6.7367149e-13
6.7887727e-13
7.1803148e-13
7.6796192e-13
8.2266562e-13
8.8294554e-13
9.4896473e-13
1.0207253e-12
1.0976986e-12
1.1791914e-12
1.2629594e-12
1.3459878e-12
1.4237612e-12
1.4898992e-12
1.53591e-12
1.5520748e-12
1.529073e-12
1.4603157e-12
1.3445659e-12
1.1871198e-12
9.9958866e-13
7.9980658e-13
6.111606e-13
6.3579584e-13
7.7230364e-13
8.3710145e-13
8.3317567e-13
7.8748037e-13
7.1999442e-13
6.5247549e-13
6.0381437e-13
5.7586471e-13
5.7048634e-13
5.8508906e-13
6.1652251e-13
6.6166648e-13
7.1847111e-13
7.853013e-13
8.6016044e-13
9.4032837e-13
1.0214644e-12
1.0978379e-12
1.1609127e-12
1.2001547e-12
1.1991436e-12
1.1496104e-12
1.0208112e-12
7.8666575e-13
5.3242968e-13
9.9403665e-13
1.5998686e-12
2.3464582e-12
3.2066799e-12
4.1161593e-12
4.9222716e-12
5.3571764e-12
5.1243487e-12
4.045601e-12
2.4670101e-12
1.1226201e-12
1.0661419e-12
1.3912829e-12
1.414496e-12
1.428965e-12
1.5817085e-12
1.7028756e-12
1.5697653e-12
1.2401293e-12
9.1600691e-13
6.9050063e-13
5.6404692e-13
6.2888059e-13
7.1698341e-13
8.4398665e-13
1.0251881e-12
1.2672587e-12
1.5680159e-12
1.9223796e-12
2.3172448e-12
2.7246127e-12
3.0970715e-12
3.3684746e-12
3.4699272e-12
3.3622181e-12
3.0520855e-12
2.6044505e-12
2.1357745e-12
1.7686407e-12
1.5860713e-12
1.5996657e-12
1.7420052e-12
1.9013881e-12
1.988163e-12
1.9634524e-12
1.8081789e-12
1.4963988e-12
1.0232032e-12
7.3861118e-13
1.4546449e-12
2.3200477e-12
3.2913922e-12
4.3436625e-12
5.4606685e-12
6.6347262e-12
7.8697531e-12
9.1657161e-12
1.0537812e-11
1.1863966e-11
1.3010905e-11
1.1796549e-11
9.2061003e-12
8.1922778e-12
7.7505558e-12
7.7967057e-12
8.2398034e-12
9.0433643e-12
1.0233807e-11
1.1883543e-11
1.404317e-11
1.6767516e-11
2.0182675e-11
2.4533915e-11
2.9741507e-11
3.5548154e-11
4.1765652e-11
4.8164039e-11
5.4491335e-11
6.0480934e-11
6.587449e-11
7.0233704e-11
7.3263411e-11
7.498957e-11
7.5777199e-11
7.5612223e-11
7.4371558e-11
7.1975679e-11
6.8297698e-11
6.3063639e-11
5.5964818e-11
4.6557635e-11
3.3981796e-11
1.4473994e-11
2.8088093e-11
5.8804314e-11
9.2506108e-11
1.317563e-10
1.6164135e-10
2.109982e-10
1.7341032e-10
2.3188082e-10
7.7793435e-11
1.2830698e-11
3.1578516e-11
1.8861937e-11
2.3007849e-14
1.9999432e-13
1.2454095e-17
8.6700145e-17
1.346983e-17
3.5672216e-13
1.9732139e-12
5.5770616e-13
4.7253997e-12
2.1312198e-11
8.2420403e-12
1.1174069e-11
8.9761624e-12
8.9463602e-12
8.0789018e-12
7.317522e-12
6.3751627e-12
5.4175608e-12
4.4764672e-12
3.6559836e-12
2.9764645e-12
2.41031e-12
1.9463136e-12
1.5436234e-12
1.2027271e-12
9.0601032e-13
8.292238e-13
8.7109824e-13
9.1310125e-13
9.3899286e-13
9.3654783e-13
9.0117313e-13
8.3386717e-13
7.398912e-13
6.2808812e-13
5.0958871e-13
3.957454e-13
2.9591471e-13
2.1618567e-13
1.5722995e-13
1.1546547e-13
8.6860317e-14
6.7567826e-14
5.4749287e-14
4.6488384e-14
4.1541961e-14
3.9279134e-14
3.9562707e-14
4.2428851e-14
4.5894797e-14
4.9305236e-14
5.2842374e-14
5.6601235e-14
6.0610467e-14
6.4863828e-14
6.9335931e-14
7.3918149e-14
7.8457111e-14
8.2719461e-14
8.6374142e-14
8.8981309e-14
9.0039647e-14
8.9075254e-14
8.5765899e-14
8.0060501e-14
7.2249298e-14
6.2949017e-14
5.3095763e-14
4.3982435e-14
4.5514258e-14
5.2695384e-14
5.6221965e-14
5.6081764e-14
5.3642089e-14
4.9993952e-14
4.6339882e-14
4.3705059e-14
4.2213354e-14
4.194539e-14
4.2746799e-14
4.4422445e-14
4.6789487e-14
4.9729844e-14
5.315603e-14
5.6968721e-14
6.1034687e-14
6.5139098e-14
6.8993376e-14
7.216311e-14
7.4120938e-14
7.3920814e-14
7.1321609e-14
6.4555457e-14
5.2397024e-14
3.9399649e-14
6.3658384e-14
9.6221253e-14
1.3657941e-13
1.8315178e-13
2.3219267e-13
2.7498582e-13
2.9653568e-13
2.8165394e-13
2.2327846e-13
1.4139969e-13
7.3787548e-14
7.1409217e-14
8.8588581e-14
9.0291342e-14
9.0751203e-14
9.8013439e-14
1.0384027e-13
9.6717952e-14
7.9206537e-14
6.1854199e-14
4.9732425e-14
4.29869e-14
4.6193961e-14
5.0736853e-14
5.7381131e-14
6.6914356e-14
7.9689183e-14
9.5594795e-14
1.1435129e-13
1.3523604e-13
1.5671976e-13
1.7623233e-13
1.9023365e-13
1.9512154e-13
1.8897362e-13
1.7241255e-13
1.4900388e-13
1.2484055e-13
1.0614158e-13
9.6990855e-14
9.7816008e-14
1.0506239e-13
1.1295176e-13
1.1688881e-13
1.14901e-13
1.061296e-13
8.9553501e-14
6.5359962e-14
5.0904652e-14
8.5754426e-14
1.2886191e-13
1.7764064e-13
2.3079274e-13
2.8748537e-13
3.4730579e-13
4.1040915e-13
4.7671735e-13
5.4680277e-13
6.1383695e-13
6.6910156e-13
5.9543149e-13
4.5239889e-13
3.9834774e-13
3.8034142e-13
3.9186602e-13
4.2979624e-13
4.9512353e-13
5.9427863e-13
7.3838254e-13
9.4070906e-13
1.2182842e-12
1.5983409e-12
2.120827e-12
2.7970599e-12
3.6198627e-12
4.5809834e-12
5.6584125e-12
6.8180642e-12
8.0133978e-12
9.1893439e-12
1.0259089e-11
1.1177469e-11
1.1956149e-11
1.2660733e-11
1.3249523e-11
1.3687992e-11
1.3935555e-11
1.3932568e-11
1.3576707e-11
1.2725968e-11
1.1207029e-11
8.6292466e-12
4.1410807e-12
7.7256688e-12
1.5540668e-11
2.3747162e-11
3.2749544e-11
3.7953179e-11
4.6922636e-11
3.4827684e-11
4.1058344e-11
1.3308819e-11
1.7286072e-12
3.016681e-12
1.0250189e-12
1.312487e-17
9.3751493e-17
4.6213934e-22
3.1519069e-19
4.529306e-23
1.961392e-15
9.7525363e-14
5.8972881e-14
7.3717606e-13
3.5869483e-12
1.5641352e-12
2.2103316e-12
1.8231141e-12
1.8403935e-12
1.6649005e-12
1.4958636e-12
1.2809882e-12
1.0603159e-12
8.4434649e-13
6.5931457e-13
5.1380753e-13
3.999744e-13
3.116505e-13
2.4025696e-13
1.8343144e-13
1.3731208e-13
1.1890676e-13
1.1533215e-13
1.1263493e-13
1.0844344e-13
1.0144103e-13
9.16524e-14
7.9688242e-14
6.6478397e-14
5.3100159e-14
4.0589833e-14
2.9756272e-14
2.1073804e-14
1.4664772e-14
1.0231634e-14
7.2496001e-15
5.2838412e-15
3.9966415e-15
3.1599197e-15
2.6285917e-15
2.3134542e-15
2.1680298e-15
2.1835297e-15
2.3679951e-15
2.5849469e-15
2.7830098e-15
2.9806552e-15
3.1859897e-15
3.4019059e-15
3.6289675e-15
3.8663668e-15
4.1089326e-15
4.3490429e-15
4.5749047e-15
4.7696995e-15
4.9111083e-15
4.9737775e-15
4.9338471e-15
4.7761406e-15
4.4987656e-15
4.1172989e-15
3.663792e-15
3.1862877e-15
2.7536151e-15
2.8437503e-15
3.2130297e-15
3.4016988e-15
3.4003709e-15
3.2758368e-15
3.0855747e-15
2.8937015e-15
2.7546436e-15
2.6762194e-15
2.6618935e-15
2.7031246e-15
2.7886684e-15
2.908401e-15
3.0558745e-15
3.2266074e-15
3.4158374e-15
3.6172682e-15
3.8205841e-15
4.0116823e-15
4.1690462e-15
4.2669046e-15
4.2525938e-15
4.1239556e-15
3.781704e-15
3.1700635e-15
2.5313729e-15
3.7811304e-15
5.4916129e-15
7.6222199e-15
1.0083728e-14
1.2664104e-14
1.4877794e-14
1.5904483e-14
1.4978519e-14
1.1868013e-14
7.702844e-15
4.3752794e-15
4.2789337e-15
5.1746762e-15
5.2970515e-15
5.3129804e-15
5.6573332e-15
5.943614e-15
5.583222e-15
4.6804556e-15
3.7742482e-15
3.1371333e-15
2.7842978e-15
2.9363404e-15
3.1650237e-15
3.5042999e-15
3.993224e-15
4.6496998e-15
5.4682772e-15
6.4342737e-15
7.5094709e-15
8.6132131e-15
9.6104874e-15
1.0317103e-14
1.0549082e-14
1.02118e-14
9.3511126e-15
8.1569508e-15
6.9395891e-15
6.00725e-15
5.5567571e-15
5.6020731e-15
5.9604044e-15
6.3402606e-15
6.5105607e-15
6.3720325e-15
5.8901771e-15
5.0307226e-15
3.8223328e-15
3.1096834e-15
4.777402e-15
6.8856454e-15
9.2901672e-15
1.1924164e-14
1.4743682e-14
1.7723615e-14
2.0863743e-14
2.4146719e-14
2.7574578e-14
3.0752911e-14
3.3118216e-14
2.8800055e-14
2.1375765e-14
1.8622929e-14
1.7840134e-14
1.8625691e-14
2.0880142e-14
2.4766035e-14
3.0813332e-14
3.9913521e-14
5.3287848e-14
7.2684363e-14
1.0095051e-13
1.4227574e-13
1.9935707e-13
2.7384858e-13
3.6727252e-13
4.7973082e-13
6.0965825e-13
7.5336752e-13
9.0506359e-13
1.0543903e-12
1.1963497e-12
1.3333625e-12
1.4751998e-12
1.6153477e-12
1.7497465e-12
1.8724471e-12
1.9731984e-12
2.0331384e-12
2.0207671e-12
1.8979903e-12
1.5603692e-12
8.6099043e-13
1.5452449e-12
2.9969128e-12
4.4969411e-12
6.057161e-12
6.8114639e-12
7.9118093e-12
5.7327589e-12
5.4804125e-12
1.9745964e-12
2.228092e-13
1.7453041e-13
2.4358196e-14
4.7380261e-22
2.2576368e-19
1.0867597e-27
3.7164735e-24
9.6593997e-30
2.7469392e-17
2.2218452e-15
4.7556253e-15
9.2310277e-14
4.9513055e-13
2.5290248e-13
3.6654237e-13
3.1321858e-13
3.1734393e-13
2.8697212e-13
2.5467428e-13
2.1396759e-13
1.7248382e-13
1.3267954e-13
9.9539286e-14
7.4666005e-14
5.6156697e-14
4.2400384e-14
3.1838865e-14
2.3798909e-14
1.7584471e-14
1.4607372e-14
1.3363215e-14
1.2372552e-14
1.1320832e-14
1.006874e-14
8.6529098e-15
7.1570839e-15
5.6795534e-15
4.3144297e-15
3.1354203e-15
2.1843162e-15
1.4701466e-15
9.7391073e-16
9.877596e-16
1.0161388e-15
1.0410543e-15
1.0611713e-15
1.0748266e-15
1.0799563e-15
1.0745523e-15
1.0553608e-15
1.0195623e-15
9.5046413e-16
8.8309442e-16
8.4363429e-16
8.1427701e-16
7.9137151e-16
7.7247899e-16
7.5657012e-16
7.4287734e-16
7.3091764e-16
7.2034211e-16
7.1085852e-16
7.0220622e-16
6.9415724e-16
6.8652074e-16
6.7917885e-16
6.7214286e-16
6.6538107e-16
6.5893523e-16
6.5289466e-16
6.4737459e-16
6.4251053e-16
6.384639e-16
6.3572375e-16
6.3437063e-16
6.3367127e-16
6.3293765e-16
6.317428e-16
6.2996668e-16
6.278645e-16
6.2563702e-16
6.2332922e-16
6.2112752e-16
6.1906419e-16
6.1721482e-16
6.1562831e-16
6.1435015e-16
6.1342138e-16
6.1287371e-16
6.1274112e-16
6.1305902e-16
6.1387027e-16
6.1522746e-16
6.1726246e-16
6.1994399e-16
6.2335071e-16
6.2737181e-16
6.312172e-16
6.343907e-16
6.3775795e-16
6.4086556e-16
6.4316191e-16
6.4368758e-16
7.198687e-16
7.6169865e-16
7.085038e-16
6.0505347e-16
5.9221505e-16
5.8555894e-16
5.8675975e-16
5.9469638e-16
6.0132774e-16
6.0403436e-16
6.0769003e-16
6.1421149e-16
6.2059064e-16
6.2292812e-16
6.2175032e-16
6.1970986e-16
6.1861732e-16
6.1883495e-16
6.2002645e-16
6.2177791e-16
6.23767e-16
6.2581783e-16
6.278851e-16
6.2998051e-16
6.320518e-16
6.3393289e-16
6.3535349e-16
6.3601781e-16
6.357491e-16
6.3467738e-16
6.3342702e-16
6.3247442e-16
6.3245732e-16
6.3390385e-16
6.369405e-16
6.4109121e-16
6.4537926e-16
6.4889298e-16
6.513002e-16
6.5291071e-16
6.5477579e-16
6.5848279e-16
6.6499117e-16
6.7370008e-16
6.8456016e-16
6.9762095e-16
7.1286974e-16
7.3037576e-16
7.5034257e-16
8.3266558e-16
9.8315137e-16
1.1420396e-15
1.3087218e-15
1.4625104e-15
1.5699869e-15
1.3475222e-15
1.0451768e-15
1.0536905e-15
1.0539891e-15
1.0462081e-15
1.0322321e-15
1.2307497e-15
1.5939609e-15
2.1600415e-15
3.0289157e-15
4.3529361e-15
6.3871031e-15
9.515941e-15
1.406537e-14
2.0327336e-14
2.8606494e-14
3.9103544e-14
5.1862146e-14
6.6695711e-14
8.3135875e-14
1.001706e-13
1.1734812e-13
1.3507202e-13
1.5465949e-13
1.7546884e-13
1.9725896e-13
2.1955902e-13
2.412927e-13
2.6015229e-13
2.7150349e-13
2.697995e-13
2.3580464e-13
1.4778499e-13
2.5770822e-13
4.858126e-13
7.2237072e-13
9.5692229e-13
1.0593048e-12
1.155632e-12
8.2755778e-13
6.5229244e-13
2.4496417e-13
2.5597293e-14
4.9095631e-15
1.8645919e-16
3.8336296e-27
1.4788967e-24
2.799182e-31
1.3995837e-29
5.4737833e-27
4.0647061e-22
3.6257439e-17
2.7356619e-16
8.9040812e-15
5.8270177e-14
3.4297403e-14
5.2232302e-14
4.6554801e-14
4.7810136e-14
4.3480503e-14
3.8304797e-14
3.1685719e-14
2.4940136e-14
1.8558465e-14
1.338216e-14
9.6542827e-15
7.0005842e-15
5.1064685e-15
3.7172991e-15
2.7028831e-15
1.9522736e-15
1.5612435e-15
1.3611112e-15
1.204903e-15
1.0547106e-15
8.9590496e-16
7.3402067e-16
7.6544374e-16
8.0039159e-16
8.3680086e-16
8.7454814e-16
9.1333812e-16
9.5188114e-16
9.8786177e-16
1.0205368e-15
1.0502958e-15
1.0766438e-15
1.0981873e-15
1.1131659e-15
1.1193974e-15
1.1147452e-15
1.095839e-15
1.0597334e-15
9.8992748e-16
9.2164598e-16
8.8137497e-16
8.5154399e-16
8.2831154e-16
8.0917945e-16
7.9307863e-16
7.7921718e-16
7.6709668e-16
7.5636068e-16
7.4669899e-16
7.3782467e-16
7.2948023e-16
7.2144794e-16
7.1359105e-16
7.0595202e-16
6.9851506e-16
6.9135549e-16
6.8460954e-16
6.7844596e-16
6.730593e-16
6.6868586e-16
6.6598423e-16
6.651007e-16
6.6504783e-16
6.6487689e-16
6.6403227e-16
6.6234782e-16
6.6016694e-16
6.5776293e-16
6.5520345e-16
6.527378e-16
6.5042312e-16
6.4836792e-16
6.4664354e-16
6.4531275e-16
6.4443151e-16
6.4404572e-16
6.4420267e-16
6.4495268e-16
6.4635557e-16
6.4848644e-16
6.5150713e-16
6.5539367e-16
6.6025016e-16
6.659515e-16
6.7143556e-16
6.7596216e-16
6.8071298e-16
6.8510454e-16
6.8837927e-16
6.8922641e-16
6.8556487e-16
6.7499636e-16
6.572746e-16
6.3677455e-16
6.1929316e-16
6.099481e-16
6.109175e-16
6.2114382e-16
6.30103e-16
6.3384058e-16
6.3879606e-16
6.4756599e-16
6.5602247e-16
6.5898556e-16
6.5715677e-16
6.5414738e-16
6.5241225e-16
6.5241923e-16
6.5371643e-16
6.5574687e-16
6.580738e-16
6.604568e-16
6.6283143e-16
6.6521094e-16
6.6752494e-16
6.6955136e-16
6.7092815e-16
6.7125769e-16
6.702979e-16
6.6819036e-16
6.6574799e-16
6.6362465e-16
6.6266735e-16
6.635782e-16
6.6653551e-16
6.7092315e-16
6.7542843e-16
6.7884327e-16
6.8067163e-16
6.8130226e-16
6.8218428e-16
6.8547542e-16
6.9227133e-16
7.0176986e-16
7.1388011e-16
7.2859955e-16
7.4585855e-16
7.6568332e-16
7.8825293e-16
8.1393789e-16
8.4333754e-16
8.7728862e-16
9.1687265e-16
9.6306162e-16
1.0157273e-15
1.0647956e-15
1.0875549e-15
1.0902033e-15
1.0861163e-15
1.0749287e-15
1.0582951e-15
1.0372698e-15
1.0125875e-15
9.8502184e-16
9.5527067e-16
9.235405e-16
8.9012848e-16
8.5603586e-16
8.9096346e-16
1.3630988e-15
2.0244267e-15
2.910463e-15
4.0450953e-15
5.4312715e-15
7.0408197e-15
8.7883005e-15
1.0643617e-14
1.2669389e-14
1.5033976e-14
1.7689948e-14
2.0650723e-14
2.3906391e-14
2.7376463e-14
3.0828997e-14
3.3676609e-14
3.5232119e-14
3.2490142e-14
2.2463353e-14
3.8551035e-14
7.1077623e-14
1.0451707e-13
1.3557073e-13
1.4615594e-13
1.4896567e-13
1.0199095e-13
6.8585193e-14
2.4069495e-14
2.5179232e-15
4.8640771e-17
2.2515059e-17
3.07335e-31
2.2722602e-30
4.066272e-31
6.9005183e-31
4.4967356e-31
8.0132412e-29
2.6609021e-18
8.6275397e-17
6.2938181e-16
5.5962154e-15
3.7759126e-15
6.1911322e-15
5.8053162e-15
6.1137943e-15
5.6311048e-15
4.9522019e-15
4.0455854e-15
3.1124898e-15
2.2375248e-15
1.5462011e-15
1.0689615e-15
7.444575e-16
5.4272302e-16
5.6204385e-16
5.8150168e-16
6.0151895e-16
6.2271767e-16
6.4491006e-16
6.6938213e-16
6.9701942e-16
7.2739659e-16
7.5979489e-16
7.9391864e-16
8.2961734e-16
8.6674602e-16
9.0520595e-16
9.4477626e-16
9.8429591e-16
1.0214885e-15
6.6032186e-16
4.3889855e-16
3.0475633e-16
2.2221249e-16
1.7067806e-16
1.3832703e-16
1.1844292e-16
1.0708968e-16
1.0282818e-16
1.0407308e-16
1.051464e-16
1.0587092e-16
1.0647321e-16
1.0711177e-16
1.0772105e-16
1.0829518e-16
1.0881516e-16
1.0927244e-16
1.0966274e-16
1.0996597e-16
1.1014793e-16
1.1016808e-16
1.0998921e-16
1.0959816e-16
1.09043e-16
1.0834718e-16
1.0756819e-16
1.0678458e-16
1.0608408e-16
1.0556045e-16
1.053283e-16
1.0566957e-16
1.0663912e-16
1.0782615e-16
1.0886948e-16
1.0956047e-16
1.0982955e-16
1.0981743e-16
1.096441e-16
1.0935145e-16
1.0904137e-16
1.0874707e-16
1.0851767e-16
1.0838624e-16
1.0837982e-16
1.0852215e-16
1.0883655e-16
1.0934667e-16
1.1007874e-16
1.110632e-16
1.1242782e-16
1.1357115e-16
1.1598426e-16
1.1842343e-16
1.2129628e-16
1.2413362e-16
1.2650392e-16
1.289187e-16
1.3118788e-16
1.3293209e-16
1.3352348e-16
1.3196638e-16
1.268855e-16
1.187869e-16
1.098342e-16
1.0223332e-16
9.8091935e-17
9.8085221e-17
1.0200442e-16
1.057302e-16
1.0724169e-16
1.0918452e-16
1.1278982e-16
1.1629394e-16
1.1734964e-16
1.161917e-16
1.1447052e-16
1.1330557e-16
1.1289031e-16
1.1302331e-16
1.134593e-16
1.1400238e-16
1.1453555e-16
1.1501571e-16
1.1543197e-16
1.157351e-16
1.1581322e-16
1.1550202e-16
1.1463819e-16
1.1314872e-16
1.1114919e-16
1.0899786e-16
1.0698638e-16
1.0545658e-16
1.0465173e-16
1.0458401e-16
1.0494441e-16
1.0516999e-16
1.0478273e-16
1.0361719e-16
1.0183994e-16
1.0002351e-16
9.8987991e-17
9.9056332e-17
9.9871641e-17
1.0132463e-16
1.0334289e-16
1.0582491e-16
1.0868675e-16
1.1187123e-16
1.1534511e-16
1.1909e-16
1.2304974e-16
1.2708511e-16
1.3054791e-16
1.3189116e-16
1.2334114e-16
1.0898441e-16
1.0522447e-16
1.1060049e-16
1.2479492e-16
1.5043898e-16
1.9263066e-16
2.6157056e-16
3.7436494e-16
5.6112427e-16
8.734917e-16
9.0983207e-16
8.7585617e-16
8.429604e-16
8.1173044e-16
7.8216627e-16
7.5430745e-16
7.2816215e-16
7.0383866e-16
6.815496e-16
6.6224726e-16
8.3026882e-16
1.0238005e-15
1.2619293e-15
1.5439453e-15
1.877057e-15
2.2672685e-15
2.7145124e-15
3.2036664e-15
3.673733e-15
4.0546932e-15
3.9419401e-15
2.9590235e-15
5.0319264e-15
9.0914013e-15
1.3152004e-14
1.6579969e-14
1.7163736e-14
1.6186466e-14
1.0276663e-14
6.0186965e-15
1.7651403e-15
2.0702366e-16
7.4123601e-18
1.197769e-20
2.1188005e-27
6.8095854e-31
5.8451555e-31
2.0657112e-24
3.7741965e-22
3.622782e-25
1.5311502e-21
2.4273333e-17
1.1003579e-16
4.2318826e-16
3.2841073e-16
5.9279905e-16
5.9085916e-16
6.447185e-16
6.054625e-16
5.3419925e-16
4.322749e-16
4.4893282e-16
4.7631528e-16
5.0126596e-16
5.2372018e-16
5.4468242e-16
5.6507664e-16
5.8521296e-16
6.054884e-16
6.2636582e-16
6.4850691e-16
6.716013e-16
6.9694044e-16
7.2543663e-16
7.5668133e-16
7.8993409e-16
8.2487297e-16
5.6081729e-16
3.6668596e-16
2.3602327e-16
1.5096492e-16
9.7478541e-17
6.5157709e-17
4.609237e-17
3.4615013e-17
2.7546595e-17
2.3087671e-17
2.0194093e-17
1.8245309e-17
1.6871025e-17
1.5814241e-17
1.4963744e-17
1.399112e-17
1.3050499e-17
1.2502163e-17
1.2113913e-17
1.1827637e-17
1.1600778e-17
1.141548e-17
1.1258341e-17
1.1121163e-17
1.0998384e-17
1.0883864e-17
1.0770731e-17
1.0652132e-17
1.0522184e-17
1.0377808e-17
1.0223848e-17
1.006247e-17
9.8995784e-18
9.7433568e-18
9.6028817e-18
9.4877848e-18
9.4101505e-18
9.4001024e-18
9.4643239e-18
9.5564944e-18
9.6348053e-18
9.6769864e-18
9.6749901e-18
9.6440551e-18
9.597259e-18
9.5393353e-18
9.4809858e-18
9.4262774e-18
9.3805848e-18
9.3474215e-18
9.3296415e-18
9.3297409e-18
9.3500713e-18
9.3930235e-18
9.461299e-18
9.5581212e-18
9.6921676e-18
9.8345737e-18
1.0067709e-17
1.0326529e-17
1.0635265e-17
1.0944375e-17
1.1203876e-17
1.1466929e-17
1.1716178e-17
1.1909552e-17