/*--------------------------------*- C++ -*----------------------------------*\
| =========                 |                                                 |
| \\      /  F ield         | OpenFOAM: The Open Source CFD Toolbox           |
|  \\    /   O peration     | Version:  2.4.0                                 |
|   \\  /    A nd           | Web:      www.OpenFOAM.org                      |
|    \\/     M anipulation  |                                                 |
\*---------------------------------------------------------------------------*/
FoamFile
{
    version     2.0;
    format      ascii;
    class       volScalarField;
    location    "340";
    object      p;
}
// * * * * * * * * * * * * * * * * * * * * * * * * * * * * * * * * * * * * * //

dimensions      [0 2 -2 0 0 0 0];

internalField   nonuniform List<scalar> 
32000
(
-0.017523585
-0.00010715215
-0.0046479803
-0.0035506033
-0.002242701
0.0031928117
0.0092331783
0.013122933
0.015137503
0.016325642
0.017263864
0.018157653
0.018982088
0.019749668
0.020437538
0.021047175
0.021575771
0.022036349
0.022458724
0.022819633
0.023143522
0.023405242
0.023599356
0.023714157
0.023734549
0.023659223
0.023485095
0.023211002
0.022845103
0.022403886
0.021910827
0.021394934
0.020888818
0.020423447
0.02002295
0.019699103
0.019447173
0.019249688
0.019087001
0.018936122
0.01878044
0.01860825
0.018411863
0.018185312
0.017925087
0.017622489
0.017272458
0.016838729
0.016341285
0.015771094
0.015127037
0.014405089
0.013604778
0.012725749
0.011770211
0.010743817
0.0096580126
0.0085321324
0.0073953665
0.0062880112
0.005258955
0.0043625226
0.0036464386
0.0031453083
0.0028718344
0.0028103669
0.0029150521
0.0031171228
0.0033252023
0.0034702033
0.003517263
0.0034670528
0.003329222
0.0031144609
0.0028560521
0.0025778928
0.0023028159
0.0020420139
0.0018022543
0.0015859113
0.0013959873
0.0012374963
0.0011190511
0.0010521665
0.001051038
0.0011298415
0.0013012424
0.0015706041
0.0019318492
0.0023628629
0.0028253306
0.00323501
0.0034569785
0.0034174063
0.0029990334
0.0020126327
0.00029196341
-0.0023002041
-0.0057858051
-0.0098980278
-0.013847499
-0.016321808
-0.016335346
-0.014513063
-0.012316724
-0.010606465
-0.0094685203
-0.0087063653
-0.0079935572
-0.0069655394
-0.0057320495
-0.0046858129
-0.0039551799
-0.0034756083
-0.0031214068
-0.0028122437
-0.002527873
-0.0023100338
-0.0022325096
-0.0023916327
-0.0028858937
-0.0038037845
-0.0052106233
-0.0071231128
-0.0094784629
-0.012096674
-0.014669358
-0.016811189
-0.018167869
-0.018536976
-0.017993111
-0.01687145
-0.015633977
-0.014718006
-0.014402343
-0.014750841
-0.01568418
-0.017117315
-0.019059986
-0.021542619
-0.024504424
-0.027764894
-0.03109723
-0.034276039
-0.03708013
-0.039309366
-0.040789182
-0.041358948
-0.040859817
-0.039087809
-0.035821053
-0.030589796
-0.023273
-0.013300569
-0.0088300374
-0.0054368464
-0.0029880064
-0.0010899464
0.00042210602
0.0017636417
0.0029461175
0.0041242702
0.00534653
0.0066917091
0.008162359
0.009878275
0.012171086
0.015181193
0.018988682
0.023650887
0.029178672
0.035559012
0.042749684
0.050720226
0.059241173
0.068013374
0.076713696
0.085252988
0.093478621
0.10126331
0.10848876
0.11505959
0.12082684
0.12571032
0.12947999
0.13196942
0.13248552
0.12993279
0.12373234
0.11285021
0.096086707
0.072217836
0.041298671
0.0052956752
-0.025024357
-0.043386228
-0.049887394
-0.04945444
-0.042026781
-0.040132377
-0.017525094
-0.00010678212
-0.0046468723
-0.0035455414
-0.0022405775
0.0031830964
0.0092161064
0.013107474
0.015126475
0.016317517
0.017256431
0.018150231
0.01897488
0.019742793
0.020431221
0.02104147
0.021570781
0.022031891
0.022454716
0.022816106
0.023140408
0.023402694
0.023597433
0.023712961
0.023734181
0.023659726
0.023486519
0.023213358
0.022848313
0.022407785
0.021915182
0.021399464
0.020893224
0.020427463
0.020026383
0.019701884
0.019449359
0.019251396
0.019088359
0.01893725
0.018781407
0.018609078
0.018412541
0.018185796
0.017925316
0.017622359
0.017271904
0.016838035
0.016340508
0.015770217
0.015126066
0.014404026
0.013603631
0.012724528
0.011768935
0.010742512
0.0096567224
0.0085309155
0.0073942987
0.0062871812
0.0052584549
0.0043624157
0.0036467494
0.0031460128
0.0028728529
0.0028115727
0.002916289
0.0031181953
0.0033259078
0.0034704603
0.0035171648
0.0034667367
0.0033287988
0.0031140517
0.0028557269
0.0025776762
0.0023027199
0.0020420339
0.0018023796
0.0015861309
0.001396292
0.0012378757
0.0011194906
0.0010526446
0.001051524
0.0011302926
0.0013016001
0.0015707954
0.0019317915
0.0023624417
0.0028243849
0.0032333491
0.003454659
0.0034145143
0.0029954722
0.0020084366
0.0002873289
-0.0023048181
-0.005789481
-0.0098993396
-0.013844816
-0.016314866
-0.016326868
-0.014506421
-0.012313172
-0.01060541
-0.0094684103
-0.0087058477
-0.0079928089
-0.0069657503
-0.0057335517
-0.0046877553
-0.0039567786
-0.0034766603
-0.0031220878
-0.0028128338
-0.0025285732
-0.002310943
-0.0022336514
-0.0023929718
-0.0028873632
-0.003805295
-0.0052120398
-0.007124244
-0.0094790676
-0.012096514
-0.014668299
-0.016809303
-0.018165477
-0.018534594
-0.017991289
-0.016870558
-0.015634042
-0.014718669
-0.01440301
-0.014750969
-0.015683451
-0.01711554
-0.019056954
-0.021538186
-0.024498731
-0.027758269
-0.031090016
-0.034268606
-0.03707285
-0.039302568
-0.040783142
-0.041353902
-0.04085603
-0.039085577
-0.035821101
-0.030592882
-0.023283341
-0.013314513
-0.0088365281
-0.0054374168
-0.0029861027
-0.0010863201
0.00042691122
0.0017693891
0.0029528191
0.0041323022
0.0053561612
0.0067032191
0.008176317
0.0098967892
0.012196115
0.015213568
0.019029048
0.023699479
0.029235338
0.035623254
0.042820878
0.050796714
0.059320199
0.068092147
0.076790726
0.085327359
0.093549113
0.10132895
0.10854866
0.11511265
0.12087209
0.12574616
0.12950393
0.13197738
0.13247003
0.12988822
0.12365419
0.11273325
0.095929135
0.072028856
0.041103946
0.0051511676
-0.025088769
-0.043395042
-0.049875478
-0.049441414
-0.042016774
-0.040131711
-0.017526348
-0.00010608236
-0.0046455985
-0.0035394733
-0.0022378355
0.0031728615
0.0091976858
0.013090514
0.015114211
0.016308447
0.017248146
0.018141962
0.018966849
0.019735129
0.020424179
0.021035116
0.021565226
0.022026931
0.02245026
0.022812181
0.023136942
0.02339985
0.023595279
0.023711614
0.02373375
0.023660261
0.023488076
0.02321595
0.022851854
0.022412094
0.021920003
0.021404486
0.020898115
0.020431926
0.020030206
0.019704986
0.019451806
0.019253316
0.01908989
0.018938522
0.018782498
0.018610012
0.018413307
0.018186344
0.017925578
0.017622219
0.017271291
0.016837264
0.016339644
0.01576924
0.015124983
0.01440284
0.013602349
0.012723161
0.011767504
0.010741048
0.0096552712
0.008529543
0.0073930907
0.0062862368
0.0052578747
0.004362277
0.0036470841
0.0031467973
0.0028740017
0.002812946
0.0029177125
0.003119447
0.0033267473
0.0034707842
0.0035170755
0.0034663919
0.0033283262
0.0031135901
0.0028553574
0.002577429
0.002302611
0.0020420587
0.0018025267
0.0015863874
0.0013966465
0.0012383147
0.0011199962
0.0010531906
0.0010520739
0.0011307968
0.0013019914
0.0015709912
0.001931699
0.0023619321
0.0028232812
0.0032314367
0.0034519963
0.0034112111
0.0029914304
0.002003693
0.00028210307
-0.002310022
-0.0057936654
-0.009900967
-0.013842096
-0.016307346
-0.016317384
-0.014498732
-0.012308874
-0.010604006
-0.0094681724
-0.0087052223
-0.0079919908
-0.0069660366
-0.005735269
-0.0046899521
-0.0039585873
-0.0034778577
-0.0031228706
-0.0028135149
-0.0025293741
-0.0023119716
-0.0022349329
-0.0023944659
-0.0028889968
-0.0038069726
-0.0052136178
-0.0071255202
-0.009479787
-0.012096422
-0.014667249
-0.016807356
-0.018162955
-0.018532027
-0.017989265
-0.016869492
-0.015633991
-0.014719266
-0.01440362
-0.014750989
-0.015682504
-0.017113387
-0.01905334
-0.021532965
-0.024492098
-0.027750613
-0.031081729
-0.034260113
-0.037064572
-0.039294874
-0.040776343
-0.041348266
-0.040851865
-0.039083238
-0.035821447
-0.030596828
-0.023295645
-0.013330798
-0.008844765
-0.0054389243
-0.0029847139
-0.0010829304
0.00043166298
0.001775232
0.002959757
0.0041407549
0.0053664239
0.0067156156
0.0081914739
0.0099170513
0.012223675
0.015249349
0.019073768
0.023753409
0.029298296
0.035694681
0.042900047
0.05088176
0.059408037
0.068179675
0.076876294
0.085409963
0.093627393
0.10140182
0.10861515
0.11517151
0.12092224
0.12578583
0.12953028
0.13198585
0.13245231
0.12983809
0.12356668
0.11260262
0.095753707
0.071819387
0.040889913
0.0049952154
-0.02515485
-0.043400572
-0.049859601
-0.049425618
-0.042004769
-0.040130786
-0.017526965
-0.0001052697
-0.0046438351
-0.0035331527
-0.0022350007
0.0031626083
0.0091794066
0.013073605
0.015101836
0.016299234
0.017239716
0.018133546
0.01895867
0.019727324
0.020417011
0.021028656
0.021559579
0.022021894
0.022445736
0.022808198
0.023133428
0.023396968
0.023593099
0.023710254
0.023733322
0.023660817
0.023489674
0.023218602
0.022855473
0.022416496
0.021924924
0.021409607
0.020903097
0.020436462
0.020034089
0.019708134
0.019454289
0.019255267
0.019091452
0.018939825
0.01878362
0.018610977
0.018414101
0.018186918
0.017925861
0.017622095
0.01727069
0.016836502
0.016338788
0.015768269
0.015123905
0.014401657
0.013601066
0.01272179
0.011766065
0.010739571
0.0096537992
0.0085281396
0.0073918395
0.0062852361
0.0052572262
0.0043620624
0.0036473416
0.0031475121
0.0028750976
0.0028142916
0.0029191392
0.0031207328
0.0033276381
0.0034711578
0.0035170251
0.0034660748
0.0033278703
0.0031131349
0.0028549856
0.002577175
0.0023024942
0.002042077
0.00180267
0.0015866422
0.0013969999
0.0012387516
0.0011204965
0.0010537263
0.0010526071
0.0011312771
0.0013023524
0.0015711527
0.0019315709
0.0023613908
0.0028221616
0.0032295305
0.0034493523
0.0034079535
0.0029874799
0.0019990838
0.00027704237
-0.0023150697
-0.0057977981
-0.0099028151
-0.013840023
-0.016300656
-0.016308433
-0.014491058
-0.01230429
-0.010602313
-0.0094677623
-0.0087045582
-0.0079912515
-0.0069664091
-0.0057369884
-0.0046920997
-0.0039603535
-0.0034790387
-0.0031236565
-0.0028142039
-0.0025301709
-0.0023129723
-0.0022361561
-0.0023958688
-0.0028905093
-0.0038085078
-0.0052150489
-0.0071266738
-0.0094804492
-0.012096382
-0.01466638
-0.016805702
-0.018160782
-0.018529767
-0.017987416
-0.01686843
-0.015633793
-0.014719624
-0.014403968
-0.014750764
-0.015681317
-0.01711096
-0.019049402
-0.021527402
-0.024485163
-0.027742725
-0.031073289
-0.034251557
-0.037056326
-0.039287303
-0.04076976
-0.041342947
-0.040848138
-0.039081503
-0.035822619
-0.030601998
-0.023309445
-0.013348893
-0.0088547171
-0.0054420573
-0.0029846868
-0.0010807664
0.00043529758
0.0017800437
0.0029657311
0.004148315
0.0053758763
0.0067272882
0.0082060174
0.0099368723
0.012251034
0.015285206
0.019118861
0.023808009
0.029362215
0.035767378
0.042980767
0.050968545
0.059497693
0.068269014
0.076963648
0.085494298
0.093707321
0.10147623
0.10868306
0.11523164
0.12097348
0.12582635
0.12955717
0.13199448
0.13243423
0.12978694
0.12347749
0.11246975
0.095575933
0.071608584
0.04067747
0.0048457863
-0.02521162
-0.043398268
-0.049839165
-0.049407589
-0.041992143
-0.040129204
-0.017526937
-0.00010438578
-0.0046412396
-0.0035263162
-0.0022319115
0.0031519434
0.0091606942
0.013056297
0.015089037
0.016289632
0.0172309
0.018124733
0.0189501
0.019719141
0.020409495
0.021021886
0.021553661
0.022016619
0.022441001
0.022804031
0.023129753
0.023393957
0.023590826
0.023708843
0.02373289
0.023661418
0.023491371
0.023221406
0.022859291
0.022421131
0.021930099
0.021414984
0.020908318
0.020441205
0.020038139
0.01971141
0.019456868
0.019257294
0.019093079
0.018941191
0.018784803
0.018612
0.018414949
0.018187535
0.017926176
0.017621987
0.017270087
0.016835736
0.016337923
0.015767286
0.01512281
0.014400451
0.013599756
0.012720386
0.011764586
0.010738045
0.0096522697
0.0085266675
0.0073905071
0.0062841425
0.0052564767
0.0043617447
0.0036475027
0.0031481472
0.0028761409
0.0028156194
0.0029205865
0.0031220751
0.0033286015
0.0034715953
0.0035170196
0.0034657851
0.0033274263
0.0031126791
0.0028546041
0.0025769073
0.0023023643
0.0020420861
0.0018028085
0.0015868963
0.0013973548
0.0012391899
0.0011209955
0.0010542557
0.0010531266
0.001131735
0.0013026825
0.0015712759
0.0019313991
0.0023608038
0.0028210055
0.0032276006
0.0034466881
0.0034046944
0.0029835647
0.0019945442
0.00027207263
-0.0023200451
-0.0058019766
-0.0099050032
-0.013838751
-0.016294956
-0.016300102
-0.014483382
-0.012299363
-0.010600277
-0.0094671477
-0.0087038399
-0.0079905965
-0.0069668938
-0.005738743
-0.004694227
-0.003962099
-0.0034802185
-0.0031244578
-0.0028149119
-0.0025309736
-0.0023139531
-0.0022373264
-0.002397182
-0.0028918971
-0.0038098923
-0.0052163213
-0.0071276927
-0.0094810464
-0.012096395
-0.01466571
-0.016804376
-0.018159004
-0.018527854
-0.017985765
-0.01686737
-0.015633424
-0.014719707
-0.014404012
-0.014750245
-0.015679826
-0.017108166
-0.019045021
-0.021521356
-0.024477781
-0.027734462
-0.031064561
-0.034242825
-0.037048024
-0.039279802
-0.040763375
-0.041337972
-0.040844928
-0.039080531
-0.035824875
-0.03060889
-0.023325649
-0.013370625
-0.008867711
-0.0054478656
-0.0029868783
-0.0010805571
0.00043718456
0.0017832636
0.0029702505
0.0041545661
0.0053841889
0.0067380081
0.008219835
0.0099563464
0.01227857
0.015321836
0.019165374
0.0238647
0.029428897
0.035843451
0.043065426
0.051059663
0.059591855
0.068362844
0.077055414
0.085582908
0.093791319
0.10155446
0.10875446
0.11529489
0.1210274
0.12586902
0.12958547
0.13200362
0.13241534
0.12973335
0.1233841
0.11233098
0.095391145
0.071391475
0.040462837
0.0047028513
-0.025255547
-0.04338378
-0.049811036
-0.049385547
-0.041978406
-0.040126633
-0.017526243
-0.00010339044
-0.0046375019
-0.003518625
-0.0022282649
0.0031408237
0.0091413642
0.013038479
0.01507571
0.016279545
0.017221598
0.018115417
0.018941032
0.019710477
0.020401533
0.021014713
0.021547386
0.022011028
0.022435983
0.022799615
0.023125864
0.023390772
0.023588428
0.023707362
0.023732448
0.023662073
0.023493187
0.023224395
0.022863352
0.022426055
0.021935588
0.021420677
0.020913834
0.020446205
0.020042395
0.019714841
0.019459564
0.019259414
0.019094787
0.018942631
0.018786059
0.018613092
0.018415859
0.018188206
0.017926528
0.017621897
0.017269481
0.01683496
0.016337044
0.015766283
0.015121689
0.014399213
0.013598407
0.012718937
0.011763055
0.010736457
0.0096506661
0.0085251083
0.007389074
0.0062829355
0.0052556056
0.0043613048
0.0036475512
0.0031486911
0.002877126
0.0028169305
0.0029220619
0.0031234869
0.0033296525
0.0034721085
0.0035170655
0.0034655247
0.0033269931
0.0031122197
0.002854209
0.0025766223
0.0023022186
0.0020420842
0.0018029421
0.0015871506
0.0013977131
0.0012396317
0.0011214953
0.0010547798
0.0010536324
0.0011321687
0.0013029773
0.0015713541
0.0019311733
0.0023601563
0.0028197923
0.0032256222
0.0034439708
0.0034013934
0.002979637
0.001990018
0.00026712697
-0.0023250293
-0.0058063058
-0.0099076803
-0.013838511
-0.016290531
-0.016292601
-0.01447577
-0.012294067
-0.010597851
-0.009466294
-0.0087030531
-0.0079900384
-0.0069675174
-0.0057405576
-0.0046963526
-0.0039638367
-0.0034814064
-0.0031252819
-0.0028156464
-0.0025317879
-0.0023149172
-0.0022384439
-0.0023984022
-0.0028931543
-0.0038111189
-0.005217429
-0.0071285767
-0.0094815905
-0.012096493
-0.014665288
-0.016803445
-0.018157694
-0.018526351
-0.017984342
-0.016866306
-0.015632847
-0.014719462
-0.0144037
-0.014749384
-0.015677978
-0.017104946
-0.019040118
-0.021514751
-0.024469884
-0.027725773
-0.031055513
-0.034233909
-0.037039682
-0.039272409
-0.040757253
-0.04133343
-0.040842356
-0.039080491
-0.035828464
-0.030617986
-0.023345167
-0.013397896
-0.0088853216
-0.0054576756
-0.0029924499
-0.001083343
0.00043637615
0.0017840096
0.0029724969
0.0041587512
0.0053906702
0.0067471531
0.0082323956
0.0099750875
0.012306071
0.015359216
0.019213483
0.023923855
0.029498899
0.035923654
0.04315494
0.051156132
0.059691574
0.068462197
0.077152612
0.085676775
0.09388032
0.10163736
0.10883016
0.11536196
0.12108462
0.12591429
0.1296155
0.13201332
0.13239538
0.12967663
0.12328542
0.11218482
0.095197678
0.0711668
0.040246246
0.004569594
-0.025281255
-0.043351819
-0.049771547
-0.049357476
-0.041962904
-0.040122752
-0.017524855
-0.0001022256
-0.0046322428
-0.0035097464
-0.002223708
0.0031293296
0.0091213763
0.013020216
0.015061876
0.016268971
0.017211793
0.018105574
0.018931437
0.0197013
0.020393092
0.021007103
0.021540723
0.022005091
0.022430655
0.022794927
0.023121738
0.023387398
0.023585891
0.023705803
0.023731992
0.023662781
0.023495128
0.02322758
0.02286767
0.022431282
0.021941406
0.021426701
0.020919657
0.020451467
0.020046858
0.019718424
0.019462373
0.019261623
0.019096572
0.018944146
0.018787388
0.018614256
0.018416836
0.018188934
0.017926922
0.017621829
0.017268873
0.016834179
0.016336154
0.015765265
0.015120546
0.014397947
0.013597023
0.012717444
0.01176147
0.010734805
0.0096489853
0.008523456
0.0073875302
0.006281601
0.0052545943
0.0043607203
0.0036474625
0.003149119
0.0028780307
0.0028182081
0.0029235556
0.0031249676
0.0033307988
0.0034727076
0.0035171716
0.0034653004
0.0033265755
0.0031117591
0.0028538004
0.0025763188
0.0023020552
0.0020420696
0.001803069
0.0015874034
0.0013980725
0.0012400742
0.0011219917
0.0010552934
0.0010541174
0.0011325693
0.0013032266
0.0015713757
0.0019308811
0.0023594352
0.0028185089
0.0032235861
0.0034411903
0.0033980368
0.002975681
0.0019854862
0.00026217753
-0.0023300694
-0.0058108765
-0.0099110282
-0.013839645
-0.016287867
-0.016286357
-0.014468435
-0.012288443
-0.010595009
-0.0094651625
-0.0087021889
-0.007989605
-0.0069683117
-0.0057424431
-0.0046984742
-0.0039655617
-0.0034825994
-0.0031261295
-0.0028164085
-0.0025326111
-0.0023158559
-0.0022394931
-0.0023995079
-0.0028942547
-0.0038121594
-0.0052183473
-0.0071293121
-0.0094820889
-0.012096714
-0.014665191
-0.016803019
-0.01815698
-0.018525369
-0.017983213
-0.01686524
-0.015632014
-0.014718818
-0.014402963
-0.014748127
-0.015675728
-0.01710125
-0.01903465
-0.021507573
-0.024461487
-0.02771671
-0.03104623
-0.034224929
-0.03703145
-0.039265294
-0.040751577
-0.041329521
-0.040840641
-0.039081644
-0.035833718
-0.030629868
-0.023368986
-0.01343274
-0.0089093332
-0.0054730838
-0.0030028527
-0.0010904631
0.00043162413
0.0017810983
0.0029713516
0.0041598086
0.0053943203
0.0067537858
0.0082428476
0.0099923689
0.012332941
0.015396885
0.019262864
0.023985283
0.02957216
0.036008047
0.043249474
0.051258164
0.059797071
0.068567281
0.077255451
0.085776106
0.093974522
0.10172514
0.10891032
0.11543303
0.12114526
0.12596227
0.12964727
0.13202356
0.13237421
0.12961655
0.12318116
0.11203101
0.094995558
0.070935373
0.040030104
0.0044508906
-0.025282394
-0.043296509
-0.049716623
-0.049321078
-0.041944926
-0.040117126
-0.017522751
-0.00010082669
-0.0046249807
-0.0034992975
-0.0022177988
0.0031175824
0.0091006626
0.013001592
0.015047578
0.016257917
0.017201474
0.018095183
0.018921289
0.019691582
0.020384141
0.020999024
0.021533641
0.021998781
0.022424993
0.022789945
0.023117358
0.023383818
0.023583205
0.023704159
0.023731521
0.023663546
0.023497201
0.02323097
0.022872258
0.022436828
0.021947568
0.021433067
0.020925794
0.020456996
0.020051524
0.019722153
0.019465284
0.019263912
0.019098429
0.018945732
0.018788791
0.018615494
0.018417883
0.018189722
0.017927361
0.017621787
0.017268268
0.016833398
0.016335259
0.015764236
0.015119386
0.014396656
0.013595606
0.012715911
0.011759834
0.01073309
0.009647225
0.0085217047
0.0073858653
0.006280123
0.0052534212
0.0043599645
0.003647206
0.0031493992
0.0028788256
0.0028194286
0.0029250518
0.0031265126
0.0033320461
0.0034734034
0.003517348
0.0034651204
0.0033261794
0.0031113004
0.0028533793
0.0025759959
0.0023018723
0.00204204
0.0018031868
0.001587652
0.0013984298
0.0012405132
0.0011224792
0.0010557889
0.0010545721
0.0011329254
0.0013034173
0.0015713268
0.0019305076
0.0023586248
0.0028171389
0.0032214815
0.0034383336
0.0033946057
0.0029716742
0.0019809204
0.00025718354
-0.0023352307
-0.0058158072
-0.0099152772
-0.013842585
-0.016287585
-0.016281945
-0.014461687
-0.01228256
-0.010591744
-0.0094637103
-0.0087012398
-0.007989332
-0.0069693145
-0.0057444124
-0.0047005893
-0.0039672678
-0.003483793
-0.0031270013
-0.0028171991
-0.002533439
-0.002316758
-0.0022404551
-0.0024004729
-0.0028951669
-0.0038129808
-0.0052190474
-0.0071298837
-0.0094825525
-0.012097107
-0.014665515
-0.016803234
-0.018157016
-0.018525049
-0.017982461
-0.016864182
-0.015630872
-0.01471769
-0.014401718
-0.014746408
-0.015673024
-0.017097032
-0.019028571
-0.021499843
-0.024452646
-0.027707365
-0.031036856
-0.034216072
-0.037023548
-0.039258702
-0.040746607
-0.041326516
-0.040840073
-0.039084326
-0.035841056
-0.030645259
-0.02339828
-0.013477491
-0.0089418263
-0.0054959929
-0.0030198425
-0.0011035547
0.00042139088
0.0017730655
0.0029654271
0.0041564214
0.0053938978
0.0067567468
0.0082501417
0.010007296
0.012358445
0.015434268
0.019313105
0.024048726
0.029648574
0.036096661
0.043349167
0.051365955
0.059908546
0.068678284
0.077364121
0.085881087
0.094074106
0.10181795
0.10899513
0.11550823
0.12120945
0.12601303
0.12968083
0.13203428
0.13235171
0.12955287
0.12307101
0.11186931
0.09478486
0.07069809
0.039816897
0.0043516269
-0.025252542
-0.043211644
-0.049641703
-0.049273618
-0.041923577
-0.040109175
-0.017519943
-9.9101089e-05
-0.0046150455
-0.0034868183
-0.0022099793
0.0031057647
0.0090791588
0.012982682
0.015032857
0.016246391
0.017190628
0.018084218
0.018910556
0.019681288
0.020374645
0.020990442
0.021526106
0.021992066
0.022418968
0.022784644
0.023112701
0.023380016
0.023580358
0.023702424
0.023731034
0.02366437
0.023499413
0.023234578
0.022877133
0.02244271
0.021954092
0.021439791
0.020932255
0.020462794
0.020056392
0.01972602
0.019468288
0.019266271
0.019100351
0.018947388
0.018790268
0.01861681
0.018419005
0.018190576
0.01792785
0.017621776
0.017267672
0.016832622
0.016334364
0.015763202
0.015118214
0.014395346
0.013594162
0.01271434
0.01175815
0.01073131
0.0096453817
0.0085198468
0.0073840665
0.0062784826
0.0052520608
0.0043590061
0.0036467464
0.0031494948
0.002879476
0.0028205635
0.0029265304
0.0031281146
0.0033333999
0.0034742072
0.0035176058
0.0034649936
0.0033258114
0.0031108475
0.0028529464
0.0025756529
0.0023016679
0.002041993
0.0018032929
0.0015878935
0.0013987813
0.0012409435
0.0011229508
0.0010562574
0.0010549853
0.0011332234
0.0013035342
0.0015711906
0.0019300346
0.0023577047
0.0028156592
0.00321929
0.0034353779
0.0033910666
0.0029675747
0.0019762696
0.00025207702
-0.0023406104
-0.0058212542
-0.0099207104
-0.013847847
-0.016290437
-0.016280084
-0.014455941
-0.012276522
-0.010588084
-0.0094618913
-0.0087001993
-0.0079892613
-0.0069705695
-0.0057464833
-0.0047026999
-0.0039689518
-0.0034849841
-0.0031279001
-0.00281802
-0.0025342675
-0.0023176113
-0.0022413093
-0.0024012692
-0.002895858
-0.003813549
-0.005219501
-0.0071302792
-0.0094829986
-0.012097735
-0.014666372
-0.016804246
-0.018157986
-0.018525554
-0.017982186
-0.016863141
-0.015629354
-0.014715978
-0.01439987
-0.014744155
-0.015669808
-0.017092241
-0.019021848
-0.021491603
-0.024443474
-0.027697878
-0.031027603
-0.034207601
-0.037016277
-0.039252955
-0.040742677
-0.041324759
-0.04084101
-0.03908895
-0.035850995
-0.030665022
-0.023434426
-0.013534797
-0.0089852129
-0.0055286469
-0.0030455173
-0.0011245916
0.00040381248
0.0017581314
0.0029530363
0.0041469894
0.0053878997
0.0067546392
0.0082530262
0.010018811
0.012381726
0.015470709
0.019363746
0.024113917
0.029728047
0.036189562
0.043454214
0.051479751
0.060026258
0.06879545
0.077478875
0.085991964
0.094179305
0.10191603
0.10908477
0.11558774
0.12127734
0.12606667
0.12971618
0.13204544
0.13232768
0.12948528
0.12295459
0.11169936
0.094565506
0.070455661
0.039608871
0.0042763225
-0.025185519
-0.043090875
-0.049541802
-0.049211907
-0.04189771
-0.040098137
-0.017516455
-9.6931706e-05
-0.0046016914
-0.003471754
-0.0021995594
0.0030941275
0.0090568061
0.01296354
0.01501777
0.01623441
0.017179245
0.018072656
0.018899209
0.019670384
0.020364566
0.020981319
0.021518085
0.021984915
0.022412554
0.022779
0.023107748
0.023375976
0.023577339
0.023700592
0.02373053
0.023665259
0.023501775
0.023238419
0.022882311
0.022448948
0.021960996
0.021446888
0.020939053
0.020468864
0.020061457
0.019730014
0.019471372
0.019268689
0.019102329
0.018949107
0.018791819
0.018618204
0.018420205
0.018191501
0.017928396
0.017621801
0.01726709
0.016831859
0.016333476
0.015762169
0.015117035
0.014394021
0.013592693
0.012712734
0.011756417
0.010729466
0.009643451
0.0085178735
0.007382119
0.0062766581
0.0052504839
0.004357809
0.0036460423
0.0031493621
0.0028799401
0.0028215776
0.0029279653
0.0031297625
0.0033348639
0.0034751316
0.0035179569
0.00346493
0.003325479
0.0031104047
0.0028525034
0.0025752891
0.0023014404
0.0020419262
0.0018033845
0.0015881244
0.0013991226
0.0012413592
0.0011233985
0.0010566881
0.0010553435
0.0011334474
0.0013035588
0.001570947
0.0019294394
0.0023566494
0.0028140391
0.0032169848
0.0034322904
0.0033873698
0.00296332
0.0019714579
0.00024676106
-0.0023463383
-0.0058274111
-0.0099276615
-0.01385603
-0.016297309
-0.016281658
-0.014451728
-0.012270476
-0.010584104
-0.0094596551
-0.0086990624
-0.0079894407
-0.0069721254
-0.0057486781
-0.0047048131
-0.0039706144
-0.0034861702
-0.0031288317
-0.0028188741
-0.0025350919
-0.0023184018
-0.0022420327
-0.0024018664
-0.0028962924
-0.0038138283
-0.0052196795
-0.0071304889
-0.0094834515
-0.01209867
-0.014667894
-0.016806242
-0.018160101
-0.018527077
-0.017982504
-0.01686213
-0.015627384
-0.014713567
-0.014397313
-0.014741287
-0.015666021
-0.017086832
-0.019014483
-0.021482914
-0.024434145
-0.027688469
-0.03101877
-0.034199877
-0.037010035
-0.03924847
-0.040740208
-0.041324674
-0.040843894
-0.039096012
-0.035864157
-0.030690171
-0.023478999
-0.01360762
-0.0090422514
-0.0055736612
-0.0030823558
-0.0011559265
0.00037665468
0.0017341564
0.0029321497
0.0041295905
0.0053745246
0.0067457993
0.0082500213
0.010025678
0.012401787
0.015505447
0.019414254
0.024180542
0.029810474
0.036286817
0.043564814
0.051599819
0.060150479
0.068919037
0.077599977
0.086108992
0.094290367
0.1020196
0.10917947
0.11567176
0.12134909
0.12612327
0.12975334
0.13205693
0.13230192
0.1294134
0.12283143
0.11152071
0.094337332
0.07020867
0.039407988
0.004228998
-0.025075623
-0.042927963
-0.049411648
-0.049132327
-0.041865901
-0.040083038
-0.017512324
-9.4162977e-05
-0.0045839759
-0.0034534365
-0.0021856905
0.0030829986
0.0090335318
0.01294419
0.01500239
0.016221997
0.017167323
0.018060475
0.018887217
0.019658836
0.020353869
0.020971621
0.021509544
0.021977299
0.022405723
0.02277299
0.023102478
0.023371682
0.023574136
0.023698658
0.023730008
0.023666216
0.023504295
0.023242505
0.022887811
0.022455562
0.021968301
0.021454377
0.020946196
0.020475209
0.020066713
0.019734121
0.019474517
0.019271148
0.019104351
0.018950883
0.018793441
0.01861968
0.018421489
0.018192504
0.017929004
0.01762187
0.01726653
0.016831116
0.016332602
0.015761145
0.015115857
0.014392687
0.013591205
0.012711097
0.011754638
0.010727555
0.0096414282
0.0085157747
0.0073800063
0.0062746245
0.005248657
0.0043563318
0.0036450455
0.0031489497
0.0028801678
0.0028224273
0.0029293232
0.00313144
0.0033364393
0.0034761894
0.003518415
0.003464941
0.0033251909
0.0031099771
0.0028520521
0.0025749043
0.0023011879
0.0020418372
0.0018034585
0.0015883408
0.0013994481
0.0012417528
0.001123812
0.0010570681
0.0010556306
0.0011335779
0.0013034694
0.0015705715
0.0019286944
0.0023554267
0.0028122384
0.0032145279
0.0034290261
0.0033834474
0.0029588232
0.001966382
0.00024110794
-0.002352578
-0.0058345076
-0.0099365096
-0.013867806
-0.01630922
-0.016287724
-0.014449717
-0.012264677
-0.010579888
-0.0094569501
-0.0086978267
-0.0079899237
-0.0069740332
-0.0057510223
-0.0047069413
-0.0039722608
-0.0034873496
-0.0031298065
-0.0028197656
-0.0025359068
-0.0023191135
-0.0022425989
-0.0024022297
-0.0028964308
-0.0038137795
-0.0052195532
-0.0071305056
-0.0094839435
-0.012100003
-0.014670239
-0.016809437
-0.018163609
-0.018529842
-0.017983556
-0.016861169
-0.015624877
-0.014710325
-0.014393929
-0.014737717
-0.015661599
-0.01708076
-0.019006542
-0.021473887
-0.024424903
-0.027679463
-0.031010775
-0.034193386
-0.037005346
-0.039245781
-0.040739729
-0.041326784
-0.040849252
-0.039106105
-0.035881279
-0.030721867
-0.023533773
-0.013699217
-0.0091160566
-0.005634047
-0.0031332494
-0.0012003281
0.00033727438
0.001698604
0.0029003614
0.0041019496
0.0053516483
0.0067282773
0.0082394092
0.010026471
0.012417487
0.015537623
0.01946403
0.024248244
0.029895725
0.036388487
0.043681171
0.051726421
0.06028148
0.06904931
0.077727693
0.086232434
0.094407542
0.10212891
0.10927944
0.11576048
0.12142485
0.1261829
0.12979229
0.13206863
0.13227415
0.1293368
0.12270101
0.11133284
0.094100072
0.069957527
0.039215867
0.0042129992
-0.024917907
-0.042717041
-0.04924587
-0.049030909
-0.041826426
-0.040062656
-0.017507605
-9.0613508e-05
-0.0045607546
-0.0034310605
-0.0021673382
0.003072814
0.0090092892
0.012924595
0.014986801
0.01620919
0.017154862
0.018047658
0.018874551
0.019646608
0.020342517
0.02096131
0.021500449
0.021969188
0.022398449
0.022766591
0.023096873
0.023367119
0.023570738
0.023696616
0.023729468
0.023667245
0.023506982
0.023246851
0.02289365
0.02246257
0.021976026
0.021462272
0.020953695
0.020481831
0.020072151
0.019738324
0.019477702
0.019273629
0.0191064
0.018952707
0.018795132
0.018621239
0.018422861
0.018193591
0.017929682
0.017621992
0.017265999
0.016830401
0.01633175
0.015760137
0.015114686
0.01439135
0.013589703
0.012709432
0.011752814
0.010725577
0.0096393079
0.0085135393
0.0073777092
0.0062723536
0.0052465419
0.0043545266
0.0036437005
0.0031481972
0.0028800993
0.0028230599
0.0029305618
0.0031331244
0.0033381242
0.0034773947
0.003518995
0.0034650392
0.003324957
0.003109571
0.0028515952
0.0025744986
0.0023009091
0.0020417233
0.0018035113
0.0015885379
0.0013997513
0.001242115
0.0011241791
0.0010573814
0.0010558271
0.0011335918
0.0013032394
0.0015700348
0.0019277656
0.0023539964
0.0028102061
0.0032118678
0.0034255269
0.0033792099
0.0029539699
0.0019609083
0.00023495685
-0.0023595268
-0.0058428058
-0.0099476705
-0.013883903
-0.016327304
-0.016299514
-0.014450739
-0.012259532
-0.010575478
-0.0094537454
-0.0086964931
-0.0079907668
-0.0069763435