/*--------------------------------*- C++ -*----------------------------------*\
| =========                 |                                                 |
| \\      /  F ield         | OpenFOAM: The Open Source CFD Toolbox           |
|  \\    /   O peration     | Version:  2.4.0                                 |
|   \\  /    A nd           | Web:      www.OpenFOAM.org                      |
|    \\/     M anipulation  |                                                 |
\*---------------------------------------------------------------------------*/
FoamFile
{
    version     2.0;
    format      ascii;
    class       volScalarField;
    location    "160";
    object      p;
}
// * * * * * * * * * * * * * * * * * * * * * * * * * * * * * * * * * * * * * //

dimensions      [0 2 -2 0 0 0 0];

internalField   nonuniform List<scalar> 
32000
(
-0.023101297
-0.0079137266
-0.010723505
-0.0094629986
-0.0073897739
-0.0010544595
0.0052795734
0.009174524
0.011128172
0.012220658
0.013077967
0.013843981
0.014571816
0.015221076
0.01582425
0.016312565
0.016687659
0.01701738
0.01729493
0.01754802
0.017778754
0.017987907
0.018180718
0.018359645
0.018512626
0.018642224
0.018731494
0.018773127
0.01875464
0.018686778
0.018569786
0.018406734
0.018211487
0.018002177
0.017800652
0.01762836
0.017501689
0.017432348
0.017429134
0.017492746
0.017615166
0.017781919
0.017976515
0.018184853
0.018397057
0.01860176
0.018794815
0.018961128
0.019101323
0.019189757
0.019212503
0.019154076
0.019004884
0.018755512
0.018400522
0.017935776
0.017359437
0.016670789
0.015871406
0.014963849
0.013953802
0.012848938
0.011660586
0.010403434
0.0090953552
0.00775782
0.0064157433
0.0050961338
0.0038298917
0.002648486
0.001587086
0.00068074271
-3.4054604e-05
-0.00052096256
-0.00074647137
-0.00067890452
-0.00029202474
0.00043359941
0.001511256
0.0029446905
0.0047313449
0.0068596697
0.009307961
0.012045791
0.015028916
0.018194746
0.021441437
0.024675067
0.027795424
0.030613538
0.032874214
0.034287435
0.034512896
0.033185298
0.029993724
0.024857017
0.018155163
0.010910242
0.0046194345
0.00050114081
-0.0011515307
-0.00091199322
0.00025616886
0.0016028291
0.0028695922
0.0043504633
0.0065947874
0.0096446945
0.012897316
0.015692346
0.017762375
0.01915744
0.020036408
0.020531976
0.020704622
0.020558563
0.020068135
0.019196358
0.017898572
0.016121588
0.013832211
0.011033684
0.0077915236
0.004230535
0.00050500615
-0.0032318578
-0.0068606329
-0.010318545
-0.013606863
-0.016788097
-0.019968163
-0.023266487
-0.026785688
-0.030578442
-0.034623611
-0.038813272
-0.042970625
-0.046890562
-0.050406323
-0.053445994
-0.056035001
-0.058256869
-0.060188789
-0.061849551
-0.063191096
-0.06410948
-0.064470591
-0.064117757
-0.062896975
-0.060591212
-0.057019437
-0.051688158
-0.044567547
-0.035203286
-0.03075785
-0.027485626
-0.025174216
-0.023423993
-0.022100632
-0.020988235
-0.020070987
-0.019203752
-0.018335067
-0.017387711
-0.016344421
-0.015092124
-0.013309525
-0.010830619
-0.0075473319
-0.0033647708
0.0017704895
0.0078897345
0.014991304
0.02308863
0.031976831
0.041356607
0.050876755
0.060431731
0.069855669
0.079003991
0.087733151
0.095934499
0.10344028
0.1101412
0.11583925
0.12026418
0.12295744
0.12285156
0.11884835
0.10995841
0.094819999
0.071952274
0.041227812
0.004501261
-0.027290781
-0.04727551
-0.054809829
-0.054814192
-0.047676721
-0.043674177
-0.023102543
-0.0079141544
-0.010721439
-0.00945805
-0.0073883818
-0.0010662846
0.0052616185
0.009158999
0.011117516
0.012213026
0.013071122
0.01383728
0.014565229
0.015214953
0.015818557
0.016307842
0.016683836
0.017014076
0.017292089
0.017545463
0.017776423
0.01798579
0.018178736
0.018357801
0.018510962
0.018640768
0.018730362
0.018772427
0.018754458
0.018687075
0.018570564
0.018407937
0.018212983
0.018003795
0.017802204
0.017629683
0.017502691
0.017432986
0.017429414
0.017492728
0.017614951
0.017781612
0.01797623
0.018184667
0.018397022
0.01860187
0.018795033
0.018961304
0.019101371
0.019189642
0.019212251
0.019153698
0.019004397
0.018754934
0.018399866
0.01793506
0.017358671
0.01666999
0.015870579
0.014963017
0.013952973
0.012848131
0.011659818
0.010402715
0.0090947029
0.0077572491
0.0064152632
0.0050957653
0.0038296432
0.0026483845
0.0015871438
0.00068098165
-3.3612102e-05
-0.00052031907
-0.0007456077
-0.0006778357
-0.00029077099
0.00043501353
0.0015127692
0.0029462495
0.0047328671
0.0068610699
0.0093091477
0.012046679
0.015029385
0.018194694
0.021440767
0.024673662
0.0277931
0.030610187
0.03286978
0.034281813
0.034506199
0.0331778
0.029986184
0.024850646
0.018151543
0.01091074
0.0046245005
0.0005094812
-0.0011423343
-0.00090401545
0.00026192928
0.0016066507
0.0028723567
0.0043524343
0.0065951948
0.0096430488
0.012894278
0.015689055
0.017759545
0.019155201
0.020034647
0.020530515
0.020703363
0.020557477
0.020067252
0.019195736
0.017898272
0.016121767
0.013832948
0.01103509
0.0077935745
0.0042331409
0.00050797643
-0.003228672
-0.0068574079
-0.010315399
-0.013603895
-0.016785376
-0.019965689
-0.023264209
-0.026783471
-0.030576129
-0.034621001
-0.038810239
-0.042967091
-0.046886581
-0.050402014
-0.05344146
-0.056030269
-0.058251931
-0.060183579
-0.061844139
-0.063185642
-0.064104226
-0.06446584
-0.064113793
-0.062894135
-0.060589735
-0.057020141
-0.051691419
-0.044577713
-0.035216734
-0.030764177
-0.027486206
-0.025172705
-0.023420941
-0.022096801
-0.020983802
-0.02006603
-0.019197899
-0.018328082
-0.017379272
-0.016333991
-0.01507757
-0.013288781
-0.010802641
-0.0075111432
-0.0033197533
0.0018246007
0.0079528346
0.015063182
0.023167874
0.032060692
0.041442078
0.05096217
0.060516085
0.069937562
0.079082251
0.087806742
0.096002119
0.10350078
0.11019299
0.11587978
0.12028917
0.12296047
0.12282453
0.118785
0.10985303
0.094668844
0.071763974
0.041027376
0.0043481919
-0.027362303
-0.047287746
-0.054799114
-0.054800941
-0.047666966
-0.043672428
-0.023103436
-0.0079144291
-0.010719036
-0.0094520339
-0.0073864814
-0.0010787258
0.005242338
0.0091420455
0.011105675
0.012204475
0.013063428
0.013829758
0.014557848
0.015208111
0.015812221
0.016302579
0.016679591
0.017010423
0.017288955
0.017542648
0.017773861
0.017983458
0.018176554
0.018355766
0.018509124
0.018639156
0.018729105
0.018771644
0.018754244
0.018687393
0.018571415
0.018409262
0.018214634
0.018005586
0.017803925
0.017631152
0.017503805
0.017433702
0.01742974
0.017492726
0.017614733
0.017781291
0.017975934
0.018184479
0.018396998
0.018602003
0.018795284
0.018961506
0.019101433
0.01918952
0.019211975
0.019153283
0.019003861
0.018754298
0.018399144
0.017934274
0.017357832
0.016669118
0.015869678
0.014962116
0.013952075
0.012847259
0.011658989
0.010401937
0.0090939969
0.0077566321
0.006414743
0.0050953675
0.0038293729
0.0026482761
0.0015872072
0.00068124294
-3.3125631e-05
-0.00051961636
-0.00074466019
-0.0006766633
-0.00028939654
0.00043656698
0.0015144271
0.0029479561
0.0047345266
0.0068625868
0.0093104162
0.012047609
0.015029844
0.018194572
0.02143995
0.024672021
0.027790437
0.030606393
0.032864804
0.034275532
0.034498766
0.033169493
0.029977826
0.024843516
0.018147326
0.01091092
0.0046297167
0.00051848071
-0.0011321247
-0.00089491388
0.00026866002
0.0016111743
0.0028755535
0.0043545984
0.0065955463
0.0096411421
0.012890883
0.015685405
0.017756412
0.019152711
0.020032682
0.020528882
0.020701965
0.020556281
0.020066296
0.019195092
0.017897998
0.016122054
0.013833856
0.011036747
0.0077959403
0.0042361135
0.0005113304
-0.0032250889
-0.0068537951
-0.010311876
-0.013600566
-0.01678232
-0.019962904
-0.023261642
-0.026780976
-0.030573536
-0.034618086
-0.038806869
-0.042963171
-0.046882152
-0.050397206
-0.05343637
-0.056024909
-0.058246307
-0.060177621
-0.06183795
-0.063179426
-0.064098265
-0.064460484
-0.064109369
-0.062891026
-0.060588223
-0.057021185
-0.051695481
-0.044589741
-0.035232303
-0.030772167
-0.027487673
-0.025171724
-0.02341816
-0.022093102
-0.020979381
-0.020060993
-0.019191831
-0.018320726
-0.017370271
-0.016322752
-0.015061753
-0.013266097
-0.010771942
-0.0074713609
-0.0032702017
0.0018842128
0.0080224038
0.015142442
0.02325522
0.032153075
0.041536181
0.051056162
0.060608869
0.070027586
0.079168216
0.087887495
0.096076204
0.10356693
0.11024941
0.11592364
0.12031543
0.12296242
0.12279318
0.11871345
0.10973506
0.094500634
0.071555628
0.040807556
0.0041831181
-0.027436212
-0.047297259
-0.0547848
-0.054785142
-0.047655465
-0.043670299
-0.023103613
-0.0079145401
-0.01071618
-0.0094456891
-0.0073845882
-0.0010912276
0.0052231542
0.00912508
0.011093633
0.012195673
0.013055447
0.013821957
0.014550212
0.015201056
0.015805728
0.016297182
0.016675254
0.017006709
0.017285772
0.017539799
0.01777127
0.017981095
0.018174345
0.018353704
0.018507263
0.018637528
0.018727842
0.018770866
0.018754046
0.018687739
0.018572309
0.018410639
0.018216344
0.018007434
0.017805697
0.01763266
0.017504944
0.017434428
0.017430063
0.017492711
0.017614502
0.017780958
0.017975632
0.01818429
0.018396979
0.018602148
0.018795552
0.018961726
0.019101516
0.019189421
0.019211724
0.019152892
0.019003348
0.018753686
0.018398445
0.01793351
0.017357012
0.016668266
0.015868792
0.014961231
0.01395119
0.012846396
0.011658166
0.010401157
0.0090932835
0.0077560019
0.0064142002
0.0050949414
0.0038290626
0.0026481222
0.0015872147
0.00068144074
-3.2707047e-05
-0.0005189932
-0.00074379393
-0.00067557684
-0.00028811197
0.000438034
0.0015159955
0.0029495771
0.0047361017
0.0068640227
0.0093116065
0.01204847
0.015030244
0.018194413
0.02143911
0.024670377
0.027787816
0.030602699
0.032860001
0.034269496
0.034491686
0.033161591
0.029969859
0.024836605
0.01814295
0.010910442
0.0046339483
0.0005265208
-0.0011225204
-0.00088595925
0.00027553166
0.001615882
0.002878762
0.0043565665
0.0065956474
0.0096391288
0.012887567
0.015681914
0.017753432
0.01915033
0.020030796
0.020527315
0.020700643
0.020555176
0.020065454
0.019194591
0.017897891
0.016122545
0.013834969
0.011038606
0.0077984761
0.0042392187
0.00051476468
-0.0032214562
-0.0068501592
-0.010308332
-0.013597196
-0.016779197
-0.019960015
-0.023258941
-0.026778325
-0.030570792
-0.034615036
-0.038803415
-0.042959214
-0.046877726
-0.050392426
-0.053431294
-0.056019522
-0.058240629
-0.060171585
-0.061831708
-0.063173209
-0.064092378
-0.064455292
-0.064105213
-0.062888302
-0.060587256
-0.057022978
-0.051700661
-0.044603263
-0.035249512
-0.030781832
-0.027490667
-0.025172007
-0.023416494
-0.022090401
-0.020975863
-0.02005679
-0.019186526
-0.018314056
-0.017361882
-0.016312041
-0.015046331
-0.013243607
-0.010741195
-0.0074312656
-0.0032200456
0.0019447276
0.0080931517
0.015223156
0.02334427
0.032247274
0.041632113
0.051151967
0.060703414
0.070119281
0.079255731
0.087969638
0.096151455
0.10363401
0.11030644
0.11596771
0.12034108
0.1229633
0.12276003
0.11863925
0.10961364
0.094328635
0.071344297
0.040587663
0.0040231954
-0.027501546
-0.047299178
-0.054765999
-0.054767247
-0.04764338
-0.043667648
-0.023103068
-0.0079144541
-0.010712538
-0.0094387043
-0.0073825312
-0.0011043148
0.0052033934
0.0091075712
0.011081043
0.012186374
0.013046958
0.013813651
0.014542086
0.015193557
0.015798854
0.016291464
0.016670667
0.017002789
0.017282415
0.017536798
0.017768545
0.017978607
0.018172021
0.018351535
0.018505307
0.018635822
0.018726524
0.018770063
0.018753855
0.018688124
0.018573274
0.018412115
0.018218167
0.018009396
0.017807569
0.017634244
0.017506131
0.017435168
0.017430372
0.017492664
0.01761423
0.017780586
0.017975299
0.018184084
0.018396961
0.018602308
0.018795847
0.018961976
0.019101629
0.01918935
0.019211498
0.019152525
0.019002855
0.018753092
0.01839776
0.017932758
0.017356201
0.016667422
0.01586791
0.014960348
0.013950302
0.012845525
0.011657331
0.010400358
0.0090925441
0.0077553389
0.0064136142
0.0050944647
0.0038286894
0.0026478982
0.001587141
0.00068155016
-3.2381633e-05
-0.00051847201
-0.00074303026
-0.00067459436
-0.0002869316
0.00043940321
0.0015174672
0.0029511074
0.0047375883
0.0068653735
0.0093127121
0.012049248
0.015030562
0.018194185
0.021438201
0.024668658
0.027785153
0.030599007
0.032855246
0.034263565
0.034484801
0.033153945
0.029962147
0.024829811
0.018138337
0.010909245
0.0046371301
0.0005335325
-0.0011135711
-0.00087717469
0.00028255314
0.0016207991
0.0028819851
0.0043582587
0.0065953445
0.0096368543
0.012884233
0.015678539
0.017750585
0.019148047
0.020028978
0.02052581
0.020699396
0.020554171
0.020064746
0.019194271
0.017898009
0.01612332
0.013836397
0.011040796
0.0078013209
0.0042425894
0.00051840306
-0.0032176663
-0.0068463994
-0.010304665
-0.013593676
-0.016775884
-0.019956884
-0.023255956
-0.026775365
-0.030567752
-0.034611733
-0.038799783
-0.042955159
-0.046873263
-0.050387642
-0.053426189
-0.056014049
-0.058234823
-0.060165396
-0.061825331
-0.063166918
-0.064086501
-0.064450221
-0.06410132
-0.062886008
-0.060586958
-0.05702575
-0.051707425
-0.04461921
-0.035270156
-0.030794479
-0.027496185
-0.025174353
-0.023416616
-0.022089279
-0.020973768
-0.020053878
-0.01918238
-0.018308395
-0.017354344
-0.016301988
-0.015031228
-0.013220932
-0.010709665
-0.0073897147
-0.0031677041
0.0020081889
0.0081676116
0.015308309
0.023438298
0.032346759
0.041733415
0.05125314
0.060803251
0.070216098
0.07934812
0.088056329
0.096230821
0.10370471
0.11036647
0.11601392
0.12036754
0.12296367
0.12272443
0.11856029
0.10948513
0.094147665
0.071124034
0.040362663
0.0038674599
-0.027554995
-0.047288829
-0.054739146
-0.054745135
-0.047629956
-0.04366417
-0.023101751
-0.0079140716
-0.010707818
-0.0094307204
-0.0073799846
-0.0011179199
0.0051830757
0.0090895549
0.011067917
0.012176585
0.01303797
0.01380484
0.01453346
0.015185592
0.015791566
0.016285397
0.016665799
0.016998635
0.017278857
0.01753362
0.01776566
0.017975974
0.018169563
0.018349242
0.018503241
0.018634021
0.018725137
0.018769223
0.018753663
0.018688542
0.018574306
0.018413684
0.0182201
0.018011469
0.017809537
0.017635894
0.01750735
0.017435905
0.01743065
0.017492565
0.017613902
0.017780161
0.017974926
0.018183856
0.018396939
0.018602482
0.018796171
0.018962259
0.019101778
0.019189314
0.019211305
0.01915219
0.019002392
0.018752526
0.018397099
0.01793203
0.01735541
0.016666597
0.015867042
0.014959478
0.013949422
0.012844659
0.011656494
0.010399549
0.0090917851
0.0077546465
0.0064129852
0.005093934
0.0038282456
0.0026475914
0.0015869687
0.0006815494
-3.217688e-05
-0.00051808307
-0.00074240438
-0.00067375372
-0.00028589519
0.0004406327
0.0015188004
0.0029525045
0.0047389446
0.0068665981
0.0093136926
0.012049901
0.015030757
0.018193846
0.021437174
0.024666804
0.027782398
0.030595271
0.032850483
0.034257686
0.034478057
0.033146509
0.029954647
0.024823082
0.018133382
0.010907135
0.0046389621
0.0005391577
-0.0011055944
-0.00086878071
0.0002896096
0.0016258724
0.0028851693
0.0043595635
0.0065944975
0.0096342192
0.012880851
0.015675302
0.017747897
0.019145887
0.02002725
0.020524384
0.020698244
0.020553292
0.020064204
0.019194168
0.017898402
0.016124437
0.013838213
0.011043391
0.0078045426
0.0042462746
0.00052227811
-0.0032137056
-0.0068425091
-0.010300867
-0.013589987
-0.016772343
-0.019953454
-0.02325262
-0.026772031
-0.030564362
-0.034608149
-0.03879598
-0.042951046
-0.046868832
-0.050382927
-0.053421123
-0.05600855
-0.058228936
-0.060159105
-0.061818874
-0.063160614
-0.064080706
-0.064445354
-0.064097784
-0.062884257
-0.060587482
-0.057029708
-0.051716177
-0.044638357
-0.035295919
-0.030811569
-0.027505494
-0.025179888
-0.023419543
-0.022090668
-0.020973965
-0.020053076
-0.019180163
-0.018304469
-0.017348335
-0.016293217
-0.015016974
-0.013198495
-0.01067766
-0.0073468875
-0.0031132193
0.0020746896
0.0082460006
0.015398235
0.023537737
0.032451997
0.041840557
0.051360167
0.060908869
0.070318527
0.079445871
0.088148051
0.096314783
0.10377949
0.11042994
0.11606266
0.12039525
0.12296379
0.12268644
0.11847649
0.10934933
0.093957651
0.070895386
0.040134645
0.0037206364
-0.027590164
-0.047260305
-0.054700233
-0.054716617
-0.047614447
-0.043659579
-0.023099622
-0.0079132704
-0.010701645
-0.0094213497
-0.0073765733
-0.00113195
0.0051622263
0.009071127
0.01105431
0.012166344
0.013028515
0.013795544
0.01452434
0.015177157
0.015783851
0.016278968
0.016660632
0.016994227
0.017275078
0.017530243
0.017762599
0.01797318
0.018166957
0.018346812
0.018501053
0.018632116
0.018723672
0.018768338
0.018753462
0.018688987
0.018575399
0.018415342
0.018222136
0.018013645
0.017811589
0.017637598
0.017508584
0.01743662
0.017430875
0.017492394
0.017613497
0.017779669
0.017974502
0.018183599
0.018396911
0.018602672
0.018796527
0.018962581
0.019101969
0.019189322
0.019211155
0.019151897
0.01900197
0.018751999
0.018396478
0.017931337
0.017354654
0.016665803
0.015866205
0.014958635
0.013948564
0.012843809
0.011655665
0.010398738
0.0090910127
0.0077539275
0.0064123126
0.0050933438
0.0038277211
0.0026471861
0.0015866769
0.00068141223
-3.2125365e-05
-0.00051786273
-0.00074195828
-0.00067310045
-0.00028505088
0.00044167169
0.0015199443
0.0029537176
0.0047401207
0.0068676484
0.0093145021
0.012050383
0.015030785
0.018193355
0.021435988
0.024664771
0.027779513
0.030591461
0.032845671
0.034251822
0.034471413
0.033139244
0.029947304
0.024816326
0.018127899
0.010903785
0.0046389547
0.00054282823
-0.0010990899
-0.00086112033
0.00029651778
0.0016310091
0.0028882331
0.0043603515
0.0065929717
0.0096311452
0.012877411
0.015672237
0.017745405
0.019143882
0.020025636
0.020523062
0.020697215
0.020552571
0.020063864
0.019194327
0.017899127
0.016125958
0.013840487
0.011046457
0.0078081959
0.0042503079
0.00052640415
-0.0032095796
-0.0068385019
-0.010296951
-0.013586129
-0.016768554
-0.019949687
-0.023248879
-0.026768265
-0.030560574
-0.034604261
-0.038792013
-0.042946917
-0.046864502
-0.050378369
-0.053416183
-0.056003114
-0.058223053
-0.060152802
-0.061812442
-0.063154418
-0.064075132
-0.064440845
-0.064094777
-0.062883238
-0.060589057
-0.057035138
-0.051727441
-0.044661626
-0.035328704
-0.030834797
-0.027520118
-0.025189988
-0.023426543
-0.022095741
-0.02097756
-0.020055423
-0.019180858
-0.018303209
-0.017344737
-0.016286538
-0.01500428
-0.013176894
-0.010645659
-0.0073031342
-0.0030568111
0.002144146
0.0083283437
0.015493089
0.023642807
0.032563234
0.04195378
0.051473308
0.061020538
0.070426847
0.079549269
0.0882451
0.096403646
0.10385868
0.1104972
0.11611423
0.12042454
0.12296391
0.1226462
0.11838791
0.10920634
0.093758972
0.070659499
0.039906355
0.0035879933
-0.027600226
-0.047207215
-0.054644759
-0.054679128
-0.047595973
-0.043653482
-0.023096639
-0.0079119095
-0.010693539
-0.0094101325
-0.0073718227
-0.0011462995
0.0051407796
0.0090523954
0.011040279
0.012155684
0.013018618
0.013785775
0.014514729
0.01516824
0.015775689
0.016272157
0.016655143
0.016989541
0.017271058
0.017526648
0.017759343
0.01797021
0.018164188
0.018344233
0.018498731
0.018630095
0.018722119
0.018767402
0.018753248
0.018689455
0.018576552
0.018417088
0.018224275
0.018015919
0.017813718
0.017639342
0.017509816
0.017437292
0.017431024
0.017492128
0.017612994
0.017779091
0.017974014
0.018183304
0.018396873
0.018602876
0.018796917
0.018962947
0.019102209
0.019189382
0.019211058
0.019151657
0.019001601
0.018751524
0.018395907
0.017930695
0.017353946
0.016665056
0.015865411
0.014957832
0.013947741
0.012842987
0.011654854
0.010397934
0.0090902313
0.0077531828
0.0064115933
0.0050926862
0.0038271032
0.0026466641
0.0015862426
0.00068111026
-3.2261603e-05
-0.00051784939
-0.0007417359
-0.00067268206
-0.00028444878
0.00044246756
0.0015208465
0.0029546938
0.0047410655
0.0068684756
0.0093150942
0.012050648
0.015030604
0.018192671
0.021434597
0.024662509
0.027776455
0.030587533
0.032840754
0.034245912
0.034464795
0.033132067
0.029940007
0.024809375
0.018121599
0.010898732
0.0046364576
0.00054380454
-0.0010947061
-0.00085463589
0.00030304122
0.001636089
0.0028910801
0.0043604848
0.0065906441
0.0096275699
0.012873905
0.015669373
0.017743137
0.019142054
0.020024155
0.020521865
0.020696334
0.020552038
0.020063767
0.019194793
0.01790024
0.016127943
0.013843288
0.011050056
0.0078123315
0.004254718
0.0005307898
-0.0032052994
-0.0068343975
-0.010292934
-0.013582109
-0.016764504
-0.019945551
-0.023244684
-0.026764012
-0.030556339
-0.034600039
-0.03878788
-0.042942805
-0.046860334
-0.05037405
-0.053411459
-0.055997833
-0.058217273
-0.060146605
-0.061806172
-0.063148493
-0.064069966
-0.064436903
-0.064092528
-0.062883199
-0.06059198
-0.057042408
-0.051741869
-0.044690119
-0.035370709
-0.030866144
-0.02754187
-0.025206317
-0.02343916
-0.022105936
-0.020985913
-0.0200622
-0.019185677
-0.018305756
-0.017344619
-0.016282931
-0.014993995
-0.013156839
-0.010614223
-0.007258856
-0.0029987172
0.0022164788
0.0084147438
0.015593076
0.023753788
0.032680769
0.042073389
0.051592881
0.061138585
0.070541394
0.079658656
0.088347824
0.096497765
0.10394264
0.11056857
0.1161689
0.12045576
0.12296424
0.1226038
0.11829453
0.10905616
0.093551851
0.070417365
0.039680376
0.0034746063
-0.0275784
-0.047122866
-0.054567709
-0.054629615
-0.047573414
-0.043645342
-0.023092786
-0.0079098113
-0.010682898
-0.0093965149
-0.0073651259
-0.0011608197
0.0051185738
0.0090334632
0.011025892
0.012144643
0.013008302
0.013775542
0.014504621
0.015158827
0.015767055
0.016264941
0.016649309
0.016984554
0.017266775
0.017522813
0.017755872
0.017967046
0.018161241
0.01834149
0.018496262
0.018627947
0.018720469
0.018766407
0.018753016
0.018689944
0.018577763
0.018418921
0.018226515
0.018018289
0.017815917
0.017641115
0.017511028
0.017437899
0.01743107
0.01749174
0.017612369
0.017778406
0.017973446
0.018182961
0.018396818
0.018603094
0.018797344
0.018963363
0.019102508
0.019189504
0.019211025
0.019151483
0.019001298
0.018751115
0.018395402
0.017930116
0.017353301
0.016664369
0.015864675
0.014957082
0.013946966
0.012842204
0.01165407
0.010397142
0.0090894442
0.0077524115
0.0064108227
0.0050919515
0.0038263773
0.002646005
0.0015856411
0.00068061293
-3.2622172e-05
-0.00051808382
-0.00074178344
-0.00067254848
-0.00028414149
0.00044296518
0.001521452
0.0029553785
0.0047417262
0.0068690295
0.0093154211
0.01205065
0.015030168
0.018191749
0.02143295
0.024659973
0.027773173
0.030583432
0.032835655
0.034239868
0.034458093
0.033124844
0.029932582
0.024801981
0.018114093
0.010891384
0.0046306552
0.0005411619
-0.0010932632
-0.00084989315
0.00030887308
0.0016409574
0.002893591
0.0043598272
0.0065874088
0.0096234417
0.012870334
0.015666725
0.017741108
0.019140416
0.020022818
0.02052081
0.020695623
0.020551726
0.02006395
0.019195612
0.017901797
0.016130456
0.013846682
0.011054247
0.0078169943
0.0042595274
0.00053543607
-0.0032008839
-0.0068302234
-0.010288844
-0.013577942
-0.016760189
-0.019941018
-0.02323999
-0.026759221
-0.030551606
-0.034595448
-0.038783569
-0.042938729
-0.046856379
-0.050370043
-0.053407042
-0.055992814
-0.058211714
-0.060140658
-0.061800242
-0.063143053
-0.064065459
-0.064433806
-0.064091337
-0.062884461
-0.060596623
-0.057051976
-0.051760247
-0.044725122
-0.035424424
-0.030907904
-0.027572884
-0.025230858
-0.023459252
-0.022122994
-0.021000674
-0.020074962
-0.019196091
-0.018313497
-0.017349277
-0.016283573
-0.014987128
-0.013139165
-0.010584006
-0.0072145204
-0.0029392181
0.0022915886
0.008505265
0.015698417
0.023870974
0.032804926
0.0421997
0.051719228
0.06126336
0.070662517
0.079774388
0.088456578
0.096597498
0.10403171
0.11064439
0.11622693
0.12048918
0.12296495
0.12255919
0.11819619
0.10889861
0.093336382
0.070169825
0.039459081
0.0033851779
-0.027518195
-0.047000469
-0.054463654
-0.054564549
-0.047545369
-0.043634448
-0.023088044
-0.0079067631
-0.01066898
-0.0093798332
-0.0073557147
-0.0011752662
0.0050954835
0.009014445
0.011011227
0.012133266
0.012997592
0.013764852
0.01449401
0.015148898
0.015757924
0.016257295
0.016643104
0.016979242
0.017262207
0.017518719
0.017752168
0.017963673
0.018158101
0.018338572
0.018493634
0.018625662
0.018718714
0.018765347
0.018752762
0.018690451
0.018579032
0.018420842
0.018228856
0.018020753
0.01781818
0.017642904
0.017512201
0.017438416
0.017430986
0.0174912
0.017611593
0.017777591
0.017972778
0.018182557
0.01839674
0.018603323
0.018797809
0.018963835
0.019102873
0.019189699
0.019211067
0.019151386
0.019001075
0.018750784
0.018394976
0.017929615
0.017352733
0.016663756
0.015864012
0.014956399
0.01394625
0.012841471
0.01165332
0.010396369
0.0090886533
0.0077516117
0.0064099947
0.0050911274
0.0038255268
0.0026451869
0.0015848449
0.00067988699
-3.3246328e-05
-0.00051860995
-0.00074215028
-0.0006727532
-0.00028418529
0.0004431058
0.0015217024
0.0029557135
0.0047420472
0.0068692575
0.0093154335
0.012050342
0.015029432
0.018190543
0.021430991
0.024657115
0.027769607
0.030579084
0.032830279
0.034233575
0.034451164
0.033117396
0.029924798
0.02479382
0.018104894
0.010881022
0.0046205643
0.00053377698
-0.0010957787
-0.00084761098
0.00031361382
0.0016454109
0.0028956123
0.0043582734
0.0065831832
0.0096187024
0.012866723
0.015664306
0.017739326
0.019138968
0.02002163
0.020519908
0.020695105
0.020551665
0.020064452
0.019196833
0.017903855
0.016133559
0.013850737
0.011059087
0.0078222223
0.0042647503
0.0005403336
-0.0031963621
-0.0068260186
-0.010284719
-0.013573654
-0.016755614
-0.019936073
-0.023234763
-0.026753847
-0.030546324
-0.034590445
-0.038779058
-0.042934697
-0.046852683
-0.05036642
-0.053403028
-0.055988178
-0.058206526
-0.060135151
-0.061794889
-0.063138383
-0.064061939
-0.064431914
-0.064091583
-0.062887423
-0.060603444
-0.057064399
-0.051783495
-0.044768103
-0.035492613
-0.030962678
-0.02761563
-0.025265946
-0.023489024
-0.022148994
-0.021023821
-0.02009558
-0.019213867
-0.01832809
-0.017360254
-0.016289855
-0.014984867
-0.01312485
-0.010555775
-0.0071706759
-0.0028786477
0.0023693428
0.0085999551
0.015809318
0.023994655
0.032936012
0.042333024
0.051852677
0.061395196
0.070790559
0.079896804
0.088571703
0.096703181
0.10412621
0.11072495
0.11628854
0.12052503
0.12296608
0.12251225
0.11809265
0.10873346
0.093112544
0.069917571
0.03924454
0.0033238548
-0.02741369
-0.04683343
-0.054326913
-0.054479967
-0.047510132
-0.043619877
-0.023082391
-0.0079025113
-0.010650876
-0.0093592916
-0.0073426546
-0.0011892877
0.0050714649
0.008995425
0.010996377
0.012121602
0.012986511
0.013753707
0.014482883
0.01513843
0.015748268
0.016249193
0.016636502
0.016973582
0.017257335
0.017514346
0.017748214
0.017960076
0.018154755
0.018335465
0.018490838
0.01862323
0.018716846
0.018764218
0.018752483
0.018690977
0.018580361
0.018422854
0.018231302
0.018023311
0.017820501
0.017644698
0.017513315
0.017438815
0.017430738
0.017490473
0.017610632
0.017776616
0.017971989
0.018182077
0.01839663
0.018603562
0.018798315
0.01896437
0.019103315
0.019189979
0.019211198
0.019151382
0.019000945
0.018750548
0.018394646
0.017929209
0.017352258
0.016663234
0.015863436
0.014955797
0.013945607
0.012840798
0.011652614
0.010395618
0.0090878601
0.0077507799
0.0064091011
0.0050901993
0.0038245325
0.0026441853
0.0015838238
0.0006788961
-3.4176559e-05
-0.00051947547
-0.00074288973
-0.00067335394
-0.000284641
0.00044282615
0.0015215346
0.002955637
0.0047419695
0.0068691046
0.0093150801
0.012049675
0.015028349
0.018189004
0.021428659
0.024653896
0.027765685
0.030574396
0.032824511
0.034226889
0.034443824
0.033109497
0.029916369
0.024784507
0.018093435
0.010866816
0.004605043
0.0005203258
-0.0011034852
-0.00084868823
0.00031674846
0.0016491823
0.0028969688
0.0043557572
0.0065779158
0.0096133035
0.012863106
0.015662124
0.017737785
0.019137702
0.020020585
0.020519168
0.0206948
0.020551885
0.020065315
0.019198504
0.017906474
0.016137316
0.013855518
0.011064625
0.0078280451
0.0042703904
0.00054546029
-0.0031917766
-0.0068218351
-0.010280607
-0.013569284
-0.016750797
-0.019930712
-0.023228991
-0.026747846
-0.030540436
-0.034584982
-0.038774315
-0.042930707
-0.046849273
-0.050363241
-0.053399517
-0.055984063
-0.058201894
-0.060130325
-0.06179042
-0.063134855
-0.064059828
-0.06443168
-0.064093743
-0.062892576
-0.060612992
-0.057080342
-0.051812677
-0.044820705
-0.035578302
-0.03103339
-0.027672938
-0.025314283
-0.023531056
-0.022186385
-0.021057693
-0.020126262
-0.019241093
-0.018351492
-0.01737936
-0.016303394
-0.014988582
-0.013115017
-0.010530402
-0.0071279446
-0.002817388
0.0024495765
0.0086988521
0.015925981
0.024125107
0.033074331
0.042473664
0.051993549
0.061534423
0.070925846
0.080026233
0.088693522
0.096815132
0.10422645
0.1108105
0.11635385
0.12056341
0.12296763
0.12246273
0.11798355
0.10856029
0.092880152
0.069661062
0.039038408
0.0032940102
-0.027259842
-0.046615633
-0.054151763
-0.054371561
-0.047465675
-0.04360046
-0.023075813
-0.0078967394
-0.010627489
-0.0093339353
-0.0073248109
-0.0012024477
0.0050464632
0.008976432
0.010981453
0.01210971
0.012975082
0.013742106
0.014471223
0.015127396
0.015738055
0.016240606
0.016629476
0.016967549
0.017252136
0.017509676
0.017743994
0.01795624
0.018151188
0.018332157
0.018487861
0.018620641
0.018714857
0.018763016
0.018752179
0.01869152
0.018581753
0.018424961
0.018233855
0.018025963
0.017822876
0.017646481
0.017514345
0.017439065
0.01743029
0.017489519
0.017609448
0.017775448
0.017971052
0.018181502
0.018396476
0.018603805
0.018798864
0.018964976
0.019103845
0.019190358
0.019211432
0.019151485
0.019000927
0.018750423
0.018394428
0.017928915
0.017351895
0.016662819
0.015862966
0.014955291
0.013945051
0.012840197
0.01165196
0.010394897
0.0090870652
0.0077499118
0.0064081316
0.0050891509
0.0038233734
0.0026429729
0.0015825446
0.00067760029
-3.5459167e-05
-0.00052073253
-0.00074405979
-0.00067441364
-0.00028557484
0.00044205756
0.0015208805
0.0029550823
0.0047414303
0.0068685127
0.0093143082
0.012048598
0.015026868
0.018187079
0.021425883
0.024650278
0.027761327
0.030569247
0.032818212
0.034219637
0.034435861
0.033100882
0.029906963
0.024773598
0.018079079
0.010847845
0.0045828098
0.00049929277
-0.0011178386
-0.00085422719
0.00031762323
0.0016519331
0.0028974728
0.0043521965
0.006571586
0.0096073081
0.012859527
0.015660191
0.017736471
0.019136597
0.020019672
0.020518591
0.020694726
0.020552419
0.02006658
0.019200676
0.017909713
0.016141796
0.013861086
0.011070907
0.0078344831
0.0042764384
0.00055077795
-0.0031871862
-0.0068177414
-0.010276577
-0.013564884
-0.016745769
-0.019924966
-0.023222657
-0.026741168
-0.030533887
-0.034579004
-0.038769298
-0.042926739
-0.046846163