/*--------------------------------*- C++ -*----------------------------------*\
| =========                 |                                                 |
| \\      /  F ield         | OpenFOAM: The Open Source CFD Toolbox           |
|  \\    /   O peration     | Version:  2.4.0                                 |
|   \\  /    A nd           | Web:      www.OpenFOAM.org                      |
|    \\/     M anipulation  |                                                 |
\*---------------------------------------------------------------------------*/
FoamFile
{
    version     2.0;
    format      ascii;
    class       volSymmTensorField;
    location    "160";
    object      R;
}
// * * * * * * * * * * * * * * * * * * * * * * * * * * * * * * * * * * * * * //

dimensions      [0 2 -2 0 0 0 0];

internalField   nonuniform List<symmTensor> 
32000
(
(0.027284753 -1.0775403e-05 -3.674533e-25 0.027284544 -5.6644873e-25 0.027284647)
(0.0088225833 -2.1779471e-06 -1.3542928e-21 0.0088225803 -3.334695e-25 0.0088225813)
(0.022700026 -1.1476561e-05 -7.1386738e-21 0.022701286 1.9372943e-22 0.022700656)
(0.0082944279 -8.1874068e-07 -2.558879e-22 0.0082946768 1.8899381e-23 0.0082945527)
(0.0062027773 -1.9349527e-07 -6.164155e-23 0.0062028929 8.8547495e-24 0.0062028351)
(0.00036210027 1.4434392e-09 5.1497089e-25 0.00036209791 -1.6711944e-25 0.00036209908)
(0.00084044316 2.5148653e-08 8.9695594e-24 0.00084040124 -3.3223057e-24 0.00084042213)
(7.822982e-05 9.6479782e-09 1.9500157e-26 7.8205979e-05 4.9274921e-26 7.8217873e-05)
(0.00023035356 6.0913173e-09 2.7414112e-24 0.00023033252 -1.6807143e-24 0.00023034302)
(0.00012757646 2.7686693e-09 1.5196475e-24 0.0001275636 -9.4485461e-25 0.00012757002)
(0.00012797409 1.6418632e-09 -4.2324603e-26 0.00012796412 -2.6481689e-26 0.0001279691)
(0.00010358052 9.8596453e-10 -1.3400695e-26 0.00010357293 -2.7887287e-26 0.00010357672)
(9.2633551e-05 6.3348111e-10 -8.4372647e-26 9.2627561e-05 -1.0531743e-25 9.2630553e-05)
(8.1832534e-05 4.2093325e-10 3.2349207e-26 8.1827844e-05 4.9234216e-26 8.1830187e-05)
(7.4009436e-05 2.9802745e-10 2.9054461e-26 7.4005727e-05 3.2071221e-26 7.400758e-05)
(6.7686188e-05 2.2257485e-10 -4.3177342e-26 6.7683307e-05 -4.4772626e-26 6.7684747e-05)
(6.2860008e-05 1.8275567e-10 3.2626741e-25 6.2857726e-05 -4.5659358e-25 6.2858867e-05)
(5.9404443e-05 1.6545992e-10 3.2453476e-25 5.9402554e-05 -3.2278205e-25 5.9403498e-05)
(5.6814366e-05 1.5205568e-10 8.8198284e-26 5.6812775e-05 -1.954712e-25 5.681357e-05)
(5.4659097e-05 1.4110019e-10 8.0335924e-26 5.4657725e-05 -1.6686308e-25 5.4658411e-05)
(5.2734725e-05 1.3037839e-10 -8.0428889e-26 5.2733534e-05 -1.0066469e-25 5.2734129e-05)
(5.0970232e-05 1.1945306e-10 5.0214786e-26 5.0969198e-05 6.3839581e-26 5.0969715e-05)
(4.9283493e-05 1.0859878e-10 -1.3106389e-26 4.9282593e-05 -1.1501125e-26 4.9283043e-05)
(4.7637278e-05 9.5914286e-11 -2.9163735e-26 4.7636512e-05 -3.4389356e-26 4.7636895e-05)
(4.5969256e-05 8.03718e-11 -3.8440097e-26 4.5968633e-05 -4.9474529e-26 4.5968944e-05)
(4.4253283e-05 6.1952194e-11 2.6526148e-26 4.4252815e-05 3.6286736e-26 4.4253049e-05)
(4.2384244e-05 3.9432864e-11 5.6730243e-26 4.2383954e-05 7.4898887e-26 4.2384099e-05)
(4.0377713e-05 1.4025611e-11 6.0003047e-26 4.0377619e-05 7.6924675e-26 4.0377666e-05)
(3.8373075e-05 -1.4866804e-11 -1.5477521e-26 3.837319e-05 -1.9481469e-26 3.8373133e-05)
(3.6453674e-05 -4.3984739e-11 1.3328198e-26 3.6453977e-05 1.7347055e-26 3.6453825e-05)
(3.4640455e-05 -7.5222199e-11 1.4784398e-26 3.4640927e-05 1.7434717e-26 3.4640691e-05)
(3.2940417e-05 -1.0902173e-10 -1.7786943e-26 3.2941037e-05 -2.2511995e-26 3.2940727e-05)
(3.1360974e-05 -1.4404862e-10 -1.3309766e-26 3.1361705e-05 -2.1347223e-26 3.136134e-05)
(2.9907925e-05 -1.7896365e-10 1.5835453e-27 2.9908725e-05 -4.9407329e-28 2.9908325e-05)
(2.8603408e-05 -2.1192202e-10 -1.0930872e-25 2.8604233e-05 1.1808687e-25 2.8603821e-05)
(2.7506142e-05 -2.409959e-10 -1.1963797e-25 2.7506949e-05 1.0861854e-25 2.7506545e-05)
(2.666728e-05 -2.6326242e-10 -1.361576e-25 2.6668033e-05 4.3909325e-26 2.6667657e-05)
(2.6028162e-05 -2.7406557e-10 -1.2362297e-25 2.602883e-05 6.0217012e-26 2.6028496e-05)
(2.5527311e-05 -2.7120543e-10 -1.2792164e-26 2.5527871e-05 -2.7623102e-26 2.5527591e-05)
(2.5159254e-05 -2.5526835e-10 6.8772796e-27 2.5159697e-05 1.4557985e-26 2.5159475e-05)
(2.4944424e-05 -2.2869801e-10 -1.0001085e-27 2.4944752e-05 -5.0095368e-27 2.4944588e-05)
(2.4912384e-05 -1.956576e-10 -1.4147407e-27 2.4912611e-05 -5.407654e-27 2.4912497e-05)
(2.5111128e-05 -1.6211041e-10 8.2638202e-28 2.5111275e-05 5.2336742e-27 2.5111201e-05)
(2.5598038e-05 -1.3054003e-10 1.2609131e-28 2.5598125e-05 1.2397588e-27 2.5598081e-05)
(2.6509013e-05 -1.0525114e-10 9.21346e-28 2.6509059e-05 6.7821417e-27 2.6509036e-05)
(2.8018068e-05 -8.642773e-11 -6.1854305e-26 2.8018086e-05 3.2728159e-27 2.8018077e-05)
(3.1255552e-05 -8.3027706e-11 -5.9056842e-26 3.1255554e-05 6.6382389e-29 3.1255553e-05)
(3.5049011e-05 -8.4592402e-11 4.0012537e-30 3.5049011e-05 8.064754e-31 3.5049011e-05)
(3.7558278e-05 -9.1430955e-11 3.7568126e-32 3.7558279e-05 -4.9382997e-30 3.7558279e-05)
(3.9675033e-05 -1.2276643e-10 4.3796086e-34 3.9675034e-05 5.6725031e-30 3.9675033e-05)
(4.1483972e-05 -1.6953484e-10 -1.9427989e-32 4.1483974e-05 -2.2403475e-30 4.1483973e-05)
(4.3094827e-05 -2.3039358e-10 3.4210085e-32 4.3094829e-05 -2.4582245e-30 4.3094828e-05)
(4.4539114e-05 -2.9935403e-10 8.1766151e-33 4.4539117e-05 4.3658005e-30 4.4539115e-05)
(4.5849243e-05 -3.7360468e-10 -4.7889588e-32 4.5849246e-05 -1.4889545e-30 4.5849244e-05)
(4.7044291e-05 -4.4848691e-10 2.6607345e-32 4.7044294e-05 -1.2877038e-31 4.7044293e-05)
(4.8140059e-05 -5.2091033e-10 2.1959924e-32 4.8140062e-05 -9.7826359e-31 4.8140061e-05)
(4.9148572e-05 -5.8774292e-10 -4.1752958e-25 4.9148574e-05 5.3891141e-28 4.9148573e-05)
(5.007969e-05 -6.4663452e-10 -4.5973355e-25 5.0079692e-05 4.8592757e-28 5.0079691e-05)
(5.0941443e-05 -6.9536217e-10 2.468872e-25 5.0941445e-05 -2.0784963e-28 5.0941444e-05)
(5.174067e-05 -7.3189887e-10 2.6005882e-25 5.1740672e-05 -1.712326e-28 5.1740671e-05)
(5.2483271e-05 -7.543622e-10 5.3590326e-25 5.2483272e-05 -2.4446291e-28 5.2483271e-05)
(5.317428e-05 -7.6114067e-10 5.4111625e-25 5.317428e-05 -1.3342005e-28 5.317428e-05)
(5.3818098e-05 -7.5101891e-10 -4.6179903e-33 5.3818098e-05 -3.3698786e-31 5.3818098e-05)
(5.4418625e-05 -7.2329848e-10 1.3520647e-33 5.4418624e-05 3.8871259e-31 5.4418624e-05)
(5.4979289e-05 -6.7785451e-10 7.7265817e-33 5.4979287e-05 -6.8265918e-31 5.4979288e-05)
(5.5503134e-05 -6.1502115e-10 -2.9527906e-32 5.5503132e-05 5.1229657e-31 5.5503133e-05)
(5.5992929e-05 -5.3547501e-10 1.2336843e-32 5.5992926e-05 -7.1904717e-33 5.5992927e-05)
(5.6451131e-05 -4.3995516e-10 -1.5620789e-25 5.6451127e-05 -3.0976173e-28 5.6451129e-05)
(5.6879934e-05 -3.2900551e-10 -2.338006e-25 5.687993e-05 -7.5096062e-28 5.6879932e-05)
(5.7281355e-05 -2.0266296e-10 -7.2060142e-26 5.728135e-05 -4.4417264e-28 5.7281352e-05)
(5.7657214e-05 -6.0370656e-11 -9.5389835e-34 5.7657208e-05 2.6866156e-31 5.7657211e-05)
(5.8009211e-05 9.8967398e-11 2.3703671e-33 5.8009204e-05 -1.0031318e-31 5.8009207e-05)
(5.8338816e-05 2.7680211e-10 2.3151258e-33 5.8338809e-05 1.987413e-32 5.8338813e-05)
(5.8647459e-05 4.7425613e-10 1.8883902e-32 5.8647451e-05 6.1349498e-32 5.8647455e-05)
(5.893639e-05 6.9153806e-10 -1.9432029e-32 5.8936381e-05 -8.6481223e-32 5.8936386e-05)
(5.9206762e-05 9.2728053e-10 -3.9342283e-32 5.9206752e-05 -4.477427e-35 5.9206757e-05)
(5.9459804e-05 1.1782931e-09 -4.1842943e-25 5.9459794e-05 1.0023793e-27 5.9459799e-05)
(5.969639e-05 1.4390417e-09 -5.1124001e-25 5.9696379e-05 1.0379433e-27 5.9696385e-05)
(5.9917805e-05 1.701002e-09 -6.5520635e-33 5.9917794e-05 2.9761771e-32 5.99178e-05)
(6.0124592e-05 1.9528105e-09 5.9698807e-32 6.0124582e-05 2.3949955e-31 6.0124588e-05)
(6.0318048e-05 2.1800737e-09 -6.2433745e-33 6.0318039e-05 -2.0490442e-31 6.0318044e-05)
(6.0498118e-05 2.3654079e-09 8.4001187e-25 6.0498111e-05 -6.8989433e-28 6.0498115e-05)
(6.0664613e-05 2.4906383e-09 8.8477891e-25 6.0664609e-05 -4.3731996e-28 6.0664611e-05)
(6.0818764e-05 2.5370993e-09 -7.4208804e-32 6.0818763e-05 1.4482838e-31 6.0818764e-05)
(6.0960959e-05 2.4840508e-09 1.6686522e-32 6.0960963e-05 3.7150689e-31 6.0960961e-05)
(6.1092056e-05 2.3061916e-09 6.9559669e-32 6.1092065e-05 -1.2059634e-30 6.1092061e-05)
(6.1212443e-05 1.9857229e-09 -6.8750499e-33 6.1212458e-05 -3.5908128e-31 6.1212451e-05)
(6.1323128e-05 1.5046473e-09 -2.5608662e-32 6.132315e-05 7.663541e-31 6.1323139e-05)
(6.1421377e-05 8.1706233e-10 6.2499784e-33 6.1421408e-05 8.4448147e-31 6.1421392e-05)
(6.1513699e-05 -1.0357337e-10 4.6485805e-33 6.1513739e-05 -2.6318512e-30 6.1513718e-05)
(6.1595253e-05 -1.2643409e-09 -2.3777995e-32 6.1595304e-05 2.4446201e-30 6.1595277e-05)
(6.1667818e-05 -2.6898117e-09 -9.5614435e-25 6.166788e-05 5.8383329e-27 6.1667847e-05)
(6.1731674e-05 -4.3804104e-09 -1.5573093e-24 6.1731746e-05 6.7963273e-27 6.1731707e-05)
(6.1787011e-05 -6.2864194e-09 9.9565463e-32 6.1787089e-05 -1.3183708e-30 6.1787047e-05)
(6.1833989e-05 -8.2682522e-09 -5.8646118e-32 6.1834065e-05 1.7667073e-31 6.1834024e-05)
(6.1872792e-05 -1.0062275e-08 3.9697009e-32 6.1872853e-05 1.2025789e-31 6.187282e-05)
(6.1903522e-05 -1.1275829e-08 -4.0082711e-24 6.1903551e-05 2.7490892e-27 6.1903535e-05)
(6.1926279e-05 -1.1491628e-08 -4.0851956e-24 6.1926262e-05 -1.58706e-27 6.1926271e-05)
(6.1941134e-05 -1.0468278e-08 1.1328741e-32 6.194107e-05 8.4772128e-32 6.1941104e-05)
(6.1948065e-05 -8.3615174e-09 2.3758833e-34 6.194797e-05 -2.8448658e-33 6.1948021e-05)
(6.1947017e-05 -5.7937217e-09 9.8649928e-34 6.1946918e-05 -2.2451866e-33 6.1946971e-05)
(6.1938393e-05 -3.4341498e-09 1.0253912e-33 6.1938312e-05 1.2472969e-33 6.1938355e-05)
(6.1921952e-05 -1.6688863e-09 5.9329242e-25 6.1921896e-05 5.3303961e-27 6.1921926e-05)
(6.189745e-05 -5.2165862e-10 1.8544682e-25 6.1897413e-05 3.5081083e-27 6.1897433e-05)
(6.1864963e-05 2.7163082e-10 -6.3841475e-33 6.1864935e-05 2.4356029e-32 6.186495e-05)
(6.182438e-05 9.3975229e-10 -4.1560855e-33 6.1824358e-05 1.5381486e-31 6.182437e-05)
(6.1775564e-05 1.3433738e-09 4.7716393e-25 6.1775557e-05 -6.5277327e-28 6.1775561e-05)
(6.1718362e-05 1.2320761e-09 -4.3274507e-28 6.1718376e-05 -1.1669999e-30 6.1718369e-05)
(6.165261e-05 6.2873001e-10 -2.23493e-25 6.1652638e-05 -2.6639231e-27 6.1652623e-05)
(6.1578095e-05 -1.6023246e-10 1.0236003e-32 6.1578126e-05 1.0936265e-30 6.1578109e-05)
(6.1494563e-05 -8.8580893e-10 2.0627605e-32 6.149459e-05 -8.930645e-31 6.1494575e-05)
(6.1401758e-05 -1.467388e-09 -2.1602059e-32 6.1401779e-05 1.3544765e-30 6.1401767e-05)
(6.1299368e-05 -1.9186836e-09 -1.7194287e-33 6.1299385e-05 3.6379683e-31 6.1299376e-05)
(6.118705e-05 -2.289351e-09 -7.2334515e-32 6.1187064e-05 -8.9333447e-31 6.1187057e-05)
(6.1064445e-05 -2.6204203e-09 1.064034e-31 6.1064458e-05 -1.2909266e-30 6.1064451e-05)
(6.0931138e-05 -2.9298336e-09 -5.6283054e-32 6.093115e-05 8.2208211e-31 6.0931143e-05)
(6.0786679e-05 -3.2197751e-09 -4.9715467e-32 6.078669e-05 2.2735878e-31 6.0786684e-05)
(6.0630587e-05 -3.4844414e-09 2.4524191e-32 6.0630597e-05 -1.2302071e-30 6.0630592e-05)
(6.0462309e-05 -3.7149464e-09 9.3651936e-32 6.0462317e-05 -3.5143814e-31 6.0462313e-05)
(6.0281262e-05 -3.891935e-09 -1.307262e-31 6.0281268e-05 2.3346915e-31 6.0281265e-05)
(6.0086819e-05 -3.9871849e-09 1.416444e-24 6.0086822e-05 -1.600004e-28 6.0086821e-05)
(5.9878268e-05 -3.9767982e-09 1.4122095e-24 5.9878266e-05 2.7486847e-28 5.9878267e-05)
(5.9654862e-05 -3.8482616e-09 -1.3671269e-24 5.9654855e-05 -7.240306e-28 5.9654859e-05)
(5.9415786e-05 -3.6128879e-09 -1.2829624e-24 5.9415775e-05 -1.1071718e-27 5.9415781e-05)
(5.9160113e-05 -3.298091e-09 -7.8268826e-32 5.9160099e-05 -1.5709927e-31 5.9160107e-05)
(5.8886883e-05 -2.9334402e-09 1.0421739e-24 5.8886867e-05 1.542879e-27 5.8886876e-05)
(5.8595046e-05 -2.5461694e-09 9.0414406e-25 5.859503e-05 1.6006291e-27 5.8595039e-05)
(5.8283412e-05 -2.1591736e-09 -1.5348973e-24 5.8283397e-05 -3.1227929e-27 5.8283405e-05)
(5.7950743e-05 -1.7974503e-09 -1.277071e-24 5.7950729e-05 -2.8365212e-27 5.7950737e-05)
(5.759566e-05 -1.4865757e-09 4.7575685e-32 5.7595649e-05 1.341257e-31 5.7595655e-05)
(5.7216605e-05 -1.2506345e-09 4.4472968e-25 5.7216597e-05 8.7268532e-28 5.7216602e-05)
(5.6811957e-05 -1.1052492e-09 3.9277907e-25 5.6811952e-05 5.400371e-28 5.6811955e-05)
(5.6379911e-05 -1.0485832e-09 4.4725943e-32 5.6379909e-05 2.2163037e-30 5.6379911e-05)
(5.5918405e-05 -1.0577565e-09 3.6979218e-32 5.5918405e-05 -5.2140212e-31 5.5918405e-05)
(5.5425257e-05 -1.0901893e-09 -1.6636238e-25 5.5425257e-05 -5.8460678e-27 5.5425258e-05)
(5.4898017e-05 -1.0909257e-09 2.0494114e-25 5.4898014e-05 -9.4206294e-24 5.4898016e-05)
(5.4333919e-05 -1.0051258e-09 5.210273e-25 5.4333912e-05 -1.0352012e-23 5.4333917e-05)
(5.3729952e-05 -7.9274357e-10 3.9157058e-25 5.3729939e-05 1.4750598e-26 5.3729947e-05)
(5.3082675e-05 -4.3907284e-10 2.2232368e-25 5.3082657e-05 1.1942187e-23 5.3082667e-05)
(5.2388212e-05 4.375672e-11 -2.0741663e-25 5.2388189e-05 1.2544308e-23 5.2388202e-05)
(5.1642178e-05 6.3038203e-10 -2.1804155e-25 5.1642152e-05 -8.7428746e-27 5.1642166e-05)
(5.0839555e-05 1.3039547e-09 -1.6246078e-31 5.0839525e-05 -6.1457192e-30 5.0839541e-05)
(4.9974518e-05 2.0592528e-09 -3.3218724e-32 4.9974485e-05 -1.8559973e-30 4.9974503e-05)
(4.9040299e-05 2.8933086e-09 1.9042251e-31 4.9040262e-05 4.4927531e-30 4.9040282e-05)
(4.8028804e-05 3.7933669e-09 2.7443295e-31 4.8028765e-05 -2.2184324e-30 4.8028786e-05)
(4.6930237e-05 4.7300844e-09 -2.3486835e-31 4.6930197e-05 6.7619174e-30 4.6930219e-05)
(4.5732734e-05 5.6658451e-09 3.415192e-31 4.5732693e-05 -9.8034049e-30 4.5732715e-05)
(4.442052e-05 6.5567861e-09 -6.0497579e-31 4.4420481e-05 7.6832179e-30 4.4420502e-05)
(4.297461e-05 7.3758319e-09 1.2455279e-31 4.2974573e-05 -1.1792295e-29 4.2974592e-05)
(4.1362749e-05 8.0758595e-09 -4.4303094e-31 4.1362716e-05 3.8772065e-30 4.1362733e-05)
(3.9553601e-05 8.6663618e-09 1.308128e-30 3.9553573e-05 1.9817203e-30 3.9553587e-05)
(3.7437295e-05 8.9743786e-09 -7.8147404e-31 3.7437276e-05 -3.1539564e-31 3.7437285e-05)
(3.4929429e-05 9.0373613e-09 -6.9531082e-30 3.4929439e-05 7.1169316e-30 3.4929433e-05)
(3.1147816e-05 7.590052e-09 -6.4198439e-28 3.1148061e-05 -3.4764056e-28 3.1147935e-05)
(2.7926026e-05 5.7595561e-09 2.3342259e-27 2.7927325e-05 -2.0072078e-26 2.7926675e-05)
(2.6429703e-05 4.9718713e-09 7.5063378e-27 2.6431934e-05 -3.2949073e-26 2.6430819e-05)
(2.551927e-05 4.3453961e-09 -4.1716777e-28 2.5522219e-05 1.7143043e-26 2.5520745e-05)
(2.5026283e-05 3.9130548e-09 3.4136047e-29 2.5029881e-05 -2.1384082e-26 2.5028083e-05)
(2.483059e-05 3.5757107e-09 5.9815754e-28 2.4834786e-05 -8.6070917e-27 2.4832689e-05)
(2.4853326e-05 3.3052011e-09 2.4712812e-27 2.48581e-05 -3.6172503e-26 2.4855714e-05)
(2.5055368e-05 3.0720013e-09 5.4325287e-27 2.5060719e-05 1.5854458e-26 2.5058045e-05)
(2.5426758e-05 2.8769476e-09 3.4703811e-27 2.5432714e-05 1.1917452e-26 2.5429737e-05)
(2.5928922e-05 2.7010161e-09 1.686353e-26 2.5935507e-05 -3.1732701e-26 2.5932216e-05)
(2.6573367e-05 2.5391673e-09 -1.0941314e-26 2.6580618e-05 -3.7150671e-27 2.6576994e-05)
(2.7405089e-05 2.394228e-09 4.2663226e-26 2.7413077e-05 -4.0580975e-26 2.7409085e-05)
(2.8483981e-05 2.2959043e-09 -1.6620663e-26 2.849288e-05 3.2634537e-26 2.8488433e-05)
(2.9784843e-05 2.2431636e-09 1.4880033e-27 2.9794807e-05 -1.5118943e-26 2.9789829e-05)
(3.1221973e-05 2.2108496e-09 -4.3668741e-27 3.1233075e-05 -6.0508034e-27 3.1227529e-05)
(3.2781747e-05 2.1931704e-09 -1.5985267e-26 3.2794034e-05 -1.4499608e-26 3.2787897e-05)
(3.4459082e-05 2.189565e-09 -3.0509002e-26 3.4472568e-05 -2.8127447e-26 3.4465834e-05)
(3.6245218e-05 2.2015645e-09 1.1899093e-26 3.625989e-05 5.8515693e-27 3.6252565e-05)
(3.8137314e-05 2.2329143e-09 -3.280174e-26 3.8153129e-05 -1.0146697e-26 3.8145234e-05)
(4.0109953e-05 2.287442e-09 -1.7039521e-24 4.0126835e-05 -1.2813626e-24 4.0118409e-05)
(4.2086633e-05 2.3567959e-09 -1.8158447e-24 4.2104402e-05 -1.3387835e-24 4.2095534e-05)
(4.392033e-05 2.3997785e-09 -2.64129e-26 4.393866e-05 2.164179e-26 4.3929513e-05)
(4.5585853e-05 2.3823454e-09 3.8950542e-26 4.5604368e-05 -3.6653458e-26 4.559513e-05)
(4.7162077e-05 2.2965188e-09 -2.144738e-25 4.7180483e-05 2.1695506e-25 4.71713e-05)
(4.878644e-05 2.1777107e-09 -1.7810925e-24 4.8804531e-05 -1.4291783e-24 4.8795506e-05)
(5.0414318e-05 2.0204915e-09 -1.9981879e-24 5.0431855e-05 -1.0023173e-24 5.0423107e-05)
(5.2118691e-05 1.8305126e-09 -2.1501345e-26 5.213545e-05 -1.0101716e-26 5.2127091e-05)
(5.3969109e-05 1.6148701e-09 1.1725291e-25 5.398487e-05 -1.0391949e-25 5.3977009e-05)
(5.6035816e-05 1.3786158e-09 -2.1209328e-25 5.6050323e-05 2.2391736e-25 5.6043087e-05)
(5.8513126e-05 1.1272636e-09 1.1166285e-25 5.8526105e-05 -7.7697158e-26 5.8519633e-05)
(6.1840228e-05 8.7692757e-10 -1.5346883e-25 6.1851342e-05 1.4325916e-25 6.18458e-05)
(6.6527913e-05 6.5760122e-10 -3.0849127e-25 6.6536664e-05 3.7688317e-25 6.65323e-05)
(7.2575396e-05 3.7900112e-10 2.4758326e-25 7.2580457e-05 -3.0504967e-25 7.2577933e-05)
(8.0345392e-05 -1.4474495e-10 2.136802e-26 8.0344194e-05 -1.6688338e-26 8.0344793e-05)
(8.9905902e-05 -1.0864203e-09 -5.5060612e-25 8.989612e-05 6.6260033e-25 8.9901e-05)
(0.00010323301 -3.0115402e-09 7.732128e-25 0.00010321046 -9.9302752e-25 0.00010322171)
(0.00011685903 -6.9609641e-09 -7.6952084e-25 0.00011681748 9.0443614e-25 0.00011683819)
(0.00014663817 -1.5582804e-08 -1.6172436e-25 0.00014656643 5.8033849e-25 0.00014660219)
(0.00014841679 -3.1264784e-08 -3.681318e-25 0.00014830934 1.8430812e-25 0.00014836291)
(0.00026012121 -7.0213298e-08 2.8083326e-23 0.00025994845 1.3468841e-23 0.0002600346)
(9.5204033e-05 -9.1189304e-08 3.2791911e-23 9.5053783e-05 1.1816877e-23 9.5128733e-05)
(0.00082179765 -2.4116268e-07 2.5499643e-26 0.0008215444 -6.9203669e-25 0.0008216708)
(0.00035563249 -1.521612e-07 -1.0858311e-25 0.00035553737 -2.2802637e-25 0.00035558488)
(0.0059174069 -7.3942796e-07 3.4929274e-25 0.0059171682 9.4526511e-25 0.0059172877)
(0.0087127489 -9.783229e-07 -3.1778119e-25 0.0087126333 1.5628397e-25 0.0087126913)
(0.024069114 -4.5780848e-06 2.8465678e-21 0.024069081 5.4085172e-24 0.024069098)
(0.0090055094 -2.2496743e-06 1.3986367e-21 0.0090055504 -6.6419485e-24 0.0090055307)
(0.007358048 -5.1042851e-06 -1.426991e-25 0.007357959 -3.0579198e-25 0.0073580033)
(0.0034326677 -2.0986824e-06 1.1868899e-21 0.0034326645 2.7165922e-25 0.0034326655)
(0.0069649722 -4.9861304e-06 9.0474095e-21 0.0069655135 -2.4700517e-22 0.0069652433)
(0.0033059891 -1.100316e-06 1.6463227e-21 0.0033063027 -1.200186e-22 0.0033061457)
(0.002590041 -2.5776834e-07 7.3580727e-23 0.0025901839 -1.0172045e-23 0.0025901125)
(0.00016568994 -1.8578483e-09 -4.7101609e-25 0.0001656892 1.5598261e-25 0.00016568961)
(0.00042548096 3.6846253e-08 -1.3848539e-23 0.00042541717 5.2855287e-24 0.00042544915)
(6.4224869e-05 2.0124489e-08 9.4271259e-26 6.4174908e-05 9.5945072e-26 6.4199924e-05)
(0.00013902221 1.1037632e-08 -4.6766433e-24 0.0001389843 3.2898096e-24 0.00013900327)
(8.5375071e-05 5.3731867e-09 -2.9223612e-24 8.535023e-05 1.7778258e-24 8.536266e-05)
(8.3543301e-05 3.0881492e-09 -8.8017602e-26 8.3524604e-05 -1.9632603e-25 8.353396e-05)
(6.9183057e-05 1.8568792e-09 -4.4005495e-26 6.9168797e-05 -8.5993821e-26 6.9175933e-05)
(6.190003e-05 1.1788438e-09 9.930505e-26 6.1888915e-05 3.7035957e-26 6.1894478e-05)
(5.4878657e-05 7.7599778e-10 4.5887759e-24 5.4870048e-05 -4.0429919e-24 5.4874357e-05)
(4.9552261e-05 5.4327496e-10 3.419779e-24 4.9545553e-05 -3.2511895e-24 4.9548911e-05)
(4.5145497e-05 4.0087486e-10 -6.9135e-26 4.5140367e-05 -5.4431556e-26 4.5142935e-05)
(4.1640781e-05 3.2244587e-10 -6.2112867e-25 4.1636793e-05 6.6317731e-25 4.1638789e-05)
(3.899758e-05 2.849206e-10 -3.9403426e-25 3.8994349e-05 6.9001115e-25 3.8995966e-05)
(3.6937106e-05 2.557392e-10 -1.5552632e-25 3.6934443e-05 2.8412639e-25 3.6935776e-05)
(3.5192972e-05 2.3183904e-10 -1.6589403e-25 3.5190727e-05 2.1536525e-25 3.5191851e-05)
(3.3631178e-05 2.0968751e-10 1.1588262e-25 3.3629271e-05 1.2505919e-25 3.3630225e-05)
(3.2203098e-05 1.8818708e-10 -7.4477529e-26 3.2201475e-05 -1.0421801e-25 3.2202287e-05)
(3.08564e-05 1.6783007e-10 -1.6674268e-25 3.0855017e-05 -2.1568528e-25 3.0855709e-05)
(2.9565013e-05 1.4587698e-10 6.4573403e-26 2.9563858e-05 7.9431425e-26 2.9564436e-05)
(2.829178e-05 1.2071376e-10 3.3604123e-26 2.8290859e-05 5.008145e-26 2.829132e-05)
(2.7017698e-05 9.2513803e-11 -4.4109071e-26 2.7017018e-05 -6.0150388e-26 2.7017359e-05)
(2.5678365e-05 5.9639608e-11 -4.6045645e-26 2.567795e-05 -6.5227912e-26 2.5678158e-05)
(2.4266498e-05 2.3799297e-11 -1.2676081e-26 2.4266365e-05 -1.1139231e-26 2.4266432e-05)
(2.2851359e-05 -1.6141048e-11 1.3512378e-26 2.2851518e-05 1.8280469e-26 2.2851439e-05)
(2.1482502e-05 -5.5357206e-11 6.5999946e-26 2.1482914e-05 8.9281493e-26 2.1482708e-05)
(2.0174416e-05 -9.5888846e-11 2.1927777e-26 2.0175046e-05 3.859262e-26 2.0174731e-05)
(1.8932876e-05 -1.3833824e-10 2.5871728e-26 1.8933685e-05 3.5381633e-26 1.8933281e-05)
(1.7763216e-05 -1.8083835e-10 6.9528334e-26 1.776415e-05 1.0887476e-25 1.7763683e-05)
(1.6669445e-05 -2.2155652e-10 2.1859407e-27 1.6670448e-05 -1.768894e-27 1.6669946e-05)
(1.5663793e-05 -2.5820698e-10 1.0011298e-25 1.5664805e-05 -1.8113916e-25 1.5664299e-05)
(1.47784e-05 -2.8860067e-10 1.7636218e-25 1.477937e-05 -5.6322906e-26 1.4778885e-05)
(1.4044175e-05 -3.0977275e-10 1.2174555e-25 1.404506e-05 -1.0218686e-25 1.4044617e-05)
(1.3438425e-05 -3.172454e-10 6.6565106e-25 1.3439195e-05 -3.7590973e-25 1.343881e-05)
(1.2931175e-05 -3.0948767e-10 5.3073875e-25 1.2931809e-05 -1.7186997e-25 1.2931492e-05)
(1.2519338e-05 -2.8794285e-10 -4.8677453e-25 1.2519832e-05 1.0678487e-25 1.2519585e-05)
(1.2211913e-05 -2.5584671e-10 -3.8804823e-25 1.2212275e-05 1.4476018e-25 1.2212094e-05)
(1.2021936e-05 -2.1795088e-10 -2.1115726e-27 1.2022185e-05 -6.4248508e-27 1.2022061e-05)
(1.1970986e-05 -1.8053237e-10 -2.5350933e-25 1.1971146e-05 5.1939399e-26 1.1971066e-05)
(1.2087283e-05 -1.4608445e-10 -1.9778662e-25 1.2087377e-05 4.259246e-26 1.208733e-05)
(1.2433541e-05 -1.18676e-10 -2.5613743e-27 1.243359e-05 -1.8434624e-26 1.2433565e-05)
(1.3101328e-05 -9.834045e-11 6.0015673e-26 1.3101348e-05 1.4724089e-27 1.3101338e-05)
(1.457746e-05 -9.3467724e-11 5.6435091e-26 1.4577462e-05 -4.1872144e-28 1.4577461e-05)
(1.6296657e-05 -9.325416e-11 8.9103347e-31 1.6296657e-05 3.0866067e-30 1.6296657e-05)
(1.7449536e-05 -9.7640192e-11 6.5464566e-32 1.7449538e-05 7.2943426e-31 1.7449537e-05)
(1.8413346e-05 -1.249408e-10 4.7105207e-33 1.841335e-05 -3.433316e-30 1.8413348e-05)
(1.9237733e-05 -1.6642537e-10 -7.4577489e-32 1.9237738e-05 1.0127468e-30 1.9237735e-05)
(1.9970308e-05 -2.20601e-10 1.5463883e-25 1.9970314e-05 -7.6950439e-28 1.9970311e-05)
(2.0626788e-05 -2.8173026e-10 1.9913365e-25 2.0626795e-05 -8.4384296e-28 2.0626792e-05)
(2.1221742e-05 -3.4710372e-10 -1.2277661e-31 2.1221749e-05 -2.8935958e-30 2.1221745e-05)
(2.1764099e-05 -4.1236348e-10 1.5687264e-32 2.1764106e-05 2.9704022e-30 2.1764103e-05)
(2.2261097e-05 -4.7463057e-10 6.1119597e-32 2.2261103e-05 1.6908639e-30 2.22611e-05)
(2.2718277e-05 -5.3104847e-10 3.8507595e-25 2.2718283e-05 -4.9847796e-28 2.271828e-05)
(2.3140166e-05 -5.7950535e-10 4.2173714e-25 2.3140171e-05 -4.4704598e-28 2.3140169e-05)
(2.3530459e-05 -6.1803728e-10 -2.267817e-25 2.3530462e-05 1.9476241e-28 2.3530461e-05)
(2.3892292e-05 -6.4490261e-10 6.9583799e-25 2.3892294e-05 -4.1464781e-28 2.3892293e-05)
(2.4228364e-05 -6.5854504e-10 1.4246796e-24 2.4228364e-05 -1.8101145e-28 2.4228364e-05)
(2.4540984e-05 -6.5769364e-10 4.680813e-25 2.4540982e-05 3.1584315e-28 2.4540983e-05)
(2.4832164e-05 -6.4148812e-10 -1.5390404e-31 2.4832161e-05 6.1935371e-32 2.4832163e-05)
(2.5103686e-05 -6.0956472e-10 1.2653434e-32 2.5103681e-05 -1.5765003e-31 2.5103683e-05)
(2.5357115e-05 -5.6210366e-10 -2.9067191e-32 2.5357108e-05 -3.2569935e-31 2.5357112e-05)
(2.5593845e-05 -4.9971121e-10 5.3462474e-33 2.5593837e-05 1.1636463e-30 2.5593841e-05)
(2.5815133e-05 -4.2328553e-10 -2.4036675e-33 2.5815123e-05 -1.212828e-30 2.5815128e-05)
(2.6022106e-05 -3.3376278e-10 1.4184571e-25 2.6022095e-05 2.8261458e-28 2.6022101e-05)
(2.6215762e-05 -2.3184992e-10 7.762993e-25 2.6215749e-05 5.1677228e-27 2.6215755e-05)
(2.6397017e-05 -1.1774391e-10 3.8628796e-25 2.6397003e-05 5.4513e-27 2.639701e-05)
(2.6566701e-05 8.9555425e-12 3.3568509e-33 2.6566685e-05 1.5529812e-31 2.6566693e-05)
(2.6725583e-05 1.4920556e-10 7.4732969e-33 2.6725566e-05 -5.0495908e-32 2.6725575e-05)
(2.6874338e-05 3.0437165e-10 -2.5446978e-32 2.6874318e-05 -1.0768745e-32 2.6874328e-05)
(2.7013613e-05 4.7557743e-10 -1.9048778e-33 2.7013592e-05 3.734772e-32 2.7013602e-05)
(2.7143983e-05 6.6316358e-10 1.0026284e-31 2.714396e-05 -3.8366632e-32 2.7143971e-05)
(2.7265982e-05 8.6607588e-10 -5.674244e-32 2.7265958e-05 -2.0054243e-32 2.726597e-05)
(2.738017e-05 1.0816604e-09 3.779697e-25 2.7380145e-05 -9.0532457e-28 2.7380157e-05)
(2.7486979e-05 1.3051208e-09 4.6080193e-25 2.7486953e-05 -9.3538644e-28 2.7486965e-05)
(2.7586985e-05 1.5289159e-09 -4.7199986e-33 2.758696e-05 -1.5030331e-32 2.7586972e-05)
(2.7680477e-05 1.7428349e-09 1.8386292e-31 2.7680454e-05 3.3536067e-31 2.7680465e-05)
(2.7767974e-05 1.9337958e-09 6.2604296e-32 2.7767954e-05 -7.859202e-31 2.7767963e-05)
(2.784943e-05 2.0860574e-09 -7.5751233e-25 2.7849415e-05 6.2214137e-28 2.7849422e-05)
(2.7924742e-05 2.1830967e-09 -7.9672475e-25 2.7924735e-05 3.9422183e-28 2.7924738e-05)
(2.7994393e-05 2.2080447e-09 6.7704421e-32 2.7994395e-05 9.8688863e-31 2.7994394e-05)
(2.8058595e-05 2.1421892e-09 -4.6667963e-24 2.8058608e-05 -4.4011195e-27 2.8058601e-05)
(2.8117732e-05 1.9637655e-09 -4.308205e-24 2.8117759e-05 -9.3591598e-27 2.8117745e-05)
(2.817201e-05 1.6568684e-09 -1.3891066e-31 2.8172052e-05 -4.5318084e-31 2.8172031e-05)
(2.8223442e-05 1.203784e-09 1.3524949e-31 2.8223504e-05 -7.4523488e-31 2.8223473e-05)
(2.8263725e-05 5.6440246e-10 -9.2403645e-25 2.8263809e-05 -1.9913341e-26 2.8263767e-05)
(2.8307752e-05 -2.8015727e-10 2.656865e-25 2.830786e-05 -2.5784178e-26 2.8307807e-05)
(2.8344489e-05 -1.3337291e-09 3.8752685e-32 2.8344622e-05 1.1439199e-30 2.8344557e-05)
(2.8377175e-05 -2.6170158e-09 8.6402231e-25 2.8377336e-05 -5.2770833e-27 2.8377257e-05)
(2.8405938e-05 -4.1271973e-09 1.4068033e-24 2.8406123e-05 -6.1397029e-27 2.8406032e-05)
(2.8430868e-05 -5.8173142e-09 3.8137372e-32 2.8431067e-05 1.5122194e-30 2.8430969e-05)
(2.8452042e-05 -7.5636736e-09 -2.0901134e-32 2.8452236e-05 6.3541519e-32 2.8452141e-05)
(2.8469548e-05 -9.1384344e-09 9.7018668e-32 2.8469702e-05 -5.5417564e-31 2.8469627e-05)
(2.8483436e-05 -1.0207248e-08 3.6166028e-24 2.8483509e-05 -2.4801486e-27 2.8483473e-05)
(2.8493748e-05 -1.0417525e-08 3.679786e-24 2.8493707e-05 1.4296527e-27 2.8493727e-05)
(2.8500503e-05 -9.5624685e-09 -6.6194055e-32 2.8500343e-05 -7.3911954e-32 2.8500422e-05)
(2.8503438e-05 -7.7488616e-09 5.1157673e-33 2.8503199e-05 -8.2655282e-33 2.8503317e-05)
(2.8502807e-05 -5.484838e-09 -1.1549687e-33 2.8502554e-05 2.3492905e-33 2.8502679e-05)
(2.8499156e-05 -3.3493043e-09 -1.7037117e-32 2.8498944e-05 -1.8365673e-33 2.8499048e-05)
(2.8491922e-05 -1.7061166e-09 -5.3200503e-25 2.8491772e-05 -4.7796714e-27 2.8491845e-05)
(2.8480882e-05 -6.0988212e-10 2.1652125e-25 2.8480781e-05 8.7517521e-27 2.8480831e-05)
(2.8466256e-05 1.4744355e-10 -1.3894258e-25 2.846618e-05 8.9816357e-27 2.8466217e-05)
(2.8447984e-05 7.4951032e-10 -7.3251294e-33 2.8447929e-05 2.8185428e-33 2.8447956e-05)
(2.8425997e-05 1.0745922e-09 -4.2920799e-25 2.8425982e-05 5.8733464e-28 2.8425989e-05)
(2.8400228e-05 9.3474031e-10 1.8787816e-28 2.8400265e-05 2.6019488e-31 2.8400247e-05)
(2.8370613e-05 3.7672709e-10 2.0142895e-25 2.8370684e-05 2.3996804e-27 2.8370649e-05)
(2.8337063e-05 -3.2626507e-10 -2.8351741e-32 2.8337141e-05 5.7023054e-31 2.8337103e-05)
(2.8299459e-05 -9.6487384e-10 -3.7706988e-32 2.8299526e-05 -1.046442e-31 2.8299493e-05)
(2.8257676e-05 -1.4762357e-09 8.4836966e-32 2.8257729e-05 -2.1524092e-31 2.8257703e-05)
(2.8211573e-05 -1.8746493e-09 -1.3415436e-32 2.8211615e-05 -3.6444401e-31 2.8211595e-05)
(2.8160994e-05 -2.2027549e-09 -1.5067802e-32 2.816103e-05 -4.2937656e-31 2.8161012e-05)
(2.8105776e-05 -2.4948124e-09 1.4247466e-31 2.810581e-05 5.8708124e-31 2.8105793e-05)
(2.8045735e-05 -2.7651738e-09 -2.2218023e-31 2.8045766e-05 -3.3206408e-31 2.8045751e-05)
(2.7980665e-05 -3.0146627e-09 -2.9309891e-32 2.7980694e-05 -2.8733618e-33 2.7980679e-05)
(2.791035e-05 -3.237164e-09 -2.5945498e-31 2.7910376e-05 2.0744927e-30 2.7910363e-05)
(2.783454e-05 -3.4234862e-09 -1.2710612e-32 2.7834561e-05 9.6779017e-32 2.7834551e-05)
(2.7752972e-05 -3.5556973e-09 4.0500908e-31 2.7752987e-05 -2.9326566e-30 2.7752979e-05)
(2.7665362e-05 -3.6094278e-09 -1.2743825e-24 2.7665367e-05 1.4603211e-28 2.7665364e-05)
(2.7571386e-05 -3.5656627e-09 -1.2727803e-24 2.757138e-05 -2.4846041e-28 2.7571383e-05)
(2.7470706e-05 -3.4170009e-09 1.230406e-24 2.7470688e-05 6.5346012e-28 2.7470697e-05)
(2.7362951e-05 -3.1773512e-09 1.1571391e-24 2.7362925e-05 9.9803461e-28 2.7362937e-05)
(2.7247703e-05 -2.8735625e-09 -1.3529243e-31 2.7247669e-05 -2.4108106e-31 2.7247685e-05)
(2.7124525e-05 -2.532249e-09 -9.3919017e-25 2.7124488e-05 -1.3899575e-27 2.7124505e-05)
(2.6992941e-05 -2.1759677e-09 -8.1690432e-25 2.6992902e-05 -1.4460604e-27 2.6992921e-05)
(2.6852411e-05 -1.8222616e-09 1.384763e-24 2.6852374e-05 2.8178795e-27 2.6852392e-05)
(2.6702372e-05 -1.4903871e-09 1.1553571e-24 2.6702339e-05 2.5655617e-27 2.6702355e-05)
(2.6542199e-05 -1.2010204e-09 2.9550447e-32 2.6542172e-05 -1.3399851e-30 2.6542185e-05)
(2.6371186e-05 -9.7508365e-10 -1.8992735e-24 2.6371168e-05 -5.4436854e-27 2.6371177e-05)
(2.6188594e-05 -8.2749491e-10 -1.6542751e-24 2.6188585e-05 -2.9064848e-27 2.6188589e-05)
(2.5993602e-05 -7.5878269e-10 -7.4640352e-32 2.5993601e-05 -1.0021665e-29 2.5993601e-05)
(2.5785279e-05 -7.513081e-10 2.1211603e-32 2.5785283e-05 9.9076681e-30 2.5785281e-05)
(2.5562631e-05 -7.6983599e-10 1.3168094e-31 2.5562635e-05 -4.2091097e-30 2.5562632e-05)