/*--------------------------------*- C++ -*----------------------------------*\
| =========                 |                                                 |
| \\      /  F ield         | OpenFOAM: The Open Source CFD Toolbox           |
|  \\    /   O peration     | Version:  2.4.0                                 |
|   \\  /    A nd           | Web:      www.OpenFOAM.org                      |
|    \\/     M anipulation  |                                                 |
\*---------------------------------------------------------------------------*/
FoamFile
{
    version     2.0;
    format      ascii;
    class       volScalarField;
    location    "350";
    object      k;
}
// * * * * * * * * * * * * * * * * * * * * * * * * * * * * * * * * * * * * * //

dimensions      [0 2 -2 0 0 0 0];

internalField   nonuniform List<scalar> 
19650
(
0.033299678
0.033345959
0.033393355
0.033441939
0.033491771
0.033542901
0.033595378
0.033649247
0.033704552
0.033761337
0.033819647
0.033879526
0.033941021
0.034004178
0.034069044
0.034135669
0.034204102
0.034274393
0.034346593
0.034420754
0.034496933
0.034575185
0.03465557
0.03473815
0.034822986
0.034910146
0.034999695
0.035091708
0.035186258
0.035283424
0.035383285
0.035485923
0.035591418
0.035699848
0.035811275
0.035925731
0.036043191
0.036163529
0.036286277
0.036411864
0.03654091
0.036673388
0.036809199
0.036947986
0.037088777
0.0372243
0.03733704
0.037420325
0.037475467
0.037502785
0.037503025
0.037477241
0.037426394
0.037351456
0.03725333
0.037133141
0.036991734
0.036829867
0.036648322
0.036447965
0.03622988
0.035995857
0.035747913
0.035487845
0.035217292
0.031882738
0.031926783
0.031972149
0.032018846
0.032066897
0.032116336
0.032167198
0.032219523
0.032273353
0.03232873
0.032385699
0.032444305
0.032504596
0.032566618
0.032630422
0.032696057
0.032763573
0.032833019
0.032904444
0.032977902
0.03305345
0.033131147
0.033211055
0.033293238
0.033377758
0.033464678
0.033554073
0.033646021
0.033740601
0.033837896
0.03393799
0.034040967
0.034146909
0.034255893
0.034367975
0.034483166
0.034601416
0.034722512
0.034846093
0.034973286
0.035104129
0.035238636
0.035376733
0.035518083
0.035661729
0.035800343
0.035915871
0.036002235
0.036060146
0.03608966
0.036091847
0.036067656
0.036018096
0.035944234
0.035847125
0.035727983
0.035587672
0.035427136
0.035247281
0.035049178
0.034834009
0.03460366
0.034360215
0.034105545
0.033841303
0.030517077
0.03055756
0.030599386
0.030642579
0.030687163
0.030733172
0.030780639
0.030829602
0.0308801
0.030932175
0.03098587
0.031041231
0.031098303
0.031157136
0.031217779
0.03128028
0.031344685
0.031411032
0.031479366
0.03154974
0.031622216
0.031696856
0.031773727
0.031852891
0.031934402
0.032018306
0.032104703
0.032193681
0.032285328
0.032379728
0.032476968
0.032577132
0.032680302
0.032786549
0.032895915
0.033008384
0.033123839
0.033241813
0.033363378
0.033488647
0.033617686
0.033750543
0.033887171
0.034027275
0.034169951
0.034307918
0.0344235
0.034510959
0.034570039
0.034601292
0.034605613
0.034583886
0.034537123
0.034466455
0.034373055
0.034257989
0.034122175
0.033966723
0.033792679
0.033601153
0.033393389
0.033171301
0.03293698
0.032692291
0.032438876
0.029218896
0.029254741
0.029291884
0.029330362
0.029370213
0.029411473
0.029454181
0.029498374
0.029544092
0.029591377
0.029640272
0.02969082
0.029743067
0.029797061
0.029852849
0.029910478
0.029969986
0.030031361
0.030094633
0.03015988
0.030227181
0.030296607
0.030368224
0.030442102
0.030518316
0.030596939
0.030678041
0.0307617
0.030847994
0.030937004
0.03102881
0.031123496
0.031221139
0.0313218
0.031425504
0.031532204
0.031641603
0.031754077
0.031870215
0.031990073
0.032113731
0.032241244
0.032372584
0.032507506
0.032645234
0.032779058
0.032892165
0.032978507
0.0330376
0.033070133
0.033076627
0.03305787
0.03301495
0.032949089
0.032861451
0.032752735
0.032624184
0.032476886
0.032311912
0.032130387
0.031933564
0.031723316
0.031501748
0.0312706
0.031031475
0.02799808
0.028028481
0.028060119
0.028093044
0.028127297
0.028162918
0.028199944
0.028238414
0.028278367
0.028319842
0.028362881
0.028407526
0.02845382
0.028501809
0.028551541
0.028603063
0.028656426
0.028711672
0.028768801
0.028827801
0.028888775
0.028951801
0.029016936
0.029084253
0.029153841
0.029225789
0.029300145
0.029376968
0.029456328
0.029538297
0.029622953
0.029710372
0.029800625
0.029893763
0.029989798
0.030088666
0.030190068
0.030294909
0.030403269
0.030515237
0.030630905
0.030750335
0.030873516
0.03100026
0.03113
0.031255827
0.031362063
0.031443489
0.031499738
0.031531292
0.031538634
0.031522463
0.03148372
0.031423629
0.031342899
0.031242244
0.03112285
0.03098578
0.030832084
0.030662874
0.03047938
0.030283384
0.030076971
0.029861753
0.029639222
0.02685809
0.026882488
0.026908132
0.026935041
0.026963239
0.026992755
0.02702362
0.027055866
0.027089528
0.027124642
0.027161247
0.027199381
0.027239086
0.027280405
0.027323383
0.027368069
0.027414525
0.027462855
0.027513124
0.027565349
0.027619547
0.027675725
0.027733829
0.027793977
0.027856259
0.027920746
0.027987496
0.028056574
0.028128045
0.028201979
0.028278447
0.028357521
0.028439262
0.028523706
0.028610826
0.028700362
0.028792971
0.028888817
0.028987996
0.029090611
0.029196755
0.029306495
0.029419826
0.029536565
0.029656164
0.029771576
0.029868158
0.029942006
0.029992983
0.030021395
0.030027794
0.030012881
0.029977571
0.029922423
0.029848137
0.029755572
0.029645702
0.029519513
0.029377982
0.029222149
0.029053149
0.028872666
0.028682649
0.028484526
0.028279669
0.025730997
0.025745847
0.025761658
0.025778379
0.025795767
0.025814323
0.025834055
0.02585498
0.025877118
0.025900495
0.025925137
0.025951076
0.025978342
0.026006968
0.026036991
0.026068446
0.026101372
0.026135808
0.026171795
0.02620938
0.026248614
0.026289566
0.026332336
0.02637703
0.026423654
0.026472236
0.026522809
0.026575405
0.026630056
0.026686745
0.026745469
0.026806333
0.02686941
0.026934772
0.027002486
0.027072615
0.027145211
0.027220299
0.027297839
0.027377733
0.027460602
0.027546514
0.027635555
0.02772782
0.027823392
0.027922333
0.028024636
0.028130117
0.028238215
0.028341958
0.028428612
0.028494646
0.02853995
0.028564781
0.028569606
0.028555076
0.028522143
0.028470865
0.028402163
0.028316896
0.028215968
0.028100269
0.027970675
0.027828107
0.027673539
0.027508684
0.027335
0.027153889
0.026966562
0.024738743
0.024745597
0.024753242
0.02476151
0.02477079
0.02478106
0.0247923
0.024804482
0.024817658
0.024831869
0.02484715
0.024863533
0.024881048
0.024899726
0.024919595
0.024940688
0.024963036
0.024986673
0.02501163
0.025037945
0.025065652
0.02509479
0.0251254
0.025157525
0.025191213
0.025226524
0.02526352
0.025302262
0.025342834
0.025385377
0.025429887
0.025476383
0.025524901
0.02557547
0.025628102
0.025682724
0.02573941
0.025798244
0.025859285
0.025922574
0.025988109
0.026055727
0.02612595
0.02619887
0.026274574
0.026353155
0.026434702
0.026519294
0.026606986
0.026697787
0.026791663
0.026887315
0.026978886
0.027055025
0.027112733
0.027151888
0.027172707
0.027175653
0.027161443
0.027130082
0.027082304
0.027018842
0.026940469
0.026847993
0.02674221
0.026623899
0.026493873
0.026352988
0.026202793
0.026044484
0.025879383
0.025708483
0.023842055
0.023843209
0.023845213
0.023848048
0.023851696
0.023856195
0.023861574
0.02386785
0.023875036
0.023883153
0.023892224
0.023902277
0.023913337
0.023925431
0.023938585
0.023952829
0.02396819
0.023984698
0.024002382
0.024021274
0.024041404
0.024062806
0.024085514
0.024109563
0.024134991
0.024161837
0.024190146
0.024219962
0.024251336
0.024284326
0.024318995
0.024355399
0.024393603
0.024433721
0.024475854
0.024520004
0.024566191
0.024614419
0.024664653
0.024716843
0.024771057
0.024827305
0.024885508
0.024946126
0.025009221
0.025074865
0.025143138
0.025214115
0.025287859
0.025364396
0.025443623
0.025525117
0.02560753
0.025686734
0.025752306
0.025801704
0.025834724
0.025851521
0.025852634
0.025838117
0.025808081
0.025763394
0.025704684
0.025632608
0.025547862
0.025451138
0.025343112
0.025224498
0.025096142
0.024959127
0.024814684
0.024663872
0.024507652
0.023003482
0.023000743
0.022998741
0.022997493
0.022997012
0.022997318
0.022998431
0.023000368
0.023003146
0.023006785
0.023011304
0.023016727
0.023023073
0.023030366
0.023038628
0.023047885
0.023058162
0.023069484
0.023081879
0.023095372
0.023109993
0.023125771
0.023142736
0.023160919
0.023180353
0.023201071
0.023223109
0.023246505
0.023271299
0.023297534
0.023325256
0.023354512
0.023385355
0.023417846
0.023452054
0.02348806
0.023526022
0.023565965
0.02360789
0.02365179
0.023697585
0.023745104
0.023794698
0.023846465
0.023900478
0.023956809
0.024015527
0.024076698
0.024140377
0.024206574
0.02427516
0.024345516
0.024416824
0.024484766
0.024540113
0.024581012
0.024607358
0.024619314
0.024617414
0.024601494
0.024572044
0.024529508
0.024474403
0.024407285
0.024328751
0.024239403
0.024139832
0.024030584
0.023912616
0.023786674
0.023653865
0.023515084
0.023371287
0.022219027
0.022213071
0.022207781
0.022203164
0.022199242
0.022196041
0.022193582
0.022191881
0.022190952
0.022190815
0.022191489
0.022192995
0.02219535
0.022198574
0.022202687
0.022207711
0.022213671
0.022220588
0.022228485
0.022237385
0.022247314
0.022258299
0.022270366
0.022283543
0.022297859
0.022313341
0.022330021
0.022347931
0.022367104
0.022387577
0.022409385
0.022432568
0.022457166
0.022483225
0.022510793
0.022539929
0.022570701
0.022603182
0.022637479
0.022673699
0.022711802
0.022751658
0.022793488
0.022837345
0.022883281
0.022931349
0.022981607
0.023034108
0.023088896
0.023145989
0.023205321
0.023266604
0.023329065
0.023388281
0.023435796
0.023470158
0.02349132
0.023499344
0.023494166
0.023476311
0.023446175
0.023404226
0.023350964
0.0232869
0.023212578
0.023128549
0.023035445
0.022933608
0.022823575
0.022706281
0.022582739
0.022453598
0.02231965
0.02148466
0.021476301
0.021468445
0.021461133
0.021454431
0.021448413
0.021443071
0.021438407
0.021434436
0.021431185
0.02142868
0.021426941
0.021425982
0.02142582
0.021426475
0.021427968
0.021430321
0.021433554
0.021437686
0.021442738
0.021448733
0.021455696
0.021463651
0.021472621
0.021482632
0.021493708
0.021505876
0.021519166
0.021533607
0.021549228
0.021566061
0.021584138
0.021603491
0.021624159
0.021646179
0.021669595
0.021694452
0.021720802
0.021748704
0.021778228
0.021809465
0.02184248
0.02187746
0.021914401
0.021953267
0.021994102
0.022036956
0.022081872
0.022128888
0.02217802
0.022229223
0.022282287
0.022336593
0.022388338
0.022429628
0.022459023
0.022476392
0.022481717
0.022474773
0.022456022
0.02242593
0.022384976
0.022333636
0.022272382
0.022201705
0.022122073
0.022033946
0.021937882
0.021834135
0.021723533
0.021606986
0.021485283
0.02135908
0.020790689
0.020780803
0.020771374
0.020762422
0.020753947
0.020745937
0.020738429
0.020731457
0.020725061
0.020719324
0.020714283
0.020709935
0.020706284
0.020703347
0.020701149
0.020699719
0.02069908
0.02069925
0.020700243
0.020702078
0.020704778
0.020708366
0.020712866
0.020718298
0.020724683
0.020732043
0.020740404
0.020749791
0.020760231
0.020771751
0.020784375
0.020798132
0.020813051
0.020829162
0.020846499
0.020865096
0.020884988
0.020906212
0.020928808
0.020952812
0.020978232
0.021005334
0.02103423
0.02106494
0.021097493
0.021131916
0.021168239
0.021206492
0.021246672
0.021288797
0.021332841
0.021378639
0.021425652
0.021470408
0.021505615
0.021529959
0.021543316
0.021545706
0.021537197
0.021517997
0.021488404
0.021448779
0.021399515
0.02134102
0.021273722
0.021198026
0.021114239
0.02102298
0.020924689
0.020819962
0.020709584
0.020594452
0.020475203
0.020131633
0.020120559
0.020109999
0.020099941
0.020090344
0.020081156
0.020072415
0.020064148
0.020056376
0.020049086
0.020042287
0.020036014
0.020030297
0.020025173
0.020020712
0.020016973
0.020013948
0.020011642
0.020010069
0.020009249
0.020009215
0.020009995
0.02001161
0.020014077
0.020017416
0.020021645
0.020026789
0.020032873
0.020039921
0.020047958
0.020057006
0.020067088
0.020078231
0.020090463
0.020103813
0.02011831
0.020133983
0.02015086
0.020168972
0.020188346
0.020208984
0.020231084
0.020254707
0.020279914
0.020306805
0.020335413
0.020365766
0.020397899
0.020431841
0.02046761
0.020505181
0.020544409
0.020584814
0.02062319
0.020652784
0.020672413
0.020681958
0.020681447
0.020670971
0.020650707
0.0206209
0.020581858
0.020533918
0.020477441
0.020412809
0.020340402
0.020260586
0.020173784
0.020080435
0.019981207
0.019876849
0.01976804
0.019655392
0.019517343
0.019504558
0.01949233
0.019480652
0.019469514
0.019458902
0.019448803
0.019439212
0.019430126
0.019421534
0.019413376
0.019405643
0.019398372
0.019391589
0.019385315
0.019379548
0.019374287
0.019369564
0.019365409
0.019361851
0.01935893
0.019356739
0.019355298
0.019354602
0.019354662
0.019355492
0.019357116
0.019359568
0.019362877
0.019367069
0.019372163
0.019378179
0.019385136
0.01939306
0.019401978
0.019411918
0.019422906
0.019434966
0.019448124
0.019462405
0.019477834
0.019494423
0.019512316
0.019531554
0.019552184
0.019574257
0.01959782
0.019622919
0.0196496
0.01967793
0.019707929
0.019739575
0.019772741
0.019806995
0.019839395
0.019863697
0.019878834
0.019884702
0.019881331
0.019868821
0.019847334
0.019817087
0.01977835
0.019731423
0.019676626
0.019614308
0.019544816
0.019468494
0.019385719
0.019296906
0.019202691
0.019103771
0.019000759
0.018894214
0.018934517
0.018920119
0.018906303
0.018893062
0.018880389
0.018868279
0.018856725
0.01884572
0.018835257
0.018825329
0.018815927
0.018807038
0.018798653
0.01879077
0.018783393
0.018776516
0.018770096
0.018764101
0.018758569
0.018753534
0.018749017
0.018745038
0.018741583
0.01873867
0.01873633
0.01873459
0.018733481
0.018733039
0.018733357
0.018734468
0.018736366
0.01873906
0.018742567
0.018746909
0.018752115
0.018758225
0.018765269
0.018773268
0.018782245
0.018792219
0.018803215
0.018815258
0.01882837
0.018842661
0.018858163
0.018874911
0.018892942
0.018912295
0.018933011
0.01895513
0.018978692
0.019003721
0.019030204
0.019058031
0.01908681
0.019113837
0.019133351
0.019144375
0.01914683
0.019140762
0.019126278
0.019103536
0.019072743
0.019034149
0.018988028
0.01893467
0.018874396
0.018807522
0.018734363
0.018655263
0.018570602
0.018480968
0.018387009
0.018289284
0.018188307
0.018378863
0.018363153
0.018348004
0.018333417
0.018319392
0.018305928
0.018293023
0.018280676
0.018268883
0.018257641
0.018246948
0.018236798
0.018227187
0.018218111
0.018209566
0.018201546
0.018194048
0.018187062
0.018180577
0.018174596
0.018169125
0.018164168
0.018159719
0.01815571
0.018152154
0.018149088
0.018146543
0.018144544
0.018143108
0.01814223
0.018141921
0.018142212
0.018143132
0.01814471
0.018146981
0.018150008
0.018153887
0.018158606
0.018164168
0.018170589
0.018177888
0.018186092
0.018195244
0.01820538
0.018216586
0.01822889
0.018242317
0.018256896
0.01827266
0.018289643
0.018307883
0.018327412
0.018348248
0.01837038
0.018393703
0.018417852
0.018440315
0.018455749
0.018463251
0.01846277
0.018454369
0.018438166
0.018414323
0.018383042
0.018344563
0.018299142
0.018247051
0.018188585
0.018124035
0.018053694
0.017977874
0.017896927
0.017811401
0.017721897
0.017628943
0.017533021
0.017899697
0.017881431
0.017863686
0.017846463
0.017829767
0.017813599
0.017797962
0.017782858
0.017768291
0.017754262
0.017740771
0.017727822
0.017715414
0.017703548
0.017692223
0.017681439
0.017671196
0.017661492
0.017652326
0.017643696
0.0176356
0.017628035
0.017620999
0.017614491
0.017608509
0.017603053
0.017598118
0.017593695
0.01758978
0.017586379
0.017583501
0.017581156
0.017579338
0.017577988
0.017577102
0.017576723
0.017576885
0.017577615
0.017578934
0.017580854
0.017583365
0.0175865
0.017590291
0.017594767
0.01759996
0.017605911
0.017612729
0.017620468
0.017629158
0.017638811
0.017649448
0.017661095
0.017673788
0.01768758
0.017702507
0.017718596
0.01773586
0.017754283
0.017773764
0.017793959
0.017812532
0.017824512
0.017829054
0.017826128
0.017815806
0.017798214
0.017773513
0.017741902
0.01770361
0.017658883
0.017607979
0.017551175
0.01748875
0.017420976
0.01734815
0.017270601
0.017188847
0.017103464
0.017014963
0.016923818
0.017370276
0.017351953
0.017334109
0.017316749
0.017299877
0.017283496
0.017267611
0.017252226
0.017237343
0.017222968
0.017209103
0.017195751
0.017182917
0.017170602
0.017158808
0.017147539
0.017136795
0.01712658
0.017116894
0.017107737
0.017099111
0.017091017
0.017083456
0.017076427
0.01706993
0.017063967
0.017058535
0.017053635
0.017049267
0.01704543
0.017042128
0.017039361
0.01703713
0.017035424
0.017034239
0.017033583
0.017033469
0.017033907
0.017034903
0.017036426
0.017038413
0.017040913
0.017043969
0.017047611
0.017051865
0.017056749
0.01706225
0.017068435
0.017075341
0.017083006
0.017091465
0.017100758
0.017110937
0.017122152
0.017134394
0.017147659
0.017161949
0.017177246
0.017193457
0.017210266
0.017225511
0.01723456
0.017236619
0.017231667
0.017219787
0.017201102
0.017175774
0.017143997
0.017105994
0.017062007
0.017012283
0.016957092
0.016896704
0.016831383
0.016761418
0.016687126
0.016609007
0.016527643
0.016443539
0.016357142
0.016857546
0.016839381
0.016821655
0.016804372
0.016787537
0.016771154
0.016755229
0.016739766
0.01672477
0.016710247
0.016696199
0.016682633
0.016669552
0.016656962
0.016644865
0.016633266
0.01662217
0.016611579
0.016601498
0.016591929
0.016582876
0.01657434
0.016566327
0.016558837
0.016551873
0.016545437
0.016539532
0.016534158
0.01652932
0.016525018
0.016521254
0.016518029
0.016515347
0.016513206
0.016511608
0.016510555
0.016510051
0.016510101
0.016510706
0.016511863
0.01651356
0.016515801
0.0165186
0.016521972
0.016525927
0.016530459
0.016535486
0.016541057
0.016547227
0.016554038
0.016561527
0.016569723
0.016578651
0.016588301
0.016598708
0.016609907
0.01662192
0.016634746
0.016648313
0.016662342
0.016674885
0.016681588
0.016681663
0.016675102
0.016661998
0.016642489
0.016616744
0.016584963
0.016547374
0.016504216
0.016455737
0.016402202
0.016343872
0.016281007
0.016213887
0.016142816
0.016068279
0.015990928
0.015911207
0.015829447
0.016360578
0.016342741
0.016325303
0.016308268
0.016291641
0.016275428
0.016259634
0.016244264
0.016229325
0.01621482
0.016200756
0.016187138
0.016173972
0.016161263
0.016149015
0.016137236
0.016125928
0.016115099
0.016104752
0.016094892
0.016085525
0.016076654
0.016068284
0.01606042
0.016053065
0.016046224
0.0160399
0.016034098
0.016028821
0.016024072
0.016019856
0.016016175
0.016013033
0.016010432
0.016008377
0.016006871
0.016005916
0.016005516
0.016005674
0.016006391
0.016007669
0.01600951
0.016011919
0.0160149
0.016018459
0.016022593
0.016027278
0.016032563
0.016038459
0.016044981
0.01605215
0.016059978
0.01606846
0.016077486
0.016087112
0.01609739
0.01610835
0.016119992
0.016132245
0.016144819
0.016155736
0.016160896
0.016159582
0.016151878
0.016137933
0.016117915
0.016092022
0.016060469
0.01602349
0.015981327
0.015934225
0.015882438
0.015826218
0.015765808
0.015701469
0.015633481
0.015562262
0.015488219
0.015411735
0.015333182
0.015878827
0.015861446
0.015844425
0.015827769
0.015811483
0.015795573
0.015780044
0.015764903
0.015750155
0.015735805
0.01572186
0.015708326
0.015695209
0.015682514
0.015670248
0.015658417
0.015647026
0.015636082
0.01562559
0.015615556
0.015605986
0.015596886
0.015588262
0.015580118
0.015572461
0.015565296
0.015558628
0.015552462
0.015546804
0.015541658
0.01553703
0.015532925
0.015529346
0.015526299
0.015523789
0.01552182
0.015520396
0.015519523
0.015519203
0.015519441
0.01552024
0.015521606
0.015523542
0.015526052
0.015529137
0.0155328
0.01553703
0.015541878
0.015547347
0.015553444
0.015560177
0.015567553
0.015575572
0.015584213
0.015593482
0.01560339
0.015613946
0.015625137
0.015636877
0.015648867
0.015659135
0.015663755
0.015662053
0.015654145
0.015640198
0.015620397
0.015594946
0.015564066
0.015527992
0.015486961
0.01544121
0.015390984
0.015336524
0.01527806
0.015215834
0.015150109
0.01508125
0.015009523
0.014935275
0.014858908
0.015412
0.015395165
0.015378653
0.01536247
0.015346622
0.015331113
0.015315951
0.01530114
0.015286687
0.015272598
0.015258878
0.015245535
0.015232575
0.015220003
0.015207826
0.01519605
0.015184683
0.01517373
0.015163198
0.015153093
0.015143422
0.015134191
0.015125408
0.015117077
0.015109206
0.015101801
0.015094867
0.015088413
0.015082443
0.015076964
0.015071981
0.015067502
0.015063531
0.015060075
0.015057139
0.01505473
0.015052853
0.015051513
0.015050715
0.015050466
0.01505077
0.015051632
0.015053059
0.015055053
0.01505762
0.015060759
0.015064469
0.015068796
0.015073745
0.015079321
0.015085529
0.015092373
0.015099855
0.015107976
0.015116737
0.015126138
0.015136179
0.015146835
0.015158017
0.015169447
0.015179305
0.015183782
0.015182183
0.015174574
0.015161098
0.015141931
0.015117267
0.015087319
0.015052313
0.015012479
0.014968046
0.014919251
0.014866325
0.01480949
0.014748977
0.014685035
0.014618028
0.014548326
0.014476265
0.014402174
0.014976462
0.014959947
0.014943717
0.014927775
0.01491213
0.014896785
0.014881747
0.014867021
0.014852614
0.014838532
0.01482478
0.014811365
0.014798294
0.014785572
0.014773207
0.014761204
0.01474957
0.014738312
0.014727437
0.014716951
0.014706862
0.014697176
0.0146879
0.014679041
0.014670606
0.014662602
0.014655035
0.014647914
0.014641244
0.014635033
0.014629287
0.014624014
0.01461922
0.014614912
0.014611096
0.01460778
0.014604971
0.014602674
0.014600897
0.014599645
0.014598925
0.014598743
0.014599106
0.01460002
0.014601489
0.01460352
0.014606114
0.014609272
0.014613039
0.014617421
0.014622422
0.014628047
0.0146343
0.014641187
0.014648709
0.01465687
0.014665671
0.014675106
0.014685148
0.01469571
0.014706528
0.014715861
0.014720034
0.014718376
0.014710933
0.014697832
0.014679231
0.014655313
0.014626278
0.014592345
0.014553733
0.014510662
0.014463363
0.014412057
0.014356957
0.014298287
0.014236288
0.014171319
0.014103768
0.014033969
0.013962234
0.014554537
0.014538442
0.014522594
0.014507
0.014491665
0.014476594
0.014461794
0.01444727
0.014433027
0.014419073
0.014405412
0.014392051
0.014378997
0.014366255
0.014353832
0.014341734
0.014329968
0.014318541
0.014307459
0.014296729
0.014286358
0.014276354
0.014266722
0.014257471
0.014248608
0.014240139
0.014232071
0.014224413
0.014217172
0.014210354
0.014203968
0.01419802
0.014192518
0.01418747
0.014182882
0.014178762
0.014175118
0.014171957
0.014169286
0.014167112
0.014165443
0.014164285
0.014163645
0.014163532
0.01416395
0.014164908
0.014166411
0.014168463
0.014171066
0.014174264
0.014178062
0.014182466
0.014187483
0.014193116
0.014199371
0.014206252
0.014213764
0.014221908
0.014230679
0.01424005
0.014249938
0.014260091
0.014268831
0.014272611
0.014270794
0.01426342
0.014250605
0.014232496
0.014209265
0.0141811
0.014148209
0.014110803
0.014069095
0.014023304
0.013973645
0.013920322
0.013863553
0.013803571
0.013740727
0.013675405
0.013607934
0.013538614
0.014146059
0.014130452
0.01411506
0.014099889
0.014084943
0.014070229
0.014055751
0.014041516
0.014027528
0.014013795
0.014000321
0.013987113
0.013974177
0.013961518
0.013949143
0.013937059
0.013925271
0.013913787
0.013902613
0.013891755
0.013881221
0.013871017
0.01386115
0.013851628
0.013842457
0.013833645
0.013825199
0.013817127
0.013809436
0.013802133
0.013795226
0.013788723
0.013782631
0.013776958
0.013771711
0.013766899
0.013762529
0.013758609
0.013755146
0.013752149
0.013749625
0.013747582
0.013746027
0.013744968
0.013744413
0.013744368
0.013744842
0.013745841
0.01374737
0.013749435
0.013752075
0.013755297
0.013759107
0.013763513
0.01376852
0.013774133
0.013780359
0.013787202
0.013794663
0.01380274
0.013811408
0.013820589
0.013830042
0.013838147
0.013841482
0.013839446
0.013832077
0.013819483
0.013801805
0.013779204
0.01375186
0.013719972
0.013683741
0.013643371
0.013599074
0.013551056
0.013499515
0.01344466
0.013386717
0.013326028
0.013262966
0.013197849
0.013130971
0.013735861
0.013720973
0.013706275
0.013691772
0.013677471
0.013663376
0.013649493
0.013635827
0.013622383
0.013609169
0.013596188
0.013583447
0.013570952
0.013558709
0.013546723
0.013535002
0.013523552
0.013512378
0.013501487
0.013490886
0.013480582
0.013470582
0.013460892
0.013451519
0.01344247
0.013433754
0.013425376
0.013417344
0.013409667
0.01340235
0.013395403
0.013388832
0.013382646
0.013376851
0.013371457
0.01336647
0.013361899
0.013357752
0.013354037
0.013350762
0.013347934
0.013345563
0.013343655
0.013342218
0.013341262
0.013340793
0.013340819
0.013341347
0.013342383
0.013343937
0.013346044
0.013348713
0.01335195
0.013355761
0.013360154
0.013365135
0.01337071
0.013376884
0.013383661
0.013391038
0.013398993
0.013407455
0.013416193
0.013423643
0.013426507
0.013424218
0.013416814
0.013404399
0.013387106
0.013365091
0.013338525
0.013307599
0.013272506
0.013233443
0.013190612
0.013144212
0.013094434
0.01304148
0.012985567
0.012927028
0.012866222
0.012803457
0.012739019
0.01334023
0.013326036
0.013312011
0.013298159
0.013284487
0.013270998
0.013257699
0.013244594
0.013231689
0.01321899
0.013206502
0.01319423
0.013182181
0.01317036
0.013158773
0.013147427
0.013136327
0.013125479
0.013114891
0.013104567
0.013094516
0.013084743
0.013075256
0.013066061
0.013057164
0.013048575
0.013040298
0.013032343
0.013024715
0.013017423
0.013010474
0.013003875
0.012997636
0.012991762
0.012986262
0.012981145
0.012976417
0.012972087
0.012968164
0.012964654
0.012961567
0.012958911
0.012956693
0.012954922
0.012953607
0.012952754
0.012952372
0.012952466
0.012953038
0.012954121
0.012955732
0.01295788
0.012960572
0.012963816
0.01296762
0.012971991
0.012976934
0.012982457
0.012988564
0.012995252
0.013002503
0.013010251
0.013018276
0.01302507
0.013027455
0.013024899
0.013017439
0.013005176
0.012988239
0.012966776
0.012940954
0.012910955
0.012876965
0.012839173
0.012797775
0.012752961
0.012704916
0.012653835
0.012599927
0.012543513
0.012484939
0.012424505
0.012362482
0.012959068
0.012945537
0.012932156
0.012918929
0.012905861
0.012892957
0.012880222
0.012867662
0.012855281
0.012843086
0.01283108
0.01281927
0.012807662
0.01279626
0.012785071
0.012774101
0.012763355
0.012752839
0.012742561
0.012732525
0.012722738
0.012713207
0.012703939
0.012694939
0.012686216
0.012677775
0.012669623
0.012661769
0.012654218
0.012646979
0.012640059
0.012633464
0.012627204
0.012621285
0.012615716
0.012610503
0.012605656
0.012601182
0.012597089
0.012593385
0.012590079
0.012587178
0.012584691
0.012582626
0.012580992
0.012579796
0.012579046
0.012578747
0.0125789
0.012579546
0.012580696
0.012582358
0.012584541
0.012587252
0.012590498
0.012594289
0.012598631
0.012603529
0.01260899
0.012615013
0.012621581
0.012628634
0.012635962
0.012642113
0.012644024
0.0126412
0.012633678
0.012621555
0.012604956
0.012584024
0.012558919
0.012529818
0.0124969
0.012460347
0.012420347
0.012377086
0.012330739
0.012281494
0.012229555
0.012175231
0.012118855
0.012060713
0.01200107
0.012605265
0.012592234
0.01257933
0.012566558
0.012553923
0.01254143
0.012529083
0.012516887
0.012504848
0.012492971
0.012481259
0.01246972
0.012458357
0.012447177
0.012436184
0.012425385
0.012414785
0.012404389
0.012394204
0.012384235
0.012374489
0.012364971
0.012355688
0.012346647
0.012337853
0.012329314
0.012321035
0.012313024
0.012305288
0.012297834
0.012290669
0.012283799
0.012277233
0.012270978
0.012265041
0.01225943
0.012254153
0.012249217
0.012244631
0.012240401
0.012236537
0.012233047
0.012229938
0.012227218
0.012224897
0.012222982
0.012221481
0.012220401
0.01221975
0.012219525
0.012219772
0.012220498
0.012221711
0.012223421
0.012225635
0.012228361
0.012231607
0.01223538
0.012239688
0.012244536
0.012249924
0.012255839
0.012262224
0.012268881
0.012274411
0.012275866
0.012272784
0.012265202
0.012253216
0.012236946
0.012216531
0.012192126
0.012163901
0.012132029
0.012096685
0.012058052
0.012016308
0.011971622
0.011924177
0.011874168
0.011821892
0.01176767
0.011711779
0.01165447
0.012264507
0.01225197
0.01223954
0.012227223
0.012215024
0.012202946
0.012190994
0.012179173
0.012167487
0.012155942
0.012144542
0.012133292
0.012122198
0.012111263
0.012100493
0.012089894
0.012079471
0.012069229
0.012059174
0.012049312
0.012039647
0.012030187
0.012020936
0.012011901
0.012003089
0.011994504
0.011986154
0.011978046
0.011970185
0.011962578
0.011955233
0.011948156
0.011941353
0.011934833
0.011928602
0.011922668
0.011917038
0.01191172
0.011906721
0.011902048
0.011897711
0.011893716
0.011890071
0.011886785
0.011883866
0.011881321
0.011879159
0.011877388
0.011876015
0.011875047
0.011874484
0.011874368
0.011874707
0.011875509
0.011876783
0.011878538
0.01188078
0.011883519
0.011886761
0.011890515
0.011894785
0.011899574
0.01190487
0.011910621
0.011916639
0.011921577
0.0119226
0.011919276
0.011911646
0.011899802
0.011883859
0.011863954
0.011840236
0.01181287
0.011782022
0.011747862
0.011710567
0.011670307
0.011627248
0.011581564
0.011533443
0.011483173
0.011431061
0.011377373
0.011322352
0.011936655
0.011924598
0.011912633
0.011900764
0.011888994
0.011877328
0.01186577
0.011854324
0.011842996
0.011831789
0.011820709
0.011809758
0.011798944
0.011788269
0.01177774
0.011767361
0.011757137
0.011747073
0.011737174
0.011727446
0.011717894
0.011708524
0.011699341
0.011690351
0.01168156
0.011672973
0.011664597
0.011656438
0.011648502
0.011640794
0.011633323
0.011626094
0.011619114
0.011612389
0.011605927
0.011599735
0.011593819
0.011588187
0.011582847
0.011577804
0.011573068
0.011568645
0.011564543
0.011560771
0.011557335
0.011554243
0.011551505
0.011549126
0.011547116
0.011545483
0.011544231
0.011543364
0.01154292
0.011542907
0.011543334
0.011544209
0.011545541
0.011547337
0.011549606
0.011552355
0.011555592
0.011559323
0.01156355
0.011568265
0.011573417
0.011578832
0.011583211
0.011583829
0.011580287
0.011572624
0.01156093
0.011545319
0.011525921
0.011502883
0.011476362
0.011446522
0.011413524
0.01137754
0.011338736
0.011297269
0.011253309
0.011207038
0.011158731
0.011108685
0.011057154
0.011004371
0.011621544
0.011609952
0.011598437
0.011587001
0.01157565
0.011564386
0.011553215
0.011542141
0.011531166
0.011520297
0.011509537
0.01149889
0.011488361
0.011477954
0.011467675
0.011457527
0.011447515
0.011437645
0.011427921
0.011418348
0.011408931
0.011399676
0.011390588
0.011381671
0.011372933
0.011364377
0.01135601