/*--------------------------------*- C++ -*----------------------------------*\
| =========                 |                                                 |
| \\      /  F ield         | OpenFOAM: The Open Source CFD Toolbox           |
|  \\    /   O peration     | Version:  2.4.0                                 |
|   \\  /    A nd           | Web:      www.OpenFOAM.org                      |
|    \\/     M anipulation  |                                                 |
\*---------------------------------------------------------------------------*/
FoamFile
{
    version     2.0;
    format      ascii;
    class       volScalarField;
    location    "5000";
    object      k;
}
// * * * * * * * * * * * * * * * * * * * * * * * * * * * * * * * * * * * * * //

dimensions      [0 2 -2 0 0 0 0];

internalField   nonuniform List<scalar> 
35100
(
2.7929241e-06
1.7644449e-06
3.8233057e-06
1.5432922e-06
5.3468421e-07
9.638277e-08
4.7853141e-07
4.3707379e-07
2.1670579e-07
1.4207215e-07
9.0448735e-08
7.9285055e-08
6.289251e-08
5.3463584e-08
4.2814026e-08
3.5981511e-08
3.2011454e-08
3.0112971e-08
2.9594979e-08
3.0966968e-08
3.3920207e-08
3.8942369e-08
4.6020498e-08
5.5234097e-08
6.4875231e-08
7.4363402e-08
8.3615245e-08
9.1884587e-08
9.8481025e-08
1.0262724e-07
1.0385901e-07
1.0189197e-07
9.870443e-08
9.5503964e-08
9.0185919e-08
8.3877392e-08
7.4749264e-08
6.6139476e-08
5.4346454e-08
4.8360964e-08
3.8953689e-08
5.5032104e-08
1.1882153e-07
1.8368278e-07
2.4825573e-07
3.11917e-07
3.7332934e-07
4.3183613e-07
4.8783593e-07
5.411306e-07
5.9218394e-07
6.4092807e-07
6.8760882e-07
7.3214148e-07
7.7457484e-07
8.1478238e-07
8.5269321e-07
8.8815724e-07
9.2104828e-07
9.512076e-07
9.7850089e-07
1.0028092e-06
1.0240441e-06
1.0421426e-06
1.057065e-06
1.0687993e-06
1.0773527e-06
1.0827651e-06
1.085084e-06
1.0843168e-06
1.0805157e-06
1.0737782e-06
1.0642192e-06
1.0519741e-06
1.0371948e-06
1.0200477e-06
1.0007096e-06
9.7936455e-07
9.5620011e-07
9.3140049e-07
9.0516474e-07
8.7768937e-07
8.4916194e-07
8.1976908e-07
7.8969073e-07
7.591048e-07
7.2817307e-07
6.9705624e-07
6.6589705e-07
6.3483443e-07
6.0402325e-07
5.7358751e-07
5.4360021e-07
5.141544e-07
4.853501e-07
4.5725656e-07
4.2994382e-07
4.0347022e-07
3.7788515e-07
3.5323372e-07
3.2954463e-07
3.0684365e-07
2.8514527e-07
2.6445421e-07
2.4477395e-07
2.2609606e-07
2.0841489e-07
1.9171743e-07
1.7599005e-07
1.6121187e-07
1.4736434e-07
1.3441487e-07
1.2234267e-07
1.1111021e-07
1.0069572e-07
9.1054522e-08
8.2168155e-08
7.3986136e-08
6.6493846e-08
5.9631304e-08
5.3395486e-08
4.7713472e-08
4.2597669e-08
3.7960588e-08
3.3836261e-08
3.0114185e-08
2.6861769e-08
2.3933519e-08
2.1443876e-08
1.9198307e-08
1.7379352e-08
1.5723e-08
1.451641e-08
1.3391486e-08
1.2807561e-08
1.2236273e-08
1.2462528e-08
1.2510715e-08
1.4711483e-08
1.6522638e-08
1.6715892e-08
1.6955113e-08
1.5719529e-08
1.4454966e-08
1.2285751e-08
1.0154929e-08
7.7470961e-09
5.6535897e-09
8.6276313e-09
1.5223333e-08
2.6841333e-08
4.588129e-08
7.4606197e-08
1.1572619e-07
1.7050652e-07
2.4099073e-07
3.2266562e-07
4.1002288e-07
5.0769231e-07
6.1920483e-07
7.4933235e-07
9.0444934e-07
1.0939384e-06
1.3343898e-06
1.6559757e-06
2.148737e-06
2.8861778e-06
3.8734177e-06
5.297702e-06
7.2734413e-06
1.0262565e-05
1.4402642e-05
2.0183095e-05
2.5622761e-05
2.6015695e-05
1.7788448e-05
1.0981097e-05
4.3594297e-06
2.9420994e-06
6.5609089e-07
1.2758436e-06
1.1898765e-06
1.3886073e-06
7.9106271e-07
3.5943782e-07
9.2124763e-08
8.5386242e-08
6.8690648e-08
3.5838343e-08
2.4008506e-08
1.5879136e-08
1.3957766e-08
1.1412348e-08
9.9216205e-09
8.2527593e-09
7.2013122e-09
6.6540628e-09
6.4829176e-09
6.5839203e-09
7.0471782e-09
7.8412238e-09
9.0629616e-09
1.073975e-08
1.2911494e-08
1.5319317e-08
1.7883415e-08
2.0578278e-08
2.316258e-08
2.5473804e-08
2.6900068e-08
2.8515094e-08
3.0053059e-08
3.1529959e-08
3.318058e-08
3.4621594e-08
3.5889693e-08
3.6548008e-08
3.6931586e-08
3.6229538e-08
3.5800557e-08
3.4282059e-08
3.7975911e-08
5.535958e-08
7.7935731e-08
9.705246e-08
1.1703637e-07
1.3584511e-07
1.5450721e-07
1.724557e-07
1.9011061e-07
2.073256e-07
2.2425192e-07
2.4085462e-07
2.5716867e-07
2.7316435e-07
2.888304e-07
3.0412246e-07
3.1900658e-07
3.3343191e-07
3.473523e-07
3.6071568e-07
3.734789e-07
3.8559948e-07
3.9704477e-07
4.0778127e-07
4.1778547e-07
4.2703477e-07
4.355206e-07
4.4322977e-07
4.5014567e-07
4.5625589e-07
4.6156135e-07
4.6606608e-07
4.6978083e-07
4.7272124e-07
4.7490728e-07
4.7636249e-07
4.7711294e-07
4.7718762e-07
4.7661843e-07
4.7544015e-07
4.7368756e-07
4.7139619e-07
4.6860215e-07
4.6534243e-07
4.6166304e-07
4.5758138e-07
4.5312596e-07
4.4834219e-07
4.4323821e-07
4.3789992e-07
4.32432e-07
4.2674891e-07
4.2084674e-07
4.1482077e-07
4.0867075e-07
4.0242161e-07
3.9609702e-07
3.8971419e-07
3.8329808e-07
3.7686316e-07
3.7042902e-07
3.6401004e-07
3.5760711e-07
3.5124684e-07
3.4491669e-07
3.386294e-07
3.3238662e-07
3.2619436e-07
3.2005577e-07
3.1397669e-07
3.0795441e-07
3.0198913e-07
2.9607668e-07
2.9021869e-07
2.8440379e-07
2.7863426e-07
2.7289756e-07
2.6719495e-07
2.6150583e-07
2.5583231e-07
2.5014471e-07
2.4444754e-07
2.3869688e-07
2.3290744e-07
2.2701266e-07
2.2104262e-07
2.148947e-07
2.0861908e-07
2.0205348e-07
1.9527828e-07
1.8804182e-07
1.8047465e-07
1.7218769e-07
1.6338969e-07
1.5346678e-07
1.4268976e-07
1.2843458e-07
1.1819857e-07
1.1981793e-07
1.2426039e-07
1.3026975e-07
1.3680009e-07
1.4372011e-07
1.5096581e-07
1.5857533e-07
1.6678916e-07
1.758844e-07
1.8764801e-07
2.012999e-07
2.1648423e-07
2.3317901e-07
2.5152935e-07
2.716415e-07
2.9351864e-07
3.1783969e-07
3.3949437e-07
3.5898241e-07
3.7976871e-07
4.031433e-07
4.3027806e-07
4.6255511e-07
5.01996e-07
5.5267174e-07
6.1951439e-07
7.3113554e-07
8.993891e-07
1.1072507e-06
1.406489e-06
1.8978367e-06
2.5598569e-06
3.4484862e-06
4.6205203e-06
5.6392077e-06
5.7099487e-06
4.2647119e-06
2.8154516e-06
1.5695231e-06
1.151917e-06
8.3784612e-07
6.6284053e-06
7.062301e-06
6.3917262e-06
4.3063094e-06
2.1330083e-06
5.9157349e-07
1.2060905e-07
4.0586805e-08
3.2533948e-08
2.5219003e-08
2.0423685e-08
1.8261877e-08
1.6947594e-08
1.6016175e-08
1.5058234e-08
1.4598649e-08
1.4796801e-08
1.5552683e-08
1.6839507e-08
1.8779237e-08
2.1466583e-08
2.5094703e-08
2.9874764e-08
3.6009237e-08
4.3410344e-08
5.2121116e-08
6.2069762e-08
7.2354493e-08
8.29784e-08
9.2678424e-08
1.0468173e-07
1.1826058e-07
1.3267435e-07
1.4840241e-07
1.6478519e-07
1.8091823e-07
1.9544898e-07
2.0738158e-07
2.1452262e-07
2.1760931e-07
2.1611188e-07
2.2687699e-07
2.9016353e-07
3.9124027e-07
4.6671837e-07
5.4965924e-07
6.2615301e-07
7.0459818e-07
7.8032606e-07
8.5669282e-07
9.3211453e-07
1.0077961e-06
1.0832176e-06
1.1587299e-06
1.2340592e-06
1.3092539e-06
1.3840559e-06
1.4583686e-06
1.531943e-06
1.6046002e-06
1.6760909e-06
1.7462165e-06
1.8147517e-06
1.8815176e-06
1.9463052e-06
2.0089509e-06
2.0692776e-06
2.1271795e-06
2.1825075e-06
2.2351267e-06
2.2848923e-06
2.3317089e-06
2.3754863e-06
2.4161629e-06
2.4536966e-06
2.4880624e-06
2.5192506e-06
2.5472658e-06
2.5721253e-06
2.5938766e-06
2.6125712e-06
2.6282636e-06
2.641023e-06
2.6509245e-06
2.6580561e-06
2.6625761e-06
2.6644451e-06
2.6637081e-06
2.6605556e-06
2.6549028e-06
2.6472307e-06
2.6381937e-06
2.6270744e-06
2.6137455e-06
2.5988163e-06
2.582212e-06
2.5640461e-06
2.5444346e-06
2.5234546e-06
2.5012459e-06
2.4778867e-06
2.4534967e-06
2.4281686e-06
2.401904e-06
2.3748985e-06
2.3470673e-06
2.3185116e-06
2.2892573e-06
2.2593639e-06
2.2288768e-06
2.1978592e-06
2.1663251e-06
2.1342977e-06
2.101785e-06
2.0688224e-06
2.0353713e-06
2.0014683e-06
1.9670723e-06
1.9322081e-06
1.8967844e-06
1.86082e-06
1.8241692e-06
1.7868527e-06
1.7486333e-06
1.7095855e-06
1.6693266e-06
1.6280113e-06
1.5850233e-06
1.5406188e-06
1.4937857e-06
1.4449354e-06
1.3924588e-06
1.3370337e-06
1.2761305e-06
1.2108325e-06
1.1370929e-06
1.0561241e-06
9.4936534e-07
8.7056554e-07
8.8095985e-07
9.1410022e-07
9.5894968e-07
1.0092615e-06
1.0625298e-06
1.1191923e-06
1.1785491e-06
1.2427446e-06
1.3132246e-06
1.3983585e-06
1.4937895e-06
1.5953757e-06
1.7004513e-06
1.8077336e-06
1.9151755e-06
2.0215012e-06
2.1295541e-06
2.2058796e-06
2.2601755e-06
2.3134659e-06
2.3716472e-06
2.4384743e-06
2.5175986e-06
2.6143339e-06
2.7416978e-06
2.9050563e-06
3.2241659e-06
3.7099743e-06
4.2301793e-06
4.9714515e-06
6.2422539e-06
7.8565257e-06
9.9595595e-06
1.2408246e-05
1.411312e-05
1.423475e-05
1.2382965e-05
9.2646988e-06
7.182442e-06
5.5431844e-06
5.5895067e-06
2.5165271e-05
2.6987584e-05
2.4101008e-05
1.6400733e-05
8.1682677e-06
2.2807002e-06
3.9072583e-07
8.871588e-08
9.0737135e-08
7.4395883e-08
6.400828e-08
5.7491522e-08
5.4966338e-08
5.2860089e-08
5.082976e-08
5.0112674e-08
5.1459022e-08
5.461327e-08
5.9578278e-08
6.6740076e-08
7.6504699e-08
8.9531402e-08
1.0662481e-07
1.2854609e-07
1.5522867e-07
1.8693646e-07
2.2344212e-07
2.6148823e-07
3.0161292e-07
3.4145379e-07
3.8877173e-07
4.4151831e-07
4.9766871e-07
5.5889152e-07
6.2297008e-07
6.8624972e-07
7.4377157e-07
7.9119167e-07
8.2057268e-07
8.3342104e-07
8.2907016e-07
8.6825881e-07
1.1031792e-06
1.4836664e-06
1.7654745e-06
2.0762552e-06
2.3624633e-06
2.6566365e-06
2.9406846e-06
3.2275972e-06
3.5111892e-06
3.7961223e-06
4.0803528e-06
4.3652472e-06
4.6497416e-06
4.9340406e-06
5.2171595e-06
5.4987463e-06
5.7778601e-06
6.0538325e-06
6.3257222e-06
6.5927804e-06
6.8541508e-06
7.1091529e-06
7.3569862e-06
7.5970209e-06
7.8285739e-06
8.0512299e-06
8.264406e-06
8.4675768e-06
8.6601819e-06
8.8418384e-06
9.0121821e-06
9.1709549e-06
9.3179728e-06
9.453115e-06
9.576318e-06
9.6875725e-06
9.7869174e-06
9.8745092e-06
9.9505178e-06
1.0015124e-05
1.0068568e-05
1.011111e-05
1.0143064e-05
1.0165016e-05
1.0176795e-05
1.0178537e-05
1.0170967e-05
1.0153733e-05
1.0128669e-05
1.0098283e-05
1.0059797e-05
1.0012703e-05
9.9593384e-06
9.8994041e-06
9.8333286e-06
9.7615499e-06
9.6843593e-06
9.6022876e-06
9.5156346e-06
9.4248571e-06
9.3303115e-06
9.2320019e-06
9.1306836e-06
9.0260307e-06
8.9184338e-06
8.8079955e-06
8.6949472e-06
8.5794669e-06
8.4618013e-06
8.3420095e-06
8.2201843e-06
8.0963619e-06
7.9706812e-06
7.8430014e-06
7.7134656e-06
7.5819225e-06
7.4484707e-06
7.312766e-06
7.1748822e-06
7.0342669e-06
6.8909995e-06
6.744176e-06
6.5940802e-06
6.4392506e-06
6.2802755e-06
6.1147968e-06
5.9437882e-06
5.7633708e-06
5.5751079e-06
5.3728261e-06
5.159103e-06
4.9242256e-06
4.6723142e-06
4.3878193e-06
4.0753348e-06
3.6636887e-06
3.3600832e-06
3.4005855e-06
3.5286967e-06
3.7020698e-06
3.8967945e-06
4.1029648e-06
4.3224024e-06
4.5522775e-06
4.8009401e-06
5.0739293e-06
5.4026764e-06
5.7703949e-06
6.1609736e-06
6.5638276e-06
6.9736728e-06
7.3821903e-06
7.7843531e-06
8.1904058e-06
8.4722022e-06
8.6688095e-06
8.8604767e-06
9.0691407e-06
9.3085549e-06
9.5918777e-06
9.9383766e-06
1.0395823e-05
1.0981605e-05
1.2144229e-05
1.3910998e-05
1.5773956e-05
1.8422805e-05
2.2734357e-05
2.8360797e-05
3.5707264e-05
4.4102877e-05
4.9726087e-05
5.0133232e-05
4.4390309e-05
3.3851287e-05
2.7086122e-05
2.0969796e-05
2.1483647e-05
6.9030867e-05
7.4076984e-05
6.6076694e-05
4.5076406e-05
2.2501768e-05
6.3081833e-06
1.0586484e-06
2.2551269e-07
2.3833351e-07
1.9714102e-07
1.7096743e-07
1.5363545e-07
1.4741178e-07
1.4207638e-07
1.3698371e-07
1.3529009e-07
1.3909366e-07
1.4774461e-07
1.6127725e-07
1.8071969e-07
2.0718971e-07
2.4246057e-07
2.8872651e-07
3.4807202e-07
4.2040755e-07
5.0649843e-07
6.0579299e-07
7.0950369e-07
8.1968779e-07
9.3319831e-07
1.0649547e-06
1.2102369e-06
1.3649246e-06
1.5335529e-06
1.7101692e-06
1.884681e-06
2.0435077e-06
2.1745389e-06
2.2560747e-06
2.2918314e-06
2.2805227e-06
2.3879902e-06
3.0319381e-06
4.0752146e-06
4.847438e-06
5.6994415e-06
6.4838729e-06
7.290324e-06
8.0690012e-06
8.8556515e-06
9.6332412e-06
1.0414594e-05
1.1194077e-05
1.1975452e-05
1.2755792e-05
1.3535663e-05
1.4312362e-05
1.5084928e-05
1.5850782e-05
1.6608093e-05
1.7354284e-05
1.8087303e-05
1.8804805e-05
1.9504921e-05
2.0185461e-05
2.0844692e-05
2.1480744e-05
2.2092472e-05
2.2678271e-05
2.3236706e-05
2.3766234e-05
2.42658e-05
2.47344e-05
2.517132e-05
2.557605e-05
2.5948251e-05
2.6287742e-05
2.6594488e-05
2.686859e-05
2.7110467e-05
2.732058e-05
2.7499417e-05
2.7647624e-05
2.7765916e-05
2.7855138e-05
2.7916877e-05
2.7950734e-05
2.7956961e-05
2.7937609e-05
2.7891694e-05
2.7824239e-05
2.7742142e-05
2.7637765e-05
2.7509698e-05
2.7364363e-05
2.7200935e-05
2.7020589e-05
2.6824522e-05
2.6613537e-05
2.6389086e-05
2.6151996e-05
2.5903516e-05
2.5644629e-05
2.5375343e-05
2.5097735e-05
2.4810911e-05
2.4515943e-05
2.4213114e-05
2.3903062e-05
2.3586275e-05
2.3263433e-05
2.2934701e-05
2.2600334e-05
2.2260433e-05
2.1915383e-05
2.1564798e-05
2.120907e-05
2.0847789e-05
2.0481225e-05
2.0108435e-05
1.9729624e-05
1.9343274e-05
1.8949604e-05
1.8546134e-05
1.8133643e-05
1.7708117e-05
1.7271174e-05
1.6816334e-05
1.6346273e-05
1.5850334e-05
1.5332812e-05
1.4776741e-05
1.4189204e-05
1.3543505e-05
1.2850967e-05
1.206885e-05
1.1209827e-05
1.0079152e-05
9.2466244e-06
9.3595149e-06
9.7123256e-06
1.0189846e-05
1.0726294e-05
1.1294318e-05
1.1898966e-05
1.2532423e-05
1.3217752e-05
1.3970287e-05
1.4875742e-05
1.5887516e-05
1.6961502e-05
1.8068635e-05
1.9194297e-05
2.0315451e-05
2.1418452e-05
2.25302e-05
2.3299477e-05
2.3836329e-05
2.436043e-05
2.493105e-05
2.55857e-05
2.6360394e-05
2.7308142e-05
2.8559458e-05
3.0164225e-05
3.3349735e-05
3.8174494e-05
4.3255281e-05
5.0473396e-05
6.1824033e-05
7.6924193e-05
9.667569e-05
0.0001191335
0.00013407089
0.00013521172
0.00012015043
9.2225293e-05
7.4358633e-05
5.759421e-05
5.9079242e-05
0.00015501601
0.00016638009
0.00014840981
0.000101533
5.0829313e-05
1.4312132e-05
2.3955066e-06
5.0228722e-07
5.3007782e-07
4.3959887e-07
3.8181522e-07
3.4311194e-07
3.2939033e-07
3.1762765e-07
3.0639493e-07
3.0265536e-07
3.1115417e-07
3.3048187e-07
3.6072045e-07
4.0415547e-07
4.6328871e-07
5.4207358e-07
6.4543353e-07
7.7802261e-07
9.3974002e-07
1.1323678e-06
1.3547695e-06
1.5873412e-06
1.8354322e-06
2.0965417e-06
2.3955033e-06
2.7228911e-06
3.0714612e-06
3.4513804e-06
3.8494208e-06
4.2428592e-06
4.6011358e-06
4.8968558e-06
5.081269e-06
5.1623886e-06
5.1382141e-06
5.3814675e-06
6.8320423e-06
9.1774276e-06
1.0913711e-05
1.2829574e-05
1.4593064e-05
1.6406059e-05
1.8156444e-05
1.9924699e-05
2.1672492e-05
2.3428669e-05
2.5180565e-05
2.6936633e-05
2.8690297e-05
3.044283e-05
3.218817e-05
3.3924158e-05
3.5645016e-05
3.7346633e-05
3.9023241e-05
4.0670239e-05
4.2282382e-05
4.385548e-05
4.538463e-05
4.6865951e-05
4.8295257e-05
4.966998e-05
5.0986531e-05
5.22417e-05
5.3432026e-05
5.4555129e-05
5.5608773e-05
5.6591344e-05
5.7501703e-05
5.8339081e-05
5.910307e-05
5.9793582e-05
6.0410838e-05
6.0955772e-05
6.1429409e-05
6.1832835e-05
6.2167493e-05
6.2434973e-05
6.2637163e-05
6.2777539e-05
6.2855508e-05
6.2871203e-05
6.2829423e-05
6.2727948e-05
6.2578014e-05
6.2395148e-05
6.2162205e-05
6.1875947e-05
6.155082e-05
6.1184967e-05
6.0781024e-05
6.0341674e-05
5.9868722e-05
5.9365419e-05
5.8833631e-05
5.8276156e-05
5.7695212e-05
5.7090801e-05
5.6467602e-05
5.582361e-05
5.5161223e-05
5.448109e-05
5.3784637e-05
5.3072969e-05
5.2347613e-05
5.1608942e-05
5.0857533e-05
5.0093614e-05
4.9318049e-05
4.8529981e-05
4.7730288e-05
4.691805e-05
4.6093876e-05
4.5255651e-05
4.4403834e-05
4.3535018e-05
4.2649699e-05
4.1742295e-05
4.0814568e-05
3.9857488e-05
3.8874698e-05
3.7851626e-05
3.6794298e-05
3.567874e-05
3.4514618e-05
3.3263774e-05
3.1942142e-05
3.0489667e-05
2.8931825e-05
2.7172495e-05
2.5240289e-05
2.2699146e-05
2.0831066e-05
2.1087915e-05
2.1882731e-05
2.2958863e-05
2.4168048e-05
2.5448565e-05
2.681175e-05
2.8240061e-05
2.9785533e-05
3.1482926e-05
3.352372e-05
3.5802059e-05
3.821926e-05
4.0710126e-05
4.3241686e-05
4.5762085e-05
4.8241059e-05
5.0736114e-05
5.2460031e-05
5.3665886e-05
5.4845528e-05
5.613015e-05
5.7603836e-05
5.9347613e-05
6.1481451e-05
6.4297957e-05
6.791632e-05
7.5088023e-05
8.590498e-05
9.7299727e-05
0.00011347168
0.00013832338
0.00017175119
0.00021544023
0.00026484233
0.0002975321
0.00030023634
0.00026761876
0.00020651426
0.00016736052
0.00012970006
0.00013301068
0.00030480373
0.00032721109
0.00029193184
0.0002005851
0.00010083884
2.8546965e-05
4.7842816e-06
9.9421603e-07
1.0412354e-06
8.6494701e-07
7.5166103e-07
6.7543757e-07
6.4845747e-07
6.2544674e-07
6.0342109e-07
5.9599851e-07
6.1258811e-07
6.5049042e-07
7.0986046e-07
7.9517524e-07
9.1134743e-07
1.0661367e-06
1.269301e-06
1.5298223e-06
1.8476966e-06
2.2267715e-06
2.6647551e-06
3.1231444e-06
3.6133716e-06
4.1365781e-06
4.7303243e-06
5.377558e-06
6.0666313e-06
6.8175289e-06
7.6044264e-06
8.3824682e-06
9.0913381e-06
9.6767182e-06
1.0042668e-05
1.0204357e-05
1.0160221e-05
1.0645193e-05
1.3515804e-05
1.8140275e-05
2.1564834e-05
2.5343334e-05
2.8819984e-05
3.2393792e-05
3.5843464e-05
3.9327863e-05
4.2771419e-05
4.6231005e-05
4.9681682e-05
5.3140111e-05
5.6593362e-05
6.004396e-05
6.3480005e-05
6.6897272e-05
7.0284445e-05
7.3633468e-05
7.6933059e-05
8.0174214e-05
8.3346697e-05
8.64423e-05
8.945146e-05
9.2366578e-05
9.5179491e-05
9.7885167e-05
0.00010047659
0.00010294748
0.0001052911
0.00010750275
0.00010957809
0.00011151393
0.00011330805
0.00011495893
0.00011646577
0.00011782835
0.00011904711
0.00012012385
0.00012106056
0.00012185935
0.00012252301
0.00012305464
0.0001234579
0.00012373935
0.00012389877
0.00012393509
0.0001238583
0.00012366403
0.0001233742
0.00012301948
0.00012256615
0.00012200765
0.00012137244
0.00012065685
0.00011986606
0.00011900531
0.00011807817
0.00011709099
0.00011604748
0.00011495309
0.00011381223
0.00011262486
0.00011140021
0.00011013436
0.00010883199
0.00010749441
0.00010612442
0.0001047242
0.00010329677
0.00010184286
0.00010036363
9.8859516e-05
9.7332233e-05
9.5780114e-05
9.4204876e-05
9.2604723e-05
9.0980858e-05
8.9329124e-05
8.7650433e-05
8.5938072e-05
8.4193028e-05
8.240431e-05
8.0575388e-05
7.8688478e-05
7.6750757e-05
7.4733518e-05
7.2648623e-05
7.0448834e-05
6.8153185e-05
6.5686466e-05
6.3080056e-05
6.0215555e-05
5.7143134e-05
5.3673292e-05
4.9862551e-05
4.4854774e-05
4.1178379e-05
4.1688931e-05
4.3258472e-05
4.5384814e-05
4.7774818e-05
5.0306316e-05
5.3001533e-05
5.5825995e-05
5.8882432e-05
6.2240067e-05
6.627355e-05
7.0772254e-05
7.5542724e-05
8.0456721e-05
8.5448864e-05
9.0416723e-05
9.5301764e-05
0.00010021106
0.00010359869
0.00010597477
0.00010830373
0.00011084013
0.00011374937
0.00011719102
0.00012140306
0.00012695962
0.00013411008
0.00014825533
0.00016947805
0.00019185275
0.00022355076
0.000271432
0.00033616614
0.00042045472
0.00051497781
0.00057702237
0.00058260485
0.00052138245
0.00040484046
0.00032996487
0.00025608568
0.00026253128
0.00054464382
0.0005847673
0.00052196544
0.00036097933
0.00018264251
5.2072304e-05
8.7521487e-06
1.8024324e-06
1.8698692e-06
1.555759e-06
1.3525659e-06
1.2153789e-06
1.1667659e-06
1.1255698e-06
1.0860239e-06
1.0725034e-06
1.1020373e-06
1.1699072e-06
1.276375e-06
1.4294551e-06
1.6379527e-06
1.9158642e-06
2.2806472e-06
2.7483037e-06
3.3187783e-06
4.0003806e-06
4.7882429e-06
5.6132963e-06
6.4971259e-06
7.4496177e-06
8.5238711e-06
9.691185e-06
1.0933899e-05
1.2287766e-05
1.3706806e-05
1.5110264e-05
1.6389665e-05
1.7446746e-05
1.8109772e-05
1.8404639e-05
1.8334542e-05
1.9219802e-05
2.4407654e-05
3.2717525e-05
3.8873437e-05
4.5663517e-05
5.1907107e-05
5.8323233e-05
6.4514032e-05
7.0765216e-05
7.6941217e-05
8.3144136e-05
8.9329356e-05
9.5526781e-05
0.00010171334
0.00010789363
0.00011404648
0.00012016443
0.0001262274
0.00013222111
0.0001381256
0.00014392495
0.00014960107
0.00015513947
0.00016052326
0.00016573902
0.00017077235
0.00017561434
0.00018025261
0.00018467605
0.00018887277
0.00019283446
0.00019655341
0.00020002396
0.0002032422
0.00020620537
0.00020891201
0.00021136171
0.00021355515
0.00021549548
0.0002171862
0.00021863094
0.0002198346
0.00022080259
0.00022154131
0.00022206174
0.00022236585
0.0002224485
0.00022232861
0.00022199854
0.00022149696
0.00022087896
0.00022008433
0.0002191008
0.0002179793
0.00021671327
0.00021531191
0.00021378451
0.00021213745
0.00021038203
0.00020852486
0.00020657569
0.00020454239
0.0002024249
0.00020023968
0.0001979798
0.00019565359
0.00019326343
0.00019081434
0.00018831023
0.00018575651
0.00018315455
0.00018050641
0.00017781292
0.00017507715
0.00017229617
0.00016947303
0.00016660456
0.00016369292
0.0001607307
0.00015771953
0.00015464739
0.00015151608
0.0001483059
0.00014502306
0.0001416357
0.00013815666
0.00013453447
0.00013079036
0.0001268396
0.00012271624
0.00011828533
0.00011360301
0.00010845673
0.00010293625
9.6701297e-05
8.9853182e-05
8.0860132e-05
7.4264282e-05
7.5184464e-05
7.8007754e-05
8.1836436e-05
8.6141962e-05
9.0703905e-05
9.5561625e-05
0.00010065355
0.00010616404
0.00011221891
0.00011948499
0.00012758101
0.00013616124
0.00014499542
0.00015396527
0.00016288609
0.00017165487
0.00018045219
0.0001865147
0.00019077912
0.00019496614
0.00019952494
0.00020475193
0.00021093347
0.00021849825
0.00022846932
0.00024131983
0.00026668315
0.0003044785
0.00034436957
0.00040070416
0.00048457182
0.00059797123
0.00074455027
0.00090689562
0.0010120422
0.0010221721
0.00091939186
0.0007196733
0.00059098715
0.00046011499
0.0004716603
0.00090333302
0.00096978002
0.00086656964
0.00060498629
0.00030912615
8.8994396e-05
1.5020803e-05
3.0595388e-06
3.1408014e-06
2.6176767e-06
2.2769482e-06
2.0460627e-06
1.9640713e-06
1.8950685e-06
1.8286233e-06
1.8055702e-06
1.8547223e-06
1.9683837e-06
2.1469665e-06
2.403891e-06
2.7539348e-06
3.2208364e-06
3.8332555e-06
4.618517e-06
5.5755479e-06
6.7220358e-06
8.0474798e-06
9.4360249e-06
1.0925039e-05
1.2541005e-05
1.4355339e-05
1.6322333e-05
1.8416279e-05
2.0696724e-05
2.3087231e-05
2.5452007e-05
2.7609105e-05
2.9392436e-05
3.0515972e-05
3.1020319e-05
3.0924334e-05
3.2438928e-05
4.1207049e-05
5.5133457e-05
6.5453288e-05
7.6828458e-05
8.7276906e-05
9.8007676e-05
0.00010835426
0.00011879569
0.0001291057
0.00013945503
0.00014976957
0.00016009937
0.0001704063
0.00018069826
0.00019094042
0.00020112072
0.00021120625
0.00022117371
0.00023099053
0.00024063078
0.00025006508
0.0002592698
0.00026821757
0.00027688653
0.00028525336
0.00029330352
0.00030101694
0.00030837551
0.00031535996
0.00032195665
0.00032815308
0.00033393989
0.00033931074
0.00034426102
0.00034878825
0.0003528916
0.00035657206
0.00035983463
0.00036268492
0.00036512869
0.00036717374
0.00036882873
0.00037010394
0.00037101582
0.00037157266
0.00037175955
0.00037160891
0.00037110924
0.00037032319
0.00036934284
0.00036806834
0.00036647811
0.00036465669
0.00036259318
0.00036030266
0.00035780034
0.00035509681
0.00035221059
0.00034915275
0.00034593927
0.0003425833
0.00033908474
0.00033547075
0.00033173008
0.00032787641
0.0003239138
0.00031985059
0.00031569335
0.00031145108
0.00030712615
0.00030272202
0.00029824014
0.00029368565
0.00028905377
0.00028434957
0.00027956786
0.00027471227
0.0002697705
0.0002647453
0.00025961669
0.00025438763
0.00024902533
0.00024354013
0.00023787891
0.00023206298
0.00022600653
0.00021974474
0.00021313623
0.00020623745
0.00019882301
0.00019098607
0.00018237127
0.00017312761
0.00016268579
0.00015121391
0.0001361564
0.00012511643
0.00012665279
0.00013138603
0.00013781481
0.00014504959
0.00015271941
0.00016088844
0.00016945459
0.00017872506
0.00018891395
0.00020112501
0.00021471559
0.00022910906
0.00024391914
0.00025894537
0.00027387707
0.00028854546
0.00030323121
0.00031333739
0.00032046734
0.00032747694
0.00033510446
0.00034384407
0.00035417373
0.00036681127
0.00038344858
0.00040491604
0.00044716794
0.00050957245
0.00057552279
0.00066818055
0.00080420707
0.00098727188
0.0012211699
0.0014757211
0.0016372551
0.0016533701
0.0014959011
0.0011831788
0.00098121699
0.00076833449
0.00078790741
0.0014072231
0.0015097591
0.001352146
0.00095646361
0.00049595848
0.00014474933
2.4581379e-05
4.9371448e-06
5.0102998e-06
4.1837797e-06
3.6416818e-06
3.272752e-06
3.1413754e-06
3.0316037e-06
2.9255507e-06
2.8882264e-06
2.9659212e-06
3.1467488e-06
3.4313261e-06
3.841e-06
4.3995565e-06
5.1447029e-06
6.1212311e-06
7.3738496e-06
8.8982353e-06
1.0729607e-05
1.2847875e-05
1.506693e-05
1.7447799e-05
2.0044927e-05
2.2950768e-05
2.6095676e-05
2.9443282e-05
3.3087263e-05
3.690711e-05
4.0686279e-05
4.4135881e-05
4.6989693e-05
4.8798086e-05
4.9620319e-05
4.9513532e-05
5.1977748e-05
6.6050117e-05
8.813182e-05
0.00010449742
0.00012251379
0.00013903425
0.00015598326
0.00017230624
0.00018876242
0.00020499593
0.00022127646
0.0002374884
0.00025371094
0.00026988513
0.00028602408
0.0003020743
0.0003180178
0.00033380435
0.00034939868
0.00036475132
0.00037982308
0.00039456961
0.00040895529
0.00042293889
0.00043648744
0.00044956585
0.00046215212
0.00047421648
0.00048573114
0.00049666725
0.00050700395
0.00051672244
0.00052580836
0.00053425209
0.00054204644
0.00054918754
0.00055567376
0.00056150635
0.0005666926
0.0005712409
0.00057515955
0.00057846003
0.00058115518
0.00058326018
0.00058479735
0.00058578771
0.00058619971
0.00058608051
0.00058541747
0.00058430425
0.00058288564
0.00058100631
0.0005786299
0.00057588809
0.00057276384
0.00056928019
0.0005654604
0.00056132082
0.0005568899
0.00055218488
0.00054723036
0.00054204682
0.00053663442
0.00053103467
0.0005252308
0.00051924381
0.00051308017
0.00050675295
0.00050027248
0.00049365287
0.00048689801
0.00048001338
0.00047300135
0.00046587005
0.00045861221
0.00045123575
0.00044373271
0.00043610878
0.00042834487
0.00042044527
0.00041237871
0.00040414982
0.00039570719
0.00038706688
0.00037814554
0.00036897633
0.00035942436
0.0003495444
0.00033911395
0.00032822082
0.0003165099
0.00030412618
0.00029050889
0.00027589006
0.0002593699
0.00024120918
0.00021737591
0.00019989237
0.00020229768
0.00020979736
0.00022000733
0.00023150987
0.00024371469
0.00025671902
0.00027036332
0.00028512994
0.0003013636
0.00032078594
0.00034237459
0.00036521835
0.00038870242
0.00041250411
0.00043612855
0.0004593145
0.00048246723
0.00049837714
0.00050963793
0.00052071629
0.00053275921
0.00054654384
0.00056282108
0.00058272262
0.00060887739
0.00064265177
0.00070888342
0.00080557714
0.00090791715
0.0010505844
0.0012569185
0.0015319727
0.0018777024
0.0022454299
0.0024723446
0.0024946886
0.0022712929
0.0018192728
0.0015270165
0.0012065367
0.0012381903
0.0020719432
0.0022196315
0.0019959897
0.0014365862
0.00076080522
0.00022636916
3.8806771e-05
7.6556876e-06
7.6712062e-06
6.4194676e-06
5.5928152e-06
5.0272544e-06
4.8251908e-06
4.6575946e-06
4.495109e-06
4.4371444e-06
4.555066e-06
4.831317e-06
5.2667895e-06
5.894081e-06
6.7505235e-06
7.8918673e-06
9.386972e-06
1.13053e-05
1.3635903e-05
1.6441525e-05
1.9692654e-05
2.3095694e-05
2.6746982e-05
3.0744708e-05
3.5205004e-05
4.0025529e-05
4.515582e-05
5.0736334e-05
5.6584951e-05
6.23709e-05
6.7655754e-05
7.2031025e-05
7.482364e-05
7.6114948e-05
7.6041499e-05
7.9887241e-05
0.00010155081
0.00013497125
0.00015973714
0.00018694382
0.00021182737
0.000237313
0.00026181253
0.00028647303
0.00031076354
0.0003350897
0.0003592813
0.0003834579
0.0004075341
0.00043153103
0.0004553719
0.00047903205
0.00050243994
0.00052554591
0.00054827987
0.00057058683
0.00059240446
0.0006136829
0.00063436437
0.00065440276
0.00067374896
0.0006923721
0.00071023175
0.00072728762
0.00074349969
0.00075883821
0.00077327686
0.00078679507
0.00079937938
0.00081101931
0.00082170914
0.00083144606
0.00084023134
0.00084807496
0.00085498854
0.00086098313
0.00086607439
0.00087027993
0.0008736206
0.00087612424
0.00087782971
0.00087869077
0.00087875364
0.0008780184
0.00087661337
0.00087475382
0.00087221193
0.00086892905
0.00086509845
0.00086069501
0.0008557516
0.0008503015
0.00084436839
0.00083799326
0.00083120131
0.00082402813
0.00081650351
0.00080862889
0.00080046274
0.0007919824
0.00078321793
0.00077417911
0.00076488514
0.00075535141
0.00074559881
0.0007356333
0.00072546312
0.00071509199
0.00070453197
0.00069377268
0.00068282576
0.00067167968
0.00066034294
0.00064878743
0.00063701942
0.0006249926
0.00061271369
0.00060010626
0.00058719383
0.00057385231
0.00056013026
0.00054582659
0.00053102147
0.00051538254
0.00049903837
0.00048145743
0.0004628523
0.00044238137
0.00042038504
0.00039550926
0.00036813289
0.00033219103
0.00030577857
0.00030933018
0.00032065269
0.00033611926
0.00035357172
0.00037211506
0.0003918861
0.00041264745
0.00043512033
0.00045983107
0.00048932936
0.00052206602
0.00055666538
0.0005921909
0.00062814379
0.00066377133
0.00069868809
0.00073343743
0.00075728657
0.00077423211
0.00079090152
0.00080899493
0.00082967431
0.00085405883
0.00088383987
0.00092287925
0.00097330327
0.0010716889
0.0012131993
0.001363253
0.0015701241
0.0018643078
0.0022509516
0.0027268988
0.0032194393
0.0035131322
0.003539979
0.0032429152
0.0026347149
0.0022413934
0.0017929338
0.0018412752
0.0028935546
0.0030921788
0.0027978347
0.0020574501
0.0011212467
0.00034259913
5.9620721e-05
1.1497542e-05
1.1358316e-05
9.5276689e-06
8.3108389e-06
7.4729421e-06
7.1724269e-06
6.9250172e-06
6.6842622e-06
6.5972919e-06
6.770483e-06
7.1788677e-06
7.823699e-06
8.7536087e-06
1.0024558e-05
1.1715075e-05
1.3929998e-05
1.6771707e-05
2.021826e-05
2.4368647e-05
2.9197768e-05
3.4242533e-05
3.9652517e-05
4.5590809e-05
5.2199713e-05
5.9333337e-05
6.692245e-05
7.5168825e-05
8.3806614e-05
9.2348628e-05
0.00010015486
0.00010662204
0.00011078565
0.0001127522
0.00011280468
0.00011858795
0.00015078692
0.00019931041
0.00023525084
0.00027460643
0.00031046922
0.00034710662
0.00038223379
0.00041751052
0.00045218347
0.0004868364
0.00052123293
0.00055554617
0.00058966057
0.0006236093
0.00065728986
0.00069067145
0.0007236591
0.00075618803
0.0007881657
0.00081952047
0.00085017091
0.00088005225
0.00090908924
0.00093722194
0.00096438639
0.00099054298
0.0010156409
0.0010396253
0.0010624443
0.0010840585
0.0011044335
0.0011235419
0.0011413662
0.0011578923
0.0011731124
0.0011870221
0.0011996225
0.0012109264
0.001220949
0.001229704
0.0012372113
0.0012434935
0.0012485774
0.0012524971
0.0012553021
0.0012569632
0.0012574747
0.00125688
0.0012553414
0.0012531614
0.0012500249
0.0012458413
0.0012408786
0.0012351017
0.0012285545
0.0012212818
0.0012133156
0.0012047114
0.0011955038
0.0011857412
0.0011754638
0.0011646771
0.0011534555
0.0011417724
0.0011296676
0.001117155
0.0011042611
0.0010910074
0.001077423
0.0010635166
0.0010492998
0.0010347779
0.0010199678
0.0010048555
0.0009894569
0.00097375628
0.00095776542
0.00094144502
0.00092480364
0.00090777601
0.00089037116
0.00087248113
0.00085413806