/*--------------------------------*- C++ -*----------------------------------*\
| =========                 |                                                 |
| \\      /  F ield         | OpenFOAM: The Open Source CFD Toolbox           |
|  \\    /   O peration     | Version:  2.4.0                                 |
|   \\  /    A nd           | Web:      www.OpenFOAM.org                      |
|    \\/     M anipulation  |                                                 |
\*---------------------------------------------------------------------------*/
FoamFile
{
    version     2.0;
    format      ascii;
    class       volScalarField;
    location    "5000";
    object      omega;
}
// * * * * * * * * * * * * * * * * * * * * * * * * * * * * * * * * * * * * * //

dimensions      [0 0 -1 0 0 0 0];

internalField   nonuniform List<scalar> 
35100
(
130385.86
130394.66
130493.31
131330.48
134104.22
140320.53
150747.42
161866.41
170938.72
177095.86
180136.14
180386.95
178142.54
173708.89
167405.21
159716.25
152161.82
145354.65
139215.6
133670.94
128656.9
124117.9
120004.9
116274.09
112697.66
108851.33
104731.59
100395.66
95899.523
91299.106
86651.995
82021.741
77543.682
73491.515
69915.25
66811.466
64182.409
62035.24
60381.485
59236.111
58616.394
58536.768
58623.503
58623.502
58623.502
58623.502
58623.502
58623.503
58623.502
58623.502
58623.502
58623.503
58623.503
58623.503
58623.502
58623.503
58623.503
58623.503
58623.503
58623.503
58623.503
58623.503
58623.503
58623.503
58623.503
58623.503
58623.503
58623.503
58623.503
58623.503
58623.503
58623.503
58623.503
58623.503
58623.503
58623.503
58623.504
58623.501
58623.504
58623.503
58623.502
58623.504
58623.502
58623.504
58623.503
58623.503
58623.503
58623.503
58623.503
58623.502
58623.502
58623.502
58623.502
58623.502
58623.502
58623.502
58623.502
58623.502
58623.504
58623.501
58623.502
58623.503
58623.501
58623.503
58623.502
58623.502
58623.502
58623.5
58623.503
58623.502
58623.502
58623.502
58623.502
58623.501
58623.502
58623.501
58623.502
58623.501
58623.502
58623.501
58623.502
58623.502
58623.503
58623.502
58623.502
58623.502
58623.502
58623.501
58623.502
58623.5
58623.503
58623.502
58623.502
58623.502
58623.502
58623.502
58623.502
58623.502
58536.772
58616.429
59236.097
60381.416
62035.247
64182.494
66811.313
69915.065
73491.603
77543.657
82021.44
86652.292
91298.815
95899.145
100395.2
104730.94
108851.3
112697.85
116274.38
120004.88
124117.56
128656.9
133671.34
139215.63
145355.2
152161.58
159715.61
167404.85
173709.52
178141.39
180385.75
180134.13
177095.41
170938.85
161866.58
150747.87
140320.41
134104.09
131330.63
130493.32
130394.66
130385.86
21852.642
21852.737
21868.86
22008.683
22472.248
23510.38
24231.295
26018.308
27478.691
28471.044
28962.349
29004.981
28646.287
27935.41
26923.639
25688.292
24473.614
23378.971
22392.169
21501.175
20695.601
19965.955
19304.491
18704.479
18130.645
17515.728
16861.582
16185.011
15543.329
15178.138
14526.83
13750.94
13000.329
12320.902
11721.218
11200.746
10759.866
10399.787
10122.459
9930.397
9826.5316
9812.7085
9826.1622
9825.6703
9825.6289
9825.6011
9825.5786
9825.5622
9825.5496
9825.5403
9825.5331
9825.5274
9825.5228
9825.5188
9825.5152
9825.5118
9825.5083
9825.5047
9825.5011
9825.497
9825.4927
9825.4881
9825.4835
9825.4783
9825.4731
9825.4675
9825.4619
9825.456
9825.4499
9825.4462
9825.4429
9825.4392
9825.4353
9825.4313
9825.4272
9825.4228
9825.4184
9825.4138
9825.4093
9825.4046
9825.3999
9825.3954
9825.3907
9825.3862
9825.3816
9825.3772
9825.3728
9825.3685
9825.3644
9825.3604
9825.3565
9825.3528
9825.3492
9825.3458
9825.3425
9825.3393
9825.3365
9825.3337
9825.3312
9825.3286
9825.3264
9825.3244
9825.3224
9825.3207
9825.319
9825.3176
9825.3163
9825.315
9825.3143
9825.3132
9825.3126
9825.3119
9825.3115
9825.311
9825.3108
9825.3106
9825.3106
9825.3106
9825.3108
9825.311
9825.3113
9825.3118
9825.3124
9825.313
9825.3138
9825.3147
9825.3157
9825.3168
9825.3183
9825.3198
9825.3219
9825.324
9825.3268
9825.3298
9825.3339
9825.3418
9825.3548
9825.7905
9812.441
9826.5203
9930.4226
10122.48
10399.814
10759.889
11200.724
11721.192
12320.884
13000.28
13750.843
14526.764
15305.261
16075.967
16829.121
17555.357
18245.404
18889.588
19488.805
20114.196
20803.79
21564.879
22405.609
23335.192
24364.55
25505.75
26771.919
28059.458
29114.148
29854.886
30206.519
29188.731
28510.398
27493.876
26025.827
24236.192
22564.191
21596.965
21572.137
21871.969
21855.378
21853.598
7116.1255
7115.7602
7121.9547
7168.07
7318.9564
7656.1309
8004.3917
8593.4839
9076.3211
9404.9703
9568.0669
9582.8542
9464.9371
9230.611
8896.7627
8488.8397
8087.4284
7725.5702
7399.3202
7104.7184
6838.3448
6597.1246
6378.4771
6180.1762
5990.4887
5787.0467
5570.0798
5344.2078
5122.5761
4957.8266
4731.4786
4478.9208
4234.4486
4013.1078
3817.7285
3648.1497
3504.5
3387.1735
3296.8205
3234.2571
3200.4964
3196.0409
3200.2123
3199.8946
3199.858
3199.8366
3199.8214
3199.8126
3199.8079
3199.8063
3199.8069
3199.8086
3199.8112
3199.814
3199.8168
3199.8193
3199.8213
3199.8226
3199.8232
3199.8229
3199.8217
3199.8196
3199.8167
3199.8127
3199.808
3199.8024
3199.7961
3199.7889
3199.7809
3199.7736
3199.7657
3199.7571
3199.7478
3199.7379
3199.7275
3199.7166
3199.7054
3199.6937
3199.6819
3199.6698
3199.6576
3199.6453
3199.633
3199.6207
3199.6085
3199.5964
3199.5845
3199.5728
3199.5613
3199.5502
3199.5394
3199.5289
3199.5188
3199.509
3199.4997
3199.4908
3199.4823
3199.4742
3199.4667
3199.4594
3199.4528
3199.4465
3199.4407
3199.4353
3199.4303
3199.4257
3199.4216
3199.4178
3199.4144
3199.4114
3199.4088
3199.4064
3199.4045
3199.4028
3199.4015
3199.4004
3199.3997
3199.3992
3199.399
3199.399
3199.3993
3199.3998
3199.4007
3199.4017
3199.4031
3199.4047
3199.4067
3199.409
3199.4118
3199.415
3199.4189
3199.4233
3199.4287
3199.4351
3199.443
3199.4545
3199.4697
3199.7359
3195.701
3200.4555
3234.2953
3296.8569
3387.2025
3504.5061
3648.1236
3817.6771
4013.03
4234.3395
4478.7708
4731.389
4984.8307
5235.723
5480.8836
5717.2668
5941.8512
6151.5208
6346.6319
6550.3723
6775.0448
7022.9896
7296.8671
7599.6951
7935.0267
8306.7951
8719.1582
9138.0435
9481.1705
9721.9375
9837.9044
9616.522
9414.5287
9081.776
8598.637
8009.933
7460.4665
7138.5562
7080.4214
7126.2089
7119.6711
7117.2147
3225.8757
3225.4815
3229.665
3251.4105
3319.8281
3471.6103
3655.4458
3923.0565
4143.4379
4293.8911
4368.732
4375.8099
4322.1986
4215.4278
4063.163
3877.0289
3693.7247
3528.4334
3379.3991
3244.8164
3123.1264
3012.9402
2913.0718
2822.5014
2735.8643
2642.9173
2543.6569
2439.9652
2336.4529
2250.638
2144.6235
2030.2006
1919.4062
1819.0688
1730.4892
1653.6013
1588.4683
1535.2667
1494.3094
1465.9615
1450.7577
1448.9365
1450.8152
1450.5803
1450.549
1450.5365
1450.5313
1450.5332
1450.5397
1450.5492
1450.5607
1450.5732
1450.5859
1450.5983
1450.6101
1450.6206
1450.6299
1450.6376
1450.6437
1450.6478
1450.6501
1450.6504
1450.6489
1450.6453
1450.64
1450.6328
1450.6239
1450.6132
1450.601
1450.588
1450.5735
1450.5574
1450.5401
1450.5214
1450.5017
1450.481
1450.4594
1450.4371
1450.4142
1450.3909
1450.3672
1450.3432
1450.3192
1450.2951
1450.2712
1450.2474
1450.224
1450.2009
1450.1782
1450.1561
1450.1347
1450.1138
1450.0936
1450.0742
1450.0555
1450.0376
1450.0205
1450.0042
1449.9889
1449.9743
1449.9607
1449.9479
1449.936
1449.9249
1449.9146
1449.9051
1449.8964
1449.8885
1449.8814
1449.8749
1449.8692
1449.8642
1449.8598
1449.8561
1449.8529
1449.8504
1449.8484
1449.847
1449.846
1449.8456
1449.8457
1449.8462
1449.8472
1449.8487
1449.8507
1449.8533
1449.8564
1449.8601
1449.8645
1449.8697
1449.8757
1449.8829
1449.8914
1449.9017
1449.9139
1449.9307
1449.9509
1450.1395
1448.4542
1450.6618
1465.9863
1494.3319
1535.2749
1588.439
1653.5296
1730.3752
1818.9114
1919.2056
2029.9457
2144.3705
2259.1628
2372.7969
2483.8334
2590.8996
2692.6249
2787.6068
2876.0535
2968.4535
3070.3418
3182.7722
3306.9564
3444.2664
3596.308
3764.8626
3951.7467
4141.3592
4296.9143
4406.0431
4459.2134
4386.0787
4299.7711
4149.6105
3931.2095
3665.7073
3418.1959
3270.7266
3230.5746
3236.1649
3231.2333
3227.1997
1760.5222
1760.1251
1763.8411
1776.5427
1813.7008
1895.2075
2002.4144
2147.466
2267.8719
2350.5246
2391.7565
2395.8524
2366.6203
2308.2884
2225.0094
2123.196
2022.8434
1932.3249
1850.7088
1777.0075
1710.3672
1650.0322
1595.3493
1545.7559
1498.3164
1447.4193
1393.0194
1336.0712
1278.6508
1228.2336
1169.3233
1106.9571
1046.5604
991.84709
943.53605
901.59611
866.06699
837.04286
814.71441
799.27579
791.10343
790.36829
791.45988
791.27485
791.25612
791.25905
791.26967
791.28772
791.31018
791.33529
791.3618
791.38842
791.4145
791.4392
791.46217
791.48281
791.50095
791.51618
791.52846
791.53744
791.54317
791.54555
791.54475
791.5406
791.53333
791.52288
791.50955
791.49323
791.47415
791.45277
791.42883
791.40238
791.37374
791.34301
791.3105
791.27635
791.24082
791.20406
791.16636
791.12785
791.08879
791.04937
791.00975
790.97014
790.9307
790.89158
790.85294
790.81491
790.77762
790.74123
790.70589
790.6715
790.63821
790.60609
790.57527
790.54572
790.51755
790.49073
790.46537
790.44136
790.41885
790.39769
790.37795
790.35958
790.3425
790.32682
790.3124
790.29928
790.28741
790.27676
790.26726
790.25888
790.25158
790.24533
790.24007
790.23581
790.23243
790.22996
790.22833
790.22752
790.22751
790.22827
790.2298
790.2321
790.23517
790.23908
790.24379
790.24947
790.25605
790.26388
790.2728
790.28351
790.29576
790.31079
790.32821
790.35138
790.37788
790.53159
789.69975
790.91592
799.25296
814.69038
836.99847
865.97046
901.44368
943.32497
991.57667
1046.2336
1106.5617
1168.8847
1231.4084
1293.3057
1353.793
1412.1258
1467.5612
1519.3434
1567.6146
1618.0644
1673.6836
1735.0499
1802.8287
1877.7686
1960.7438
2052.7236
2154.6495
2257.9022
2342.9687
2402.7306
2432.3192
2401.8936
2357.3602
2276.9547
2159.9834
2018.4009
1886.6272
1805.9894
1778.0518
1773.4086
1768.0399
1762.2781
1079.2545
1078.8503
1082.3828
1090.9647
1113.2914
1161.5707
1228.4434
1315.7939
1389.2223
1440.098
1465.5701
1468.2555
1450.4117
1414.7441
1363.7533
1301.4405
1239.9596
1184.4855
1134.4691
1089.3061
1048.4725
1011.5067
978.00526
947.61752
918.54651
887.35929
854.00537
819.03779
783.55314
751.28622
714.83115
676.71453
639.80225
606.35112
576.8061
551.15162
529.41811
511.66103
498.01875
488.60631
483.7438
483.58592
484.36455
484.21879
484.21902
484.24271
484.27377
484.31181
484.35354
484.39693
484.44066
484.48326
484.52403
484.562
484.5968
484.6277
484.65452
484.67682
484.69447
484.70717
484.71492
484.7177
484.71565
484.70868
484.69703
484.68075
484.66015
484.63524
484.60612
484.57312
484.53641
484.49617
484.45279
484.40648
484.35764
484.30654
484.25352
484.19882
484.14282
484.08577
484.02801
483.96981
483.91143
483.85313
483.79515
483.73773
483.68108
483.62538
483.57082
483.51763
483.46599
483.41581
483.36725
483.32048
483.27562
483.23265
483.19172
483.15278
483.11598
483.08121
483.04859
483.018
482.98946
482.963
482.9384
482.91585
482.89516
482.87639
482.85944
482.84428
482.83083
482.81901
482.80879
482.8001
482.79286
482.78708
482.78262
482.77946
482.77755
482.77682
482.77725
482.77881
482.78145
482.78522
482.79006
482.7961
482.80321
482.81169
482.82133
482.83271
482.84546
482.86068
482.87774
482.89865
482.92236
482.95312
482.9874
483.12655
482.67988
483.41662
488.49168
497.90724
511.52391
529.21476
550.87774
576.45664
605.9272
639.30715
676.13511
714.17609
752.34334
790.13506
827.07522
862.71245
896.59613
928.2754
957.85856
988.79066
1022.8785
1060.4806
1102.0083
1147.9226
1198.7577
1255.1043
1317.4993
1380.5719
1432.968
1469.9303
1488.7196
1474.5067
1449.1277
1401.7651
1332.8351
1250.0001
1173.2536
1124.6019
1104.0245
1095.7351
1089.2031
1081.7788
716.83392
716.39287
719.61855
726.10076
740.22446
770.22176
813.5033
869.64892
917.75381
951.56277
968.56874
970.49081
958.73792
935.215
901.53116
860.41544
819.80022
783.14032
750.09046
720.25215
693.27764
668.86266
646.73739
626.6623
607.45132
586.84511
564.79539
541.65217
518.06098
496.09725
471.82924
446.67424
422.31884
400.23752
380.72722
363.78088
349.42491
337.69423
328.70257
322.52447
319.46269
319.67316
320.32559
320.21543
320.23899
320.28639
320.34005
320.39954
320.4614
320.52344
320.58428
320.64235
320.69692
320.74691
320.79193
320.8312
320.86452
320.89142
320.91178
320.9253
320.932
320.93197
320.92533
320.91209
320.89257
320.86688
320.83543
320.79829
320.75552
320.70751
320.65472
320.59741
320.53609
320.4711
320.40293
320.33196
320.25863
320.18331
320.10645
320.02841
319.94963
319.87045
319.79122
319.71227
319.63394
319.5565
319.48023
319.40538
319.33219
319.26095
319.19186
319.12481
319.06004
318.99776
318.93809
318.88103
318.82674
318.7752
318.72653
318.68065
318.63767
318.59745
318.55996
318.52539
318.49326
318.4639
318.43709
318.41285
318.39108
318.37172
318.35465
318.3398
318.3271
318.31647
318.30781
318.30109
318.29615
318.29298
318.29146
318.29156
318.29319
318.29634
318.30092
318.30701
318.31448
318.32354
318.33396
318.34619
318.35983
318.37574
318.39327
318.414
318.43688
318.46468
318.4957
318.53535
318.57904
318.71493
318.46916
318.93739
322.26274
328.45274
337.41602
349.06864
363.34052
380.19577
399.61749
421.61282
445.86901
470.92333
496.06687
520.97214
545.32809
568.84129
591.21798
612.16968
631.78952
652.31629
674.92094
699.849
727.37577
757.80969
791.50453
828.85028
870.16826
911.81369
946.88291
971.81365
985.00131
978.21594
963.0585
933.62747
890.67572
839.64988
793.00535
762.44119
746.87115
737.21976
729.35114
720.51614
505.6194
505.08685
507.77151
513.14757
522.23433
540.99203
569.1707
606.6805
639.75323
663.4867
675.49641
676.9661
668.7913
652.41839
628.92663
600.31287
572.00717
546.44857
523.41121
502.61794
483.82477
466.81971
451.41137
437.42321
424.02891
409.6654
394.28662
378.1282
361.60115
345.9487
328.9235
311.38968
294.42033
279.02755
265.42032
253.59678
243.58201
235.39937
229.15114
224.89018
222.91917
223.39715
224.00595
223.92873
223.97697
224.04793
224.12332
224.20275
224.28271
224.36095
224.43607
224.50646
224.57137
224.62963
224.68094
224.72439
224.7599
224.78696
224.80546
224.81517
224.81626
224.8088
224.79302
224.76904
224.73727
224.69793
224.65152
224.59817
224.53794
224.47142
224.39924
224.3218
224.23971
224.15342
224.06354
223.97056
223.87502
223.77737
223.67817
223.57787
223.47698
223.37593
223.27512
223.17499
223.07589
222.97818
222.88217
222.78817
222.69646
222.60738
222.52114
222.4376
222.35706
222.27979
222.20588
222.13536
222.06839
222.00495
221.94517
221.88896
221.8364
221.78738
221.74177
221.69998
221.66118
221.6259
221.59387
221.56507
221.53939
221.51675
221.49702
221.48008
221.46586
221.45425
221.44512
221.43844
221.43402
221.43182
221.4317
221.43362
221.43746
221.44321
221.45076
221.46021
221.47136
221.4845
221.49929
221.51633
221.53505
221.55659
221.58003
221.60741
221.63726
221.67315
221.71272
221.76268
221.81742
221.95729
221.82807
222.12884
224.41963
228.70681
234.92713
243.02219
252.94047
264.65868
278.16335
293.4553
310.31022
327.72166
345.20302
362.52959
379.48775
395.87785
411.49889
426.15662
439.94092
454.37571
470.25242
487.75498
507.07903
528.44276
552.09557
578.30892
607.27714
636.35459
661.32636
679.27907
689.27223
686.32509
677.12144
658.22985
630.47312
598.15959
569.65462
550.80295
539.33799
529.68131
520.69521
510.87267
374.35072
373.6316
375.53936
380.37377
386.19218
397.46998
415.16564
440.65602
464.14594
481.50519
490.35757
491.54082
485.61672
473.75221
456.68894
435.97618
415.45146
396.91176
380.20612
365.13413
351.51709
339.20106
328.04388
317.90583
308.18776
297.771
286.60919
274.86888
262.82761
251.27219
238.84809
226.11816
213.80654
202.63219
192.74822
184.15635
176.88195
170.94168
166.43348
163.3987
162.14759
162.83631
163.43756
163.38868
163.45926
163.54993
163.64264
163.73711
163.82994
163.91887
164.00251
164.07927
164.14843
164.20874
164.26006
164.30135
164.33275
164.35371
164.36411
164.36411
164.35373
164.33322
164.30296
164.26318
164.2144
164.15699
164.09152
164.01819
163.93709
163.84908
163.75493
163.65516
163.55047
163.44143
163.32875
163.213
163.09481
162.97473
162.85336
162.73123
162.60892
162.4869
162.36564
162.2456
162.12719
162.0108
161.89677
161.78542
161.67708
161.57212
161.47074
161.37274
161.27849
161.18829
161.10221
161.02027
160.94265
160.86931
160.80039
160.73578
160.67554
160.61954
160.5676
160.52034
160.47653
160.43698
160.40129
160.36946
160.34136
160.31687
160.29584
160.27815
160.26369
160.25236
160.24397
160.2385
160.23573
160.2356
160.23796
160.24275
160.24984
160.25921
160.27071
160.28449
160.30028
160.31844
160.33855
160.36134
160.38609
160.41418
160.44448
160.47946
160.51729
160.56228
160.61148
160.67291
160.74007
160.88875
160.83314
161.02043
162.65364
165.73557
170.22073
176.06701
183.23442
191.70824
201.47524
212.53394
224.71538
237.30272
249.94974
262.49684
274.7922
286.69551
298.06478
308.76345
318.88745
329.5051
341.16065
354.00426
368.1817
383.85456
401.20584
420.43115
441.64329
462.80509
481.45251
495.03896
503.03055
502.17388
496.55008
484.06866
465.53455
444.73682
427.86358
417.42105
409.86213
401.31397
391.74797
381.4938
288.78904
287.74766
288.71507
293.36251
297.0805
303.14684
313.0228
330.23204
347.26701
360.37651
367.12827
368.12074
363.68776
354.81762
342.02567
326.57562
311.23464
297.37224
284.88715
273.63003
263.46548
254.27797
245.95801
238.38651
231.11609
223.32961
214.97624
206.17935
197.13514
188.36253
179.0136
169.47581
160.26081
151.89155
144.48403
138.0427
132.59415
128.15151
124.81231
122.61224
121.8716
122.73291
123.33755
123.3089
123.39513
123.49752
123.5994
123.70049
123.7977
123.88878
123.9724
124.04699
124.11196
124.16593
124.2091
124.2402
124.25972
124.26701
124.26239
124.24584
124.21768
124.17829
124.12819
124.06778
123.99768
123.9184
123.83062
123.73451
123.63037
123.51927
123.40208
123.27942
123.15207
123.02071
122.88608
122.74885
122.60968
122.46918
122.32797
122.18665
122.0458
121.90592
121.7675
121.631
121.49686
121.36546
121.23714
121.11223
120.99107
120.87404
120.7613
120.65258
120.54828
120.44876
120.35403
120.26411
120.17916
120.09913
120.02415
119.95408
119.88899
119.82872
119.773
119.72271
119.6762
119.63453
119.59724
119.5643
119.53556
119.51091
119.49015
119.47317
119.45984
119.45005
119.44358
119.4404
119.44028
119.44317
119.44886
119.45733
119.4684
119.48207
119.49817
119.51687
119.53786
119.56157
119.58749
119.61648
119.64771
119.68278
119.72036
119.76335
119.80957
119.86407
119.92338
119.99676
120.07703
120.23734
120.23141
120.33676
121.52801
123.80379
127.13045
131.47687
136.81055
143.12287
150.39908
158.63792
167.70651
177.08187
186.51145
195.87908
205.07414
213.996
222.54221
230.61111
238.31497
246.41418
255.27706
265.03896
275.81191
287.7195
300.90021
315.49713
331.5649
347.44696
361.88237
372.53662
379.12417
379.36418
375.83616
367.22819
354.31691
340.72037
331.52991
327.51499
323.89978
317.40203
308.01077
297.94578
230.83116
229.30842
229.2906
233.97715
236.49504
238.91323
242.60948
253.73773
266.22745
276.38594
281.68386
282.54423
279.14027
272.34138
262.50547
250.70855
238.96638
228.35233
218.79946
210.19388
202.43
195.41871
189.07336
183.28415
177.71011
171.75104
165.34578
158.59077
151.63005
144.81696
137.60683
130.27964
123.21038
116.78553
111.09555
106.14729
101.9692
98.573027
96.058039
94.457436
94.10124
95.1037
95.70663
95.685688
95.776303
95.878366
95.977673
96.073782
96.164083
96.246309
96.319206
96.381287
96.432124
96.470135
96.496072
96.508223
96.50785
96.49406
96.467418
96.428094
96.376602
96.313479
96.239413
96.154941
96.060828
95.957693
95.846291
95.726716
95.599616
95.46617
95.327298
95.183681
95.036164
94.885453
94.732332
94.57747
94.421553
94.265185
94.108996
93.953555
93.799444
93.647142
93.49711
93.349793
93.205594
93.064875
92.927948
92.795074
92.666636
92.542972
92.424179
92.309916
92.200602
92.096615
91.997895
91.904462
91.816446
91.73379
91.65659
91.584707
91.518166
91.456807
91.400305
91.349699
91.303044
91.261601
91.224847
91.192741
91.165129
91.141881
91.122799
91.107755
91.09662
91.08929
91.085526
91.085283
91.08834
91.094639
91.103961
91.116298
91.131439
91.149428
91.170052
91.193524
91.219493
91.24847
91.279865
91.314667
91.351933
91.393495
91.437849
91.488257
91.542318
91.605671
91.674497
91.759105
91.851919
92.024448
92.053415
92.096844
92.977755
94.690905
97.210717
100.51388
104.57298
109.38319
114.92846
121.20832
128.1144
135.25924
142.45512
149.61592
156.65975
163.51338
170.10184
176.34226
182.37568
188.74296
195.67439
203.30644
211.72641
221.0308
231.32588
242.71602
255.21004
267.39182
278.85634
287.39565
292.86919
293.57195
291.15495
284.79358
275.25996
266.14723
261.99468
262.98804
263.29779
259.53833
251.14316
241.8669
190.16078
188.00277
187.08728
191.93155
194.00643
194.00327
192.64467
198.99413
208.161
216.20418
220.46477
221.23085
218.56107
213.24233
205.52049
196.34521
187.18599
178.90438
171.45796
164.7582
158.72072
153.27513
148.35171
143.84065
139.47912
134.83344
129.82397
124.53166
119.0658
113.67329
107.99901
102.25427
96.72212
91.690926
87.233309
83.358386
80.096886
77.460747
75.551859
74.402093
74.34982
75.462463
76.047256
76.016883
76.096485
76.182754
76.265098
76.342518
76.413035
76.474275
76.525045
76.563927
76.590753
76.603563
76.603827
76.589791
76.562657
76.521957
76.468356
76.402219
76.324255
76.235157
76.135754
76.026712
75.908892
75.782993
75.649784
75.509279
75.362539
75.210691
75.054659
74.895143
74.732978
74.568861
74.403545
74.237666
74.071867
73.906704
73.742754
73.580531
73.420559
73.263251
73.109011
72.958222
72.811227
72.66833
72.529796
72.395796
72.266686
72.142792
72.024134
71.910289
71.801654
71.69861
71.601048
71.50896
71.422449
71.341441
71.266005
71.195992
71.131404
71.072074
71.017667
70.969213
70.924759
70.885571
70.851123
70.821373
70.796166
70.775372
70.758795
70.746304
70.737783
70.73316
70.732121
70.734688
70.740632
70.749899
70.762268
70.777747
70.79612
70.817456
70.841529
70.868591
70.898266
70.931126
70.966542
71.005595
71.047288
71.093601
71.142962
71.198869
71.258839
71.328904
71.405131
71.498552
71.601586
71.784217
71.83752
71.833037
72.488644
73.796007
75.734971
78.28808
81.431376
85.161608
89.463111
94.33533
99.687517
105.22985
110.82097
116.39605
121.89368
127.26
132.43947
137.35497
142.19186
147.32551
152.86563
158.96626
165.69471
173.12673
181.34406
190.42035
200.32551
209.79727
219.04897
225.95499
230.45564
231.19843
229.25631
224.12584
216.60551
210.24658
209.23619
214.00558
218.01811
217.3513
210.66703
202.67586
160.57961
157.67823
156.0397
161.06765
163.32861
161.96254
156.45909
158.76417
165.41818
171.90732
175.41029
176.10765
173.9767
169.74449
163.57618
156.3347
149.08088
142.52077
136.62994
131.33848
126.57748
122.29003
118.42018
114.84798
111.37516
107.69975
103.71667
99.499468
95.133706
90.79588
86.253601
81.672784
77.272114
73.267732
69.719688
66.639451
64.060143
61.995062
60.548623
59.750697
59.947525
61.136423
61.67883
61.617908
61.668457
61.721779
61.771984
61.816913
61.855267
61.884406
61.90311
61.909968
61.905008
61.886435
61.855435
61.810844
61.75373
61.683955
61.602286
61.509255
61.405721
61.29249
61.170476
61.040418
60.903213
60.759573
60.610196
60.45508
60.295591
60.132687
59.96723
59.799875
59.631383
59.462384
59.29354
59.125402
58.958517
58.793351
58.630381
58.470034
58.312729
58.158789
58.008528
57.862243
57.720194
57.582606
57.44968
57.3215
57.198323
57.080497
56.967967
56.86025
56.757672
56.660599
56.568902
56.48253
56.401565
56.325917
56.255632
56.190555
56.130672
56.075817
56.025703
55.981151
55.940525
55.904884
55.873765
55.84713
55.824833
55.806756
55.792712
55.782577
55.776269
55.773721
55.774596
55.778976
55.786626
55.79751
55.811416
55.828372
55.848168
55.870896
55.896337
55.924766
55.955813
55.990079
56.02694
56.067516
56.11082
56.158889
56.210184
56.268281
56.330776
56.403831
56.483669
56.581605
56.690503
56.878156
56.946874
56.905354
57.393616
58.401249
59.911467
61.911376
64.378824
67.311756
70.69517
74.528132
78.73307
83.092044
87.497599
91.9002
96.253249
100.51675
104.64881
108.57044
112.51829
116.7396
121.24172
126.19879
131.66471
137.69862
144.36253
151.70467
159.66059
167.07221
174.59602
180.17199
183.78442
184.31322
182.48608
178.02134
171.75634
167.0714
167.88338
175.18216
182.3135
184.84369
180.33152
173.96331
138.24985
134.55645
132.42218
137.57423
140.50227
138.69615
129.92926
128.54746
133.23688
138.56326
141.50324
142.14995
140.42455
137.00822
132.00822
126.22652
120.4111
115.15136
110.43635
106.21004
102.41501
99.004293
95.931866
93.064177
90.256619
87.312728
84.100404
80.689808
77.150354
73.611019
69.921251
66.215983
62.66725
59.437056
56.576642
54.099949
52.042371
50.41935
49.336824
48.821726
49.224553
50.452832
50.924665
50.809624
50.813321
50.817632
50.822524
50.823857
50.820875
50.810349
50.791105
50.761617
50.721664
50.669866
50.607091
50.532576
50.447283
50.351293
50.245421
50.130294
50.006832
49.875872
49.738327
49.594926
49.446515
49.293736
49.137115
48.976785
48.814124
48.649875
48.484777
48.319377
48.15431
47.990086
47.827236
47.666185
47.50735
47.351079
47.197727
47.047607
46.901022
46.758188
46.61932
46.48462
46.354261
46.228385
46.10712
45.990492
45.878622
45.77186
45.670149
45.572963
45.480516
45.393146
45.310737
45.233197
45.160591
45.092821
45.029915
44.971723
44.918221
44.869255
44.824606
44.784828
44.748718
44.717053
44.689464
44.665918
44.646288
44.630474
44.618307
44.60968
44.604541
44.602828
44.604223
44.608839
44.616451
44.627047
44.640432
44.656651
44.675514
44.697128
44.721291
44.748291
44.777779
44.810361
44.84545
44.884147
44.925537
44.971604
45.020942
45.07702
45.137677
45.208898
45.28732
45.384024
45.492752
45.677864
45.753617
45.684282
46.046806
46.829693
48.017865
49.602046
51.560323
53.892698
56.584074
59.633259
62.973066
66.4392
69.949275
73.464811
76.950037
80.374796
83.706538
86.862696
90.125857
93.642542
97.34887
101.42052
105.91012
110.86252
116.3236
122.32043
128.7586
134.56153
140.69035
145.15428
147.96144
148.17072
146.31534
142.27175
136.90008
133.26302
134.96966
143.60824
153.00732
158.49835
156.36389
151.77799
120.69026
116.35654
113.90384
119.05851
122.95148
121.49073
110.39
105.44575
108.53631
112.98199
115.49854
116.10799
114.69512
111.9037
107.80029
103.1426
98.434756
94.176954
90.36852
86.963908
83.914338
81.180311
78.721046
76.39138
74.090195
71.706149
69.08236
66.286829
63.378282
60.453283
57.417202
54.383124
51.488161
48.853268
46.523557
44.515552
42.866537
41.594417
40.804882
40.521558
41.09146
42.320161
42.69426
42.501397
42.444787
42.388502
42.340079
42.292269
42.244466
42.192676
42.135444
42.07101
41.99882
41.917696
41.82819
41.729748
41.623185
41.508661
41.386949
41.258663
41.124673
40.98575
40.842706
40.696172
40.546858
40.39526
40.241693
40.086485
39.930762
39.775054
39.619933
39.465807
39.313153
39.162338
39.013743
38.867656
38.724359
38.584075
38.447039
38.313454
38.183511
38.057329
37.935034
37.816744
37.702552
37.592534
37.486753
37.385196
37.287881
37.195095
37.106863
37.02265
36.942532
36.866813
36.795422
36.728228
36.66529
36.606509
36.551904
36.501337
36.454783
36.412106
36.373145
36.338257
36.306582
36.278677
36.254255
36.233293
36.215686
36.201351
36.190148
36.18199
36.176834
36.174649
36.175143
36.178439
36.184333
36.192838
36.203778
36.217211
36.232972
36.251173
36.271636
36.294643
36.319886
36.347935
36.378272
36.411922
36.448083
36.488589
36.532236
36.582217
36.636723
36.701283
36.773125
36.862604
36.964628
37.138648
37.213654
37.124724
37.392674
38.005809
38.949495
40.216884
41.786379
43.659612
45.821292
48.270044
50.947367
53.729193
56.551788
59.384676
62.199983
64.974453
67.681435
70.237399
72.957033
75.90508
78.990204
82.354138
86.065236
90.155385
94.657172
99.580554
104.80676
109.3371
114.32138
117.85717
119.96289
119.8653
117.98271
114.30763
109.68537
106.76595
108.73877
117.7032
128.39477
136.29361
136.52729
133.71035
106.37006
101.60863
99.000519
104.01251
108.97665
108.48631
96.03291
87.546526
89.25757
93.032168
95.227882
95.810499
94.644124
92.339985
88.937435
85.16027
81.320105
77.847701
74.750321
71.990368
69.525614
67.322432
65.339278
63.426631
61.515794
59.564256
57.395857
55.075234
52.654696
50.208716
47.681607
45.170465
42.78546
40.616217
38.703619
37.066729
35.744133
34.755955
34.205228
34.113386
34.811717
36.001666
36.255842
35.967998
35.844279
35.723408
35.621013
35.525756
35.436568
35.348463
35.259344
35.167102
35.070703
34.968987
34.862127
34.74961
34.632018
34.509466
34.382578
34.251855
34.11802
33.98169
33.843503
33.703926
33.56348
33.422474
33.281055
33.139652
32.999053
32.859595
32.721676
32.585561
32.45157
32.319938
32.190904
32.064638
31.941302
31.821018
31.703919
31.590119
31.479724
31.372775
31.269334
31.169455
31.073179
30.980529
30.891527
30.806133
30.72432
30.646266
30.572106
30.501356
30.433946
30.370139
30.309929
30.253159
30.199884
30.150016
30.103568
30.060422
30.020556
29.983855
29.950202
29.919828
29.892114
29.867466
29.845663
29.82669
29.810462
29.796918
29.785938
29.777463
29.771451
29.767882
29.766533
29.767496
29.770599
29.775875
29.783167
29.792536
29.803845
29.8172
29.83245
29.849853
29.869145
29.890841
29.914499
29.941024
29.969751
30.002291
30.03767
30.07869
30.123933
30.178265
30.239574
30.317104
30.40702
30.562605
30.630534
30.529281
30.726522
31.211141
31.967934
32.991886
34.261878
35.780535
37.532581
39.516498
41.681375
43.933261
46.22236
48.523982
50.815971
53.079817
55.292094
57.373645
59.652516
62.129233
64.715587
67.506109
70.582757
73.970563
77.691421
81.742112
85.986477
89.510898
93.554451
96.332518
97.86087
97.537716
95.697669
92.417168
88.485793
86.111666
87.986751
96.526332
107.57063
117.10641
119.54318
118.33303
94.320816
89.370895
86.745011
91.481137
97.450963
98.390267
85.570868
73.557905
73.985806
77.249605
79.201404
79.765655
78.798388
76.880643
74.035503
70.958674
67.808704
64.961315
62.429958
60.18305
58.183339
56.402269
54.789585
53.204611
51.597397
49.980962
48.168701
46.218295
44.179194
42.111068
39.985694
37.887909
35.906543
34.107256
32.527953
31.189941
30.132404
29.376794
29.020618
29.086988
29.873688
30.988178
31.110219
30.720812
30.531794
30.351183
30.201911
30.067811
29.94666
29.832362
29.721859
29.61262
29.503012
29.391753
29.278587
29.162913
29.045018
28.924882
28.802911
28.67943
28.554962
28.429923
28.30475
28.179725
28.05517
27.931203