/*--------------------------------*- C++ -*----------------------------------*\
| =========                 |                                                 |
| \\      /  F ield         | OpenFOAM: The Open Source CFD Toolbox           |
|  \\    /   O peration     | Version:  2.4.0                                 |
|   \\  /    A nd           | Web:      www.OpenFOAM.org                      |
|    \\/     M anipulation  |                                                 |
\*---------------------------------------------------------------------------*/
FoamFile
{
    version     2.0;
    format      ascii;
    class       volVectorField;
    location    "5000";
    object      U;
}
// * * * * * * * * * * * * * * * * * * * * * * * * * * * * * * * * * * * * * //

dimensions      [0 1 -1 0 0 0 0];

internalField   nonuniform List<vector> 
9842
(
(-0.004184813 3.2513953e-07 0)
(-0.0041906128 3.1505066e-07 0)
(-0.0041937695 3.0410307e-07 0)
(-0.0041942965 2.9345716e-07 0)
(-0.0041922094 2.8220538e-07 0)
(-0.0041875501 2.7055293e-07 0)
(-0.0041803621 2.5839264e-07 0)
(-0.0041706932 2.459511e-07 0)
(-0.0041585929 2.3307085e-07 0)
(-0.0041441137 2.2002154e-07 0)
(-0.0041273104 2.06615e-07 0)
(-0.0041082403 1.9306438e-07 0)
(-0.0040869617 1.792455e-07 0)
(-0.0040635349 1.6535423e-07 0)
(-0.0040380228 1.5126478e-07 0)
(-0.0040104893 1.3716639e-07 0)
(-0.0039809991 1.2294536e-07 0)
(-0.0039496186 1.0866888e-07 3.4344259e-24)
(-0.0039164155 9.4309743e-08 -3.4344281e-24)
(-0.0038814574 8.0032527e-08 -3.5046308e-24)
(-0.0038448131 6.571297e-08 7.6923322e-17)
(-0.0038065555 5.1595779e-08 7.7668784e-17)
(-0.0037667574 3.7516927e-08 3.6099847e-24)
(-0.003725492 2.3582829e-08 -3.6099874e-24)
(-0.0036828323 9.6798266e-09 0)
(-0.0036388515 -3.9845659e-09 1.8574259e-24)
(-0.0035936226 -1.7559957e-08 1.7373475e-26)
(-0.003547218 -3.0769763e-08 -1.874804e-24)
(-0.003499709 -4.3883552e-08 0)
(-0.0034511655 -5.6706738e-08 0)
(-0.0034016594 -7.0090091e-08 0)
(-0.003351254 -8.0694903e-08 9.802465e-25)
(-0.0033000144 -9.4178939e-08 -9.8024799e-25)
(-0.0032480157 -1.0680442e-07 0)
(-0.0031953064 -1.1676882e-07 0)
(-0.0031419726 -1.2879558e-07 0)
(-0.0030880907 -1.3959248e-07 5.1087237e-25)
(-0.0030337159 -1.5086092e-07 -5.108728e-25)
(-0.0029788877 -1.6001256e-07 0)
(-0.0029236839 -1.706095e-07 0)
(-0.0028681586 -1.8027615e-07 0)
(-0.0028123686 -1.8948253e-07 0)
(-0.0027563707 -1.9862271e-07 -2.1384311e-24)
(-0.0027002155 -2.0727486e-07 2.138435e-24)
(-0.0026439533 -2.1552853e-07 0)
(-0.0025876361 -2.2364601e-07 4.3674434e-24)
(-0.0025313105 -2.3123368e-07 -4.3674474e-24)
(-0.002475022 -2.3867756e-07 4.4261033e-24)
(-0.0024188163 -2.4559726e-07 -4.4261096e-24)
(-0.0023627343 -2.5226324e-07 -4.4833433e-24)
(-0.0023068201 -2.5867191e-07 4.4833495e-24)
(-0.0022511131 -2.6465387e-07 4.5391412e-24)
(-0.0021956557 -2.7041694e-07 2.7346152e-26)
(-0.0021404812 -2.758716e-07 -4.5664996e-24)
(-0.0020856278 -2.8092316e-07 0)
(-0.0020311321 -2.8572483e-07 0)
(-0.0019770274 -2.9023064e-07 0)
(-0.0019233471 -2.9439975e-07 1.0228197e-16)
(-0.0018701188 -2.9838584e-07 4.8704233e-20)
(-0.0018173751 -3.0211736e-07 -1.0342905e-16)
(-0.012582602 2.3217463e-07 0)
(-0.012598284 1.5631406e-07 8.929878e-24)
(-0.01260605 8.003273e-08 -8.9298776e-24)
(-0.012605941 6.7151446e-09 9.1214172e-24)
(-0.012598006 -6.6275961e-08 -9.1214175e-24)
(-0.012582372 -1.3812104e-07 9.318437e-24)
(-0.012559172 -2.0902093e-07 -9.3184428e-24)
(-0.012528552 -2.7849417e-07 0)
(-0.012490661 -3.4700726e-07 0)
(-0.012445658 -4.1367259e-07 9.7261608e-24)
(-0.012393709 -4.7892012e-07 -9.7261707e-24)
(-0.012334987 -5.4236527e-07 9.9354755e-24)
(-0.012269668 -6.0452683e-07 1.0569825e-25)
(-0.012197933 -6.6462379e-07 -1.0041215e-23)
(-0.012119972 -7.2316128e-07 -5.1271706e-24)
(-0.012035978 -7.7980371e-07 5.1271897e-24)
(-0.011946145 -8.3486402e-07 0)
(-0.011850672 -8.8783036e-07 5.2885491e-24)
(-0.011749763 -9.3910147e-07 5.4019738e-26)
(-0.011643621 -9.8825398e-07 -5.3426067e-24)
(-0.011532453 -1.0358058e-06 0)
(-0.011416478 -1.0810014e-06 0)
(-0.011295912 -1.1245182e-06 0)
(-0.011170977 -1.1657201e-06 0)
(-0.011041891 -1.2049676e-06 2.8334008e-24)
(-0.010908872 -1.2419235e-06 -5.6936692e-24)
(-0.010772139 -1.2770424e-06 -2.675319e-26)
(-0.010631909 -1.3099702e-06 -2.6649484e-26)
(-0.010488396 -1.3410832e-06 5.8539346e-24)
(-0.010341808 -1.3700412e-06 -2.9402506e-24)
(-0.01019236 -1.3996774e-06 1.4964623e-24)
(-0.010040242 -1.4195304e-06 -1.4964701e-24)
(-0.0098856489 -1.4471201e-06 7.6124856e-25)
(-0.0097288044 -1.4710412e-06 -7.612532e-25)
(-0.0095698539 -1.4858544e-06 0)
(-0.009409055 -1.5056411e-06 -3.9021761e-25)
(-0.0092466357 -1.5208886e-06 -3.9651051e-25)
(-0.0090827618 -1.5374235e-06 7.8673495e-25)
(-0.0089175498 -1.5462615e-06 -1.5983133e-24)
(-0.0087512322 -1.5588634e-06 1.5983236e-24)
(-0.0085839718 -1.568338e-06 -3.2454129e-24)
(-0.0084159375 -1.5755207e-06 3.2454309e-24)
(-0.0082472987 -1.5819696e-06 3.2932239e-24)
(-0.0080782068 -1.5865923e-06 2.350592e-26)
(-0.0079088127 -1.5893818e-06 -3.31677e-24)
(-0.0077392706 -1.5914787e-06 -6.7260433e-24)
(-0.0075697206 -1.5916138e-06 6.7260831e-24)
(-0.0074002982 -1.590963e-06 6.8164494e-24)
(-0.00723114 -1.5886967e-06 -1.3677328e-23)
(-0.0070623684 -1.5854107e-06 -4.3792293e-26)
(-0.0068941154 -1.580994e-06 -4.3236456e-26)
(-0.0067264983 -1.5750141e-06 6.9479931e-24)
(-0.0065596438 -1.5683005e-06 0)
(-0.0063936518 -1.5603046e-06 0)
(-0.0062286365 -1.5513404e-06 0)
(-0.0060647071 -1.5415723e-06 0)
(-0.005901963 -1.530532e-06 0)
(-0.005740504 -1.5185124e-06 0)
(-0.0055804132 -1.5060948e-06 0)
(-0.0054217876 -1.492774e-06 -1.4624236e-23)
(-0.02110086 7.8620956e-07 8.932297e-24)
(-0.021138174 5.4853218e-07 -9.1201761e-24)
(-0.021162034 3.2272709e-07 1.8336849e-23)
(-0.021172641 9.7276603e-08 -9.2166783e-24)
(-0.021170061 -1.2226115e-07 -9.4143651e-24)
(-0.021154378 -3.4007028e-07 9.4143647e-24)
(-0.021125814 -5.5417068e-07 0)
(-0.021084591 -7.6484966e-07 -9.7212838e-24)
(-0.021030958 -9.7110077e-07 9.7212983e-24)
(-0.020965167 -1.1736105e-06 0)
(-0.020887486 -1.3711775e-06 0)
(-0.020798196 -1.5643562e-06 0)
(-0.020697587 -1.7519784e-06 0)
(-0.020585957 -1.9348465e-06 1.0363737e-23)
(-0.02046361 -2.1121295e-06 -2.0837255e-23)
(-0.020330867 -2.2844914e-06 1.0473534e-23)
(-0.020188049 -2.4509612e-06 -1.0694501e-23)
(-0.020035486 -2.6123471e-06 1.0694553e-23)
(-0.019873511 -2.7675734e-06 0)
(-0.019702465 -2.9175755e-06 0)
(-0.019522691 -3.0615522e-06 0)
(-0.019334535 -3.1998455e-06 0)
(-0.019138364 -3.3315537e-06 0)
(-0.018934542 -3.4574414e-06 0)
(-0.018723438 -3.5768169e-06 5.7933978e-24)
(-0.018505417 -3.6905447e-06 -5.7934476e-24)
(-0.018280847 -3.7975718e-06 -2.9522341e-24)
(-0.018050093 -3.8988124e-06 -2.7613202e-26)
(-0.017813517 -3.9936345e-06 2.9799008e-24)
(-0.017571478 -4.082793e-06 -3.0348183e-24)
(-0.017324324 -4.1655024e-06 -2.7249964e-26)
(-0.017072414 -4.247028e-06 3.0621282e-24)
(-0.016816066 -4.3099191e-06 0)
(-0.016555608 -4.3832782e-06 -7.8575047e-25)
(-0.01629141 -4.4481148e-06 7.8575871e-25)
(-0.016023718 -4.4951261e-06 0)
(-0.015752962 -4.5477762e-06 -4.0278272e-25)
(-0.015479523 -4.590104e-06 4.0278709e-25)
(-0.015203679 -4.6326421e-06 0)
(-0.014925622 -4.6605002e-06 -1.6498023e-24)
(-0.014645742 -4.6922608e-06 1.649821e-24)
(-0.014364311 -4.7165505e-06 3.3499947e-24)
(-0.014081611 -4.7349276e-06 -3.3500297e-24)
(-0.013797925 -4.7503194e-06 0)
(-0.013513506 -4.7607799e-06 0)
(-0.013228605 -4.7663183e-06 0)
(-0.012943482 -4.7689221e-06 -6.942956e-24)
(-0.012658369 -4.7666419e-06 6.9430316e-24)
(-0.012373493 -4.7613243e-06 0)
(-0.012089083 -4.7515212e-06 0)
(-0.011805343 -4.7386743e-06 0)
(-0.011522493 -4.7223498e-06 0)
(-0.01124073 -4.7021379e-06 0)
(-0.010960265 -4.6792353e-06 0)
(-0.010681266 -4.6528548e-06 0)
(-0.010403924 -4.6235691e-06 0)
(-0.01012842 -4.5915448e-06 1.4774111e-23)
(-0.0098549208 -4.5564459e-06 -1.4774264e-23)
(-0.0095835937 -4.5184964e-06 0)
(-0.0093145776 -4.4786644e-06 -1.5017948e-23)
(-0.0090480343 -4.4364604e-06 1.5018097e-23)
(-0.029799731 1.5571307e-06 0)
(-0.02984883 1.0740899e-06 0)
(-0.029878986 6.1183687e-07 0)
(-0.029890493 1.515088e-07 0)
(-0.029883436 -2.9953725e-07 0)
(-0.029857941 -7.4639539e-07 0)
(-0.029814328 -1.1856445e-06 0)
(-0.029752918 -1.6175492e-06 0)
(-0.02967406 -2.0405596e-06 0)
(-0.029578116 -2.4554405e-06 0)
(-0.029465465 -2.86012e-06 0)
(-0.029336505 -3.2555701e-06 0)
(-0.029191648 -3.6402704e-06 -1.0583316e-23)
(-0.029031314 -4.0150434e-06 1.0583373e-23)
(-0.028855938 -4.3784142e-06 0)
(-0.028665968 -4.7312329e-06 0)
(-0.028461862 -5.0722469e-06 0)
(-0.028244083 -5.402621e-06 0)
(-0.028013103 -5.7209618e-06 0)
(-0.027769404 -6.027923e-06 0)
(-0.027513469 -6.3224677e-06 0)
(-0.027245784 -6.6054416e-06 0)
(-0.026966869 -6.8752868e-06 0)
(-0.026677236 -7.1329912e-06 0)
(-0.026377403 -7.3773306e-06 0)
(-0.026067887 -7.6097045e-06 0)
(-0.025749202 -7.8289456e-06 0)
(-0.025421863 -8.0360428e-06 0)
(-0.02508638 -8.230208e-06 3.1039583e-24)
(-0.024743255 -8.4125466e-06 -3.1039992e-24)
(-0.024392981 -8.5821018e-06 -3.1604339e-24)
(-0.024036061 -8.746087e-06 4.7547058e-24)
(-0.02367294 -8.8808006e-06 -1.5942488e-24)
(-0.023304085 -9.0260991e-06 8.1099553e-25)
(-0.022930008 -9.1559856e-06 -8.1100822e-25)
(-0.02255106 -9.2576517e-06 0)
(-0.022167842 -9.3621501e-06 0)
(-0.021780893 -9.4489441e-06 -8.3817499e-25)
(-0.021390601 -9.533618e-06 8.3818824e-25)
(-0.020997235 -9.5946365e-06 -1.7028616e-24)
(-0.020601344 -9.6573327e-06 1.7028903e-24)
(-0.020203309 -9.7066e-06 0)
(-0.019803526 -9.7443535e-06 0)
(-0.019402392 -9.7751373e-06 0)
(-0.019000262 -9.796213e-06 7.0677793e-24)
(-0.018597492 -9.8076333e-06 -7.067893e-24)
(-0.018194442 -9.8124147e-06 0)
(-0.01779144 -9.8075505e-06 0)
(-0.017388806 -9.7960107e-06 0)
(-0.016986859 -9.7759949e-06 0)
(-0.016585888 -9.7494099e-06 0)
(-0.016186202 -9.7156408e-06 0)
(-0.015788077 -9.6738988e-06 0)
(-0.015391808 -9.6265715e-06 0)
(-0.014997633 -9.5725872e-06 0)
(-0.014605819 -9.5122547e-06 0)
(-0.014216622 -9.4461591e-06 0)
(-0.013830275 -9.3738622e-06 0)
(-0.013447013 -9.2960199e-06 -1.5419905e-23)
(-0.013067033 -9.2141128e-06 1.5420157e-23)
(-0.01269056 -9.1271831e-06 0)
(-0.038568639 3.344031e-06 0)
(-0.038652312 2.5621212e-06 0)
(-0.038711186 1.7440737e-06 0)
(-0.03874557 9.5448115e-07 0)
(-0.038755854 1.6929589e-07 0)
(-0.038742129 -6.028069e-07 0)
(-0.038704582 -1.3671337e-06 0)
(-0.038643634 -2.1181943e-06 -1.0243192e-23)
(-0.038559706 -2.8562501e-06 1.02432e-23)
(-0.038453255 -3.5791589e-06 0)
(-0.038324753 -4.2877903e-06 0)
(-0.038174695 -4.9793346e-06 0)
(-0.038003599 -5.6545675e-06 -1.0806054e-23)
(-0.037812001 -6.3115507e-06 1.0806126e-23)
(-0.037600447 -6.9515022e-06 0)
(-0.037369503 -7.5720975e-06 0)
(-0.037119751 -8.1743119e-06 0)
(-0.036851784 -8.7568458e-06 0)
(-0.036566205 -9.3206836e-06 1.1508595e-23)
(-0.036263625 -9.8638661e-06 -1.1508727e-23)
(-0.035944667 -1.0387543e-05 0)
(-0.035609959 -1.089034e-05 0)
(-0.035260131 -1.1372918e-05 5.9921615e-24)
(-0.034895853 -1.1833096e-05 -5.9922502e-24)
(-0.03451779 -1.22724e-05 6.111193e-24)
(-0.034126612 -1.268937e-05 -6.11129e-24)
(-0.033722983 -1.3085477e-05 0)
(-0.033307572 -1.3459196e-05 0)
(-0.032881041 -1.3812061e-05 0)
(-0.03244405 -1.4143056e-05 0)
(-0.031997248 -1.4453862e-05 0)
(-0.03154127 -1.4743133e-05 0)
(-0.031076764 -1.5019721e-05 0)
(-0.030604308 -1.5254912e-05 0)
(-0.030124505 -1.5497783e-05 0)
(-0.02963801 -1.5716541e-05 0)
(-0.029145281 -1.589493e-05 0)
(-0.028647092 -1.6070149e-05 0)
(-0.028144138 -1.6218115e-05 0)
(-0.027636922 -1.6359753e-05 0)
(-0.027125785 -1.6467129e-05 0)
(-0.02661144 -1.657109e-05 -3.5419826e-24)
(-0.026094374 -1.6654306e-05 7.1107981e-24)
(-0.0255751 -1.6718702e-05 2.6401712e-26)
(-0.02505413 -1.6770237e-05 -3.5953028e-24)
(-0.024531922 -1.6805474e-05 7.2947316e-24)
(-0.024008933 -1.6824507e-05 -7.294898e-24)
(-0.023485628 -1.6831408e-05 7.3967503e-24)
(-0.022962432 -1.6822665e-05 -1.4843808e-23)
(-0.022439756 -1.6802103e-05 7.4470622e-24)
(-0.02191801 -1.6767364e-05 0)
(-0.02139757 -1.6720998e-05 0)
(-0.020878832 -1.6662457e-05 0)
(-0.020362153 -1.6590866e-05 1.5377132e-23)
(-0.019847913 -1.6509199e-05 -3.0847636e-23)
(-0.019336421 -1.6416182e-05 1.5470502e-23)
(-0.018828019 -1.6312547e-05 0)
(-0.018323039 -1.6199025e-05 0)
(-0.017821781 -1.6075033e-05 0)
(-0.017324548 -1.5941566e-05 0)
(-0.016831594 -1.5800634e-05 1.6002101e-23)
(-0.01634321 -1.565106e-05 -1.6002453e-23)
(-0.047557623 4.9867908e-06 0)
(-0.047654531 3.7728175e-06 0)
(-0.04772096 2.5223237e-06 2.0044877e-23)
(-0.047757301 1.3083459e-06 -2.0044856e-23)
(-0.047764043 1.021382e-07 -2.0472536e-23)
(-0.047741265 -1.0863917e-06 1.0126777e-23)
(-0.047689237 -2.2619773e-06 -1.1099308e-25)
(-0.047608487 -3.4170646e-06 1.0456588e-23)
(-0.047499539 -4.5516127e-06 0)
(-0.04736296 -5.6627659e-06 0)
(-0.047199336 -6.7514464e-06 -1.091415e-23)
(-0.047009282 -7.8139601e-06 -1.1727946e-25)
(-0.046793439 -8.8511407e-06 1.1031508e-23)
(-0.046552469 -9.8604957e-06 0)
(-0.046287049 -1.0842914e-05 1.1388898e-23)
(-0.045997876 -1.1795925e-05 -2.2898541e-23)
(-0.04568567 -1.2720657e-05 -1.2112962e-25)
(-0.045351164 -1.3614943e-05 1.1630945e-23)
(-0.044995098 -1.4480078e-05 0)
(-0.044618227 -1.5313634e-05 1.1997203e-23)
(-0.044221318 -1.6116944e-05 -2.4117305e-23)
(-0.043805144 -1.6888379e-05 5.9987238e-24)
(-0.043370483 -1.7628347e-05 6.1215009e-24)
(-0.042918157 -1.8334133e-05 0)
(-0.042448982 -1.900759e-05 0)
(-0.041963784 -1.9646983e-05 0)
(-0.041463378 -2.0253916e-05 -6.4282512e-24)
(-0.040948584 -2.0826692e-05 6.4283917e-24)
(-0.040420217 -2.136731e-05 -6.5501368e-24)
(-0.039879084 -2.1874529e-05 9.8556648e-24)
(-0.039325983 -2.2350184e-05 -3.3054544e-24)
(-0.038761693 -2.2792921e-05 -3.3655876e-24)
(-0.03818701 -2.3213896e-05 3.3656747e-24)
(-0.037602641 -2.3579734e-05 0)
(-0.037009331 -2.3946959e-05 1.7273397e-24)
(-0.036407872 -2.4278758e-05 -2.5983879e-24)
(-0.035798836 -2.4556206e-05 8.7102391e-25)
(-0.035183166 -2.4821287e-05 8.8549682e-25)
(-0.03456172 -2.5047081e-05 -2.6708432e-24)
(-0.033935111 -2.5260575e-05 1.7853723e-24)
(-0.033303753 -2.5428312e-05 0)
(-0.032668523 -2.5584604e-05 3.6551092e-24)
(-0.032030018 -2.5710524e-05 -3.6552215e-24)
(-0.031388866 -2.5808118e-05 -3.7100996e-24)
(-0.030745693 -2.5885086e-05 1.1184579e-23)
(-0.030101061 -2.5937652e-05 -7.474599e-24)
(-0.029455532 -2.5965734e-05 7.5809412e-24)
(-0.028809674 -2.5974409e-05 -7.5811836e-24)
(-0.028164006 -2.5959632e-05 0)
(-0.027519034 -2.592645e-05 -7.7363422e-24)
(-0.026875261 -2.5871751e-05 7.7365889e-24)
(-0.026233146 -2.5798895e-05 7.836868e-24)
(-0.025593176 -2.5707414e-05 7.935267e-24)
(-0.024955788 -2.5596102e-05 -3.1642658e-23)
(-0.024321447 -2.5468948e-05 1.5870277e-23)
(-0.023690533 -2.5324612e-05 0)
(-0.023063467 -2.516387e-05 1.6154294e-23)
(-0.022440652 -2.498775e-05 9.1767972e-26)
(-0.02182246 -2.4795899e-05 -3.2584603e-23)
(-0.021209258 -2.4589441e-05 1.6338064e-23)
(-0.020601361 -2.4371156e-05 0)
(-0.019999126 -2.4139798e-05 1.6602856e-23)
(-0.056693314 6.9245778e-06 2.0252268e-23)
(-0.056801065 5.169696e-06 -2.0252099e-23)
(-0.056872603 3.3818373e-06 2.0677933e-23)
(-0.05690841 1.6398075e-06 -4.1574468e-23)
(-0.05690908 -9.0350673e-08 4.20155e-23)
(-0.056874646 -1.7977075e-06 2.2578642e-25)
(-0.056805506 -3.4851585e-06 2.2898812e-25)
(-0.056702291 -5.1426817e-06 -1.0670576e-23)
(-0.056565633 -6.770143e-06 -1.0902511e-23)
(-0.056396214 -8.3640682e-06 -1.1138559e-23)
(-0.056194736 -9.9249533e-06 1.1138558e-23)
(-0.055961936 -1.1448455e-05 0)
(-0.055698582 -1.2935131e-05 0)
(-0.055405467 -1.4381745e-05 0)
(-0.055083398 -1.578974e-05 0)
(-0.054733209 -1.7155607e-05 -1.1872522e-23)
(-0.05435576 -1.8480136e-05 1.1872652e-23)
(-0.053951923 -1.9761149e-05 -1.2123206e-23)
(-0.053522582 -2.0999845e-05 2.4372592e-23)
(-0.053068635 -2.2193688e-05 -1.2249417e-23)
(-0.052590998 -2.3343728e-05 0)
(-0.052090587 -2.4447875e-05 0)
(-0.051568331 -2.5506582e-05 -6.3779111e-24)
(-0.051025207 -2.6516549e-05 6.3780514e-24)
(-0.050462185 -2.7479822e-05 0)
(-0.049880244 -2.8394212e-05 -6.5679836e-24)
(-0.049280353 -2.9261991e-05 6.5681562e-24)
(-0.048663484 -3.0081016e-05 0)
(-0.048030605 -3.0853587e-05 6.756947e-24)
(-0.047382673 -3.1578453e-05 -6.7571431e-24)
(-0.046720635 -3.2258032e-05 3.4409063e-24)
(-0.046045415 -3.2890845e-05 -3.4410176e-24)
(-0.045357953 -3.3489407e-05 0)
(-0.044659093 -3.4016871e-05 0)
(-0.043949718 -3.4536513e-05 1.7819467e-24)
(-0.043230758 -3.5007512e-05 -1.7820104e-24)
(-0.042502901 -3.5408006e-05 0)
(-0.041767257 -3.5782888e-05 0)
(-0.041024849 -3.6104496e-05 -1.8418185e-24)
(-0.040276402 -3.6406154e-05 3.6983764e-24)
(-0.0395224 -3.6647823e-05 -1.8565598e-24)
(-0.038763886 -3.6867368e-05 0)
(-0.038001566 -3.7045405e-05 -3.7994212e-24)
(-0.037236184 -3.7183499e-05 3.7995719e-24)
(-0.036468479 -3.7291103e-05 0)
(-0.03569912 -3.7363898e-05 0)
(-0.03492877 -3.7402011e-05 0)
(-0.034158103 -3.7411808e-05 -7.8755692e-24)
(-0.033387733 -3.7388557e-05 7.8758957e-24)
(-0.03261826 -3.7338146e-05 0)
(-0.031850279 -3.7257584e-05 8.034253e-24)
(-0.031084336 -3.7150769e-05 -8.0345909e-24)
(-0.030321004 -3.70171e-05 1.62737e-23)
(-0.029560804 -3.6855369e-05 9.9960747e-26)
(-0.028804286 -3.6670804e-05 -1.6375043e-23)
(-0.028051901 -3.6461781e-05 1.6571719e-23)
(-0.027304147 -3.6228892e-05 9.6011158e-26)
(-0.026561502 -3.5973872e-05 -1.6669128e-23)
(-0.025824405 -3.5696538e-05 0)
(-0.025093294 -3.5398559e-05 -1.695064e-23)
(-0.024368542 -3.5083269e-05 -9.0728717e-26)
(-0.02365057 -3.4748858e-05 3.4174947e-23)
(-0.06581006 1.1636827e-05 0)
(-0.065968826 9.1344777e-06 0)
(-0.066084758 6.7233086e-06 2.1101184e-23)
(-0.066158701 4.2858189e-06 -2.1100857e-23)
(-0.066191236 1.9048802e-06 0)
(-0.066183053 -4.5956937e-07 0)
(-0.06613413 -2.795044e-06 2.2009192e-23)
(-0.066045023 -5.1012328e-06 -4.4253626e-23)
(-0.065916466 -7.3662792e-06 4.4728189e-23)
(-0.065749205 -9.5894799e-06 -2.248338e-23)
(-0.065544038 -1.1766492e-05 0)
(-0.06530179 -1.3897681e-05 0)
(-0.065023322 -1.597782e-05 0)
(-0.064709532 -1.8007032e-05 0)
(-0.064361344 -1.9981729e-05 0)
(-0.063979704 -2.1902825e-05 0)
(-0.063565581 -2.3766331e-05 1.224134e-23)
(-0.063119978 -2.5573201e-05 -1.2241439e-23)
(-0.062643909 -2.7320562e-05 1.2499743e-23)
(-0.062138404 -2.9009846e-05 1.29765e-25)
(-0.061604507 -3.063756e-05 -1.2629843e-23)
(-0.06104328 -3.2205037e-05 1.2890475e-23)
(-0.06045579 -3.3710009e-05 -1.2890727e-23)
(-0.059843117 -3.5152513e-05 0)
(-0.059206392 -3.6528691e-05 -6.6413975e-24)
(-0.058546741 -3.7840542e-05 1.3348324e-23)
(-0.057865296 -3.9085841e-05 -6.7069397e-24)
(-0.057163184 -4.0267202e-05 0)
(-0.056441528 -4.1382455e-05 -6.9021576e-24)
(-0.055701449 -4.2433846e-05 6.9023956e-24)
(-0.054944055 -4.3420255e-05 7.0314997e-24)
(-0.054170441 -4.4344777e-05 -3.4838656e-24)
(-0.053381679 -4.5205361e-05 -3.5480295e-24)
(-0.052578853 -4.6016526e-05 0)
(-0.051762942 -4.6738725e-05 0)
(-0.050934971 -4.744038e-05 1.8374057e-24)
(-0.050096005 -4.8077756e-05 -1.8374878e-24)
(-0.049246847 -4.8626141e-05 0)
(-0.048388777 -4.9131978e-05 -9.4196865e-25)
(-0.047522982 -4.9567792e-05 9.4201383e-25)
(-0.046650302 -4.9973843e-05 0)
(-0.045771286 -5.0304197e-05 -3.8587477e-24)
(-0.044887145 -5.0598545e-05 3.8589443e-24)
(-0.043998692 -5.0837862e-05 0)
(-0.04310679 -5.1023212e-05 0)
(-0.042212291 -5.1166442e-05 0)
(-0.041315968 -5.1262606e-05 -8.0093284e-24)
(-0.040418588 -5.1311631e-05 -5.6135951e-26)
(-0.039520928 -5.1321244e-05 8.0663302e-24)
(-0.038623699 -5.1286424e-05 -8.1771348e-24)
(-0.037727595 -5.1214199e-05 1.6409385e-23)
(-0.036833303 -5.1101057e-05 -8.2322534e-24)
(-0.035941454 -5.0951969e-05 0)
(-0.035052711 -5.0766106e-05 0)
(-0.034167677 -5.0542246e-05 -1.6887718e-23)
(-0.033286986 -5.0286719e-05 3.3879088e-23)
(-0.03241116 -4.999801e-05 -3.4083127e-23)
(-0.031540777 -4.9677007e-05 3.4284486e-23)
(-0.030676388 -4.9325537e-05 -1.719271e-23)
(-0.029818501 -4.8943902e-05 0)
(-0.028967621 -4.853383e-05 0)
(-0.028124182 -4.8099802e-05 -1.7578126e-23)
(-0.027288671 -4.7639919e-05 1.7579095e-23)
(-0.075204679 1.487987e-05 0)
(-0.075374579 1.1584155e-05 -2.15216e-23)
(-0.07549572 8.3938894e-06 -2.2418914e-25)
(-0.075569064 5.1871256e-06 4.3716807e-23)
(-0.075595302 2.0492063e-06 -2.1971927e-23)
(-0.075575197 -1.0669829e-06 0)
(-0.075508685 -4.1470942e-06 2.2678788e-23)
(-0.075396496 -7.1859282e-06 -2.2677871e-23)
(-0.075239477 -1.0169894e-05 0)
(-0.075038489 -1.3097873e-05 -2.3415465e-23)
(-0.074794452 -1.5964686e-05 -2.5217674e-25)
(-0.074508314 -1.8770244e-05 4.7587541e-23)
(-0.074181067 -2.1508171e-05 -3.6009439e-23)
(-0.073813739 -2.4178686e-05 -1.2956479e-25)
(-0.073407393 -2.6777267e-05 1.2218032e-23)
(-0.072963109 -2.9304446e-05 0)
(-0.072481999 -3.1755913e-05 0)
(-0.071965209 -3.4132029e-05 0)
(-0.071413899 -3.6429791e-05 0)
(-0.070829244 -3.8650322e-05 0)
(-0.070212438 -4.0789867e-05 -1.3145705e-23)
(-0.069564691 -4.2849759e-05 1.3145873e-23)
(-0.068887222 -4.4827268e-05 0)
(-0.06818126 -4.672192e-05 0)
(-0.067448095 -4.8529172e-05 0)
(-0.066689007 -5.0251646e-05 -6.9094426e-24)
(-0.065905286 -5.1886853e-05 6.9096423e-24)
(-0.065098211 -5.3437441e-05 0)
(-0.064269062 -5.4900834e-05 7.1107953e-24)
(-0.06341911 -5.6280109e-05 -7.11107e-24)
(-0.062549615 -5.7574168e-05 7.2441126e-24)
(-0.06166182 -5.8786101e-05 -7.2444198e-24)
(-0.060756944 -5.9914242e-05 3.6881768e-24)
(-0.059836217 -6.0974882e-05 -3.6883537e-24)
(-0.058900752 -6.1926119e-05 0)
(-0.057951716 -6.2840993e-05 1.8930355e-24)
(-0.056990306 -6.3672835e-05 -1.8931394e-24)
(-0.056017445 -6.4394578e-05 0)
(-0.055034577 -6.5053274e-05 0)
(-0.054043058 -6.5622373e-05 0)
(-0.05304384 -6.6149904e-05 0)
(-0.052037535 -6.6583921e-05 0)
(-0.051025523 -6.6964975e-05 -4.0065798e-24)
(-0.050008726 -6.7275079e-05 4.0068443e-24)
(-0.048988121 -6.7514975e-05 0)
(-0.047964675 -6.7698319e-05 8.1939751e-24)
(-0.046939264 -6.7820108e-05 -1.6447584e-23)
(-0.045912759 -6.7880397e-05 8.253611e-24)
(-0.044886041 -6.7888306e-05 8.369246e-24)
(-0.043859916 -6.7838265e-05 5.6531728e-26)
(-0.042835171 -6.7738403e-05 -8.426998e-24)
(-0.041812586 -6.7585171e-05 1.7077343e-23)
(-0.040792878 -6.7384115e-05 1.0900627e-25)
(-0.039776798 -6.7134898e-05 -3.4485443e-23)
(-0.038765031 -6.6836133e-05 1.729784e-23)
(-0.037758295 -6.6495382e-05 0)
(-0.036757186 -6.6110982e-05 1.7615052e-23)
(-0.035762357 -6.5683912e-05 -3.5334873e-23)
(-0.034774434 -6.5216654e-05 1.7719808e-23)
(-0.033793995 -6.4709874e-05 0)
(-0.03282161 -6.4165969e-05 0)
(-0.031857777 -6.3590028e-05 0)
(-0.030903046 -6.2980014e-05 0)
(-0.084719313 1.8451398e-05 -4.36408e-23)
(-0.08489702 1.4231046e-05 2.1929298e-23)
(-0.085020019 1.013115e-05 0)
(-0.085089401 6.0279277e-06 -2.2618071e-23)
(-0.085105974 2.0075428e-06 -2.3927988e-25)
(-0.085070532 -1.9856709e-06 2.285408e-23)
(-0.084983009 -5.9340093e-06 -2.3342254e-23)
(-0.084844323 -9.825861e-06 4.6931255e-23)
(-0.084655437 -1.3646788e-05 -2.358912e-23)
(-0.084417333 -1.7394958e-05 0)
(-0.084131054 -2.1064294e-05 2.4355934e-23)
(-0.083797679 -2.4654025e-05 -4.8971344e-23)
(-0.083418329 -2.8157163e-05 -2.6448731e-25)
(-0.082994171 -3.1572871e-05 2.4878899e-23)
(-0.082526403 -3.4896056e-05 -1.27066e-23)
(-0.082016247 -3.8127449e-05 1.2706198e-23)
(-0.081464959 -4.1261489e-05 -1.2976916e-23)
(-0.080873829 -4.4298608e-05 1.2976655e-23)
(-0.080244165 -4.7235164e-05 0)
(-0.07957729 -5.0072265e-05 -1.3387541e-23)
(-0.078874546 -5.2805634e-05 -1.3788981e-25)
(-0.078137295 -5.5436259e-05 1.3525386e-23)
(-0.077366907 -5.7961468e-05 0)
(-0.076564765 -6.0380189e-05 0)
(-0.075732313 -6.268729e-05 0)
(-0.074870991 -6.4885349e-05 0)
(-0.073982242 -6.6971709e-05 0)
(-0.0730675 -6.8949216e-05 -7.2469158e-24)
(-0.072128197 -7.0815526e-05 -6.8647534e-26)
(-0.07116576 -7.2574039e-05 7.3161094e-24)
(-0.070181597 -7.4223523e-05 0)
(-0.0691771 -7.5767918e-05 0)
(-0.068153633 -7.7205435e-05 0)
(-0.067112571 -7.8553562e-05 0)
(-0.066055164 -7.9769298e-05 1.9309881e-24)
(-0.064982717 -8.09293e-05 -1.9311094e-24)
(-0.063896557 -8.1984938e-05 0)
(-0.062797729 -8.2906824e-05 0)
(-0.061687838 -8.3740795e-05 -9.9858191e-25)
(-0.060568408 -8.4462598e-05 9.9865717e-25)
(-0.059440505 -8.5129243e-05 0)
(-0.058304801 -8.5681893e-05 0)
(-0.057162844 -8.6161014e-05 0)
(-0.056015661 -8.6551381e-05 0)
(-0.054864348 -8.685261e-05 0)
(-0.053709983 -8.7080791e-05 0)
(-0.052553543 -8.7230581e-05 0)
(-0.051396006 -8.7302046e-05 0)
(-0.050238352 -8.7305623e-05 0)
(-0.049081483 -8.7235704e-05 0)
(-0.04792628 -8.710184e-05 1.746057e-23)
(-0.046773613 -8.6900107e-05 1.1359326e-25)
(-0.045624287 -8.6637028e-05 1.121908e-25)
(-0.044479137 -8.6312203e-05 -1.7691665e-23)
(-0.043338933 -8.5924217e-05 0)
(-0.042204474 -8.5482059e-05 1.802342e-23)
(-0.041076431 -8.4984429e-05 -1.8025306e-23)
(-0.039955533 -8.4432356e-05 0)
(-0.038842478 -8.382853e-05 -1.8344308e-23)
(-0.037737914 -8.3174331e-05 1.8346253e-23)
(-0.036642479 -8.2472618e-05 -1.855115e-23)
(-0.035556731 -8.1729645e-05 -9.9301129e-26)
(-0.034481284 -8.0942826e-05 5.6159038e-23)
(-0.09409219 2.7619729e-05 0)
(-0.094335168 2.230456e-05 2.2541832e-23)
(-0.094516857 1.7019871e-05 -2.2538359e-23)
(-0.094637895 1.1872372e-05 0)
(-0.0946995 6.7380008e-06 0)
(-0.094702614 1.7017489e-06 -2.3485893e-23)
(-0.094647995 -3.301191e-06 2.3482418e-23)
(-0.094535649 -8.2483034e-06 0)
(-0.094366687 -1.3120552e-05 -2.4236201e-23)
(-0.09414219 -1.7903053e-05 2.423295e-23)
(-0.093863265 -2.259307e-05 0)
(-0.093531085 -2.7183604e-05 0)
(-0.093146859 -3.167335e-05 0)
(-0.092711847 -3.605392e-05 0)
(-0.09222735 -4.0324217e-05 0)
(-0.091694709 -4.4478676e-05 0)
(-0.09111529 -4.8516968e-05 1.3187119e-23)
(-0.090490492 -5.24333e-05 1.395596e-25)
(-0.089821754 -5.6227486e-05 -1.3325052e-23)
(-0.089110531 -5.9895497e-05 1.3605404e-23)
(-0.088358296 -6.3438173e-05 1.4122757e-25)
(-0.087566541 -6.6851031e-05 -1.374563e-23)
(-0.08673678 -7.0134865e-05 0)
(-0.085870532 -7.3286161e-05 0)
(-0.084969337 -7.6303746e-05 0)
(-0.084034794 -7.9181854e-05 0)
(-0.083068497 -8.1922998e-05 0)
(-0.082072046 -8.4524475e-05 0)
(-0.081047028 -8.6989685e-05 0)
(-0.079995029 -8.9316001e-05 0)
(-0.078917625 -9.1506875e-05 0)
(-0.077816374 -9.3561619e-05 0)
(-0.076692813 -9.5484596e-05 0)
(-0.075548453 -9.7274159e-05 -3.8955981e-24)
(-0.074384812 -9.8949793e-05 3.8958378e-24)
(-0.073203274 -0.00010046667 0)
(-0.072005282 -0.00010190481 0)
(-0.070792291 -0.00010321472 0)
(-0.069565468 -0.00010436381 0)
(-0.06832657 -0.00010539597 0)
(-0.067077294 -0.00010629028 0)
(-0.06581882 -0.00010711376 0)
(-0.064551872 -0.00010780051 0)
(-0.063278166 -0.00010838981 0)
(-0.061998836 -0.0001088696 0)
(-0.060715092 -0.00010923874 0)
(-0.05942812 -0.00010951574 0)
(-0.058139003 -0.00010969501 0)
(-0.056848818 -0.00010977674 0)
(-0.055558645 -0.00010977305 0)
(-0.054269483 -0.00010967824 0)
(-0.052982302 -0.00010950289 0)
(-0.051698063 -0.00010924297 0)
(-0.050417658 -0.00010890614 0)
(-0.049142006 -0.00010849198 0)
(-0.047871959 -0.00010799918 0)
(-0.046608397 -0.00010743857 0)
(-0.045352066 -0.0001068086 1.862641e-23)
(-0.044103769 -0.00010611032 -1.8629178e-23)
(-0.042864276 -0.00010534738 0)
(-0.041634306 -0.0001045219 0)
(-0.04041456 -0.0001036367 3.8121068e-23)
(-0.03920566 -0.00010269942 -3.8126893e-23)
(-0.038008281 -0.00010170765 0)
(-0.10377704 3.2922859e-05 2.2658579e-23)
(-0.10402557 2.6376319e-05 2.3113633e-23)
(-0.10420679 1.9879602e-05 -4.6453028e-23)
(-0.10432145 1.3538718e-05 4.692227e-23)
(-0.1043709 7.2311246e-06 -2.3576772e-23)
(-0.10435623 1.0378748e-06 -2.4070703e-23)
(-0.10427806 -5.1153629e-06 -2.5606884e-25)
(-0.10413661 -1.1198522e-05 2.4314012e-23)
(-0.10393314 -1.7184738e-05 0)
(-0.10366888 -2.3059479e-05 -2.5092431e-23)
(-0.10334506 -2.8818948e-05 5.0443728e-23)
(-0.10296297 -3.4455178e-05 -2.5351558e-23)
(-0.10252398 -3.9966008e-05 -2.5895226e-23)
(-0.10202947 -4.5342233e-05 2.5890403e-23)
(-0.10148089 -5.0581632e-05 2.6444451e-23)
(-0.10087972 -5.5677848e-05 -2.6440246e-23)
(-0.10022748 -6.063058e-05 0)
(-0.099525705 -6.5432887e-05 0)
(-0.098775986 -7.0084156e-05 -1.378442e-23)
(-0.09797993 -7.4580246e-05 1.3782938e-23)
(-0.097139157 -7.8921439e-05 1.4070255e-23)
(-0.09625531 -8.310277e-05 -1.4069089e-23)
(-0.095330054 -8.7124879e-05 -1.4358139e-23)
(-0.094365059 -9.0984368e-05 1.4357306e-23)
(-0.093362019 -9.4678826e-05 -1.4647284e-23)
(-0.092322688 -9.8201748e-05 -1.4530118e-25)
(-0.091248814 -0.00010155618 2.9728699e-23)
(-0.090142149 -0.00010473933 1.4493561e-25)
(-0.089004433 -0.00010775456 -1.508173e-23)
(-0.087837402 -0.00011059932 0)
(-0.08664278 -0.00011327775 -7.7574358e-24)
(-0.085422273 -0.0001157891 -7.1598238e-26)
(-0.084177562 -0.00011813845 -7.1285181e-26)
(-0.082910298 -0.0001203243 3.9152032e-24)
(-0.081622143 -0.00012236745 -3.5277691e-26)
(-0.080314613 -0.00012422303 8.0790007e-24)
(-0.078989285 -0.00012597358 -6.1034816e-24)
(-0.07764774 -0.00012756833 3.0781013e-24)
(-0.076291262 -0.00012897232 -1.0319073e-24)
(-0.074921758 -0.00013022623 1.0491373e-24)
(-0.073541095 -0.00013131307 -3.1646905e-24)
(-0.072150562 -0.00013231096 6.380604e-24)
(-0.070750939 -0.00013314689 3.324242e-26)
(-0.069344102 -0.00013385797 -4.2993169e-24)
(-0.067931291 -0.00013443637 -8.7310078e-24)
(-0.066513826 -0.00013487967 1.7529251e-23)
(-0.065093 -0.00013520878 6.393502e-26)
(-0.063669997 -0.0001354186 6.3260042e-26)
(-0.062245994 -0.00013550928 -8.9284664e-24)
(-0.060822169 -0.0001354945 0)
(-0.059399612 -0.0001353683 1.8234537e-23)
(-0.057979386 -0.00013514281 1.2089577e-25)
(-0.056562537 -0.00013481423 1.1944567e-25)
(-0.055150042 -0.00013439074 -1.8485251e-23)
(-0.053742905 -0.00013387263 1.8723399e-23)
(-0.052342056 -0.00013325846 -1.872715e-23)
(-0.050948457 -0.00013256032 -1.8959547e-23)
(-0.049562926 -0.00013177722 1.8963473e-23)
(-0.04818634 -0.00013091042 1.9190062e-23)
(-0.046819539 -0.0001299641 -1.9194133e-23)
(-0.045463311 -0.00012894114 0)
(-0.044118421 -0.00012784529 -3.9050216e-23)
(-0.042785553 -0.0001266849 7.8326678e-23)
(-0.11318104 4.6600023e-05 0)
(-0.11350453 3.851963e-05 -2.3389652e-23)
(-0.11375331 3.0582551e-05 4.6995574e-23)
(-0.11392882 2.2718106e-05 -2.3606162e-23)