/*--------------------------------*- C++ -*----------------------------------*\
| =========                 |                                                 |
| \\      /  F ield         | OpenFOAM: The Open Source CFD Toolbox           |
|  \\    /   O peration     | Version:  2.4.0                                 |
|   \\  /    A nd           | Web:      www.OpenFOAM.org                      |
|    \\/     M anipulation  |                                                 |
\*---------------------------------------------------------------------------*/
FoamFile
{
    version     2.0;
    format      ascii;
    class       surfaceScalarField;
    location    "300";
    object      phi;
}
// * * * * * * * * * * * * * * * * * * * * * * * * * * * * * * * * * * * * * //

dimensions      [0 3 -1 0 0 0 0];

internalField   nonuniform List<scalar> 
39105
(
8.7615695e-07
-1.3506491e-06
-2.8197709e-07
1.158134e-06
-4.3986236e-08
-2.3799085e-07
-1.0453134e-07
6.0545101e-08
-1.9855641e-08
-8.46757e-08
-1.0354813e-07
8.369249e-08
-7.7439736e-08
-2.6108399e-08
-1.1075533e-07
3.3315587e-08
-9.8022956e-08
-1.2732368e-08
-9.9228716e-08
1.2057606e-09
-9.333037e-08
-5.8983431e-09
-8.6052625e-08
-7.2777441e-09
-8.3304292e-08
-2.748331e-09
-7.9907765e-08
-3.3965252e-09
-7.650213e-08
-3.4056319e-09
-7.00934e-08
-6.4087283e-09
-6.3667983e-08
-6.4254142e-09
-5.7809214e-08
-5.8587665e-09
-5.3822496e-08
-3.9867169e-09
-5.2270971e-08
-1.5515225e-09
-5.0924499e-08
-1.3464708e-09
-5.6278395e-08
5.3538978e-09
-7.0703773e-08
1.442538e-08
-8.8297824e-08
1.7594054e-08
-1.0307665e-07
1.4778825e-08
-1.176121e-07
1.4535459e-08
-1.2997031e-07
1.2358218e-08
-1.4201129e-07
1.2040981e-08
-1.5337553e-07
1.136425e-08
-1.6437095e-07
1.0995426e-08
-1.7407051e-07
9.6995672e-09
-1.8309741e-07
9.0269069e-09
-1.9188636e-07
8.7889566e-09
-1.9969481e-07
7.8084621e-09
-2.0835602e-07
8.6612272e-09
-2.1490472e-07
6.5487085e-09
-2.2208126e-07
7.1765542e-09
-2.2816831e-07
6.0870533e-09
-2.3672444e-07
8.5561461e-09
-2.4308808e-07
6.363642e-09
-2.4988689e-07
6.7988157e-09
-2.543346e-07
4.447706e-09
-2.6140543e-07
7.0708409e-09
-2.6530431e-07
3.8988728e-09
-2.695576e-07
4.2532885e-09
-2.719517e-07
2.3940804e-09
-2.7679032e-07
4.8386184e-09
-2.7926743e-07
2.4771051e-09
-2.8167955e-07
2.4121075e-09
-2.8347535e-07
1.7957837e-09
-2.8839102e-07
4.9156625e-09
-2.9382984e-07
5.4388137e-09
-3.0085751e-07
7.0276636e-09
-3.061541e-07
5.2965801e-09
-3.1330368e-07
7.149586e-09
-3.1654986e-07
3.2461699e-09
-3.2120064e-07
4.6507709e-09
-3.1971982e-07
-1.4808334e-09
-3.2077686e-07
1.0570396e-09
-3.1732373e-07
-3.4531442e-09
-3.1541888e-07
-1.9048683e-09
-3.1251257e-07
-2.9063162e-09
-3.1140093e-07
-1.1116534e-09
-3.1190377e-07
5.0282992e-10
-3.1135168e-07
-5.5210118e-10
-3.1252246e-07
1.1707675e-09
-3.1172441e-07
-7.9805716e-10
-3.1342325e-07
1.6988363e-09
-3.1421297e-07
7.8971235e-10
-3.1915506e-07
4.9420941e-09
-3.2581802e-07
6.6629475e-09
-3.332664e-07
7.448384e-09
-3.3331428e-07
4.7878266e-11
-3.3677091e-07
3.4566322e-09
-3.4181572e-07
5.0448148e-09
-3.4608069e-07
4.2649681e-09
-3.4783818e-07
1.7574914e-09
-3.4963876e-07
1.8005874e-09
-3.4988352e-07
2.4476382e-10
-3.4887557e-07
-1.0079575e-09
-3.4568342e-07
-3.1921483e-09
-3.4259263e-07
-3.0907962e-09
-3.4061402e-07
-1.9786049e-09
-3.3646113e-07
-4.1528997e-09
-3.3074203e-07
-5.7191009e-09
-3.2332241e-07
-7.4196293e-09
-3.16792e-07
-6.5304134e-09
-3.0757729e-07
-9.2147199e-09
-2.97385e-07
-1.0192305e-08
-2.8825833e-07
-9.1266817e-09
-2.8078808e-07
-7.4702597e-09
-2.7191697e-07
-8.8711158e-09
-2.603516e-07
-1.1565379e-08
-2.4992616e-07
-1.0425447e-08
-2.3987042e-07
-1.0055758e-08
-2.3021939e-07
-9.6510351e-09
-2.2000693e-07
-1.021247e-08
-2.1511974e-07
-4.887183e-09
-2.1558985e-07
4.7009983e-10
-2.1744706e-07
1.8572187e-09
-2.1833252e-07
8.8545734e-10
-2.1968371e-07
1.3511966e-09
-2.2694657e-07
7.2628552e-09
-2.3229679e-07
5.3502175e-09
-2.3414633e-07
1.8495426e-09
-2.2547164e-07
-8.6747043e-09
-2.1340764e-07
-1.2064101e-08
-2.0272193e-07
-1.0685796e-08
-1.913051e-07
-1.1416941e-08
-1.735432e-07
-1.7761929e-08
-1.4481595e-07
-2.8727447e-08
-1.3077233e-07
-1.4043635e-08
-1.2179079e-07
-8.9816537e-09
-1.2283075e-07
1.0400933e-09
-1.1256107e-07
-1.026981e-08
-1.1758893e-07
5.0279886e-09
-1.1711597e-07
-4.7294905e-10
-1.1653747e-07
-5.7827517e-10
-1.0118559e-07
-1.5351845e-08
-9.1549301e-08
-9.6360708e-09
-8.044709e-08
-1.1102075e-08
6.7575651e-10
1.0526542e-06
-3.5156406e-06
-6.3126605e-07
2.8420539e-06
-2.4076718e-07
-6.2848972e-07
-3.2727063e-07
1.4704855e-07
-2.0423299e-07
-2.0771332e-07
-3.3190416e-07
2.1136366e-07
-2.7842992e-07
-7.9582628e-08
-3.2861313e-07
8.3498801e-08
-3.0909442e-07
-3.2251073e-08
-3.0876848e-07
8.7981995e-10
-2.9902183e-07
-1.5644984e-08
-2.8723601e-07
-1.9063559e-08
-2.7919726e-07
-1.0787075e-08
-2.675486e-07
-1.5045182e-08
-2.544149e-07
-1.6539334e-08
-2.3570302e-07
-2.5120595e-08
-2.1606364e-07
-2.6064798e-08
-1.9813548e-07
-2.3786914e-08
-1.8468622e-07
-1.7435972e-08
-1.786575e-07
-7.5802432e-09
-1.7638334e-07
-3.6206292e-09
-1.9387738e-07
2.2847946e-08
-2.4390593e-07
6.4453935e-08
-3.0144701e-07
7.5135138e-08
-3.4908333e-07
6.2415149e-08
-3.9413224e-07
5.9584368e-08
-4.3324085e-07
5.1466839e-08
-4.7010472e-07
4.8904855e-08
-5.0382242e-07
4.508196e-08
-5.351967e-07
4.2369717e-08
-5.6270476e-07
3.7207641e-08
-5.8811519e-07
3.4437345e-08
-6.1227234e-07
3.2946117e-08
-6.3362139e-07
2.915753e-08
-6.5497448e-07
3.0014326e-08
-6.7245431e-07
2.4028554e-08
-6.912027e-07
2.5924964e-08
-7.0767623e-07
2.2560584e-08
-7.2752671e-07
2.8406642e-08
-7.4369232e-07
2.2529262e-08
-7.6102157e-07
2.4128083e-08
-7.7464882e-07
1.8074942e-08
-7.9170839e-07
2.413042e-08
-8.0402097e-07
1.6211445e-08
-8.1793289e-07
1.8165214e-08
-8.2900397e-07
1.3465138e-08
-8.4314065e-07
1.8975298e-08
-8.5290667e-07
1.2243105e-08
-8.6261913e-07
1.2124553e-08
-8.7102241e-07
1.0199047e-08
-8.8351604e-07
1.7409284e-08
-8.9592064e-07
1.7843396e-08
-9.104398e-07
2.1546821e-08
-9.2212187e-07
1.6978642e-08
-9.3715065e-07
2.217837e-08
-9.4654615e-07
1.2641653e-08
-9.6037107e-07
1.8475685e-08
-9.6470072e-07
2.8488049e-09
-9.7174362e-07
8.0999242e-09
-9.7117138e-07
-4.0253965e-09
-9.7301036e-07
-6.5905531e-11
-9.7301036e-07
-2.9063278e-09
-9.7522377e-07
1.1017434e-09
-9.796827e-07
4.9617436e-09
-9.8258022e-07
2.3454066e-09
-9.8855385e-07
7.1443903e-09
-9.9132766e-07
1.9757355e-09
-9.9729765e-07
7.6688262e-09
-1.001219e-06
4.7110786e-09
-1.0120749e-06
1.5797992e-08
-1.0293421e-06
2.3930139e-08
-1.0502087e-06
2.8314951e-08
-1.0565314e-06
6.3706379e-09
-1.0658759e-06
1.2801136e-08
-1.0765889e-06
1.575773e-08
-1.0843968e-06
1.2072901e-08
-1.0863731e-06
3.7337821e-09
-1.0870228e-06
2.450336e-09
-1.0834579e-06
-3.3201292e-09
-1.0772432e-06
-7.2226599e-09
-1.0673847e-06
-1.3050707e-08
-1.0570416e-06
-1.3433813e-08
-1.0474566e-06
-1.1563696e-08
-1.0339713e-06
-1.7638125e-08
-1.0178174e-06
-2.187301e-08
-9.9826921e-07
-2.6967859e-08
-9.7927155e-07
-2.5528092e-08
-9.5599399e-07
-3.2492285e-08
-9.3157267e-07
-3.4613641e-08
-9.0846192e-07
-3.2237447e-08
-8.8724852e-07
-2.8683671e-08
-8.6392148e-07
-3.2198171e-08
-8.3695604e-07
-3.8530828e-08
-8.1159573e-07
-3.5785763e-08
-7.8640937e-07
-3.5242134e-08
-7.6254176e-07
-3.351865e-08
-7.3932073e-07
-3.3433517e-08
-7.2511951e-07
-1.9088394e-08
-7.1930197e-07
-5.3474575e-09
-7.1635271e-07
-1.0920299e-09
-7.1343693e-07
-2.0303246e-09
-7.1177774e-07
-3.0798367e-10
-7.1891152e-07
1.4396632e-08
-7.2220944e-07
8.6481402e-09
-7.1983567e-07
-5.2422736e-10
-7.0069527e-07
-2.7815128e-08
-6.7560963e-07
-3.7149874e-08
-6.5147108e-07
-3.4824445e-08
-6.2502284e-07
-3.7865328e-08
-5.8937623e-07
-5.3408568e-08
-5.3775089e-07
-8.0353037e-08
-5.0891794e-07
-4.2876598e-08
-4.8530582e-07
-3.2593926e-08
-4.7702634e-07
-7.2392208e-09
-4.5158063e-07
-3.5715677e-08
-4.5142571e-07
4.8732236e-09
-4.4220597e-07
-9.6926616e-09
-4.3528375e-07
-7.500202e-09
-4.08026e-07
-4.2609551e-08
-3.9105898e-07
-2.6602815e-08
-3.699106e-07
-3.225028e-08
-4.2327357e-09
6.4999417e-07
-5.821897e-06
-9.1948835e-07
4.4115366e-06
-4.929226e-07
-1.0550555e-06
-5.6982654e-07
2.2395247e-07
-4.5544874e-07
-3.2209112e-07
-5.828045e-07
3.3871942e-07
-5.1049367e-07
-1.5189346e-07
-5.5974802e-07
1.3275314e-07
-5.4027481e-07
-5.1724278e-08
-5.3685611e-07
-2.5388788e-09
-5.258991e-07
-2.6601997e-08
-5.1289512e-07
-3.2067539e-08
-4.9922692e-07
-2.4455271e-08
-4.7832324e-07
-3.5948863e-08
-4.5388136e-07
-4.098121e-08
-4.2243828e-07
-5.6563675e-08
-3.8882234e-07
-5.9680731e-08
-3.5815093e-07
-5.4458323e-08
-3.3430817e-07
-4.1278727e-08
-3.232126e-07
-1.8675817e-08
-3.2103761e-07
-5.7956181e-09
-3.5244285e-07
5.4253187e-08
-4.4270069e-07
1.5471178e-07
-5.4423977e-07
1.7667422e-07
-6.2800057e-07
1.4617595e-07
-7.0596302e-07
1.3754682e-07
-7.7420372e-07
1.1970755e-07
-8.3764293e-07
1.1234407e-07
-8.9493784e-07
1.0237687e-07
-9.4734605e-07
9.4777937e-08
-9.9320008e-07
8.3061681e-08
-1.0354016e-06
7.6638853e-08
-1.0750716e-06
7.2616121e-08
-1.1100761e-06
6.4162096e-08
-1.1432638e-06
6.3202018e-08
-1.1716397e-06
5.2404467e-08
-1.2016656e-06
5.5950845e-08
-1.2285715e-06
4.9466515e-08
-1.2584161e-06
5.8251293e-08
-1.2840468e-06
4.8159916e-08
-1.3114097e-06
5.1491008e-08
-1.334945e-06
4.1610285e-08
-1.3611443e-06
5.032969e-08
-1.3827337e-06
3.7800795e-08
-1.4073491e-06
4.2780658e-08
-1.4290896e-06
3.5205611e-08
-1.4529686e-06
4.2854288e-08
-1.4714005e-06
3.0675025e-08
-1.4897663e-06
3.0490297e-08
-1.5062015e-06
2.6634246e-08
-1.5256906e-06
3.689834e-08
-1.5439224e-06
3.607524e-08
-1.5639277e-06
4.1552157e-08
-1.5808394e-06
3.3890316e-08
-1.6018294e-06
4.3168348e-08
-1.6176746e-06
2.8486819e-08
-1.641217e-06
4.2018124e-08
-1.6549189e-06
1.655069e-08
-1.6695339e-06
2.2714929e-08
-1.6755402e-06
1.9808453e-09
-1.6839757e-06
8.3695608e-09
-1.6901076e-06
3.2255837e-09
-1.6977516e-06
8.7457208e-09
-1.707372e-06
1.4582124e-08
-1.7155768e-06
1.0550181e-08
-1.7274796e-06
1.9047192e-08
-1.7359523e-06
1.0448429e-08
-1.7467257e-06
1.8442177e-08
-1.754447e-06
1.2432431e-08
-1.7696904e-06
3.1041343e-08
-1.7968365e-06
5.1076219e-08
-1.8313608e-06
6.2839303e-08
-1.8470857e-06
2.209556e-08
-1.8622931e-06
2.8008481e-08
-1.8768799e-06
3.034459e-08
-1.8861432e-06
2.1336157e-08
-1.8867729e-06
4.3635264e-09
-1.8841507e-06
-1.7193143e-10
-1.8748535e-06
-1.2617311e-08
-1.8618514e-06
-2.0224699e-08
-1.8446818e-06
-3.0220382e-08
-1.8261248e-06
-3.1990817e-08
-1.8070638e-06
-3.0624644e-08
-1.7832748e-06
-4.1427116e-08
-1.7563664e-06
-4.8781418e-08
-1.7249658e-06
-5.8368492e-08
-1.6930616e-06
-5.7432297e-08
-1.65658e-06
-6.8973875e-08
-1.619357e-06
-7.183673e-08
-1.5830022e-06
-6.8592235e-08
-1.5477601e-06
-6.39258e-08
-1.5104014e-06
-6.9556869e-08
-1.4699981e-06
-7.8934157e-08
-1.4310006e-06
-7.4783236e-08
-1.3917451e-06
-7.4497642e-08
-1.3547481e-06
-7.051562e-08
-1.3204374e-06
-6.774423e-08
-1.296352e-06
-4.3173831e-08
-1.2810672e-06
-2.0632301e-08
-1.2696941e-06
-1.2465087e-08
-1.2604357e-06
-1.1288717e-08
-1.253149e-06
-7.5946739e-09
-1.2544277e-06
1.5675338e-08
-1.2506145e-06
4.8348744e-09
-1.240651e-06
-1.0487732e-08
-1.2129115e-06
-5.5554615e-08
-1.1781751e-06
-7.1886403e-08
-1.1427931e-06
-7.0206522e-08
-1.1034532e-06
-7.7205365e-08
-1.0555268e-06
-1.0133501e-07
-9.9259368e-07
-1.4328638e-07
-9.5293449e-07
-8.2535809e-08
-9.1509995e-07
-7.0428613e-08
-8.9260604e-07
-2.9732972e-08
-8.5303694e-07
-7.5284926e-08
-8.4144918e-07
-6.714388e-09
-8.2007505e-07
-3.106677e-08
-8.04444e-07
-2.313098e-08
-7.7154539e-07
-7.5508116e-08
-7.5107935e-07
-4.7068606e-08
-7.2372544e-07
-5.9604023e-08
-1.7719221e-08
2.3962887e-07
-8.2614516e-06
-1.2236937e-06
5.8748588e-06
-7.6666328e-07
-1.5120859e-06
-8.3157751e-07
2.8886672e-07
-7.2613357e-07
-4.2753505e-07
-8.5261981e-07
4.6520566e-07
-7.6194145e-07
-2.4257182e-07
-8.1019071e-07
1.810024e-07
-7.9118221e-07
-7.0732773e-08
-7.8454483e-07
-9.1762516e-09
-7.7211803e-07
-3.9028791e-08
-7.5744276e-07
-4.6742807e-08
-7.3759694e-07
-4.4301086e-08
-7.0686275e-07
-6.6683041e-08
-6.7049186e-07
-7.7352099e-08
-6.2560277e-07
-1.0145275e-07
-5.7728056e-07
-1.0800294e-07
-5.3324687e-07
-9.849201e-08
-4.9858654e-07
-7.5939046e-08
-4.8237538e-07
-3.4886972e-08
-4.809964e-07
-7.1745916e-09
-5.2813859e-07
1.0139538e-07
-6.6150676e-07
2.8807996e-07
-8.1005326e-07
3.2522072e-07
-9.3269503e-07
2.6881773e-07
-1.046034e-06
2.5088584e-07
-1.1455877e-06
2.1926118e-07
-1.2375403e-06
2.0429669e-07
-1.3201973e-06
1.8503394e-07
-1.3952567e-06
1.6983733e-07
-1.4609329e-06
1.4873789e-07
-1.521264e-06
1.3696996e-07
-1.5776871e-06
1.2903922e-07
-1.6275046e-06
1.1397959e-07
-1.6736193e-06
1.0931681e-07
-1.7139158e-06
9.2700934e-08
-1.7561552e-06
9.8190261e-08
-1.7944398e-06
8.7751162e-08
-1.835395e-06
9.9206523e-08
-1.8714985e-06
8.4263394e-08
-1.9096737e-06
8.9666219e-08
-1.9439674e-06
7.5903981e-08
-1.9801791e-06
8.6541352e-08
-2.0119395e-06
6.9561228e-08
-2.048088e-06
7.8929141e-08
-2.0812943e-06
6.8411857e-08
-2.1156859e-06
7.7245963e-08
-2.1435287e-06
5.8517741e-08
-2.1711496e-06
5.8111184e-08
-2.1960367e-06
5.1521332e-08
-2.2227328e-06
6.3594436e-08
-2.2470813e-06
6.0423753e-08
-2.2729837e-06
6.7454503e-08
-2.2955727e-06
5.6479333e-08
-2.3230091e-06
7.0604734e-08
-2.3458752e-06
5.1352888e-08
-2.3799251e-06
7.6068088e-08
-2.4035307e-06
4.0156272e-08
-2.4258802e-06
4.5064354e-08
-2.4386747e-06
1.4775352e-08
-2.4538187e-06
2.3513544e-08
-2.4661447e-06
1.5551625e-08
-2.4793012e-06
2.1902211e-08
-2.4942137e-06
2.9494574e-08
-2.5079573e-06
2.4293807e-08
-2.5260382e-06
3.7128081e-08
-2.5405152e-06
2.4925389e-08
-2.5563486e-06
3.4275554e-08
-2.5679464e-06
2.4030266e-08
-2.5872465e-06
5.0341438e-08
-2.624365e-06
8.81947e-08
-2.6735408e-06
1.1201509e-07
-2.7001365e-06
4.8691298e-08
-2.7218158e-06
4.9687706e-08
-2.7398824e-06
4.8411186e-08
-2.75014e-06
3.1593793e-08
-2.7488862e-06
3.1097022e-09
-2.7423969e-06
-6.6611874e-09
-2.7268322e-06
-2.818204e-08
-2.7064092e-06
-4.0647705e-08
-2.681155e-06
-5.5474559e-08
-2.6535639e-06
-5.9581892e-08
-2.6242544e-06
-5.9934117e-08
-2.5893405e-06
-7.6341065e-08
-2.5507429e-06
-8.7379046e-08
-2.5065417e-06
-1.025697e-07
-2.4608284e-06
-1.0314562e-07
-2.4101778e-06
-1.196245e-07
-2.3590674e-06
-1.229471e-07
-2.3083914e-06
-1.1926821e-07
-2.2581518e-06
-1.1416549e-07
-2.2057545e-06
-1.2195411e-07
-2.1508111e-06
-1.3387757e-07
-2.0970618e-06
-1.2853257e-07
-2.0427603e-06
-1.2879915e-07
-1.9916236e-06
-1.2165235e-07
-1.9451983e-06
-1.1416956e-07
-1.9102019e-06
-7.8170217e-08
-1.8846894e-06
-4.6144801e-08
-1.8641593e-06
-3.299517e-08
-1.8478398e-06
-2.7608208e-08
-1.8341575e-06
-2.1277003e-08
-1.8289813e-06
1.0499156e-08
-1.8174832e-06
-6.6631852e-09
-1.7992925e-06
-2.8678448e-08
-1.7621717e-06
-9.2675502e-08
-1.7169279e-06
-1.1713032e-07
-1.6694509e-06
-1.176836e-07
-1.6163753e-06
-1.3028115e-07
-1.5552158e-06
-1.6249453e-07
-1.4798074e-06
-2.1869505e-07
-1.4281672e-06
-1.3417597e-07
-1.3751196e-06
-1.2347641e-07
-1.3373827e-06
-6.7469713e-08
-1.2824946e-06
-1.3017314e-07
-1.2583631e-06
-3.084571e-08
-1.2241007e-06
-6.5329211e-08
-1.1991428e-06
-4.8088562e-08
-1.1599694e-06
-1.1468143e-07
-1.1353095e-06
-7.17282e-08
-1.1010908e-06
-9.3822585e-08
-4.0397832e-08
-1.8283412e-07
-1.082376e-05
-1.544951e-06
7.2369757e-06
-1.06293e-06
-1.9941068e-06
-1.1135666e-06
3.3950332e-07
-1.0172548e-06
-5.2384688e-07
-1.1423202e-06
5.9027101e-07
-1.0338857e-06
-3.5100635e-07
-1.0810483e-06
2.28165e-07
-1.0629039e-06
-8.887716e-08
-1.0529669e-06
-1.911323e-08
-1.0388174e-06
-5.3178288e-08
-1.0220028e-06
-6.3557355e-08
-9.9542547e-07
-7.0878459e-08
-9.5429096e-07
-1.0781755e-07
-9.0538398e-07
-1.2625908e-07
-8.4635757e-07
-1.6047915e-07
-7.8263211e-07
-1.7172841e-07
-7.2465383e-07
-1.5647028e-07
-6.7879287e-07
-1.2180001e-07
-6.5746609e-07
-5.6213748e-08
-6.5769893e-07
-6.9417555e-09
-7.2257617e-07
1.6627262e-07
-9.020627e-07
4.675665e-07
-1.1007439e-06
5.2390195e-07
-1.2651537e-06
4.3322746e-07
-1.416437e-06
4.0216918e-07
-1.5495833e-06
3.5240751e-07
-1.672069e-06
3.2678235e-07
-1.7819452e-06
2.9491017e-07
-1.8813357e-06
2.6922779e-07
-1.9683774e-06
2.3577963e-07
-2.0482379e-06
2.1683048e-07
-2.1227075e-06
2.0350885e-07
-2.1885497e-06
1.7982179e-07
-2.2487454e-06
1.6951247e-07
-2.3020489e-06
1.4600449e-07
-2.3574838e-06
1.5362521e-07
-2.4081496e-06
1.3841696e-07
-2.4614341e-06
1.5249099e-07
-2.5090882e-06
1.3191757e-07
-2.5588609e-06
1.394389e-07
-2.6047977e-06
1.2184075e-07
-2.6519397e-06
1.3368341e-07
-2.6948134e-06
1.1243488e-07
-2.7433505e-06
1.2746628e-07
-2.7888456e-06
1.139069e-07
-2.8345541e-06
1.2295447e-07
-2.8725905e-06
9.6554139e-08
-2.9100824e-06
9.560301e-08
-2.9438346e-06
8.5273579e-08
-2.9779102e-06
9.7669995e-08
-3.0086302e-06
9.1143713e-08
-3.0408122e-06
9.9636507e-08
-3.0695121e-06
8.5179197e-08
-3.1038827e-06
1.0497535e-07
-3.1343602e-06
8.1830369e-08
-3.1797744e-06
1.2148228e-07
-3.2138202e-06
7.4202102e-08
-3.2440004e-06
7.5244565e-08
-3.2637795e-06
3.4554413e-08
-3.2857186e-06
4.5452613e-08
-3.3042762e-06
3.4109235e-08
-3.3230046e-06
4.0630566e-08
-3.3433147e-06
4.9804719e-08
-3.3628027e-06
4.378174e-08
-3.3872723e-06
6.1597671e-08
-3.408035e-06
4.5688058e-08
-3.4291652e-06
5.5405798e-08
-3.4446777e-06
3.9542702e-08
-3.4675563e-06
7.3220019e-08
-3.5145639e-06
1.3520231e-07
-3.5793733e-06
1.7682447e-07
-3.6186e-06
8.7918052e-08
-3.6475465e-06
7.8634176e-08
-3.6686279e-06
6.9492562e-08
-3.6793653e-06
4.2331259e-08
-3.6756579e-06
-5.9772798e-10
-3.6646695e-06
-1.7649606e-08
-3.6422561e-06
-5.0595356e-08
-3.6137176e-06
-6.9186206e-08
-3.5795422e-06
-8.9649986e-08
-3.5420376e-06
-9.708649e-08
-3.5016541e-06
-1.0031765e-07
-3.4547439e-06
-1.2325128e-07
-3.4034699e-06
-1.3865308e-07
-3.3454678e-06
-1.6057174e-07
-3.2849834e-06
-1.6363009e-07
-3.2191342e-06
-1.8547366e-07
-3.1529836e-06
-1.8909775e-07
-3.0868478e-06
-1.8540395e-07
-3.0205894e-06
-1.8042393e-07
-2.9520908e-06
-1.9045278e-07
-2.881448e-06
-2.0452038e-07
-2.8117731e-06
-1.9820743e-07
-2.7413959e-06
-1.991764e-07
-2.6750376e-06
-1.8801067e-07
-2.6154002e-06
-1.7380695e-07
-2.5683919e-06
-1.2517855e-07
-2.5318565e-06
-8.268021e-08
-2.5013949e-06
-6.3456695e-08
-2.477254e-06
-5.1749127e-08
-2.4563574e-06
-4.2173629e-08
-2.444103e-06
-1.7552255e-09
-2.4243408e-06
-2.6425379e-08
-2.3972795e-06
-5.5739778e-08
-2.3499609e-06
-1.3999414e-07
-2.2932853e-06
-1.7380603e-07
-2.2328032e-06
-1.7816583e-07
-2.1651155e-06
-1.9796898e-07
-2.0897154e-06
-2.3789463e-07
-2.0005585e-06
-3.0785219e-07
-1.9356837e-06
-1.9905079e-07
-1.8664115e-06
-1.9274879e-07
-1.8123709e-06
-1.2151007e-07
-1.7408883e-06
-2.0165596e-07
-1.7030097e-06
-6.8724178e-08
-1.6551172e-06
-1.1322166e-07
-1.6202102e-06
-8.2995241e-08
-1.5740952e-06
-1.6079638e-07
-1.5444711e-06
-1.0135205e-07
-1.5027024e-06
-1.3559114e-07
-7.286357e-08
-6.2204267e-07
-1.3495847e-05
-1.8843123e-06
8.499245e-06
-1.3827125e-06
-2.4957065e-06
-1.4167952e-06
3.7358603e-07
-1.329769e-06
-6.1087302e-07
-1.4528839e-06
7.1338592e-07
-1.3274839e-06
-4.7640636e-07
-1.3734874e-06
2.741685e-07
-1.3565944e-06
-1.0577013e-07
-1.3433156e-06
-3.2392067e-08
-1.3271912e-06
-6.9302693e-08
-1.3077542e-06
-8.2994388e-08
-1.2738935e-06
-1.0473907e-07
-1.2218041e-06
-1.5990693e-07
-1.1597759e-06
-1.8828735e-07
-1.0859537e-06
-2.3430131e-07
-1.0061724e-06
-2.5150973e-07
-9.337178e-07
-2.2892486e-07
-8.7632479e-07
-1.7919301e-07
-8.4993981e-07
-8.2598725e-08
-8.5273026e-07
-4.1512989e-09
-9.3752117e-07
2.5106354e-07
-1.1662611e-06
6.9630639e-07
-1.4183218e-06
7.7596267e-07
-1.6275174e-06
6.4242306e-07
-1.8194166e-06
5.9406839e-07
-1.9885334e-06
5.2152438e-07
-2.1436519e-06
4.819008e-07
-2.282674e-06
4.3393233e-07
-2.408136e-06
3.9468975e-07
-2.5181523e-06
3.4579595e-07
-2.6190019e-06
3.1768014e-07
-2.7128631e-06
2.9737009e-07
-2.7959955e-06
2.6295414e-07
-2.871487e-06
2.4500399e-07
-2.9389458e-06
2.1346334e-07
-3.0086041e-06
2.2328347e-07
-3.0727116e-06
2.0252449e-07
-3.139658e-06
2.1943747e-07
-3.1999897e-06
1.9224919e-07
-3.2621138e-06
2.0156306e-07
-3.3206037e-06
1.8033063e-07
-3.379631e-06
1.9271075e-07
-3.4345973e-06
1.6740119e-07
-3.4963938e-06
1.8926278e-07
-3.5550176e-06
1.7253064e-07
-3.612871e-06
1.8080784e-07
-3.6619125e-06
1.4559564e-07
-3.709898e-06
1.4358851e-07
-3.7529208e-06
1.2829635e-07
-3.7945222e-06
1.3927141e-07
-3.8318692e-06
1.2849072e-07
-3.8707036e-06
1.3847088e-07
-3.9059263e-06
1.2040184e-07
-3.9477188e-06
1.4676785e-07
-3.9864154e-06
1.2052702e-07
-4.0441321e-06
1.7919897e-07
-4.0890893e-06
1.191593e-07
-4.1270379e-06
1.1319315e-07
-4.153975e-06
6.1491491e-08
-4.1827657e-06
7.4243298e-08
-4.2075631e-06
5.8906631e-08
-4.2318951e-06
6.4962461e-08
-4.2576764e-06
7.5586081e-08
-4.2830757e-06
6.918103e-08
-4.314087e-06
9.2608875e-08
-4.3413693e-06
7.2970422e-08
-4.3679924e-06
8.2028899e-08
-4.3874163e-06
5.896656e-08
-4.4132936e-06
9.9097281e-08
-4.4699793e-06
1.9188806e-07
-4.5514016e-06
2.582468e-07
-4.6053672e-06
1.4188357e-07
-4.6426119e-06
1.1587889e-07
-4.666164e-06
9.3044724e-08
-4.6768073e-06
5.2974578e-08
-4.6700373e-06
-7.3677426e-09
-4.6538759e-06
-3.3810984e-08
-4.623982e-06
-8.0489316e-08
-4.5865681e-06
-1.0660006e-07
-4.5425684e-06
-1.3364969e-07
-4.4942101e-06
-1.4544485e-07
-4.4418725e-06
-1.5265526e-07
-4.3820433e-06
-1.8308049e-07
-4.3170529e-06
-2.0364344e-07
-4.244198e-06
-2.3342668e-07
-4.1679204e-06
-2.3990771e-07
-4.0857784e-06
-2.6761564e-07
-4.0033679e-06
-2.715083e-07
-3.920574e-06
-2.6819785e-07
-3.8372242e-06
-2.6377377e-07
-3.7515056e-06
-2.761713e-07
-3.6639481e-06
-2.9207794e-07
-3.5771164e-06
-2.8503916e-07
-3.4895806e-06
-2.8671217e-07
-3.4068457e-06
-2.7074555e-07
-3.3328245e-06
-2.4782817e-07
-3.2726276e-06
-1.8537551e-07
-3.2242365e-06
-1.3107129e-07
-3.1830232e-06
-1.0466996e-07
-3.1502534e-06
-8.451896e-08
-3.1212692e-06
-7.1157824e-08
-3.1012862e-06
-2.1738226e-08
-3.0726709e-06
-5.5040649e-08
-3.0360851e-06
-9.232555e-08
-2.9777144e-06
-1.983649e-07
-2.9086117e-06
-2.4290893e-07
-2.834155e-06
-2.526226e-07
-2.7509465e-06
-2.811776e-07
-2.6602422e-06
-3.2859899e-07
-2.5559561e-06
-4.1213861e-07
-2.4764959e-06
-2.7851101e-07
-2.3899705e-06
-2.7927433e-07
-2.3185338e-06
-1.9294663e-07
-2.2290952e-06
-2.9109468e-07
-2.1761679e-06
-1.216513e-07
-2.1138954e-06
-1.7549416e-07
-2.0684117e-06
-1.2847857e-07
-2.0146527e-06
-2.1455539e-07
-1.9792148e-06
-1.3678962e-07
-1.9291869e-06
-1.8561885e-07
-1.1568846e-07
-1.0793742e-06
-1.6262423e-05
-2.2428689e-06
9.6627399e-06
-1.7270457e-06
-3.0115298e-06
-1.7423474e-06
3.8888779e-07
-1.6647013e-06
-6.8851917e-07
-1.785369e-06
8.3405358e-07
-1.6439606e-06
-6.1781469e-07
-1.6887384e-06
3.1894629e-07
-1.6734876e-06
-1.21021e-07
-1.6568526e-06
-4.9027002e-08
-1.6384968e-06
-8.7658527e-08
-1.6159392e-06
-1.05552e-07
-1.5742504e-06
-1.4642783e-07
-1.5106722e-06
-2.2348519e-07
-1.4349718e-06
-2.6398773e-07
-1.3457411e-06
-3.23532e-07
-1.2493138e-06
-3.4793702e-07
-1.1619124e-06
-3.1632628e-07
-1.0927194e-06
-2.4838594e-07
-1.0614008e-06
-1.1391735e-07
-1.0678365e-06
2.2844081e-09
-1.1749082e-06
3.5813521e-07
-1.4561617e-06
9.7755987e-07
-1.7649629e-06
1.0847639e-06
-2.0220924e-06
8.9955256e-07
-2.2573811e-06
8.293571e-07
-2.4649425e-06
7.2908575e-07
-2.6548712e-06
6.7182948e-07
-2.8250322e-06
6.0409337e-07
-2.9783637e-06
5.4802122e-07
-3.1130267e-06
4.8045897e-07
-3.2363827e-06
4.4103613e-07
-3.35103e-06
4.1201739e-07
-3.4527702e-06
3.646944e-07
-3.5448331e-06
3.3706685e-07
-3.627656e-06
2.9628631e-07
-3.7126108e-06
3.0823822e-07
-3.7912803e-06
2.8119403e-07
-3.8733493e-06
3.0150652e-07
-3.9474826e-06
2.6638249e-07
-4.0226075e-06
2.7668795e-07
-4.0945696e-06
2.5229277e-07
-4.1664594e-06
2.6460053e-07
-4.2345166e-06
2.3545838e-07
-4.3104384e-06
2.6518459e-07
-4.3830271e-06
2.4511931e-07
-4.453856e-06
2.5163669e-07
-4.5147215e-06
2.0646111e-07
-4.5738162e-06
2.0268328e-07
-4.6265091e-06
1.8098921e-07
-4.6758002e-06
1.8856245e-07
-4.7201214e-06
1.7281198e-07
-4.76602e-06
1.8436941e-07
-4.8081487e-06
1.6253053e-07
-4.8578478e-06
1.96467e-07
-4.905386e-06
1.6806516e-07
-4.9764412e-06
2.5025418e-07
-5.0325667e-06
1.7528481e-07
-5.0778791e-06
1.5850557e-07
-5.1120999e-06
9.5712194e-08
-5.1477547e-06
1.0989814e-07
-5.1787547e-06
8.9906575e-08
-5.2086788e-06
9.4886509e-08
-5.2399533e-06
1.0686059e-07
-5.2713606e-06
1.0058832e-07
-5.308962e-06
1.3021029e-07
-5.3428911e-06
1.0689949e-07
-5.3751101e-06
1.1424787e-07
-5.3984043e-06
8.226081e-08
-5.4267872e-06
1.2748012e-07
-5.4930052e-06
2.5810603e-07
-5.5920444e-06
3.5728604e-07
-5.6632606e-06
2.1309973e-07
-5.7101223e-06
1.6274062e-07
-5.735511e-06
1.1843342e-07
-5.7454188e-06
6.2882359e-08
-5.7349299e-06
-1.7856554e-08
-5.7128739e-06
-5.5867026e-08
-5.6748102e-06
-1.1855297e-07
-5.6276917e-06
-1.5371861e-07
-5.5728962e-06
-1.8844519e-07
-5.5126823e-06
-2.0565878e-07
-5.447455e-06
-2.1788251e-07
-5.3737322e-06
-2.5680334e-07
-5.2939336e-06
-2.8344203e-07
-5.2051234e-06
-3.2223691e-07
-5.111972e-06
-3.3305906e-07
-5.0123799e-06
-3.6720778e-07
-4.9124266e-06
-3.714616e-07
-4.8117201e-06
-3.6890437e-07
-4.7101573e-06
-3.6533657e-07
-4.6060471e-06
-3.8028157e-07
-4.5003065e-06
-3.9781855e-07
-4.3950323e-06
-3.9031337e-07
-4.2892038e-06
-3.9254066e-07
-4.1888644e-06
-3.7108496e-07
-4.0992129e-06
-3.3747965e-07
-4.0245745e-06
-2.6001396e-07
-3.9634543e-06
-1.9219146e-07
-3.9106173e-06
-1.5750702e-07
-3.8683569e-06
-1.2677931e-07
-3.8303512e-06
-1.091635e-07
-3.8019566e-06
-5.0132842e-08
-3.763883e-06
-9.3114254e-08
-3.7171017e-06
-1.3910684e-07
-3.6467817e-06
-2.6868499e-07
-3.5641833e-06
-3.2550741e-07
-3.4747245e-06
-3.4208153e-07
-3.3750551e-06
-3.8084709e-07
-3.2679266e-06
-4.3572754e-07
-3.147025e-06
-5.3304046e-07
-3.051537e-06
-3.73999e-07
-2.9467191e-06
-3.8409246e-07
-2.8567632e-06
-2.8290228e-07
-2.7479172e-06
-3.9994085e-07
-2.6785369e-06
-1.9103145e-07
-2.6011245e-06
-2.5290659e-07
-2.5444295e-06
-1.8517331e-07
-2.4822859e-06
-2.7669889e-07
-2.440104e-06
-1.7897121e-07
-2.3810853e-06
-2.446374e-07
-1.6941987e-07
-1.5552456e-06
-1.9105811e-05
-2.6218359e-06
1.072933e-05
-2.0969777e-06
-3.536388e-06
-2.0913652e-06
3.8327533e-07
-2.0231447e-06
-7.5673965e-07
-2.1408713e-06
9.5178019e-07
-1.9846004e-06
-7.7408553e-07
-2.0280996e-06
3.6244543e-07
-2.0148605e-06
-1.3426007e-07
-1.9948917e-06
-6.89958e-08
-1.9740491e-06
-1.0850113e-07
-1.9478638e-06
-1.3173732e-07
-1.8978203e-06
-1.9647133e-07
-1.8222533e-06
-2.990521e-07
-1.7323746e-06
-3.5386647e-07
-1.6271856e-06
-4.2872095e-07
-1.513594e-06
-4.6152867e-07
-1.4108541e-06
-4.1906619e-07
-1.3296677e-06
-3.295723e-07
-1.2936195e-06
-1.4996559e-07
-1.3049417e-06
1.3606628e-08
-1.4368554e-06
4.9004898e-07
-1.774006e-06
1.3147104e-06
-2.1430228e-06
1.4537808e-06
-2.4513626e-06
1.2078924e-06
-2.7329135e-06
1.110908e-06
-2.9814864e-06
9.7765867e-07
-3.2084768e-06
8.9881985e-07
-3.4118315e-06
8.0744815e-07
-3.5948842e-06
7.310739e-07
-3.7559256e-06
6.415004e-07
-3.9033593e-06
5.884698e-07
-4.0402334e-06
5.4889153e-07
-4.1619496e-06
4.8641067e-07
-4.2719182e-06
4.4703547e-07
-4.371373e-06
3.9574106e-07
-4.4727419e-06
4.0960721e-07
-4.5671547e-06
3.7560677e-07
-4.6659492e-06
4.0030108e-07
-4.7549607e-06
3.5539403e-07
-4.8435708e-06
3.6529803e-07
-4.929928e-06
3.3864999e-07
-5.0156738e-06
3.5034629e-07
-5.0978293e-06
3.1761391e-07
-5.1887248e-06
3.5608004e-07
-5.2760934e-06
3.3248796e-07
-5.3607135e-06
3.3625671e-07
-5.4342088e-06
2.7995645e-07
-5.5050063e-06
2.7348078e-07
-5.5677611e-06
2.4374394e-07
-5.6249514e-06
2.4575273e-07
-5.676739e-06
2.2459958e-07
-5.7301786e-06
2.3780905e-07
-5.7795628e-06
2.1191468e-07
-5.8376477e-06
2.5455195e-07
-5.8946598e-06
2.2507723e-07
-5.9801995e-06
3.3579385e-07
-6.0474392e-06
2.4252444e-07
-6.0992358e-06
2.1030225e-07
-6.1407796e-06
1.3725589e-07
-6.1832339e-06
1.5235251e-07
-6.220314e-06
1.2698665e-07
-6.2557364e-06
1.3030882e-07
-6.2924246e-06
1.4354877e-07
-6.3298027e-06
1.3796646e-07
-6.3738694e-06
1.7427701e-07
-6.4143838e-06
1.4741379e-07
-6.4521386e-06
1.5200275e-07
-6.4792181e-06
1.0934021e-07
-6.5099639e-06
1.5822599e-07
-6.5858702e-06
3.3401226e-07
-6.7035502e-06
4.7496608e-07
-6.7949784e-06
3.0452792e-07
-6.8531041e-06
2.2086633e-07
-6.8795895e-06
1.4491886e-07
-6.8880423e-06
7.1335178e-08
-6.8731199e-06
-3.2778976e-08
-6.8443915e-06
-8.4595434e-08
-6.7974051e-06
-1.6553934e-07
-6.7396794e-06
-2.114443e-07
-6.6730467e-06
-2.5507789e-07
-6.5999141e-06
-2.7879147e-07
-6.5208058e-06
-2.9699079e-07
-6.4321634e-06
-3.4544573e-07
-6.336415e-06
-3.791904e-07
-6.2305005e-06
-4.2815149e-07
-6.1193402e-06
-4.4421934e-07
-6.0010828e-06
-4.8546522e-07
-5.8822469e-06
-4.9029746e-07
-5.7623237e-06
-4.888276e-07
-5.6413829e-06
-4.8627734e-07
-5.5176609e-06
-5.0400363e-07
-5.3924219e-06
-5.2305756e-07
-5.2673716e-06
-5.153637e-07
-5.1420691e-06
-5.178431e-07
-5.0228278e-06
-4.9032631e-07
-4.916227e-06
-4.4408045e-07
-4.825819e-06
-3.5042195e-07
-4.7510515e-06
-2.6695897e-07
-4.6856599e-06
-2.2289862e-07
-4.6329846e-06
-1.7945465e-07
-4.5849562e-06
-1.5719186e-07
-4.5474229e-06
-8.7666202e-08
-4.4992589e-06
-1.4127819e-07
-4.4415863e-06
-1.9677943e-07
-4.3583717e-06
-3.5189963e-07
-4.2611361e-06
-4.2274315e-07
-4.1555926e-06
-4.4762522e-07
-4.0384938e-06
-4.9794601e-07
-3.9137683e-06
-5.6045312e-07
-3.7746675e-06
-6.7214157e-07
-3.6616282e-06
-4.8703826e-07
-3.5374767e-06
-5.0824415e-07
-3.4278531e-06
-3.9252575e-07
-3.298057e-06
-5.2973712e-07
-3.210714e-06
-2.7837428e-07
-3.1173914e-06
-3.4622912e-07
-3.0488432e-06
-2.5372112e-07
-2.9775339e-06
-3.4800817e-07
-2.9275946e-06
-2.2891015e-07
-2.8588327e-06
-3.1339906e-07
-2.3458014e-07
-2.0499624e-06
-2.2006389e-05
-3.0222572e-06
1.1701625e-05
-2.4935305e-06
-4.0651147e-06
-2.4650567e-06
3.5480151e-07
-2.4062081e-06
-8.1558825e-07
-2.5205386e-06
1.0661106e-06
-2.3507321e-06
-9.4389207e-07
-2.392917e-06
4.0463034e-07
-2.3820588e-06
-1.4511824e-07
-2.3588081e-06
-9.2246551e-08
-2.3352323e-06
-1.3207695e-07
-2.3049154e-06
-1.6205414e-07
-2.2460136e-06
-2.553732e-07
-2.1580049e-06
-3.8706076e-07
-2.0534928e-06
-4.5837858e-07
-1.931875e-06
-5.5033879e-07
-1.8006955e-06
-5.9270814e-07
-1.6823167e-06
-5.3744497e-07
-1.5890315e-06
-4.2285748e-07
-1.5485488e-06
-1.9044828e-07
-1.5661658e-06
3.1223546e-08
-1.725682e-06
6.4956521e-07
-2.1222318e-06
1.7112602e-06
-2.55505e-06