0 	0 	0 	0
0.0010637159 	0.0055638347 	-1.0073928e-05 	4.8958428e-24
0.0022067933 	0.01014634 	-3.7980956e-05 	7.1936441e-24
0.0034351532 	0.013635923 	-8.1500697e-05 	2.2963403e-24
0.0047551584 	0.016356149 	-0.0001384504 	-8.9033821e-24
0.0061736463 	0.018613872 	-0.00020836111 	-5.2705039e-24
0.0076979646 	0.020587292 	-0.00029104805 	1.6613006e-24
0.0093360089 	0.022378897 	-0.00038660551 	-2.3225914e-25
0.011096264 	0.024051708 	-0.00049542853 	1.7396812e-24
0.012987848 	0.025647328 	-0.00061813539 	-1.3171466e-24
0.015020559 	0.027195033 	-0.00075550886 	2.83802e-24
0.017204926 	0.028716642 	-0.00090846932 	6.6336663e-24
0.019552264 	0.030229283 	-0.001078063 	-4.8391982e-24
0.022074732 	0.031747057 	-0.0012654569 	-2.6058173e-24
0.024785396 	0.033282093 	-0.001471937 	1.589164e-23
0.027698296 	0.034845245 	-0.0016989097 	8.939094e-24
0.030828522 	0.036446583 	-0.0019479041 	-2.2259886e-24
0.034192287 	0.038095741 	-0.0022205764 	0
0.037807015 	0.039802196 	-0.0025187147 	2.2994927e-23
0.04169143 	0.041575479 	-0.002844244 	1.5313042e-23
0.045865653 	0.043425362 	-0.0031992325 	-1.8298349e-23
0.050351306 	0.045362024 	-0.0035858976 	-3.6903697e-24
0.055171623 	0.047396208 	-0.0040066111 	6.9874516e-24
0.060351574 	0.049539372 	-0.0044639061 	2.0412251e-23
0.06591799 	0.051803842 	-0.0049604814 	2.6775892e-23
0.071899704 	0.054202982 	-0.0054992062 	6.391307e-24
0.078327701 	0.056751366 	-0.0060831236 	5.2461346e-23
0.085235276 	0.059464973 	-0.0067154521 	3.9255164e-23
0.092658211 	0.062361401 	-0.0073995853 	-2.6421275e-23
0.10063495 	0.065460107 	-0.0081390886 	-1.3221146e-23
0.10920683 	0.068782682 	-0.0089376922 	2.5519319e-23
0.11841823 	0.072353153 	-0.0097992792 	-6.5081624e-23
0.12831687 	0.076198337 	-0.010727868 	2.417096e-23
0.13895403 	0.080348236 	-0.011727586 	1.1459619e-22
0.1503848 	0.084836494 	-0.012802633 	0
0.1626684 	0.089700908 	-0.013957236 	-1.0504723e-22
0.17586845 	0.094984013 	-0.01519558 	-1.0505156e-22
0.19005333 	0.10073374 	-0.016521729 	-1.5621622e-22
0.20529651 	0.10700418 	-0.017939513 	-3.6849214e-22
0.22167696 	0.11385637 	-0.019452393 	-9.5722777e-23
0.23927951 	0.12135925 	-0.021063281 	-6.2106789e-23
0.25819535 	0.12959065 	-0.022774319 	1.3731091e-22
0.27852246 	0.13863838 	-0.0245866 	-1.2942401e-22
0.30036613 	0.14860132 	-0.02649982 	-3.188797e-22
0.32383951 	0.15959062 	-0.028511857 	3.9373058e-22
0.34906419 	0.1717307 	-0.030618245 	-2.6053405e-22
0.37617083 	0.18516027 	-0.03281155 	-5.2363835e-22
0.40529983 	0.20003293 	-0.035080625 	9.8130808e-22
0.43660209 	0.2165173 	-0.037409736 	6.8538209e-22
0.47023974 	0.23479637 	-0.039777568 	-1.0009696e-21
0.50638702 	0.25506561 	-0.042156129 	2.5681337e-22
0.54523117 	0.27752921 	-0.044509621 	3.0508799e-22
0.5869734 	0.30239378 	-0.046793283 	-4.1609372e-21
0.63182993 	0.32986007 	-0.048952321 	-3.4873555e-21
0.6800331 	0.36010712 	-0.05092194 	-2.783862e-21
0.73183261 	0.39326549 	-0.052627649 	-5.4745172e-21
0.78749677 	0.42938937 	-0.053987889 	-2.6491716e-21
0.84731391 	0.46842258 	-0.05491886 	2.6461723e-21
0.91159388 	0.51015099 	-0.055341916 	5.6259871e-21
0.98066963 	0.55415366 	-0.055196282 	3.0915413e-21
1.054899 	0.5997693 	-0.054454442 	-2.9605916e-21
1.1346664 	0.64610473 	-0.053136936 	-4.5921953e-21
1.2203851 	0.69211863 	-0.051318763 	-1.3867796e-21
1.3124991 	0.73679231 	-0.049117004 	1.1391313e-21
1.4114856 	0.77934254 	-0.046661967 	-1.4156215e-20
1.5178571 	0.81897265 	-0.04409114 	-2.214408e-20
1.6242287 	0.85401523 	-0.04159204 	-1.0058287e-20
1.7232152 	0.88360408 	-0.039288812 	-3.3395199e-21
1.8153292 	0.90849316 	-0.037170958 	0
1.9010479 	0.92956969 	-0.035200983 	-3.6641521e-21
1.9808153 	0.94743943 	-0.033352449 	3.9538276e-22
2.0550447 	0.96252073 	-0.031607383 	3.9833289e-21
2.1241204 	0.97510971 	-0.029953867 	-1.7569982e-21
2.1884004 	0.98542207 	-0.028383922 	-1.6449132e-21
2.2482175 	0.99361962 	-0.026891957 	0
2.3038817 	0.99982691 	-0.025473637 	5.9075126e-22
2.3556812 	1.0041421 	-0.02412509 	3.3677142e-21
2.4038844 	1.0066437 	-0.022842349 	2.7057595e-21
2.4487409 	1.0073937 	-0.021620953 	1.7893958e-21
2.4904831 	1.0064399 	-0.020455682 	-1.2543748e-22
2.5293273 	1.0038158 	-0.019340417 	-1.9334927e-21
2.5654745 	0.99954211 	-0.018268214 	0
2.5991122 	0.99363022 	-0.017231638 	-7.911998e-22
2.6304145 	0.98608492 	-0.016223187 	-2.4895537e-21
2.6595435 	0.97690852 	-0.015235784 	-1.7258234e-21
2.6866501 	0.96611032 	-0.014263738 	-1.4134885e-21
2.7118748 	0.95371829 	-0.013303533 	-2.4454974e-21
2.7353482 	0.9397898 	-0.012354273 	-2.2981283e-21
2.7571918 	0.9244202 	-0.011417944 	2.8126842e-22
2.7775189 	0.90774553 	-0.010499111 	4.2866218e-23
2.7964348 	0.88993795 	-0.0096041764 	-2.3485834e-21
2.8140373 	0.87119489 	-0.008740391 	-6.0257178e-22
2.8304178 	0.85172509 	-0.0079148588 	4.9766703e-22
2.845661 	0.83173444 	-0.0071337312 	6.8868903e-22
2.8598458 	0.81141456 	-0.0064017019 	1.9533299e-22
2.8730459 	0.7909349 	-0.0057218008 	1.9590421e-22
2.8853295 	0.77043863 	-0.0050954254 	6.6286279e-22
2.8967603 	0.75004153 	-0.0045225262 	4.3980905e-22
2.9073974 	0.72983306 	-0.0040018703 	-2.1594694e-22
2.9172961 	0.70987871 	-0.0035313253 	-6.5847943e-22
2.9265075 	0.69022297 	-0.0031081265 	-4.3587422e-22
2.9350793 	0.67089261 	-0.0027291099 	-2.6907996e-22
2.9430561 	0.65189955 	-0.0023909031 	9.903186e-23
2.950479 	0.63324355 	-0.0020900702 	-3.0728047e-23
2.9573866 	0.61491448 	-0.001823222 	-1.3191217e-22
2.9638146 	0.59689435 	-0.0015870945 	7.8741853e-23
2.9697963 	0.5791588 	-0.0013785992 	-2.6096088e-23
2.9753627 	0.56167825 	-0.001194854 	-6.2764175e-23
2.9805427 	0.54441862 	-0.0010331985 	-1.1715903e-23
2.985363 	0.52734187 	-0.00089119892 	2.5766855e-23
2.9898486 	0.5104062 	-0.00076664532 	3.9155248e-23
2.9940229 	0.493566 	-0.00065754277 	-2.8792363e-25
2.9979073 	0.47677147 	-0.00056209962 	-1.3612539e-23
3.001522 	0.45996795 	-0.00047871361 	-1.9822996e-23
3.0048858 	0.44309482 	-0.00040595689 	7.1787411e-24
3.008016 	0.42608405 	-0.00034256124 	2.7035509e-23
3.0109289 	0.40885799 	-0.00028740338 	2.1174634e-23
3.0136396 	0.3913264 	-0.00023949097 	2.119777e-23
3.016162 	0.37338222 	-0.00019794968 	7.6602644e-24
3.0185094 	0.35489548 	-0.00016201118 	7.6642589e-24
3.0206937 	0.3357045 	-0.00013100246 	0
3.0227264 	0.3156025 	-0.00010433628 	1.3547362e-23
3.024618 	0.29431713 	-8.1503155e-05 	3.817573e-24
3.0263783 	0.27147784 	-6.2065355e-05 	-9.7348122e-24
3.0280163 	0.24656282 	-4.5653571e-05 	-5.8672303e-24
3.0295406 	0.21881325 	-3.1966263e-05 	-1.2683813e-23
3.0309591 	0.18711041 	-2.0769885e-05 	-6.8166527e-24
3.0322791 	0.14991142 	-1.1912453e-05 	4.9026152e-24
3.0335075 	0.10580556 	-5.4005509e-06 	1.0456893e-23
3.0346506 	0.05546865 	-1.3171214e-06 	5.5534915e-24
3.0357143 	0 	0 	0
