0 	0 	0 	0 	0 	0 	0
0.0010637159 	0.0019577879 	-0.00025783282 	-4.1913692e-27 	0.0019586232 	-8.2228691e-26 	0.0019582052
0.0022067933 	0.0032102394 	-0.00065169475 	2.5502256e-26 	0.0032145204 	-2.6611934e-25 	0.0032123733
0.0034351532 	0.0042407251 	-0.0010247192 	1.74069e-26 	0.0042527001 	9.6907951e-25 	0.0042467103
0.0047551584 	0.0050507805 	-0.0012730384 	-1.919788e-25 	0.005074897 	1.1751627e-24 	0.005062854
0.0061736463 	0.00571233 	-0.0014334597 	-1.1643442e-25 	0.0057527141 	-1.8027456e-24 	0.0057325411
0.0076979646 	0.0062773609 	-0.0015470296 	3.3022794e-25 	0.0063378615 	-1.364162e-24 	0.0063076238
0.0093360089 	0.0067772083 	-0.0016354103 	2.7635207e-25 	0.0068615547 	9.6312088e-25 	0.0068193888
0.011096264 	0.0072310798 	-0.0017097091 	-9.2560653e-27 	0.0073430229 	1.2977393e-25 	0.0072870561
0.012987848 	0.0076513388 	-0.0017760681 	-1.1068774e-25 	0.007794738 	-4.0055849e-25 	0.0077230419
0.015020559 	0.0080463398 	-0.0018381769 	-8.5105613e-25 	0.0082252169 	-3.3738519e-25 	0.0081357809
0.017204926 	0.0084219739 	-0.001898429 	1.4940426e-25 	0.0086405527 	2.1266194e-24 	0.0085312653
0.019552264 	0.0087825495 	-0.0019584922 	-8.1498269e-25 	0.0090452874 	2.8267249e-24 	0.0089139199
0.022074732 	0.0091313159 	-0.0020196091 	-1.4990176e-24 	0.0094429302 	-1.9196797e-24 	0.0092871241
0.024785396 	0.0094707918 	-0.0020827655 	-4.8150812e-25 	0.0098362811 	-1.1938907e-24 	0.0096535372
0.027698296 	0.0098029786 	-0.0021487933 	1.1022945e-24 	0.010227641 	-7.8778488e-25 	0.01001531
0.030828522 	0.010129502 	-0.002218431 	-7.0981509e-24 	0.010618949 	-6.2611583e-24 	0.010374226
0.034192287 	0.010451712 	-0.0022923614 	-3.1974803e-24 	0.011011881 	-9.0479616e-24 	0.010731797
0.037807015 	0.010770753 	-0.002371244 	7.2451392e-24 	0.011407914 	-5.4139788e-24 	0.011089333
0.04169143 	0.011087615 	-0.0024557332 	-6.9740775e-25 	0.011808376 	1.2093083e-23 	0.011447995
0.045865653 	0.011403175 	-0.0025464935 	-7.408128e-24 	0.012214478 	1.2397945e-23 	0.011808827
0.050351306 	0.011718231 	-0.0026442073 	-6.1193741e-24 	0.012627344 	-3.5312992e-24 	0.012172787
0.055171623 	0.012033517 	-0.0027495845 	-1.1896955e-23 	0.013048025 	5.5199983e-24 	0.012540771
0.060351574 	0.012349737 	-0.0028633788 	-9.9097787e-24 	0.013477513 	-1.9141812e-23 	0.012913625
0.06591799 	0.012667572 	-0.0029863846 	5.133229e-24 	0.01391675 	-2.9471266e-23 	0.01329216
0.071899704 	0.012987704 	-0.003119441 	3.8140508e-23 	0.014366632 	-7.8143385e-24 	0.013677167
0.078327701 	0.013310826 	-0.0032634476 	7.3652582e-23 	0.014828013 	-9.3651178e-24 	0.014069419
0.085235276 	0.013637661 	-0.0034193639 	4.5540947e-23 	0.015301703 	1.4554527e-23 	0.014469681
0.092658211 	0.01396897 	-0.0035882106 	2.8305227e-23 	0.015788463 	-5.4809478e-24 	0.014878715
0.10063495 	0.014305572 	-0.0037710721 	3.9284986e-23 	0.016289 	1.256433e-23 	0.015297285
0.10920683 	0.014648352 	-0.0039691007 	2.7020702e-25 	0.016803959 	1.1430512e-22 	0.015726154
0.11841823 	0.014998276 	-0.0041835229 	-1.0103169e-22 	0.017333909 	9.832011e-23 	0.016166091
0.12831687 	0.015356407 	-0.004415629 	-1.4721421e-22 	0.017879326 	-7.4075797e-23 	0.016617865
0.13895403 	0.01572391 	-0.0046667709 	3.8417808e-23 	0.018440575 	-1.4160811e-22 	0.017082241
0.1503848 	0.016102069 	-0.0049383591 	5.4259877e-23 	0.019017886 	-1.1260184e-22 	0.017559976
0.1626684 	0.016492291 	-0.005231848 	1.5905536e-22 	0.019611323 	-8.3671972e-23 	0.018051806
0.17586845 	0.016896113 	-0.0055487184 	2.3791923e-22 	0.020220749 	1.8065372e-22 	0.01855843
0.19005333 	0.017315198 	-0.0058904584 	-2.0066842e-22 	0.020845787 	3.8438881e-22 	0.019080492
0.20529651 	0.01775133 	-0.0062585315 	-4.0199651e-22 	0.02148576 	1.1870265e-22 	0.019618546
0.22167696 	0.018206402 	-0.0066543264 	-2.496561e-22 	0.022139642 	-1.013478e-23 	0.020173024
0.23927951 	0.018682373 	-0.0070791072 	-7.7874919e-22 	0.022805976 	-4.1950876e-23 	0.020744177
0.25819535 	0.01918122 	-0.0075339366 	-6.6606752e-23 	0.023482789 	-5.4474007e-22 	0.02133201
0.27852246 	0.01970487 	-0.0080195741 	6.7327259e-22 	0.024167488 	-6.6661159e-22 	0.021936187
0.30036613 	0.020255084 	-0.0085363618 	9.7077027e-22 	0.024856737 	-1.6751566e-22 	0.022555921
0.32383951 	0.020833311 	-0.0090840668 	4.9537309e-22 	0.025546301 	7.0641095e-22 	0.02318982
0.34906419 	0.021440477 	-0.0096616876 	-5.6350035e-22 	0.026230874 	6.6591713e-22 	0.023835694
0.37617083 	0.022076721 	-0.010267214 	-3.3985997e-22 	0.026903865 	4.7811666e-22 	0.024490316
0.40529983 	0.022741037 	-0.010897335 	-1.3623627e-21 	0.027557148 	2.200923e-22 	0.025149122
0.43660209 	0.023430817 	-0.011547095 	-9.7601366e-22 	0.028180781 	-8.2231753e-22 	0.025805836
0.47023974 	0.024141279 	-0.012209474 	-2.2243844e-21 	0.02876269 	1.1464605e-22 	0.026452028
0.50638702 	0.02486476 	-0.012874914 	-6.1440941e-22 	0.029288319 	6.2861487e-22 	0.027076592
0.54523117 	0.02558988 	-0.013530788 	5.3670022e-22 	0.029740302 	4.530948e-22 	0.027665149
0.5869734 	0.026300577 	-0.014160854 	-1.8444049e-21 	0.030098171 	3.6014701e-22 	0.028199428
0.63182993 	0.026975059 	-0.014744812 	-3.3986154e-21 	0.03033807 	-1.1985665e-21 	0.028656648
0.6800331 	0.02758453 	-0.015257606 	7.9104459e-23 	0.030432471 	2.3742515e-22 	0.029008608
0.73183261 	0.028091986 	-0.015668373 	-6.5530982e-22 	0.030350683 	2.7851879e-21 	0.029221397
0.78749677 	0.028455196 	-0.015944168 	-8.6963991e-21 	0.030063949 	9.7312637e-22 	0.029259627
0.84731391 	0.028624162 	-0.01604828 	-1.0249719e-20 	0.029543168 	-1.0642722e-21 	0.029083731
0.91159388 	0.028542213 	-0.015941682 	-3.234946e-21 	0.028760669 	-7.0275724e-22 	0.028651472
0.98066963 	0.028155178 	-0.015590829 	-2.0569768e-21 	0.027700408 	1.0497741e-21 	0.027927777
1.054899 	0.027418905 	-0.014972539 	-6.7432959e-21 	0.0263633 	9.4656816e-22 	0.026891027
1.1346664 	0.02631176 	-0.014083352 	-1.8708487e-21 	0.024774487 	-1.4527748e-21 	0.025542962
1.2203851 	0.024849281 	-0.012949164 	4.8015906e-21 	0.022988659 	-4.7667865e-22 	0.02391876
1.3124991 	0.023094534 	-0.011630239 	1.5096663e-21 	0.02108875 	1.0548708e-21 	0.022091344
1.4114856 	0.021154763 	-0.0102235 	6.7353974e-21 	0.019171653 	3.2336775e-22 	0.020162887
1.5178571 	0.019185827 	-0.008851333 	8.9007288e-21 	0.017343776 	9.9686233e-22 	0.0182648
1.6242287 	0.017388596 	-0.0076298829 	-1.0296478e-20 	0.015729867 	1.5861843e-22 	0.016559436
1.7232152 	0.015863305 	-0.0065945982 	-7.8446806e-21 	0.014373508 	-2.0422921e-21 	0.015118551
1.8153292 	0.014571541 	-0.00570774 	-2.6665219e-21 	0.013220425 	-8.991763e-23 	0.01389609
1.9010479 	0.013453821 	-0.004926457 	-6.9314493e-21 	0.012214201 	1.7021738e-21 	0.012834083
1.9808153 	0.012467217 	-0.0042193677 	-3.7510771e-21 	0.011319578 	-3.029729e-22 	0.011893445
2.0550447 	0.011583482 	-0.0035658541 	-3.8341973e-21 	0.010515646 	-4.7146003e-22 	0.011049593
2.1241204 	0.01078601 	-0.0029540763 	-8.8417045e-22 	0.0097910013 	9.8970194e-22 	0.010288524
2.1884004 	0.010065998 	-0.0023779656 	-4.9186571e-21 	0.00913981 	3.7635592e-22 	0.0096029159
2.2482175 	0.0094195679 	-0.0018347307 	-1.0207961e-20 	0.0085593355 	-7.4388417e-22 	0.0089894616
2.3038817 	0.0088457932 	-0.0013230231 	-2.5569174e-21 	0.0080485438 	-1.0194657e-21 	0.008447178
2.3556812 	0.0083454188 	-0.00084169621 	1.3372865e-21 	0.0076073721 	-2.9669176e-22 	0.0079764041
2.4038844 	0.0079200987 	-0.0003890712 	2.4883751e-21 	0.0072363795 	4.8694902e-22 	0.007578246
2.4487409 	0.0075720235 	3.7388629e-05 	3.7668589e-21 	0.0069366078 	5.8098349e-22 	0.0072543232
2.4904831 	0.0073037799 	0.00044115353 	-1.2185025e-21 	0.0067095529 	2.5074852e-22 	0.0070066785
2.5293273 	0.0071183858 	0.00082665425 	-3.0261702e-21 	0.0065573415 	-2.9095835e-22 	0.0068378811
2.5654745 	0.0070184276 	0.0011990868 	-4.7814221e-22 	0.0064821923 	-3.8977624e-22 	0.0067503289
2.5991122 	0.007004275 	0.0015634581 	5.6111218e-22 	0.0064849824 	8.4689686e-23 	0.0067446441
2.6304145 	0.0070745096 	0.0019239177 	-1.4432934e-21 	0.0065655435 	3.4355021e-22 	0.0068200383
2.6595435 	0.0072252301 	0.0022829824 	-1.7186229e-21 	0.0067217739 	1.8800606e-23 	0.0069735107
2.6866501 	0.0074484395 	0.0026407883 	-1.108871e-21 	0.0069478645 	-4.6917109e-22 	0.0071981574
2.7118748 	0.0077325006 	0.0029951874 	-3.5864136e-22 	0.0072344223 	-5.9170156e-22 	0.0074834647
2.7353482 	0.0080627789 	0.0033420373 	1.5163641e-21 	0.0075688672 	-1.1810498e-24 	0.0078158248
2.7571918 	0.0084229463 	0.0036759166 	4.9571324e-22 	0.007936512 	3.1326061e-22 	0.0081797299
2.7775189 	0.0087965846 	0.0039910505 	-6.5341608e-22 	0.0083220217 	1.500941e-22 	0.0085593032
2.7964348 	0.0091686783 	0.0042822003 	-5.7740633e-22 	0.0087108589 	-1.2640394e-23 	0.0089397683
2.8140373 	0.0095266795 	0.0045453108 	-4.6525801e-22 	0.0090903973 	-2.1497118e-22 	0.0093085377
2.8304178 	0.0098610244 	0.0047778324 	-2.0952984e-22 	0.0094505523 	-1.4645704e-22 	0.0096557873
2.845661 	0.010165159 	0.0049787365 	-1.2658045e-22 	0.0097839507 	7.84831e-23 	0.0099745542
2.8598458 	0.01043523 	0.0051483195 	4.4395489e-23 	0.010085764 	1.6467033e-22 	0.010260495
2.8730459 	0.010669624 	0.005287951 	-6.4878384e-23 	0.010353369 	9.5613133e-24 	0.010511494
2.8853295 	0.010868352 	0.0053996962 	-5.0281721e-23 	0.010585816 	-4.1997738e-23 	0.010727083
2.8967603 	0.011032595 	0.0054860565 	3.7791228e-23 	0.010783416 	4.9222173e-23 	0.010908005
2.9073974 	0.011164346 	0.0055497948 	-4.7766108e-23 	0.010947435 	5.6148141e-23 	0.01105589
2.9172961 	0.011266004 	0.0055936883 	-7.4668312e-23 	0.011079703 	-1.1269853e-23 	0.011172853
2.9265075 	0.011340116 	0.0056204164 	-2.4392395e-22 	0.011182373 	-6.9456478e-23 	0.011261243
2.9350793 	0.011389219 	0.0056324714 	-1.957162e-22 	0.011257722 	-4.8482161e-23 	0.01132347
2.9430561 	0.011415742 	0.0056320405 	4.9659861e-23 	0.011308012 	-3.5984793e-23 	0.011361876
2.950479 	0.011421898 	0.0056210915 	6.3371854e-23 	0.011335409 	1.1404023e-23 	0.011378652
2.9573866 	0.011409664 	0.0056014446 	-2.6744114e-23 	0.011341913 	6.7285987e-23 	0.011375788
2.9638146 	0.011380766 	0.005574552 	-9.1588424e-23 	0.011329302 	3.4684378e-23 	0.011355034
2.9697963 	0.011336647 	0.0055415898 	-1.10408e-22 	0.011299123 	-2.3290941e-23 	0.011317885
2.9753627 	0.011278472 	0.0055036235 	-3.7231095e-23 	0.011252686 	-3.1569056e-23 	0.011265579
2.9805427 	0.011207123 	0.005461444 	-2.3175354e-23 	0.01119105 	-2.0855087e-23 	0.011199087
2.985363 	0.011123213 	0.0054155664 	1.7723178e-23 	0.011115011 	-1.8119161e-23 	0.011119112
2.9898486 	0.011027079 	0.0053663375 	5.3367454e-23 	0.011025095 	4.5295671e-25 	0.011026087
2.9940229 	0.010918777 	0.00531392 	-4.2730881e-24 	0.010921555 	7.7568695e-24 	0.010920166
2.9979073 	0.010798073 	0.0052582723 	-1.8083349e-23 	0.010804349 	8.1904756e-24 	0.010801211
3.001522 	0.010664422 	0.0051991476 	-1.7038386e-24 	0.010673114 	7.1700703e-25 	0.010668768
3.0048858 	0.010516933 	0.0051360806 	-7.1248635e-27 	0.010527128 	-7.6881211e-24 	0.01052203
3.008016 	0.010354316 	0.0050683553 	1.1246606e-24 	0.010365258 	-2.2259752e-24 	0.010359787
3.0109289 	0.010174803 	0.0049949502 	3.7913012e-24 	0.010185875 	-3.0835913e-24 	0.010180339
3.0136396 	0.0099760296 	0.0049144505 	7.1662213e-24 	0.0099867466 	-4.1083743e-24 	0.0099813881
3.016162 	0.0097548755 	0.0048249122 	7.3017068e-24 	0.0097648661 	2.0260247e-24 	0.0097598708
3.0185094 	0.0095072168 	0.0047236518 	2.7837534e-24 	0.0095162121 	6.2062086e-24 	0.0095117145
3.0206937 	0.0092275677 	0.0046069041 	-3.1526487e-24 	0.0092353892 	2.9707505e-24 	0.0092314786
3.0227264 	0.0089085382 	0.0044692553 	-1.9990536e-24 	0.0089150874 	5.1654811e-26 	0.008911813
3.024618 	0.0085400046 	0.0043026709 	-4.7783471e-26 	0.008545254 	1.1837853e-24 	0.0085426296
3.0263783 	0.0081078281 	0.0040947631 	-3.7030341e-25 	0.0081118141 	1.6551113e-24 	0.0081098216
3.0280163 	0.007591914 	0.0038256027 	-5.2706869e-25 	0.0075947312 	-4.3781164e-25 	0.0075933235
3.0295406 	0.0069636222 	0.0034619359 	5.2863299e-26 	0.0069654216 	-1.2014586e-24 	0.0069645231
3.0309591 	0.0061844796 	0.0029493907 	1.3022246e-25 	0.0061854677 	-7.9034182e-26 	0.0061849744
3.0322791 	0.0052192529 	0.0022260565 	6.0767516e-26 	0.0052196838 	5.4684706e-25 	0.0052194676
3.0335075 	0.004116787 	0.0013526423 	-4.1188817e-26 	0.0041169211 	1.9832887e-25 	0.0041168522
3.0346506 	0.0032075845 	0.00064736748 	-1.3636241e-26 	0.0032076104 	-1.499279e-25 	0.0032075969
3.0357143 	0 	0 	0 	0 	0 	0
