/*--------------------------------*- C++ -*----------------------------------*\
| =========                 |                                                 |
| \\      /  F ield         | OpenFOAM: The Open Source CFD Toolbox           |
|  \\    /   O peration     | Version:  2.4.0                                 |
|   \\  /    A nd           | Web:      www.OpenFOAM.org                      |
|    \\/     M anipulation  |                                                 |
\*---------------------------------------------------------------------------*/
FoamFile
{
    version     2.0;
    format      ascii;
    class       surfaceScalarField;
    location    "240";
    object      phi;
}
// * * * * * * * * * * * * * * * * * * * * * * * * * * * * * * * * * * * * * //

dimensions      [0 3 -1 0 0 0 0];

internalField   nonuniform List<scalar> 
63640
(
5.7786625e-07
-5.5364953e-08
5.7212919e-07
5.7370639e-09
5.834699e-07
-1.13407e-08
3.8216418e-07
2.0130573e-07
1.2645344e-07
2.5571074e-07
-1.1552977e-07
2.4198322e-07
-2.1879491e-07
1.0326514e-07
-2.067382e-07
-1.2056703e-08
-1.6672738e-07
-4.0010815e-08
-1.3993454e-07
-2.6792844e-08
-1.252469e-07
-1.4687638e-08
-1.1462717e-07
-1.0619725e-08
-1.0462031e-07
-1.0006858e-08
-9.4654886e-08
-9.9654305e-09
-8.3986412e-08
-1.0668442e-08
-7.3818852e-08
-1.0167588e-08
-6.4818454e-08
-9.0003811e-09
-5.6680157e-08
-8.1383251e-09
-4.8365616e-08
-8.3145383e-09
-3.9893178e-08
-8.4724468e-09
-3.0643125e-08
-9.25005e-09
-2.0153105e-08
-1.049002e-08
-8.7023982e-09
-1.1450706e-08
4.0116337e-09
-1.2714034e-08
1.7706714e-08
-1.3695082e-08
3.1451536e-08
-1.3744825e-08
4.3859251e-08
-1.2407717e-08
5.363201e-08
-9.7727643e-09
5.9977118e-08
-6.3451113e-09
6.1994963e-08
-2.0178497e-09
5.8846238e-08
3.1487202e-09
5.0109026e-08
8.7372073e-09
3.6093603e-08
1.4015423e-08
1.800846e-08
1.8085135e-08
-2.2543235e-09
2.0262786e-08
-2.2523728e-08
2.0269396e-08
-4.0922746e-08
1.8399021e-08
-5.661366e-08
1.5690903e-08
-6.9494618e-08
1.2880959e-08
-7.9469539e-08
9.9749096e-09
-8.654966e-08
7.0801205e-09
-9.1088912e-08
4.5392402e-09
-9.3590541e-08
2.5016282e-09
-9.4494799e-08
9.0424685e-10
-9.3787487e-08
-7.0731334e-10
-9.1781642e-08
-2.0058573e-09
-8.7924609e-08
-3.8570335e-09
-7.8951242e-08
-8.9733812e-09
-6.4769739e-08
-1.4181507e-08
-4.6432815e-08
-1.8336941e-08
-2.5004578e-08
-2.1428254e-08
-1.9684653e-09
-2.3036125e-08
2.1275578e-08
-2.3244084e-08
4.3297678e-08
-2.2022086e-08
6.2499804e-08
-1.9202155e-08
7.7194617e-08
-1.4694792e-08
8.5955944e-08
-8.7613725e-09
8.7975011e-08
-2.0190435e-09
8.3446256e-08
4.5287172e-09
7.3545316e-08
9.9009819e-09
6.0292341e-08
1.3252966e-08
4.6285839e-08
1.4006516e-08
3.4109707e-08
1.2176131e-08
2.5875902e-08
8.2338043e-09
2.3123435e-08
2.7524474e-09
2.7025808e-08
-3.9023646e-09
3.8535112e-08
-1.1509326e-08
5.8381233e-08
-1.9846107e-08
8.6826544e-08
-2.8445328e-08
1.2325929e-07
-3.6432724e-08
1.6595213e-07
-4.2692842e-08
2.1220104e-07
-4.6248898e-08
2.5876775e-07
-4.6566703e-08
3.0253226e-07
-4.376452e-08
3.41141e-07
-3.8608742e-08
3.7336834e-07
-3.2227346e-08
3.9909218e-07
-2.5723859e-08
4.1904998e-07
-1.9957794e-08
4.3458646e-07
-1.5536487e-08
4.4746889e-07
-1.2882419e-08
4.5972142e-07
-1.2252547e-08
4.7342945e-07
-1.3708024e-08
4.9050632e-07
-1.7076884e-08
5.1250472e-07
-2.1998384e-08
5.4046299e-07
-2.7958276e-08
5.7481139e-07
-3.4348392e-08
6.1537034e-07
-4.0558936e-08
6.6134843e-07
-4.5978104e-08
7.1125056e-07
-4.9902138e-08
7.6267434e-07
-5.1423786e-08
8.1186505e-07
-4.9190714e-08
8.5285499e-07
-4.0989962e-08
8.7680995e-07
-2.3954974e-08
8.734338e-07
3.3761096e-09
8.3405796e-07
3.937585e-08
7.5317138e-07
8.0886549e-08
6.3126157e-07
1.2190983e-07
4.7756033e-07
1.5370117e-07
3.1380496e-07
1.637554e-07
1.7346191e-07
1.4034299e-07
9.2824279e-08
8.0637702e-08
1.0479173e-07
-1.1967454e-08
1.8672168e-07
-8.1929945e-08
2.7093342e-07
-8.421176e-08
3.4967154e-07
-7.8738103e-08
4.5272459e-07
-1.0305307e-07
5.8302207e-07
-1.3029745e-07
7.3975017e-07
-1.5672814e-07
9.230721e-07
-1.833219e-07
1.1263039e-06
-2.0323181e-07
1.3328742e-06
-2.0657031e-07
1.5133194e-06
-1.8044516e-07
1.6246343e-06
-1.1131487e-07
1.6169095e-06
7.7248092e-09
1.4469957e-06
1.6991376e-07
1.1009781e-06
3.4601757e-07
6.2144874e-07
4.7952939e-07
1.2415859e-07
4.9729009e-07
-2.3509352e-07
3.5925216e-07
-3.3653568e-07
1.0144214e-07
-2.6118822e-07
-7.5347423e-08
-2.1288819e-07
-4.8300045e-08
-2.1757631e-07
4.6881237e-09
-1.9151089e-07
-2.606544e-08
-1.258536e-07
-6.565727e-08
-6.4383389e-08
-6.1470222e-08
-2.504824e-08
-3.9335135e-08
5.422198e-09
-3.0470472e-08
4.0502928e-08
-3.5080698e-08
7.6906246e-08
-3.640334e-08
1.0383132e-07
-2.6925035e-08
1.1524396e-07
-1.1412666e-08
1.1117047e-07
4.0735192e-09
9.2525437e-08
1.8645014e-08
5.6566928e-08
3.5958548e-08
-3.5996907e-09
6.016663e-08
-9.5896906e-08
9.2297223e-08
-2.2548687e-07
1.2958996e-07
-3.9228266e-07
1.667958e-07
-5.9063705e-07
1.9835438e-07
-8.1091386e-07
2.2027683e-07
-1.0419651e-06
2.3105121e-07
-1.2735093e-06
2.3154423e-07
-1.4977998e-06
2.2429051e-07
-1.7101947e-06
2.1239495e-07
-1.9088709e-06
1.9867621e-07
-2.0941347e-06
1.8526381e-07
-2.2677002e-06
1.7356543e-07
-2.4311796e-06
1.6347939e-07
-2.5856191e-06
1.5443952e-07
-2.7225838e-06
1.3696471e-07
-2.8246715e-06
1.0208769e-07
-2.7306984e-06
-9.3973052e-08
-2.2894733e-06
-4.4122501e-07
-1.9365204e-06
-3.5295302e-07
-1.7331114e-06
-2.0340895e-07
-1.5845218e-06
-1.485896e-07
-1.4805587e-06
-1.0396305e-07
-1.4059414e-06
-7.4617326e-08
-1.3494933e-06
-5.6448081e-08
-1.3083947e-06
-4.1098582e-08
-1.2780621e-06
-3.033264e-08
-1.2543842e-06
-2.367786e-08
-1.2360475e-06
-1.833675e-08
-1.2292495e-06
-6.7979506e-09
-1.2377597e-06
8.5101501e-09
-1.2520923e-06
1.4332653e-08
-1.2639891e-06
1.1896787e-08
-1.2700735e-06
6.0844387e-09
-1.2680493e-06
-2.0242274e-09
-1.2566338e-06
-1.141552e-08
-1.2352428e-06
-2.1390967e-08
-1.2022642e-06
-3.2978626e-08
-1.1528275e-06
-4.9436689e-08
-1.0843452e-06
-6.8482248e-08
-9.9962517e-07
-8.4720048e-08
-9.0558343e-07
-9.4041743e-08
-8.0561452e-07
-9.9968908e-08
-7.013654e-07
-1.0424912e-07
-5.9463162e-07
-1.0673377e-07
-4.8652748e-07
-1.0810414e-07
-3.7711485e-07
-1.0941263e-07
-2.6697639e-07
-1.1013846e-07
-1.4665854e-07
-1.2031785e-07
-2.8685694e-09
-1.4378996e-07
1.5736259e-07
-1.6023112e-07
3.3168012e-07
-1.7431754e-07
5.3587979e-07
-2.0419961e-07
7.8389227e-07
-2.4801253e-07
1.0898098e-06
-3.059175e-07
1.458606e-06
-3.6879619e-07
1.8674145e-06
-4.0880855e-07
2.2072493e-06
-3.3983478e-07
2.2793081e-06
-7.2058797e-08
2.0397581e-06
2.3955003e-07
1.6327518e-06
4.070063e-07
1.1857502e-06
4.4700161e-07
8.4879338e-07
3.3695677e-07
5.5686465e-07
2.9192872e-07
3.4363348e-08
1.9000417e-06
-1.9769167e-07
1.8457925e-06
5.9986237e-08
1.896136e-06
-6.1684188e-08
1.2608207e-06
8.3662112e-07
4.5892934e-07
1.0576021e-06
-3.2385121e-07
1.0247638e-06
-6.7897641e-07
4.5839034e-07
-6.5671216e-07
-3.4320947e-08
-5.3386995e-07
-1.6285301e-07
-4.4892341e-07
-1.1173939e-07
-4.015646e-07
-6.2046445e-08
-3.6745841e-07
-4.4725911e-08
-3.354279e-07
-4.2037368e-08
-3.0356203e-07
-4.1831309e-08
-2.6970726e-07
-4.452317e-08
-2.3727851e-07
-4.2596375e-08
-2.0857943e-07
-3.7699442e-08
-1.8253115e-07
-3.4186639e-08
-1.5608089e-07
-3.4764792e-08
-1.290483e-07
-3.5505045e-08
-9.96759e-08
-3.8622449e-08
-6.641266e-08
-4.3753259e-08
-3.0095229e-08
-4.7768135e-08
1.0180433e-08
-5.2989699e-08
5.3672343e-08
-5.7186993e-08
9.7462546e-08
-5.7535033e-08
1.3714654e-07
-5.2091717e-08
1.6862816e-07
-4.1254395e-08
1.8940683e-07
-2.7123782e-08
1.9664302e-07
-9.2540444e-09
1.876362e-07
1.2155538e-08
1.6094378e-07
3.5429617e-08
1.1736248e-07
5.7596721e-08
6.051419e-08
7.4933413e-08
-3.7700507e-09
8.4547027e-08
-6.8607995e-08
8.510733e-08
-1.2777549e-07
7.7566518e-08
-1.7830302e-07
6.6218417e-08
-2.1974471e-07
5.4322655e-08
-2.5177131e-07
4.2001492e-08
-2.7440463e-07
2.9713443e-08
-2.8876741e-07
1.8902003e-08
-2.9644554e-07
1.0179751e-08
-2.9886626e-07
3.3249509e-09
-2.9595037e-07
-3.6232045e-09
-2.886603e-07
-9.2959444e-09
-2.7483386e-07
-1.768347e-08
-2.4494167e-07
-3.8865589e-08
-1.9841005e-07
-6.0713141e-08
-1.3867896e-07
-7.8068046e-08
-6.9130948e-08
-9.0976291e-08
5.4287024e-09
-9.7595793e-08
8.0632417e-08
-9.8447849e-08
1.5195274e-07
-9.33424e-08
2.1436247e-07
-8.1611917e-08
2.625266e-07
-6.2858899e-08
2.9192169e-07
-3.8156512e-08
2.9992563e-07
-1.0022966e-08
2.8705021e-07
1.7404092e-08
2.5688016e-07
4.007109e-08
2.1566961e-07
5.4463501e-08
1.7157123e-07
5.8104916e-08
1.3277785e-07
5.0969507e-08
1.0605432e-07
3.4957332e-08
9.6401482e-08
1.2405263e-08
1.0769701e-07
-1.5197884e-08
1.4308846e-07
-4.6900801e-08
2.0492238e-07
-8.1680012e-08
2.9401941e-07
-1.1754238e-07
4.0839248e-07
-1.5080577e-07
5.4253093e-07
-1.768313e-07
6.878806e-07
-1.9159855e-07
8.3425677e-07
-1.9294286e-07
9.7188372e-07
-1.8139148e-07
1.0933936e-06
-1.6011862e-07
1.1949278e-06
-1.3376159e-07
1.2760517e-06
-1.0684776e-07
1.3390066e-06
-8.2912625e-08
1.3879351e-06
-6.4465017e-08
1.428309e-06
-5.3256384e-08
1.4664048e-06
-5.0348276e-08
1.5086843e-06
-5.5987568e-08
1.56107e-06
-6.9462651e-08
1.6283667e-06
-8.9295017e-08
1.7138003e-06
-1.1339193e-07
1.8187485e-06
-1.392965e-07
1.9427487e-06
-1.6455919e-07
2.0835001e-06
-1.8672949e-07
2.2366089e-06
-2.0301091e-07
2.3949875e-06
-2.0980239e-07
2.5474521e-06
-2.0165536e-07
2.6760308e-06
-1.6956869e-07
2.7538347e-06
-1.0175891e-07
2.7492022e-06
8.0085385e-09
2.6347296e-06
1.5384844e-07
2.3918658e-06
3.2375037e-07
2.0200891e-06
4.9368657e-07
1.5447012e-06
6.29089e-07
1.0305242e-06
6.7793243e-07
5.7925403e-07
5.9161307e-07
3.0757935e-07
3.5231247e-07
3.2426509e-07
-2.8653198e-08
5.6454552e-07
-3.2221037e-07
8.1840437e-07
-3.3807064e-07
1.0583907e-06
-3.1872445e-07
1.3754321e-06
-4.2009446e-07
1.7781828e-06
-5.3304812e-07
2.2629782e-06
-6.4152361e-07
2.8300245e-06
-7.5036809e-07
3.459248e-06
-8.3245532e-07
4.101163e-06
-8.4848526e-07
4.6678537e-06
-7.4713596e-07
5.0306465e-06
-4.7410758e-07
5.0385934e-06
-2.221614e-10
4.5568094e-06
6.5169777e-07
3.5309853e-06
1.3718417e-06
2.0731746e-06
1.9373401e-06
5.192473e-07
2.0512173e-06
-6.5452934e-07
1.5330289e-06
-1.0397464e-06
4.866592e-07
-8.4772853e-07
-2.6736528e-07
-7.081769e-07
-1.8785169e-07
-7.2347718e-07
1.9988419e-08
-6.4562913e-07
-1.0391352e-07
-4.4348896e-07
-2.6779741e-07
-2.4897393e-07
-2.5598527e-07
-1.2136151e-07
-1.6694753e-07
-2.3496142e-08
-1.2833588e-07
8.649902e-08
-1.4507582e-07
2.0110618e-07
-1.5101053e-07
2.8795037e-07
-1.1376918e-07
3.271586e-07
-5.0620927e-08
3.1677871e-07
1.4453449e-08
2.5764005e-07
7.7783655e-08
1.3975103e-07
1.5384761e-07
-5.879513e-08
2.5871281e-07
-3.6216641e-07
3.9566851e-07
-7.8505329e-07
5.5247683e-07
-1.3250633e-06
7.0680579e-07
-1.9623436e-06
8.3563471e-07
-2.665076e-06
9.230093e-07
-3.3975263e-06
9.6350148e-07
-4.1274209e-06
9.6143884e-07
-4.8308538e-06
9.2772337e-07
-5.4937515e-06
8.7529266e-07
-6.1107274e-06
8.1565207e-07
-6.6827037e-06
7.5724016e-07
-7.2145039e-06
7.0536564e-07
-7.7098092e-06
6.5878471e-07
-8.169507e-06
6.1413735e-07
-8.5624706e-06
5.2992829e-07
-8.8303801e-06
3.6999716e-07
-8.4869173e-06
-4.3743577e-07
-7.2031592e-06
-1.7249831e-06
-6.1259525e-06
-1.4301598e-06
-5.5006044e-06
-8.2875703e-07
-5.0432527e-06
-6.0594133e-07
-4.7227425e-06
-4.2447325e-07
-4.4912599e-06
-3.0609988e-07
-4.3165779e-06
-2.3113004e-07
-4.1880198e-06
-1.6965676e-07
-4.0924861e-06
-1.2586628e-07
-4.0170788e-06
-9.9085149e-08
-3.9588722e-06
-7.6543338e-08
-3.9358012e-06
-2.9868988e-08
-3.9571914e-06
2.9900329e-08
-3.9953663e-06
5.2507584e-08
-4.0252365e-06
4.176705e-08
-4.0364299e-06
1.7277818e-08
-4.0220739e-06
-1.6380201e-08
-3.9783146e-06
-5.5174826e-08
-3.9033953e-06
-9.6310298e-08
-3.7920468e-06
-1.4432714e-07
-3.6303257e-06
-2.1115772e-07
-3.4106856e-06
-2.8812242e-07
-3.1419827e-06
-3.5342288e-07
-2.8444384e-06
-3.9158602e-07
-2.5288208e-06
-4.1558658e-07
-2.2001008e-06
-4.3296904e-07
-1.8637627e-06
-4.4307188e-07
-1.5231616e-06
-4.4870524e-07
-1.1784035e-06
-4.5417077e-07
-8.3119087e-07
-4.5735105e-07
-4.4994274e-07
-5.0156597e-07
5.3169893e-09
-5.9904968e-07
5.0878206e-07
-6.6369613e-07
1.0550893e-06
-7.2062483e-07
1.6940517e-06
-8.4316189e-07
2.4681631e-06
-1.0221239e-06
3.419837e-06
-1.2575914e-06
4.5625083e-06
-1.5114675e-06
5.8254413e-06
-1.6717416e-06
6.8755828e-06
-1.3899762e-06
7.135816e-06
-3.3229205e-07
6.4524004e-06
9.2296559e-07
5.2356213e-06
1.6237855e-06
3.8590499e-06
1.823573e-06
2.8116612e-06
1.3843455e-06
1.8560944e-06
1.2474956e-06
1.3274272e-07
3.4821654e-06
-4.0676945e-07
3.3571487e-06
1.8500293e-07
3.4425325e-06
-1.4706798e-07
2.3269849e-06
1.9521687e-06
9.0598564e-07
2.4786013e-06
-5.1194462e-07
2.442694e-06
-1.1872584e-06
1.1337041e-06
-1.1725276e-06
-4.9051748e-08
-9.6016474e-07
-3.7521583e-07
-8.0886828e-07
-2.6303585e-07
-7.2340549e-07
-1.4750923e-07
-6.619572e-07
-1.0617421e-07
-6.0439772e-07
-9.9596844e-08
-5.4717083e-07
-9.9058207e-08
-4.8658879e-07
-1.0510517e-07
-4.2839089e-07
-1.0079431e-07
-3.7684327e-07
-8.9247044e-08
-3.2998332e-07
-8.1046618e-08
-2.8255978e-07
-8.2188336e-08
-2.3406255e-07
-8.400228e-08
-1.8152756e-07
-9.1157439e-08
-1.2211339e-07
-1.0316743e-07
-5.7255439e-08
-1.1262608e-07
1.4624537e-08
-1.2486968e-07
9.2376085e-08
-1.3493854e-07
1.7086478e-07
-1.3602373e-07
2.4222209e-07
-1.2344903e-07
2.9913851e-07
-9.8170823e-08
3.3716455e-07
-6.514982e-08
3.5125224e-07
-2.334174e-08
3.3653566e-07
2.6872111e-08
2.9030996e-07
8.1655314e-08
2.1376143e-07
1.3414524e-07
1.1307955e-07
1.7561529e-07
-1.5559945e-09
1.9918257e-07
-1.1788613e-07
2.0143745e-07
-2.2446252e-07
1.8414291e-07
-3.1556286e-07
1.5731875e-07
-3.9020922e-07
1.2896901e-07
-4.4777532e-07
9.9567584e-08
-4.8829166e-07
7.0229775e-08
-5.1375876e-07
4.4369092e-08
-5.2700081e-07
2.3421804e-08
-5.3058196e-07
6.9060885e-09
-5.2436045e-07
-9.8447197e-09
-5.0992196e-07
-2.3734444e-08
-4.8305283e-07
-4.4552606e-08
-4.2761448e-07
-9.4303954e-08
-3.4244247e-07
-1.4588516e-07
-2.3371846e-07
-1.8679207e-07
-1.0753771e-07
-2.1715707e-07
2.7441284e-08
-2.325748e-07
1.6351477e-07
-2.3452138e-07
2.9266789e-07
-2.2249551e-07
4.0600509e-07
-1.9494915e-07
4.9406692e-07
-1.509207e-07
5.4880156e-07
-9.2891207e-08
5.6546047e-07
-2.6681852e-08
5.4479757e-07
3.8066951e-08
4.9297394e-07
9.1894768e-08
4.2088392e-07
1.2655351e-07
3.4289202e-07
1.3609683e-07
2.735696e-07
1.2029193e-07
2.2506287e-07
8.3464057e-08
2.0646418e-07
3.1003931e-08
2.2491616e-07
-3.3649853e-08
2.8621096e-07
-1.0819563e-07
3.9458062e-07
-1.9004965e-07
5.5146772e-07
-2.7442949e-07
7.5327413e-07
-3.5261216e-07
9.9015358e-07
-4.1371075e-07
1.246924e-06
-4.4836896e-07
1.5055934e-06
-4.5161221e-07
1.7489412e-06
-4.2473935e-07
1.9639895e-06
-3.7516689e-07
2.1438978e-06
-3.1366987e-07
2.2878053e-06
-2.507553e-07
2.3995411e-06
-1.9464849e-07
2.4862849e-06
-1.5120875e-07
2.5575675e-06
-1.2453899e-07
2.6243409e-06
-1.1712169e-07
2.6978819e-06
-1.2952853e-07
2.7885213e-06
-1.6010211e-07
2.9046428e-06
-2.0541651e-07
3.0518973e-06
-2.6064638e-07
3.2327594e-06
-3.2015865e-07
3.4465646e-06
-3.7836434e-07
3.6895244e-06
-4.2968934e-07
3.9543258e-06
-4.6781227e-07
4.229117e-06
-4.8459363e-07
4.4950454e-06
-4.6758378e-07
4.7215438e-06
-3.9606709e-07
4.8624913e-06
-2.4270638e-07
4.8630355e-06
7.4642816e-09
4.6746356e-06
3.4224835e-07
4.2628635e-06
7.3552242e-07
3.6235284e-06
1.1330216e-06
2.7960075e-06
1.4566099e-06
1.889086e-06
1.5848539e-06
1.077566e-06
1.4031331e-06
5.7032033e-07
8.595582e-07
5.67338e-07
-2.5670872e-08
9.6491889e-07
-7.1979124e-07
1.3968781e-06
-7.7002989e-07
1.8100471e-06
-7.3189338e-07
2.3605187e-06
-9.7056611e-07
3.0621831e-06
-1.2347125e-06
3.9070391e-06
-1.4863796e-06
4.8948906e-06
-1.7382196e-06
5.9916851e-06
-1.9292498e-06
7.1139181e-06
-1.9707183e-06
8.1133699e-06
-1.7465878e-06
8.7725167e-06
-1.1332543e-06
8.8333154e-06
-6.102084e-08
8.0593251e-06
1.4256881e-06
6.3405308e-06
3.090636e-06
3.841863e-06
4.4360079e-06
1.1139167e-06
4.7791636e-06
-1.0231919e-06
3.6701375e-06
-1.8023509e-06
1.2658182e-06
-1.5319987e-06
-5.3771742e-07
-1.307828e-06
-4.1202238e-07
-1.3372066e-06
4.9367e-08
-1.2049395e-06
-2.3618063e-07
-8.5329274e-07
-6.1944418e-07
-5.0752292e-07
-6.0175511e-07
-2.760046e-07
-3.9846584e-07
-9.9734719e-08
-3.046058e-07
9.4479343e-08
-3.3928985e-07
2.9724636e-07
-3.5377757e-07
4.5369472e-07
-2.702175e-07
5.2746917e-07
-1.243954e-07
5.1209026e-07
2.9832388e-08
4.0585988e-07
1.8401402e-07
1.8889509e-07
3.7081244e-07
-1.7797589e-07
6.2558381e-07
-7.3626824e-07
9.5396086e-07
-1.509391e-06
1.3255996e-06
-2.4896081e-06
1.6870229e-06
-3.6383987e-06
1.9844253e-06
-4.8970683e-06
2.1816789e-06
-6.2013799e-06
2.2678131e-06
-7.4944098e-06
2.2544687e-06
-8.7346709e-06
2.1679845e-06
-9.8981648e-06
2.0387866e-06
-1.0975942e-05
1.8934297e-06
-1.1969604e-05
1.7509022e-06
-1.2886735e-05
1.6224961e-06
-1.3731848e-05
1.5038973e-06
-1.450227e-05
1.3845598e-06
-1.5138332e-05
1.1659903e-06
-1.5527193e-05
7.5885849e-07
-1.4869599e-05
-1.0950304e-06
-1.2725136e-05
-3.8694459e-06
-1.0885181e-05
-3.2701146e-06
-9.8021661e-06
-1.911772e-06
-9.0111025e-06
-1.3970049e-06
-8.4552782e-06
-9.8029744e-07
-8.0523383e-06
-7.0903988e-07
-7.7483165e-06
-5.3515179e-07
-7.5230794e-06
-3.9489382e-07
-7.3546323e-06
-2.9431343e-07
-7.2208152e-06
-2.3290218e-07
-7.1176971e-06
-1.7966144e-07
-7.0748999e-06
-7.2666209e-08
-7.106166e-06
6.1166445e-08
-7.1648369e-06
1.1117847e-07
-7.2079024e-06
8.4832564e-08
-7.2173366e-06
2.6712002e-08
-7.1813487e-06
-5.2368057e-08
-7.093332e-06
-1.4319156e-07
-6.950189e-06
-2.3945329e-07
-6.7424658e-06
-3.5205037e-07
-6.4470224e-06
-5.0660107e-07
-6.0515073e-06
-6.8363753e-07
-5.5716251e-06
-8.3330509e-07
-5.0415194e-06
-9.2169166e-07
-4.4800754e-06
-9.770306e-07
-3.8958685e-06
-1.017176e-06
-3.2983405e-06
-1.0405998e-06
-2.6932189e-06
-1.0538269e-06
-2.0805756e-06
-1.066814e-06
-1.4629341e-06
-1.0749925e-06
-7.8199437e-07
-1.1825057e-06
3.0626399e-08
-1.4116704e-06
9.2451577e-07
-1.5575855e-06
1.8921469e-06
-1.688256e-06
3.0219918e-06
-1.9730067e-06
4.3869106e-06
-2.3870429e-06
6.0584129e-06
-2.9290936e-06
8.0561534e-06
-3.5092081e-06
1.0254326e-05
-3.8699146e-06
1.2082165e-05
-3.2178146e-06
1.2580586e-05
-8.3071353e-07
1.1469421e-05
2.0341305e-06
9.4107861e-06
3.6824208e-06
7.0290612e-06
4.2052979e-06
5.1844365e-06
3.2289701e-06
3.4674691e-06
2.964463e-06
3.2712417e-07
5.3609502e-06
-6.5666913e-07
5.1530002e-06
3.9295293e-07
5.251304e-06
-2.4537178e-07
3.6150465e-06
3.5884262e-06
1.4941287e-06
4.5995192e-06
-6.6413381e-07
4.6009566e-06
-1.741422e-06
2.2109923e-06
-1.7589443e-06
-3.1529482e-08
-1.4517409e-06
-6.8241922e-07
-1.2254862e-06
-4.8929054e-07
-1.0959292e-06
-2.7706619e-07
-1.0027922e-06
-1.9931127e-07
-9.1579936e-07
-1.8658965e-07
-8.2939805e-07
-1.8545952e-07
-7.3816588e-07
-1.963373e-07
-6.5037263e-07
-1.8858759e-07
-5.725017e-07
-1.6711796e-07
-5.0165821e-07
-1.5189014e-07
-4.3012281e-07
-1.5372373e-07
-3.5699639e-07
-1.5712871e-07
-2.7797351e-07
-1.7018032e-07
-1.8873663e-07
-1.9240431e-07
-9.1359551e-08
-2.1000316e-07
1.6515785e-08
-2.3274502e-07
1.33384e-07
-2.5180676e-07
2.5167683e-07
-2.5431656e-07
3.5958225e-07
-2.3135446e-07
4.4611789e-07
-1.8470647e-07
5.0463266e-07
-1.2366459e-07
5.2757656e-07
-4.6285653e-08
5.0758659e-07
4.686208e-08
4.4040591e-07
1.4883598e-07
3.2746657e-07
2.4708458e-07
1.7764939e-07
3.2543246e-07
5.8944622e-09
3.709375e-07
-1.6947391e-07
3.7680582e-07
-3.3078166e-07
3.4545067e-07
-4.6881128e-07
2.9534836e-07
-5.8180534e-07
2.4196306e-07
-6.6875879e-07
1.8652102e-07
-7.2970926e-07
1.3118024e-07
-7.676508e-07
8.2310611e-08
-7.8681814e-07
4.2589138e-08
-7.9105704e-07
1.1144979e-08
-7.80191e-07
-2.0710759e-08
-7.563126e-07
-4.7612863e-08
-7.1280581e-07
-8.8059399e-08
-6.2646096e-07
-1.8064882e-07
-4.9556238e-07
-2.7678374e-07
-3.2934589e-07
-3.5300859e-07
-1.3709013e-07
-4.0941285e-07
6.8135407e-08
-4.3780036e-07
2.7489166e-07
-4.4127767e-07
4.712976e-07
-4.1890145e-07
6.4412425e-07
-3.6777583e-07
7.792955e-07
-2.8609192e-07
8.6477319e-07
-1.7836896e-07
8.9333716e-07
-5.5245807e-08
8.6587573e-07
6.5528348e-08
7.9126494e-07
1.665056e-07
6.8542537e-07
2.3239308e-07
5.6959615e-07
2.5192607e-07
4.6553582e-07
2.2435225e-07
3.9156774e-07
1.5743214e-07
3.6158572e-07
6.0985925e-08
3.8663966e-07
-5.8703783e-08
4.7567674e-07
-1.9723274e-07
6.3511501e-07
-3.494879e-07
8.6708223e-07
-5.0639673e-07
1.1661154e-06
-6.5164532e-07
1.5174514e-06
-7.6504677e-07
1.8984757e-06
-8.2939319e-07
2.282508e-06
-8.3564453e-07
2.644077e-06
-7.8630834e-07
2.9639741e-06
-6.9506405e-07
3.2319936e-06
-5.8168932e-07
3.4466945e-06
-4.6545625e-07
3.6135391e-06
-3.6149312e-07
3.7429516e-06
-2.8062122e-07
3.8488546e-06
-2.3044194e-07
3.9472852e-06
-2.1555234e-07
4.0547671e-06
-2.3701044e-07
4.1864404e-06
-2.9177545e-07
4.3546015e-06
-3.735776e-07
4.5675753e-06
-4.7362017e-07
4.8291033e-06
-5.8168659e-07
5.1384279e-06
-6.8768901e-07
5.4903399e-06
-7.8160132e-07
5.8746473e-06
-8.5211968e-07
6.2747364e-06
-8.846827e-07
6.6639601e-06
-8.5680752e-07
6.9987356e-06
-7.3084261e-07
7.2127668e-06
-4.5673764e-07
7.2262984e-06
-6.0673693e-09
6.9672417e-06
6.0130509e-07
6.3822891e-06
1.320475e-06
5.4602174e-06
2.0550933e-06
4.2517336e-06
2.6650936e-06
2.9091762e-06
2.9274113e-06
1.684791e-06
2.6275182e-06
8.9127093e-07
1.6530784e-06
8.3675886e-07
2.8841184e-08
1.3848746e-06
-1.267907e-06
2.0007416e-06
-1.3858969e-06
2.59825e-06
-1.3294018e-06
3.4015084e-06
-1.7738245e-06
4.4284454e-06
-2.2616495e-06
5.6649587e-06
-2.722893e-06
7.109811e-06
-3.1830719e-06
8.7145669e-06
-3.5340056e-06
1.0361186e-05
-3.6173377e-06
1.1840389e-05
-3.2257902e-06
1.2844077e-05
-2.136943e-06
1.3002032e-05
-2.1897578e-07
1.1966963e-05
2.4607578e-06
9.5568692e-06
5.5007294e-06
5.9677632e-06
8.0251139e-06
1.9520726e-06
8.7948541e-06
-1.3096346e-06
6.9318448e-06
-2.6137611e-06
2.5699446e-06
-2.3182165e-06
-8.3326202e-07
-2.0232338e-06
-7.0700509e-07
-2.0717695e-06
9.790271e-08
-1.8822154e-06
-4.2573473e-07
-1.3675368e-06
-1.1341227e-06
-8.5120535e-07
-1.1180866e-06
-4.9859521e-07
-7.5107596e-07
-2.316728e-07
-5.7152825e-07
5.6782097e-08
-6.2774471e-07
3.5816541e-07
-6.551609e-07
5.9444504e-07
-5.0649708e-07
7.0993828e-07
-2.3988867e-07
6.9049779e-07
4.9272907e-08
5.2866205e-07
3.4584975e-07
1.9130901e-07
7.0816552e-07
-3.8048387e-07
1.1973767e-06
-1.2463512e-06
1.8198282e-06
-2.4367753e-06
2.5160237e-06
-3.9344522e-06
3.1846998e-06
-5.6766131e-06
3.7265862e-06
-7.5722116e-06
4.0772774e-06
-9.5242425e-06
4.219844e-06
-1.1448477e-05
4.1787036e-06
-1.3284626e-05
4.0041332e-06
-1.4998512e-05
3.7526721e-06
-1.6577781e-05
3.4726987e-06
-1.8024794e-05
3.1979161e-06
-1.9349321e-05
2.947023e-06
-2.0555132e-05
2.7097084e-06
-2.1631604e-05
2.4610313e-06
-2.2485337e-05
2.0197233e-06
-2.2933674e-05
1.2071956e-06
-2.1903211e-05
-2.1254928e-06
-1.8878943e-05
-6.893714e-06
-1.6256194e-05
-5.8928635e-06
-1.4683129e-05
-3.4848375e-06
-1.3536489e-05
-2.543645e-06
-1.2727806e-05
-1.7889801e-06
-1.2139631e-05
-1.2972153e-06
-1.1695153e-05
-9.7962921e-07
-1.1363839e-05
-7.2620821e-07
-1.1114076e-05
-5.4407631e-07
-1.0914486e-05
-4.3249241e-07
-1.0760441e-05
-3.3370618e-07
-1.0692905e-05
-1.4020216e-07
-1.0728874e-05
9.7135226e-08
-1.0801914e-05
1.842188e-07
-1.0850366e-05
1.3328437e-07
-1.0847949e-05
2.4294974e-08
-1.0777666e-05
-1.2265072e-07
-1.0630062e-05
-2.9079549e-07
-1.0400489e-05
-4.69027e-07
-1.0075051e-05
-6.7748787e-07
-9.6213345e-06
-9.6031761e-07
-9.0225994e-06
-1.2823726e-06
-8.3019826e-06
-1.5539219e-06
-7.5082599e-06
-1.7154143e-06
-6.6688795e-06
-1.816411e-06
-5.7963304e-06
-1.8897251e-06
-4.9042449e-06
-1.9326852e-06
-4.0007887e-06
-1.9572832e-06
-3.0859211e-06
-1.9816816e-06
-2.16242e-06
-1.9984936e-06
-1.1402565e-06
-2.2046692e-06
7.8411613e-08
-2.6303386e-06
1.411946e-06
-2.8911197e-06
2.8516124e-06
-3.1279224e-06
4.5296162e-06
-3.6510105e-06
6.5505465e-06
-4.4079732e-06
9.0153083e-06
-5.3938554e-06
1.1947652e-05
-6.4415519e-06
1.5159852e-05
-7.0821148e-06
1.7837357e-05
-5.8953196e-06
1.8634556e-05
-1.6279122e-06
1.7129676e-05
3.5390102e-06
1.4212836e-05
6.5992615e-06
1.0763396e-05
7.6547376e-06
8.0266057e-06
5.9657603e-06
5.4614601e-06
5.5296086e-06
6.7753377e-07
7.5832614e-06
-9.1070074e-07
7.2776914e-06
6.9852293e-07
7.3587828e-06
-3.2646321e-07
5.1624154e-06
5.7847936e-06
2.2562221e-06
7.5057125e-06
-7.5993047e-07
7.6171092e-06
-2.3377047e-06
3.7887666e-06
-2.4211549e-06
5.1920688e-08
-2.0154887e-06
-1.0880854e-06
-1.7052544e-06
-7.9952488e-07
-1.5249729e-06
-4.5734764e-07
-1.3952925e-06
-3.2899172e-07
-1.2745338e-06
-3.0734833e-07
-1.1547421e-06
-3.0525124e-07
-1.0285461e-06
-3.2253321e-07
-9.0694504e-07
-3.1018871e-07
-7.9890808e-07
-2.751549e-07
-7.0056907e-07
-2.5022918e-07
-6.0145754e-07
-2.5283527e-07
-5.0021789e-07
-2.5836836e-07
-3.9106314e-07
-2.7933506e-07
-2.6799846e-07
-3.1546899e-07
-1.3376871e-07
-3.442329e-07
1.4878731e-08
-3.8139246e-07
1.7616765e-07
-4.1309568e-07
3.398844e-07
-4.1803332e-07
4.8975496e-07
-3.8122502e-07
6.1062111e-07
-3.0557263e-07
6.9335574e-07
-2.0639922e-07
7.2759919e-07
-8.0529114e-08
7.0311751e-07
7.1343754e-08
6.137717e-07
2.3818179e-07
4.6104343e-07
3.9981285e-07
2.5658558e-07
5.298903e-07
2.0487346e-08
6.0703573e-07
-2.2210927e-07
6.1940242e-07
-4.4621402e-07
5.6955542e-07
-6.3819717e-07
4.873315e-07
-7.9521352e-07
3.9897941e-07
-9.1577895e-07
3.0708644e-07
-9.999346e-07
2.1533589e-07
-1.051798e-06
1.3417404e-07
-1.0771996e-06
6.7990652e-08
-1.0814205e-06
1.5365912e-08
-1.0642827e-06
-3.7848609e-08
-1.0282257e-06
-8.3669828e-08
-9.6385405e-07
-1.5243107e-07
-8.4048683e-07
-3.0401605e-07
-6.5593072e-07
-4.6133986e-07
-4.2279604e-07
-5.8614328e-07
-1.5406935e-07
-6.7813956e-07
1.3215982e-07
-7.2402954e-07
4.2032007e-07
-7.2943796e-07
6.9429597e-07
-6.9287735e-07
9.3604236e-07
-6.0952224e-07
1.1263611e-06
-4.7641065e-07
1.2487471e-06
-3.0075503e-07
1.2931274e-06
-9.9626077e-08
1.2603757e-06
9.8280031e-08
1.1621843e-06
2.6469704e-07
1.0198546e-06
3.7472274e-07
8.621573e-07
4.0962342e-07
7.1887914e-07
3.6763041e-07
6.153807e-07
2.6093058e-07
5.7114826e-07
1.0521835e-07
6.018696e-07
-8.9425114e-08
7.2022843e-07
-3.1559159e-07
9.3515927e-07
-5.6441873e-07
1.2495351e-06
-8.2077256e-07
1.6557531e-06
-1.0578633e-06
2.1335288e-06
-1.2428226e-06
2.6519984e-06
-1.3478627e-06
3.174913e-06
-1.3585591e-06
3.6677438e-06
-1.2791392e-06
4.1044168e-06
-1.131737e-06
4.4709404e-06
-9.4821292e-07
4.7650892e-06
-7.5960502e-07
4.9939506e-06
-5.9035455e-07
5.1713541e-06
-4.5802476e-07
5.3159089e-06
-3.7499676e-07
5.4491202e-06
-3.4876358e-07
5.5931741e-06
-3.8106438e-07
5.7684152e-06
-4.6701654e-07
5.99139e-06
-5.9655243e-07
6.2733594e-06
-7.5558951e-07
6.6195242e-06
-9.2785135e-07
7.0291799e-06
-1.0973447e-06
7.4958139e-06
-1.2482354e-06
8.0064667e-06
-1.3627725e-06
8.5398609e-06
-1.4180769e-06
9.0615668e-06
-1.3785134e-06
9.5147707e-06
-1.1840465e-06
9.8123389e-06
-7.5430592e-07
9.8480618e-06
-4.1790312e-08
9.5239338e-06
9.2543309e-07
8.7646386e-06
2.0797702e-06
7.5479806e-06
3.2717513e-06
5.9323192e-06
4.2807549e-06
4.1117753e-06
4.7479552e-06
2.4191489e-06
4.3201446e-06
1.2823974e-06
2.7898299e-06
1.1360398e-06
1.7519875e-07
1.8208949e-06
-1.9527621e-06
2.6231973e-06
-2.1881993e-06
3.4151649e-06
-2.1213694e-06
4.4901142e-06
-2.8487738e-06
5.8681851e-06
-3.6397203e-06
7.5269643e-06
-4.3816722e-06
9.4633363e-06
-5.1194438e-06
1.1614268e-05
-5.6849369e-06
1.3827335e-05
-5.8304047e-06
1.5832695e-05
-5.2311504e-06
1.7231731e-05
-3.5359796e-06
1.7538264e-05
-5.2550894e-07
1.6285546e-05
3.7134765e-06
1.3202652e-05
8.5836236e-06
8.4904311e-06
1.2737334e-05
3.0823137e-06
1.4202971e-05
-1.4762718e-06
1.149043e-05
-3.4605345e-06
4.5542072e-06
-3.2103635e-06
-1.0834329e-06
-2.8654476e-06
-1.051921e-06
-2.9393042e-06
1.7175936e-07
-2.6892357e-06
-6.7580325e-07
-1.9977523e-06
-1.8256062e-06
-1.2908306e-06
-1.8250083e-06
-7.9862313e-07
-1.2432834e-06
-4.275516e-07
-9.425998e-07
-3.4122043e-08
-1.0211742e-06
3.7673633e-07
-1.0660193e-06
7.034586e-07
-8.3321932e-07
8.6797069e-07
-4.0440078e-07
8.446307e-07
7.2612928e-08
6.1597142e-07
5.7450901e-07
1.3146317e-07
1.1926738e-06
-6.9020656e-07
2.0190464e-06
-1.9270086e-06
3.0566303e-06
-3.6136589e-06
4.202674e-06
-5.7175384e-06
5.2885793e-06
-8.1447518e-06
6.1537997e-06
-1.0765633e-05
6.6981589e-06
-1.3445903e-05
6.9001138e-06
-1.6071529e-05
6.8043299e-06
-1.8562529e-05
6.4951327e-06
-2.0874618e-05
6.0647608e-06
-2.2992399e-05
5.5904802e-06
-2.4919094e-05
5.1246114e-06
-2.6665886e-05
4.6938142e-06
-2.8233834e-05
4.2776573e-06
-2.9599587e-05
3.8267835e-06
-3.0631014e-05
3.0511504e-06
-3.1064122e-05
1.6403037e-06
-2.960114e-05
-3.5884744e-06
-2.569224e-05
-1.0802614e-05
-2.2280476e-05
-9.3046277e-06
-2.0190941e-05
-5.5743725e-06
-1.8670571e-05
-4.0640151e-06
-1.7593513e-05
-2.8660381e-06
-1.680738e-05
-2.083348e-06
-1.6211746e-05
-1.5752638e-06
-1.5764846e-05
-1.173108e-06
-1.5424791e-05
-8.8413154e-07
-1.5151283e-05
-7.0600001e-07
-1.4939339e-05
-5.4565021e-07
-1.4840378e-05
-2.3916328e-07
-1.4873376e-05
1.3013339e-07
-1.4951594e-05
2.6243723e-07
-1.4994385e-05
1.7607491e-07
-1.4966577e-05
-3.5129948e-09
-1.4845705e-05
-2.4352286e-07
-1.4619551e-05
-5.1694901e-07
-1.428166e-05
-8.0691867e-07
-1.3813531e-05
-1.1456162e-06
-1.3173654e-05
-1.6001949e-06
-1.2341488e-05
-2.1145384e-06
-1.1348175e-05
-2.5472353e-06
-1.0257563e-05
-2.8060263e-06
-9.1060426e-06
-2.9679311e-06
-7.9102983e-06
-3.0854694e-06
-6.6883156e-06
-3.1546679e-06
-5.450704e-06
-3.1948948e-06
-4.1971974e-06
-3.2351883e-06
-2.9300231e-06
-3.2656679e-06
-1.5216633e-06
-3.6130289e-06
1.5513774e-07
-4.3071396e-06
1.979776e-06
-4.715758e-06
3.9440715e-06
-5.0922179e-06
6.2290343e-06
-5.9359732e-06
8.9717724e-06
-7.1507114e-06
1.2302088e-05
-8.7241714e-06
1.6245292e-05
-1.0384756e-05
2.0545728e-05
-1.138255e-05
2.414454e-05
-9.4941321e-06
2.531134e-05
-2.7947117e-06
2.3466617e-05
5.3837331e-06
1.969596e-05
1.0369918e-05
1.5131507e-05
1.2219191e-05
1.1408915e-05
9.6883518e-06
7.9093318e-06
9.0291919e-06
1.2576358e-06
1.0203292e-05
-1.1199555e-06
9.7817947e-06
1.1200198e-06
9.8065686e-06
-3.5123705e-07
7.0116284e-06
8.5797339e-06
3.2310783e-06
1.1286263e-05
-7.7333708e-07
1.1621525e-05
-2.9695889e-06
5.9850184e-06
-3.1640354e-06
2.4636717e-07
-2.6587106e-06
-1.5934102e-06
-2.255186e-06
-1.2030494e-06