/*--------------------------------*- C++ -*----------------------------------*\
| =========                 |                                                 |
| \\      /  F ield         | OpenFOAM: The Open Source CFD Toolbox           |
|  \\    /   O peration     | Version:  2.4.0                                 |
|   \\  /    A nd           | Web:      www.OpenFOAM.org                      |
|    \\/     M anipulation  |                                                 |
\*---------------------------------------------------------------------------*/
FoamFile
{
    version     2.0;
    format      ascii;
    class       volScalarField;
    location    "310";
    object      k;
}
// * * * * * * * * * * * * * * * * * * * * * * * * * * * * * * * * * * * * * //

dimensions      [0 2 -2 0 0 0 0];

internalField   nonuniform List<scalar> 
19475
(
9.2661689e-07
5.4848795e-07
1.4410371e-06
9.3433752e-07
1.1384503e-06
4.0864319e-07
1.820399e-07
7.3798967e-09
7.3771347e-08
1.9111084e-07
1.4182282e-07
1.1782501e-07
6.7908657e-08
5.4128223e-08
3.7082064e-08
3.3382065e-08
2.6360255e-08
2.47713e-08
2.0562016e-08
1.8690197e-08
1.5396007e-08
1.3533657e-08
1.1336547e-08
1.0239286e-08
9.3254218e-09
8.997926e-09
8.876991e-09
9.2273476e-09
9.825978e-09
1.0905997e-08
1.2323478e-08
1.4284856e-08
1.6695693e-08
1.9704242e-08
2.3202673e-08
2.7154562e-08
3.113039e-08
3.5056377e-08
3.8921381e-08
4.2598926e-08
2.0704015e-07
2.0110786e-07
1.9506985e-07
1.889479e-07
1.8276146e-07
1.765337e-07
1.7028331e-07
1.6403399e-07
1.5780072e-07
1.5160514e-07
1.4545658e-07
1.3937679e-07
1.3336902e-07
1.2745652e-07
1.216357e-07
1.1593438e-07
1.1034158e-07
1.0489199e-07
9.9564972e-08
9.4402131e-08
8.9369266e-08
8.451835e-08
7.9801419e-08
7.528506e-08
7.0902947e-08
6.6739445e-08
6.2705955e-08
5.8909922e-08
5.5234914e-08
5.1816207e-08
4.8502546e-08
4.5464787e-08
4.2510754e-08
3.9857149e-08
3.7262235e-08
3.4998923e-08
3.2765433e-08
3.0901681e-08
2.9034107e-08
2.7580382e-08
2.6085482e-08
2.5050034e-08
2.392501e-08
2.3265648e-08
2.2266619e-08
2.1145645e-08
2.036342e-08
2.0125786e-08
2.014499e-08
1.9809465e-08
1.9584185e-08
1.8940132e-08
1.8319105e-08
1.7325179e-08
1.6289346e-08
1.4947949e-08
1.3535012e-08
1.1900912e-08
1.0221704e-08
8.4392878e-09
6.7108975e-09
5.0259109e-09
3.5764759e-09
2.4006559e-09
2.974688e-09
5.0832146e-09
8.4700264e-09
1.3628881e-08
2.0915811e-08
3.0805931e-08
4.3495827e-08
5.9269002e-08
7.7709362e-08
9.8045137e-08
1.2048737e-07
1.4517659e-07
1.7167268e-07
2.003919e-07
2.3486116e-07
2.6270004e-07
2.9745995e-07
3.3986089e-07
3.9188576e-07
4.5413418e-07
5.3322277e-07
6.3472233e-07
7.8010794e-07
9.5516051e-07
1.1870417e-06
1.459821e-06
1.8293128e-06
2.263408e-06
2.8690319e-06
3.5789963e-06
4.6138718e-06
5.7507965e-06
7.45289e-06
9.0635579e-06
1.0801848e-05
1.0533004e-05
9.2146098e-06
6.6720624e-06
4.8601423e-06
2.669028e-06
1.8860891e-06
7.6432066e-07
8.3160898e-07
2.3023348e-07
1.3931696e-07
2.3608704e-07
2.1090011e-07
2.7604639e-07
7.174359e-07
1.54707e-07
9.0489078e-08
3.902802e-08
7.0317034e-08
3.5831225e-08
2.5302905e-08
2.0039607e-08
1.1530241e-08
8.997798e-09
6.2446143e-09
5.5962145e-09
4.4895323e-09
4.2207206e-09
3.5662822e-09
3.2666628e-09
2.755043e-09
2.4611358e-09
2.1225657e-09
1.9570661e-09
1.8298938e-09
1.7992964e-09
1.8080383e-09
1.896379e-09
2.0313996e-09
2.2490925e-09
2.5287731e-09
2.9025868e-09
3.3575237e-09
3.9168753e-09
4.5651786e-09
5.2962876e-09
6.0420941e-09
6.7890056e-09
7.5368468e-09
8.2663603e-09
1.2861137e-07
1.2729153e-07
1.2590991e-07
1.2447131e-07
1.2298016e-07
1.2144139e-07
1.1985945e-07
1.1823955e-07
1.1658575e-07
1.1490277e-07
1.1319364e-07
1.114629e-07
1.097124e-07
1.0794664e-07
1.0616609e-07
1.0437561e-07
1.0257425e-07
1.007677e-07
9.8953345e-08
9.7137851e-08
9.5315833e-08
9.3495141e-08
9.1667387e-08
8.984278e-08
8.8009051e-08
8.6179234e-08
8.4336164e-08
8.2496881e-08
8.0638211e-08
7.8782115e-08
7.6897649e-08
7.5013165e-08
7.3088229e-08
7.1159896e-08
6.9176517e-08
6.7186632e-08
6.512579e-08
6.3057161e-08
6.0902873e-08
5.8743809e-08
5.6491984e-08
5.4248594e-08
5.1923631e-08
4.9622996e-08
4.7130078e-08
4.4494238e-08
4.3038637e-08
4.2805662e-08
4.3315592e-08
4.4074308e-08
4.5076198e-08
4.6167428e-08
4.7371537e-08
4.862113e-08
4.9936652e-08
5.1290533e-08
5.2702204e-08
5.4168344e-08
5.5721816e-08
5.7397629e-08
5.9328669e-08
6.1506216e-08
6.3885993e-08
6.6449865e-08
6.9395476e-08
7.2674368e-08
7.622344e-08
8.0090221e-08
8.4287579e-08
8.8840591e-08
9.3712766e-08
9.8832387e-08
1.0387991e-07
1.087447e-07
1.1364482e-07
1.1866226e-07
1.2379539e-07
1.2410541e-07
3.8013019e-07
3.3853064e-07
3.2920698e-07
3.3570141e-07
3.5048152e-07
3.7154558e-07
4.0024235e-07
4.3964047e-07
4.9158888e-07
5.5258249e-07
6.2763072e-07
7.15649e-07
8.2535152e-07
1.0154837e-06
1.2169849e-06
1.4191311e-06
1.6897993e-06
1.0858653e-06
1.3977104e-06
1.7409965e-06
2.0778055e-06
2.0576368e-06
1.8407596e-06
1.4131678e-06
1.9890286e-06
1.3130576e-06
9.3085545e-07
6.1222686e-07
5.6146556e-07
1.5995641e-07
1.6774631e-07
1.1596945e-06
2.1813464e-07
1.0542761e-06
3.4125445e-06
7.082564e-07
4.7348561e-07
2.7809273e-07
3.7351165e-07
5.7130665e-08
3.3121806e-08
2.048436e-08
1.1607254e-08
7.9215202e-09
5.994149e-09
5.2362552e-09
4.6337196e-09
4.3738061e-09
4.0720824e-09
3.8803792e-09
3.648949e-09
3.4886493e-09
3.3555048e-09
3.3172948e-09
3.3599921e-09
3.4831347e-09
3.6719045e-09
3.9393591e-09
4.2818748e-09
4.7145865e-09
5.2391166e-09
5.870746e-09
6.6144047e-09
7.4823858e-09
8.4756554e-09
9.5872145e-09
1.0776929e-08
1.2025753e-08
1.3343599e-08
1.4724383e-08
7.2664935e-07
7.2312536e-07
7.1925875e-07
7.1506214e-07
7.1054773e-07
7.0572764e-07
7.0061524e-07
6.9522405e-07
6.8956834e-07
6.836603e-07
6.7751238e-07
6.7113532e-07
6.645394e-07
6.5773339e-07
6.5072456e-07
6.4351965e-07
6.3612306e-07
6.2854064e-07
6.2077448e-07
6.1283048e-07
6.047045e-07
5.9640033e-07
5.8790614e-07
5.7922786e-07
5.7034422e-07
5.6126346e-07
5.5195155e-07
5.4242215e-07
5.32626e-07
5.2258409e-07
5.1222624e-07
5.0158345e-07
4.9055839e-07
4.791984e-07
4.6737527e-07
4.5516228e-07
4.4239964e-07
4.2919843e-07
4.1537476e-07
4.01089e-07
3.8616738e-07
3.7083316e-07
3.5499476e-07
3.3885365e-07
3.2167397e-07
3.0360905e-07
2.9380444e-07
2.9234708e-07
2.9606128e-07
3.0196377e-07
3.0953287e-07
3.1818889e-07
3.276475e-07
3.3782423e-07
3.4852736e-07
3.5982725e-07
3.7162405e-07
3.8404869e-07
3.9716008e-07
4.1127542e-07
4.2719928e-07
4.448745e-07
4.6378232e-07
4.8374647e-07
5.0468686e-07
5.2648198e-07
5.4892979e-07
5.7186529e-07
5.9501429e-07
6.1807173e-07
6.4056696e-07
6.616742e-07
6.7950268e-07
6.9405626e-07
7.0670319e-07
7.1789636e-07
7.280398e-07
6.9815099e-07
2.1863235e-06
1.8921675e-06
1.7956694e-06
1.7923187e-06
1.8318365e-06
1.9007372e-06
2.0007076e-06
2.1454404e-06
2.3246361e-06
2.5306927e-06
2.7674648e-06
3.044496e-06
3.3595162e-06
4.0792609e-06
4.7032913e-06
5.2397633e-06
5.8822193e-06
1.7622908e-06
2.2241406e-06
2.9974217e-06
3.5963693e-06
3.7345046e-06
3.5574056e-06
3.1442945e-06
7.7003942e-06
5.6358336e-06
4.0015101e-06
3.1249075e-06
2.7307383e-06
9.3189832e-07
5.5969486e-07
4.2713111e-06
7.0285114e-07
3.8212118e-06
1.0418776e-05
2.594432e-06
1.7505658e-06
1.0439097e-06
1.1451129e-06
1.8249982e-07
1.0140534e-07
5.8173382e-08
3.2778213e-08
2.1190382e-08
1.66051e-08
1.4357306e-08
1.3181004e-08
1.2459459e-08
1.19748e-08
1.1547881e-08
1.1186524e-08
1.0874098e-08
1.0711432e-08
1.0734709e-08
1.1028932e-08
1.1532979e-08
1.2248659e-08
1.3184634e-08
1.4360895e-08
1.579849e-08
1.7524968e-08
1.9565894e-08
2.1953644e-08
2.4711461e-08
2.785907e-08
3.1376233e-08
3.5179563e-08
3.9209546e-08
4.350387e-08
4.8059665e-08
2.6963803e-06
2.6840299e-06
2.6704092e-06
2.6555623e-06
2.6395321e-06
2.6223606e-06
2.6040955e-06
2.5847839e-06
2.564477e-06
2.5432176e-06
2.5210511e-06
2.4980143e-06
2.4741457e-06
2.4494745e-06
2.4240287e-06
2.3978294e-06
2.3708949e-06
2.343242e-06
2.3148815e-06
2.2858296e-06
2.2560756e-06
2.2256264e-06
2.1944444e-06
2.1625422e-06
2.1298498e-06
2.0963858e-06
2.0620353e-06
2.0268341e-06
1.9906143e-06
1.9534349e-06
1.9150546e-06
1.8755651e-06
1.8346288e-06
1.7923922e-06
1.7484092e-06
1.7029152e-06
1.6553544e-06
1.6060943e-06
1.554499e-06
1.5011098e-06
1.4453404e-06
1.387956e-06
1.3286922e-06
1.268225e-06
1.20398e-06
1.1365741e-06
1.10003e-06
1.0945989e-06
1.1085513e-06
1.1307776e-06
1.1592499e-06
1.1918668e-06
1.227495e-06
1.2658765e-06
1.3062414e-06
1.3488931e-06
1.3934231e-06
1.440345e-06
1.4898582e-06
1.5431657e-06
1.6032471e-06
1.6698676e-06
1.741065e-06
1.8161826e-06
1.8946977e-06
1.9761893e-06
2.0599357e-06
2.1452392e-06
2.2310183e-06
2.3160606e-06
2.3985576e-06
2.4753571e-06
2.539472e-06
2.5910747e-06
2.6352452e-06
2.6736638e-06
2.7078477e-06
2.5828059e-06
6.7436076e-06
5.8202578e-06
5.5091988e-06
5.4852728e-06
5.5919083e-06
5.7869353e-06
6.0740773e-06
6.4942126e-06
7.0126083e-06
7.6087583e-06
8.2901555e-06
9.0890141e-06
9.9889461e-06
1.1796166e-05
1.334742e-05
1.477634e-05
1.6514706e-05
5.6440353e-06
7.1193459e-06
9.7287375e-06
1.1675786e-05
1.222504e-05
1.1767443e-05
1.0616528e-05
2.3145111e-05
1.7043751e-05
1.2103654e-05
9.5729052e-06
8.3392733e-06
3.4620634e-06
1.6138865e-06
1.1399518e-05
2.0226532e-06
1.0184642e-05
2.2602199e-05
6.8992361e-06
4.6720189e-06
2.7922938e-06
2.4738943e-06
4.7547269e-07
2.6344608e-07
1.4962587e-07
8.4250631e-08
5.3998231e-08
4.2499865e-08
3.6678865e-08
3.3846469e-08
3.1998466e-08
3.0889478e-08
2.9837499e-08
2.9018156e-08
2.8268173e-08
2.7927382e-08
2.8031871e-08
2.8845869e-08
3.0192157e-08
3.2090692e-08
3.4553284e-08
3.7642138e-08
4.1403209e-08
4.5915521e-08
5.1238158e-08
5.7460876e-08
6.4639152e-08
7.2830124e-08
8.1983003e-08
9.1896256e-08
1.0241379e-07
1.1363469e-07
1.2555857e-07
7.1954434e-06
7.1627182e-06
7.1266025e-06
7.0872137e-06
7.044665e-06
6.9990683e-06
6.9505498e-06
6.8992343e-06
6.8452582e-06
6.7887349e-06
6.7297847e-06
6.668506e-06
6.6050006e-06
6.5393461e-06
6.4716174e-06
6.4018699e-06
6.3301525e-06
6.2565088e-06
6.1809692e-06
6.1035746e-06
6.0242982e-06
5.9431561e-06
5.86005e-06
5.7750114e-06
5.6878551e-06
5.598628e-06
5.5070268e-06
5.4131429e-06
5.316532e-06
5.2173472e-06
5.1149491e-06
5.0095764e-06
4.9003351e-06
4.7876077e-06
4.6702118e-06
4.5487665e-06
4.4217978e-06
4.290275e-06
4.1525131e-06
4.0099427e-06
3.8610136e-06
3.7077517e-06
3.5494695e-06
3.3879532e-06
3.216543e-06
3.0370849e-06
2.939838e-06
2.9253417e-06
2.9626615e-06
3.0221327e-06
3.0983072e-06
3.1855849e-06
3.2809178e-06
3.3836317e-06
3.4916543e-06
3.6058084e-06
3.7249879e-06
3.8505806e-06
3.9831183e-06
4.1258309e-06
4.2866224e-06
4.4648135e-06
4.6551899e-06
4.8560131e-06
5.0658169e-06
5.2835029e-06
5.5071338e-06
5.7348149e-06
5.963636e-06
6.1903393e-06
6.4100818e-06
6.614367e-06
6.7846638e-06
6.9216119e-06
7.0387033e-06
7.1404003e-06
7.2307184e-06
6.8763465e-06
1.4613672e-05
1.2581576e-05
1.1886786e-05
1.1812027e-05
1.2017109e-05
1.2409976e-05
1.2997141e-05
1.3864846e-05
1.4939414e-05
1.6179426e-05
1.7600071e-05
1.9271808e-05
2.1157759e-05
2.4375965e-05
2.7210037e-05
3.0059767e-05
3.3618901e-05
1.4636205e-05
1.8587944e-05
2.5408988e-05
3.047121e-05
3.1932371e-05
3.0774345e-05
2.7824902e-05
5.016121e-05
3.6820074e-05
2.6150904e-05
2.0730603e-05
1.8054466e-05
9.2303365e-06
4.0104336e-06
2.4974782e-05
5.0227291e-06
2.2317946e-05
4.0425232e-05
1.5030235e-05
1.0221035e-05
6.1125964e-06
4.3972835e-06
1.031499e-06
5.7234678e-07
3.2452224e-07
1.8273174e-07
1.1685506e-07
9.1975778e-08
7.9323675e-08
7.3254309e-08
6.9252658e-08
6.6906768e-08
6.4650292e-08
6.2922254e-08
6.1320221e-08
6.0610307e-08
6.0847617e-08
6.2623969e-08
6.5550536e-08
6.967533e-08
7.5019539e-08
8.1721888e-08
8.9878419e-08
9.9663346e-08
1.1120176e-07
1.2469056e-07
1.4024824e-07
1.5800172e-07
1.7784405e-07
1.9934736e-07
2.2216963e-07
2.4652377e-07
2.724157e-07
1.5729738e-05
1.5658385e-05
1.5579618e-05
1.5493694e-05
1.5400859e-05
1.5301358e-05
1.5195466e-05
1.5083455e-05
1.4965624e-05
1.4842219e-05
1.4713503e-05
1.4579691e-05
1.4441006e-05
1.4297616e-05
1.4149686e-05
1.3997336e-05
1.3840674e-05
1.3679795e-05
1.3514764e-05
1.3345671e-05
1.3172459e-05
1.2995161e-05
1.2813563e-05
1.2627734e-05
1.243727e-05
1.2242273e-05
1.204208e-05
1.1836889e-05
1.1625733e-05
1.1408943e-05
1.1185124e-05
1.0954796e-05
1.0716005e-05
1.0469588e-05
1.0212961e-05
9.9474744e-06
9.6699096e-06
9.3823819e-06
9.0812107e-06
8.7695198e-06
8.4439227e-06
8.1088437e-06
7.7627809e-06
7.4096326e-06
7.0352496e-06
6.6441377e-06
6.4322834e-06
6.4005924e-06
6.4822745e-06
6.6124747e-06
6.7792396e-06
6.9703214e-06
7.1790457e-06
7.403928e-06
7.6404383e-06
7.8903831e-06
8.1513342e-06
8.4263414e-06
8.7165782e-06
9.029136e-06
9.3811706e-06
9.7711067e-06
1.0187607e-05
1.062691e-05
1.1085779e-05
1.1561816e-05
1.2050766e-05
1.2548466e-05
1.3048553e-05
1.3543855e-05
1.4023754e-05
1.4469552e-05
1.4841033e-05
1.5139937e-05
1.5395595e-05
1.561771e-05
1.5814957e-05
1.5009716e-05
2.6047259e-05
2.2356806e-05
2.1078087e-05
2.0898625e-05
2.1211386e-05
2.1851146e-05
2.2826791e-05
2.4287345e-05
2.6107635e-05
2.8219394e-05
3.0650101e-05
3.3525306e-05
3.678406e-05
4.152117e-05
4.5875313e-05
5.0636223e-05
5.6725217e-05
3.1418396e-05
4.0366543e-05
5.5115237e-05
6.6033323e-05
6.9207856e-05
6.6715301e-05
6.0348785e-05
8.9851873e-05
6.556496e-05
4.6573836e-05
3.6958466e-05
3.2194635e-05
2.0140092e-05
9.0294936e-06
4.8105781e-05
1.1277652e-05
4.3017663e-05
6.4596589e-05
2.8716703e-05
1.9630454e-05
1.17408e-05
6.9780181e-06
1.9725883e-06
1.0963444e-06
6.2144651e-07
3.4996597e-07
2.2354267e-07
1.7582123e-07
1.5155994e-07
1.3996548e-07
1.3231156e-07
1.2785494e-07
1.2355781e-07
1.2028064e-07
1.1723008e-07
1.1588101e-07
1.1632753e-07
1.1971244e-07
1.2529556e-07
1.3316854e-07
1.4336947e-07
1.5616484e-07
1.7173627e-07
1.9041788e-07
2.1244705e-07
2.3820118e-07
2.6790619e-07
3.0180725e-07
3.3970584e-07
3.8079425e-07
4.2441193e-07
4.7096039e-07
5.2046124e-07
3.0174054e-05
3.0037527e-05
2.9886775e-05
2.9722289e-05
2.9544541e-05
2.9353998e-05
2.9151189e-05
2.8936636e-05
2.8710905e-05
2.8474475e-05
2.8227847e-05
2.7971432e-05
2.7705657e-05
2.7430846e-05
2.7147315e-05
2.6855292e-05
2.6554987e-05
2.6246579e-05
2.5930197e-05
2.5606011e-05
2.527391e-05
2.4933962e-05
2.4585756e-05
2.4229421e-05
2.3864186e-05
2.3490243e-05
2.3106326e-05
2.2712813e-05
2.2307848e-05
2.1892067e-05
2.1462796e-05
2.1021029e-05
2.0563025e-05
2.0090383e-05
1.9598151e-05
1.9088917e-05
1.855651e-05
1.8004984e-05
1.742728e-05
1.682939e-05
1.6204812e-05
1.5562035e-05
1.4898164e-05
1.4220668e-05
1.3503154e-05
1.2755216e-05
1.2350238e-05
1.2289429e-05
1.2446249e-05
1.269631e-05
1.3016612e-05
1.3383638e-05
1.3784561e-05
1.4216529e-05
1.4670841e-05
1.5150963e-05
1.565224e-05
1.6180542e-05
1.673814e-05
1.7338703e-05
1.8014892e-05
1.8763508e-05
1.9562939e-05
2.0406021e-05
2.1286578e-05
2.2199933e-05
2.3137913e-05
2.4092545e-05
2.5051556e-05
2.600116e-05
2.6920928e-05
2.7774789e-05
2.8486159e-05
2.9059011e-05
2.9549285e-05
2.9975396e-05
3.0353746e-05
2.8776644e-05
4.1419494e-05
3.5426615e-05
3.3323008e-05
3.2955413e-05
3.3358715e-05
3.4268686e-05
3.569506e-05
3.7866952e-05
4.0597348e-05
4.3786865e-05
4.7480348e-05
5.1876376e-05
5.6891098e-05
6.3193437e-05
6.9290077e-05
7.6460277e-05
8.5817738e-05
5.911159e-05
7.7143525e-05
0.00010518803
0.00012588504
0.00013194399
0.0001272166
0.00011513533
0.00014388878
0.00010421475
7.4049456e-05
5.8816323e-05
5.1257198e-05
3.8531963e-05
1.8899558e-05
8.4713545e-05
2.3489714e-05
7.583437e-05
9.6462666e-05
5.0042898e-05
3.4416761e-05
2.0580044e-05
1.0349387e-05
3.4501945e-06
1.9198539e-06
1.0882219e-06
6.129139e-07
3.9114765e-07
3.0736369e-07
2.6482893e-07
2.445296e-07
2.3114191e-07
2.233694e-07
2.1587747e-07
2.1017022e-07
2.0484701e-07
2.0248467e-07
2.0324116e-07
2.0912341e-07
2.188487e-07
2.3257307e-07
2.5036135e-07
2.726791e-07
2.9984201e-07
3.3243419e-07
3.7086908e-07
4.1580639e-07
4.6764092e-07
5.2680411e-07
5.9295948e-07
6.6471091e-07
7.4089244e-07
8.2219538e-07
9.0867444e-07
5.2809777e-05
5.2571656e-05
5.2308632e-05
5.2021563e-05
5.1711274e-05
5.137858e-05
5.1024402e-05
5.0649653e-05
5.0255322e-05
4.9842244e-05
4.9411294e-05
4.8963192e-05
4.8498682e-05
4.8018333e-05
4.7522693e-05
4.7012167e-05
4.6487116e-05
4.5947857e-05
4.5394616e-05
4.4827689e-05
4.4246884e-05
4.3652318e-05
4.3043274e-05
4.2419978e-05
4.1781082e-05
4.1126923e-05
4.0455287e-05
3.9766832e-05
3.9058317e-05
3.833085e-05
3.7579758e-05
3.6806775e-05
3.6005362e-05
3.5178311e-05
3.4316964e-05
3.3425843e-05
3.2494153e-05
3.1528985e-05
3.0517988e-05
2.9471638e-05
2.8378558e-05
2.7253593e-05
2.609165e-05
2.4905768e-05
2.3651012e-05
2.2345918e-05
2.1639525e-05
2.1533033e-05
2.1807654e-05
2.2245781e-05
2.2807042e-05
2.3450215e-05
2.4152821e-05
2.4909861e-05
2.5706087e-05
2.6547555e-05
2.7426124e-05
2.8352109e-05
2.9329501e-05
3.0382332e-05
3.156734e-05
3.2878614e-05
3.4278589e-05
3.5754732e-05
3.7296392e-05
3.8895236e-05
4.0536931e-05
4.220753e-05
4.3885404e-05
4.5546358e-05
4.7154594e-05
4.8646717e-05
4.9889768e-05
5.0891624e-05
5.174953e-05
5.2495513e-05
5.3157075e-05
5.0384764e-05
6.1480889e-05
5.2390332e-05
4.9159136e-05
4.8483418e-05
4.8933483e-05
5.0115664e-05
5.2038109e-05
5.5029128e-05
5.8829903e-05
6.3306152e-05
6.8525913e-05
7.4781009e-05
8.1970401e-05
8.995014e-05
9.8082504e-05
0.00010823949
0.00012172347
0.00010119698
0.00013453802
0.0001831948
0.00021894428
0.00022949643
0.00022133457
0.00020049229
0.00021530182
0.00015464934
0.00010994354
8.7426493e-05
7.6236612e-05
6.7226358e-05
3.7228731e-05
0.00013968289
4.5979384e-05
0.00012522696
0.00013820668
8.1500767e-05
5.6422484e-05
3.3727382e-05
1.4740161e-05
5.6501711e-06
3.1456556e-06
1.783064e-06
1.0043969e-06
6.4044237e-07
5.0276199e-07
4.3298991e-07
3.9971486e-07
3.7780468e-07
3.6510713e-07
3.5288224e-07
3.4357178e-07
3.3487567e-07
3.309967e-07
3.3218898e-07
3.4174494e-07
3.5758806e-07
3.799645e-07
4.0897875e-07
4.4539071e-07
4.8971459e-07
5.4290473e-07
6.0563555e-07
6.7898532e-07
7.6359992e-07
8.6018902e-07
9.6821916e-07
1.0854314e-06
1.2099021e-06
1.3427438e-06
1.4840711e-06
8.6363887e-05
8.5976393e-05
8.5548171e-05
8.5080613e-05
8.4575066e-05
8.4032856e-05
8.3455484e-05
8.2844435e-05
8.2201323e-05
8.1527507e-05
8.0824414e-05
8.0093217e-05
7.9335133e-05
7.8551085e-05
7.7741972e-05
7.6908451e-05
7.6051119e-05
7.5170488e-05
7.4266927e-05
7.3340922e-05
7.239216e-05
7.1420828e-05
7.0425764e-05
6.940733e-05
6.836333e-05
6.7294308e-05
6.6196657e-05
6.5071443e-05
6.391338e-05
6.2724265e-05
6.1496476e-05
6.0232833e-05
5.8922663e-05
5.7570512e-05
5.6162244e-05
5.4705234e-05
5.3181849e-05
5.1603658e-05
4.9950481e-05
4.8239425e-05
4.6451882e-05
4.4612103e-05
4.2711709e-05
4.0771924e-05
3.872121e-05
3.6592882e-05
3.5441309e-05
3.5266964e-05
3.5716225e-05
3.6433487e-05
3.7352497e-05
3.840573e-05
3.9556366e-05
4.0796207e-05
4.210031e-05
4.3478537e-05
4.4917574e-05
4.6434348e-05
4.8035433e-05
4.9760302e-05
5.1701047e-05
5.3847456e-05
5.6138518e-05
5.8553752e-05
6.1075981e-05
6.3691423e-05
6.6376504e-05
6.9108242e-05
7.1851293e-05
7.4565921e-05
7.7193399e-05
7.9629759e-05
8.1659368e-05
8.3296667e-05
8.4699597e-05
8.5919948e-05
8.6998992e-05
8.2512988e-05
8.7488205e-05
7.4280267e-05
6.9529125e-05
6.8378586e-05
6.8802984e-05
7.0241483e-05
7.2697402e-05
7.6621194e-05
8.167099e-05
8.7673671e-05
9.4727281e-05
0.00010324171
0.00011310877
0.00012301225
0.00013360255
0.00014747986
0.00016617729
0.00016153394
0.0002190765
0.00029785318
0.00035537153
0.00037251065
0.0003593998
0.00032599351
0.0003088138
0.00021997642
0.00015653199
0.00012466243
0.00010879306
0.00010958608
6.9436954e-05
0.00021899347
8.5164204e-05
0.00019670572
0.00019298082
0.00012605946
8.786418e-05
5.2506395e-05
2.0496242e-05
8.7991648e-06
4.8976727e-06
2.7760701e-06
1.5639274e-06
9.9639379e-07
7.8139105e-07
6.7264477e-07
6.2080681e-07
5.8673735e-07
5.6702117e-07
5.4806737e-07
5.3363119e-07
5.2013164e-07
5.140758e-07
5.1585575e-07
5.3060015e-07
5.55118e-07
5.8977629e-07
6.3473592e-07
6.911747e-07
7.5988899e-07
8.4235959e-07
9.3963171e-07
1.0533796e-06
1.1846072e-06
1.3344225e-06
1.5020233e-06
1.683936e-06
1.8771467e-06
2.0833563e-06
2.3027784e-06
0.00013403852
0.00013344139
0.00013278105
0.00013205966
0.00013127929
0.00013044198
0.00012955005
0.00012860579
0.00012761168
0.00012656984
0.00012548245
0.00012435134
0.00012317838
0.000121965
0.0001207126
0.00011942218
0.00011809467
0.00011673087
0.00011533134
0.00011389684
0.00011242688
0.00011092175
0.00010937967
0.00010780117
0.00010618287
0.00010452559
0.00010282377
0.00010107904
9.9283221e-05
9.7439075e-05
9.553481e-05
9.3574768e-05
9.1542429e-05
8.9444803e-05
8.7260004e-05
8.4999422e-05
8.263574e-05
8.0186853e-05
7.7621477e-05
7.4966104e-05
7.2191855e-05
6.9336299e-05
6.6386338e-05
6.3374676e-05
6.0193098e-05
5.6898219e-05
5.5116004e-05
5.4844953e-05
5.5542325e-05
5.6656763e-05
5.8085002e-05
5.9722087e-05
6.1510789e-05
6.343826e-05
6.5465802e-05
6.7608667e-05
6.9846211e-05
7.2204717e-05
7.4694507e-05
7.7377104e-05
8.0394264e-05
8.3729348e-05
8.7288246e-05
9.1039305e-05
9.4956218e-05
9.9017151e-05
0.00010318536
0.00010742492
0.000111681
0.00011589172
0.0001199656
0.00012374078
0.00012688583
0.00012942544
0.00013160278
0.00013349719
0.00013516396
0.00012836681
0.00012129835
0.00010264497
9.5858248e-05
9.4005105e-05
9.4297024e-05
9.5957972e-05
9.8982313e-05
0.00010397184
0.00011048782
0.00011831362
0.00012758591
0.00013886428
0.00015204806
0.00016429648
0.00017794567
0.00019651397
0.00022186148
0.00024446902
0.00033811866
0.00045882112
0.00054622349
0.00057252202
0.00055263342
0.00050217517
0.00043096378
0.00030469962
0.00021715358
0.00017328836
0.00015138128
0.00016959584
0.00012304036
0.0003297739
0.00014984088
0.0002969134
0.00026502408
0.00018724557
0.00013138224
7.8505392e-05
2.8107141e-05
1.3172611e-05
7.3242893e-06
4.1509678e-06
2.3386774e-06
1.4887596e-06
1.1662901e-06
1.003518e-06
9.2595656e-07
8.7508294e-07
8.4567946e-07
8.1745996e-07
7.9596232e-07
7.7583782e-07
7.6675688e-07
7.6930329e-07
7.9114646e-07
8.2758034e-07
8.7912847e-07
9.4602965e-07
1.0300365e-06
1.1323332e-06
1.2551263e-06
1.3999716e-06
1.5693645e-06
1.7648032e-06
1.9879479e-06
2.2376396e-06
2.5087509e-06
2.7967499e-06
3.1041304e-06
3.4312609e-06
0.00019951609
0.00019863621
0.00019766232
0.00019659757
0.000195445
0.00019420763
0.00019288888
0.00019149214
0.00019002106
0.00018847874
0.00018686846
0.00018519287
0.00018345477
0.00018165626
0.0001797994
0.0001778857
0.00017591652
0.00017389304
0.00017181611
0.00016968682
0.00016750447
0.00016526948
0.0001629792
0.00016063442
0.00015823015
0.00015576756
0.00015323842
0.00015064511
0.00014797553
0.00014523372
0.00014240221
0.00013948737
0.00013646473
0.0001333446
0.00013009452
0.00012673132
0.00012321445
0.0001195704
0.0001157527
0.00011180061
0.0001076712
0.00010342019
9.9027948e-05
9.4542643e-05
8.9807003e-05
8.4912998e-05
8.2266438e-05
8.186199e-05
8.2900056e-05
8.4560969e-05
8.6690263e-05
8.9131446e-05
9.1799169e-05
9.4674092e-05
9.7698615e-05
0.00010089534
0.00010423361
0.00010775251
0.00011146759
0.00011547075
0.00011997116
0.00012494299
0.00013024688
0.00013583598
0.0001416717
0.00014772053
0.00015392764
0.0001602392
0.00016657345
0.00017283794
0.00017889606
0.00018450631
0.00018918071
0.00019295894
0.00019619974
0.00019902014
0.00020148413
0.00019172353
0.00016546359
0.00013964002
0.00013014161
0.00012727904
0.00012728846
0.0001291173
0.00013274574
0.00013896507
0.00014722203
0.00015725095
0.00016923842
0.00018393501
0.00020126667
0.00021649575
0.00023404032
0.00025859921
0.00029251782
0.00035502049
0.00049971485
0.00067629659
0.00080283696
0.00084124418
0.00081244701
0.00073993019
0.00059010445
0.00041485637
0.00029636266
0.00023710775
0.00020739056
0.00025194886
0.0002076265
0.00048019994
0.00025107934
0.00043357595
0.00035976437
0.00026922017
0.00019008542
0.00011362448
3.8234962e-05
1.9104718e-05
1.0602274e-05
6.0071217e-06
3.38458e-06
2.1527639e-06
1.6846703e-06
1.4488876e-06
1.3365768e-06
1.2630646e-06
1.2206273e-06
1.1799714e-06
1.1489914e-06
1.1199609e-06
1.1067833e-06
1.1103026e-06
1.1416146e-06
1.1940072e-06
1.2682004e-06
1.3645381e-06
1.4855436e-06
1.6329211e-06
1.8098518e-06
2.0185765e-06
2.2626936e-06
2.5443655e-06
2.8659984e-06
3.2259712e-06
3.6169583e-06
4.0323736e-06
4.4757515e-06
4.9476852e-06
0.00028691721
0.00028566972
0.00028428723
0.00028277416
0.00028113484
0.00027937354
0.0002774951
0.00027550433
0.00027340642
0.0002712058
0.00026890708
0.00026651407
0.00026403075
0.0002614601
0.00025880507
0.00025606778
0.00025325021
0.00025035401
0.00024738041
0.00024433094
0.00024120463
0.00023800202
0.00023471937
0.00023135775
0.00022791004
0.00022437789
0.00022074954
0.0002170283
0.00021319691
0.00020926104
0.00020519572
0.00020100996
0.00019666872
0.00019218666
0.00018751729
0.00018268457
0.00017763037
0.0001723925
0.00016690431
0.00016122195
0.00015528371
0.0001491694
0.00014285047
0.00013639524
0.00012958234
0.0001225557
0.00011875638
0.00011817279
0.00011966559
0.00012205778
0.00012512594
0.00012864453
0.00013249053
0.00013663578
0.00014099744
0.00014560784
0.00015042294
0.00015549885
0.00016085826
0.00016663368
0.00017312314
0.00018028808
0.00018792892
0.00019597895
0.00020438293
0.00021309119
0.00022202472
0.00023110545
0.00024021533
0.00024922092
0.00025792524
0.0002659805
0.00027269352
0.00027812505
0.00028278569
0.00028684225
0.0002903543
0.00027695286
0.00022333449
0.0001881373
0.00017505187
0.00017077435
0.00017029805
0.00017221581
0.00017648768
0.00018414432
0.00019449552
0.00020721998
0.00022256913
0.00024153846
0.00026410462
0.00028321872
0.00030580349
0.00033808849
0.00038313436
0.00049910599
0.00071238303
0.00096039649
0.0011359162
0.0011895181
0.0011493934
0.0010495505
0.00079623735
0.00055811464
0.00040008419
0.00032112828
0.0002813052
0.00036211739
0.00033440846
0.00067914495
0.00040159909
0.00061523908
0.00048386991
0.00037682767
0.00026757789
0.00016011819
5.1755387e-05
2.700108e-05
1.494144e-05
8.4618184e-06
4.7675636e-06
3.0298562e-06
2.3684845e-06
2.0360685e-06
1.8777847e-06
1.7744054e-06
1.714795e-06
1.6577932e-06
1.6143442e-06
1.5735907e-06
1.5549819e-06
1.5597091e-06
1.6033918e-06
1.676719e-06
1.7806505e-06
1.9156697e-06
2.0853116e-06
2.2919632e-06
2.5400874e-06
2.8328242e-06
3.1752218e-06
3.5703166e-06
4.0214988e-06
4.5265611e-06
5.0753171e-06
5.6584583e-06
6.2808557e-06
6.9434167e-06
0.00040067965
0.00039897128
0.00039707486
0.00039499638
0.00039274175
0.00039031682
0.0003877282
0.00038498249
0.00038208681
0.00037904724
0.00037587013
0.00037256071
0.00036912443
0.00036556541
0.00036188773
0.00035809427
0.0003541878
0.00035017053
0.00034604421
0.00034181088
0.00033746924
0.00033301995
0.0003284579
0.00032378446
0.00031898981
0.00031407611
0.00030902713
0.00030384729
0.0002985127
0.00029303104
0.0002873677
0.00028153497
0.00027548424
0.0002692356
0.00026272447
0.00025598385
0.00024893293
0.00024162394
0.00023396409
0.00022603117
0.00021773914
0.0002091987
0.00020036954
0.00019134523
0.0001818223
0.00017201884
0.00016671801
0.0001658994
0.00016798429
0.00017133178
0.00017562761
0.00018055603
0.00018594484
0.00019175398
0.00019786784
0.00020433109
0.00021108241
0.00021819999
0.00022571586
0.00023381548
0.00024291117
0.00025294706
0.00026364467
0.00027491302
0.00028667405
0.00029885646
0.00031134942
0.00032404254
0.00033677054
0.00034934597
0.00036149334
0.00037272651
0.00038209053
0.00038967495
0.00039618482
0.00040185128
0.0004067046
0.00038899471
0.00029916007
0.00025184586
0.00023406332
0.00022784854
0.00022662092
0.00022852174
0.0002334846
0.00024284451
0.00025574623
0.00027180547
0.00029135769
0.00031571302
0.00034492808
0.00036917377
0.00039834522
0.00044065386
0.00050018014
0.0006837647
0.00098479936
0.0013203306
0.0015543732
0.0016259524
0.0015718456
0.0014394738
0.0010605816
0.00074375966
0.00053573254
0.00043171705
0.00037886612
0.00050636568
0.00051533324
0.00093550642
0.00061460585
0.00085071604
0.00064519041
0.0005155781
0.00036794971
0.00022063273
6.9803028e-05
3.7354728e-05
2.0590216e-05
1.165286e-05
6.5649314e-06
4.1685521e-06
3.2550567e-06
2.7969493e-06
2.5788957e-06
2.4367969e-06
2.3549512e-06
2.2768393e-06
2.2172789e-06
2.1613636e-06
2.1356822e-06
2.1418819e-06
2.2014504e-06
2.3017702e-06
2.4440869e-06
2.629066e-06
2.8615481e-06
3.1448002e-06
3.4849411e-06
3.8862701e-06
4.3557074e-06
4.8974168e-06
5.5160603e-06
6.2086972e-06
6.9614846e-06
7.7615722e-06
8.6155107e-06
9.5246364e-06
0.00054532021
0.00054305569
0.00054053634
0.00053776994
0.00053476429
0.00053152713
0.00052806724
0.00052439335
0.00052051491
0.00051644001
0.00051217708
0.00050773311
0.00050311534
0.00049832926
0.0004933803
0.0004882723
0.00048300896
0.00047759319
0.00047202733
0.00046631405
0.00046045161
0.0004544408
0.00044827475
0.00044195518
0.00043546891
0.00042881864
0.00042198253
0.00041496633
0.0004077378
0.00040030705
0.00039262736
0.00038471498
0.00037650422
0.0003680218
0.00035918042
0.00035002411
0.00034044352
0.00033050867
0.00032009381
0.00030930362
0.00029802115
0.00028639576
0.00027437171
0.00026207326
0.00024909332
0.00023575312
0.00022853834
0.00022741787
0.00023025646
0.00023482487
0.0002406918
0.00024742611
0.00025479278
0.00026273611
0.00027109883
0.00027994088
0.00028917914
0.00029891968
0.00030920648
0.00032029234
0.00033273308
0.00034644963
0.00036106152
0.00037645085
0.00039250738
0.00040913158
0.0004261712
0.00044347395
0.00046081471
0.00047793619
0.00049446275
0.00050973328
0.00052246702
0.0005327922
0.000541657
0.00054937389
0.00055590417
0.00053326877
0.00039815667
0.00033542627
0.00031157764
0.00030277427
0.00030046287
0.00030221567
0.00030793427
0.00031934177
0.00033538347
0.00035560419
0.00038044787
0.00041162798
0.00044931522
0.00048037707
0.00051819706
0.00057353045
0.00065184971
0.00091730727
0.0013254009
0.0017634568
0.0020640974
0.0021555275
0.0020846356
0.0019149325
0.0013947392
0.00098245849
0.00071222169
0.00057669379
0.00050719346
0.00069164484
0.00076181996
0.0012571915
0.00090218536
0.0011482075
0.00085249932
0.00069151078
0.00049570517
0.00029822327
9.3821084e-05
5.0766663e-05
2.7842376e-05
1.5741511e-05
8.8668842e-06
5.6253599e-06
4.3877747e-06
3.7685827e-06
3.4739679e-06
3.2824171e-06
3.172207e-06
3.0672368e-06
2.9871669e-06
2.911935e-06
2.8771834e-06
2.8851523e-06
2.9648259e-06
3.0994459e-06
3.2905907e-06