/*--------------------------------*- C++ -*----------------------------------*\
| =========                 |                                                 |
| \\      /  F ield         | OpenFOAM: The Open Source CFD Toolbox           |
|  \\    /   O peration     | Version:  2006                                  |
|   \\  /    A nd           | Website:  www.openfoam.com                      |
|    \\/     M anipulation  |                                                 |
\*---------------------------------------------------------------------------*/
FoamFile
{
    version     2.0;
    format      ascii;
    class       volScalarField;
    location    "20000";
    object      p;
}
// * * * * * * * * * * * * * * * * * * * * * * * * * * * * * * * * * * * * * //

dimensions      [0 2 -2 0 0 0 0];


internalField   nonuniform List<scalar> 
14751
(
-0.000121465
-0.000118594
-0.000114833
-0.000110996
-0.00010674
-0.000102223
-9.75399e-05
-9.26611e-05
-8.77287e-05
-8.27487e-05
-7.78008e-05
-7.29281e-05
-6.81766e-05
-6.35911e-05
-5.92016e-05
-5.50396e-05
-5.11227e-05
-4.74694e-05
-4.40887e-05
-4.09877e-05
-3.81653e-05
-3.56253e-05
-3.33562e-05
-3.13623e-05
-2.96246e-05
-2.81453e-05
-2.69055e-05
-2.59027e-05
-2.5123e-05
-2.45566e-05
-2.41943e-05
-2.40253e-05
-2.40408e-05
-2.42307e-05
-2.45858e-05
-2.51e-05
-2.57645e-05
-2.65727e-05
-2.75175e-05
-2.85929e-05
-2.97927e-05
-3.11104e-05
-3.25422e-05
-3.40806e-05
-3.57231e-05
-3.74631e-05
-3.92972e-05
-4.12195e-05
-4.32265e-05
-4.53127e-05
-4.74739e-05
-4.97041e-05
-5.19991e-05
-5.43524e-05
-5.67599e-05
-5.92163e-05
-6.17169e-05
-6.42551e-05
-6.68266e-05
-6.94231e-05
-7.20417e-05
-7.46739e-05
-7.73153e-05
-7.99596e-05
-8.2601e-05
-8.5233e-05
-8.78506e-05
-9.04494e-05
-9.30225e-05
-9.55662e-05
-9.80757e-05
-0.000100547
-0.000102975
-0.000105358
-0.000107689
-0.000109969
-0.000112188
-0.00011435
-0.00011644
-0.000118465
-0.000120404
-0.000122265
-0.000124026
-0.000125683
-0.000127224
-0.000128628
-0.000129882
-0.000130965
-0.00013185
-0.000132526
-0.00013295
-0.000133104
-0.000132979
-0.000132487
-0.000131698
-0.000130483
-0.000128876
-0.000126837
-0.000124702
-0.000121464
-0.000118593
-0.000114832
-0.000110995
-0.000106739
-0.000102223
-9.75399e-05
-9.26614e-05
-8.77292e-05
-8.27494e-05
-7.78016e-05
-7.29291e-05
-6.81778e-05
-6.35924e-05
-5.9203e-05
-5.50411e-05
-5.11242e-05
-4.7471e-05
-4.40903e-05
-4.09894e-05
-3.8167e-05
-3.5627e-05
-3.3358e-05
-3.13641e-05
-2.96263e-05
-2.81471e-05
-2.69073e-05
-2.59043e-05
-2.51246e-05
-2.45581e-05
-2.41958e-05
-2.40267e-05
-2.40421e-05
-2.42319e-05
-2.4587e-05
-2.51011e-05
-2.57656e-05
-2.65737e-05
-2.75184e-05
-2.85937e-05
-2.97935e-05
-3.11111e-05
-3.25428e-05
-3.40812e-05
-3.57235e-05
-3.74636e-05
-3.92975e-05
-4.12198e-05
-4.32267e-05
-4.53128e-05
-4.74739e-05
-4.97041e-05
-5.1999e-05
-5.43522e-05
-5.67596e-05
-5.92159e-05
-6.17164e-05
-6.42546e-05
-6.6826e-05
-6.94224e-05
-7.20409e-05
-7.4673e-05
-7.73144e-05
-7.99585e-05
-8.25999e-05
-8.52318e-05
-8.78494e-05
-9.04481e-05
-9.30212e-05
-9.55648e-05
-9.80741e-05
-0.000100545
-0.000102973
-0.000105356
-0.000107687
-0.000109968
-0.000112186
-0.000114348
-0.000116438
-0.000118463
-0.000120402
-0.000122263
-0.000124024
-0.000125681
-0.000127222
-0.000128625
-0.00012988
-0.000130963
-0.000131848
-0.000132523
-0.000132948
-0.000133102
-0.000132977
-0.000132485
-0.000131696
-0.000130481
-0.000128874
-0.000126835
-0.000124701
-0.000121463
-0.000118593
-0.000114832
-0.000110995
-0.00010674
-0.000102224
-9.75417e-05
-9.26633e-05
-8.77312e-05
-8.27515e-05
-7.78037e-05
-7.29312e-05
-6.81798e-05
-6.35944e-05
-5.9205e-05
-5.50431e-05
-5.11262e-05
-4.74729e-05
-4.40922e-05
-4.09913e-05
-3.8169e-05
-3.5629e-05
-3.336e-05
-3.13662e-05
-2.96284e-05
-2.81491e-05
-2.69093e-05
-2.59064e-05
-2.51266e-05
-2.456e-05
-2.41976e-05
-2.40285e-05
-2.40438e-05
-2.42335e-05
-2.45885e-05
-2.51025e-05
-2.57668e-05
-2.65749e-05
-2.75195e-05
-2.85947e-05
-2.97944e-05
-3.11119e-05
-3.25436e-05
-3.40818e-05
-3.57241e-05
-3.7464e-05
-3.92979e-05
-4.122e-05
-4.32269e-05
-4.53128e-05
-4.74738e-05
-4.97039e-05
-5.19987e-05
-5.43518e-05
-5.67591e-05
-5.92153e-05
-6.17157e-05
-6.42537e-05
-6.6825e-05
-6.94214e-05
-7.20398e-05
-7.46717e-05
-7.7313e-05
-7.99571e-05
-8.25983e-05
-8.52301e-05
-8.78476e-05
-9.04463e-05
-9.30192e-05
-9.55627e-05
-9.8072e-05
-0.000100543
-0.000102971
-0.000105354
-0.000107684
-0.000109965
-0.000112183
-0.000114346
-0.000116435
-0.00011846
-0.000120399
-0.00012226
-0.000124021
-0.000125678
-0.000127219
-0.000128623
-0.000129877
-0.00013096
-0.000131845
-0.000132521
-0.000132946
-0.000133099
-0.000132974
-0.000132482
-0.000131694
-0.000130479
-0.000128872
-0.000126833
-0.0001247
-0.000121462
-0.000118593
-0.000114833
-0.000110997
-0.000106743
-0.000102227
-9.75449e-05
-9.26666e-05
-8.77344e-05
-8.27546e-05
-7.78066e-05
-7.29339e-05
-6.81825e-05
-6.35969e-05
-5.92074e-05
-5.50453e-05
-5.11282e-05
-4.74749e-05
-4.40941e-05
-4.09932e-05
-3.81709e-05
-3.5631e-05
-3.3362e-05
-3.13683e-05
-2.96306e-05
-2.81513e-05
-2.69115e-05
-2.59085e-05
-2.51287e-05
-2.45621e-05
-2.41996e-05
-2.40304e-05
-2.40456e-05
-2.42352e-05
-2.45901e-05
-2.5104e-05
-2.57682e-05
-2.65761e-05
-2.75206e-05
-2.85957e-05
-2.97952e-05
-3.11127e-05
-3.25442e-05
-3.40823e-05
-3.57245e-05
-3.74643e-05
-3.9298e-05
-4.12201e-05
-4.32268e-05
-4.53126e-05
-4.74735e-05
-4.97034e-05
-5.19981e-05
-5.4351e-05
-5.67582e-05
-5.92142e-05
-6.17145e-05
-6.42524e-05
-6.68235e-05
-6.94197e-05
-7.2038e-05
-7.46699e-05
-7.7311e-05
-7.99549e-05
-8.25961e-05
-8.52278e-05
-8.78452e-05
-9.04437e-05
-9.30165e-05
-9.55599e-05
-9.80691e-05
-0.00010054
-0.000102968
-0.00010535
-0.000107681
-0.000109962
-0.00011218
-0.000114342
-0.000116431
-0.000118457
-0.000120396
-0.000122256
-0.000124018
-0.000125675
-0.000127216
-0.00012862
-0.000129874
-0.000130957
-0.000131842
-0.000132518
-0.000132943
-0.000133096
-0.000132972
-0.00013248
-0.000131692
-0.000130477
-0.000128871
-0.000126832
-0.000124701
-0.000121462
-0.000118595
-0.000114835
-0.000111
-0.000106747
-0.000102232
-9.75499e-05
-9.26715e-05
-8.77392e-05
-8.27591e-05
-7.78108e-05
-7.29379e-05
-6.81862e-05
-6.36003e-05
-5.92105e-05
-5.50482e-05
-5.11309e-05
-4.74773e-05
-4.40964e-05
-4.09955e-05
-3.81731e-05
-3.56333e-05
-3.33644e-05
-3.13707e-05
-2.96331e-05
-2.81539e-05
-2.69141e-05
-2.59111e-05
-2.51312e-05
-2.45645e-05
-2.42019e-05
-2.40326e-05
-2.40476e-05
-2.42371e-05
-2.45918e-05
-2.51056e-05
-2.57697e-05
-2.65774e-05
-2.75217e-05
-2.85967e-05
-2.9796e-05
-3.11133e-05
-3.25447e-05
-3.40826e-05
-3.57246e-05
-3.74642e-05
-3.92978e-05
-4.12196e-05
-4.32261e-05
-4.53118e-05
-4.74725e-05
-4.97023e-05
-5.19967e-05
-5.43495e-05
-5.67565e-05
-5.92123e-05
-6.17124e-05
-6.42502e-05
-6.68211e-05
-6.94172e-05
-7.20353e-05
-7.4667e-05
-7.7308e-05
-7.99518e-05
-8.25928e-05
-8.52244e-05
-8.78416e-05
-9.044e-05
-9.30127e-05
-9.5556e-05
-9.80651e-05
-0.000100536
-0.000102964
-0.000105346
-0.000107676
-0.000109957
-0.000112175
-0.000114338
-0.000116426
-0.000118452
-0.000120391
-0.000122252
-0.000124014
-0.00012567
-0.000127212
-0.000128616
-0.000129871
-0.000130954
-0.000131839
-0.000132515
-0.00013294
-0.000133094
-0.00013297
-0.000132478
-0.00013169
-0.000130476
-0.00012887
-0.000126831
-0.000124703
-0.000121463
-0.000118599
-0.000114839
-0.000111005
-0.000106753
-0.000102238
-9.75573e-05
-9.26789e-05
-8.77463e-05
-8.27659e-05
-7.78172e-05
-7.29439e-05
-6.81917e-05
-6.36055e-05
-5.92153e-05
-5.50526e-05
-5.11349e-05
-4.74811e-05
-4.41e-05
-4.09989e-05
-3.81765e-05
-3.56367e-05
-3.33678e-05
-3.13742e-05
-2.96365e-05
-2.81574e-05
-2.69175e-05
-2.59144e-05
-2.51344e-05
-2.45676e-05
-2.42048e-05
-2.40353e-05
-2.40501e-05
-2.42393e-05
-2.45939e-05
-2.51075e-05
-2.57713e-05
-2.65788e-05
-2.75228e-05
-2.85974e-05
-2.97966e-05
-3.11135e-05
-3.25446e-05
-3.40822e-05
-3.57239e-05
-3.74633e-05
-3.92966e-05
-4.12182e-05
-4.32244e-05
-4.53098e-05
-4.74702e-05
-4.96997e-05
-5.19939e-05
-5.43465e-05
-5.67533e-05
-5.92089e-05
-6.17088e-05
-6.42463e-05
-6.68171e-05
-6.9413e-05
-7.20309e-05
-7.46625e-05
-7.73034e-05
-7.9947e-05
-8.25879e-05
-8.52193e-05
-8.78365e-05
-9.04348e-05
-9.30074e-05
-9.55506e-05
-9.80595e-05
-0.00010053
-0.000102958
-0.00010534
-0.00010767
-0.000109951
-0.000112169
-0.000114332
-0.00011642
-0.000118446
-0.000120385
-0.000122246
-0.000124008
-0.000125665
-0.000127207
-0.000128611
-0.000129866
-0.00013095
-0.000131835
-0.000132512
-0.000132938
-0.000133092
-0.000132968
-0.000132476
-0.000131689
-0.000130476
-0.00012887
-0.00012683
-0.000124707
-0.000121467
-0.000118604
-0.000114846
-0.000111013
-0.000106762
-0.000102249
-9.75686e-05
-9.26903e-05
-8.77575e-05
-8.27766e-05
-7.78274e-05
-7.29537e-05
-6.8201e-05
-6.36143e-05
-5.92236e-05
-5.50603e-05
-5.11422e-05
-4.74879e-05
-4.41064e-05
-4.1005e-05
-3.81825e-05
-3.56426e-05
-3.33735e-05
-3.13798e-05
-2.9642e-05
-2.81627e-05
-2.69226e-05
-2.59192e-05
-2.5139e-05
-2.45718e-05
-2.42086e-05
-2.40387e-05
-2.40532e-05
-2.4242e-05
-2.45963e-05
-2.51095e-05
-2.57728e-05
-2.65799e-05
-2.75235e-05
-2.85977e-05
-2.97963e-05
-3.11128e-05
-3.25435e-05
-3.40807e-05
-3.5722e-05
-3.74609e-05
-3.92938e-05
-4.12149e-05
-4.32207e-05
-4.53057e-05
-4.74657e-05
-4.96948e-05
-5.19886e-05
-5.4341e-05
-5.67476e-05
-5.92029e-05
-6.17025e-05
-6.42398e-05
-6.68104e-05
-6.9406e-05
-7.20238e-05
-7.46552e-05
-7.72959e-05
-7.99394e-05
-8.25802e-05
-8.52116e-05
-8.78287e-05
-9.04269e-05
-9.29995e-05
-9.55427e-05
-9.80516e-05
-0.000100522
-0.00010295
-0.000105332
-0.000107662
-0.000109943
-0.000112161
-0.000114323
-0.000116412
-0.000118438
-0.000120377
-0.000122239
-0.000124001
-0.000125659
-0.0001272
-0.000128605
-0.000129861
-0.000130945
-0.000131831
-0.000132509
-0.000132935
-0.00013309
-0.000132967
-0.000132476
-0.00013169
-0.000130477
-0.000128873
-0.000126832
-0.000124713
-0.000121474
-0.000118613
-0.000114857
-0.000111025
-0.000106776
-0.000102264
-9.75852e-05
-9.27072e-05
-8.77741e-05
-8.27927e-05
-7.78428e-05
-7.29684e-05
-6.82151e-05
-6.36277e-05
-5.92361e-05
-5.5072e-05
-5.1153e-05
-4.7498e-05
-4.41158e-05
-4.10139e-05
-3.81908e-05
-3.56506e-05
-3.33811e-05
-3.13871e-05
-2.96489e-05
-2.81692e-05
-2.69286e-05
-2.59248e-05
-2.5144e-05
-2.45763e-05
-2.42126e-05
-2.40422e-05
-2.4056e-05
-2.42443e-05
-2.4598e-05
-2.51106e-05
-2.57734e-05
-2.65798e-05
-2.75229e-05
-2.85965e-05
-2.97945e-05
-3.11105e-05
-3.25406e-05
-3.40772e-05
-3.5718e-05
-3.74563e-05
-3.92887e-05
-4.12093e-05
-4.32146e-05
-4.52991e-05
-4.74586e-05
-4.96873e-05
-5.19807e-05
-5.43326e-05
-5.67389e-05
-5.91939e-05
-6.16932e-05
-6.42302e-05
-6.68005e-05
-6.9396e-05
-7.20136e-05
-7.46449e-05
-7.72856e-05
-7.9929e-05
-8.25697e-05
-8.52011e-05
-8.78181e-05
-9.04163e-05
-9.29889e-05
-9.55321e-05
-9.80409e-05
-0.000100512
-0.000102939
-0.000105321
-0.000107652
-0.000109932
-0.00011215
-0.000114313
-0.000116402
-0.000118428
-0.000120367
-0.000122229
-0.000123992
-0.00012565
-0.000127193
-0.000128598
-0.000129854
-0.00013094
-0.000131827
-0.000132506
-0.000132933
-0.000133088
-0.000132967
-0.000132476
-0.000131692
-0.00013048
-0.000128877
-0.000126835
-0.000124723
-0.000121486
-0.000118626
-0.000114873
-0.000111042
-0.000106796
-0.000102285
-9.76067e-05
-9.2729e-05
-8.77955e-05
-8.28133e-05
-7.78625e-05
-7.29871e-05
-6.82326e-05
-6.36441e-05
-5.92513e-05
-5.5086e-05
-5.11658e-05
-4.75096e-05
-4.41263e-05
-4.10235e-05
-3.81996e-05
-3.56587e-05
-3.33885e-05
-3.1394e-05
-2.96552e-05
-2.81749e-05
-2.69337e-05
-2.59293e-05
-2.51479e-05
-2.45795e-05
-2.42151e-05
-2.4044e-05
-2.40571e-05
-2.42448e-05
-2.45978e-05
-2.51098e-05
-2.57719e-05
-2.65777e-05
-2.75201e-05
-2.85931e-05
-2.97905e-05
-3.11059e-05
-3.25353e-05
-3.40714e-05
-3.57116e-05
-3.74493e-05
-3.92812e-05
-4.12012e-05
-4.3206e-05
-4.52899e-05
-4.74489e-05
-4.96771e-05
-5.19701e-05
-5.43217e-05
-5.67277e-05
-5.91823e-05
-6.16814e-05
-6.42182e-05
-6.67883e-05
-6.93837e-05
-7.20012e-05
-7.46324e-05
-7.72731e-05
-7.99164e-05
-8.25572e-05
-8.51886e-05
-8.78057e-05
-9.0404e-05
-9.29766e-05
-9.55198e-05
-9.80287e-05
-0.0001005
-0.000102927
-0.000105309
-0.000107639
-0.00010992
-0.000112138
-0.000114301
-0.00011639
-0.000118416
-0.000120356
-0.000122219
-0.000123982
-0.000125641
-0.000127184
-0.00012859
-0.000129848
-0.000130934
-0.000131823
-0.000132503
-0.000132932
-0.000133088
-0.000132968
-0.000132478
-0.000131695
-0.000130486
-0.000128884
-0.000126842
-0.000124735
-0.000121503
-0.000118644
-0.000114894
-0.000111064
-0.00010682
-0.00010231
-9.76328e-05
-9.27552e-05
-8.78208e-05
-8.28376e-05
-7.78854e-05
-7.30085e-05
-6.82525e-05
-6.36623e-05
-5.92679e-05
-5.51009e-05
-5.1179e-05
-4.75212e-05
-4.41366e-05
-4.10325e-05
-3.82076e-05
-3.56657e-05
-3.33947e-05
-3.13994e-05
-2.96598e-05
-2.81789e-05
-2.6937e-05
-2.59317e-05
-2.51496e-05
-2.45805e-05
-2.42154e-05
-2.40435e-05
-2.40559e-05
-2.42428e-05
-2.45952e-05
-2.51065e-05
-2.57679e-05
-2.65731e-05
-2.75149e-05
-2.85871e-05
-2.9784e-05
-3.10987e-05
-3.25275e-05
-3.40631e-05
-3.57026e-05
-3.74398e-05
-3.9271e-05
-4.11905e-05
-4.31948e-05
-4.52783e-05
-4.74368e-05
-4.96646e-05
-5.19572e-05
-5.43084e-05
-5.67141e-05
-5.91686e-05
-6.16675e-05
-6.42041e-05
-6.67741e-05
-6.93695e-05
-7.19869e-05
-7.46182e-05
-7.72589e-05
-7.99023e-05
-8.25433e-05
-8.51748e-05
-8.77921e-05
-9.03904e-05
-9.29632e-05
-9.55066e-05
-9.80156e-05
-0.000100487
-0.000102914
-0.000105296
-0.000107627
-0.000109907
-0.000112125
-0.000114288
-0.000116378
-0.000118405
-0.000120345
-0.000122208
-0.000123972
-0.000125632
-0.000127176
-0.000128583
-0.000129842
-0.00013093
-0.000131819
-0.000132501
-0.000132932
-0.00013309
-0.000132972
-0.000132483
-0.000131702
-0.000130495
-0.000128895
-0.000126852
-0.000124752
-0.000121524
-0.000118665
-0.000114919
-0.000111091
-0.000106848
-0.00010234
-9.76632e-05
-9.27854e-05
-8.78498e-05
-8.28651e-05
-7.7911e-05
-7.30321e-05
-6.8274e-05
-6.36817e-05
-5.92851e-05
-5.5116e-05
-5.11921e-05
-4.75323e-05
-4.41459e-05
-4.10403e-05
-3.8214e-05
-3.5671e-05
-3.33989e-05
-3.14027e-05
-2.96623e-05
-2.81805e-05
-2.69377e-05
-2.59317e-05
-2.51488e-05
-2.45789e-05
-2.4213e-05
-2.40403e-05
-2.40519e-05
-2.42381e-05
-2.45898e-05
-2.51004e-05
-2.57612e-05
-2.65657e-05
-2.75069e-05
-2.85785e-05
-2.97747e-05
-3.10889e-05
-3.2517e-05
-3.4052e-05
-3.5691e-05
-3.74276e-05
-3.92583e-05
-4.11773e-05
-4.31811e-05
-4.52641e-05
-4.74223e-05
-4.96497e-05
-5.19419e-05
-5.4293e-05
-5.66985e-05
-5.91528e-05
-6.16516e-05
-6.41882e-05
-6.67582e-05
-6.93536e-05
-7.19711e-05
-7.46025e-05
-7.72434e-05
-7.9887e-05
-8.25282e-05
-8.51599e-05
-8.77775e-05
-9.03761e-05
-9.29492e-05
-9.54927e-05
-9.8002e-05
-0.000100473
-0.000102901
-0.000105283
-0.000107613
-0.000109894
-0.000112113
-0.000114276
-0.000116365
-0.000118393
-0.000120334
-0.000122197
-0.000123962
-0.000125623
-0.000127168
-0.000128577
-0.000129837
-0.000130926
-0.000131818
-0.000132501
-0.000132934
-0.000133094
-0.000132978
-0.000132491
-0.000131712
-0.000130507
-0.00012891
-0.000126867
-0.000124773
-0.000121551
-0.000118691
-0.00011495
-0.000111122
-0.000106881
-0.000102375
-9.76975e-05
-9.28194e-05
-8.78821e-05
-8.28953e-05
-7.79389e-05
-7.30575e-05
-6.82968e-05
-6.37018e-05
-5.93026e-05
-5.51309e-05
-5.12044e-05
-4.75423e-05
-4.41538e-05
-4.10464e-05
-3.82185e-05
-3.56741e-05
-3.34008e-05
-3.14034e-05
-2.9662e-05
-2.81793e-05
-2.69356e-05
-2.59287e-05
-2.5145e-05
-2.45742e-05
-2.42075e-05
-2.40341e-05
-2.4045e-05
-2.42304e-05
-2.45815e-05
-2.50914e-05
-2.57516e-05
-2.65554e-05
-2.7496e-05
-2.8567e-05
-2.97626e-05
-3.10762e-05
-3.25038e-05
-3.40382e-05
-3.56766e-05
-3.74128e-05
-3.9243e-05
-4.11616e-05
-4.3165e-05
-4.52476e-05
-4.74054e-05
-4.96325e-05
-5.19245e-05
-5.42753e-05
-5.66808e-05
-5.9135e-05
-6.16338e-05
-6.41705e-05
-6.67406e-05
-6.93362e-05
-7.19539e-05
-7.45856e-05
-7.72268e-05
-7.98707e-05
-8.25123e-05
-8.51444e-05
-8.77623e-05
-9.03613e-05
-9.29347e-05
-9.54786e-05
-9.79881e-05
-0.000100459
-0.000102887
-0.00010527
-0.0001076
-0.000109881
-0.0001121
-0.000114263
-0.000116353
-0.000118381
-0.000120323
-0.000122187
-0.000123953
-0.000125615
-0.000127161
-0.000128572
-0.000129833
-0.000130924
-0.000131818
-0.000132504
-0.000132939
-0.000133101
-0.000132987
-0.000132503
-0.000131726
-0.000130524
-0.000128929
-0.000126886
-0.000124797
-0.000121582
-0.000118722
-0.000114985
-0.000111157
-0.000106919
-0.000102414
-9.77357e-05
-9.28569e-05
-8.79174e-05
-8.29281e-05
-7.79687e-05
-7.30842e-05
-6.83204e-05
-6.37223e-05
-5.93199e-05
-5.5145e-05
-5.12156e-05
-4.75508e-05
-4.41599e-05
-4.10502e-05
-3.82205e-05
-3.56745e-05
-3.33998e-05
-3.14012e-05
-2.96587e-05
-2.81749e-05
-2.69304e-05
-2.59225e-05
-2.51379e-05
-2.45663e-05
-2.41988e-05
-2.40246e-05
-2.40347e-05
-2.42195e-05
-2.45699e-05
-2.50792e-05
-2.57388e-05
-2.6542e-05
-2.74821e-05
-2.85525e-05
-2.97475e-05
-3.10606e-05
-3.24876e-05
-3.40216e-05
-3.56596e-05
-3.73953e-05
-3.92251e-05
-4.11433e-05
-4.31463e-05
-4.52287e-05
-4.73862e-05
-4.96131e-05
-5.19049e-05
-5.42557e-05
-5.66611e-05
-5.91154e-05
-6.16143e-05
-6.41512e-05
-6.67215e-05
-6.93175e-05
-7.19355e-05
-7.45676e-05
-7.72093e-05
-7.98536e-05
-8.24956e-05
-8.51282e-05
-8.77467e-05
-9.03461e-05
-9.29199e-05
-9.54642e-05
-9.79741e-05
-0.000100446
-0.000102874
-0.000105257
-0.000107587
-0.000109868
-0.000112087
-0.000114251
-0.000116341
-0.00011837
-0.000120312
-0.000122178
-0.000123945
-0.000125608
-0.000127156
-0.000128568
-0.000129831
-0.000130924
-0.00013182
-0.000132509
-0.000132946
-0.000133111
-0.000132999
-0.000132518
-0.000131743
-0.000130544
-0.000128952
-0.000126909
-0.000124825
-0.000121619
-0.000118756
-0.000115024
-0.000111197
-0.00010696
-0.000102457
-9.77777e-05
-9.28978e-05
-8.79555e-05
-8.29632e-05
-7.80004e-05
-7.31122e-05
-6.83447e-05
-6.37428e-05
-5.93368e-05
-5.51583e-05
-5.12255e-05
-4.75575e-05
-4.41637e-05
-4.10516e-05
-3.82198e-05
-3.56719e-05
-3.33958e-05
-3.13958e-05
-2.96521e-05
-2.81671e-05
-2.69216e-05
-2.59127e-05
-2.51272e-05
-2.45548e-05
-2.41865e-05
-2.40115e-05
-2.4021e-05
-2.42051e-05
-2.45549e-05
-2.50636e-05
-2.57227e-05
-2.65253e-05
-2.74649e-05
-2.85347e-05
-2.97293e-05
-3.10419e-05
-3.24685e-05
-3.40021e-05
-3.56397e-05
-3.7375e-05
-3.92045e-05
-4.11224e-05
-4.31252e-05
-4.52073e-05
-4.73646e-05
-4.95914e-05
-5.18831e-05
-5.4234e-05
-5.66395e-05
-5.9094e-05
-6.15932e-05
-6.41304e-05
-6.6701e-05
-6.92974e-05
-7.19159e-05
-7.45485e-05
-7.71909e-05
-7.98358e-05
-8.24784e-05
-8.51116e-05
-8.77307e-05
-9.03306e-05
-9.2905e-05
-9.54498e-05
-9.79601e-05
-0.000100432
-0.000102861
-0.000105244
-0.000107574
-0.000109856
-0.000112075
-0.000114239
-0.00011633
-0.000118359
-0.000120302
-0.000122169
-0.000123937
-0.000125601
-0.000127151
-0.000128565
-0.00012983
-0.000130926
-0.000131825
-0.000132516
-0.000132956
-0.000133124
-0.000133015
-0.000132537
-0.000131764
-0.000130569
-0.00012898
-0.000126937
-0.000124858
-0.000121661
-0.000118796
-0.000115069
-0.000111242
-0.000107007
-0.000102504
-9.78234e-05
-9.29421e-05
-8.79965e-05
-8.30006e-05
-7.80337e-05
-7.31413e-05
-6.83695e-05
-6.37633e-05
-5.9353e-05
-5.51704e-05
-5.12337e-05
-4.75622e-05
-4.41652e-05
-4.10503e-05
-3.82161e-05
-3.56662e-05
-3.33883e-05
-3.13867e-05
-2.96418e-05
-2.81556e-05
-2.6909e-05
-2.58992e-05
-2.51127e-05
-2.45395e-05
-2.41704e-05
-2.39947e-05
-2.40035e-05
-2.4187e-05
-2.45362e-05
-2.50444e-05
-2.5703e-05
-2.65052e-05
-2.74443e-05
-2.85137e-05
-2.97079e-05
-3.10201e-05
-3.24463e-05
-3.39796e-05
-3.56168e-05
-3.73519e-05
-3.91812e-05
-4.10989e-05
-4.31014e-05
-4.51834e-05
-4.73406e-05
-4.95674e-05
-5.18592e-05
-5.42102e-05
-5.6616e-05
-5.90708e-05
-6.15703e-05
-6.41079e-05
-6.6679e-05
-6.92761e-05
-7.18952e-05
-7.45285e-05
-7.71715e-05
-7.98172e-05
-8.24605e-05
-8.50945e-05
-8.77143e-05
-9.03149e-05
-9.289e-05
-9.54354e-05
-9.79462e-05
-0.000100419
-0.000102848
-0.000105231
-0.000107562
-0.000109843
-0.000112063
-0.000114227
-0.000116319
-0.000118348
-0.000120293
-0.000122161
-0.00012393
-0.000125596
-0.000127148
-0.000128564
-0.000129831
-0.00013093
-0.000131831
-0.000132525
-0.000132969
-0.00013314
-0.000133034
-0.00013256
-0.000131789
-0.000130597
-0.000129012
-0.00012697
-0.000124895
-0.000121709
-0.00011884
-0.000115118
-0.000111292
-0.000107057
-0.000102555
-9.7873e-05
-9.29899e-05
-8.80405e-05
-8.30403e-05
-7.80687e-05
-7.31714e-05
-6.83948e-05
-6.37836e-05
-5.93685e-05
-5.51813e-05
-5.12402e-05
-4.75646e-05
-4.41641e-05
-4.10461e-05
-3.82092e-05
-3.5657e-05
-3.33772e-05
-3.13739e-05
-2.96276e-05
-2.81401e-05
-2.68924e-05
-2.58815e-05
-2.50942e-05
-2.45201e-05
-2.41502e-05
-2.39739e-05
-2.3982e-05
-2.41649e-05
-2.45137e-05
-2.50214e-05
-2.56796e-05
-2.64814e-05
-2.74201e-05
-2.84892e-05
-2.9683e-05
-3.0995e-05
-3.24209e-05
-3.39539e-05
-3.55909e-05
-3.73258e-05
-3.91549e-05
-4.10725e-05
-4.3075e-05
-4.51569e-05
-4.73141e-05
-4.9541e-05
-5.18329e-05
-5.41842e-05
-5.65903e-05
-5.90456e-05
-6.15456e-05
-6.40838e-05
-6.66555e-05
-6.92534e-05
-7.18732e-05
-7.45073e-05
-7.71513e-05
-7.97978e-05
-8.2442e-05
-8.50768e-05
-8.76975e-05
-9.02989e-05
-9.28747e-05
-9.54208e-05
-9.79323e-05
-0.000100405
-0.000102834
-0.000105218
-0.00010755
-0.000109831
-0.000112051
-0.000114216
-0.000116308
-0.000118339
-0.000120284
-0.000122153
-0.000123924
-0.000125592
-0.000127146
-0.000128564
-0.000129834
-0.000130935
-0.00013184
-0.000132538
-0.000132985
-0.00013316
-0.000133057
-0.000132586
-0.000131818
-0.000130631
-0.000129049
-0.000127008
-0.000124936
-0.000121762
-0.000118889
-0.000115173
-0.000111347
-0.000107113
-0.000102611
-9.79267e-05
-9.30413e-05
-8.80874e-05
-8.30825e-05
-7.81055e-05
-7.32027e-05
-6.84205e-05
-6.38038e-05
-5.93833e-05
-5.51908e-05
-5.12449e-05
-4.75648e-05
-4.41603e-05
-4.10387e-05
-3.8199e-05
-3.56441e-05
-3.33623e-05
-3.13571e-05
-2.96093e-05
-2.81204e-05
-2.68715e-05
-2.58596e-05
-2.50713e-05
-2.44964e-05
-2.41258e-05
-2.39487e-05
-2.39563e-05
-2.41387e-05
-2.44871e-05
-2.49944e-05
-2.56522e-05
-2.64537e-05
-2.73922e-05
-2.8461e-05
-2.96545e-05
-3.09663e-05
-3.2392e-05
-3.39249e-05
-3.55617e-05
-3.72965e-05
-3.91255e-05
-4.10431e-05
-4.30456e-05
-4.51276e-05
-4.72849e-05
-4.9512e-05
-5.18042e-05
-5.41558e-05
-5.65624e-05
-5.90183e-05
-6.15189e-05
-6.40579e-05
-6.66304e-05
-6.92291e-05
-7.18499e-05
-7.4485e-05
-7.71299e-05
-7.97775e-05
-8.24227e-05
-8.50586e-05
-8.76802e-05
-9.02825e-05
-9.28592e-05
-9.54061e-05
-9.79182e-05
-0.000100392
-0.000102821
-0.000105205
-0.000107537
-0.000109819
-0.00011204
-0.000114205
-0.000116298
-0.000118329
-0.000120276
-0.000122146
-0.000123919
-0.000125589
-0.000127145
-0.000128566
-0.000129839
-0.000130943
-0.000131852
-0.000132553
-0.000133004
-0.000133183
-0.000133083
-0.000132617
-0.000131852
-0.000130668
-0.00012909
-0.000127051
-0.000124982
-0.00012182
-0.000118944
-0.000115233
-0.000111406
-0.000107173
-0.000102672
-9.79848e-05
-9.30966e-05
-8.81377e-05
-8.31273e-05
-7.81443e-05
-7.32352e-05
-6.84467e-05
-6.38238e-05
-5.93973e-05
-5.51989e-05
-5.12475e-05
-4.75624e-05
-4.41535e-05
-4.10281e-05
-3.81851e-05
-3.56274e-05
-3.33433e-05
-3.1336e-05
-2.95866e-05
-2.80962e-05
-2.68461e-05
-2.5833e-05
-2.50438e-05
-2.44681e-05
-2.40967e-05
-2.39191e-05
-2.39261e-05
-2.41081e-05
-2.44561e-05
-2.49632e-05
-2.56207e-05
-2.6422e-05
-2.73602e-05
-2.84288e-05
-2.96222e-05
-3.09339e-05
-3.23594e-05
-3.38923e-05
-3.55291e-05
-3.72638e-05
-3.90929e-05
-4.10105e-05
-4.30131e-05
-4.50953e-05
-4.72528e-05
-4.94802e-05
-5.17728e-05
-5.41249e-05
-5.65321e-05
-5.89887e-05
-6.14901e-05
-6.403e-05
-6.66034e-05
-6.92032e-05
-7.1825e-05
-7.44613e-05
-7.71074e-05
-7.97561e-05
-8.24025e-05
-8.50395e-05
-8.76623e-05
-9.02656e-05
-9.28433e-05
-9.53911e-05
-9.79039e-05
-0.000100378
-0.000102808
-0.000105193
-0.000107525
-0.000109807
-0.000112029
-0.000114194
-0.000116288
-0.00011832
-0.000120269
-0.00012214
-0.000123915
-0.000125587
-0.000127145
-0.000128569
-0.000129845
-0.000130953
-0.000131866
-0.00013257
-0.000133026
-0.000133209
-0.000133113
-0.000132652
-0.00013189
-0.000130711
-0.000129137
-0.000127099
-0.000125033
-0.000121884
-0.000119004
-0.000115299
-0.000111472
-0.000107239
-0.000102738
-9.80475e-05
-9.31561e-05
-8.81915e-05
-8.31749e-05
-7.81852e-05
-7.3269e-05
-6.84736e-05
-6.38437e-05
-5.94105e-05
-5.52056e-05
-5.12482e-05
-4.75575e-05
-4.41437e-05
-4.1014e-05
-3.81674e-05
-3.56065e-05
-3.332e-05
-3.13104e-05
-2.95593e-05
-2.80672e-05
-2.68159e-05
-2.58017e-05
-2.50114e-05
-2.44349e-05
-2.40629e-05
-2.38847e-05
-2.38912e-05
-2.40728e-05
-2.44206e-05
-2.49274e-05
-2.55847e-05
-2.63859e-05
-2.7324e-05
-2.83925e-05
-2.95858e-05
-3.08975e-05
-3.23229e-05
-3.38559e-05
-3.54927e-05
-3.72275e-05
-3.90567e-05
-4.09745e-05
-4.29773e-05
-4.50597e-05
-4.72176e-05
-4.94453e-05
-5.17384e-05
-5.40912e-05
-5.64992e-05
-5.89566e-05
-6.1459e-05
-6.39999e-05
-6.65744e-05
-6.91754e-05
-7.17984e-05
-7.4436e-05
-7.70834e-05
-7.97335e-05
-8.23812e-05
-8.50196e-05
-8.76437e-05
-9.02481e-05
-9.28269e-05
-9.53757e-05
-9.78894e-05
-0.000100364
-0.000102795
-0.00010518
-0.000107513
-0.000109795
-0.000112017
-0.000114184
-0.000116279
-0.000118312
-0.000120262
-0.000122135
-0.000123912
-0.000125586
-0.000127147
-0.000128573
-0.000129853
-0.000130965
-0.000131882
-0.000132591
-0.000133052
-0.000133239
-0.000133147
-0.000132692
-0.000131932
-0.000130759
-0.000129189
-0.000127153
-0.00012509
-0.000121955
-0.000119071
-0.000115371
-0.000111544
-0.000107311
-0.00010281
-9.81153e-05
-9.32202e-05
-8.82492e-05
-8.32257e-05
-7.82284e-05
-7.33045e-05
-6.85013e-05
-6.38637e-05
-5.94229e-05
-5.52108e-05
-5.12467e-05
-4.755e-05
-4.41307e-05
-4.09962e-05
-3.81457e-05
-3.55814e-05
-3.32921e-05
-3.128e-05
-2.9527e-05
-2.80332e-05
-2.67805e-05
-2.57651e-05
-2.49738e-05
-2.43966e-05
-2.40239e-05
-2.38452e-05
-2.38512e-05
-2.40325e-05
-2.43801e-05
-2.48868e-05
-2.55441e-05
-2.63451e-05
-2.72833e-05
-2.83518e-05
-2.95451e-05
-3.08568e-05
-3.22823e-05
-3.38154e-05
-3.54523e-05
-3.71873e-05
-3.90166e-05
-4.09347e-05
-4.29378e-05
-4.50207e-05
-4.71789e-05
-4.94073e-05
-5.1701e-05
-5.40546e-05
-5.64634e-05
-5.89218e-05
-6.14253e-05
-6.39674e-05
-6.65431e-05
-6.91455e-05
-7.177e-05
-7.44091e-05
-7.7058e-05
-7.97096e-05
-8.23588e-05
-8.49986e-05
-8.76241e-05
-9.02299e-05
-9.28099e-05
-9.53598e-05
-9.78744e-05
-0.00010035
-0.000102782
-0.000105167
-0.000107501
-0.000109784
-0.000112006
-0.000114173
-0.000116269
-0.000118303
-0.000120255
-0.00012213
-0.000123909
-0.000125586
-0.00012715
-0.00012858
-0.000129863
-0.000130979
-0.000131901
-0.000132615
-0.00013308
-0.000133273
-0.000133186
-0.000132736
-0.00013198
-0.000130811
-0.000129246
-0.000127213
-0.000125152
-0.000122032
-0.000119144
-0.00011545
-0.000111622
-0.000107389
-0.000102888
-9.81886e-05
-9.32892e-05
-8.83111e-05
-8.328e-05
-7.82743e-05
-7.33417e-05
-6.853e-05
-6.38837e-05
-5.94347e-05
-5.52146e-05
-5.12432e-05
-4.75397e-05
-4.41144e-05
-4.09747e-05
-3.81198e-05
-3.55517e-05
-3.32594e-05
-3.12446e-05
-2.94896e-05
-2.79938e-05
-2.67398e-05
-2.57231e-05
-2.49308e-05
-2.43528e-05
-2.39794e-05
-2.38002e-05
-2.38059e-05
-2.3987e-05
-2.43345e-05
-2.48411e-05
-2.54984e-05
-2.62995e-05
-2.72377e-05
-2.83063e-05
-2.94997e-05
-3.08115e-05
-3.22372e-05
-3.37705e-05
-3.54076e-05
-3.71429e-05
-3.89725e-05
-4.0891e-05
-4.28945e-05
-4.49779e-05
-4.71367e-05
-4.93656e-05
-5.16601e-05
-5.40146e-05
-5.64245e-05
-5.88841e-05
-6.13888e-05
-6.39323e-05
-6.65095e-05
-6.91134e-05
-7.17395e-05
-7.43803e-05
-7.70309e-05
-7.96842e-05
-8.23351e-05
-8.49766e-05
-8.76036e-05
-9.02109e-05
-9.27923e-05
-9.53433e-05
-9.78589e-05
-0.000100335
-0.000102768
-0.000105154
-0.000107489
-0.000109772
-0.000111995
-0.000114163
-0.00011626
-0.000118295
-0.000120249
-0.000122125
-0.000123907
-0.000125587
-0.000127154
-0.000128587
-0.000129875
-0.000130995
-0.000131923
-0.000132642
-0.000133113
-0.000133312
-0.000133229
-0.000132785
-0.000132033
-0.00013087
-0.00012931
-0.000127279
-0.000125221
-0.000122117
-0.000119225
-0.000115536
-0.000111708
-0.000107474
-0.000102972
-9.8268e-05
-9.33637e-05
-8.83777e-05
-8.33381e-05
-7.83232e-05
-7.33809e-05
-6.85597e-05
-6.39039e-05
-5.94458e-05
-5.52169e-05
-5.12374e-05
-4.75264e-05
-4.40946e-05
-4.09491e-05
-3.80894e-05
-3.55171e-05
-3.32216e-05
-3.12038e-05
-2.94466e-05
-2.79488e-05
-2.66933e-05
-2.56753e-05
-2.4882e-05
-2.43032e-05
-2.39292e-05
-2.37495e-05
-2.37549e-05
-2.39358e-05
-2.42833e-05
-2.47899e-05
-2.54473e-05
-2.62485e-05
-2.71869e-05
-2.82557e-05
-2.94493e-05
-3.07614e-05
-3.21873e-05
-3.37209e-05
-3.53584e-05
-3.70941e-05
-3.89241e-05
-4.0843e-05
-4.2847e-05
-4.4931e-05
-4.70905e-05
-4.93203e-05
-5.16157e-05
-5.39712e-05
-5.63823e-05
-5.88433e-05
-6.13494e-05
-6.38944e-05
-6.64732e-05
-6.9079e-05
-7.17068e-05
-7.43495e-05
-7.7002e-05
-7.96572e-05
-8.23099e-05
-8.49533e-05
-8.75821e-05
-9.01909e-05
-9.27738e-05
-9.53262e-05
-9.7843e-05
-0.000100321
-0.000102754
-0.000105141
-0.000107476
-0.00010976
-0.000111985
-0.000114153
-0.000116251
-0.000118288
-0.000120243
-0.000122122
-0.000123906
-0.000125589
-0.000127159
-0.000128597
-0.000129889
-0.000131015
-0.000131947
-0.000132672
-0.000133149
-0.000133354
-0.000133277
-0.00013284
-0.000132092
-0.000130935
-0.000129381
-0.000127353
-0.000125296
-0.00012221
-0.000119313
-0.000115629
-0.000111801
-0.000107566
-0.000103064
-9.83539e-05
-9.34441e-05
-8.84495e-05
-8.34005e-05
-7.83752e-05
-7.34224e-05
-6.85907e-05
-6.39245e-05
-5.94563e-05
-5.52177e-05
-5.12292e-05
-4.75102e-05
-4.40711e-05
-4.09193e-05
-3.80544e-05
-3.54775e-05
-3.31784e-05
-3.11573e-05
-2.93977e-05
-2.78978e-05
-2.66407e-05
-2.56214e-05
-2.48269e-05
-2.42474e-05
-2.38728e-05
-2.36928e-05
-2.36979e-05
-2.38787e-05
-2.42263e-05
-2.4733e-05
-2.53905e-05
-2.6192e-05
-2.71306e-05
-2.81997e-05
-2.93936e-05
-3.07061e-05
-3.21323e-05
-3.36664e-05
-3.53042e-05
-3.70404e-05
-3.88709e-05
-4.07905e-05
-4.27951e-05
-4.48798e-05
-4.70401e-05
-4.92709e-05
-5.15673e-05
-5.39241e-05
-5.63366e-05
-5.8799e-05
-6.13068e-05
-6.38536e-05
-6.64342e-05
-6.90419e-05
-7.16718e-05
-7.43166e-05
-7.69712e-05
-7.96285e-05
-8.22833e-05
-8.49287e-05
-8.75595e-05
-9.01701e-05
-9.27547e-05
-9.53085e-05
-9.78267e-05
-0.000100305
-0.00010274
-0.000105128
-0.000107464
-0.000109748
-0.000111974
-0.000114143
-0.000116243
-0.00011828
-0.000120238
-0.000122119
-0.000123906