/*--------------------------------*- C++ -*----------------------------------*\
| =========                 |                                                 |
| \\      /  F ield         | OpenFOAM: The Open Source CFD Toolbox           |
|  \\    /   O peration     | Version:  2006                                  |
|   \\  /    A nd           | Website:  www.openfoam.com                      |
|    \\/     M anipulation  |                                                 |
\*---------------------------------------------------------------------------*/
FoamFile
{
    version     2.0;
    format      ascii;
    class       surfaceScalarField;
    location    "20000";
    object      phi;
}
// * * * * * * * * * * * * * * * * * * * * * * * * * * * * * * * * * * * * * //

dimensions      [0 3 -1 0 0 0 0];
oriented        oriented;


internalField   nonuniform List<scalar> 
29254
(
-6.1636e-07
4.85659e-09
-6.23897e-07
7.53709e-09
-6.28092e-07
4.1953e-09
-6.31079e-07
2.98696e-09
-6.32257e-07
1.17759e-09
-6.31213e-07
-1.04384e-09
-6.28629e-07
-2.58375e-09
-6.23943e-07
-4.68649e-09
-6.17695e-07
-6.24793e-09
-6.09913e-07
-7.78119e-09
-6.0082e-07
-9.09324e-09
-5.90636e-07
-1.01842e-08
-5.79516e-07
-1.11204e-08
-5.67689e-07
-1.18263e-08
-5.5533e-07
-1.23593e-08
-5.42641e-07
-1.26888e-08
-5.29764e-07
-1.28775e-08
-5.16855e-07
-1.29086e-08
-5.04041e-07
-1.28144e-08
-4.91436e-07
-1.26042e-08
-4.79103e-07
-1.23332e-08
-4.67143e-07
-1.196e-08
-4.55559e-07
-1.15844e-08
-4.44457e-07
-1.11015e-08
-4.33798e-07
-1.06591e-08
-4.23657e-07
-1.01417e-08
-4.13993e-07
-9.66375e-09
-4.04841e-07
-9.15151e-09
-3.96197e-07
-8.64469e-09
-3.8804e-07
-8.15683e-09
-3.80371e-07
-7.66925e-09
-3.73176e-07
-7.19486e-09
-3.6645e-07
-6.72616e-09
-3.60175e-07
-6.27413e-09
-3.54325e-07
-5.85012e-09
-3.48899e-07
-5.42599e-09
-3.43854e-07
-5.04499e-09
-3.39174e-07
-4.67999e-09
-3.34848e-07
-4.32634e-09
-3.30894e-07
-3.95421e-09
-3.27279e-07
-3.6148e-09
-3.23957e-07
-3.32161e-09
-3.20944e-07
-3.01376e-09
-3.18194e-07
-2.74952e-09
-3.15742e-07
-2.45201e-09
-3.13585e-07
-2.15661e-09
-3.11728e-07
-1.85797e-09
-3.10162e-07
-1.56506e-09
-3.08899e-07
-1.26327e-09
-3.0794e-07
-9.59528e-10
-3.07294e-07
-6.45162e-10
-3.06961e-07
-3.33691e-10
-3.06961e-07
9.1477e-14
-3.07292e-07
3.31547e-10
-3.0795e-07
6.57264e-10
-3.08926e-07
9.76167e-10
-3.10229e-07
1.30362e-09
-3.11855e-07
1.62503e-09
-3.13804e-07
1.94909e-09
-3.1603e-07
2.22687e-09
-3.18566e-07
2.53594e-09
-3.21384e-07
2.8171e-09
-3.24504e-07
3.1205e-09
-3.27943e-07
3.43915e-09
-3.31665e-07
3.7222e-09
-3.35644e-07
3.97873e-09
-3.3987e-07
4.22635e-09
-3.44361e-07
4.49092e-09
-3.49074e-07
4.71232e-09
-3.53994e-07
4.91997e-09
-3.59113e-07
5.11897e-09
-3.64426e-07
5.31311e-09
-3.6992e-07
5.494e-09
-3.75603e-07
5.68316e-09
-3.81464e-07
5.86091e-09
-3.8758e-07
6.11612e-09
-3.93889e-07
6.30953e-09
-4.00487e-07
6.59717e-09
-4.07289e-07
6.80226e-09
-4.14391e-07
7.10229e-09
-4.2176e-07
7.36921e-09
-4.29524e-07
7.76338e-09
-4.37669e-07
8.14546e-09
-4.46217e-07
8.54783e-09
-4.55267e-07
9.05011e-09
-4.64809e-07
9.54199e-09
-4.74894e-07
1.00845e-08
-4.85519e-07
1.06251e-08
-4.96595e-07
1.10765e-08
-5.08157e-07
1.15619e-08
-5.20004e-07
1.18473e-08
-5.32042e-07
1.20375e-08
-5.44376e-07
1.23342e-08
-5.56373e-07
1.19971e-08
-5.68561e-07
1.21878e-08
-5.80055e-07
1.1494e-08
-5.90515e-07
1.046e-08
-6.00021e-07
9.5064e-09
1.14817e-08
-1.90468e-06
1.78669e-08
-1.92537e-06
2.82317e-08
-1.94152e-06
2.03411e-08
-1.95608e-06
1.75468e-08
-1.96761e-06
1.27108e-08
-1.97371e-06
5.05553e-09
-1.97594e-06
-3.58249e-10
-1.97246e-06
-8.16616e-09
-1.96444e-06
-1.42596e-08
-1.952e-06
-2.02293e-08
-1.93554e-06
-2.55477e-08
-1.91561e-06
-3.01122e-08
-1.89256e-06
-3.4171e-08
-1.86697e-06
-3.74188e-08
-1.83929e-06
-4.00403e-08
-1.81005e-06
-4.19312e-08
-1.77963e-06
-4.3299e-08
-1.74847e-06
-4.40658e-08
-1.71695e-06
-4.4333e-08
-1.68541e-06
-4.41431e-08
-1.65404e-06
-4.36994e-08
-1.62317e-06
-4.28356e-08
-1.59284e-06
-4.19185e-08
-1.56339e-06
-4.05477e-08
-1.53476e-06
-3.92838e-08
-1.50721e-06
-3.76993e-08
-1.48066e-06
-3.62094e-08
-1.45527e-06
-3.45424e-08
-1.43108e-06
-3.28385e-08
-1.40805e-06
-3.11833e-08
-1.38623e-06
-2.94929e-08
-1.3656e-06
-2.78172e-08
-1.3462e-06
-2.61324e-08
-1.32799e-06
-2.44772e-08
-1.31094e-06
-2.29017e-08
-1.29504e-06
-2.13289e-08
-1.28019e-06
-1.98914e-08
-1.26637e-06
-1.85015e-08
-1.25356e-06
-1.71343e-08
-1.2418e-06
-1.57213e-08
-1.23101e-06
-1.43968e-08
-1.22115e-06
-1.31907e-08
-1.21221e-06
-1.19524e-08
-1.20411e-06
-1.08446e-08
-1.19693e-06
-9.6311e-09
-1.19068e-06
-8.41354e-09
-1.18536e-06
-7.17855e-09
-1.18096e-06
-5.95873e-09
-1.17752e-06
-4.70048e-09
-1.17506e-06
-3.42814e-09
-1.17359e-06
-2.11575e-09
-1.17312e-06
-8.00445e-10
-1.17372e-06
5.96691e-10
-1.17538e-06
1.9915e-09
-1.17807e-06
3.35115e-09
-1.18176e-06
4.66869e-09
-1.18647e-06
6.00981e-09
-1.19216e-06
7.31409e-09
-1.19881e-06
8.60688e-09
-1.20632e-06
9.73404e-09
-1.21472e-06
1.09332e-08
-1.22394e-06
1.20358e-08
-1.23397e-06
1.31525e-08
-1.24481e-06
1.42762e-08
-1.25635e-06
1.52674e-08
-1.2685e-06
1.61243e-08
-1.28119e-06
1.69172e-08
-1.29442e-06
1.77202e-08
-1.30805e-06
1.8341e-08
-1.322e-06
1.88734e-08
-1.33622e-06
1.93434e-08
-1.35067e-06
1.97625e-08
-1.36528e-06
2.01012e-08
-1.38005e-06
2.04485e-08
-1.39493e-06
2.07441e-08
-1.41009e-06
2.12792e-08
-1.42538e-06
2.15953e-08
-1.44098e-06
2.22007e-08
-1.45673e-06
2.25545e-08
-1.47291e-06
2.32798e-08
-1.4894e-06
2.38608e-08
-1.50653e-06
2.48905e-08
-1.52428e-06
2.58972e-08
-1.54274e-06
2.70051e-08
-1.56216e-06
2.84746e-08
-1.58253e-06
2.99088e-08
-1.60396e-06
3.15094e-08
-1.62643e-06
3.30967e-08
-1.6497e-06
3.43525e-08
-1.6738e-06
3.5658e-08
-1.69818e-06
3.62258e-08
-1.72266e-06
3.65213e-08
-1.7476e-06
3.72712e-08
-1.77171e-06
3.61039e-08
-1.79639e-06
3.68726e-08
-1.81969e-06
3.47936e-08
-1.84176e-06
3.25283e-08
-1.8642e-06
3.19462e-08
3.8951e-08
-3.28468e-06
3.52729e-08
-3.31772e-06
6.1271e-08
-3.34887e-06
5.14919e-08
-3.38103e-06
4.97052e-08
-3.41117e-06
4.28518e-08
-3.43403e-06
2.79167e-08
-3.45175e-06
1.73574e-08
-3.46085e-06
9.375e-10
-3.46289e-06
-1.22212e-08
-3.45791e-06
-2.52103e-08
-3.4464e-06
-3.70598e-08
-3.42905e-06
-4.74569e-08
-3.40631e-06
-5.69129e-08
-3.37899e-06
-6.47363e-08
-3.34773e-06
-7.12995e-08
-3.31329e-06
-7.63764e-08
-3.2762e-06
-8.03855e-08
-3.23715e-06
-8.31165e-08
-3.19672e-06
-8.47626e-08
-3.15544e-06
-8.54219e-08
-3.11361e-06
-8.5534e-08
-3.07175e-06
-8.46953e-08
-3.02996e-06
-8.37109e-08
-2.98885e-06
-8.16548e-08
-2.94834e-06
-7.97957e-08
-2.90887e-06
-7.71652e-08
-2.87041e-06
-7.46686e-08
-2.83326e-06
-7.16937e-08
-2.79755e-06
-6.8545e-08
-2.76328e-06
-6.54572e-08
-2.73054e-06
-6.22298e-08
-2.69939e-06
-5.89712e-08
-2.66989e-06
-5.56288e-08
-2.64209e-06
-5.22846e-08
-2.61594e-06
-4.90469e-08
-2.59146e-06
-4.58059e-08
-2.56854e-06
-4.28166e-08
-2.54715e-06
-3.98939e-08
-2.5273e-06
-3.69769e-08
-2.50905e-06
-3.39751e-08
-2.49234e-06
-3.11098e-08
-2.47711e-06
-2.84169e-08
-2.4634e-06
-2.56657e-08
-2.45109e-06
-2.31524e-08
-2.4403e-06
-2.04208e-08
-2.43105e-06
-1.76618e-08
-2.42338e-06
-1.48488e-08
-2.41728e-06
-1.20591e-08
-2.41281e-06
-9.17459e-09
-2.40998e-06
-6.25496e-09
-2.40885e-06
-3.24797e-09
-2.40943e-06
-2.21379e-10
-2.41181e-06
2.98442e-09
-2.41602e-06
6.19582e-09
-2.42198e-06
9.30897e-09
-2.42959e-06
1.22841e-08
-2.43887e-06
1.52873e-08
-2.44973e-06
1.81759e-08
-2.46212e-06
2.09933e-08
-2.47582e-06
2.34395e-08
-2.49086e-06
2.59677e-08
-2.50709e-06
2.82657e-08
-2.52442e-06
3.04852e-08
-2.54277e-06
3.26258e-08
-2.56195e-06
3.44504e-08
-2.58174e-06
3.59154e-08
-2.602e-06
3.7175e-08
-2.62264e-06
3.83587e-08
-2.64339e-06
3.90954e-08
-2.66409e-06
3.9572e-08
-2.6846e-06
3.98521e-08
-2.7048e-06
3.99645e-08
-2.72455e-06
3.98442e-08
-2.74381e-06
3.9714e-08
-2.76251e-06
3.94449e-08
-2.78088e-06
3.96454e-08
-2.79864e-06
3.93576e-08
-2.81609e-06
3.9647e-08
-2.83298e-06
3.94445e-08
-2.8498e-06
4.01031e-08
-2.86636e-06
4.04224e-08
-2.88318e-06
4.17072e-08
-2.90027e-06
4.29863e-08
-2.91781e-06
4.45426e-08
-2.93624e-06
4.69046e-08
-2.95553e-06
4.92047e-08
-2.97588e-06
5.18595e-08
-2.9973e-06
5.45174e-08
-3.01943e-06
5.64756e-08
-3.04225e-06
5.84824e-08
-3.06496e-06
5.89338e-08
-3.0874e-06
5.8965e-08
-3.11044e-06
6.03062e-08
-3.13244e-06
5.81061e-08
-3.15598e-06
6.04155e-08
-3.17852e-06
5.73341e-08
-3.2019e-06
5.59078e-08
-3.22956e-06
5.96048e-08
7.66661e-08
-4.7236e-06
5.27054e-08
-4.76659e-06
1.04267e-07
-4.81217e-06
9.70716e-08
-4.86305e-06
1.00587e-07
-4.91424e-06
9.4037e-08
-4.95751e-06
7.11837e-08
-4.99538e-06
5.52354e-08
-5.02253e-06
2.80874e-08
-5.04081e-06
6.05359e-09
-5.05009e-06
-1.59253e-08
-5.05089e-06
-3.62614e-08
-5.044e-06
-5.43511e-08
-5.02985e-06
-7.10571e-08
-5.00944e-06
-8.51476e-08
-4.98348e-06
-9.72587e-08
-4.95287e-06
-1.06985e-07
-4.91823e-06
-1.15032e-07
-4.88038e-06
-1.20966e-07
-4.84005e-06
-1.25092e-07
-4.79789e-06
-1.27579e-07
-4.75423e-06
-1.29194e-07
-4.70978e-06
-1.29146e-07
-4.66461e-06
-1.28878e-07
-4.61961e-06
-1.26658e-07
-4.57462e-06
-1.24784e-07
-4.5303e-06
-1.21488e-07
-4.48661e-06
-1.18357e-07
-4.44403e-06
-1.14277e-07
-4.40279e-06
-1.0978e-07
-4.36291e-06
-1.05338e-07
-4.32457e-06
-1.00571e-07
-4.28787e-06
-9.56729e-08
-4.25295e-06
-9.05432e-08
-4.21994e-06
-8.5299e-08
-4.18886e-06
-8.01253e-08
-4.15973e-06
-7.49409e-08
-4.13243e-06
-7.01144e-08
-4.10699e-06
-6.53372e-08
-4.08346e-06
-6.05056e-08
-4.06184e-06
-5.5592e-08
-4.0422e-06
-5.07487e-08
-4.02452e-06
-4.60946e-08
-4.00884e-06
-4.13501e-08
-3.99509e-06
-3.69059e-08
-3.98337e-06
-3.21339e-08
-3.97374e-06
-2.72968e-08
-3.96625e-06
-2.23392e-08
-3.96089e-06
-1.7412e-08
-3.95776e-06
-1.23108e-08
-3.95686e-06
-7.15027e-09
-3.95826e-06
-1.85235e-09
-3.96198e-06
3.4969e-09
-3.96813e-06
9.14118e-09
-3.97677e-06
1.48294e-08
-3.98777e-06
2.03086e-08
-4.00094e-06
2.54609e-08
-4.01627e-06
3.06164e-08
-4.0336e-06
3.55049e-08
-4.05281e-06
4.01997e-08
-4.07363e-06
4.42596e-08
-4.09596e-06
4.83022e-08
-4.1196e-06
5.19039e-08
-4.14433e-06
5.52188e-08
-4.16987e-06
5.81629e-08
-4.19599e-06
6.05682e-08
-4.22233e-06
6.22511e-08
-4.24862e-06
6.34705e-08
-4.27465e-06
6.43839e-08
-4.30003e-06
6.44751e-08
-4.32448e-06
6.40212e-08
-4.34776e-06
6.31401e-08
-4.36969e-06
6.1891e-08
-4.39001e-06
6.01632e-08
-4.40868e-06
5.83885e-08
-4.42557e-06
5.63356e-08
-4.44093e-06
5.50051e-08
-4.45442e-06
5.28477e-08
-4.46642e-06
5.1648e-08
-4.47662e-06
4.96407e-08
-4.48585e-06
4.93313e-08
-4.49375e-06
4.83267e-08
-4.50106e-06
4.90182e-08
-4.50785e-06
4.97737e-08
-4.51444e-06
5.11335e-08
-4.52146e-06
5.39202e-08
-4.52889e-06
5.66316e-08
-4.537e-06
5.99756e-08
-4.54591e-06
6.34246e-08
-4.55516e-06
6.57293e-08
-4.5648e-06
6.81252e-08
-4.57378e-06
6.79067e-08
-4.58204e-06
6.72308e-08
-4.59122e-06
6.94817e-08
-4.59941e-06
6.62999e-08
-4.6107e-06
7.17011e-08
-4.62231e-06
6.89469e-08
-4.63832e-06
7.19117e-08
-4.66373e-06
8.50226e-08
1.19096e-07
-6.17997e-06
6.58211e-08
-6.22881e-06
1.53103e-07
-6.28551e-06
1.53775e-07
-6.35243e-06
1.67501e-07
-6.42257e-06
1.64184e-07
-6.48508e-06
1.33691e-07
-6.54276e-06
1.12918e-07
-6.58854e-06
7.3864e-08
-6.62441e-06
4.19205e-08
-6.65004e-06
9.70727e-09
-6.6659e-06
-2.0403e-08
-6.67285e-06
-4.74025e-08
-6.67133e-06
-7.25764e-08
-6.66244e-06
-9.40391e-08
-6.64691e-06
-1.12782e-07
-6.62572e-06
-1.28181e-07
-6.59947e-06
-1.41282e-07
-6.56908e-06
-1.51351e-07
-6.53535e-06
-1.58822e-07
-6.49898e-06
-1.63952e-07
-6.46027e-06
-1.67904e-07
-6.42004e-06
-1.6937e-07
-6.37832e-06
-1.70598e-07
-6.33619e-06
-1.68789e-07
-6.29341e-06
-1.67561e-07
-6.25081e-06
-1.64095e-07
-6.20833e-06
-1.60836e-07
-6.16659e-06
-1.56016e-07
-6.12593e-06
-1.5044e-07
-6.08637e-06
-1.44899e-07
-6.04815e-06
-1.38788e-07
-6.01143e-06
-1.32396e-07
-5.9764e-06
-1.25572e-07
-5.94327e-06
-1.18428e-07
-5.9122e-06
-1.11198e-07
-5.88323e-06
-1.03912e-07
-5.85623e-06
-9.71064e-08
-5.83127e-06
-9.02961e-08
-5.80847e-06
-8.33131e-08
-5.78783e-06
-7.62324e-08
-5.76948e-06
-6.90954e-08
-5.75344e-06
-6.21345e-08
-5.73977e-06
-5.50191e-08
-5.72842e-06
-4.82553e-08
-5.71954e-06
-4.10187e-08
-5.71317e-06
-3.36649e-08
-5.70941e-06
-2.60975e-08
-5.70825e-06
-1.85751e-08
-5.70977e-06
-1.07842e-08
-5.714e-06
-2.92758e-09
-5.72096e-06
5.10679e-09
-5.73067e-06
1.32092e-08
-5.74325e-06
2.17215e-08
-5.75878e-06
3.0365e-08
-5.77714e-06
3.86669e-08
-5.79799e-06
4.63125e-08
-5.82126e-06
5.3884e-08
-5.8467e-06
6.09426e-08
-5.8741e-06
6.7603e-08
-5.9031e-06
7.32543e-08
-5.93349e-06
7.86945e-08
-5.96495e-06
8.33679e-08
-5.99717e-06
8.74303e-08
-6.02967e-06
9.06689e-08
-6.06214e-06
9.3034e-08
-6.09405e-06
9.4167e-08
-6.12504e-06
9.44531e-08
-6.15473e-06
9.4075e-08
-6.18261e-06
9.23582e-08
-6.20829e-06
8.96966e-08
-6.23142e-06
8.62797e-08
-6.25175e-06
8.22117e-08
-6.26891e-06
7.73261e-08
-6.28287e-06
7.23469e-08
-6.29343e-06
6.68994e-08
-6.30092e-06
6.24986e-08
-6.30489e-06
5.6816e-08
-6.30585e-06
5.26027e-08
-6.30338e-06
4.71712e-08
-6.29861e-06
4.45675e-08
-6.2911e-06
4.08146e-08
-6.28179e-06
3.97071e-08
-6.27081e-06
3.87952e-08
-6.25863e-06
3.89469e-08
-6.24607e-06
4.13667e-08
-6.23315e-06
4.37089e-08
-6.22024e-06
4.707e-08
-6.20759e-06
5.07734e-08
-6.19477e-06
5.2911e-08
-6.18195e-06
5.53051e-08
-6.16786e-06
5.3811e-08
-6.15263e-06
5.19993e-08
-6.13876e-06
5.56106e-08
-6.1242e-06
5.17443e-08
-6.11468e-06
6.21784e-08
-6.10743e-06
6.17023e-08
-6.10877e-06
7.32447e-08
-6.12524e-06
1.01495e-07
1.60715e-07
-7.62056e-06
7.06655e-08
-7.67108e-06
2.0362e-07
-7.73494e-06
2.17643e-07
-7.81321e-06
2.45772e-07
-7.89774e-06
2.48709e-07
-7.97567e-06
2.11627e-07
-8.05002e-06
1.87265e-07
-8.11208e-06
1.35925e-07
-8.16393e-06
9.37656e-08
-8.20507e-06
5.08458e-08
-8.23583e-06
1.03592e-08
-8.2571e-06
-2.61292e-08
-8.26933e-06
-6.03483e-08
-8.2737e-06
-8.96675e-08
-8.27094e-06
-1.15547e-07
-8.26201e-06
-1.37108e-07
-8.24749e-06
-1.55804e-07
-8.22832e-06
-1.70519e-07
-8.2053e-06
-1.81843e-07
-8.17913e-06
-1.90117e-07
-8.15006e-06
-1.9698e-07
-8.11896e-06
-2.0047e-07
-8.08576e-06
-2.03792e-07
-8.05171e-06
-2.02848e-07
-8.01644e-06
-2.02826e-07
-7.98091e-06
-1.99631e-07
-7.94502e-06
-1.96719e-07
-7.90951e-06
-1.91524e-07
-7.87479e-06
-1.85163e-07
-7.84087e-06
-1.7882e-07
-7.80805e-06
-1.71611e-07
-7.77649e-06
-1.6395e-07
-7.74644e-06
-1.5563e-07
-7.71804e-06
-1.4682e-07
-7.69147e-06
-1.37776e-07
-7.66693e-06
-1.28452e-07
-7.6445e-06
-1.19532e-07
-7.62429e-06
-1.10507e-07
-7.60646e-06
-1.01145e-07
-7.59102e-06
-9.16757e-08
-7.57817e-06
-8.19373e-08
-7.56797e-06
-7.23339e-08
-7.56051e-06
-6.24799e-08
-7.5558e-06
-5.29668e-08
-7.55396e-06
-4.28566e-08
-7.55505e-06
-3.2577e-08
-7.55918e-06
-2.19735e-08
-7.5663e-06
-1.14488e-08
-7.57652e-06
-5.6983e-10
-7.58981e-06
1.03687e-08
-7.60621e-06
2.15046e-08
-7.62567e-06
3.26711e-08
-7.64818e-06
4.4231e-08
-7.67364e-06
5.58279e-08
-7.70195e-06
6.69757e-08
-7.73285e-06
7.72057e-08
-7.76616e-06
8.72021e-08
-7.80156e-06
9.63397e-08
-7.83874e-06
1.04778e-07
-7.87724e-06
1.11755e-07
-7.91672e-06
1.18181e-07
-7.95674e-06
1.23379e-07
-7.99683e-06
1.2752e-07
-8.03635e-06
1.30188e-07
-8.07488e-06
1.31565e-07
-8.11177e-06
1.3106e-07
-8.14651e-06
1.29193e-07
-8.17858e-06
1.26143e-07
-8.20736e-06
1.21141e-07
-8.23235e-06
1.14686e-07
-8.25312e-06
1.07056e-07
-8.26933e-06
9.84199e-08
-8.28055e-06
8.85422e-08
-8.28672e-06
7.8516e-08
-8.28761e-06
6.77885e-08
-8.28355e-06
5.84466e-08
-8.27405e-06
4.73161e-08
-8.25974e-06
3.82916e-08
-8.24012e-06
2.75493e-08
-8.21663e-06
2.10732e-08
-8.1887e-06
1.28832e-08
-8.15748e-06
8.48758e-09
-8.12317e-06
4.48764e-09
-8.0864e-06
2.17621e-09
-8.04819e-06
3.15446e-09
-8.00855e-06
4.07722e-09
-7.96799e-06
6.50913e-09
-7.92689e-06
9.66968e-09
-7.88501e-06
1.10327e-08
-7.84278e-06
1.30702e-08
-7.79871e-06
9.74799e-09
-7.75317e-06
6.45804e-09
-7.70955e-06
1.19893e-08
-7.66576e-06
7.95635e-09
-7.62916e-06
2.55796e-08
-7.59714e-06
2.96796e-08
-7.57801e-06
5.41141e-08
-7.57997e-06
1.03456e-07
1.96457e-07
-9.02628e-06
6.43591e-08
-9.07435e-06
2.51688e-07
-9.14123e-06
2.84523e-07
-9.22614e-06
3.30679e-07
-9.32009e-06
3.42659e-07
-9.40799e-06
2.99525e-07
-9.49286e-06
2.7214e-07
-9.56563e-06
2.08688e-07
-9.62842e-06
1.5656e-07
-9.68066e-06
1.03081e-07
-9.72255e-06
5.22522e-08
-9.75492e-06
6.24099e-09
-9.77816e-06
-3.711e-08
-9.79356e-06
-7.42682e-08
-9.80182e-06
-1.07285e-07
-9.80391e-06
-1.3502e-07
-9.80033e-06
-1.59382e-07
-9.79202e-06
-1.78832e-07
-9.77975e-06
-1.94112e-07
-9.76419e-06
-2.05676e-07
-9.74551e-06
-2.15655e-07
-9.72461e-06
-2.2137e-07
-9.70134e-06
-2.27063e-07
-9.677e-06
-2.27189e-07
-9.65117e-06
-2.2866e-07
-9.62483e-06
-2.25965e-07
-9.5979e-06
-2.23653e-07
-9.57116e-06
-2.18267e-07
-9.54505e-06
-2.11266e-07
-9.51961e-06
-2.04265e-07
-9.49514e-06
-1.96078e-07
-9.47184e-06
-1.87247e-07
-9.44995e-06
-1.77521e-07
-9.42963e-06
-1.67142e-07
-9.41104e-06
-1.56369e-07
-9.39453e-06
-1.44963e-07
-9.38032e-06
-1.33741e-07
-9.36854e-06
-1.22281e-07
-9.35941e-06
-1.10277e-07
-9.35294e-06
-9.81446e-08
-9.3494e-06
-8.54798e-08
-9.34886e-06
-7.28765e-08
-9.35143e-06
-5.99066e-08
-9.35716e-06
-4.72375e-08
-9.36616e-06
-3.38554e-08
-9.37848e-06
-2.02533e-08
-9.39424e-06
-6.22284e-09
-9.41337e-06
7.68507e-09
-9.43597e-06
2.20338e-08
-9.46201e-06
3.64064e-08
-9.49144e-06
5.0935e-08
-9.52414e-06
6.53653e-08
-9.55995e-06
8.0043e-08
-9.59863e-06
9.45061e-08
-9.64006e-06
1.0841e-07
-9.684e-06
1.2115e-07
-9.73021e-06
1.33407e-07
-9.77822e-06
1.4435e-07
-9.82762e-06
1.5418e-07
-9.87787e-06
1.62002e-07
-9.92848e-06
1.68793e-07
-9.97887e-06
1.73768e-07
-1.00285e-05
1.77115e-07
-1.00764e-05
1.78169e-07
-1.01223e-05
1.77416e-07
-1.01652e-05
1.73999e-07
-1.02046e-05
1.6859e-07
-1.02398e-05
1.61344e-07
-1.02701e-05
1.51425e-07
-1.02949e-05
1.39456e-07
-1.03136e-05
1.25803e-07
-1.03259e-05
1.10727e-07
-1.03313e-05
9.39059e-08
-1.03296e-05
7.68608e-08
-1.03207e-05
5.88448e-08
-1.03048e-05
4.25697e-08
-1.02814e-05
2.39265e-08
-1.02513e-05
8.10602e-09
-1.02137e-05
-9.9945e-09
-1.01705e-05
-2.21557e-08
-1.01209e-05
-3.6671e-08
-1.00663e-05
-4.6091e-08
-1.0007e-05
-5.48575e-08
-9.94364e-06
-6.11885e-08
-9.87744e-06
-6.30435e-08
-9.80845e-06
-6.49095e-08
-9.73725e-06
-6.46978e-08
-9.66422e-06
-6.33575e-08
-9.58896e-06
-6.42224e-08
-9.51229e-06
-6.36019e-08
-9.4332e-06
-6.93416e-08
-9.35248e-06
-7.42694e-08
-9.27434e-06
-6.61436e-08
-9.19685e-06
-6.95393e-08
-9.12879e-06
-4.2472e-08
-9.06781e-06
-3.13091e-08
-9.02392e-06
1.02299e-08
-9.00709e-06
8.66195e-08
2.21962e-07
-1.03652e-05
4.47399e-08
-1.04068e-05
2.93319e-07
-1.0472e-05
3.49689e-07
-1.05571e-05
4.15855e-07
-1.06538e-05
4.39296e-07
-1.07456e-05
3.91359e-07
-1.08354e-05
3.61969e-07
-1.0914e-05
2.87246e-07
-1.09833e-05
2.25902e-07
-1.10428e-05
1.62564e-07
-1.10925e-05
1.01967e-07
-1.11332e-05
4.69496e-08
-1.11652e-05
-5.17411e-09
-1.11897e-05
-4.97848e-08
-1.12074e-05
-8.95675e-08
-1.12193e-05
-1.23137e-07
-1.12257e-05
-1.52894e-07
-1.12277e-05
-1.76852e-07
-1.12259e-05
-1.95908e-07
-1.1221e-05
-2.10642e-07
-1.12129e-05
-2.23682e-07
-1.12027e-05
-2.31595e-07
-1.11901e-05
-2.39696e-07
-1.11764e-05
-2.40907e-07
-1.11611e-05
-2.43951e-07
-1.11452e-05
-2.4182e-07
-1.11287e-05
-2.40187e-07
-1.11123e-05
-2.34659e-07
-1.10965e-05
-2.27045e-07
-1.10813e-05
-2.19417e-07
-1.10672e-05
-2.10267e-07
-1.10541e-05
-2.0026e-07
-1.10426e-05
-1.89095e-07
-1.10327e-05
-1.77053e-07
-1.10247e-05
-1.64374e-07
-1.10189e-05
-1.50721e-07
-1.10156e-05
-1.37036e-07
-1.10149e-05
-1.22938e-07
-1.10172e-05
-1.08055e-07
-1.10223e-05
-9.30111e-08
-1.10306e-05
-7.71388e-08
-1.10423e-05
-6.12536e-08
-1.10573e-05
-4.48568e-08
-1.10759e-05
-2.86761e-08
-1.1098e-05
-1.16941e-08
-1.11238e-05
5.54056e-09
-1.11534e-05
2.33259e-08
-1.11866e-05
4.09301e-08
-1.12236e-05
5.90426e-08
-1.12643e-05
7.7077e-08
-1.13085e-05
9.51467e-08
-1.13561e-05
1.12925e-07
-1.14068e-05
1.3075e-07
-1.14604e-05
1.48105e-07
-1.15167e-05
1.64709e-07
-1.15753e-05
1.79752e-07
-1.16359e-05
1.93973e-07
-1.16978e-05
2.06316e-07
-1.17607e-05
2.17022e-07
-1.18238e-05
2.25097e-07
-1.18865e-05
2.31508e-07
-1.19481e-05
2.35365e-07
-1.20079e-05
2.36928e-07
-1.2065e-05
2.3524e-07
-1.21187e-05
2.31126e-07
-1.21681e-05
2.23456e-07
-1.22126e-05
2.13049e-07
-1.22513e-05
2.00018e-07
-1.22834e-05
1.83525e-07
-1.23082e-05
1.64299e-07
-1.23252e-05
1.42811e-07
-1.23339e-05
1.19417e-07
-1.23337e-05
9.37072e-08
-1.23245e-05
6.76736e-08
-1.2306e-05
4.03556e-08
-1.22785e-05
1.51004e-08
-1.22415e-05
-1.31132e-08
-1.21957e-05
-3.76994e-08
-1.21405e-05
-6.51837e-08
-1.20777e-05
-8.49372e-08
-1.20067e-05
-1.07724e-07
-1.19288e-05
-1.24017e-07
-1.18443e-05
-1.39351e-07
-1.17541e-05
-1.51379e-07
-1.16595e-05
-1.57635e-07
-1.15606e-05
-1.63817e-07
-1.1458e-05
-1.67263e-07
-1.13522e-05
-1.69134e-07
-1.12428e-05
-1.73642e-07
-1.11309e-05
-1.75464e-07
-1.10161e-05
-1.84199e-07
-1.08995e-05
-1.90901e-07
-1.0786e-05
-1.79641e-07
-1.06739e-05
-1.81565e-07
-1.05733e-05
-1.43115e-07
-1.0482e-05
-1.22588e-07
-1.04115e-05
-6.0291e-08
-1.03732e-05
4.83519e-08
2.33508e-07
-1.16173e-05
1.16598e-08
-1.16501e-05
3.26149e-07
-1.17107e-05
4.1022e-07
-1.17924e-05
4.97615e-07
-1.1888e-05
5.34916e-07
-1.19813e-05
4.8461e-07
-1.20744e-05
4.55053e-07
-1.21575e-05
3.70372e-07
-1.22325e-05
3.00888e-07
-1.22987e-05
2.28728e-07
-1.23559e-05
1.59237e-07
-1.2405e-05
9.6057e-08
-1.2446e-05
3.58418e-08
-1.24802e-05
-1.56293e-08
-1.25081e-05
-6.16498e-08
-1.25307e-05
-1.00559e-07
-1.25483e-05
-1.35288e-07
-1.25618e-05
-1.634e-07
-1.25717e-05
-1.85937e-07
-1.25788e-05
-2.03619e-07
-1.25829e-05
-2.19555e-07
-1.25849e-05
-2.29563e-07
-1.25846e-05
-2.40002e-07
-1.25832e-05
-2.42274e-07
-1.25803e-05
-2.46892e-07
-1.25768e-05
-2.45344e-07
-1.25725e-05
-2.44423e-07
-1.25684e-05
-2.38772e-07
-1.25649e-05
-2.30561e-07
-1.2562e-05
-2.22311e-07
-1.25601e-05
-2.12202e-07
-1.25593e-05
-2.01006e-07
-1.25601e-05
-1.8836e-07
-1.25626e-05
-1.74566e-07
-1.25671e-05
-1.59867e-07
-1.25739e-05
-1.43852e-07
-1.25834e-05
-1.27578e-07
-1.25956e-05
-1.10689e-07
-1.26109e-05
-9.27549e-08
-1.26293e-05
-7.46149e-08
-1.26511e-05
-5.53254e-08
-1.26765e-05
-3.59415e-08
-1.27054e-05
-1.58911e-08
-1.27381e-05
4.03202e-09
-1.27747e-05
2.48456e-08
-1.28151e-05
4.59519e-08
-1.28595e-05
6.77132e-08
-1.29077e-05
8.9204e-08
-1.29599e-05
1.11206e-07
-1.30158e-05
1.32968e-07
-1.30752e-05
1.54581e-07
-1.3138e-05
1.75663e-07
-1.32038e-05
1.96533e-07
-1.32723e-05
2.16623e-07
-1.33432e-05
2.35675e-07
-1.34161e-05
2.52645e-07
-1.34905e-05
2.68371e-07
-1.35658e-05
2.8154e-07
-1.36412e-05
2.92451e-07
-1.37161e-05
3.00008e-07
-1.37897e-05
3.05153e-07
-1.38613e-05
3.06885e-07
-1.39299e-05
3.0556e-07
-1.39946e-05
2.99897e-07
-1.40545e-05
2.91099e-07
-1.41088e-05
2.77756e-07
-1.41566e-05
2.6084e-07
-1.4197e-05
2.4042e-07
-1.42292e-05
2.15663e-07
-1.42523e-05
1.87431e-07
-1.42658e-05
1.56286e-07
-1.42691e-05
1.22708e-07
-1.42615e-05
8.61935e-08
-1.42431e-05
4.92229e-08
-1.42134e-05
1.06354e-08
-1.41727e-05
-2.55603e-08
-1.41205e-05
-6.52862e-08
-1.40577e-05
-1.00558e-07
-1.39835e-05
-1.39355e-07
-1.38999e-05
-1.68567e-07
-1.38061e-05
-2.01492e-07
-1.37037e-05
-2.26447e-07
-1.3593e-05
-2.50061e-07
-1.34749e-05
-2.69394e-07
-1.33511e-05
-2.81523e-07
-1.32215e-05
-2.93403e-07
-1.3087e-05
-3.01742e-07
-1.29483e-05
-3.07875e-07
-1.28052e-05
-3.16741e-07
-1.26591e-05
-3.21483e-07
-1.25097e-05
-3.33629e-07
-1.23584e-05
-3.42193e-07
-1.22107e-05
-3.27367e-07
-1.20653e-05
-3.26982e-07
-1.19328e-05
-2.75561e-07
-1.18118e-05
-2.43564e-07
-1.17148e-05
-1.5736e-07
-1.16545e-05
-1.19491e-08
2.29415e-07
-1.27969e-05
-3.26065e-08
-1.2821e-05
3.50296e-07
-1.28771e-05
4.66284e-07
-1.29551e-05
5.7562e-07
-1.30494e-05
6.29255e-07
-1.31441e-05
5.79331e-07
-1.32405e-05
5.51385e-07
-1.33286e-05
4.58494e-07
-1.34098e-05
3.82088e-07
-1.34833e-05
3.02282e-07
-1.3549e-05
2.24888e-07
-1.36074e-05
1.5443e-07
-1.36584e-05
8.69237e-08
-1.37034e-05
2.92876e-08
-1.37426e-05
-2.23957e-08
-1.3777e-05
-6.61284e-08
-1.3807e-05
-1.05369e-07
-1.38331e-05
-1.37242e-07
-1.38561e-05
-1.62935e-07
-1.38764e-05
-1.83317e-07
-1.3894e-05
-2.01947e-07
-1.39097e-05
-2.13927e-07
-1.39231e-05
-2.26603e-07
-1.39355e-05
-2.29894e-07
-1.39463e-05
-2.36057e-07
-1.39565e-05
-2.3511e-07
-1.3966e-05
-2.34911e-07
-1.39756e-05
-2.29162e-07
-1.39858e-05
-2.20374e-07
-1.39966e-05
-2.11525e-07
-1.40083e-05
-2.0047e-07
-1.40213e-05
-1.88084e-07
-1.40357e-05
-1.73941e-07
-1.40519e-05
-1.58358e-07
-1.40702e-05
-1.41584e-07
-1.40909e-05
-1.23156e-07
-1.41142e-05
-1.04228e-07
-1.41405e-05
-8.4457e-08
-1.41698e-05
-6.33667e-08
-1.42025e-05
-4.19905e-08
-1.42386e-05
-1.91657e-08
-1.42784e-05
3.83543e-09
-1.4322e-05
2.76704e-08
-1.43694e-05
5.14639e-08
-1.44208e-05
7.62424e-08
-1.44762e-05
1.01335e-07
-1.45356e-05
1.27145e-07
-1.4599e-05
1.52542e-07
-1.46661e-05
1.78402e-07
-1.4737e-05
2.03811e-07
-1.48112e-05
2.28826e-07
-1.48886e-05
2.53017e-07
-1.49687e-05
2.76673e-07
-1.50513e-05
2.99168e-07
-1.51358e-05
3.20227e-07
-1.52218e-05
3.38599e-07
-1.53086e-05
3.55208e-07
-1.53956e-05
3.68495e-07
-1.54819e-05
3.78793e-07
-1.55668e-05
3.84901e-07
-1.56494e-05
3.87769e-07
-1.57288e-05
3.86266e-07
-1.58041e-05
3.80848e-07
-1.58741e-05
3.69945e-07
-1.59381e-05
3.55078e-07
-1.5995e-05
3.346e-07
-1.60438e-05
3.09633e-07
-1.60835e-05
2.80208e-07
-1.61134e-05
2.45512e-07
-1.61325e-05
2.06537e-07
-1.61402e-05
1.63959e-07
-1.61358e-05
1.1838e-07
-1.61189e-05
6.9209e-08
-1.60891e-05
1.94342e-08
-1.60462e-05
-3.2257e-08
-1.59906e-05
-8.11875e-08
-1.59216e-05
-1.34224e-07
-1.58402e-05
-1.81994e-07
-1.57456e-05
-2.339e-07
-1.56398e-05
-2.74357e-07
-1.55222e-05
-3.19109e-07
-1.53943e-05
-3.54353e-07
-1.52566e-05
-3.87774e-07
-1.51102e-05
-4.15809e-07
-1.49566e-05
-4.35086e-07
-1.47962e-05
-4.53798e-07
-1.463e-05
-4.67992e-07
-1.44587e-05
-4.7916e-07
-1.42825e-05
-4.92912e-07
-1.41031e-05
-5.00959e-07
-1.392e-05
-5.16719e-07
-1.37351e-05
-5.27013e-07
-1.35544e-05
-5.08132e-07
-1.33769e-05
-5.0442e-07
-1.32139e-05
-4.38572e-07
-1.30645e-05
-3.92986e-07
-1.29419e-05
-2.79937e-07
-1.28604e-05
-9.34662e-08
2.10125e-07
-1.39255e-05
-8.52972e-08
-1.3942e-05
3.66748e-07
-1.39947e-05
5.18973e-07
-1.407e-05
6.50888e-07
-1.4164e-05
7.23277e-07
-1.42613e-05
6.76616e-07
-1.43618e-05
6.51952e-07
-1.44559e-05
5.52572e-07
-1.45443e-05
4.70477e-07
-1.46262e-05
3.8423e-07
-1.47013e-05
2.99938e-07
-1.477e-05
2.23134e-07
-1.48322e-05
1.49136e-07
-1.4889e-05
8.60581e-08
-1.49407e-05
2.9318e-08
-1.49881e-05
-1.87254e-08
-1.50314e-05
-6.20197e-08
-1.50714e-05
-9.72725e-08
-1.51086e-05
-1.25795e-07
-1.51432e-05
-1.48631e-07
-1.51754e-05
-1.69752e-07
-1.52058e-05
-1.83583e-07
-1.5234e-05
-1.98378e-07
-1.52612e-05
-2.02669e-07
-1.5287e-05
-2.10334e-07
-1.5312e-05
-2.10024e-07
-1.53364e-05
-2.10558e-07
-1.53608e-05
-2.04748e-07
-1.53857e-05
-1.95442e-07
-1.54112e-05
-1.86026e-07
-1.54376e-05
-1.74076e-07
-1.54652e-05
-1.60534e-07
-1.54942e-05
-1.44924e-07
-1.5525e-05
-1.27571e-07
-1.55578e-05
-1.08736e-07
-1.55931e-05
-8.79065e-08
-1.5631e-05
-6.63219e-08
-1.56718e-05
-4.36551e-08
-1.57158e-05
-1.93921e-08
-1.5763e-05
5.24452e-09
-1.58138e-05
3.16378e-08
-1.58683e-05
5.83028e-08
-1.59266e-05
8.59629e-08
-1.59888e-05
1.1366e-07
-1.60549e-05
1.42404e-07
-1.6125e-05
1.71444e-07
-1.61991e-05
2.01222e-07
-1.6277e-05
2.30396e-07
-1.63585e-05
2.59937e-07
-1.64434e-05
2.88762e-07
-1.65315e-05
3.16898e-07
-1.66224e-05
3.43851e-07
-1.67156e-05
3.69878e-07
-1.68107e-05
3.94282e-07
-1.69072e-05
4.16765e-07
-1.70045e-05
4.35873e-07
-1.71019e-05
4.52609e-07
-1.71986e-05
4.65176e-07
-1.72937e-05
4.73936e-07
-1.73864e-05
4.77594e-07
-1.74757e-05
4.77087e-07
-1.75606e-05
4.71168e-07
-1.76402e-05
4.60396e-07
-1.77131e-05
4.42919e-07
-1.77786e-05
4.20576e-07
-1.78355e-05
3.91496e-07
-1.78829e-05
3.56949e-07
-1.79196e-05
3.16928e-07
-1.79447e-05
2.70658e-07
-1.79575e-05
2.19278e-07
-1.79571e-05
1.63561e-07
-1.79429e-05
1.04258e-07
-1.79144e-05
4.07059e-08
-1.78714e-05
-2.35953e-08
-1.78136e-05
-9.00425e-08
-1.77414e-05
-1.53393e-07
-1.76543e-05
-2.21392e-07
-1.75529e-05
-2.83352e-07
-1.74368e-05
-3.49944e-07
-1.7308e-05
-4.03245e-07
-1.71658e-05
-4.61281e-07
-1.70119e-05
-5.08241e-07
-1.68469e-05
-5.52752e-07
-1.66721e-05
-5.90658e-07
-1.6489e-05
-6.18118e-07
-1.62983e-05
-6.44543e-07
-1.6101e-05
-6.65305e-07
-1.58981e-05
-6.82074e-07
-1.56899e-05
-7.01051e-07
-1.54783e-05
-7.1264e-07
-1.5263e-05
-7.32003e-07
-1.50463e-05
-7.43693e-07
-1.48342e-05
-7.20191e-07
-1.46267e-05
-7.11974e-07
-1.44349e-05
-6.30358e-07
-1.42589e-05
-5.68992e-07
-1.41125e-05
-4.26301e-07
-1.40114e-05
-1.94634e-07
1.77014e-07
-1.50224e-05
-1.43833e-07
-1.50321e-05
3.76455e-07
-1.50825e-05
5.69335e-07
-1.51565e-05
7.24914e-07
-1.52515e-05
8.18331e-07
-1.53526e-05
7.77715e-07
-1.54586e-05
7.57882e-07
-1.55599e-05
6.53928e-07
-1.56568e-05
5.67349e-07
-1.57484e-05
4.75819e-07
-1.5834e-05
3.85601e-07
-1.59142e-05
3.03278e-07
-1.59886e-05
2.23571e-07
-1.60583e-05
1.55731e-07
-1.61235e-05
9.45432e-08
-1.61849e-05
4.26882e-08
-1.62427e-05
-4.22444e-09
-1.62975e-05
-4.24964e-08
-1.63497e-05
-7.35511e-08
-1.63998e-05
-9.86244e-08
-1.64475e-05
-1.22035e-07
-1.64934e-05
-1.3762e-07
-1.65374e-05
-1.54423e-07
-1.65803e-05
-1.59718e-07
-1.66218e-05
-1.68853e-07
-1.66626e-05
-1.69238e-07
-1.67026e-05
-1.70528e-07
-1.67427e-05
-1.64732e-07
-1.67831e-05
-1.54998e-07
-1.6824e-05
-1.45093e-07
-1.68658e-05
-1.32334e-07
-1.69086e-05
-1.17722e-07
-1.69528e-05
-1.0073e-07
-1.69987e-05
-8.169e-08
-1.70465e-05
-6.08795e-08
-1.70967e-05
-3.77428e-08
-1.71494e-05
-1.35757e-08
-1.7205e-05
1.19195e-08
-1.72637e-05
3.92876e-08
-1.73256e-05
6.71543e-08
-1.7391e-05
9.70596e-08
-1.746e-05
1.27331e-07
-1.75328e-05
1.58731e-07
-1.76094e-05
1.90221e-07
-1.76898e-05
2.22785e-07
-1.77739e-05
2.55594e-07
-1.78618e-05
2.8911e-07
-1.79532e-05
3.21802e-07
-1.8048e-05
3.54707e-07
-1.81458e-05
3.8658e-07
-1.82463e-05
4.17416e-07
-1.83491e-05
4.46651e-07
-1.84537e-05
4.745e-07
-1.85596e-05
5.00183e-07
-1.86662e-05
5.23384e-07
-1.87728e-05
5.42445e-07
-1.88787e-05
5.58453e-07
-1.89829e-05
5.69372e-07
-1.90845e-05
5.7559e-07
-1.91826e-05
5.75721e-07
-1.92762e-05
5.70684e-07
-1.93642e-05
5.59149e-07
-1.94456e-05
5.41742e-07
-1.9519e-05
5.16381e-07
-1.95836e-05
4.8517e-07
-1.96382e-05
4.46062e-07
-1.96817e-05
4.00452e-07
-1.97131e-05
3.4831e-07
-1.97313e-05
2.88921e-07
-1.97356e-05
2.23575e-07