/*--------------------------------*- C++ -*----------------------------------*\
| =========                 |                                                 |
| \\      /  F ield         | OpenFOAM: The Open Source CFD Toolbox           |
|  \\    /   O peration     | Version:  2006                                  |
|   \\  /    A nd           | Website:  www.openfoam.com                      |
|    \\/     M anipulation  |                                                 |
\*---------------------------------------------------------------------------*/
FoamFile
{
    version     2.0;
    format      ascii;
    class       volScalarField;
    location    "20000";
    object      phit;
}
// * * * * * * * * * * * * * * * * * * * * * * * * * * * * * * * * * * * * * //

dimensions      [0 0 0 0 0 0 0];


internalField   nonuniform List<scalar> 
14751
(
0.00562216
0.0056355
0.00565472
0.00567694
0.00570181
0.00573088
0.00576235
0.00579752
0.00583509
0.00587521
0.00591746
0.00596119
0.00600593
0.00605094
0.00609601
0.00614086
0.00618543
0.00622948
0.00627293
0.00631573
0.00635786
0.00639906
0.00643945
0.00647859
0.00651683
0.00655369
0.00658938
0.00662357
0.00665631
0.00668763
0.00671736
0.0067455
0.00677199
0.00679682
0.00681996
0.00684128
0.00686069
0.00687793
0.00689295
0.00690585
0.00691672
0.00692529
0.00693136
0.00693499
0.00693601
0.00693468
0.00693103
0.00692514
0.00691704
0.00690686
0.0068947
0.00688071
0.0068651
0.00684788
0.00682889
0.00680809
0.00678552
0.0067613
0.00673555
0.00670824
0.00667944
0.00664937
0.00661817
0.00658627
0.00655377
0.0065206
0.00648685
0.0064527
0.00641828
0.00638352
0.00634846
0.00631314
0.0062776
0.00624182
0.00620582
0.00616966
0.00613346
0.00609708
0.00606063
0.00602377
0.00598678
0.00594984
0.00591324
0.00587714
0.00584178
0.00580768
0.00577512
0.00574446
0.00571601
0.0056899
0.00566644
0.00564572
0.00562795
0.00561408
0.00560372
0.0055983
0.00559722
0.00559968
0.00560574
0.016187
0.0162325
0.0163043
0.016392
0.0164938
0.0166109
0.0167372
0.0168763
0.0170244
0.0171813
0.0173458
0.0175155
0.0176888
0.0178632
0.0180379
0.0182119
0.0183846
0.0185552
0.0187232
0.0188884
0.0190504
0.0192083
0.0193624
0.0195113
0.0196559
0.0197947
0.0199283
0.0200558
0.0201772
0.0202927
0.0204019
0.0205046
0.0206007
0.0206903
0.0207733
0.0208492
0.0209179
0.0209787
0.0210315
0.0210765
0.021114
0.0211434
0.0211644
0.0211771
0.0211812
0.0211772
0.0211653
0.0211457
0.0211186
0.0210844
0.0210433
0.020996
0.020943
0.0208839
0.0208187
0.0207471
0.0206694
0.0205859
0.020497
0.0204027
0.0203032
0.0201993
0.0200912
0.0199798
0.0198655
0.0197483
0.0196285
0.0195064
0.0193825
0.0192566
0.0191288
0.0189992
0.0188681
0.0187352
0.0186008
0.0184648
0.0183276
0.0181889
0.0180491
0.0179076
0.0177651
0.0176222
0.0174799
0.0173389
0.0171999
0.0170646
0.0169341
0.0168094
0.0166916
0.0165814
0.0164798
0.0163874
0.0163055
0.0162372
0.0161821
0.0161451
0.0161254
0.0161222
0.0161377
0.0257095
0.0258149
0.0259781
0.0261735
0.0264014
0.0266571
0.0269295
0.0272187
0.0275229
0.0278416
0.028172
0.0285103
0.028853
0.0291961
0.0295379
0.0298765
0.030211
0.0305399
0.0308623
0.0311777
0.0314855
0.0317841
0.0320737
0.0323523
0.032621
0.0328777
0.0331231
0.0333557
0.033576
0.0337839
0.0339788
0.0341607
0.0343294
0.0344849
0.0346271
0.0347553
0.0348692
0.0349682
0.0350521
0.035121
0.0351754
0.0352149
0.0352393
0.0352488
0.0352429
0.0352224
0.0351877
0.0351392
0.0350772
0.0350026
0.0349159
0.034818
0.0347096
0.0345897
0.0344587
0.0343167
0.0341639
0.034001
0.0338285
0.033647
0.0334568
0.0332587
0.0330535
0.032842
0.0326249
0.0324025
0.0321751
0.0319434
0.0317078
0.0314683
0.0312251
0.0309784
0.0307284
0.030475
0.0302184
0.0299586
0.0296962
0.0294308
0.0291632
0.028893
0.0286217
0.0283499
0.0280796
0.0278122
0.0275496
0.0272944
0.0270484
0.0268139
0.0265925
0.0263857
0.0261955
0.026023
0.0258712
0.0257453
0.0256457
0.0255812
0.0255503
0.0255549
0.0256042
0.0346415
0.0348554
0.0351648
0.035521
0.0359298
0.0363757
0.0368421
0.0373283
0.0378204
0.0383264
0.0388429
0.0393646
0.0398861
0.0404013
0.0409079
0.0414034
0.0418869
0.0423563
0.0428113
0.0432511
0.0436754
0.0440824
0.0444725
0.0448434
0.0451969
0.0455304
0.0458451
0.0461392
0.0464138
0.0466691
0.0469042
0.0471194
0.0473147
0.0474903
0.0476458
0.0477806
0.0478945
0.0479869
0.0480578
0.0481074
0.0481364
0.0481446
0.0481321
0.0480993
0.0480458
0.0479728
0.0478809
0.0477707
0.0476429
0.0474989
0.0473395
0.0471661
0.0469777
0.0467753
0.0465589
0.046329
0.0460863
0.0458315
0.0455656
0.0452893
0.045003
0.044708
0.0444048
0.0440945
0.043778
0.0434555
0.0431275
0.0427945
0.0424572
0.0421154
0.0417694
0.0414194
0.0410655
0.0407075
0.0403458
0.0399805
0.0396124
0.0392411
0.0388678
0.0384925
0.0381174
0.0377435
0.0373738
0.0370105
0.0366565
0.0363157
0.0359907
0.0356847
0.0353999
0.0351377
0.0349015
0.0346924
0.0345152
0.0343763
0.0342774
0.0342308
0.0342336
0.0342946
0.0344297
0.0441512
0.044531
0.0450548
0.0456406
0.0463002
0.0470041
0.0477256
0.0484636
0.0491956
0.0499216
0.050645
0.0513641
0.0520711
0.0527574
0.0534201
0.0540564
0.0546659
0.0552468
0.0557994
0.0563238
0.0568201
0.057287
0.0577258
0.0581342
0.0585154
0.0588664
0.0591897
0.0594835
0.0597499
0.0599895
0.0602017
0.0603872
0.0605463
0.0606795
0.0607866
0.0608674
0.0609222
0.0609504
0.0609524
0.0609289
0.0608804
0.0608077
0.0607108
0.0605906
0.060447
0.0602815
0.0600951
0.059889
0.0596641
0.0594225
0.0591652
0.058892
0.0586036
0.0583016
0.0579863
0.0576583
0.0573186
0.0569682
0.0566081
0.0562392
0.0558618
0.0554773
0.0550862
0.0546894
0.0542876
0.053881
0.0534698
0.0530545
0.0526354
0.0522123
0.0517852
0.0513541
0.0509192
0.0504804
0.0500379
0.049592
0.049144
0.0486935
0.0482424
0.0477907
0.047342
0.0468973
0.0464613
0.0460368
0.045628
0.0452402
0.0448769
0.0445419
0.0442377
0.0439656
0.0437295
0.0435302
0.0433735
0.0432686
0.0432157
0.0432339
0.0433184
0.0434898
0.043768
0.055316
0.0559078
0.0567081
0.0575876
0.0585622
0.0595848
0.0606153
0.0616526
0.062662
0.063645
0.0645904
0.0655083
0.066397
0.067245
0.0680484
0.0688046
0.0695141
0.0701759
0.0707918
0.0713632
0.0718914
0.0723756
0.0728186
0.0732185
0.0735804
0.0739011
0.0741848
0.0744298
0.0746394
0.0748151
0.0749565
0.0750648
0.0751407
0.0751843
0.0751929
0.0751643
0.0751075
0.0750224
0.0749098
0.0747707
0.0746062
0.074417
0.0742039
0.073968
0.0737097
0.0734309
0.0731327
0.0728169
0.0724844
0.0721382
0.0717762
0.0714006
0.0710132
0.0706137
0.0701956
0.0697683
0.0693327
0.0688899
0.0684409
0.0679864
0.0675267
0.067063
0.0665956
0.0661251
0.0656518
0.0651757
0.0646965
0.0642145
0.0637296
0.0632412
0.0627492
0.0622534
0.0617539
0.0612506
0.060744
0.0602347
0.0597242
0.0592121
0.0587016
0.0581922
0.0576895
0.0571939
0.0567125
0.0562485
0.0558075
0.0553965
0.0550191
0.0546803
0.0543827
0.0541268
0.0539178
0.053755
0.0536442
0.0535993
0.053616
0.0537255
0.0539196
0.0542368
0.0547019
0.0687782
0.0695996
0.0707099
0.071917
0.073237
0.0745972
0.0759002
0.0771835
0.0784059
0.0795716
0.0806685
0.0816917
0.0826578
0.0835622
0.0844001
0.08517
0.085874
0.086513
0.0870909
0.0876109
0.0880759
0.0884864
0.0888468
0.089156
0.0894207
0.0896381
0.0898136
0.0899462
0.0900402
0.0900974
0.0901178
0.0901032
0.0900542
0.0899712
0.0898532
0.0897007
0.0895205
0.0893127
0.0890783
0.088819
0.0885357
0.0882298
0.0879024
0.0875547
0.0871876
0.0868031
0.0864028
0.0859887
0.0855615
0.0851196
0.0846672
0.0842061
0.0837372
0.0832606
0.0827745
0.0822848
0.0817921
0.0812979
0.0808026
0.0803071
0.0798111
0.0793158
0.078821
0.078327
0.0778337
0.0773406
0.0768472
0.0763531
0.0758582
0.0753613
0.0748621
0.0743604
0.0738561
0.073349
0.0728401
0.0723299
0.0718204
0.0713105
0.0708051
0.0703022
0.0698098
0.0693266
0.068862
0.068419
0.0680038
0.0676252
0.0672859
0.0669904
0.0667391
0.0665156
0.0663426
0.066223
0.0661609
0.0661799
0.0662632
0.0664643
0.0667639
0.0672294
0.0678984
0.0841972
0.0851921
0.0865427
0.0879925
0.0895546
0.0911381
0.0926413
0.0940989
0.0954566
0.0967234
0.0978881
0.0989486
0.0999056
0.100781
0.101574
0.102282
0.102911
0.103464
0.103945
0.10436
0.104714
0.105008
0.105248
0.105434
0.105574
0.105665
0.105714
0.105719
0.105686
0.105618
0.105513
0.105375
0.105204
0.105001
0.104766
0.104501
0.104211
0.103898
0.103561
0.103203
0.102825
0.102428
0.102014
0.101585
0.101142
0.100686
0.10022
0.0997415
0.099253
0.0987578
0.0982581
0.0977553
0.0972498
0.0967424
0.0962334
0.0957271
0.0952236
0.0947244
0.0942295
0.0937396
0.0932542
0.0927739
0.0922982
0.091827
0.0913594
0.0908948
0.0904319
0.0899702
0.0895088
0.0890463
0.088582
0.0881155
0.0876467
0.0871752
0.0867021
0.0862279
0.0857555
0.0852811
0.0848061
0.0843296
0.0838646
0.0834098
0.0829754
0.0825649
0.082185
0.081845
0.0815468
0.0812945
0.0810888
0.0809213
0.08081
0.0807537
0.0807578
0.0808478
0.0810083
0.0812969
0.0816907
0.0822605
0.0830933
0.101214
0.102287
0.103779
0.105366
0.107056
0.108748
0.11034
0.111861
0.113248
0.114514
0.115651
0.116661
0.117547
0.118317
0.118997
0.119587
0.120091
0.120514
0.120862
0.121143
0.121362
0.121521
0.121628
0.121681
0.12169
0.121653
0.121576
0.121458
0.121306
0.121122
0.120905
0.120659
0.120383
0.12008
0.11975
0.119397
0.119024
0.118632
0.118222
0.117797
0.117357
0.116905
0.116443
0.11597
0.115491
0.115004
0.114508
0.114008
0.113508
0.113008
0.11251
0.112016
0.111527
0.111043
0.110566
0.110098
0.10964
0.109193
0.108756
0.10833
0.107913
0.107507
0.10711
0.106721
0.106338
0.105961
0.105588
0.105217
0.104847
0.104476
0.104103
0.103728
0.103349
0.102966
0.102581
0.102192
0.101796
0.101387
0.100975
0.100558
0.100149
0.0997449
0.0993578
0.0989905
0.0986498
0.0983457
0.098079
0.0978541
0.0976726
0.0975315
0.0974457
0.0974101
0.0974307
0.0975376
0.0977135
0.0980262
0.0984503
0.0990589
0.0999649
0.119375
0.120411
0.121926
0.123534
0.125234
0.126926
0.1285
0.129985
0.13131
0.132494
0.133533
0.13443
0.135193
0.135829
0.136357
0.136797
0.137152
0.137428
0.137632
0.137772
0.137853
0.137878
0.137855
0.137783
0.137672
0.137519
0.137331
0.137108
0.136856
0.136576
0.13627
0.13594
0.135586
0.135211
0.134817
0.134406
0.133981
0.133545
0.133097
0.132641
0.132178
0.13171
0.13124
0.130765
0.130286
0.129807
0.129331
0.12886
0.128397
0.127943
0.1275
0.127069
0.12665
0.126246
0.125857
0.125485
0.125131
0.124794
0.124475
0.124172
0.123885
0.123613
0.123354
0.123107
0.122869
0.122638
0.122413
0.12219
0.121968
0.121743
0.121515
0.121281
0.121041
0.120793
0.120539
0.120263
0.119969
0.119655
0.119329
0.118988
0.118646
0.118297
0.117954
0.11762
0.117302
0.11701
0.116744
0.116509
0.116309
0.116143
0.116023
0.115941
0.115904
0.115948
0.116054
0.1163
0.116661
0.117224
0.118084
0.138236
0.139139
0.14057
0.142096
0.143711
0.145314
0.146792
0.14817
0.149373
0.150426
0.151325
0.152078
0.152695
0.153184
0.15356
0.153841
0.154045
0.154177
0.154242
0.15425
0.154205
0.154111
0.153975
0.153796
0.153585
0.153339
0.153064
0.15276
0.152434
0.152087
0.15172
0.151336
0.150936
0.150522
0.150096
0.149663
0.149223
0.148779
0.148332
0.147885
0.147441
0.146998
0.146555
0.146117
0.145687
0.145267
0.144861
0.14447
0.144096
0.14374
0.143405
0.143091
0.142799
0.14253
0.142287
0.142069
0.141876
0.141708
0.141564
0.141444
0.141344
0.141263
0.141199
0.141149
0.14111
0.141079
0.141052
0.141025
0.140997
0.140962
0.140918
0.140862
0.140794
0.140712
0.1406
0.14045
0.14027
0.140056
0.139815
0.139541
0.139249
0.138932
0.138605
0.138267
0.137928
0.137597
0.137276
0.136971
0.136686
0.136421
0.136186
0.135973
0.135789
0.135676
0.135615
0.135695
0.135889
0.136297
0.137016
0.157462
0.158161
0.159425
0.160798
0.16226
0.163717
0.165049
0.16628
0.167332
0.168232
0.168977
0.169578
0.170047
0.170392
0.170631
0.170775
0.17084
0.170842
0.170786
0.170682
0.170533
0.170343
0.170119
0.16986
0.169577
0.169265
0.168932
0.168578
0.168208
0.167826
0.167432
0.167029
0.166618
0.166201
0.165782
0.165365
0.164949
0.164538
0.164135
0.163738
0.163346
0.162967
0.1626
0.16225
0.161918
0.161608
0.161322
0.161062
0.160829
0.160626
0.160453
0.16031
0.1602
0.160123
0.16008
0.160072
0.160095
0.160151
0.160237
0.160351
0.160489
0.16065
0.160829
0.161022
0.161225
0.161433
0.161642
0.161845
0.16204
0.162219
0.162381
0.162519
0.162633
0.162715
0.162735
0.162703
0.162621
0.162484
0.162298
0.162054
0.16177
0.161437
0.161069
0.160668
0.160241
0.159803
0.159353
0.158898
0.158446
0.157995
0.157556
0.157119
0.156695
0.156331
0.156009
0.155829
0.155762
0.15592
0.156412
0.176839
0.177284
0.178327
0.1795
0.180773
0.182055
0.183219
0.184288
0.185183
0.18593
0.186528
0.186988
0.187323
0.187543
0.187665
0.187701
0.187664
0.187562
0.187412
0.187223
0.186999
0.186742
0.186461
0.186153
0.185828
0.185484
0.185127
0.184757
0.18438
0.183999
0.183614
0.18323
0.182847
0.182468
0.182096
0.181736
0.181387
0.181048
0.180723
0.180415
0.180125
0.179859
0.179617
0.179404
0.179222
0.179072
0.178958
0.17888
0.178841
0.178842
0.178883
0.178965
0.179089
0.179255
0.179464
0.179713
0.180002
0.180328
0.180688
0.181079
0.181496
0.181935
0.18239
0.182857
0.183328
0.183797
0.184258
0.184704
0.185128
0.185524
0.185886
0.186211
0.186494
0.186697
0.186823
0.186872
0.186846
0.186737
0.18655
0.186278
0.185937
0.185518
0.185038
0.184497
0.183906
0.183278
0.182616
0.181929
0.181224
0.1805
0.179769
0.179023
0.178275
0.177578
0.176916
0.176396
0.175994
0.175833
0.176031
0.19624
0.196405
0.197199
0.198153
0.199223
0.200323
0.20132
0.202235
0.202984
0.203594
0.204066
0.204409
0.204638
0.204761
0.204796
0.204754
0.204649
0.204489
0.204286
0.204046
0.203781
0.203492
0.203188
0.202867
0.202538
0.202198
0.201854
0.201507
0.201161
0.20082
0.200486
0.200162
0.199849
0.19955
0.199267
0.198999
0.198752
0.198527
0.198328
0.198158
0.198019
0.197915
0.197848
0.197821
0.197837
0.197897
0.198003
0.198157
0.198359
0.198611
0.198914
0.199267
0.19967
0.200122
0.200622
0.20117
0.201759
0.202389
0.203053
0.203748
0.204465
0.205201
0.205946
0.206694
0.207436
0.208164
0.20887
0.209544
0.21018
0.210767
0.2113
0.211773
0.212167
0.212448
0.212626
0.212697
0.212663
0.212514
0.212256
0.211881
0.211407
0.210826
0.210154
0.209394
0.208558
0.207662
0.20671
0.205712
0.204676
0.203604
0.202508
0.201383
0.200244
0.199151
0.198089
0.197175
0.196387
0.195859
0.195723
0.21561
0.215489
0.216025
0.216762
0.217636
0.218565
0.219412
0.220193
0.220822
0.221326
0.221703
0.221963
0.22212
0.222182
0.222166
0.222084
0.221949
0.221768
0.221553
0.221312
0.221052
0.220776
0.22049
0.220196
0.219902
0.219607
0.219317
0.219033
0.218761
0.218503
0.218261
0.218035
0.217829
0.217647
0.21749
0.217361
0.217264
0.217201
0.217175
0.21719
0.217248
0.217353
0.217507
0.217712
0.21797
0.218284
0.218653
0.21908
0.219565
0.220108
0.220709
0.221367
0.222081
0.222848
0.223667
0.224533
0.225442
0.226389
0.227367
0.228369
0.229387
0.230412
0.231436
0.232449
0.233439
0.234398
0.235314
0.236178
0.23698
0.237709
0.238358
0.238922
0.239349
0.239641
0.239801
0.239821
0.239703
0.239438
0.239033
0.23848
0.237797
0.236978
0.236041
0.234991
0.233841
0.232609
0.231301
0.229929
0.228503
0.227026
0.225513
0.223959
0.222386
0.220855
0.219358
0.218016
0.216814
0.215896
0.215412
0.234938
0.234538
0.234828
0.235363
0.236063
0.236846
0.237572
0.238252
0.238798
0.239232
0.239554
0.239772
0.239899
0.239941
0.239918
0.239838
0.239715
0.239556
0.239371
0.23917
0.238959
0.238739
0.238519
0.238297
0.238085
0.237879
0.237687
0.237508
0.237349
0.237215
0.237104
0.23702
0.236967
0.236946
0.236962
0.237017
0.237114
0.237257
0.237448
0.237692
0.237989
0.238344
0.238758
0.239233
0.239771
0.240372
0.241037
0.241768
0.242563
0.243421
0.244342
0.245323
0.246361
0.247453
0.248594
0.24978
0.251003
0.252257
0.253533
0.254822
0.256113
0.257397
0.258661
0.259895
0.261086
0.262223
0.263292
0.264284
0.265186
0.265988
0.266682
0.267246
0.267637
0.267866
0.26793
0.267823
0.267548
0.267094
0.266471
0.265671
0.264714
0.263597
0.262336
0.26094
0.259424
0.257808
0.2561
0.254312
0.252459
0.250542
0.248582
0.246574
0.244545
0.242558
0.240611
0.238829
0.237204
0.23589
0.235051
0.254239
0.25358
0.253648
0.254009
0.254566
0.255239
0.255882
0.256501
0.257006
0.257415
0.257728
0.257949
0.258092
0.258162
0.258177
0.258146
0.258081
0.257989
0.257881
0.257765
0.257647
0.257529
0.257418
0.257314
0.257227
0.257155
0.257104
0.257075
0.257074
0.257106
0.257171
0.257273
0.257414
0.257598
0.257828
0.258107
0.258439
0.258826
0.259271
0.259778
0.260348
0.260983
0.261686
0.262457
0.263297
0.264207
0.265185
0.266232
0.267346
0.268525
0.269766
0.271066
0.272419
0.273821
0.275266
0.276746
0.278253
0.279779
0.281311
0.28284
0.284352
0.285837
0.287281
0.288672
0.289995
0.291237
0.292386
0.293428
0.294354
0.295151
0.295814
0.296286
0.296568
0.29666
0.296558
0.296257
0.295759
0.295058
0.294161
0.293064
0.291787
0.290328
0.288706
0.286931
0.28502
0.282994
0.280863
0.278643
0.276346
0.27398
0.271564
0.269099
0.266613
0.264172
0.261781
0.259565
0.257526
0.255826
0.254642
0.273541
0.272652
0.272529
0.272752
0.273207
0.273812
0.274417
0.27502
0.275531
0.275964
0.276316
0.27659
0.276798
0.276945
0.277046
0.277112
0.277153
0.277177
0.277192
0.277208
0.277229
0.277259
0.277303
0.277361
0.277443
0.277547
0.277681
0.277843
0.278041
0.278281
0.278562
0.278887
0.279261
0.279685
0.280164
0.280699
0.281296
0.281955
0.28268
0.283472
0.284334
0.285267
0.286271
0.287347
0.288495
0.289714
0.291002
0.292358
0.293778
0.29526
0.296799
0.298389
0.300023
0.301696
0.3034
0.305125
0.30686
0.308597
0.310321
0.312021
0.313684
0.315295
0.316841
0.318308
0.319682
0.320949
0.322095
0.323108
0.323978
0.324692
0.325234
0.325552
0.32566
0.325554
0.325229
0.324683
0.323918
0.322929
0.321724
0.3203
0.318679
0.31686
0.314863
0.312698
0.310386
0.307948
0.305396
0.302746
0.300014
0.297209
0.294351
0.291444
0.288518
0.285643
0.282828
0.2802
0.277771
0.275709
0.274205
0.292871
0.291784
0.291512
0.291639
0.292037
0.292619
0.293233
0.29387
0.294437
0.294944
0.295385
0.295762
0.296086
0.296359
0.296598
0.296809
0.297005
0.297191
0.297377
0.29757
0.297775
0.297995
0.298237
0.298499
0.298791
0.299111
0.299467
0.299857
0.300291
0.300771
0.301299
0.301879
0.302512
0.303202
0.303952
0.304765
0.305642
0.306587
0.307601
0.308685
0.309841
0.311068
0.312368
0.313738
0.315178
0.316685
0.318257
0.319891
0.321582
0.323325
0.325114
0.326942
0.328801
0.330683
0.332579
0.334478
0.336368
0.338237
0.340074
0.341863
0.343591
0.345244
0.346807
0.348267
0.349609
0.350819
0.351885
0.352795
0.353538
0.354106
0.354452
0.354565
0.354451
0.354104
0.353521
0.3527
0.351645
0.35035
0.348825
0.347069
0.345103
0.342927
0.340562
0.338021
0.335323
0.332491
0.329539
0.326485
0.323344
0.320128
0.316857
0.31354
0.310208
0.306933
0.303728
0.300723
0.297938
0.295549
0.29376
0.312247
0.311001
0.310622
0.310699
0.311088
0.311695
0.312367
0.313087
0.313759
0.31439
0.31497
0.315501
0.31599
0.316438
0.316861
0.317266
0.317662
0.318055
0.318454
0.318866
0.319297
0.319747
0.320223
0.320724
0.32126
0.321828
0.322435
0.323082
0.323776
0.32452
0.325316
0.326167
0.327074
0.328041
0.32907
0.330162
0.331321
0.332546
0.33384
0.335203
0.336635
0.338135
0.339701
0.341333
0.343027
0.34478
0.346588
0.348447
0.35035
0.352292
0.354265
0.35626
0.358269
0.360281
0.362287
0.364276
0.366235
0.368152
0.370013
0.371804
0.373512
0.375123
0.376621
0.377996
0.379231
0.380315
0.381234
0.381979
0.382538
0.382902
0.383016
0.38289
0.382527
0.381918
0.381063
0.379959
0.378611
0.377015
0.375181
0.373107
0.370816
0.368307
0.365603
0.362716
0.359666
0.356478
0.353164
0.349745
0.346238
0.342653
0.339015
0.335332
0.331639
0.328008
0.32446
0.321121
0.318024
0.31535
0.313318
0.33167
0.330306
0.329868
0.32994
0.330367
0.331048
0.331825
0.332676
0.333501
0.334303
0.335071
0.335802
0.3365
0.337169
0.33782
0.338459
0.339096
0.339735
0.340385
0.341051
0.341739
0.34245
0.343189
0.343956
0.344759
0.345596
0.346473
0.347391
0.348357
0.349375
0.350444
0.351567
0.352746
0.353983
0.35528
0.356637
0.358057
0.35954
0.361085
0.362693
0.364362
0.366092
0.367878
0.369719
0.371609
0.373547
0.375525
0.377538
0.37958
0.381643
0.383718
0.385797
0.38787
0.389927
0.391957
0.393948
0.395889
0.397767
0.399569
0.401282
0.402891
0.404385
0.405749
0.406972
0.408041
0.408943
0.409668
0.410205
0.410544
0.410667
0.410532
0.410156
0.409536
0.408665
0.407543
0.406169
0.404547
0.402674
0.400558
0.3982
0.395619
0.392819
0.389818
0.386632
0.383279
0.379784
0.376161
0.37243
0.368609
0.364711
0.360759
0.356766
0.352767
0.348834
0.344994
0.341375
0.338017
0.335107
0.332879
0.351123
0.349684
0.349233
0.349347
0.349857
0.350656
0.351582
0.352607
0.353629
0.354645
0.355641
0.356613
0.357561
0.358488
0.359403
0.360312
0.361222
0.362137
0.363065
0.364011
0.364979
0.36597
0.366988
0.368033
0.369114
0.370226
0.371377
0.372566
0.373801
0.375083
0.376413
0.377793
0.379223
0.380706
0.382241
0.38383
0.385474
0.387171
0.38892
0.390722
0.392572
0.394471
0.396412
0.398394
0.40041
0.402456
0.404526
0.406614
0.408712
0.410812
0.412905
0.414983
0.417034
0.41905
0.42102
0.422932
0.424776
0.426539
0.428209
0.429774
0.431222
0.43254
0.433717
0.434742
0.435602
0.436287
0.436788
0.437096
0.437204
0.437067
0.436686
0.436064
0.435198
0.434083
0.432718
0.431103
0.429239
0.427126
0.424771
0.422175
0.419354
0.416314
0.413072
0.409642
0.406045
0.402303
0.398431
0.394451
0.390378
0.386229
0.382025
0.377783
0.37354
0.369366
0.365294
0.361451
0.357887
0.354795
0.352423
0.370563
0.369095
0.368676
0.368873
0.369508
0.370464
0.371578
0.372814
0.374069
0.375335
0.376593
0.377838
0.379068
0.380282
0.381487
0.382689
0.383894
0.385104
0.386325
0.387563
0.38882
0.390096
0.391396
0.392718
0.39407
0.395449
0.39686
0.398303
0.399785
0.401306
0.402868
0.404471
0.406115
0.407801
0.40953
0.4113
0.413113
0.414966
0.416859
0.418789
0.420753
0.422749
0.424771
0.426817
0.42888
0.430956
0.433036
0.435117
0.437188
0.439243
0.441273
0.443269
0.445221
0.447121
0.448957
0.450722
0.452403
0.45399
0.455473
0.45684
0.45808
0.459183
0.460138
0.460936
0.461566
0.462019
0.462285
0.462357
0.462226
0.461848
0.461236
0.460389
0.459304
0.457976
0.456403
0.454585
0.452524
0.450219
0.447676
0.444895
0.441892
0.438671
0.435249
0.43164
0.427862
0.423939
0.419886
0.415722
0.411465
0.407131
0.402743
0.398319
0.393896
0.389546
0.385306
0.3813
0.377591
0.374373
0.371908
0.389927
0.388474
0.388128
0.388445
0.38924
0.390385
0.391718
0.393194
0.394709
0.39625
0.397796
0.399336
0.400867
0.402384
0.403895
0.405402
0.40691
0.408419
0.409936
0.411463
0.413003
0.414555
0.416122
0.417703
0.419306
0.420925
0.422567
0.424231
0.425923
0.427643
0.429392
0.431169
0.432975
0.434809
0.436672
0.438562
0.440479
0.442421
0.444387
0.446373
0.448377
0.450394
0.452422
0.454455
0.456487
0.458514
0.460528
0.462524
0.464495
0.466432
0.468328
0.470175
0.471964
0.473687
0.475335
0.4769
0.478371
0.47974
0.480998
0.482135
0.483141
0.484007
0.484725
0.485286
0.48568
0.485899
0.485936
0.485782
0.485426
0.484832
0.484016
0.482976
0.481706
0.480204
0.478467
0.476493
0.474285
0.471841
0.469165
0.466257
0.463132
0.459793
0.456256
0.452532
0.448642
0.444606
0.440439
0.43616
0.431789
0.42734
0.422836
0.418298
0.413765
0.409304
0.404961
0.400857
0.397062
0.393776
0.39127
0.409126
0.407733
0.407495
0.407964
0.408946
0.410303
0.411876
0.413611
0.415403
0.417234
0.419079
0.420925
0.422763
0.424589
0.426406
0.428216
0.430021
0.431821
0.433619
0.435419
0.43722
0.439023
0.440829
0.442637
0.444453
0.446273
0.448103
0.449941
0.451793
0.453658
0.455538
0.45743
0.459336
0.461254
0.463185
0.465127
0.467079
0.46904
0.471006
0.472976
0.474947
0.476914
0.478875
0.480823
0.482754
0.484664
0.486546
0.488394
0.490202
0.491963
0.493671
0.495318
0.496897
0.4984
0.499821
0.501151
0.502384
0.503511
0.504525
0.505417
0.506179
0.506804
0.507284
0.507611
0.507778
0.507778
0.507603
0.507247
0.506686
0.505909
0.504924
0.503727
0.502314
0.500681
0.498826
0.496746
0.494443
0.491913
0.489161
0.486186
0.482999
0.479604
0.476015
0.472243
0.468306
0.464223
0.460011
0.455686
0.451268
0.446773
0.442223
0.437639
0.433062
0.428559
0.424178
0.420038
0.416218
0.41292
0.410426
0.428055
0.42676
0.42666
0.427304
0.42849
0.430075
0.431898
0.433899
0.435974
0.438098
0.440242
0.442389
0.444529
0.446655
0.448766
0.450863
0.452945
0.455012
0.457066
0.459106
0.461135
0.46315
0.465153
0.467143
0.469125
0.471095
0.473059
0.475015
0.476968
0.478918
0.480865
0.482809
0.484749
0.486685
0.488617
0.490543
0.492462
0.494373
0.496273
0.498161
0.500033
0.501887
0.503717
0.505521
0.507294
0.509032
0.510729
0.51238
0.513981
0.515525
0.517006
0.51842
0.519758
0.521017
0.522189
0.523269
0.524251
0.525128
0.525893
0.52654
0.527062
0.527454
0.527707
0.527817
0.527776
0.527577
0.527215
0.526683
0.525952
0.525027
0.52391
0.522597
0.521083
0.519364
0.517437
0.515299
0.512951
0.510389
0.507614
0.504628
0.501437
0.498046
0.494465
0.490706
0.486785
0.482721
0.478527
0.474222
0.469823
0.465347
0.460816
0.456253
0.451698
0.447217
0.442861
0.438748
0.434962
0.431707
0.429272
0.44659
0.44543
0.445489
0.446322
0.447721
0.449537
0.45161
0.453874
0.456225
0.458632
0.461062
0.463497
0.46592
0.468323
0.470704
0.473059
0.475387
0.477685
0.479954
0.482195
0.484405
0.486584
0.488733
0.490851
0.492943
0.495006
0.497044
0.499057
0.501049
0.503021
0.504973
0.506904
0.508815
0.510705
0.512575
0.514423
0.516248
0.51805
0.519827
0.521576
0.523296
0.524984
0.526636
0.52825
0.529822
0.531348
0.532824
0.534246
0.53561
0.536912
0.538146
0.539308
0.540393
0.541397
0.542315
0.543142
0.543874
0.544504
0.545029
0.545443
0.54574
0.545914
0.545961
0.545875
0.54565
0.54528
0.544758
0.54408
0.543217
0.542181
0.540971
0.53958
0.538006
0.536243
0.534288
0.532139
0.529792
0.527246
0.524499
0.521552
0.51841
0.515076
0.51156
0.507871
0.504024
0.500036
0.495921
0.491696
0.487377
0.482982
0.478532
0.474051
0.469579
0.465181
0.460911
0.456881
0.453185
0.450025
0.447693
0.464602
0.463604
0.463837
0.464864
0.466476
0.468516
0.470829
0.473341
0.475949
0.478619
0.481312
0.484006
0.486683
0.489331
0.491945
0.49452
0.497052
0.499537
0.501975
0.504364
0.506704
0.508993
0.511232
0.513421
0.515565
0.51766
0.519712
0.521722
0.523693
0.525626
0.527523
0.529383
0.531208
0.532996
0.534749
0.536467
0.538148
0.539793
0.5414
0.542968
0.544495
0.54598
0.54742
0.548813
0.550156
0.551446
0.55268
0.553856
0.55497
0.556018
0.556997
0.557904
0.558735
0.559487
0.560156
0.560739
0.561232
0.561631
0.561931
0.56213
0.562222
0.562202
0.562067
0.561811
0.561429
0.560916
0.560266
0.559472
0.558514
0.557402
0.556133
0.554702
0.553106
0.551338
0.549395
0.547273
0.544971
0.542483
0.539808
0.536946
0.533899
0.530671
0.527268
0.523699
0.519978
0.516119
0.512136
0.508045
0.503861
0.499601
0.495288
0.490945
0.486613
0.482353
0.478223
0.474331
0.470773
0.467753
0.465563
0.481956
0.481141
0.481554
0.482773
0.484588
0.486837
0.489369
0.492105
0.494944
0.497845
0.500768
0.503686
0.506578
0.509429
0.512233
0.514981
0.517668
0.52029
0.522844
0.525329
0.527743
0.530086
0.532358
0.53456
0.536698
0.538769
0.540779
0.54273
0.544625
0.546467
0.548257
0.549996
0.551686
0.553327
0.554921
0.556467
0.557966
0.559418
0.560823
0.56218
0.563489
0.564747
0.565955
0.567109
0.568209
0.569253
0.570237
0.571162
0.572023
0.572819
0.573548
0.574206
0.574792
0.575304
0.575738
0.576093
0.576365
0.576552
0.57665
0.576656
0.576567
0.576378
0.576087
0.575689
0.575179
0.574552
0.573803
0.572924
0.571902
0.570746
0.569452
0.568014
0.566428
0.564688
0.562792
0.560734
0.558511
0.556118
0.553553
0.550813
0.547902
0.544819
0.541571
0.538166
0.534614
0.530929
0.527124
0.523213
0.519212
0.515137
0.511009
0.506854
0.50271
0.498638
0.494696
0.490987
0.487613
0.484773
0.482756
0.498522
0.497904
0.498496
0.499897
0.501896
0.50433
0.507053
0.509981
0.513015
0.51611
0.519222
0.522321
0.525384
0.528392
0.531337
0.534208
0.537
0.539706
0.542323
0.544849
0.547283
0.549625
0.551876
0.554039
0.556118
0.558114
0.560032
0.561876
0.563649
0.565356
0.566998
0.568577
0.570095
0.571555
0.572957
0.574304
0.575595
0.576832
0.578015
0.579144
0.58022
0.581241
0.582208
0.583119
0.583973
0.58477
0.585508
0.586186
0.586803
0.587357
0.587847
0.588272
0.588629
0.588918
0.589136
0.589283
0.589357
0.589354
0.589273
0.589112
0.588867
0.588536
0.588114
0.5876
0.586988
0.586275
0.585457
0.584519
0.583463
0.582291
0.580999
0.579581
0.578034
0.576352
0.57453
0.572565
0.57045
0.568183
0.565758
0.563173
0.560429
0.557526
0.554467
0.55126
0.547914
0.544441
0.540852
0.537161
0.533383
0.529533
0.525632
0.521705
0.517791
0.513948
0.510235
0.50675
0.503596
0.500967
0.499149
0.51418
0.513764
0.514528
0.516093
0.518253
0.520843
0.523722
0.526804
0.529993
0.533239
0.536495
0.539729
0.542914
0.54603
0.549066
0.55201
0.554855
0.557593
0.560222
0.562738
0.565142
0.567433
0.569616
0.571692
0.573668
0.575546
0.577332
0.57903
0.580647
0.582184
0.583647
0.585038
0.58636
0.587615
0.588807
0.589936
0.591006
0.592016
0.592968
0.593864
0.594703
0.595486
0.596213
0.596885
0.5975
0.598059
0.598561
0.599005
0.599392
0.59972
0.599989
0.600198
0.600347
0.600434
0.600459
0.600421
0.600319
0.600151
0.599916
0.599612
0.599236
0.598786
0.59826
0.597654
0.596965
0.59619
0.595325
0.594356
0.59329
0.592125
0.590859
0.589485
0.588
0.586397
0.584674
0.582823
0.580841
0.578722
0.576462
0.574056
0.571505
0.568807
0.565966
0.562985
0.559874
0.556642
0.5533
0.54986
0.546336
0.542744
0.539103
0.535439
0.53179
0.528209
0.524757
0.521527
0.518623
0.51623
0.514627
0.528825
0.52861
0.529532
0.531241
0.533532
0.536243
0.539241
0.542436
0.545736
0.549087
0.552441
0.555762
0.55902
0.562196
0.565274
0.568242
0.571092
0.573815
0.576407
0.578868
0.581198
0.583397
0.585471
0.587422
0.589259
0.590986
0.592609
0.594133
0.595566
0.596912
0.598176
0.599361
0.600472
0.601511
0.602482
0.603388
0.60423
0.605012
0.605734
0.606399
0.607006
0.607558
0.608055
0.608498
0.608887
0.609222
0.609503
0.609731
0.609906
0.610028
0.610096
0.610111
0.610073
0.609981
0.609836
0.609636
0.609382
0.609072
0.608706
0.608282
0.607798
0.607253
0.606644
0.605969
0.605225
0.604409
0.603517
0.602539
0.601483
0.600345
0.599123
0.597811
0.596406
0.594901
0.593293
0.591575
0.589743
0.58779
0.585712
0.583504
0.581165
0.578692
0.576087
0.573354
0.570499
0.567531
0.56446
0.561295
0.558051
0.554742
0.551387
0.548011
0.544652
0.54136
0.538194
0.535244
0.532609
0.53047
0.529093
0.542371
0.54235
0.543413
0.545238
0.547628
0.550425
0.5535
0.556766
0.560133
0.563543