/*--------------------------------*- C++ -*----------------------------------*\
| =========                 |                                                 |
| \\      /  F ield         | OpenFOAM: The Open Source CFD Toolbox           |
|  \\    /   O peration     | Version:  2006                                  |
|   \\  /    A nd           | Website:  www.openfoam.com                      |
|    \\/     M anipulation  |                                                 |
\*---------------------------------------------------------------------------*/
FoamFile
{
    version     2.0;
    format      ascii;
    class       volVectorField;
    location    "20000";
    object      U;
}
// * * * * * * * * * * * * * * * * * * * * * * * * * * * * * * * * * * * * * //

dimensions      [0 1 -1 0 0 0 0];


internalField   nonuniform List<vector> 
14751
(
(0.0015366 -4.9401e-08 0)
(0.00154941 -1.33767e-07 0)
(0.00156725 1.70466e-08 -4.88226e-26)
(0.00157409 5.23387e-08 1.43028e-25)
(0.00158063 1.24747e-07 -1.66303e-24)
(0.00158034 1.79772e-07 7.98886e-25)
(0.0015759 2.21171e-07 0)
(0.00156694 2.71743e-07 6.43143e-25)
(0.00155301 3.06211e-07 -1.85046e-26)
(0.00153555 3.42031e-07 1.41611e-26)
(0.0015143 3.67274e-07 -5.37148e-25)
(0.00149015 3.85366e-07 0)
(0.00146341 3.96529e-07 0)
(0.00143462 4.00552e-07 2.2534e-25)
(0.00140429 3.99614e-07 2.03533e-25)
(0.00137289 3.92875e-07 0)
(0.00134085 3.82326e-07 0)
(0.00130854 3.67541e-07 0)
(0.00127632 3.49768e-07 7.73521e-26)
(0.0012445 3.28965e-07 0)
(0.00121328 3.07017e-07 -4.05334e-27)
(0.00118288 2.82925e-07 -2.72823e-26)
(0.00115342 2.60619e-07 0)
(0.00112503 2.36482e-07 0)
(0.00109783 2.1592e-07 0)
(0.0010718 1.94373e-07 -3.03627e-27)
(0.00104706 1.76447e-07 2.9713e-26)
(0.00102351 1.58926e-07 -2.91644e-27)
(0.00100128 1.43331e-07 0)
(0.000980282 1.29476e-07 -2.69548e-27)
(0.000960499 1.16733e-07 -1.73847e-26)
(0.000941923 1.05453e-07 1.99415e-26)
(0.000924522 9.51571e-08 1.33641e-27)
(0.000908284 8.59996e-08 2.01389e-26)
(0.000893136 7.81185e-08 -9.52273e-27)
(0.000879037 7.13472e-08 -6.7223e-28)
(0.000865932 6.51169e-08 2.04163e-29)
(0.00085375 5.96612e-08 3.77371e-25)
(0.000842463 5.45735e-08 -7.50312e-28)
(0.000832055 5.11474e-08 0)
(0.000822525 4.73789e-08 0)
(0.000813781 4.32519e-08 0)
(0.000805809 4.00465e-08 0)
(0.00079858 3.64086e-08 0)
(0.000792059 3.36679e-08 -1.27292e-25)
(0.000786295 3.1167e-08 -2.54193e-28)
(0.000781268 2.85296e-08 1.39779e-25)
(0.000776983 2.63107e-08 0)
(0.000773435 2.39142e-08 -1.53779e-25)
(0.000770647 2.17149e-08 1.61209e-25)
(0.000768629 1.94412e-08 3.37637e-28)
(0.000767401 1.68579e-08 -3.37639e-28)
(0.000766984 1.45384e-08 0)
(0.00076741 1.25489e-08 0)
(0.000768662 1.06414e-08 -1.61158e-27)
(0.000770709 9.09061e-09 1.61144e-27)
(0.000773566 7.31669e-09 2.21254e-25)
(0.000777235 6.07532e-09 2.26752e-25)
(0.00078172 4.77207e-09 3.78481e-27)
(0.000786979 2.82868e-09 -3.78406e-27)
(0.000792985 2.05724e-09 0)
(0.000799762 5.32303e-10 2.12254e-24)
(0.000807261 7.6263e-10 0)
(0.000815524 2.64717e-09 0)
(0.000824521 2.71182e-09 0)
(0.00083419 3.7538e-09 6.04878e-25)
(0.000844474 4.89295e-09 9.88197e-27)
(0.000855391 7.07256e-09 -9.8782e-27)
(0.000866907 8.85231e-09 0)
(0.000878945 1.08975e-08 3.17134e-25)
(0.000891492 1.31413e-08 -3.03895e-25)
(0.000904531 1.53032e-08 5.4191e-28)
(0.000918034 1.79733e-08 3.41784e-25)
(0.000932002 1.98534e-08 3.72503e-25)
(0.000946406 2.23778e-08 -3.80517e-25)
(0.00096134 2.32812e-08 0)
(0.000976808 2.4907e-08 0)
(0.000992847 2.3215e-08 0)
(0.0010095 2.30723e-08 0)
(0.00102679 1.4956e-08 5.25789e-26)
(0.00104484 1.16299e-08 7.94865e-25)
(0.00106366 1.87509e-09 0)
(0.00108354 -7.46055e-09 2.74129e-26)
(0.00110433 -1.96863e-08 -5.51253e-26)
(0.00112631 -3.49171e-08 2.77108e-26)
(0.00114956 -5.02197e-08 0)
(0.00117406 -6.84641e-08 0)
(0.0012 -8.89559e-08 0)
(0.00122714 -1.07611e-07 2.44597e-25)
(0.00125549 -1.31482e-07 -1.4407e-26)
(0.00128488 -1.51615e-07 9.0515e-28)
(0.00131468 -1.68904e-07 4.62282e-25)
(0.00134537 -1.97185e-07 2.8837e-26)
(0.00137583 -1.99614e-07 4.59908e-25)
(0.00140606 -2.26869e-07 -4.85488e-25)
(0.00143625 -2.26923e-07 -9.04436e-25)
(0.00146385 -2.18556e-07 0)
(0.00148736 -1.59402e-07 0)
(0.00151599 -2.59863e-07 0)
(0.00454784 -9.91836e-07 0)
(0.00457949 -1.24542e-06 -7.61531e-23)
(0.00462231 -6.02905e-07 -2.26843e-24)
(0.00464022 -2.5954e-07 1.45267e-22)
(0.00465622 1.49141e-07 2.15475e-24)
(0.00465582 6.04338e-07 -1.0353e-24)
(0.00464422 9.48477e-07 -2.49971e-22)
(0.00462075 1.35202e-06 -2.4505e-22)
(0.00458426 1.66546e-06 2.28485e-22)
(0.00453822 1.95912e-06 -2.19284e-25)
(0.00448224 2.20573e-06 -2.05063e-22)
(0.00441847 2.40726e-06 0)
(0.00434782 2.57029e-06 -1.84836e-22)
(0.00427163 2.68706e-06 7.57811e-24)
(0.00419127 2.76641e-06 -6.72057e-25)
(0.0041079 2.80547e-06 -4.83641e-24)
(0.00402272 2.81431e-06 0)
(0.00393663 2.79271e-06 3.91297e-24)
(0.00385064 2.74675e-06 1.17099e-22)
(0.00376551 2.67978e-06 6.82755e-24)
(0.00368183 2.60006e-06 -4.64557e-25)
(0.00360016 2.50319e-06 -6.19638e-23)
(0.00352086 2.40559e-06 6.02568e-24)
(0.00344427 2.29121e-06 2.67398e-24)
(0.00337075 2.18439e-06 -2.6838e-24)
(0.00330025 2.06663e-06 2.43101e-24)
(0.0032331 1.95724e-06 -4.06223e-23)
(0.00316911 1.84403e-06 -3.457e-23)
(0.0031086 1.73319e-06 -3.57724e-23)
(0.00305136 1.62768e-06 2.22021e-24)
(0.00299739 1.52382e-06 -1.73104e-23)
(0.00294668 1.42384e-06 1.04556e-24)
(0.00289915 1.3263e-06 -1.08162e-24)
(0.00285478 1.23307e-06 1.74494e-23)
(0.00281343 1.14625e-06 1.1397e-24)
(0.00277497 1.06556e-06 -2.04498e-23)
(0.00273926 9.88772e-07 1.92443e-23)
(0.00270611 9.16152e-07 -9.15948e-27)
(0.00267546 8.45901e-07 6.37518e-25)
(0.00264727 7.81975e-07 -1.30244e-24)
(0.00262153 7.17746e-07 1.22153e-23)
(0.00259803 6.54615e-07 -6.94228e-25)
(0.00257673 5.94705e-07 -1.18807e-23)
(0.00255756 5.34898e-07 5.82739e-24)
(0.00254044 4.77818e-07 -5.50929e-24)
(0.00252549 4.21169e-07 -7.05107e-24)
(0.00251267 3.6408e-07 -3.37053e-24)
(0.00250199 3.0821e-07 -2.30304e-25)
(0.00249344 2.50875e-07 2.47359e-25)
(0.00248709 1.93184e-07 -2.59353e-25)
(0.00248296 1.3376e-07 1.08704e-24)
(0.00248112 7.18916e-08 -4.55257e-24)
(0.00248162 8.94371e-09 0)
(0.00248456 -5.33866e-08 0)
(0.00248991 -1.14344e-07 0)
(0.00249755 -1.73655e-07 -6.91561e-25)
(0.00250751 -2.34433e-07 3.38454e-25)
(0.0025198 -2.93667e-07 1.13046e-24)
(0.00253438 -3.52875e-07 -1.4964e-24)
(0.00255116 -4.12167e-07 2.53389e-23)
(0.00257005 -4.68252e-07 0)
(0.00259108 -5.24844e-07 -3.39995e-24)
(0.00261412 -5.76376e-07 3.57605e-24)
(0.00263924 -6.22437e-07 -5.79808e-23)
(0.00266632 -6.71689e-07 -3.686e-24)
(0.0026952 -7.15019e-07 -9.64798e-25)
(0.00272571 -7.56608e-07 -6.75634e-23)
(0.00275784 -7.94142e-07 6.93152e-23)
(0.0027915 -8.30005e-07 -7.55101e-23)
(0.00282646 -8.62925e-07 7.9372e-24)
(0.00286266 -8.94137e-07 -1.40149e-22)
(0.00290004 -9.24345e-07 0)
(0.0029385 -9.51935e-07 -5.74191e-25)
(0.00297802 -9.81482e-07 -5.85868e-25)
(0.00301856 -1.00923e-06 1.02517e-23)
(0.0030603 -1.04374e-06 1.65237e-22)
(0.00310328 -1.07479e-06 9.98553e-24)
(0.00314755 -1.11809e-06 1.50793e-22)
(0.00319327 -1.15509e-06 1.631e-22)
(0.00324046 -1.22019e-06 0)
(0.0032895 -1.26949e-06 -3.36034e-22)
(0.00334038 -1.34427e-06 0)
(0.00339379 -1.41865e-06 1.07567e-23)
(0.00344945 -1.50482e-06 -1.07092e-23)
(0.003508 -1.60606e-06 3.47595e-22)
(0.0035696 -1.70752e-06 5.49202e-24)
(0.00363426 -1.82033e-06 3.46022e-22)
(0.00370228 -1.93568e-06 -3.58204e-22)
(0.00377315 -2.03631e-06 7.92372e-24)
(0.00384668 -2.14443e-06 -2.75316e-24)
(0.00392225 -2.21823e-06 -3.52645e-22)
(0.00399841 -2.27567e-06 -3.51964e-22)
(0.00407586 -2.35113e-06 3.49221e-22)
(0.00415236 -2.31421e-06 -6.7636e-25)
(0.00422754 -2.3576e-06 -1.76009e-22)
(0.00430171 -2.24562e-06 1.78345e-22)
(0.00436887 -2.04734e-06 -1.69052e-22)
(0.00442875 -1.85068e-06 0)
(0.00449711 -2.09518e-06 -2.50524e-24)
(0.0075144 -2.73841e-06 7.51871e-23)
(0.00755731 -3.06634e-06 7.22057e-23)
(0.00761629 -1.73257e-06 -2.85625e-22)
(0.007644 -8.6478e-07 -1.37881e-22)
(0.00766851 8.85103e-08 -5.3259e-22)
(0.00767094 1.2296e-06 0)
(0.00765665 2.14583e-06 2.45926e-22)
(0.00762494 3.20593e-06 2.31432e-22)
(0.00757396 4.08255e-06 -2.20197e-22)
(0.00750849 4.89935e-06 4.24769e-22)
(0.0074283 5.61139e-06 6.02868e-22)
(0.00733633 6.21356e-06 0)
(0.00723405 6.72004e-06 5.3537e-22)
(0.00712337 7.11121e-06 0)
(0.0070063 7.40409e-06 3.04765e-22)
(0.00688454 7.59286e-06 1.84081e-23)
(0.00675982 7.69803e-06 -8.92861e-24)
(0.00663349 7.71899e-06 2.65029e-22)
(0.00650702 7.66874e-06 -1.28095e-22)
(0.00638154 7.55688e-06 0)
(0.00625796 7.40176e-06 -2.23781e-22)
(0.00613705 7.19553e-06 7.43821e-23)
(0.00601943 6.97387e-06 -1.2068e-23)
(0.00590558 6.70427e-06 1.76604e-22)
(0.00579607 6.44014e-06 -1.72859e-22)
(0.00569087 6.14438e-06 2.41833e-25)
(0.00559049 5.85818e-06 4.34001e-23)
(0.0054947 5.55744e-06 3.72204e-23)
(0.00540397 5.25604e-06 4.0743e-23)
(0.00531809 4.96267e-06 6.66893e-23)
(0.00523703 4.66946e-06 2.19874e-23)
(0.00516082 4.3816e-06 -4.40133e-24)
(0.00508937 4.09666e-06 -2.21046e-24)
(0.00502268 3.81941e-06 -8.68289e-23)
(0.00496059 3.55628e-06 0)
(0.00490295 3.30936e-06 -1.6202e-23)
(0.00484948 3.07273e-06 -2.38651e-23)
(0.00479996 2.84596e-06 2.42872e-24)
(0.00475431 2.62495e-06 0)
(0.00471247 2.41773e-06 0)
(0.00467441 2.20996e-06 -1.11223e-23)
(0.0046399 2.00761e-06 2.32646e-23)
(0.00460888 1.81188e-06 1.29638e-23)
(0.00458126 1.61721e-06 1.75662e-23)
(0.00455693 1.42806e-06 3.43351e-23)
(0.00453605 1.23899e-06 -7.03666e-24)
(0.00451858 1.04885e-06 -3.69357e-24)
(0.00450454 8.60512e-07 2.48209e-25)
(0.00449394 6.68002e-07 -2.48351e-25)
(0.00448686 4.73301e-07 1.06655e-24)
(0.00448334 2.7318e-07 -8.31753e-25)
(0.00448347 6.6004e-08 4.39571e-24)
(0.00448735 -1.46327e-07 0)
(0.00449515 -3.5915e-07 -1.91606e-23)
(0.00450682 -5.67082e-07 -1.30695e-24)
(0.00452215 -7.70023e-07 0)
(0.00454114 -9.76074e-07 -2.95913e-24)
(0.00456379 -1.17857e-06 6.03244e-24)
(0.00459001 -1.3798e-06 -3.07269e-24)
(0.00461966 -1.57842e-06 -2.26922e-23)
(0.00465255 -1.7696e-06 -6.73656e-24)
(0.00468871 -1.95837e-06 1.14956e-22)
(0.00472791 -2.13783e-06 1.07939e-22)
(0.00477014 -2.30409e-06 6.67981e-23)
(0.00481522 -2.47163e-06 1.14841e-22)
(0.00486285 -2.62287e-06 -2.36686e-22)
(0.00491275 -2.76716e-06 5.68977e-23)
(0.00496486 -2.90017e-06 -6.66211e-23)
(0.00501897 -3.02514e-06 8.56232e-23)
(0.00507471 -3.13994e-06 -1.72561e-23)
(0.00513196 -3.2481e-06 1.61209e-22)
(0.00519058 -3.35105e-06 -3.1038e-22)
(0.00525042 -3.44623e-06 1.88562e-23)
(0.00531137 -3.54317e-06 -6.2658e-22)
(0.00537342 -3.63638e-06 1.95356e-23)
(0.00543673 -3.74267e-06 -1.37757e-22)
(0.00550144 -3.84318e-06 4.02866e-23)
(0.0055675 -3.96812e-06 4.45493e-22)
(0.00563522 -4.08168e-06 -1.63951e-22)
(0.00570461 -4.25052e-06 -4.18083e-23)
(0.00577627 -4.39218e-06 -3.35874e-22)
(0.00585015 -4.58498e-06 4.19714e-23)
(0.00592722 -4.77802e-06 -6.82102e-22)
(0.00600716 -4.99421e-06 -6.86692e-22)
(0.0060908 -5.23809e-06 -3.4521e-22)
(0.0061784 -5.47909e-06 -1.08835e-23)
(0.00626994 -5.73562e-06 -3.36649e-22)
(0.00636572 -5.98452e-06 3.47781e-22)
(0.00646508 -6.18856e-06 -7.00468e-22)
(0.00656753 -6.37965e-06 5.40278e-24)
(0.00667197 -6.47641e-06 -3.39745e-22)
(0.00677645 -6.51984e-06 3.37611e-22)
(0.00688152 -6.56279e-06 -3.40129e-22)
(0.00698474 -6.37565e-06 -6.62502e-22)
(0.00708527 -6.30813e-06 8.20251e-22)
(0.0071836 -5.90404e-06 -1.68707e-22)
(0.00727232 -5.3442e-06 1.67078e-22)
(0.0073544 -4.88956e-06 -1.24223e-24)
(0.00744506 -5.1242e-06 2.41524e-24)
(0.0103548 -5.12288e-06 -7.07443e-23)
(0.0103997 -5.10227e-06 0)
(0.0104643 -2.89624e-06 2.67325e-22)
(0.0104959 -1.16277e-06 -1.04399e-21)
(0.0105231 6.08503e-07 5.08031e-22)
(0.0105255 2.71154e-06 -9.62542e-22)
(0.0105072 4.51075e-06 0)
(0.0104678 6.50117e-06 0)
(0.0104049 8.22225e-06 0)
(0.0103239 9.80733e-06 -3.98871e-22)
(0.010225 1.12044e-05 -3.77305e-22)
(0.0101116 1.23955e-05 0)
(0.00998577 1.34031e-05 -3.34918e-22)
(0.00984979 1.41981e-05 0)
(0.00970609 1.48037e-05 -2.94811e-22)
(0.00955675 1.52137e-05 0)
(0.00940386 1.54587e-05 5.16347e-22)
(0.00924904 1.55407e-05 2.41421e-22)
(0.00909408 1.54812e-05 -1.36156e-23)
(0.00894034 1.52994e-05 1.37094e-23)
(0.00878891 1.50246e-05 1.98113e-22)
(0.0086407 1.46504e-05 1.12644e-23)
(0.00849651 1.42306e-05 -1.13356e-23)
(0.00835688 1.37231e-05 -1.55838e-22)
(0.00822255 1.32076e-05 -1.58205e-22)
(0.00809345 1.2635e-05 -9.66138e-24)
(0.00797025 1.2066e-05 1.3588e-22)
(0.0078527 1.14687e-05 8.92341e-24)
(0.00774138 1.08649e-05 -1.36503e-22)
(0.00763605 1.02702e-05 -6.70069e-23)
(0.00753672 9.6736e-06 -1.28479e-22)
(0.00744339 9.08316e-06 -1.32217e-22)
(0.00735601 8.49582e-06 -4.14785e-24)
(0.00727457 7.91835e-06 6.71387e-23)
(0.00719898 7.36334e-06 0)
(0.00712909 6.84173e-06 3.49864e-23)
(0.0070645 6.34231e-06 -7.20236e-23)
(0.00700497 5.86072e-06 7.44691e-23)
(0.00695041 5.3903e-06 7.72962e-23)
(0.00690076 4.94362e-06 0)
(0.00685596 4.49685e-06 2.68407e-24)
(0.00681582 4.06129e-06 -2.46661e-23)
(0.00678026 3.63715e-06 -1.47324e-24)
(0.00674919 3.21487e-06 -2.11318e-23)
(0.0067225 2.80261e-06 -2.69014e-23)
(0.00670037 2.38965e-06 1.41635e-23)
(0.00668274 1.97505e-06 2.62097e-23)
(0.00666965 1.56225e-06 1.60436e-23)
(0.00666109 1.14177e-06 8.17333e-24)
(0.00665719 7.16278e-07 -2.02022e-24)
(0.00665797 2.80562e-07 -8.47138e-24)
(0.00666352 -1.69848e-07 1.77443e-23)
(0.00667395 -6.32826e-07 0)
(0.00668951 -1.10136e-06 2.06385e-23)
(0.0067102 -1.5581e-06 -1.23879e-24)
(0.00673566 -2.00148e-06 -8.17602e-23)
(0.00676586 -2.44862e-06 -2.69299e-24)
(0.00680074 -2.88843e-06 -5.83258e-24)
(0.00684017 -3.32327e-06 5.82621e-24)
(0.00688393 -3.7512e-06 0)
(0.00693176 -4.16279e-06 0)
(0.00698363 -4.56636e-06 -1.0575e-22)
(0.00703921 -4.95097e-06 1.02337e-22)
(0.00709839 -5.30937e-06 2.46864e-22)
(0.00716088 -5.6628e-06 -3.63108e-22)
(0.00722627 -5.98408e-06 2.5457e-22)
(0.0072942 -6.28787e-06 -1.51516e-23)
(0.00736448 -6.56684e-06 -5.05315e-22)
(0.00743681 -6.82704e-06 -5.18143e-22)
(0.00751071 -7.06464e-06 0)
(0.00758598 -7.28642e-06 -5.42714e-22)
(0.00766239 -7.4949e-06 3.12276e-22)
(0.00773972 -7.68748e-06 -3.4936e-23)
(0.00781783 -7.87964e-06 2.07512e-26)
(0.0078967 -8.06582e-06 1.17328e-21)
(0.00797645 -8.26958e-06 3.76502e-23)
(0.00805726 -8.46807e-06 7.38959e-25)
(0.00813903 -8.70218e-06 -6.52147e-22)
(0.00822219 -8.92489e-06 0)
(0.00830669 -9.2301e-06 0)
(0.00839336 -9.50123e-06 1.90786e-21)
(0.00848206 -9.84823e-06 0)
(0.00857389 -1.01991e-05 6.46951e-22)
(0.00866859 -1.05844e-05 6.51228e-22)
(0.00876703 -1.10067e-05 0)
(0.00886953 -1.14204e-05 0)
(0.00897598 -1.18459e-05 0)
(0.00908667 -1.2243e-05 0)
(0.00920085 -1.25501e-05 6.58136e-22)
(0.00931775 -1.27946e-05 1.60457e-25)
(0.00943584 -1.28615e-05 1.95369e-21)
(0.00955281 -1.28119e-05 5.06349e-24)
(0.00966897 -1.2711e-05 0)
(0.00978216 -1.22543e-05 1.90664e-21)
(0.00989104 -1.18996e-05 -6.36918e-22)
(0.00999657 -1.10281e-05 1.44834e-23)
(0.0100914 -9.92579e-06 -4.76494e-24)
(0.0101814 -9.00666e-06 0)
(0.0102787 -8.89417e-06 0)
(0.0129831 -7.71753e-06 -2.61077e-22)
(0.0130202 -6.83593e-06 5.06191e-22)
(0.0130796 -3.60976e-06 -9.78538e-22)
(0.0131064 -6.98082e-07 -3.0576e-25)
(0.0131277 2.1361e-06 -7.31423e-24)
(0.0131229 5.39733e-06 -8.95744e-22)
(0.0130955 8.32763e-06 1.35219e-23)
(0.013045 1.14441e-05 -6.13502e-24)
(0.0129685 1.4222e-05 6.16697e-24)
(0.0128721 1.67524e-05 -2.7587e-24)
(0.012756 1.89888e-05 -1.37265e-21)
(0.0126242 2.08936e-05 0)
(0.0124791 2.24976e-05 0)
(0.0123234 2.37699e-05 -1.72175e-23)
(0.0121596 2.47379e-05 1.73118e-23)
(0.0119902 2.5398e-05 9.98841e-22)
(0.0118174 2.57896e-05 -4.80585e-22)
(0.0116429 2.59218e-05 -4.21585e-22)
(0.0114688 2.58256e-05 -8.14215e-22)
(0.0112964 2.55318e-05 0)
(0.011127 2.50808e-05 2.15429e-23)
(0.0109615 2.44729e-05 -1.41169e-24)
(0.0108008 2.37763e-05 -2.03657e-23)
(0.0106454 2.29491e-05 0)
(0.0104961 2.20891e-05 2.82839e-22)
(0.0103529 2.11459e-05 8.25439e-24)
(0.0102165 2.01925e-05 -3.97432e-22)
(0.0100866 1.91971e-05 0)
(0.00996378 1.81874e-05 1.22202e-22)
(0.00984791 1.71858e-05 7.4416e-24)
(0.00973893 1.61809e-05 1.11171e-22)
(0.00963683 1.5183e-05 -1.18278e-22)
(0.00954154 1.41887e-05 0)
(0.00945305 1.32031e-05 0)
(0.00937137 1.22454e-05 1.22224e-22)
(0.00929644 1.13459e-05 3.96138e-24)
(0.00922771 1.04879e-05 6.04003e-23)
(0.00916494 9.65681e-06 -6.23179e-23)
(0.00910803 8.84397e-06 -7.33196e-23)
(0.00905692 8.06522e-06 0)
(0.00901154 7.28861e-06 0)
(0.00897173 6.52976e-06 -2.51238e-24)
(0.00893742 5.78754e-06 -7.98462e-23)
(0.00890851 5.04833e-06 4.45898e-23)
(0.00888491 4.32444e-06 -1.38521e-24)
(0.00886677 3.59919e-06 0)
(0.00885403 2.87212e-06 -2.58384e-23)
(0.00884675 2.14654e-06 1.39529e-23)
(0.0088449 1.41036e-06 -6.90506e-24)
(0.00884859 6.6654e-07 9.06036e-25)
(0.00885781 -9.28208e-08 -7.60147e-24)
(0.00887265 -8.76121e-07 -4.77879e-23)
(0.0088932 -1.6823e-06 -3.54775e-23)
(0.00891971 -2.50646e-06 7.18657e-23)
(0.00895238 -3.30916e-06 -7.28208e-23)
(0.00899062 -4.0818e-06 1.56769e-22)
(0.00903433 -4.8566e-06 1.48386e-22)
(0.00908343 -5.61827e-06 5.04565e-24)
(0.00913768 -6.36826e-06 -5.45369e-24)
(0.00919683 -7.10443e-06 -1.66587e-22)
(0.00926053 -7.811e-06 -1.73765e-23)
(0.00932866 -8.49975e-06 1.17109e-23)
(0.00940081 -9.15493e-06 1.97206e-22)
(0.00947675 -9.76644e-06 -2.03668e-22)
(0.00955606 -1.03606e-05 -2.10028e-22)
(0.00963829 -1.09026e-05 0)
(0.00972297 -1.14107e-05 4.45088e-22)
(0.0098098 -1.18749e-05 4.57296e-22)
(0.00989837 -1.23055e-05 -4.69182e-22)
(0.00998816 -1.26965e-05 3.04491e-23)
(0.0100789 -1.30583e-05 4.30696e-22)
(0.0101702 -1.33953e-05 1.03745e-21)
(0.0102619 -1.37061e-05 3.24871e-23)
(0.0103537 -1.4012e-05 -5.56432e-22)
(0.0104457 -1.43091e-05 -1.06783e-21)
(0.0105379 -1.46253e-05 0)
(0.0106305 -1.49395e-05 1.03459e-21)
(0.0107233 -1.52975e-05 6.94056e-23)
(0.0108169 -1.5649e-05 7.16648e-23)
(0.0109111 -1.61031e-05 -7.13398e-23)
(0.011007 -1.65235e-05 -1.16457e-21)
(0.0111042 -1.70365e-05 0)
(0.011204 -1.75591e-05 0)
(0.011306 -1.81221e-05 0)
(0.0114112 -1.87237e-05 3.7818e-23)
(0.0115197 -1.93061e-05 2.39963e-21)
(0.0116315 -1.98845e-05 -2.42543e-21)
(0.0117467 -2.04046e-05 -1.88972e-23)
(0.0118645 -2.07811e-05 -2.42761e-21)
(0.0119841 -2.10153e-05 2.96112e-25)
(0.0121036 -2.09659e-05 1.20536e-21)
(0.0122204 -2.07086e-05 2.39597e-21)
(0.0123345 -2.03187e-05 0)
(0.0124443 -1.94509e-05 -3.52473e-21)
(0.0125481 -1.86044e-05 0)
(0.0126474 -1.71015e-05 0)
(0.0127358 -1.5277e-05 0)
(0.0128205 -1.36375e-05 -5.48326e-22)
(0.0129113 -1.28263e-05 0)
(0.0153446 -1.00546e-05 -1.22187e-26)
(0.0153657 -7.85541e-06 -4.62425e-22)
(0.0154103 -3.4923e-06 8.94139e-22)
(0.0154236 8.41642e-07 8.7673e-22)
(0.0154302 4.9277e-06 1.64826e-21)
(0.0154106 9.45932e-06 1.59362e-21)
(0.015368 1.36782e-05 1.15954e-23)
(0.0153019 1.80443e-05 -1.45494e-21)
(0.0152092 2.20234e-05 -1.38034e-21)
(0.0150961 2.56175e-05 0)
(0.0149632 2.87967e-05 1.23506e-21)
(0.0148145 3.14974e-05 -1.16079e-21)
(0.0146527 3.37551e-05 1.07866e-21)
(0.0144808 3.55451e-05 0)
(0.0143016 3.68991e-05 0)
(0.0141176 3.78188e-05 9.65222e-26)
(0.0139309 3.83504e-05 2.46463e-23)
(0.0137435 3.85137e-05 -2.47301e-23)
(0.0135573 3.83493e-05 -7.97509e-26)
(0.0133737 3.79007e-05 0)
(0.0131941 3.7219e-05 -6.3818e-22)
(0.0130192 3.63161e-05 1.87847e-23)
(0.01285 3.52697e-05 5.45511e-22)
(0.012687 3.40479e-05 1.56429e-23)
(0.012531 3.27574e-05 -3.0572e-23)
(0.0123818 3.13567e-05 1.49261e-23)
(0.0122402 2.99243e-05 2.23219e-22)
(0.0121059 2.84357e-05 0)
(0.0119795 2.69224e-05 6.66072e-24)
(0.0118608 2.54135e-05 0)
(0.0117497 2.38999e-05 2.03455e-22)
(0.0116462 2.2394e-05 6.30882e-24)
(0.0115502 2.08947e-05 -6.35393e-24)
(0.0114616 1.94098e-05 -2.12077e-22)
(0.0113802 1.79649e-05 -9.80936e-23)
(0.011306 1.65904e-05 0)
(0.0112388 1.52648e-05 1.10125e-22)
(0.0111785 1.39771e-05 0)
(0.0111248 1.27165e-05 3.76473e-24)
(0.0110778 1.15005e-05 -3.77363e-24)
(0.0110373 1.02912e-05 -2.0527e-24)
(0.0110033 9.1067e-06 -6.52072e-23)
(0.0109756 7.94465e-06 7.27822e-23)
(0.0109541 6.78758e-06 -3.92778e-23)
(0.0109389 5.65204e-06 0)
(0.0109299 4.51562e-06 -4.08811e-23)
(0.0109271 3.37854e-06 6.88054e-25)
(0.0109306 2.24344e-06 -6.90946e-25)
(0.0109403 1.09702e-06 2.37505e-23)
(0.0109563 -6.03051e-08 1.35951e-24)
(0.0109785 -1.23817e-06 -1.98959e-25)
(0.011007 -2.44555e-06 2.83346e-23)
(0.0110419 -3.67892e-06 -2.78041e-23)
(0.011083 -4.92668e-06 -6.39872e-23)
(0.0111304 -6.14585e-06 6.08553e-23)
(0.0111838 -7.33031e-06 -6.17046e-23)
(0.0112431 -8.51013e-06 -1.37099e-22)
(0.0113081 -9.66766e-06 1.42804e-22)
(0.0113786 -1.08023e-05 0)
(0.0114542 -1.1912e-05 4.73032e-22)
(0.0115344 -1.29734e-05 -3.30316e-22)
(0.0116191 -1.40016e-05 1.05652e-23)
(0.0117078 -1.49759e-05 -1.05904e-23)
(0.0118001 -1.58835e-05 1.12953e-23)
(0.0118956 -1.67546e-05 1.06688e-21)
(0.0119936 -1.75493e-05 2.33017e-23)
(0.0120937 -1.82873e-05 -3.65321e-22)
(0.0121955 -1.8957e-05 -2.47198e-23)
(0.0122985 -1.95738e-05 5.83023e-26)
(0.0124021 -2.01299e-05 8.46357e-22)
(0.0125059 -2.06393e-05 0)
(0.0126096 -2.11092e-05 -5.62608e-23)
(0.0127129 -2.15406e-05 1.13582e-22)
(0.0128156 -2.19597e-05 8.71081e-22)
(0.0129175 -2.23662e-05 1.89485e-21)
(0.0130188 -2.27896e-05 -1.93153e-21)
(0.0131196 -2.3216e-05 9.83289e-22)
(0.0132198 -2.36894e-05 0)
(0.0133197 -2.4165e-05 2.03208e-21)
(0.0134193 -2.47534e-05 -6.49674e-23)
(0.0135196 -2.53144e-05 -2.09083e-21)
(0.0136203 -2.59728e-05 -9.79637e-25)
(0.0137224 -2.66459e-05 6.63565e-23)
(0.0138258 -2.73566e-05 0)
(0.013931 -2.80962e-05 0)
(0.0140385 -2.87986e-05 -8.81654e-26)
(0.0141477 -2.9467e-05 2.20102e-21)
(0.0142588 -3.00402e-05 2.22476e-21)
(0.0143711 -3.04208e-05 2.18389e-21)
(0.014484 -3.05578e-05 8.32798e-24)
(0.0145952 -3.02798e-05 -2.19863e-21)
(0.0147019 -2.96759e-05 -4.37292e-21)
(0.0148039 -2.88323e-05 0)
(0.0149002 -2.73987e-05 2.14679e-21)
(0.0149886 -2.58544e-05 1.64809e-23)
(0.0150717 -2.35653e-05 2.07005e-21)
(0.0151437 -2.08391e-05 0)
(0.0152126 -1.82313e-05 1.50207e-21)
(0.0152869 -1.64254e-05 1.91141e-24)
(0.017422 -1.17152e-05 2.13404e-22)
(0.0174212 -7.84054e-06 0)
(0.0174442 -2.24997e-06 0)
(0.0174376 3.69287e-06 -1.5245e-21)
(0.0174233 9.20828e-06 -1.48441e-21)
(0.0173828 1.52042e-05 2.8157e-21)
(0.0173168 2.0909e-05 -2.67824e-21)
(0.0172276 2.66077e-05 -1.2742e-21)
(0.0171126 3.1865e-05 1.20404e-21)
(0.0169779 3.65754e-05 -4.2819e-24)
(0.0168246 4.07338e-05 4.2792e-24)
(0.0166565 4.42501e-05 2.96823e-21)
(0.0164765 4.71577e-05 -8.99115e-22)
(0.0162876 4.94422e-05 -1.4e-23)
(0.016093 5.11426e-05 0)
(0.0158948 5.22713e-05 -7.47638e-22)
(0.0156955 5.2881e-05 0)
(0.0154969 5.30057e-05 0)
(0.0153008 5.26964e-05 -6.00022e-22)
(0.0151087 5.20105e-05 0)
(0.0149217 5.10096e-05 -9.72462e-26)
(0.0147407 4.97209e-05 -1.47287e-23)
(0.0145664 4.82285e-05 -4.41796e-22)
(0.0143994 4.65176e-05 0)
(0.0142404 4.46965e-05 0)
(0.0140892 4.27407e-05 1.18484e-23)
(0.0139465 4.07283e-05 -1.18745e-23)
(0.013812 3.86479e-05 0)
(0.0136862 3.65329e-05 0)
(0.0135689 3.44182e-05 -5.29553e-24)
(0.01346 3.22994e-05 -1.63295e-22)
(0.0133594 3.01912e-05 1.67853e-22)
(0.0132671 2.80965e-05 0)
(0.0131827 2.60232e-05 1.7553e-22)
(0.0131062 2.39947e-05 -5.37135e-24)
(0.0130373 2.20461e-05 0)
(0.0129763 2.01586e-05 -9.11849e-23)
(0.0129229 1.83211e-05 -1.88603e-22)
(0.012877 1.65206e-05 9.79239e-23)
(0.0128385 1.47746e-05 0)
(0.0128073 1.30421e-05 3.40585e-24)
(0.0127833 1.13419e-05 5.24241e-23)
(0.0127664 9.67044e-06 -1.87408e-24)
(0.0127566 8.00722e-06 1.87995e-24)
(0.0127537 6.37216e-06 0)
(0.0127579 4.73838e-06 -3.40383e-23)
(0.0127689 3.10702e-06 -3.69706e-23)
(0.012787 1.47849e-06 -1.7094e-23)
(0.0128118 -1.62436e-07 -1.08342e-23)
(0.0128437 -1.81569e-06 -2.45304e-24)
(0.0128824 -3.48966e-06 -1.07775e-23)
(0.0129279 -5.19294e-06 4.44812e-23)
(0.0129801 -6.91799e-06 4.96744e-23)
(0.0130388 -8.65812e-06 -3.22643e-24)
(0.0131037 -1.03657e-05 3.23371e-24)
(0.0131751 -1.20268e-05 0)
(0.0132524 -1.36713e-05 0)
(0.0133356 -1.52806e-05 -1.2042e-22)
(0.0134243 -1.68512e-05 -7.99355e-24)
(0.013518 -1.83809e-05 -2.53118e-22)
(0.0136164 -1.9839e-05 2.71405e-22)
(0.013719 -2.12433e-05 0)
(0.0138254 -2.25685e-05 -2.73533e-22)
(0.013935 -2.38003e-05 -1.85912e-23)
(0.0140473 -2.49695e-05 -6.85448e-26)
(0.0141618 -2.60353e-05 2.05058e-23)
(0.0142779 -2.70165e-05 6.46203e-22)
(0.014395 -2.79015e-05 0)
(0.0145127 -2.87107e-05 7.07313e-22)
(0.0146303 -2.9435e-05 -2.13554e-21)
(0.0147474 -3.00923e-05 -9.33504e-23)
(0.0148637 -3.06927e-05 -7.18946e-22)
(0.0149788 -3.12408e-05 -1.57036e-21)
(0.0150924 -3.17664e-05 0)
(0.0152044 -3.2274e-05 -3.28793e-21)
(0.0153149 -3.27919e-05 1.67935e-21)
(0.015424 -3.33176e-05 -1.71356e-21)
(0.0155313 -3.38867e-05 0)
(0.0156374 -3.44683e-05 -1.77784e-21)
(0.015742 -3.51612e-05 0)
(0.0158462 -3.58367e-05 1.77756e-21)
(0.0159495 -3.66003e-05 -3.66531e-21)
(0.0160529 -3.7379e-05 3.77151e-21)
(0.016156 -3.818e-05 0)
(0.0162595 -3.89855e-05 3.88505e-21)
(0.0163633 -3.97241e-05 -1.97432e-21)
(0.0164671 -4.03795e-05 -3.07136e-23)
(0.0165704 -4.08792e-05 -1.93667e-21)
(0.0166724 -4.1097e-05 3.94571e-21)
(0.0167717 -4.09539e-05 0)
(0.0168672 -4.02969e-05 0)
(0.0169562 -3.91914e-05 1.95937e-21)
(0.0170389 -3.77215e-05 1.51772e-23)
(0.0171143 -3.55644e-05 -1.50875e-23)
(0.0171805 -3.31303e-05 -1.90534e-21)
(0.0172405 -2.99076e-05 -1.86945e-21)
(0.0172892 -2.61092e-05 -7.24374e-24)
(0.0173349 -2.23257e-05 -1.80109e-21)
(0.0173857 -1.92949e-05 -1.716e-24)
(0.0191794 -1.22331e-05 0)
(0.0191528 -6.44335e-06 0)
(0.0191475 4.64715e-07 -2.755e-24)
(0.0191142 8.13391e-06 1.33088e-21)
(0.019072 1.51957e-05 2.54116e-21)
(0.0190038 2.27037e-05 -2.41784e-21)
(0.01891 2.99116e-05 -4.46493e-25)
(0.0187942 3.69338e-05 4.33063e-21)
(0.0186545 4.34556e-05 0)
(0.0184968 4.9251e-05 3.63164e-24)
(0.0183224 5.43477e-05 3.17714e-24)
(0.0181353 5.86319e-05 -1.69866e-21)
(0.0179381 6.21333e-05 1.56666e-21)
(0.0177339 6.48458e-05 8.02545e-25)
(0.0175256 6.68167e-05 3.13359e-23)
(0.0173157 6.80745e-05 -2.0343e-23)
(0.0171063 6.86793e-05 -1.14619e-21)
(0.0168992 6.86813e-05 -1.09726e-21)
(0.0166962 6.81423e-05 1.98985e-21)
(0.0164986 6.7134e-05 1.5117e-23)
(0.0163074 6.57285e-05 4.07949e-22)
(0.0161234 6.39699e-05 2.62624e-23)
(0.0159474 6.19467e-05 0)
(0.0157796 5.9665e-05 -1.0882e-23)
(0.0156209 5.72303e-05 1.08993e-23)
(0.0154709 5.46392e-05 -9.85716e-24)
(0.0153303 5.19662e-05 9.87666e-24)
(0.0151988 4.92156e-05 -2.88919e-22)
(0.0150767 4.64216e-05 9.19632e-24)
(0.0149639 4.36242e-05 -2.92767e-22)
(0.0148602 4.08251e-05 8.83078e-24)
(0.0147656 3.80406e-05 0)
(0.0146798 3.5279e-05 0)
(0.0146028 3.25516e-05 0)
(0.0145342 2.98817e-05 0)
(0.0144741 2.72933e-05 -1.42954e-22)
(0.0144225 2.47674e-05 -4.68978e-24)
(0.014379 2.23032e-05 3.17136e-22)
(0.0143437 1.98863e-05 -8.42484e-23)
(0.0143165 1.7533e-05 -1.70451e-22)
(0.0142971 1.52015e-05 -8.9123e-23)
(0.0142855 1.29098e-05 0)
(0.0142817 1.06536e-05 -9.80766e-23)
(0.0142855 8.41047e-06 0)
(0.0142968 6.20263e-06 0)
(0.0143156 3.99984e-06 -9.05536e-25)
(0.0143419 1.80229e-06 3.00232e-23)
(0.0143757 -3.91482e-07 1.47251e-24)
(0.0144169 -2.59448e-06 1.61418e-23)
(0.0144654 -4.80808e-06 1.23489e-24)
(0.0145212 -7.03861e-06 -1.40581e-25)
(0.0145841 -9.29147e-06 -3.99261e-23)
(0.0146539 -1.15534e-05 2.53855e-24)
(0.0147304 -1.38147e-05 8.38467e-23)
(0.0148135 -1.60405e-05 2.84795e-24)
(0.014903 -1.82173e-05 -5.83509e-24)
(0.0149985 -2.03601e-05 2.98719e-24)
(0.0150999 -2.24507e-05 6.49371e-24)
(0.0152065 -2.44819e-05 -6.511e-24)
(0.015318 -2.64512e-05 0)
(0.015434 -2.83217e-05 7.32411e-24)
(0.0155538 -3.01124e-05 4.86096e-22)
(0.015677 -3.17943e-05 4.96782e-22)
(0.015803 -3.3353e-05 -1.58083e-23)
(0.0159313 -3.48175e-05 -5.32486e-22)
(0.0160611 -3.61488e-05 0)
(0.016192 -3.73637e-05 5.68401e-22)
(0.0163233 -3.8452e-05 0)
(0.0164545 -3.94384e-05 1.24663e-21)
(0.016585 -4.03135e-05 1.20543e-21)
(0.0167143 -4.10986e-05 -1.27854e-21)
(0.0168421 -4.18074e-05 4.15305e-23)
(0.0169679 -4.24483e-05 -8.40363e-23)
(0.0170915 -4.3053e-05 4.26536e-23)
(0.0172127 -4.36314e-05 -1.413e-21)
(0.0173315 -4.42085e-05 -2.89019e-21)
(0.0174479 -4.47967e-05 0)
(0.0175616 -4.5421e-05 -3.10527e-21)
(0.0176731 -4.6068e-05 9.49626e-23)
(0.017782 -4.6812e-05 -3.11983e-21)
(0.0178893 -4.7547e-05 3.1704e-21)
(0.0179944 -4.83478e-05 6.43772e-21)
(0.018098 -4.91569e-05 -3.3152e-21)
(0.0181999 -4.99608e-05 5.13015e-23)
(0.0183002 -5.07318e-05 -3.39514e-21)
(0.018399 -5.13948e-05 3.42713e-21)
(0.0184956 -5.1908e-05 2.66859e-23)
(0.0185894 -5.21885e-05 -2.66237e-23)
(0.0186793 -5.21082e-05 -3.44178e-21)
(0.0187636 -5.15604e-05 -3.43313e-21)
(0.0188418 -5.03945e-05 0)
(0.0189119 -4.86461e-05 1.33692e-23)
(0.0189738 -4.6398e-05 -1.33095e-23)
(0.0190269 -4.33782e-05 -3.37593e-21)
(0.0190695 -3.98947e-05 1.67058e-21)
(0.0191047 -3.56063e-05 1.64656e-21)
(0.0191279 -3.05863e-05 -3.13582e-24)
(0.0191471 -2.54509e-05 1.58529e-21)
(0.0191701 -2.1e-05 0)
(0.0206099 -1.1385e-05 -4.8611e-27)
(0.0205573 -3.59877e-06 4.80481e-27)
(0.0205225 4.66304e-06 -4.5822e-24)
(0.0204609 1.40695e-05 4.5342e-24)
(0.0203896 2.27009e-05 -2.17217e-21)
(0.0202939 3.17549e-05 -2.06194e-21)
(0.0201752 4.04925e-05 -4.75363e-25)
(0.0200364 4.88069e-05 7.47197e-24)
(0.0198761 5.65464e-05 -7.36342e-24)
(0.0197 6.33764e-05 4.08569e-25)
(0.0195095 6.93548e-05 1.5213e-21)
(0.0193084 7.43518e-05 1.07421e-23)
(0.0190993 7.83938e-05 -1.32577e-21)
(0.0188851 8.148e-05 1.2229e-21)
(0.0186686 8.36622e-05 0)
(0.0184522 8.49865e-05 1.60058e-23)
(0.0182379 8.55222e-05 9.69147e-22)
(0.0180274 8.53363e-05 9.14211e-22)
(0.0178222 8.45015e-05 -8.23522e-22)
(0.0176238 8.31037e-05 -4.9459e-23)
(0.0174329 8.1225e-05 2.38602e-23)
(0.0172503 7.89272e-05 0)
(0.0170766 7.63019e-05 6.65068e-22)
(0.0169121 7.33783e-05 -1.96076e-23)
(0.0167574 7.02567e-05 5.75687e-22)
(0.0166123 6.69567e-05 -8.37781e-24)
(0.0164772 6.35479e-05 1.64562e-23)
(0.0163519 6.00519e-05 -7.52803e-22)
(0.0162366 5.65031e-05 -2.46729e-22)
(0.0161312 5.29465e-05 2.34378e-22)
(0.0160355 4.93902e-05 7.5279e-24)
(0.0159494 4.58523e-05 7.44617e-24)
(0.0158727 4.23452e-05 -2.46654e-22)
(0.0158051 3.88807e-05 3.80778e-24)
(0.0157467 3.54819e-05 -3.82217e-24)