/*--------------------------------*- C++ -*----------------------------------*\
| =========                 |                                                 |
| \\      /  F ield         | OpenFOAM: The Open Source CFD Toolbox           |
|  \\    /   O peration     | Version:  2006                                  |
|   \\  /    A nd           | Website:  www.openfoam.com                      |
|    \\/     M anipulation  |                                                 |
\*---------------------------------------------------------------------------*/
FoamFile
{
    version     2.0;
    format      ascii;
    class       volScalarField;
    location    "20000";
    object      yPlus;
}
// * * * * * * * * * * * * * * * * * * * * * * * * * * * * * * * * * * * * * //

dimensions      [0 0 0 0 0 0 0];


internalField   uniform 0;

boundaryField
{
    bottomWall
    {
        type            calculated;
        value           nonuniform List<scalar> 
99
(
0.406273
0.437556
0.420202
0.311117
0.0602685
0.242015
0.231762
0.217726
0.207343
0.1967
0.190389
0.185648
0.181585
0.178453
0.176467
0.175589
0.175903
0.177602
0.179977
0.182858
0.186867
0.191418
0.195861
0.199979
0.203879
0.2084
0.22166
0.23431
0.239696
0.243238
0.244378
0.244358
0.242859
0.240352
0.236703
0.232172
0.226714
0.220482
0.213472
0.205775
0.1974
0.188394
0.178755
0.168493
0.157575
0.145952
0.133526
0.120128
0.105467
0.0889982
0.0695126
0.0432179
0.0310999
0.0605555
0.0789182
0.0930006
0.104532
0.114293
0.122688
0.130004
0.136375
0.14198
0.146818
0.151063
0.154608
0.157665
0.159948
0.161835
0.16262
0.163153
0.161473
0.159345
0.148974
0.141463
0.147107
0.155201
0.166351
0.179306
0.194581
0.213031
0.235189
0.259453
0.284499
0.309832
0.332947
0.353578
0.3743
0.398316
0.426455
0.46658
0.517181
0.569474
0.620401
0.658017
0.654514
0.585488
0.492496
0.414611
0.379903
)
;
    }
    defaultFaces
    {
        type            empty;
    }
    inlet
    {
        type            cyclic;
    }
    outlet
    {
        type            cyclic;
    }
    topWall
    {
        type            calculated;
        value           nonuniform List<scalar> 
99
(
0.78399
0.787256
0.791794
0.793522
0.795152
0.795065
0.793936
0.791665
0.788126
0.783672
0.77822
0.771982
0.76502
0.757453
0.7494
0.740969
0.732271
0.723391
0.714427
0.705463
0.696556
0.687773
0.679153
0.670742
0.662583
0.65468
0.647079
0.63976
0.632774
0.626101
0.619751
0.613728
0.608032
0.602668
0.597621
0.59289
0.588464
0.58432
0.580454
0.576878
0.573595
0.570566
0.567785
0.565244
0.562935
0.560886
0.559094
0.557561
0.55629
0.555289
0.554564
0.554121
0.553968
0.554118
0.554567
0.555302
0.556327
0.557642
0.559246
0.561112
0.563228
0.565603
0.568218
0.571099
0.574231
0.577578
0.581118
0.584859
0.588785
0.592862
0.597082
0.601436
0.605912
0.610507
0.61521
0.620057
0.625045
0.630182
0.635475
0.640912
0.646532
0.652338
0.658415
0.664707
0.671288
0.678176
0.685365
0.692891
0.700681
0.708726
0.716973
0.725235
0.733646
0.741902
0.750001
0.758003
0.765242
0.771349
0.778723
)
;
    }
}


// ************************************************************************* //
