/*--------------------------------*- C++ -*----------------------------------*\
| =========                 |                                                 |
| \\      /  F ield         | OpenFOAM: The Open Source CFD Toolbox           |
|  \\    /   O peration     | Version:  2.4.0                                 |
|   \\  /    A nd           | Web:      www.OpenFOAM.org                      |
|    \\/     M anipulation  |                                                 |
\*---------------------------------------------------------------------------*/
FoamFile
{
    version     2.0;
    format      ascii;
    class       volScalarField;
    location    "400";
    object      p;
}
// * * * * * * * * * * * * * * * * * * * * * * * * * * * * * * * * * * * * * //

dimensions      [0 2 -2 0 0 0 0];

internalField   nonuniform List<scalar> 
19475
(
-0.11700862
-0.063117586
-0.074559013
-0.06112969
-0.067924126
-0.056552824
-0.052175394
-0.036755908
-0.027429958
-0.017747948
-0.01392153
-0.009572953
-0.0081955028
-0.0062050631
-0.0055699367
-0.0043956969
-0.0039095143
-0.003095951
-0.0026467008
-0.002050401
-0.0016853905
-0.0012785044
-0.0010431911
-0.00081148572
-0.0006814714
-0.00056215827
-0.00050933633
-0.00046760603
-0.00046893657
-0.00047779319
-0.00051049818
-0.00054207575
-0.00057897124
-0.00060128412
-0.00060807908
-0.0005816946
-0.00052350645
-0.0004352499
-0.00031726353
-0.00017158936
0.10873211
0.10982983
0.11091354
0.11198331
0.11303972
0.11408284
0.11511319
0.11613021
0.11713456
0.1181257
0.11910457
0.12007071
0.1210253
0.12196761
0.12289878
0.12381757
0.12472543
0.12562071
0.12650536
0.12737719
0.1282387
0.12908677
0.12992469
0.1307485
0.13156267
0.13236199
0.13315246
0.13392723
0.13469464
0.13544597
0.13619236
0.13692161
0.13764822
0.13835581
0.13906344
0.13974939
0.14043901
0.14110425
0.14177825
0.14242428
0.14308522
0.14371404
0.14436613
0.14498137
0.1456304
0.1462331
0.14687761
0.14748805
0.14815486
0.14880264
0.14950071
0.15018895
0.15092097
0.15165001
0.15241748
0.15318729
0.15399143
0.15480068
0.15563751
0.15647446
0.15732367
0.15815987
0.15897474
0.15974671
0.16046142
0.16109606
0.16163045
0.16203983
0.16230194
0.16239211
0.16228737
0.1619773
0.16144117
0.16069825
0.15975898
0.15862026
0.15727322
0.15572484
0.15387482
0.15165134
0.14917155
0.14633174
0.14310311
0.13934395
0.13500503
0.12983047
0.12363929
0.11587532
0.10680369
0.095606463
0.08284739
0.067024462
0.049412719
0.027415332
0.0035010552
-0.02633806
-0.057309082
-0.096365917
-0.13347562
-0.17559848
-0.19891184
-0.21940914
-0.21726241
-0.22106798
-0.20187441
-0.20094613
-0.17323814
-0.17760478
-0.11701277
-0.063121227
-0.074560883
-0.06112942
-0.067918416
-0.056555663
-0.052179678
-0.03677877
-0.027452128
-0.017772548
-0.013938664
-0.0095888828
-0.0082046883
-0.006213665
-0.0055753192
-0.0044014952
-0.003913619
-0.0031004808
-0.0026502838
-0.0020540204
-0.001688231
-0.0012810756
-0.0010450122
-0.00081298714
-0.00068249446
-0.00056292425
-0.00050976758
-0.00046784526
-0.00046894597
-0.00047767361
-0.00051024807
-0.00054178146
-0.00057866154
-0.00060104763
-0.00060797664
-0.00058182582
-0.00052386532
-0.00043582977
-0.0003180695
-0.00017257838
0.1087316
0.1098293
0.11091301
0.11198277
0.11303918
0.1140823
0.11511264
0.11612966
0.11713401
0.11812514
0.11910401
0.12007015
0.12102474
0.12196704
0.12289821
0.12381699
0.12472485
0.12562013
0.12650478
0.12737661
0.12823812
0.12908619
0.12992411
0.13074792
0.13156209
0.13236142
0.13315189
0.13392665
0.13469408
0.13544541
0.1361918
0.13692106
0.13764767
0.13835526
0.1390629
0.13974886
0.14043849
0.14110373
0.14177775
0.14242379
0.14308474
0.14371357
0.14436568
0.14498093
0.14562997
0.14623279
0.14687762
0.14748842
0.14815557
0.14880371
0.14950215
0.15019075
0.15092314
0.15165254
0.15242039
0.15319055
0.15399506
0.15480462
0.15564175
0.15647892
0.15732831
0.15816447
0.15897927
0.15975091
0.16046523
0.16109922
0.16163285
0.16204125
0.16230223
0.16239109
0.16228494
0.16197337
0.16143579
0.16069158
0.15975101
0.15861095
0.1572626
0.15571285
0.15386012
0.15163426
0.14915214
0.14630965
0.14307766
0.13931454
0.13497041
0.1297892
0.12358832
0.11581495
0.10673141
0.095523233
0.082749184
0.066913644
0.049283746
0.027272679
0.0033384745
-0.026506695
-0.057490156
-0.096534929
-0.13362932
-0.17568985
-0.19895343
-0.21940774
-0.21725004
-0.22104912
-0.20186199
-0.2009377
-0.17323402
-0.17760584
-0.11701742
-0.063124866
-0.074563344
-0.061128293
-0.06791204
-0.056558177
-0.052183993
-0.036802608
-0.027475517
-0.017798648
-0.013957179
-0.0096060353
-0.0082147577
-0.0062229737
-0.005581197
-0.0044077496
-0.0039180913
-0.0031053721
-0.0026541827
-0.0020579421
-0.0016913265
-0.0012838708
-0.0010470042
-0.00081462464
-0.00068361797
-0.00056376311
-0.00051024504
-0.00046811245
-0.00046896285
-0.00047754798
-0.00050997769
-0.00054146075
-0.00057832111
-0.00060078341
-0.0006078562
-0.00058195736
-0.00052424382
-0.00043644822
-0.0003189358
-0.00017363099
0.10873103
0.10982873
0.11091243
0.11198219
0.11303859
0.1140817
0.11511204
0.11612906
0.1171334
0.11812453
0.1191034
0.12006953
0.12102412
0.12196642
0.12289758
0.12381637
0.12472423
0.1256195
0.12650415
0.12737598
0.12823749
0.12908555
0.12992347
0.13074728
0.13156146
0.13236078
0.13315126
0.13392603
0.13469346
0.13544479
0.13619119
0.13692045
0.13764707
0.13835467
0.13906231
0.13974828
0.14043792
0.14110317
0.1417772
0.14242325
0.14308422
0.14371307
0.1443652
0.14498046
0.14562951
0.14623245
0.14687763
0.14748881
0.14815633
0.14880484
0.14950368
0.15019266
0.15092546
0.15165524
0.15242351
0.15319404
0.15399895
0.15480885
0.15564632
0.15648373
0.15733332
0.15816943
0.15898415
0.15975543
0.16046932
0.16110261
0.16163542
0.16204274
0.1623025
0.16238993
0.16228227
0.16196907
0.16142992
0.16068432
0.15974234
0.15860084
0.15725106
0.15569991
0.15384404
0.1516155
0.14913081
0.14628536
0.1430497
0.13928222
0.13493238
0.12974383
0.12353235
0.11574866
0.1066521
0.095431913
0.082641472
0.066792006
0.049142386
0.027116092
0.0031605721
-0.026690332
-0.057685919
-0.096716587
-0.13379324
-0.175786
-0.19899565
-0.21940395
-0.2172346
-0.22102823
-0.20184781
-0.2009287
-0.17322888
-0.17760767
-0.11702196
-0.063128208
-0.074565687
-0.061126527
-0.067905428
-0.056560697
-0.052188433
-0.036825961
-0.02749836
-0.017824122
-0.013975491
-0.0096229366
-0.0082248546
-0.0062322076
-0.0055870783
-0.0044139424
-0.0039225672
-0.0031102272
-0.002658083
-0.0020618491
-0.0016944264
-0.0012866623
-0.0010490058
-0.00081626578
-0.00068475204
-0.00056460823
-0.00051073148
-0.00046838883
-0.00046898906
-0.00047743113
-0.00050971403
-0.00054114652
-0.00057798575
-0.00060052284
-0.00060773913
-0.00058209102
-0.00052462391
-0.00043706807
-0.0003198069
-0.00017467283
0.10873046
0.10982815
0.11091185
0.11198161
0.113038
0.11408111
0.11511145
0.11612846
0.1171328
0.11812393
0.11910279
0.12006892
0.1210235
0.1219658
0.12289696
0.12381574
0.1247236
0.12561887
0.12650352
0.12737534
0.12823686
0.12908492
0.12992284
0.13074665
0.13156083
0.13236015
0.13315064
0.13392541
0.13469284
0.13544418
0.13619058
0.13691984
0.13764647
0.13835407
0.13906173
0.1397477
0.14043736
0.14110262
0.14177666
0.14242272
0.14308371
0.14371256
0.14436472
0.14498
0.14562905
0.14623212
0.14687763
0.14748919
0.14815708
0.14880596
0.14950519
0.15019455
0.15092775
0.15165791
0.15242659
0.1531975
0.15400281
0.15481306
0.15565087
0.15648854
0.15733834
0.15817438
0.15898905
0.15975995
0.16047344
0.16110601
0.16163801
0.16204425
0.16230278
0.16238878
0.16227961
0.16196479
0.16142408
0.16067709
0.15973371
0.15859078
0.15723954
0.15568709
0.15382781
0.15159646
0.14910912
0.14626069
0.1430213
0.13924936
0.13489375
0.12969772
0.12347557
0.11568139
0.10657171
0.095339299
0.082532307
0.06666856
0.048999268
0.026957363
0.0029809045
-0.02687445
-0.05788007
-0.096895099
-0.13395238
-0.17587703
-0.19903337
-0.21939663
-0.21721692
-0.22100679
-0.2018336
-0.20091979
-0.17322377
-0.17760983
-0.11702649
-0.063131427
-0.074567766
-0.061124298
-0.067898293
-0.056563365
-0.052193179
-0.036849891
-0.027521526
-0.017849958
-0.013994213
-0.0096401971
-0.0082352904
-0.0062416918
-0.0055931565
-0.0044203007
-0.0039271985
-0.0031152242
-0.0026621185
-0.0020658802
-0.0016976362
-0.0012895473
-0.0010510832
-0.00081796646
-0.00068593298
-0.00056548789
-0.00051124154
-0.00046868209
-0.00046902381
-0.00047731801
-0.00050944784
-0.00054082843
-0.00057764533
-0.0006002593
-0.0006076243
-0.00058223491
-0.00052502249
-0.00043771498
-0.00032071694
-0.00017575002
0.10872988
0.10982756
0.11091126
0.11198101
0.1130374
0.11408051
0.11511084
0.11612785
0.11713218
0.11812331
0.11910217
0.1200683
0.12102287
0.12196517
0.12289633
0.1238151
0.12472296
0.12561823
0.12650288
0.12737469
0.12823621
0.12908427
0.12992219
0.13074599
0.13156018
0.13235951
0.13314999
0.13392477
0.13469221
0.13544355
0.13618996
0.13691922
0.13764586
0.13835346
0.13906114
0.13974711
0.14043678
0.14110205
0.14177611
0.14242217
0.14308318
0.14371205
0.14436423
0.14497952
0.14562858
0.14623177
0.14687763
0.14748958
0.14815785
0.14880711
0.14950675
0.15019649
0.1509301
0.15166066
0.15242975
0.15320106
0.15400678
0.15481741
0.15565559
0.15649351
0.15734356
0.15817952
0.15899416
0.15976465
0.16047774
0.16110954
0.16164072
0.16204583
0.16230308
0.16238762
0.16227687
0.1619604
0.16141807
0.16066966
0.15972482
0.15858041
0.15722765
0.15567392
0.15381091
0.15157654
0.14908642
0.14623486
0.14299156
0.13921496
0.13485329
0.12964942
0.12341614
0.11561102
0.10648765
0.095242491
0.082418259
0.066539588
0.048849938
0.026791732
0.0027941657
-0.027064576
-0.058078682
-0.097075602
-0.13411094
-0.17596406
-0.19906609
-0.21938411
-0.21719564
-0.22098332
-0.20181868
-0.20091039
-0.17321864
-0.17761205
-0.11703095
-0.063134505
-0.074569552
-0.061121594
-0.067890522
-0.056565995
-0.052198132
-0.036874424
-0.027545027
-0.017876193
-0.014013366
-0.0096578564
-0.0082460754
-0.0062514506
-0.0055994445
-0.0044268438
-0.0039319965
-0.0031203777
-0.0026662983
-0.0020700461
-0.0017009635
-0.0012925333
-0.001053241
-0.00081973046
-0.00068716273
-0.0005664036
-0.00051177548
-0.00046899166
-0.00046906602
-0.00047720711
-0.00050917758
-0.00054050467
-0.00057729825
-0.0005999914
-0.00060751063
-0.00058238864
-0.00052544011
-0.00043839023
-0.00032166803
-0.00017686933
0.10872928
0.10982696
0.11091065
0.1119804
0.11303679
0.11407989
0.11511021
0.11612722
0.11713154
0.11812267
0.11910153
0.12006765
0.12102223
0.12196452
0.12289567
0.12381444
0.1247223
0.12561756
0.12650221
0.12737402
0.12823554
0.12908359
0.12992152
0.13074532
0.13155951
0.13235884
0.13314933
0.13392411
0.13469156
0.1354429
0.13618931
0.13691858
0.13764523
0.13835284
0.13906052
0.1397465
0.14043619
0.14110146
0.14177553
0.14242161
0.14308264
0.14371151
0.14436372
0.14497902
0.1456281
0.1462314
0.14687762
0.14748997
0.14815863
0.14880829
0.14950834
0.15019848
0.15093252
0.15166348
0.15243301
0.15320473
0.15401089
0.15482191
0.15566047
0.15649868
0.15734898
0.15818484
0.15899946
0.15976952
0.16048221
0.16111322
0.16164354
0.16204749
0.16230342
0.16238643
0.16227406
0.16195587
0.16141187
0.16066198
0.15971564
0.15856969
0.15721534
0.15566034
0.15379331
0.15155574
0.14906269
0.14620785
0.14296047
0.13917898
0.134811
0.12959892
0.12335406
0.11553751
0.10639995
0.095141474
0.08229936
0.066405137
0.048694569
0.026619511
0.0026006896
-0.027260319
-0.0582813
-0.097257103
-0.13426728
-0.17604473
-0.19909133
-0.21936439
-0.21716935
-0.22095676
-0.2018025
-0.20090019
-0.17321338
-0.1776142
-0.11703533
-0.063137391
-0.074570996
-0.061118398
-0.067882007
-0.056568397
-0.052203191
-0.036899543
-0.027568825
-0.017902794
-0.014032907
-0.009675905
-0.0082571873
-0.0062614786
-0.0056059369
-0.0044335728
-0.0039369584
-0.0031256884
-0.0026706203
-0.002074346
-0.0017044071
-0.0012956191
-0.0010554778
-0.00082155666
-0.00068843984
-0.00056735416
-0.00051233205
-0.00046931613
-0.0004691145
-0.00047709732
-0.00050890251
-0.00054017448
-0.00057694407
-0.00059971879
-0.00060739777
-0.00058255186
-0.00052587663
-0.00043909392
-0.00032265997
-0.00017803454
0.10872867
0.10982633
0.11091002
0.11197977
0.11303615
0.11407926
0.11510956
0.11612657
0.11713089
0.11812202
0.11910087
0.12006699
0.12102156
0.12196384
0.122895
0.12381376
0.12472163
0.12561688
0.12650153
0.12737333
0.12823486
0.1290829
0.12992083
0.13074462
0.13155882
0.13235815
0.13314865
0.13392343
0.13469089
0.13544224
0.13618865
0.13691792
0.13764458
0.13835219
0.13905989
0.13974588
0.14043558
0.14110086
0.14177494
0.14242103
0.14308208
0.14371097
0.1443632
0.14497851
0.14562759
0.14623101
0.14687761
0.14749037
0.14815942
0.1488095
0.14950997
0.15020053
0.150935
0.15166639
0.15243636
0.15320852
0.15401513
0.15482655
0.15566551
0.15650401
0.15735459
0.15819035
0.15900496
0.15977457
0.16048684
0.16111703
0.16164648
0.16204921
0.16230378
0.16238521
0.16227117
0.16195121
0.16140548
0.16065406
0.15970617
0.15855863
0.15720263
0.15564634
0.15377505
0.15153412
0.14903799
0.14617975
0.14292811
0.13914152
0.13476697
0.12954633
0.12328947
0.11546108
0.1063088
0.095036584
0.082175948
0.066265702
0.048533701
0.026441456
0.0024013816
-0.027460722
-0.058486713
-0.097438189
-0.13441921
-0.1761162
-0.19910632
-0.21933529
-0.21713652
-0.22092603
-0.20178448
-0.20088892
-0.17320786
-0.17761612
-0.11703954
-0.063140064
-0.074572033
-0.061114694
-0.067872609
-0.056570362
-0.052208235
-0.036925249
-0.027592914
-0.017929746
-0.014052803
-0.0096943387
-0.0082686093
-0.0062717776
-0.0056126304
-0.0044404912
-0.0039420846
-0.0031311597
-0.0026750848
-0.0020787817
-0.0017079671
-0.001298806
-0.0010577936
-0.00082344522
-0.0006897635
-0.000568339
-0.0005129103
-0.00046965432
-0.00046916806
-0.00047698738
-0.00050862168
-0.00053983687
-0.00057658206
-0.00059944094
-0.00060728531
-0.00058272446
-0.00052633232
-0.00043982662
-0.00032369351
-0.0001792499
0.10872804
0.10982569
0.11090937
0.11197913
0.1130355
0.11407861
0.1151089
0.11612591
0.11713022
0.11812135
0.11910019
0.12006631
0.12102088
0.12196316
0.12289431
0.12381306
0.12472093
0.12561618
0.12650083
0.12737262
0.12823415
0.12908218
0.12992012
0.13074391
0.13155812
0.13235744
0.13314795
0.13392273
0.1346902
0.13544155
0.13618797
0.13691724
0.13764391
0.13835153
0.13905924
0.13974524
0.14043495
0.14110023
0.14177433
0.14242043
0.1430815
0.1437104
0.14436266
0.14497799
0.14562708
0.14623061
0.14687758
0.14749076
0.14816023
0.14881073
0.14951165
0.15020264
0.15093756
0.15166938
0.15243982
0.15321243
0.15401951
0.15483135
0.15567072
0.15650953
0.15736039
0.15819605
0.15901065
0.15977978
0.16049164
0.16112098
0.16164951
0.162051
0.16230415
0.16238396
0.16226819
0.1619464
0.16139889
0.16064589
0.15969639
0.15854721
0.1571895
0.15563187
0.15375615
0.15151172
0.14901238
0.14615061
0.14289454
0.13910265
0.13472126
0.12949174
0.12322249
0.11538184
0.10621441
0.094927997
0.082048372
0.066121684
0.048367793
0.026258279
0.0021970998
-0.027664884
-0.058693914
-0.097617253
-0.13456461
-0.17617561
-0.19910814
-0.2192944
-0.21709544
-0.22088989
-0.20176396
-0.2008762
-0.17320194
-0.17761766
-0.11704352
-0.06314249
-0.07457259
-0.061110433
-0.067862165
-0.056571649
-0.052213116
-0.036951539
-0.027617312
-0.01795704
-0.014073023
-0.0097131582
-0.0082803265
-0.0062823499
-0.0056195229
-0.0044476053
-0.0039473755
-0.0031367967
-0.0026796929
-0.002083356
-0.0017116448
-0.0013020957
-0.001060189
-0.00082539675
-0.00069113335
-0.00056935781
-0.00051350945
-0.00047000512
-0.00046922551
-0.00047687602
-0.00050833401
-0.00053949074
-0.00057621134
-0.00059915718
-0.00060717278
-0.0005829063
-0.00052680758
-0.00044058933
-0.00032476955
-0.00018051974
0.10872739
0.10982503
0.11090871
0.11197846
0.11303483
0.11407794
0.11510822
0.11612522
0.11712953
0.11812066
0.11909949
0.12006561
0.12102017
0.12196245
0.1228936
0.12381235
0.12472021
0.12561545
0.1265001
0.12737189
0.12823342
0.12908145
0.12991939
0.13074317
0.13155739
0.13235671
0.13314723
0.13392201
0.13468949
0.13544084
0.13618727
0.13691655
0.13764322
0.13835084
0.13905856
0.13974457
0.1404343
0.14109959
0.14177371
0.14241981
0.1430809
0.14370982
0.1443621
0.14497744
0.14562654
0.14623018
0.14687754
0.14749116
0.14816105
0.148812
0.14951337
0.15020481
0.15094019
0.15167247
0.15244339
0.15321645
0.15402403
0.1548363
0.1556761
0.15651522
0.15736638
0.15820193
0.15901652
0.15978517
0.16049659
0.16112506
0.16165265
0.16205285
0.16230454
0.16238266
0.16226511
0.16194144
0.16139209
0.16063746
0.1596863
0.15853542
0.15717593
0.15561691
0.15373662
0.15148856
0.1489859
0.14612044
0.1428598
0.13906241
0.13467395
0.12943524
0.1231532
0.11529995
0.10611693
0.094815973
0.081916887
0.065973428
0.048197384
0.026070644
0.0019886258
-0.027871858
-0.058901858
-0.097792838
-0.13470119
-0.17622
-0.19909373
-0.21923911
-0.21704422
-0.22084693
-0.20174015
-0.20086162
-0.17319546
-0.17761861
-0.11704721
-0.063144657
-0.074572577
-0.061105548
-0.067850481
-0.05657196
-0.052217644
-0.036978394
-0.027642059
-0.01798466
-0.014093532
-0.0097323616
-0.008292323
-0.006293197
-0.0056266121
-0.0044549198
-0.0039528321
-0.0031426032
-0.0026844458
-0.0020880719
-0.0017154417
-0.00130549
-0.0010626646
-0.0008274119
-0.00069254924
-0.00057041035
-0.00051412884
-0.00047036758
-0.00046928576
-0.00047676205
-0.00050803851
-0.00053913504
-0.00057583109
-0.0005988669
-0.00060705976
-0.00058309737
-0.00052730288
-0.00044138325
-0.0003258893
-0.00018184818
0.10872671
0.10982435
0.11090802
0.11197777
0.11303414
0.11407724
0.11510751
0.11612452
0.11712882
0.11811994
0.11909877
0.12006489
0.12101945
0.12196171
0.12289286
0.1238116
0.12471947
0.12561471
0.12649936
0.12737114
0.12823267
0.12908069
0.12991864
0.13074241
0.13155663
0.13235595
0.13314648
0.13392127
0.13468876
0.13544011
0.13618655
0.13691583
0.13764251
0.13835014
0.13905787
0.13974389
0.14043363
0.14109894
0.14177306
0.14241918
0.14308029
0.14370922
0.14436153
0.14497689
0.14562598
0.14622973
0.14687749
0.14749156
0.14816189
0.14881329
0.14951514
0.15020704
0.1509429
0.15167565
0.15244707
0.15322061
0.15402869
0.15484141
0.15568165
0.1565211
0.15737255
0.15820801
0.15902258
0.15979074
0.1605017
0.16112926
0.16165588
0.16205475
0.16230493
0.16238132
0.16226192
0.16193631
0.16138507
0.16062875
0.15967586
0.15852322
0.1571619
0.1556014
0.15371645
0.15146469
0.14895857
0.14608931
0.14282393
0.13902086
0.1346251
0.12937689
0.12308172
0.1152155
0.10601653
0.094700714
0.081781796
0.065821376
0.048022876
0.025879221
0.0017768693
-0.028080747
-0.05910939
-0.097963305
-0.13482673
-0.1762463
-0.19905983
-0.21916661
-0.2169808
-0.22079558
-0.20171217
-0.20084468
-0.17318821
-0.17761879
-0.11705051
-0.063146553
-0.074571906
-0.061099946
-0.067837339
-0.056570951
-0.052221571
-0.037005762
-0.027667221
-0.018012595
-0.014114295
-0.0097519436
-0.0083045821
-0.0063043198
-0.0056338947
-0.0044624387
-0.0039584541
-0.0031485835
-0.0026893448
-0.0020929321
-0.0017193592
-0.001308991
-0.0010652213
-0.00082949167
-0.00069401108
-0.0005714963
-0.000514768
-0.0004707409
-0.00046934789
-0.00047664438
-0.00050773425
-0.00053876881
-0.00057544051
-0.00059856952
-0.00060694593
-0.00058329777
-0.00052781895
-0.00044220975
-0.00032705435
-0.00018323944
0.10872602
0.10982364
0.11090731
0.11197706
0.11303342
0.11407652
0.11510678
0.11612379
0.11712808
0.11811921
0.11909803
0.12006414
0.1210187
0.12196096
0.1228921
0.12381084
0.12471871
0.12561393
0.12649858
0.12737036
0.12823189
0.12907991
0.12991786
0.13074163
0.13155586
0.13235518
0.13314571
0.1339205
0.13468801
0.13543936
0.13618581
0.13691508
0.13764178
0.13834941
0.13905716
0.13974319
0.14043294
0.14109826
0.1417724
0.14241853
0.14307966
0.1437086
0.14436093
0.14497631
0.14562541
0.14622925
0.14687743
0.14749195
0.14816274
0.14881461
0.14951695
0.15020933
0.1509457
0.15167893
0.15245087
0.1532249
0.1540335
0.15484669
0.15568738
0.15652716
0.15737892
0.15821427
0.15902882
0.15979647
0.16050696
0.16113359
0.1616592
0.16205669
0.16230531
0.16237991
0.16225862
0.161931
0.1613778
0.16061974
0.15966507
0.1585106
0.1571474
0.1555853
0.15369565
0.15144011
0.14893043
0.14605724
0.14278697
0.13897803
0.13457472
0.12931675
0.1230081
0.11512863
0.10591336
0.094582423
0.081643359
0.065665842
0.047844817
0.025684663
0.0015626855
-0.028290542
-0.059315353
-0.09812712
-0.13493889
-0.17625141
-0.19900312
-0.21907393
-0.216903
-0.22073412
-0.20167899
-0.20082479
-0.17317994
-0.17761793
-0.11705338
-0.063148176
-0.074570483
-0.06109351
-0.067822489
-0.056568196
-0.052224582
-0.037033545
-0.02769287
-0.018040828
-0.014135271
-0.0097718958
-0.0083170873
-0.0063157177
-0.0056413672
-0.0044701658
-0.0039642416
-0.0031547415
-0.0026943915
-0.0020979397
-0.0017233992
-0.0013126012
-0.0010678603
-0.00083163725
-0.00069551918
-0.00057261556
-0.00051542665
-0.00047112449
-0.00046941111
-0.00047652212
-0.00050742045
-0.00053839121
-0.0005750389
-0.00059826459
-0.00060683106
-0.00058350769
-0.00052835671
-0.00044307067
-0.00032826668
-0.00018469797
0.10872529
0.10982291
0.11090657
0.11197632
0.11303267
0.11407577
0.11510602
0.11612302
0.11712731
0.11811844
0.11909726
0.12006336
0.12101791
0.12196017
0.12289131
0.12381004
0.12471791
0.12561313
0.12649778
0.12736955
0.12823109
0.1290791
0.12991705
0.13074081
0.13155505
0.13235437
0.13314491
0.13391971
0.13468722
0.13543858
0.13618504
0.13691431
0.13764102
0.13834866
0.13905642
0.13974246
0.14043223
0.14109756
0.14177172
0.14241785
0.14307901
0.14370796
0.14436033
0.14497572
0.14562482
0.14622875
0.14687735
0.14749235
0.1481636
0.14881597
0.14951881
0.15021169
0.15094857
0.15168231
0.15245479
0.15322933
0.15403846
0.15485212
0.15569328
0.15653341
0.15738548
0.15822072
0.15903524
0.15980237
0.16051236
0.16113803
0.1616626
0.16205867
0.16230567
0.16237843
0.16225517
0.16192548
0.16137026
0.1606104
0.15965389
0.15849753
0.15713238
0.15556855
0.15367418
0.15141483
0.14890149
0.14602424
0.14274892
0.13893394
0.13452287
0.12925487
0.12293241
0.11503943
0.10580755
0.094461297
0.081501805
0.065507206
0.047663586
0.025487686
0.0013468882
-0.028500198
-0.059518626
-0.098282657
-0.13503544
-0.17623228
-0.1989202
-0.21895804
-0.21680846
-0.22066066
-0.20163942
-0.20080125
-0.17317031
-0.17761575
-0.11705563
-0.063149526
-0.074568209
-0.061086089
-0.067805646
-0.056563183
-0.052226284
-0.037061597
-0.027719047
-0.018069352
-0.014156423
-0.0097922075
-0.0083298202
-0.006327389
-0.005649026
-0.0044781037
-0.0039701947
-0.0031610807
-0.0026995878
-0.002103098
-0.0017275638
-0.0013163229
-0.0010705832
-0.00083385009
-0.00069707406
-0.0005737689
-0.00051610475
-0.00047151799
-0.00046947484
-0.00047639453
-0.00050709642
-0.00053800154
-0.0005746257
-0.00059795179
-0.00060671508
-0.00058372759
-0.00052891724
-0.00044396816
-0.00032952882
-0.00018622846
0.10872452
0.10982213
0.11090579
0.11197554
0.11303189
0.11407498
0.11510522
0.11612222
0.1171265
0.11811763
0.11909644
0.12006255
0.12101709
0.12195934
0.12289049
0.12380921
0.12471708
0.12561229
0.12649694
0.1273687
0.12823025
0.12907825
0.12991621
0.13073997
0.13155421
0.13235353
0.13314408
0.13391888
0.13468641
0.13543777
0.13618423
0.13691352
0.13764023
0.13834788
0.13905566
0.13974171
0.1404315
0.14109683
0.14177101
0.14241716
0.14307834
0.14370731
0.1443597
0.14497511
0.14562421
0.14622822
0.14687726
0.14749274
0.14816448
0.14881735
0.14952072
0.15021411
0.15095153
0.15168579
0.15245882
0.15323389
0.15404357
0.15485773
0.15569936
0.15653984
0.15739221
0.15822736
0.15904183
0.15980843
0.16051789
0.16114257
0.16166605
0.16206065
0.16230599
0.16237683
0.16225155
0.16191972
0.16136242
0.1606007
0.15964228
0.15848396
0.15711681
0.15555106
0.15365201
0.15138888
0.14887175
0.14599033
0.14270982
0.13888862
0.13446956
0.12919127
0.12285469
0.11494794
0.10569921
0.094337454
0.081357398
0.065345769
0.047479623
0.025288849
0.0011303646
-0.028708785
-0.059718006
-0.098428422
-0.13511415
-0.17618596
-0.19880776
-0.21881584
-0.21669471
-0.22057312
-0.20159213
-0.20077323
-0.1731589
-0.17761192
-0.11705714
-0.063150598
-0.074564985
-0.061077513
-0.067786475
-0.056555299
-0.052226183
-0.037089714
-0.027745797
-0.018098171
-0.014177707
-0.0098128641
-0.0083427636
-0.0063393301
-0.005656867
-0.004486255
-0.0039763129
-0.0031676049
-0.0027049357
-0.0021084103
-0.0017318556
-0.0013201592
-0.0010733919
-0.00083613197
-0.00069867661
-0.00057495794
-0.00051680255
-0.00047192127
-0.00046953871
-0.00047626106
-0.00050676167
-0.00053759922
-0.00057420046
-0.00059763088
-0.00060659803
-0.00058395805
-0.00052950198
-0.00044490465
-0.00033084393
-0.00018783609
0.1087237
0.1098213
0.11090495
0.1119747
0.11303104
0.11407414
0.11510436
0.11612137
0.11712564
0.11811677
0.11909558
0.12006168
0.12101623
0.12195847
0.12288961
0.12380833
0.1247162
0.12561141
0.12649606
0.12736781
0.12822936
0.12907736
0.12991532
0.13073907
0.13155333
0.13235265
0.13314321
0.13391801
0.13468555
0.13543692
0.1361834
0.13691268
0.13763941
0.13834706
0.13905486
0.13974093
0.14043073
0.14109608
0.14177027
0.14241644
0.14307764
0.14370663
0.14435906
0.14497449
0.14562358
0.14622767
0.14687716
0.14749313
0.14816537
0.14881876
0.14952267
0.15021659
0.15095457
0.15168937
0.15246297
0.15323859
0.15404884
0.15486349
0.15570561
0.15654644
0.15739912
0.15823418
0.15904858
0.15981463
0.16052352
0.16114718
0.16166952
0.16206261
0.16230621
0.16237509
0.16224771
0.16191368
0.16135423
0.16059059
0.15963019
0.15846983
0.15710062
0.15553275
0.15362907
0.15136221
0.14884122
0.14595549
0.14266963
0.13884205
0.13441477
0.12912595
0.12277495
0.11485423
0.10558839
0.094211052
0.08121028
0.065181799
0.047293304
0.025088727
0.00091392634
-0.028915315
-0.059912416
-0.098562979
-0.13517308
-0.17610977
-0.19866265
-0.21864436
-0.21655914
-0.22046929
-0.20153558
-0.20073982
-0.17314515
-0.177606
-0.11705769
-0.063151362
-0.0745607
-0.061067571
-0.06776457
-0.056543806
-0.052223687
-0.037117611
-0.027773183
-0.0181273
-0.014199084
-0.0098338481
-0.0083558983
-0.0063515365
-0.0056648858
-0.0044946209
-0.0039825962
-0.0031743175
-0.0027104377
-0.0021138803
-0.0017362771
-0.001324113
-0.0010762889
-0.00083848494
-0.00070032807
-0.00057618327
-0.00051752049
-0.00047233444
-0.00046960255
-0.00047612134
-0.00050641584
-0.00053718386
-0.00057376287
-0.00059730178
-0.00060648015
-0.00058419984
-0.00053011257
-0.00044588308
-0.00033221569
-0.00018952637
0.1087228
0.10982039
0.11090404
0.11197379
0.11303013
0.11407323
0.11510344
0.11612044
0.11712471
0.11811584
0.11909465
0.12006075
0.12101529
0.12195753
0.12288867
0.12380738
0.12471526
0.12561046
0.12649511
0.12736686
0.12822841
0.12907641
0.12991438
0.13073813
0.13155239
0.13235171
0.13314229
0.13391709
0.13468465
0.13543603
0.13618251
0.1369118
0.13763855
0.13834621
0.13905403
0.1397401
0.14042993
0.14109529
0.14176951
0.14241569
0.14307693
0.14370594
0.1443584
0.14497385
0.14562294
0.1462271
0.14687704
0.14749352
0.14816628
0.1488202
0.14952467
0.15021914
0.1509577
0.15169305
0.15246724
0.15324341
0.15405424
0.1548694
0.15571201
0.15655321
0.15740619
0.15824114
0.15905546
0.15982094
0.16052923
0.16115183
0.16167298
0.16206449
0.16230631
0.16237314
0.16224359
0.16190728
0.16134563
0.16057999
0.15961756
0.15845508
0.15708374
0.15551348
0.15360528
0.15133481
0.14880985
0.14591969
0.14262834
0.13879419
0.13435848
0.12905887
0.12269317
0.11475828
0.10547515
0.09408213
0.0810606
0.065015506
0.047104937
0.024887877
0.00069830133
-0.029118879
-0.060100864
-0.098685148
-0.13521049
-0.17600141
-0.19848205
-0.21844077
-0.21639903
-0.22034679
-0.20146806
-0.20069985
-0.17312838
-0.17759751
-0.11705706
-0.063151756
-0.074555233
-0.06105603
-0.067739434
-0.056527867
-0.052218085
-0.037144918
-0.027801253
-0.018156771
-0.014220509
-0.0098551396
-0.0083692047
-0.0063640022
-0.0056730773
-0.0045032024
-0.0039890443
-0.0031812219
-0.0027160965
-0.0021195116
-0.0017408318
-0.001328188
-0.0010792766
-0.0008409115
-0.0007020299
-0.00057744575
-0.00051825932
-0.00047275782
-0.00046966639
-0.00047597521
-0.00050605872
-0.00053675518
-0.00057331274
-0.00059696454
-0.0006063618
-0.00058445393
-0.00053075097
-0.00044690663
-0.00033364849
-0.00019130541
0.1087218
0.10981938
0.11090303
0.11197278
0.11302912
0.11407221
0.11510242
0.11611942
0.11712369
0.11811481
0.11909362
0.12005972
0.12101426
0.1219565
0.12288764
0.12380635
0.12471423
0.12560943
0.12649409
0.12736583
0.12822739
0.12907538
0.12991336
0.13073711
0.13155138
0.1323507
0.13314129
0.13391611
0.13468368
0.13543507
0.13618157
0.13691087
0.13763763
0.1383453
0.13905314
0.13973924
0.14042909
0.14109447
0.14176871
0.14241492
0.14307618
0.14370522
0.14435772
0.1449732
0.14562229
0.14622651
0.14687692
0.14749391
0.1481672
0.14882167
0.14952671
0.15022175
0.1509609
0.15169682
0.15247162
0.15324836
0.15405977
0.15487545
0.15571856
0.15656011
0.15741339
0.15824824
0.15906243
0.15982733
0.16053497
0.16115647
0.16167637
0.16206625
0.16230619
0.16237091
0.16223912
0.16190045
0.16133652
0.16056882
0.15960428
0.1584396
0.15706607
0.15549311
0.1535805
0.15130661
0.1487776
0.14588288
0.14258588
0.13874499
0.1343006
0.12898997
0.12260929
0.11466007
0.10535943
0.093950715
0.080908431
0.06484705
0.0469148
0.024686715
0.00048411756
-0.029318709
-0.060282488
-0.098793894
-0.13522502
-0.17585899
-0.19826363
-0.21820253
-0.21621161
-0.22020315
-0.20138762
-0.20065202
-0.17310772
-0.17758583
-0.11705494
-0.063151667
-0.074548435
-0.061042607
-0.067710453
-0.056506533
-0.05220856
-0.037171164
-0.027830025
-0.01818664
-0.014241939
-0.0098767137
-0.0083826629
-0.0063767185
-0.0056814364
-0.0045119997
-0.0039956566
-0.0031883211
-0.002721915
-0.0021253086
-0.0017455232
-0.001332388
-0.0010823582
-0.00084341433
-0.00070378403
-0.00057874674
-0.00051902002
-0.00047319201
-0.00046973049
-0.00047582267
-0.00050569025
-0.00053631304
-0.00057285
-0.00059661931
-0.00060624344
-0.00058472146
-0.00053141934
-0.00044797898
-0.00033514735
-0.00019317973
0.10872066
0.10981823
0.11090188
0.11197163
0.11302797
0.11407107
0.11510127
0.11611827
0.11712253
0.11811366
0.11909247
0.12005857
0.12101312
0.12195535
0.1228865
0.1238052
0.12471309
0.12560829
0.12649295
0.12736469
0.12822626
0.12907425
0.12991224
0.13073599
0.13155028
0.13234961
0.13314021
0.13391504
0.13468263
0.13543403
0.13618054
0.13690985
0.13763664
0.13834433
0.1390522
0.13973831
0.14042819
0.1410936