/*--------------------------------*- C++ -*----------------------------------*\
| =========                 |                                                 |
| \\      /  F ield         | OpenFOAM: The Open Source CFD Toolbox           |
|  \\    /   O peration     | Version:  2.4.0                                 |
|   \\  /    A nd           | Web:      www.OpenFOAM.org                      |
|    \\/     M anipulation  |                                                 |
\*---------------------------------------------------------------------------*/
FoamFile
{
    version     2.0;
    format      ascii;
    class       volVectorField;
    location    "400";
    object      U;
}
// * * * * * * * * * * * * * * * * * * * * * * * * * * * * * * * * * * * * * //

dimensions      [0 1 -1 0 0 0 0];

internalField   nonuniform List<vector> 
19475
(
(0.0053469155 2.2850299e-05 1.2964378e-21)
(0.0039158531 1.9635809e-05 -1.2626173e-21)
(0.0066883658 -4.2432745e-05 1.0787311e-21)
(0.0052400975 -0.00016114213 -2.9504385e-20)
(0.0058219924 -0.00039456226 -8.3965658e-21)
(0.0033163594 -0.00038860838 1.6242949e-20)
(0.0021336169 -0.00038694005 9.4888686e-21)
(-0.00063131781 0.00015245116 -3.3391694e-20)
(-0.0015674861 0.00051402832 -1.2239781e-20)
(-0.0023246022 0.00097997085 1.375e-20)
(-0.0019166744 0.00096657993 8.447413e-21)
(-0.0016930431 0.00097800288 -2.1571752e-20)
(-0.0012516686 0.00079954565 3.3689179e-21)
(-0.0011008492 0.00076204916 -1.5564907e-20)
(-0.00089879105 0.00066097974 1.1688693e-20)
(-0.00084337162 0.00065098013 -1.646725e-20)
(-0.00074002233 0.00059226704 -5.1095905e-21)
(-0.00071329362 0.00058741829 2.3197663e-21)
(-0.00065136524 0.00054715425 -8.3186258e-21)
(-0.00062370121 0.00053098966 5.7595511e-21)
(-0.0005762418 0.00049364469 7.1820897e-21)
(-0.00054849742 0.00046998589 -5.69675e-21)
(-0.0005123054 0.00043607279 -2.0058638e-21)
(-0.00049583216 0.00041736379 8.641234e-22)
(-0.00047810036 0.00039781911 2.0269301e-21)
(-0.00047139513 0.00038805981 4.6215767e-22)
(-0.00046548956 0.00037933212 5.9204237e-22)
(-0.0004681504 0.00037796259 -1.9335933e-21)
(-0.00047345516 0.00037896232 -1.6098769e-21)
(-0.00048633337 0.00038624824 -1.0892046e-21)
(-0.00050330939 0.00039693118 1.1699973e-21)
(-0.00052719148 0.00041320383 2.5124252e-21)
(-0.00055579656 0.00043330063 9.7651003e-22)
(-0.00059044953 0.00045826585 1.3410684e-21)
(-0.00062890192 0.00048636048 -1.4731168e-21)
(-0.00067035505 0.00051705099 9.8129612e-22)
(-0.00070986274 0.00054584905 -1.5598015e-21)
(-0.00074840964 0.00057211678 -4.9636757e-23)
(-0.00078645006 0.00059580667 -2.1970501e-21)
(-0.00082333951 0.00061615114 3.3860918e-22)
(-0.0017322768 -3.0026363e-07 -8.3895952e-24)
(-0.0016902017 -3.0395385e-07 8.6829236e-24)
(-0.0016484268 -3.0703903e-07 8.0519084e-25)
(-0.0016070135 -3.0974324e-07 -7.9158487e-24)
(-0.0015659366 -3.1290673e-07 4.3909414e-24)
(-0.0015252601 -3.1549822e-07 -4.8358555e-24)
(-0.001484934 -3.187306e-07 7.132778e-24)
(-0.0014450441 -3.2100921e-07 -1.8254009e-24)
(-0.0014055206 -3.2370331e-07 -3.5829088e-24)
(-0.0013664819 -3.2556825e-07 1.1511699e-24)
(-0.0013278222 -3.2804717e-07 4.6493553e-24)
(-0.0012897009 -3.3006088e-07 -5.3936412e-24)
(-0.0012519564 -3.324767e-07 4.7181392e-24)
(-0.0012148048 -3.3453965e-07 -5.153132e-24)
(-0.001178012 -3.3656167e-07 2.6442047e-24)
(-0.0011418799 -3.3829227e-07 3.0205157e-24)
(-0.0011060796 -3.3983664e-07 4.9002896e-24)
(-0.0010710259 -3.4112494e-07 -5.6115662e-24)
(-0.0010362662 -3.4236833e-07 -3.8606295e-24)
(-0.0010023606 -3.4321505e-07 4.9701673e-24)
(-0.0009686865 -3.4396623e-07 -1.0582574e-23)
(-0.00093600728 -3.4390933e-07 9.8517384e-24)
(-0.00090347415 -3.4410358e-07 -5.8433073e-24)
(-0.00087212939 -3.4314419e-07 5.0910107e-24)
(-0.00084081564 -3.4279983e-07 -5.9219442e-24)
(-0.00081094 -3.4062874e-07 -4.0790565e-24)
(-0.00078094464 -3.3994958e-07 3.2300049e-24)
(-0.00075273056 -3.3675115e-07 -4.1306096e-24)
(-0.00072420253 -3.3626115e-07 1.0638698e-23)
(-0.00069790903 -3.327057e-07 -6.466471e-24)
(-0.00067103493 -3.3315838e-07 5.6647038e-24)
(-0.00064699294 -3.2879758e-07 -9.7046238e-24)
(-0.00062202615 -3.2928328e-07 9.0832079e-25)
(-0.0006006968 -3.2307339e-07 3.3632651e-24)
(-0.00057800566 -3.2327857e-07 3.7757538e-24)
(-0.00056003816 -3.1453185e-07 -1.4401628e-23)
(-0.00054017943 -3.1509837e-07 8.4039526e-17)
(-0.00052647236 -3.0415077e-07 8.4546611e-17)
(-0.00051023661 -3.0546622e-07 -4.2969238e-24)
(-0.00050197759 -2.912916e-07 -6.3961888e-24)
(-0.0004904821 -2.9302956e-07 5.5815327e-24)
(-0.0004891712 -2.7492648e-07 1.0154865e-24)
(-0.00048388947 -2.7792497e-07 -1.8465502e-24)
(-0.00049104529 -2.5755529e-07 -8.6751689e-17)
(-0.00049187108 -2.7047778e-07 -8.7264767e-17)
(-0.0005031368 -6.0012165e-06 -1.5628585e-20)
(-0.00051203129 -2.637351e-05 1.6218269e-19)
(-0.00051534597 -4.7454797e-05 7.358882e-20)
(-0.00052156381 -6.9068998e-05 -4.7719546e-19)
(-0.00051400183 -8.8566421e-05 -7.9444835e-20)
(-0.0005085199 -0.0001077121 -5.3183862e-19)
(-0.00049034119 -0.00012294034 3.5567887e-20)
(-0.00047272754 -0.00013668907 -5.5512877e-21)
(-0.00044424188 -0.00014519994 1.9724528e-19)
(-0.00041472149 -0.00015092681 -1.5510032e-19)
(-0.00037583712 -0.00015037204 5.0562799e-19)
(-0.00033442975 -0.00014562389 -3.4458871e-19)
(-0.00028448812 -0.00013356864 -9.3680607e-20)
(-0.0002304844 -0.00011572748 -1.7217328e-19)
(-0.00016775784 -8.9199792e-05 9.7865101e-19)
(-9.8799302e-05 -5.4637919e-05 2.1431085e-19)
(-1.851874e-05 -8.492973e-06 -8.3642166e-19)
(6.8769623e-05 4.6823585e-05 -9.1838474e-19)
(0.00016646767 0.0001133788 -1.4684277e-19)
(0.00027169997 0.00018911084 7.078561e-20)
(0.00038717806 0.00027559146 -9.882e-19)
(0.00051065625 0.00037085825 -6.6018107e-20)
(0.00064429975 0.0004760113 -1.7970572e-19)
(0.000785856 0.00058877902 -1.1782104e-18)
(0.0009367613 0.00070957347 1.7888247e-19)
(0.001094118 0.00083539388 9.6824228e-19)
(0.0012581011 0.00096543491 7.0215452e-19)
(0.0014224386 0.0010941247 -2.6300644e-19)
(0.0015801926 0.0012180015 -1.3027842e-19)
(0.0017342185 0.001340913 -1.2082759e-19)
(0.0018863735 0.0014646183 2.4659162e-19)
(0.0020344098 0.0015876151 8.665439e-19)
(0.0021829408 0.0017138087 -9.4179272e-19)
(0.0023070143 0.0018235101 2.5247054e-19)
(0.0024389388 0.001942695 2.6172057e-20)
(0.0025844574 0.0020765516 2.3807818e-19)
(0.0027473261 0.0022282574 1.4089059e-19)
(0.0029316468 0.0024020201 -6.6055914e-20)
(0.0031360446 0.0025974632 3.3296141e-19)
(0.0033752319 0.0028278359 -3.9820555e-20)
(0.003659489 0.0031004911 -6.9450028e-19)
(0.0040386839 0.0034439581 -1.6605676e-20)
(0.0044632401 0.0038050501 -4.5092217e-19)
(0.0049803762 0.0042183415 4.1920429e-19)
(0.0055469481 0.0046357501 3.4477525e-20)
(0.0062483658 0.0051170116 5.1025265e-20)
(0.0070165372 0.0055855372 -1.1831435e-19)
(0.0080028213 0.0061409434 7.1420777e-20)
(0.0090911181 0.006651887 4.7401373e-20)
(0.01054943 0.0072655094 -1.9012481e-20)
(0.012126516 0.007722394 1.2897433e-19)
(0.014151485 0.0081505696 -9.4927954e-20)
(0.016013982 0.0080774106 -3.4979517e-19)
(0.017941255 0.0075762003 -4.2137778e-19)
(0.018151158 0.0060448018 -8.3003421e-20)
(0.017254328 0.0043297443 1.2565415e-19)
(0.014795487 0.0026442362 -1.5769068e-19)
(0.012605356 0.0014844542 -9.6881959e-20)
(0.0092591879 0.00063419495 -2.0573911e-20)
(0.0077555805 0.00024342225 -3.0576985e-20)
(0.0047660441 3.388347e-05 -1.854512e-20)
(0.0050476622 -2.7691157e-05 -1.0650216e-20)
(0.0024296293 -1.1066443e-05 -1.8222147e-21)
(0.016184845 6.0074032e-05 1.4268984e-21)
(0.012391317 5.0930536e-05 3.6352393e-21)
(0.020236488 -0.00013553224 -3.9682394e-21)
(0.01604429 -0.00048749814 3.4668725e-20)
(0.017679293 -0.0011818207 5.0532417e-22)
(0.010341815 -0.001176713 5.9829827e-20)
(0.0067671013 -0.0011769033 -2.4971909e-20)
(-0.0014973001 0.00041602165 4.7380855e-20)
(-0.0044685637 0.0015104942 3.7021532e-20)
(-0.0068549285 0.0029198674 -3.2523243e-20)
(-0.0057147756 0.0028976594 -1.0150096e-20)
(-0.0050691795 0.0029376207 3.2676573e-21)
(-0.0037645639 0.0024102011 7.6251915e-20)
(-0.003312222 0.0022976351 1.1705695e-20)
(-0.002709519 0.001996585 -3.1836475e-20)
(-0.0025411297 0.0019655019 1.4661236e-20)
(-0.002232287 0.001790275 -8.2810207e-21)
(-0.0021505485 0.0017748341 -3.1592521e-21)
(-0.0019655673 0.0016544165 -8.675897e-21)
(-0.001882042 0.001605342 2.3966467e-21)
(-0.0017403736 0.001493399 -3.3162698e-21)
(-0.001657223 0.0014220137 2.7610249e-21)
(-0.001549344 0.0013202834 3.235657e-21)
(-0.0015000523 0.0012638333 6.8988052e-21)
(-0.0014474349 0.0012052042 -1.8336822e-21)
(-0.0014277056 0.0011758691 -2.4231741e-21)
(-0.0014106307 0.0011498626 -3.3523597e-21)
(-0.0014191488 0.0011459279 1.6310047e-21)
(-0.0014357676 0.0011492691 7.0727226e-22)
(-0.0014750301 0.0011714916 3.6033084e-21)
(-0.0015266711 0.0012040249 -5.88444e-21)
(-0.0015989432 0.0012533513 -3.6985775e-21)
(-0.0016853726 0.0013142158 -7.0719293e-22)
(-0.0017897972 0.0013896698 -1.4318368e-21)
(-0.0019054969 0.0014745051 -4.2296374e-23)
(-0.0020300723 0.0015670574 4.689457e-21)
(-0.0021488949 0.0016539516 3.6951631e-21)
(-0.0022647946 0.001733198 1.4999982e-22)
(-0.0023791422 0.001804625 2.1644952e-21)
(-0.0024900462 0.0018659145 1.6930131e-22)
(-0.0051752415 -1.2523992e-06 3.0774192e-24)
(-0.0050486113 -1.2441864e-06 -7.2451399e-24)
(-0.0049228926 -1.2354443e-06 9.0990315e-24)
(-0.0047982562 -1.2261919e-06 1.2320219e-24)
(-0.0046746284 -1.2165815e-06 -8.0941517e-24)
(-0.0045522002 -1.2068134e-06 1.4361215e-23)
(-0.0044308357 -1.1966285e-06 -1.0591897e-23)
(-0.0043107855 -1.1856342e-06 1.4076368e-24)
(-0.0041918455 -1.1745494e-06 1.9658111e-24)
(-0.0040743607 -1.1627915e-06 -1.0073057e-23)
(-0.0039580193 -1.1510841e-06 1.1235432e-23)
(-0.0038432887 -1.1386484e-06 2.2041241e-24)
(-0.0037296975 -1.1267789e-06 -5.7314601e-24)
(-0.0036178842 -1.1138534e-06 -5.8208427e-24)
(-0.0035071679 -1.1014467e-06 -1.1266233e-23)
(-0.0033984347 -1.0873817e-06 2.0500639e-23)
(-0.0032907219 -1.0742697e-06 1.4287487e-23)
(-0.0031852473 -1.0589927e-06 -3.095575e-23)
(-0.0030806836 -1.0450618e-06 3.0854262e-23)
(-0.0029786786 -1.0282501e-06 -9.1938132e-24)
(-0.0028774079 -1.0132053e-06 -1.4324486e-23)
(-0.0027791175 -9.9439351e-07 -1.1818868e-23)
(-0.0026813115 -9.7784568e-07 -4.7032689e-25)
(-0.0025870573 -9.5670824e-07 2.6759655e-23)
(-0.0024929508 -9.3870388e-07 -1.9829283e-23)
(-0.0024031363 -9.1475536e-07 1.2479558e-23)
(-0.0023130285 -8.9473963e-07 -1.9930765e-23)
(-0.0022282246 -8.6735539e-07 2.2189215e-23)
(-0.0021425488 -8.4574336e-07 -1.2265487e-23)
(-0.0020635151 -8.1470719e-07 7.3213242e-24)
(-0.0019828347 -7.9108264e-07 2.4614855e-24)
(-0.0019105818 -7.5418388e-07 -1.248085e-23)
(-0.0018356816 -7.2664299e-07 1.2984707e-23)
(-0.0017716075 -6.8107201e-07 -1.8124539e-25)
(-0.0017036107 -6.4754891e-07 5.0502882e-24)
(-0.0016496695 -5.8949713e-07 -2.360885e-23)
(-0.0015902472 -5.4755826e-07 1.596185e-23)
(-0.001549124 -4.7291892e-07 5.1116731e-24)
(-0.0015006572 -4.2004681e-07 -2.3960748e-23)
(-0.0014759275 -3.2269235e-07 2.3609115e-23)
(-0.0014417827 -2.5556527e-07 1.6361113e-23)
(-0.0014379391 -1.2887626e-07 -2.4216928e-23)
(-0.0014225335 -4.9171755e-08 1.9088914e-23)
(-0.0014441221 8.6767465e-08 -2.7083421e-23)
(-0.0014473625 9.7528167e-08 -2.8775693e-23)
(-0.0014819911 -1.683365e-05 4.0819268e-20)
(-0.0015089897 -7.7525006e-05 1.7772615e-20)
(-0.001518599 -0.00014025756 8.5948317e-21)
(-0.0015363562 -0.0002046084 5.7042954e-19)
(-0.0015130305 -0.00026260948 2.8498229e-19)
(-0.0014955621 -0.00031944261 1.3114311e-18)
(-0.0014402408 -0.00036453315 1.1592382e-18)
(-0.0013863456 -0.00040504952 -3.0140385e-19)
(-0.0012999952 -0.00042985723 -3.7502364e-19)
(-0.0012103516 -0.00044618246 8.2818638e-20)
(-0.0010927049 -0.00044365251 -2.6810893e-19)
(-0.00096735961 -0.00042842153 2.1507533e-19)
(-0.00081648884 -0.00039123919 -2.3948973e-19)
(-0.00065340033 -0.0003365866 -1.0641945e-19)
(-0.00046427204 -0.00025582381 -7.7880386e-19)
(-0.00025643171 -0.00015085714 1.8246061e-18)
(-1.4955727e-05 -1.1126472e-05 6.9281799e-19)
(0.00024738577 0.00015612694 4.5005006e-20)
(0.00054065794 0.00035709343 -4.7619883e-19)
(0.00085634699 0.00058558431 -5.5957552e-19)
(0.0012024546 0.00084629299 1.1895576e-18)
(0.0015723245 0.0011333469 -2.154126e-18)
(0.0019723697 0.001449996 4.8037122e-19)
(0.002395905 0.0017894741 -2.3824305e-19)
(0.0028471813 0.002152939 3.9028509e-19)
(0.0033177023 0.0025314687 -8.8933962e-19)
(0.0038078767 0.0029225512 -2.5287863e-19)
(0.0042991589 0.0033096528 -5.7308342e-19)
(0.0047713107 0.0036826378 3.6457003e-19)
(0.0052326551 0.004052893 -7.9030364e-19)
(0.0056884217 0.0044255859 -4.3234852e-19)
(0.0061321119 0.0047964196 -7.7490442e-19)
(0.0065759797 0.0051763036 3.865932e-20)
(0.0069430772 0.0055050388 9.3177875e-19)
(0.0073361962 0.0058633775 -3.5940243e-19)
(0.0077713818 0.0062663798 4.194112e-19)
(0.0082581939 0.0067230894 -2.6735006e-19)
(0.0088084428 0.007245888 -1.3039894e-18)
(0.0094183076 0.0078339149 2.4259579e-19)
(0.010131122 0.0085264184 1.4686855e-19)
(0.010977656 0.0093456914 1.2347225e-18)
(0.012103034 0.010374571 -2.1517974e-19)
(0.013364094 0.011457253 2.210815e-19)
(0.014898709 0.012694104 -3.7147525e-20)
(0.016582183 0.013944726 -1.319895e-19)
(0.018661697 0.015382193 -3.5647784e-19)
(0.020942715 0.016783767 4.9794601e-20)
(0.023864287 0.018437864 -6.4569028e-20)
(0.02709406 0.019962507 7.3860031e-20)
(0.031412673 0.021782613 6.6609821e-21)
(0.036097409 0.023141577 -1.5708429e-19)
(0.04208142 0.024395117 2.4315645e-19)
(0.047603004 0.024166868 9.4012475e-20)
(0.053296287 0.022649918 5.0893214e-19)
(0.05405864 0.018117016 -2.6230791e-19)
(0.051596483 0.013024614 2.6402403e-19)
(0.044554773 0.0080115687 -1.233463e-19)
(0.038141025 0.0045282452 -3.5820511e-19)
(0.028338001 0.0019694017 -9.1073409e-20)
(0.023786546 0.00077333671 8.5901195e-21)
(0.014956765 0.00012437912 2.9454089e-20)
(0.015611474 -7.0116614e-05 5.567322e-21)
(0.0081138173 -3.5325509e-05 6.6167138e-21)
(0.027431342 8.5418222e-05 1.3361095e-21)
(0.021590258 7.1295475e-05 -1.2452647e-21)
(0.034132387 -0.00024023587 -4.2485657e-22)
(0.027397999 -0.00082391515 -1.7450913e-20)
(0.029920279 -0.0019740458 5.1349008e-20)
(0.017919077 -0.0019971394 -3.9903983e-20)
(0.011848494 -0.0020070148 2.4783703e-20)
(-0.0019399166 0.00060448472 -1.0073145e-19)
(-0.0071753529 0.002458202 5.1146884e-20)
(-0.011335117 0.0048379901 1.3290498e-21)
(-0.0095460201 0.0048371261 1.426533e-20)
(-0.0084939721 0.0049144464 -1.7654449e-20)
(-0.0063338319 0.0040489176 -7.5814077e-20)
(-0.005572665 0.0038607857 2.2875141e-20)
(-0.0045666418 0.0033622802 3.4172375e-20)
(-0.0042801647 0.0033082727 -3.9179854e-21)
(-0.0037639549 0.0030173595 3.4384038e-21)
(-0.0036242164 0.0029898125 6.7365036e-21)
(-0.0033150365 0.002789295 1.8548916e-20)
(-0.0031738416 0.00270613 -9.8255283e-21)
(-0.0029370104 0.0025192402 -9.4004118e-21)
(-0.0027972373 0.0023991673 -1.57487e-21)
(-0.0026169724 0.0022292588 3.755933e-21)
(-0.0025341172 0.0021344081 -7.6327686e-21)
(-0.0024464383 0.0020365481 2.003901e-22)
(-0.0024136271 0.0019875136 -2.8889278e-21)
(-0.0023857064 0.0019444841 2.5381583e-21)
(-0.0024005524 0.0019383216 1.5474924e-21)
(-0.002429274 0.001944645 7.829288e-23)
(-0.0024958738 0.0019825582 1.7116144e-21)
(-0.0025834015 0.0020379352 -6.6772307e-22)
(-0.0027054357 0.0021214113 -6.195612e-22)
(-0.0028512507 0.002224296 -2.4961109e-21)
(-0.0030270846 0.0023515205 1.0287982e-22)
(-0.0032217317 0.0024943951 -5.7469919e-21)
(-0.0034311167 0.0026499891 -4.2200229e-21)
(-0.0036309892 0.0027961242 -8.4319726e-22)
(-0.0038258981 0.0029293509 2.233891e-22)
(-0.0040181422 0.0030493266 3.0362233e-22)
(-0.004204589 0.0031521961 -7.5364442e-22)
(-0.0086469646 -3.5551593e-06 -1.3304892e-23)
(-0.0084340443 -3.5280272e-06 6.1126779e-24)
(-0.0082226667 -3.4990906e-06 -2.5620113e-24)
(-0.0080131054 -3.4684496e-06 -4.7408281e-24)
(-0.0078052431 -3.4372231e-06 2.5944512e-24)
(-0.007599394 -3.4045133e-06 9.5996016e-24)
(-0.0073953447 -3.3714237e-06 -1.074873e-23)
(-0.0071935053 -3.3362124e-06 8.6811112e-24)
(-0.0069935448 -3.3005955e-06 3.8731892e-24)
(-0.0067960254 -3.2628072e-06 -2.670726e-24)
(-0.0066004396 -3.2249707e-06 -1.3906528e-23)
(-0.0064075504 -3.1854599e-06 1.7944576e-23)
(-0.0062165926 -3.1459992e-06 -1.9740758e-23)
(-0.0060286119 -3.1048757e-06 1.5898119e-23)
(-0.0058425023 -3.0636841e-06 -1.8355862e-23)
(-0.0056597123 -3.0203512e-06 1.6123802e-23)
(-0.0054786723 -2.9768692e-06 1.6360758e-23)
(-0.0053013743 -2.9306146e-06 -3.0369411e-23)
(-0.0051256512 -2.8846843e-06 2.2388847e-23)
(-0.0049542004 -2.8355957e-06 -2.7336028e-23)
(-0.0047840436 -2.7867611e-06 3.1717046e-23)
(-0.0046188587 -2.7334899e-06 -2.5222619e-23)
(-0.004454563 -2.6806463e-06 4.1982226e-24)
(-0.0042961823 -2.6220841e-06 2.6317486e-23)
(-0.0041381444 -2.5646562e-06 -1.5260007e-23)
(-0.0039872454 -2.4996712e-06 1.0539012e-23)
(-0.0038359732 -2.436113e-06 -2.6018398e-23)
(-0.0036935098 -2.3622547e-06 2.4386916e-23)
(-0.0035497259 -2.2913512e-06 -3.3277578e-23)
(-0.0034169618 -2.2074001e-06 2.8351073e-23)
(-0.0032816199 -2.1273075e-06 -2.6651553e-23)
(-0.003160262 -2.0282818e-06 2.043389e-23)
(-0.0030347021 -1.933598e-06 -1.8687721e-23)
(-0.0029271048 -1.8126863e-06 7.0834528e-24)
(-0.0028132316 -1.6966325e-06 1.8161684e-23)
(-0.0027226752 -1.544071e-06 -2.7346501e-23)
(-0.002623301 -1.3986749e-06 3.4741225e-23)
(-0.0025542801 -1.2033216e-06 -2.2979955e-23)
(-0.0024734137 -1.0186436e-06 1.1220528e-23)
(-0.0024319285 -7.6344905e-07 -3.2602107e-24)
(-0.0023752325 -5.2843358e-07 -6.0054426e-24)
(-0.0023688079 -1.9577199e-07 -1.6812634e-23)
(-0.002343689 8.6919902e-08 1.880175e-23)
(-0.0023799304 4.3826408e-07 2.1718476e-23)
(-0.0023865077 5.3779909e-07 -2.7805726e-23)
(-0.002445535 -2.7246924e-05 -4.1754011e-20)
(-0.0024911251 -0.00012770401 -2.7908891e-19)
(-0.0025068868 -0.00023140283 -2.6629112e-20)
(-0.0025354049 -0.00033784527 -2.2090126e-19)
(-0.0024956536 -0.00043366508 -3.9492437e-19)
(-0.0024650471 -0.00052733968 -8.5669592e-19)
(-0.0023715237 -0.00060141114 -9.8942588e-20)
(-0.0022799138 -0.00066760283 1.0794797e-18)
(-0.0021342819 -0.00070755582 -1.413734e-19)
(-0.0019828099 -0.00073310041 -1.6840285e-19)
(-0.001784638 -0.00072712268 -8.9201308e-19)
(-0.0015733501 -0.00069970471 -6.0775839e-19)
(-0.0013194343 -0.00063556361 -1.062223e-18)
(-0.0010449219 -0.0005420288 -4.6902994e-19)
(-0.00072689367 -0.00040480052 -4.7787576e-19)
(-0.00037737667 -0.00022694057 -8.3196022e-19)
(2.8234241e-05 8.932843e-06 -1.2664545e-18)
(0.00046876957 0.00029089939 -3.4652843e-20)
(0.00096093114 0.00062909606 1.7600793e-18)
(0.0014906006 0.0010133558 5.018732e-19)
(0.002071017 0.0014513247 -6.213555e-19)
(0.0026911522 0.0019333477 2.1804735e-18)
(0.0033615995 0.0024646676 -1.7360958e-19)
(0.004071292 0.003034131 2.6376626e-20)
(0.0048271962 0.0036435054 -1.1218293e-18)
(0.0056153008 0.0042780495 9.8537796e-19)
(0.0064360711 0.0049334041 -4.7762699e-19)
(0.0072587508 0.0055822814 -4.2534559e-19)
(0.0080501286 0.0062081584 -7.4749279e-19)
(0.0088238389 0.0068297144 8.3182565e-19)
(0.0095882644 0.0074554507 3.4618096e-20)
(0.010332923 0.0080785388 -1.2270799e-18)
(0.011076064 0.0087159651 4.1056447e-20)
(0.01168613 0.009263782 -1.0468973e-18)
(0.012343496 0.0098634836 -5.0369975e-19)
(0.013072968 0.010539115 -1.3884362e-18)
(0.013888813 0.011304754 1.2498105e-18)
(0.01481017 0.012180547 2.8165559e-19)
(0.015831217 0.013165517 -1.0089568e-18)
(0.017023585 0.014324176 8.5855638e-21)
(0.018439413 0.015694183 -4.9968846e-19)
(0.020315526 0.017408897 -3.7924819e-21)
(0.02241971 0.019215443 -4.2111646e-19)
(0.024976792 0.02127463 -3.1194767e-19)
(0.027785206 0.023359562 2.3733001e-19)
(0.031245904 0.025747022 4.3824465e-19)
(0.035047309 0.028079061 -4.3800581e-19)
(0.039902038 0.030816932 2.1501237e-20)
(0.045278283 0.03334622 1.3383367e-20)
(0.052445084 0.036345733 1.2785914e-20)
(0.060240342 0.038595918 1.5730476e-19)
(0.070141066 0.040633388 -8.9276791e-20)
(0.079306072 0.040241827 -3.6932522e-19)
(0.088696513 0.037686223 -4.1899498e-19)
(0.090145073 0.03023637 -2.1695747e-19)
(0.086297954 0.021828941 -5.4510041e-19)
(0.074967805 0.013539292 3.6597645e-19)
(0.064400527 0.0077080716 1.2583087e-19)
(0.048332905 0.0034165883 2.1951386e-19)
(0.040596195 0.0013701558 -8.2182543e-21)
(0.026046679 0.00024949106 1.4300386e-20)
(0.026801632 -9.5372914e-05 1.7475126e-21)
(0.014680051 -6.3175347e-05 9.152748e-21)
(0.039153044 9.8824142e-05 9.2578947e-22)
(0.031509186 8.0836166e-05 -2.1851695e-21)
(0.048364376 -0.0003577965 -6.0817269e-21)
(0.039345954 -0.001170606 -1.0503014e-20)
(0.042544127 -0.0027709993 -2.0819478e-20)
(0.026092794 -0.0028503111 -1.1821109e-20)
(0.017401792 -0.0028785598 -2.7410509e-20)
(-0.0019085745 0.00071226802 6.4008376e-20)
(-0.0096630589 0.0033519285 -1.5957676e-19)
(-0.015747906 0.0067294394 1.2103444e-20)
(-0.013406333 0.0067819729 -6.7128496e-21)
(-0.011963559 0.0069061349 2.8251249e-20)
(-0.0089601359 0.0057149013 3.8295174e-20)
(-0.0078816259 0.0054509414 -1.3714534e-20)
(-0.0064711142 0.0047581016 -1.9397319e-20)
(-0.0060604783 0.0046792805 1.2077779e-20)
(-0.0053358465 0.0042737969 2.4088533e-20)
(-0.0051345384 0.0042325529 1.7769417e-20)
(-0.0047004359 0.0039521347 -1.1328588e-20)
(-0.0044994946 0.0038336708 -1.5573194e-21)
(-0.0041668089 0.0035715866 1.2106875e-20)
(-0.0039690722 0.0034018785 1.2149605e-21)
(-0.0037159257 0.0031635282 -1.5207934e-21)
(-0.0035986951 0.0030296428 -1.4396495e-21)
(-0.003475891 0.002892471 -1.7767457e-21)
(-0.0034299269 0.0028236478 8.1290863e-21)
(-0.0033915746 0.0027639092 -2.086037e-21)
(-0.0034132307 0.0027558993 -1.0285498e-21)
(-0.003454919 0.0027659019 -3.7368324e-22)
(-0.0035498337 0.0028203055 -2.4492626e-21)
(-0.0036745308 0.0028995704 3.6082626e-21)
(-0.0038477255 0.0030183344 -2.5270086e-21)
(-0.0040545289 0.0031645304 3.8419461e-21)
(-0.0043034202 0.0033448308 -4.5281108e-22)
(-0.0045787294 0.0035470559 5.5247937e-21)
(-0.0048745881 0.0037668632 3.2683343e-21)
(-0.0051572451 0.0039733741 -4.3828403e-21)
(-0.0054328173 0.0041615689 3.6128093e-21)
(-0.0057045299 0.0043308877 -7.2640775e-22)
(-0.0059680432 0.0044759351 -3.0723469e-22)
(-0.012142861 -7.3540186e-06 -9.1987582e-24)
(-0.011841919 -7.2993834e-06 8.1949768e-24)
(-0.011543171 -7.2409989e-06 9.7560732e-29)
(-0.011246988 -7.1793408e-06 -1.5421314e-23)
(-0.010953218 -7.1155275e-06 1.3644793e-23)
(-0.01066229 -7.0490162e-06 -5.5423634e-24)
(-0.010373922 -6.9811352e-06 8.5953126e-24)
(-0.010088676 -6.909467e-06 -8.1876514e-24)
(-0.0098061027 -6.8361686e-06 6.35412e-24)
(-0.009526972 -6.7594629e-06 -2.2753967e-23)
(-0.0092505953 -6.681302e-06 3.5780073e-23)
(-0.008978015 -6.6004818e-06 -3.7869293e-23)
(-0.008708192 -6.5185576e-06 4.728134e-24)
(-0.0084425576 -6.4341975e-06 1.9883339e-23)
(-0.0081796074 -6.3478944e-06 -6.9739767e-24)
(-0.007921322 -6.2588276e-06 4.9788709e-24)
(-0.0076655623 -6.168019e-06 -2.4039817e-23)
(-0.0074150532 -6.0736958e-06 2.0229061e-23)
(-0.0071668369 -5.9774569e-06 2.0514979e-23)
(-0.006924607 -5.877495e-06 -2.4434891e-23)
(-0.0066842943 -5.7751944e-06 7.1441316e-24)
(-0.006450939 -5.6678947e-06 -5.4365888e-26)
(-0.0062189542 -5.5573023e-06 -3.9012489e-24)
(-0.0059952332 -5.4405811e-06 5.2593808e-24)
(-0.005772143 -5.3201762e-06 -7.2581515e-24)
(-0.0055590137 -5.1912738e-06 2.3510148e-23)
(-0.0053455444 -5.0572504e-06 -2.5781636e-23)
(-0.0051443508 -4.9120083e-06 3.4935113e-24)
(-0.0049415277 -4.7610456e-06 -8.7470631e-26)
(-0.0047540475 -4.5953851e-06 -2.2065243e-24)
(-0.0045632302 -4.4220862e-06 2.4180235e-23)
(-0.0043918773 -4.2273203e-06 -2.6291829e-23)
(-0.0042149803 -4.0211934e-06 2.0354344e-23)
(-0.0040630795 -3.7847133e-06 -1.7093066e-23)
(-0.0039028138 -3.5315029e-06 -9.4946771e-26)
(-0.0037749903 -3.2346201e-06 2.2866183e-23)
(-0.0036353415 -2.9165446e-06 -2.6974764e-23)
(-0.0035379238 -2.5366362e-06 2.2828911e-23)
(-0.003424567 -2.1316063e-06 -2.5276726e-23)
(-0.0033660096 -1.6356181e-06 2.3271904e-23)
(-0.0032869488 -1.1204525e-06 5.577091e-24)
(-0.0032778468 -4.739867e-07 -9.8707488e-24)
(-0.0032435241 1.4757438e-07 5.8494354e-24)
(-0.0032945704 8.247316e-07 -2.5855547e-23)
(-0.0033055309 1.0927813e-06 -3.886705e-23)
(-0.0033900026 -3.715415e-05 2.0320666e-20)
(-0.003454658 -0.00017668939 7.3710282e-20)
(-0.0034764257 -0.00032053786 9.6744442e-20)
(-0.0035147712 -0.00046827265 1.4596055e-19)
(-0.0034579286 -0.00060109267 2.5589287e-19)
(-0.0034128844 -0.000730599 4.6074589e-19)
(-0.0032800888 -0.0008326305 -6.7592698e-19)
(-0.0031492145 -0.00092324075 -6.6435627e-19)
(-0.0029428808 -0.00097705033 8.1990675e-20)
(-0.0027278042 -0.0010102883 3.4442516e-19)
(-0.0024473659 -0.0009992678 1.2176821e-19)
(-0.0021481156 -0.00095783576 2.0853957e-19)
(-0.0017890927 -0.00086480159 -7.3497497e-19)
(-0.0014008373 -0.00073021541 8.8524972e-19)
(-0.00095147262 -0.00053420682 1.7945972e-18)
(-0.00045752113 -0.00028090134 -9.0002075e-19)
(0.00011504666 5.3730059e-05 2.4001576e-18)
(0.00073685233 0.00045318875 1.0804856e-18)
(0.0014310703 0.00093143951 -9.7691331e-19)
(0.0021781459 0.0014744349 1.1046301e-18)
(0.002996379 0.0020926419 6.099567e-19)
(0.0038705206 0.0027727207 -9.6287384e-19)
(0.0048151715 0.0035217659 4.3532784e-19)
(0.0058150194 0.0043243423 1.4587539e-18)
(0.0068795804 0.0051826856 2.1779691e-18)
(0.0079894565 0.0060763569 -1.1579215e-18)
(0.0091449487 0.0069990084 1.1195747e-18)
(0.010303231 0.0079128541 -5.0797021e-22)
(0.011418517 0.0087952821 -1.5533448e-19)
(0.012509493 0.0096719829 -3.180457e-19)
(0.013587482 0.010554703 4.1497023e-19)
(0.014638377 0.011434402 8.1086817e-19)
(0.015684607 0.012333041 1.3354861e-19)
(0.016536536 0.013099547 1.2539201e-18)
(0.017460901 0.013942645 5.101204e-19)
(0.018488998 0.014894192 -6.1140019e-19)
(0.019638737 0.015972451 -4.4619201e-19)
(0.020936001 0.017204864 1.0390806e-18)
(0.022373623 0.018590769 8.4072048e-19)
(0.024050871 0.02021906 7.5055852e-19)
(0.026042378 0.022143169 4.1699456e-19)
(0.028671915 0.024542865 -1.1933809e-19)
(0.031624786 0.027074327 4.3971174e-19)
(0.035206896 0.029953032 -5.1034127e-19)
(0.039146841 0.032871796 -3.6807325e-19)
(0.043988062 0.036200768 -8.5419387e-20)
(0.049315419 0.039458597 8.2993824e-19)
(0.056095158 0.043262162 -2.6966022e-19)
(0.063619322 0.046784164 -6.8350266e-20)
(0.073612507 0.050932073 -1.0203753e-20)
(0.084517741 0.054059493 6.2327028e-20)
(0.098278211 0.056834931 -8.1666473e-20)
(0.11106858 0.056270733 3.4742499e-19)
(0.12406994 0.052655508 4.7870573e-19)
(0.12635712 0.042382855 3.4151992e-19)
(0.12131468 0.030733196 -2.4234422e-19)
(0.10603058 0.019226652 -5.254406e-19)
(0.091381441 0.011027962 -1.3102484e-19)
(0.069288629 0.0049819966 -2.3728814e-19)
(0.058207429 0.0020401168 -5.0907827e-20)
(0.038109576 0.0004125913 -1.2152768e-20)
(0.038636333 -0.00010023055 4.2132478e-22)
(0.022147396 -9.4466431e-05 -1.6653519e-20)
(0.05138062 0.00010127785 -6.4277968e-22)
(0.042192393 8.0487266e-05 3.0679202e-21)
(0.062947769 -0.00048815429 9.6366037e-21)
(0.051915867 -0.0015277121 1.1615965e-22)
(0.055566417 -0.0035735325 2.1125359e-20)
(0.034896379 -0.0037375174 6.7022662e-20)
(0.023460528 -0.0037932746 3.1920342e-21)
(-0.0013574342 0.00073683157 -4.1680697e-20)
(-0.011900645 0.0041896259 -3.104339e-21)
(-0.020074748 0.0085933537 -1.0972335e-20)
(-0.017287753 0.0087318886 -1.8462225e-20)
(-0.015473111 0.0089128561 -1.3428465e-20)
(-0.011642119 0.0074086345 -3.0523608e-20)
(-0.010238011 0.0070687533 -1.4933382e-20)
(-0.0084228496 0.0061847918 -3.5754653e-22)
(-0.0078817318 0.0060792948 1.5359209e-21)
(-0.0069480868 0.0055603787 -4.1588474e-20)
(-0.0066814304 0.0055038421 -4.3416569e-21)
(-0.0061219349 0.0051437278 3.6937016e-21)
(-0.0058591103 0.0049887492 1.2538796e-20)
(-0.0054300773 0.0046512233 7.0104416e-22)
(-0.0051730694 0.0044309273 6.7240141e-21)
(-0.0048467315 0.0041238697 -3.0967002e-21)
(-0.0046943615 0.0039503095 5.3541998e-21)
(-0.0045364921 0.0037737461 1.7692122e-21)
(-0.0044773649 0.0036850503 -7.1150562e-21)
(-0.0044290986 0.003608929 -1.1487691e-21)
(-0.0044581115 0.0035994683 -1.7658153e-21)
(-0.0045137177 0.0036138702 -3.11062e-22)
(-0.0046379837 0.0036855895 -9.3750624e-22)
(-0.0048011991 0.0037898167 3.5590178e-21)
(-0.005026995 0.003945039 1.6598934e-21)
(-0.0052964245 0.0041358705 -2.9999282e-21)
(-0.0056200271 0.0043705833 6.9073426e-22)
(-0.0059776997 0.0046334991 -1.4269693e-21)
(-0.0063616511 0.0049187178 -3.9045651e-21)
(-0.0067287896 0.0051867653 -8.1341897e-23)
(-0.0070866391 0.0054309378 -4.9051024e-21)
(-0.0074393506 0.005650412 -2.5479547e-21)
(-0.0077814112 0.0058382524 1.7094032e-21)
(-0.015657887 -1.2613676e-05 -1.2942883e-23)
(-0.015267204 -1.2519984e-05 1.3062735e-23)
(-0.014879387 -1.2420162e-05 -4.4972367e-24)
(-0.014494902 -1.2314923e-05 -4.5848505e-24)
(-0.014113564 -1.2205652e-05 5.5250051e-24)
(-0.013735916 -1.2091983e-05 -4.662101e-24)
(-0.013361611 -1.197486e-05 7.9724371e-24)
(-0.012991354 -1.1852358e-05 5.7548691e-24)
(-0.012624593 -1.1726359e-05 -2.6255554e-23)
(-0.01226229 -1.1595191e-05 1.6754535e-23)
(-0.011903592 -1.1460615e-05 -1.882255e-23)
(-0.011549804 -1.1322147e-05 6.1943794e-24)
(-0.011199635 -1.1180243e-05 1.7205535e-23)
(-0.010854877 -1.103529e-05 -2.9177864e-24)
(-0.010513657 -1.0886061e-05 -1.6534496e-23)
(-0.010178455 -1.0733466e-05 6.4304008e-24)
(-0.0098466009 -1.0575954e-05 1.7767037e-23)
(-0.0095215107 -1.0414687e-05 -1.9780127e-23)
(-0.0091994871 -1.024798e-05 1.8007201e-23)
(-0.0088851627 -1.007739e-05 -2.8572937e-23)
(-0.0085734453 -9.8997516e-06 1.8184558e-23)
(-0.0082706621 -9.7174688e-06 1.5411518e-23)
(-0.0079698115 -9.5255693e-06 -3.187293e-26)
(-0.0076795554 -9.3280976e-06 -2.9298251e-23)
(-0.0073903163 -9.1188561e-06 1.8691952e-23)
(-0.0071138306 -8.9019561e-06 1.5828921e-23)
(-0.0068371585 -8.6687113e-06 -1.7814816e-23)
(-0.0065761843 -8.4250091e-06 1.0193465e-23)
(-0.0063134203 -8.1606777e-06 -3.2058257e-24)
(-0.006070259 -7.8830254e-06 -1.0923646e-23)
(-0.0058231853 -7.5777853e-06 -1.8347922e-23)
(-0.0056009684 -7.2519703e-06 -3.436529e-24)
(-0.0053720934 -6.8876024e-06 1.9520626e-23)
(-0.0051751299 -6.4931631e-06 -1.1228821e-23)
(-0.0049679965 -6.0451245e-06 1.9767477e-23)