y,k
0,1e-10
0.00048240845,5.9495907e-08
0.00098049384,3.1779911e-07
0.0014947656,1.3146814e-06
0.0020257498,3.8086188e-06
0.0025739895,8.8307466e-06
0.0031400454,1.7686348e-05
0.0037244966,3.1982416e-05
0.0043279408,5.3662051e-05
0.0049509953,8.5039388e-05
0.0055942973,0.00012882807
0.0062585048,0.00018815227
0.0069442972,0.00026652301
0.007652376,0.00036775457
0.0083834654,0.00049578883
0.0091383131,0.00065439565
0.0099176913,0.00084673502
0.010722397,0.0010748135
0.011553254,0.0013389418
0.012411111,0.0016373706
0.013296846,0.0019662877
0.014211364,0.0023202526
0.015155603,0.0026929607
0.016130526,0.0030780935
0.017137132,0.0034700032
0.018176449,0.0038641025
0.019249542,0.0042569666
0.020357507,0.0046462383
0.021501477,0.0050304374
0.022682624,0.0054087508
0.023902154,0.0057808439
0.025161316,0.0061467088
0.026461397,0.0065065508
0.027803728,0.006860707
0.02918968,0.0072095899
0.030620672,0.0075536497
0.032098167,0.0078933494
0.033623676,0.0082291493
0.03519876,0.0085614974
0.03682503,0.0088908241
0.03850415,0.0092175395
0.040237836,0.0095420323
0.042027862,0.0098646701
0.043876059,0.0101858
0.045784317,0.010505751
0.047754588,0.010824834
0.049788888,0.011143342
0.051889297,0.011461556
0.054057963,0.011779744
0.056297104,0.01209816
0.058609012,0.012417048
0.06099605,0.012736646
0.06346066,0.01305718
0.066005363,0.013378872
0.068632762,0.013701936
0.071345544,0.014026583
0.074146484,0.014353018
0.077038447,0.014681444
0.08002439,0.015012061
0.083107369,0.015345066
0.086290535,0.015680657
0.089577146,0.01601903
0.092970562,0.01636038
0.096474255,0.016704904
0.10009181,0.017052799
0.10382692,0.017404263
0.10768342,0.017759497
0.11166524,0.018118704
0.11577645,0.01848209
0.12002127,0.018849863
0.12440404,0.019222236
0.12892923,0.019599424
0.13360148,0.019981648
0.13842557,0.02036913
0.14340642,0.020762098
0.14854914,0.021160785
0.15385898,0.021565426
0.15934138,0.021976262
0.16500194,0.022393538
0.17084645,0.0228175
0.17688089,0.023248403
0.18311143,0.023686501
0.18954445,0.024132052
0.19618653,0.024585315
0.20304445,0.025046552
0.21012524,0.025516023
0.21743614,0.025993986
0.22498461,0.026480698
0.23277839,0.026976408
0.24082545,0.027481357
0.24913402,0.027995777
0.25771259,0.028519883
0.26656994,0.029053874
0.27571513,0.029597923
0.28515751,0.030152176
0.29490674,0.030716741
0.3049728,0.031291685
0.31536597,0.031877024
0.3260969,0.032472709
0.33717655,0.033078614
0.34861625,0.033694531
0.36042772,0.034320149
0.37262303,0.034955037
0.38521464,0.035598627
0.39821546,0.036250189
0.41163876,0.036908813
0.42549828,0.037573376
0.4398082,0.038242518
0.45458315,0.038914607
0.46983824,0.039587703
0.48558908,0.040259528
0.50185179,0.040927423
0.51864298,0.041588305
0.53597984,0.042238636
0.5538801,0.042874373
0.57236207,0.043490927
0.59144465,0.044083153
0.61114736,0.044647394
0.63149036,0.045181316
0.65249445,0.045676027
0.67418111,0.046113517
0.69657252,0.046472688
0.7196916,0.046733281
0.74356198,0.046878514
0.76820808,0.046897501
0.79365511,0.046780807
0.8199291,0.046519274
0.84705692,0.046107015
0.87506632,0.045540574
0.90398595,0.044819801
0.93384539,0.043948809
0.94954502,0.043433339
0.96467517,0.042936767
0.99650683,0.04179827
1.0293729,0.040553159
1.0633071,0.039225763
1.098344,0.03784342
1.1345196,0.036433045
1.1718707,0.035020053
1.2104356,0.033629176
1.2502538,0.03228128
1.291366,0.030990079
1.3338142,0.029761253
1.3776419,0.028595089
1.4228938,0.027489111
1.4696163,0.026437378
1.5178571,0.025435622
1.566098,0.024489217
1.6128205,0.023603137
1.6580724,0.02277312
1.7019001,0.021992816
1.7443483,0.021257461
1.7854605,0.020563054
1.8252786,0.019906235
1.8638436,0.019283696
1.9011947,0.018690019
1.9373703,0.018118636
1.9724072,0.017565757
2.0063413,0.017030669
2.0163351,0.016873395
2.0392075,0.016513459
2.0710391,0.016014096
2.1018689,0.015532442
2.1317283,0.015068272
2.160648,0.014621289
2.1886574,0.014191141
2.2157852,0.013777439
2.2420592,0.01337977
2.2675062,0.012997704
2.2921523,0.01263081
2.3160227,0.012278657
2.3391418,0.01194083
2.3615332,0.011616919
2.3832198,0.011306532
2.4042239,0.011009297
2.4245669,0.010724863
2.4442696,0.0104529
2.4633522,0.010193106
2.4818342,0.0099452036
2.4997344,0.0097089439
2.5170713,0.0094841041
2.5338625,0.0092704898
2.5501252,0.0090679342
2.565876,0.008876298
2.5811311,0.008695468
2.5959061,0.0085253569
2.610216,0.0083659012
2.6240755,0.0082170593
2.6374988,0.0080788099
2.6504996,0.0079511485
2.6630913,0.0078340847
2.6752866,0.0077276382
2.687098,0.0076318349
2.6985377,0.0075467019
2.7096174,0.0074722629
2.7203483,0.007408532
2.7307415,0.0073555088
2.7408075,0.0073131717
2.7505568,0.0072814723
2.7599992,0.0072603361
2.7691443,0.0072496452
2.7780017,0.0072492224
2.7865803,0.0072588563
2.7948888,0.0072782942
2.8029359,0.0073072234
2.8107297,0.0073452773
2.8182781,0.0073920364
2.825589,0.0074470291
2.8326698,0.0075097356
2.8395278,0.0075795918
2.8461698,0.0076559945
2.8526028,0.0077383078
2.8588334,0.0078258701
2.8648678,0.0079180012
2.8707123,0.0080140107
2.8763729,0.008113205
2.8818553,0.0082148954
2.8871651,0.0083184055
2.8923079,0.0084230784
2.8972887,0.008528282
2.9021128,0.0086334221
2.9067851,0.0087380836
2.9113102,0.0088420394
2.915693,0.0089446811
2.9199378,0.0090448414
2.924049,0.0091412202
2.9280309,0.0092326224
2.9318874,0.0093180611
2.9356225,0.0093967794
2.93924,0.0094682286
2.9427437,0.0095320384
2.9461371,0.009587966
2.9494237,0.0096358672
2.9526069,0.0096756835
2.9556899,0.0097074125
2.9586758,0.009731093
2.9615678,0.0097467935
2.9643687,0.0097546023
2.9670815,0.0097546205
2.9697089,0.0097469546
2.9722536,0.0097317114
2.9747182,0.0097089979
2.9771053,0.0096789197
2.9794172,0.0096415762
2.9816563,0.0095970533
2.983825,0.0095453959
2.9859254,0.0094865679
2.9879597,0.0094204587
2.98993,0.0093469124
2.9918382,0.0092657309
2.9936864,0.0091766745
2.9954764,0.0090794567
2.9972101,0.0089737393
2.9988893,0.0088591263
3.0005155,0.0087351568
3.0020906,0.0086012993
3.0036161,0.0084569442
3.0050936,0.0083013961
3.0065246,0.0081338029
3.0079106,0.0079531291
3.0092529,0.0077582367
3.010553,0.007547935
3.0118121,0.0073209935
3.0130317,0.0070761637
3.0142128,0.0068122187
3.0153568,0.0065280044
3.0164647,0.0062224834
3.0175378,0.0058946562
3.0185772,0.0055435585
3.0195838,0.0051686804
3.0205587,0.004770451
3.0215029,0.0043505531
3.0224174,0.0039123082
3.0233032,0.0034610974
3.024161,0.0030046455
3.0249919,0.0025529774
3.0257966,0.0021178454
3.026576,0.0017115228
3.0273308,0.0013451094
3.0280619,0.001026792
3.02877,0.00076064788
3.0294558,0.00054640255
3.03012,0.00038013419
3.0307633,0.00025554228
3.0313863,0.00016529384
3.0319898,0.00010210415
3.0325742,5.9433412e-05
3.0331403,3.1834847e-05
3.0336885,1.5036001e-05
3.0342195,5.8145697e-06
3.0347338,1.7272676e-06
3.0352319,1.2415685e-06
3.0357122,5.3912966e-09
