x,y,z,U_0,U_1,U_2
1.08573,0.522747,0.05,0,0,0
1.08573,0.525263,0.05,-0.000455273,0.000300775,-1.88457e-20
1.08573,0.527779,0.05,-0.000791838,0.000523323,4.03853e-21
1.08573,0.530294,0.05,-0.0010252,0.000678746,7.01858e-21
1.08573,0.53281,0.05,-0.00119282,0.000791093,8.41521e-21
1.08573,0.535326,0.05,-0.00131712,0.000875057,7.76572e-21
1.08573,0.537842,0.05,-0.00140469,0.000934917,5.44753e-21
1.08573,0.540357,0.05,-0.0014661,0.000977908,6.01773e-22
1.08573,0.542873,0.05,-0.00151702,0.00101413,-6.15971e-21
1.08573,0.545389,0.05,-0.00155214,0.00104012,-6.81456e-21
1.08573,0.547905,0.05,-0.00157974,0.00106143,-1.35688e-21
1.08573,0.55042,0.05,-0.00160098,0.00107863,2.35998e-21
1.08573,0.552936,0.05,-0.00161451,0.00109111,1.68478e-21
1.08573,0.555452,0.05,-0.00162572,0.00110206,2.86632e-21
1.08573,0.557968,0.05,-0.00162995,0.00110884,4.85497e-21
1.08573,0.560484,0.05,-0.00163349,0.00111512,4.94159e-21
1.08573,0.562999,0.05,-0.00163108,0.00111795,-1.10182e-21
1.08573,0.565515,0.05,-0.00162848,0.00112058,-4.47302e-21
1.08573,0.568031,0.05,-0.00162101,0.00112051,-2.83664e-21
1.08573,0.570547,0.05,-0.00161326,0.00112018,-2.61508e-21
1.08573,0.573062,0.05,-0.00160175,0.00111786,-4.31677e-21
1.08573,0.575578,0.05,-0.00158949,0.00111504,-4.37855e-21
1.08573,0.578094,0.05,-0.00157464,0.00111093,-2.39097e-21
1.08573,0.58061,0.05,-0.0015583,0.00110595,-9.20212e-22
1.08573,0.583125,0.05,-0.00153878,0.0010995,5.29095e-22
1.08573,0.585641,0.05,-0.0015205,0.00109347,2.85343e-21
1.08573,0.588157,0.05,-0.00150036,0.00108656,3.85608e-21
1.08573,0.590673,0.05,-0.00147668,0.00107802,2.24821e-21
1.08573,0.593189,0.05,-0.00145287,0.00106936,1.83733e-21
1.08573,0.595704,0.05,-0.00142518,0.00105899,1.44288e-21
1.08573,0.59822,0.05,-0.0013999,0.00104964,-1.39483e-22
1.08573,0.600736,0.05,-0.00137249,0.00103934,7.889e-23
1.08573,0.603252,0.05,-0.00134181,0.00102766,5.63748e-21
1.08573,0.605767,0.05,-0.00131077,0.0010158,5.05169e-21
1.08573,0.608283,0.05,-0.00127972,0.00100394,4.4659e-21
1.08573,0.610799,0.05,-0.00124421,0.000990259,-1.56004e-21
1.08573,0.613315,0.05,-0.00120945,0.000976903,-2.73132e-21
1.08573,0.61583,0.05,-0.0011747,0.000963547,-3.9026e-21
1.08573,0.618346,0.05,-0.00113455,0.000948091,-2.11326e-21
1.08573,0.620862,0.05,-0.00109595,0.000933278,-1.93596e-21
1.08573,0.623378,0.05,-0.00105735,0.000918465,-1.75866e-21
1.08573,0.625894,0.05,-0.00101277,0.000901425,-1.57288e-21
1.08573,0.628409,0.05,-0.000970142,0.000885182,-1.00387e-21
1.08573,0.630925,0.05,-0.000927516,0.000868938,-4.34863e-22
1.08573,0.633441,0.05,-0.00087872,0.000850489,-2.25642e-21
1.08573,0.635957,0.05,-0.000831842,0.000832835,-1.59665e-21
1.08573,0.638472,0.05,-0.000784965,0.00081518,-9.36887e-22
1.08573,0.640988,0.05,-0.00072749,0.000793785,2.71175e-21
1.08573,0.643504,0.05,-0.000680835,0.000776443,3.33255e-21
1.08573,0.64602,0.05,-0.000629441,0.000757392,2.98308e-21
1.08573,0.648535,0.05,-0.000571127,0.000735972,1.82624e-21
1.08573,0.651051,0.05,-0.000516923,0.000716205,1.004e-21
1.08573,0.653567,0.05,-0.00046071,0.000695774,2.18373e-21
1.08573,0.656083,0.05,-0.000404497,0.000675344,3.36347e-21
1.08573,0.658599,0.05,-0.000335874,0.000650971,5.64223e-21
1.08573,0.661114,0.05,-0.000278595,0.000630528,5.57127e-21
1.08573,0.66363,0.05,-0.000217229,0.000608734,4.98795e-21
1.08573,0.666146,0.05,-0.000155048,0.000586687,4.36475e-21
1.08573,0.668662,0.05,-8.30151e-05,0.000561864,1.64681e-21
1.08573,0.671177,0.05,-1.61422e-05,0.000538734,-2.99528e-22
1.08573,0.673693,0.05,5.07306e-05,0.000515605,-2.24586e-21
1.08573,0.676209,0.05,0.000134062,0.000487594,-4.21597e-21
1.08573,0.678725,0.05,0.000198708,0.000465579,-6.01368e-21
1.08573,0.68124,0.05,0.000271448,0.000441157,-5.5241e-21
1.08573,0.683756,0.05,0.000344189,0.000416734,-5.03452e-21
1.08573,0.686272,0.05,0.000441366,0.000385442,-3.2545e-21
1.08573,0.688788,0.05,0.000506052,0.000363862,-1.58423e-21
1.08573,0.691304,0.05,0.000585014,0.00033821,-2.34953e-22
1.08573,0.693819,0.05,0.000663975,0.000312558,1.11433e-21
1.08573,0.696335,0.05,0.000765221,0.000280989,2.47647e-21
1.08573,0.698851,0.05,0.000839631,0.000257189,4.3708e-21
1.08573,0.701367,0.05,0.00092514,0.000230397,3.13074e-21
1.08573,0.703882,0.05,0.00101065,0.000203605,1.89068e-21
1.08573,0.706398,0.05,0.00110381,0.0001749,1.29123e-22
1.08573,0.708914,0.05,0.00119976,0.000146114,-7.52933e-21
1.08573,0.71143,0.05,0.0012921,0.000118301,-7.11601e-21
1.08573,0.713945,0.05,0.00138444,9.04888e-05,-6.70269e-21
1.08573,0.716461,0.05,0.00147678,6.26763e-05,-6.28937e-21
1.08573,0.718977,0.05,0.00160589,2.65185e-05,2.63792e-22
1.08573,0.721493,0.05,0.00168583,2.57279e-06,2.54833e-21
1.08573,0.724009,0.05,0.00178523,-2.61083e-05,2.79671e-21
1.08573,0.726524,0.05,0.00188463,-5.47894e-05,3.04509e-21
1.08573,0.72904,0.05,0.00200526,-8.80971e-05,2.17158e-21
1.08573,0.731556,0.05,0.00210591,-0.000116096,2.94978e-22
1.08573,0.734072,0.05,0.00221251,-0.000145461,3.49211e-22
1.08573,0.736587,0.05,0.00231911,-0.000174826,4.03443e-22
1.08573,0.739103,0.05,0.00242572,-0.00020419,4.57676e-22
1.08573,0.741619,0.05,0.0025844,-0.00024406,1.33067e-21
1.08573,0.744135,0.05,0.0026654,-0.000266832,3.45166e-21
1.08573,0.74665,0.05,0.00277925,-0.000296662,3.26548e-21
1.08573,0.749166,0.05,0.00289311,-0.000326492,3.0793e-21
1.08573,0.751682,0.05,0.00300696,-0.000356321,2.89312e-21
1.08573,0.754198,0.05,0.00317475,-0.000395926,-1.58204e-21
1.08573,0.756713,0.05,0.00326374,-0.00041955,-6.71065e-21
1.08573,0.759229,0.05,0.00338476,-0.000449593,-7.28279e-21
1.08573,0.761745,0.05,0.00350577,-0.000479637,-7.85493e-21
1.08573,0.764261,0.05,0.00362679,-0.00050968,-8.42707e-21
1.08573,0.766777,0.05,0.00380624,-0.000549362,-2.99087e-21
1.08573,0.769292,0.05,0.00389894,-0.000572778,1.39318e-21
1.08573,0.771808,0.05,0.00402689,-0.000602754,2.55577e-21
1.08573,0.774324,0.05,0.00415484,-0.000632729,3.71837e-21
1.08573,0.77684,0.05,0.00428279,-0.000662705,4.88096e-21
1.08573,0.779355,0.05,0.00446521,-0.000700862,2.89031e-21
1.08573,0.781871,0.05,0.00456827,-0.000725031,2.00289e-21
1.08573,0.784387,0.05,0.00470275,-0.000754632,1.46048e-21
1.08573,0.786903,0.05,0.00483724,-0.000784233,9.18077e-22
1.08573,0.789418,0.05,0.00497172,-0.000813834,3.75669e-22
1.08573,0.791934,0.05,0.00513104,-0.000846697,-1.75353e-23
1.08573,0.79445,0.05,0.00528275,-0.000877124,-1.18854e-23
1.08573,0.796966,0.05,0.00540873,-0.000903764,3.05753e-22
1.08573,0.799482,0.05,0.00554916,-0.000932666,7.32467e-22
1.08573,0.801997,0.05,0.00568959,-0.000961568,1.15918e-21
1.08573,0.804513,0.05,0.00583003,-0.00099047,1.5859e-21
1.08573,0.807029,0.05,0.00603366,-0.00102639,2.50415e-21
1.08573,0.809545,0.05,0.00614061,-0.0010488,1.72346e-21
1.08573,0.81206,0.05,0.0062862,-0.00107667,2.1466e-21
1.08573,0.814576,0.05,0.00643179,-0.00110453,2.56973e-21
1.08573,0.817092,0.05,0.00657738,-0.0011324,2.99286e-21
1.08573,0.819608,0.05,0.00673186,-0.00116105,3.53039e-21
1.08573,0.822123,0.05,0.00692086,-0.0011919,5.16484e-21
1.08573,0.824639,0.05,0.00704353,-0.00121503,6.11021e-21
1.08573,0.827155,0.05,0.00719328,-0.00124153,4.54197e-21
1.08573,0.829671,0.05,0.00734304,-0.00126803,2.97372e-21
1.08573,0.832187,0.05,0.0074928,-0.00129453,1.40548e-21
1.08573,0.834702,0.05,0.00765994,-0.00132212,-9.69525e-22
1.08573,0.837218,0.05,0.00783783,-0.00134909,-4.88354e-21
1.08573,0.839734,0.05,0.00796889,-0.00137159,-6.52036e-21
1.08573,0.84225,0.05,0.00812162,-0.00139641,-6.57851e-21
1.08573,0.844765,0.05,0.00827435,-0.00142122,-6.63667e-21
1.08573,0.847281,0.05,0.00842708,-0.00144603,-6.69483e-21
1.08573,0.849797,0.05,0.00859279,-0.00147125,-6.18014e-21
1.08573,0.852313,0.05,0.0087759,-0.00149592,-4.153e-21
1.08573,0.854828,0.05,0.00890785,-0.00151683,-2.96883e-21
1.08573,0.857344,0.05,0.00906217,-0.00153966,-1.85139e-21
1.08573,0.85986,0.05,0.0092165,-0.0015625,-7.33955e-22
1.08573,0.862376,0.05,0.00937082,-0.00158533,3.83483e-22
1.08573,0.864892,0.05,0.00952609,-0.00160816,1.47463e-21
1.08573,0.867407,0.05,0.00972295,-0.00163045,1.36635e-21
1.08573,0.869923,0.05,0.00985159,-0.00164947,1.47217e-21
1.08573,0.872439,0.05,0.0100057,-0.00167005,7.99774e-22
1.08573,0.874955,0.05,0.01016,-0.00169066,1.17469e-22
1.08573,0.87747,0.05,0.0103144,-0.00171127,-5.64837e-22
1.08573,0.879986,0.05,0.0104688,-0.00173188,-1.24714e-21
1.08573,0.882502,0.05,0.0106437,-0.00175103,-2.02965e-21
1.08573,0.885018,0.05,0.0108001,-0.0017689,-1.92436e-21
1.08573,0.887533,0.05,0.010943,-0.00178679,-1.17154e-21
1.08573,0.890049,0.05,0.0110958,-0.00180498,-4.8315e-22
1.08573,0.892565,0.05,0.0112486,-0.00182316,2.0524e-22
1.08573,0.895081,0.05,0.0114015,-0.00184135,8.9363e-22
1.08573,0.897597,0.05,0.011555,-0.00185942,1.59828e-21
1.08573,0.900112,0.05,0.0117296,-0.00187371,2.82199e-21
1.08573,0.902628,0.05,0.0118683,-0.00188946,1.79889e-21
1.08573,0.905144,0.05,0.0120153,-0.00190515,1.51511e-21
1.08573,0.90766,0.05,0.0121649,-0.00192079,1.45374e-21
1.08573,0.910175,0.05,0.0123145,-0.00193644,1.39237e-21
1.08573,0.912691,0.05,0.0124641,-0.00195208,1.331e-21
1.08573,0.915207,0.05,0.0126165,-0.00196645,1.3769e-21
1.08573,0.917723,0.05,0.0127747,-0.00197738,1.66467e-21
1.08573,0.920238,0.05,0.0129115,-0.00199125,1.30768e-21
1.08573,0.922754,0.05,0.0130557,-0.00200437,7.60048e-22
1.08573,0.92527,0.05,0.0132004,-0.00201742,1.96614e-22
1.08573,0.927786,0.05,0.0133452,-0.00203047,-3.6682e-22
1.08573,0.930302,0.05,0.01349,-0.00204352,-9.30255e-22
1.08573,0.932817,0.05,0.0136351,-0.00205493,-1.54932e-21
1.08573,0.935333,0.05,0.0137803,-0.00206256,-2.17925e-21
1.08573,0.937849,0.05,0.0139157,-0.00207427,-1.44254e-21
1.08573,0.940365,0.05,0.0140536,-0.00208494,-1.0947e-21
1.08573,0.94288,0.05,0.0141921,-0.00209543,-8.13405e-22
1.08573,0.945396,0.05,0.0143305,-0.00210592,-5.32111e-22
1.08573,0.947912,0.05,0.0144689,-0.00211641,-2.50817e-22
1.08573,0.950428,0.05,0.0146065,-0.00212617,9.0226e-23
1.08573,0.952943,0.05,0.0147379,-0.00213051,8.69907e-22
1.08573,0.955459,0.05,0.0148695,-0.00213933,3.09706e-22
1.08573,0.957975,0.05,0.0150006,-0.00214795,2.68912e-24
1.08573,0.960491,0.05,0.0151314,-0.00215599,2.58314e-24
1.08573,0.963007,0.05,0.0152621,-0.00216403,2.47715e-24
1.08573,0.965522,0.05,0.0153929,-0.00217208,2.37117e-24
1.08573,0.968038,0.05,0.0155236,-0.00218012,2.26518e-24
1.08573,0.970554,0.05,0.0156439,-0.00218349,2.88638e-23
1.08573,0.97307,0.05,0.0157651,-0.0021879,2.97942e-23
1.08573,0.975585,0.05,0.0158905,-0.00219493,-2.58959e-24
1.08573,0.978101,0.05,0.0160126,-0.0022007,-2.61327e-24
1.08573,0.980617,0.05,0.0161347,-0.00220648,-2.63695e-24
1.08573,0.983133,0.05,0.0162568,-0.00221225,-2.66063e-24
1.08573,0.985648,0.05,0.0163788,-0.00221803,-2.68431e-24
1.08573,0.988164,0.05,0.016497,-0.00222257,-8.08991e-23
1.08573,0.99068,0.05,0.0166005,-0.00222257,-4.48044e-22
1.08573,0.993196,0.05,0.0167171,-0.002227,-1.85482e-22
1.08573,0.995712,0.05,0.0168328,-0.00223145,-1.33731e-22
1.08573,0.998227,0.05,0.0169455,-0.0022352,-4.08187e-22
1.08573,1.00074,0.05,0.0170582,-0.00223895,-6.82644e-22
1.08573,1.00326,0.05,0.0171709,-0.00224269,-9.571e-22
1.08573,1.00577,0.05,0.0172836,-0.00224644,-1.23156e-21
1.08573,1.00829,0.05,0.0173863,-0.00224775,-1.65022e-21
1.08573,1.01081,0.05,0.0174789,-0.00224662,-2.31518e-21
1.08573,1.01332,0.05,0.0175888,-0.0022498,-4.02295e-21
1.08573,1.01584,0.05,0.0176943,-0.00225223,-4.64428e-21
1.08573,1.01835,0.05,0.0177973,-0.00225423,-4.6496e-21
1.08573,1.02087,0.05,0.0179003,-0.00225623,-4.65492e-21
1.08573,1.02338,0.05,0.0180033,-0.00225823,-4.66025e-21
1.08573,1.0259,0.05,0.0181063,-0.00226023,-4.66557e-21
1.08573,1.02842,0.05,0.0181974,-0.00225985,-3.61424e-21
1.08573,1.03093,0.05,0.0182793,-0.00225762,-1.56836e-21
1.08573,1.03345,0.05,0.0183797,-0.00225915,8.51499e-22
1.08573,1.03596,0.05,0.0184759,-0.0022601,2.15883e-21
1.08573,1.03848,0.05,0.0185692,-0.00226064,2.71484e-21
1.08573,1.041,0.05,0.0186625,-0.00226119,3.27085e-21
1.08573,1.04351,0.05,0.0187558,-0.00226173,3.82686e-21
1.08573,1.04603,0.05,0.0188491,-0.00226228,4.38287e-21
1.08573,1.04854,0.05,0.0189338,-0.00226135,3.99742e-21
1.08573,1.05106,0.05,0.0190047,-0.00225805,2.10107e-21
1.08573,1.05357,0.05,0.0190932,-0.00225785,1.66507e-21
1.08573,1.05609,0.05,0.0191814,-0.00225774,1.47206e-21
1.08573,1.05861,0.05,0.0192654,-0.00225713,1.39709e-21
1.08573,1.06112,0.05,0.0193493,-0.00225651,1.32213e-21
1.08573,1.06364,0.05,0.0194332,-0.00225589,1.24717e-21
1.08573,1.06615,0.05,0.0195171,-0.00225528,1.17221e-21
1.08573,1.06867,0.05,0.0196,-0.00225451,1.10943e-21
1.08573,1.07118,0.05,0.019663,-0.00225071,1.29027e-21
1.08573,1.0737,0.05,0.0197352,-0.0022484,1.2892e-21
1.08573,1.07622,0.05,0.0198163,-0.00224753,1.11213e-21
1.08573,1.07873,0.05,0.0198918,-0.00224606,9.11104e-22
1.08573,1.08125,0.05,0.0199669,-0.00224456,7.08248e-22
1.08573,1.08376,0.05,0.0200421,-0.00224305,5.05392e-22
1.08573,1.08628,0.05,0.0201172,-0.00224155,3.02536e-22
1.08573,1.08879,0.05,0.0201923,-0.00224004,9.96803e-23
1.08573,1.09131,0.05,0.0202577,-0.00223719,1.48724e-22
1.08573,1.09383,0.05,0.0203141,-0.00223307,4.35011e-22
1.08573,1.09634,0.05,0.0203851,-0.00223124,1.95434e-22
1.08573,1.09886,0.05,0.0204556,-0.00222944,4.0138e-25
1.08573,1.10137,0.05,0.0205227,-0.00222728,3.1456e-25
1.08573,1.10389,0.05,0.0205898,-0.00222512,2.27739e-25
1.08573,1.10641,0.05,0.0206569,-0.00222295,1.40919e-25
1.08573,1.10892,0.05,0.020724,-0.00222079,5.40984e-26
1.08573,1.11144,0.05,0.0207911,-0.00221863,-3.2722e-26
1.08573,1.11395,0.05,0.0208454,-0.00221476,-5.8775e-26
1.08573,1.11647,0.05,0.0208984,-0.00221076,-6.54005e-26
1.08573,1.11898,0.05,0.0209622,-0.00220859,-5.60487e-26
1.08573,1.1215,0.05,0.0210242,-0.0022062,-9.9665e-23
1.08573,1.12402,0.05,0.0210841,-0.00220357,-3.05435e-22
1.08573,1.12653,0.05,0.021144,-0.00220095,-5.11206e-22
1.08573,1.12905,0.05,0.021204,-0.00219832,-7.16976e-22
1.08573,1.13156,0.05,0.0212639,-0.0021957,-9.22746e-22
1.08573,1.13408,0.05,0.0213238,-0.00219307,-1.12852e-21
1.08573,1.13659,0.05,0.0213721,-0.00218885,-1.53343e-21
1.08573,1.13911,0.05,0.0214204,-0.00218474,-2.12818e-21
1.08573,1.14163,0.05,0.021477,-0.00218224,-3.41e-21
1.08573,1.14414,0.05,0.0215323,-0.00217953,-3.90909e-21
1.08573,1.14666,0.05,0.0215859,-0.00217659,-3.53592e-21
1.08573,1.14917,0.05,0.0216396,-0.00217365,-3.16274e-21
1.08573,1.15169,0.05,0.0216933,-0.00217071,-2.78957e-21
1.08573,1.1542,0.05,0.021747,-0.00216777,-2.4164e-21
1.08573,1.15672,0.05,0.0218006,-0.00216483,-2.04323e-21
1.08573,1.15924,0.05,0.0218461,-0.00216066,-5.41426e-22
1.08573,1.16175,0.05,0.0218891,-0.00215612,1.3777e-21
1.08573,1.16427,0.05,0.0219394,-0.00215342,4.45591e-21
1.08573,1.16678,0.05,0.0219891,-0.0021506,6.66812e-21
1.08573,1.1693,0.05,0.0220374,-0.00214746,6.55546e-21
1.08573,1.17182,0.05,0.0220857,-0.00214431,6.44279e-21
1.08573,1.17433,0.05,0.022134,-0.00214117,6.33013e-21
1.08573,1.17685,0.05,0.0221823,-0.00213802,6.21746e-21
1.08573,1.17936,0.05,0.0222306,-0.00213487,6.1048e-21
1.08573,1.18188,0.05,0.0222751,-0.00213105,4.71497e-21
1.08573,1.18439,0.05,0.0223148,-0.00212636,1.67794e-21
1.08573,1.18691,0.05,0.0223581,-0.00212296,-4.93864e-22
1.08573,1.18943,0.05,0.022403,-0.00212018,-2.25377e-21
1.08573,1.19194,0.05,0.0224469,-0.00211696,-2.67784e-21
1.08573,1.19446,0.05,0.0224906,-0.00211368,-2.92229e-21
1.08573,1.19697,0.05,0.0225343,-0.0021104,-3.16675e-21
1.08573,1.19949,0.05,0.022578,-0.00210712,-3.4112e-21
1.08573,1.202,0.05,0.0226217,-0.00210384,-3.65566e-21
1.08573,1.20452,0.05,0.0226655,-0.00210056,-3.90011e-21
1.08573,1.20704,0.05,0.0227029,-0.00209586,-2.70156e-21
1.08573,1.20955,0.05,0.0227405,-0.00209134,-1.55297e-21
1.08573,1.21207,0.05,0.0227809,-0.00208853,-1.30283e-21
1.08573,1.21458,0.05,0.0228212,-0.00208555,-1.00186e-21
1.08573,1.2171,0.05,0.0228611,-0.00208218,-5.85441e-22
1.08573,1.21961,0.05,0.0229009,-0.00207881,-1.6902e-22
1.08573,1.22213,0.05,0.0229408,-0.00207544,2.47401e-22
1.08573,1.22465,0.05,0.0229806,-0.00207207,6.63821e-22
1.08573,1.22716,0.05,0.0230205,-0.0020687,1.08024e-21
1.08573,1.22968,0.05,0.0230591,-0.00206495,1.4485e-21
1.08573,1.23219,0.05,0.023094,-0.00206006,1.67337e-21
1.08573,1.23471,0.05,0.0231296,-0.00205604,1.71284e-21
1.08573,1.23723,0.05,0.0231663,-0.00205323,1.49248e-21
1.08573,1.23974,0.05,0.023203,-0.00205009,1.26705e-21
1.08573,1.24226,0.05,0.0232396,-0.00204665,1.03742e-21
1.08573,1.24477,0.05,0.0232762,-0.00204322,8.07786e-22
1.08573,1.24729,0.05,0.0233128,-0.00203979,5.78156e-22
1.08573,1.2498,0.05,0.0233495,-0.00203636,3.48525e-22
1.08573,1.25232,0.05,0.0233861,-0.00203292,1.18895e-22
1.08573,1.25484,0.05,0.0234213,-0.0020289,1.49055e-23
1.08573,1.25735,0.05,0.0234542,-0.00202392,1.15233e-22
1.08573,1.25987,0.05,0.0234875,-0.00202006,1.13732e-22
1.08573,1.26238,0.05,0.0235211,-0.00201728,1.48404e-23
1.08573,1.2649,0.05,0.0235549,-0.00201407,-1.53237e-23
1.08573,1.26741,0.05,0.0235888,-0.00201059,-1.231e-24
1.08573,1.26993,0.05,0.0236227,-0.00200711,1.28617e-23
1.08573,1.27245,0.05,0.0236566,-0.00200363,2.69545e-23
1.08573,1.27496,0.05,0.0236904,-0.00200015,4.10472e-23
1.08573,1.27748,0.05,0.0237243,-0.00199667,5.51399e-23
1.08573,1.27999,0.05,0.0237573,-0.00199266,9.64673e-23
1.08573,1.28251,0.05,0.0237885,-0.0019876,1.93275e-22
1.08573,1.28502,0.05,0.0238197,-0.00198351,4.89587e-22
1.08573,1.28754,0.05,0.0238507,-0.00198075,1.05314e-21
1.08573,1.29006,0.05,0.0238821,-0.00197761,1.29962e-21
1.08573,1.29257,0.05,0.0239136,-0.00197409,1.2212e-21
1.08573,1.29509,0.05,0.0239452,-0.00197056,1.14278e-21
1.08573,1.2976,0.05,0.0239768,-0.00196704,1.06437e-21
1.08573,1.30012,0.05,0.0240083,-0.00196352,9.85945e-22
1.08573,1.30264,0.05,0.0240399,-0.00196,9.07525e-22
1.08573,1.30515,0.05,0.0240713,-0.00195631,7.54636e-22
1.08573,1.30767,0.05,0.024101,-0.00195117,-6.20402e-23
1.08573,1.31018,0.05,0.0241305,-0.00194643,-9.29189e-22
1.08573,1.3127,0.05,0.0241595,-0.00194368,-2.04369e-21
1.08573,1.31521,0.05,0.0241886,-0.00194076,-2.91678e-21
1.08573,1.31773,0.05,0.0242182,-0.0019372,-2.87018e-21
1.08573,1.32025,0.05,0.0242478,-0.00193364,-2.82357e-21
1.08573,1.32276,0.05,0.0242774,-0.00193008,-2.77697e-21
1.08573,1.32528,0.05,0.024307,-0.00192652,-2.73037e-21
1.08573,1.32779,0.05,0.0243366,-0.00192296,-2.68377e-21
1.08573,1.33031,0.05,0.0243662,-0.0019194,-2.63717e-21
1.08573,1.33282,0.05,0.0243948,-0.00191469,-1.73943e-21
1.08573,1.33534,0.05,0.0244231,-0.00190948,-4.77139e-22
1.08573,1.33786,0.05,0.0244505,-0.0019061,3.09061e-22
1.08573,1.34037,0.05,0.0244777,-0.00190336,9.29602e-22
1.08573,1.34289,0.05,0.0245054,-0.00189997,1.09959e-21
1.08573,1.3454,0.05,0.0245333,-0.00189638,1.12352e-21
1.08573,1.34792,0.05,0.0245612,-0.00189278,1.14746e-21
1.08573,1.35043,0.05,0.0245892,-0.00188919,1.17139e-21
1.08573,1.35295,0.05,0.0246171,-0.00188559,1.19533e-21
1.08573,1.35547,0.05,0.024645,-0.001882,1.21926e-21
1.08573,1.35798,0.05,0.0246727,-0.00187818,1.14915e-21
1.08573,1.3605,0.05,0.0246997,-0.00187293,4.60976e-22
1.08573,1.36301,0.05,0.0247265,-0.00186805,-2.01645e-22
1.08573,1.36553,0.05,0.0247521,-0.00186531,-7.1927e-22
1.08573,1.36805,0.05,0.0247778,-0.00186244,-1.17372e-21
1.08573,1.37056,0.05,0.0248043,-0.00185881,-1.2434e-21
1.08573,1.37308,0.05,0.0248307,-0.00185518,-1.31309e-21
1.08573,1.37559,0.05,0.0248571,-0.00185156,-1.38278e-21
1.08573,1.37811,0.05,0.0248836,-0.00184793,-1.45247e-21
1.08573,1.38062,0.05,0.02491,-0.0018443,-1.52215e-21
1.08573,1.38314,0.05,0.0249364,-0.00184067,-1.59184e-21
1.08573,1.38566,0.05,0.0249626,-0.00183638,-1.42724e-21
1.08573,1.38817,0.05,0.0249883,-0.00183109,-9.14545e-22
1.08573,1.39069,0.05,0.0250135,-0.00182682,-3.46391e-22
1.08573,1.3932,0.05,0.0250379,-0.00182408,3.0525e-22
1.08573,1.39572,0.05,0.0250625,-0.00182099,7.66403e-22
1.08573,1.39823,0.05,0.0250876,-0.00181734,9.05054e-22
1.08573,1.40075,0.05,0.0251128,-0.00181368,1.0437e-21
1.08573,1.40327,0.05,0.0251379,-0.00181002,1.18235e-21
1.08573,1.40578,0.05,0.025163,-0.00180637,1.32101e-21
1.08573,1.4083,0.05,0.0251881,-0.00180271,1.45966e-21
1.08573,1.41081,0.05,0.0252133,-0.00179905,1.59831e-21
1.08573,1.41333,0.05,0.0252381,-0.00179455,1.49023e-21
1.08573,1.41584,0.05,0.0252628,-0.00178925,1.15162e-21
1.08573,1.41836,0.05,0.0252867,-0.00178522,8.65674e-22
1.08573,1.42088,0.05,0.0253099,-0.00178246,6.33253e-22
1.08573,1.42339,0.05,0.0253334,-0.00177929,4.43917e-22
1.08573,1.42591,0.05,0.0253574,-0.00177561,3.06719e-22
1.08573,1.42842,0.05,0.0253813,-0.00177194,1.69522e-22
1.08573,1.43094,0.05,0.0254053,-0.00176826,3.23247e-23
1.08573,1.43346,0.05,0.0254293,-0.00176458,-1.04873e-22
1.08573,1.43597,0.05,0.0254532,-0.0017609,-2.4207e-22
1.08573,1.43849,0.05,0.0254772,-0.00175722,-3.79267e-22
1.08573,1.441,0.05,0.0255009,-0.00175276,-5.91546e-22
1.08573,1.44352,0.05,0.0255245,-0.00174747,-8.84258e-22
1.08573,1.44603,0.05,0.0255475,-0.00174331,-1.15652e-21
1.08573,1.44855,0.05,0.0255696,-0.00174055,-1.40351e-21
1.08573,1.45107,0.05,0.0255921,-0.00173743,-1.53083e-21
1.08573,1.45358,0.05,0.025615,-0.00173373,-1.47206e-21
1.08573,1.4561,0.05,0.0256379,-0.00173004,-1.41329e-21
1.08573,1.45861,0.05,0.0256608,-0.00172634,-1.35452e-21
1.08573,1.46113,0.05,0.0256837,-0.00172265,-1.29575e-21
1.08573,1.46364,0.05,0.0257066,-0.00171896,-1.23698e-21
1.08573,1.46616,0.05,0.0257295,-0.00171526,-1.17821e-21
1.08573,1.46868,0.05,0.0257523,-0.00171108,-9.74914e-22
1.08573,1.47119,0.05,0.0257749,-0.00170581,-4.45485e-22
1.08573,1.47371,0.05,0.0257971,-0.00170119,8.51175e-23
1.08573,1.47622,0.05,0.0258184,-0.00169843,6.19049e-22
1.08573,1.47874,0.05,0.0258398,-0.00169548,1.06275e-21
1.08573,1.48125,0.05,0.0258617,-0.00169177,1.13525e-21
1.08573,1.48377,0.05,0.0258837,-0.00168807,1.20775e-21
1.08573,1.48629,0.05,0.0259056,-0.00168437,1.28025e-21
1.08573,1.4888,0.05,0.0259275,-0.00168066,1.35275e-21
1.08573,1.49132,0.05,0.0259495,-0.00167696,1.42525e-21
1.08573,1.49383,0.05,0.0259714,-0.00167326,1.49774e-21
1.08573,1.49635,0.05,0.0259933,-0.00166956,1.57024e-21
1.08573,1.49887,0.05,0.026015,-0.00166433,1.25405e-21
1.08573,1.50138,0.05,0.0260366,-0.0016591,9.36928e-22
1.08573,1.5039,0.05,0.0260571,-0.00165619,7.24771e-22
1.08573,1.50641,0.05,0.0260775,-0.00165342,5.18928e-22
1.08573,1.50893,0.05,0.0260985,-0.00164983,3.82909e-22
1.08573,1.51144,0.05,0.0261195,-0.00164613,2.5705e-22
1.08573,1.51396,0.05,0.0261405,-0.00164243,1.3119e-22
1.08573,1.51648,0.05,0.0261616,-0.00163873,5.33089e-24
1.08573,1.51899,0.05,0.0261826,-0.00163502,-1.20529e-22
1.08573,1.52151,0.05,0.0262037,-0.00163132,-2.46388e-22
1.08573,1.52402,0.05,0.0262247,-0.00162762,-3.72248e-22
1.08573,1.52654,0.05,0.0262455,-0.00162309,-4.98215e-22
1.08573,1.52905,0.05,0.0262663,-0.00161791,-6.24266e-22
1.08573,1.53157,0.05,0.0262864,-0.00161394,-8.72758e-22
1.08573,1.53409,0.05,0.0263061,-0.00161118,-1.24159e-21
1.08573,1.5366,0.05,0.026326,-0.00160801,-1.42737e-21
1.08573,1.53912,0.05,0.0263462,-0.00160431,-1.3727e-21
1.08573,1.54163,0.05,0.0263664,-0.00160062,-1.31803e-21
1.08573,1.54415,0.05,0.0263866,-0.00159693,-1.26336e-21
1.08573,1.54666,0.05,0.0264068,-0.00159323,-1.20869e-21
1.08573,1.54918,0.05,0.026427,-0.00158954,-1.15402e-21
1.08573,1.5517,0.05,0.0264472,-0.00158584,-1.09935e-21
1.08573,1.55421,0.05,0.0264674,-0.00158213,-1.03955e-21
1.08573,1.55673,0.05,0.0264872,-0.00157702,-5.483e-22
1.08573,1.55924,0.05,0.0265071,-0.00157191,-5.70545e-23
1.08573,1.56176,0.05,0.026526,-0.00156904,4.30939e-22
1.08573,1.56428,0.05,0.026545,-0.00156628,9.18772e-22
1.08573,1.56679,0.05,0.0265643,-0.00156271,1.03461e-21
1.08573,1.56931,0.05,0.0265837,-0.00155903,1.10083e-21
1.08573,1.57182,0.05,0.0266031,-0.00155535,1.16704e-21
1.08573,1.57434,0.05,0.0266225,-0.00155168,1.23326e-21
1.08573,1.57685,0.05,0.0266419,-0.001548,1.29948e-21
1.08573,1.57937,0.05,0.0266613,-0.00154433,1.3657e-21
1.08573,1.58189,0.05,0.0266807,-0.00154065,1.43192e-21
1.08573,1.5844,0.05,0.0267,-0.0015365,1.36839e-21
1.08573,1.58692,0.05,0.026719,-0.00153147,1.06778e-21
1.08573,1.58943,0.05,0.0267378,-0.00152711,8.01704e-22
1.08573,1.59195,0.05,0.026756,-0.00152436,6.17171e-22
1.08573,1.59446,0.05,0.0267744,-0.00152139,4.61202e-22
1.08573,1.59698,0.05,0.026793,-0.00151774,3.99387e-22
1.08573,1.5995,0.05,0.0268117,-0.00151409,3.37573e-22
1.08573,1.60201,0.05,0.0268303,-0.00151044,2.75758e-22
1.08573,1.60453,0.05,0.026849,-0.00150679,2.13943e-22
1.08573,1.60704,0.05,0.0268676,-0.00150314,1.52129e-22
1.08573,1.60956,0.05,0.0268863,-0.00149949,9.03142e-23
1.08573,1.61207,0.05,0.0269049,-0.00149584,2.84995e-23
1.08573,1.61459,0.05,0.0269233,-0.00149142,5.88468e-24
1.08573,1.61711,0.05,0.0269415,-0.00148648,9.55426e-24
1.08573,1.61962,0.05,0.0269594,-0.00148275,8.64864e-24
1.08573,1.62214,0.05,0.026977,-0.00148001,3.98706e-24
1.08573,1.62465,0.05,0.0269948,-0.00147684,-2.25793e-23
1.08573,1.62717,0.05,0.0270127,-0.00147322,-7.16249e-23
1.08573,1.62969,0.05,0.0270306,-0.00146961,-1.20671e-22
1.08573,1.6322,0.05,0.0270485,-0.00146599,-1.69716e-22
1.08573,1.63472,0.05,0.0270664,-0.00146238,-2.18762e-22
1.08573,1.63723,0.05,0.0270844,-0.00145876,-2.67807e-22
1.08573,1.63975,0.05,0.0271023,-0.00145514,-3.16853e-22
1.08573,1.64226,0.05,0.0271202,-0.00145153,-3.65898e-22
1.08573,1.64478,0.05,0.0271378,-0.00144698,-4.67093e-22
1.08573,1.6473,0.05,0.0271552,-0.00144214,-5.85034e-22
1.08573,1.64981,0.05,0.0271723,-0.00143883,-5.341e-22
1.08573,1.65233,0.05,0.0271893,-0.00143611,-4.16788e-22
1.08573,1.65484,0.05,0.0272064,-0.00143281,-3.79356e-22
1.08573,1.65736,0.05,0.0272236,-0.00142924,-3.80381e-22
1.08573,1.65987,0.05,0.0272409,-0.00142566,-3.81407e-22
1.08573,1.66239,0.05,0.0272581,-0.00142209,-3.82433e-22
1.08573,1.66491,0.05,0.0272753,-0.00141851,-3.83459e-22
1.08573,1.66742,0.05,0.0272925,-0.00141494,-3.84485e-22
1.08573,1.66994,0.05,0.0273098,-0.00141136,-3.8551e-22
1.08573,1.67245,0.05,0.027327,-0.00140779,-3.86536e-22
1.08573,1.67497,0.05,0.0273438,-0.00140324,-4.75804e-22
1.08573,1.67748,0.05,0.0273605,-0.0013985,-5.81941e-22
1.08573,1.68,0.05,0.0273769,-0.00139543,-8.70117e-22
1.08573,1.68252,0.05,0.0273933,-0.00139274,-1.19978e-21
1.08573,1.68503,0.05,0.0274098,-0.00138939,-1.23794e-21
1.08573,1.68755,0.05,0.0274263,-0.00138586,-1.19768e-21
1.08573,1.69006,0.05,0.0274429,-0.00138233,-1.15741e-21
1.08573,1.69258,0.05,0.0274594,-0.0013788,-1.11715e-21
1.08573,1.6951,0.05,0.027476,-0.00137527,-1.07689e-21
1.08573,1.69761,0.05,0.0274925,-0.00137175,-1.03662e-21
1.08573,1.70013,0.05,0.0275091,-0.00136822,-9.96361e-22
1.08573,1.70264,0.05,0.0275256,-0.00136469,-9.56098e-22
1.08573,1.70516,0.05,0.0275417,-0.00136022,-6.29221e-22
1.08573,1.70767,0.05,0.0275577,-0.0013556,-2.54731e-22
1.08573,1.71019,0.05,0.0275734,-0.00135264,-1.39187e-22
1.08573,1.71271,0.05,0.0275892,-0.00134998,-6.93295e-23
1.08573,1.71522,0.05,0.0276051,-0.00134663,-4.43281e-23
1.08573,1.71774,0.05,0.027621,-0.00134316,-2.76396e-23
1.08573,1.72025,0.05,0.0276369,-0.00133968,-1.09512e-23
1.08573,1.72277,0.05,0.0276527,-0.0013362,5.73734e-24
1.08573,1.72528,0.05,0.0276686,-0.00133273,2.24258e-23
1.08573,1.7278,0.05,0.0276845,-0.00132925,3.91143e-23
1.08573,1.73032,0.05,0.0277004,-0.00132578,5.58028e-23
1.08573,1.73283,0.05,0.0277163,-0.0013223,7.24913e-23
1.08573,1.73535,0.05,0.0277317,-0.00131798,1.66645e-22
1.08573,1.73786,0.05,0.027747,-0.00131347,2.77501e-22
1.08573,1.74038,0.05,0.0277622,-0.00131053,5.50029e-22
1.08573,1.74289,0.05,0.0277773,-0.0013079,8.54215e-22
1.08573,1.74541,0.05,0.0277926,-0.0013046,1.0198e-21
1.08573,1.74793,0.05,0.0278078,-0.00130118,1.16157e-21
1.08573,1.75044,0.05,0.0278231,-0.00129776,1.30334e-21
1.08573,1.75296,0.05,0.0278383,-0.00129435,1.44511e-21
1.08573,1.75547,0.05,0.0278536,-0.00129093,1.58688e-21
1.08573,1.75799,0.05,0.0278688,-0.00128751,1.72865e-21
1.08573,1.76051,0.05,0.0278841,-0.00128409,1.87042e-21
1.08573,1.76302,0.05,0.0278993,-0.00128067,2.01219e-21
1.08573,1.76554,0.05,0.0279141,-0.00127653,1.92421e-21
1.08573,1.76805,0.05,0.0279287,-0.00127213,1.75826e-21
1.08573,1.77057,0.05,0.0279433,-0.00126915,1.83922e-21
1.08573,1.77308,0.05,0.0279579,-0.00126657,1.98785e-21
1.08573,1.7756,0.05,0.0279725,-0.00126334,1.92375e-21
1.08573,1.77812,0.05,0.0279871,-0.00125998,1.81575e-21
1.08573,1.78063,0.05,0.0280017,-0.00125663,1.70775e-21
1.08573,1.78315,0.05,0.0280163,-0.00125327,1.59975e-21
1.08573,1.78566,0.05,0.0280309,-0.00124991,1.49175e-21
1.08573,1.78818,0.05,0.0280455,-0.00124655,1.38375e-21
1.08573,1.79069,0.05,0.0280602,-0.0012432,1.27575e-21
1.08573,1.79321,0.05,0.0280748,-0.00123984,1.16775e-21
1.08573,1.79573,0.05,0.0280889,-0.00123589,8.19543e-22
1.08573,1.79824,0.05,0.0281029,-0.00123162,3.37252e-22
1.08573,1.80076,0.05,0.0281168,-0.00122857,-3.69895e-23
1.08573,1.80327,0.05,0.0281309,-0.00122602,-3.66658e-22
1.08573,1.80579,0.05,0.0281449,-0.00122289,-5.79851e-22
1.08573,1.8083,0.05,0.0281588,-0.0012196,-7.60613e-22
1.08573,1.81082,0.05,0.0281728,-0.0012163,-9.41374e-22
1.08573,1.81334,0.05,0.0281868,-0.00121301,-1.12213e-21
1.08573,1.81585,0.05,0.0282008,-0.00120972,-1.3029e-21
1.08573,1.81837,0.05,0.0282148,-0.00120642,-1.48366e-21
1.08573,1.82088,0.05,0.0282288,-0.00120313,-1.66442e-21
1.08573,1.8234,0.05,0.0282428,-0.00119984,-1.84518e-21
1.08573,1.82592,0.05,0.0282564,-0.00119609,-1.87498e-21
1.08573,1.82843,0.05,0.0282696,-0.00119193,-1.76562e-21
1.08573,1.83095,0.05,0.028283,-0.0011888,-1.78019e-21
1.08573,1.83346,0.05,0.0282965,-0.0011863,-1.87146e-21
1.08573,1.83598,0.05,0.0283098,-0.00118327,-1.82964e-21
1.08573,1.83849,0.05,0.0283232,-0.00118004,-1.73741e-21
1.08573,1.84101,0.05,0.0283366,-0.00117681,-1.64518e-21
1.08573,1.84353,0.05,0.0283499,-0.00117358,-1.55296e-21
1.08573,1.84604,0.05,0.0283633,-0.00117036,-1.46073e-21
1.08573,1.84856,0.05,0.0283767,-0.00116713,-1.3685e-21
1.08573,1.85107,0.05,0.02839,-0.0011639,-1.27628e-21
1.08573,1.85359,0.05,0.0284034,-0.00116067,-1.18405e-21
1.08573,1.8561,0.05,0.0284164,-0.00115713,-9.69415e-22
1.08573,1.85862,0.05,0.028429,-0.00115309,-5.67147e-22
1.08573,1.86114,0.05,0.0284418,-0.00114988,-3.78318e-22
1.08573,1.86365,0.05,0.0284547,-0.00114742,-3.81422e-22
1.08573,1.86617,0.05,0.0284674,-0.00114449,-3.03455e-22
1.08573,1.86868,0.05,0.0284802,-0.00114133,-1.85638e-22
1.08573,1.8712,0.05,0.0284929,-0.00113817,-6.78221e-23