x,y,z,U_0,U_1,U_2
8.6857,0.530512,0.05,9.63355e-05,6.36634e-05,7.52951e-23
8.6857,0.53302,0.05,0.0022453,0.00148428,-1.22483e-20
8.6857,0.535528,0.05,0.00388896,0.00256659,3.89723e-20
8.6857,0.538036,0.05,0.00509676,0.00335668,7.79847e-20
8.6857,0.540544,0.05,0.00601214,0.00395042,-7.08393e-21
8.6857,0.543052,0.05,0.0067305,0.00441167,-6.49733e-20
8.6857,0.54556,0.05,0.00727504,0.00475564,-1.27943e-20
8.6857,0.548068,0.05,0.00769134,0.00501333,9.98896e-21
8.6857,0.550576,0.05,0.00805826,0.00523755,2.44503e-20
8.6857,0.553084,0.05,0.0083472,0.00540882,1.76927e-20
8.6857,0.555592,0.05,0.00860361,0.00555807,2.27852e-20
8.6857,0.5581,0.05,0.00882786,0.00568539,2.40329e-20
8.6857,0.560608,0.05,0.00902132,0.0057917,3.41733e-21
8.6857,0.563116,0.05,0.00920152,0.00588897,-7.05925e-21
8.6857,0.565624,0.05,0.00935686,0.00596915,5.35124e-21
8.6857,0.568132,0.05,0.00950634,0.00604549,4.81825e-21
8.6857,0.57064,0.05,0.00963696,0.00610848,3.2603e-21
8.6857,0.573148,0.05,0.0097636,0.00616896,8.60087e-21
8.6857,0.575656,0.05,0.00987815,0.00622089,3.23151e-21
8.6857,0.578164,0.05,0.00998802,0.00626975,-4.94762e-21
8.6857,0.580672,0.05,0.010091,0.00631359,-1.14931e-20
8.6857,0.58318,0.05,0.0101881,0.00635355,-1.22787e-20
8.6857,0.585688,0.05,0.0102827,0.00639145,-7.50728e-21
8.6857,0.588196,0.05,0.0103699,0.00642444,-6.26022e-21
8.6857,0.590704,0.05,0.0104604,0.00646009,-7.21274e-21
8.6857,0.593212,0.05,0.0105375,0.00648526,-9.7752e-21
8.6857,0.59572,0.05,0.0106169,0.0065127,-1.0238e-20
8.6857,0.598228,0.05,0.0106939,0.00653805,-2.06505e-21
8.6857,0.600736,0.05,0.010767,0.006561,7.82397e-21
8.6857,0.603244,0.05,0.0108446,0.0065871,1.84394e-20
8.6857,0.605752,0.05,0.0109094,0.00660359,1.90188e-20
8.6857,0.60826,0.05,0.0109775,0.00662286,1.46736e-20
8.6857,0.610768,0.05,0.0110453,0.0066414,7.04848e-22
8.6857,0.613276,0.05,0.0111093,0.00665761,-5.65211e-21
8.6857,0.615784,0.05,0.0111732,0.00667381,-1.20091e-20
8.6857,0.618292,0.05,0.0112364,0.00668882,-7.90989e-21
8.6857,0.6208,0.05,0.0112968,0.00670244,-4.07432e-21
8.6857,0.623308,0.05,0.0113573,0.00671606,-2.38745e-22
8.6857,0.625816,0.05,0.0114171,0.00672839,5.50948e-22
8.6857,0.628324,0.05,0.0114747,0.00673981,2.05315e-21
8.6857,0.630832,0.05,0.0115324,0.00675123,3.55534e-21
8.6857,0.63334,0.05,0.0115896,0.00676151,5.58578e-21
8.6857,0.635848,0.05,0.0116448,0.00677104,2.7573e-21
8.6857,0.638356,0.05,0.0117,0.00678057,-7.11721e-23
8.6857,0.640864,0.05,0.0117554,0.00678925,-6.91913e-21
8.6857,0.643372,0.05,0.0118085,0.00679713,-6.85068e-21
8.6857,0.64588,0.05,0.0118617,0.00680501,-6.78223e-21
8.6857,0.648388,0.05,0.0119157,0.00681244,-3.4577e-21
8.6857,0.650896,0.05,0.0119671,0.00681887,-3.27619e-21
8.6857,0.653404,0.05,0.0120185,0.0068253,-3.09469e-21
8.6857,0.655912,0.05,0.0120777,0.00683507,-3.66036e-21
8.6857,0.65842,0.05,0.0121213,0.00683688,-4.05104e-21
8.6857,0.660928,0.05,0.0121712,0.00684202,-8.79406e-22
8.6857,0.663436,0.05,0.0122211,0.00684716,2.29223e-21
8.6857,0.665944,0.05,0.012272,0.00685165,1.18923e-20
8.6857,0.668452,0.05,0.0123206,0.00685564,1.00138e-20
8.6857,0.67096,0.05,0.0123692,0.00685963,8.13532e-21
8.6857,0.673468,0.05,0.0124229,0.0068654,3.50943e-21
8.6857,0.675976,0.05,0.0124671,0.00686654,-6.17516e-21
8.6857,0.678484,0.05,0.0125145,0.00686949,-7.56353e-21
8.6857,0.680992,0.05,0.012562,0.00687244,-8.9519e-21
8.6857,0.6835,0.05,0.0126186,0.00687811,-3.67504e-21
8.6857,0.686008,0.05,0.0126576,0.00687703,3.71083e-21
8.6857,0.688516,0.05,0.0127041,0.00687903,5.85445e-21
8.6857,0.691024,0.05,0.0127506,0.00688103,7.99808e-21
8.6857,0.693532,0.05,0.012805,0.0068849,2.40466e-21
8.6857,0.69604,0.05,0.0128442,0.00688363,-1.28349e-21
8.6857,0.698548,0.05,0.0128899,0.00688475,-3.03083e-21
8.6857,0.701056,0.05,0.0129355,0.00688588,-4.77816e-21
8.6857,0.703564,0.05,0.0129909,0.00688917,-3.00831e-21
8.6857,0.706072,0.05,0.0130276,0.00688674,-1.62668e-21
8.6857,0.70858,0.05,0.0130725,0.00688706,3.11561e-23
8.6857,0.711088,0.05,0.0131173,0.00688738,1.68899e-21
8.6857,0.713596,0.05,0.0131699,0.00688923,3.10433e-21
8.6857,0.716104,0.05,0.0132082,0.00688672,2.50402e-21
8.6857,0.718612,0.05,0.0132524,0.00688628,1.63518e-21
8.6857,0.72112,0.05,0.0132966,0.00688585,7.66341e-22
8.6857,0.723628,0.05,0.0133408,0.00688542,-1.01956e-22
8.6857,0.726136,0.05,0.0133877,0.0068842,-1.09412e-22
8.6857,0.728644,0.05,0.0134299,0.0068827,-1.48514e-21
8.6857,0.731152,0.05,0.0134735,0.00688155,-2.97502e-21
8.6857,0.73366,0.05,0.013517,0.00688041,-4.4649e-21
8.6857,0.736168,0.05,0.0135718,0.00688065,-5.97804e-21
8.6857,0.738676,0.05,0.0136054,0.00687654,-4.61599e-21
8.6857,0.741184,0.05,0.0136484,0.00687472,-3.10639e-21
8.6857,0.743692,0.05,0.0136914,0.00687291,-1.59678e-21
8.6857,0.7462,0.05,0.0137344,0.0068711,-8.71736e-23
8.6857,0.748708,0.05,0.0137852,0.00686923,-3.79292e-23
8.6857,0.751216,0.05,0.0138216,0.00686556,8.42515e-23
8.6857,0.753724,0.05,0.0138641,0.00686311,3.78931e-23
8.6857,0.756232,0.05,0.0139065,0.00686066,-8.46532e-24
8.6857,0.75874,0.05,0.0139502,0.00685827,-2.95492e-23
8.6857,0.761248,0.05,0.013997,0.00685489,2.87545e-23
8.6857,0.763756,0.05,0.0140352,0.00685118,-1.96671e-23
8.6857,0.766264,0.05,0.0140772,0.00684812,2.76598e-23
8.6857,0.768772,0.05,0.0141192,0.00684506,7.49866e-23
8.6857,0.77128,0.05,0.014163,0.00684202,1.23491e-22
8.6857,0.773788,0.05,0.0142094,0.00683788,1.34644e-22
8.6857,0.776296,0.05,0.0142464,0.00683362,1.88473e-22
8.6857,0.778804,0.05,0.014288,0.00682998,2.83516e-22
8.6857,0.781312,0.05,0.0143295,0.00682634,3.78559e-22
8.6857,0.78382,0.05,0.0143711,0.00682269,4.73602e-22
8.6857,0.786328,0.05,0.0144223,0.00681812,-1.00679e-21
8.6857,0.788836,0.05,0.0144555,0.0068131,-2.45034e-21
8.6857,0.791344,0.05,0.0144967,0.00680889,-2.61686e-21
8.6857,0.793852,0.05,0.0145378,0.00680468,-2.78338e-21
8.6857,0.79636,0.05,0.0145789,0.00680048,-2.9499e-21
8.6857,0.798868,0.05,0.0146321,0.00679547,-5.32493e-22
8.6857,0.801376,0.05,0.0146627,0.00678979,2.78454e-21
8.6857,0.803884,0.05,0.0147034,0.00678504,2.87291e-21
8.6857,0.806392,0.05,0.0147441,0.00678029,2.96129e-21
8.6857,0.8089,0.05,0.0147848,0.00677554,3.04966e-21
8.6857,0.811408,0.05,0.0148284,0.00677048,2.58032e-21
8.6857,0.813916,0.05,0.0148746,0.00676412,-9.5646e-22
8.6857,0.816424,0.05,0.0149083,0.00675859,-3.21216e-21
8.6857,0.818932,0.05,0.0149486,0.00675332,-4.22808e-21
8.6857,0.82144,0.05,0.0149889,0.00674805,-5.24401e-21
8.6857,0.823948,0.05,0.0150292,0.00674278,-6.25994e-21
8.6857,0.826456,0.05,0.0150783,0.00673622,-5.86099e-21
8.6857,0.828964,0.05,0.015114,0.00672973,-4.1252e-21
8.6857,0.831472,0.05,0.0151513,0.00672393,-3.11225e-21
8.6857,0.83398,0.05,0.0151912,0.00671815,-2.25285e-21
8.6857,0.836488,0.05,0.0152311,0.00671237,-1.39344e-21
8.6857,0.838996,0.05,0.015271,0.0067066,-5.34042e-22
8.6857,0.841504,0.05,0.0153221,0.00669872,-8.0906e-23
8.6857,0.844011,0.05,0.0153538,0.00669223,2.27152e-21
8.6857,0.846519,0.05,0.0153919,0.006686,3.77272e-21
8.6857,0.849027,0.05,0.0154314,0.00667973,5.12106e-21
8.6857,0.851535,0.05,0.0154709,0.00667347,6.4694e-21
8.6857,0.854043,0.05,0.0155104,0.0066672,7.81773e-21
8.6857,0.856551,0.05,0.0155604,0.00665852,7.9087e-21
8.6857,0.859059,0.05,0.0155937,0.00665157,8.0701e-21
8.6857,0.861567,0.05,0.01563,0.00664499,6.9124e-21
8.6857,0.864075,0.05,0.0156691,0.00663825,5.35212e-21
8.6857,0.866583,0.05,0.0157083,0.00663151,3.79183e-21
8.6857,0.869091,0.05,0.0157474,0.00662477,2.23155e-21
8.6857,0.871599,0.05,0.0157935,0.00661612,-3.09428e-22
8.6857,0.874107,0.05,0.0158336,0.00660769,-4.65221e-21
8.6857,0.876615,0.05,0.0158659,0.00660109,-7.35899e-21
8.6857,0.879123,0.05,0.0159046,0.0065939,-7.84592e-21
8.6857,0.881631,0.05,0.0159433,0.0065867,-8.33285e-21
8.6857,0.884139,0.05,0.015982,0.00657951,-8.81979e-21
8.6857,0.886647,0.05,0.0160219,0.00657196,-8.93559e-21
8.6857,0.889155,0.05,0.0160731,0.00656059,-4.65128e-21
8.6857,0.891663,0.05,0.0160994,0.00655448,-6.20655e-22
8.6857,0.894171,0.05,0.0161377,0.00654685,9.55945e-22
8.6857,0.896679,0.05,0.016176,0.00653922,2.53254e-21
8.6857,0.899187,0.05,0.0162143,0.00653159,4.10914e-21
8.6857,0.901695,0.05,0.0162526,0.00652397,5.68574e-21
8.6857,0.904203,0.05,0.0162979,0.00651381,5.64797e-21
8.6857,0.906711,0.05,0.0163381,0.00650414,4.26691e-21
8.6857,0.909219,0.05,0.0163685,0.0064973,3.27416e-21
8.6857,0.911727,0.05,0.0164064,0.00648926,2.48763e-21
8.6857,0.914235,0.05,0.0164443,0.00648121,1.70111e-21
8.6857,0.916743,0.05,0.0164822,0.00647317,9.14586e-22
8.6857,0.919251,0.05,0.0165201,0.00646513,1.28063e-22
8.6857,0.921759,0.05,0.0165677,0.00645309,-8.22645e-23
8.6857,0.924267,0.05,0.0166025,0.00644434,-7.94605e-23
8.6857,0.926775,0.05,0.0166345,0.00643697,9.56145e-23
8.6857,0.929283,0.05,0.016672,0.00642853,4.23407e-22
8.6857,0.931791,0.05,0.0167094,0.0064201,7.512e-22
8.6857,0.934299,0.05,0.0167469,0.00641166,1.07899e-21
8.6857,0.936807,0.05,0.0167844,0.00640322,1.40678e-21
8.6857,0.939315,0.05,0.0168316,0.00639028,1.97721e-21
8.6857,0.941823,0.05,0.016866,0.00638124,3.31158e-21
8.6857,0.944331,0.05,0.0168973,0.00637373,4.25599e-21
8.6857,0.946839,0.05,0.0169344,0.00636492,4.33601e-21
8.6857,0.949347,0.05,0.0169714,0.00635611,4.41603e-21
8.6857,0.951855,0.05,0.0170085,0.0063473,4.49604e-21
8.6857,0.954363,0.05,0.0170455,0.00633849,4.57606e-21
8.6857,0.956871,0.05,0.01709,0.00632582,3.32562e-21
8.6857,0.959379,0.05,0.0171283,0.00631491,1.05578e-21
8.6857,0.961887,0.05,0.017157,0.00630782,-1.12711e-21
8.6857,0.964395,0.05,0.0171936,0.00629867,-1.79341e-21
8.6857,0.966903,0.05,0.0172302,0.00628951,-2.45972e-21
8.6857,0.969411,0.05,0.0172668,0.00628035,-3.12603e-21
8.6857,0.971919,0.05,0.0173034,0.00627119,-3.79234e-21
8.6857,0.974427,0.05,0.0173434,0.00626009,-3.70451e-21
8.6857,0.976935,0.05,0.0173891,0.00624548,-2.08431e-21
8.6857,0.979443,0.05,0.0174155,0.0062389,-1.52959e-21
8.6857,0.981951,0.05,0.0174497,0.00623,-1.19198e-21
8.6857,0.984459,0.05,0.0174858,0.00622052,-9.08877e-22
8.6857,0.986967,0.05,0.017522,0.00621104,-6.25773e-22
8.6857,0.989475,0.05,0.0175581,0.00620156,-3.42669e-22
8.6857,0.991983,0.05,0.0175942,0.00619207,-5.9565e-23
8.6857,0.994491,0.05,0.0176382,0.00617765,1.2848e-22
8.6857,0.996999,0.05,0.0176745,0.00616639,1.31852e-22
8.6857,0.999507,0.05,0.0177026,0.00615915,-5.59168e-23
8.6857,1.00202,0.05,0.0177383,0.00614937,-3.92998e-22
8.6857,1.00452,0.05,0.0177739,0.0061396,-7.3008e-22
8.6857,1.00703,0.05,0.0178096,0.00612982,-1.06716e-21
8.6857,1.00954,0.05,0.0178452,0.00612004,-1.40424e-21
8.6857,1.01205,0.05,0.0178814,0.0061099,-1.74134e-21
8.6857,1.01456,0.05,0.0179263,0.0060937,-2.07875e-21
8.6857,1.01706,0.05,0.017958,0.00608428,-1.93422e-21
8.6857,1.01957,0.05,0.0179875,0.00607631,-1.59494e-21
8.6857,1.02208,0.05,0.0180227,0.00606627,-1.23655e-21
8.6857,1.02459,0.05,0.0180578,0.00605622,-8.78156e-22
8.6857,1.0271,0.05,0.018093,0.00604618,-5.19765e-22
8.6857,1.0296,0.05,0.0181282,0.00603614,-1.61374e-22
8.6857,1.03211,0.05,0.0181645,0.00602523,1.50346e-22
8.6857,1.03462,0.05,0.0182082,0.00600868,1.58534e-22
8.6857,1.03713,0.05,0.018239,0.00599935,1.54765e-22
8.6857,1.03964,0.05,0.0182682,0.00599127,1.35498e-22
8.6857,1.04214,0.05,0.0183029,0.00598099,9.3107e-23
8.6857,1.04465,0.05,0.0183376,0.00597071,5.07164e-23
8.6857,1.04716,0.05,0.0183722,0.00596043,8.32585e-24
8.6857,1.04967,0.05,0.0184069,0.00595015,-3.40647e-23
8.6857,1.05218,0.05,0.0184417,0.00593979,-7.60161e-23
8.6857,1.05468,0.05,0.0184842,0.00592296,-8.14961e-23
8.6857,1.05719,0.05,0.0185174,0.00591184,-8.00203e-23
8.6857,1.0597,0.05,0.0185448,0.00590434,-6.94465e-23
8.6857,1.06221,0.05,0.0185789,0.00589385,-2.84336e-23
8.6857,1.06472,0.05,0.0186131,0.00588336,1.25792e-23
8.6857,1.06722,0.05,0.0186472,0.00587287,5.35921e-23
8.6857,1.06973,0.05,0.0186814,0.00586238,9.46049e-23
8.6857,1.07224,0.05,0.0187155,0.00585189,1.35618e-22
8.6857,1.07475,0.05,0.0187547,0.00583686,6.20021e-23
8.6857,1.07726,0.05,0.0187928,0.00582201,-8.14277e-24
8.6857,1.07976,0.05,0.0188192,0.0058148,1.11778e-22
8.6857,1.08227,0.05,0.0188508,0.00580513,1.83821e-22
8.6857,1.08478,0.05,0.0188844,0.00579447,2.3651e-22
8.6857,1.08729,0.05,0.0189181,0.00578381,2.89199e-22
8.6857,1.0898,0.05,0.0189517,0.00577314,3.41888e-22
8.6857,1.0923,0.05,0.0189853,0.00576248,3.94577e-22
8.6857,1.09481,0.05,0.0190201,0.00575065,4.35771e-22
8.6857,1.09732,0.05,0.0190604,0.00573347,4.23932e-22
8.6857,1.09983,0.05,0.0190914,0.00572283,-6.73203e-22
8.6857,1.10234,0.05,0.0191186,0.00571513,-2.17472e-21
8.6857,1.10484,0.05,0.0191517,0.00570432,-2.46061e-21
8.6857,1.10735,0.05,0.0191848,0.00569352,-2.74649e-21
8.6857,1.10986,0.05,0.0192179,0.00568271,-3.03238e-21
8.6857,1.11237,0.05,0.019251,0.00567191,-3.31826e-21
8.6857,1.11488,0.05,0.0192841,0.0056611,-3.60415e-21
8.6857,1.11738,0.05,0.01932,0.00564728,-3.22214e-21
8.6857,1.11989,0.05,0.019359,0.00563002,-2.07616e-21
8.6857,1.1224,0.05,0.0193865,0.0056217,-1.469e-21
8.6857,1.12491,0.05,0.0194147,0.0056132,-9.05874e-22
8.6857,1.12742,0.05,0.0194473,0.00560228,-3.19232e-22
8.6857,1.12992,0.05,0.0194799,0.00559137,2.6741e-22
8.6857,1.13243,0.05,0.0195124,0.00558045,8.54052e-22
8.6857,1.13494,0.05,0.019545,0.00556954,1.44069e-21
8.6857,1.13745,0.05,0.0195775,0.00555863,2.02734e-21
8.6857,1.13996,0.05,0.0196131,0.00554415,2.70114e-21
8.6857,1.14246,0.05,0.0196511,0.00552687,3.44364e-21
8.6857,1.14497,0.05,0.0196778,0.00551898,5.74486e-21
8.6857,1.14748,0.05,0.0197058,0.00551035,7.2979e-21
8.6857,1.14999,0.05,0.0197378,0.00549936,7.13931e-21
8.6857,1.1525,0.05,0.0197698,0.00548837,6.98071e-21
8.6857,1.155,0.05,0.0198019,0.00547738,6.82211e-21
8.6857,1.15751,0.05,0.0198339,0.00546639,6.66351e-21
8.6857,1.16002,0.05,0.0198659,0.0054554,6.50491e-21
8.6857,1.16253,0.05,0.0199001,0.00544155,5.27239e-21
8.6857,1.16503,0.05,0.019937,0.00542431,2.76781e-21
8.6857,1.16754,0.05,0.019965,0.00541498,5.41705e-22
8.6857,1.17005,0.05,0.0199918,0.00540692,-1.37363e-21
8.6857,1.17256,0.05,0.0200232,0.00539588,-1.78294e-21
8.6857,1.17507,0.05,0.0200547,0.00538485,-2.19225e-21
8.6857,1.17757,0.05,0.0200861,0.00537382,-2.60156e-21
8.6857,1.18008,0.05,0.0201176,0.00536278,-3.01087e-21
8.6857,1.18259,0.05,0.0201491,0.00535175,-3.42018e-21
8.6857,1.1851,0.05,0.0201812,0.00533971,-3.57472e-21
8.6857,1.18761,0.05,0.020217,0.00532258,-2.42712e-21
8.6857,1.19011,0.05,0.020248,0.00531006,-1.64933e-21
8.6857,1.19262,0.05,0.0202738,0.00530243,-1.26399e-21
8.6857,1.19513,0.05,0.0203036,0.00529217,-1.09221e-21
8.6857,1.19764,0.05,0.0203345,0.00528112,-9.83594e-22
8.6857,1.20015,0.05,0.0203654,0.00527008,-8.74975e-22
8.6857,1.20265,0.05,0.0203963,0.00525903,-7.66356e-22
8.6857,1.20516,0.05,0.0204272,0.00524799,-6.57737e-22
8.6857,1.20767,0.05,0.0204581,0.00523694,-5.49118e-22
8.6857,1.21018,0.05,0.0204916,0.00522186,-7.1091e-22
8.6857,1.21269,0.05,0.0205263,0.00520488,-1.00061e-21
8.6857,1.21519,0.05,0.0205523,0.00519688,-1.41567e-21
8.6857,1.2177,0.05,0.020579,0.00518849,-1.72855e-21
8.6857,1.22021,0.05,0.0206093,0.00517747,-1.65136e-21
8.6857,1.22272,0.05,0.0206396,0.00516644,-1.57418e-21
8.6857,1.22523,0.05,0.02067,0.00515542,-1.497e-21
8.6857,1.22773,0.05,0.0207003,0.00514439,-1.41982e-21
8.6857,1.23024,0.05,0.0207307,0.00513337,-1.34264e-21
8.6857,1.23275,0.05,0.020761,0.00512231,-1.26206e-21
8.6857,1.23526,0.05,0.0207948,0.00510552,-6.18307e-22
8.6857,1.23777,0.05,0.0208264,0.00509107,5.56078e-23
8.6857,1.24027,0.05,0.0208518,0.00508338,8.16915e-22
8.6857,1.24278,0.05,0.0208793,0.00507414,1.31921e-21
8.6857,1.24529,0.05,0.0209091,0.00506316,1.53449e-21
8.6857,1.2478,0.05,0.0209388,0.00505218,1.74978e-21
8.6857,1.25031,0.05,0.0209686,0.00504121,1.96506e-21
8.6857,1.25281,0.05,0.0209984,0.00503023,2.18034e-21
8.6857,1.25532,0.05,0.0210282,0.00501926,2.39563e-21
8.6857,1.25783,0.05,0.0210584,0.00500746,2.51978e-21
8.6857,1.26034,0.05,0.0210911,0.00499091,2.11887e-21
8.6857,1.26285,0.05,0.0211211,0.00497761,1.75636e-21
8.6857,1.26535,0.05,0.0211463,0.00496992,1.46028e-21
8.6857,1.26786,0.05,0.0211737,0.00496046,1.20764e-21
8.6857,1.27037,0.05,0.0212029,0.00494956,9.90139e-22
8.6857,1.27288,0.05,0.0212321,0.00493866,7.72633e-22
8.6857,1.27539,0.05,0.0212613,0.00492777,5.55127e-22
8.6857,1.27789,0.05,0.0212905,0.00491687,3.37622e-22
8.6857,1.2804,0.05,0.0213197,0.00490597,1.20116e-22
8.6857,1.28291,0.05,0.0213492,0.00489449,-8.08724e-23
8.6857,1.28542,0.05,0.0213809,0.00487823,-1.45521e-22
8.6857,1.28793,0.05,0.0214107,0.00486451,-1.72222e-22
8.6857,1.29043,0.05,0.0214356,0.00485684,-1.08844e-22
8.6857,1.29294,0.05,0.0214622,0.00484775,-1.706e-22
8.6857,1.29545,0.05,0.0214908,0.00483695,-3.82488e-22
8.6857,1.29796,0.05,0.0215195,0.00482616,-5.94376e-22
8.6857,1.30047,0.05,0.0215481,0.00481537,-8.06264e-22
8.6857,1.30297,0.05,0.0215767,0.00480457,-1.01815e-21
8.6857,1.30548,0.05,0.0216053,0.00479378,-1.23004e-21
8.6857,1.30799,0.05,0.021634,0.00478298,-1.44193e-21
8.6857,1.3105,0.05,0.0216646,0.0047676,-1.70949e-21
8.6857,1.31301,0.05,0.0216951,0.00475207,-1.95598e-21
8.6857,1.31551,0.05,0.0217197,0.00474443,-1.68563e-21
8.6857,1.31802,0.05,0.021745,0.00473624,-1.40207e-21
8.6857,1.32053,0.05,0.021773,0.00472557,-1.05971e-21
8.6857,1.32304,0.05,0.0218011,0.0047149,-7.17345e-22
8.6857,1.32555,0.05,0.0218292,0.00470423,-3.74983e-22
8.6857,1.32805,0.05,0.0218572,0.00469357,-3.26202e-23
8.6857,1.33056,0.05,0.0218853,0.0046829,3.09742e-22
8.6857,1.33307,0.05,0.0219133,0.00467223,6.52105e-22
8.6857,1.33558,0.05,0.0219423,0.0046591,8.84763e-22
8.6857,1.33809,0.05,0.0219722,0.0046435,1.00744e-21
8.6857,1.34059,0.05,0.0219986,0.00463298,9.75277e-22
8.6857,1.3431,0.05,0.0220229,0.00462539,8.54265e-22
8.6857,1.34561,0.05,0.0220496,0.00461562,8.02872e-22
8.6857,1.34812,0.05,0.022077,0.0046051,7.75388e-22
8.6857,1.35063,0.05,0.0221045,0.00459458,7.47903e-22
8.6857,1.35313,0.05,0.022132,0.00458406,7.20419e-22
8.6857,1.35564,0.05,0.0221594,0.00457354,6.92935e-22
8.6857,1.35815,0.05,0.0221869,0.00456303,6.65451e-22
8.6857,1.36066,0.05,0.0222144,0.00455251,6.37967e-22
8.6857,1.36317,0.05,0.0222433,0.00453756,7.72724e-22
8.6857,1.36567,0.05,0.022272,0.00452274,9.02347e-22
8.6857,1.36818,0.05,0.022296,0.00451521,7.60224e-22
8.6857,1.37069,0.05,0.0223204,0.00450728,6.00369e-22
8.6857,1.3732,0.05,0.0223473,0.00449692,3.33826e-22
8.6857,1.37571,0.05,0.0223742,0.00448657,6.72826e-23
8.6857,1.37821,0.05,0.0224011,0.00447622,-1.9926e-22
8.6857,1.38072,0.05,0.022428,0.00446587,-4.65803e-22
8.6857,1.38323,0.05,0.0224548,0.00445552,-7.32347e-22
8.6857,1.38574,0.05,0.0224817,0.00444517,-9.9889e-22
8.6857,1.38825,0.05,0.0225089,0.00443384,-1.26343e-21
8.6857,1.39075,0.05,0.022537,0.00441899,-1.52079e-21
8.6857,1.39326,0.05,0.0225638,0.00440646,-1.8062e-21
8.6857,1.39577,0.05,0.0225874,0.004399,-2.15331e-21
8.6857,1.39828,0.05,0.0226121,0.00439051,-2.30275e-21
8.6857,1.40079,0.05,0.0226384,0.00438034,-2.13476e-21
8.6857,1.40329,0.05,0.0226647,0.00437017,-1.96677e-21
8.6857,1.4058,0.05,0.022691,0.00436001,-1.79878e-21
8.6857,1.40831,0.05,0.0227173,0.00434984,-1.63079e-21
8.6857,1.41082,0.05,0.0227435,0.00433967,-1.4628e-21
8.6857,1.41333,0.05,0.0227698,0.0043295,-1.29481e-21
8.6857,1.41583,0.05,0.0227965,0.00431789,-9.79457e-22
8.6857,1.41834,0.05,0.0228238,0.00430345,-3.76746e-22
8.6857,1.42085,0.05,0.0228494,0.00429196,2.25583e-22
8.6857,1.42336,0.05,0.0228727,0.00428459,8.27379e-22
8.6857,1.42587,0.05,0.0228971,0.00427599,1.09923e-21
8.6857,1.42837,0.05,0.0229228,0.00426602,1.00553e-21
8.6857,1.43088,0.05,0.0229484,0.00425605,9.11831e-22
8.6857,1.43339,0.05,0.0229741,0.00424608,8.18131e-22
8.6857,1.4359,0.05,0.0229998,0.00423611,7.24432e-22
8.6857,1.43841,0.05,0.0230255,0.00422614,6.30733e-22
8.6857,1.44091,0.05,0.0230512,0.00421617,5.37033e-22
8.6857,1.44342,0.05,0.0230771,0.00420494,2.52763e-22
8.6857,1.44593,0.05,0.0231036,0.00419091,-4.55316e-22
8.6857,1.44844,0.05,0.0231287,0.00417942,-1.07887e-21
8.6857,1.45095,0.05,0.0231516,0.00417216,-1.56189e-21
8.6857,1.45345,0.05,0.0231754,0.00416384,-1.84174e-21
8.6857,1.45596,0.05,0.0232005,0.00415408,-1.8426e-21
8.6857,1.45847,0.05,0.0232255,0.00414431,-1.84345e-21
8.6857,1.46098,0.05,0.0232506,0.00413455,-1.84431e-21
8.6857,1.46349,0.05,0.0232757,0.00412479,-1.84517e-21
8.6857,1.46599,0.05,0.0233008,0.00411502,-1.84603e-21
8.6857,1.4685,0.05,0.0233259,0.00410526,-1.84689e-21
8.6857,1.47101,0.05,0.023351,0.00409496,-1.77326e-21
8.6857,1.47352,0.05,0.0233767,0.00408135,-1.23696e-21
8.6857,1.47603,0.05,0.0234017,0.004069,-6.80752e-22
8.6857,1.47853,0.05,0.0234242,0.00406184,-4.19037e-23
8.6857,1.48104,0.05,0.0234471,0.00405413,4.89173e-22
8.6857,1.48355,0.05,0.0234716,0.00404458,6.63716e-22
8.6857,1.48606,0.05,0.023496,0.00403503,8.38259e-22
8.6857,1.48857,0.05,0.0235205,0.00402549,1.0128e-21
8.6857,1.49107,0.05,0.0235449,0.00401594,1.18734e-21
8.6857,1.49358,0.05,0.0235694,0.00400639,1.36189e-21
8.6857,1.49609,0.05,0.0235938,0.00399684,1.53643e-21
8.6857,1.4986,0.05,0.0236183,0.00398729,1.71097e-21
8.6857,1.50111,0.05,0.0236431,0.00397471,1.37612e-21
8.6857,1.50361,0.05,0.023668,0.00396153,9.38596e-22
8.6857,1.50612,0.05,0.0236903,0.00395376,7.52656e-22
8.6857,1.50863,0.05,0.0237123,0.00394672,6.00669e-22
8.6857,1.51114,0.05,0.0237359,0.00393759,6.11453e-22
8.6857,1.51365,0.05,0.0237598,0.00392826,6.37438e-22
8.6857,1.51615,0.05,0.0237836,0.00391893,6.63423e-22
8.6857,1.51866,0.05,0.0238074,0.0039096,6.89407e-22
8.6857,1.52117,0.05,0.0238312,0.00390028,7.15392e-22
8.6857,1.52368,0.05,0.0238551,0.00389095,7.41377e-22
8.6857,1.52619,0.05,0.0238789,0.00388162,7.67362e-22
8.6857,1.52869,0.05,0.0239028,0.00387092,8.06641e-22
8.6857,1.5312,0.05,0.0239269,0.00385815,8.65917e-22
8.6857,1.53371,0.05,0.0239498,0.00384798,8.72935e-22
8.6857,1.53622,0.05,0.0239713,0.00384106,8.14749e-22
8.6857,1.53873,0.05,0.0239936,0.0038331,7.47522e-22
8.6857,1.54123,0.05,0.0240168,0.003824,6.70395e-22
8.6857,1.54374,0.05,0.02404,0.00381489,5.93267e-22
8.6857,1.54625,0.05,0.0240631,0.00380579,5.1614e-22
8.6857,1.54876,0.05,0.0240863,0.00379668,4.39012e-22
8.6857,1.55127,0.05,0.0241095,0.00378758,3.61885e-22
8.6857,1.55377,0.05,0.0241327,0.00377847,2.84757e-22
8.6857,1.55628,0.05,0.0241559,0.00376937,2.0763e-22
8.6857,1.55879,0.05,0.0241791,0.0037575,1.55493e-22
8.6857,1.5613,0.05,0.0242024,0.00374515,1.07806e-22
8.6857,1.56381,0.05,0.0242236,0.00373777,-3.64166e-22
8.6857,1.56631,0.05,0.0242446,0.00373098,-8.86168e-22
8.6857,1.56882,0.05,0.0242671,0.00372225,-9.49323e-22
8.6857,1.57133,0.05,0.0242896,0.00371337,-9.77577e-22
8.6857,1.57384,0.05,0.0243121,0.00370448,-1.00583e-21
8.6857,1.57635,0.05,0.0243346,0.0036956,-1.03408e-21
8.6857,1.57885,0.05,0.0243571,0.00368672,-1.06234e-21
8.6857,1.58136,0.05,0.0243796,0.00367784,-1.09059e-21
8.6857,1.58387,0.05,0.0244021,0.00366896,-1.11885e-21
8.6857,1.58638,0.05,0.0244247,0.00365949,-1.03289e-21
8.6857,1.58889,0.05,0.0244472,0.00364754,-4.60905e-22
8.6857,1.59139,0.05,0.0244692,0.00363686,1.114e-22
8.6857,1.5939,0.05,0.0244897,0.0036302,6.84713e-22
8.6857,1.59641,0.05,0.0245105,0.00362297,1.0914e-21
8.6857,1.59892,0.05,0.0245324,0.00361431,1.0698e-21
8.6857,1.60143,0.05,0.0245542,0.00360565,1.04821e-21
8.6857,1.60393,0.05,0.024576,0.003597,1.02662e-21
8.6857,1.60644,0.05,0.0245979,0.00358834,1.00502e-21
8.6857,1.60895,0.05,0.0246197,0.00357968,9.83429e-22
8.6857,1.61146,0.05,0.0246415,0.00357102,9.61836e-22
8.6857,1.61397,0.05,0.0246634,0.00356236,9.40243e-22
8.6857,1.61647,0.05,0.0246852,0.00355244,6.97612e-22
8.6857,1.61898,0.05,0.0247069,0.00354089,1.66115e-22
8.6857,1.62149,0.05,0.0247277,0.00353179,-1.26332e-22
8.6857,1.624,0.05,0.0247476,0.00352526,-1.69653e-22
8.6857,1.62651,0.05,0.0247682,0.00351769,-1.71772e-22
8.6857,1.62901,0.05,0.0247893,0.00350925,-1.38739e-22
8.6857,1.63152,0.05,0.0248105,0.00350081,-1.05705e-22
8.6857,1.63403,0.05,0.0248316,0.00349237,-7.26718e-23
8.6857,1.63654,0.05,0.0248528,0.00348393,-3.96383e-23
8.6857,1.63905,0.05,0.0248739,0.00347549,-6.60475e-24
8.6857,1.64155,0.05,0.0248951,0.00346705,2.64288e-23
8.6857,1.64406,0.05,0.0249162,0.00345861,5.94623e-23
8.6857,1.64657,0.05,0.0249372,0.00344856,7.78546e-23
8.6857,1.64908,0.05,0.0249581,0.00343739,8.60284e-23
8.6857,1.65159,0.05,0.024978,0.00342934,8.29358e-23
8.6857,1.65409,0.05,0.0249973,0.00342293,7.39248e-23
8.6857,1.6566,0.05,0.0250174,0.00341522,8.17537e-23
8.6857,1.65911,0.05,0.0250379,0.00340699,9.61867e-23
8.6857,1.66162,0.05,0.0250583,0.00339876,1.1062e-22
8.6857,1.66413,0.05,0.0250787,0.00339053,1.25053e-22
8.6857,1.66663,0.05,0.0250992,0.0033823,1.39485e-22
8.6857,1.66914,0.05,0.0251196,0.00337408,1.53918e-22
8.6857,1.67165,0.05,0.02514,0.00336585,1.68351e-22
8.6857,1.67416,0.05,0.0251605,0.00335762,1.82784e-22
8.6857,1.67667,0.05,0.0251807,0.00334767,1.54148e-22
8.6857,1.67917,0.05,0.0252008,0.00333687,1.0406e-22
8.6857,1.68168,0.05,0.0252199,0.00332945,-2.99153e-22
8.6857,1.68419,0.05,0.0252386,0.00332316,-8.21294e-22
8.6857,1.6867,0.05,0.0252581,0.00331544,-8.5202e-22
8.6857,1.68921,0.05,0.0252779,0.00330742,-7.79914e-22
8.6857,1.69171,0.05,0.0252976,0.0032994,-7.07808e-22
8.6857,1.69422,0.05,0.0253173,0.00329138,-6.35702e-22
8.6857,1.69673,0.05,0.025337,0.00328336,-5.63596e-22
8.6857,1.69924,0.05,0.0253567,0.00327534,-4.9149e-22
8.6857,1.70175,0.05,0.0253764,0.00326732,-4.19384e-22
8.6857,1.70425,0.05,0.0253961,0.0032593,-3.47278e-22
8.6857,1.70676,0.05,0.0254155,0.00324962,1.66219e-22
8.6857,1.70927,0.05,0.0254348,0.00323917,8.87007e-22
8.6857,1.71178,0.05,0.0254532,0.00323206,1.38339e-21
8.6857,1.71429,0.05,0.0254713,0.0032259,1.81585e-21
8.6857,1.71679,0.05,0.0254901,0.00321828,1.84414e-21
8.6857,1.7193,0.05,0.0255091,0.00321046,1.8156e-21
8.6857,1.72181,0.05,0.025528,0.00320264,1.78706e-21
8.6857,1.72432,0.05,0.025547,0.00319482,1.75853e-21
8.6857,1.72683,0.05,0.0255659,0.00318699,1.72999e-21
8.6857,1.72933,0.05,0.0255849,0.00317917,1.70145e-21
8.6857,1.73184,0.05,0.0256039,0.00317135,1.67292e-21
8.6857,1.73435,0.05,0.0256228,0.00316353,1.64438e-21
8.6857,1.73686,0.05,0.0256415,0.00315424,1.35185e-21
8.6857,1.73937,0.05,0.02566,0.00314413,9.1041e-22
8.6857,1.74187,0.05,0.0256777,0.0031371,6.98036e-22
8.6857,1.74438,0.05,0.0256951,0.00313105,5.58865e-22
8.6857,1.74689,0.05,0.0257132,0.00312362,3.17282e-22
8.6857,1.7494,0.05,0.0257314,0.00311598,6.16203e-23
8.6857,1.75191,0.05,0.0257496,0.00310835,-1.94041e-22
8.6857,1.75441,0.05,0.0257678,0.00310072,-4.49703e-22
8.6857,1.75692,0.05,0.025786,0.00309309,-7.05365e-22
8.6857,1.75943,0.05,0.0258042,0.00308546,-9.61026e-22
8.6857,1.76194,0.05,0.0258223,0.00307783,-1.21669e-21
8.6857,1.76445,0.05,0.0258405,0.0030702,-1.47235e-21
8.6857,1.76695,0.05,0.0258584,0.00306137,-1.72097e-21
8.6857,1.76946,0.05,0.0258761,0.00305158,-1.96397e-21
8.6857,1.77197,0.05,0.0258931,0.00304448,-1.86763e-21
8.6857,1.77448,0.05,0.0259099,0.00303855,-1.62484e-21
8.6857,1.77699,0.05,0.0259272,0.00303133,-1.42121e-21
8.6857,1.77949,0.05,0.0259446,0.00302389,-1.22472e-21
8.6857,1.782,0.05,0.025962,0.00301644,-1.02822e-21
8.6857,1.78451,0.05,0.0259794,0.00300899,-8.31725e-22
8.6857,1.78702,0.05,0.0259968,0.00300154,-6.3523e-22
8.6857,1.78953,0.05,0.0260142,0.00299409,-4.38734e-22
8.6857,1.79203,0.05,0.0260316,0.00298664,-2.42239e-22
8.6857,1.79454,0.05,0.026049,0.0029792,-4.57431e-23
8.6857,1.79705,0.05,0.0260662,0.00297084,8.94184e-23
8.6857,1.79956,0.05,0.0260831,0.00296135,1.47476e-22
8.6857,1.80207,0.05,0.0260994,0.00295411,1.3432e-22
8.6857,1.80457,0.05,0.0261154,0.00294828,7.61123e-23
8.6857,1.80708,0.05,0.0261319,0.00294131,1.31334e-22
8.6857,1.80959,0.05,0.0261485,0.00293404,2.16878e-22
8.6857,1.8121,0.05,0.0261652,0.00292676,3.02423e-22
8.6857,1.81461,0.05,0.0261818,0.00291949,3.87968e-22
8.6857,1.81711,0.05,0.0261984,0.00291221,4.73512e-22
8.6857,1.81962,0.05,0.026215,0.00290494,5.59057e-22
8.6857,1.82213,0.05,0.0262316,0.00289766,6.44601e-22
8.6857,1.82464,0.05,0.0262483,0.00289038,7.30146e-22
8.6857,1.82715,0.05,0.0262647,0.00288251,8.03092e-22
8.6857,1.82965,0.05,0.0262807,0.0028733,8.48315e-22
8.6857,1.83216,0.05,0.0262964,0.00286588,8.48961e-22
8.6857,1.83467,0.05,0.0263117,0.00286016,8.07123e-22
8.6857,1.83718,0.05,0.0263273,0.00285343,7.1009e-22
8.6857,1.83969,0.05,0.0263431,0.00284632,5.91669e-22
8.6857,1.84219,0.05,0.0263589,0.00283921,4.73247e-22
8.6857,1.8447,0.05,0.0263748,0.0028321,3.54826e-22
8.6857,1.84721,0.05,0.0263906,0.00282499,2.36404e-22
8.6857,1.84972,0.05,0.0264064,0.00281788,1.17983e-22
8.6857,1.85223,0.05,0.0264222,0.00281076,-4.38467e-25
8.6857,1.85473,0.05,0.026438,0.00280365,-1.1886e-22
8.6857,1.85724,0.05,0.0264537,0.00279622,-2.0824e-22
8.6857,1.85975,0.05,0.0264688,0.00278728,-1.62477e-22
8.6857,1.86226,0.05,0.0264838,0.0027797,9.38591e-23
8.6857,1.86477,0.05,0.0264983,0.00277408,6.53837e-22
8.6857,1.86727,0.05,0.0265131,0.00276758,9.0323e-22
8.6857,1.86978,0.05,0.0265281,0.00276062,9.87685e-22
8.6857,1.87229,0.05,0.0265431,0.00275366,1.07214e-21
8.6857,1.8748,0.05,0.0265581,0.00274671,1.1566e-21
8.6857,1.87731,0.05,0.0265731,0.00273975,1.24105e-21
8.6857,1.87981,0.05,0.0265881,0.00273279,1.3255e-21
8.6857,1.88232,0.05,0.026603,0.00272583,1.40996e-21
8.6857,1.88483,0.05,0.026618,0.00271888,1.49441e-21
8.6857,1.88734,0.05,0.026633,0.00271183,1.55043e-21
8.6857,1.88985,0.05,0.0266473,0.00270315,1.05507e-21
8.6857,1.89235,0.05,0.0266615,0.00269546,4.84803e-22
8.6857,1.89486,0.05,0.0266752,0.00268993,-2.46501e-22
8.6857,1.89737,0.05,0.0266893,0.00268363,-5.67459e-22
8.6857,1.89988,0.05,0.0267034,0.00267681,-6.13365e-22
8.6857,1.90239,0.05,0.0267176,0.00267,-6.59271e-22
8.6857,1.90489,0.05,0.0267317,0.00266319,-7.05176e-22
8.6857,1.9074,0.05,0.0267459,0.00265637,-7.51082e-22
8.6857,1.90991,0.05,0.02676,0.00264956,-7.96988e-22
8.6857,1.91242,0.05,0.0267742,0.00264275,-8.42894e-22
8.6857,1.91493,0.05,0.0267883,0.00263594,-8.888e-22
8.6857,1.91743,0.05,0.0268025,0.00262912,-9.34706e-22
8.6857,1.91994,0.05,0.026816,0.00262077,-4.67967e-22
8.6857,1.92245,0.05,0.0268294,0.00261307,-6.37127e-23
8.6857,1.92496,0.05,0.0268424,0.00260761,5.53457e-23
8.6857,1.92747,0.05,0.0268556,0.00260146,7.16942e-23
8.6857,1.92997,0.05,0.0268689,0.00259478,1.04732e-23
8.6857,1.93248,0.05,0.0268822,0.00258811,-5.07479e-23
8.6857,1.93499,0.05,0.0268955,0.00258143,-1.11969e-22