/*--------------------------------*- C++ -*----------------------------------*\
| =========                 |                                                 |
| \\      /  F ield         | OpenFOAM: The Open Source CFD Toolbox           |
|  \\    /   O peration     | Version:  2.4.0                                 |
|   \\  /    A nd           | Web:      www.OpenFOAM.org                      |
|    \\/     M anipulation  |                                                 |
\*---------------------------------------------------------------------------*/
FoamFile
{
    version     2.0;
    format      ascii;
    class       volScalarField;
    location    "310";
    object      nut;
}
// * * * * * * * * * * * * * * * * * * * * * * * * * * * * * * * * * * * * * //

dimensions      [0 2 -1 0 0 0 0];

internalField   nonuniform List<scalar> 
19650
(
0.015256324
0.015242782
0.015229909
0.015217806
0.015206548
0.015196203
0.015186828
0.015178479
0.015171202
0.015165038
0.015160024
0.015156188
0.015153556
0.015152144
0.015151967
0.015153033
0.015155346
0.015158906
0.015163708
0.015169744
0.015177004
0.015185473
0.015195134
0.015205968
0.015217952
0.015231064
0.015245278
0.015260567
0.015276906
0.015294265
0.015312618
0.015331935
0.015352189
0.015373354
0.015395404
0.015418314
0.015442064
0.015466636
0.015492014
0.015518162
0.015544989
0.015572406
0.015600833
0.015632174
0.015665128
0.015690868
0.01570876
0.015723387
0.015733474
0.01573772
0.015736988
0.015731125
0.0157204
0.01570521
0.015686108
0.015663816
0.015639105
0.01561274
0.01558556
0.015558205
0.015531824
0.015507832
0.01548751
0.015472069
0.015462672
0.015549411
0.015522007
0.015495708
0.015470557
0.015446597
0.01542387
0.015402414
0.015382264
0.015363449
0.015345995
0.015329921
0.01531524
0.015301962
0.01529009
0.015279624
0.015270559
0.015262885
0.015256591
0.015251661
0.015248077
0.015245818
0.015244862
0.015245184
0.015246757
0.015249555
0.015253551
0.015258717
0.015265026
0.015272449
0.015280962
0.01529054
0.01530116
0.015312802
0.015325447
0.015339082
0.015353696
0.015369283
0.015385844
0.015403383
0.01542189
0.015441309
0.015461607
0.015483288
0.015508207
0.015534599
0.015552832
0.015565108
0.015576166
0.015583243
0.015586986
0.015587426
0.015584258
0.015577685
0.015568016
0.015555743
0.015541435
0.015525741
0.015509407
0.015493182
0.015477638
0.01546387
0.01545321
0.015446853
0.015445921
0.015451497
0.015934078
0.015891451
0.015850337
0.015810769
0.015772773
0.01573637
0.015701584
0.015668432
0.015636928
0.01560708
0.015578892
0.015552362
0.015527482
0.015504241
0.015482622
0.015462605
0.015444168
0.015427283
0.015411922
0.015398055
0.015385648
0.015374668
0.01536508
0.015356849
0.015349938
0.015344315
0.015339943
0.015336792
0.01533483
0.015334029
0.015334363
0.01533581
0.015338351
0.015341974
0.015346668
0.015352431
0.015359267
0.015367188
0.015376212
0.015386346
0.015397561
0.015409869
0.015423848
0.015441299
0.015460034
0.015469758
0.015475115
0.015480513
0.015483995
0.015486372
0.015486868
0.015485333
0.015481907
0.015476819
0.015470517
0.015463252
0.015455813
0.01544878
0.015442849
0.015438525
0.015436839
0.015439032
0.015446204
0.015459364
0.015479506
0.016401676
0.016343514
0.016287225
0.01623284
0.016180362
0.016129801
0.016081172
0.016034487
0.015989753
0.015946968
0.015906123
0.015867206
0.015830196
0.015795068
0.015761792
0.015730337
0.015700664
0.015672735
0.015646508
0.015621941
0.015598988
0.015577605
0.015557745
0.015539364
0.015522416
0.015506857
0.015492647
0.015479745
0.015468114
0.015457721
0.015448536
0.015440535
0.015433697
0.015428008
0.01542346
0.015420053
0.015417794
0.015416701
0.0154168
0.015418105
0.015420607
0.015424357
0.015429992
0.015439238
0.015449546
0.015449848
0.015447496
0.015445905
0.015445083
0.015444809
0.015444262
0.015443277
0.015441918
0.01544037
0.015438927
0.015437733
0.015437606
0.015439008
0.015442567
0.015448718
0.015458417
0.015472792
0.01549285
0.015519441
0.015553442
0.016938587
0.016865901
0.016795247
0.016726706
0.016660282
0.016596003
0.016533893
0.016473962
0.016416216
0.016360653
0.016307261
0.016256022
0.01620691
0.016159892
0.016114929
0.016071982
0.016031004
0.015991946
0.015954759
0.01591939
0.015885785
0.01585389
0.01582365
0.015795011
0.015767921
0.015742327
0.015718182
0.015695437
0.015674051
0.015653983
0.015635201
0.015617672
0.015601376
0.015586294
0.015572417
0.015559744
0.015548281
0.015538048
0.015529069
0.015521364
0.015514928
0.015509843
0.015506793
0.015507456
0.015509045
0.01549934
0.015487131
0.015478619
0.015473268
0.015469427
0.015466847
0.015465387
0.015465072
0.015465965
0.015468211
0.015472265
0.015478544
0.015487512
0.015499724
0.015515527
0.015535775
0.015561461
0.015593433
0.015632408
0.0156791
0.017529916
0.017444518
0.01736138
0.017280487
0.017201694
0.017125065
0.017050681
0.016978581
0.016908792
0.016841312
0.016776133
0.016713238
0.016652604
0.016594199
0.016537985
0.016483919
0.016431955
0.01638204
0.016334122
0.016288145
0.016244052
0.016201784
0.016161284
0.016122492
0.016085352
0.016049807
0.016015803
0.01598329
0.015952219
0.015922549
0.015894239
0.015867258
0.015841578
0.015817179
0.01579405
0.015772186
0.015751594
0.015732291
0.0157143
0.015697637
0.015682303
0.015668417
0.015656755
0.015648786
0.015639561
0.015620019
0.015600071
0.015584275
0.015573242
0.015565224
0.015559935
0.015557273
0.015557289
0.015559675
0.015564959
0.01557342
0.015585318
0.015601019
0.01562097
0.015645395
0.015675012
0.015710657
0.015752994
0.015802588
0.015859996
0.018539598
0.018446306
0.01835175
0.01825662
0.018161671
0.018067021
0.01797394
0.017882888
0.017793785
0.017706873
0.017622134
0.01753955
0.017459201
0.017381123
0.017305338
0.01723184
0.017160614
0.017091637
0.017024884
0.016960323
0.016897913
0.016837611
0.016779371
0.016723142
0.016668871
0.016616503
0.016565982
0.01651725
0.016470253
0.016424933
0.016381238
0.016339114
0.016298514
0.016259392
0.016221709
0.016185429
0.016150524
0.016116973
0.016084762
0.016053884
0.016024347
0.015996167
0.015969367
0.015943967
0.015919984
0.015897561
0.015877563
0.015861449
0.015842582
0.015813505
0.015785816
0.015763058
0.015746529
0.015734479
0.015726553
0.015722681
0.015722576
0.015726475
0.015734457
0.015746715
0.015763399
0.015784732
0.015811019
0.015842337
0.015879258
0.015922497
0.01597252
0.016029819
0.016094828
0.019089425
0.019118703
0.019148933
0.019180322
0.019092511
0.018999201
0.018905911
0.018810823
0.018714578
0.018617593
0.018521045
0.018424316
0.018328925
0.018235436
0.018143987
0.01805462
0.017967263
0.017881979
0.017798831
0.017717845
0.017639032
0.01756238
0.017487876
0.017415502
0.017345233
0.017277038
0.017210882
0.017146723
0.017084518
0.017024218
0.016965774
0.016909137
0.016854256
0.016801079
0.016749558
0.016699647
0.016651302
0.016604482
0.016559154
0.016515287
0.016472861
0.016431859
0.016392276
0.016354116
0.016317397
0.016282145
0.016248375
0.016216107
0.01618556
0.016157911
0.01613425
0.016103603
0.016069213
0.016035672
0.016007618
0.015987221
0.015972688
0.015963535
0.01595961
0.015960005
0.015965652
0.01597613
0.015991479
0.01601172
0.016036946
0.016067349
0.016102904
0.016144112
0.016191524
0.016245681
0.016307007
0.016375919
0.019289255
0.019313319
0.019338482
0.019364745
0.019392131
0.019420552
0.019449906
0.019480048
0.01945436
0.01935429
0.019255874
0.019157437
0.019057833
0.01895791
0.018857562
0.01875783
0.018659735
0.018563488
0.018469239
0.018376924
0.018286563
0.018198248
0.018112019
0.018027902
0.0179459
0.017866007
0.017788213
0.017712503
0.017638852
0.01756723
0.017497602
0.017429929
0.017364168
0.017300276
0.017238208
0.017177921
0.017119371
0.017062517
0.01700732
0.016953746
0.016901766
0.016851359
0.016802506
0.016755199
0.01670944
0.016665245
0.016622635
0.01658162
0.016542256
0.01650496
0.016470477
0.016435236
0.01639933
0.016359218
0.016320644
0.016287951
0.016263906
0.016246678
0.016235576
0.016229485
0.016229334
0.016234538
0.016244874
0.016260341
0.016280885
0.016306558
0.016337522
0.016373744
0.016415743
0.016463984
0.016519141
0.016581667
0.016652056
0.019563524
0.019581961
0.019601794
0.019622977
0.019645472
0.01966923
0.019694189
0.019720281
0.019747444
0.019775568
0.019804474
0.019747352
0.01963968
0.019534967
0.019430008
0.019324534
0.019219242
0.019113986
0.019010264
0.018908509
0.018808891
0.018711389
0.018615938
0.018522609
0.018431452
0.018342496
0.01825575
0.0181712
0.018088834
0.018008633
0.01793057
0.017854616
0.017780734
0.017708889
0.017639039
0.017571144
0.017505166
0.017441066
0.017378804
0.017318349
0.017259672
0.017202749
0.01714756
0.017094092
0.017042344
0.016992326
0.016944055
0.016897543
0.016852815
0.016810052
0.016769912
0.016733298
0.016697104
0.016652076
0.016607151
0.016567729
0.016537244
0.016513755
0.016495691
0.016484244
0.016478818
0.016479078
0.016484906
0.016496349
0.016513396
0.016536151
0.016564828
0.016599412
0.016640438
0.016688436
0.016744098
0.016807882
0.016880261
0.019890853
0.019903634
0.019917941
0.019933741
0.019950998
0.019969669
0.019989703
0.020011046
0.020033635
0.020057402
0.020082272
0.020108177
0.020134956
0.020127741
0.020011296
0.019896851
0.019783963
0.019670735
0.019558288
0.019445939
0.019335122
0.019226607
0.019120509
0.019016852
0.018915511
0.018816525
0.018719942
0.018625766
0.018533995
0.018444599
0.018357553
0.018272829
0.018190392
0.01811021
0.018032244
0.017956453
0.0178828
0.017811247
0.017741752
0.017674282
0.017608809
0.017545308
0.017483752
0.01742412
0.017366403
0.017310603
0.017256727
0.017204775
0.01715476
0.017106773
0.017061281
0.017019072
0.016977096
0.01693
0.016882898
0.016839968
0.016805273
0.016777002
0.016753086
0.016735503
0.016724261
0.016719233
0.016720419
0.01672796
0.01674193
0.016762502
0.016789991
0.016824387
0.016866012
0.016915591
0.016973757
0.017040833
0.017117193
0.020269829
0.0202771
0.02028596
0.020296384
0.020308343
0.0203218
0.020336715
0.020353041
0.020370725
0.020389706
0.020409919
0.020431293
0.020453752
0.020477244
0.02050165
0.020526754
0.020426925
0.020301934
0.020180188
0.020058518
0.0199375
0.019817323
0.019698434
0.019581962
0.019468138
0.019357128
0.019248798
0.019143075
0.01903999
0.018939526
0.01884168
0.018746422
0.018653706
0.018563497
0.018475753
0.018390431
0.018307496
0.018226908
0.018148617
0.018072587
0.017998792
0.017927203
0.01785778
0.017790492
0.01772532
0.01766226
0.017601305
0.017542435
0.017485615
0.017430867
0.017378634
0.017329709
0.017281249
0.017228281
0.017175958
0.017128333
0.017089555
0.017057734
0.017032036
0.01701265
0.016999725
0.016993297
0.016993462
0.017000456
0.017014427
0.017035577
0.017064115
0.017100281
0.017144447
0.01719709
0.017258821
0.01733005
0.017411058
0.020685405
0.02068743
0.020691033
0.020696199
0.020702907
0.020711133
0.020720846
0.020732006
0.020744573
0.020758496
0.02077372
0.020790182
0.020807815
0.020826547
0.020846302
0.020867024
0.020888645
0.020911007
0.02086616
0.020733087
0.020603187
0.020474172
0.020345219
0.020217763
0.020091107
0.019966919
0.019845603
0.019727298
0.019611947
0.019499369
0.019389623
0.019282703
0.019178568
0.019077209
0.018978567
0.018882585
0.018789241
0.01869849
0.018610265
0.01852453
0.018441269
0.018360448
0.018282009
0.018205905
0.018132114
0.01806063
0.017991441
0.01792451
0.017859772
0.017797208
0.017737232
0.017680674
0.017624818
0.017564826
0.017506278
0.017453291
0.017410097
0.017374698
0.017346308
0.017325014
0.017310913
0.017303963
0.017304203
0.017311818
0.017326912
0.017349658
0.017380272
0.017418887
0.017465991
0.017522024
0.017587526
0.017662905
0.017748471
0.021111781
0.021108854
0.021107448
0.021107557
0.021109168
0.021112263
0.02111682
0.021122812
0.021130204
0.02113896
0.021149033
0.021160374
0.021172926
0.021186625
0.021201403
0.021217189
0.02123391
0.021251499
0.021269915
0.021289046
0.021296285
0.02115921
0.021023019
0.020888513
0.020753664
0.020619933
0.02048731
0.020356779
0.02022907
0.020104269
0.019982722
0.019864219
0.019748615
0.019635991
0.019526283
0.019419429
0.01931546
0.019214324
0.019115911
0.01902019
0.01892717
0.018836815
0.018749036
0.018663766
0.018580991
0.018500717
0.018422931
0.018347582
0.018274579
0.018203879
0.018135882
0.018071452
0.01800796
0.017940659
0.017875463
0.017816593
0.017768432
0.017728904
0.01769718
0.01767334
0.017657383
0.017649241
0.017648938
0.017656624
0.017672366
0.017696323
0.017728756
0.017769702
0.01781965
0.017879084
0.017948525
0.018028304
0.018118752
0.021526358
0.021517534
0.021510148
0.021504197
0.021499675
0.021496576
0.021494888
0.021494597
0.021495683
0.021498123
0.02150189
0.02150695
0.021513266
0.021520794
0.021529483
0.021539278
0.021550117
0.021561931
0.021574652
0.021588208
0.021602533
0.021617585
0.021633296
0.021649533
0.021557092
0.021417416
0.02128003
0.021142195
0.021004114
0.020867726
0.020732467
0.020600039
0.020470542
0.020344054
0.020220929
0.020100835
0.019983625
0.019869495
0.019758404
0.019650169
0.019544784
0.019442332
0.019342769
0.019245943
0.019151758
0.019060225
0.018971385
0.018885233
0.018801691
0.01872064
0.018642014
0.018566216
0.018494152
0.018423255
0.018348806
0.018276996
0.018212174
0.018158886
0.018114975
0.018079595
0.018052824
0.018034636
0.018024939
0.018023733
0.018031146
0.018047236
0.018072169
0.018106232
0.018149474
0.018202394
0.018265464
0.018339201
0.018423978
0.018520194
0.021903085
0.021889512
0.021877188
0.021866134
0.021856365
0.021847893
0.02184072
0.021834848
0.021830272
0.021826984
0.021824972
0.021824218
0.021824701
0.021826396
0.021829271
0.021833289
0.021838409
0.021844582
0.021851755
0.021859867
0.021868854
0.021878649
0.021889185
0.021900397
0.021912235
0.021924654
0.021937576
0.021913674
0.021775705
0.021638363
0.021500508
0.021361842
0.021223305
0.021086288
0.020950965
0.020818685
0.02068914
0.020562364
0.020439078
0.020319023
0.020201762
0.020087371
0.019976121
0.019867977
0.019762671
0.019660065
0.019560241
0.019463313
0.019369284
0.019278037
0.019189398
0.019103287
0.019020125
0.018940879
0.018863037
0.018781864
0.018703793
0.018633306
0.018575116
0.018526992
0.018488088
0.018458509
0.018438228
0.018427156
0.018425276
0.018432703
0.018449494
0.018475846
0.018512104
0.01855838
0.018615223
0.018683088
0.018762507
0.018854012
0.018958233
0.022226928
0.022209501
0.022193175
0.022177968
0.022163898
0.022150982
0.022139231
0.022128656
0.022119264
0.022111056
0.022104032
0.022098189
0.022093518
0.022090007
0.022087641
0.0220864
0.02208626
0.022087191
0.022089159
0.022092123
0.022096038
0.022100852
0.022106509
0.022112947
0.022120104
0.022127917
0.022136322
0.022145268
0.022154711
0.022164609
0.022174889
0.022093596
0.021959445
0.021826175
0.021690624
0.021554283
0.021417776
0.021282832
0.021149122
0.021018577
0.020891024
0.020765765
0.020643317
0.02052437
0.02040872
0.020295799
0.020185437
0.020077906
0.019973469
0.019872156
0.019773776
0.019678057
0.019584909
0.019494818
0.019408842
0.019324526
0.019237107
0.019153279
0.019077678
0.019015153
0.018963392
0.018921568
0.018889828
0.018868168
0.018856518
0.018854859
0.018863289
0.018881883
0.01891091
0.018950835
0.019001912
0.01906481
0.019139977
0.019228006
0.019329845
0.019446602
0.022557458
0.022534547
0.022512465
0.022491248
0.022470923
0.022451529
0.022433093
0.022415638
0.022399185
0.022383753
0.022369359
0.022356015
0.022343733
0.022332522
0.022322385
0.022313325
0.022305342
0.022298431
0.022292586
0.022287794
0.022284042
0.022281311
0.022279579
0.022278816
0.022278992
0.022280067
0.022281998
0.022284739
0.022288235
0.02229243
0.022297266
0.022302684
0.022308625
0.022315042
0.02232189
0.022329119
0.022336712
0.022344603
0.022244444
0.022118283
0.021991857
0.021862378
0.021731328
0.021600106
0.021469561
0.021340197
0.021212479
0.021088125
0.020966828
0.020847657
0.020730602
0.020616478
0.020505671
0.020398146
0.020293544
0.020191439
0.020091792
0.019995256
0.019903027
0.019812719
0.019719549
0.019630565
0.019550578
0.019484516
0.019429958
0.019386135
0.019353264
0.019331392
0.019320491
0.019320549
0.01933165
0.01935393
0.019387814
0.019433983
0.019492964
0.019565634
0.019652262
0.019753616
0.019871808
0.020008836
0.02274119
0.022717412
0.022694324
0.022671962
0.022650357
0.022629541
0.022609544
0.022590391
0.022572107
0.022554714
0.022538231
0.022522676
0.022508063
0.022494404
0.022481709
0.022469986
0.022459239
0.022449471
0.022440679
0.022432862
0.022426012
0.022420118
0.022415169
0.022411146
0.022408028
0.022405789
0.022404398
0.02240382
0.022404016
0.022404941
0.022406546
0.02240878
0.02241159
0.022414924
0.022418729
0.022422955
0.022427567
0.022432524
0.022437784
0.022443352
0.022449194
0.022376937
0.022261754
0.022146291
0.022027873
0.021906457
0.021783544
0.021660877
0.021538735
0.021418214
0.02129846
0.021180893
0.021066369
0.02095489
0.020845865
0.020738763
0.020633817
0.020532064
0.020434731
0.020339415
0.020241346
0.02014806
0.020064571
0.019995821
0.01993936
0.019894593
0.019861859
0.019841291
0.019832949
0.019836779
0.019852846
0.019881497
0.019923439
0.019979634
0.020051063
0.02013898
0.020243072
0.020364244
0.02050579
0.020670735
0.022861072
0.022836812
0.022813114
0.022790013
0.022767542
0.022745731
0.02272461
0.022704206
0.022684545
0.022665651
0.022647546
0.022630248
0.022613777
0.022598146
0.022583371
0.022569461
0.022556427
0.022544274
0.022533007
0.022522629
0.022513139
0.022504534
0.022496808
0.022489952
0.022483954
0.022478797
0.022474462
0.022470926
0.022468159
0.022466131
0.022464803
0.022464138
0.02246409
0.022464614
0.022465664
0.022467193
0.022469158
0.022471514
0.022474223
0.022477262
0.022480602
0.022484184
0.022488038
0.022492164
0.022495765
0.022397089
0.022295405
0.022192399
0.022087238
0.021979444
0.021869499
0.021758442
0.021647456
0.021537588
0.02142892
0.021322086
0.021216413
0.021113242
0.021013871
0.020915915
0.020814755
0.020718601
0.020632761
0.020562322
0.020505049
0.020460769
0.0204299
0.020412672
0.02040934
0.02041973
0.020443884
0.020482358
0.020536173
0.020606356
0.020694213
0.020801284
0.020927054
0.021073933
0.021240063
0.021426139
0.022920389
0.022895939
0.022871936
0.022848413
0.022825402
0.022802933
0.022781036
0.022759738
0.022739067
0.022719046
0.022699699
0.022681047
0.02266311
0.022645906
0.022629451
0.022613759
0.022598842
0.022584712
0.022571376
0.022558842
0.022547114
0.022536194
0.022526083
0.022516778
0.022508274
0.022500562
0.022493633
0.022487472
0.02248206
0.022477377
0.022473397
0.022470091
0.022467427
0.02246537
0.022463882
0.022462923
0.022462454
0.022462435
0.02246283
0.022463604
0.022464725
0.022466159
0.022467897
0.022469924
0.022472203
0.02247471
0.022477482
0.022480532
0.022483853
0.022438711
0.022353879
0.02226783
0.02217957
0.022089717
0.021998689
0.021906106
0.021812279
0.021717959
0.021624541
0.0215303
0.02143098
0.021335675
0.021250773
0.021182412
0.021127689
0.021086798
0.021060318
0.02104866
0.021052407
0.021071597
0.021107174
0.021158508
0.021225898
0.021309568
0.021409618
0.021526671
0.021658643
0.021801376
0.02195325
0.022116684
0.022922579
0.022898158
0.022874079
0.022850375
0.022827076
0.022804213
0.022781813
0.022759905
0.022738516
0.022717669
0.02269739
0.022677701
0.022658622
0.022640173
0.022622372
0.022605237
0.022588781
0.022573018
0.02255796
0.022543618
0.022529999
0.022517111
0.022504958
0.022493544
0.022482868
0.022472929
0.022463724
0.022455245
0.022447484
0.022440427
0.022434059
0.022428361
0.022423311
0.022418884
0.022415052
0.022411785
0.022409051
0.022406818
0.022405052
0.022403722
0.022402798
0.022402251
0.022402059
0.022402202
0.022402655
0.022403403
0.022404451
0.022405799
0.022407435
0.022409298
0.022411429
0.02241386
0.022416607
0.022419679
0.022423065
0.022367918
0.022300307
0.022231959
0.022162852
0.022091154
0.022012158
0.021934216
0.021864217
0.021808012
0.021763842
0.021731878
0.021712935
0.02170768
0.021716762
0.021740335
0.021777699
0.021828273
0.021891043
0.021964645
0.022047714
0.02214361
0.022247697
0.022229133
0.022194623
0.022157575
0.022871059
0.022846827
0.022822845
0.022799142
0.022775749
0.022752694
0.022730006
0.02270771
0.022685835
0.022664404
0.022643441
0.022622971
0.022603014
0.022583591
0.022564723
0.022546425
0.022528717
0.022511613
0.022495128
0.022479275
0.022464064
0.022449507
0.022435613
0.022422386
0.022409835
0.022397961
0.022386766
0.02237625
0.02236641
0.022357241
0.022348734
0.022340881
0.022333666
0.022327075
0.022321089
0.022315687
0.022310845
0.02230654
0.022302745
0.022299434
0.022296581
0.022294162
0.022292153
0.022290534
0.022289286
0.022288392
0.022287845
0.022287638
0.022287761
0.022288195
0.022288949
0.022290036
0.022291469
0.022293253
0.022295367
0.022297762
0.022300475
0.022303508
0.022306808
0.022310239
0.022313282
0.022314801
0.022314167
0.02227906
0.022249075
0.02222825
0.022216507
0.022214219
0.022222908
0.022241887
0.022224973
0.022202475
0.022177247
0.022149231
0.02211838
0.022084655
0.02204804
0.022008417
0.021965934
0.021920701
0.022793211
0.022769148
0.022745223
0.022721464
0.022697901
0.02267456
0.02265147
0.022628658
0.022606149
0.022583971
0.022562147
0.022540701
0.022519657
0.022499037
0.022478863
0.022459154
0.02243993
0.022421209
0.022403009
0.022385345
0.022368233
0.022351687
0.022335719
0.022320342
0.022305565
0.022291397
0.022277846
0.022264918
0.022252617
0.022240946
0.022229905
0.022219494
0.022209708
0.022200541
0.022191986
0.022184032
0.022176666
0.022169874
0.022163639
0.022157942
0.022152764
0.022148086
0.022143887
0.022140149
0.022136852
0.02213398
0.022131519
0.022129456
0.022127783
0.02212649
0.02212557
0.022125021
0.022124847
0.022125055
0.022125647
0.022126619
0.022127955
0.022129659
0.022131719
0.022134078
0.022136588
0.022138586
0.022138606
0.022135961
0.02213056
0.02212241
0.022111498
0.022097801
0.022081288
0.022061925
0.022039662
0.022014386
0.021986068
0.021954679
0.021920181
0.021882544
0.021841745
0.021797821
0.021750825
0.021700854
0.021648013
0.022667277
0.022643639
0.022620039
0.022596504
0.022573062
0.022549738
0.02252656
0.022503554
0.022480746
0.022458161
0.022435824
0.022413759
0.02239199
0.022370541
0.022349433
0.022328688
0.022308327
0.02228837
0.022268837
0.022249746
0.022231114
0.022212959
0.022195295
0.022178139
0.022161503
0.022145402
0.022129845
0.022114846
0.022100412
0.022086552
0.022073274
0.022060582
0.02204848
0.02203697
0.022026052
0.022015726
0.022005986
0.021996827
0.021988243
0.021980223
0.021972756
0.02196583
0.021959432
0.021953548
0.021948162
0.021943262
0.021938834
0.021934865
0.021931344
0.021928263
0.021925613
0.021923388
0.021921586
0.021920206
0.021919249
0.021918718
0.021918613
0.021918929
0.021919662
0.021920792
0.021922255
0.021923889
0.021924884
0.021923462
0.021918901
0.021911141
0.021900173
0.02188599
0.021868582
0.021847937
0.021824043
0.021796872
0.021766382
0.021732547
0.021695346
0.021654756
0.021610764
0.021563373
0.021512666
0.021458769
0.0214018
0.021341882
0.022495952
0.022472938
0.022449876
0.022426789
0.022403704
0.022380644
0.022357635
0.022334703
0.022311871
0.022289165
0.022266608
0.022244226
0.022222042
0.022200078
0.022178358
0.022156904
0.022135738
0.022114881
0.022094353
0.022074174
0.022054365
0.022034943
0.022015926
0.021997332
0.021979178
0.021961478
0.021944249
0.021927504
0.021911256
0.021895518
0.021880302
0.021865617
0.021851473
0.021837878
0.021824838
0.021812358
0.021800442
0.021789091
0.021778307
0.021768088
0.02175843
0.02174933
0.021740781
0.021732776
0.021725307
0.021718365
0.02171194
0.021706025
0.02170061
0.021695686
0.021691246
0.021687284
0.021683796
0.021680778
0.021678229
0.021676149
0.021674538
0.021673399
0.021672729
0.021672522
0.021672757
0.021673363
0.021674161
0.021674203
0.021671408
0.021665022
0.021655001
0.021641342
0.021624049
0.021603127
0.021578582
0.021550421
0.021518644
0.021483242
0.021444215
0.021401558
0.021355266
0.021305346
0.021251823
0.02119482
0.021134508
0.021071038
0.021004557
0.022259694
0.022237335
0.022214874
0.022192333
0.022169736
0.022147105
0.022124465
0.022101839
0.022079249
0.02205672
0.022034275
0.022011937
0.021989729
0.021967673
0.021945792
0.021924108
0.021902643
0.021881418
0.021860453
0.02183977
0.021819388
0.021799326
0.021779604
0.02176024
0.021741251
0.021722656
0.02170447
0.02168671
0.021669392
0.021652529
0.021636135
0.021620225
0.02160481
0.0215899
0.021575508
0.02156164
0.021548306
0.021535513
0.021523264
0.021511564
0.021500416
0.02148982
0.021479776
0.021470283
0.021461338
0.021452938
0.021445078
0.021437754
0.021430961
0.021424695
0.021418951
0.021413725
0.021409014
0.021404818
0.021401133
0.021397962
0.021395304
0.021393161
0.021391532
0.021390413
0.021389777
0.021389555
0.021389551
0.021388681
0.021384581
0.021376462
0.021364294
0.021348088
0.021327859
0.021303629
0.021275421
0.021243264
0.021207179
0.021167186
0.021123306
0.021075558
0.021023956
0.020968527
0.020909318
0.020846489
0.020780245
0.020710769
0.020638235
0.021985015
0.021963317
0.02194147
0.021919494
0.021897411
0.021875241
0.021853007
0.021830731
0.021808435
0.02178614
0.02176387
0.021741646
0.02171949
0.021697425
0.021675472
0.021653653
0.02163199
0.021610504
0.021589215
0.021568144
0.021547313
0.02152674
0.021506445
0.021486448
0.021466768
0.021447423
0.02142843
0.021409809
0.021391575
0.021373745
0.021356336
0.021339362
0.021322838
0.021306778
0.021291196
0.021276103
0.021261511
0.02124743
0.02123387
0.021220839
0.021208344
0.02119639
0.021184982
0.021174124
0.021163817
0.021154065
0.021144866
0.021136221
0.02112813
0.021120592
0.021113606
0.02110717
0.021101286
0.021095953
0.021091171
0.021086942
0.021083268
0.021080149
0.021077588
0.021075577
0.021074094
0.021073065
0.021072284
0.02107054
0.021065195
0.021055435
0.021041239
0.021022632
0.020999644
0.020972313
0.020940681
0.020904795
0.0208647
0.020820436
0.020772048
0.020719576
0.020663055
0.020602533
0.020538078
0.020469881
0.020398183
0.020323192
0.020245107
0.021674675
0.021653636
0.021632407
0.021611004
0.021589449
0.02156776
0.021545959
0.021524065
0.021502099
0.021480082
0.021458036
0.021435981
0.021413939
0.021391931
0.021369979
0.021348103
0.021326325
0.021304667
0.021283148
0.02126179
0.021240614
0.021219639
0.021198886
0.021178376
0.021158127
0.021138159
0.021118492
0.021099143
0.021080132
0.021061476
0.021043193
0.021025301
0.021007816
0.020990754
0.020974131
0.020957961
0.02094226
0.02092704
0.020912314
0.020898093
0.02088439
0.020871212
0.020858569
0.02084647
0.020834919
0.020823924
0.02081349
0.02080362
0.020794318
0.020785588
0.020777431
0.020769852
0.020762851
0.020756433
0.020750599
0.020745352
0.020740697
0.020736635
0.020733168
0.020730292
0.020727984
0.02072617
0.020724635
0.020722047
0.020715516
0.020704203
0.020688098
0.020667237
0.020641668
0.020611443
0.020576623
0.020537274
0.020493461
0.020445244
0.020392691
0.020335862
0.02027481
0.020209605
0.020140336
0.020067224
0.01999054
0.019910517
0.019827378
0.021351492
0.02133135
0.021310963
0.021290347
0.02126952
0.021248499
0.021227304
0.021205951
0.021184461
0.021162853
0.021141147
0.021119362
0.02109752
0.02107564
0.021053743
0.02103185
0.021009982
0.02098816
0.020966404
0.020944735
0.020923175
0.020901743
0.020880461
0.02085935
0.020838429
0.020817719
0.02079724
0.020777012
0.020757056
0.020737389
0.020718033
0.020699006
0.020680326
0.020662012
0.020644083
0.020626555
0.020609445
0.020592771
0.020576549
0.020560793
0.020545518
0.020530738
0.020516467
0.020502716
0.020489497
0.02047682
0.020464696
0.020453132
0.020442137
0.020431719
0.020421883
0.020412638
0.020403987
0.020395937
0.020388494
0.020381662
0.020375446
0.020369853
0.020364885
0.020360548
0.020356836
0.02035373
0.020351156
0.02034889
0.020345492
0.020337832
0.020325054
0.020307158
0.020284192
0.020256217
0.020223305
0.020185531
0.020142981
0.020095738
0.020043884
0.019987504
0.019926679
0.019861481
0.019791999
0.019718343
0.019640761
0.019559551
0.019474972
0.019387267
0.020996304
0.020977122
0.02095765
0.020937902
0.020917892
0.020897636
0.020877151
0.020856453
0.020835559
0.020814488
0.020793257
0.020771885
0.020750392
0.020728796
0.020707117
0.020685375
0.020663591
0.020641784
0.020619975
0.020598185
0.020576434
0.020554744
0.020533134
0.020511627
0.020490242
0.020469
0.020447924
0.020427032
0.020406347
0.020385888
0.020365676
0.020345731
0.020326074
0.020306725
0.020287703
0.020269028
0.020250719
0.020232795
0.020215275
0.020198177
0.020181518
0.020165315
0.020149586
0.020134345
0.020119607
0.020105388
0.020091701
0.020078559
0.020065974
0.020053957
0.02004252
0.020031672
0.020021423
0.020011782
0.020002757
0.019994357
0.01998659
0.019979462
0.019972982
0.019967156
0.019961988
0.019957478
0.019953606
0.019950301
0.019947334
0.019943161
0.019934432
0.019920279
0.01990071
0.019875788
0.019845586
0.019810191
0.019769696
0.019724205
0.019673819
0.019618638
0.019558766
0.019494303
0.019425339
0.01935198
0.019274357
0.019192742
0.019107461
0.019018792
0.018927001
0.020611635
0.020593458
0.020574953
0.020556132
0.020537006
0.020517591
0.020497899
0.020477945
0.020457745
0.020437315
0.020416671
0.02039583
0.020374811
0.02035363
0.020332307
0.020310861
0.02028931
0.020267674
0.020245973
0.020224227
0.020202456
0.020180682
0.020158924
0.020137203
0.020115541
0.020093958
0.020072475
0.020051115
0.020029897
0.020008844
0.019987977
0.019967317
0.019946885
0.019926702
0.019906789
0.019887168
0.019867859
0.019848883
0.01983026
0.019812011
0.019794154
0.019776711
0.019759699
0.019743137
0.019727044
0.019711436
0.019696332
0.019681747
0.019667698
0.019654198
0.019641263
0.019628906
0.01961714
0.019605978
0.019595432
0.019585512
0.019576231
0.019567597
0.019559621
0.019552313
0.019545681
0.019539732
0.019534467
0.019529869
0.01952587
0.019522235
0.019517327
0.019507593
0.019492158
0.019471039
0.01944431
0.019412059
0.019374388
0.019331405
0.019283232
0.019229987
0.019171786
0.019108754
0.019041006
0.01896865
0.01889181
0.018810633
0.018725417
0.01863651
0.018544212
0.018448805
0.0202
0.020182854
0.02016535
0.020147497
0.020129305
0.020110785
0.020091949
0.02007281
0.020053381
0.020033676
0.02001371
0.019993498
0.019973056
0.019952402
0.019931551
0.019910522
0.019889332
0.019868001
0.019846547
0.01982499
0.019803348
0.019781643
0.019759894
0.019738123
0.019716349
0.019694594
0.019672879