/*--------------------------------*- C++ -*----------------------------------*\
| =========                 |                                                 |
| \\      /  F ield         | OpenFOAM: The Open Source CFD Toolbox           |
|  \\    /   O peration     | Version:  2.4.0                                 |
|   \\  /    A nd           | Web:      www.OpenFOAM.org                      |
|    \\/     M anipulation  |                                                 |
\*---------------------------------------------------------------------------*/
FoamFile
{
    version     2.0;
    format      ascii;
    class       volScalarField;
    location    "310";
    object      p;
}
// * * * * * * * * * * * * * * * * * * * * * * * * * * * * * * * * * * * * * //

dimensions      [0 2 -2 0 0 0 0];

internalField   nonuniform List<scalar> 
19650
(
0.077011414
0.078375532
0.079748227
0.081127601
0.082511791
0.083898978
0.085287385
0.086675282
0.088060984
0.089442857
0.090819315
0.092188822
0.093549889
0.094901071
0.096240972
0.097568236
0.09888155
0.10017964
0.10146126
0.1027252
0.10397029
0.10519536
0.10639928
0.10758093
0.1087392
0.10987297
0.11098114
0.11206259
0.1131162
0.1141408
0.11513524
0.11609828
0.11702868
0.11792514
0.11878628
0.11961068
0.12039681
0.12114309
0.12184781
0.12250918
0.12312528
0.12369409
0.12421398
0.12468114
0.12507013
0.12544653
0.12596169
0.12636164
0.12664326
0.12682422
0.12689591
0.12685218
0.12668741
0.12639566
0.12597138
0.1254092
0.12470304
0.12384766
0.12283813
0.12166934
0.12033698
0.11882768
0.11713895
0.11527212
0.11322547
0.076755261
0.078096614
0.079446716
0.080803695
0.082165699
0.083530918
0.084897578
0.086263946
0.087628338
0.08898911
0.09034467
0.091693467
0.093033998
0.094364801
0.095684456
0.096991587
0.098284855
0.099562953
0.10082461
0.1020686
0.10329369
0.10449869
0.10568244
0.10684377
0.10798154
0.10909459
0.11018178
0.11124196
0.11227394
0.11327656
0.11424858
0.11518876
0.11609582
0.11696839
0.1178051
0.11860448
0.11936499
0.120085
0.12076281
0.1213966
0.12198444
0.12252431
0.12301457
0.12345133
0.12381073
0.12415709
0.12463378
0.12499651
0.12523789
0.12537558
0.12540149
0.12530941
0.12509401
0.12474967
0.12427129
0.12365394
0.12289204
0.121981
0.12091654
0.11969426
0.11831053
0.11675327
0.11502084
0.11311543
0.11103627
0.076493866
0.07781052
0.079136009
0.080468473
0.081806084
0.08314704
0.084489579
0.085831977
0.087172552
0.088509664
0.089841716
0.091167153
0.092484463
0.093792172
0.095088846
0.096373089
0.097643542
0.098898877
0.1001378
0.10135905
0.10256137
0.10374355
0.10490438
0.10604268
0.10715725
0.10824691
0.1093105
0.1103468
0.11135463
0.11233276
0.11327993
0.11419488
0.11507628
0.11592275
0.11673288
0.11750519
0.11823812
0.11893003
0.11957921
0.12018384
0.12074199
0.12125165
0.12171118
0.12211667
0.12244582
0.12276131
0.12319786
0.12352133
0.1237212
0.12381492
0.12379465
0.12365428
0.12338875
0.12299285
0.12246189
0.1217914
0.12097644
0.12001302
0.11889753
0.11762629
0.1161964
0.11459705
0.11282746
0.1108906
0.10878661
0.076225874
0.077516034
0.078815013
0.080120978
0.081432115
0.08274664
0.084062807
0.085378905
0.086693265
0.088004254
0.089310282
0.090609793
0.091901272
0.093183239
0.094454251
0.095712901
0.096957814
0.098187645
0.099401081
0.10059683
0.10177363
0.10293024
0.10406541
0.10517794
0.10626661
0.10733022
0.10836754
0.10937737
0.11035846
0.11130958
0.11222944
0.11311673
0.11397012
0.11478822
0.11556959
0.11631272
0.11701607
0.11767798
0.11829675
0.11887056
0.11939751
0.11987562
0.12030325
0.1206765
0.12097462
0.12125811
0.12165251
0.12193481
0.12209216
0.12214127
0.1220746
0.12188621
0.12157142
0.12112537
0.12054379
0.11982277
0.11895798
0.11794606
0.11678407
0.11546905
0.11399879
0.11236381
0.11056409
0.10860336
0.10648255
0.075951295
0.077213239
0.07848386
0.079761402
0.081044067
0.082330077
0.083617704
0.084905256
0.086191082
0.087473567
0.088751128
0.090022218
0.091285324
0.092538966
0.093781697
0.095012103
0.0962288
0.097430432
0.098615669
0.099783209
0.10093177
0.10206007
0.10316688
0.10425095
0.10531104
0.10634591
0.10735435
0.10833509
0.10928689
0.11020848
0.11109856
0.1119558
0.11277885
0.11356629
0.1143167
0.11502855
0.1157003
0.11633029
0.11691685
0.11745816
0.11795236
0.1183975
0.11879201
0.11913206
0.11939811
0.11964797
0.11999831
0.12023796
0.12035184
0.12035576
0.12024265
0.12000685
0.11964398
0.11914958
0.11851983
0.11775138
0.11684053
0.11578452
0.11458107
0.11322793
0.11172358
0.11005981
0.10823737
0.1062606
0.1041312
0.07567107
0.076903204
0.078143782
0.079391096
0.080643352
0.081898805
0.083155775
0.084412591
0.085667625
0.086919279
0.088165988
0.089406218
0.090638464
0.09186125
0.093073133
0.094272696
0.095458551
0.096629338
0.097783719
0.098920377
0.10003802
0.10113536
0.10221113
0.10326408
0.10429295
0.10529649
0.10627345
0.10722256
0.10814256
0.10903216
0.10989004
0.11071487
0.11150527
0.11225985
0.11297715
0.11365566
0.11429383
0.11489004
0.11544261
0.11594977
0.11640968
0.11682045
0.11718053
0.11748619
0.11771904
0.11793388
0.11823862
0.1184342
0.11850369
0.11846198
0.11830266
0.11802033
0.11761087
0.11707025
0.11639521
0.11558288
0.11463013
0.11353483
0.11229534
0.11091007
0.10937819
0.10769274
0.10585515
0.10387031
0.10174059
0.070706891
0.071857679
0.073020513
0.074197699
0.075388116
0.076588351
0.077796819
0.079012094
0.08023212
0.081455062
0.082679293
0.083903189
0.085125185
0.086343712
0.087557218
0.088764184
0.089963118
0.091152558
0.092331067
0.093497235
0.094649676
0.095787027
0.096907949
0.09801112
0.099095235
0.10015901
0.10120115
0.10222041
0.1032155
0.10418518
0.10512816
0.10604319
0.10692896
0.10778419
0.10860756
0.10939771
0.11015328
0.11087286
0.111555
0.11219821
0.11280094
0.1133616
0.11387853
0.11434999
0.1147742
0.1151493
0.11547381
0.11574395
0.11594252
0.1161214
0.11637946
0.11652962
0.11655404
0.11646669
0.11626171
0.11593398
0.11547969
0.11489529
0.11417804
0.11332553
0.11233522
0.11120557
0.10993557
0.10852429
0.10697156
0.1052716
0.10342649
0.10144157
0.099319765
0.067417332
0.068448845
0.06950488
0.070582837
0.071681793
0.072801672
0.073944648
0.075104423
0.076271475
0.077445942
0.078627347
0.079812741
0.0810009
0.082190309
0.083379155
0.084565886
0.085748973
0.086926914
0.088098228
0.089261434
0.090415082
0.091557749
0.092688035
0.093804563
0.094905974
0.095990929
0.097058107
0.0981062
0.099133915
0.10013997
0.10112308
0.10208198
0.1030154
0.10392205
0.10480067
0.10564995
0.10646859
0.10725528
0.10800866
0.10872736
0.10940999
0.11005509
0.11066121
0.1112268
0.11175032
0.11223012
0.11266454
0.11305184
0.11339028
0.11367845
0.11391217
0.11407597
0.11421882
0.11442991
0.11453417
0.11451351
0.11438102
0.11413132
0.11375957
0.11326239
0.11263681
0.1118805
0.11099155
0.10996801
0.10880898
0.10751402
0.10608285
0.10451594
0.10280866
0.10096363
0.098986519
0.096880705
0.066533079
0.067506709
0.068501147
0.069511301
0.070535127
0.07157904
0.072645723
0.073730884
0.074832653
0.075951376
0.077088879
0.078236677
0.079385609
0.080536607
0.081688589
0.082839854
0.083989092
0.085134564
0.086274701
0.087408065
0.088533216
0.089648752
0.09075326
0.091845348
0.092923648
0.093986807
0.095033494
0.09606239
0.097072188
0.098061595
0.099029325
0.099974097
0.10089464
0.10178966
0.1026579
0.10349806
0.10430886
0.10508898
0.10583711
0.1065519
0.10723199
0.10787598
0.10848246
0.10904997
0.10957701
0.11006205
0.11050352
0.11089978
0.11124918
0.11155
0.11180063
0.11199749
0.1121278
0.11223655
0.11240251
0.11246202
0.11239765
0.11222182
0.11192956
0.11151648
0.11097983
0.11031708
0.10952634
0.10860624
0.10755543
0.10637355
0.10506076
0.10361733
0.10204427
0.10033796
0.098501471
0.096540699
0.094459314
0.066644939
0.067587443
0.068548911
0.069527419
0.070521723
0.07153177
0.072555022
0.073585592
0.074627014
0.075686098
0.076760893
0.077849562
0.078953235
0.080066689
0.081180754
0.082293023
0.083403201
0.084509253
0.085610088
0.086704193
0.08778997
0.088866037
0.089931009
0.090983537
0.092022265
0.093045843
0.094052945
0.095042256
0.096012478
0.09696232
0.097890499
0.098795735
0.099676751
0.10053227
0.10136102
0.1021617
0.10293303
0.10367372
0.10438243
0.10505783
0.10569858
0.10630329
0.10687056
0.10739896
0.10788703
0.10833328
0.10873616
0.10909411
0.10940555
0.10966873
0.10988211
0.11004291
0.11013944
0.11021283
0.11033444
0.11035073
0.11024518
0.11002947
0.10969906
0.10925001
0.10867998
0.10798681
0.10716911
0.10622598
0.10515654
0.10396094
0.10263973
0.10119366
0.099624122
0.097928281
0.096109526
0.094173834
0.092125045
0.066747836
0.067660738
0.068591315
0.069538187
0.070500078
0.071475801
0.072463712
0.073461685
0.074469204
0.075484554
0.076502397
0.077528149
0.078568723
0.079620736
0.080683231
0.081755579
0.082828695
0.083895892
0.084957713
0.086012472
0.087058943
0.088095884
0.089121691
0.090134976
0.091134402
0.092118656
0.093086439
0.094036443
0.094967377
0.095877957
0.096766904
0.097632948
0.098474814
0.099291231
0.10008093
0.10084262
0.10157502
0.10227684
0.10294677
0.10358348
0.10418563
0.10475187
0.10528082
0.10577106
0.10622117
0.10662968
0.1069951
0.10731593
0.10759063
0.1078176
0.10799548
0.10812145
0.10818394
0.10822091
0.10829863
0.10827296
0.10812854
0.1078761
0.10751161
0.10703163
0.10643392
0.10571666
0.10487883
0.10391986
0.10283924
0.10163745
0.10031537
0.098874024
0.097315156
0.095636521
0.093841677
0.091936585
0.089925175
0.066839387
0.067724514
0.068626206
0.069543223
0.070474288
0.071418095
0.072373216
0.073338156
0.074311581
0.075291922
0.076277149
0.077266538
0.078257238
0.079250337
0.080252058
0.081262595
0.082279793
0.083304865
0.084330521
0.085347716
0.086356084
0.087354889
0.088342428
0.089317625
0.090278955
0.091225035
0.092154604
0.093066379
0.093959112
0.094831526
0.095682349
0.096510317
0.097314164
0.09809263
0.098844451
0.099568355
0.10026307
0.1009273
0.10155977
0.10215914
0.10272411
0.10325333
0.10374545
0.10419907
0.1046128
0.1049852
0.10531483
0.10560021
0.10583986
0.10603222
0.10617598
0.10626848
0.10629876
0.10630152
0.10633798
0.10627283
0.10609223
0.10580614
0.10541089
0.10490346
0.10428191
0.10354468
0.10269099
0.10172058
0.10063321
0.09942962
0.098110923
0.096678368
0.095133935
0.093475896
0.091707903
0.089835834
0.087863641
0.066918917
0.067778
0.068652569
0.069541462
0.07044346
0.071357294
0.072281644
0.073215141
0.074156424
0.075104106
0.076056755
0.077013058
0.077971458
0.078931136
0.07989032
0.080846261
0.081804448
0.082769363
0.083737781
0.084709423
0.085680963
0.086643886
0.087594632
0.088533079
0.089457205
0.090366207
0.091258863
0.092133725
0.092989543
0.093825037
0.094638972
0.09543012
0.096197214
0.09693901
0.097654258
0.098341688
0.099000042
0.099628059
0.10022445
0.10078791
0.10131715
0.10181084
0.10226765
0.10268622
0.10306515
0.10340306
0.10369853
0.10395013
0.10415639
0.10431581
0.10442709
0.10448771
0.10448731
0.10445766
0.10445553
0.10435387
0.10414026
0.103824
0.10340155
0.10287018
0.10222827
0.10147456
0.10060855
0.099630185
0.098539484
0.097337382
0.096025209
0.094604397
0.093077086
0.091441962
0.08970274
0.087865163
0.085933132
0.066985692
0.067820319
0.068669419
0.069531886
0.070406557
0.07129222
0.072187624
0.073091488
0.074002515
0.074919397
0.075840809
0.076765468
0.077692125
0.078619573
0.079546382
0.080471165
0.081393164
0.082308562
0.083220475
0.084135162
0.085050314
0.085964178
0.086877312
0.087781568
0.088669806
0.08954301
0.090399848
0.091238915
0.092059195
0.092859191
0.093637644
0.094393362
0.095125072
0.095831582
0.096511667
0.097164044
0.097787477
0.098380733
0.09894253
0.099471572
0.099966587
0.1004263
0.10084938
0.10123448
0.10158024
0.10188529
0.10214826
0.10236776
0.10254234
0.10267053
0.10275105
0.10278153
0.10275213
0.102692
0.10265389
0.10251851
0.10227482
0.1019314
0.10148491
0.10093288
0.10027395
0.099507085
0.098632001
0.097648843
0.096557831
0.095360064
0.094057024
0.092650286
0.091142126
0.089531571
0.087822324
0.086019953
0.084128273
0.066242148
0.067039241
0.067850874
0.068676032
0.06951365
0.070362613
0.071221768
0.07208993
0.072965884
0.073848399
0.07473623
0.075628123
0.076522835
0.077419128
0.078315775
0.079211542
0.080105201
0.080995494
0.081880719
0.082760405
0.083632351
0.084495825
0.085355987
0.08621414
0.087067368
0.087915985
0.088755395
0.089578089
0.090382794
0.091169093
0.091934669
0.092678872
0.093400629
0.09409846
0.094771193
0.095417619
0.096036419
0.096626412
0.097186426
0.097715166
0.09821133
0.098673685
0.099100998
0.099491961
0.09984522
0.10015943
0.10043328
0.10066543
0.10085452
0.10099914
0.10109783
0.10114934
0.10115141
0.10109475
0.10100606
0.10093444
0.10076795
0.10049682
0.100129
0.099661301
0.099091501
0.09841844
0.097641292
0.096759941
0.095774685
0.094685899
0.093494804
0.092202983
0.09081211
0.089324559
0.087739636
0.086060971
0.084293918
0.08244219
0.065541441
0.066303357
0.067079762
0.067869772
0.06867241
0.069486647
0.070311417
0.071145622
0.071988133
0.072837793
0.073693427
0.074553846
0.07541785
0.076284237
0.077151804
0.07801935
0.078885668
0.079749545
0.08060978
0.081465165
0.082314597
0.083156654
0.083990409
0.084814689
0.085625846
0.08642819
0.08722622
0.088015726
0.088795191
0.089565653
0.090320286
0.091052442
0.091763716
0.092453019
0.093118135
0.093758419
0.094372713
0.094959476
0.095517569
0.096045896
0.096543129
0.097007945
0.09743919
0.097835697
0.098196156
0.098519189
0.098803476
0.099047752
0.099250744
0.099411121
0.099527483
0.099598393
0.099622597
0.099598004
0.099515775
0.099400398
0.099297677
0.099102524
0.098806443
0.09841672
0.097930326
0.097345273
0.096660563
0.095875538
0.094990222
0.094005027
0.09292044
0.091737761
0.09045864
0.089084816
0.087618726
0.086059895
0.084411833
0.082679652
0.080866969
0.064878742
0.065607757
0.066351155
0.067108125
0.067877799
0.068659241
0.069451467
0.070253463
0.071064177
0.071882531
0.072707421
0.073537719
0.074372286
0.075209966
0.076049599
0.076890019
0.077730054
0.078568532
0.079404276
0.080236113
0.081062869
0.0818834
0.082696563
0.083501238
0.084296138
0.085079685
0.085851649
0.086609281
0.087352796
0.088086534
0.088809432
0.089518398
0.090213053
0.090892845
0.091551707
0.092184992
0.092794209
0.093378028
0.093933952
0.094461387
0.094959471
0.095426745
0.09586176
0.096263442
0.096630716
0.096962252
0.09725662
0.097512532
0.097728809
0.09790425
0.098037552
0.098127312
0.098172093
0.098170663
0.098121072
0.098014942
0.09787471
0.097743177
0.097521685
0.097202921
0.096793552
0.096290687
0.095692545
0.094998274
0.094207353
0.093319915
0.092336449
0.091257511
0.090084448
0.088818953
0.087462812
0.086018502
0.084485717
0.082867782
0.081169544
0.079394565
0.062247932
0.06289935
0.063566952
0.064250192
0.064948421
0.065660906
0.066386885
0.067125562
0.067876093
0.068637583
0.069409093
0.070189652
0.070978253
0.071773863
0.072575422
0.073381848
0.074192043
0.075004895
0.07581928
0.076634067
0.077448121
0.078260298
0.079069455
0.079874446
0.080674129
0.081467367
0.082253023
0.08302996
0.083797033
0.08455309
0.085297117
0.086027647
0.086744182
0.087445647
0.088127667
0.088793539
0.089447088
0.09008396
0.090701725
0.091300027
0.091879548
0.092434986
0.092960876
0.093458552
0.093927931
0.094366744
0.094773169
0.095146552
0.095485994
0.095790113
0.096057332
0.096286369
0.096476151
0.09662556
0.096733333
0.096798041
0.096818231
0.096792713
0.096719695
0.096591235
0.096427879
0.096269678
0.096023991
0.095684602
0.095257577
0.094740152
0.094130741
0.093428618
0.092633381
0.091745248
0.090764742
0.089692449
0.088529742
0.087278336
0.085940046
0.08451739
0.083010216
0.081421641
0.079756211
0.078017464
0.062358306
0.06299778
0.063652483
0.064321909
0.065005436
0.065702357
0.066411929
0.067133378
0.067865888
0.0686086
0.069360615
0.070121
0.070888789
0.071662988
0.072442577
0.073226517
0.074013747
0.074803192
0.075593766
0.076384371
0.077173902
0.077961249
0.078745296
0.079524927
0.080299021
0.081066463
0.081826136
0.082576921
0.0833177
0.084047352
0.084764804
0.085468962
0.086158819
0.086833145
0.087490184
0.088130077
0.088751262
0.089350072
0.089929501
0.090491509
0.091032145
0.091549226
0.092041941
0.092510026
0.092952477
0.093364447
0.093743003
0.094088846
0.094401904
0.094680246
0.094921541
0.095124862
0.09528937
0.095414031
0.095497648
0.095538739
0.095535772
0.095487597
0.095392578
0.0952432
0.095058269
0.094875304
0.094607313
0.094249095
0.093806112
0.093275728
0.092656542
0.091947934
0.091149605
0.090261839
0.089285165
0.088220171
0.087068233
0.085831083
0.084510558
0.083109209
0.081627082
0.080066938
0.078433131
0.076729536
0.062454428
0.063082613
0.063725146
0.06438155
0.065051224
0.065733479
0.066427594
0.067132819
0.067848366
0.068573406
0.069307075
0.070048475
0.070796677
0.071550723
0.072309631
0.073072395
0.073837992
0.074605382
0.075373511
0.076141314
0.076907716
0.077671635
0.078431984
0.079187672
0.079937604
0.080680685
0.081415818
0.082141907
0.082857855
0.083562566
0.084254959
0.084933948
0.085598449
0.086247356
0.086879495
0.087493978
0.088089529
0.088664644
0.089219383
0.089752139
0.090258366
0.090740501
0.091201389
0.09163707
0.092045014
0.092424032
0.09277307
0.093091386
0.093379574
0.093634042
0.093850365
0.094028559
0.094168495
0.094269424
0.094330385
0.094349338
0.09432431
0.094254505
0.094138514
0.093969241
0.093763909
0.09355773
0.093269052
0.092893563
0.0924361
0.091894142
0.091266456
0.090552509
0.08975209
0.088865542
0.087893343
0.086836063
0.085695094
0.08447221
0.083169301
0.081789194
0.080332711
0.078801078
0.077197878
0.075528841
0.06253776
0.06315528
0.063786334
0.064430462
0.065087079
0.065755516
0.066435071
0.067125018
0.067824595
0.068533003
0.069249407
0.069972942
0.070702712
0.071437792
0.072177233
0.072920062
0.073665288
0.074411904
0.075158885
0.075905197
0.076649794
0.077391621
0.078129617
0.078862717
0.079589847
0.080309937
0.081021909
0.081724686
0.082417192
0.083098347
0.08376708
0.084422315
0.085062973
0.085687969
0.086296193
0.086886607
0.08745812
0.088009577
0.088540068
0.089048262
0.089532272
0.089992264
0.090427683
0.09083493
0.091211969
0.091561173
0.091882962
0.092174113
0.092432514
0.092656855
0.092846141
0.09299915
0.093114875
0.093192797
0.093232702
0.093231106
0.093184766
0.093093791
0.092957244
0.092768466
0.09254336
0.092315229
0.092007544
0.091616346
0.091145607
0.090593165
0.089958007
0.089239692
0.088438163
0.087554033
0.086587359
0.085538341
0.084408567
0.083199991
0.08191467
0.080556332
0.079127901
0.077628871
0.076059458
0.074425895
0.062609619
0.063217066
0.063837297
0.064469856
0.065114169
0.065769584
0.066435423
0.067110982
0.067795524
0.068488277
0.069188434
0.069895158
0.070607584
0.071324816
0.072045935
0.072769999
0.073496047
0.0742231
0.074950164
0.07567623
0.076400279
0.077121284
0.077838208
0.078550008
0.079255635
0.079954038
0.080644162
0.081324947
0.081995335
0.082654266
0.083300677
0.083933507
0.084551689
0.085154155
0.085739824
0.086307636
0.086856514
0.08738535
0.087893084
0.088378568
0.088840551
0.089278201
0.08969049
0.090075615
0.090432321
0.090760681
0.091059774
0.091326935
0.091558655
0.091756023
0.091921106
0.092051426
0.092144726
0.092199474
0.092214264
0.092187899
0.092119374
0.092007558
0.091850875
0.091642785
0.091398146
0.091149029
0.090824007
0.090418721
0.089935706
0.08937358
0.088731723
0.088009801
0.087208091
0.086328027
0.085369196
0.084330699
0.083214454
0.082022631
0.080757363
0.079421626
0.078015162
0.07654141
0.075004485
0.073406454
0.062671194
0.063269134
0.063879164
0.06450082
0.065133534
0.065776676
0.066429592
0.0670916
0.067761986
0.068440003
0.069124869
0.069815775
0.07051188
0.071212317
0.071916195
0.072622599
0.073330595
0.074039232
0.074747541
0.075454539
0.076159235
0.076860622
0.077557689
0.078249415
0.078934773
0.079612732
0.080282256
0.080942306
0.08159184
0.082229814
0.08285518
0.083466892
0.084063895
0.084645136
0.085209553
0.085756087
0.086283675
0.086791232
0.087277683
0.087741928
0.088182827
0.088599351
0.088990426
0.089354754
0.089691192
0.08999893
0.090276864
0.090523319
0.090736411
0.090915944
0.091061859
0.091172488
0.091245924
0.091280019
0.091272381
0.09122406
0.091136008
0.091005857
0.090831429
0.090606273
0.0903438
0.090074087
0.089729531
0.089308131
0.088813286
0.088242842
0.087595817
0.086871814
0.086070807
0.085193046
0.084239304
0.08321052
0.082108312
0.080934302
0.079690066
0.078376809
0.076991623
0.075540572
0.074031902
0.072465547
0.062146393
0.062723555
0.063312532
0.063912946
0.064524323
0.065146099
0.065777671
0.06641841
0.067067655
0.067724712
0.068388857
0.069059333
0.069735353
0.070416101
0.071100735
0.071788389
0.072478174
0.073169182
0.073860483
0.074551137
0.075240183
0.075926653
0.076609565
0.077287928
0.077960742
0.078627004
0.079285699
0.079935812
0.080576321
0.081206202
0.081824426
0.082429963
0.083021779
0.083598835
0.08416009
0.0847045
0.085231015
0.085738582
0.086226137
0.086692613
0.087136933
0.087558003
0.087954754
0.088326107
0.088670902
0.088988021
0.089276451
0.089535069
0.089762542
0.089957554
0.09011926
0.09024689
0.090339195
0.090394658
0.090411667
0.090388708
0.090325543
0.090221827
0.090076039
0.089886462
0.08964703
0.089369688
0.089082286
0.088720565
0.088284847
0.087779612
0.087201949
0.086550584
0.085825056
0.085024885
0.084149285
0.083199935
0.08217948
0.08108904
0.07992976
0.078702853
0.077409671
0.07604917
0.074624472
0.073141194
0.071600901
0.061640591
0.062198366
0.062767671
0.063348198
0.063939545
0.06454122
0.065152679
0.065773346
0.066402611
0.067039834
0.067684341
0.068335428
0.06899236
0.069654371
0.070320669
0.070990434
0.071662822
0.072336969
0.073011989
0.073686977
0.074361012
0.07503316
0.075702472
0.076367988
0.077028738
0.077683744
0.078332019
0.07897257
0.079604399
0.080226502
0.080837871
0.081437494
0.082024355
0.082597436
0.083155713
0.083698159
0.084223743
0.08473143
0.085220179
0.085688943
0.086136668
0.086562295
0.086964755
0.08734298
0.0876959
0.088022411
0.088321417
0.088591852
0.088832606
0.089042493
0.089220336
0.089365131
0.089475911
0.089551509
0.08959061
0.089591887
0.089554132
0.089476521
0.089358247
0.089198159
0.088994819
0.088742563
0.088452419
0.088150946
0.08777756
0.087332162
0.086818474
0.08623438
0.08557895
0.084851794
0.084052648
0.083181503
0.082239334
0.081227768
0.080148109
0.079001641
0.077789566
0.076513474
0.075173203
0.073771362
0.072311898
0.070796876
0.061151887
0.061691606
0.062242519
0.062804416
0.063376974
0.063959755
0.064552272
0.065154002
0.06576439
0.066382845
0.067008744
0.067641434
0.068280228
0.068924412
0.06957324
0.070225939
0.070881713
0.071539738
0.07219917
0.072859145
0.073518781
0.074177178
0.074833421
0.075486583
0.076135724
0.076779894
0.077418133
0.078049473
0.078672941
0.079287553
0.079892325
0.080486265
0.081068375
0.081637657
0.082193105
0.08273371
0.083258461
0.083766341
0.084256327
0.084727394
0.08517851
0.085608635
0.086016728
0.086401737
0.086762609
0.087098286
0.087407693
0.087689755
0.087943403
0.088167547
0.088361069
0.088522855
0.088651853
0.088747028
0.088807257
0.088831343
0.088818088
0.088766363
0.08867519
0.088543619
0.08837057
0.088154754
0.087890896
0.087589186
0.087274849
0.08689072
0.086436666
0.085915891
0.085326661
0.084668238
0.083940293
0.083142696
0.082275765
0.0813403
0.080337397
0.079268378
0.07813457
0.076937186
0.075677913
0.074356857
0.072976454
0.071539966
0.070049449
0.061201465
0.061735229
0.06227967
0.06283458
0.063399604
0.063974291
0.064558165
0.065150721
0.065751419
0.066359687
0.06697492
0.067596481
0.068223703
0.068855886
0.069492307
0.07013221
0.070774817
0.071419327
0.072064913
0.072710733
0.073355923
0.073999603
0.074640879
0.075278842
0.075912572
0.076541136
0.077163593
0.077778994
0.07838638
0.078984788
0.079573247
0.080150782
0.080716411
0.081269149
0.081808007
0.082331991
0.082840102
0.083331338
0.083804691
0.084259149
0.084693696
0.085107307
0.085498957
0.085867611
0.08621223
0.086531772
0.086825186
0.087091414
0.087329399
0.087538073
0.087716357
0.08786317
0.087977456
0.088058163
0.088104201
0.088114441
0.088087758
0.08802306
0.087919326
0.087775549
0.087590677
0.087363524
0.087089181
0.086777025
0.086450887
0.086056866
0.085594994
0.085068115
0.084474659
0.083814023
0.083085955
0.082290417
0.081427817
0.08049891
0.079504591
0.078446109
0.077324774
0.076141801
0.074898898
0.07359628
0.072236196
0.070821581
0.06935443
0.061244081
0.061772221
0.062310561
0.062858869
0.063416765
0.063983804
0.064559519
0.06514342
0.065734983
0.066333651
0.066938835
0.067549915
0.068166239
0.068787127
0.069411868
0.070039728
0.070669946
0.071301737
0.071934296
0.072566795
0.073198392
0.073828225
0.074455417
0.075079078
0.075698304
0.076312182
0.076919788
0.077520188
0.078112441
0.078695599
0.079268708
0.079830807
0.08038093
0.080918107
0.081441363
0.081949717
0.082442186
0.082917781
0.083375508
0.083814371
0.084233367
0.084631488
0.085007722
0.085361051
0.085690453
0.085994902
0.086273363
0.0865248
0.086748172
0.08694243
0.087106523
0.087239393
0.087339997
0.087407286
0.087440197
0.087437647
0.087398556
0.087321861
0.087206531
0.08705155
0.086855881
0.086618415
0.086334586
0.086012987
0.085676052
0.085273049
0.08480419
0.084272007
0.083675057
0.083012838
0.082285164
0.081492058
0.080633963
0.079711587
0.078725733
0.077677585
0.076568421
0.075399437
0.074172325
0.07288735
0.071546619
0.070152851
0.068707962
0.061280442
0.06180328
0.062335862
0.062877924
0.063429076
0.063988883
0.064556891
0.065132624
0.065715571
0.06630519
0.066900906
0.067502114
0.068108176
0.068718428
0.069332176
0.0699487
0.070567258
0.07118708
0.071807379
0.072427345
0.073046152
0.073662955
0.074276894
0.074887097
0.075492677
0.076092736
0.076686367
0.077272653
0.077850667
0.078419478
0.078978146
0.079525725
0.080061264
0.080583806
0.081092392
0.081586054
0.082063823
0.082524723
0.082967777
0.083392001
0.083796405
0.084179999
0.084541784
0.084880759
0.085195917
0.085486248
0.085750736
0.085988361
0.086198099
0.086378923
0.086529801
0.086649699
0.086737587
0.086792432
0.086813194
0.086798822
0.08674827
0.086660499
0.086534486
0.086369223
0.086163688
0.085916832
0.085624416
0.085294276
0.084947468
0.084536333
0.084061249
0.083524467
0.082924654
0.082261382
0.081534515
0.080744119
0.079890647
0.078974775
0.077997252
0.076959208
0.075861878
0.074706431
0.073494512
0.072226421
0.070904147
0.069530238
0.068106527
0.060802833
0.061311195
0.061829035
0.062356177
0.062892325
0.06343709
0.063990055
0.064550781
0.065118803
0.065693622
0.066274709
0.066861502
0.067453408
0.068049806
0.068650043
0.069253441
0.069859296
0.070466878
0.071075437
0.071684198
0.07229237
0.072899141
0.073503684
0.074105153
0.074702693
0.075295433
0.075882491
0.076462974
0.07703598
0.0776006
0.078155914
0.078700998
0.079234921
0.079756746
0.080265529
0.080760324
0.081240179
0.081704137
0.082151237
0.082580515
0.082990999
0.083381717
0.083751691
0.084099938
0.08442547
0.084727299
0.085004428
0.085255858
0.085480588
0.08567761
0.085845915
0.085984492
0.086092325
0.086168402
0.086211707
0.086221222
0.086195923
0.086134789
0.086036804
0.085900962
0.085726267
0.085511719
0.085256314
0.084956122
0.08461826
0.084262431
0.083843945
0.083363324
0.082822564
0.082220426
0.081556545
0.080830822
0.080043349
0.079194581
0.078285169
0.077315824
0.076287626
0.075201769
0.074059383
0.072862059
0.071610119
0.07030545
0.068950452
0.067546878
0.060338069
0.060832892
0.061336933
0.061850056
0.062372045
0.062902582
0.063441295
0.063987787
0.064541631
0.065102372
0.065669523
0.066242565
0.066820947
0.06740409
0.067991384
0.068582189
0.069175842
0.069771652
0.070368904
0.07096686
0.071564764
0.072161837
0.072757282
0.073350287
0.073940024
0.074525649
0.075106308
0.075681133
0.076249247
0.076809761
0.077361781
0.0779044
0.07843671
0.078957792
0.079466722
0.079962571
0.080444406
0.080911288
0.081362274
0.081796415
0.082212761
0.082610355
0.082988238
0.083345445
0.083681009
0.083993957
0.084283314
0.0845481
0.084787333
0.085000025
0.085185189
0.085341832
0.08546896
0.085565577
0.085630687
0.085663294
0.085662398
0.085626999
0.0855561
0.085448706
0.085303828
0.085120489
0.084897706
0.084634519
0.084327288
0.083982448
0.083618382
0.083193258
0.082707723
0.082163532
0.081559536
0.08089542
0.080171112
0.079386724
0.078542706
0.077639686
0.076678346
0.075659723
0.074584962
0.073455155
0.072271832
0.071035334
0.069747456
0.068410462
0.06702603
0.059884978
0.060367123
0.060858228
0.061358192
0.061866845
0.062383934
0.062909144
0.063442127
0.063982496
0.064529838
0.065083705
0.065643621
0.066209075
0.066779529
0.067354414
0.06793313
0.068515053
0.069099529
0.069685881
0.070273407
0.070861384
0.071449068
0.072035695
0.072620482
0.07320263
0.073781326
0.074355741
0.074925033
0.07548835
0.076044827
0.076593591
0.077133758
0.077664439
0.078184736
0.078693744
0.079190552
0.079674246
0.080143903
0.080598597
0.0810374
0.081459376
0.081863586
0.082249088
0.082614936
0.08296018
0.083283864
0.083585032
0.083862723
0.084115973
0.084343813
0.084545273
0.084719381
0.084865162
0.084981637
0.08506783
0.085122761
0.085145451
0.085134922
0.085090193
0.085010286
0.084894229
0.084741051
0.084549794
0.084319495
0.084049227
0.083735627
0.083384487
0.083012902
0.082581791
0.082091901
0.081544764
0.080939315
0.080275279
0.079552607
0.078771423
0.07793217
0.077035453
0.07608193
0.075072594
0.074008547
0.072890836
0.071720932
0.070499191
0.069227322
0.067907464
0.066541223
0.059442496
0.05991278
0.060391751
0.060879347
0.061375443
0.061879834
0.062392259
0.06291242
0.063439978
0.063974559
0.064515757
0.065063135
0.065616223
0.066174521
0.066737501
0.067304602
0.067875238
0.068448792
0.069024625
0.069602071
0.070180441
0.070759023
0.071337087
0.071913881
0.072488637
0.073060569
0.073628875
0.074192741
0.074751339
0.075303829
0.075849359
0.07638707
0.07691609
0.077435543
0.077944544
0.078442201
0.078927616
0.079399885
0.0798581
0.080301348
0.08072871
0.081139267
0.08153209
0.081906251
0.082260817
0.08259485
0.082907411
0.083197555
0.083464336
0.083706804
0.083924006
0.084114988
0.08427879
0.084414456
0.084521023
0.08459753
0.084643016
0.08465652
0.084637078
0.084583731
0.084495521
0.084371494
0.084210697
0.084012194
0.083775037
0.083498333
0.083178976
0.082822152
0.082443707
0.082007201
0.081513459
0.080963805
0.080357254
0.079693566