/*--------------------------------*- C++ -*----------------------------------*\
| =========                 |                                                 |
| \\      /  F ield         | OpenFOAM: The Open Source CFD Toolbox           |
|  \\    /   O peration     | Version:  2.4.0                                 |
|   \\  /    A nd           | Web:      www.OpenFOAM.org                      |
|    \\/     M anipulation  |                                                 |
\*---------------------------------------------------------------------------*/
FoamFile
{
    version     2.0;
    format      ascii;
    class       surfaceScalarField;
    location    "310";
    object      phi;
}
// * * * * * * * * * * * * * * * * * * * * * * * * * * * * * * * * * * * * * //

dimensions      [0 3 -1 0 0 0 0];

internalField   nonuniform List<scalar> 
39004
(
0.0043125955
-0.00029535727
0.0043064867
-0.00029822603
0.0043003658
-0.00030070571
0.0042942376
-0.00030279265
0.0042881062
-0.00030448415
0.0042819755
-0.00030577814
0.0042758487
-0.0003066732
0.0042697285
-0.00030716859
0.0042636174
-0.00030726409
0.0042575172
-0.00030696005
0.0042514294
-0.00030625803
0.0042453553
-0.00030515879
0.0042392955
-0.00030366448
0.0042332506
-0.00030177695
0.0042272209
-0.00029949899
0.0042212062
-0.0002968334
0.0042152063
-0.00029378275
0.0042092208
-0.0002903503
0.0042032492
-0.00028653977
0.0041972907
-0.00028235377
0.0041913446
-0.00027779592
0.0041854103
-0.00027286918
0.004179487
-0.00026757698
0.0041735741
-0.00026192232
0.0041676712
-0.00025590809
0.0041617779
-0.00024953699
0.0041558943
-0.00024281145
0.0041500207
-0.00023573354
0.0041441575
-0.00022830569
0.004138306
-0.00022052902
0.0041324676
-0.00021240494
0.0041266444
-0.00020393401
0.0041208393
-0.00019511698
0.0041150556
-0.00018595383
0.0041092976
-0.00017644392
0.0041035704
-0.00016658644
0.0040978801
-0.00015638031
0.0040922337
-0.0001458235
0.0040866395
-0.00013491384
0.004081107
-0.00012364877
0.0040756469
-0.00011202491
0.0040702715
-0.00010003734
0.0040649954
-8.7682024e-05
0.0040598354
-7.4963625e-05
0.0040548083
-6.1913455e-05
0.0040506118
-7.6551422e-05
0.0040489391
-0.00015927265
0.0040498312
-0.00024357378
0.0040532211
-0.00032602217
0.0040590139
-0.00040640338
0.0040670923
-0.00048456606
0.0040773196
-0.00056041183
0.0040895445
-0.00063389873
0.0041036028
-0.00070491684
0.0041193256
-0.0007736369
0.004136542
-0.00084018702
0.0041550735
-0.00090444846
0.0041747465
-0.00096672372
0.0041953913
-0.0010272576
0.0042168338
-0.0010858545
0.004238902
-0.0011424281
0.0042613842
-0.0011939646
0.0042840816
-0.0012400815
0.0043068328
-0.0012818775
-0.0013194626
0.0046587012
-0.00028843099
0.004651751
-0.00029127584
0.0046447838
-0.00029373854
0.004637806
-0.00029581482
0.0046308234
-0.00029750153
0.0046238413
-0.00029879602
0.0046168644
-0.00029969632
0.0046098971
-0.00030020125
0.004602943
-0.00030031005
0.0045960056
-0.00030002263
0.0045890876
-0.00029934007
0.0045821916
-0.00029826275
0.0045753196
-0.00029679244
0.0045684731
-0.0002949305
0.0045616537
-0.00029267958
0.0045548623
-0.00029004205
0.0045480999
-0.00028702028
0.0045413668
-0.00028361718
0.0045346634
-0.00027983642
0.00452799
-0.00027568041
0.0045213466
-0.00027115253
0.0045147334
-0.00026625591
0.0045081501
-0.00026099373
0.004501597
-0.00025536915
0.0044950739
-0.00024938508
0.0044885814
-0.00024304444
0.0044821196
-0.00023634967
0.0044756894
-0.0002293033
0.0044692916
-0.00022190787
0.0044629275
-0.00021416498
0.004456599
-0.00020607645
0.0044503084
-0.00019764335
0.0044440584
-0.00018886699
0.0044378526
-0.00017974802
0.0044316952
-0.00017028652
0.0044255913
-0.00016048253
0.0044195468
-0.00015033586
0.0044135687
-0.00013984541
0.0044076651
-0.0001290102
0.0044018451
-0.00011782874
0.0043961192
-0.00010629901
0.0043904994
-9.4417614e-05
0.0043849998
-8.2182428e-05
0.0043796365
-6.9600298e-05
0.0043744255
-5.6702465e-05
0.00437
-7.2125897e-05
0.0043679002
-0.0001571729
0.0043681706
-0.00024384413
0.0043707532
-0.0003286048
0.0043755628
-0.00041121297
0.0043824903
-0.00049149359
0.0043914069
-0.00056932837
0.0044021681
-0.00064465999
0.0044146161
-0.00071736479
0.0044285877
-0.00078760852
0.0044439158
-0.00085551514
0.004460427
-0.00092095958
0.0044779514
-0.00098424816
0.0044963223
-0.0010456285
0.0045153691
-0.0011049013
0.0045349235
-0.0011619824
0.0045547841
-0.0012138252
0.0045747635
-0.0012600609
0.0045947086
-0.0013018226
-0.0013392365
0.0050167645
-0.000280825
0.0050091221
-0.00028363351
0.005001452
-0.00028606841
0.0049937623
-0.00028812507
0.0049860606
-0.00028979986
0.004978354
-0.00029108945
0.0049706491
-0.00029199142
0.0049629519
-0.00029250407
0.0049552679
-0.00029262599
0.0049476019
-0.00029235668
0.0049399586
-0.00029169675
0.0049323419
-0.00029064602
0.0049247553
-0.00028920584
0.0049172021
-0.00028737731
0.0049096851
-0.00028516255
0.0049022066
-0.0002825636
0.0048947688
-0.00027958246
0.0048873735
-0.00027622192
0.0048800223
-0.00027248522
0.0048727165
-0.00026837458
0.0048654573
-0.00026389336
0.0048582458
-0.00025904434
0.0048510828
-0.00025383079
0.0048439694
-0.00024825572
0.0048369064
-0.00024232213
0.0048298949
-0.00023603292
0.004822936
-0.0002293907
0.0048160309
-0.00022239819
0.0048091811
-0.00021505815
0.0048023886
-0.00020737241
0.0047956553
-0.00019934323
0.0047889841
-0.00019097213
0.004782378
-0.00018226083
0.0047758406
-0.00017321061
0.0047693763
-0.00016382224
0.0047629902
-0.00015409646
0.0047566882
-0.00014403386
0.0047504772
-0.00013363437
0.0047443648
-0.00012289789
0.0047383602
-0.00011182408
0.0047324733
-0.00010041208
0.0047267156
-8.8659955e-05
0.0047211005
-7.6567368e-05
0.0047156433
-6.4143048e-05
0.0047103589
-5.1418065e-05
0.0047058035
-6.757049e-05
0.0047033369
-0.00015470628
0.0047030053
-0.00024351258
0.0047047616
-0.00033036109
0.0047085316
-0.00041498296
0.0047142163
-0.00049717828
0.0047216966
-0.00057680862
0.0047308375
-0.00065380092
0.0047414902
-0.00072801747
0.0047534995
-0.00079961784
0.0047667058
-0.00086872141
0.0047809429
-0.00093519675
0.0047960473
-0.00099935258
0.004811858
-0.0010614391
0.0048282098
-0.0011212531
0.0048449412
-0.0011787139
0.004861864
-0.001230748
0.0048788048
-0.0012770017
0.004895622
-0.0013186398
-0.0013558036
0.0053859228
-0.00027269647
0.0053777404
-0.00027545109
0.0053695145
-0.00027784259
0.0053612555
-0.00027986601
0.0053529727
-0.00028151712
0.0053446753
-0.00028279204
0.0053363716
-0.00028368772
0.0053280695
-0.00028420195
0.0053197763
-0.00028433275
0.0053114987
-0.00028407913
0.005303243
-0.00028344106
0.0052950151
-0.00028241807
0.0052868201
-0.0002810109
0.0052786631
-0.00027922026
0.0052705484
-0.00027704783
0.00526248
-0.0002744952
0.0052544617
-0.00027156415
0.0052464967
-0.00026825695
0.0052385881
-0.00026457663
0.0052307386
-0.00026052513
0.0052229509
-0.00025610557
0.005215227
-0.00025132053
0.0052075695
-0.00024617321
0.0051999801
-0.00024066638
0.0051924611
-0.00023480308
0.0051850143
-0.00022858617
0.005177642
-0.00022201833
0.0051703461
-0.00021510233
0.0051631291
-0.00020784114
0.0051559935
-0.0002002368
0.005148942
-0.00019229177
0.0051419779
-0.00018400804
0.0051351048
-0.00017538767
0.0051283266
-0.00016643245
0.0051216481
-0.00015714369
0.0051150744
-0.00014752279
0.0051086116
-0.00013757105
0.0051022664
-0.00012728921
0.0050960466
-0.00011667805
0.0050899607
-0.0001057382
0.0050840185
-9.446985e-05
0.0050782309
-8.2872368e-05
0.0050726106
-7.0947096e-05
0.0050671719
-5.8704372e-05
0.0050619281
-4.6174192e-05
0.0050573482
-6.2990638e-05
0.0050545844
-0.00015194248
0.0050536834
-0.00024261162
0.0050546093
-0.00033128694
0.0050572996
-0.00041767327
0.0050616668
-0.00050154543
0.005067604
-0.00058274589
0.0050749877
-0.00066118461
0.0050836804
-0.00073671016
0.0050935375
-0.00080947495
0.0051044094
-0.00087959331
0.0051161401
-0.00094692741
0.0051285746
-0.0010117871
0.0051415597
-0.0010744242
0.0051549394
-0.0011346328
0.00516856
-0.0011923345
0.0051822504
-0.0012444384
0.0051958544
-0.0012906056
0.0052092438
-0.0013320292
-0.001368865
0.0057656296
-0.00026418215
0.0057570412
-0.00026686273
0.0057483911
-0.00026919248
0.0057396914
-0.00027116626
0.0057309535
-0.00027277921
0.0057221882
-0.00027402683
0.005713406
-0.00027490547
0.0057046163
-0.00027541221
0.0056958283
-0.00027554474
0.0056870506
-0.00027530143
0.0056782913
-0.00027468179
0.0056695579
-0.00027368473
0.0056608578
-0.00027231072
0.0056521974
-0.00027055987
0.0056435829
-0.00026843336
0.0056350202
-0.00026593253
0.0056265146
-0.00026305856
0.0056180712
-0.00025981355
0.0056096946
-0.00025619995
0.005601389
-0.00025221961
0.0055931586
-0.00024787517
0.0055850073
-0.00024316918
0.0055769385
-0.00023810441
0.0055689558
-0.00023268367
0.0055610624
-0.00022690969
0.0055532617
-0.00022078543
0.0055455568
-0.00021431346
0.005537951
-0.0002074966
0.0055304478
-0.00020033788
0.0055230504
-0.00019283944
0.0055157627
-0.00018500405
0.0055085885
-0.00017683386
0.0055015322
-0.00016833131
0.0054945983
-0.00015949853
0.0054877919
-0.00015033734
0.0054811188
-0.00014084965
0.0054745851
-0.00013103736
0.0054681977
-0.00012090188
0.0054619645
-0.00011044476
0.0054558937
-9.9667482e-05
0.005449995
-8.8571109e-05
0.0054442788
-7.715614e-05
0.0054387571
-6.5425429e-05
0.0054334438
-5.3391085e-05
0.0054283507
-4.10811e-05
0.0054238497
-5.8489571e-05
0.0054208612
-0.000148954
0.0054194308
-0.00024118126
0.0054195336
-0.00033138973
0.0054211187
-0.00041925841
0.0054241125
-0.00050453918
0.00542842
-0.00058705345
0.0054339318
-0.00066669639
0.0054405235
-0.0007433018
0.0054480633
-0.00081701483
0.0054564142
-0.00088794415
0.0054654318
-0.00095594506
0.0054749728
-0.0010213281
0.0054848946
-0.0010843459
0.0054950518
-0.00114479
0.0055053019
-0.0012025846
0.0055154938
-0.0012546303
0.0055254915
-0.0013006033
0.0055351833
-0.001341721
-0.0013781533
0.0061556731
-0.00025538099
0.0061467787
-0.00025796836
0.0061378046
-0.00026021837
0.0061287645
-0.00026212621
0.0061196714
-0.00026368614
0.0061105376
-0.00026489302
0.0061013749
-0.00026574277
0.0060921947
-0.00026623196
0.0060830077
-0.00026635775
0.0060738243
-0.00026611805
0.0060646543
-0.0002655118
0.0060555072
-0.0002645376
0.0060463917
-0.00026319523
0.0060373163
-0.00026148448
0.006028289
-0.00025940609
0.0060193173
-0.00025696082
0.0060104083
-0.0002541496
0.0060015688
-0.00025097402
0.005992805
-0.00024743618
0.005984123
-0.00024353761
0.0059755284
-0.0002392806
0.0059670267
-0.00023466743
0.0059586229
-0.00022970062
0.005950322
-0.00022438279
0.0059421288
-0.00021871648
0.0059340479
-0.0002127045
0.0059260839
-0.00020634943
0.0059182412
-0.00019965392
0.0059105244
-0.00019262108
0.0059029381
-0.00018525316
0.0058954871
-0.000177553
0.0058881761
-0.00016952288
0.0058810103
-0.00016116556
0.0058739952
-0.00015248343
0.0058671365
-0.00014347866
0.0058604405
-0.0001341536
0.0058539138
-0.00012451065
0.0058475637
-0.00011455178
0.0058413981
-0.00010427917
0.0058354256
-9.3695007e-05
0.0058296556
-8.2801123e-05
0.0058240985
-7.1599015e-05
0.0058187661
-6.0092978e-05
0.005813672
-4.8297003e-05
0.0058088263
-3.6235457e-05
0.0058044968
-5.4160004e-05
0.0058013509
-0.00014580809
0.005799432
-0.00023926244
0.0057987251
-0.00033068284
0.0057991914
-0.00041972471
0.0058007693
-0.00050611703
0.005803379
-0.00058966322
0.0058069246
-0.00067024191
0.0058112969
-0.00074767409
0.0058163789
-0.00082209683
0.0058220471
-0.00089361235
0.0058281726
-0.00096207056
0.0058346251
-0.0010277806
0.005841275
-0.0010909959
0.0058479906
-0.0011515056
0.0058546436
-0.0012092375
0.0058611057
-0.0012610925
0.0058672644
-0.001306762
0.0058730272
-0.0013474838
-0.0013834399
0.0065914386
-0.00023335043
0.0065828242
-0.00023706101
0.006574054
-0.00024045724
0.0065651465
-0.00024355612
0.0065561186
-0.00024635308
0.0065469796
-0.00024882937
0.0065377436
-0.00025098233
0.0065284272
-0.00025280978
0.0065190448
-0.00025430375
0.0065096097
-0.00025545797
0.0065001352
-0.00025626821
0.0064906337
-0.00025673046
0.0064811176
-0.00025684165
0.0064715988
-0.00025659925
0.0064620887
-0.00025600171
0.0064525983
-0.0002550472
0.0064431381
-0.00025373505
0.0064337183
-0.00025206461
0.0064243483
-0.0002500361
0.0064150374
-0.00024764995
0.0064057944
-0.00024490658
0.0063966275
-0.00024180718
0.0063875449
-0.00023835352
0.006378554
-0.00023454669
0.0063696621
-0.00023038872
0.0063608762
-0.00022588151
0.0063522029
-0.00022102738
0.0063436487
-0.00021582861
0.0063352199
-0.00021028764
0.0063269224
-0.00020440703
0.0063187622
-0.00019818923
0.0063107452
-0.0001916369
0.0063028771
-0.00018475298
0.0062951637
-0.00017753978
0.0062876109
-0.00017000022
0.0062802247
-0.00016213667
0.0062730112
-0.00015395202
0.0062659767
-0.00014544887
0.0062591277
-0.00013662971
0.0062524713
-0.00012749716
0.0062460147
-0.00011805405
0.0062397656
-0.00010830275
0.0062337325
-9.8246041e-05
0.0062279241
-8.7886609e-05
0.00622235
-7.7226991e-05
0.0062170206
-6.6269676e-05
0.0062119481
-5.5020388e-05
0.0062071456
-4.3494573e-05
0.0062026224
-3.1712261e-05
0.0061985367
-5.007428e-05
0.0061952885
-0.00014255984
0.0061929151
-0.00023688908
0.0061914101
-0.00032917786
0.0061907453
-0.00041905991
0.0061908724
-0.00050624411
0.0061917252
-0.00059051598
0.0061932232
-0.00067173999
0.0061952737
-0.00074972458
0.0061977757
-0.00082459878
0.0062006224
-0.00089645908
0.0062037017
-0.00096514982
0.0062068997
-0.0010309786
0.0062101023
-0.0010941986
0.006213194
-0.0011545972
0.0062160631
-0.0012121067
0.0062186076
-0.001263637
0.0062207408
-0.0013088952
0.0062223909
-0.0013491339
-0.001384546
0.0070295632
-0.00021199118
0.0070209761
-0.0002164648
0.0070122962
-0.00022065881
0.0070035184
-0.00022457262
0.0069946299
-0.00022817255
0.006985618
-0.00023144534
0.006976485
-0.00023442311
0.0069672339
-0.00023710192
0.0069578637
-0.00023945918
0.0069483906
-0.00024150925
0.0069388306
-0.00024324979
0.0069291929
-0.0002446661
0.0069194927
-0.00024575778
0.0069097453
-0.00024652075
0.0068999644
-0.00024694954
0.0068901636
-0.00024704087
0.006880356
-0.00024679165
0.0068705543
-0.00024620002
0.0068607708
-0.00024526375
0.0068510176
-0.00024398181
0.006841306
-0.00024235305
0.0068316472
-0.00024037724
0.0068220517
-0.00023805444
0.0068125297
-0.00023538458
0.006803091
-0.00023236855
0.0067937451
-0.00022900762
0.006784501
-0.00022530256
0.0067753674
-0.00022125512
0.0067663527
-0.00021686678
0.006757465
-0.00021213967
0.0067487121
-0.00020707574
0.0067401017
-0.00020167726
0.0067316412
-0.00019594652
0.0067233379
-0.00018988592
0.0067151989
-0.0001834979
0.0067072313
-0.00017678533
0.006699442
-0.00016975057
0.0066918382
-0.00016239641
0.0066844269
-0.00015472538
0.0066772153
-0.00014674036
0.0066702106
-0.00013844417
0.0066634203
-0.00012983942
0.0066568522
-0.00012092903
0.0066505141
-0.00011171604
0.0066444146
-0.00010220321
0.0066385622
-9.2393673e-05
0.0066329662
-8.229055e-05
0.0066276361
-7.1896893e-05
0.0066225823
-6.1215892e-05
0.006617817
-5.0255107e-05
0.0066133521
-3.9029688e-05
0.0066091969
-2.7557042e-05
0.0066053983
-4.6275724e-05
0.0066020759
-0.00013923735
0.0065992577
-0.00023407096
0.0065969453
-0.00032686543
0.0065951211
-0.00041723569
0.0065937495
-0.00050487255
0.00659278
-0.00058954644
0.0065921483
-0.00067110836
0.0065917804
-0.00074935664
0.0065915939
-0.00082441231
0.0065915008
-0.00089636593
0.0065914079
-0.00096505691
0.0065912206
-0.0010307914
0.0065908418
-0.0010938197
0.0065901743
-0.0011539298
0.0065891247
-0.0012110571
0.0065876181
-0.0012621304
0.0065855953
-0.0013068724
0.0065830059
-0.0013465444
-0.0013813487
0.0074641758
-0.00019836204
0.0074551494
-0.00020296473
0.0074460051
-0.00020732045
0.0074367664
-0.00021142017
0.0074274439
-0.00021525011
0.0074180537
-0.00021878239
0.0074086099
-0.00022200147
0.0073991108
-0.00022492403
0.0073895424
-0.00022753349
0.0073798895
-0.00022980627
0.0073701554
-0.0002317752
0.0073603431
-0.00023343746
0.0073504552
-0.00023477823
0.0073405073
-0.00023580989
0.0073305095
-0.00023652288
0.0073204744
-0.0002369145
0.0073104179
-0.00023698439
0.0073003542
-0.00023672795
0.0072902968
-0.00023614261
0.007280259
-0.00023522596
0.0072702536
-0.00023397635
0.0072602931
-0.00023239254
0.0072503897
-0.00023047383
0.007240555
-0.00022821982
0.0072308007
-0.00022563022
0.0072211375
-0.00022270535
0.007211576
-0.00021944617
0.0072021266
-0.00021585318
0.0071927992
-0.00021192771
0.0071836035
-0.00020767106
0.0071745487
-0.00020308491
0.0071656441
-0.0001981711
0.0071568984
-0.0001929316
0.0071483205
-0.00018736856
0.0071399187
-0.00018148412
0.0071317015
-0.00017528069
0.0071236771
-0.00016876094
0.0071158537
-0.00016192721
0.0071082395
-0.00015478223
0.0071008427
-0.00014732853
0.0070936714
-0.00013956906
0.0070867339
-0.00013150667
0.0070800386
-0.00012314411
0.007073594
-0.00011448445
0.0070674088
-0.00010553088
0.0070614921
-9.6286443e-05
0.0070558529
-8.6754456e-05
0.0070505007
-7.6938403e-05
0.0070454455
-6.6841653e-05
0.0070406975
-5.6467933e-05
0.0070362673
-4.5824946e-05
0.0070321624
-3.4924733e-05
0.0070283894
-2.3784007e-05
0.0070248772
-4.2763552e-05
0.0070214604
-0.0001358206
0.0070181599
-0.00023077048
0.0070149868
-0.00032369229
0.0070119373
-0.00041418622
0.0070089919
-0.00050192709
0.0070061166
-0.00058667116
0.0070032672
-0.00066825892
0.0070003896
-0.00074647909
0.0069974218
-0.00082144452
0.0069942959
-0.00089323998
0.0069909393
-0.00096170033
0.0069872765
-0.0010271285
0.0069832287
-0.0010897719
0.0069787171
-0.0011494182
0.0069736657
-0.0012060056
0.0069680277
-0.0012564924
0.0069617695
-0.0013006141
0.0069548614
-0.0013396364
-0.0013737682
0.0076504895
-0.000189544
0.0076414702
-0.00019394541
0.0076322753
-0.00019812562
0.0076229272
-0.00020207204
0.0076134481
-0.00020577105
0.0076038719
-0.0002092061
0.0075942346
-0.00021236418
0.0075845507
-0.00021524021
0.0075748322
-0.00021781493
0.0075650961
-0.00022007015
0.0075553413
-0.0002220204
0.0075455507
-0.00022364687
0.0075357195
-0.00022494706
0.0075258494
-0.00022593981
0.0075159401
-0.00022661359
0.0075060028
-0.00022697717
0.0074960495
-0.00022703113
0.0074860896
-0.00022676801
0.0074761376
-0.00022619062
0.0074662076
-0.00022529594
0.0074563125
-0.00022408124
0.007446465
-0.0002225451
0.0074366777
-0.0002206865
0.0074269626
-0.00021850471
0.0074173316
-0.00021599918
0.0074077961
-0.00021316989
0.0073983675
-0.00021001753
0.0073890565
-0.00020654222
0.0073798738
-0.00020274502
0.0073708298
-0.00019862703
0.0073619345
-0.00019418966
0.0073531979
-0.00018943449
0.0073446296
-0.00018436326
0.0073362391
-0.00017897801
0.0073280356
-0.00017328066
0.0073200284
-0.00016727345
0.0073122264
-0.00016095903
0.0073046388
-0.00015433958
0.0072972744
-0.00014741777
0.007290142
-0.00014019616
0.0072832506
-0.00013267763
0.007276609
-0.0001248651
0.0072702263
-0.00011676137
0.0072641114
-0.00010836958
0.0072582735
-9.9692986e-05
0.0072527218
-9.0734766e-05
0.0072474658
-8.1498402e-05
0.0072425149
-7.1987496e-05
0.0072378789
-6.2205718e-05
0.0072335679
-5.2156925e-05
0.0072295901
-4.1847115e-05
0.0072259512
-3.1285889e-05
0.0072226559
-2.048869e-05
0.0072195233
-3.9630977e-05
0.0072161203
-0.00013241756
0.0072124593
-0.00022710951
0.0072085598
-0.00031979273
0.0072044294
-0.00041005581
0.0072000639
-0.00049756158
0.0071954477
-0.00058205503
0.0071905557
-0.00066336693
0.0071853549
-0.00074127823
0.0071798044
-0.00081589401
0.0071738569
-0.00088729248
0.0071674617
-0.00095530512
0.0071605627
-0.0010202295
0.0071531007
-0.00108231
0.0071450157
-0.0011413332
0.0071362511
-0.001197241
0.0071267863
-0.0012470276
0.0071166131
-0.001290441
0.0071057227
-0.0013287459
-0.0013621561
0.0075740604
-0.00018122021
0.0075655159
-0.00018540091
0.0075567705
-0.00018938026
0.0075478438
-0.00019314536
0.0075387566
-0.0001966838
0.007529533
-0.00019998255
0.0075201989
-0.00020303007
0.0075107755
-0.00020581676
0.0075012916
-0.00020833101
0.0074917828
-0.00021056139
0.0074822644
-0.00021250203
0.0074727506
-0.00021413303
0.0074632556
-0.00021545207
0.0074537684
-0.00021645258
0.0074442769
-0.00021712212
0.0074347816
-0.00021748182
0.0074252818
-0.00021753141
0.007415783
-0.00021726914
0.0074062984
-0.00021670606
0.0073968357
-0.00021583319
0.007387407
-0.00021465254
0.0073780259
-0.00021316402
0.0073687047
-0.00021136533
0.0073594555
-0.00020925552
0.0073502899
-0.00020683357
0.0073412193
-0.00020409928
0.0073322549
-0.00020105315
0.0073234077
-0.00019769505
0.0073146886
-0.00019402589
0.007306108
-0.00019004641
0.0072976762
-0.00018575789
0.0072894034
-0.00018116165
0.0072812994
-0.0001762593
0.007273374
-0.00017105263
0.0072656369
-0.0001655435
0.0072580974
-0.000159734
0.007250765
-0.0001536266
0.0072436489
-0.00014722344
0.0072367583
-0.00014052716
0.0072301023
-0.00013354018
0.0072236901
-0.00012626542
0.0072175307
-0.00011870575
0.0072116334
-0.00011086402
0.0072060072
-0.0001027434
0.0072006613
-9.4347117e-05
0.007195605
-8.5678434e-05
0.0071908474
-7.674086e-05
0.007186398
-6.7538058e-05
0.0071822661
-5.8073778e-05
0.0071784609
-4.8351715e-05
0.0071749907
-3.8376996e-05
0.0071718631
-2.8158306e-05
0.0071690838
-1.7709379e-05
0.0071663853
-3.6932422e-05
0.0071631183
-0.00012915054
0.0071592843
-0.00022327558
0.0071549071
-0.00031541549
0.0071500009
-0.00040514965
0.0071445723
-0.00049213294
0.0071386193
-0.00057610202
0.0071321323
-0.00065687994
0.0071250952
-0.00073424118
0.0071174853
-0.00080828406
0.0071092736
-0.00087908078
0.0071004281
-0.00094645962
0.007090912
-0.0010107135
0.0070806835
-0.0010720814
0.0070697012
-0.0011303509
0.007057927
-0.0011854668
0.0070453642
-0.0012344648
0.0070320286
-0.0012771053
0.0070179292
-0.0013146466
-0.0013473061
0.0074781998
-0.00017344687
0.0074701993
-0.0001774004
0.0074619882
-0.00018116909
0.0074535834
-0.00018474063
0.0074450032
-0.00018810353
0.0074362669
-0.00019124629
0.007427395
-0.00019415814
0.0074184077
-0.00019682951
0.0074093278
-0.0001992511
0.0074001796
-0.00020141318
0.0073909849
-0.00020330736
0.0073817756
-0.00020492372
0.0073725781
-0.00020625457
0.007363409
-0.00020728343
0.0073542848
-0.00020799797
0.0073452054
-0.0002084024
0.007336155
-0.00020848098
0.0073271305
-0.0002082447
0.0073181319
-0.00020770743
0.0073091598
-0.00020686113
0.0073002262
-0.00020571887
0.00729134
-0.0002042778
0.0072825107
-0.00020253605
0.0072737513
-0.00020049615
0.0072650735
-0.00019815576
0.0072564885
-0.00019551429
0.0072480074
-0.00019257206
0.0072396411
-0.00018932879
0.0072314005
-0.00018578523
0.007223296
-0.00018194193
0.007215338
-0.00017779992
0.0072075368
-0.00017336042
0.0071999023
-0.00016862481
0.0071924444
-0.00016359473
0.0071851728
-0.00015827193
0.0071780972
-0.00015265831
0.0071712269
-0.00014675631
0.0071645714
-0.00014056793
0.00715814
-0.00013409578
0.0071519419
-0.00012734214
0.0071459865
-0.00012030995
0.0071402827
-0.00011300202
0.00713484
-0.00010542126
0.0071296673
-9.7570756e-05
0.007124774
-8.9453763e-05
0.0071201691
-8.1073516e-05
0.0071158618
-7.2433551e-05
0.0071118613
-6.3537603e-05
0.0071081769
-5.4389397e-05
0.0071048178
-4.4992573e-05
0.0071017926
-3.5351845e-05
0.0070991094
-2.5475118e-05
0.0070967751
-1.5375061e-05
0.0070944507
-3.460798e-05
0.0070913084
-0.00012600828
0.0070873428
-0.00021930996
0.0070825804
-0.00031065314
0.0070770423
-0.00039961149
0.0070707425
-0.00048583314
0.0070636896
-0.0005690491
0.0070558856
-0.00064907596
0.0070473287
-0.00072568425
0.0070380097
-0.00079896509
0.0070279143
-0.00086898537
0.007017027
-0.00093557231
0.0070053253
-0.00099901179
0.006992783
-0.0010595391
0.0069793748
-0.0011169427
0.0069650778
-0.0011711698
0.0069499163
-0.0012193033
0.0069339264
-0.0012611154
0.0069171336
-0.0012978538
-0.001329739
0.0073664793
-0.00016622531
0.0073590328
-0.00016995388
0.0073513754
-0.00017351167
0.0073435219
-0.00017688714
0.0073354877
-0.00018006938
0.0073272893
-0.00018304788
0.0073189438
-0.00018581261
0.0073104687
-0.00018835441
0.0073018823
-0.00019066473
0.007293204
-0.00019273489
0.0072844538
-0.00019455715
0.0072756536
-0.00019612348
0.0072668246
-0.0001974256
0.007257995
-0.00019845381
0.0072491966
-0.00019919959
0.0072404481
-0.00019965388
0.0072317657
-0.00019979864
0.0072231589
-0.00019963787
0.0072146142
-0.00019916277
0.0072061234
-0.00019837027
0.0071976852
-0.00019728068
0.0071892989
-0.00019589146
0.0071809729
-0.0001942101
0.0071727183
-0.00019224151
0.0071645414
-0.00018997888
0.0071564539
-0.00018742678
0.0071484673
-0.0001845855
0.0071405923
-0.00018145377
0.0071328396
-0.00017803257
0.0071252196
-0.0001743219
0.0071177424
-0.00017032268
0.0071104182
-0.00016603623
0.0071032569
-0.00016146357
0.0070962685
-0.00015660629
0.0070894626
-0.00015146607
0.0070828489
-0.00014604461
0.0070764368
-0.00014034414
0.0070702356
-0.00013436681
0.0070642548
-0.00012811497
0.0070585036
-0.00012159092
0.0070529911
-0.00011479742
0.0070477265
-0.00010773743
0.007042719
-0.00010041377
0.0070379777
-9.2829497e-05
0.0070335118
-8.4987802e-05
0.0070293302
-7.6891907e-05
0.007025442
-6.8545408e-05
0.0070218565
-5.9952077e-05
0.0070185828
-5.1115672e-05
0.00701563
-4.2039783e-05
0.007013007
-3.2728902e-05
0.0070107223
-2.319042e-05
0.0070087834
-1.3436159e-05
0.0070067918
-3.2616313e-05
0.00700377
-0.00012298651
0.0069997063
-0.00021524631
0.006994631
-0.00030557781
0.00698857
-0.00039355051
0.0069815452
-0.00047880835
0.006973574
-0.00056107786
0.006964669
-0.00064017094
0.0069548396
-0.00071585487
0.0069440893
-0.00078821482
0.0069324164
-0.0008573125
0.0069198183
-0.00092297414
0.0069062862
-0.0009854797
0.0068918068
-0.0010450597
0.0068763681
-0.0011015041
0.006859961
-0.0011547628
0.0068426278
-0.0012019701
0.0068244211
-0.0012429087
0.0068053812
-0.001278814
-0.0013099068
0.0072421181
-0.00015952735
0.0072352026
-0.00016303842
0.0072280818
-0.00016639091
0.0072207686
-0.00016957392
0.0072132764
-0.00017257714
0.0072056192
-0.00017539075
0.0071978118
-0.00017800517
0.0071898692
-0.0001804118
0.007181807
-0.00018260254
0.0071736414
-0.00018456926
0.0071653889
-0.00018630472
0.0071570671
-0.00018780163
0.0071486943
-0.00018905285
0.0071402915
-0.00019005095
0.0071318803
-0.0001907884
0.0071234836
-0.00019125719
0.0071151335
-0.00019144858
0.0071068532
-0.00019135757
0.0070986588
-0.00019096828
0.0070905638
-0.00019027529
0.0070825622
-0.00018927914
0.0070746413
-0.00018797049
0.0070667987
-0.00018636753
0.0070590334
-0.00018447618
0.0070513483
-0.00018229383
0.0070437551
-0.00017983354
0.0070362602
-0.00017709066
0.007028873
-0.00017406651
0.0070216047
-0.00017076431
0.0070144653
-0.00016718253
0.0070074647
-0.00016332207
0.0070006129
-0.00015918441
0.0069939196
-0.00015477022
0.0069873944
-0.00015008109
0.006981047
-0.00014511869
0.0069748869
-0.00013988449
0.0069689233
-0.00013438058
0.0069631657
-0.00012860917
0.0069576233
-0.00012257255
0.0069523051
-0.00011627274
0.0069472202
-0.00010971253
0.0069423777
-0.00010289494
0.0069377868
-9.5822818e-05
0.0069334563
-8.8499076e-05
0.0069293953
-8.0926807e-05
0.0069256127
-7.3109227e-05
0.0069221173
-6.5050038e-05
0.0069189183
-5.6753065e-05
0.0069160247
-4.8222094e-05
0.0069134456
-3.946068e-05
0.0069111899
-3.0473171e-05
0.006909266
-2.1266608e-05
0.006907682
-1.1852155e-05
0.0069059895
-3.0923734e-05
0.0069030867
-0.00012008373
0.0068989571
-0.00021111673
0.0068936336
-0.00030025429
0.006887147
-0.00038706389
0.0068795253
-0.00047118668
0.006870794
-0.00055234652
0.0068609746
-0.0006303516
0.0068500867
-0.00070496691
0.0068381443
-0.00077627248
0.006825157
-0.00084432518
0.0068111337
-0.00090895085
0.0067960774
-0.00097042335
0.0067799857
-0.001028968
0.0067628582
-0.0010843766
0.006744698
-0.0011366025
0.0067255622
-0.0011828343
0.0067055181
-0.0012228646
0.0066846175
-0.0012579134
-0.001288202
0.0071141629
-0.00014987004
0.0071079469
-0.00015331129
0.0071015239
-0.00015661545
0.0070949047
-0.00015977169
0.0070881004
-0.00016276968
0.007081123
-0.00016559965
0.0070739845
-0.00016825229
0.0070666978
-0.00017071851
0.0070592761
-0.00017299007
0.0070517328
-0.00017505926
0.0070440819
-0.00017691837
0.0070363377
-0.00017856052
0.007028515
-0.00017997888
0.0070206291
-0.00018116699
0.0070126965
-0.00018211838
0.0070047348
-0.00018282663
0.006996763
-0.00018328545
0.0069888026
-0.0001834881
0.0069808732
-0.00018342824
0.0069730031
-0.00018309812
0.0069652196
-0.00018249183
0.0069575399
-0.00018159945
0.0069499783
-0.00018040882
0.0069425375
-0.00017892677
0.0069352048
-0.00017714348
0.0069279748
-0.00017506387
0.0069208461
-0.00017270484
0.0069138179
-0.0001700624
0.0069068993
-0.00016714796
0.0069001
-0.00016396503
0.0068934251
-0.00016050757
0.0068868845
-0.00015678148
0.0068804888
-0.00015278871
0.006874247
-0.00014852838
0.0068681684
-0.00014400253
0.0068622628
-0.00013921308
0.006856539
-0.00013416072
0.0068510061
-0.00012884768
0.0068456734
-0.00012327648
0.00684055
-0.00011744916
0.0068356447
-0.00011136744
0.0068309663
-0.00010503414
0.0068265239
-9.8452485e-05
0.0068223263
-9.1625308e-05
0.0068183826
-8.4555299e-05
0.0068147012
-7.7245397e-05
0.0068112908
-6.9698846e-05
0.0068081602
-6.1919498e-05
0.0068053185
-5.3911279e-05
0.0068027743
-4.5677985e-05
0.0068005368
-3.7223113e-05
0.0067986145
-2.855088e-05
0.006797016
-1.9668081e-05
0.0067957492
-1.0585357e-05
0.0067943246
-2.9499135e-05
0.0067915392
-0.0001172984
0.0067873716
-0.00020694913
0.006781857
-0.0002947397
0.0067750302
-0.00038023701
0.0067669251
-0.00046308157
0.0067575733
-0.00054299472
0.0067470039
-0.00061978225
0.0067352459
-0.00069320892
0.006722322
-0.00076334855
0.0067082512
-0.00083025436
0.0066930527
-0.00089375238
0.0066767392
-0.00095410982
0.0066593178
-0.0010115467
0.006640799
-0.0010658577
0.006621195
-0.0011169985
0.0066005762
-0.0011622155
0.0065790222
-0.0012013106
0.0065565943
-0.0012354856
-0.0012649615
0.0069777431
-0.00014093818
0.0069721666
-0.00014429352
0.0069663865
-0.00014753116
0.0069604116
-0.00015064057
0.0069542514
-0.00015361148
0.0069479157
-0.000156434
0.006941415
-0.00015909891
0.00693476
-0.00016159731
0.006927962
-0.00016392055
0.0069210327
-0.0001660607
0.0069139838
-0.00016801042
0.0069068277
-0.00016976227
0.0068995769
-0.00017130968
0.0068922442
-0.00017264619
0.006884843
-0.00017376575
0.006877387
-0.00017466246
0.006869891
-0.00017533059
0.0068623701