/*--------------------------------*- C++ -*----------------------------------*\
| =========                 |                                                 |
| \\      /  F ield         | OpenFOAM: The Open Source CFD Toolbox           |
|  \\    /   O peration     | Version:  2.4.0                                 |
|   \\  /    A nd           | Web:      www.OpenFOAM.org                      |
|    \\/     M anipulation  |                                                 |
\*---------------------------------------------------------------------------*/
FoamFile
{
    version     2.0;
    format      ascii;
    class       volVectorField;
    location    "310";
    object      U;
}
// * * * * * * * * * * * * * * * * * * * * * * * * * * * * * * * * * * * * * //

dimensions      [0 1 -1 0 0 0 0];

internalField   nonuniform List<vector> 
19650
(
(0.64802424 -0.048140926 1.1959139e-21)
(0.64715509 -0.048604954 -1.7628838e-21)
(0.64628307 -0.049005767 -2.6659053e-21)
(0.64540875 -0.049342827 2.4009722e-21)
(0.64453266 -0.049615725 -3.6522395e-21)
(0.64365524 -0.049824168 1.5650664e-21)
(0.64277688 -0.049967973 2.7878143e-22)
(0.64189787 -0.050047059 1.6525636e-21)
(0.64101846 -0.050061445 -1.525634e-22)
(0.64013882 -0.050011235 1.7308067e-21)
(0.63925908 -0.049896617 -3.5177244e-21)
(0.63837929 -0.049717851 -1.8840552e-22)
(0.63749946 -0.049475259 -6.959651e-22)
(0.63661958 -0.049169222 4.8299447e-21)
(0.63573954 -0.048800165 -1.3822421e-22)
(0.63485925 -0.048368554 4.5090058e-21)
(0.63397856 -0.047874883 -1.2180415e-20)
(0.63309729 -0.047319668 5.0696439e-21)
(0.63221524 -0.046703442 -1.8407182e-22)
(0.63133222 -0.046026739 5.2652725e-21)
(0.63044799 -0.045290096 2.6328974e-21)
(0.62956233 -0.044494041 -6.8185901e-21)
(0.62867502 -0.043639084 -4.152254e-21)
(0.62778585 -0.042725714 2.6271015e-21)
(0.62689462 -0.041754389 6.1576984e-21)
(0.62600117 -0.040725533 -7.7478755e-21)
(0.62510536 -0.039639529 6.2689732e-21)
(0.62420708 -0.038496709 6.3905739e-21)
(0.6233063 -0.037297356 -7.9338999e-21)
(0.622403 -0.03604169 2.8477888e-21)
(0.62149728 -0.034729873 -1.2988573e-20)
(0.62058928 -0.033361997 1.5122526e-20)
(0.61967924 -0.031938084 2.9550005e-21)
(0.61876749 -0.03045808 -2.141569e-20)
(0.61785447 -0.028921856 -2.8501073e-22)
(0.61694076 -0.027329201 2.882964e-21)
(0.61602704 -0.025679824 1.56743e-20)
(0.61511415 -0.023973357 3.0396973e-21)
(0.61420309 -0.022209359 -2.5337482e-20)
(0.61329503 -0.020387313 2.9499421e-21)
(0.61239132 -0.01850657 1.7328208e-20)
(0.61149338 -0.016566238 -1.7861904e-20)
(0.61060382 -0.014565352 1.6143429e-20)
(0.60972774 -0.012504717 3.0907016e-21)
(0.60883657 -0.010390402 -5.8438507e-21)
(0.60798944 -0.0082215005 2.0145106e-20)
(0.60760432 -0.005975079 -7.8767891e-22)
(0.60792492 -0.0036424876 -3.7988333e-20)
(0.60892416 -0.0012277664 1.8046526e-20)
(0.61056502 0.0012665969 3.1615583e-20)
(0.6128364 0.003838175 -2.7893067e-20)
(0.61571779 0.006483843 5.7222022e-20)
(0.61918653 0.0092000298 4.4004169e-20)
(0.62321823 0.011982397 4.438865e-20)
(0.62778779 0.014826149 -4.9271652e-20)
(0.63287037 0.01772586 1.0498835e-19)
(0.63844034 0.020675008 1.5318577e-20)
(0.64447245 0.023666363 -6.4258271e-20)
(0.65094283 0.026692017 2.3176423e-20)
(0.65782768 0.029743127 1.0185233e-19)
(0.66510528 0.032811012 3.2443591e-20)
(0.67274146 0.035886527 1.7192459e-20)
(0.680692 0.038959741 3.7998114e-20)
(0.68891885 0.042020739 -4.9501804e-20)
(0.6973899 0.045058922 -1.3282545e-20)
(0.67795694 -0.047122949 -1.8019402e-21)
(0.67699402 -0.047584254 -6.1282179e-23)
(0.67602747 -0.047983266 1.3926138e-21)
(0.67505809 -0.048319368 1.4420829e-21)
(0.67408661 -0.048592063 -2.4927501e-21)
(0.67311371 -0.048800974 6.9034988e-21)
(0.67213994 -0.048945834 -5.3525841e-21)
(0.67116584 -0.049026484 -2.6411275e-21)
(0.67019183 -0.049042864 1.5369647e-21)
(0.66921828 -0.048995007 1.4142767e-21)
(0.66824551 -0.048883033 1.6337537e-21)
(0.66727376 -0.048707138 1.6829811e-21)
(0.66630321 -0.048467586 -1.0896202e-21)
(0.66533402 -0.048164702 -3.6117446e-24)
(0.66436626 -0.047798863 -6.1320884e-21)
(0.66339999 -0.047370489 5.1604729e-21)
(0.66243522 -0.046880038 -1.1897682e-21)
(0.66147191 -0.046327992 -3.5893434e-21)
(0.66051001 -0.045714856 1.7837636e-21)
(0.65954944 -0.045041147 -1.2769035e-21)
(0.65859011 -0.044307388 -7.7464337e-23)
(0.65763191 -0.043514101 3.5939143e-21)
(0.65667471 -0.042661798 -6.828405e-21)
(0.65571842 -0.041750977 1.0719602e-20)
(0.65476292 -0.040782116 -5.0846643e-21)
(0.65380812 -0.039755664 3.7848079e-21)
(0.65285397 -0.038672038 -5.208106e-21)
(0.65190041 -0.037531619 4.0646758e-21)
(0.65094747 -0.036334739 -7.4743282e-21)
(0.64999517 -0.035081688 2.0068401e-21)
(0.64904365 -0.0337727 6.1328476e-21)
(0.64809306 -0.032407956 2.1106987e-21)
(0.64714366 -0.030987576 -1.7346575e-20)
(0.64619579 -0.029511616 2.0289269e-21)
(0.64524988 -0.027980071 6.280663e-21)
(0.64430648 -0.026392868 2.1220851e-21)
(0.64336625 -0.024749867 -1.7267916e-21)
(0.64243 -0.023050863 9.8840726e-21)
(0.64149867 -0.021295596 -5.5526765e-21)
(0.64057337 -0.019483743 1.0015096e-20)
(0.63965537 -0.017614865 -1.3610679e-20)
(0.63874603 -0.015688328 -5.9187935e-21)
(0.63784786 -0.013703494 2.1922116e-21)
(0.63696549 -0.011661548 1.0150596e-20)
(0.63607142 -0.0095685373 -1.0884625e-20)
(0.6352236 -0.0074225291 -1.109489e-20)
(0.63481852 -0.0052005023 1.5862988e-20)
(0.63508744 -0.002894384 3.5911324e-21)
(0.63600895 -0.00050861875 2.3981421e-20)
(0.63754705 0.0019537718 -7.3690783e-21)
(0.6396914 0.0044895623 -5.5427148e-21)
(0.64242278 0.0070950851 -4.171244e-20)
(0.64571947 0.0097661943 -4.8497099e-20)
(0.64955795 0.012497992 -1.2602577e-20)
(0.65391384 0.015285142 -2.1460559e-20)
(0.65876286 0.018121723 -4.3922682e-20)
(0.66407993 0.021000799 1.7136435e-20)
(0.6698402 0.023914784 -1.8790458e-20)
(0.67602008 0.026855483 -4.9813364e-21)
(0.68259605 0.02981386 3.6324788e-20)
(0.68954641 0.03278109 -9.5708094e-20)
(0.69683777 0.035747993 3.5612396e-20)
(0.70442734 0.038704737 2.0326774e-20)
(0.71227814 0.041641611 8.0515472e-20)
(0.72035893 0.044548348 3.9547422e-20)
(0.70703166 -0.045981823 -3.3043713e-21)
(0.70600299 -0.046438871 1.2945342e-21)
(0.70496916 -0.046834818 -2.9072837e-21)
(0.7039312 -0.047168969 1.175002e-21)
(0.70289007 -0.047440744 -2.2411551e-21)
(0.70184666 -0.047649677 1.2055313e-21)
(0.70080177 -0.047795413 1.0971288e-21)
(0.69975615 -0.047877708 1.4453972e-21)
(0.69871045 -0.047896419 1.3369963e-21)
(0.69766526 -0.047851502 1.380845e-21)
(0.69662111 -0.047742999 3.4021589e-23)
(0.69557845 -0.047571035 -4.9157888e-21)
(0.69453768 -0.047335808 5.3479418e-21)
(0.69349915 -0.04703758 -3.4353406e-21)
(0.69246314 -0.04667667 2.4124603e-21)
(0.69142988 -0.046253444 -2.5978774e-21)
(0.69039957 -0.045768312 1.338517e-21)
(0.68937237 -0.045221716 -3.4853809e-21)
(0.68834838 -0.044614124 2.5265938e-21)
(0.6873277 -0.043946024 1.402102e-21)
(0.68631037 -0.043217915 -3.6149846e-21)
(0.68529645 -0.042430303 7.097483e-21)
(0.68428596 -0.041583694 -3.8546851e-21)
(0.68327891 -0.040678583 2.5420791e-21)
(0.68227532 -0.039715457 1.9231667e-21)
(0.68127521 -0.038694781 1.3454928e-20)
(0.68027863 -0.037616996 -9.0112034e-21)
(0.67928562 -0.036482517 -2.1817812e-20)
(0.67829628 -0.035291723 1.3907957e-20)
(0.67731072 -0.034044955 2.7151347e-21)
(0.6763291 -0.032742513 1.8390476e-21)
(0.67535166 -0.031384655 -3.0705146e-21)
(0.67437867 -0.029971587 -1.7677055e-20)
(0.6734105 -0.028503468 2.6916079e-21)
(0.67244759 -0.026980404 2.7367667e-21)
(0.67149048 -0.02540245 1.4781243e-20)
(0.67053982 -0.023769605 -1.1119267e-20)
(0.66959637 -0.02208182 1.4999162e-20)
(0.66866104 -0.020339002 1.9667589e-21)
(0.66773487 -0.018541012 -2.2688288e-20)
(0.66681906 -0.016687614 2.875187e-21)
(0.66591485 -0.014778413 9.2338057e-22)
(0.66502466 -0.012813079 1.9299484e-21)
(0.66415262 -0.010793128 1.6431674e-20)
(0.66327246 -0.008724536 -9.0141357e-21)
(0.66244042 -0.0066045812 -7.3831749e-22)
(0.6620294 -0.0044106848 -3.3455087e-21)
(0.66225743 -0.0021351962 -2.6661042e-20)
(0.66310843 0.0002169465 5.5056188e-21)
(0.6645476 0.0026419717 -5.7455587e-20)
(0.66656559 0.005136124 6.1731184e-20)
(0.6691446 0.0076952839 2.3108302e-20)
(0.67226406 0.010314775 -1.3556241e-20)
(0.67590153 0.012989221 2.7383896e-20)
(0.68003365 0.015712821 1.5300948e-20)
(0.68463697 0.018479264 -2.9926201e-21)
(0.68968722 0.021281296 -3.266993e-20)
(0.69516025 0.024111064 3.2797864e-20)
(0.70103301 0.026960204 -1.0625254e-19)
(0.7072825 0.029819598 -2.7583176e-20)
(0.71388735 0.032680385 5.3987618e-20)
(0.72081518 0.035533472 -1.1335173e-20)
(0.72802494 0.038369239 9.4424533e-22)
(0.73548102 0.041178282 -4.6814005e-20)
(0.74315326 0.043950765 -2.5879716e-20)
(0.73510277 -0.044743464 1.3721832e-21)
(0.73403435 -0.045193757 -4.1553144e-21)
(0.73295869 -0.045584429 2.4363711e-21)
(0.73187703 -0.045914729 -1.6666421e-21)
(0.73079057 -0.046183997 -1.7245368e-21)
(0.72970043 -0.046391672 4.1275921e-21)
(0.72860763 -0.046537307 4.6580607e-21)
(0.72751315 -0.046620565 -6.5991718e-21)
(0.72641787 -0.046641216 6.440102e-21)
(0.7253226 -0.04659913 -1.7947584e-21)
(0.72422809 -0.046494272 -3.9351943e-21)
(0.72313502 -0.046326687 -2.3451624e-21)
(0.72204401 -0.046096499 2.0923566e-22)
(0.72095563 -0.0458039 2.9395502e-21)
(0.71987036 -0.045449144 -7.4685901e-21)
(0.71878866 -0.045032536 4.8345364e-21)
(0.71771092 -0.044554429 5.3788641e-21)
(0.7166375 -0.044015215 -2.0541731e-21)
(0.71556871 -0.043415316 -2.5792534e-21)
(0.71450482 -0.04275518 5.6359814e-21)
(0.71344608 -0.042035276 -1.0034511e-20)
(0.71239268 -0.041256082 5.2671346e-21)
(0.71134484 -0.040418085 8.3459144e-21)
(0.71030271 -0.039521771 -4.7198103e-21)
(0.70926648 -0.03856762 -8.4750132e-21)
(0.7082363 -0.037556104 6.0118437e-21)
(0.70721234 -0.036487678 -7.3731431e-22)
(0.70619477 -0.035362778 4.058622e-21)
(0.7051838 -0.034181814 8.4370565e-21)
(0.70417963 -0.032945171 -1.3748048e-20)
(0.70318253 -0.031653201 -6.2848384e-21)
(0.70219279 -0.030306223 1.247907e-20)
(0.70121075 -0.02890452 -1.1376803e-20)
(0.70023682 -0.027448337 -3.0854388e-21)
(0.69927149 -0.025937878 8.7708323e-21)
(0.6983153 -0.02437331 6.6123602e-21)
(0.69736891 -0.022754758 8.9887806e-21)
(0.69643306 -0.021082313 -2.3875629e-20)
(0.69550863 -0.019356034 6.694526e-21)
(0.6945966 -0.017575947 -5.5052872e-21)
(0.69369809 -0.015742 -9.7001191e-21)
(0.69281426 -0.013854019 9.1272527e-21)
(0.69194741 -0.011911963 6.8364798e-21)
(0.6911012 -0.0099176221 -5.5909194e-21)
(0.69025077 -0.0078768058 9.2682867e-21)
(0.68945007 -0.0057861645 4.0891397e-21)
(0.68904688 -0.0036241489 -6.8617816e-21)
(0.68924563 -0.0013836446 7.5097379e-21)
(0.69003453 0.00092997841 -2.8710738e-21)
(0.69138051 0.0033122773 2.5483311e-20)
(0.69327526 0.0057591004 -2.7355741e-20)
(0.69570244 0.0082658589 1.2180005e-20)
(0.69864281 0.010827442 -3.650436e-20)
(0.7020752 0.01343808 6.6066155e-22)
(0.70597745 0.016091611 4.1965281e-20)
(0.71032726 0.01878142 2.5482381e-20)
(0.71510131 0.021500034 2.4273865e-21)
(0.72027642 0.024239446 5.3450244e-21)
(0.72583035 0.026991225 3.2262088e-20)
(0.73174082 0.029746276 -6.3619035e-20)
(0.73798702 0.032495806 2.4071896e-20)
(0.7445379 0.035230916 -1.7673269e-20)
(0.75135441 0.037942304 -4.9688088e-20)
(0.75840255 0.040620958 2.0856062e-20)
(0.76565349 0.043257555 -1.9150951e-20)
(0.76208695 -0.043431989 3.5212875e-22)
(0.76100004 -0.043872376 -7.5653839e-22)
(0.75990358 -0.044254965 7.0008058e-22)
(0.75879902 -0.044578921 3.3761082e-21)
(0.75768777 -0.044843487 -4.8559426e-21)
(0.75657116 -0.045048007 2.425112e-21)
(0.75545044 -0.045191946 -3.3299807e-21)
(0.75432677 -0.045274877 4.3913586e-21)
(0.75320124 -0.045296482 -8.2724854e-22)
(0.75207487 -0.045256542 -3.7979683e-21)
(0.75094863 -0.045154938 -3.6152118e-21)
(0.74982342 -0.044991637 6.5193829e-21)
(0.74870006 -0.044766683 -4.723958e-21)
(0.74757934 -0.044480196 8.7097039e-21)
(0.74646196 -0.044132355 -1.9529374e-21)
(0.7453486 -0.043723402 1.5689794e-22)
(0.74423985 -0.043253624 -5.3144599e-21)
(0.74313628 -0.042723356 3.2613074e-21)
(0.74203839 -0.042132967 -2.1206843e-21)
(0.74094667 -0.041482859 -5.406223e-21)
(0.73986154 -0.040773456 5.300096e-21)
(0.73878342 -0.040005205 1.3271497e-20)
(0.73771266 -0.039178561 -6.3199475e-21)
(0.73664963 -0.03829399 2.4743373e-23)
(0.73559466 -0.037351958 -1.585991e-20)
(0.73454807 -0.036352929 1.2587704e-20)
(0.73351017 -0.035297361 7.0269972e-21)
(0.7324813 -0.0341857 -7.080814e-21)
(0.73146177 -0.033018377 1.4369823e-20)
(0.73045193 -0.031795803 -1.0620192e-20)
(0.72945214 -0.03051837 -2.0317905e-20)
(0.72846279 -0.029186446 7.2387224e-21)
(0.72748431 -0.027800375 9.5894545e-21)
(0.7265172 -0.026360469 7.4841292e-21)
(0.72556197 -0.02486702 -9.8139344e-21)
(0.72461922 -0.023320287 -3.657502e-21)
(0.72368964 -0.021720503 -2.350515e-21)
(0.72277398 -0.020067878 9.9584339e-21)
(0.7218731 -0.018362607 -5.0752493e-21)
(0.72098794 -0.016604859 3.6548075e-21)
(0.72011958 -0.014794741 1.1936696e-20)
(0.71926909 -0.012932273 -2.599231e-20)
(0.71843868 -0.011017665 1.4360773e-20)
(0.71763161 -0.0090529303 7.9011624e-21)
(0.71682449 -0.0070436997 -1.4042232e-20)
(0.71606873 -0.004986327 -5.3100296e-21)
(0.71568612 -0.0028603003 -1.9001656e-21)
(0.71586676 -0.00065919341 -1.7217704e-20)
(0.71660253 0.0016108514 2.2947398e-20)
(0.71786246 0.0039449765 -2.9480821e-20)
(0.71963913 0.0063387763 4.2990721e-20)
(0.72191767 0.0087872461 -7.1092975e-21)
(0.72468027 0.011284911 3.7644213e-20)
(0.72790715 0.013825686 -3.7082823e-20)
(0.73157753 0.016403174 -3.462353e-20)
(0.73567033 0.019010522 -4.4909702e-21)
(0.74016345 0.021640102 9.606502e-20)
(0.74503485 0.024283884 3.5337816e-20)
(0.75026327 0.02693346 -3.7927128e-20)
(0.75582741 0.02957985 3.6833073e-20)
(0.76170725 0.032214417 -4.4901022e-20)
(0.76787332 0.034828545 1.4864126e-21)
(0.77428884 0.037413342 -2.3781755e-20)
(0.78092169 0.039960263 -6.286527e-20)
(0.78774462 0.042460555 2.974856e-20)
(0.78795682 -0.042067131 -4.2503524e-21)
(0.7868662 -0.042494123 5.5521869e-21)
(0.78576397 -0.042865385 2.8389175e-21)
(0.78465171 -0.04318016 -5.1548062e-21)
(0.78353099 -0.043437545 3.7913466e-21)
(0.78240327 -0.043636732 -6.2686574e-21)
(0.78126995 -0.043777076 4.8078862e-21)
(0.78013235 -0.043858053 -6.5161876e-21)
(0.77899177 -0.04387927 4.0067304e-21)
(0.77784939 -0.043840429 5.4973193e-21)
(0.77670638 -0.043741329 -2.8112352e-21)
(0.77556382 -0.043581854 3.6452188e-21)
(0.77442274 -0.043361971 9.7594508e-22)
(0.77328412 -0.043081723 -4.498879e-22)
(0.77214886 -0.042741218 -1.1926444e-20)
(0.77101784 -0.042340624 1.0296519e-20)
(0.76989185 -0.041880165 -6.4185066e-22)
(0.76877166 -0.04136011 -9.1317081e-21)
(0.76765797 -0.04078077 4.6892879e-21)
(0.76655146 -0.040142494 1.3511007e-20)
(0.76545275 -0.039445658 -2.1100585e-20)
(0.76436243 -0.038690663 7.6206851e-21)
(0.76328106 -0.037877931 4.9952924e-21)
(0.76220917 -0.037007895 -3.5518744e-21)
(0.76114726 -0.036080999 -7.1405235e-21)
(0.76009583 -0.03509769 1.1721645e-20)
(0.75905535 -0.034058418 1.5386825e-21)
(0.7580263 -0.032963626 -1.6361422e-20)
(0.75700914 -0.031813754 2.486644e-20)
(0.75600436 -0.030609231 -2.3336155e-20)
(0.75501244 -0.029350471 8.2674973e-21)
(0.75403389 -0.02803788 -6.5618637e-22)
(0.75306925 -0.026671844 -3.9302895e-21)
(0.75211908 -0.025252735 8.6777506e-21)
(0.751184 -0.023780906 -7.8154999e-21)
(0.75026466 -0.022256698 -1.1089401e-20)
(0.7493618 -0.02068043 8.8159407e-21)
(0.7484762 -0.019052417 1.2854429e-20)
(0.74760872 -0.017372961 -1.1245615e-20)
(0.74676032 -0.015642357 1.6259869e-20)
(0.74593205 -0.013860846 -1.5344716e-20)
(0.74512493 -0.012028617 7.3176336e-21)
(0.7443411 -0.010146146 1.1738837e-20)
(0.74358355 -0.008215789 -6.6722228e-22)
(0.74283045 -0.0062424879 -2.1018388e-20)
(0.74213025 -0.004222285 -2.4981961e-21)
(0.74177868 -0.0021368914 1.205622e-20)
(0.74195111 1.9397888e-05 9.6991128e-21)
(0.74264248 0.0022404116 -1.2700644e-20)
(0.74382404 0.004520849 1.5114581e-20)
(0.74548906 0.0068559588 -3.5711211e-20)
(0.74762412 0.0092404327 1.1086702e-20)
(0.7502128 0.011668493 -2.6465496e-20)
(0.75323679 0.014133846 -2.9575392e-20)
(0.75667671 0.016629926 2.2463601e-20)
(0.76051283 0.019149712 -4.2917277e-20)
(0.76472443 0.021685525 -4.3821693e-20)
(0.76929074 0.024229367 -2.7942478e-21)
(0.77419175 0.026772929 7.857398e-21)
(0.77940731 0.029307425 7.1614809e-20)
(0.78491847 0.031824453 -6.8978027e-20)
(0.79069761 0.034315756 1.9253915e-20)
(0.79671043 0.036772923 6.8641498e-20)
(0.80292695 0.039187941 8.8608807e-20)
(0.80932169 0.041552686 3.1181126e-20)
(0.81690394 -0.038510747 4.5865937e-22)
(0.81588631 -0.03912141 -3.08317e-21)
(0.81485015 -0.039683297 2.6430391e-21)
(0.81379581 -0.040196549 -8.7743549e-22)
(0.81272495 -0.040660019 8.2399637e-22)
(0.81163941 -0.041071175 1.075075e-21)
(0.8105404 -0.04142868 -9.120992e-22)
(0.80942966 -0.041731825 2.9484674e-21)
(0.80830906 -0.041979575 -9.1563115e-22)
(0.80718016 -0.042171188 -1.6528044e-21)
(0.80604444 -0.04230601 -1.7169045e-21)
(0.80490334 -0.042383393 -1.5157964e-21)
(0.80375827 -0.042402841 6.6700195e-21)
(0.80261058 -0.042363975 -6.8344584e-21)
(0.80146159 -0.042266519 9.5773833e-22)
(0.80031253 -0.042110293 1.2519163e-21)
(0.79916462 -0.041895187 -1.6356839e-21)
(0.79801898 -0.041621167 7.2390185e-21)
(0.79687672 -0.041288267 -1.9013165e-21)
(0.79573885 -0.040896583 -7.5277249e-21)
(0.79460638 -0.040446271 4.4378216e-21)
(0.79348022 -0.039937534 -2.0519558e-21)
(0.79236127 -0.039370622 4.5939153e-21)
(0.79125037 -0.038745825 1.4625866e-21)
(0.79014833 -0.038063465 -1.2533776e-20)
(0.78905589 -0.037323897 1.3806595e-21)
(0.78797381 -0.036527498 5.6954453e-21)
(0.78690276 -0.035674666 -1.2748927e-20)
(0.78584343 -0.034765812 2.0172802e-20)
(0.78479646 -0.03380136 -1.3288853e-20)
(0.7837625 -0.032781741 -3.3080679e-21)
(0.78274215 -0.031707391 9.892869e-21)
(0.78173604 -0.030578744 6.1506973e-21)
(0.78074478 -0.029396234 -3.2990251e-21)
(0.77976899 -0.028160293 1.6337933e-21)
(0.77880929 -0.026871346 -1.4119588e-20)
(0.77786634 -0.025529811 1.0380328e-20)
(0.7769408 -0.0241361 1.2235856e-20)
(0.77603337 -0.02269062 -1.339172e-20)
(0.7751448 -0.02119377 1.676826e-21)
(0.77427586 -0.019645943 -1.0495606e-20)
(0.77342738 -0.018047535 1.6574043e-21)
(0.77260028 -0.016398944 6.6130511e-21)
(0.77179551 -0.014700565 1.3597166e-21)
(0.77101411 -0.012952763 1.7309199e-21)
(0.77025712 -0.011155887 -5.4097129e-21)
(0.76952665 -0.0093106176 -2.5835119e-21)
(0.76882538 -0.0074195443 1.7954356e-20)
(0.76813314 -0.0054871371 -1.6217951e-20)
(0.76749553 -0.0035093559 9.4228211e-21)
(0.76718224 -0.0014699849 -5.4640425e-22)
(0.76735429 0.00063597293 -9.6479622e-21)
(0.76800878 0.0028022938 3.6253011e-20)
(0.76911905 0.0050233405 -1.2992364e-20)
(0.77067896 0.0072941109 1.0740771e-20)
(0.77267639 0.0096090493 5.2641338e-20)
(0.77509624 0.011962214 -1.7953395e-21)
(0.7779217 0.01434712 2.5763177e-20)
(0.78113485 0.016757019 2.3250446e-20)
(0.78471744 0.019184844 8.1477249e-21)
(0.78865028 0.021622922 -1.480894e-21)
(0.7929141 0.024063344 -6.0782709e-21)
(0.79749029 0.026497965 2.255819e-20)
(0.80236014 0.028918259 -6.5301399e-20)
(0.80750596 0.031316136 8.1451136e-20)
(0.81290219 0.033683771 4.5565489e-20)
(0.81851721 0.036013299 -5.4249585e-20)
(0.8243233 0.038297303 -7.2959594e-20)
(0.83029683 0.040528327 -1.0597462e-20)
(0.84358751 -0.035090458 5.253478e-23)
(0.84260154 -0.035822359 -1.8255769e-21)
(0.84160462 -0.036511192 2.1008724e-21)
(0.84059718 -0.037158159 2.1679351e-21)
(0.83957721 -0.037753417 -4.0178587e-21)
(0.838543 -0.038292612 4.172965e-22)
(0.83749501 -0.038780909 -2.9969782e-21)
(0.83643005 -0.039220318 2.9776154e-21)
(0.83535091 -0.039610203 4.5437689e-21)
(0.83425852 -0.039950535 -7.2674038e-21)
(0.83315377 -0.040240114 2.8066778e-21)
(0.83203834 -0.04047673 -2.6166302e-21)
(0.83091356 -0.040659227 3.2708989e-21)
(0.82978106 -0.040786933 -5.5776647e-21)
(0.82864253 -0.040859251 4.9825368e-21)
(0.82749945 -0.040875754 3.4845428e-21)
(0.82635329 -0.040835972 -9.0742687e-21)
(0.82520543 -0.040739522 6.0904259e-21)
(0.82405726 -0.040586141 2.919335e-21)
(0.8229101 -0.040375646 6.2842304e-21)
(0.82176522 -0.040107941 -6.0079738e-21)
(0.82062384 -0.039782989 2.9674509e-21)
(0.81948714 -0.039400817 -1.7493137e-20)
(0.81835623 -0.038961508 1.416595e-20)
(0.8172322 -0.0384652 7.1561016e-21)
(0.81611606 -0.037912079 -1.8480519e-20)
(0.81500882 -0.037302376 3.1829378e-21)
(0.81391141 -0.036636359 7.0749129e-21)
(0.81282474 -0.035914331 3.2362104e-21)
(0.8117497 -0.035136622 -6.8752191e-21)
(0.81068712 -0.034303589 3.2774871e-21)
(0.80963782 -0.033415609 -7.0751652e-21)
(0.8086026 -0.032473075 3.3189306e-21)
(0.80758224 -0.031476394 -5.2956367e-21)
(0.80657748 -0.030425986 2.0711551e-20)
(0.80558908 -0.029322273 -1.176634e-20)
(0.80461778 -0.028165687 8.0376139e-21)
(0.80366432 -0.026956663 3.6067396e-21)
(0.80272945 -0.025695638 -2.1056029e-20)
(0.80181393 -0.024383051 3.3885986e-21)
(0.80091851 -0.02301934 8.2757014e-21)
(0.800044 -0.02160495 -1.2471563e-20)
(0.79919121 -0.020140325 8.377932e-21)
(0.79836099 -0.018625913 3.5385116e-21)
(0.79755422 -0.017062173 -7.9232953e-21)
(0.79677185 -0.015449577 8.5615623e-21)
(0.79601484 -0.013788606 3.7809442e-21)
(0.79528424 -0.012079717 -2.2579732e-20)
(0.79458108 -0.010323364 3.7592927e-21)
(0.79390743 -0.0085204881 2.3198565e-20)
(0.79326535 -0.0066741695 -8.3025183e-21)
(0.79263704 -0.0047877528 -1.196527e-20)
(0.79206449 -0.0028576955 9.8578965e-22)
(0.79179267 -0.00087040956 1.3255173e-20)
(0.7919684 0.0011791306 -4.8980235e-21)
(0.79259015 0.0032848067 -2.6213292e-20)
(0.79363332 0.0054407066 1.8012373e-20)
(0.79509238 0.007641581 5.1784613e-21)
(0.7969564 0.0098816225 -7.1555337e-20)
(0.79921178 0.012154733 -1.6978484e-20)
(0.80184319 0.014454322 -7.5404023e-20)
(0.80483434 0.016773503 5.350297e-21)
(0.80816864 0.019105209 1.4169834e-20)
(0.81182856 0.021441849 -3.705304e-20)
(0.81579651 0.023775681 -4.5447143e-20)
(0.82005543 0.02609881 4.6593302e-21)
(0.82458817 0.028403063 2.0203737e-20)
(0.82937843 0.03068074 -6.0027448e-20)
(0.83440273 0.032924543 -2.0773559e-20)
(0.83963213 0.035127218 3.9696207e-20)
(0.84504109 0.037281972 2.7997136e-20)
(0.85060781 0.039382049 5.4748419e-20)
(0.86747101 -0.032941108 9.6566917e-22)
(0.86646763 -0.033704032 1.0486495e-21)
(0.86544872 -0.034423521 4.8558543e-22)
(0.86441731 -0.035097511 -5.8778843e-21)
(0.86337639 -0.035723941 2.4502622e-21)
(0.86232801 -0.036300128 6.6865225e-22)
(0.86127146 -0.036825972 6.8836297e-22)
(0.86020881 -0.037308099 -4.780665e-21)
(0.85913913 -0.037741527 6.4876458e-22)
(0.8580599 -0.038116865 2.8635743e-21)
(0.85697127 -0.038438515 7.2583718e-22)
(0.85587005 -0.038710342 1.2036462e-21)
(0.85476025 -0.038932383 -2.2126934e-21)
(0.85364193 -0.039104272 -2.7544742e-21)
(0.85251593 -0.03922427 1.4537256e-21)
(0.85138367 -0.039291049 2.7147952e-21)
(0.85024664 -0.039304076 -7.3163024e-21)
(0.84910651 -0.039262864 2.4915627e-21)
(0.84796477 -0.039167125 1.0379704e-21)
(0.84682284 -0.03901656 2.8850154e-21)
(0.84568209 -0.03881087 1.3859462e-21)
(0.84454385 -0.038549872 3.0304931e-21)
(0.84340945 -0.038233457 3.3856742e-21)
(0.84228015 -0.037861589 -1.4929109e-21)
(0.84115716 -0.037434292 4.0614531e-21)
(0.84004166 -0.036951637 -2.0449212e-20)
(0.83893478 -0.03641375 8.2445553e-22)
(0.83783761 -0.035820801 3.177974e-21)
(0.83675122 -0.035173005 8.9593402e-22)
(0.83567663 -0.034470614 5.997763e-21)
(0.83461482 -0.033713913 1.5945728e-21)
(0.83356676 -0.032903216 2.8511445e-21)
(0.8325334 -0.032038863 1.6709106e-21)
(0.83151563 -0.031121215 3.5778855e-21)
(0.83051435 -0.030150653 1.4325189e-21)
(0.82953045 -0.029127572 -2.3066707e-20)
(0.82856478 -0.028052383 1.6064043e-21)
(0.82761821 -0.026925508 3.2628862e-21)
(0.82669158 -0.025747377 3.9802356e-21)
(0.82578574 -0.02451843 1.0594049e-21)
(0.82490156 -0.023239117 4.0837316e-21)
(0.82403988 -0.021909895 3.8007251e-21)
(0.8232016 -0.02053123 1.8134497e-21)
(0.82238759 -0.019103599 3.8808159e-21)
(0.82159878 -0.017627487 -1.3226921e-20)
(0.82083611 -0.016103398 -9.9109801e-21)
(0.82010054 -0.014531856 3.8969439e-22)
(0.81939308 -0.012913397 4.9429253e-21)
(0.81871477 -0.011248544 3.2268823e-21)
(0.81806666 -0.0095379316 3.9554371e-21)
(0.81745053 -0.0077829627 1.855624e-21)
(0.81686812 -0.0059857321 -1.2646258e-20)
(0.81630318 -0.0041492986 3.6607697e-21)
(0.81579331 -0.0022715097 -9.4520826e-21)
(0.81556008 -0.00034040235 1.0073701e-21)
(0.81573737 0.0016483999 1.9363601e-20)
(0.81632475 0.003688885 -2.3827314e-22)
(0.81729996 0.0057749054 2.2606291e-20)
(0.8186583 0.007900976 -1.4740946e-20)
(0.82039034 0.010061306 4.2674369e-20)
(0.82248402 0.012249685 3.7309662e-20)
(0.82492565 0.014459363 -1.5285302e-20)
(0.82770072 0.016683564 3.6730077e-20)
(0.83079432 0.018915308 -4.1684324e-20)
(0.83419064 0.0211472 4.8098631e-20)
(0.83787371 0.023371776 3.7972545e-20)
(0.84182804 0.025581496 -2.7514153e-20)
(0.84603794 0.027768637 -1.9107059e-20)
(0.85048839 0.029925976 2.0261775e-20)
(0.85515789 0.032046788 -2.4235159e-20)
(0.86001987 0.034124468 -5.1411669e-20)
(0.86505077 0.036152862 2.7878732e-20)
(0.87023035 0.038125901 -3.045116e-20)
(0.88907668 -0.031527951 7.2965897e-21)
(0.88807533 -0.03226123 -7.011375e-22)
(0.88705255 -0.032956751 -4.1580879e-21)
(0.88601107 -0.033612811 -7.9126983e-22)
(0.88495335 -0.034227128 6.6702036e-23)
(0.88388247 -0.034795994 4.0968197e-21)
(0.8828021 -0.035316199 -1.4721187e-21)
(0.88171456 -0.035786397 -1.0215216e-22)
(0.88062417 -0.036204624 -6.0674152e-22)
(0.87952969 -0.036571363 1.0166663e-22)
(0.87843256 -0.036893521 -8.5193972e-22)
(0.87733223 -0.037164305 -8.7805743e-22)
(0.87622699 -0.03737623 3.1106699e-22)
(0.87511459 -0.037536202 4.628506e-21)
(0.87399645 -0.037646146 -8.6673284e-22)
(0.87287397 -0.037706532 -8.9446656e-22)
(0.87174748 -0.037716463 -9.9356391e-21)
(0.87061821 -0.037674437 1.4261578e-20)
(0.86948745 -0.037579875 -1.1297159e-20)
(0.86835677 -0.037432438 4.5003149e-21)
(0.86722764 -0.037231917 9.9690601e-21)
(0.86610142 -0.036978166 -4.6181611e-21)
(0.86497943 -0.036670981 -1.2033342e-20)
(0.86386298 -0.03631024 1.5655047e-20)
(0.86275333 -0.035895896 -1.7731301e-20)
(0.86165174 -0.035427968 1.1272186e-20)
(0.86055939 -0.034906533 -6.9436061e-21)
(0.85947746 -0.034331711 1.0671511e-20)
(0.85840707 -0.033703667 -1.1799696e-20)
(0.85734934 -0.033022605 1.2209371e-20)
(0.85630535 -0.032288768 -1.3380058e-20)
(0.85527614 -0.03150243 1.7378536e-20)
(0.85426274 -0.030663897 -1.2340209e-20)
(0.85326617 -0.029773497 1.1490126e-20)
(0.8522874 -0.028831585 -1.396844e-20)
(0.85132741 -0.027838533 1.3072386e-20)
(0.85038716 -0.026794735 -7.7421398e-21)
(0.84946761 -0.025700599 1.2296788e-20)
(0.84856968 -0.024556548 -1.3099897e-20)
(0.84769433 -0.023363021 1.2181749e-20)
(0.84684249 -0.022120467 -1.3661849e-20)
(0.8460151 -0.020829354 -7.0461237e-21)
(0.84521312 -0.019490162 1.2752851e-20)
(0.84443751 -0.018103384 -1.5132157e-20)
(0.84368924 -0.016669529 1.2918088e-20)
(0.84296929 -0.015189125 -1.3858303e-20)
(0.84227866 -0.013662731 1.9408485e-20)
(0.84161839 -0.012090923 -6.8742421e-21)
(0.84098954 -0.010474279 6.8995824e-21)
(0.84039309 -0.0088134202 -1.5264019e-20)
(0.83983061 -0.0071092826 1.2973519e-20)
(0.83930378 -0.0053638516 -1.5715245e-20)
(0.83879739 -0.0035806257 6.4578726e-21)
(0.83834574 -0.0017575987 2.3331182e-20)
(0.83814886 0.0001156971 -1.7233631e-20)
(0.83832885 0.0020424273 -2.6835314e-20)
(0.83888571 0.0040163154 2.3073176e-20)
(0.83979939 0.0060308819 1.176847e-20)
(0.84106598 0.008080686 -1.3501179e-20)
(0.84267734 0.010159859 -2.2719196e-20)
(0.84462277 0.012262062 4.9441418e-21)
(0.8468902 0.014380732 2.0406751e-20)
(0.84946664 0.016509251 -2.2557884e-20)
(0.85233868 0.018640855 1.6567341e-20)
(0.85549202 0.020768454 2.0004182e-20)
(0.85891214 0.022884948 -5.9702761e-20)
(0.86258486 0.024983221 1.675489e-21)
(0.86649575 0.027056037 6.2780563e-20)
(0.87063092 0.029096691 3.0593266e-20)
(0.87497056 0.031099014 8.3043249e-21)
(0.87949015 0.03305701 6.0482789e-20)
(0.88416789 0.034965133 -2.4589951e-20)
(0.88898495 0.036817946 -5.3891451e-20)
(0.90874483 -0.030160897 2.9735257e-21)
(0.90776648 -0.030860045 1.3548124e-21)
(0.90676334 -0.031524912 -3.6274166e-21)
(0.90573766 -0.032153424 1.992245e-21)
(0.90469171 -0.032743436 -1.9187925e-21)
(0.90362802 -0.033292591 2.048449e-21)
(0.90254953 -0.033799062 2.1048153e-21)
(0.90145891 -0.034261551 -3.8713963e-21)
(0.90035916 -0.03467752 4.2592533e-21)
(0.89925351 -0.03504383 2.2238844e-21)
(0.89814454 -0.035358872 -4.0906903e-21)
(0.89703701 -0.035621299 2.2567045e-21)
(0.89592937 -0.035836293 -4.2279516e-21)
(0.89482262 -0.036002318 4.566057e-21)
(0.89371546 -0.036111517 -7.2948893e-21)
(0.8926065 -0.036166324 2.4410911e-21)
(0.89149399 -0.036171254 5.4413266e-21)
(0.89038093 -0.036127168 -5.3401372e-21)
(0.88926738 -0.036034004 2.4881011e-21)
(0.88815423 -0.035890383 2.5585278e-21)
(0.8870427 -0.035695576 5.8586275e-21)
(0.88593418 -0.035449384 -5.5030138e-21)
(0.88483018 -0.035151638 2.7093806e-21)
(0.88373203 -0.034802299 -5.7038249e-21)
(0.88264102 -0.034401265 -7.6819051e-21)
(0.8815584 -0.033948471 6.299816e-21)
(0.88048542 -0.033443941 -6.148825e-21)
(0.8794233 -0.032887747 2.7869457e-21)
(0.87837324 -0.03228002 6.587605e-21)
(0.87733641 -0.03162093 2.9516629e-21)
(0.87631394 -0.030910679 -6.4044526e-21)
(0.87530695 -0.030149509 2.9893328e-21)
(0.87431653 -0.029337689 6.8288465e-21)
(0.87334378 -0.028475521 3.2717284e-21)
(0.87238974 -0.027563334 -2.2277716e-20)
(0.87145546 -0.02660148 6.9518128e-21)
(0.87054197 -0.025590333 5.1036966e-21)
(0.8696503 -0.024530289 3.1998248e-21)
(0.86878145 -0.02342176 7.3980074e-21)
(0.86793645 -0.022265176 -2.3346061e-20)
(0.8671163 -0.021060986 7.4255799e-21)
(0.86632199 -0.019809659 -7.1855436e-21)
(0.86555455 -0.018511681 3.2646315e-21)
(0.86481498 -0.017167553 7.6141746e-21)
(0.86410432 -0.01577779 3.211754e-21)
(0.86342357 -0.014342935 -7.1912746e-21)
(0.86277378 -0.012863557 7.617336e-21)
(0.86215598 -0.01134025 -9.3918649e-21)
(0.86157125 -0.009773617 -7.3197773e-21)
(0.86102056 -0.0081642943 3.4157417e-21)
(0.86050545 -0.006513099 3.4376908e-21)