/*--------------------------------*- C++ -*----------------------------------*\
| =========                 |                                                 |
| \\      /  F ield         | OpenFOAM: The Open Source CFD Toolbox           |
|  \\    /   O peration     | Version:  2.4.0                                 |
|   \\  /    A nd           | Web:      www.OpenFOAM.org                      |
|    \\/     M anipulation  |                                                 |
\*---------------------------------------------------------------------------*/
FoamFile
{
    version     2.0;
    format      ascii;
    class       surfaceScalarField;
    location    "10000";
    object      phi;
}
// * * * * * * * * * * * * * * * * * * * * * * * * * * * * * * * * * * * * * //

dimensions      [0 3 -1 0 0 0 0];

internalField   nonuniform List<scalar> 
19176
(
3.066869e-07
-4.5523405e-08
-6.6887712e-08
-1.5658736e-07
-4.3270882e-09
-1.5229517e-07
-4.2941929e-09
-1.480398e-07
-4.2535306e-09
-1.4382333e-07
-4.2193872e-09
-1.3964749e-07
-4.1736493e-09
-1.355142e-07
-4.1329861e-09
-1.3142512e-07
-4.0890572e-09
-1.2738208e-07
-4.0436031e-09
-1.2338649e-07
-3.9957312e-09
-1.1944018e-07
-3.9459347e-09
-1.1554439e-07
-3.8950006e-09
-1.1170085e-07
-3.843583e-09
-1.0791066e-07
-3.7898352e-09
-1.0417565e-07
-3.7344237e-09
-1.0049662e-07
-3.6787609e-09
-9.6875802e-08
-3.6227261e-09
-9.3313383e-08
-3.5589887e-09
-8.9812246e-08
-3.5002229e-09
-8.6372253e-08
-3.4393823e-09
-8.2996886e-08
-3.3743295e-09
-7.9685094e-08
-3.3105425e-09
-7.644191e-08
-3.2430198e-09
-7.3265302e-08
-3.175654e-09
-7.0162134e-08
-3.1024704e-09
-6.7128868e-08
-3.0327516e-09
-6.4175141e-08
-2.9522516e-09
-6.1295555e-08
-2.8785397e-09
-5.8504049e-08
-2.7918384e-09
-5.579203e-08
-2.7113109e-09
-5.3179295e-08
-2.6129221e-09
-5.0653413e-08
-2.5255084e-09
-4.8242707e-08
-2.4105472e-09
-4.5928819e-08
-2.3138934e-09
-4.3752071e-08
-2.1766097e-09
-4.1685875e-08
-2.0654576e-09
-3.9787496e-08
-1.8974652e-09
-3.8018354e-08
-1.7681648e-09
-3.646002e-08
-1.5576745e-09
-3.5056404e-08
-1.402949e-09
-3.3924496e-08
-1.131586e-09
-3.2981884e-08
-9.4245897e-10
-3.2398074e-08
-5.8355778e-10
-3.2050921e-08
-3.4588492e-10
-3.2191902e-08
1.4164922e-10
-3.2629397e-08
4.3934572e-10
-3.3670345e-08
1.0432175e-09
-3.5001119e-08
1.3325378e-09
-3.7197492e-08
2.1966186e-09
-3.8200297e-08
1.0027026e-09
-3.8940545e-08
7.4045546e-10
-3.876751e-08
-1.7230561e-10
-3.8128071e-08
-6.3768549e-10
-3.6759675e-08
-1.3673516e-09
-3.4927913e-08
-1.8313305e-09
-3.2471673e-08
-2.4555793e-09
-2.9559382e-08
-2.9110738e-09
-2.6078692e-08
-3.4797691e-09
-2.212706e-08
-3.9511258e-09
-1.760514e-08
-4.5203747e-09
-1.256731e-08
-5.0365967e-09
-6.9182251e-09
-5.6495953e-09
-6.6616538e-10
-6.2500785e-09
6.3892194e-09
-7.0547249e-09
1.4183288e-08
-7.7934036e-09
2.2673834e-08
-8.4889699e-09
3.1801821e-08
-9.1272404e-09
4.1546805e-08
-9.7430533e-09
5.1871744e-08
-1.0325246e-08
6.2745815e-08
-1.0873737e-08
7.4126618e-08
-1.1379161e-08
8.5933773e-08
-1.180572e-08
9.8091096e-08
-1.2156516e-08
1.104299e-07
-1.2337802e-08
1.2271148e-07
-1.2281779e-08
1.3432385e-07
-1.1613215e-08
1.4521849e-07
-1.0895008e-08
1.5566926e-07
-1.0451092e-08
1.6587052e-07
-1.0197432e-08
1.7594411e-07
-1.0073055e-08
1.8603461e-07
-1.0091155e-08
1.9624108e-07
-1.020593e-08
2.0673351e-07
-1.0492431e-08
2.1764882e-07
-1.0915495e-08
2.2922531e-07
-1.1575111e-08
2.416986e-07
-1.2473457e-08
2.556381e-07
-1.3938376e-08
2.7191558e-07
-1.6275182e-08
2.9271269e-07
-2.0795186e-08
3.1784269e-07
-2.512729e-08
3.4674011e-07
-2.8895926e-08
3.79874e-07
-3.3132384e-08
4.1795581e-07
-3.8079492e-08
4.6236158e-07
-4.4401344e-08
5.1417304e-07
-5.1809618e-08
5.7588471e-07
-6.1705565e-08
6.4889399e-07
-7.2978593e-08
7.35531e-07
-8.6657751e-08
8.3365677e-07
-9.8089319e-08
9.4276014e-07
-1.091489e-07
1.0440308e-06
-1.0127543e-07
1.1053613e-06
-6.1338573e-08
1.0721049e-06
3.3252227e-08
9.7568393e-07
9.6409077e-08
8.280012e-07
1.4768047e-07
6.7875093e-07
1.4923715e-07
5.2376895e-07
1.5498738e-07
4.1409553e-07
1.0966243e-07
3.1271032e-07
1.0139849e-07
2.8299332e-07
2.9710134e-08
2.1416637e-08
9.9105825e-07
-1.757408e-07
-2.2275848e-07
-4.8264783e-07
-1.7769658e-08
-4.6931407e-07
-1.7630153e-08
-4.560951e-07
-1.7470832e-08
-4.4299718e-07
-1.7320388e-08
-4.300259e-07
-1.714278e-08
-4.1718697e-07
-1.6971818e-08
-4.0448576e-07
-1.6790592e-08
-3.9192764e-07
-1.6602603e-08
-3.795174e-07
-1.6406306e-08
-3.6726019e-07
-1.6202848e-08
-3.5516047e-07
-1.5993917e-08
-3.4322292e-07
-1.5781292e-08
-3.3145183e-07
-1.5560446e-08
-3.1985177e-07
-1.5333716e-08
-3.0842668e-07
-1.5103675e-08
-2.9718163e-07
-1.4869706e-08
-2.8611961e-07
-1.461749e-08
-2.7524665e-07
-1.4372214e-08
-2.6456594e-07
-1.4119589e-08
-2.5408389e-07
-1.3855498e-08
-2.4380279e-07
-1.3590407e-08
-2.337315e-07
-1.3314083e-08
-2.2387206e-07
-1.3033924e-08
-2.1423571e-07
-1.2737863e-08
-2.0482383e-07
-1.2443973e-08
-1.9565145e-07
-1.2123055e-08
-1.8672001e-07
-1.1809028e-08
-1.7805085e-07
-1.1461238e-08
-1.6964396e-07
-1.1117426e-08
-1.6152876e-07
-1.0728214e-08
-1.5370545e-07
-1.0348387e-08
-1.4621532e-07
-9.900295e-09
-1.3905769e-07
-9.4715297e-09
-1.3229013e-07
-8.9441175e-09
-1.2591145e-07
-8.4431883e-09
-1.2000173e-07
-7.8060542e-09
-1.1455868e-07
-7.2099594e-09
-1.0969444e-07
-6.4210208e-09
-1.0540435e-07
-5.692171e-09
-1.0184796e-07
-4.6874339e-09
-9.9013889e-08
-3.7761631e-09
-9.7134693e-08
-2.4622246e-09
-9.6183073e-08
-1.2959158e-09
-9.6516993e-08
4.763373e-10
-9.8046044e-08
1.9704909e-09
-1.0113021e-07
4.1300448e-09
-1.0553108e-07
5.7354041e-09
-1.1211119e-07
8.7766907e-09
-1.1542844e-07
4.3198031e-09
-1.1745994e-07
2.772346e-09
-1.1702981e-07
-6.0143235e-10
-1.1483605e-07
-2.8294552e-09
-1.1064513e-07
-5.5570829e-09
-1.0480025e-07
-7.6755122e-09
-9.7202072e-08
-1.005282e-08
-8.8042582e-08
-1.2068981e-08
-7.7249819e-08
-1.4271483e-08
-6.4896189e-08
-1.63041e-08
-5.0870179e-08
-1.8544767e-08
-3.5176585e-08
-2.0729039e-08
-1.766485e-08
-2.3161782e-08
1.7653566e-09
-2.5678249e-08
2.36149e-08
-2.8903522e-08
4.7764409e-08
-3.1942157e-08
7.4024968e-08
-3.4747864e-08
1.022547e-07
-3.7356146e-08
1.323648e-07
-3.9851358e-08
1.6425451e-07
-4.2215173e-08
1.9782636e-07
-4.4444616e-08
2.3293934e-07
-4.6490351e-08
2.6936952e-07
-4.823461e-08
3.0685062e-07
-4.9636901e-08
3.4491527e-07
-5.0401785e-08
3.8274869e-07
-5.011576e-08
4.1860428e-07
-4.7469534e-08
4.5226834e-07
-4.4559124e-08
4.8458846e-07
-4.277111e-08
5.1611764e-07
-4.1723105e-08
5.4726359e-07
-4.1219147e-08
5.7843834e-07
-4.1266118e-08
6.0998276e-07
-4.1749497e-08
6.4236053e-07
-4.2870021e-08
6.7605998e-07
-4.461483e-08
7.1171302e-07
-4.7226911e-08
7.5017753e-07
-5.0938059e-08
7.9301198e-07
-5.6771445e-08
8.4314815e-07
-6.6408352e-08
9.0681159e-07
-8.4456407e-08
9.8371798e-07
-1.0203104e-07
1.0722768e-06
-1.174535e-07
1.1736968e-06
-1.3455111e-07
1.2905309e-06
-1.5491183e-07
1.4263306e-06
-1.8019663e-07
1.585331e-06
-2.1080873e-07
1.7736749e-06
-2.5004381e-07
1.997599e-06
-2.9687272e-07
2.261044e-06
-3.5012443e-07
2.5622466e-06
-3.9925845e-07
2.8923346e-06
-4.3928615e-07
3.2048392e-06
-4.1378648e-07
3.3892711e-06
-2.4577929e-07
3.3078008e-06
1.1471799e-07
3.0169561e-06
3.8724063e-07
2.5890567e-06
5.7557856e-07
2.1223494e-06
6.1592996e-07
1.6722601e-06
6.0508384e-07
1.3045881e-06
4.7732146e-07
1.0307218e-06
3.7528049e-07
8.8102252e-07
1.7940071e-07
4.152958e-08
1.763362e-06
-3.8960066e-07
-4.5323097e-07
-8.3210387e-07
-4.1099744e-08
-8.089627e-07
-4.0773389e-08
-7.8602129e-07
-4.0410226e-08
-7.6329038e-07
-4.0054414e-08
-7.4077974e-07
-3.9651186e-08
-7.1849914e-07
-3.9252038e-08
-6.9645804e-07
-3.8831836e-08
-6.7466551e-07
-3.8395861e-08
-6.5313013e-07
-3.7941969e-08
-6.3186051e-07
-3.7472112e-08
-6.1086477e-07
-3.6988846e-08
-5.9015054e-07
-3.6495645e-08
-5.697259e-07
-3.598476e-08
-5.49598e-07
-3.5461013e-08
-5.2977469e-07
-3.4926774e-08
-5.1026351e-07
-3.4382925e-08
-4.9107134e-07
-3.3806002e-08
-4.722066e-07
-3.3235992e-08
-4.5367737e-07
-3.2648177e-08
-4.3549173e-07
-3.2040022e-08
-4.1765755e-07
-3.1423245e-08
-4.0018553e-07
-3.0785951e-08
-3.8308503e-07
-3.0133384e-08
-3.663686e-07
-2.9453471e-08
-3.5004725e-07
-2.8764874e-08
-3.3413676e-07
-2.8031838e-08
-3.1865233e-07
-2.7292308e-08
-3.0361571e-07
-2.6498207e-08
-2.890456e-07
-2.568686e-08
-2.7497066e-07
-2.4803418e-08
-2.614184e-07
-2.3900328e-08
-2.4842793e-07
-2.2890642e-08
-2.3603738e-07
-2.1862129e-08
-2.242995e-07
-2.0681954e-08
-2.1326902e-07
-1.947296e-08
-2.0301671e-07
-1.8057489e-08
-1.9362053e-07
-1.6605186e-08
-1.8517662e-07
-1.4864343e-08
-1.7779509e-07
-1.3073066e-08
-1.7161057e-07
-1.0871742e-08
-1.6677386e-07
-8.6128589e-09
-1.6348323e-07
-5.7527e-09
-1.619369e-07
-2.8409467e-09
-1.6245972e-07
9.9978284e-10
-1.6524782e-07
4.7605106e-09
-1.7051724e-07
9.401876e-09
-1.7837012e-07
1.3590215e-08
-1.8959814e-07
2.0004911e-08
-1.9547411e-07
1.0195737e-08
-1.9876743e-07
6.0658732e-09
-1.9805943e-07
-1.3085917e-09
-1.9407716e-07
-6.8097571e-09
-1.8682447e-07
-1.2808651e-08
-1.7656013e-07
-1.7939415e-08
-1.6339076e-07
-2.3221345e-08
-1.474194e-07
-2.8038811e-08
-1.2871096e-07
-3.2978863e-08
-1.0723365e-07
-3.7781062e-08
-8.2928412e-08
-4.2848513e-08
-5.56906e-08
-4.7965168e-08
-2.5359682e-08
-5.3492795e-08
8.328035e-09
-5.9363694e-08
4.6152235e-08
-6.6726801e-08
8.7963332e-08
-7.3752387e-08
1.3339416e-07
-8.017686e-08
1.822325e-07
-8.6193693e-08
2.3430228e-07
-9.191885e-08
2.8943969e-07
-9.7352382e-08
3.4747612e-07
-1.0247999e-07
4.0815707e-07
-1.0716921e-07
4.7111861e-07
-1.1119452e-07
5.358674e-07
-1.1438474e-07
6.0163297e-07
-1.1616613e-07
6.6697052e-07
-1.1545289e-07
7.2897079e-07
-1.0946999e-07
7.8721885e-07
-1.0280675e-07
8.431715e-07
-9.8723627e-08
8.9776243e-07
-9.6309351e-08
9.5170195e-07
-9.5156803e-08
1.0056567e-06
-9.5220647e-08
1.0602646e-06
-9.6356842e-08
1.1162728e-06
-9.887772e-08
1.1745775e-06
-1.0291938e-07
1.2361935e-06
-1.0884058e-07
1.3027168e-06
-1.1746023e-07
1.3766594e-06
-1.307127e-07
1.4633008e-06
-1.5304691e-07
1.5729076e-06
-1.9406196e-07
1.705241e-06
-2.3436251e-07
1.8576649e-06
-2.6987722e-07
2.0321396e-06
-3.0902573e-07
2.2332217e-06
-3.5599289e-07
2.4665822e-06
-4.135536e-07
2.7399847e-06
-4.8421269e-07
3.0629747e-06
-5.730317e-07
3.4473772e-06
-6.8124778e-07
3.8976539e-06
-8.0042923e-07
4.4138324e-06
-9.1540587e-07
4.9757824e-06
-1.0012901e-06
5.5113978e-06
-9.4940884e-07
5.8261259e-06
-5.6051708e-07
5.7069294e-06
2.3390915e-07
5.2209092e-06
8.7324736e-07
4.5120572e-06
1.2844296e-06
3.710882e-06
1.4170908e-06
2.9574133e-06
1.3585605e-06
2.3043432e-06
1.1303787e-06
1.8565896e-06
8.2305053e-07
1.5567126e-06
4.7926861e-07
4.8711894e-08
2.6260298e-06
-6.8588918e-07
-7.5949706e-07
-1.2057177e-06
-7.513524e-08
-1.1719587e-06
-7.4534066e-08
-1.138492e-06
-7.3875634e-08
-1.1053329e-06
-7.3216016e-08
-1.0724959e-06
-7.2486478e-08
-1.0399951e-06
-7.1752771e-08
-1.0078442e-06
-7.0983043e-08
-9.7605645e-07
-7.0184549e-08
-9.4464443e-07
-6.9354355e-08
-9.1362049e-07
-6.8495748e-08
-8.8299671e-07
-6.7611806e-08
-8.5278398e-07
-6.670854e-08
-8.2299438e-07
-6.5773856e-08
-7.9363797e-07
-6.4816616e-08
-7.6472678e-07
-6.3837766e-08
-7.3627107e-07
-6.2840068e-08
-7.0828188e-07
-6.179212e-08
-6.8077039e-07
-6.0746497e-08
-6.5374983e-07
-5.9668216e-08
-6.272303e-07
-5.8558628e-08
-6.0122558e-07
-5.7426672e-08
-5.7574859e-07
-5.6262695e-08
-5.5081643e-07
-5.5064327e-08
-5.264434e-07
-5.38255e-08
-5.0265068e-07
-5.2556951e-08
-4.7945534e-07
-5.122556e-08
-4.5688701e-07
-4.9859606e-08
-4.3496858e-07
-4.8416894e-08
-4.1373832e-07
-4.6916306e-08
-3.9322506e-07
-4.5316737e-08
-3.7348486e-07
-4.3640091e-08
-3.5455575e-07
-4.1819341e-08
-3.365165e-07
-3.9901365e-08
-3.1941641e-07
-3.7781965e-08
-3.033687e-07
-3.5519711e-08
-2.8843653e-07
-3.2988551e-08
-2.7478178e-07
-3.0258658e-08
-2.6248677e-07
-2.715848e-08
-2.5178152e-07
-2.377743e-08
-2.4277866e-07
-1.9874091e-08
-2.3579835e-07
-1.5592786e-08
-2.3100866e-07
-1.0541861e-08
-2.2884304e-07
-5.0049463e-09
-2.295992e-07
1.7567137e-09
-2.3377222e-07
8.9356547e-09
-2.4144659e-07
1.7078966e-08
-2.5308169e-07
2.5227364e-08
-2.693178e-07
3.6240946e-08
-2.7792362e-07
1.8801466e-08
-2.8251082e-07
1.0653531e-08
-2.8143009e-07
-2.388245e-09
-2.7545368e-07
-1.2784106e-08
-2.6483265e-07
-2.3428478e-08
-2.4974491e-07
-3.3026393e-08
-2.3051244e-07
-4.2452796e-08
-2.0714859e-07
-5.140092e-08
-1.7986077e-07
-6.0265574e-08
-1.4850767e-07
-6.9133523e-08
-1.1308534e-07
-7.8269209e-08
-7.3375168e-08
-8.7674135e-08
-2.9203584e-08
-9.7664526e-08
1.9868223e-08
-1.084336e-07
7.4913915e-08
-1.2177161e-07
1.3574857e-07
-1.3458612e-07
2.0181769e-07
-1.4624438e-07
2.7282928e-07
-1.572044e-07
3.4851937e-07
-1.6760721e-07
4.2865496e-07
-1.7748783e-07
5.1298649e-07
-1.8681009e-07
6.0114111e-07
-1.9532199e-07
6.9259523e-07
-2.0264744e-07
7.8663237e-07
-2.0842117e-07
8.8215055e-07
-2.1168373e-07
9.7702063e-07
-2.1032344e-07
1.0671216e-06
-1.9957136e-07
1.1518553e-06
-1.8754015e-07
1.2332769e-06
-1.8014476e-07
1.3127185e-06
-1.7574772e-07
1.3912316e-06
-1.7367012e-07
1.4697484e-06
-1.7373714e-07
1.5492169e-06
-1.7582444e-07
1.6306674e-06
-1.8032794e-07
1.7154587e-06
-1.8771035e-07
1.8049983e-06
-1.9837885e-07
1.9016494e-06
-2.1411111e-07
2.0090225e-06
-2.3808418e-07
2.1347942e-06
-2.7881555e-07
2.2934884e-06
-3.5275377e-07
2.4848824e-06
-4.25754e-07
2.7054254e-06
-4.904191e-07
2.9577499e-06
-5.6134889e-07
3.2485707e-06
-6.4681192e-07
3.5857346e-06
-7.5071323e-07
3.9807571e-06
-8.7923426e-07
4.4465695e-06
-1.0388392e-06
5.0006392e-06
-1.2352937e-06
5.6482171e-06
-1.4480254e-06
6.3905683e-06
-1.6577324e-06
7.1959945e-06
-1.8067595e-06
7.9654e-06
-1.7188207e-06
8.4208253e-06
-1.0159509e-06
8.2732213e-06
3.8150824e-07
7.5972862e-06
1.5491686e-06
6.6041096e-06
2.2776051e-06
5.4591357e-06
2.56205e-06
4.386232e-06
2.4314721e-06
3.4313645e-06
2.0852327e-06
2.792698e-06
1.4617338e-06
2.3317201e-06
9.4023722e-07
5.069676e-08
3.5879423e-06
-1.0622207e-06
-1.1421845e-06
-1.6041915e-06
-1.2073957e-07
-1.5589584e-06
-1.1976852e-07
-1.5141178e-06
-1.187145e-07
-1.4696904e-06
-1.1764571e-07
-1.4256954e-06
-1.1647978e-07
-1.3821517e-06
-1.1529602e-07
-1.3390777e-06
-1.1405713e-07
-1.2964909e-06
-1.1277202e-07
-1.2544083e-06
-1.114372e-07
-1.2128464e-06
-1.1005728e-07
-1.1718214e-06
-1.0863598e-07
-1.1313477e-06
-1.0718229e-07
-1.0914419e-06
-1.0567939e-07
-1.052117e-06
-1.0414088e-07
-1.0133896e-06
-1.025649e-07
-9.7527301e-07
-1.0095801e-07
-9.3778277e-07
-9.9279292e-08
-9.0093306e-07
-9.7595248e-08
-8.6474261e-07
-9.5857939e-08
-8.2922395e-07
-9.4076095e-08
-7.9439705e-07
-9.2252142e-08
-7.6027754e-07
-9.0382032e-08
-7.2689064e-07
-8.8450174e-08
-6.9425296e-07
-8.646235e-08
-6.6239631e-07
-8.4413238e-08
-6.313397e-07
-8.2280385e-08
-6.011279e-07
-8.0070139e-08
-5.7178571e-07
-7.775945e-08
-5.4337191e-07
-7.5329427e-08
-5.1591645e-07
-7.2772456e-08
-4.8950527e-07
-7.0050966e-08
-4.6417659e-07
-6.7147935e-08
-4.4005161e-07
-6.4026361e-08
-4.1717779e-07
-6.0655691e-08
-3.9572932e-07
-5.6967547e-08
-3.7576386e-07
-5.2953248e-08
-3.5753073e-07
-4.8490951e-08
-3.4110116e-07
-4.3587586e-08
-3.2682998e-07
-3.8048039e-08
-3.1481148e-07
-3.1892496e-08
-3.0554204e-07
-2.4862331e-08
-2.9916462e-07
-1.6919222e-08
-2.9635713e-07
-7.8112547e-09
-2.9739741e-07
2.7975843e-09
-3.030913e-07
1.4631383e-08
-3.1340747e-07
2.7397468e-08
-3.2917807e-07
4.0999901e-08
-3.507984e-07
5.7861543e-08
-3.6230764e-07
3.031081e-08
-3.6821191e-07
1.6557976e-08
-3.6664767e-07
-3.9516785e-09
-3.5845184e-07
-2.097801e-08
-3.4412852e-07
-3.7750757e-08
-3.2378711e-07
-5.3367425e-08
-2.9796598e-07
-6.8273116e-08
-2.6659188e-07
-8.2773488e-08
-2.3002031e-07
-9.683611e-08
-1.8799714e-07
-1.1115636e-07
-1.4057456e-07
-1.2569029e-07
-8.7414393e-08
-1.4083261e-07
-2.8328521e-08
-1.567502e-07
3.7309577e-08
-1.7406968e-07
1.1088167e-07
-1.9534267e-07
1.9216379e-07
-2.1586721e-07
2.8040125e-07
-2.3448011e-07
3.7522137e-07
-2.520237e-07
4.7626029e-07
-2.686439e-07
5.8321399e-07
-2.8444098e-07
6.9574259e-07
-2.9933746e-07
8.1335347e-07
-3.1293098e-07
9.353518e-07
-3.2464423e-07
1.0607654e-06
-3.3383379e-07
1.1881534e-06
-3.3907047e-07
1.3146416e-06
-3.3681111e-07
1.4349067e-06
-3.198364e-07
1.5480881e-06
-3.0072086e-07
1.6569157e-06
-2.8897215e-07
1.7631078e-06
-2.8193544e-07
1.8680451e-06
-2.7860566e-07
1.9729883e-06
-2.786798e-07
2.079173e-06
-2.8200854e-07
2.1879742e-06
-2.8912862e-07
2.3011887e-06
-3.0092465e-07
2.4207002e-06
-3.178882e-07
2.5496429e-06
-3.4305236e-07
2.6927909e-06
-3.8123067e-07
2.8604398e-06
-4.4646196e-07
3.0713969e-06
-5.6370941e-07
3.3256194e-06
-6.7997453e-07
3.6185132e-06
-7.8331263e-07
3.9536455e-06
-8.9648071e-07
4.3397487e-06
-1.0329137e-06
4.7870415e-06
-1.198002e-06
5.3108101e-06
-1.403004e-06
5.9277235e-06
-1.6557502e-06
6.6606859e-06
-1.9682354e-06
7.5158168e-06
-2.3031786e-06
8.4952704e-06
-2.6371645e-06
9.5556241e-06
-2.8671574e-06
1.0569345e-05
-2.7325477e-06
1.1176693e-05
-1.623308e-06
1.1011754e-05
5.4644219e-07
1.0153765e-05
2.4071429e-06
8.8750949e-06
3.556274e-06
7.3789011e-06
4.0582285e-06
5.9710867e-06
3.8392948e-06
4.6983887e-06
3.3579174e-06
3.8507821e-06
2.3093576e-06
3.2174981e-06
1.5735114e-06
5.6607276e-08
4.6588401e-06
-1.5149217e-06
-1.6012675e-06
-2.0281462e-06
-1.788253e-07
-1.9705351e-06
-1.7738083e-07
-1.9134253e-06
-1.7582326e-07
-1.8568429e-06
-1.7422994e-07
-1.8008125e-06
-1.7250891e-07
-1.745358e-06
-1.7075044e-07
-1.6905027e-06
-1.6891275e-07
-1.636269e-06
-1.6700671e-07
-1.5826784e-06
-1.6502813e-07
-1.5297519e-06
-1.6298353e-07
-1.4775101e-06
-1.6087692e-07
-1.4259715e-06
-1.5872109e-07
-1.375157e-06
-1.5649336e-07
-1.3250833e-06
-1.5421365e-07
-1.2757718e-06
-1.5187619e-07
-1.2272392e-06
-1.4949157e-07
-1.1795056e-06
-1.4701029e-07
-1.1325888e-06
-1.4451107e-07
-1.0865133e-06
-1.419329e-07
-1.0412944e-06
-1.3929408e-07
-9.9695868e-07
-1.3658652e-07
-9.5352493e-07
-1.3381549e-07
-9.1102697e-07
-1.3094688e-07
-8.6948425e-07
-1.2800402e-07
-8.2893973e-07
-1.2495713e-07
-7.8941513e-07
-1.2180332e-07
-7.5097099e-07
-1.185132e-07
-7.1363495e-07
-1.150957e-07
-6.7748717e-07
-1.1147636e-07
-6.4255999e-07
-1.0769965e-07
-6.0897034e-07
-1.0364016e-07
-5.767582e-07
-9.9359634e-08
-5.4608887e-07
-9.4695643e-08
-5.1700994e-07
-8.973451e-08
-4.8975895e-07
-8.4217586e-08
-4.6439058e-07
-7.8320531e-08
-4.4124491e-07
-7.1635393e-08
-4.203854e-07
-6.4446262e-08
-4.0229631e-07
-5.6136256e-08
-3.8705809e-07
-4.7130217e-08
-3.7534972e-07
-3.6570339e-08
-3.6729539e-07
-2.4973015e-08
-3.6382594e-07
-1.1279131e-08
-3.6520811e-07
4.1805216e-09
-3.725696e-07
2.1994949e-08
-3.8578253e-07
4.0613074e-08
-4.0606602e-07
6.1285492e-08
-4.3346239e-07
8.5257825e-08
-4.4805042e-07
4.4898852e-08
-4.5528427e-07
2.3792318e-08
-4.5310822e-07
-6.1266243e-09
-4.4244444e-07
-3.1639765e-08
-4.2406161e-07
-5.6132437e-08
-3.9800353e-07
-7.9424723e-08
-3.6503385e-07
-1.0124178e-07
-3.2499829e-07
-1.2280729e-07
-2.7839726e-07
-1.4343606e-07
-2.2486688e-07
-1.6468602e-07
-1.6451267e-07
-1.8604286e-07
-9.6876317e-08
-2.0846791e-07
-2.1750684e-08
-2.318758e-07
6.1689839e-08
-2.5750857e-07
1.5515136e-07
-2.8880324e-07
2.5836488e-07
-3.1907971e-07
3.7036496e-07
-3.4647868e-07
4.9069252e-07
-3.7235039e-07
6.188788e-07
-3.9682863e-07
7.545387e-07
-4.2010046e-07
8.9724198e-07
-4.4203919e-07
1.0463585e-06
-4.6204603e-07
1.2010188e-06
-4.793034e-07
1.3599926e-06
-4.9280695e-07
1.5214474e-06
-5.0052486e-07
1.6817548e-06
-4.9711906e-07
1.834274e-06
-4.7235593e-07
1.9779985e-06
-4.4444484e-07
2.1162369e-06
-4.2721002e-07
2.2511438e-06
-4.168397e-07
2.3844614e-06
-4.1192383e-07
2.5177729e-06
-4.119907e-07
2.6526151e-06
-4.1684975e-07
2.790763e-06
-4.2727627e-07
2.9344617e-06
-4.4462304e-07
3.0860508e-06
-4.6947642e-07
3.2495215e-06
-5.0652275e-07
3.430927e-06
-5.6263452e-07
3.643208e-06
-6.5873992e-07
3.909668e-06
-8.3016684e-07
4.2304621e-06
-1.000766e-06
4.6001318e-06
-1.1529811e-06
5.0229362e-06
-1.3192834e-06
5.5100332e-06
-1.5200088e-06
6.0738348e-06
-1.7617989e-06
6.7336412e-06
-2.062809e-06
7.5098066e-06
-2.4319099e-06
8.4307166e-06
-2.8891267e-06
9.5034898e-06
-3.3759647e-06
1.0730618e-05
-3.8642764e-06
1.2057098e-05
-4.1936724e-06
1.3325179e-05
-4.0006354e-06
1.4096215e-05
-2.394352e-06
1.3926915e-05
7.1573701e-07
1.2897449e-05
3.4365942e-06
1.1334712e-05
5.1190095e-06
9.482088e-06
5.9108366e-06
7.724927e-06
5.596464e-06
6.118902e-06
4.9639285e-06
5.0435373e-06
3.3847398e-06
4.2265592e-06
2.3904794e-06
7.7051291e-08
5.8492734e-06
-2.0388119e-06
-2.1359878e-06
-2.4780903e-06
-2.503522e-07
-2.4071492e-06
-2.4832261e-07
-2.3368271e-06
-2.4614377e-07
-2.2671562e-06
-2.439024e-07
-2.1981665e-06
-2.4149747e-07
-2.1298871e-06
-2.3902917e-07
-2.0623472e-06
-2.3645283e-07
-1.9955737e-06
-2.337808e-07
-1.9295935e-06
-2.3100861e-07
-1.8644321e-06
-2.2814452e-07
-1.8001152e-06
-2.2519306e-07
-1.7366652e-06
-2.2217113e-07
-1.6741081e-06
-2.1905011e-07
-1.6124645e-06
-2.1585656e-07
-1.5517607e-06
-2.1257971e-07
-1.4920172e-06
-2.0923584e-07
-1.4332593e-06
-2.0576562e-07
-1.3755086e-06
-2.0226089e-07
-1.3187956e-06
-1.9864511e-07
-1.263139e-06
-1.9494949e-07
-1.2085724e-06
-1.9115175e-07
-1.1551182e-06
-1.872695e-07
-1.1028191e-06
-1.832449e-07
-1.0516983e-06
-1.7912398e-07
-1.0018102e-06
-1.7484485e-07
-9.5318026e-07
-1.7043148e-07
-9.0588532e-07
-1.6580683e-07
-8.5995694e-07
-1.6102437e-07
-8.1549757e-07
-1.5593505e-07
-7.7254318e-07
-1.5065427e-07
-7.31243e-07
-1.4494004e-07
-6.9164048e-07
-1.389621e-07
-6.5394661e-07
-1.323895e-07
-6.1821142e-07
-1.2546955e-07
-5.8473802e-07
-1.1769047e-07
-5.5358109e-07
-1.0947679e-07
-5.2517457e-07
-1.0004125e-07
-4.9957814e-07
-9.0042337e-08
-4.7740973e-07
-7.8304168e-08
-4.5874139e-07
-6.5798548e-08
-4.4444057e-07
-5.0871381e-08
-4.3462021e-07
-3.4793439e-08
-4.3047183e-07
-1.5426494e-08
-4.3226138e-07
5.9706074e-09
-4.4144867e-07
3.1183902e-08
-4.5783243e-07
5.6998975e-08
-4.8303121e-07
8.648623e-08
-5.1661091e-07
1.1883783e-07
-5.3445202e-07
6.2740206e-08
-5.4301694e-07
3.2357348e-08
-5.4008122e-07
-9.0615913e-09
-5.2667831e-07
-4.504083e-08
-5.0384798e-07
-7.896186e-08
-4.7158039e-07
-1.11692e-07
-4.3086936e-07
-1.4195207e-07
-3.8148095e-07
-1.7219424e-07
-3.2406532e-07
-2.0085077e-07
-2.5814688e-07
-2.3060413e-07
-1.8388493e-07
-2.6030336e-07
-1.006965e-07
-2.9165475e-07
-8.3547517e-09
-3.2421715e-07
9.4178382e-08
-3.6003998e-07
2.0894871e-07
-4.0357246e-07
3.3563781e-07
-4.457677e-07
4.7305731e-07
-4.8389657e-07
6.2065634e-07
-5.1994862e-07
7.7785829e-07
-5.540285e-07
9.4417895e-07
-5.8642028e-07
1.1191092e-06
-6.1696819e-07
1.3018672e-06
-6.4480256e-07
1.491377e-06
-6.6881178e-07
1.6861489e-06
-6.8757777e-07
1.8839449e-06
-6.9831955e-07
2.0803277e-06
-6.9350114e-07
2.2673607e-06
-6.5938883e-07
2.443766e-06
-6.2084931e-07
2.6135072e-06
-5.9695098e-07
2.7791925e-06
-5.8252092e-07
2.9429474e-06
-5.75677e-07
3.1066261e-06
-5.7566858e-07
3.2722113e-06
-5.8243433e-07
3.4417215e-06
-5.9678599e-07
3.6179979e-06
-6.2089932e-07
3.8038614e-06
-6.5533806e-07
4.004213e-06
-7.068729e-07
4.2263629e-06
-7.8478295e-07
4.4861708e-06
-9.185455e-07
4.8114673e-06
-1.1554619e-06
5.2027097e-06
-1.3920066e-06
5.6534649e-06
-1.6037362e-06
6.1690975e-06
-1.8349155e-06
6.7626833e-06
-2.1135931e-06
7.4495406e-06
-2.4486519e-06
8.2525528e-06
-2.8658224e-06
9.1960787e-06
-3.375433e-06
1.0313846e-05
-4.0068791e-06
1.1614066e-05
-4.6762019e-06
1.3098999e-05
-5.3491958e-06
1.4701936e-05
-5.7966459e-06
1.6234488e-05
-5.5331923e-06
1.7181415e-05
-3.3412871e-06
1.702238e-05
8.7476731e-07
1.5834608e-05
4.6243522e-06
1.3992066e-05
6.9615507e-06
1.1780502e-05
8.1223843e-06
9.6609049e-06
7.7160702e-06
7.7071165e-06
6.9177031e-06
6.3845701e-06
4.7073042e-06
5.3723954e-06
3.4026434e-06
1.2408407e-07
7.1706729e-06
-2.6271598e-06
-2.7446369e-06
-2.954376e-06
-3.3633001e-07
-2.8691051e-06
-3.3359419e-07
-2.7845805e-06
-3.3066754e-07
-2.7008405e-06
-3.2764375e-07
-2.6179211e-06
-3.2441596e-07
-2.5358575e-06
-3.2109267e-07
-2.4546841e-06
-3.1762665e-07
-2.3744337e-06
-3.1403224e-07
-2.2951383e-06
-3.1030441e-07
-2.2168285e-06
-3.0645403e-07
-2.1395351e-06
-3.0248563e-07
-2.0632853e-06
-2.9842105e-07
-1.9881103e-06
-2.9422457e-07
-1.9140348e-06
-2.8993112e-07
-1.8410905e-06
-2.8552373e-07
-1.7693022e-06
-2.810246e-07
-1.6987005e-06
-2.7636516e-07
-1.6293112e-06
-2.7164925e-07
-1.5611715e-06
-2.6678429e-07
-1.4943037e-06
-2.6181642e-07
-1.4287487e-06
-2.5670545e-07
-1.3645333e-06
-2.5148454e-07
-1.3017097e-06
-2.4606723e-07
-1.2403051e-06
-2.405274e-07
-1.1803865e-06
-2.3476289e-07
-1.1219833e-06
-2.2883296e-07
-1.0651898e-06
-2.225993e-07
-1.0100425e-06
-2.1617179e-07
-9.5666694e-07
-2.093097e-07
-9.0510438e-07
-2.0221676e-07
-8.5553738e-07
-1.9450656e-07
-8.0801486e-07
-1.8648413e-07
-7.6279513e-07
-1.7760913e-07
-7.1993321e-07
-1.6833132e-07
-6.7979984e-07
-1.5782292e-07
-6.4245323e-07
-1.4682233e-07
-6.0842396e-07
-1.3406935e-07
-5.7777264e-07
-1.2069283e-07
-5.5125476e-07
-1.0482119e-07
-5.2894024e-07
-8.8112542e-08
-5.1189038e-07
-6.7920905e-08
-5.0021567e-07
-4.6467609e-08
-4.9537521e-07
-2.026544e-08
-4.9764606e-07
8.2422095e-09
-5.088295e-07
4.2369327e-08
-5.2867816e-07
7.6850209e-08
-5.5922055e-07
1.170308e-07
-5.994053e-07
1.5902248e-07
-6.206736e-07
8.4008615e-08
-6.3055586e-07
4.2240123e-08
-6.2669013e-07
-1.292622e-08
-6.1025207e-07
-6.1476895e-08
-5.8255793e-07
-1.0665492e-07
-5.4355484e-07
-1.5069429e-07
-4.9447149e-07
-1.9103443e-07
-4.3500182e-07
-2.3166216e-07
-3.6594639e-07
-2.6990522e-07
-2.8671492e-07
-3.0983485e-07
-1.9752119e-07
-3.4949555e-07
-9.765651e-08
-3.9151855e-07
1.31266e-08
-4.350001e-07
1.3609345e-07
-4.8300547e-07
2.7364917e-07
-5.4112719e-07
4.2541381e-07
-5.9753129e-07
5.8997081e-07
-6.4845217e-07
7.6666389e-07
-6.966409e-07
9.5480438e-07
-7.4216767e-07
1.1538271e-06
-7.8544234e-07
1.3630959e-06
-8.2623541e-07
1.5816815e-06
-8.6338711e-07
1.8083164e-06
-8.9544577e-07
2.0412037e-06
-9.2046445e-07
2.2776907e-06
-9.3480624e-07
2.5124828e-06
-9.2829382e-07
2.7362858e-06
-8.8319209e-07
2.947612e-06
-8.3217492e-07
3.1510702e-06
-8.0040857e-07
3.3497082e-06
-7.8115683e-07
3.5459912e-06
-7.7196085e-07
3.7422022e-06
-7.7187865e-07
3.9405719e-06
-7.8080304e-07
4.1436673e-06
-7.99881e-07
4.3547051e-06
-8.3193692e-07
4.5770882e-06
-8.7772078e-07
4.8167243e-06
-9.4650869e-07
5.0822542e-06
-1.0503111e-06
5.3925023e-06
-1.2287905e-06
5.7799772e-06
-1.5429342e-06
6.2454303e-06
-1.857457e-06
6.7817848e-06
-2.1400893e-06
7.3951996e-06
-2.4483284e-06
8.1011231e-06
-2.8195146e-06
8.917332e-06
-3.2648556e-06
9.8706302e-06
-3.8191187e-06
1.0989649e-05
-4.4944456e-06
1.2312797e-05
-5.3300122e-06
1.3849726e-05
-6.2131397e-06
1.5601974e-05
-7.1014339e-06
1.7491073e-05
-7.6857747e-06
1.9297213e-05
-7.3393381e-06
2.0432796e-05
-4.4768776e-06
2.0300376e-05
1.0071816e-06
1.8970363e-05
5.9543493e-06
1.685551e-05
9.0764011e-06
1.4285472e-05
1.0692406e-05
1.1792425e-05
1.0209126e-05
9.4776676e-06
9.2324456e-06
7.8882273e-06
6.2967628e-06
6.6694924e-06
4.6213676e-06
2.1126871e-07
8.6351074e-06
-3.2714915e-06
-3.4244693e-06
-3.4571368e-06
-4.3781301e-07
-3.3564905e-06
-4.3424056e-07
-3.2567276e-06
-4.3042898e-07
-3.1578933e-06
-4.2647899e-07
-3.0600297e-06
-4.2227872e-07
-2.9631782e-06
-4.1794348e-07
-2.8673796e-06
-4.1342548e-07
-2.7726721e-06
-4.0874035e-07
-2.6790937e-06
-4.0388316e-07
-2.5866804e-06
-3.9886692e-07
-2.4954685e-06
-3.9369673e-07
-2.4054901e-06
-3.8839948e-07
-2.3167819e-06
-3.8293228e-07
-2.2293735e-06
-3.7733876e-07
-2.1433022e-06
-3.7159478e-07
-2.0585972e-06
-3.6572984e-07
-1.9752951e-06
-3.5966518e-07
-1.8934264e-06
-3.5351711e-07
-1.813035e-06
-3.4717494e-07
-1.7341477e-06
-3.4070271e-07
-1.656813e-06
-3.3403878e-07
-1.5810627e-06
-3.2723459e-07
-1.5069588e-06
-3.2017002e-07
-1.4345338e-06
-3.1295149e-07
-1.363867e-06
-3.0542941e-07
-1.2949937e-06
-2.9770445e-07
-1.2280256e-06
-2.895661e-07
-1.1630059e-06
-2.8119173e-07
-1.1000838e-06
-2.7223112e-07
-1.0393077e-06
-2.6299305e-07
-9.8089445e-07
-2.5291949e-07
-9.2490084e-07
-2.424777e-07
-8.7163378e-07
-2.3087614e-07
-8.211564e-07
-2.1880851e-07
-7.7390894e-07
-2.0506995e-07
-7.2995706e-07
-1.9077365e-07
-6.8993064e-07
-1.7409526e-07
-6.5389653e-07
-1.5672661e-07
-6.2275117e-07
-1.3596611e-07
-5.9656984e-07
-1.1429388e-07
-5.7661216e-07
-8.7878898e-08
-5.6299655e-07
-6.0083349e-08
-5.5745547e-07
-2.5805651e-08
-5.6029076e-07
1.1078003e-08
-5.7365346e-07
5.5733518e-08
-5.9728181e-07
1.0048051e-07
-6.3362258e-07
1.5337355e-07
-6.8084747e-07
2.0624769e-07
-7.0571177e-07
1.0887327e-07
-7.1688054e-07
5.3408956e-08
-7.1189319e-07
-1.7912872e-08
-6.9209629e-07
-8.1272044e-08
-6.5908791e-07
-1.3966252e-07
-6.1279252e-07
-1.9698941e-07
-5.5467129e-07
-2.4915498e-07
-4.843522e-07
-3.0197987e-07
-4.0278772e-07
-3.5146893e-07
-3.0927642e-07
-4.0334584e-07
-2.0408256e-07
-4.5468811e-07
-8.6369486e-08
-5.0923013e-07
4.4126028e-08
-5.6549506e-07
1.8891681e-07
-6.2779483e-07
3.5078503e-07
-7.0299428e-07
5.2927659e-07
-7.7602167e-07
7.2274168e-07
-8.4191574e-07
9.3041646e-07
-9.0431493e-07
1.151486e-06
-9.6323537e-07
1.3852881e-06
-1.0192433e-06
1.6310656e-06
-1.0720117e-06
1.8877354e-06
-1.1200558e-06
2.1538218e-06
-1.1615309e-06
2.4272145e-06
-1.1938561e-06
2.7047986e-06
-1.2123892e-06
2.9803996e-06
-1.2038939e-06
3.2433462e-06
-1.1461384e-06
3.4919665e-06
-1.0807943e-06
3.731407e-06
-1.0398489e-06
3.9651919e-06
-1.0149379e-06
4.1962484e-06
-1.0030155e-06
4.4271268e-06
-1.0027561e-06
4.6605412e-06
-1.0142168e-06
4.8994002e-06
-1.0387394e-06
5.1474584e-06
-1.0799949e-06
5.40879e-06
-1.1390509e-06
5.6901262e-06
-1.2278433e-06
6.0016672e-06
-1.3618508e-06
6.3653895e-06
-1.5925105e-06
6.8183614e-06
-1.995905e-06
7.3619778e-06
-2.4010718e-06
7.9882281e-06
-2.7663395e-06
8.7044661e-06
-3.1645659e-06
9.5282563e-06
-3.6433032e-06
1.0480182e-05
-4.2167771e-06
1.1590922e-05
-4.929859e-06
1.2892913e-05
-5.7964331e-06
1.4429535e-05
-6.8666232e-06
1.6211996e-05
-7.9956136e-06
1.8239938e-05
-9.1293699e-06
2.0423906e-05
-9.8697723e-06
2.2512249e-05
-9.4276844e-06
2.3849054e-05
-5.8136903e-06
2.3761185e-05
1.0950471e-06
2.2307812e-05
7.4077071e-06
1.9931628e-05
1.1452584e-05
1.7007303e-05
1.3616715e-05
1.413226e-05
1.3084178e-05
1.1445418e-05
1.1919274e-05
9.5695716e-06
8.172628e-06
8.1330363e-06
6.0578913e-06