/*--------------------------------*- C++ -*----------------------------------*\
| =========                 |                                                 |
| \\      /  F ield         | OpenFOAM: The Open Source CFD Toolbox           |
|  \\    /   O peration     | Version:  2.4.0                                 |
|   \\  /    A nd           | Web:      www.OpenFOAM.org                      |
|    \\/     M anipulation  |                                                 |
\*---------------------------------------------------------------------------*/
FoamFile
{
    version     2.0;
    format      ascii;
    class       volScalarField;
    location    "60";
    object      p;
}
// * * * * * * * * * * * * * * * * * * * * * * * * * * * * * * * * * * * * * //

dimensions      [0 2 -2 0 0 0 0];

internalField   nonuniform List<scalar> 
78300
(
-0.10480389
-0.055791572
-0.067269384
-0.055278039
-0.061862662
-0.051166467
-0.047258934
-0.032482458
-0.023152675
-0.013593878
-0.010514665
-0.0069495844
-0.0059662758
-0.004411889
-0.0039988097
-0.0030210831
-0.0026583333
-0.0020107901
-0.0016894159
-0.0012227876
-0.00095548966
-0.00064154595
-0.0004667333
-0.00028791303
-0.00019118447
-9.8483914e-05
-4.9001737e-05
-2.1069024e-05
-1.3915131e-05
-2.5557645e-05
-4.8742385e-05
-8.1997868e-05
-0.00012141738
-0.0001551986
-0.00018002995
-0.00018068167
-0.00016283995
-0.00013365329
-8.6840165e-05
-3.1973533e-05
-2.7174767e-09
0.00031732142
0.00041062724
0.00056256776
0.00068323768
0.00077438827
0.00090946371
0.0010088583
0.0010916475
0.0011477268
0.0011691651
0.0011635439
0.0011079439
0.0010186655
0.00086448004
0.00067193054
0.0003865983
6.1922722e-05
-0.00039498933
-0.00088004042
-0.0015563512
-0.0022259025
-0.0031889987
-0.003857448
-0.0044929872
-0.0049582066
-0.0053833912
-0.0056707203
-0.0059021133
-0.0060201817
-0.0060772801
-0.0060398175
-0.0059407333
-0.0057604518
-0.0055174881
-0.0052007629
-0.0048228177
-0.0043770613
-0.0038702262
-0.0032991874
-0.0026688399
-0.0019775056
-0.0012276225
-0.00041788023
0.00045027241
0.0013766188
0.002360061
0.0033984024
0.0044907728
0.0056349546
0.0068290272
0.0080690466
0.0093536175
0.01068044
0.012048148
0.013453429
0.014893374
0.016364177
0.01786125
0.019379834
0.020918217
0.022474248
0.024043785
0.025624627
0.027216723
0.028817046
0.030426899
0.032043132
0.033657858
0.035272296
0.036887819
0.038507877
0.040126812
0.041743402
0.043352407
0.044959518
0.046564514
0.048164149
0.049756803
0.051334612
0.052902892
0.054457601
0.056001377
0.057524557
0.059030518
0.060517533
0.061990845
0.063443522
0.064879065
0.066295644
0.067697138
0.069081578
0.070450179
0.071802758
0.07314052
0.074466559
0.075779934
0.077080786
0.078364923
0.079635093
0.080886534
0.082120531
0.083332473
0.084526152
0.08569792
0.086849905
0.087980622
0.089094017
0.090193838
0.091280549
0.092354889
0.093409982
0.094451227
0.095477089
0.096493098
0.09749263
0.098478376
0.099450425
0.10040959
0.10135626
0.1022861
0.103203
0.10410439
0.10499199
0.10586533
0.10672899
0.10758884
0.1084433
0.1092896
0.11012785
0.11095227
0.11176745
0.11257034
0.11335923
0.11413431
0.11489444
0.11564211
0.11637657
0.11710186
0.11782146
0.11853265
0.11923553
0.11992715
0.12061297
0.12129049
0.12195709
0.1226123
0.12325569
0.12389307
0.12451775
0.12513639
0.1257403
0.12633992
0.12692138
0.12749874
0.12805706
0.128617
0.12916049
0.12970968
0.13023735
0.13077124
0.13128142
0.13180397
0.13229845
0.13280984
0.13328777
0.13378936
0.13424511
0.13472077
0.13516352
0.13565138
0.13612566
0.13664531
0.13716328
0.13772447
0.13829151
0.13889856
0.1395163
0.14016993
0.14083303
0.14152432
0.14221974
0.1429337
0.14363692
0.14433649
0.14500236
0.14563081
0.14619458
0.1466809
0.14706837
0.1473385
0.14748401
0.14747228
0.14728421
0.14688941
0.14629788
0.14552478
0.1445582
0.14343148
0.14217271
0.14075285
0.13931323
0.13757174
0.13579109
0.13357849
0.13090228
0.12753433
0.12286675
0.11671051
0.10843801
0.098385081
0.086026493
0.072640006
0.057968415
0.043467111
0.025980825
0.0074586337
-0.016431544
-0.042183578
-0.078005405
-0.11343604
-0.15374471
-0.17590366
-0.19640637
-0.19550827
-0.19981861
-0.18223521
-0.18200744
-0.15606593
-0.16056912
-0.10480726
-0.055794649
-0.067270827
-0.055278103
-0.061857338
-0.051168661
-0.047262267
-0.032504444
-0.023175064
-0.013617831
-0.010528603
-0.0069627629
-0.005973402
-0.0044186015
-0.0040025635
-0.0030254868
-0.0026615198
-0.0020144656
-0.0016921586
-0.0012255948
-0.0009576256
-0.00064351822
-0.00046811749
-0.00028907195
-0.00019197053
-9.9060088e-05
-4.9421898e-05
-2.1236582e-05
-1.4002508e-05
-2.5443689e-05
-4.8576099e-05
-8.1715757e-05
-0.00012108641
-0.00015488837
-0.00017980103
-0.00018062825
-0.00016292957
-0.00013385363
-8.7214662e-05
-3.254818e-05
1.3918315e-06
0.00031558305
0.00040973902
0.00056173137
0.00068233718
0.00077386054
0.00090863283
0.0010082796
0.0010911042
0.0011473352
0.0011689117
0.0011634717
0.0011080093
0.0010188996
0.00086479817
0.00067238731
0.00038706704
6.2470085e-05
-0.00039452763
-0.00087958238
-0.0015560553
-0.0022256162
-0.0031883882
-0.0038566923
-0.004492378
-0.0049575907
-0.005382805
-0.0056701276
-0.0059015342
-0.0060195939
-0.0060766931
-0.0060392192
-0.0059401322
-0.0057598355
-0.0055168704
-0.005200124
-0.0048221739
-0.0043763961
-0.0038695592
-0.0032985002
-0.0026681486
-0.0019767959
-0.0012269147
-0.00041715509
0.00045099741
0.0013773557
0.0023607938
0.0033991407
0.0044915034
0.0056356827
0.0068297463
0.0080697554
0.0093543214
0.010681126
0.012048825
0.01345408
0.014894016
0.016364786
0.017861845
0.019380391
0.020918757
0.022474766
0.024044277
0.025625102
0.027217167
0.028817477
0.0304273
0.032043515
0.033658203
0.035272609
0.036888102
0.038508134
0.040127045
0.041743608
0.043352584
0.044959675
0.046564644
0.048164256
0.049756878
0.051334668
0.052902918
0.05445761
0.056001357
0.057524522
0.059030454
0.060517462
0.06199074
0.063443413
0.064878929
0.066295507
0.067696972
0.069081408
0.070449991
0.071802562
0.07314031
0.074466334
0.075779702
0.07708053
0.078364671
0.079634812
0.080886257
0.082120225
0.083332175
0.084525831
0.0856976
0.086849572
0.087980289
0.089093681
0.090193494
0.091280201
0.09235453
0.093409627
0.094450858
0.095476724
0.096492722
0.097492252
0.098477993
0.099450034
0.1004092
0.10135586
0.1022857
0.1032026
0.10410399
0.10499158
0.10586493
0.10672858
0.10758843
0.10844288
0.10928919
0.11012741
0.11095185
0.11176701
0.11256991
0.11335879
0.11413387
0.11489401
0.11564167
0.11637613
0.11710142
0.11782102
0.11853221
0.11923508
0.1199267
0.12061251
0.12129004
0.12195663
0.12261185
0.12325524
0.12389262
0.12451729
0.12513594
0.12573985
0.12633947
0.12692094
0.1274983
0.12805663
0.12861657
0.12916007
0.12970926
0.13023694
0.13077084
0.13128101
0.13180358
0.13229806
0.13280946
0.13328739
0.13378897
0.13424481
0.13472076
0.13516382
0.13565198
0.13612656
0.13664653
0.13716481
0.13772635
0.13829371
0.1389011
0.13951915
0.14017311
0.14083649
0.14152805
0.14222367
0.14293777
0.14364105
0.14434053
0.14500621
0.1456343
0.14619757
0.14668322
0.14706991
0.14733911
0.1474835
0.14747059
0.14728119
0.14688509
0.1462924
0.1455181
0.14455032
0.14342238
0.14216226
0.14074135
0.13929926
0.13755693
0.13577268
0.13355814
0.13087736
0.12750462
0.12283127
0.11666472
0.10838322
0.098318831
0.085951301
0.072553515
0.057874369
0.043359456
0.025862288
0.0073167642
-0.016577845
-0.042349025
-0.078160923
-0.11357882
-0.15383007
-0.17594432
-0.19640798
-0.19549906
-0.19980105
-0.18222319
-0.18199941
-0.1560619
-0.16056926
-0.10481087
-0.055797608
-0.067272739
-0.055277624
-0.061851579
-0.051170513
-0.047265524
-0.032527451
-0.023198718
-0.013643358
-0.010543719
-0.0069770041
-0.0059812112
-0.0044258625
-0.0040065089
-0.0030301351
-0.0026650078
-0.0020184713
-0.0016951491
-0.0012286294
-0.000959948
-0.00064565943
-0.00046963128
-0.00029033972
-0.00019283374
-9.9680445e-05
-4.9927181e-05
-2.1411651e-05
-1.4146282e-05
-2.5317003e-05
-4.8428648e-05
-8.1407337e-05
-0.00012071977
-0.00015453624
-0.00017954017
-0.00018056879
-0.0001630226
-0.00013404634
-8.7601728e-05
-3.3161981e-05
3.765357e-06
0.00031324193
0.00040880924
0.00056090687
0.00068141437
0.00077350825
0.00090774867
0.0010077054
0.0010904959
0.0011468813
0.0011686046
0.0011633657
0.0011080572
0.001019133
0.00086512222
0.00067286326
0.00038755407
6.3046753e-05
-0.00039404273
-0.0008790896
-0.0015557308
-0.002225271
-0.0031876838
-0.0038558175
-0.0044916718
-0.0049568803
-0.0053821335
-0.0056694523
-0.0059008791
-0.0060189318
-0.0060760351
-0.0060385506
-0.0059394645
-0.0057591513
-0.0055161907
-0.0051994189
-0.0048214682
-0.0043756639
-0.003868831
-0.0032977468
-0.0026673948
-0.0019760179
-0.0012261447
-0.00041636145
0.00045178781
0.0013781629
0.002361593
0.0033999484
0.0044922997
0.0056364765
0.0068305284
0.0080705246
0.0093550871
0.010681869
0.012049558
0.01345478
0.014894709
0.016365437
0.017862482
0.019380981
0.02091933
0.022475314
0.024044796
0.025625604
0.027217632
0.028817933
0.030427722
0.032043921
0.033658566
0.035272938
0.036888397
0.038508402
0.040127289
0.041743822
0.043352766
0.044959838
0.046564777
0.048164363
0.049756947
0.051334719
0.052902933
0.05445761
0.056001321
0.057524473
0.059030369
0.060517376
0.061990611
0.063443286
0.064878768
0.066295352
0.06769678
0.069081217
0.070449777
0.071802343
0.073140078
0.074466084
0.075779448
0.077080242
0.078364393
0.079634494
0.080885949
0.082119878
0.083331844
0.084525467
0.085697243
0.086849198
0.087979919
0.089093309
0.090193112
0.091279816
0.092354131
0.093409236
0.094450449
0.095476323
0.096492306
0.097491835
0.09847757
0.099449599
0.10040877
0.10135541
0.10228526
0.10320216
0.10410356
0.10499114
0.10586449
0.10672814
0.10758798
0.1084424
0.10928874
0.11012693
0.11095138
0.11176651
0.11256943
0.11335831
0.11413339
0.11489353
0.11564118
0.11637566
0.11710094
0.11782053
0.11853172
0.11923459
0.11992622
0.12061201
0.12128955
0.12195613
0.12261135
0.12325474
0.12389213
0.1245168
0.12513544
0.12573937
0.12633898
0.12692047
0.12749783
0.12805617
0.1286161
0.12915961
0.1297088
0.13023649
0.1307704
0.13128058
0.13180316
0.13229764
0.13280906
0.13328698
0.13378855
0.13424448
0.13472075
0.13516413
0.13565262
0.13612752
0.13664784
0.13716646
0.13772836
0.13829607
0.13890383
0.13952222
0.14017653
0.1408402
0.14153204
0.14222788
0.14294212
0.14364548
0.14434484
0.14501033
0.14563801
0.14620076
0.14668568
0.14707152
0.14733973
0.14748292
0.14746873
0.14727789
0.14688038
0.14628643
0.14551081
0.14454173
0.14341255
0.14215102
0.14072929
0.1392842
0.13754164
0.13575292
0.13353683
0.13085054
0.12747242
0.12279262
0.11661412
0.1083224
0.09824503
0.08586803
0.072459136
0.057773806
0.043246024
0.025737555
0.0071647095
-0.016733348
-0.042527869
-0.078328893
-0.11373185
-0.15391994
-0.17598571
-0.19640803
-0.19548756
-0.19978126
-0.18220909
-0.18199071
-0.15605677
-0.16056966
-0.10481413
-0.055800182
-0.067274468
-0.055276826
-0.061845844
-0.051172395
-0.047268879
-0.032550134
-0.023221889
-0.013668416
-0.010558715
-0.0069910962
-0.0059890304
-0.0044330595
-0.0040102573
-0.0030346097
-0.0026685194
-0.0020224939
-0.001698147
-0.0012316436
-0.00096226629
-0.00064779355
-0.00047115072
-0.00029161411
-0.0001937038
-0.00010028899
-5.0492716e-05
-2.1574573e-05
-1.4352527e-05
-2.518702e-05
-4.8327579e-05
-8.1102353e-05
-0.00012035249
-0.00015417589
-0.00017927704
-0.00018052259
-0.00016312687
-0.0001342245
-8.7980046e-05
-3.3770135e-05
7.1096268e-06
0.00031030364
0.00040791765
0.00056017538
0.00068053966
0.00077343112
0.0009068812
0.0010071989
0.0010898641
0.0011463923
0.0011682621
0.0011632322
0.0011080868
0.0010193516
0.00086543541
0.00067332931
0.00038803412
6.3617173e-05
-0.00039355747
-0.00087859431
-0.0015553907
-0.00222491
-0.0031869992
-0.0038549644
-0.0044909773
-0.0049561852
-0.0053814757
-0.0056687935
-0.0059002401
-0.0060182872
-0.0060753937
-0.006037899
-0.0059388151
-0.0057584836
-0.0055155327
-0.0051987308
-0.0048207832
-0.0043749468
-0.0038681239
-0.0032970088
-0.0026666596
-0.0019752521
-0.0012253926
-0.00041557827
0.00045256536
0.001378964
0.0023623826
0.0034007512
0.004493089
0.0056372653
0.0068313042
0.0080712869
0.0093558501
0.010682607
0.012050288
0.013455471
0.0148954
0.016366076
0.017863112
0.019381555
0.02091989
0.02247585
0.024045301
0.025626097
0.027218082
0.028818381
0.030428132
0.032044321
0.033658923
0.035273262
0.036888687
0.038508667
0.040127531
0.041744034
0.043352946
0.044960005
0.046564912
0.048164475
0.049757016
0.051334773
0.052902946
0.054457612
0.056001283
0.057524426
0.05903028
0.060517296
0.061990477
0.063443164
0.064878606
0.066295206
0.067696588
0.069081032
0.070449569
0.071802133
0.073139854
0.07446584
0.075779203
0.077079956
0.078364127
0.079634174
0.080885648
0.082119524
0.083331517
0.084525099
0.085696887
0.08684882
0.087979551
0.08909294
0.090192731
0.091279436
0.092353731
0.093408851
0.09445004
0.095475928
0.096491892
0.097491421
0.098477149
0.099449164
0.10040835
0.10135496
0.10228483
0.10320173
0.10410314
0.1049907
0.10586407
0.10672771
0.10758754
0.10844192
0.1092883
0.11012643
0.11095093
0.11176601
0.11256896
0.11335782
0.1141329
0.11489306
0.1156407
0.11637519
0.11710046
0.11782005
0.11853125
0.1192341
0.11992574
0.12061151
0.12128906
0.12195564
0.12261086
0.12325425
0.12389163
0.12451631
0.12513495
0.12573888
0.12633849
0.12692
0.12749735
0.12805573
0.12861564
0.12915917
0.12970835
0.13023605
0.13076997
0.13128015
0.13180274
0.13229722
0.13280866
0.13328657
0.13378814
0.13424415
0.13472073
0.13516445
0.13565325
0.13612847
0.13664914
0.13716809
0.13773036
0.13829841
0.13890655
0.13952528
0.14017993
0.1408439
0.14153601
0.14223207
0.14294643
0.14364988
0.14434911
0.14501443
0.14564168
0.14620393
0.1466881
0.14707312
0.14734037
0.14748235
0.14746691
0.14727463
0.1468757
0.14628048
0.14550353
0.14453315
0.1434028
0.14213992
0.14071779
0.13926927
0.1375274
0.13573346
0.13351656
0.13082402
0.12744026
0.12275384
0.11656242
0.10825981
0.09816883
0.085782678
0.072364267
0.057675128
0.04313696
0.025618124
0.0070152469
-0.016884385
-0.04270539
-0.078495066
-0.11388147
-0.15400517
-0.17602293
-0.1964053
-0.19547437
-0.19976052
-0.18219444
-0.1819819
-0.15605145
-0.16056993
-0.10481719
-0.055802542
-0.067275873
-0.055275791
-0.061839798
-0.051174416
-0.04727248
-0.032573494
-0.023245445
-0.013693934
-0.010574067
-0.0070055351
-0.0059970998
-0.0044404447
-0.004013991
-0.0030391224
-0.0026721667
-0.0020266626
-0.0017012504
-0.0012347466
-0.00096466039
-0.0006499949
-0.00047272441
-0.00029293567
-0.00019460693
-0.00010090633
-5.1119474e-05
-2.1731643e-05
-1.4609593e-05
-2.5048843e-05
-4.825691e-05
-8.0792037e-05
-0.00011997592
-0.00015380225
-0.0001790085
-0.00018049063
-0.0001632525
-0.00013440996
-8.8374324e-05
-3.4387948e-05
1.1026435e-05
0.00030684645
0.00040702249
0.00055947082
0.00067964229
0.00077353196
0.00090598652
0.0010067175
0.0010891924
0.0011458609
0.0011678839
0.0011630753
0.0011081059
0.0010195686
0.0008657543
0.00067380676
0.00038853046
6.4206661e-05
-0.00039304886
-0.0008780772
-0.0015550222
-0.0022245304
-0.0031863286
-0.0038541248
-0.0044902864
-0.0049554972
-0.0053808222
-0.0056681408
-0.0058996058
-0.0060176479
-0.0060747555
-0.0060372501
-0.0059381684
-0.0057578157
-0.0055148777
-0.0051980412
-0.0048200991
-0.0043742247
-0.0038674163
-0.0032962649
-0.0026659206
-0.0019744763
-0.0012246347
-0.0004147824
0.00045335418
0.0013797821
0.0023631864
0.0034015725
0.0044938955
0.0056380731
0.0068320977
0.0080720666
0.0093566334
0.010683363
0.012051038
0.013456177
0.014896108
0.016366725
0.017863756
0.019382136
0.020920459
0.022476393
0.024045813
0.025626599
0.027218538
0.02881884
0.030428549
0.032044731
0.033659287
0.035273595
0.036888985
0.038508939
0.040127784
0.041744255
0.043353135
0.044960183
0.046565058
0.048164597
0.049757091
0.051334835
0.052902963
0.05445762
0.056001245
0.057524384
0.05903019
0.060517222
0.06199034
0.063443045
0.064878442
0.066295066
0.067696395
0.069080852
0.070449361
0.071801926
0.073139634
0.074465598
0.075778963
0.077079665
0.078363864
0.079633847
0.080885345
0.082119158
0.083331187
0.084524717
0.085696522
0.08684843
0.087979175
0.089092566
0.090192343
0.091279048
0.092353319
0.093408461
0.094449619
0.095475526
0.096491466
0.097490998
0.098476719
0.099448716
0.10040792
0.10135449
0.10228439
0.10320128
0.10410271
0.10499026
0.10586363
0.10672728
0.10758709
0.10844143
0.10928786
0.11012592
0.11095046
0.11176548
0.11256847
0.11335731
0.1141324
0.11489258
0.1156402
0.11637472
0.11709997
0.11781956
0.11853076
0.1192336
0.11992525
0.120611
0.12128856
0.12195512
0.12261036
0.12325375
0.12389113
0.12451581
0.12513444
0.12573839
0.12633798
0.12691952
0.12749686
0.12805527
0.12861517
0.12915871
0.12970789
0.1302356
0.13076952
0.13127971
0.13180232
0.13229679
0.13280825
0.13328614
0.13378771
0.13424381
0.13472071
0.13516476
0.1356539
0.13612945
0.13665047
0.13716977
0.13773242
0.13830082
0.13890935
0.13952843
0.14018344
0.14084772
0.14154011
0.1422364
0.14295087
0.14365444
0.14435352
0.14501866
0.14564547
0.14620721
0.14669059
0.14707479
0.14734105
0.1474818
0.14746507
0.14727128
0.14687088
0.14627435
0.14549601
0.14452428
0.14339278
0.14212853
0.14070627
0.13925387
0.13751338
0.13571348
0.13349627
0.13079676
0.12740698
0.12271364
0.1165082
0.10819395
0.098088444
0.085693108
0.072265902
0.057574432
0.043027149
0.025498465
0.006862868
-0.017036876
-0.042887027
-0.078663869
-0.11403142
-0.15408698
-0.17605571
-0.19639824
-0.19545818
-0.19973752
-0.18217869
-0.18197244
-0.15604596
-0.1605699
-0.10482002
-0.055804684
-0.067276921
-0.055274426
-0.061833279
-0.051176378
-0.047276214
-0.032597528
-0.023269396
-0.013719916
-0.010589783
-0.0070203477
-0.0060054302
-0.0044480361
-0.0040177549
-0.0030437167
-0.0026759554
-0.002030978
-0.0017044638
-0.0012379482
-0.00096713699
-0.00065226963
-0.00047435538
-0.00029430602
-0.00019554419
-0.00010153438
-5.1798124e-05
-2.1884038e-05
-1.4906452e-05
-2.4901875e-05
-4.8207848e-05
-8.0475788e-05
-0.00011958978
-0.00015341633
-0.00017873409
-0.00018046938
-0.00016339733
-0.00013460624
-8.8786268e-05
-3.5007973e-05
1.5256843e-05
0.00030297308
0.00040610373
0.00055875902
0.00067869637
0.00077375154
0.00090505607
0.0010062434
0.001088482
0.0011452899
0.0011674728
0.0011628966
0.0011081145
0.0010197835
0.00086607815
0.00067429531
0.00038904312
6.4815707e-05
-0.00039251677
-0.00087753804
-0.0015546256
-0.0022241328
-0.0031856724
-0.0038532963
-0.004489597
-0.0049548139
-0.0053801713
-0.0056674919
-0.005898974
-0.0060170114
-0.0060741184
-0.0060366014
-0.0059375221
-0.0057571452
-0.0055142225
-0.0051973473
-0.0048194124
-0.0043734953
-0.0038667049
-0.0032955126
-0.0026651744
-0.0019736882
-0.0012238678
-0.00041397206
0.00045415655
0.0013806185
0.002364005
0.0034024122
0.0044947201
0.0056389005
0.0068329096
0.0080728645
0.0093574372
0.010684137
0.012051808
0.013456898
0.014896836
0.016367387
0.017864415
0.019382726
0.02092104
0.022476946
0.024046332
0.025627112
0.027219
0.02881931
0.030428976
0.032045151
0.033659661
0.035273936
0.036889293
0.038509221
0.040128048
0.041744485
0.043353333
0.044960371
0.046565214
0.04816473
0.049757169
0.051334906
0.052902982
0.054457635
0.056001207
0.057524344
0.059030099
0.060517152
0.061990198
0.063442929
0.064878275
0.066294929
0.067696199
0.069080673
0.070449154
0.071801721
0.073139416
0.074465355
0.075778725
0.07707937
0.078363601
0.079633511
0.08088504
0.08211878
0.083330851
0.084524323
0.085696148
0.086848028
0.08797879
0.089092183
0.090191945
0.091278652
0.092352896
0.093408062
0.094449186
0.095475117
0.096491029
0.097490565
0.098476278
0.099448255
0.10040748
0.10135401
0.10228394
0.10320083
0.10410227
0.1049898
0.10586319
0.10672683
0.10758663
0.10844092
0.10928741
0.11012539
0.11094999
0.11176493
0.11256797
0.11335679
0.11413187
0.11489208
0.11563968
0.11637423
0.11709947
0.11781906
0.11853026
0.11923308
0.11992475
0.12061047
0.12128805
0.12195459
0.12260983
0.12325323
0.1238906
0.12451528
0.12513392
0.12573787
0.12633746
0.12691903
0.12749635
0.12805481
0.12861469
0.12915825
0.12970741
0.13023513
0.13076907
0.13127926
0.13180188
0.13229635
0.13280783
0.1332857
0.13378727
0.13424345
0.13472068
0.13516507
0.13565455
0.13613044
0.13665183
0.13717149
0.13773454
0.13830332
0.13891223
0.13953168
0.14018706
0.14085167
0.14154435
0.14224087
0.14295546
0.14365915
0.14435806
0.14502305
0.14564938
0.1462106
0.14669317
0.14707653
0.14734178
0.14748124
0.14746319
0.14726784
0.14686592
0.14626803
0.14548824
0.14451511
0.14338246
0.14211679
0.14069461
0.13923794
0.13749932
0.13569285
0.13347569
0.13076859
0.12737245
0.12267194
0.11645158
0.10812503
0.098004298
0.085599613
0.072164074
0.057471234
0.042915801
0.0253777
0.0067072543
-0.017191288
-0.04307224
-0.078834161
-0.11418005
-0.15416333
-0.17608193
-0.19638492
-0.19543756
-0.19971135
-0.1821614
-0.18196202
-0.15604021
-0.16056955
-0.10482263
-0.055806574
-0.067277564
-0.055272643
-0.061826128
-0.051178077
-0.047279971
-0.032622195
-0.023293702
-0.013746304
-0.010605816
-0.0070355205
-0.0060140063
-0.0044558283
-0.0040215783
-0.0030484184
-0.0026798804
-0.002035431
-0.001707783
-0.0012412491
-0.00096969618
-0.00065461754
-0.00047604258
-0.00029572356
-0.00019651457
-0.00010217461
-5.2519299e-05
-2.2033624e-05
-1.5233226e-05
-2.4747087e-05
-4.8173056e-05
-8.0153905e-05
-0.00011919441
-0.00015301924
-0.00017845337
-0.00018045509
-0.0001635574
-0.00013481355
-8.9213981e-05
-3.5623138e-05
1.961851e-05
0.0002987766
0.00040514101
0.00055801236
0.00067768961
0.00077403934
0.00090408621
0.0010057617
0.0010877338
0.0011446808
0.0011670297
0.001162695
0.00110811
0.0010199932
0.00086640407
0.00067479232
0.00038956996
6.5442603e-05
-0.00039196287
-0.00087697859
-0.001554205
-0.0022237207
-0.0031850367
-0.0038524829
-0.0044889122
-0.0049541379
-0.0053795255
-0.0056668489
-0.0058983468
-0.0060163792
-0.0060734839
-0.0060359544
-0.0059368777
-0.0057564729
-0.0055135667
-0.00519665
-0.0048187233
-0.0043727595
-0.0038659896
-0.0032947528
-0.0026644214
-0.0019728894
-0.0012230921
-0.00041314873
0.00045497152
0.001381471
0.0023648358
0.003403267
0.004495561
0.0056397453
0.0068337377
0.0080736788
0.0093582588
0.010684928
0.012052595
0.013457633
0.014897579
0.01636806
0.017865085
0.019383328
0.020921634
0.022477508
0.024046861
0.025627636
0.02721947
0.028819791
0.030429412
0.032045581
0.033660042
0.035274286
0.036889611
0.03850951
0.040128322
0.041744723
0.043353539
0.044960569
0.046565378
0.048164871
0.049757253
0.051334983
0.052903003
0.054457654
0.05600117
0.057524308
0.059030006
0.060517086
0.061990055
0.063442815
0.064878107
0.066294796
0.067696002
0.069080496
0.070448946
0.071801518
0.0731392
0.074465113
0.075778487
0.077079069
0.078363339
0.079633167
0.08088473
0.08211839
0.08333051
0.084523916
0.085695766
0.086847613
0.087978395
0.089091792
0.090191537
0.091278247
0.09235246
0.093407656
0.094448741
0.0954747
0.09649058
0.097490122
0.098475825
0.099447782
0.10040703
0.10135351
0.10228347
0.10320036
0.10410182
0.10498933
0.10586273
0.10672638
0.10758616
0.1084404
0.10928695
0.11012484
0.1109495
0.11176437
0.11256746
0.11335625
0.11413134
0.11489157
0.11563915
0.11637373
0.11709896
0.11781853
0.11852975
0.11923254
0.11992423
0.12060992
0.12128751
0.12195404
0.1226093
0.12325269
0.12389006
0.12451475
0.12513338
0.12573734
0.12633691
0.12691852
0.12749583
0.12805433
0.12861419
0.12915777
0.12970692
0.13023466
0.13076861
0.1312788
0.13180143
0.13229589
0.1328074
0.13328525
0.13378681
0.13424306
0.13472063
0.13516538
0.13565522
0.13613146
0.13665323
0.13717327
0.13773673
0.13830588
0.13891521
0.13953503
0.14019081
0.14085574
0.14154873
0.14224549
0.14296019
0.14366403
0.14436276
0.14502759
0.14565343
0.14621411
0.14669583
0.14707833
0.14734255
0.14748067
0.14746126
0.1472643
0.1468608
0.14626151
0.14548021
0.14450564
0.14337182
0.14210471
0.1406827
0.13922146
0.13748507
0.13567153
0.13345465
0.13073948
0.12733667
0.12262873
0.11639274
0.10805337
0.097916781
0.085502634
0.072059002
0.057365469
0.042802546
0.025255409
0.0065486591
-0.01734752
-0.043259804
-0.079004475
-0.11432529
-0.15423177
-0.17609913
-0.19636326
-0.195411
-0.19968108
-0.1821421
-0.18195036
-0.15603411
-0.16056885
-0.10482497
-0.055808204
-0.067277736
-0.055270343
-0.061818162
-0.051179288
-0.047283615
-0.032647466
-0.023318354
-0.013773059
-0.010622134
-0.007051045
-0.0060228166
-0.004463821
-0.0040254888
-0.0030532518
-0.0026839401
-0.0020400161
-0.0017112068
-0.0012446515
-0.00097233899
-0.00065704005
-0.00047778619
-0.00029718798
-0.0001975178
-0.0001028299
-5.327497e-05
-2.2183305e-05
-1.5581306e-05
-2.4586252e-05
-4.8145995e-05
-7.9826534e-05
-0.00011878991
-0.00015261168
-0.00017816588
-0.00018044476
-0.00016372962
-0.00013503198
-8.9656386e-05
-3.6230251e-05
2.3971175e-05
0.00029433917
0.00040411614
0.0005572084
0.00067661722
0.0007743497
0.0009030732
0.001005257
0.0010869456
0.0011440317
0.0011665522
0.0011624669
0.0011080879
0.0010201932
0.00086672753
0.00067529376
0.0003901078
6.6084455e-05
-0.00039138968
-0.0008764015
-0.0015537629
-0.0022232988
-0.0031844284
-0.0038516896
-0.0044882355
-0.0049534724
-0.0053788882
-0.0056662144
-0.0058977263
-0.0060157532
-0.0060728537
-0.0060353104
-0.0059362368
-0.0057557999
-0.0055129101
-0.0051959503
-0.0048180322
-0.0043720185
-0.0038652706
-0.0032939865
-0.0026636617
-0.0019720809
-0.0012223079
-0.00041231376
0.00045579828
0.0013823376
0.0023656761
0.0034041334
0.0044964165
0.0056406059
0.0068345803
0.0080745083
0.0093590961
0.010685735
0.012053397
0.013458382
0.014898336
0.016368744
0.017865769
0.019383943
0.020922243
0.02247808
0.024047398
0.02562817
0.027219949
0.028820283
0.030429857
0.032046018
0.033660431
0.035274645
0.036889939
0.038509807
0.040128606
0.041744967
0.043353754
0.044960776
0.04656555
0.04816502
0.04975734
0.051335066
0.052903028
0.054457678
0.056001133
0.057524274
0.059029913
0.060517023
0.061989909
0.063442702
0.064877937
0.066294665
0.067695804
0.069080318
0.070448738
0.071801314
0.073138984
0.074464868
0.075778249
0.077078765
0.078363075
0.079632817
0.080884416
0.08211799
0.083330162
0.084523499
0.085695374
0.086847188
0.087977991
0.089091392
0.09019112
0.091277835
0.092352012
0.093407241
0.094448284
0.095474275
0.09649012
0.097489668
0.098475362
0.099447296
0.10040658
0.101353
0.102283
0.10319988
0.10410137
0.10498884
0.10586227
0.10672592
0.10758568
0.10843986
0.10928649
0.11012428
0.110949
0.11176379
0.11256692
0.11335569
0.11413078
0.11489104
0.1156386
0.11637322
0.11709843
0.117818
0.11852922
0.11923199
0.1199237
0.12060935
0.12128697
0.12195347
0.12260874
0.12325213
0.1238895
0.12451419
0.12513282
0.1257368
0.12633635
0.126918
0.12749529
0.12805384
0.12861368
0.12915729
0.12970642
0.13023417
0.13076813
0.13127832
0.13180097
0.13229542
0.13280695
0.13328478
0.13378634
0.13424266
0.13472058
0.13516569
0.13565589
0.1361325
0.13665467
0.13717509
0.13773897
0.13830852
0.13891828
0.13953849
0.14019466
0.14085994
0.14155324
0.14225026
0.14296508
0.14366907
0.14436761
0.14503227
0.14565761
0.14621774
0.14669859
0.14708019
0.14734335
0.14748009
0.14745927
0.14726065
0.14685552
0.14625479
0.14547192
0.14449587
0.14336085
0.14209223
0.14067047
0.13920443
0.13747045
0.13564949
0.133433
0.13070936
0.12729961
0.12258399
0.11633182
0.10797911
0.097826225
0.085402367
0.07195086
0.057256995
0.042686996
0.025131199
0.0063873394
-0.01750546
-0.043448716
-0.079173224
-0.11446516
-0.15428978
-0.17610476
-0.19633099
-0.19537676
-0.19964558
-0.18212024
-0.18193707
-0.15602754
-0.16056774
-0.10482703
-0.055809554
-0.067277364
-0.055267405
-0.061809165
-0.051179747
-0.047286984
-0.032673312
-0.023343375
-0.01380015
-0.010638701
-0.0070669176
-0.0060318515
-0.0044720137
-0.0040295106
-0.0030582395
-0.002688133
-0.0020447307
-0.0017147347
-0.0012481585
-0.0009750673
-0.00065953914
-0.000479587
-0.00029869954
-0.00019855413
-0.00010350366
-5.4058274e-05
-2.2336411e-05
-1.5943246e-05
-2.4421505e-05
-4.8121001e-05
-7.9493773e-05
-0.0001183764
-0.00015219424
-0.00017787142
-0.00018043639
-0.00016391214
-0.00013526241
-9.0113525e-05
-3.6829466e-05
2.8203663e-05
0.00028973321
0.00040301464
0.00055632936
0.0006754778
0.00077464208
0.00090201221
0.0010047136
0.0010861126
0.0011433378
0.0011660353
0.0011622062
0.0011080414
0.0010203765
0.00086704215
0.00067579375
0.00039065156
6.6736761e-05
-0.00039080128
-0.0008758108
-0.0015533041
-0.0022228731
-0.0031838557
-0.0038509215
-0.0044875706
-0.0049528205
-0.0053782624
-0.0056655909
-0.005897115
-0.0060151351
-0.0060722295
-0.0060346709
-0.0059356013
-0.0057551274
-0.0055122524
-0.005195249
-0.0048173391
-0.0043712731
-0.0038645477
-0.0032932144
-0.0026628955
-0.001971264
-0.0012215152
-0.00041146837
0.0004566361
0.0013832167
0.0023665228
0.003405008
0.0044972851
0.0056414804
0.006835436
0.0080753517
0.0093599473
0.010686555
0.012054212
0.013459143
0.014899106
0.016369439
0.017866464
0.019384575
0.020922869
0.022478661
0.024047945
0.025628714
0.027220436
0.028820785
0.030430313
0.032046459
0.033660823
0.03527501
0.036890276
0.03851011
0.040128899
0.041745218
0.043353977
0.04496099
0.046565728
0.048165175
0.049757429
0.051335155
0.052903054
0.054457707
0.056001096
0.057524242
0.05902982
0.060516962
0.061989761
0.063442588
0.064877767
0.066294534
0.067695604
0.06908014
0.070448529
0.071801109
0.073138766
0.074464622
0.075778009
0.077078454
0.078362807
0.079632459
0.080884096
0.08211758
0.083329806
0.08452307
0.085694972
0.08684675
0.087977578
0.089090983
0.090190691
0.091277412
0.092351551
0.093406816
0.094447814
0.09547384
0.096489646
0.097489203
0.098474886
0.099446797
0.10040611
0.10135247
0.10228251
0.10319938
0.10410089
0.10498835
0.10586179
0.10672545
0.10758518
0.1084393
0.10928601
0.1101237
0.11094849
0.11176319
0.11256638
0.11335512
0.11413021
0.1148905
0.11563803
0.11637269
0.11709789
0.11781745
0.11852868
0.11923142
0.11992316
0.12060877
0.12128641
0.12195289
0.12260817
0.12325156
0.12388893
0.12451362
0.12513224
0.12573624
0.12633577
0.12691746
0.12749473
0.12805334
0.12861315
0.12915679
0.1297059
0.13023367
0.13076764
0.13127783
0.1318005
0.13229494
0.13280649
0.1332843
0.13378586
0.13424224
0.13472052
0.13516599
0.13565657
0.13613356
0.13665613
0.13717696
0.13774127
0.13831123
0.13892143
0.13954206