/*--------------------------------*- C++ -*----------------------------------*\
| =========                 |                                                 |
| \\      /  F ield         | OpenFOAM: The Open Source CFD Toolbox           |
|  \\    /   O peration     | Version:  2.4.0                                 |
|   \\  /    A nd           | Web:      www.OpenFOAM.org                      |
|    \\/     M anipulation  |                                                 |
\*---------------------------------------------------------------------------*/
FoamFile
{
    version     2.0;
    format      ascii;
    class       volVectorField;
    location    "60";
    object      U;
}
// * * * * * * * * * * * * * * * * * * * * * * * * * * * * * * * * * * * * * //

dimensions      [0 1 -1 0 0 0 0];

internalField   nonuniform List<vector> 
78300
(
(0.0055695785 2.4096232e-05 1.1558994e-21)
(0.0042658137 2.1775312e-05 -1.1109594e-21)
(0.006748291 -4.2685302e-05 9.6880612e-22)
(0.0054296879 -0.00016705087 -2.6558143e-20)
(0.0059261755 -0.00040173917 -7.612392e-21)
(0.0035515504 -0.0004161748 1.4629376e-20)
(0.0023314771 -0.00042183805 8.5562848e-21)
(-0.00044283464 0.00010522097 -2.9381598e-20)
(-0.0014521319 0.00047565211 -1.0287664e-20)
(-0.0021614392 0.00091121103 1.0489928e-20)
(-0.0016488952 0.00083145238 6.3561213e-21)
(-0.0014625582 0.00084540431 -1.5602061e-20)
(-0.001053339 0.00067322261 2.4435029e-21)
(-0.00092385958 0.00063991316 -1.1029414e-20)
(-0.0007527731 0.00055377399 8.363276e-21)
(-0.0007132345 0.00055059347 -1.1280315e-20)
(-0.00062279889 0.00049853007 -3.4626503e-21)
(-0.00060278388 0.00049659597 1.5006513e-21)
(-0.00054709136 0.00045969671 -5.2922782e-21)
(-0.00052488623 0.00044699373 3.4231764e-21)
(-0.0004827566 0.00041364565 4.0578654e-21)
(-0.00045976274 0.00039401892 -2.849236e-21)
(-0.00042823554 0.00036455096 -8.9447657e-22)
(-0.00041352535 0.0003481019 3.0503788e-22)
(-0.00039747882 0.00033074823 5.6674294e-22)
(-0.00039057863 0.00032148789 8.1008094e-23)
(-0.00038418108 0.00031302563 5.7215319e-23)
(-0.00038501374 0.00031082061 -8.6788329e-23)
(-0.00038789546 0.00031042252 -4.7661668e-23)
(-0.00039754024 0.0003157216 -5.7842578e-23)
(-0.00041041108 0.00032364494 1.1095381e-22)
(-0.00042979386 0.00033691643 3.7783922e-22)
(-0.00045313824 0.00035333987 2.0355249e-22)
(-0.00048228126 0.00037442051 3.4413341e-22)
(-0.00051489584 0.00039830548 -4.3409688e-22)
(-0.00055063314 0.00042484325 3.0327742e-22)
(-0.00058526824 0.00045027062 -4.8263624e-22)
(-0.00061956648 0.00047395258 -1.5187304e-23)
(-0.00065383232 0.00049576243 -5.9829377e-22)
(-0.00068687139 0.00051472334 6.2844253e-23)
(-0.00072009989 0.00053063154 3.607587e-24)
(-0.00075182233 0.00054220691 -4.1111385e-22)
(-0.00077977153 0.000550733 -8.238256e-22)
(-0.00080553045 0.00055330939 -1.285798e-21)
(-0.00082687256 0.00055010145 2.4717043e-21)
(-0.00084250783 0.00053946326 3.0234071e-21)
(-0.00085391109 0.00052269498 -1.2181741e-21)
(-0.00085936669 0.00049952699 -3.657585e-21)
(-0.00086562072 0.00047399099 3.8147215e-21)
(-0.00087004164 0.00044629901 -3.1696608e-21)
(-0.00087207116 0.00041660552 -7.0289507e-21)
(-0.00086731954 0.00038322582 9.1420985e-22)
(-0.00085954881 0.00034845015 -1.2261931e-21)
(-0.00084055585 0.00030954225 -4.3764175e-21)
(-0.00082050631 0.0002712412 -1.2373332e-21)
(-0.00078482158 0.00022936392 8.7406577e-22)
(-0.0007541776 0.000191127 4.0558998e-22)
(-0.00070321724 0.00015047353 1.5250331e-22)
(-0.00067323512 0.00011721508 -1.7974558e-23)
(-0.00061890068 8.2718887e-05 2.301941e-21)
(-0.00062292689 5.784099e-05 -9.6771538e-22)
(-0.00060345305 3.1177136e-05 -2.0283969e-22)
(-0.00075422788 9.0457917e-06 -3.2875965e-22)
(-0.0010477064 3.073852e-07 8.7463374e-26)
(-0.0012516742 3.1451031e-07 -1.2672126e-25)
(-0.0014614041 2.8951887e-07 -5.3334034e-25)
(-0.0016349199 3.1631194e-07 5.8920279e-25)
(-0.0018080856 3.0750767e-07 -6.0206292e-25)
(-0.0019567354 3.2902519e-07 3.8904789e-25)
(-0.0021021555 3.2879888e-07 -5.1470401e-25)
(-0.0022308016 3.4674591e-07 3.2591318e-25)
(-0.0023554989 3.5060271e-07 6.7076371e-25)
(-0.0024684176 3.6436136e-07 -8.8720487e-25)
(-0.0025774402 3.7148028e-07 -3.4166274e-18)
(-0.0026778537 3.8210951e-07 -3.2684927e-18)
(-0.0027746638 3.9143173e-07 1.4790413e-24)
(-0.0028649684 4.0012645e-07 -5.7682126e-25)
(-0.0029517347 4.0926832e-07 -4.4151558e-25)
(-0.0030332064 4.1519307e-07 4.1279536e-25)
(-0.0031111684 4.2280134e-07 -3.2131157e-25)
(-0.0031845432 4.2665933e-07 1.2175723e-25)
(-0.003254409 4.3268956e-07 -2.6433615e-25)
(-0.0033200871 4.3404659e-07 1.3391694e-25)
(-0.0033821837 4.3991079e-07 1.3842264e-26)
(-0.0034402606 4.4094364e-07 1.959355e-26)
(-0.003494599 4.4456521e-07 -8.769926e-27)
(-0.0035449355 4.4315375e-07 2.4401881e-25)
(-0.0035914261 4.4328802e-07 -3.4637549e-25)
(-0.003633973 4.3889126e-07 -3.6735212e-25)
(-0.0036725902 4.3504146e-07 5.5168848e-25)
(-0.003707265 4.2787887e-07 -5.3702425e-25)
(-0.0037379998 4.1954195e-07 4.3349995e-25)
(-0.0037648268 4.1223501e-07 -2.7565125e-25)
(-0.0037877807 4.0138824e-07 -7.2750295e-26)
(-0.0038068884 3.918176e-07 8.8371106e-27)
(-0.0038222057 3.7780858e-07 4.4395673e-25)
(-0.0038337734 3.6727136e-07 -3.7337973e-26)
(-0.0038416757 3.4897195e-07 7.1077562e-25)
(-0.0038459089 3.3418143e-07 1.1697492e-26)
(-0.0038466997 3.1278311e-07 -1.437024e-24)
(-0.0038438414 2.968978e-07 6.8901875e-25)
(-0.0038382564 2.80268e-07 -6.7541302e-26)
(-0.0038296236 2.6248646e-07 1.0213426e-24)
(-0.0038184293 2.4829303e-07 -1.6316817e-26)
(-0.0038048183 2.3077082e-07 -2.0284719e-24)
(-0.0037891974 2.1949325e-07 -1.4953046e-25)
(-0.0037716574 2.0378264e-07 6.3471837e-26)
(-0.0037519046 1.8977122e-07 1.060594e-24)
(-0.0037296969 1.6992115e-07 -1.0749326e-25)
(-0.0037026542 1.518896e-07 -1.3584979e-24)
(-0.0036733982 1.3765642e-07 2.512565e-24)
(-0.0036417675 1.2454902e-07 -2.8874057e-24)
(-0.0036082626 1.1188844e-07 2.7246269e-24)
(-0.003572985 9.7547983e-08 -5.2423765e-25)
(-0.0035362223 8.4870555e-08 3.224585e-25)
(-0.0034980693 7.5591156e-08 -1.3631852e-24)
(-0.0034586378 6.374594e-08 7.7309015e-25)
(-0.0034179627 5.2648484e-08 2.090023e-25)
(-0.0033761944 3.7662341e-08 -1.5060104e-25)
(-0.0033334746 2.7744517e-08 -1.4776289e-25)
(-0.0032899661 1.4302059e-08 3.1362798e-17)
(-0.0032457352 5.4592554e-09 3.2275414e-17)
(-0.0032008376 -8.7534168e-09 1.8900618e-24)
(-0.003155406 -1.7843351e-08 -1.5373957e-25)
(-0.0031095787 -3.1045483e-08 -1.7706251e-25)
(-0.0030634801 -3.6633871e-08 -1.2833135e-25)
(-0.0030171182 -5.1029484e-08 -1.0669809e-26)
(-0.0029705976 -5.6154058e-08 -4.3187866e-25)
(-0.002923985 -6.7969083e-08 -1.970666e-25)
(-0.002877399 -7.1911835e-08 6.8793878e-25)
(-0.0028308554 -8.3756141e-08 3.7248895e-26)
(-0.0027844267 -8.8707223e-08 3.7456613e-25)
(-0.0027381395 -9.7680713e-08 -6.2059317e-25)
(-0.0026920729 -1.0361378e-07 8.6723407e-26)
(-0.002646269 -1.1075976e-07 2.0052555e-26)
(-0.0026007541 -1.1919437e-07 3.9086536e-26)
(-0.0025555153 -1.2520848e-07 3.7173895e-27)
(-0.002510555 -1.3673845e-07 2.4964077e-25)
(-0.0024659065 -1.4003038e-07 -1.1088592e-25)
(-0.0024215904 -1.5285585e-07 -5.9511623e-25)
(-0.0023776133 -1.5597491e-07 1.1416933e-24)
(-0.0023339993 -1.6811696e-07 -1.6498813e-24)
(-0.0022907823 -1.6950964e-07 2.9708897e-26)
(-0.0022479872 -1.7979113e-07 8.7738999e-25)
(-0.0022056183 -1.824768e-07 -2.4805729e-25)
(-0.0021637133 -1.8937247e-07 5.9323673e-25)
(-0.0021223096 -1.9195143e-07 -2.501177e-25)
(-0.0020814463 -1.9633764e-07 -1.6078538e-26)
(-0.0020410895 -2.0277827e-07 -2.8200054e-25)
(-0.0020011836 -2.0797188e-07 -2.8874484e-25)
(-0.0019616656 -2.1530654e-07 -2.7271686e-25)
(-0.0019225804 -2.1677233e-07 1.0395336e-24)
(-0.0018839827 -2.2410287e-07 6.7424564e-25)
(-0.001845867 -2.266384e-07 1.1046883e-24)
(-0.0018081672 -2.3407386e-07 -4.4111104e-25)
(-0.0017708747 -2.3720371e-07 -1.2393988e-24)
(-0.0017340272 -2.4183397e-07 -2.9913303e-24)
(-0.0016976285 -2.4735402e-07 5.893788e-17)
(-0.001661631 -2.4957839e-07 2.8183302e-20)
(-0.0016260172 -2.5643134e-07 -6.0095888e-17)
(-0.0015907949 -2.5609642e-07 -4.570734e-24)
(-0.0015559787 -2.5872342e-07 6.724946e-25)
(-0.001521591 -2.5868976e-07 -7.9509779e-24)
(-0.0014876435 -2.6216004e-07 8.2181331e-24)
(-0.0014541417 -2.6282362e-07 7.5492901e-25)
(-0.0014211611 -2.6731603e-07 -7.4698238e-24)
(-0.0013885886 -2.7517134e-07 4.1388383e-24)
(-0.0013563771 -2.8494984e-07 -4.5491749e-24)
(-0.0013244396 -2.8444187e-07 6.7044007e-24)
(-0.001292828 -2.9399695e-07 -1.7163308e-24)
(-0.001261523 -2.9030224e-07 -3.3595302e-24)
(-0.0012306266 -2.9796246e-07 1.0798287e-24)
(-0.0011999953 -2.941107e-07 4.3487902e-24)
(-0.0011697637 -2.9480554e-07 -5.0421618e-24)
(-0.0011398206 -2.9299111e-07 4.4041498e-24)
(-0.0011103558 -2.8922075e-07 -4.8061242e-24)
(-0.0010811945 -2.8951052e-07 2.4639385e-24)
(-0.0010525975 -2.8625168e-07 2.808432e-24)
(-0.0010243299 -2.8942035e-07 4.5487944e-24)
(-0.00099664182 -2.9257688e-07 -5.2157605e-24)
(-0.0009691242 -2.9328696e-07 -3.5819351e-24)
(-0.00094220222 -2.947192e-07 4.604525e-24)
(-0.00091545719 -2.9333246e-07 -9.796494e-24)
(-0.00088945926 -2.9729628e-07 9.1141579e-24)
(-0.00086349972 -2.9551383e-07 -5.4005818e-24)
(-0.00083836571 -2.9372953e-07 4.7011203e-24)
(-0.00081323986 -2.8981878e-07 -5.4633973e-24)
(-0.00078923664 -2.8743385e-07 -3.7562742e-24)
(-0.00076514241 -2.8700203e-07 2.9795391e-24)
(-0.00074239384 -2.830958e-07 -3.7974345e-24)
(-0.00071939243 -2.8155625e-07 9.7868165e-24)
(-0.00069811825 -2.7538097e-07 -5.9422328e-24)
(-0.00067638409 -2.7384179e-07 5.2031673e-24)
(-0.00065685756 -2.6267352e-07 -8.9032531e-24)
(-0.00063664793 -2.6040016e-07 8.3833752e-25)
(-0.00061936449 -2.4888651e-07 3.0856202e-24)
(-0.00060111242 -2.5133569e-07 3.4585361e-24)
(-0.00058662748 -2.4337724e-07 -1.317231e-23)
(-0.00057067786 -2.4499805e-07 7.6840774e-17)
(-0.00055957178 -2.3220402e-07 7.7252967e-17)
(-0.00054651747 -2.3044346e-07 -3.9284214e-24)
(-0.00053976051 -2.1672167e-07 -5.8381944e-24)
(-0.00053043726 -2.1590589e-07 5.0886371e-24)
(-0.00052899725 -1.9836545e-07 9.2216699e-25)
(-0.00052422275 -1.9640943e-07 -1.6847777e-24)
(-0.00052861223 -1.775485e-07 -7.8954977e-17)
(-0.00052640679 -1.8689955e-07 -7.9365539e-17)
(-0.00052736837 -6.2206263e-06 -1.4203375e-20)
(-0.00052833214 -2.7217154e-05 1.4726449e-19)
(-0.00053017228 -4.8918344e-05 6.6763909e-20)
(-0.00053522103 -7.1067228e-05 -4.3257539e-19)
(-0.00052994457 -9.1602531e-05 -7.196119e-20)
(-0.00052640873 -0.00011187567 -4.8138843e-19)
(-0.00051253832 -0.00012896746 3.2173504e-20)
(-0.0004988174 -0.00014476683 -5.018545e-21)
(-0.00047597546 -0.0001561883 1.7822924e-19)
(-0.00045171192 -0.00016508133 -1.4008721e-19)
(-0.00041926702 -0.00016854596 4.5652586e-19)
(-0.00038390348 -0.00016809585 -3.110324e-19)
(-0.00034083823 -0.00016115252 -8.4537014e-20)
(-0.0002935705 -0.00014880306 -1.5533369e-19)
(-0.00023845547 -0.0001286552 8.8277128e-19)
(-0.000177554 -0.00010119709 1.932899e-19)
(-0.00010657273 -6.3150877e-05 -7.5428068e-19)
(-2.8797128e-05 -1.633614e-05 -8.2816774e-19)
(5.83463e-05 4.0846427e-05 -1.3241643e-19)
(0.00015267511 0.00010678175 6.3836098e-20)
(0.00025640604 0.0001827692 -8.9128431e-19)
(0.00036770148 0.00026718754 -5.9554707e-20)
(0.00048817816 0.0003607986 -1.6215806e-19)
(0.00061595686 0.00046172917 -1.0635576e-18)
(0.00075203326 0.00057002113 1.6156761e-19)
(0.00089432615 0.00068325981 8.751319e-19)
(0.0010425877 0.00080038525 6.3511081e-19)
(0.0011919171 0.00091698663 -2.3806824e-19)
(0.0013357174 0.0010295958 -1.1800618e-19)
(0.001477401 0.001142238 -1.0951876e-19)
(0.0016180277 0.0012562033 2.2364659e-19)
(0.0017600305 0.0013740089 7.8655414e-19)
(0.001903847 0.0014959238 -8.5587567e-19)
(0.0020521609 0.0016251842 2.2990152e-19)
(0.0022058608 0.0017612079 2.3937204e-20)
(0.0023688179 0.0019090663 2.186338e-19)
(0.0025410719 0.00206762 1.3020101e-19)
(0.0027303849 0.0022438001 -6.1405869e-20)
(0.0029357116 0.0024373137 3.1157377e-19)
(0.0031719151 0.0026599316 -3.7477139e-20)
(0.0034497823 0.0029201891 -6.5485885e-19)
(0.0037907106 0.0032242112 -1.5620467e-20)
(0.0041820506 0.0035511885 -4.2052433e-19)
(0.0046596155 0.0039283502 3.8485279e-19)
(0.005189203 0.0043191255 3.0919216e-20)
(0.0058414917 0.0047752716 4.4590143e-20)
(0.0065608418 0.0052286546 -1.019903e-19)
(0.0074850593 0.0057610855 6.2621696e-20)
(0.0084972459 0.006240087 4.4752801e-20)
(0.0098762013 0.0068255557 -4.0575698e-20)
(0.011336805 0.0072398211 8.0239738e-20)
(0.013217574 0.0076204922 -6.9645248e-20)
(0.014945973 0.0075351676 -2.8206758e-19)
(0.016781382 0.0070806773 -3.5669237e-19)
(0.017043167 0.0056733982 -7.2369384e-20)
(0.016334034 0.0040977147 1.1063651e-19)
(0.014126527 0.0025231175 -1.4052907e-19)
(0.012241875 0.0014406065 -8.6786924e-20)
(0.009189348 0.00062903495 -1.8511611e-20)
(0.0078215419 0.00024517902 -2.7476139e-20)
(0.0050638785 3.5565079e-05 -1.6720449e-20)
(0.0053110137 -2.9138279e-05 -9.5506136e-21)
(0.002941852 -1.3283117e-05 -1.6398757e-21)
(0.016838598 6.4619197e-05 1.268818e-21)
(0.013386735 5.8250686e-05 3.1900648e-21)
(0.020403193 -0.00013539478 -3.5543972e-21)
(0.016594262 -0.00050473876 3.1123787e-20)
(0.017987522 -0.0012032957 4.569101e-22)
(0.011033043 -0.0012589884 5.3743342e-20)
(0.007350948 -0.0012806806 -2.2458615e-20)
(-0.00093611071 0.00027538848 4.1583603e-20)
(-0.0041191618 0.0013941848 3.1048677e-20)
(-0.0063730624 0.0027138442 -2.4766146e-20)
(-0.0049240475 0.0024945068 -7.6202316e-21)
(-0.0043837496 0.0025406738 2.3627675e-21)
(-0.0031719338 0.0020305505 5.5207034e-20)
(-0.0027822344 0.001930235 8.2781491e-21)
(-0.0022708213 0.0016732753 -2.2734315e-20)
(-0.0021498456 0.0016627448 1.0024593e-20)
(-0.0018796372 0.0015074089 -5.6019838e-21)
(-0.0018183265 0.0015008257 -2.0456546e-21)
(-0.0016519264 0.0013904326 -5.5114788e-21)
(-0.0015846996 0.0013517556 1.4228649e-21)
(-0.0014588297 0.0012517619 -1.8705725e-21)
(-0.0013897279 0.0011924577 1.3774417e-21)
(-0.0012955973 0.0011039889 1.4409932e-21)
(-0.0012514333 0.0010542988 2.4399272e-21)
(-0.0012036515 0.0010021548 -5.1231211e-22)
(-0.0011830733 0.00097424343 -4.2352296e-22)
(-0.0011643049 0.00094897721 -3.2267421e-22)
(-0.0011672037 0.00094239793 7.369896e-23)
(-0.0011763122 0.00094149534 2.067138e-23)
(-0.001205801 0.00095761817 1.906512e-22)
(-0.0012449784 0.00098182397 -5.5614898e-22)
(-0.0013037852 0.0010220392 -5.5417439e-22)
(-0.0013744363 0.0010718276 -1.474828e-22)
(-0.0014624049 0.0011355909 -3.6678866e-22)
(-0.0015606837 0.0012078017 -1.2931603e-23)
(-0.0016682859 0.0012879376 1.4437735e-21)
(-0.0017727925 0.0013647497 1.1396561e-21)
(-0.0018762795 0.0014362758 4.5631372e-23)
(-0.0019796581 0.0015021502 5.8815423e-22)
(-0.0020798041 0.0015594448 3.2174366e-23)
(-0.0021784373 0.0016059966 2.5598551e-25)
(-0.0022721975 0.0016429088 -2.3073886e-21)
(-0.0023591389 0.001668087 -5.2370469e-22)
(-0.0024369146 0.0016757428 -5.1473914e-22)
(-0.002502436 0.0016660468 1.2857115e-21)
(-0.0025500906 0.0016338048 -7.6948785e-21)
(-0.0025847978 0.0015835466 2.6988531e-21)
(-0.0026026654 0.0015138128 -2.1173932e-21)
(-0.0026226984 0.0014369899 -2.3148002e-22)
(-0.002637637 0.0013535379 -2.0482566e-21)
(-0.0026455019 0.0012639483 1.4023723e-21)
(-0.0026334134 0.0011632827 -7.2007142e-21)
(-0.0026123975 0.0010582595 -4.766039e-22)
(-0.0025581531 0.00094087233 1.4065324e-21)
(-0.002500698 0.00082505463 -3.3189785e-22)
(-0.0023972573 0.00069866277 2.6665582e-21)
(-0.0023086706 0.00058285052 -1.5486054e-21)
(-0.0021606725 0.00046008935 2.0295957e-22)
(-0.0020748436 0.00035906492 3.8042879e-22)
(-0.0019187953 0.00025488233 -7.7796929e-23)
(-0.0019362989 0.00017904294 -3.4929731e-22)
(-0.001889605 9.9032648e-05 -4.3839733e-21)
(-0.002347026 3.3529141e-05 4.9852508e-22)
(-0.003222891 6.9069261e-06 -1.0070247e-24)
(-0.0038357202 5.9176672e-06 -1.1550516e-26)
(-0.0044635705 5.3932746e-06 -2.9177605e-25)
(-0.0049841247 4.9725444e-06 9.7989874e-25)
(-0.0055020381 4.5680235e-06 -6.032533e-25)
(-0.0059472757 4.2383149e-06 2.1725708e-25)
(-0.0063819152 3.9269861e-06 2.2371934e-25)
(-0.0067668093 3.6735736e-06 2.2166404e-25)
(-0.0071393093 3.4348593e-06 -7.7558888e-25)
(-0.0074768328 3.2376164e-06 3.2808841e-25)
(-0.0078022816 3.0519211e-06 1.9804661e-25)
(-0.0081020386 2.8955212e-06 1.7518113e-25)
(-0.0083907639 2.7460646e-06 -1.1377777e-24)
(-0.0086600648 2.613299e-06 7.2107021e-25)
(-0.008918545 2.4835798e-06 -3.2204379e-25)
(-0.0091611555 2.3646632e-06 1.5103757e-25)
(-0.0093930977 2.2449406e-06 -3.2474009e-25)
(-0.0096112667 2.1312668e-06 1.5762109e-25)
(-0.009818782 2.0168273e-06 1.1165259e-25)
(-0.010013679 1.9074035e-06 5.9145413e-26)
(-0.010197717 1.7958371e-06 1.6395615e-28)
(-0.010369648 1.685674e-06 -6.5226502e-26)
(-0.010530289 1.5733171e-06 -1.3692344e-25)
(-0.010678906 1.4609258e-06 2.0453798e-25)
(-0.010815962 1.3472439e-06 7.1062934e-26)
(-0.010941156 1.2333087e-06 6.6997296e-25)
(-0.011054555 1.1180772e-06 -1.0823302e-24)
(-0.011156169 1.0011933e-06 8.8900921e-25)
(-0.011245997 8.8467415e-07 -2.2460634e-25)
(-0.011324117 7.6771567e-07 -1.0524376e-24)
(-0.011390639 6.5414862e-07 -5.1230509e-25)
(-0.011445666 5.3988337e-07 4.3380427e-25)
(-0.011489394 4.2930983e-07 2.8914977e-25)
(-0.011521962 3.172428e-07 9.6313891e-25)
(-0.011543651 2.0788416e-07 8.2755685e-25)
(-0.011554485 9.7283023e-08 -2.4566505e-24)
(-0.011555073 -1.0271732e-08 8.2740698e-25)
(-0.011544698 -1.1069103e-07 5.5297091e-25)
(-0.011526326 -2.0120161e-07 1.5265447e-24)
(-0.011498921 -2.8848213e-07 -3.3093247e-24)
(-0.011463874 -3.6557598e-07 1.6166197e-24)
(-0.011421644 -4.336475e-07 7.5119972e-25)
(-0.011373437 -4.9368405e-07 1.4039657e-24)
(-0.011319553 -5.5349058e-07 -3.5922853e-24)
(-0.011259332 -6.2489537e-07 8.0587559e-25)
(-0.011191917 -7.2968529e-07 2.3268993e-25)
(-0.011109747 -8.3285052e-07 3.01924e-24)
(-0.01102086 -8.9536825e-07 -2.5819166e-24)
(-0.010924923 -9.5504189e-07 1.0545528e-24)
(-0.010823493 -1.0046913e-06 -6.6787197e-27)
(-0.010716873 -1.0520831e-06 -3.3829849e-24)
(-0.010605809 -1.0889955e-06 6.4331e-25)
(-0.010490513 -1.1240171e-06 7.5762154e-25)
(-0.010371457 -1.1562558e-06 4.7691113e-25)
(-0.010248774 -1.1851421e-06 1.2964231e-24)
(-0.01012298 -1.2141654e-06 1.2077836e-25)
(-0.0099943943 -1.2355263e-06 -7.2009036e-25)
(-0.0098634429 -1.25637e-06 4.1764164e-25)
(-0.0097303674 -1.2725007e-06 -6.0479434e-25)
(-0.0095954226 -1.2909242e-06 2.5921186e-25)
(-0.0094589919 -1.3029223e-06 -4.0321973e-25)
(-0.0093213653 -1.3125986e-06 8.9954831e-25)
(-0.0091828846 -1.3186682e-06 -1.6739489e-24)
(-0.0090436568 -1.3247014e-06 -3.6587623e-25)
(-0.0089040184 -1.3278739e-06 6.6031091e-25)
(-0.0087640921 -1.3287298e-06 1.2544108e-24)
(-0.0086242225 -1.3281437e-06 -1.6764283e-25)
(-0.0084844622 -1.3251041e-06 -3.660774e-25)
(-0.008345066 -1.3223146e-06 -6.8495235e-25)
(-0.0082060869 -1.3173789e-06 6.3114253e-25)
(-0.0080677597 -1.312139e-06 -1.5341271e-25)
(-0.0079301591 -1.3047131e-06 -1.2329867e-26)
(-0.0077933972 -1.2983715e-06 -7.7866137e-26)
(-0.0076574808 -1.2923834e-06 1.0596594e-26)
(-0.0075224688 -1.2859069e-06 3.6913817e-25)
(-0.0073884185 -1.2793272e-06 -6.7005737e-25)
(-0.0072554001 -1.2715804e-06 -1.0971632e-25)
(-0.0071234559 -1.2644981e-06 -4.5820756e-25)
(-0.006992655 -1.2554547e-06 1.3517361e-24)
(-0.0068630586 -1.2465002e-06 1.1387704e-24)
(-0.006734726 -1.2364797e-06 -2.1164263e-25)
(-0.0066076954 -1.2259593e-06 -2.8511363e-24)
(-0.0064820439 -1.2146882e-06 -1.6893736e-24)
(-0.0063578551 -1.2027342e-06 2.483418e-24)
(-0.0062351626 -1.1916852e-06 3.8268403e-24)
(-0.0061139206 -1.1826558e-06 -6.4638865e-24)
(-0.0059940095 -1.174493e-06 1.5987876e-24)
(-0.0058753567 -1.1676579e-06 -1.4049915e-25)
(-0.005758022 -1.1561934e-06 3.1805673e-24)
(-0.0056420857 -1.1467736e-06 -2.3288667e-24)
(-0.005527529 -1.1372265e-06 1.1450983e-24)
(-0.0054142347 -1.1313189e-06 1.6024953e-24)
(-0.0053022208 -1.1207512e-06 3.510862e-24)
(-0.0051914945 -1.1117452e-06 -8.8014986e-24)
(-0.0050820974 -1.1022529e-06 3.5277809e-24)
(-0.0049738837 -1.0952017e-06 -1.3107189e-25)
(-0.0048668804 -1.0858673e-06 -5.349093e-24)
(-0.004761055 -1.0754262e-06 -1.8315275e-25)
(-0.0046564266 -1.0664666e-06 9.5973974e-24)
(-0.0045530942 -1.0548051e-06 2.9040449e-24)
(-0.0044510588 -1.0432362e-06 -6.8106308e-24)
(-0.0043502949 -1.0321577e-06 8.5540595e-24)
(-0.0042509259 -1.0245109e-06 1.1539139e-24)
(-0.0041527136 -1.0218158e-06 -7.5806934e-24)
(-0.0040556515 -1.0171232e-06 1.3435986e-23)
(-0.0039594574 -1.0147602e-06 -9.9017845e-24)
(-0.0038643296 -1.0058279e-06 1.3156275e-24)
(-0.0037701435 -9.96488e-07 1.8327368e-24)
(-0.0036771585 -9.8618628e-07 -9.3773007e-24)
(-0.0035850501 -9.7702408e-07 1.0455815e-23)
(-0.0034941637 -9.6268308e-07 2.0448201e-24)
(-0.0034041657 -9.4862484e-07 -5.321924e-24)
(-0.0033155809 -9.3370417e-07 -5.3928865e-24)
(-0.0032278898 -9.1849354e-07 -1.0421449e-23)
(-0.0031418378 -9.0450675e-07 1.8974561e-23)
(-0.0030566675 -8.9294641e-07 1.3194746e-23)
(-0.0029732214 -8.8558364e-07 -2.8579141e-23)
(-0.0028903454 -8.7502339e-07 2.8455376e-23)
(-0.0028092997 -8.6281465e-07 -8.4813896e-24)
(-0.0027287651 -8.4851781e-07 -1.318595e-23)
(-0.0026504209 -8.3826616e-07 -1.0859111e-23)
(-0.0025722993 -8.2516172e-07 -4.1708188e-25)
(-0.002496698 -8.0696055e-07 2.4573076e-23)
(-0.0024211672 -7.8727232e-07 -1.8188169e-23)
(-0.0023489095 -7.6722187e-07 1.1443242e-23)
(-0.0022764341 -7.5061982e-07 -1.8246448e-23)
(-0.0022079822 -7.2670211e-07 2.0312538e-23)
(-0.0021388554 -7.0624137e-07 -1.1213443e-23)
(-0.0020748619 -6.7686214e-07 6.6943135e-24)
(-0.0020096088 -6.5276872e-07 2.2485741e-24)
(-0.0019509468 -6.1466758e-07 -1.1383078e-23)
(-0.0018903323 -5.8434169e-07 1.1842666e-23)
(-0.0018383658 -5.4061276e-07 -1.6520601e-25)
(-0.0017835559 -5.1113516e-07 4.5958925e-24)
(-0.0017399297 -4.629693e-07 -2.1473107e-23)
(-0.0016921199 -4.2764074e-07 1.4517279e-23)
(-0.0016587618 -3.6046487e-07 4.643877e-24)
(-0.0016197563 -3.1313804e-07 -2.1747764e-23)
(-0.001599453 -2.2961437e-07 2.142578e-23)
(-0.0015717186 -1.7473623e-07 1.4828321e-23)
(-0.0015674424 -6.9132672e-08 -2.1946719e-23)
(-0.0015534805 -1.0856504e-08 1.7282661e-23)
(-0.0015667417 7.979131e-08 -2.4507412e-23)
(-0.0015608417 8.1667571e-09 -2.6002016e-23)
(-0.0015647938 -1.7967998e-05 3.6883751e-20)
(-0.0015682862 -8.0699157e-05 1.6044994e-20)
(-0.0015735479 -0.00014547154 7.752994e-21)
(-0.0015878546 -0.00021163592 5.1414551e-19)
(-0.0015713153 -0.00027295087 2.5668148e-19)
(-0.0015595861 -0.00033338073 1.1804262e-18)
(-0.0015170006 -0.00038426341 1.0428685e-18)
(-0.0014745908 -0.00043114061 -2.7101915e-19)
(-0.0014049333 -0.00046486893 -3.3709309e-19)
(-0.0013308344 -0.00049088396 7.4419764e-20)
(-0.0012322765 -0.00050058548 -2.4086979e-19)
(-0.0011249006 -0.00049842265 1.9319457e-19)
(-0.00099451443 -0.00047673381 -2.1510455e-19)
(-0.00085151265 -0.0004387114 -9.5576539e-20)
(-0.00068503054 -0.00037723532 -6.9943609e-19)
(-0.00050122832 -0.00029370041 1.6387016e-18)
(-0.00028731779 -0.00017841207 6.2224135e-19)
(-5.3182491e-05 -3.6728497e-05 4.0425112e-20)
(0.00020880126 0.00013599995 -4.2779063e-19)
(0.00049214199 0.00033505129 -5.0278996e-19)
(0.00080341655 0.0005641981 1.0690851e-18)
(0.0011371905 0.00081866962 -1.9365429e-18)
(0.0014982722 0.0011006349 4.3201085e-19)
(0.001881191 0.0014045565 -2.1436094e-19)
(0.0022887411 0.001730516 3.5138774e-19)
(0.0027145956 0.0020712825 -8.0132114e-19)
(0.003157917 0.002423647 -2.2803746e-19)
(0.0036042798 0.00277448 -5.1720108e-19)
(0.0040346089 0.0031136237 3.2926685e-19)
(0.0044589118 0.0034530141 -7.1429423e-19)
(0.0048805152 0.0037964569 -3.9102461e-19)
(0.005307034 0.0041513627 -7.0145221e-19)
(0.0057392329 0.0045187247 3.5037645e-20)
(0.0061862848 0.0049078716 8.4629439e-19)
(0.0066480741 0.0053180055 -3.2789212e-19)
(0.0071384232 0.0057627181 3.8422557e-19)
(0.0076550695 0.0062407696 -2.4647982e-19)
(0.0082206559 0.0067706604 -1.2095128e-18)
(0.0088322941 0.007353759 2.2650978e-19)
(0.0095313966 0.0080236006 1.379138e-19)
(0.010351185 0.0088063499 1.1617909e-18)
(0.011352319 0.0097169408 -2.0199341e-19)
(0.012506493 0.010698515 2.0575988e-19)
(0.013917762 0.011828167 -3.4037274e-20)
(0.01549394 0.012999764 -1.1813535e-19)
(0.01744309 0.014361198 -3.1092114e-19)
(0.019605113 0.015716115 4.2842876e-20)
(0.022364123 0.017300165 -5.6502649e-20)
(0.025381721 0.018729821 6.9634946e-20)
(0.029471533 0.020469081 1.4016158e-20)
(0.033805913 0.021699772 -9.7635992e-20)
(0.039339472 0.022815949 1.7807929e-19)
(0.044437617 0.022552579 7.5689253e-20)
(0.049849303 0.021174232 4.2984554e-19)
(0.050757073 0.01700461 -2.2816457e-19)
(0.048832312 0.012323297 2.3189718e-19)
(0.042514662 0.0076404431 -1.0964368e-19)
(0.03701732 0.0043904759 -3.2004847e-19)
(0.028090126 0.001948518 -8.172775e-20)
(0.023952533 0.00077492656 7.6986917e-21)
(0.015817286 0.00012772756 2.6485295e-20)
(0.01638415 -7.6033392e-05 4.9791921e-21)
(0.0095969001 -4.221006e-05 5.9387402e-21)
(0.028505298 9.5004235e-05 1.1875137e-21)
(0.023189638 8.5362035e-05 -1.092252e-21)
(0.034398203 -0.00023837363 -3.803764e-22)
(0.028290144 -0.0008524931 -1.5659231e-20)
(0.030431051 -0.0020103982 4.6407835e-20)
(0.019055919 -0.0021334976 -3.5827486e-20)
(0.012814769 -0.0021785398 2.2278736e-20)
(-0.0010054566 0.00037125681 -8.8379702e-20)
(-0.0065836301 0.0022612087 4.2889234e-20)
(-0.01053651 0.0044939355 1.0032727e-21)
(-0.0082364557 0.00416801 1.0708178e-20)
(-0.0073512918 0.0042529805 -1.2741384e-20)
(-0.0053416648 0.0034134407 -5.4873097e-20)
(-0.0046840053 0.0032451629 1.6176267e-20)
(-0.0038290044 0.0028192353 2.439129e-20)
(-0.0036220878 0.0027995999 -2.6781202e-21)
(-0.0031705495 0.0025415457 2.3256291e-21)
(-0.0030654423 0.0025289563 4.3504997e-21)
(-0.0027872753 0.0023451203 1.1779334e-20)
(-0.0026733695 0.0022793804 -5.8331682e-21)
(-0.0024628465 0.002112375 -5.3061433e-21)
(-0.0023464595 0.0020124504 -7.8875805e-22)
(-0.0021889985 0.0018645337 1.6763375e-21)
(-0.0021146104 0.0017809119 -2.7016996e-21)
(-0.0020347854 0.0016937048 5.5815863e-23)
(-0.0020002949 0.0016469126 -5.0930493e-22)
(-0.0019693119 0.0016048872 2.4663436e-22)
(-0.0019745122 0.0015941416 7.0961422e-23)
(-0.0019904154 0.0015931467 1.9937774e-24)
(-0.0020404497 0.0016206959 8.9473687e-23)
(-0.0021069324 0.0016619755 -6.2241758e-23)
(-0.0022063187 0.0017300883 -9.1903167e-23)
(-0.0023256461 0.0018143633 -5.1669795e-22)
(-0.0024739243 0.0019219939 2.5792566e-23)
(-0.0026394581 0.002043776 -1.6826202e-21)
(-0.0028205664 0.0021786917 -1.2984088e-21)
(-0.002996685 0.0023080696 -2.6001955e-22)
(-0.0031710582 0.0024285278 6.8005439e-23)
(-0.0033452434 0.002539383 8.3002908e-23)
(-0.0035143479 0.0026357516 -1.4268685e-22)
(-0.0036785005 0.002714485 -7.6306419e-24)
(-0.0038366114 0.0027758938 3.666088e-21)
(-0.003984446 0.0028182651 2.3293142e-21)
(-0.0041156048 0.0028310209 1.2953173e-23)
(-0.0042269662 0.0028145391 -1.0318133e-20)
(-0.0043079092 0.0027604402 3.8953215e-21)
(-0.0043673558 0.0026758971 5.2445106e-21)
(-0.0043992336 0.0025589612 4.6647837e-21)
(-0.0044346535 0.0024299126 7.5996638e-22)
(-0.0044618903 0.0022896784 -2.0206844e-21)
(-0.0044774174 0.0021389609 7.3657844e-21)
(-0.0044600607 0.0019697368 1.8961886e-21)
(-0.004427855 0.0017929118 8.3015666e-22)
(-0.0043407413 0.0015954854 6.90969e-21)
(-0.0042480212 0.0014001881 -3.5415187e-21)
(-0.0040798204 0.0011875036 -3.1830738e-21)
(-0.0039358022 0.00099181994 5.6376679e-22)
(-0.0036949145 0.00078504965 -1.1830067e-22)
(-0.0035564786 0.00061372003 -7.7829327e-22)
(-0.0033053505 0.00043803789 -3.7643748e-21)
(-0.0033416275 0.00030874226 -3.932072e-22)
(-0.0032812347 0.00017438189 2.6995837e-22)
(-0.0040555934 6.5842362e-05 -7.1813887e-22)
(-0.0055165343 2.0764354e-05 9.4776549e-25)
(-0.0065465963 1.7583623e-05 -2.1123238e-26)
(-0.0075969949 1.610726e-05 -2.3941019e-25)
(-0.0084702687 1.4710082e-05 6.4167619e-25)
(-0.0093362122 1.3541322e-05 -2.7017373e-25)
(-0.010082037 1.2461402e-05 -3.0034753e-25)
(-0.010808405 1.1546881e-05 6.9584154e-25)
(-0.011452466 1.0727524e-05 -3.189455e-25)
(-0.01207472 1.0019712e-05 -3.2319373e-25)
(-0.012639004 9.3881714e-06 -3.1512888e-25)
(-0.013182367 8.8317945e-06 2.3478295e-25)
(-0.01368291 8.3310558e-06 1.0151144e-25)
(-0.014164559 7.8851405e-06 1.9964411e-25)
(-0.014613828 7.4664589e-06 -2.8163648e-25)
(-0.015044602 7.0789161e-06 6.5198989e-26)
(-0.015448826 6.7063943e-06 -4.9279386e-25)
(-0.015834911 6.3518677e-06 3.8852987e-25)
(-0.0161979 6.0044284e-06 -1.5531193e-25)
(-0.016542825 5.6677184e-06 -2.3604421e-25)
(-0.016866541 5.3325524e-06 2.1492639e-25)
(-0.01717189 5.003492e-06 2.9520245e-26)
(-0.017456886 4.6697462e-06 1.3178e-25)
(-0.017722851 4.3377819e-06 -8.0729945e-26)
(-0.017968627 4.0004986e-06 1.7988611e-25)
(-0.018195015 3.6668446e-06 -8.5521228e-26)
(-0.018401433 3.3279773e-06 -6.2561171e-26)
(-0.018588052 2.991244e-06 3.4872999e-25)
(-0.018754947 2.6515203e-06 4.7822192e-25)
(-0.018902108 2.314409e-06 -1.6820614e-24)
(-0.019029674 1.9800474e-06 1.3776359e-24)
(-0.019137831 1.6497994e-06 -3.8684887e-25)
(-0.019226778 1.3237426e-06 -1.4611127e-24)
(-0.019296865 1.0018275e-06 6.1091141e-25)
(-0.019348348 6.8658506e-07 2.2649722e-24)
(-0.019381721 3.7241402e-07 -3.907817e-25)
(-0.019397064 6.7760445e-08 -6.5771257e-25)
(-0.019395315 -2.3980629e-07 -5.9468016e-25)
(-0.019375097 -5.1486506e-07 -6.9278427e-25)
(-0.019341806 -7.6233933e-07 1.4447437e-24)
(-0.019293513 -1.0038373e-06 -7.4185343e-25)
(-0.019232497 -1.2153225e-06 -1.0885072e-24)
(-0.019159555 -1.4063365e-06 1.7354864e-24)
(-0.019076696 -1.5685181e-06 -9.0773302e-25)
(-0.018984489 -1.7372515e-06 -1.0104436e-24)
(-0.018882068 -1.9295732e-06 9.9093568e-25)
(-0.018767868 -2.234608e-06 1.7361607e-24)
(-0.018628536 -2.5347396e-06 2.2852097e-25)
(-0.018477934 -2.7203764e-06 -1.4776006e-24)
(-0.018315666 -2.892995e-06 -1.2451605e-24)
(-0.018144333 -3.035137e-06 4.1048065e-24)
(-0.017964447 -3.1694349e-06 -6.5084692e-24)
(-0.017777176 -3.2809624e-06 5.5375749e-24)
(-0.017582837 -3.3843235e-06 -4.7408571e-24)
(-0.017382292 -3.481084e-06 1.8716504e-24)
(-0.017175791 -3.5658913e-06 8.8703108e-25)
(-0.016964228 -3.648926e-06 2.2825148e-25)
(-0.016748074 -3.7097121e-06 -1.6517991e-24)