/*--------------------------------*- C++ -*----------------------------------*\
| =========                 |                                                 |
| \\      /  F ield         | OpenFOAM: The Open Source CFD Toolbox           |
|  \\    /   O peration     | Version:  2.4.0                                 |
|   \\  /    A nd           | Web:      www.OpenFOAM.org                      |
|    \\/     M anipulation  |                                                 |
\*---------------------------------------------------------------------------*/
FoamFile
{
    version     2.0;
    format      ascii;
    class       volScalarField;
    location    "330";
    object      nut;
}
// * * * * * * * * * * * * * * * * * * * * * * * * * * * * * * * * * * * * * //

dimensions      [0 2 -1 0 0 0 0];

internalField   nonuniform List<scalar> 
19650
(
0.014959117
0.014998706
0.015037602
0.015075821
0.015113356
0.015150197
0.015186332
0.015221746
0.015256426
0.015290358
0.015323527
0.015355919
0.015387519
0.015418311
0.015448281
0.01547741
0.015505682
0.015533078
0.015559582
0.015585175
0.015609842
0.015633566
0.015656332
0.015678124
0.015698927
0.015718726
0.015737505
0.015755252
0.015771952
0.015787594
0.015802168
0.015815663
0.015828072
0.01583939
0.01584962
0.015858792
0.015866927
0.015874425
0.015882167
0.015887915
0.015892811
0.015897359
0.015899024
0.015901959
0.015904725
0.015899662
0.015888447
0.01587657
0.015861486
0.01584203
0.015819218
0.015792964
0.015763543
0.015731322
0.015696798
0.015660617
0.01562345
0.015585961
0.015548893
0.015512794
0.015478684
0.015447793
0.015421189
0.015399903
0.015384952
0.015223801
0.015255576
0.015286715
0.015317188
0.015346979
0.015376074
0.015404455
0.015432109
0.015459021
0.015485178
0.015510567
0.015535174
0.015558988
0.015581995
0.015604183
0.01562554
0.01564605
0.015665702
0.015684482
0.015702379
0.015719381
0.015735477
0.015750656
0.015764911
0.015778233
0.015790613
0.015802045
0.015812523
0.015822042
0.015830601
0.015838198
0.015844836
0.015850517
0.015855252
0.015859075
0.015862018
0.01586428
0.015866752
0.015868562
0.015868471
0.01586952
0.01586695
0.015864044
0.015862861
0.015861024
0.015850482
0.0158353
0.015821226
0.015804342
0.01578501
0.015763589
0.015739885
0.015714125
0.015686618
0.015657819
0.015628261
0.015598522
0.015569262
0.01554116
0.01551472
0.015490938
0.015470994
0.015455911
0.015446663
0.015444215
0.015575225
0.015598526
0.015621153
0.01564309
0.015664326
0.015684847
0.01570464
0.015723692
0.01574199
0.015759524
0.015776282
0.015792254
0.015807429
0.015821799
0.015835354
0.015848085
0.015859983
0.015871039
0.015881245
0.015890594
0.015899079
0.015906695
0.015913439
0.015919305
0.015924294
0.015928403
0.015931633
0.015933987
0.015935468
0.015936082
0.015935838
0.015934746
0.015932821
0.015930095
0.015926617
0.015922488
0.015918432
0.015914681
0.015908615
0.015903785
0.015896472
0.01588777
0.015879567
0.015872935
0.015865465
0.015848532
0.015828176
0.015810031
0.015790747
0.015770723
0.015749679
0.015727561
0.015704555
0.015680909
0.015657055
0.015633281
0.015610283
0.015588602
0.015568891
0.015551614
0.015537736
0.015528386
0.015524537
0.015527085
0.015536932
0.016008979
0.016023375
0.016037047
0.016049988
0.016062191
0.016073647
0.016084343
0.01609427
0.016103423
0.016111794
0.016119373
0.016126154
0.01613213
0.016137297
0.016141649
0.016145181
0.016147887
0.016149765
0.01615081
0.016151021
0.016150395
0.016148933
0.016146637
0.016143508
0.016139553
0.016134775
0.016129184
0.016122787
0.016115598
0.016107631
0.016098899
0.016089421
0.016079221
0.016068338
0.016056818
0.016045196
0.016034198
0.016021368
0.016009227
0.015996158
0.015980993
0.015965852
0.0159512
0.015938199
0.015924254
0.015899967
0.015873565
0.015849995
0.01582749
0.015805526
0.015783789
0.015762223
0.015740961
0.015720228
0.015700341
0.015681508
0.015664464
0.015649679
0.015637764
0.015629143
0.015624742
0.015625616
0.015632686
0.015646726
0.015668544
0.016515244
0.016520566
0.016525114
0.016528895
0.016531908
0.016534143
0.016535586
0.016536232
0.01653608
0.016535125
0.016533358
0.016530774
0.016527371
0.016523147
0.016518101
0.016512231
0.016505535
0.016498014
0.01648967
0.016480506
0.016470523
0.016459727
0.016448126
0.016435728
0.016422544
0.016408587
0.01639387
0.016378412
0.01636223
0.016345348
0.016327785
0.016309566
0.016290721
0.016271277
0.016251555
0.016232392
0.016212381
0.016191874
0.016172046
0.016149515
0.016126807
0.016104313
0.01608226
0.016062143
0.016041176
0.016008799
0.015974369
0.015945151
0.015919011
0.015894181
0.015870794
0.015848835
0.015828412
0.015809674
0.015792823
0.015778325
0.015766623
0.015758204
0.015753632
0.01575327
0.015757975
0.015768697
0.015786237
0.015811254
0.015844404
0.017079634
0.017076008
0.017071624
0.017066478
0.017060559
0.017053839
0.017046296
0.017037928
0.017028738
0.01701872
0.017007861
0.016996156
0.016983608
0.01697022
0.016955992
0.01694092
0.016925009
0.016908264
0.016890691
0.016872295
0.016853083
0.016833065
0.016812257
0.016790673
0.016768328
0.016745241
0.016721436
0.016696935
0.016671768
0.016645963
0.016619546
0.016592533
0.016564956
0.016536971
0.016509323
0.016481658
0.016452731
0.016425073
0.016394648
0.016363837
0.016333285
0.016302703
0.016272865
0.016245212
0.016215289
0.016175039
0.016134396
0.0160992
0.016068448
0.016040234
0.016014653
0.015991754
0.015971697
0.015954342
0.015940202
0.015929635
0.015922967
0.01592061
0.015923041
0.015930515
0.015943772
0.01596362
0.015990703
0.016025527
0.016068593
0.017720659
0.01771263
0.017703844
0.017694249
0.01768348
0.01767185
0.017659381
0.017646115
0.017632049
0.017617132
0.017601332
0.017584664
0.017567144
0.017548753
0.017529466
0.017509279
0.017488206
0.017466256
0.017443424
0.017419708
0.017395118
0.017369667
0.017343363
0.017316213
0.017288226
0.017259423
0.017229823
0.017199447
0.017168315
0.017136455
0.017103897
0.017070675
0.017036825
0.017002383
0.016967394
0.016931904
0.016895972
0.016860075
0.016824676
0.016787694
0.016751744
0.016713984
0.016675232
0.016636765
0.01659833
0.016560009
0.016522741
0.016488001
0.016449978
0.01640159
0.016354418
0.016313421
0.016278239
0.016246856
0.016219313
0.016195727
0.016176009
0.016160422
0.016149147
0.016142465
0.016140601
0.016143836
0.016152509
0.016166723
0.016187073
0.016214244
0.016248695
0.016290844
0.016341064
0.018403374
0.018392888
0.018381179
0.01836778
0.018353179
0.018337849
0.018321788
0.018304665
0.01828638
0.018267142
0.018247091
0.018226167
0.018204242
0.018181279
0.018157351
0.018132509
0.018106721
0.01807994
0.018052176
0.018023472
0.017993838
0.017963256
0.01793172
0.017899252
0.017865878
0.017831607
0.017796444
0.017760405
0.017723521
0.01768582
0.017647328
0.017608068
0.017568076
0.017527394
0.017486066
0.017444137
0.017401653
0.017358669
0.017315247
0.01727171
0.017228731
0.017184914
0.017141237
0.017097048
0.0170512
0.017005511
0.01696005
0.016914617
0.01686949
0.016825852
0.016784986
0.016737161
0.016683838
0.016631284
0.01658554
0.01654704
0.016513828
0.016485787
0.0164629
0.016444469
0.016431304
0.016423148
0.016420123
0.016422308
0.016429841
0.016442934
0.016461566
0.016486249
0.016517517
0.016555882
0.016601707
0.016655346
0.019030749
0.019022136
0.019011696
0.018999284
0.018984606
0.01896789
0.018949654
0.018929881
0.018908648
0.018885515
0.018861065
0.018835741
0.01880938
0.018781738
0.018752875
0.018723031
0.018692258
0.018660403
0.018627362
0.018593206
0.018558046
0.018521902
0.018484732
0.01844653
0.01840735
0.018367237
0.018326189
0.018284197
0.018241286
0.018197506
0.018152901
0.018107492
0.018061307
0.018014391
0.017966806
0.017918605
0.017869842
0.017820573
0.017770862
0.017720864
0.017671151
0.017621636
0.017571103
0.017521666
0.01747013
0.017418482
0.017367217
0.017316023
0.017264991
0.01721454
0.0171654
0.017114888
0.017062193
0.017003667
0.016946193
0.016895829
0.016853613
0.016817774
0.016788119
0.01676367
0.016745129
0.016732026
0.016724182
0.016721647
0.016724405
0.016732527
0.016746177
0.016765307
0.016790447
0.016822062
0.016860803
0.016907083
0.01696134
0.019471621
0.019498782
0.01952618
0.019528121
0.019515877
0.019501121
0.019484526
0.019465894
0.019444745
0.01942097
0.019395029
0.019367275
0.019337763
0.019306344
0.019273056
0.019238654
0.019203271
0.019166548
0.019128375
0.019089077
0.019048846
0.019007595
0.018965175
0.018921595
0.018876996
0.018831471
0.018784994
0.018737528
0.018689125
0.018639879
0.018589839
0.018539008
0.018487403
0.018435091
0.018382155
0.018328656
0.018274643
0.018220173
0.018165327
0.01811048
0.018056058
0.018000634
0.01794622
0.017890117
0.017833678
0.017777694
0.01772191
0.017666259
0.017610856
0.017555898
0.017502048
0.017450234
0.017397186
0.017333993
0.017270133
0.017212445
0.017163172
0.01712049
0.017083494
0.017053107
0.017028833
0.017010351
0.016997547
0.016990471
0.016989128
0.016993636
0.0170042
0.01702077
0.017043978
0.017074331
0.017112523
0.017158984
0.017214153
0.019798138
0.01981962
0.019841377
0.019863423
0.019885764
0.019908402
0.019931331
0.019954531
0.019937481
0.01991519
0.019891003
0.019864557
0.019835521
0.019803503
0.019768783
0.019732067
0.019693347
0.019652856
0.019610039
0.019565775
0.019520631
0.019474334
0.019426593
0.019377584
0.019327673
0.019276945
0.019225203
0.019172347
0.019118508
0.019063882
0.01900853
0.01895241
0.018895524
0.018837981
0.018779903
0.018721341
0.018662312
0.01860286
0.018543157
0.018483641
0.01842405
0.018363711
0.018303528
0.018242017
0.018180666
0.01811973
0.018059045
0.017998676
0.017938655
0.017879137
0.017820731
0.01776459
0.01770737
0.017642832
0.017577302
0.017515634
0.0174618
0.017414038
0.017370501
0.01733311
0.017302022
0.017277181
0.017258639
0.017246552
0.017241018
0.017242238
0.017250553
0.017265896
0.017288631
0.017319503
0.0173592
0.01740801
0.01746628
0.02014311
0.020159312
0.02017581
0.020192609
0.020209712
0.020227124
0.020244846
0.020262878
0.020281233
0.020299914
0.020318917
0.02033823
0.020337339
0.020307845
0.020274868
0.020239763
0.020202102
0.020161206
0.020117055
0.020070353
0.020021553
0.019970786
0.019917911
0.019863081
0.01980729
0.019750671
0.019692759
0.019633449
0.019573211
0.019512375
0.019450885
0.019388535
0.019325315
0.019261452
0.019197151
0.019132445
0.019067286
0.019001707
0.018936045
0.018870643
0.018804342
0.018738786
0.018671438
0.018603928
0.018536776
0.018469809
0.018403124
0.018336894
0.01827119
0.018206127
0.018142323
0.018081083
0.018019247
0.017950679
0.017881651
0.017816129
0.017758998
0.01770842
0.017663281
0.017623993
0.017590893
0.017564154
0.017543984
0.017530696
0.017524495
0.017525629
0.017534343
0.017550867
0.01757553
0.017608848
0.017651525
0.017703983
0.017766456
0.02048663
0.020498015
0.020509705
0.020521705
0.020534019
0.020546651
0.020559604
0.020572879
0.020586479
0.020600409
0.02061467
0.02062926
0.020644184
0.020659451
0.02067506
0.020691008
0.020707273
0.020674215
0.020633126
0.020589804
0.020543566
0.020494007
0.020440751
0.020384272
0.020325514
0.020264557
0.020201767
0.020136572
0.020069971
0.020002816
0.019934839
0.019865594
0.019795223
0.019724328
0.019653169
0.019581611
0.019509465
0.01943683
0.019364157
0.019291594
0.01921824
0.01914503
0.01907064
0.018996379
0.018922482
0.01884884
0.018775523
0.018702654
0.018630409
0.018558923
0.018488849
0.018421661
0.018354319
0.018280434
0.018206568
0.018136488
0.01807571
0.018022395
0.017975503
0.017935185
0.017901625
0.017874919
0.017855232
0.01784286
0.017838003
0.017840907
0.017851798
0.017870825
0.017898501
0.017935264
0.017981748
0.018038405
0.018105469
0.020804795
0.020811866
0.020819248
0.020826948
0.02083497
0.020843319
0.020852
0.020861015
0.020870367
0.020880059
0.020890093
0.020900468
0.020911185
0.020922246
0.020933654
0.020945407
0.020957501
0.020969943
0.020982738
0.020995885
0.021009375
0.020999514
0.020952825
0.020901973
0.020848328
0.020791406
0.020730532
0.020665701
0.020597802
0.0205277
0.020455443
0.020381344
0.020305046
0.020227868
0.020150396
0.020072191
0.019992901
0.019912951
0.01983312
0.019753047
0.019673069
0.019591655
0.019509867
0.019428327
0.019347158
0.019266371
0.019185933
0.019105926
0.019026555
0.018948022
0.01887101
0.018797118
0.018723398
0.018643294
0.018563704
0.018488284
0.018423174
0.018366531
0.018317181
0.01827523
0.018240777
0.018213846
0.018194553
0.018183147
0.018179797
0.018184737
0.018198236
0.018220269
0.018251338
0.018291953
0.018342764
0.018404105
0.018476176
0.021074536
0.021077543
0.021080867
0.021084511
0.021088478
0.021092773
0.0210974
0.021102365
0.021107671
0.021113322
0.021119323
0.021125677
0.021132384
0.021139448
0.021146869
0.021154648
0.021162786
0.021171279
0.021180127
0.021189331
0.021198894
0.02120881
0.021219077
0.021229697
0.021240679
0.021252021
0.021263707
0.021224881
0.021168681
0.02110933
0.021046394
0.020979684
0.020908651
0.020833656
0.020755784
0.020675754
0.020593739
0.020509894
0.020424341
0.020338516
0.020252002
0.020165445
0.020076921
0.019987978
0.019899437
0.019811402
0.019723728
0.019636212
0.019548986
0.019462419
0.019376798
0.019292759
0.019211934
0.019131453
0.019044618
0.018958764
0.018877493
0.018807544
0.018747011
0.018694603
0.01865041
0.018614489
0.018586816
0.018567458
0.018556629
0.018554464
0.018561182
0.018577025
0.018601888
0.018636213
0.018680522
0.018735533
0.018801621
0.018878976
0.021294007
0.021293632
0.021293544
0.021293752
0.021294265
0.021295092
0.02129624
0.021297716
0.021299527
0.02130168
0.021304181
0.021307034
0.021310245
0.021313819
0.021317758
0.021322066
0.021326746
0.021331799
0.021337224
0.021343024
0.021349197
0.021355742
0.021362658
0.021369941
0.02137759
0.021385606
0.021393991
0.021402735
0.021411828
0.021421281
0.021431102
0.021441289
0.021445767
0.021387873
0.021324299
0.021257545
0.021186775
0.021111881
0.021032495
0.020949258
0.020863294
0.020774915
0.020684621
0.020592153
0.020498227
0.020404291
0.020310759
0.02021712
0.020123018
0.020028909
0.019935622
0.019843478
0.019752933
0.019665526
0.019578467
0.019484982
0.019392899
0.019305783
0.019230942
0.01916633
0.019110527
0.019063648
0.019025768
0.018996847
0.018976927
0.018966198
0.018964788
0.018972915
0.018990798
0.019018247
0.019055663
0.019103647
0.01916312
0.019234673
0.019318541
0.021458488
0.021455206
0.021452206
0.021449493
0.021447073
0.021444955
0.021443145
0.021441651
0.02144048
0.021439641
0.02143914
0.021438986
0.021439183
0.02143974
0.021440662
0.021441954
0.021443622
0.02144567
0.021448102
0.021450921
0.021454129
0.021457727
0.021461717
0.021466098
0.021470869
0.021476029
0.021481577
0.021487512
0.021493828
0.021500519
0.021507587
0.021515032
0.021522855
0.02153104
0.021539573
0.021548472
0.021557746
0.021567392
0.021560054
0.021496411
0.021427397
0.021354652
0.021277572
0.021195652
0.021109026
0.021018561
0.020925487
0.020830735
0.020734479
0.020637337
0.020539031
0.020441012
0.020343979
0.020248099
0.02015478
0.020061507
0.019961795
0.019864022
0.019771625
0.01969229
0.019623679
0.019564304
0.019514445
0.019474284
0.019443814
0.019423077
0.019412259
0.019411496
0.01942105
0.019441142
0.019471454
0.019512441
0.019565087
0.019630767
0.019710534
0.019804737
0.021585897
0.021579426
0.021573199
0.021567222
0.021561503
0.02155605
0.021550871
0.021545972
0.021541361
0.021537045
0.021533031
0.021529328
0.021525943
0.021522884
0.021520159
0.021517776
0.021515743
0.021514066
0.021512754
0.021511814
0.021511251
0.021511072
0.021511283
0.021511889
0.021512894
0.021514303
0.021516117
0.02151834
0.021520973
0.021524016
0.02152747
0.021531335
0.021535608
0.021540286
0.021545369
0.021550854
0.021556738
0.021563014
0.021569675
0.021576724
0.021584162
0.021591986
0.021600173
0.021608707
0.02161761
0.021626889
0.021636537
0.021626621
0.021558272
0.021484529
0.021407141
0.021325667
0.021240369
0.021150873
0.021057696
0.020961955
0.020864765
0.020766912
0.020671223
0.020574943
0.020471329
0.020369445
0.020272786
0.020189432
0.020116817
0.020053681
0.020000818
0.019958611
0.019926967
0.019905862
0.019895481
0.01989602
0.019907934
0.019931598
0.019966523
0.020013367
0.020073617
0.020149289
0.020241933
0.020352048
0.021637673
0.021629444
0.021621451
0.0216137
0.021606198
0.021598952
0.02159197
0.021585259
0.021578828
0.021572685
0.021566836
0.021561291
0.021556058
0.021551144
0.021546559
0.02154231
0.021538406
0.021534855
0.021531666
0.021528846
0.021526402
0.021524344
0.021522677
0.021521408
0.021520544
0.021520091
0.021520053
0.021520435
0.021521241
0.021522474
0.021524137
0.02152623
0.021528756
0.021531714
0.021535103
0.021538923
0.021543171
0.021547845
0.021552941
0.021558456
0.021564389
0.021570734
0.021577483
0.021584626
0.021592164
0.021600096
0.021608405
0.021617051
0.021626013
0.021635321
0.02164499
0.021655024
0.021656782
0.021588092
0.021513785
0.021436215
0.021354656
0.021270155
0.021184522
0.02109556
0.020996033
0.020894931
0.02079659
0.020710984
0.020636571
0.020572299
0.020518717
0.020476396
0.020445237
0.020425211
0.020416604
0.020419837
0.020435832
0.020465406
0.02050845
0.020566437
0.0206391
0.020727622
0.020832682
0.020953903
0.021632982
0.021623306
0.021613855
0.021604637
0.02159566
0.021586929
0.021578454
0.021570242
0.021562302
0.02155464
0.021547266
0.021540188
0.021533415
0.021526955
0.021520816
0.021515008
0.021509539
0.021504418
0.021499655
0.021495256
0.021491232
0.02148759
0.021484339
0.021481487
0.021479041
0.021477008
0.021475396
0.021474211
0.021473458
0.021473144
0.021473272
0.021473847
0.021474871
0.021476347
0.021478278
0.021480664
0.021483506
0.021486803
0.021490553
0.021494757
0.021499411
0.021504511
0.021510055
0.021516034
0.021522445
0.021529283
0.021536522
0.021544151
0.02155216
0.021560553
0.021569337
0.021578506
0.021588033
0.021597874
0.021608065
0.021618625
0.02162955
0.021640801
0.02160855
0.021540455
0.021460681
0.02137671
0.02129196
0.021217718
0.021152473
0.021095559
0.021048108
0.021010627
0.020983494
0.020967254
0.020962541
0.020969931
0.020990271
0.021024341
0.021071324
0.021130336
0.021201119
0.021282647
0.02137483
0.021479676
0.021575279
0.021564407
0.021553753
0.021543322
0.021533124
0.021523165
0.021513453
0.021503996
0.021494803
0.021485882
0.021477242
0.02146889
0.021460835
0.021453088
0.021445655
0.021438547
0.021431772
0.02142534
0.02141926
0.02141354
0.021408191
0.021403221
0.021398639
0.021394453
0.021390674
0.021387308
0.021384364
0.02138185
0.021379773
0.02137814
0.021376958
0.021376233
0.021375969
0.021376172
0.021376846
0.021377995
0.021379619
0.021381723
0.021384307
0.021387372
0.021390918
0.021394942
0.021399444
0.02140442
0.021409862
0.021415763
0.021422106
0.021428888
0.021436102
0.021443746
0.021451818
0.021460313
0.02146922
0.021478522
0.021488221
0.021498321
0.021508811
0.021519644
0.021530679
0.021541792
0.021552693
0.021562586
0.021570576
0.021576611
0.021564394
0.021520902
0.02148446
0.021456249
0.021436367
0.021425448
0.021423991
0.021432064
0.021450055
0.021479831
0.021499591
0.021478175
0.021454183
0.021427692
0.02139877
0.021367467
0.021467975
0.021456115
0.021444464
0.02143303
0.021421821
0.021410845
0.021400109
0.021389622
0.021379391
0.021369426
0.021359735
0.021350327
0.02134121
0.021332393
0.021323886
0.021315697
0.021307837
0.021300313
0.021293137
0.021286316
0.021279861
0.021273781
0.021268086
0.021262785
0.021257887
0.021253401
0.021249337
0.021245703
0.021242508
0.02123976
0.021237466
0.021235635
0.021234273
0.021233388
0.021232984
0.021233067
0.021233643
0.021234715
0.021236287
0.021238363
0.021240943
0.021244029
0.021247621
0.021251717
0.021256312
0.021261394
0.021266959
0.021273006
0.02127953
0.021286529
0.021294
0.021301938
0.021310337
0.021319188
0.021328488
0.021338229
0.021348397
0.021358949
0.021369783
0.021380746
0.02139137
0.021400513
0.021407262
0.021411558
0.021413342
0.021412585
0.021409295
0.021403462
0.021395062
0.021384066
0.021370442
0.021354153
0.021335164
0.021313428
0.021288875
0.021261404
0.021231098
0.021198068
0.021162409
0.021124196
0.021314377
0.021301699
0.021289224
0.021276961
0.021264916
0.021253099
0.021241516
0.021230177
0.021219089
0.021208262
0.021197702
0.02118742
0.021177425
0.021167725
0.021158329
0.021149246
0.021140487
0.021132061
0.021123976
0.021116243
0.021108871
0.021101871
0.021095251
0.021089022
0.021083193
0.021077774
0.021072774
0.021068204
0.021064072
0.021060387
0.021057159
0.021054396
0.021052106
0.021050297
0.021048978
0.021048153
0.021047832
0.021048019
0.02104872
0.02104994
0.021051683
0.021053952
0.02105675
0.021060077
0.021063927
0.021068288
0.021073168
0.021078566
0.021084481
0.021090911
0.021097853
0.021105305
0.021113263
0.021121722
0.021130676
0.021140117
0.021150028
0.021160368
0.021171047
0.021181894
0.021192279
0.021200734
0.021206326
0.021209009
0.021208761
0.021205568
0.021199429
0.02119034
0.021178297
0.021163292
0.021145308
0.021124331
0.021100339
0.021073305
0.021043194
0.02100998
0.02097374
0.020934601
0.020892679
0.020848077
0.02113122
0.021117674
0.021104319
0.021091163
0.021078215
0.021065481
0.021052971
0.021040691
0.02102865
0.021016856
0.021005319
0.020994046
0.020983047
0.020972329
0.020961903
0.020951777
0.020941961
0.020932464
0.020923295
0.020914464
0.020905981
0.020897856
0.020890098
0.020882717
0.020875723
0.020869127
0.020862938
0.020857166
0.02085182
0.020846912
0.02084245
0.020838444
0.020834904
0.020831839
0.020829257
0.020827167
0.020825579
0.020824499
0.020823935
0.020823894
0.020824383
0.020825408
0.020826974
0.020829085
0.020831742
0.020834942
0.020838672
0.02084295
0.020847776
0.02085315
0.020859074
0.020865546
0.020872564
0.020880128
0.020888234
0.020896877
0.020906051
0.020915737
0.020925897
0.020936443
0.020947191
0.020957357
0.020965165
0.020969672
0.020970843
0.020968675
0.02096317
0.020954335
0.020942179
0.020926713
0.020907944
0.020885876
0.020860511
0.020831849
0.020799879
0.020764598
0.020726016
0.020684236
0.020639414
0.020591687
0.020541181
0.020909313
0.02089503
0.020880929
0.020867017
0.020853302
0.02083979
0.020826491
0.020813413
0.020800562
0.020787948
0.020775578
0.020763462
0.020751607
0.020740023
0.020728718
0.020717701
0.020706982
0.020696569
0.020686473
0.020676701
0.020667265
0.020658172
0.020649435
0.020641061
0.020633062
0.020625447
0.020618226
0.020611409
0.020605007
0.020599029
0.020593486
0.020588388
0.020583744
0.020579566
0.020575862
0.020572642
0.020569916
0.020567692
0.020565981
0.02056479
0.020564127
0.020564002
0.02056442
0.020565389
0.020566913
0.020568995
0.020571629
0.02057482
0.020578576
0.020582903
0.020587803
0.020593279
0.020599332
0.020605963
0.020613171
0.020620957
0.020629316
0.020638243
0.020647722
0.020657717
0.020668139
0.020678792
0.020688748
0.020695942
0.020699424
0.020699169
0.02069519
0.020687503
0.02067613
0.020661093
0.020642419
0.020620133
0.020594255
0.020564806
0.020531804
0.020495259
0.020455188
0.020411628
0.020364715
0.020314635
0.020261547
0.020205604
0.0206513
0.020636391
0.020621655
0.020607099
0.020592732
0.020578559
0.02056459
0.020550832
0.020537292
0.020523979
0.020510902
0.020498067
0.020485485
0.020473162
0.020461108
0.020449332
0.020437842
0.020426648
0.020415758
0.020405181
0.020394928
0.020385008
0.020375429
0.020366203
0.020357338
0.020348844
0.020340732
0.020333012
0.020325694
0.020318787
0.020312302
0.02030625
0.020300641
0.020295484
0.020290791
0.020286571
0.020282835
0.020279591
0.020276851
0.020274624
0.020272919
0.020271746
0.020271113
0.020271029
0.0202715
0.020272535
0.020274134
0.02027629
0.02027902
0.020282332
0.020286231
0.020290721
0.020295807
0.020301493
0.020307781
0.020314673
0.020322169
0.02033027
0.020338969
0.020348255
0.020358092
0.020368393
0.020378951
0.020388703
0.02039531
0.020397822
0.020396224
0.02039054
0.020380802
0.020367047
0.020349313
0.020327644
0.020302081
0.020272661
0.020239424
0.020202405
0.020161631
0.02011714
0.020068991
0.020017351
0.019962433
0.019904423
0.019843495
0.020344348
0.02032907
0.020313966
0.020299043
0.020284308
0.020269768
0.020255431
0.020241306
0.020227399
0.020213719
0.020200274
0.020187071
0.020174121
0.020161429
0.020149006
0.02013686
0.020124999
0.020113433
0.02010217
0.020091219
0.020080591
0.020070293
0.020060336
0.020050728
0.020041481
0.020032603
0.020024104
0.020015995
0.020008285
0.020000985
0.019994105
0.019987655
0.019981645
0.019976086
0.019970989
0.019966363
0.019962218
0.019958566
0.019955416
0.019952778
0.019950663
0.01994908
0.019948038
0.019947547
0.019947615
0.01994825
0.019949453
0.019951215
0.019953563
0.019956503
0.019960042
0.019964186
0.019968942
0.019974312
0.019980304
0.019986918
0.019994159
0.020002027
0.02001052
0.020019627
0.020029315
0.020039499
0.020049961
0.020059512
0.020065562
0.020067159
0.020064298
0.020057017
0.020045361
0.020029382
0.020009136
0.019984681
0.019956077
0.019923376
0.019886638
0.019845914
0.019801248
0.019752697
0.019700339
0.019644368
0.019585025
0.019522521
0.019457051
0.020005721
0.01999015
0.019974753
0.019959538
0.019944512
0.019929684
0.01991506
0.019900649
0.019886457
0.019872493
0.019858765
0.01984528
0.019832048
0.019819075
0.019806371
0.019793944
0.019781803
0.019769956
0.019758412
0.01974718
0.019736269
0.019725688
0.019715447
0.019705554
0.019696021
0.019686855
0.019678066
0.019669666
0.019661663
0.019654068
0.01964689
0.01964014
0.019633829
0.019627966
0.019622562
0.019617627
0.019613172
0.019609207
0.019605743
0.019602789
0.019600357
0.019598456
0.019597096
0.019596286
0.019596037
0.019596355
0.019597244
0.019598692
0.019600731
0.01960337
0.019606615
0.019610475
0.019614955
0.019620063
0.019625804
0.019632183
0.019639204
0.01964687
0.019655179
0.019664124
0.019673675
0.019683747
0.019694115
0.019703475
0.019708998
0.019709738
0.019705699
0.01969693
0.019683491
0.019665448
0.019642873
0.019615842
0.01958443
0.019548708
0.019508751
0.019464627
0.019416398
0.019364137
0.019307938
0.019248024
0.019184661
0.01911808
0.019048497
0.019638152
0.019622353
0.01960673
0.019591293
0.019576047
0.019561001
0.019546162
0.019531537
0.019517134
0.01950296
0.019489025
0.019475334
0.019461897
0.019448722
0.019435816
0.019423188
0.019410846
0.019398799
0.019387056
0.019375624
0.019364514
0.019353734
0.019343293
0.0193332
0.019323464
0.019314096
0.019305104
0.019296499
0.019288289
0.019280485
0.019273098
0.019266135
0.019259609
0.01925353
0.019247906
0.01924275
0.019238071
0.01923388
0.019230187
0.019227002
0.019224336
0.0192222
0.019220603
0.019219555
0.019219066
0.019219144
0.019219793
0.019220999
0.019222799
0.019225202
0.019228217
0.019231851
0.019236112
0.019241008
0.019246545
0.01925273
0.019259567
0.019267061
0.019275213
0.019284016
0.019293444
0.019303414
0.019313694
0.019322874
0.019327905
0.019327849
0.019322719
0.019312576
0.019297492
0.019277548
0.019252831
0.019223434
0.019189448
0.019150961
0.019108064
0.019060842
0.019009371
0.018953741
0.018894065
0.018830586
0.018763596
0.018693347
0.018620072
0.01926045
0.01924431
0.019228343
0.019212557
0.01919696
0.019181557
0.019166358
0.019151368
0.019136596
0.019122049
0.019107734
0.019093659
0.019079831
0.019066259
0.019052951
0.019039913
0.019027156
0.019014686
0.019002512
0.018990642
0.018979085
0.018967849
0.018956944
0.018946378
0.01893616
0.018926298
0.018916804
0.018907685
0.01889895
0.018890611
0.018882676
0.018875155
0.018868058
0.018861394
0.018855175
0.01884941
0.018844109
0.018839282
0.018834941
0.018831095
0.018827754
0.01882493
0.018822632
0.018820871
0.018819657
0.018818999
0.018818905
0.018819379
0.01882041
0.018822035
0.018824264
0.018827105
0.018830569
0.018834662
0.018839394
0.018844772
0.018850802
0.018857492
0.018864846
0.018872867
0.01888155
0.018890872
0.018900752
0.018910954
0.018919968
0.018924546
0.018923759
0.018917629
0.018906227
0.018889639
0.01886796
0.01884129
0.018809739
0.018773413
0.018732417
0.018686857
0.018636834
0.01858244
0.018523779
0.018460979
0.018394307
0.018324077
0.018250557
0.018174
0.01885949
0.018843063
0.018826808
0.018810731
0.018794839
0.01877914
0.01876364
0.018748347
0.018733267
0.018718408
0.018703778
0.018689383
0.018675231
0.018661329
0.018647686
0.018634308
0.018621203
0.018608381
0.018595847
0.018583611
0.018571681
0.018560064
0.018548769
0.018537806
0.018527181
0.018516905
0.018506986
0.018497432
0.018488253
0.018479459
0.018471057
0.018463059
0.018455473
0.018448309
0.018441576
0.018435286
0.018429446
0.018424069
0.018419162
0.018414738
0.018410806
0.018407376
0.018404459
0.018402065
0.018400204
0.018398886
0.018398122
0.018397917
0.018398273
0.018399188
0.018400695
0.018402806
0.018405528
0.018408871
0.018412844
0.018417457
0.018422716
0.01842863
0.018435206
0.018442451
0.018450367
0.018458953
0.018468186
0.018477989
0.018488123
0.018496989
0.018501155
0.018499705
0.018492668
0.018480127
0.018462179
0.01843893
0.018410498
0.018377006
0.018338576
0.018295325
0.018247379
0.01819485
0.018137846
0.018076486
0.018010911
0.017941411
0.017868319
0.01779192
0.017712481
0.018437685
0.018421022
0.018404529
0.018388212
0.018372079
0.018356136
0.01834039
0.018324848
0.018309516
0.018294402
0.018279514
0.018264857
0.018250439
0.018236267
0.018222349
0.018208692
0.018195303
0.01818219
0.018169361
0.018156823
0.018144584
0.018132652
0.018121035
0.018109741
0.018098779
0.018088156
0.018077882
0.018067964
0.018058412
0.018049234
0.018040439
0.018032036
0.018024034
0.018016443
0.018009272
0.018002531
0.017996228
0.017990375
0.017984979
0.017980053
0.017975604
0.017971645
0.017968183
0.017965231
0.017962797
0.017960893
0.017959528
0.01795871
0.017958447
0.01795873
0.017959585
0.017961028
0.017963069
0.017965718
0.017968985
0.017972881
0.017977413
0.017982591
0.017988424
0.017994918
0.018002081
0.018009917
0.018018426
0.018027587
0.018037328
0.018047405
0.018056141
0.018059938
0.018057893
0.018050044
0.018036483
0.018017319
0.01799267
0.017962666
0.017927446
0.017887145
0.017841895
0.017791835
0.017737095
0.017677791
0.017614059
0.017546054
0.017474085
0.017398502
0.017319605
0.017237676
0.017997416
0.017980563
0.017963879
0.017947371
0.017931044
0.017914906
0.017898963
0.017883222
0.01786769
0.017852372
0.017837277
0.017822411
0.01780778
0.017793392
0.017779254
0.017765373
0.017751755
0.017738409
0.017725341
0.017712559
0.01770007
0.017687882
0.017676003
0.017664439
0.0176532
0.017642292
0.017631725