/*--------------------------------*- C++ -*----------------------------------*\
| =========                 |                                                 |
| \\      /  F ield         | OpenFOAM: The Open Source CFD Toolbox           |
|  \\    /   O peration     | Version:  2.4.0                                 |
|   \\  /    A nd           | Web:      www.OpenFOAM.org                      |
|    \\/     M anipulation  |                                                 |
\*---------------------------------------------------------------------------*/
FoamFile
{
    version     2.0;
    format      ascii;
    class       volScalarField;
    location    "330";
    object      omega;
}
// * * * * * * * * * * * * * * * * * * * * * * * * * * * * * * * * * * * * * //

dimensions      [0 0 -1 0 0 0 0];

internalField   nonuniform List<scalar> 
19650
(
1.9028398
1.8989616
1.8951284
1.8913467
1.8876214
1.883956
1.8803538
1.8768176
1.8733498
1.8699531
1.8666298
1.8633824
1.8602135
1.8571255
1.8541211
1.851203
1.848374
1.8456369
1.8429946
1.8404503
1.8380072
1.8356684
1.8334374
1.8313177
1.8293129
1.8274266
1.8256628
1.8240254
1.8225185
1.8211464
1.8199133
1.8188239
1.8178826
1.8170943
1.8164636
1.8159952
1.8156929
1.8155588
1.8155918
1.8157839
1.8161005
1.8166018
1.8172909
1.8181608
1.8191895
1.8200974
1.8201327
1.8190298
1.8169283
1.8138296
1.8097405
1.8047113
1.798778
1.7919757
1.7843333
1.7759074
1.7667242
1.7568024
1.7461637
1.7348329
1.7228459
1.7102699
1.6971799
1.6836404
1.6697107
1.8189696
1.8156043
1.8123081
1.809078
1.8059127
1.8028123
1.7997777
1.79681
1.793911
1.7910822
1.7883258
1.7856437
1.7830381
1.7805113
1.7780658
1.775704
1.7734286
1.7712424
1.769148
1.7671486
1.765247
1.7634465
1.7617504
1.760162
1.7586848
1.7573224
1.7560787
1.7549573
1.7539624
1.753098
1.7523684
1.7517779
1.751331
1.7510322
1.7508859
1.7508963
1.7510662
1.7513954
1.7518783
1.7524849
1.7532542
1.7542071
1.7553438
1.7566592
1.7581347
1.7594911
1.7598946
1.7591486
1.7573527
1.7544626
1.7505392
1.7456277
1.739772
1.7330158
1.7254004
1.7169905
1.7078066
1.6978765
1.687228
1.6758987
1.6639296
1.6513935
1.63837
1.6249291
1.6111322
1.7345163
1.7316486
1.7288476
1.7261124
1.7234429
1.7208388
1.7183009
1.7158298
1.7134268
1.7110932
1.7088306
1.7066407
1.7045254
1.7024868
1.700527
1.6986484
1.6968533
1.6951443
1.6935239
1.6919951
1.6905605
1.6892234
1.6879866
1.6868535
1.6858274
1.6849117
1.6841101
1.6834263
1.6828639
1.6824271
1.6821199
1.6819463
1.6819108
1.6820175
1.6822705
1.682673
1.6832261
1.683927
1.6847552
1.6857163
1.6868519
1.6881656
1.6896583
1.691326
1.6931488
1.6948324
1.6955638
1.6951618
1.6936164
1.6909508
1.6872291
1.6824992
1.67681
1.6702136
1.6627656
1.6545155
1.6454829
1.6357108
1.6252369
1.614102
1.6023514
1.5900612
1.5773133
1.5641799
1.5507229
1.6509543
1.6485316
1.646168
1.6438645
1.6416223
1.6394425
1.6373262
1.6352747
1.6332893
1.6313714
1.6295224
1.627744
1.6260379
1.6244061
1.6228503
1.6213728
1.6199758
1.6186615
1.6174324
1.6162911
1.6152402
1.6142825
1.6134209
1.6126584
1.6119983
1.6114437
1.610998
1.6106647
1.6104475
1.61035
1.6103762
1.6105297
1.6108146
1.6112347
1.6117932
1.6124921
1.6133305
1.6142986
1.6153732
1.6166104
1.6180153
1.6195908
1.6213394
1.623259
1.6253327
1.6272592
1.6282632
1.628112
1.6267854
1.6243569
1.6208742
1.6163871
1.6109484
1.6046205
1.5974628
1.5894861
1.5807454
1.5712852
1.5611474
1.5503757
1.5390178
1.52715
1.5148587
1.5022105
1.4892679
1.5696242
1.5675658
1.5655593
1.5636079
1.561714
1.5598794
1.5581058
1.5563945
1.5547468
1.5531643
1.5516482
1.5502001
1.5488215
1.5475142
1.5462799
1.5451206
1.5440382
1.5430348
1.5421128
1.5412743
1.540522
1.5398583
1.5392859
1.5388078
1.5384267
1.5381457
1.5379679
1.5378966
1.5379353
1.5380872
1.538356
1.5387444
1.5392557
1.5398928
1.540658
1.5415512
1.5425668
1.5436763
1.5449332
1.5463414
1.5479057
1.5496311
1.5515227
1.5535868
1.5558424
1.5579336
1.5591051
1.5591319
1.5580208
1.5558368
1.5526242
1.548432
1.5433161
1.5373444
1.5305513
1.5229586
1.5146282
1.5056067
1.4959379
1.4856672
1.4748432
1.463541
1.4518465
1.4398233
1.427532
1.4915627
1.4897565
1.4880116
1.4863269
1.4847018
1.4831365
1.4816313
1.480187
1.4788041
1.4774838
1.4762272
1.4750355
1.4739101
1.4728524
1.471864
1.4709467
1.4701023
1.4693327
1.4686398
1.468026
1.4674933
1.4670443
1.4666812
1.4664068
1.4662237
1.4661347
1.4661426
1.4662505
1.4664615
1.4667786
1.4672044
1.4677358
1.4683757
1.4691274
1.4699915
1.4709645
1.4720281
1.4732127
1.4745357
1.4760004
1.4776108
1.4793718
1.48129
1.4833815
1.4856974
1.4879012
1.4891985
1.4893905
1.4885043
1.4865799
1.4836626
1.4798038
1.4750701
1.4694972
1.4631213
1.4559908
1.4481564
1.4396653
1.430562
1.4208919
1.4107033
1.4000705
1.3890736
1.3777737
1.3662289
1.4236991
1.4220342
1.4204074
1.4188051
1.4171688
1.4155934
1.4140766
1.4126172
1.4112145
1.4098684
1.4085791
1.4073469
1.4061727
1.4050571
1.4040012
1.4030062
1.4020732
1.4012036
1.4003989
1.3996606
1.3989904
1.3983901
1.3978614
1.3974064
1.3970272
1.3967258
1.3965046
1.3963658
1.3963119
1.3963456
1.3964693
1.3966859
1.3969981
1.3974089
1.397921
1.3985379
1.3992612
1.4000842
1.4010011
1.4020039
1.4030974
1.4043124
1.4056527
1.407124
1.4087293
1.4104728
1.4123614
1.4144129
1.4166802
1.4187613
1.4200083
1.4202663
1.4195355
1.4178254
1.4151785
1.4116474
1.407296
1.4021333
1.3962116
1.3895793
1.3822852
1.3743751
1.3658923
1.3568804
1.3473847
1.3374827
1.3272403
1.3167188
1.3059724
1.3572489
1.355666
1.3541065
1.3525266
1.351006
1.3495381
1.348116
1.3467301
1.3453849
1.3440836
1.3428282
1.3416202
1.3404612
1.3393521
1.3382942
1.3372884
1.3363359
1.3354378
1.3345954
1.3338099
1.3330825
1.3324148
1.3318082
1.3312642
1.3307845
1.3303709
1.330025
1.3297489
1.3295444
1.3294136
1.3293587
1.3293818
1.3294853
1.3296715
1.329943
1.3303022
1.3307519
1.3312956
1.3319412
1.3326909
1.3335441
1.334493
1.3355089
1.3366305
1.3378611
1.339205
1.3406664
1.3422493
1.3439582
1.3458033
1.3478278
1.3499263
1.3517564
1.3527965
1.3529521
1.3522207
1.35062
1.348183
1.3449578
1.340938
1.3361696
1.3306974
1.3245661
1.317821
1.3105047
1.3026575
1.2943207
1.2855368
1.2763781
1.2669038
1.2571735
1.247235
1.2912832
1.289803
1.288364
1.2869649
1.2856004
1.2842732
1.2829844
1.2817344
1.2805232
1.2793515
1.2782202
1.2771301
1.2760822
1.2750777
1.2741177
1.2732034
1.2723356
1.2715157
1.2707447
1.2700241
1.2693548
1.2687382
1.2681757
1.2676687
1.2672187
1.2668271
1.2664956
1.2662257
1.2660193
1.2658782
1.265804
1.2657989
1.2658648
1.2660038
1.266218
1.2665096
1.2668808
1.2673341
1.2678719
1.2684969
1.2692118
1.2700225
1.2709196
1.2719263
1.2730416
1.2742531
1.2755668
1.2769871
1.2785174
1.2801597
1.2819106
1.2837374
1.285504
1.2870762
1.2879303
1.2879612
1.2871798
1.285625
1.2833563
1.2803584
1.2766355
1.2722337
1.2671857
1.2615323
1.2553144
1.2485706
1.2413381
1.2336544
1.2255649
1.2171257
1.208398
1.1994329
1.190277
1.2276027
1.2263541
1.2251289
1.2239286
1.2227533
1.2216038
1.2204811
1.2193875
1.2183296
1.2173078
1.2163217
1.2153716
1.2144587
1.2135844
1.21275
1.2119564
1.2112045
1.2104954
1.2098306
1.2092109
1.2086376
1.2081118
1.2076348
1.2072081
1.2068328
1.2065104
1.2062424
1.2060303
1.2058757
1.2057801
1.2057453
1.205773
1.205865
1.2060232
1.2062494
1.2065457
1.206914
1.2073564
1.207875
1.2084713
1.2091463
1.2098967
1.2107267
1.2116679
1.2127191
1.2138816
1.2151508
1.2165158
1.2179808
1.2195469
1.2212023
1.2228766
1.2245211
1.2259133
1.2265798
1.226457
1.2255721
1.2239667
1.2217191
1.2188157
1.2152889
1.2111593
1.2064541
1.2012033
1.1954404
1.1891997
1.1825158
1.1754161
1.167961
1.1601922
1.1521643
1.1439202
1.1355053
1.1674925
1.1664597
1.1654484
1.1644548
1.1634775
1.1625181
1.1615779
1.1606584
1.1597611
1.1588867
1.1580364
1.157212
1.1564182
1.1556597
1.1549363
1.1542482
1.1535962
1.1529822
1.1524076
1.1518737
1.1513814
1.150932
1.1505266
1.1501668
1.1498535
1.1495881
1.1493719
1.1492064
1.1490931
1.1490333
1.1490286
1.1490805
1.1491908
1.1493611
1.149593
1.1498883
1.1502489
1.1506766
1.151173
1.1517392
1.1523747
1.1530698
1.1538479
1.1547135
1.1556734
1.1567442
1.1579246
1.159212
1.1605967
1.1620807
1.1636599
1.1653144
1.1669936
1.1684116
1.1691159
1.169065
1.16829
1.1668206
1.1646475
1.1618345
1.1584241
1.1544583
1.1499773
1.1450133
1.1395999
1.1337711
1.1275711
1.1210117
1.1141178
1.1069479
1.0995548
1.0919625
1.08421
1.1110815
1.1102134
1.1093673
1.1085425
1.1077385
1.106955
1.1061917
1.1054479
1.104718
1.1040033
1.1033055
1.1026263
1.1019671
1.1013293
1.100714
1.1001227
1.0995582
1.0990285
1.098534
1.0980748
1.0976515
1.0972658
1.0969194
1.0966138
1.0963502
1.0961298
1.0959538
1.0958238
1.0957411
1.0957069
1.0957226
1.0957897
1.0959098
1.0960843
1.0963147
1.0966025
1.0969495
1.0973573
1.0978271
1.0983598
1.0989528
1.0996061
1.1003349
1.1011412
1.1020281
1.1030006
1.1040672
1.1052432
1.106529
1.1079218
1.1094122
1.1109835
1.1126032
1.1140473
1.1148679
1.1150081
1.1144771
1.1132858
1.1114014
1.1088835
1.1057854
1.1021546
1.0980331
1.0934582
1.0884649
1.0830847
1.0773437
1.071282
1.0649082
1.0582682
1.0514102
1.0443805
1.0372141
1.0589806
1.0582356
1.0575129
1.0568125
1.056134
1.0554773
1.0548422
1.0542281
1.0536343
1.0530604
1.0525062
1.0519711
1.051452
1.0509464
1.0504563
1.0499832
1.0495292
1.0490955
1.0486834
1.0482946
1.0479311
1.0475985
1.0473018
1.0470407
1.0468159
1.0466283
1.0464801
1.0463729
1.0463082
1.0462872
1.0463111
1.0463814
1.0464996
1.0466671
1.046885
1.0471549
1.0474783
1.0478567
1.0482911
1.0487815
1.0493223
1.0499293
1.0506044
1.0513495
1.0521666
1.0530584
1.0540286
1.0550859
1.0562432
1.0574999
1.0588552
1.0603021
1.0618131
1.0631812
1.0639848
1.0641746
1.0637555
1.0627395
1.0611382
1.0589747
1.056278
1.0530808
1.0494162
1.0453168
1.0408149
1.0359393
1.0307054
1.0251635
1.0193429
1.0132734
1.0069984
1.0005745
0.99403705
1.0118333
1.011179
1.0105465
1.0099359
1.009347
1.0087799
1.0082347
1.0077111
1.0072092
1.0067287
1.0062695
1.0058311
1.0054131
1.0050148
1.0046359
1.0042762
1.0039349
1.0036062
1.0032918
1.0029938
1.0027139
1.0024537
1.0022146
1.0019982
1.0018061
1.0016411
1.0015115
1.0014183
1.0013618
1.0013426
1.0013623
1.001423
1.0015265
1.0016739
1.0018667
1.002106
1.0023935
1.0027305
1.003118
1.0035562
1.0040421
1.0045889
1.005198
1.0058708
1.0066089
1.0074141
1.0082886
1.0092352
1.010258
1.0113604
1.0125487
1.0138228
1.0151606
1.0163751
1.0170806
1.0172467
1.0168743
1.0159721
1.0145521
1.0126322
1.0102348
1.007386
1.0041132
1.0004445
0.99640899
0.99203425
0.9873461
0.98237387
0.97714657
0.97170371
0.96608686
0.96033316
0.95447563
0.97051233
0.96990261
0.96931291
0.96874359
0.96819494
0.96766719
0.96716053
0.9666751
0.96621102
0.9657684
0.96534732
0.96494778
0.96456976
0.9642132
0.96387797
0.96356389
0.96327069
0.96299803
0.962745
0.96251126
0.96229667
0.96210076
0.96192041
0.96175334
0.96160179
0.96146764
0.96135275
0.96125858
0.96118657
0.96113839
0.96111618
0.96112397
0.96116905
0.96125141
0.96137144
0.96153014
0.96172921
0.96197076
0.96225635
0.96258681
0.96296109
0.96338403
0.96386133
0.96439461
0.96498529
0.96563481
0.9663448
0.967117
0.96795322
0.96885538
0.96982537
0.97086472
0.9719715
0.97312849
0.97417004
0.97475138
0.97485647
0.97448687
0.97365079
0.97236033
0.97063119
0.96848218
0.96593502
0.96301279
0.95973941
0.95614004
0.95223919
0.9480606
0.94362928
0.93897127
0.93412295
0.92912174
0.92399942
0.91878481
0.93411687
0.93352928
0.93296166
0.9324139
0.93188599
0.93137803
0.93089012
0.93042242
0.92997508
0.92954827
0.92914216
0.92875692
0.92839268
0.92804958
0.92772774
0.92742724
0.92714814
0.9268904
0.92665401
0.92643884
0.92624475
0.92607149
0.92591878
0.92578598
0.92567249
0.92557814
0.92550287
0.92544601
0.92540239
0.92537328
0.92536095
0.92536721
0.92539388
0.92544238
0.92551429
0.92561139
0.92573601
0.92589312
0.92608845
0.92632192
0.9265935
0.92690164
0.92725576
0.92765795
0.92810997
0.92861324
0.92916907
0.92977895
0.93044447
0.93116726
0.93194872
0.93279009
0.933692
0.93465189
0.93565398
0.9365504
0.93703372
0.93709045
0.93672403
0.93594369
0.93476188
0.93319363
0.93125616
0.92896878
0.92635173
0.92342581
0.9202129
0.91673439
0.91301108
0.90906477
0.90491832
0.90060401
0.89615496
0.89159921
0.8869623
0.90212978
0.9015593
0.90100662
0.90047197
0.89995554
0.89945751
0.89897804
0.89851731
0.89807552
0.89765285
0.8972495
0.89686569
0.89650163
0.89615754
0.8958336
0.89553004
0.89524705
0.8949848
0.89474343
0.89452308
0.89432388
0.89414589
0.89398911
0.89385352
0.89373904
0.89364555
0.89357285
0.89352073
0.89348886
0.89347638
0.89348296
0.89350862
0.89355327
0.89361538
0.89369074
0.89378184
0.89389085
0.89401961
0.89416984
0.89434302
0.89454069
0.89476431
0.89501473
0.89530301
0.89563458
0.89600955
0.89642853
0.89689263
0.89740355
0.89796354
0.89857436
0.89923738
0.89995362
0.90072344
0.90154428
0.90240184
0.90316474
0.90356006
0.9035771
0.90321892
0.90249398
0.90141369
0.8999917
0.89824359
0.89618669
0.89383909
0.89121933
0.88834681
0.88524051
0.88191888
0.87840131
0.87470819
0.87086826
0.8669111
0.86286185
0.85874358
0.87575044
0.875146
0.87455723
0.87398427
0.87342731
0.87288638
0.87236166
0.87185336
0.87136168
0.87088682
0.87042899
0.8699884
0.86956526
0.8691598
0.86877224
0.86840281
0.86805177
0.86771934
0.86740578
0.86711133
0.86683625
0.86658077
0.86634512
0.86612953
0.86593423
0.8657594
0.86560521
0.8654718
0.8653593
0.86526781
0.86519735
0.86514791
0.86511943
0.86511182
0.86512491
0.86515854
0.86521247
0.86528629
0.86537921
0.86549116
0.86562228
0.86577248
0.86593954
0.86612073
0.86631854
0.8665349
0.86677096
0.86703293
0.86732245
0.86764133
0.86799149
0.86837525
0.8687968
0.86926263
0.86977274
0.87032759
0.87092796
0.87157426
0.87226491
0.87298755
0.87362612
0.8739394
0.87391866
0.87356635
0.8728899
0.87189948
0.87060738
0.86902756
0.8671756
0.86506773
0.86272056
0.86015146
0.85737738
0.85441486
0.85128136
0.84799539
0.84458303
0.84107118
0.83748281
0.83383913
0.85029269
0.84972014
0.84916169
0.8486175
0.84808771
0.84757249
0.84707199
0.84658638
0.84611586
0.84566062
0.84522088
0.84479683
0.84438871
0.84399674
0.84362115
0.8432622
0.84292014
0.84259521
0.84228768
0.84199782
0.8417259
0.84147219
0.84123696
0.84102048
0.84082302
0.84064484
0.84048619
0.8403473
0.84022841
0.84012972
0.84005141
0.83999361
0.83995646
0.83994007
0.8399445
0.83996975
0.84001578
0.84008253
0.84016987
0.84027767
0.84040578
0.840554
0.84072184
0.84090867
0.84111444
0.84133908
0.84158308
0.84184731
0.84212946
0.84243229
0.84275811
0.84310888
0.84348651
0.84389268
0.84432913
0.84479765
0.84530002
0.84583798
0.84641472
0.84701966
0.84754903
0.8477897
0.84773436
0.84738549
0.84675039
0.84583877
0.84466187
0.84323231
0.84156407
0.83967166
0.83756996
0.83527462
0.83280096
0.83016402
0.82737992
0.82446634
0.82144712
0.81834663
0.81518564
0.81198321
0.82776757
0.82722505
0.82669514
0.826178
0.82567378
0.82518262
0.82470469
0.82424016
0.82378922
0.82335206
0.82292886
0.82251985
0.82212524
0.82174526
0.82138014
0.82103011
0.82069544
0.82037637
0.82007318
0.81978612
0.81951549
0.81926155
0.8190246
0.81880492
0.8186028
0.81841853
0.8182524
0.81810468
0.81797567
0.81786562
0.81777479
0.81770342
0.81765174
0.81761995
0.81760826
0.81761681
0.81764572
0.8176951
0.81776503
0.81785555
0.81796665
0.81809828
0.81825035
0.8184227
0.81861501
0.81882601
0.81905937
0.81931481
0.8195919
0.81989087
0.82021222
0.82055627
0.8209218
0.82130568
0.82171079
0.8221395
0.82259356
0.82307419
0.82358031
0.82410206
0.82454875
0.82473362
0.82465154
0.82430775
0.82371236
0.82287548
0.82180627
0.82051576
0.81901648
0.81732158
0.81544465
0.81339999
0.81120172
0.80886368
0.80640143
0.80383362
0.80117991
0.79846094
0.79569442
0.79289633
0.80781997
0.80730666
0.80680454
0.80631376
0.80583444
0.80536675
0.80491085
0.80446689
0.80403506
0.80361553
0.8032085
0.80281418
0.80243276
0.80206447
0.80170952
0.80136817
0.80104064
0.80072719
0.80042808
0.80014357
0.79987393
0.79961944
0.79938039
0.79915706
0.79894976
0.79875877
0.7985844
0.79842694
0.7982867
0.79816398
0.79805906
0.79797223
0.79790377
0.79785395
0.79782304
0.79781127
0.79781886
0.79784602
0.79789293
0.79795978
0.79804667
0.7981537
0.79828095
0.79842845
0.79859602
0.79878272
0.79899212
0.79922415
0.79947872
0.79975582
0.80005546
0.8003776
0.80072199
0.80108809
0.80147616
0.80188673
0.80232029
0.8027764
0.80324942
0.80372987
0.80413831
0.80430976
0.80423985
0.80393425
0.80340106
0.80264963
0.80169057
0.80053545
0.79919673
0.79768711
0.79601947
0.79420711
0.79226301
0.79019973
0.7880302
0.78576749
0.78342978
0.78103564
0.77860094
0.77613977
0.79016783
0.78968338
0.78920876
0.7887441
0.78828954
0.78784521
0.78741128
0.78698789
0.78657521
0.78617343
0.78578272
0.78540328
0.78503529
0.78467898
0.78433456
0.78400224
0.78368227
0.78337487
0.7830803
0.78279882
0.78253068
0.78227616
0.78203552
0.78180906
0.78159707
0.78139983
0.78121764
0.78105082
0.78089965
0.78076445
0.78064552
0.78054316
0.78045769
0.7803894
0.78033858
0.78030552
0.78029049
0.78029375
0.78031557
0.78035619
0.78041581
0.78049462
0.78059281
0.78071052
0.78084775
0.78100406
0.78118245
0.78138303
0.78160587
0.78185103
0.78211852
0.78240834
0.78272045
0.78305482
0.78341145
0.7837904
0.78419161
0.78461454
0.7850564
0.78550824
0.78589785
0.78607694
0.78604094
0.78579333
0.78533903
0.78468602
0.78384562
0.78282942
0.78164946
0.78031778
0.77884641
0.77724765
0.77553341
0.7737151
0.77180338
0.76980714
0.76774366
0.7656302
0.76348127
0.76130974
0.77458705
0.77413127
0.77368402
0.77324542
0.77281559
0.77239467
0.77198281
0.77158016
0.77118686
0.7708031
0.77042904
0.77006487
0.76971077
0.76936693
0.76903357
0.76871089
0.76839911
0.76809846
0.76780918
0.7675315
0.76726569
0.76701198
0.76677066
0.76654199
0.76632624
0.76612371
0.76593467
0.76575943
0.76559829
0.76545154
0.7653195
0.76520247
0.76510075
0.76501466
0.7649445
0.76489059
0.76485321
0.76483266
0.76482924
0.76484322
0.76487487
0.76492443
0.76499215
0.76507825
0.76518288
0.76530607
0.76545022
0.76561552
0.76580216
0.7660103
0.76624004
0.76649145
0.76676462
0.76705963
0.76737655
0.76771537
0.76807598
0.76845787
0.76885902
0.76927156
0.76963088
0.76980453
0.7697889
0.76958655
0.76920258
0.76864385
0.76791893
0.76703743
0.76600984
0.76484688
0.76355942
0.76215862
0.76065532
0.75905992
0.75738285
0.75563443
0.7538293
0.75198252
0.75010692
0.74821408
0.7613338
0.7608993
0.76047197
0.76005192
0.75963927
0.75923414
0.75883665
0.75844694
0.75806515
0.75769144
0.75732595
0.75696886
0.75662032
0.75628052
0.75594964
0.75562787
0.75531542
0.75501249
0.75471929
0.75443605
0.75416299
0.75390036
0.75364838
0.75340733
0.75317744
0.75295899
0.75275225
0.75255749
0.75237499
0.75220505
0.75204795
0.751904
0.75177349
0.75165673
0.75155403
0.75146568
0.75139201
0.75133332
0.7512899
0.75126208
0.75125014
0.75125438
0.75127508
0.75131251
0.75136693
0.75143858
0.75152796
0.75163692
0.75176568
0.75191448
0.75208356
0.75227308
0.75248322
0.75271414
0.75296599
0.75323888
0.75353288
0.75384794
0.75418367
0.75453839
0.75490526
0.75522699
0.75538627
0.75538082
0.75521259
0.75488604
0.75440713
0.75378307
0.75302206
0.75213318
0.75112586
0.75000974
0.74879481
0.74749085
0.74610732
0.7446539
0.74314053
0.74158047
0.73998722
0.73837229
0.73674611
0.74977868
0.74936757
0.74896236
0.74856314
0.74817002
0.7477831
0.7474025
0.74702833
0.74666073
0.74629982
0.74594575
0.74559866
0.7452587
0.74492604
0.74460083
0.74428326
0.7439735
0.74367174
0.74337817
0.743093
0.74281643
0.74254868
0.74228997
0.74204053
0.7418006
0.74157041
0.74135022
0.74114028
0.74094085
0.74075221
0.74057463
0.74040838
0.74025376
0.74011104
0.73998053
0.73986252
0.73975731
0.7396652
0.73958651
0.73952152
0.73947056
0.73943392
0.7394119
0.73940481
0.73941292
0.73943648
0.73947544
0.73953175
0.73960595
0.73969837
0.73980931
0.73993905
0.74008784
0.7402559
0.74044346
0.7406507
0.74087781
0.74112493
0.74139206
0.74167896
0.74198423
0.74230195
0.7425818
0.74272086
0.74271832
0.7425757
0.74229677
0.74188667
0.74135165
0.74069883
0.73993613
0.73907186
0.73811456
0.73707314
0.73595639
0.73477289
0.73353148
0.73224129
0.73091429
0.72956258
0.7281965
0.72682544
0.73980633
0.73942039
0.73903915
0.73866269
0.7382911
0.73792448
0.73756291
0.73720652
0.73685541
0.7365097
0.73616951
0.73583498
0.73550623
0.73518341
0.73486668
0.73455618
0.73425208
0.73395454
0.73366375
0.73337988
0.73310312
0.73283367
0.73257172
0.7323175
0.7320712
0.73183305
0.73160329
0.73138214
0.73116984
0.73096665
0.73077281
0.73058859
0.73041424
0.73025005
0.73009627
0.7299532
0.72982112
0.72970032
0.72959109
0.72949372
0.72940851
0.72933577
0.72927579
0.72922887
0.72919531
0.72917541
0.72916941
0.72917736
0.72920134
0.72924164
0.72929857
0.72937243
0.72946351
0.7295721
0.72969846
0.72984284
0.73000549
0.73018663
0.73038643
0.73060499
0.73084217
0.73109683
0.7313639
0.73159971
0.73171498
0.73171045
0.73158726
0.73134864
0.730999
0.73054376
0.72998915
0.72934215
0.72861009
0.72780054
0.72692148
0.72598077
0.72498618
0.72394574
0.72286773
0.72176283
0.72064181
0.71951389
0.71838747
0.73096591
0.73061017
0.73025807
0.72990969
0.7295651
0.72922439
0.72888766
0.72855499
0.72822651
0.7279023
0.7275825
0.72726721
0.72695657
0.72665071
0.72634977
0.72605389
0.72576322
0.72547793
0.72519817
0.72492412
0.72465595
0.72439384
0.72413799
0.72388858
0.72364582
0.72340991
0.72318108
0.72295953
0.72274549
0.7225392
0.7223409
0.72215082
0.72196921
0.72179634
0.72163246
0.72147784
0.72133274
0.72119745
0.72107224
0.72095739
0.72085319
0.72075993
0.72067791
0.7206074
0.72054872
0.72050215
0.72046798
0.72044645
0.72043934
0.72044693
0.72046954
0.72050747
0.72056101
0.72063047
0.72071611
0.72081823
0.72093709
0.72107293
0.72122597
0.72139637
0.72158406
0.72178816
0.72200441
0.72219539
0.72228493
0.72227524
0.72216723
0.72196359
0.72166814
0.72128559
0.72082138
0.72028167
0.71967293
0.71900192
0.71827572
0.71750143
0.71668605
0.71583685
0.71496132
0.71406889
0.71316905
0.71226996
0.71137905
0.7236027
0.72327627
0.72295246
0.72263134
0.72231299
0.72199748
0.72168489
0.72137533
0.72106887
0.72076563
0.72046571
0.72016921
0.71987627
0.719587
0.71930153
0.71902
0.71874255
0.71846932
0.71820047
0.71793615
0.71767654
0.71742179
0.71717209
0.71692762
0.71668857
0.71645512
0.71622748
0.71600586
0.71579047
0.71558152
0.71537924
0.71518385
0.7149956
0.71481471
0.71464144
0.71447603
0.71431875
0.71416984
0.71402958
0.71389823
0.71377608
0.71366338
0.71356043
0.71346751
0.7133849
0.7133129
0.71325183
0.71320212
0.7131652
0.71314137
0.71313095
0.71313422
0.71315151
0.7131831
0.71322928
0.71329035
0.71336659
0.71345825
0.71356559
0.71368879
0.71382788
0.71398218
0.71414818
0.71429448
0.7143574
0.71434067
0.71424497
0.71407257
0.71382672
0.71351151
0.71313171
0.71269272
0.71220026
0.71166035
0.71107932
0.71046352
0.70981928
0.70915318
0.70847197
0.70778391
0.70709724
0.70641913
0.70575608
0.71766025
0.71736213
0.71706566
0.7167709
0.7164779
0.71618675
0.71589752
0.71561028
0.71532514
0.71504217
0.71476149
0.71448319
0.71420738
0.71393417
0.7136637
0.71339607
0.71313143
0.71286991
0.71261165
0.7123568
0.71210552
0.71185795
0.71161427
0.71137465
0.71113926
0.71090829
0.71068191
0.71046033
0.71024374
0.71003234
0.70982634
0.70962596
0.70943142
0.70924293
0.70906074
0.70888508
0.70871619
0.7085543
0.70839969
0.70825259
0.70811327
0.70798199
0.70785902
0.70774462
0.70763908
0.70754269
0.7074558
0.70737901
0.70731343
0.70725936
0.70721711
0.70718696
0.70716924
0.70716423
0.70717224
0.70719354
0.70722844
0.7072772
0.70734009
0.70741733
0.70750899
0.70761459
0.70773133
0.70783358
0.7078697
0.70784492
0.70775971
0.70761597
0.70741644
0.70716465
0.70686476
0.70652149
0.70613989
0.7057253
0.70528336
0.70481977
0.70434025
0.70385073
0.70335728
0.70286707
0.70238716
0.70192375
0.70148245
0.7133663
0.71309479
0.71282393
0.71255377
0.71228436
0.71201576
0.71174803
0.71148125
0.71121549
0.71095082
0.71068733
0.71042512
0.71016428
0.70990491
0.70964712
0.70939101
0.70913671
0.70888433
0.708634
0.70838587
0.70814005
0.7078967
0.70765596
0.707418
0.70718296
0.706951
0.70672231
0.70649706
0.70627542
0.70605757
0.70584372
0.70563406
0.70542878
0.70522809
0.7050322
0.70484134
0.70465572
0.70447556
0.7043011
0.70413258
0.70397023
0.70381431
0.70366505
0.70352272
0.70338757
0.70325986
0.70313989
0.70302803
0.70292505
0.70283175
0.70274842
0.70267537
0.70261289
0.70256127
0.70252082
0.70249183
0.70247458
0.70246937
0.70247648
0.70249617
0.7025287
0.70257419
0.70263231
0.70270094
0.70276001
0.70276956
0.70273628
0.7026605
0.70254371
0.70238824
0.70219709
0.70197384
0.70172261
0.70144783
0.70115422
0.70084679
0.70053064
0.70021095
0.69989305
0.69958239
0.69928508
0.69900708
0.69875366
0.6985296
0.71036199
0.71011784
0.7098734
0.70962868
0.70938375
0.70913863
0.7088934
0.70864809
0.70840279
0.70815754
0.70791244
0.70766755
0.70742295
0.70717874
0.70693501
0.70669186
0.70644938
0.70620769
0.70596691
0.70572714
0.70548851
0.70525116
0.70501521
0.7047808
0.70454807
0.70431718
0.70408828
0.70386153
0.70363708
0.70341511
0.70319578
0.70297929
0.70276581
0.70255553
0.70234864
0.70214534
0.70194584
0.70175034
0.70155905
0.70137219
0.70118999
0.70101267
0.70084047
0.70067361
0.70051234
0.70035691
0.70020756
0.70006459
0.69992838
0.69979986
0.69967955
0.69956774
0.69946472
0.69937077
0.69928619
0.69921126
0.69914627
0.69909152
0.69904729
0.69901386
0.69899152
0.6989805
0.69898099
0.69899283
0.69901447
0.6990313
0.69901472
0.6989729
0.69890597
0.69881511
0.69870222
0.69856983
0.69842098
0.69825921
0.6980884
0.6979127
0.69773653
0.69756444
0.6974011
0.69725132
0.69711995
0.69701212
0.69693271
0.69688612
0.69687632
0.70862462
0.70840847
0.7081911
0.70797255
0.70775284
0.70753201
0.7073101
0.70708716
0.70686323
0.70663837
0.70641265
0.70618612
0.70595887
0.70573096
0.70550248
0.70527351
0.70504414
0.70481447
0.70458459
0.70435463
0.70412467
0.70389484
0.70366526
0.70343606
0.70320735
0.70297928
0.70275198
0.7025256
0.70230028
0.70207618
0.70185345
0.70163227
0.70141278
0.70119518
0.70097962
0.7007663
0.70055539
0.7003471
0.70014161
0.69993912
0.69973985
0.69954399
0.69935177
0.6991634
0.6989791
0.6987991
0.69862364
0.69845296
0.69828734
0.6981272
0.69797357
0.69782674
0.69768699
0.69755458
0.69742981
0.69731296
0.6972043
0.69710412
0.69701271
0.69693035
0.69685733
0.69679391
0.69674036
0.6966969
0.69666349
0.69663918
0.69661465
0.69657247
0.69652227
0.69646401
0.69639856
0.69632741
0.69625262
0.69617677
0.69610285
0.6960342
0.69597445
0.69592747
0.69589731
0.69588817
0.69590435
0.69595019
0.69602985
0.69614719
0.69630575
0.69650876
0.70814006
0.70795246
0.70776276
0.707571
0.70737718
0.70718132
0.70698347
0.70678364
0.70658189
0.70637826
0.7061728
0.70596555
0.70575659
0.70554597
0.70533376
0.70512004
0.70490489
0.70468839
0.70447063
0.7042517
0.7040317
0.70381074
0.70358891
0.70336633
0.70314311
0.70291938
0.70269527
0.70247089
0.70224639
0.7020219
0.70179757
0.70157354
0.70134997
0.70112701
0.70090483
0.70068358
0.70046344
0.70024458
0.70002718
0.69981143
0.69959751
0.69938562
0.69917595
0.69896871
0.69876409
0.69856232
0.69836361
0.69816817
0.69797625
0.69778814
0.69760437
0.6974258
0.69725269
0.69708529
0.69692388
0.69676871
0.69662006
0.6964782
0.69634342
0.69621598
0.69609617
0.69598426
0.69588054
0.69578527
0.69569869
0.6956209
0.6955515
0.69548636
0.69541914
0.69536086
0.69531136
0.69527118
0.69524143
0.69522375
0.69522023
0.69523336
0.69526598
0.69532122
0.69540243
0.69551322
0.69565733
0.69583861
0.6960609
0.69632744
0.6966411
0.69700461
0.69742046
0.71456055
0.71447192
0.71438367
0.7142958
0.7142083
0.71412115
0.71403433
0.71394781
0.71386155
0.71377552
0.71368966
0.71360394
0.71351828
0.71343264
0.71334695
0.71326114
0.71317514
0.71308887
0.71300224
0.71291519
0.71282761
0.71273942
0.71265054
0.71256086
0.71247029
0.71237875
0.71228612
0.71219232
0.71209725
0.71200082
0.71190291
0.71180345
0.71170234
0.71159948
0.71149478
0.71138816
0.71127953
0.71116881
0.71105591
0.71094075
0.71082327
0.71070339
0.71058104
0.71045617
0.7103287
0.7101986
0.7100658
0.70993026
0.70979193
0.7096508
0.70950681
0.70935994
0.70921018
0.7090575
0.70890189
0.70874335
0.70858187
0.70841745
0.70825012
0.70807987
0.70790673
0.70773071
0.70755186
0.70737021
0.70718578
0.70699863
0.7068088
0.70661636
0.70642134
0.70622383
0.70602388
0.70582158
0.70561699
0.70541019
0.70520128
0.70499035
0.70477748
0.70456279
0.70434636
0.70412832
0.70390877
0.70368784
0.70346563
0.70324228
0.70301792
0.70279268
0.7025667
0.70234012
0.70211308
0.70188575
0.70165827
0.7014308
0.70120351
0.70097657
0.70075014
0.70052441
0.70029955
0.70007576
0.69985322
0.69963213
0.69941268
0.69919508
0.69897954
0.6987663
0.69855565
0.69834826
0.69814479
0.69794547
0.69775056
0.69756029
0.69737494
0.69719477
0.69702003
0.69685099
0.69668793
0.69653113
0.69638085
0.69623738
0.69610098
0.69597192
0.6958504
0.69573655
0.69563144
0.69553966
0.69547371
0.69543326
0.69541854
0.69543029
0.69546975
0.69553853
0.69563866
0.69577248
0.69594267
0.6961521
0.69640391
0.69670147
0.6970482
0.69744746
0.6979016
0.69841252
0.69898219
0.69961236
0.71408893
0.71405368
0.71401881
0.71398428
0.71395006
0.7139161
0.71388236
0.71384878
0.71381531
0.71378188
0.71374843
0.71371487
0.71368114
0.71364714
0.7136128
0.71357802
0.7135427
0.71350676
0.71347009
0.71343258
0.71339413
0.71335463
0.71331398
0.71327206
0.71322877
0.71318398
0.71313759
0.71308948
0.71303954
0.71298767
0.71293374
0.71287765
0.7128193
0.71275857
0.71269536
0.71262958
0.71256113
0.7124899
0.71241581
0.71233877
0.71225869
0.7121755
0.71208912
0.71199947
0.71190649
0.71181011
0.71171028
0.71160694
0.71150004
0.71138954
0.7112754
0.71115758
0.71103606
0.71091081
0.71078182
0.71064907
0.71051256
0.71037227
0.71022822
0.71008041
0.70992886
0.70977358
0.70961459
0.70945193
0.70928563
0.70911572
0.70894225
0.70876527
0.70858483
0.70840098
0.70821379
0.70802333
0.70782966
0.70763286
0.70743302
0.70723021
0.70702452
0.70681605
0.7066049
0.70639116
0.70617493
0.70595634
0.70573549
0.7055125
0.70528749
0.70506059
0.70483192
0.70460162
0.70436983
0.70413669
0.70390234
0.70366694
0.70343063
0.70319358
0.70295595
0.70271791
0.70247962
0.70224126
0.70200301
0.70176506
0.70152758
0.70129079
0.70105487
0.70082005
0.70058665
0.70035548
0.70012697
0.69990135
0.69967885
0.69945973
0.69924422