/*--------------------------------*- C++ -*----------------------------------*\
| =========                 |                                                 |
| \\      /  F ield         | OpenFOAM: The Open Source CFD Toolbox           |
|  \\    /   O peration     | Version:  2.4.0                                 |
|   \\  /    A nd           | Web:      www.OpenFOAM.org                      |
|    \\/     M anipulation  |                                                 |
\*---------------------------------------------------------------------------*/
FoamFile
{
    version     2.0;
    format      ascii;
    class       volVectorField;
    location    "330";
    object      U;
}
// * * * * * * * * * * * * * * * * * * * * * * * * * * * * * * * * * * * * * //

dimensions      [0 1 -1 0 0 0 0];

internalField   nonuniform List<vector> 
19650
(
(0.66653404 -0.036070755 1.6389214e-21)
(0.66573112 -0.035561984 -2.4280321e-21)
(0.66491853 -0.035041627 -3.6003346e-21)
(0.66409613 -0.034509136 3.2365587e-21)
(0.66326382 -0.03396395 -4.8284007e-21)
(0.6624215 -0.03340549 2.0910842e-21)
(0.66156905 -0.032833155 3.8536611e-22)
(0.66070639 -0.032246325 2.1418706e-21)
(0.65983343 -0.031644357 -1.9147589e-22)
(0.6589501 -0.031026587 2.1845694e-21)
(0.65805634 -0.030392328 -4.4050497e-21)
(0.65715208 -0.029740872 -2.121286e-22)
(0.65623728 -0.029071489 -8.3168853e-22)
(0.65531192 -0.028383427 5.9038877e-21)
(0.65437596 -0.027675909 -1.8226417e-22)
(0.65342941 -0.026948132 5.3845875e-21)
(0.65247227 -0.026199269 -1.4522148e-20)
(0.65150456 -0.025428462 6.026857e-21)
(0.65052634 -0.024634822 -2.0807901e-22)
(0.64953767 -0.023817435 6.1316893e-21)
(0.64853865 -0.02297535 3.0123707e-21)
(0.64752939 -0.022107588 -7.8731386e-21)
(0.64651005 -0.021213135 -4.7365725e-21)
(0.6454808 -0.020290946 3.0064846e-21)
(0.64444188 -0.019339937 6.9542805e-21)
(0.64339354 -0.018358989 -8.7176156e-21)
(0.64233608 -0.017346943 7.0138125e-21)
(0.64126986 -0.016302601 7.0795081e-21)
(0.64019529 -0.015224718 -8.818669e-21)
(0.63911284 -0.014112009 3.1257381e-21)
(0.63802304 -0.01296314 -1.4252539e-20)
(0.63692651 -0.011776731 1.6543263e-20)
(0.63582394 -0.010551351 3.18326e-21)
(0.63471612 -0.0092855189 -2.3239764e-20)
(0.63360392 -0.0079777049 -2.5810731e-22)
(0.63248834 -0.0066263585 3.1514199e-21)
(0.63137051 -0.0052299553 1.6854346e-20)
(0.63025198 -0.0037871154 3.2292352e-21)
(0.62913428 -0.0022976228 -2.7073125e-20)
(0.62801956 -0.00076256277 3.1940995e-21)
(0.62691779 0.00081958734 1.8440346e-20)
(0.62581563 0.0024532593 -1.892299e-20)
(0.62472023 0.0041437649 1.7082045e-20)
(0.62363669 0.0058920823 3.2475259e-21)
(0.62253749 0.0076939915 -6.1530705e-21)
(0.62147998 0.0095534686 2.1165121e-20)
(0.6208578 0.011495784 -8.8545852e-22)
(0.62091941 0.013530603 -3.9975436e-20)
(0.62163609 0.015653927 1.8969037e-20)
(0.6229754 0.017863823 3.3140955e-20)
(0.62493002 0.02015814 -2.9193406e-20)
(0.62748219 0.022533753 5.9843104e-20)
(0.63061182 0.024986914 4.5951644e-20)
(0.63429686 0.027512997 4.627753e-20)
(0.63851422 0.030106791 -5.1302769e-20)
(0.64324081 0.032762369 1.0919753e-19)
(0.64845258 0.035472665 1.5937768e-20)
(0.65412563 0.038229861 -6.6654531e-20)
(0.66023723 0.041025425 2.4017181e-20)
(0.6667646 0.043849861 1.0541356e-19)
(0.67368679 0.04669375 3.3532716e-20)
(0.6809708 0.049547154 1.7781609e-20)
(0.68857376 0.052399392 3.9197033e-20)
(0.6964587 0.055239887 -5.0988325e-20)
(0.70459441 0.058057487 -1.3668264e-20)
(0.69254364 -0.035188003 -2.4934382e-21)
(0.69171009 -0.034669866 -6.801513e-23)
(0.69086781 -0.034140065 1.8985647e-21)
(0.6900167 -0.033598058 1.9288318e-21)
(0.68915667 -0.033043287 -3.3176067e-21)
(0.68828763 -0.032475182 9.0610451e-21)
(0.68740951 -0.03189315 -7.0118654e-21)
(0.68652224 -0.031296581 -3.4005158e-21)
(0.68562576 -0.030684844 1.9787962e-21)
(0.68472002 -0.030057289 1.7896539e-21)
(0.68380499 -0.029413242 2.0336031e-21)
(0.68288064 -0.028752011 2.0609975e-21)
(0.68194695 -0.02807288 -1.3769228e-21)
(0.68100393 -0.027375114 -3.221276e-23)
(0.68005159 -0.026657954 -7.4330142e-21)
(0.67908995 -0.025920616 6.2090639e-21)
(0.67811907 -0.025162294 -1.4318355e-21)
(0.677139 -0.024382156 -4.2430436e-21)
(0.67614984 -0.023579339 2.1103671e-21)
(0.67515169 -0.022752957 -1.4790178e-21)
(0.67414468 -0.021902095 -7.4021355e-23)
(0.67312899 -0.021025806 4.1419899e-21)
(0.6721048 -0.020123118 -7.800502e-21)
(0.67107233 -0.019193025 1.2193698e-20)
(0.67003187 -0.018234491 -5.7664569e-21)
(0.6689837 -0.017246447 4.2439194e-21)
(0.66792819 -0.016227791 -5.8329162e-21)
(0.66686574 -0.015177385 4.5189356e-21)
(0.66579679 -0.014094053 -8.2717753e-21)
(0.66472186 -0.012976585 2.2307133e-21)
(0.66364155 -0.011823729 6.7278083e-21)
(0.6625565 -0.010634196 2.2850667e-21)
(0.66146745 -0.0094066537 -1.8864834e-20)
(0.66037522 -0.0081397292 2.2467696e-21)
(0.65928075 -0.0068320211 6.8129464e-21)
(0.65818506 -0.0054821428 2.2945279e-21)
(0.65708948 -0.0040887616 -1.8446833e-21)
(0.6559955 -0.0026511952 1.0568915e-20)
(0.65490465 -0.0011703586 -5.9387966e-21)
(0.65382497 0.00035408161 1.0634164e-20)
(0.65274894 0.0019252796 -1.4447603e-20)
(0.65167778 0.0035484026 -6.2411402e-21)
(0.65061566 0.0052264309 2.3314106e-21)
(0.64956634 0.0069590123 1.0672165e-20)
(0.64850417 0.0087424889 -1.1407071e-20)
(0.64748533 0.010581537 -1.1599067e-20)
(0.64688137 0.012500574 1.6688952e-20)
(0.64692717 0.014508133 3.7612803e-21)
(0.6475997 0.016599893 2.5085982e-20)
(0.64886757 0.018773573 -7.7383779e-21)
(0.65072419 0.021026428 -5.8133433e-21)
(0.65315318 0.023354927 -4.3511287e-20)
(0.65613552 0.025754888 -5.0485089e-20)
(0.65965016 0.028221261 -1.3100562e-20)
(0.66367495 0.030748428 -2.2262873e-20)
(0.66818754 0.033330094 -4.5527604e-20)
(0.67316464 0.035958902 1.7760001e-20)
(0.67858295 0.038626803 -1.9432062e-20)
(0.68442023 0.041325093 -5.1596666e-21)
(0.69065416 0.044044208 3.7465661e-20)
(0.69726402 0.046774705 -9.8649088e-20)
(0.70421773 0.049506739 3.6674372e-20)
(0.71147405 0.052229857 2.0923136e-20)
(0.71899721 0.054933786 8.2731198e-20)
(0.72675696 0.057607802 4.0595591e-20)
(0.71766927 -0.034250298 -4.5619137e-21)
(0.71682117 -0.03372363 1.8149936e-21)
(0.71596537 -0.033185212 -3.9059062e-21)
(0.71510176 -0.032634518 1.6357721e-21)
(0.71423027 -0.032071005 -2.9236693e-21)
(0.71335083 -0.031494115 1.6538531e-21)
(0.71246339 -0.03090327 1.4828189e-21)
(0.71156789 -0.030297873 1.9042662e-21)
(0.71066431 -0.029677305 1.7323884e-21)
(0.70975261 -0.029040932 1.7576724e-21)
(0.7088328 -0.028388098 4.2717462e-23)
(0.70790488 -0.027718124 -6.0959422e-21)
(0.70696885 -0.027030315 6.6195262e-21)
(0.70602475 -0.026323951 -4.191273e-21)
(0.70507263 -0.025598295 2.9424398e-21)
(0.70411255 -0.024852585 -3.1104879e-21)
(0.70314459 -0.024086038 1.6187802e-21)
(0.70216885 -0.023297847 -4.1016255e-21)
(0.70118546 -0.022487181 3.003111e-21)
(0.70019456 -0.021653183 1.653146e-21)
(0.69919632 -0.020794972 -4.1700182e-21)
(0.69819096 -0.019911641 8.1881438e-21)
(0.69717871 -0.019002256 -4.4141101e-21)
(0.69615983 -0.018065857 2.8958576e-21)
(0.69513464 -0.017101455 2.1647752e-21)
(0.69410349 -0.016108036 1.5077331e-20)
(0.69306676 -0.015084553 -1.0147277e-20)
(0.69202492 -0.014029932 -2.4258649e-20)
(0.69097844 -0.012943069 1.5441452e-20)
(0.68992791 -0.011822826 2.9892011e-21)
(0.68887393 -0.010668036 2.0033852e-21)
(0.6878172 -0.0094775004 -3.3645802e-21)
(0.68675851 -0.0082499866 -1.9192005e-20)
(0.6856987 -0.0069842319 2.9853687e-21)
(0.68463871 -0.0056789755 3.0092287e-21)
(0.6835797 -0.004332991 1.5917943e-20)
(0.68252304 -0.0029453585 -1.1912398e-20)
(0.68146988 -0.0015165908 1.6032058e-20)
(0.68042535 -4.6997225e-05 2.0667997e-21)
(0.67938974 0.0014655951 -2.4083783e-20)
(0.67835802 0.0030254406 3.0816642e-21)
(0.67733454 0.004636089 1.0056259e-21)
(0.6763215 0.0062987101 2.0556576e-21)
(0.6753227 0.0080131188 1.7228751e-20)
(0.67431403 0.0097758192 -9.4365032e-21)
(0.67334991 0.011591861 -7.7321165e-22)
(0.67277845 0.013484458 -3.5134607e-21)
(0.67281992 0.015461183 -2.7892515e-20)
(0.6734568 0.017517348 5.7442478e-21)
(0.67465894 0.019650133 -5.9889456e-20)
(0.67642066 0.021856409 6.4278402e-20)
(0.67872702 0.024132321 2.4008351e-20)
(0.68156023 0.026473305 -1.4065588e-20)
(0.68490046 0.028873968 2.839589e-20)
(0.68872668 0.031328365 1.5842771e-20)
(0.69301757 0.033829939 -3.1042492e-21)
(0.69775075 0.036371142 -3.3749182e-20)
(0.70290381 0.038943786 3.3818191e-20)
(0.70845519 0.041539117 -1.0946559e-19)
(0.71438322 0.044147609 -2.8374937e-20)
(0.72066764 0.046759903 5.5506819e-20)
(0.72727752 0.049366366 -1.1645399e-20)
(0.73417344 0.051956879 9.6925467e-22)
(0.74132109 0.054521576 -4.7995835e-20)
(0.74869132 0.057050244 -2.6513997e-20)
(0.74180806 -0.03327277 1.8842442e-21)
(0.74095943 -0.032738541 -5.7185848e-21)
(0.74010419 -0.032192473 3.3187353e-21)
(0.73924226 -0.031634062 -2.2443681e-21)
(0.73837358 -0.031062788 -2.2797222e-21)
(0.73749808 -0.030478113 5.4505619e-21)
(0.73661573 -0.029879476 6.0422379e-21)
(0.7357265 -0.029266293 -8.5666232e-21)
(0.73483038 -0.028637964 8.2204814e-21)
(0.73392736 -0.027993873 -2.3296357e-21)
(0.73301746 -0.027333381 -4.9708294e-21)
(0.7321007 -0.026655828 -2.9148077e-21)
(0.73117714 -0.025960538 2.7545165e-22)
(0.73024683 -0.025246812 3.6021731e-21)
(0.72930984 -0.024513936 -9.0477347e-21)
(0.72836627 -0.023761173 5.8560711e-21)
(0.72741623 -0.022987764 6.418302e-21)
(0.72645987 -0.022192933 -2.4592235e-21)
(0.72549734 -0.021375876 -3.0410213e-21)
(0.72452882 -0.020535774 6.5721704e-21)
(0.72355453 -0.01967178 -1.1647806e-20)
(0.72257472 -0.018783026 6.0905395e-21)
(0.72158965 -0.017868621 9.5330236e-21)
(0.72059964 -0.016927651 -5.413693e-21)
(0.71960504 -0.01595918 -9.5897565e-21)
(0.71860623 -0.014962244 6.775528e-21)
(0.71760366 -0.01393586 -8.3081521e-22)
(0.71659782 -0.012879016 4.5038117e-21)
(0.71558923 -0.011790679 9.2979563e-21)
(0.71457851 -0.010669788 -1.5187153e-20)
(0.71356632 -0.00951526 -6.877243e-21)
(0.71255339 -0.0083259849 1.3635499e-20)
(0.71154052 -0.007100827 -1.2375303e-20)
(0.7105286 -0.0058386371 -3.310278e-21)
(0.70951861 -0.0045382708 9.4860253e-21)
(0.70851181 -0.0031987186 7.0980237e-21)
(0.70750925 -0.0018200876 9.5898741e-21)
(0.70651325 -0.00040313008 -2.5516674e-20)
(0.70553035 0.0010535906 7.1433439e-21)
(0.70455078 0.0025534936 -5.8230662e-21)
(0.70357963 0.0041003391 -1.0211853e-20)
(0.70261852 0.0056956182 9.6523776e-21)
(0.70166948 0.0073402087 7.1911377e-21)
(0.70073644 0.0090339221 -5.8416391e-21)
(0.69979669 0.010773321 9.6790652e-21)
(0.69890239 0.01256371 4.255884e-21)
(0.69837736 0.01442671 -7.1702438e-21)
(0.69842664 0.016368908 7.8775791e-21)
(0.69903751 0.018385319 -2.9708084e-21)
(0.70018149 0.020472636 2.6515518e-20)
(0.70185374 0.022627448 -2.8404091e-20)
(0.70404082 0.024845579 1.2633659e-20)
(0.7067263 0.027122169 -3.7820057e-20)
(0.70989169 0.02945157 7.0148913e-22)
(0.71351725 0.031827616 4.336058e-20)
(0.71758285 0.034243575 2.6291852e-20)
(0.72206722 0.03669181 2.5024791e-21)
(0.72694897 0.039164103 5.5081391e-21)
(0.73220744 0.04165175 3.3172396e-20)
(0.73782178 0.044145367 -6.5363148e-20)
(0.74377235 0.046635781 2.4704306e-20)
(0.75002958 0.049113671 -1.8119869e-20)
(0.7565561 0.051569347 -5.0896784e-20)
(0.76331924 0.053993423 2.1361843e-20)
(0.77029118 0.056376272 -1.9584579e-20)
(0.76490749 -0.032269129 4.9360179e-22)
(0.76406963 -0.031728458 -1.034102e-21)
(0.76322633 -0.031175878 9.5969523e-22)
(0.76237754 -0.030610903 4.5325723e-21)
(0.76152319 -0.030033036 -6.4837048e-21)
(0.76066325 -0.029441759 3.2073099e-21)
(0.75979769 -0.028836531 -4.3429372e-21)
(0.75892651 -0.028216783 5.689362e-21)
(0.75804971 -0.027581938 -1.0742924e-21)
(0.75716731 -0.026931399 -4.8147433e-21)
(0.75627934 -0.026264549 -4.5051232e-21)
(0.75538586 -0.025580749 8.1620279e-21)
(0.75448693 -0.024879344 -5.8194651e-21)
(0.75358264 -0.024159659 1.0680158e-20)
(0.75267309 -0.023421005 -2.4002572e-21)
(0.75175841 -0.022662673 1.7136654e-22)
(0.75083874 -0.021883932 -6.354831e-21)
(0.74991426 -0.021084035 3.8837681e-21)
(0.74898515 -0.020262215 -2.4925352e-21)
(0.74805164 -0.019417685 -6.2917838e-21)
(0.74711398 -0.018549638 6.1927363e-21)
(0.74617244 -0.017657248 1.528818e-20)
(0.74522734 -0.016739668 -7.3017015e-21)
(0.74427903 -0.015796033 -3.288046e-24)
(0.7433279 -0.014825458 -1.7949704e-20)
(0.74237437 -0.013827037 1.4206931e-20)
(0.74141893 -0.012799846 7.8418044e-21)
(0.74046209 -0.011742942 -7.9183098e-21)
(0.73950444 -0.01065536 1.5882547e-20)
(0.73854661 -0.0095361211 -1.1770856e-20)
(0.73758931 -0.0083842231 -2.2284691e-20)
(0.73663331 -0.0071986463 7.9669842e-21)
(0.73567943 -0.0059783542 1.0450695e-20)
(0.73472861 -0.0047223014 8.0873735e-21)
(0.73378195 -0.0034294784 -1.061544e-20)
(0.73284051 -0.0020995704 -3.9248434e-21)
(0.73190555 -0.00073331649 -2.498481e-21)
(0.73098444 0.0006699775 1.0640801e-20)
(0.7300674 0.0021127902 -5.4024363e-21)
(0.7291592 0.0035988686 3.8728343e-21)
(0.72826172 0.0051299996 1.258012e-20)
(0.72737584 0.0067068907 -2.73609e-20)
(0.72650419 0.0083306078 1.5080374e-20)
(0.72565038 0.010000774 8.2446104e-21)
(0.72479313 0.011714012 -1.4650577e-20)
(0.72398214 0.013475617 -5.5152122e-21)
(0.72351658 0.015305651 -1.9687844e-21)
(0.72358556 0.017209681 -1.7948618e-20)
(0.72418064 0.019182185 2.3904672e-20)
(0.72527532 0.021219553 -3.062413e-20)
(0.72686544 0.023318205 4.4606677e-20)
(0.72893903 0.025473695 -7.390223e-21)
(0.73148108 0.027680943 3.8929521e-20)
(0.73447447 0.029934121 -3.830745e-20)
(0.73790087 0.032226957 -3.5709756e-20)
(0.74174143 0.034552622 -4.6122274e-21)
(0.74597609 0.036903459 9.887294e-20)
(0.75058465 0.039271341 3.6324709e-20)
(0.75554746 0.041647703 -3.8957759e-20)
(0.76084465 0.044023388 3.7782672e-20)
(0.76645739 0.046389489 -4.599738e-20)
(0.77235772 0.048737082 1.5288094e-21)
(0.77851047 0.05105698 -2.4326649e-20)
(0.78488485 0.053340343 -6.4259925e-20)
(0.79145461 0.055578175 3.0374961e-20)
(0.78696274 -0.031250936 -5.8791729e-21)
(0.7861439 -0.030705093 7.6572113e-21)
(0.78532087 -0.030147287 3.8390814e-21)
(0.7844936 -0.029577053 -6.9606661e-21)
(0.78366203 -0.028993925 5.0528667e-21)
(0.78282616 -0.028397409 -8.2740186e-21)
(0.78198599 -0.027786975 6.3043753e-21)
(0.78114151 -0.027162072 -8.4192724e-21)
(0.78029276 -0.026522142 5.1773726e-21)
(0.77943976 -0.025866616 6.9781142e-21)
(0.77858259 -0.0251949 -3.5660883e-21)
(0.77772132 -0.024506376 4.5245049e-21)
(0.77685603 -0.02380041 1.1605425e-21)
(0.77598685 -0.023076359 -6.0090121e-22)
(0.77511389 -0.022333561 -1.4512517e-20)
(0.77423733 -0.021571336 1.2444863e-20)
(0.77335733 -0.020788985 -7.962094e-22)
(0.77247409 -0.019985793 -1.0845755e-20)
(0.77158785 -0.019161029 5.5624643e-21)
(0.77069885 -0.018313945 1.5792993e-20)
(0.76980738 -0.017443773 -2.4566567e-20)
(0.76891376 -0.016549731 8.8444551e-21)
(0.76801833 -0.015631017 5.729474e-21)
(0.76712147 -0.014686819 -4.0660351e-21)
(0.76622362 -0.013716303 -8.0796204e-21)
(0.76532524 -0.012718624 1.3228678e-20)
(0.76442684 -0.011692918 1.6944432e-21)
(0.76352897 -0.01063831 -1.8243564e-20)
(0.76263226 -0.0095539104 2.7588702e-20)
(0.76173738 -0.0084388163 -2.5790775e-20)
(0.76084505 -0.0072921117 9.1107004e-21)
(0.75995609 -0.0061128698 -7.1485349e-22)
(0.75907134 -0.0049001556 -4.2685098e-21)
(0.75819181 -0.0036530297 9.4184019e-21)
(0.75731854 -0.0023708811 -8.4457205e-21)
(0.75645242 -0.001054134 -1.1899119e-20)
(0.75559872 0.00029739481 9.4981076e-21)
(0.75475295 0.0016855053 1.3731096e-20)
(0.75391593 0.0031133854 -1.1969012e-20)
(0.75309025 0.0045829928 1.7224888e-20)
(0.75227687 0.0060949583 -1.6220767e-20)
(0.75147721 0.0076503531 7.7029976e-21)
(0.75069392 0.0092500854 1.2285777e-20)
(0.7499303 0.010893433 -7.4215361e-22)
(0.74916664 0.012577459 -2.1922453e-20)
(0.74844977 0.014307367 -2.5799257e-21)
(0.74805449 0.016100809 1.2609425e-20)
(0.74815377 0.017962424 1.0110283e-20)
(0.74874288 0.019886756 -1.3224682e-20)
(0.74979736 0.021869863 1.568075e-20)
(0.75131358 0.023907936 -3.7028517e-20)
(0.75328093 0.025996354 1.1461861e-20)
(0.75568573 0.028129871 -2.7382236e-20)
(0.75851229 0.030302584 -3.0535822e-20)
(0.76174365 0.032508182 2.3171667e-20)
(0.76536226 0.034739809 -4.4168011e-20)
(0.76934943 0.036989883 -4.5035229e-20)
(0.77368621 0.039250424 -2.8630596e-21)
(0.77835413 0.041513077 8.0599495e-21)
(0.78333448 0.043768985 7.3424789e-20)
(0.78860947 0.046009578 -7.0664107e-20)
(0.79415293 0.048226388 1.9687178e-20)
(0.79993216 0.050410794 7.0166016e-20)
(0.80591847 0.052554553 9.0511126e-20)
(0.81208736 0.05464935 3.1819769e-20)
(0.81115937 -0.032313837 6.5748843e-22)
(0.81037579 -0.031807966 -4.4028439e-21)
(0.80958955 -0.03129168 3.7563628e-21)
(0.80880052 -0.030764717 -1.2291573e-21)
(0.80800868 -0.030226709 1.1466453e-21)
(0.80721398 -0.029677173 1.4702448e-21)
(0.80641639 -0.029115635 -1.2507732e-21)
(0.80561584 -0.028541648 3.954864e-21)
(0.80481231 -0.02795478 -1.2523052e-21)
(0.80400581 -0.027354563 -2.2012326e-21)
(0.80319638 -0.026740479 -2.2468833e-21)
(0.80238401 -0.026111994 -1.9487761e-21)
(0.80156877 -0.025468585 8.5603162e-21)
(0.80075072 -0.024809717 -8.7074594e-21)
(0.79992994 -0.024134818 1.2281249e-21)
(0.79910653 -0.023443288 1.5748848e-21)
(0.79828062 -0.022734519 -2.0168139e-21)
(0.79745234 -0.0220079 8.8853124e-21)
(0.79662185 -0.021262801 -2.3537824e-21)
(0.79578934 -0.020498572 -9.1009963e-21)
(0.79495502 -0.019714543 5.3418876e-21)
(0.79411911 -0.018910037 -2.4376632e-21)
(0.79328188 -0.018084363 5.428251e-21)
(0.79244362 -0.017236814 1.6917841e-21)
(0.79160463 -0.016366663 -1.4598341e-20)
(0.79076528 -0.015473169 1.6509465e-21)
(0.78992593 -0.014555582 6.5805972e-21)
(0.78908701 -0.01361314 -1.4529617e-20)
(0.78824898 -0.012645066 2.2953542e-20)
(0.78741233 -0.011650572 -1.5014151e-20)
(0.7865776 -0.010628858 -3.6666608e-21)
(0.7857454 -0.0095791188 1.1088445e-20)
(0.78491635 -0.0085005376 6.8260547e-21)
(0.78409117 -0.0073922915 -3.6705027e-21)
(0.78327061 -0.0062535487 1.7836623e-21)
(0.78245549 -0.0050834732 -1.5461935e-20)
(0.78164671 -0.0038812208 1.1352111e-20)
(0.78084528 -0.0026460556 1.3269114e-20)
(0.78005198 -0.0013779967 -1.451951e-20)
(0.77926963 -7.7175358e-05 1.8084501e-21)
(0.77849943 0.0012576045 -1.12505e-20)
(0.77773801 0.0026288866 1.8063209e-21)
(0.77698862 0.0040388567 7.0609706e-21)
(0.77625241 0.0054882247 1.4457836e-21)
(0.77553055 0.006977768 1.82754e-21)
(0.77482459 0.0085084672 -5.6946327e-21)
(0.77413706 0.010080974 -2.6957982e-21)
(0.77347098 0.011694322 1.8778954e-20)
(0.77280815 0.013345818 -1.6925447e-20)
(0.77219254 0.015040383 9.8200856e-21)
(0.77187494 0.016793365 -5.930403e-22)
(0.77201269 0.018608519 -1.0053811e-20)
(0.77260395 0.020480496 3.7740981e-20)
(0.7736262 0.022405141 -1.3508188e-20)
(0.77507617 0.024378505 1.1146613e-20)
(0.77694442 0.026395849 5.4508653e-20)
(0.7792185 0.028451878 -1.8394109e-21)
(0.78188411 0.030540636 2.6618662e-20)
(0.78492566 0.032655778 2.3973095e-20)
(0.78832701 0.034790519 8.3771724e-21)
(0.7920709 0.036937409 -1.5212409e-21)
(0.79613982 0.039088663 -6.2357996e-21)
(0.80051666 0.041236193 2.3162687e-20)
(0.80518409 0.043371499 -6.691909e-20)
(0.81012556 0.045486413 8.3400032e-20)
(0.81531692 0.047572986 4.6624134e-20)
(0.82072812 0.049623217 -5.5470411e-20)
(0.8263327 0.051629516 -7.451671e-20)
(0.83210804 0.053584285 -1.0815276e-20)
(0.83344892 -0.03276064 6.7624763e-23)
(0.83268961 -0.03228203 -2.6597459e-21)
(0.83192939 -0.031794356 3.038981e-21)
(0.83116818 -0.03129703 3.0939028e-21)
(0.83040574 -0.030789373 -5.7463831e-21)
(0.82964179 -0.030271067 5.9276208e-22)
(0.82887629 -0.029742013 -4.1824049e-21)
(0.8281093 -0.029201922 4.1488175e-21)
(0.82734082 -0.028650258 6.2224665e-21)
(0.8265708 -0.02808653 -9.9016657e-21)
(0.82579916 -0.027510368 3.798508e-21)
(0.82502591 -0.026921414 -3.4807513e-21)
(0.82425109 -0.026319222 4.33624e-21)
(0.82347475 -0.025703252 -7.2869206e-21)
(0.82269693 -0.025072975 6.4915911e-21)
(0.82191768 -0.024427906 4.4649751e-21)
(0.82113709 -0.023767552 -1.1557231e-20)
(0.82035532 -0.023091359 7.7175942e-21)
(0.81957246 -0.022398741 3.6385803e-21)
(0.81878867 -0.021689125 7.7465103e-21)
(0.8180041 -0.020961943 -7.4564915e-21)
(0.81721895 -0.020216602 3.5814476e-21)
(0.81643345 -0.019452477 -2.1184119e-20)
(0.81564782 -0.018668929 1.7064553e-20)
(0.81486232 -0.01786532 8.4881898e-21)
(0.81407724 -0.017041002 -2.1907465e-20)
(0.81329291 -0.016195308 3.7900833e-21)
(0.81250967 -0.01532755 8.2751034e-21)
(0.8117279 -0.014437033 3.7295605e-21)
(0.81094801 -0.013523059 -7.9429902e-21)
(0.81017044 -0.012584921 3.7540513e-21)
(0.80939569 -0.011621896 -8.0507376e-21)
(0.80862428 -0.010633255 3.7794153e-21)
(0.80785678 -0.0096182605 -5.939124e-21)
(0.80709381 -0.0085761771 2.3183725e-20)
(0.80633603 -0.0075062634 -1.3154524e-20)
(0.80558417 -0.0064077735 8.8821093e-21)
(0.80483899 -0.0052799574 3.921407e-21)
(0.80410134 -0.0041220566 -2.3144556e-20)
(0.80337216 -0.0029333231 3.7329088e-21)
(0.80265229 -0.0017134794 9.0117532e-21)
(0.80194267 -0.00046280725 -1.3516752e-20)
(0.80124826 0.00081949865 9.064463e-21)
(0.80056299 0.0021353552 3.7975147e-21)
(0.79989048 0.0034870267 -8.4831448e-21)
(0.79923211 0.0048754663 9.1316026e-21)
(0.79858878 0.0063011794 3.9951906e-21)
(0.79796196 0.0077649684 -2.3889725e-20)
(0.79735312 0.0092676539 4.0070941e-21)
(0.79676465 0.010809639 2.4380317e-20)
(0.79619903 0.012389506 -8.7225827e-21)
(0.79564006 0.014005278 -1.2487324e-20)
(0.79512822 0.015661101 1.0513529e-21)
(0.79489148 0.017369456 1.3882616e-20)
(0.79507192 0.019133827 -5.1103883e-21)
(0.79566985 0.020949223 -2.7302102e-20)
(0.79666456 0.022811396 1.8732678e-20)
(0.79805307 0.024716247 5.332679e-21)
(0.79982701 0.026658919 -7.4152027e-20)
(0.80197525 0.028634082 -1.7585237e-20)
(0.80448485 0.030635794 -7.7866894e-20)
(0.80734173 0.032657708 5.5454104e-21)
(0.8105313 0.034693151 1.456764e-20)
(0.81403789 0.036734862 -3.8158368e-20)
(0.81784558 0.038775323 -4.6717569e-20)
(0.8219388 0.040806787 4.8270022e-21)
(0.82630172 0.04282119 2.0700491e-20)
(0.83091919 0.044810839 -6.1481055e-20)
(0.83576914 0.046768388 -2.1223077e-20)
(0.84082416 0.048686518 4.0586157e-20)
(0.84606004 0.050558326 2.8592271e-20)
(0.85145597 0.052376961 5.5896088e-20)
(0.85329892 -0.032209558 1.3840928e-21)
(0.85255303 -0.031740505 1.488654e-21)
(0.85180861 -0.03126173 6.6751194e-22)
(0.85106489 -0.030773438 -8.3911341e-21)
(0.85032171 -0.030275317 3.48705e-21)
(0.849579 -0.029766876 9.390625e-22)
(0.84883631 -0.029247947 9.5505874e-22)
(0.8480936 -0.028718577 -6.6655389e-21)
(0.84735096 -0.028178444 9.2673902e-22)
(0.84660837 -0.027626715 3.9431921e-21)
(0.84586557 -0.027062744 9.8105621e-22)
(0.84512249 -0.026486297 1.6065283e-21)
(0.84437924 -0.025897162 -2.9670125e-21)
(0.84363595 -0.025294882 -3.6325455e-21)
(0.84289267 -0.02467888 1.9256302e-21)
(0.84214943 -0.024048684 3.5271195e-21)
(0.84140628 -0.023403916 -9.401589e-21)
(0.84066337 -0.022744138 3.2226477e-21)
(0.83992086 -0.022068779 1.3391902e-21)
(0.83917888 -0.021377239 3.6275738e-21)
(0.83843757 -0.020668976 1.7139601e-21)
(0.83769714 -0.019943473 3.7107541e-21)
(0.83695781 -0.019200176 4.0900512e-21)
(0.83621983 -0.018438478 -1.8730851e-21)
(0.83548346 -0.017657773 4.825874e-21)
(0.83474898 -0.016857476 -2.4465664e-20)
(0.83401671 -0.016036993 1.0452928e-21)
(0.83328701 -0.015195693 3.7976464e-21)
(0.83256024 -0.014332921 1.0842308e-21)
(0.83183681 -0.013448028 6.9885323e-21)
(0.83111714 -0.01254037 1.8293057e-21)
(0.83040173 -0.011609296 3.2477598e-21)
(0.82969107 -0.010654137 1.8675226e-21)
(0.82898573 -0.0096742175 4.0070083e-21)
(0.82828627 -0.008668865 1.5497901e-21)
(0.82759335 -0.0076374149 -2.5904268e-20)
(0.82690763 -0.0065792003 1.8461384e-21)
(0.82622986 -0.0054935508 3.6638987e-21)
(0.8255608 -0.0043797947 4.4205307e-21)
(0.82490134 -0.0032372613 1.171958e-21)
(0.82425232 -0.0020654479 4.4689773e-21)
(0.82361442 -0.0008644112 4.123412e-21)
(0.82299153 0.00036622052 1.9352943e-21)
(0.8223797 0.0016277045 4.1522675e-21)
(0.82178124 0.0029221733 -1.4271159e-20)
(0.82119772 0.0042508545 -1.0609934e-20)
(0.82063002 0.0056141405 4.534652e-22)
(0.82007941 0.0070126947 5.2859841e-21)
(0.81954734 0.0084472413 3.4319904e-21)
(0.81903524 0.0099183836 4.1765584e-21)
(0.81854527 0.011426119 1.9423991e-21)
(0.81807959 0.012969695 -1.3257447e-20)
(0.81762344 0.014547323 3.8472491e-21)
(0.81721337 0.016161647 -9.8426266e-21)
(0.81705571 0.017822909 1.0913287e-21)
(0.81727753 0.019533852 2.0250471e-20)
(0.81788123 0.021289892 -2.5665688e-22)
(0.81884811 0.023086738 2.3524997e-20)
(0.82017568 0.024920132 -1.5302188e-20)
(0.82185687 0.026785275 4.4274379e-20)
(0.82388201 0.02867684 3.8594554e-20)
(0.82623967 0.030588868 -1.5836506e-20)
(0.82891745 0.032515202 3.7875989e-20)
(0.83190237 0.034449363 -4.2970267e-20)
(0.83518042 0.036384376 4.9493097e-20)
(0.83873732 0.038313092 3.904551e-20)
(0.84255901 0.040228199 -2.824333e-20)
(0.84663114 0.042122162 -1.9633759e-20)
(0.85093988 0.043987849 2.0757365e-20)
(0.85546514 0.045818565 -2.4816129e-20)
(0.8601819 0.047607718 -5.2623921e-20)
(0.86506794 0.049349109 2.8498899e-20)
(0.87010407 0.051036632 -3.1082512e-20)
(0.87141785 -0.03117254 1.0440077e-20)
(0.87067242 -0.030708623 -1.0242422e-21)
(0.86993148 -0.030235845 -5.8971174e-21)
(0.86919483 -0.029754171 -1.1033328e-21)
(0.86846197 -0.029261207 1.0856034e-22)
(0.86773237 -0.028756119 5.7141554e-21)
(0.86700561 -0.028239357 -2.0575441e-21)
(0.86628159 -0.027711353 -1.4806007e-22)
(0.86555912 -0.027172279 -8.3776022e-22)
(0.86483871 -0.026621571 1.3720795e-22)
(0.86411998 -0.026058856 -1.1556823e-21)
(0.86340267 -0.025484046 -1.1735221e-21)
(0.86268692 -0.024897 4.2825408e-22)
(0.86197286 -0.024297079 6.1186594e-21)
(0.86126039 -0.023683434 -1.1656271e-21)
(0.86054941 -0.023055591 -1.1831749e-21)
(0.85984001 -0.022413391 -1.2780446e-20)
(0.85913249 -0.021756456 1.8236838e-20)
(0.85842703 -0.021084136 -1.431758e-20)
(0.85772373 -0.020395853 5.6799126e-21)
(0.85702271 -0.019691182 1.2386066e-20)
(0.8563242 -0.018969701 -5.7634036e-21)
(0.85562847 -0.018230872 -1.4741676e-20)
(0.85493577 -0.017474071 1.9041079e-20)
(0.85424637 -0.016698709 -2.1401268e-20)
(0.85356055 -0.01590426 1.3536351e-20)
(0.85287869 -0.015090187 -8.2483767e-21)
(0.85220115 -0.014255888 1.2606019e-20)
(0.85152834 -0.013400735 -1.3841955e-20)
(0.85086066 -0.012524131 1.4232486e-20)
(0.85019857 -0.011625501 -1.5490432e-20)
(0.84954255 -0.010704251 1.999419e-20)
(0.84889316 -0.0097597564 -1.4139801e-20)
(0.84825094 -0.0087913869 1.3049555e-20)
(0.84761649 -0.007798532 -1.5810113e-20)
(0.84699043 -0.0067805963 1.4696199e-20)
(0.84637347 -0.0057369801 -8.6863353e-21)
(0.84576633 -0.0046670756 1.3657438e-20)
(0.84516977 -0.0035702727 -1.4545374e-20)
(0.8445846 -0.0024460061 1.3406706e-20)
(0.84401152 -0.0012940913 -1.5022014e-20)
(0.84345197 -0.00011442341 -7.6781103e-21)
(0.84290752 0.0010939216 1.3886976e-20)
(0.84237606 0.002332608 -1.6376038e-20)
(0.84186009 0.0036029622 1.3951703e-20)
(0.84136062 0.0049054518 -1.4863367e-20)
(0.84087871 0.0062406093 2.0769456e-20)
(0.84041575 0.0076090428 -7.3376148e-21)
(0.83997315 0.0090113364 7.3097238e-21)
(0.83955231 0.010448025 -1.6139496e-20)
(0.83915524 0.011919364 1.3674873e-20)
(0.83878411 0.013424598 -1.649181e-20)
(0.83842523 0.014961506 6.7816667e-21)
(0.83811216 0.016532292 2.4367938e-20)
(0.83803172 0.018145531 -1.8101982e-20)
(0.83829612 0.019802974 -2.8055238e-20)
(0.83890939 0.021499892 2.4101105e-20)
(0.83985475 0.023231623 1.2259255e-20)
(0.84113004 0.024993926 -1.4062141e-20)
(0.84272945 0.026781982 -2.3581163e-20)
(0.84464455 0.02859044 5.1428309e-21)
(0.84686543 0.030413576 2.1105979e-20)
(0.84938115 0.03224548 -2.3266919e-20)
(0.85218022 0.034079974 1.7088761e-20)
(0.85525011 0.03591048 2.0579302e-20)
(0.85857797 0.037730296 -6.1384592e-20)
(0.86215107 0.039532612 1.7245321e-21)
(0.86595634 0.041310469 6.448848e-20)
(0.86998107 0.043057332 3.1397128e-20)
(0.8742069 0.044767147 8.5035231e-21)
(0.87861087 0.046434016 6.1915087e-20)
(0.8831725 0.04805242 -2.515839e-20)
(0.88787401 0.049616945 -5.511977e-20)
(0.88818494 -0.030147971 4.2400875e-21)
(0.88743512 -0.029692371 1.9144567e-21)
(0.88669047 -0.029226731 -5.1009365e-21)
(0.88595154 -0.028750761 2.8019156e-21)
(0.88521824 -0.028263878 -2.6602393e-21)
(0.88449046 -0.027765561 2.8489464e-21)
(0.88376839 -0.027255707 2.8936206e-21)
(0.88305219 -0.026736256 -5.2987616e-21)
(0.88234163 -0.026205872 5.8027702e-21)
(0.88163605 -0.025661591 2.9879017e-21)
(0.88093508 -0.025103859 -5.5359708e-21)
(0.88023848 -0.024533107 3.0167335e-21)
(0.8795457 -0.023949629 -5.643306e-21)
(0.87885626 -0.023353192 6.0445418e-21)
(0.87817043 -0.022743199 -9.576804e-21)
(0.87748787 -0.022119442 3.2096055e-21)
(0.87680865 -0.02148194 7.0213698e-21)
(0.87613305 -0.020830265 -6.8424157e-21)
(0.87546117 -0.020163414 3.1646509e-21)
(0.87479291 -0.019480662 3.2057321e-21)
(0.87412836 -0.018781781 7.264685e-21)
(0.87346786 -0.018066513 -6.8630162e-21)
(0.87281176 -0.017334297 3.2907877e-21)
(0.87216031 -0.016584464 -6.9775016e-21)
(0.87151372 -0.015816509 -9.2675387e-21)
(0.87087229 -0.015030039 7.5937433e-21)
(0.8702364 -0.014224587 -7.3017983e-21)
(0.86960648 -0.01339954 3.3381025e-21)
(0.86898289 -0.012554258 7.7519285e-21)
(0.86836604 -0.011688191 3.4230965e-21)
(0.8677564 -0.01080084 -7.444909e-21)
(0.8671545 -0.0098916678 3.4454712e-21)
(0.86656087 -0.0089600762 7.7969555e-21)
(0.86597608 -0.0080054731 3.6692509e-21)
(0.86540071 -0.0070273159 -2.5250842e-20)
(0.86483541 -0.0060250836 7.8724245e-21)
(0.86428086 -0.0049982339 5.7265411e-21)
(0.86373777 -0.0039462002 3.5525463e-21)
(0.86320693 -0.0028684223 8.1698498e-21)
(0.86268904 -0.0017644885 -2.5797489e-20)
(0.86218473 -0.00063430566 8.2007371e-21)
(0.86169685 0.00052266886 -7.8354396e-21)
(0.86122241 0.0017075266 3.5968185e-21)
(0.86076396 0.0029216476 8.2757766e-21)
(0.86032265 0.0041657542 3.4624379e-21)
(0.85989936 0.0054401924 -7.7335607e-21)
(0.85949534 0.0067454559 8.1599176e-21)
(0.85911191 0.0080820323 -1.0016825e-20)
(0.85875044 0.0094503869 -7.7464885e-21)
(0.85841229 0.010850956 3.6557201e-21)
(0.85809945 0.012283993 3.6532608e-21)