/*--------------------------------*- C++ -*----------------------------------*\
| =========                 |                                                 |
| \\      /  F ield         | OpenFOAM: The Open Source CFD Toolbox           |
|  \\    /   O peration     | Version:  2.4.0                                 |
|   \\  /    A nd           | Web:      www.OpenFOAM.org                      |
|    \\/     M anipulation  |                                                 |
\*---------------------------------------------------------------------------*/
FoamFile
{
    version     2.0;
    format      ascii;
    class       volScalarField;
    location    "270";
    object      f;
}
// * * * * * * * * * * * * * * * * * * * * * * * * * * * * * * * * * * * * * //

dimensions      [0 0 -1 0 0 0 0];

internalField   nonuniform List<scalar> 
32000
(
0.19509991
0.061524726
0.1329084
0.047084364
0.029155293
0.0028461475
0.0065255442
0.0036261486
0.0038662425
0.0027175845
0.0024046656
0.0020761517
0.0018392183
0.0016147694
0.0014081521
0.0012220555
0.0010538393
0.00091790644
0.00079406228
0.00066947614
0.0005456056
0.00040457779
0.00025249028
8.4739431e-05
0.00023791738
0.00041390411
0.00059147276
0.00075850743
0.00090478895
0.0010214026
0.0011011753
0.0011384676
0.0011297465
0.0010757528
0.00098257313
0.00086073104
0.00072445584
0.00058441585
0.00045201313
0.00033899002
0.00025100348
0.00018993543
0.00015326676
0.00013892829
0.00014650005
0.00017084199
0.00021642227
0.000278281
0.00034356788
0.00041770943
0.00050439488
0.00060485252
0.00071656468
0.00083235497
0.00094503551
0.001049975
0.0011444509
0.0012213131
0.0012734529
0.0012932259
0.0012726129
0.0012044801
0.0010858927
0.00091848655
0.00071150725
0.00048040674
0.00024756027
0.00017763402
0.00033917695
0.00042307319
0.00045340324
0.0004371469
0.00038169241
0.00031038538
0.00023734917
0.00017256422
0.00012339615
0.00011180445
0.0001214786
0.00011260226
0.00012408189
0.00016418751
0.00021568652
0.00027808707
0.00035080735
0.00043282454
0.0005215735
0.00061314281
0.00070047793
0.00077558259
0.0008241269
0.00083046649
0.00077700792
0.00064471597
0.00039241868
0.00021346932
0.00078879437
0.0014734575
0.0022953981
0.0032142394
0.0041556374
0.0049484525
0.0053041981
0.0048311205
0.0032344267
0.0010464493
0.00094273899
0.0017040257
0.0018264931
0.0018880462
0.0020854576
0.0022052481
0.0018956102
0.0011528009
0.00022084679
0.00094332176
0.0018002079
0.002703222
0.0037207818
0.0048271287
0.0058903919
0.0066751998
0.0068908991
0.0063129863
0.0049149041
0.0029926289
0.0010610519
0.00071624941
0.0016330211
0.0019977805
0.0019598639
0.0015430057
0.00076443761
0.00021417916
0.00060624809
0.00084621783
0.0010935501
0.0013432876
0.0015589972
0.0016867254
0.0016028373
0.0011626427
0.00035674186
0.00093657504
0.0022035149
0.0035729616
0.0049609085
0.0063068816
0.0075783096
0.0087449267
0.0098038691
0.010607712
0.011101059
0.0096871424
0.0075674113
0.0067080289
0.0060915171
0.005739854
0.0055589871
0.0054966541
0.0055247821
0.0056418094
0.0058214552
0.0060547618
0.006358443
0.0067926909
0.0073293514
0.0078926244
0.0084520584
0.0089815882
0.0094590764
0.0098656296
0.010183495
0.010362058
0.010339867
0.010106755
0.0097172297
0.0092185545
0.0086057875
0.0078933255
0.0070900577
0.0061883987
0.0051913699
0.0040716343
0.0028033002
0.00089295993
0.0017498942
0.0046266848
0.0081956692
0.012643288
0.01859677
0.024363458
0.034287998
0.02902913
0.047195994
0.032332884
0.063619934
0.0638205
0.14504237
0.062407991
0.44242817
0.13894714
0.27936758
0.092418133
0.059039601
0.0083207725
0.010759827
0.0049533437
0.0049731357
0.0034040139
0.0029529515
0.0025020331
0.002192341
0.0019134181
0.0016680628
0.0014531897
0.0012639915
0.0011126557
0.00097706106
0.00084285119
0.00071052136
0.00056224518
0.00040363376
0.00023056671
0.0003724111
0.00054033854
0.0007102509
0.00087012452
0.0010100489
0.0011212687
0.0011966305
0.0012304946
0.0012193252
0.0011638131
0.0010699645
0.00094825115
0.00081277381
0.00067397097
0.00054291707
0.00043108416
0.00034406948
0.00028380124
0.00024799625
0.00023493095
0.00024476494
0.00027333588
0.00032719428
0.00039825588
0.00046931105
0.00054748241
0.00063700435
0.00073961538
0.00085315939
0.00097078718
0.0010854352
0.0011924402
0.0012890453
0.0013682435
0.0014230097
0.0014458213
0.0014288422
0.001365143
0.0012519355
0.0010909633
0.00089143784
0.00066872306
0.00044570302
0.00038273254
0.0005445826
0.00062983822
0.00065989703
0.00064204842
0.00058463083
0.00051146634
0.00043711932
0.00037183261
0.00032318817
0.00031242413
0.0003232677
0.00031669483
0.00033002197
0.00037113483
0.00042313533
0.00048534847
0.00055715063
0.00063752429
0.0007239572
0.00081260556
0.00089654361
0.00096788099
0.0010125237
0.0010150606
0.00095825429
0.0008235304
0.00057259791
0.00039807352
0.00096127517
0.00163865
0.0024528904
0.0033635892
0.0042965381
0.0050825675
0.0054377621
0.0049790842
0.0034233075
0.0013017808
0.0012099176
0.0019603072
0.002082845
0.0021371083
0.0023190001
0.0024201893
0.0020997672
0.0013577978
0.00044393658
0.0011457486
0.0019917991
0.0028864752
0.0038942721
0.0049891891
0.00604082
0.0068168675
0.007031067
0.006462914
0.0050877033
0.0031983741
0.0013079666
0.00097013818
0.0018654914
0.0022250382
0.0021818441
0.0017615001
0.00098907768
0.00044646131
0.00082595554
0.0010654996
0.0013126306
0.0015621024
0.0017768242
0.0019012327
0.0018119671
0.0013683737
0.00057290818
0.001129909
0.0023683289
0.0037148093
0.0050824696
0.0064105416
0.0076658803
0.0088178747
0.0098617145
0.010651629
0.011123545
0.0097283008
0.0076396608
0.0067781842
0.0061642043
0.0058134342
0.0056331406
0.0055713052
0.0056000155
0.0057172433
0.005897134
0.0061310156
0.006435786
0.0068700221
0.0074055022
0.0079675607
0.0085258236
0.0090543354
0.0095310272
0.0099370198
0.010254186
0.010432116
0.01041025
0.010179058
0.0097924802
0.0092970754
0.0086882371
0.0079803386
0.0071822204
0.006286714
0.0052969462
0.0041867894
0.0029281049
0.0010720801
0.0019619115
0.0048535399
0.0084477947
0.012929284
0.018925066
0.024754747
0.034759899
0.029745422
0.049312871
0.035123183
0.087950694
0.10643601
0.30318516
0.14809299
0.65594667
0.21003846
0.39603734
0.13046062
0.084091555
0.014030733
0.014886957
0.006361797
0.0060969043
0.0041130927
0.0035143495
0.0029392519
0.0025544354
0.0022197237
0.0019345628
0.0016901227
0.0014793107
0.0013120309
0.0011642356
0.0010200328
0.00087892861
0.00072314112
0.00055778655
0.00037923385
0.00050940344
0.0006690119
0.00083109561
0.0009836857
0.0011171648
0.0012229326
0.0012938551
0.0013242931
0.0013107077
0.0012537387
0.0011593058
0.001037818
0.00090323739
0.00076577302
0.00063616446
0.00052559796
0.00043960014
0.00038014112
0.00034517573
0.00033333503
0.00034536918
0.00037810493
0.00044002021
0.00051994025
0.00059650621
0.00067843591
0.00077051931
0.00087501307
0.0009901386
0.0011093844
0.001225813
0.0013347242
0.0014333245
0.0015147541
0.0015720745
0.0015978899
0.001584556
0.0015253568
0.0014176583
0.0012633158
0.0010715054
0.00085749857
0.00064466736
0.0005888984
0.00075107559
0.00083765666
0.00086731945
0.00084767739
0.00078807022
0.00071283525
0.00063700376
0.00057109687
0.00052291977
0.00051296697
0.00052499838
0.0005207888
0.00053601282
0.00057814791
0.0006306337
0.00069260685
0.00076339951
0.00084199998
0.00092595177
0.0010114828
0.0010918034
0.0011591347
0.0011996313
0.0011981278
0.001137762
0.0010004539
0.00075086772
0.00058076584
0.0011314075
0.0018011163
0.0026072902
0.0035094709
0.0044336047
0.0052125992
0.0055673588
0.0051239914
0.0036112319
0.0015589504
0.0014800978
0.0022196006
0.0023420557
0.0023885598
0.0025541319
0.0026357851
0.0023039519
0.0015627523
0.00066735373
0.0013479326
0.0021826523
0.0030685954
0.0040661943
0.0051491854
0.0061886947
0.0069556492
0.0071683873
0.0066105979
0.0052594841
0.0034047959
0.00155735
0.0012271238
0.0021006422
0.0024547509
0.0024060757
0.0019821213
0.0012160582
0.00068137754
0.0010481165
0.0012873109
0.0015344084
0.0017838008
0.0019976915
0.0021188244
0.0020240994
0.0015770679
0.00079220939
0.0013256063
0.0025343944
0.0038569476
0.0052035081
0.0065129833
0.0077516262
0.0088884586
0.0099166769
0.010692232
0.011142452
0.0097674701
0.0077119504
0.006848982
0.0062379093
0.0058882591
0.0057086825
0.0056474439
0.0056768069
0.0057942702
0.0059744292
0.0062089097
0.0065147764
0.0069489215
0.0074830605
0.0080437166
0.0086006032
0.0091278798
0.0096035491
0.010008741
0.010324944
0.010501984
0.010480259
0.01025091
0.0098672688
0.0093751386
0.0087702638
0.0080669823
0.0072740765
0.0063847998
0.0054023738
0.0043018286
0.0030530179
0.0012527971
0.0021759308
0.0050818877
0.0087005321
0.013215019
0.019248794
0.025143135
0.03520267
0.030487771
0.051214411
0.037980979
0.10759538
0.14095719
0.42918686
0.22768353
0.85036544
0.27670626
0.49330563
0.16277567
0.10521468
0.019943359
0.018917963
0.0078536317
0.0072382414
0.0048451641
0.0040888023
0.0033876689
0.0029253001
0.0025334704
0.0022074331
0.0019326404
0.0016995881
0.001515824
0.0013553765
0.0012008123
0.0010506212
0.00088706441
0.00071475504
0.00053055477
0.00064869814
0.00079971177
0.00095378574
0.0010989661
0.0012259121
0.0013261734
0.0013926361
0.0014196616
0.0014037083
0.0013453631
0.0012504522
0.0011293088
0.00099574401
0.00085973744
0.00073168626
0.00062247463
0.00053754689
0.00047891007
0.00044475885
0.00043408794
0.00044824898
0.000485067
0.00055477869
0.00064316534
0.00072495046
0.00081033729
0.00090468029
0.0010107618
0.001127197
0.0012478223
0.0013658282
0.0014764717
0.0015769202
0.0016604658
0.001720259
0.0017490363
0.001739354
0.0016847191
0.0015826591
0.0014351461
0.0012513193
0.0010463535
0.00084408298
0.00079576987
0.00095830562
0.0010461784
0.0010753153
0.0010536686
0.00099163255
0.00091410083
0.0008365996
0.00076994538
0.00072217336
0.00071301272
0.00072625017
0.0007244633
0.0007416338
0.00078480557
0.00083775786
0.00089943405
0.00096911964
0.0010458094
0.0011271059
0.0012093133
0.0012857855
0.001348862
0.0013849587
0.0013791697
0.0013150288
0.0011749852
0.00092672933
0.00076103952
0.0012986941
0.0019603526
0.0027580891
0.0036513698
0.0045663151
0.0053380173
0.0056924541
0.0052653239
0.0037977223
0.0018175109
0.0017529315
0.0024816392
0.0026038633
0.0026421168
0.0027905395
0.0028516974
0.0025078144
0.0017673148
0.00089071681
0.0015495058
0.0023723786
0.0032491763
0.0042361303
0.0053066884
0.0063335764
0.0070910957
0.0073024033
0.0067555843
0.0054298127
0.0036115005
0.0018088341
0.0014868822
0.0023382009
0.002686653
0.0026323037
0.0022046282
0.0014451448
0.0009186885
0.0012725096
0.001511427
0.0017586666
0.002008176
0.0022213986
0.0023392971
0.0022390167
0.0017884916
0.0010143697
0.0015233861
0.0027014112
0.0039990493
0.0053236749
0.0066138383
0.0078351625
0.0089562782
0.0099683477
0.010729113
0.011157433
0.0098043422
0.0077840143
0.0069202159
0.0063124381
0.0059641346
0.0057854075
0.0057248462
0.0057549057
0.005872606
0.0060530166
0.0062880726
0.0065949842
0.0070288862
0.0075614418
0.0081204215
0.0086756399
0.0092013807
0.0096757237
0.010079806
0.010394728
0.010570583
0.010548805
0.01032123
0.0099405323
0.0094517066
0.0088508632
0.0081522904
0.0073647036
0.0064817849
0.0055068369
0.0044160006
0.0031774178
0.0014346438
0.0023913784
0.0053108824
0.0089527225
0.013498978
0.019566114
0.025526318
0.035615034
0.031252518
0.05291552
0.040888063
0.12344194
0.16918311
0.53453775
0.30321333
1.035298
0.34042919
0.5780487
0.19056061
0.1231276
0.026025923
0.022865115
0.0094310696
0.0083983392
0.0056007742
0.0046764544
0.0038472961
0.0033048665
0.0028545548
0.0024865501
0.0021806067
0.0019246769
0.0017238757
0.001550312
0.0013850077
0.0012254099
0.0010538206
0.00087434211
0.00068433033
0.00079009791
0.00093223508
0.0010781198
0.00121577
0.0013361028
0.0014308123
0.0014928044
0.0015164418
0.0014981803
0.001438552
0.001343283
0.0012226167
0.0010902001
0.00095578282
0.00082941249
0.00072165414
0.0006378568
0.00058005841
0.00054669465
0.00053713243
0.0005533356
0.00059413424
0.00067134229
0.00076775682
0.00085443532
0.00094294858
0.0010392229
0.0011465735
0.0012640255
0.0013857735
0.0015051374
0.0016173251
0.001719463
0.0018049986
0.0018671744
0.0018988645
0.001892835
0.0018428259
0.0017465344
0.0016060541
0.0014304864
0.0012349051
0.0010435764
0.0010029825
0.0011659222
0.0012550548
0.0012835324
0.0012596611
0.0011949444
0.0011148765
0.0010355084
0.00096797076
0.00092053529
0.00091214478
0.00092660603
0.00092730049
0.00094646701
0.00099068906
0.0010440862
0.0011054037
0.0011738782
0.0012485117
0.0013269694
0.0014056369
0.00147802
0.0015365832
0.0015680183
0.0015576935
0.0014895601
0.0013466342
0.001099698
0.00093840434
0.0014626603
0.0021158818
0.0029048104
0.0037888103
0.0046941954
0.0054583489
0.0058125722
0.0054026054
0.0039823093
0.0020769955
0.0020280542
0.0027461572
0.0028680156
0.002897508
0.0030279238
0.0030676084
0.0027110317
0.0019711655
0.00111367
0.0017501284
0.002560617
0.0034278424
0.0044036992
0.0054613193
0.0064750938
0.0072228439
0.0074327511
0.0068974968
0.005598298
0.0038181025
0.0020620379
0.0017490744
0.0025778898
0.0029204817
0.0028602825
0.0024287963
0.0016761222
0.0011581717
0.0014989303
0.0017376377
0.0019852012
0.0022350325
0.0024477535
0.0025624513
0.002456498
0.0020024008
0.0012390961
0.0017229539
0.0028690763
0.0041408051
0.0054426752
0.006712848
0.0079162878
0.0090212073
0.010016695
0.010762333
0.01116867
0.0098390054
0.007855809
0.0069918462
0.0063877329
0.0060409915
0.0058632371
0.0058034242
0.0058342139
0.0059521425
0.0061327771
0.006368373
0.006676261
0.0071097495
0.00764046
0.0081974687
0.0087507057
0.0092745877
0.0097472781
0.010149918
0.010463217
0.010637576
0.010615533
0.010389646
0.010011884
0.0095263792
0.0089296232
0.0082358406
0.0074536706
0.0065772289
0.0056098859
0.0045288444
0.0033008864
0.0016172095
0.0026077978
0.0055400084
0.0092037888
0.013780498
0.019876429
0.025903478
0.035998003
0.032037253
0.054434644
0.043828689
0.13621256
0.19248057
0.62676486
0.3762656
1.2173503
0.40237173
0.65497821
0.21474159
0.13840412
0.032245705
0.026741583
0.011096375
0.0095787909
0.0063805705
0.0052775415
0.0043181837
0.0036930887
0.0031828832
0.0027717923
0.0024338831
0.0021544252
0.0019360195
0.0017488617
0.0015724275
0.0014030954
0.0012232046
0.0010363395
0.0008403498
0.00093339463
0.0010663674
0.0012038844
0.0013338894
0.0014475365
0.0015366574
0.0015941778
0.0016144621
0.0015939634
0.0015331582
0.0014376651
0.0013176229
0.0011865007
0.0010538176
0.00092926422
0.00082306881
0.00074047053
0.00068353124
0.00065092771
0.0006424072
0.00066055617
0.00070521402
0.00078957882
0.00089353646
0.00098474868
0.0010760288
0.0011738805
0.0012821585
0.0014003143
0.0015229108
0.0016433978
0.0017569282
0.0018605846
0.0019479741
0.0020124338
0.0020469802
0.0020445996
0.0019992751
0.0019088816
0.0017756399
0.0016086134
0.0014227705
0.0012427734
0.0012101719
0.0013735772
0.0014639419
0.001491625
0.0014653016
0.0013976411
0.0013147845
0.0012333407
0.0011647744
0.0011176004
0.0011099547
0.0011256568
0.0011288898
0.0011501013
0.001195386
0.001249203
0.0013100949
0.0013772472
0.0014496707
0.0015250967
0.0015999984
0.001668042
0.0017218254
0.0017483306
0.0017332166
0.001660875
0.0015149285
0.001269311
0.001112396
0.0016228636
0.0022672632
0.0030470171
0.003921358
0.0048168121
0.005573157
0.0059272652
0.0055353747
0.0041645223
0.0023369155
0.0023050818
0.0030128866
0.0031342698
0.0031544749
0.0032660015
0.0032832226
0.0029133127
0.002174023
0.0013358936
0.0019494982
0.0027470425
0.0036042531
0.0045685548
0.0056127328
0.0066129054
0.0073505548
0.0075590851
0.0070359722
0.0057645573
0.0040242153
0.0023165661
0.0020133462
0.0028194248
0.0031559753
0.0030897767
0.0026544206
0.0019088002
0.0013996277
0.0017271968
0.0019657519
0.0022138247
0.0024641887
0.002676574
0.0027880904
0.0026763167
0.0022185386
0.0014660766
0.0019240009
0.0030370798
0.0042819068
0.0055602246
0.006809774
0.0079948309
0.0090831594
0.010061734
0.010792006
0.011176398
0.0098716006
0.0079273312
0.0070638632
0.0064637591
0.0061187808
0.0059421108
0.005883108
0.0059146523
0.0060327932
0.0062136169
0.0064497086
0.0067584933
0.0071913866
0.0077199812
0.0082747143
0.0088256449
0.0093473315
0.0098180262
0.010218872
0.010530184
0.010702709
0.010680166
0.010455852
0.010080989
0.009598795
0.0090061576
0.0083172241
0.0075405495
0.0066706872
0.0057110611
0.0046398888
0.0034230062
0.0018000835
0.0028247368
0.0057687739
0.0094532121
0.014059043
0.020179411
0.026274166
0.0363534
0.032840057
0.055792005
0.046789211
0.14649701
0.21189544
0.71098123
0.44809423
1.4013137
0.46346873
0.72744361
0.23604251
0.15150433
0.038570142
0.030561144
0.012851891
0.010781628
0.0071853257
0.0058924094
0.004800433
0.0040899534
0.0035183788
0.003063047
0.0026923336
0.0023886795
0.0021520853
0.0019508397
0.0017628737
0.0015834709
0.001395003
0.0012005302
0.00099839332
0.0010783719
0.0012018854
0.0013308562
0.0014531056
0.0015600013
0.0016435051
0.0016965619
0.001713538
0.0016908847
0.0016290211
0.001533452
0.0014141961
0.0012845294
0.0011537398
0.0010311535
0.0009266433
0.00084532268
0.0007892689
0.00075739888
0.00074984775
0.0007698347
0.00081821001
0.00090935271
0.0010203241
0.0011156771
0.0012093363
0.0013083867
0.0014172287
0.0015357563
0.0016589103
0.001780271
0.0018949296
0.0019999226
0.0020890199
0.0021556559
0.0021929953
0.0021942539
0.0021536693
0.0020693026
0.0019435076
0.0017853102
0.0016095691
0.0014413017
0.0014169756
0.0015809276
0.0016725033
0.0016992573
0.0016702489
0.0015993711
0.001513461
0.0014297207
0.0013599715
0.0013129769
0.0013060471
0.0013230055
0.0013288322
0.0013521366
0.0013984945
0.0014527022
0.0015130959
0.0015788076
0.0016488583
0.0017210506
0.0017919511
0.0018553961
0.0019041261
0.0019254293
0.0019052729
0.0018285132
0.0016794212
0.0014351368
0.0012825864
0.0017789057
0.0024141043
0.0031843234
0.0040486306
0.0049337805
0.0056820452
0.0060361126
0.0056631835
0.0043438869
0.002596758
0.002583607
0.0032815549
0.0034023932
0.0034127741
0.0035045082
0.0034982728
0.0031144069
0.0023756547
0.0015571145
0.0021473615
0.0029313762
0.0037781114
0.0047303929
0.0057606209
0.0067466988
0.0074739064
0.007681065
0.0071706467
0.005928206
0.0042294465
0.0025720079
0.0022793255
0.0030625134
0.0033928726
0.0033205627
0.0028813203
0.0021430198
0.0016428869
0.0019571556
0.0021956027
0.0024443705
0.0026954801
0.0029076895
0.0030160213
0.0028982391
0.0024366338
0.0016949785
0.002126201
0.0032050988
0.0044220319
0.0056760146
0.006904334
0.0080705463
0.0091419328
0.010103316
0.010818033
0.011180604
0.0099020749
0.0079984521
0.0071361585
0.0065403988
0.0061973776
0.0060218967
0.0059637584
0.0059960739
0.006114404
0.006295375
0.0065319109
0.0068415015
0.0072736079
0.0077998077
0.0083519521
0.0089002425
0.0094193867
0.0098877302
0.010286413
0.010595357
0.010765695
0.010742396
0.01051952
0.010147494
0.0096685766
0.0090800662
0.0083960198
0.0076249011
0.0067617046
0.0058098936
0.0047486572
0.003543366
0.0019828672
0.0030417623
0.0059967238
0.0097005446
0.014334178
0.020474915
0.026638101
0.036683439
0.033658933
0.057008822
0.049758492
0.15477932
0.22823401
0.79079613
0.51971479
1.590854
0.5244837
0.79790476
0.25503513
0.16279866
0.044966989
0.034337856
0.014700069
0.012009358
0.0080159657
0.0065215341
0.0052942107
0.0044954907
0.0038609901
0.0033602164
0.0029558304
0.0026272899
0.0023719034
0.0021560589
0.0019561452
0.0017663255
0.0015689978
0.001366692
0.0011582349
0.0012248077
0.0013385594
0.0014588048
0.0015731914
0.0016732761
0.0017511414
0.0017997509
0.0018134735
0.0017887585
0.0017259673
0.0016304844
0.0015121922
0.0013841581
0.0012554369
0.0011349831
0.0010322949
0.00095234215
0.00089720757
0.00086604614
0.00085938746
0.00088109324
0.00093302349
0.0010305267
0.0011479398
0.0012470084
0.0013426323
0.0014424793
0.0015515013
0.0016700511
0.0017934562
0.0019154274
0.0020309876
0.0021371246
0.0022277743
0.0022964709
0.0023365324
0.0023414144
0.0023056209
0.0022274077
0.0021092687
0.0019601927
0.0017949255
0.001638793
0.0016230359
0.0017876377
0.0018804132
0.0019061072
0.0018741777
0.0017998008
0.0017105604
0.0016242914
0.0015531957
0.0015062914
0.0015000442
0.0015182727
0.0015267449
0.0015521877
0.0015996268
0.0016541915
0.0017140078
0.0017781524
0.0018456589
0.0019144058
0.0019810611
0.0020396411
0.0020830394
0.002098867
0.0020734193
0.0019920425
0.0018397003
0.0015967852
0.0014485955
0.0019304449
0.0025560749
0.0033164109
0.0041703159
0.0050447863
0.0057846828
0.0061387484
0.0057856176
0.0045199349
0.0028559864
0.0028631951
0.0035518832
0.0036721646
0.0036721816
0.0037432048
0.0037125287
0.003314115
0.0025758886
0.0017771189
0.0023435247
0.0031133971
0.0039491775
0.0048889663
0.0059047334
0.0068762173
0.0075926275
0.0077983933
0.007301188
0.0060888776
0.0044334065
0.0028279383
0.002546622
0.0033068529
0.0036309135
0.0035524313
0.0031093432
0.0023786595
0.0018878158
0.0021886887
0.0024270543
0.0026766985
0.0029287639
0.0031409444
0.0032460557
0.0031220236
0.0026563979
0.001925446
0.0023292107
0.0033728005
0.0045608514
0.0057897306
0.0069962355
0.0081431689
0.0091972916
0.010141238
0.010840244
0.011181192
0.009930296
0.0080689794
0.0072085692
0.006617483
0.006276606
0.0061024103
0.006045181
0.006078273
0.0061967584
0.0063778235
0.0066147394
0.0069250293
0.0073561405
0.0078796521
0.0084288801
0.0089741824
0.0094904237
0.0099560467
0.010352186
0.010658365
0.010826152
0.010801833
0.010580248
0.010210984
0.0097352978
0.009150911
0.0084717787
0.0077062659
0.006849812
0.0059059066
0.0048546747
0.0036615739
0.0021651863
0.003258475
0.006223457
0.0099454188
0.014605571
0.020762957
0.026995093
0.03699066
0.034491778
0.058106863
0.052728351
0.16145822
0.24212129
0.86885337
0.59196677
1.7873056
0.58602963
0.85196186
0.27216397
0.17258634
0.051404504
0.038085676
0.016643515
0.013264998
0.0088736007
0.0071655449
0.0057997649
0.0049097865
0.0042107008
0.0036632259
0.0032242603
0.0028701152
0.0025953094
0.002364335
0.0021520423
0.0019514483
0.0017449696
0.0015346004
0.0013196458
0.0013724783
0.0014761569
0.0015874954
0.0016939144
0.001787133
0.0018593447
0.0019035304
0.0019140623
0.0018873883
0.0018238116
0.0017285906
0.0016114552
0.0014852471
0.001358786
0.0012406471
0.0011399337
0.0010614525
0.0010072799
0.00097680544
0.00097095868
0.00099425317
0.0010495547
0.0011529638
0.0012762065
0.0013785345
0.0014756833
0.0015759032
0.0016847029
0.0018029094
0.0019262451
0.0020485513
0.0021647753
0.0022718539
0.0023638917
0.0024345249
0.0024772303
0.0024857133
0.0024547569
0.0023828206
0.0022725459
0.0021328868
0.0019784727
0.0018348859
0.001828002
0.0019933821
0.0020873595
0.0021118702
0.0020767836
0.0019986188
0.0019057608
0.0018167199
0.001744105
0.0016971939
0.0016915914
0.0017111006
0.0017222656
0.0017498892
0.001798414
0.0018532961
0.0019124485
0.0019748911
0.0020396726
0.0021047537
0.0021669119
0.0022203548
0.0022581406
0.0022682218
0.0022372434
0.0021510679
0.0019953983
0.0017539182
0.0016101032
0.0020772103
0.0026929225
0.0034430438
0.0042861882
0.0051496033
0.0058808247
0.0062348817
0.0059023138
0.0046922136
0.0031140415
0.0031433801
0.0038235819
0.0039433746
0.0039324953
0.0039818829
0.0039258054
0.0035122997
0.002774625
0.001995764
0.002537866
0.0032929544
0.0041172811
0.0050440989
0.0060448929
0.0070012784
0.0077065195
0.0079108385
0.0074273159
0.0062462391
0.0046357167
0.0030839209
0.0028148255
0.0035521285
0.0038698377
0.0037851889
0.0033383699
0.0026156409
0.0021343235
0.0024217198
0.0026600072
0.0029107004
0.0031639238
0.0033762011
0.0034780102
0.0033474174
0.0028775224
0.0021570979
0.0025326683
0.0035398439
0.0046980371
0.005901066
0.0070851989
0.0082124491
0.0092490155
0.010175313
0.010858476
0.011178065
0.0099561218
0.0081387002
0.0072809097
0.0066948163
0.0063562609
0.0061834347
0.0061271461
0.0061610057
0.0062795988
0.0064606909
0.0066979071
0.0070087702
0.0074386589
0.0079591718
0.0085051389
0.0090470891
0.0095600515
0.010022571
0.010415769
0.01071878
0.010883644
0.010858036
0.01063759
0.01027101
0.0097985033
0.0092182321
0.008544035
0.0077841745
0.0069345365
0.0059986254
0.0049574785
0.00377727
0.0023467063
0.0034745278
0.0064486459
0.010187575
0.014873031
0.021043756
0.027345148
0.03727802
0.03533681
0.05910798
0.055693743
0.16686307
0.25404182
0.94633565
0.66552594
1.9001418
0.63887312
0.90574968
0.28778334
0.18110968
0.057851643
0.04181799
0.018685014
0.01455211
0.0097595602
0.0078252489
0.0063174444
0.0053329968
0.0045675412
0.0039720334
0.0034975325
0.0031170302
0.0028221505
0.0025754922
0.0023503712
0.0021386332
0.0019227029
0.0017040339
0.0014823992
0.0015211623
0.001614447
0.0017166933
0.0018150403
0.0019013408
0.0019678882
0.0020076794
0.0020150902
0.0019865681
0.0019223578
0.0018275875
0.0017118169
0.0015876453
0.0014636538
0.0013480304
0.0012494624
0.0011725721
0.0011194156
0.0010896116
0.0010844938
0.0011092364
0.0011677041
0.0012765285
0.0014049517
0.0015100539
0.0016082647
0.0017084143
0.001816573
0.001934057
0.0020569908
0.0021793454
0.0022959855
0.0024037944
0.0024970478
0.0025694858
0.0026147489
0.0026268031
0.0026007231
0.0025351823
0.0024329773
0.0023030311
0.0021598539
0.0020292274
0.0020315312
0.0021978469
0.0022930464
0.0023162621
0.002277786
0.0021955411
0.0020987686
0.0020067019
0.0019323861
0.0018853631
0.0018803614
0.001901158
0.001915057
0.0019448991
0.0019945088
0.002049662
0.0021080558
0.0021686522
0.0022305188
0.0022917052
0.0023491079
0.0023971382
0.0024290327
0.0024331039
0.002396371
0.00230524
0.0021462021
0.0019062618
0.0017668626
0.0022190156
0.002824486
0.0035640843
0.0043961247
0.0052481098
0.0059703279
0.0063243133
0.0060129749
0.0048602947
0.0033703436
0.0034236604
0.0040963442
0.0042158239
0.0041935376
0.0042203696
0.0041379706
0.0037088954
0.0029718475
0.0022129892
0.0027303467
0.0034699788
0.0042823327
0.0051956971
0.006181007
0.0071217864
0.0078154695
0.0080182493
0.0075488168
0.0064000023
0.0048360171
0.0033395104
0.0030835056
0.00379801
0.0041093818
0.004018657
0.003568315
0.0028539321
0.0023823665
0.0026562194
0.0028944043
0.0031463043
0.0034008728
0.0036133412
0.0037117042
0.0035741527
0.0030996742
0.0023895239
0.0027361921
0.0037058809
0.0048332643
0.0060097257
0.0071709625
0.0082781589
0.0092969069
0.010205372
0.010872581
0.011171137
0.0099794034
0.0082073812
0.0073529708
0.0067721765
0.0064361065
0.0062647195
0.006209388
0.0062439901
0.0063626282
0.0065436646
0.006781085
0.0070923753
0.0075207956
0.0080379835
0.0085803296
0.0091185491
0.0096278441
0.010086864
0.010476716
0.010776146
0.010937715
0.01091055
0.010691092
0.010327112
0.0098577333
0.0092815677
0.0086123262
0.0078581636
0.0070154157
0.0060875917
0.0050566341
0.0038901437
0.0025271506
0.0036896446
0.0066720628
0.010426888
0.015136546
0.021317787
0.027688575
0.037548929
0.036192904
0.060033649
0.05865286
0.17126589
0.26435003
0.93831919
0.7165914
1.9471371
0.64958607
0.89486691
0.29822287
0.1885597
0.064278206
0.045547104
0.020827561
0.015874825
0.010675432
0.0085016573
0.0068477183
0.0057653634
0.0049316005
0.0042866394
0.0037755872
0.0033679322
0.0030522914
0.0027893692
0.0025509505
0.0023276838
0.0021019904
0.001874778
0.0016462741
0.0016706451
0.0017532045
0.001846168
0.0019363374
0.0020156686
0.0020765437
0.0021119736
0.0021163379
0.0020860848
0.0020214011
0.0019272813
0.0018130981
0.0016911904
0.0015698966
0.0014570088
0.0013607769
0.0012856145
0.0012335417
0.0012043988
0.0011999263
0.0012259667
0.001287374
0.0014010894
0.0015340104
0.0016413748
0.0017401639
0.0018397831
0.0019468687
0.0020632395
0.0021854289
0.0023075357
0.0024243356
0.0025326559
0.0026269447
0.0027010478
0.0027487748
0.0027643616
0.0027431895
0.0026841551
0.0025902198
0.0024702801
0.0023387256
0.0022214749
0.0022332907
0.0024007312
0.0024971954
0.0025190217
0.0024769321
0.0023903137
0.0022893225
0.0021939664
0.0021177592
0.0020705108
0.0020660594
0.0020881442
0.0021048106
0.0021369019
0.0021875895
0.0022429589
0.00230049
0.0023590865
0.002417839
0.0024748943
0.0025272789
0.0025696211
0.0025953508
0.0025931621
0.0025504744
0.0024542647
0.0022918642
0.0020536169
0.001918712
0.0023557726
0.0029507107
0.0036795068
0.0045001191
0.0053403039
0.0060531683
0.006406954
0.0061173862
0.0050237866
0.0036242973
0.0037034947
0.0043698383
0.0044893195
0.0044551556
0.0044585315
0.0043489528
0.0039039174
0.0031676328
0.0024288259
0.0029210206
0.0036444925
0.0044443339
0.0053437597
0.0063130789
0.0072377438
0.0079194639
0.0081205697
0.0076655592
0.0065499387
0.0050339768
0.0035942592
0.0033522126
0.0040441486
0.0043492753
0.0042526702
0.0037991278
0.0030935497
0.0026319518
0.0028922105
0.0031302357
0.0033834789
0.0036395559
0.0038522658
0.0039469568
0.0038019395
0.0033224902
0.0026222827
0.0029393821
0.0038705609
0.0049662188
0.0061154363
0.0072532939
0.0083401041
0.0093408026
0.010231279
0.010882438
0.011160339
0.0099999928
0.0082747764
0.0074245273
0.0068493201
0.0065158815
0.0063459845
0.0062916075
0.0063269075
0.0064455097
0.0066263899
0.0068638997
0.0071754519
0.0076021412
0.0081156649
0.0086540184
0.0091881188
0.0096933493
0.010148469
0.010534563
0.010829998
0.010987903
0.01095892
0.010740301
0.01037884
0.0099125386
0.0093404704
0.0086762062
0.0079277907
0.0070920112
0.0061723783
0.0051517516
0.0039999519
0.0027063205
0.0039036444
0.0068936022
0.010663402
0.015396313
0.021585813
0.028026047
0.037807225
0.037059774
0.060904585
0.061606893
0.17489129
0.27334208
0.92700126
0.72498156
1.9412553
0.65899751
0.88228489
0.30731067
0.19509002
0.070654991
0.049283675
0.023074362
0.017237866
0.011623103
0.0091960125
0.0073911985
0.0062072303
0.0053030409
0.0046070984
0.0040584055
0.00362275
0.003285622
0.0030058254
0.0027536162
0.0025184199
0.002282639
0.002046631
0.0018110615
0.0018207245
0.0018922156
0.0019756982
0.0020575808
0.0021298906
0.0021850856
0.0022161886
0.0022175835
0.0021857203
0.0021207292
0.0020274692
0.0019151091
0.0017957092
0.0016773599
0.0015674487
0.0014737651
0.0014004883
0.0013495829
0.0013211014
0.0013171917
0.0013443707
0.0014084693
0.0015265198
0.0016632271
0.0017723174
0.001871183
0.001969798
0.0020753676
0.0021902264
0.0023113211
0.0024328767
0.0025495729
0.002658179
0.0027533161
0.0028289373
0.0028790258
0.0028980972
0.0028818543
0.0028294275
0.0027439528
0.002634307
0.0025147589
0.0024112969