/*--------------------------------*- C++ -*----------------------------------*\
| =========                 |                                                 |
| \\      /  F ield         | OpenFOAM: The Open Source CFD Toolbox           |
|  \\    /   O peration     | Version:  2.4.0                                 |
|   \\  /    A nd           | Web:      www.OpenFOAM.org                      |
|    \\/     M anipulation  |                                                 |
\*---------------------------------------------------------------------------*/
FoamFile
{
    version     2.0;
    format      ascii;
    class       volScalarField;
    location    "270";
    object      k;
}
// * * * * * * * * * * * * * * * * * * * * * * * * * * * * * * * * * * * * * //

dimensions      [0 2 -2 0 0 0 0];

internalField   nonuniform List<scalar> 
32000
(
0.040926971
0.013233872
0.034050984
0.012441829
0.0093042526
0.00054314862
0.0012606332
0.00011732681
0.00034551453
0.00019135503
0.00019195365
0.00015536508
0.00013894583
0.00012274528
0.00011101137
0.00010152712
9.42883e-05
8.9105247e-05
8.5220355e-05
8.1987616e-05
7.9101194e-05
7.6454572e-05
7.3924564e-05
7.1455342e-05
6.8953416e-05
6.6379573e-05
6.3576148e-05
6.0566499e-05
5.7559699e-05
5.4680738e-05
5.1961037e-05
4.9411091e-05
4.704201e-05
4.4862488e-05
4.2905731e-05
4.1259818e-05
4.0001485e-05
3.9042744e-05
3.8291387e-05
3.7739213e-05
3.7416882e-05
3.7368746e-05
3.7666802e-05
3.8397122e-05
3.9763554e-05
4.2027116e-05
4.6883329e-05
5.2573516e-05
5.6337418e-05
5.951255e-05
6.222596e-05
6.4642242e-05
6.6808673e-05
6.8773866e-05
7.0566439e-05
7.2210091e-05
7.3722859e-05
7.5119536e-05
7.6412166e-05
7.7611006e-05
7.8724907e-05
7.976142e-05
8.0727147e-05
8.1627936e-05
8.2468932e-05
8.3254699e-05
8.3989391e-05
8.4676693e-05
8.5319898e-05
8.5922028e-05
8.6485816e-05
8.7013811e-05
8.7508219e-05
8.7971183e-05
8.8404579e-05
8.8810136e-05
8.9189699e-05
8.9544578e-05
8.98767e-05
9.0186882e-05
9.0477066e-05
9.0747172e-05
9.0996917e-05
9.1228146e-05
9.1441442e-05
9.1638091e-05
9.1818676e-05
9.1984708e-05
9.2132088e-05
9.2270577e-05
9.2392916e-05
9.250177e-05
9.2597561e-05
9.2680571e-05
9.2751036e-05
9.280923e-05
9.2855303e-05
9.2889406e-05
9.2911656e-05
9.2922031e-05
9.2920456e-05
9.2907532e-05
9.2882889e-05
9.2846149e-05
9.2797425e-05
9.2736555e-05
9.2663341e-05
9.2577553e-05
9.2478935e-05
9.2367164e-05
9.2241863e-05
9.2102651e-05
9.1949064e-05
9.1780585e-05
9.1596677e-05
9.1396715e-05
9.1180026e-05
9.0945888e-05
9.0693469e-05
9.0421898e-05
9.0130231e-05
8.9817401e-05
8.9482289e-05
8.9123672e-05
8.874016e-05
8.8330314e-05
8.7892559e-05
8.7425108e-05
8.6926106e-05
8.6393483e-05
8.5824903e-05
8.5217933e-05
8.4569866e-05
8.3877608e-05
8.3137887e-05
8.2347024e-05
8.1500875e-05
8.059492e-05
7.9624001e-05
7.8582303e-05
7.7463249e-05
7.6259312e-05
7.4961755e-05
7.3560423e-05
7.2043179e-05
7.0395328e-05
6.8599072e-05
6.6630753e-05
6.4461888e-05
6.2044099e-05
5.933038e-05
5.6155927e-05
5.239415e-05
4.6721903e-05
4.1890012e-05
3.9646228e-05
3.8281118e-05
3.7542124e-05
3.7249034e-05
3.7283571e-05
3.7587067e-05
3.8144606e-05
3.8898324e-05
3.9865491e-05
4.1113628e-05
4.273265e-05
4.4684743e-05
4.6841294e-05
4.9181846e-05
5.1698751e-05
5.4378847e-05
5.7217851e-05
6.0177613e-05
6.3143301e-05
6.589427e-05
6.8392695e-05
7.075695e-05
7.3193259e-05
7.563466e-05
7.8190636e-05
8.0965513e-05
8.4064631e-05
8.7779449e-05
9.27687e-05
9.979845e-05
0.0001088669
0.00012051719
0.0001348515
0.00015483256
0.00017525729
0.00021990329
0.00022254436
0.0003900519
0.0001426931
0.0012325062
0.00053337732
0.0088759315
0.013069037
0.036103647
0.013508296
0.011037005
0.0051489983
0.010447865
0.0049592186
0.0038851687
0.00024853441
0.00063817373
9.6299886e-05
0.00020850491
0.00012804399
0.00012530094
0.0001037639
9.2841717e-05
8.2311535e-05
7.4323366e-05
6.7714402e-05
6.2458184e-05
5.8493949e-05
5.5403664e-05
5.2787776e-05
5.0445338e-05
4.8303431e-05
4.6283564e-05
4.4346654e-05
4.243698e-05
4.0526038e-05
3.8517237e-05
3.6399648e-05
3.4277158e-05
3.2224062e-05
3.0262096e-05
2.8399921e-05
2.6645524e-05
2.5004919e-05
2.3496448e-05
2.2168327e-05
2.1066926e-05
2.0158215e-05
1.9397238e-05
1.8779378e-05
1.8318141e-05
1.8033091e-05
1.7956599e-05
1.8130995e-05
1.8650348e-05
1.9652007e-05
2.1866191e-05
2.4444985e-05
2.6174305e-05
2.7620022e-05
2.8856603e-05
2.9955467e-05
3.0940188e-05
3.1832618e-05
3.2646154e-05
3.339165e-05
3.407742e-05
3.4710253e-05
3.5295691e-05
3.583844e-05
3.6342546e-05
3.6811475e-05
3.7248244e-05
3.7655525e-05
3.8035668e-05
3.8390762e-05
3.8722692e-05
3.9033151e-05
3.9323633e-05
3.9595515e-05
3.9850039e-05
4.0088362e-05
4.0311492e-05
4.0520403e-05
4.0715957e-05
4.0898955e-05
4.1070236e-05
4.1230448e-05
4.1380458e-05
4.1520698e-05
4.1651945e-05
4.1774133e-05
4.1887107e-05
4.1991591e-05
4.2087902e-05
4.2176618e-05
4.2258047e-05
4.233521e-05
4.2395651e-05
4.246171e-05
4.2516835e-05
4.2565885e-05
4.2609048e-05
4.2646454e-05
4.2678211e-05
4.270444e-05
4.272521e-05
4.2740591e-05
4.2750633e-05
4.2754975e-05
4.2754018e-05
4.2748572e-05
4.2737768e-05
4.2721246e-05
4.2699326e-05
4.2671934e-05
4.2638984e-05
4.260037e-05
4.2555974e-05
4.2505654e-05
4.2449239e-05
4.2386554e-05
4.2317392e-05
4.2241518e-05
4.215869e-05
4.2068626e-05
4.1971019e-05
4.1865545e-05
4.1751826e-05
4.1629469e-05
4.1498046e-05
4.1357074e-05
4.1206045e-05
4.1044406e-05
4.0871528e-05
4.0686758e-05
4.0489381e-05
4.0278588e-05
4.0053532e-05
3.9813278e-05
3.9556765e-05
3.9282883e-05
3.8990402e-05
3.8677921e-05
3.8343948e-05
3.7986802e-05
3.7604598e-05
3.7195268e-05
3.6756458e-05
3.6285515e-05
3.5779428e-05
3.5234753e-05
3.4647483e-05
3.4012963e-05
3.3325622e-05
3.2578717e-05
3.1764034e-05
3.0870758e-05
2.9885555e-05
2.8786699e-05
2.7550797e-05
2.6106432e-05
2.4381284e-05
2.1809473e-05
1.9602438e-05
1.8607208e-05
1.8087388e-05
1.7909066e-05
1.7987647e-05
1.8265385e-05
1.8717041e-05
1.9336322e-05
2.0099598e-05
2.1012866e-05
2.2106914e-05
2.3420486e-05
2.4924476e-05
2.6551908e-05
2.8290551e-05
3.0134607e-05
3.2075083e-05
3.4106386e-05
3.6202782e-05
3.8295263e-05
4.027388e-05
4.2138964e-05
4.3976226e-05
4.5894842e-05
4.7863925e-05
4.9952748e-05
5.2229619e-05
5.4768403e-05
5.7752592e-05
6.1599298e-05
6.6712017e-05
7.3078471e-05
8.0977655e-05
9.0495373e-05
0.00010316873
0.00011632881
0.00014199236
0.00014637053
0.00023158277
0.00011088301
0.00061837321
0.0002346077
0.0037102915
0.0051788667
0.010769762
0.0053035821
0.0016645975
0.0012950073
0.0020870362
0.0017083997
0.0014531453
0.00010729637
0.00030076517
6.4178079e-05
0.00011608656
7.7427894e-05
7.4876247e-05
6.3226283e-05
5.6676107e-05
5.0368227e-05
4.5358095e-05
4.1092908e-05
3.7556223e-05
3.4758718e-05
3.251526e-05
3.0601102e-05
2.8892752e-05
2.7342656e-05
2.5903257e-05
2.4548078e-05
2.3245852e-05
2.1977058e-05
2.0688165e-05
1.9355196e-05
1.80199e-05
1.6722952e-05
1.547871e-05
1.4294123e-05
1.3175072e-05
1.2125925e-05
1.1156078e-05
1.0289211e-05
9.550505e-06
8.9294676e-06
8.4041321e-06
7.9695786e-06
7.6283436e-06
7.3854637e-06
7.2513556e-06
7.2421259e-06
7.3932962e-06
7.7628406e-06
8.6209808e-06
9.6145584e-06
1.0286532e-05
1.0844499e-05
1.1321841e-05
1.1745318e-05
1.2124577e-05
1.246801e-05
1.2780892e-05
1.3067442e-05
1.3330901e-05
1.357391e-05
1.3798626e-05
1.4006877e-05
1.4200233e-05
1.4380038e-05
1.4547462e-05
1.4703539e-05
1.4849178e-05
1.4985188e-05
1.5112296e-05
1.5231161e-05
1.5342356e-05
1.5446413e-05
1.5543809e-05
1.5634991e-05
1.5720348e-05
1.5800256e-05
1.5875047e-05
1.5945034e-05
1.601054e-05
1.6071826e-05
1.6129224e-05
1.6182914e-05
1.6233169e-05
1.627996e-05
1.6323223e-05
1.6363207e-05
1.6400049e-05
1.6433965e-05
1.6465085e-05
1.6495758e-05
1.6515352e-05
1.6542895e-05
1.6563954e-05
1.6582692e-05
1.6599182e-05
1.6613472e-05
1.6625606e-05
1.6635628e-05
1.6643567e-05
1.6649448e-05
1.6653291e-05
1.665429e-05
1.6653979e-05
1.6652466e-05
1.6648416e-05
1.6642117e-05
1.6633758e-05
1.6623309e-05
1.6610738e-05
1.6596005e-05
1.6579063e-05
1.6559859e-05
1.6538327e-05
1.65144e-05
1.6487999e-05
1.6459034e-05
1.6427412e-05
1.6393025e-05
1.6355755e-05
1.6315478e-05
1.6272049e-05
1.6225317e-05
1.6175119e-05
1.6121269e-05
1.606357e-05
1.6001812e-05
1.5935753e-05
1.5865142e-05
1.5789703e-05
1.5709127e-05
1.5623086e-05
1.5531221e-05
1.5433124e-05
1.5328367e-05
1.5216475e-05
1.5096911e-05
1.4969099e-05
1.4832388e-05
1.468605e-05
1.4529285e-05
1.4361183e-05
1.4180717e-05
1.398672e-05
1.3777858e-05
1.3552574e-05
1.3309062e-05
1.3045155e-05
1.2758235e-05
1.2445094e-05
1.2101539e-05
1.1722321e-05
1.1299104e-05
1.0822344e-05
1.0265322e-05
9.596407e-06
8.6053585e-06
7.748076e-06
7.3797363e-06
7.2276776e-06
7.2350824e-06
7.3696391e-06
7.6089649e-06
7.9461417e-06
8.3807686e-06
8.9071054e-06
9.5296088e-06
1.0263617e-05
1.1123975e-05
1.2090928e-05
1.3133279e-05
1.424438e-05
1.5419773e-05
1.6653241e-05
1.7939133e-05
1.9260959e-05
2.0580645e-05
2.1853514e-05
2.3095524e-05
2.4364601e-05
2.5709792e-05
2.7121893e-05
2.8642717e-05
3.0314877e-05
3.2187309e-05
3.4366307e-05
3.7098094e-05
4.0541713e-05
4.4675048e-05
4.9616443e-05
5.5405489e-05
6.2758812e-05
7.03379e-05
8.3751891e-05
8.6748432e-05
0.00012629757
7.0669717e-05
0.00028850675
9.7813888e-05
0.0013965948
0.0017950362
0.0020843416
0.0013456676
0.00010243818
0.00017288373
0.00019519179
0.0004840988
0.00047889717
4.3574309e-05
0.00013198348
3.6795642e-05
5.9728392e-05
4.2648867e-05
4.1145111e-05
3.5352606e-05
3.1785398e-05
2.8293189e-05
2.5389641e-05
2.2840621e-05
2.0643813e-05
1.8837594e-05
1.7364129e-05
1.6106936e-05
1.4994219e-05
1.3996066e-05
1.3084528e-05
1.2242176e-05
1.1451847e-05
1.070077e-05
9.9614138e-06
9.2113279e-06
8.4631616e-06
7.7375968e-06
7.0433702e-06
6.3853169e-06
5.7672721e-06
5.1919688e-06
4.6636477e-06
4.1924929e-06
3.7901731e-06
3.4535301e-06
3.171366e-06
2.9390594e-06
2.7549601e-06
2.6185371e-06
2.53151e-06
2.4979151e-06
2.5291327e-06
2.6451569e-06
2.9331121e-06
3.2646247e-06
3.4899446e-06
3.6760071e-06
3.8351429e-06
3.9761166e-06
4.1022843e-06
4.2164435e-06
4.3203829e-06
4.4155199e-06
4.5029452e-06
4.5835466e-06
4.6580488e-06
4.727066e-06
4.7911231e-06
4.8506716e-06
4.9061026e-06
4.957762e-06
5.005954e-06
5.0509488e-06
5.092989e-06
5.1322956e-06
5.1690587e-06
5.2034554e-06
5.2356452e-06
5.2657759e-06
5.2939781e-06
5.3203757e-06
5.3450808e-06
5.3681975e-06
5.389833e-06
5.4100769e-06
5.4290382e-06
5.4467802e-06
5.4633882e-06
5.4788523e-06
5.4931504e-06
5.5063592e-06
5.5185263e-06
5.529723e-06
5.5399944e-06
5.5505131e-06
5.5555538e-06
5.5656693e-06
5.5726192e-06
5.578802e-06
5.5842431e-06
5.5889586e-06
5.5929632e-06
5.5962713e-06
5.5988923e-06
5.6008346e-06
5.6021054e-06
5.6019935e-06
5.6019612e-06
5.6018317e-06
5.6005115e-06
5.5984383e-06
5.5956855e-06
5.5922436e-06
5.588102e-06
5.5832475e-06
5.5776644e-06
5.5713351e-06
5.5642382e-06
5.5563511e-06
5.5476477e-06
5.5380984e-06
5.5276724e-06
5.5163339e-06
5.5040436e-06
5.4907608e-06
5.4764375e-06
5.4610233e-06
5.4444643e-06
5.4266989e-06
5.4076619e-06
5.3872835e-06
5.3654836e-06
5.3421782e-06
5.3172767e-06
5.2906759e-06
5.2622663e-06
5.2319295e-06
5.1995298e-06
5.1649235e-06
5.1279539e-06
5.0884417e-06
5.0461959e-06
5.0009982e-06
4.9526062e-06
4.900752e-06
4.8451319e-06
4.7854028e-06
4.7211738e-06
4.6519985e-06
4.5773548e-06
4.4966372e-06
4.4091183e-06
4.3139188e-06
4.2099593e-06
4.0958335e-06
3.969763e-06
3.8289735e-06
3.6701576e-06
3.4845795e-06
3.2608466e-06
2.9302604e-06
2.6417747e-06
2.5255939e-06
2.4936859e-06
2.526418e-06
2.6134729e-06
2.7483529e-06
2.9309414e-06
3.1630491e-06
3.4454685e-06
3.7822768e-06
4.1819852e-06
4.6505792e-06
5.1773254e-06
5.7493974e-06
6.3637078e-06
7.01739e-06
7.7065632e-06
8.4268692e-06
9.1685331e-06
9.9120842e-06
1.0643518e-05
1.1379771e-05
1.2156892e-05
1.2993894e-05
1.3891577e-05
1.4874442e-05
1.5968253e-05
1.7203972e-05
1.8639194e-05
2.0411414e-05
2.2551528e-05
2.5033695e-05
2.7892448e-05
3.1131574e-05
3.5045904e-05
3.896842e-05
4.5328879e-05
4.6700766e-05
6.3382539e-05
3.8844126e-05
0.00012523182
3.9099879e-05
0.00046766165
0.00052889158
0.00019164
0.00018138341
2.0329131e-06
9.237375e-06
4.9844058e-06
0.00010247566
0.00013474641
1.6297031e-05
5.3398552e-05
1.8624543e-05
2.8269742e-05
2.1436898e-05
2.0766788e-05
1.8140972e-05
1.6374829e-05
1.4592588e-05
1.3040631e-05
1.1635366e-05
1.0382565e-05
9.3222169e-06
8.4505458e-06
7.7113579e-06
7.0650436e-06
6.4935136e-06
5.980805e-06
5.5159572e-06
5.0896176e-06
4.6938893e-06
4.3154195e-06
3.9387579e-06
3.5658879e-06
3.206498e-06
2.8653169e-06
2.5451294e-06
2.2479804e-06
1.9751822e-06
1.72825e-06
1.5108087e-06
1.3272274e-06
1.176082e-06
1.0516945e-06
9.5081178e-07
8.7140638e-07
8.1201666e-07
7.7211063e-07
7.5206124e-07
7.5481382e-07
7.8609545e-07
8.7052687e-07
9.6720055e-07
1.0330652e-06
1.0871928e-06
1.1334599e-06
1.1743902e-06
1.2109934e-06
1.2440857e-06
1.2741954e-06
1.3017383e-06
1.3270347e-06
1.3503448e-06
1.3718812e-06
1.3918238e-06
1.410326e-06
1.4275199e-06
1.4435196e-06
1.4584261e-06
1.4723282e-06
1.4853046e-06
1.4974258e-06
1.5087567e-06
1.5193522e-06
1.5292637e-06
1.5385376e-06
1.5472168e-06
1.5553391e-06
1.5629407e-06
1.5700539e-06
1.5767093e-06
1.5829377e-06
1.5887656e-06
1.5942244e-06
1.599333e-06
1.604115e-06
1.6085678e-06
1.6126849e-06
1.6164871e-06
1.6199887e-06
1.6232102e-06
1.6261649e-06
1.629294e-06
1.6302803e-06
1.6335492e-06
1.6355485e-06
1.6373268e-06
1.6388919e-06
1.6402483e-06
1.6414003e-06
1.6423521e-06
1.6431065e-06
1.6436657e-06
1.6440322e-06
1.6438085e-06
1.6438325e-06
1.6439556e-06
1.6435788e-06
1.6429842e-06
1.6421944e-06
1.6412065e-06
1.6400176e-06
1.6386237e-06
1.6370203e-06
1.6352025e-06
1.6331641e-06
1.6308984e-06
1.628398e-06
1.6256544e-06
1.6226586e-06
1.6194003e-06
1.6158683e-06
1.6120506e-06
1.6079335e-06
1.6035025e-06
1.5987419e-06
1.5936339e-06
1.5881597e-06
1.5822991e-06
1.5760289e-06
1.5693248e-06
1.5621607e-06
1.5545065e-06
1.5463306e-06
1.5375985e-06
1.5282712e-06
1.5183066e-06
1.5076595e-06
1.4962778e-06
1.4841061e-06
1.4710808e-06
1.4571313e-06
1.4421794e-06
1.4261368e-06
1.4089034e-06
1.390365e-06
1.3703913e-06
1.3488296e-06
1.3255029e-06
1.300198e-06
1.2726576e-06
1.2425647e-06
1.2095076e-06
1.1729622e-06
1.1321202e-06
1.0859919e-06
1.032067e-06
9.6686036e-07
8.7052566e-07
7.8563596e-07
7.5408636e-07
7.5098976e-07
7.7067871e-07
8.1053496e-07
8.6933261e-07
9.4823125e-07
1.0489588e-06
1.1733552e-06
1.3243619e-06
1.5066859e-06
1.7232033e-06
1.9693703e-06
2.2407445e-06
2.5362564e-06
2.8545002e-06
3.1934639e-06
3.5505125e-06
3.9204602e-06
4.2941397e-06
4.6689752e-06
5.0571004e-06
5.4789399e-06
5.9410451e-06
6.4471586e-06
7.0111844e-06
7.6482067e-06
8.3769358e-06
9.2269248e-06
1.0271025e-05
1.149168e-05
1.2865585e-05
1.4391621e-05
1.6057198e-05
1.7963186e-05
1.9783985e-05
2.2485045e-05
2.2876826e-05
2.9142357e-05
1.8839839e-05
5.0095383e-05
1.4823454e-05
0.00013553264
0.00012575686
5.2120954e-06
9.6637531e-06
1.5568894e-08
1.608773e-07
2.07809e-08
1.3434552e-05
3.0917766e-05
5.5069384e-06
1.9738476e-05
8.4165116e-06
1.2259444e-05
9.8327276e-06
9.612091e-06
8.5368272e-06
7.7430327e-06
6.9069765e-06
6.1437764e-06
5.4316697e-06
4.7783406e-06
4.2141241e-06
3.7501684e-06
3.3609361e-06
3.0257267e-06
2.7341719e-06
2.4775199e-06
2.2493393e-06
2.0446373e-06
1.8588931e-06
1.6859583e-06
1.5171243e-06
1.3516839e-06
1.1937711e-06
1.0456145e-06
9.0852827e-07
7.8337039e-07
6.7057648e-07
5.7046968e-07
4.8400672e-07
4.1240039e-07
3.5477057e-07
3.0844547e-07
2.7164282e-07
2.4310122e-07
2.2184826e-07
2.0728837e-07
1.9919309e-07
1.9805772e-07
2.0533517e-07
2.2710211e-07
2.5189282e-07
2.6879078e-07
2.8261519e-07
2.944215e-07
3.0485128e-07
3.141701e-07
3.2258756e-07
3.3024061e-07
3.3723647e-07
3.4365774e-07
3.495715e-07
3.5503248e-07
3.6008694e-07
3.647743e-07
3.6912846e-07
3.7317873e-07
3.7695095e-07
3.8046786e-07
3.8374964e-07
3.8681429e-07
3.8967848e-07
3.9235615e-07
3.9486043e-07
3.9720312e-07
3.9939514e-07
4.0144619e-07
4.0336538e-07
4.0516104e-07
4.0684091e-07
4.0841284e-07
4.0988365e-07
4.1126124e-07
4.1255055e-07
4.1375736e-07
4.1488108e-07
4.1592005e-07
4.1687935e-07
4.1776269e-07
4.1857517e-07
4.1932028e-07
4.20133e-07
4.2025168e-07
4.2118202e-07
4.2168632e-07
4.221347e-07
4.2252934e-07
4.2287138e-07
4.2316193e-07
4.2340205e-07
4.235924e-07
4.237336e-07
4.2382626e-07
4.2370621e-07
4.2372306e-07
4.2380797e-07
4.2371351e-07
4.2356414e-07
4.2336559e-07
4.2311713e-07
4.2281802e-07
4.224673e-07
4.220638e-07
4.2160625e-07
4.2109311e-07
4.2052269e-07
4.1989314e-07
4.1920224e-07
4.1844779e-07
4.1762717e-07
4.1673748e-07
4.1577575e-07
4.147385e-07
4.1362202e-07
4.1242236e-07
4.1113503e-07
4.0975519e-07
4.0827779e-07
4.0669692e-07
4.050064e-07
4.0319957e-07
4.0126887e-07
3.9920617e-07
3.9700277e-07
3.946487e-07
3.9213325e-07
3.8944489e-07
3.8657041e-07
3.8349571e-07
3.8020443e-07
3.766786e-07
3.7289819e-07
3.6884062e-07
3.6448025e-07
3.5978783e-07
3.5472995e-07
3.4926739e-07
3.4335465e-07
3.3693698e-07
3.2994813e-07
3.2230645e-07
3.1390604e-07
3.0461135e-07
2.942152e-07
2.8245917e-07
2.6870664e-07
2.5203703e-07
2.2736264e-07
2.0538046e-07
1.9794282e-07
1.9894015e-07
2.0692819e-07
2.2145413e-07
2.4250696e-07
2.7089348e-07
3.0761883e-07
3.5391321e-07
4.1142394e-07
4.8250355e-07
5.6865066e-07
6.6842084e-07
7.8063351e-07
9.0512267e-07
1.0414039e-06
1.1886507e-06
1.3455889e-06
1.5098092e-06
1.6773812e-06
1.8487813e-06
2.0309576e-06
2.2343943e-06
2.4612561e-06
2.7149794e-06
3.0030949e-06
3.33403e-06
3.7184697e-06
4.1709105e-06
4.7279265e-06
5.3643899e-06
6.0629741e-06
6.8126076e-06
7.5981729e-06
8.4439079e-06
9.1970443e-06
1.0205346e-05
1.0196164e-05
1.2227186e-05
8.1424903e-06
1.8299134e-05
5.2709162e-06
3.2584671e-05
2.234782e-05
2.9128977e-08
1.5994218e-07
6.0067868e-11
1.0337709e-09
1.7523802e-11
7.7257258e-07
5.3959444e-06
1.6465847e-06
6.6046907e-06
3.4103095e-06
4.8504132e-06
4.1098516e-06
4.0708805e-06
3.678173e-06
3.3555867e-06
2.9963789e-06
2.6521325e-06
2.3215981e-06
2.011029e-06
1.7393939e-06
1.5172266e-06
1.3334817e-06
1.1779805e-06
1.0451895e-06
9.3059551e-07
8.3074795e-07
7.4311193e-07
6.6533594e-07
5.9474187e-07
5.2713758e-07
4.6170059e-07
4.0001874e-07
3.429959e-07
2.9113652e-07
2.447091e-07
2.0377394e-07
1.682849e-07
1.3835572e-07
1.1416711e-07
9.5216435e-08
8.0387389e-08
6.8888693e-08
6.0143463e-08
5.3707658e-08
4.9280814e-08
4.6695521e-08
4.5978672e-08
4.7438584e-08
5.2392644e-08
5.8005124e-08
6.182632e-08
6.4938537e-08
6.7593223e-08
6.9934799e-08
7.2024722e-08
7.3910571e-08
7.562366e-08
7.7188388e-08
7.8623569e-08
7.9944451e-08
8.1163468e-08
8.2291123e-08
8.3336341e-08
8.4306807e-08
8.5209148e-08
8.6049204e-08
8.6832112e-08
8.7562421e-08
8.8244192e-08
8.8881198e-08
8.9476558e-08
9.0033224e-08
9.055384e-08
9.1040864e-08
9.1496471e-08
9.1922707e-08
9.2321434e-08
9.2694397e-08
9.3043342e-08
9.3369812e-08
9.3675561e-08
9.3961717e-08
9.4229535e-08
9.4478909e-08
9.4709466e-08
9.4922302e-08
9.511826e-08
9.5298467e-08
9.5463711e-08
9.5648914e-08
9.5642906e-08
9.5876496e-08
9.598838e-08
9.6087807e-08
9.6175327e-08
9.6251184e-08
9.6315634e-08
9.6368911e-08
9.6411158e-08
9.6442517e-08
9.646314e-08
9.6418951e-08
9.6425453e-08
9.6459374e-08
9.6438562e-08
9.6405589e-08
9.6361727e-08
9.6306805e-08
9.6240663e-08
9.6163093e-08
9.6073822e-08
9.5972581e-08
9.5859023e-08
9.5732767e-08
9.5593409e-08
9.5440449e-08
9.52734e-08
9.509168e-08
9.4894637e-08
9.4681615e-08
9.4451841e-08
9.4204477e-08
9.393865e-08
9.365336e-08
9.334752e-08
9.3020003e-08
9.2669498e-08
9.2294609e-08
9.1893857e-08
9.146555e-08
9.1007859e-08
9.0518845e-08
8.999627e-08
8.9437728e-08
8.8840635e-08
8.8202031e-08
8.7518758e-08
8.6787119e-08
8.6003065e-08
8.5162085e-08
8.4259084e-08
8.328828e-08
8.2243056e-08
8.1115865e-08
7.9897819e-08
7.8578617e-08
7.7145838e-08
7.5584453e-08
7.38759e-08
7.1996141e-08
6.991429e-08
6.7583431e-08
6.4944292e-08
6.1853997e-08
5.8100619e-08
5.2523928e-08
4.7493758e-08
4.5973367e-08
4.6644581e-08
4.9200156e-08
5.361282e-08
5.9989073e-08
6.8690847e-08
8.0159316e-08
9.4968383e-08
1.1386069e-07
1.3785631e-07
1.6768158e-07
2.0303682e-07
2.4375363e-07
2.8992797e-07
3.4147848e-07
3.9815388e-07
4.5945821e-07
5.2442313e-07
5.9153478e-07
6.6153544e-07
7.3778994e-07
8.2515855e-07
9.2441904e-07
1.0378058e-06
1.1691337e-06
1.3228044e-06
1.5044976e-06
1.7210197e-06
1.9896788e-06
2.2920902e-06
2.6172973e-06
2.9550794e-06
3.2939058e-06
3.6340603e-06
3.9079888e-06
4.2275872e-06
4.1278654e-06
4.6604034e-06
3.1468707e-06
6.0419578e-06
1.7393353e-06
6.0735928e-06
2.6374897e-06
5.8084598e-11
8.7989206e-10
7.5523358e-14
3.0717923e-12
6.6828591e-15
1.1550174e-08
6.4506811e-07
4.2749121e-07
1.9754213e-06
1.2389483e-06
1.7417994e-06
1.5609183e-06
1.5725952e-06
1.4472808e-06
1.3295945e-06
1.1889151e-06
1.0470447e-06
9.0703722e-07
7.7286651e-07
6.5472658e-07
5.5903494e-07
4.8122497e-07
4.1663553e-07
3.6256112e-07
3.1685553e-07
2.7784983e-07
2.4435492e-07
2.1527345e-07
1.8951481e-07
1.6532059e-07
1.422258e-07
1.2077341e-07
1.0127648e-07
8.3889261e-08
6.866271e-08
5.5561144e-08
4.4496268e-08
3.5414211e-08
2.8276804e-08
2.284899e-08
1.8724141e-08
1.5609872e-08
1.3294185e-08
1.1617429e-08
1.0469212e-08
9.7818412e-09
9.5368826e-09
9.7882552e-09
1.0786772e-08
1.1911933e-08
1.2675965e-08
1.3295327e-08
1.3822797e-08
1.4287237e-08
1.470122e-08
1.5074324e-08
1.5412888e-08
1.5721833e-08
1.6004953e-08
1.6265316e-08
1.6505426e-08
1.6727391e-08
1.6933001e-08
1.7123797e-08
1.7301106e-08
1.7466095e-08
1.7619789e-08
1.7763097e-08
1.7896826e-08
1.8021735e-08
1.8138437e-08
1.824752e-08
1.8349509e-08
1.844489e-08
1.8534096e-08
1.861753e-08
1.8695563e-08
1.8768539e-08
1.8836804e-08
1.8900662e-08
1.8960459e-08
1.9016419e-08
1.9068786e-08
1.9117544e-08
1.9162621e-08
1.9204225e-08
1.9242525e-08
1.9277741e-08
1.9310029e-08
1.9347182e-08
1.9338817e-08
1.9390664e-08
1.9412538e-08
1.9431964e-08
1.9449065e-08
1.9463889e-08
1.9476485e-08
1.9486901e-08
1.9495164e-08
1.9501302e-08
1.9505348e-08
1.9492532e-08
1.9494386e-08
1.9504679e-08
1.950065e-08
1.9494244e-08
1.9485714e-08
1.9475026e-08
1.9462148e-08
1.9447041e-08
1.942965e-08
1.9409922e-08
1.9387791e-08
1.936318e-08
1.9336011e-08
1.9306185e-08
1.9273607e-08
1.9238163e-08
1.9199725e-08
1.9158163e-08
1.9113326e-08
1.9065049e-08
1.9013159e-08
1.8957461e-08
1.889774e-08
1.8833774e-08
1.8765304e-08
1.8692056e-08
1.8613736e-08
1.8530012e-08
1.8440521e-08
1.8344878e-08
1.8242644e-08
1.813334e-08
1.8016453e-08
1.7891399e-08
1.7757551e-08
1.7614172e-08
1.7460457e-08
1.7295505e-08
1.7118302e-08
1.6927693e-08
1.6722355e-08
1.650078e-08
1.6261188e-08
1.6001512e-08
1.571926e-08
1.5411414e-08
1.5074239e-08
1.4702905e-08
1.4291185e-08
1.3829665e-08
1.3306349e-08
1.2692791e-08
1.1946211e-08
1.0830751e-08
9.810267e-09
9.5410537e-09
9.7732871e-09
1.0453193e-08
1.1596858e-08
1.3258e-08
1.5562562e-08
1.8666997e-08
2.2783535e-08
2.8189475e-08
3.5264748e-08
4.4314122e-08
5.5331253e-08
6.8357926e-08
8.3496508e-08
1.0077482e-07
1.2014907e-07
1.4146622e-07
1.6439259e-07
1.8841252e-07
2.1395881e-07
2.424543e-07
2.7592234e-07
3.14689e-07
3.59935e-07
4.134351e-07
4.7729915e-07
5.5429486e-07
6.4745614e-07
7.6444523e-07
8.9499108e-07
1.0330975e-06
1.1721637e-06
1.3052285e-06
1.4282487e-06
1.5135765e-06
1.5925109e-06
1.5131621e-06
1.604479e-06
1.0869548e-06
1.7800066e-06
5.2755319e-07
7.878304e-07
1.7751644e-07
1.3633382e-13
1.9482003e-12
1e-15
5.1745686e-15
1.3213306e-13
2.7330066e-11
4.5820414e-08
9.3549419e-08
5.1980845e-07
4.0215876e-07
5.639118e-07
5.3640428e-07
5.5168126e-07
5.1816726e-07
4.8008889e-07
4.3019284e-07
3.7703573e-07
3.2314968e-07
2.7064557e-07
2.2431899e-07
1.8727963e-07
1.5773076e-07
1.3370754e-07
1.1401342e-07
9.7721991e-08
8.4111945e-08
7.2678771e-08
6.2966565e-08
5.456602e-08
4.682786e-08
3.9552523e-08
3.2903737e-08
2.6973266e-08
2.1796291e-08
1.7369511e-08
1.3659268e-08
1.0612865e-08
8.1847349e-09
6.3337361e-09
4.9700252e-09
3.9651091e-09
3.2275161e-09
2.692307e-09
2.3120367e-09
2.0541067e-09
1.8979495e-09
1.8346044e-09
1.8715751e-09
2.0509204e-09
2.2518992e-09
2.3878119e-09
2.4974299e-09
2.5905931e-09
2.6724532e-09
2.745302e-09
2.8108594e-09
2.8702702e-09
2.9244189e-09
2.9739876e-09
3.0195274e-09
3.0614864e-09
3.1002425e-09
3.1361153e-09
3.1693798e-09
3.2002725e-09
3.229001e-09
3.2557476e-09
3.2806735e-09
3.303922e-09
3.3256278e-09
3.3458992e-09
3.3648395e-09
3.3825414e-09
3.3990907e-09
3.4145635e-09
3.429031e-09
3.442558e-09
3.4552053e-09
3.4670331e-09
3.4780954e-09
3.4884518e-09
3.4981426e-09
3.5072093e-09
3.5156505e-09
3.5234537e-09
3.5306544e-09
3.5372825e-09
3.5433757e-09
3.5489616e-09
3.5555648e-09
3.5526755e-09
3.5629069e-09
3.5666942e-09
3.5700546e-09
3.5730133e-09
3.575578e-09
3.5777579e-09
3.5795612e-09
3.5809923e-09
3.5820563e-09
3.5827598e-09
3.5796675e-09
3.5800904e-09
3.5826563e-09
3.581969e-09
3.5808688e-09
3.5794019e-09
3.577562e-09
3.5753441e-09
3.5727411e-09
3.5697435e-09
3.5663421e-09
3.5625255e-09
3.5582801e-09
3.5535929e-09
3.548446e-09
3.5428232e-09
3.5367048e-09
3.530068e-09
3.5228905e-09
3.5151462e-09
3.5068057e-09
3.4978394e-09
3.4882131e-09
3.4778889e-09
3.4668282e-09
3.454986e-09
3.4423138e-09
3.4287604e-09
3.4142675e-09
3.3987713e-09
3.3822046e-09
3.3644897e-09
3.3455422e-09
3.3252724e-09
3.3035771e-09
3.2803463e-09
3.255449e-09
3.2287425e-09
3.2000676e-09
3.1692442e-09
3.1360674e-09
3.1003019e-09
3.0616789e-09
3.0198811e-09
2.9745397e-09
2.9252092e-09
2.8713495e-09
2.8122915e-09
2.7471697e-09
2.6748666e-09
2.5936977e-09
2.501505e-09
2.3932353e-09
2.2612566e-09
2.0625973e-09
1.8778822e-09
1.8365185e-09
1.8968112e-09
2.0512857e-09
2.3080117e-09
2.6846623e-09
3.2172774e-09
3.9521376e-09
4.9543542e-09
6.3113055e-09
8.1446651e-09
1.0563164e-08
1.3594371e-08
1.7281348e-08
2.1680287e-08
2.6822273e-08
3.2713042e-08
3.9317391e-08
4.6537643e-08
5.4219946e-08
6.2550739e-08
7.2059887e-08
8.3502347e-08
9.7024044e-08
1.1315496e-07
1.326425e-07
1.5640157e-07
1.856537e-07
2.2166322e-07
2.6757397e-07
3.1860446e-07
3.7188546e-07
4.2394037e-07
4.7122976e-07
5.1073734e-07
5.3216391e-07
5.4294964e-07
4.996817e-07
4.9515734e-07
3.3428781e-07
4.596321e-07
1.4550494e-07
6.0605835e-08
6.0126491e-09
1.0136053e-15
2.0969058e-15
1e-15
1e-15
1e-15
1.0603494e-14
1.6951481e-09
1.6645457e-08
1.1776999e-07
1.1587085e-07
1.6315862e-07
1.6572489e-07
1.7476225e-07
1.6799656e-07
1.5729865e-07
1.4141671e-07
1.2342339e-07
1.0467669e-07
8.614003e-08
6.9805895e-08
5.6945943e-08
4.6896305e-08
3.8903266e-08
3.249275e-08
2.7305994e-08
2.3066118e-08
1.9582106e-08
1.6686177e-08
1.4238682e-08
1.2027532e-08
9.9815594e-09
8.1439257e-09
6.5370312e-09
5.1654317e-09
4.0214434e-09
3.0884104e-09
2.3443296e-09
1.7690244e-09
1.3440146e-09
1.0407961e-09
8.2413736e-10
6.695342e-10
5.6008149e-10
4.838368e-10
4.3274451e-10
4.0170994e-10
3.8814377e-10
3.928174e-10
4.2205818e-10
4.5466695e-10
4.7660947e-10
4.9421755e-10
5.0914925e-10
5.222407e-10
5.3387069e-10
5.443199e-10
5.5377594e-10
5.6238333e-10
5.7025341e-10
5.7747599e-10
5.8412406e-10
5.9025903e-10
5.9593277e-10
6.0118985e-10
6.0606851e-10
6.1060231e-10
6.1482067e-10
6.1874957e-10
6.2241205e-10
6.2582986e-10
6.2902031e-10
6.3199993e-10
6.3478358e-10
6.3738498e-10
6.3981626e-10
6.4208883e-10
6.4421301e-10
6.4619845e-10
6.4805475e-10
6.4979049e-10
6.514151e-10
6.52935e-10
6.5435672e-10
6.5568026e-10
6.5690359e-10
6.5803225e-10
6.5907106e-10
6.6002584e-10
6.6090102e-10
6.6196725e-10
6.6124896e-10
6.6308498e-10
6.6367904e-10
6.6420549e-10
6.6466906e-10
6.6507095e-10
6.6541262e-10
6.6569539e-10
6.6591991e-10
6.6608701e-10
6.6619786e-10
6.6555094e-10
6.6563125e-10
6.6618353e-10
6.6607818e-10
6.659074e-10
6.6567926e-10
6.6539277e-10
6.6504716e-10
6.6464136e-10
6.641738e-10
6.6364308e-10
6.6304743e-10
6.6238464e-10
6.6165272e-10
6.6084883e-10
6.599704e-10
6.5901435e-10
6.5797706e-10
6.5685501e-10
6.556441e-10
6.5433967e-10
6.52937e-10
6.5143075e-10
6.4981485e-10
6.4808321e-10
6.4622872e-10
6.4424362e-10
6.4211982e-10
6.3984807e-10
6.3741814e-10
6.3481938e-10
6.3203942e-10
6.2906475e-10
6.2588104e-10
6.2247184e-10
6.1881956e-10
6.1490313e-10
6.1069967e-10
6.0618353e-10
6.0132576e-10
5.9609333e-10
5.9044825e-10
5.8434711e-10
5.7773853e-10
5.7056279e-10
5.6274758e-10
5.5420522e-10
5.4482692e-10
5.3447197e-10
5.2295843e-10
5.1001277e-10
4.9528381e-10
4.7795619e-10
4.5680554e-10
4.2469397e-10
3.9430403e-10
3.8868793e-10
4.0160823e-10
4.3229947e-10
4.8311749e-10
5.5861138e-10
6.6751071e-10
8.2145162e-10
1.0373788e-09
1.338813e-09
1.7593848e-09
2.3320792e-09
3.0718577e-09
3.9983844e-09
5.1344145e-09
6.4958483e-09
8.0910622e-09
9.9154162e-09
1.1944989e-08
1.4139936e-08
1.6566594e-08
1.9399413e-08
2.289027e-08
2.7100742e-08
3.2236457e-08
3.85794e-08
4.6484774e-08
5.6436221e-08
6.8917843e-08
8.51127e-08
1.0310422e-07
1.2168461e-07
1.392892e-07
1.5436528e-07
1.6539548e-07
1.6894203e-07
1.664617e-07
1.4755134e-07
1.3562027e-07
9.0948567e-08
1.0144777e-07
3.6158791e-08
2.3106158e-09
1.1881224e-10
7.0275146e-14
1e-15
1e-15
1.5090436e-12
2.4312912e-11
6.2474162e-13
3.5992426e-11
2.3771258e-09
2.2409706e-08
2.9413556e-08
4.1783113e-08
4.5704911e-08
4.9674008e-08
4.9064945e-08
4.6558698e-08
4.2079177e-08
3.6620829e-08
3.0762256e-08
2.4885709e-08
1.9725186e-08
1.5730466e-08
1.2675411e-08
1.029977e-08
8.4366248e-09
6.9624204e-09
5.7832422e-09
4.835108e-09
4.0635433e-09
3.4257242e-09
2.8602016e-09
2.3451857e-09
1.8905698e-09
1.5007971e-09
1.1753666e-09
9.1045333e-10
7.0000364e-10
5.3679737e-10
4.1422858e-10
3.2636585e-10
2.6559216e-10
2.2345764e-10
1.9423297e-10
1.7406881e-10
1.6032478e-10
1.5125487e-10
1.4576219e-10
1.432496e-10
1.4374706e-10
1.4811627e-10
1.5297692e-10
1.5623718e-10
1.588457e-10
1.6105587e-10
1.6299172e-10
1.6471016e-10
1.6625302e-10
1.6764834e-10
1.6891768e-10
1.7007765e-10
1.7114166e-10
1.7212056e-10
1.7302352e-10
1.7385826e-10
1.7463139e-10
1.7534863e-10
1.7601494e-10
1.7663469e-10
1.7721176e-10
1.7774954e-10
1.7825128e-10
1.7871954e-10
1.7915675e-10
1.7956513e-10
1.7994669e-10
1.8030323e-10
1.8063645e-10
1.8094786e-10
1.8123889e-10
1.8151095e-10
1.8176531e-10
1.8200336e-10
1.8222605e-10
1.8243433e-10
1.8262823e-10
1.8280745e-10
1.8297278e-10
1.8312494e-10
1.8326478e-10
1.8339295e-10
1.8355359e-10
1.8340705e-10
1.8371268e-10
1.8379982e-10
1.8387694e-10
1.8394486e-10
1.8400374e-10
1.8405383e-10
1.8409529e-10
1.8412824e-10
1.8415278e-10
1.8416913e-10
1.8404823e-10
1.8406125e-10
1.8416703e-10
1.8415233e-10