/*--------------------------------*- C++ -*----------------------------------*\
| =========                 |                                                 |
| \\      /  F ield         | OpenFOAM: The Open Source CFD Toolbox           |
|  \\    /   O peration     | Version:  2.4.0                                 |
|   \\  /    A nd           | Web:      www.OpenFOAM.org                      |
|    \\/     M anipulation  |                                                 |
\*---------------------------------------------------------------------------*/
FoamFile
{
    version     2.0;
    format      ascii;
    class       volScalarField;
    location    "270";
    object      nut;
}
// * * * * * * * * * * * * * * * * * * * * * * * * * * * * * * * * * * * * * //

dimensions      [0 2 -1 0 0 0 0];

internalField   nonuniform List<scalar> 
32000
(
1.2695982e-08
4.5796516e-09
8.8718448e-09
3.4753256e-09
2.1847911e-09
2.1023159e-10
4.6623107e-10
2.7046496e-10
2.3339074e-10
1.621107e-10
1.371169e-10
1.181143e-10
1.0515249e-10
9.4746311e-11
8.6060098e-11
7.897804e-11
7.3034652e-11
6.8616304e-11
6.4333336e-11
5.9495923e-11
5.421228e-11
4.7465105e-11
3.9572242e-11
3.0474054e-11
4.1041132e-11
5.3486424e-11
6.6619494e-11
7.9721383e-11
9.2179445e-11
1.0334731e-10
1.1262273e-10
1.1941537e-10
1.2318398e-10
1.2361956e-10
1.2078105e-10
1.1503678e-10
1.0706235e-10
9.7498129e-11
8.7435817e-11
7.8159175e-11
7.0458941e-11
6.4783667e-11
6.1075864e-11
5.9278781e-11
5.9391337e-11
6.0843421e-11
6.3455264e-11
6.8399256e-11
7.5091266e-11
8.3308647e-11
9.3402369e-11
1.0544477e-10
1.1909885e-10
1.3343848e-10
1.4753019e-10
1.6075795e-10
1.7275066e-10
1.8257714e-10
1.8930775e-10
1.9194159e-10
1.8942669e-10
1.8082117e-10
1.6571833e-10
1.4430294e-10
1.1774093e-10
8.8009417e-11
5.8009854e-11
4.9395631e-11
7.0283846e-11
8.1189939e-11
8.5090795e-11
8.2891755e-11
7.5573111e-11
6.6171436e-11
5.6541585e-11
4.798713e-11
4.1481449e-11
3.9747156e-11
4.0796808e-11
3.9753911e-11
4.1334101e-11
4.6525061e-11
5.3204186e-11
6.1303075e-11
7.0744862e-11
8.1396023e-11
9.2922704e-11
1.0481686e-10
1.161483e-10
1.2588877e-10
1.321548e-10
1.3290386e-10
1.2583743e-10
1.0846413e-10
7.545762e-11
5.1980964e-11
1.2704795e-10
2.1660865e-10
3.2418678e-10
4.4449568e-10
5.6779523e-10
6.7169723e-10
7.1846193e-10
6.5696119e-10
4.4894736e-10
1.6405597e-10
1.4842373e-10
2.4820673e-10
2.6452034e-10
2.7238543e-10
2.9785956e-10
3.1335908e-10
2.730306e-10
1.7617835e-10
5.4960957e-11
1.4723326e-10
2.5875977e-10
3.7625563e-10
5.0859041e-10
6.5249716e-10
7.9089561e-10
8.9325745e-10
9.2185268e-10
8.4745976e-10
6.6658466e-10
4.1747341e-10
1.670318e-10
1.179114e-10
2.3707229e-10
2.8482136e-10
2.8003069e-10
2.2606996e-10
1.2544776e-10
5.5264019e-11
1.0600897e-10
1.3708381e-10
1.6893393e-10
2.0101619e-10
2.2863038e-10
2.4477761e-10
2.3367488e-10
1.7713484e-10
7.4603534e-11
1.4774146e-10
3.0821555e-10
4.810092e-10
6.5519072e-10
8.229143e-10
9.7986713e-10
1.122019e-09
1.2486477e-09
1.3409961e-09
1.3909982e-09
1.2042132e-09
9.4017755e-10
8.2902558e-10
7.4560868e-10
6.9146243e-10
6.5520016e-10
6.3046555e-10
6.1358902e-10
6.0411179e-10
5.9890736e-10
5.9681941e-10
5.9903459e-10
6.1096358e-10
6.3058656e-10
6.5144033e-10
6.712741e-10
6.8858914e-10
7.0230189e-10
7.1170068e-10
7.1615648e-10
7.1269683e-10
6.963978e-10
6.6601987e-10
6.2512843e-10
5.7856488e-10
5.26442e-10
4.7028894e-10
4.1131388e-10
3.4981558e-10
2.865518e-10
2.2121758e-10
1.5391909e-10
6.0833294e-11
9.9014997e-11
2.3337758e-10
4.0629536e-10
6.3591523e-10
9.6832517e-10
1.3428393e-09
2.0248575e-09
1.8702195e-09
3.2513994e-09
2.0439363e-09
4.6608333e-09
4.6472557e-09
9.6034326e-09
4.6719226e-09
6.8909437e-09
4.1090965e-09
5.5178377e-09
2.9356868e-09
2.0429213e-09
2.6956907e-10
5.5043682e-10
4.7050943e-10
3.2246191e-10
2.4808262e-10
2.0323616e-10
1.763888e-10
1.5519882e-10
1.3823603e-10
1.2340807e-10
1.1087838e-10
1.0002006e-10
9.1557438e-11
8.3576354e-11
7.5056748e-11
6.6132613e-11
5.5392914e-11
4.3292397e-11
3.0017827e-11
4.3337474e-11
5.8972049e-11
7.5260363e-11
9.1191512e-11
1.0590973e-10
1.1854378e-10
1.2830723e-10
1.3447919e-10
1.3646642e-10
1.3403618e-10
1.2747769e-10
1.1752183e-10
1.0530783e-10
9.183171e-11
7.8424981e-11
6.6526335e-11
5.6937634e-11
5.0044194e-11
4.5695913e-11
4.3785155e-11
4.4310929e-11
4.6738775e-11
5.1244177e-11
5.791049e-11
6.5502375e-11
7.4215386e-11
8.4521656e-11
9.6547102e-11
1.1000337e-10
1.2401802e-10
1.3770894e-10
1.5049937e-10
1.6205108e-10
1.7149439e-10
1.7796484e-10
1.8053415e-10
1.7823112e-10
1.7019254e-10
1.5605917e-10
1.360342e-10
1.112362e-10
8.3542743e-11
5.574572e-11
4.8689159e-11
6.8601337e-11
7.9137972e-11
8.2894001e-11
8.0765017e-11
7.3757834e-11
6.4767614e-11
5.55884e-11
4.7461134e-11
4.1322211e-11
3.950235e-11
4.0320365e-11
3.9667359e-11
4.1411565e-11
4.6327688e-11
5.2609219e-11
6.0179497e-11
6.8962971e-11
7.883489e-11
8.9487065e-11
1.0045526e-10
1.1085174e-10
1.1976971e-10
1.2542704e-10
1.2593526e-10
1.1915877e-10
1.0277388e-10
7.1949876e-11
5.0023882e-11
1.1981888e-10
2.0365214e-10
3.0452173e-10
4.1743557e-10
5.3315289e-10
6.3052427e-10
6.740223e-10
6.1634143e-10
4.233174e-10
1.608849e-10
1.4346386e-10
2.3670027e-10
2.5272842e-10
2.5979373e-10
2.8284094e-10
2.9692798e-10
2.5950817e-10
1.6924917e-10
5.6683148e-11
1.3955772e-10
2.4349709e-10
3.5326724e-10
4.7708039e-10
6.1203513e-10
7.4219881e-10
8.3893567e-10
8.6679124e-10
7.9838172e-10
6.305179e-10
3.9875103e-10
1.6564891e-10
1.1300935e-10
2.2458816e-10
2.7045887e-10
2.6660602e-10
2.1621293e-10
1.2162676e-10
5.6585612e-11
1.0428199e-10
1.3380834e-10
1.6397677e-10
1.9442334e-10
2.2062058e-10
2.3569696e-10
2.2461196e-10
1.7035773e-10
7.2831637e-11
1.4092862e-10
2.9436598e-10
4.6155723e-10
6.3206407e-10
7.9848812e-10
9.5677739e-10
1.1031755e-09
1.237063e-09
1.3401856e-09
1.4029744e-09
1.2254467e-09
9.5850636e-10
8.4552397e-10
7.6368945e-10
7.1351378e-10
6.8326731e-10
6.6620879e-10
6.5855752e-10
6.5987074e-10
6.6683803e-10
6.7802292e-10
6.9472846e-10
7.2320465e-10
7.6089844e-10
8.0003304e-10
8.3765786e-10
8.7163745e-10
9.003353e-10
9.2257184e-10
9.3729534e-10
9.4045747e-10
9.2597648e-10
8.9250023e-10
8.4474681e-10
7.8841867e-10
7.2353733e-10
6.5188754e-10
5.7487002e-10
4.9268337e-10
4.0611098e-10
3.145504e-10
2.1769079e-10
8.3550887e-11
1.4243409e-10
3.4073618e-10
5.8801092e-10
9.0994205e-10
1.3302683e-09
1.8518462e-09
2.4383397e-09
2.6591038e-09
2.9362724e-09
1.5436412e-09
3.341612e-09
3.484141e-09
5.7077706e-09
4.4248265e-09
5.9180752e-10
8.4534923e-10
7.545161e-10
9.5604925e-10
7.7387103e-10
1.1638576e-10
3.0199724e-10
4.1319401e-10
2.2987407e-10
2.0214004e-10
1.6239173e-10
1.4468372e-10
1.2758702e-10
1.1402635e-10
1.0149352e-10
9.0554817e-11
8.0754457e-11
7.280701e-11
6.5431813e-11
5.7897011e-11
5.0305426e-11
4.1647859e-11
3.2273053e-11
2.2419354e-11
3.1065584e-11
4.1196638e-11
5.1592683e-11
6.152529e-11
7.0349368e-11
7.745943e-11
8.2352676e-11
8.4622425e-11
8.4001987e-11
8.0506983e-11
7.450891e-11
6.6657158e-11
5.7844649e-11
4.882555e-11
4.0372195e-11
3.3194641e-11
2.7594996e-11
2.363882e-11
2.1139923e-11
1.9966547e-11
2.0056876e-11
2.1152179e-11
2.3254825e-11
2.6199597e-11
2.9474001e-11
3.3134418e-11
3.741567e-11
4.2368381e-11
4.7877292e-11
5.3581043e-11
5.9119211e-11
6.4260083e-11
6.887123e-11
7.2605247e-11
7.5119869e-11
7.6050053e-11
7.5018525e-11
7.169456e-11
6.5951453e-11
5.7890384e-11
4.7975753e-11
3.6970211e-11
2.6012154e-11
2.3397915e-11
3.1370205e-11
3.5613303e-11
3.7100556e-11
3.6200752e-11
3.3341099e-11
2.9689135e-11
2.5976988e-11
2.2707094e-11
2.0257139e-11
1.9518518e-11
1.9837983e-11
1.9639761e-11
2.0379108e-11
2.233994e-11
2.4827524e-11
2.7806588e-11
3.1246251e-11
3.5097815e-11
3.9241941e-11
4.3503231e-11
4.751286e-11
5.0959412e-11
5.3113963e-11
5.3246993e-11
5.0519372e-11
4.4014458e-11
3.1875041e-11
2.330305e-11
5.079779e-11
8.4060162e-11
1.2417108e-10
1.6910505e-10
2.1509954e-10
2.5357071e-10
2.7021549e-10
2.4667625e-10
1.7047406e-10
6.8476946e-11
6.1521958e-11
9.8038678e-11
1.0471577e-10
1.0749886e-10
1.163505e-10
1.2177964e-10
1.0712769e-10
7.1529701e-11
2.7186323e-11
5.9458522e-11
1.0060404e-10
1.4422982e-10
1.9355714e-10
2.4742086e-10
2.9938738e-10
3.3789133e-10
3.4871034e-10
3.211911e-10
2.5439197e-10
1.6270402e-10
7.1030966e-11
4.9633453e-11
9.3509648e-11
1.1200237e-10
1.1081147e-10
9.1025847e-11
5.341418e-11
2.7528399e-11
4.6491343e-11
5.8429453e-11
7.0655583e-11
8.3016082e-11
9.3632797e-11
9.9648594e-11
9.500749e-11
7.301049e-11
3.3743504e-11
6.1094393e-11
1.2393025e-10
1.9355284e-10
2.6580804e-10
3.3779068e-10
4.079505e-10
4.7488194e-10
5.3849805e-10
5.9119918e-10
6.2814199e-10
5.5702725e-10
4.3855322e-10
3.8873724e-10
3.5490656e-10
3.3662725e-10
3.2860275e-10
3.2769965e-10
3.3228907e-10
3.4227735e-10
3.5618277e-10
3.7323211e-10
3.9414806e-10
4.2237185e-10
4.5632517e-10
4.9149797e-10
5.2593718e-10
5.5805171e-10
5.8652172e-10
6.1028609e-10
6.283912e-10
6.3796435e-10
6.3529087e-10
6.1968389e-10
5.942814e-10
5.6216965e-10
5.232022e-10
4.7829071e-10
4.2812029e-10
3.7254409e-10
3.1175801e-10
2.4503312e-10
1.7151534e-10
6.8544877e-11
1.1619816e-10
2.7101282e-10
4.5751791e-10
6.9431268e-10
9.6749434e-10
1.3381369e-09
1.52341e-09
1.8736657e-09
1.3148181e-09
5.0140345e-10
1.1088753e-09
1.0954873e-09
7.3685527e-10
9.478976e-10
5.7013899e-12
3.3648111e-11
1.6110708e-11
1.5506064e-10
1.6618712e-10
2.6605599e-11
1.0329422e-10
2.3760149e-10
1.0837019e-10
1.1180081e-10
8.875264e-11
8.2046633e-11
7.2904318e-11
6.5636716e-11
5.8348837e-11
5.1692933e-11
4.5463359e-11
4.018433e-11
3.5378902e-11
3.0716232e-11
2.6242728e-11
2.1481037e-11
1.6604318e-11
1.1710256e-11
1.5092146e-11
1.9073559e-11
2.3054292e-11
2.6691149e-11
2.9666036e-11
3.1725827e-11
3.2696996e-11
3.2481918e-11
3.1073078e-11
2.8597672e-11
2.531954e-11
2.1588316e-11
1.7815372e-11
1.4312926e-11
1.1294533e-11
8.8965007e-12
7.1173199e-12
5.8945405e-12
5.1199229e-12
4.7180451e-12
4.6440273e-12
4.8313634e-12
5.2408176e-12
5.7934941e-12
6.4159772e-12
7.0969678e-12
7.8903643e-12
8.8035924e-12
9.815154e-12
1.0856404e-11
1.1860416e-11
1.2785111e-11
1.3606836e-11
1.4262698e-11
1.4691503e-11
1.4828708e-11
1.4609428e-11
1.3977506e-11
1.2914594e-11
1.1444215e-11
9.6548532e-12
7.6871926e-12
5.7508383e-12
5.2946483e-12
6.7241241e-12
7.4887973e-12
7.7506298e-12
7.5768388e-12
7.0481525e-12
6.3768346e-12
5.6982656e-12
5.1052268e-12
4.6662746e-12
4.541705e-12
4.608671e-12
4.5778813e-12
4.7131887e-12
5.0658514e-12
5.5088165e-12
6.0346533e-12
6.6377535e-12
7.3097464e-12
8.0301699e-12
8.7704949e-12
9.457947e-12
1.005487e-11
1.0420662e-11
1.0431605e-11
9.9393083e-12
8.7806886e-12
6.6361573e-12
5.1490513e-12
1.004057e-11
1.6017555e-11
2.325031e-11
3.1357284e-11
3.9632034e-11
4.6463128e-11
4.9205052e-11
4.4716864e-11
3.1070495e-11
1.33235e-11
1.2240119e-11
1.862141e-11
1.9900572e-11
2.0411702e-11
2.1934342e-11
2.2872901e-11
2.0304545e-11
1.3978636e-11
6.0936107e-12
1.1871724e-11
1.9242379e-11
2.710835e-11
3.6037377e-11
4.5800353e-11
5.5188429e-11
6.2044161e-11
6.3769069e-11
5.8575995e-11
4.6416699e-11
3.000923e-11
1.3850692e-11
1.027093e-11
1.7946902e-11
2.1279874e-11
2.1155826e-11
1.7701478e-11
1.0986353e-11
6.2878558e-12
9.6544428e-12
1.1828714e-11
1.4071734e-11
1.6339303e-11
1.827106e-11
1.9328597e-11
1.8427631e-11
1.4412615e-11
7.3383189e-12
1.2316185e-11
2.3945218e-11
3.7134533e-11
5.1161382e-11
6.5534115e-11
8.0011947e-11
9.4392317e-11
1.0873871e-10
1.2163167e-10
1.3194448e-10
1.1913519e-10
9.4120527e-11
8.3890164e-11
7.7907779e-11
7.5823552e-11
7.6543074e-11
7.9432637e-11
8.4261337e-11
9.1143255e-11
9.9873912e-11
1.1033199e-10
1.2282707e-10
1.3844263e-10
1.566204e-10
1.7587009e-10
1.9538652e-10
2.143882e-10
2.321479e-10
2.4800181e-10
2.613314e-10
2.7076116e-10
2.7491901e-10
2.7364386e-10
2.6824571e-10
2.5948343e-10
2.4714851e-10
2.3138103e-10
2.1222779e-10
1.893398e-10
1.6244519e-10
1.308855e-10
9.3580673e-11
3.9697935e-11
6.6379076e-11
1.4942651e-10
2.4525931e-10
3.6254216e-10
4.7640557e-10
6.4636619e-10
6.2403334e-10
8.3407908e-10
3.7580286e-10
9.2223022e-11
2.2597313e-10
1.8845576e-10
1.5213316e-11
3.9315835e-11
4.6755874e-15
1.6886343e-13
2.139438e-14
1.2264724e-11
2.2682052e-11
4.2486913e-12
2.4915875e-11
8.9015746e-11
3.5081657e-11
4.2513586e-11
3.370071e-11
3.2499248e-11
2.9180259e-11
2.6470488e-11
2.3444895e-11
2.0521171e-11
1.7656355e-11
1.5137313e-11
1.291223e-11
1.0884323e-11
9.0544347e-12
7.2677698e-12
5.5709348e-12
3.9705939e-12
4.670463e-12
5.5171594e-12
6.3242713e-12
6.9906246e-12
7.4238147e-12
7.5725254e-12
7.4199504e-12
6.9792324e-12
6.2919026e-12
5.4301091e-12
4.4858955e-12
3.5535044e-12
2.7210197e-12
2.0361574e-12
1.506247e-12
1.1210956e-12
8.546486e-13
6.7950442e-13
5.7018465e-13
5.1015975e-13
4.8992623e-13
5.0177553e-13
5.3909896e-13
5.8734503e-13
6.4098995e-13
6.9771097e-13
7.6316396e-13
8.3799374e-13
9.2060264e-13
1.0054113e-12
1.0869982e-12
1.1619565e-12
1.228327e-12
1.2810453e-12
1.3152159e-12
1.3257346e-12
1.3076821e-12
1.2568234e-12
1.1720241e-12
1.0555811e-12
9.1493983e-13
7.616129e-13
6.1288629e-13
5.7871251e-13
6.9304491e-13
7.55253e-13
7.7619888e-13
7.6122438e-13
7.1724079e-13
6.6158012e-13
6.0565699e-13
5.5731497e-13
5.2221117e-13
5.1338817e-13
5.202154e-13
5.1842824e-13
5.2978885e-13
5.5853941e-13
5.9407901e-13
6.3566768e-13
6.8284851e-13
7.3499524e-13
7.9057031e-13
8.4762422e-13
8.9931972e-13
9.4516685e-13
9.7221497e-13
9.7141983e-13
9.3103158e-13
8.3808603e-13
6.6866821e-13
5.552748e-13
9.4609874e-13
1.4311328e-12
2.0208772e-12
2.681957e-12
3.3540048e-12
3.8986357e-12
4.0929738e-12
3.7010955e-12
2.6021403e-12
1.2299883e-12
1.1639526e-12
1.6634544e-12
1.7768944e-12
1.8187199e-12
1.9325188e-12
2.0017436e-12
1.7985876e-12
1.2934895e-12
6.6636651e-13
1.130947e-12
1.7234489e-12
2.3618008e-12
3.0896548e-12
3.8855354e-12
4.6454315e-12
5.1864487e-12
5.295162e-12
4.844083e-12
3.8447748e-12
2.5317846e-12
1.2695992e-12
1.0165103e-12
1.6072088e-12
1.8737331e-12
1.8716919e-12
1.6052762e-12
1.0745822e-12
6.9426395e-13
9.540284e-13
1.1284055e-12
1.3098906e-12
1.4924046e-12
1.6444597e-12
1.7206851e-12
1.6369682e-12
1.3107688e-12
7.5582089e-13
1.1463473e-12
2.0765543e-12
3.1573097e-12
4.3333332e-12
5.5690061e-12
6.8492677e-12
8.1634518e-12
9.5244685e-12
1.0816684e-11
1.1924278e-11
1.0849716e-11
8.4860306e-12
7.5641794e-12
7.1576448e-12
7.2003261e-12
7.6086496e-12
8.3509314e-12
9.4533172e-12
1.0986106e-11
1.3000991e-11
1.5556826e-11
1.8782878e-11
2.291317e-11
2.7889526e-11
3.348314e-11
3.9527151e-11
4.5809818e-11
5.2095611e-11
5.813361e-11
6.3664642e-11
6.8244025e-11
7.1560734e-11
7.3615556e-11
7.4751746e-11
7.4938776e-11
7.4045773e-11
7.198154e-11
6.8612686e-11
6.3662044e-11
5.6805971e-11
4.7617071e-11
3.5255626e-11
1.6184487e-11
2.6621132e-11
5.7507411e-11
9.1416626e-11
1.3085627e-10
1.6101336e-10
2.1059572e-10
1.7324622e-10
2.3190311e-10
7.7791842e-11
1.2829596e-11
3.1575454e-11
1.8859686e-11
2.300534e-14
1.9999177e-13
1.2454031e-17
8.6698546e-17
1.3469837e-17
3.5668402e-13
1.9728497e-12
5.5735398e-13
4.7311362e-12
2.1343752e-11
8.2627437e-12
1.1192038e-11
8.9862585e-12
8.9642515e-12
8.1159528e-12
7.3760599e-12
6.4662737e-12
5.5446004e-12
4.6177006e-12
3.7941726e-12
3.1000224e-12
2.5110557e-12
2.0152052e-12
1.5741352e-12
1.1894307e-12
8.5320466e-13
9.0495395e-13
9.8226757e-13
1.049731e-12
1.0894051e-12
1.0872645e-12
1.0408726e-12
9.5463345e-13
8.3764177e-13
7.0198308e-13
5.6142451e-13
4.288415e-13
3.140496e-13
2.2330046e-13
1.5670396e-13
1.10006e-13
7.8630932e-14
5.8173018e-14
4.5210099e-14
3.7249332e-14
3.2800892e-14
3.1064194e-14
3.1626244e-14
3.4222508e-14
3.7405977e-14
4.0600147e-14
4.3802518e-14
4.7385616e-14
5.1418897e-14
5.5847164e-14
6.0403191e-14
6.4814027e-14
6.8899865e-14
7.2549637e-14
7.5500482e-14
7.7495683e-14
7.8269302e-14
7.7571275e-14
7.5193495e-14
7.1085057e-14
6.5377244e-14
5.8465518e-14
5.095565e-14
4.3782325e-14
4.2311924e-14
4.8335056e-14
5.1730751e-14
5.2879909e-14
5.2052494e-14
4.9647711e-14
4.6599989e-14
4.3553953e-14
4.0953979e-14
3.9113037e-14
3.871282e-14
3.9161529e-14
3.9150506e-14
3.9818154e-14
4.1384882e-14
4.3280067e-14
4.5454033e-14
4.7881965e-14
5.0533805e-14
5.3334889e-14
5.6202517e-14
5.8704227e-14
6.0995835e-14
6.2260492e-14
6.2080671e-14
5.9844866e-14
5.4885488e-14
4.6088015e-14
4.0518262e-14
6.1024298e-14
8.6984688e-14
1.1869467e-13
1.5420827e-13
1.9018033e-13
2.1886482e-13
2.279852e-13
2.0567745e-13
1.4770339e-13
7.8365244e-14
7.6017106e-14
1.0209061e-13
1.0887266e-13
1.110303e-13
1.1634613e-13
1.1938467e-13
1.0854937e-13
8.1936859e-14
4.9393199e-14
7.3495087e-14
1.0464505e-13
1.3858972e-13
1.7741234e-13
2.1978728e-13
2.5989895e-13
2.877063e-13
2.9181064e-13
2.6612326e-13
2.1244788e-13
1.4393178e-13
7.9832944e-14
6.8096286e-14
9.7597662e-14
1.1152363e-13
1.117159e-13
9.8239518e-14
7.1107957e-14
5.12773e-14
6.3880323e-14
7.2805843e-14
8.2165305e-14
9.1473168e-14
9.8935653e-14
1.0206737e-13
9.6709063e-14
7.939656e-14
5.1761452e-14
7.0519539e-14
1.1632554e-13
1.7032246e-13
2.2955723e-13
2.9218112e-13
3.573527e-13
4.2442127e-13
4.9381923e-13
5.5912202e-13
6.126805e-13
5.47559e-13
4.1738839e-13
3.6834513e-13
3.5192081e-13
3.6269377e-13
3.9782747e-13
4.5835044e-13
5.5032194e-13
6.8426119e-13
8.7285908e-13
1.1326348e-12
1.4901846e-12
1.9836552e-12
2.6257906e-12
3.412118e-12
4.3372278e-12
5.3824199e-12
6.5171726e-12
7.6995288e-12
8.8764996e-12
9.9623587e-12
1.0910473e-11
1.1729132e-11
1.2480962e-11
1.3122746e-11
1.3618975e-11
1.3927293e-11
1.3986916e-11
1.3694666e-11
1.2904858e-11
1.1446867e-11
8.9317125e-12
4.5530843e-12
7.3605592e-12
1.5217288e-11
2.3478896e-11
3.2533939e-11
3.7809668e-11
4.6838242e-11
3.4794224e-11
4.1064861e-11
1.3307468e-11
1.7283028e-12
3.0162961e-12
1.0248758e-12
1.312487e-17
9.3750112e-17
4.6212532e-22
3.1522485e-19
4.5292513e-23
1.9612028e-15
9.750694e-14
5.8929304e-14
7.3795901e-13
3.590449e-12
1.5677404e-12
2.2136525e-12
1.8250762e-12
1.8436762e-12
1.6715375e-12
1.5062086e-12
1.2966732e-12
1.081457e-12
8.6683355e-13
6.8013508e-13
5.3139832e-13
4.1351911e-13
3.2036114e-13
2.4377248e-13
1.8159187e-13
1.3087439e-13
1.2659503e-13
1.2664734e-13
1.2618622e-13
1.2286716e-13
1.1531699e-13
1.03929e-13
8.9768494e-14
7.4195956e-14
5.8600572e-14
4.4219404e-14
3.193667e-14
2.22029e-14
1.5093562e-14
1.0222782e-14
6.987227e-15
4.8966118e-15
3.5684188e-15
2.737308e-15
2.2278369e-15
1.9387311e-15
1.8162825e-15
1.8395802e-15
2.0009237e-15
2.1937156e-15
2.3735809e-15
2.5475278e-15
2.7375404e-15
2.9487858e-15
3.1795815e-15
3.4173012e-15
3.6484748e-15
3.8639218e-15
4.0576142e-15
4.2161699e-15
4.3264663e-15
4.3749782e-15
4.3490738e-15
4.2389409e-15
4.0423803e-15
3.766686e-15
3.4324217e-15
3.070787e-15
2.7307919e-15
2.6728656e-15
2.9829872e-15
3.1642856e-15
3.227289e-15
3.1848557e-15
3.0587523e-15
2.8976461e-15
2.7368361e-15
2.6006464e-15
2.5057892e-15
2.4860193e-15
2.5107554e-15
2.5139885e-15
2.5512569e-15
2.6329899e-15
2.730333e-15
2.8403047e-15
2.9616324e-15
3.0929559e-15
3.2307952e-15
3.3718812e-15
3.4902933e-15
3.6040222e-15
3.6634734e-15
3.6505162e-15
3.5340137e-15
3.2804879e-15
2.83915e-15
2.5747917e-15
3.6290184e-15
4.9856531e-15
6.6498423e-15
8.5112537e-15
1.039008e-14
1.1863538e-14
1.227012e-14
1.1020567e-14
8.0166934e-15
4.5782318e-15
4.4831327e-15
5.8176945e-15
6.2184884e-15
6.3356019e-15
6.584373e-15
6.7277381e-15
6.1846587e-15
4.831935e-15
3.1871257e-15
4.3912443e-15
5.9841247e-15
7.7401831e-15
9.7565174e-15
1.1956227e-14
1.4024285e-14
1.5424561e-14
1.5562227e-14
1.4143293e-14
1.1330061e-14
7.8355329e-15
4.6467232e-15
4.0741632e-15
5.5203629e-15
6.2420119e-15
6.2813536e-15
5.6321158e-15
4.2881646e-15
3.2860045e-15
3.8840253e-15
4.327234e-15
4.7951481e-15
5.2549645e-15
5.6075387e-15
5.7204083e-15
5.3943511e-15
4.4974808e-15
3.1489174e-15
4.0330533e-15
6.2509809e-15
8.9008656e-15
1.1828186e-14
1.4935976e-14
1.8173534e-14
2.1494562e-14
2.4894963e-14
2.8006475e-14
3.0332774e-14
2.6507785e-14
1.9749637e-14
1.7249781e-14
1.653981e-14
1.7276281e-14
1.9370813e-14
2.29796e-14
2.8599772e-14
3.7070526e-14
4.9549031e-14
6.7705932e-14
9.4280656e-14
1.3326715e-13
1.8736713e-13
2.5835518e-13
3.4793109e-13
4.5647556e-13
5.8280578e-13
7.2380638e-13
8.7405309e-13
1.0235444e-12
1.167284e-12
1.3074345e-12
1.4535218e-12
1.599039e-12
1.7399352e-12
1.8701828e-12
1.9795242e-12
2.0491088e-12
2.047014e-12
1.9356514e-12
1.6105225e-12
9.3056831e-13
1.4807422e-12
2.9387246e-12
4.4485645e-12
6.0189294e-12
6.7864996e-12
7.8983587e-12
5.7272058e-12
5.4812085e-12
1.9742457e-12
2.2275445e-13
1.7450202e-13
2.4354161e-14
4.7379276e-22
2.257691e-19
1.086718e-27
3.7169452e-24
9.659297e-30
2.7469628e-17
2.2214036e-15
4.7515073e-15
9.2395589e-14
4.9544863e-13
2.5345854e-13
3.6707245e-13
3.1354962e-13
3.1786113e-13
2.8798436e-13
2.5621637e-13
2.1623322e-13
1.7543158e-13
1.3568854e-13
1.0219463e-13
7.6804748e-14
5.7726387e-14
4.3358222e-14
3.2191768e-14
2.3575414e-14
1.6901925e-14
1.5318495e-14
1.442115e-14
1.3616355e-14
1.2610903e-14
1.1271165e-14
9.678844e-15
7.9661666e-15
6.2722545e-15
4.7171878e-15
3.3879109e-15
2.3281091e-15
1.5406642e-15
9.9945616e-16
9.8469907e-16
1.012764e-15
1.0375592e-15
1.0578074e-15
1.0717526e-15
1.0772349e-15
1.0719411e-15
1.0522562e-15
1.0154822e-15
9.4606244e-16
8.7979073e-16
8.4155198e-16
8.1283875e-16
7.9050177e-16
7.7206601e-16
7.5641898e-16
7.4274283e-16
7.3062922e-16
7.1985263e-16
7.1016848e-16
7.0132878e-16
6.9318196e-16
6.8558949e-16
6.7843832e-16
6.7168549e-16
6.6526147e-16
6.5916472e-16
6.5344603e-16
6.4819683e-16
6.435119e-16
6.3951967e-16
6.3666038e-16
6.3483249e-16
6.3360618e-16
6.3263102e-16
6.31574e-16
6.3017422e-16
6.2856987e-16
6.2685854e-16
6.249769e-16
6.2295563e-16
6.2088327e-16
6.1888571e-16
6.1705291e-16
6.1538882e-16
6.1391578e-16
6.1264069e-16
6.115832e-16
6.1076572e-16
6.1021958e-16
6.0997864e-16
6.1009241e-16
6.1057367e-16
6.1149992e-16
6.1297197e-16
6.1499142e-16
6.1765495e-16
6.2111711e-16
6.2515001e-16
6.2862512e-16
6.3143012e-16
6.3412749e-16
6.3608056e-16
6.3647237e-16
6.339548e-16
6.2690622e-16
6.153194e-16
6.0172779e-16
5.908253e-16
5.8674161e-16
5.9166703e-16
5.9987708e-16
6.0447721e-16
6.0796819e-16
6.1444937e-16
6.2356496e-16
6.3102421e-16
6.3442892e-16
6.3412193e-16
6.3389478e-16
6.3538958e-16
6.3796986e-16
6.4068426e-16
6.7442432e-16
7.3774436e-16
7.4006993e-16
6.6900959e-16
6.2606073e-16
6.1948819e-16
6.1494328e-16
6.1374467e-16
6.1670522e-16
6.2367769e-16
6.3324699e-16
6.4477819e-16
6.5475909e-16
6.5861753e-16
6.5922458e-16
6.6039841e-16
6.6247597e-16
6.6448525e-16
6.655941e-16
6.6549719e-16
6.6537399e-16
6.6907338e-16
6.7810116e-16
6.9043034e-16
7.0566695e-16
7.2365044e-16
7.443051e-16
7.678119e-16
8.5524081e-16
1.0151072e-15
1.1799553e-15
1.3305996e-15
1.4375306e-15
1.2409922e-15
1.0447367e-15
1.0541086e-15
1.0549687e-15
1.0475166e-15
1.0337021e-15
1.1443105e-15
1.4823982e-15
2.0099517e-15
2.821253e-15
4.0609856e-15
5.9727498e-15
8.9226393e-15
1.3229712e-14
1.9187512e-14
2.710846e-14
3.7212269e-14
4.9579105e-14
6.4073359e-14
8.0273274e-14
9.7216665e-14
1.1446468e-13
1.324048e-13
1.5233728e-13
1.7363778e-13
1.9608024e-13
2.1920265e-13
2.4194819e-13
2.6203411e-13
2.7480007e-13
2.7479881e-13
2.4277528e-13
1.5757237e-13
2.4816643e-13
4.7697529e-13
7.1494158e-13
9.5110791e-13
1.0555359e-12
1.1537635e-12
8.2676295e-13
6.5236854e-13
2.4490353e-13
2.5589438e-14
4.9085584e-15
1.8642224e-16
3.8335228e-27
1.4789285e-24
2.7990529e-31
1.3997862e-29
5.4737519e-27
4.0650834e-22
3.6256387e-17
2.7329336e-16
8.9109275e-15
5.82915e-14
3.437131e-14
5.2307068e-14
4.6603985e-14
4.7882962e-14
4.3620037e-14
3.8513947e-14
3.1985217e-14
2.531866e-14
1.8931224e-14
1.3697071e-14
9.8969837e-15
7.1710167e-15
5.2057582e-15
3.7513781e-15
2.6792944e-15
1.8869361e-15
1.623421e-15
1.4537612e-15
1.3114544e-15
1.1621235e-15
9.9263872e-16
8.1335359e-16
7.6475311e-16
7.9928628e-16
8.3526503e-16
8.7256004e-16
9.1092118e-16
9.4896108e-16
9.8442285e-16
1.0165739e-15
1.0458928e-15
1.0720512e-15
1.0937397e-15
1.1090863e-15
1.1157877e-15
1.1113118e-15
1.0917957e-15
1.0544365e-15
9.8425606e-16
9.1740464e-16
8.7869148e-16
8.4969768e-16
8.2721183e-16
8.0868366e-16
7.9292775e-16
7.7908305e-16
7.6675013e-16
7.5573845e-16
7.4580115e-16
7.3666758e-16
7.2818369e-16
7.2020272e-16
7.1259598e-16
7.0533572e-16
6.9835246e-16
6.9166273e-16
6.8535083e-16
6.7955369e-16
6.7441126e-16
6.7011497e-16
6.6725993e-16
6.6573982e-16
6.6497559e-16
6.6448456e-16
6.638224e-16
6.6264539e-16
6.6113972e-16
6.5943839e-16
6.5745792e-16
6.5524238e-16
6.5291671e-16
6.5065454e-16
6.4858069e-16
6.4670693e-16
6.4506486e-16
6.4366767e-16
6.4254368e-16
6.4172575e-16
6.4125771e-16
6.4118772e-16
6.4157832e-16
6.4246026e-16
6.4392961e-16
6.4612306e-16
6.4903875e-16
6.5281642e-16
6.5766819e-16
6.6331428e-16
6.6822018e-16
6.7214519e-16
6.759068e-16
6.7864128e-16
6.7923421e-16
6.7585219e-16
6.662957e-16
6.5042101e-16
6.3189229e-16
6.169777e-16
6.10995e-16
6.170285e-16
6.2790535e-16
6.3411764e-16
6.3882747e-16
6.4753053e-16
6.5969459e-16
6.6963733e-16
6.7402211e-16
6.7329628e-16
6.7269124e-16
6.7438189e-16
6.7752194e-16
6.8084005e-16
6.827809e-16
6.8185982e-16
6.7706379e-16
6.6880759e-16
6.589697e-16
6.4944766e-16
6.4255231e-16
6.400183e-16
6.4291597e-16
6.5125177e-16
6.6315954e-16
6.7769307e-16
6.9017894e-16
6.9438386e-16
6.9416176e-16
6.9448831e-16
6.9584081e-16
6.9694456e-16
6.9669434e-16
6.9466422e-16
6.9255595e-16
6.9558755e-16
7.0532425e-16
7.191266e-16
7.3640542e-16
7.5687818e-16
7.8036687e-16
8.069902e-16
8.3720327e-16
8.717935e-16
9.1188223e-16
9.5857915e-16
1.0120338e-15
1.0627847e-15
1.0872654e-15
1.0908703e-15
1.0873922e-15
1.0765411e-15
1.0600509e-15
1.0390213e-15
1.0142179e-15
9.8644093e-16
9.5642595e-16
9.2439985e-16
8.9068493e-16
8.562531e-16
8.3837134e-16
1.286844e-15
1.9182223e-15
2.7688616e-15
3.8655406e-15
5.2152314e-15
6.7947416e-15
8.5243619e-15
1.0376302e-14
1.241259e-14
1.480083e-14
1.7497163e-14
2.0518205e-14
2.3857177e-14
2.7438328e-14
3.1035814e-14
3.406291e-14
3.5849327e-14
3.3386643e-14
2.3737574e-14
3.7251755e-14
6.9851282e-14
1.034817e-13
1.3477474e-13
1.4565249e-13
1.4873981e-13
1.0189688e-13
6.859378e-14
2.4062042e-14
2.5170088e-15
4.8628375e-17
2.2513421e-17
3.0732384e-31
2.2722964e-30
4.066057e-31
6.9016376e-31
4.496754e-31
8.0141188e-29
2.6608951e-18
8.6219437e-17
6.2974393e-16
5.5966807e-15
3.7840159e-15
6.2000524e-15
5.8114929e-15
6.1225526e-15
5.6477384e-15
4.9769388e-15
4.0803118e-15
3.1553209e-15
2.2782714e-15
1.5791187e-15
1.0931964e-15
7.6072622e-16
5.4329062e-16
5.6278186e-16
5.824246e-16
6.0278027e-16
6.2400157e-16
6.4610377e-16
6.7040625e-16
6.9769251e-16
7.2760821e-16
7.5951184e-16
7.9312619e-16
8.2830128e-16
8.6488492e-16
9.027642e-16
9.4178137e-16
9.8064304e-16
1.0171435e-15
6.540903e-16
4.3439401e-16
3.0155062e-16
2.1998043e-16
1.6912259e-16
1.372186e-16
1.175519e-16
1.0614224e-16
1.0160054e-16
1.0263116e-16
1.0396205e-16
1.0508128e-16
1.059129e-16
1.0677377e-16
1.0757321e-16
1.0825858e-16
1.0877953e-16
1.0915649e-16
1.0944228e-16
1.0963943e-16
1.0972089e-16
1.0968564e-16
1.095251e-16
1.0923044e-16
1.0882391e-16
1.0830762e-16
1.0771459e-16
1.0710144e-16
1.0654267e-16
1.0610996e-16
1.0590337e-16
1.0617427e-16
1.0687593e-16
1.0777301e-16
1.0869393e-16
1.0946709e-16
1.0995887e-16
1.102428e-16
1.1037244e-16
1.1032255e-16
1.1011884e-16
1.0981986e-16
1.0950559e-16
1.0922342e-16
1.0898379e-16
1.0879925e-16
1.0867849e-16
1.0863621e-16
1.0868987e-16
1.0886095e-16
1.092612e-16
1.0926446e-16
1.1032453e-16
1.1122723e-16
1.1242337e-16
1.13916e-16
1.157792e-16
1.1811844e-16
1.2086823e-16
1.2331938e-16
1.2523875e-16
1.2706117e-16
1.2810394e-16
1.2839867e-16
1.2698649e-16
1.2246547e-16
1.1514064e-16
1.0694878e-16
1.0059269e-16
9.799869e-17
1.003126e-16
1.046037e-16
1.0701454e-16
1.0892687e-16
1.1260894e-16
1.1772085e-16
1.2185264e-16
1.2340141e-16
1.2260532e-16
1.2193759e-16
1.2224587e-16
1.2311563e-16
1.23942e-16
1.2400494e-16
1.2264198e-16
1.1948058e-16
1.1487634e-16
1.0973321e-16
1.0494592e-16
1.0139504e-16
9.9632385e-17
9.998601e-17
1.0239292e-16
1.0609354e-16
1.1073726e-16
1.1431148e-16
1.1426496e-16
1.1246103e-16
1.1087453e-16
1.0955367e-16
1.0794475e-16
1.0563668e-16
1.0249107e-16
9.922125e-17
9.7751895e-17
9.8369599e-17
1.0007137e-16
1.0256231e-16
1.0564903e-16
1.0915516e-16
1.1296372e-16
1.1700908e-16
1.212215e-16
1.2548062e-16
1.2919108e-16
1.3089127e-16
1.2290543e-16
1.0897211e-16
1.0540622e-16
1.10919e-16
1.2523192e-16
1.5100356e-16
1.9334598e-16
2.6246885e-16
3.7547266e-16
5.6244277e-16
8.7492475e-16
9.102298e-16
8.7585623e-16
8.4256653e-16
8.1099182e-16
7.8114433e-16
7.5307156e-16
7.2682362e-16
7.0245131e-16
6.8016757e-16
6.6011274e-16
8.0874367e-16
1.0022678e-15
1.2414702e-15
1.5261238e-15
1.8638978e-15
2.2613407e-15
2.7191688e-15
3.223316e-15
3.713389e-15
4.1218747e-15
4.0438492e-15
3.1067447e-15
4.8753906e-15
8.9419564e-15
1.3026475e-14
1.648631e-14
1.7107178e-14
1.6164196e-14
1.0268022e-14
6.0197076e-15
1.7645088e-15
2.0693785e-16
7.4116643e-18
1.1976505e-20
2.1187023e-27
6.8096355e-31
5.8448171e-31
2.0660835e-24
3.7742739e-22
3.6232543e-25
1.5311487e-21
2.4257208e-17
1.1000678e-16
4.2309452e-16
3.2911975e-16
5.9366852e-16
5.9149424e-16
6.4558515e-16
6.0711057e-16
5.3664798e-16
4.3566149e-16
4.4896509e-16
4.7644511e-16
5.0150256e-16
5.2408993e-16
5.4521338e-16
5.6580831e-16
5.8616841e-16
6.0668701e-16
6.2799549e-16
6.501941e-16
6.7317958e-16
6.9831637e-16
7.2638248e-16
7.5705563e-16
7.8969291e-16
8.2399711e-16
5.5881106e-16
3.6487633e-16
2.345419e-16
1.498445e-16
9.6625552e-17
6.4498826e-17
4.5563503e-17
3.4179287e-17
2.7188265e-17
2.2798787e-17
1.9963774e-17
1.8062346e-17
1.6713752e-17
1.5643232e-17
1.4746746e-17
1.375849e-17
1.2875314e-17
1.2390752e-17
1.2038295e-17
1.1784379e-17
1.1583883e-17
1.1413384e-17
1.1256252e-17
1.1108737e-17
1.0972881e-17
1.0845362e-17
1.0720093e-17
1.0594945e-17
1.0467281e-17
1.0334361e-17
1.0197913e-17
1.0057387e-17
9.9158056e-18
9.7788805e-18
9.6542847e-18
9.5492991e-18
9.4745206e-18
9.4569279e-18
9.4916861e-18
9.5517305e-18
9.6168772e-18
9.6678988e-18
9.6902914e-18
9.6918706e-18
9.6783298e-18
9.6467785e-18
9.5999929e-18
9.5443992e-18
9.4886856e-18
9.437911e-18
9.3934699e-18
9.3567657e-18
9.3286702e-18
9.3106505e-18
9.3044639e-18
9.3122974e-18
9.3410418e-18
9.3587886e-18
9.4453879e-18
9.5366004e-18
9.6603289e-18
9.816784e-18
1.0014426e-17
1.0264885e-17
1.0563047e-17
1.0833596e-17
1.10442e-17