y,k
0,1e-10
0.00048240845,2.4598045e-08
0.00098049384,1.7385043e-07
0.0014947656,7.2440853e-07
0.0020257498,2.0997817e-06
0.0025739895,4.8693275e-06
0.0031400454,9.7537864e-06
0.0037244966,1.7641776e-05
0.0043279408,2.9610849e-05
0.0049509953,4.6950893e-05
0.0055942973,7.1187783e-05
0.0062585048,0.00010410402
0.0069442972,0.00014775085
0.007652376,0.0002044432
0.0083834654,0.0002767243
0.0091383131,0.00036728293
0.0099176913,0.00047880394
0.010722397,0.00061373809
0.011553254,0.00077399458
0.012411111,0.0009605942
0.013296846,0.0011733632
0.014211364,0.0014107758
0.015155603,0.0016700324
0.016130526,0.0019473859
0.017137132,0.0022386284
0.018176449,0.0025395952
0.019249542,0.002846559
0.020357507,0.0031564524
0.021501477,0.0034669305
0.022682624,0.0037763202
0.023902154,0.0040835141
0.025161316,0.0043878487
0.026461397,0.0046889902
0.027803728,0.0049868407
0.02918968,0.005281464
0.030620672,0.0055730311
0.032098167,0.0058617808
0.033623676,0.0061479922
0.03519876,0.0064319657
0.03682503,0.0067140098
0.03850415,0.0069944331
0.040237836,0.0072735388
0.042027862,0.0075516216
0.043876059,0.0078289664
0.045784317,0.008105847
0.047754588,0.0083825264
0.049788888,0.008659257
0.051889297,0.008936281
0.054057963,0.0092138316
0.056297104,0.0094921333
0.058609012,0.0097714029
0.06099605,0.01005185
0.06346066,0.01033368
0.066005363,0.01061709
0.068632762,0.010902275
0.071345544,0.011189426
0.074146484,0.011478729
0.077038447,0.01177037
0.08002439,0.012064532
0.083107369,0.012361396
0.086290535,0.012661143
0.089577146,0.012963954
0.092970562,0.013270009
0.096474255,0.013579491
0.10009181,0.013892582
0.10382692,0.014209464
0.10768342,0.014530326
0.11166524,0.014855353
0.11577645,0.015184738
0.12002127,0.015518673
0.12440404,0.015857355
0.12892923,0.016200985
0.13360148,0.016549765
0.13842557,0.016903906
0.14340642,0.017263618
0.14854914,0.017629119
0.15385898,0.018000629
0.15934138,0.018378375
0.16500194,0.018762588
0.17084645,0.019153502
0.17688089,0.019551357
0.18311143,0.019956399
0.18954445,0.020368878
0.19618653,0.020789044
0.20304445,0.021217156
0.21012524,0.021653472
0.21743614,0.022098256
0.22498461,0.02255177
0.23277839,0.023014279
0.24082545,0.023486044
0.24913402,0.023967327
0.25771259,0.024458383
0.26656994,0.024959464
0.27571513,0.025470809
0.28515751,0.025992648
0.29490674,0.026525192
0.3049728,0.027068633
0.31536597,0.027623136
0.3260969,0.028188835
0.33717655,0.028765826
0.34861625,0.029354157
0.36042772,0.029953824
0.37262303,0.030564755
0.38521464,0.0311868
0.39821546,0.031819721
0.41163876,0.032463171
0.42549828,0.033116682
0.4398082,0.033779644
0.45458315,0.034451285
0.46983824,0.035130649
0.48558908,0.035816568
0.50185179,0.036507642
0.5088074,0.036795346
0.51864298,0.03720221
0.53597984,0.037898328
0.5538801,0.038593742
0.57236207,0.039285869
0.59144465,0.039971789
0.61114736,0.040649903
0.63149036,0.041322076
0.65249445,0.041989612
0.67418111,0.042646206
0.69657252,0.04327735
0.7196916,0.043863868
0.74356198,0.044384976
0.76820808,0.044820741
0.79365511,0.045153534
0.8199291,0.045368436
0.84705692,0.045452904
0.87506632,0.045396395
0.90398595,0.045189489
0.93384538,0.044824392
0.96467516,0.044296132
0.99650683,0.043603069
1.0293729,0.042748103
1.0633071,0.041739617
1.098344,0.04059192
1.1345196,0.039323712
1.1668559,0.038141033
1.1718726,0.037957584
1.2104523,0.036520547
1.250285,0.035046518
1.2914115,0.033571736
1.3338737,0.032122803
1.3777151,0.030714958
1.4229805,0.029358073
1.4697159,0.028056502
1.5179692,0.026819301
1.5662215,0.025664639
1.6129542,0.02459838
1.6582152,0.023610449
1.7020508,0.022690328
1.7445059,0.021831423
1.7856241,0.021029287
1.80701,0.020626636
1.8254639,0.020279117
1.8640662,0.019576293
1.9014509,0.018917362
1.9376564,0.018299404
1.97272,0.017719528
2.0066779,0.017173673
2.0395648,0.016654292
2.0714147,0.016153206
2.1022603,0.015667322
2.1321334,0.015196797
2.1610646,0.014741854
2.1890837,0.014302604
2.2162195,0.013879049
2.2424998,0.013471094
2.2679518,0.013078557
2.2926015,0.012701201
2.3164742,0.012338749
2.3395945,0.0119909
2.3619861,0.011657322
2.3836721,0.011337676
2.4046746,0.011031625
2.4250153,0.010738845
2.4298487,0.010670192
2.4447218,0.01045894
2.463809,0.010191687
2.4822943,0.0099368483
2.5001966,0.009694184
2.5175344,0.0094634801
2.5343255,0.0092445497
2.5505871,0.0090372383
2.5663361,0.0088414231
2.5815885,0.008657002
2.5963601,0.0084838958
2.610666,0.0083220538
2.624521,0.0081714527
2.6379393,0.0080320918
2.6509346,0.0079039871
2.6635203,0.007787167
2.6757094,0.0076816672
2.6875143,0.0075875246
2.6989472,0.0075047708
2.7100198,0.0074334264
2.7207435,0.0073734947
2.7311293,0.007324954
2.7411879,0.0072877495
2.7509295,0.0072617873
2.7603642,0.0072469356
2.7695016,0.0072429863
2.7783512,0.0072496715
2.7869219,0.0072666885
2.7952227,0.0072936558
2.8032619,0.0073301186
2.8110479,0.0073755588
2.8185886,0.0074293966
2.8258918,0.0074909954
2.832965,0.0075596681
2.8398154,0.007634685
2.8464499,0.0077152824
2.8528756,0.0078006712
2.8590988,0.0078900471
2.865126,0.0079826004
2.8709634,0.0080775263
2.876617,0.0081740338
2.8820925,0.0082713519
2.8873956,0.0083687442
2.8925316,0.008465505
2.897506,0.0085609652
2.9023236,0.0086545023
2.9069896,0.0087455948
2.9115086,0.0088338482
2.9158853,0.0089187433
2.9201242,0.0089994249
2.9242297,0.0090748717
2.9282058,0.0091441517
2.9320568,0.0092065373
2.9357865,0.0092615339
2.9393987,0.0093088642
2.9428972,0.0093484391
2.9462856,0.0093803304
2.9495673,0.00940475
2.9527456,0.009422024
2.9558239,0.0094325381
2.9588052,0.0094366415
2.9616927,0.0094346008
2.9644893,0.0094265792
2.9671978,0.0094126676
2.9698211,0.0093929471
2.9723618,0.0093674858
2.9748224,0.0093363352
2.9772057,0.0092995287
2.9795138,0.0092570777
2.9817494,0.009208969
2.9839145,0.0091551611
2.9860115,0.0090955813
2.9880424,0.0090301216
2.9900094,0.008958635
2.9919145,0.0088809309
2.9937597,0.0087967711
2.9955467,0.0087058644
2.9972775,0.0086078606
2.9989538,0.0085023453
3.0005773,0.0083888327
3.0021497,0.0082667591
3.0036726,0.0081354754
3.0051476,0.0079942406
3.0065761,0.0078422143
3.0079597,0.0076784519
3.0092997,0.0075017568
3.0105976,0.0073106491
3.0118546,0.00710357
3.013072,0.0068789812
3.0142511,0.006635388
3.015393,0.006371384
3.0164991,0.0060857253
3.0175703,0.0057774244
3.0186078,0.0054458188
3.0196126,0.0050903334
3.0205858,0.0047107942
3.0215284,0.004308342
3.0224413,0.0038858966
3.0233255,0.0034484576
3.0241818,0.0030033892
3.0250112,0.0025604266
3.0258144,0.0021311736
3.0265924,0.001727973
3.0273459,0.0013622588
3.0280757,0.0010427898
3.0287825,0.00077434302
3.0294671,0.00055731822
3.0301301,0.00038831431
3.0307722,0.00026134473
3.0313942,0.00016920301
3.0319965,0.00010460248
3.0325799,6.0935724e-05
3.033145,3.2668849e-05
3.0336922,1.5449397e-05
3.0342222,5.9932301e-06
3.0347356,1.8204641e-06
3.0352328,1.5026644e-06
3.0357133,3.2332911e-09
