0 	0 	0 	0 	0 	0 	0
0.00086769924 	7.2496574e-07 	1.1859223e-09 	-9.2481493e-25 	7.2496747e-07 	-2.548114e-28 	7.249666e-07
0.0017874829 	1.9380593e-06 	1.745952e-08 	1.2987159e-23 	1.9381105e-06 	3.6171748e-27 	1.9380849e-06
0.0027624773 	8.1102254e-06 	1.5456874e-07 	3.0845405e-23 	8.1108938e-06 	8.2178136e-27 	8.1105598e-06
0.0037959966 	2.4499751e-05 	8.2369931e-07 	1.6979779e-23 	2.4504603e-05 	4.4147062e-27 	2.4502177e-05
0.0048915537 	5.9336105e-05 	3.1516449e-06 	3.0768062e-28 	5.9360403e-05 	-9.0930061e-28 	5.9348261e-05
0.0060528726 	0.00012387513 	9.5667276e-06 	-2.2102478e-20 	0.00012396959 	-2.8019185e-23 	0.0001239224
0.0072839007 	0.00023226896 	2.4335566e-05 	1.2649463e-20 	0.00023257408 	1.2979142e-23 	0.00023242167
0.0085888223 	0.00040019221 	5.334123e-05 	7.8613545e-20 	0.0004010458 	1.033186e-22 	0.00040061933
0.0099720729 	0.00064124649 	0.000101877 	4.3912974e-20 	0.00064336544 	6.2392378e-23 	0.00064230614
0.011438354 	0.00096129014 	0.00017003611 	1.4988571e-19 	0.00096602201 	4.0532706e-22 	0.00096365483
0.01299265 	0.0013536776 	0.00024869446 	-1.0271049e-19 	0.0013632587 	-2.7784862e-22 	0.0013584638
0.014640245 	0.0017999279 	0.00032147278 	-2.5237649e-19 	0.0018176339 	-6.8248794e-22 	0.0018087736
0.016386737 	0.0022764651 	0.00037292411 	-1.0890115e-25 	0.0023065703 	8.9216397e-26 	0.0022915106
0.018238064 	0.0027624017 	0.00039550753 	2.5656674e-18 	0.0028099737 	1.2816809e-20 	0.0027861844
0.020200518 	0.0032435075 	0.00038984349 	-6.9740096e-18 	0.003314144 	-3.8558972e-20 	0.0032788277
0.022280771 	0.0037120905 	0.000360707 	-1.738501e-18 	0.0038116971 	-7.6904834e-21 	0.0037618999
0.024485892 	0.0041650779 	0.0003134204 	7.8040297e-18 	0.0042997287 	4.370125e-20 	0.0042324114
0.026823378 	0.0046020835 	0.00025224743 	1.1548229e-17 	0.0047779553 	9.7280416e-20 	0.0046900277
0.029301173 	0.0050240646 	0.00018014317 	4.3642407e-20 	0.0052474213 	1.9265847e-21 	0.0051357507
0.0319277 	0.0054325413 	9.8999566e-05 	-1.6973383e-18 	0.0057097422 	1.8783386e-20 	0.0055711485
0.034711887 	0.0058291904 	9.9610108e-06 	-9.0614279e-18 	0.0061667068 	-9.9444719e-20 	0.0059979543
0.037663197 	0.0062156531 	-8.6327666e-05 	-1.0329585e-17 	0.0066200862 	-1.1019574e-19 	0.0064178744
0.040791661 	0.0065934568 	-0.00018955093 	5.5919666e-18 	0.0070715521 	6.4890901e-20 	0.0068325083
0.044107915 	0.0069639931 	-0.00029961222 	-5.7130884e-18 	0.0075226492 	-9.7209454e-20 	0.0072433244
0.047623229 	0.0073285225 	-0.00041656819 	-1.9118031e-18 	0.0079747942 	-2.3572222e-20 	0.007651661
0.051349553 	0.0076881903 	-0.00054057943 	-3.1506478e-17 	0.0084292854 	-6.3685858e-19 	0.0080587399
0.055299553 	0.0080440458 	-0.00067188485 	4.554723e-18 	0.0088873156 	7.6152173e-20 	0.0084656822
0.059486654 	0.0083970635 	-0.00081078677 	3.6871197e-17 	0.0093499859 	7.4764888e-19 	0.0088735259
0.06392509 	0.0087481638 	-0.00095763257 	1.9874593e-17 	0.0098183191 	5.4013683e-19 	0.0092832424
0.068629948 	0.00909823 	-0.0011128116 	6.0547688e-18 	0.010293269 	1.9725808e-19 	0.0096957501
0.073617218 	0.0094481247 	-0.0012767507 	-2.1161831e-17 	0.010775729 	-5.7657874e-19 	0.010111927
0.078903853 	0.0097987068 	-0.0014499104 	-7.2715422e-18 	0.011266543 	-2.3169642e-19 	0.010532625
0.084507823 	0.010150845 	-0.0016327813 	4.5305377e-23 	0.011766504 	2.9952029e-24 	0.010958675
0.090448176 	0.010505432 	-0.0018258793 	-3.8124842e-17 	0.012276365 	-1.7094911e-18 	0.011390898
0.096745104 	0.010863396 	-0.0020297553 	-4.3552305e-18 	0.012796839 	-2.0259926e-19 	0.011830117
0.10342001 	0.011225714 	-0.0022449852 	3.9225965e-17 	0.013328599 	1.75896e-18 	0.012277156
0.11049558 	0.011593418 	-0.0024721655 	5.5527523e-18 	0.013872285 	2.5652312e-19 	0.012732851
0.11799587 	0.011967609 	-0.0027119238 	2.2509396e-22 	0.014428498 	1.4602673e-23 	0.013198053
0.12594638 	0.012349467 	-0.0029649057 	2.1201432e-22 	0.014997803 	8.300842e-24 	0.013673635
0.13437411 	0.012740254 	-0.003231781 	4.8263187e-18 	0.015580729 	3.5497636e-19 	0.01416049
0.14330773 	0.01314132 	-0.0035132403 	3.6774619e-17 	0.016177763 	3.1784328e-18 	0.01465954
0.1527776 	0.013554108 	-0.0038099772 	-1.5567874e-17 	0.016789352 	-1.3138321e-18 	0.015171729
0.1628159 	0.013980156 	-0.0041226986 	-3.6938682e-17 	0.017415901 	-3.1922528e-18 	0.015698028
0.17345677 	0.014421088 	-0.0044521148 	2.4547382e-17 	0.018057764 	2.5337736e-18 	0.016239425
0.18473635 	0.014878612 	-0.0047989208 	5.3774754e-18 	0.018715238 	6.5673379e-19 	0.016796925
0.19669301 	0.015354507 	-0.0051637914 	-1.387168e-17 	0.019388557 	-1.5756918e-18 	0.017371532
0.20936737 	0.015850598 	-0.0055473634 	-5.2681996e-18 	0.020077878 	-6.4433318e-19 	0.017964236
0.22280253 	0.016368734 	-0.0059502084 	-2.3420539e-22 	0.020783247 	-5.4203595e-23 	0.01857599
0.23704414 	0.016910744 	-0.0063728625 	2.0242786e-17 	0.021504597 	4.2176747e-18 	0.019207675
0.25214061 	0.017478476 	-0.0068155413 	4.7401501e-19 	0.02224165 	9.8713218e-20 	0.019860063
0.26814327 	0.018073511 	-0.0072785216 	-1.9873652e-17 	0.022994019 	-4.1400358e-18 	0.020533759
0.28510649 	0.018697155 	-0.0077619173 	1.3845848e-17 	0.023761029 	4.7785679e-18 	0.021229089
0.30308795 	0.019350542 	-0.0082652764 	4.6815683e-19 	0.024541495 	1.6142202e-19 	0.021946017
0.32214876 	0.020034318 	-0.0087879345 	-1.3465452e-17 	0.025333744 	-4.6461718e-18 	0.022684026
0.34235371 	0.020748487 	-0.0093287516 	2.8114921e-18 	0.026135381 	2.1051407e-18 	0.023441944
0.36377149 	0.021492236 	-0.0098859791 	1.4746792e-19 	0.026943108 	1.0941885e-19 	0.024217727
0.38647488 	0.022263682 	-0.010457134 	-2.8120016e-18 	0.027752827 	-3.9243513e-18 	0.025008195
0.41054106 	0.023059577 	-0.011037238 	-4.8296111e-21 	0.02855954 	-7.5242982e-20 	0.0258087
0.43605183 	0.023876095 	-0.011619668 	2.0884541e-18 	0.029351241 	-9.9546447e-19 	0.026612789
0.46309391 	0.024706315 	-0.012248698 	1.2238847e-17 	0.030114516 	-9.4949873e-18 	0.027411883
0.49175922 	0.025586667 	-0.012817802 	-7.9769845e-19 	0.030805333 	1.7868879e-18 	0.028198114
0.52214518 	0.02652376 	-0.013244442 	-1.1006197e-17 	0.031403197 	8.4636586e-18 	0.028963241
0.55435509 	0.027440093 	-0.013617436 	9.1547716e-22 	0.031922625 	-3.439901e-22 	0.029680113
0.58849842 	0.028257988 	-0.01393825 	1.7984874e-21 	0.032331452 	-6.8397209e-22 	0.030294208
0.62469124 	0.028906236 	-0.014173096 	-5.4775167e-18 	0.03255927 	1.3333602e-18 	0.030732846
0.66305656 	0.029334146 	-0.014296345 	-3.9005895e-19 	0.032542218 	9.5089619e-20 	0.030938429
0.70372479 	0.029505801 	-0.014290207 	-7.0305646e-18 	0.032235693 	1.0259886e-18 	0.030870944
0.74683417 	0.029380584 	-0.014136531 	-1.2475825e-18 	0.031599776 	2.3203932e-19 	0.030490276
0.79253123 	0.028933524 	-0.013826777 	1.1147331e-17 	0.030620722 	-2.0743408e-18 	0.029777132
0.84097128 	0.028167835 	-0.013366715 	9.5840669e-22 	0.029319098 	-1.6173179e-22 	0.028743417
0.892319 	0.027120939 	-0.012777214 	3.9480347e-22 	0.027750133 	-7.1594166e-23 	0.02743547
0.9467489 	0.025870139 	-0.012095142 	-3.8252669e-17 	0.026005096 	4.0538069e-18 	0.025937567
1.004446 	0.024524969 	-0.01136984 	-9.8597749e-19 	0.024201492 	1.04332e-19 	0.024363207
1.0656064 	0.023203359 	-0.010654347 	6.7453063e-17 	0.022460081 	-6.5989225e-18 	0.022831672
1.1304381 	0.021999257 	-0.0099929134 	-9.2851621e-19 	0.020874721 	8.1116105e-20 	0.021437044
1.1991613 	0.020958144 	-0.0094095061 	-4.8603244e-17 	0.019491607 	3.994269e-18 	0.0202243
1.2720096 	0.020074929 	-0.0089028477 	-9.7267159e-17 	0.018294419 	6.5365164e-18 	0.019184719
1.3492308 	0.0193084 	-0.0084115351 	-2.6539624e-18 	0.017227178 	-6.1476295e-20 	0.018268923
1.4310872 	0.018587986 	-0.0078680956 	1.0828223e-16 	0.016244371 	-7.1916245e-18 	0.017415809
1.5178571 	0.017851338 	-0.0073238343 	2.1438833e-17 	0.015312326 	-1.3225273e-18 	0.016581336
1.6046271 	0.017091843 	-0.0068392583 	-1.4604435e-16 	0.014419634 	6.9824047e-18 	0.015755996
1.6864835 	0.016330839 	-0.0063982713 	5.1406922e-18 	0.013567038 	-2.7523984e-19 	0.014948897
1.7637046 	0.01557824 	-0.0059789867 	-1.2147603e-16 	0.012751988 	3.923833e-18 	0.014165089
1.836553 	0.014838178 	-0.0055695194 	3.5991894e-17 	0.011977971 	-1.4918188e-18 	0.013408072
1.9052762 	0.014115595 	-0.0051658898 	2.925725e-16 	0.011246781 	-1.1903511e-17 	0.012681197
1.9701079 	0.013415187 	-0.0047660045 	-2.2225714e-16 	0.010560509 	7.3566242e-18 	0.011987855
2.0312683 	0.012740926 	-0.0043698735 	1.0882318e-17 	0.0099210947 	-3.5994202e-19 	0.011331018
2.0889654 	0.012095744 	-0.0039790139 	2.3391373e-16 	0.0093294931 	-7.7421037e-18 	0.010712621
2.1433953 	0.011481453 	-0.0035955563 	-2.3612141e-20 	0.0087853978 	7.7946859e-22 	0.010133419
2.194743 	0.010898868 	-0.0032216706 	-1.5810921e-21 	0.0082874357 	-2.4013134e-23 	0.0095931468
2.2431831 	0.01034812 	-0.0028593206 	2.2938608e-22 	0.0078334422 	-1.1740742e-22 	0.0090907787
2.2888801 	0.0098286112 	-0.0025096894 	1.1996531e-20 	0.0074208702 	-2.9289621e-22 	0.0086247416
2.3319895 	0.009339779 	-0.0021741102 	-1.100593e-20 	0.0070465917 	2.6249445e-22 	0.0081931858
2.3726577 	0.0088809495 	-0.00185355 	9.3361041e-22 	0.0067074718 	-5.3147086e-23 	0.0077942079
2.411023 	0.0084510257 	-0.0015481545 	1.2965513e-20 	0.0064007558 	-2.9615219e-22 	0.007425891
2.4472159 	0.0080490771 	-0.0012581852 	-1.5276468e-16 	0.0061236701 	2.8166628e-18 	0.0070863729
2.4813592 	0.0076742037 	-0.00098359628 	6.1291629e-19 	0.0058736685 	-1.1368965e-20 	0.0067739349
2.5135691 	0.0073256266 	-0.00072419018 	1.5071126e-16 	0.0056484451 	-2.7789235e-18 	0.0064870362
2.5439551 	0.0070026809 	-0.00047962771 	1.1903186e-20 	0.0054459854 	-2.6838553e-22 	0.0062243327
2.5726204 	0.0067048015 	-0.00024946884 	-1.4055039e-16 	0.0052645699 	2.1075016e-18 	0.0059846829
2.582654 	0.0066034041 	-0.0001692198 	-9.0582284e-17 	0.0052045376 	1.3582802e-18 	0.0059039683
2.5996625 	0.0064315168 	-3.3186958e-05 	-5.3039036e-18 	0.0051027744 	7.9616018e-20 	0.0057671434
2.6251732 	0.0061824586 	0.00016979022 	1.3648945e-16 	0.0049594524 	-2.04647e-18 	0.005570957
2.6492394 	0.0059573436 	0.00036007033 	2.525708e-16 	0.0048337196 	-3.2698259e-18 	0.0053955333
2.6719428 	0.0057559201 	0.00053834648 	8.2829158e-18 	0.004724926 	-1.0723085e-19 	0.005240424
2.6933606 	0.0055779581 	0.00070531303 	-2.425194e-16 	0.0046326183 	3.1397114e-18 	0.0051052917
2.7135655 	0.0054232405 	0.00086167525 	-1.1787579e-16 	0.0045564993 	1.3243919e-18 	0.0049898749
2.7326263 	0.0052915107 	0.0010081987 	-5.3159418e-18 	0.0044963814 	5.9718236e-20 	0.0048939499
2.7506078 	0.0051824374 	0.0011456488 	3.3193827e-16 	0.0044521369 	-3.5130628e-18 	0.0048172911
2.767571 	0.0050956097 	0.0012748147 	9.6210011e-18 	0.0044236506 	-9.8588683e-20 	0.0047596338
2.7835737 	0.0050305488 	0.0013965004 	-1.1962491e-16 	0.0044108225 	1.3071951e-18 	0.004720688
2.7986701 	0.0049866634 	0.001511501 	2.6125572e-18 	0.0044135021 	-2.4408263e-20 	0.0047000833
2.8129118 	0.0049629724 	0.0016205452 	-8.7360365e-17 	0.0044312148 	8.1641283e-19 	0.0046970938
2.8263469 	0.0049584485 	0.001724341 	9.0438632e-17 	0.0044634521 	-7.3785792e-19 	0.0047109525
2.8390213 	0.004972112 	0.0018235594 	3.2249854e-18 	0.0045097353 	-2.6318749e-20 	0.0047409258
2.8509779 	0.0050027118 	0.0019187488 	-9.2826383e-17 	0.0045693283 	7.5361559e-19 	0.0047860211
2.8622575 	0.0050488736 	0.0020103537 	1.5176894e-16 	0.0046413531 	-1.0760313e-18 	0.004845114
2.8728984 	0.0051091128 	0.0020986999 	9.2937743e-18 	0.0047247912 	-6.7843299e-20 	0.0049169522
2.8829367 	0.0051818507 	0.0021839865 	-1.1403348e-17 	0.0048184938 	1.7010133e-19 	0.0050001714
2.8924066 	0.0052654355 	0.0022662737 	2.9240948e-18 	0.0049211961 	-1.8828691e-20 	0.0050933161
2.9013402 	0.005358175 	0.002345506 	-2.6117845e-16 	0.0050315264 	1.602547e-18 	0.005194867
2.9097679 	0.0054583724 	0.0024215231 	-2.390298e-18 	0.0051481889 	1.3926146e-20 	0.0053032741
2.9177184 	0.0055643665 	0.0024977889 	5.7249128e-17 	0.0052696991 	-3.719293e-19 	0.0054169995
2.9252187 	0.0056740999 	0.0025673182 	-2.1209864e-18 	0.0053950655 	1.1141187e-20 	0.0055345892
2.9322943 	0.0057863152 	0.0026261527 	3.7194503e-18 	0.0055231274 	-5.4122666e-20 	0.0056547376
2.9389692 	0.0058997187 	0.0026827575 	-2.0824313e-18 	0.005651395 	9.7814254e-21 	0.0057755561
2.9452661 	0.0060112768 	0.0027382334 	6.029893e-17 	0.005776868 	-2.8317731e-19 	0.0058940738
2.9512065 	0.0061174443 	0.0027910052 	-1.9701843e-22 	0.005896309 	1.1183896e-24 	0.0060068766
2.9568104 	0.0062148256 	0.0028395641 	4.4462815e-18 	0.0060065759 	-1.631457e-20 	0.0061106998
2.9620971 	0.0063004639 	0.0028825916 	4.4372857e-18 	0.0061049222 	-1.5220251e-20 	0.0062026918
2.9670843 	0.0063719141 	0.0029189871 	-8.9747745e-17 	0.0061890395 	2.8476429e-19 	0.0062804756
2.9717892 	0.0064271999 	0.0029478496 	-5.8488898e-18 	0.0062570146 	1.9618518e-20 	0.0063421063
2.9762276 	0.0064647134 	0.0029684336 	5.0996156e-18 	0.0063072423 	-5.1214166e-20 	0.0063859771
2.9804147 	0.0064830926 	0.0029800982 	-1.6765426e-18 	0.0063383219 	4.5250951e-21 	0.0064107067
2.9843647 	0.0064812437 	0.0029823197 	7.6910048e-17 	0.0063490914 	-2.0767547e-19 	0.0064151671
2.9880911 	0.0064581228 	0.0029745939 	-2.1445091e-23 	0.0063384228 	1.7080555e-24 	0.0063982724
2.9916064 	0.0064125659 	0.0029563593 	-1.0463552e-24 	0.0063050614 	-1.4786789e-24 	0.0063588133
2.9949226 	0.0063433081 	0.0029270068 	-5.9343219e-17 	0.0062476478 	1.043948e-19 	0.0062954775
2.9980511 	0.0062488496 	0.0028858183 	2.0237323e-17 	0.0061645874 	-3.159396e-20 	0.0062067181
3.0010024 	0.0061273535 	0.0028319198 	1.031082e-17 	0.006053952 	-3.2888602e-20 	0.0060906524
3.0037866 	0.0059765232 	0.0027642263 	-4.8617524e-17 	0.0059133601 	7.0446494e-20 	0.0059449414
3.0064131 	0.0057935236 	0.0026814062 	4.2661353e-17 	0.0057399005 	-6.1805824e-20 	0.0057667119
3.0088909 	0.0055749371 	0.0025818651 	4.2950958e-17 	0.0055300917 	-5.1881937e-20 	0.0055525143
3.0112284 	0.0053167928 	0.002463733 	-3.3779908e-17 	0.0052799138 	3.2569242e-20 	0.0052983534
3.0134335 	0.005014734 	0.0023249286 	5.9876075e-18 	0.0049849776 	-6.5654642e-22 	0.0049998561
3.0155138 	0.0046644194 	0.0021634674 	3.5527471e-17 	0.0046409279 	-3.4090921e-20 	0.0046526734
3.0174762 	0.0042621858 	0.0019776923 	-8.0687722e-18 	0.0042441038 	1.0015178e-20 	0.0042531452
3.0193275 	0.0038055848 	0.0017628925 	2.5853023e-17 	0.0037921018 	-1.6044834e-20 	0.0037988442
3.021074 	0.0032941773 	0.0015075669 	-1.796129e-17 	0.0032845812 	1.12767e-20 	0.0032893788
3.0227216 	0.002734903 	0.0012149969 	-2.0164428e-17 	0.0027284959 	1.2146781e-20 	0.0027316994
3.0242759 	0.0021491483 	0.00090542676 	6.6792373e-18 	0.0021451998 	-3.5692063e-21 	0.0021471747
3.0257422 	0.0015751282 	0.00060614579 	-8.8083561e-19 	0.0015729387 	3.0559715e-22 	0.0015740338
3.0271255 	0.0010616166 	0.00035376385 	-4.2034956e-19 	0.0010605544 	1.4583535e-22 	0.0010610856
3.0284304 	0.00065034818 	0.00017516213 	4.600274e-19 	0.00064991018 	-1.595731e-22 	0.00065012918
3.0296614 	0.00035817789 	7.1894139e-05 	-4.3045409e-20 	0.00035802869 	8.5682365e-24 	0.00035810327
3.0308227 	0.00017435754 	2.3842027e-05 	-4.2721498e-20 	0.00017431698 	8.0153071e-24 	0.00017433725
3.0319183 	7.2490178e-05 	6.1141186e-06 	2.6357361e-21 	7.248186e-05 	-9.2510201e-25 	7.2486018e-05
3.0329518 	2.4083824e-05 	1.1112618e-06 	2.3531658e-21 	2.4082666e-05 	-3.8052394e-25 	2.4083245e-05
3.0339268 	5.8715212e-06 	1.220047e-07 	1.5005757e-23 	5.8714316e-06 	-2.4074742e-27 	5.8714763e-06
3.0348466 	2.9015483e-06 	9.3387036e-09 	-4.7252325e-24 	2.901545e-06 	1.6759992e-28 	2.9015466e-06
3.0357143 	0 	0 	0 	0 	0 	0
