0 	0 	0 	0
0.00086769924 	-0.013471593 	-1.7717174e-06 	-7.1511147e-26
0.0017874829 	-0.027110147 	-7.7136159e-06 	1.2316104e-24
0.0027624773 	-0.041073481 	-1.825454e-05 	1.9054089e-24
0.0037959966 	-0.055317936 	-3.4287151e-05 	-5.3586959e-25
0.0048915537 	-0.06978159 	-5.6692728e-05 	-1.5454675e-24
0.0060528726 	-0.084368516 	-8.6454602e-05 	4.3400025e-24
0.0072839007 	-0.098921157 	-0.00012466226 	4.4979682e-24
0.0085888223 	-0.11318264 	-0.00017251088 	-2.6982101e-24
0.0099720729 	-0.12676816 	-0.00023127483 	8.7149372e-25
0.011438354 	-0.1391903 	-0.00030221021 	8.2712771e-25
0.01299265 	-0.14997772 	-0.00038635789 	3.9885909e-24
0.014640245 	-0.15884486 	-0.00048435196 	5.7931874e-24
0.016386737 	-0.16578611 	-0.00059640657 	2.3323007e-24
0.018238064 	-0.17102388 	-0.00072248391 	2.3344624e-24
0.020200518 	-0.17487848 	-0.00086248726 	0
0.022280771 	-0.17766165 	-0.0010163787 	1.8494919e-24
0.024485892 	-0.17962874 	-0.0011842298 	1.0560922e-24
0.026823378 	-0.180972 	-0.0013662395 	-7.8653802e-25
0.029301173 	-0.18183082 	-0.0015627341 	-1.3390117e-24
0.0319277 	-0.18230481 	-0.0017741587 	-1.5190546e-24
0.034711887 	-0.18246509 	-0.0020010661 	3.0716028e-24
0.037663197 	-0.18236258 	-0.0022441048 	1.9115457e-24
0.040791661 	-0.18203388 	-0.0025040109 	-5.6093582e-24
0.044107915 	-0.18150531 	-0.002781602 	-7.2658353e-24
0.047623229 	-0.18079565 	-0.0030777726 	-7.6860119e-25
0.051349553 	-0.17991806 	-0.0033934924 	2.2250094e-24
0.055299553 	-0.17888145 	-0.003729805 	1.8909508e-24
0.059486654 	-0.1776913 	-0.0040878287 	3.6918745e-24
0.06392509 	-0.17635041 	-0.004468757 	-1.5985648e-25
0.068629948 	-0.17485925 	-0.0048738605 	-4.894922e-24
0.073617218 	-0.17321635 	-0.0053044889 	3.9522686e-24
0.078903853 	-0.17141843 	-0.0057620737 	3.7602548e-24
0.084507823 	-0.16946056 	-0.0062481312 	-1.4726692e-25
0.090448176 	-0.16733621 	-0.0067642655 	3.9600307e-25
0.096745104 	-0.16503729 	-0.007312172 	-9.7370552e-24
0.10342001 	-0.16255403 	-0.0078936414 	-1.2097169e-23
0.11049558 	-0.159875 	-0.008510563 	-1.0449329e-23
0.11799587 	-0.15698694 	-0.0091649292 	-1.2113448e-23
0.12594638 	-0.15387461 	-0.009858839 	-1.3790163e-23
0.13437411 	-0.15052063 	-0.010594503 	-2.356127e-24
0.14330773 	-0.14690521 	-0.011374246 	1.5373377e-23
0.1527776 	-0.14300588 	-0.012200513 	6.8012856e-24
0.1628159 	-0.13879719 	-0.013075872 	-3.3218215e-24
0.17345677 	-0.13425029 	-0.014003014 	-2.2637048e-23
0.18473635 	-0.12933249 	-0.014984765 	-1.2435644e-23
0.19669301 	-0.12400676 	-0.016024076 	1.0757959e-23
0.20936737 	-0.11823109 	-0.017124033 	0
0.22280253 	-0.11195785 	-0.018287854 	0
0.23704414 	-0.10513297 	-0.01951887 	4.5259242e-23
0.25214061 	-0.097694953 	-0.020820541 	7.0947131e-23
0.26814327 	-0.089573877 	-0.022196445 	3.0174608e-23
0.28510649 	-0.080690581 	-0.023650209 	-9.1260916e-23
0.30308795 	-0.070955184 	-0.025185511 	-4.7303958e-23
0.32214876 	-0.060265469 	-0.026806036 	9.4833172e-23
0.34235371 	-0.048505417 	-0.028515363 	4.6076967e-23
0.36377149 	-0.035543565 	-0.030316825 	4.827096e-23
0.38647488 	-0.02123125 	-0.032213377 	5.3576028e-23
0.41054106 	-0.0054008201 	-0.03420791 	-4.7089187e-23
0.43605183 	0.012131077 	-0.036303442 	1.1978733e-22
0.46309391 	0.031567744 	-0.038494001 	2.9624197e-22
0.49175922 	0.053312149 	-0.040773678 	3.7753354e-22
0.52214518 	0.078104073 	-0.043147975 	2.6388007e-22
0.55435509 	0.10664973 	-0.0456048 	1.3868482e-22
0.58849842 	0.13927167 	-0.048105182 	1.2244428e-22
0.62469124 	0.17600483 	-0.050600074 	5.0038934e-22
0.66305656 	0.21676913 	-0.053031656 	4.9740246e-22
0.70372479 	0.26143396 	-0.055330748 	5.2724494e-22
0.74683417 	0.30979481 	-0.057417717 	2.1433152e-22
0.79253123 	0.36149157 	-0.05920593 	-3.2150637e-22
0.84097128 	0.41589689 	-0.060607999 	-7.5435874e-23
0.892319 	0.47204553 	-0.061545603 	-2.3930912e-22
0.9467489 	0.52865539 	-0.061961623 	-9.6088326e-23
1.004446 	0.58425563 	-0.061831022 	-8.6495919e-22
1.0656064 	0.6374133 	-0.061168027 	-3.1452988e-22
1.1304381 	0.68701511 	-0.060026629 	8.1154826e-22
1.1991613 	0.73250582 	-0.058486467 	1.8207807e-22
1.2720096 	0.77395951 	-0.056639062 	3.4665829e-23
1.3492308 	0.81194772 	-0.054511299 	8.4051177e-22
1.4310872 	0.847171 	-0.052099022 	6.6835229e-22
1.5178571 	0.87975085 	-0.049462241 	6.6317216e-24
1.6046271 	0.90873584 	-0.046783971 	1.6293872e-22
1.6864835 	0.93354559 	-0.044236784 	7.7546038e-22
1.7637046 	0.95471911 	-0.041846698 	1.3909252e-21
1.836553 	0.97296779 	-0.03960137 	8.9178317e-22
1.9052762 	0.98881663 	-0.037488221 	2.9066349e-22
1.9701079 	1.0026472 	-0.03549694 	6.555155e-22
2.0312683 	1.014746 	-0.033619218 	3.8318043e-22
2.0889654 	1.0253379 	-0.031848191 	-3.1052002e-22
2.1433953 	1.0346048 	-0.030177868 	-3.9664587e-22
2.194743 	1.0426979 	-0.028602739 	-5.7788493e-22
2.2431831 	1.0497437 	-0.027117635 	-1.9767959e-22
2.2888801 	1.0558499 	-0.025717568 	0
2.3319895 	1.0611075 	-0.024397665 	-2.1806002e-22
2.3726577 	1.0655923 	-0.023153304 	-9.7900559e-23
2.411023 	1.0693682 	-0.021979978 	-1.2411292e-23
2.4472159 	1.0724886 	-0.020873308 	2.6913271e-24
2.4813592 	1.0749968 	-0.019829147 	1.3524226e-22
2.5135691 	1.0769279 	-0.018843512 	-6.8366684e-24
2.5439551 	1.0783088 	-0.017912604 	3.5042375e-22
2.5726204 	1.0791594 	-0.017032806 	3.5311854e-22
2.582654 	1.0792833 	-0.016724057 	2.2250624e-22
2.5996625 	1.0794933 	-0.016200635 	-4.9822855e-26
2.6251732 	1.0793184 	-0.015412861 	-2.1692182e-24
2.6492394 	1.0786375 	-0.014666422 	-1.0647372e-22
2.6719428 	1.0774494 	-0.013958392 	-1.0552189e-22
2.6933606 	1.075749 	-0.013286 	-1.1430285e-22
2.7135655 	1.073529 	-0.012646625 	-1.0906836e-22
2.7326263 	1.0707796 	-0.012037787 	-1.3180009e-22
2.7506078 	1.0674902 	-0.011457143 	3.8015883e-24
2.767571 	1.06365 	-0.010902484 	1.3877496e-22
2.7835737 	1.0592482 	-0.010371728 	4.2860837e-24
2.7986701 	1.0542751 	-0.0098629341 	-4.5337967e-24
2.8129118 	1.0487226 	-0.0093742967 	-1.4272363e-23
2.8263469 	1.0425841 	-0.0089041495 	-1.4034943e-23
2.8390213 	1.0358548 	-0.0084509859 	3.6758625e-23
2.8509779 	1.0285319 	-0.0080134708 	-4.8814775e-24
2.8622575 	1.0206147 	-0.007590445 	5.1846625e-23
2.8728984 	1.0121046 	-0.0071809367 	1.5693562e-22
2.8829367 	1.0030048 	-0.0067841661 	2.469021e-23
2.8924066 	0.99332076 	-0.0063995379 	4.9577194e-23
2.9013402 	0.98305982 	-0.0060266158 	7.9058036e-23
2.9097679 	0.97223136 	-0.0056650271 	-3.1400059e-23
2.9177184 	0.96084657 	-0.0053150859 	-2.9550619e-23
2.9252187 	0.9488842 	-0.0049763652 	1.7570099e-24
2.9322943 	0.93626836 	-0.004647116 	-1.3157937e-23
2.9389692 	0.92293664 	-0.0043261124 	-1.6612649e-23
2.9452661 	0.90889015 	-0.0040134565 	-1.8627371e-24
2.9512065 	0.89417064 	-0.0037102926 	1.802783e-23
2.9568104 	0.87883384 	-0.0034178691 	-4.5598844e-24
2.9620971 	0.86293507 	-0.0031373248 	4.2715912e-25
2.9670843 	0.84652221 	-0.0028696003 	2.1191645e-23
2.9717892 	0.82963284 	-0.0026154125 	-1.0629221e-23
2.9762276 	0.81229312 	-0.0023752514 	-1.2944939e-23
2.9804147 	0.79451722 	-0.0021493914 	9.9568474e-24
2.9843647 	0.77630693 	-0.0019379118 	1.108112e-23
2.9880911 	0.75765119 	-0.0017407223 	-1.1617193e-23
2.9916064 	0.73852504 	-0.0015575866 	-1.0360263e-23
2.9949226 	0.71888847 	-0.0013881457 	7.6656255e-24
2.9980511 	0.69868551 	-0.0012319446 	8.3165062e-25
3.0010024 	0.67784322 	-0.0010884557 	-1.3173452e-23
3.0037866 	0.65627069 	-0.00095709859 	-6.7250613e-24
3.0064131 	0.63385819 	-0.00083725798 	-3.9452591e-25
3.0088909 	0.61047673 	-0.00072829934 	0
3.0112284 	0.58597846 	-0.00062958217 	-3.1296574e-24
3.0134335 	0.56019839 	-0.00054047203 	1.5638446e-24
3.0155138 	0.53295888 	-0.00046035211 	8.5877062e-24
3.0174762 	0.50407415 	-0.00038864069 	8.6773585e-24
3.0193275 	0.47333424 	-0.00032468469 	-5.6686926e-26
3.021074 	0.44045897 	-0.00026776873 	-2.7132978e-24
3.0227216 	0.40516347 	-0.00021722197 	5.1569179e-24
3.0242759 	0.36737682 	-0.000172627 	3.0429322e-24
3.0257422 	0.32740747 	-0.00013381605 	0
3.0271255 	0.28600835 	-0.00010066435 	-2.0576963e-25
3.0284304 	0.24428973 	-7.3046525e-05 	-3.9068571e-24
3.0296614 	0.20340322 	-5.0710579e-05 	-5.6176787e-24
3.0308227 	0.16420477 	-3.3230664e-05 	-3.7755747e-24
3.0319183 	0.12713305 	-2.0068518e-05 	-1.8583481e-24
3.0329518 	0.092302086 	-1.0665454e-05 	-1.6921887e-24
3.0339268 	0.059653702 	-4.4999822e-06 	-2.0643371e-24
3.0348466 	0.02906584 	-1.051636e-06 	-6.1045583e-25
3.0357143 	0 	0 	0
