0.44812952 	0 	0 	0 	0 	0 	0
0.44889266 	4.4062156e-07 	-1.053299e-10 	1.2224355e-27 	4.3980599e-07 	-3.0890163e-27 	4.4021399e-07
0.44970152 	1.616674e-06 	-1.8861277e-09 	1.1722803e-25 	1.6023009e-06 	-1.5030717e-26 	1.6094884e-06
0.45055892 	6.9147742e-06 	-1.7387845e-08 	-1.7483934e-24 	6.784008e-06 	2.7930273e-25 	6.8493909e-06
0.45146777 	2.1095975e-05 	-9.6117762e-08 	1.5814065e-24 	2.0382626e-05 	-1.5577697e-24 	2.0739295e-05
0.45243114 	5.1745171e-05 	-3.8374254e-07 	2.2668777e-21 	4.8936769e-05 	1.7442561e-21 	5.034097e-05
0.45345231 	0.0001099334 	-1.2275228e-06 	-5.3810028e-21 	0.00010108375 	-4.1418118e-21 	0.00010550862
0.45453475 	0.00021112044 	-3.3401959e-06 	-5.1283096e-20 	0.00018742845 	-3.9350332e-20 	0.00019927463
0.45568213 	0.00037567591 	-8.0042388e-06 	8.351991e-20 	0.00031991621 	6.4016544e-20 	0.00034779663
0.45689834 	0.00062783617 	-1.7209618e-05 	8.1707654e-20 	0.00051041456 	5.9815456e-20 	0.00056912659
0.45818751 	0.0009911915 	-3.3473049e-05 	-8.902643e-20 	0.0007684899 	-6.5648668e-20 	0.00087984194
0.45955401 	0.0014795727 	-5.9070112e-05 	-5.404844e-19 	0.0010989818 	-3.9167781e-19 	0.0012892755
0.46100249 	0.0020866029 	-9.4885008e-05 	4.3916638e-19 	0.0015004158 	3.2654033e-19 	0.0017934999
0.46253785 	0.0027825651 	-0.00013986106 	9.4279022e-19 	0.0019648611 	6.7799604e-19 	0.0023736946
0.46416529 	0.003524261 	-0.00019186051 	-5.7057438e-21 	0.0024790907 	9.494597e-21 	0.003001655
0.46589035 	0.0042713514 	-0.00024925868 	4.1541621e-21 	0.0030268514 	2.166016e-20 	0.0036490888
0.46771887 	0.0049970077 	-0.00031183195 	1.9534276e-18 	0.0035919363 	1.4146887e-18 	0.0042944747
0.46965705 	0.0056886871 	-0.00038053019 	-3.2255975e-18 	0.0041609612 	-2.3785033e-18 	0.0049248424
0.47171146 	0.0063435734 	-0.0004568089 	-1.8549094e-18 	0.0047246893 	-1.3570692e-18 	0.0055341602
0.47388905 	0.0069638199 	-0.0005421417 	1.1383647e-17 	0.0052778187 	8.3811745e-18 	0.0061208534
0.47619722 	0.0075534782 	-0.00063783009 	-1.2832683e-17 	0.0058180076 	-9.3059908e-18 	0.0066857785
0.47864379 	0.0081169408 	-0.00074498708 	3.6966225e-18 	0.0063448367 	2.5805958e-18 	0.0072309232
0.48123703 	0.0086582912 	-0.00086458139 	1.141459e-17 	0.0068589983 	8.234559e-18 	0.0077586777
0.48398573 	0.0091810972 	-0.00099748876 	-1.3314942e-17 	0.0073617682 	-9.6079169e-18 	0.0082714649
0.4868992 	0.0096883922 	-0.0011445328 	-1.6902694e-17 	0.0078546911 	-1.1886675e-17 	0.008771573
0.4899873 	0.010182723 	-0.0013065086 	-2.8710292e-18 	0.0083393997 	-1.9879851e-18 	0.0092610908
0.49326049 	0.01066621 	-0.0014841933 	1.2429413e-17 	0.0088175236 	8.8158292e-18 	0.0097418956
0.49672983 	0.011140625 	-0.0016783577 	5.632414e-18 	0.0092906477 	3.8718589e-18 	0.010215665
0.50040707 	0.01160744 	-0.0018897656 	7.4043947e-18 	0.0097602945 	5.2202723e-18 	0.010683895
0.50430464 	0.012067867 	-0.0021191635 	4.0367044e-18 	0.01022793 	2.6735107e-18 	0.011147927
0.50843572 	0.012522901 	-0.0023672765 	-2.8374243e-19 	0.010694969 	-2.3687808e-19 	0.011608964
0.51281426 	0.012973346 	-0.0026347955 	-4.2495093e-18 	0.011162779 	-2.7923285e-18 	0.012068091
0.51745505 	0.013419829 	-0.002922358 	3.7246586e-17 	0.011632701 	2.4069858e-17 	0.012526294
0.52237379 	0.013862821 	-0.0032305348 	-1.6449461e-18 	0.012106058 	-1.0655884e-18 	0.01298447
0.52758706 	0.014302655 	-0.003559809 	-7.4996512e-17 	0.012584157 	-4.8055664e-17 	0.013443436
0.53311245 	0.014739519 	-0.0039105455 	1.1529064e-18 	0.013068309 	7.4821674e-19 	0.013903945
0.53896862 	0.015173464 	-0.004282964 	3.803424e-17 	0.013559829 	2.4144601e-17 	0.014366679
0.5451753 	0.01560442 	-0.004677111 	5.3544356e-20 	0.01406004 	2.592796e-22 	0.014832263
0.55175341 	0.016032195 	-0.0050928171 	-2.7292305e-17 	0.014570261 	-1.6772117e-17 	0.015301259
0.5587251 	0.01645646 	-0.0055296345 	-2.0861478e-19 	0.015091782 	-1.1443627e-19 	0.015774168
0.56611385 	0.016876767 	-0.0059867933 	2.763694e-17 	0.015625836 	1.7019054e-17 	0.016251423
0.57394452 	0.017292666 	-0.0064633124 	6.2868392e-19 	0.016173841 	3.54116e-19 	0.016733385
0.58224344 	0.017703959 	-0.006958409 	1.1771444e-16 	0.016738247 	6.659001e-17 	0.017220334
0.59103849 	0.018109976 	-0.0074701394 	5.8316077e-19 	0.017320395 	8.4237625e-19 	0.017712443
0.60035921 	0.01851198 	-0.0079939762 	-1.8201248e-16 	0.017909742 	-1.0156121e-16 	0.018209798
0.61023689 	0.018932249 	-0.0085071012 	-3.7863896e-18 	0.018483833 	-2.5845206e-18 	0.018713397
0.62070465 	0.019414873 	-0.0089085522 	7.369193e-17 	0.019030638 	4.0199154e-17 	0.019228567
0.63179756 	0.019976546 	-0.009188117 	1.903553e-18 	0.019554664 	9.8336576e-19 	0.019764695
0.64355276 	0.020590046 	-0.0094490424 	-1.0008003e-17 	0.020073144 	-5.6128725e-18 	0.020328224
0.65600958 	0.021229622 	-0.0097229517 	3.5559414e-19 	0.020612791 	1.5476388e-19 	0.020920208
0.66920964 	0.021888732 	-0.010009739 	-4.4486927e-19 	0.02118979 	-2.0510944e-19 	0.021539599
0.68319703 	0.022563789 	-0.01030875 	-1.3557633e-19 	0.021804863 	-3.3785109e-20 	0.022184616
0.6980184 	0.023249247 	-0.010618854 	-1.033777e-17 	0.022455571 	-4.395689e-18 	0.022852564
0.71372312 	0.02393884 	-0.010938391 	-5.9989081e-17 	0.023140172 	-2.5310096e-17 	0.023539657
0.73036348 	0.024625484 	-0.011265069 	4.6100274e-18 	0.023855982 	1.9668248e-18 	0.024240895
0.74799478 	0.025300935 	-0.011595872 	5.880097e-17 	0.024598599 	2.477434e-17 	0.02494992
0.76667556 	0.025955701 	-0.011926986 	3.2740547e-19 	0.025361803 	1.389252e-19 	0.025658884
0.78646776 	0.026579055 	-0.012253745 	3.243801e-19 	0.026137427 	1.2667009e-19 	0.026358346
0.80743691 	0.027159065 	-0.012570594 	7.3652473e-19 	0.02691519 	2.5598752e-19 	0.027037201
0.82965235 	0.027682683 	-0.012871097 	2.7781867e-17 	0.027682583 	9.2428569e-18 	0.027682659
0.85318741 	0.0281359 	-0.013147985 	3.194926e-18 	0.028424832 	1.0710552e-18 	0.028280309
0.87811967 	0.028504005 	-0.013393262 	-3.487875e-17 	0.029124784 	-1.132847e-17 	0.028814266
0.90453116 	0.028772221 	-0.01359836 	-5.5107379e-17 	0.029762739 	-1.5314152e-17 	0.029267378
0.93250863 	0.02892457 	-0.01375352 	2.9117948e-18 	0.030315108 	8.8732759e-19 	0.029619719
0.96214382 	0.028939743 	-0.013846322 	5.0895486e-17 	0.030751424 	1.4156048e-17 	0.029845337
0.99353369 	0.028810452 	-0.013871269 	1.8898643e-19 	0.031056151 	6.1530674e-20 	0.029932933
1.0139869 	0.028641586 	-0.013843412 	4.6799991e-19 	0.031156746 	1.1229304e-19 	0.02989877
1.0267827 	0.028533863 	-0.013825094 	5.5857603e-19 	0.031219432 	1.3529101e-19 	0.029876236
1.0620005 	0.028094546 	-0.013697998 	1.4854977e-18 	0.031214679 	3.5731165e-19 	0.029654273
1.0992983 	0.027487151 	-0.013484539 	-1.5473061e-19 	0.031019969 	-3.3376071e-20 	0.029253269
1.1387972 	0.026710265 	-0.013181764 	3.9128763e-19 	0.030620457 	7.0680528e-20 	0.02866509
1.1806248 	0.025767484 	-0.012789905 	4.270896e-17 	0.030009796 	7.1314734e-18 	0.027888407
1.2249163 	0.024669796 	-0.012313517 	5.3944436e-18 	0.029193724 	8.9549549e-19 	0.026931567
1.271814 	0.023434776 	-0.01176103 	2.7815397e-18 	0.028189511 	-6.5516153e-19 	0.025811989
1.3214686 	0.022087656 	-0.011145119 	5.6406177e-18 	0.027027162 	8.0494806e-19 	0.024557269
1.3740391 	0.020660826 	-0.010482241 	-4.6863068e-17 	0.025748131 	-6.6820539e-18 	0.023204319
1.4296932 	0.019191863 	-0.0097913627 	7.288246e-17 	0.024401304 	8.0689031e-18 	0.021796398
1.4886081 	0.017719985 	-0.0090918891 	4.0721268e-17 	0.023036062 	4.1307705e-18 	0.020377915
1.5509706 	0.016281884 	-0.0084009758 	-7.5459998e-17 	0.021694852 	-8.2989817e-18 	0.018987628
1.6169779 	0.014905685 	-0.0077318978 	-3.0415843e-17 	0.020399532 	-3.0562644e-18 	0.01765191
1.6868383 	0.013622455 	-0.0070981127 	1.2599388e-19 	0.01913518 	1.1530077e-20 	0.016380025
1.7607711 	0.0124664 	-0.0065146928 	7.6412319e-20 	0.017889629 	7.2548815e-21 	0.015178664
1.8345812 	0.011437646 	-0.0059881353 	2.3372278e-19 	0.016721314 	1.3201032e-20 	0.014078177
1.9041009 	0.010503509 	-0.005508442 	-1.3084906e-19 	0.015699861 	-9.7539719e-21 	0.013100753
1.9695866 	0.0096488314 	-0.0050659946 	3.4625498e-19 	0.014826522 	1.7760874e-20 	0.012237859
2.0312786 	0.008881111 	-0.0046612049 	-1.5393359e-19 	0.01407327 	-8.8650302e-21 	0.011476971
2.0894021 	0.0082305868 	-0.0042494248 	-6.2506177e-19 	0.013383727 	-3.3904402e-20 	0.010806497
2.0951826 	0.0081762062 	-0.004201829 	-6.0638645e-19 	0.013311011 	-3.2015112e-20 	0.010743114
2.1441708 	0.007716787 	-0.0037975592 	-1.2372887e-17 	0.012693314 	-5.2528446e-19 	0.010205962
2.19578 	0.0072944535 	-0.0033701694 	-1.5705239e-16 	0.012011922 	-6.2691726e-18 	0.0096535607
2.244415 	0.006922257 	-0.0029890899 	3.5505966e-16 	0.011355452 	1.3408017e-17 	0.0091383807
2.2902505 	0.0065889929 	-0.0026288794 	3.511336e-16 	0.010724346 	1.3108346e-17 	0.0086566998
2.3334504 	0.0062858247 	-0.00228569 	-8.8430138e-16 	0.010127249 	-3.0502285e-17 	0.0082065064
2.3741686 	0.0060074117 	-0.0019588071 	-1.7252081e-16 	0.009566166 	-6.0405191e-18 	0.0077867496
2.4125499 	0.0057522824 	-0.0016462654 	5.4443095e-16 	0.0090410231 	1.7848735e-17 	0.0073966537
2.4487301 	0.0055193568 	-0.0013477344 	-1.9274743e-16 	0.0085513479 	-5.3030356e-18 	0.0070353468
2.4828372 	0.0053073782 	-0.0010633024 	-1.0269025e-16 	0.0080965509 	-2.6778198e-18 	0.0067019581
2.5149913 	0.0051154184 	-0.00079288898 	1.460671e-16 	0.0076760093 	4.1589654e-18 	0.0063957088
2.5453057 	0.0049427418 	-0.00053630194 	8.5601372e-17 	0.0072891354 	2.227521e-18 	0.0061159342
2.5738865 	0.0047888163 	-0.00029321299 	5.5537211e-17 	0.0069353876 	1.3722904e-18 	0.0058621029
2.600834 	0.0046533263 	-6.319005e-05 	2.0706951e-16 	0.0066143376 	4.363711e-18 	0.0056338296
2.6262423 	0.0045360826 	0.00015428068 	-1.8346755e-16 	0.0063256734 	-3.683414e-18 	0.0054308745
2.6502002 	0.004437077 	0.00035977572 	-2.0621754e-16 	0.0060691831 	-4.3383936e-18 	0.0052531269
2.672791 	0.0043564314 	0.00055389245 	1.8313599e-16 	0.005844715 	3.6775366e-18 	0.0051005724
2.6940934 	0.0042943633 	0.00073722719 	-5.8729362e-17 	0.0056521178 	-1.0234387e-18 	0.0049732413
2.7141814 	0.0042511121 	0.00091039019 	-4.0376645e-18 	0.0054911662 	-7.0884572e-20 	0.0048711386
2.7331246 	0.0042268485 	0.0010739506 	2.1299382e-16 	0.005361486 	3.4706153e-18 	0.0047941616
2.7509888 	0.0042219758 	0.0012284773 	1.6232825e-16 	0.0052628963 	2.4676141e-18 	0.0047424279
2.7678357 	0.0042366266 	0.0013745805 	-7.0121612e-19 	0.0051948278 	-2.0675121e-19 	0.0047157267
2.7837236 	0.0042691044 	0.0015124763 	-4.9038562e-16 	0.0051544923 	-7.0084924e-18 	0.0047117989
2.7987073 	0.0043180505 	0.0016424281 	-1.453034e-16 	0.005139555 	-2.0994158e-18 	0.0047287998
2.8128386 	0.0043827222 	0.0017647906 	3.648311e-16 	0.0051484686 	5.0278367e-18 	0.004765593
2.8261662 	0.0044611604 	0.0018796085 	-2.3703618e-16 	0.0051783145 	-2.8933887e-18 	0.0048197363
2.8387359 	0.0045510058 	0.001986895 	-8.7917012e-17 	0.0052258007 	-1.062274e-18 	0.0048884033
2.8505912 	0.0046496003 	0.0020865752 	1.6985896e-16 	0.0052873729 	2.1318449e-18 	0.0049684871
2.8617726 	0.0047541035 	0.0021785201 	2.423638e-17 	0.0053593601 	3.0823182e-19 	0.0050567322
2.8723187 	0.0048616274 	0.002262577 	-4.5265495e-17 	0.00543812 	-4.0446963e-19 	0.0051498741
2.8822656 	0.0049693717 	0.0023385986 	-7.6781965e-17 	0.0055201741 	-7.2340219e-19 	0.0052447734
2.8916476 	0.0050747379 	0.0024064735 	4.0118426e-16 	0.0056023211 	3.8400465e-18 	0.0053385299
2.9004967 	0.0051754213 	0.0024661468 	7.9576489e-17 	0.0056817226 	7.9313794e-19 	0.0054285723
2.9088434 	0.0052694772 	0.0025176425 	-1.072968e-16 	0.0057559583 	-1.160081e-18 	0.0055127182
2.9167163 	0.0053553587 	0.0025610816 	2.3197287e-17 	0.0058230536 	2.0950549e-19 	0.0055892067
2.9241422 	0.005431927 	0.0025966978 	-2.3876909e-16 	0.0058814848 	-1.9974408e-18 	0.0056567063
2.9311467 	0.0054984272 	0.0026248432 	-3.5259264e-16 	0.0059301562 	-2.5839009e-18 	0.0057142921
2.9377537 	0.005554475 	0.0026459925 	1.806159e-16 	0.0059683932 	1.2912506e-18 	0.0057614347
2.9439858 	0.0055999908 	0.0026607207 	3.7086802e-16 	0.0059958869 	2.7037911e-18 	0.0057979396
2.9498644 	0.0056351019 	0.0026696762 	-1.9849676e-16 	0.0060126069 	-1.3363374e-18 	0.0058238555
2.9554094 	0.0056599683 	0.0026734753 	-1.9381008e-17 	0.0060186218 	-1.2831161e-19 	0.0058392961
2.96064 	0.0056750568 	0.0026727808 	6.380765e-17 	0.0060143863 	3.9833625e-19 	0.0058447223
2.9655739 	0.0056808746 	0.0026682069 	4.2785013e-17 	0.0060004533 	2.2008644e-19 	0.0058406647
2.9702279 	0.0056776634 	0.0026602063 	-4.0119289e-17 	0.0059771405 	-1.9298849e-19 	0.0058274027
2.9746181 	0.0056656884 	0.0026491703 	-5.7952624e-17 	0.0059448252 	-2.908781e-19 	0.0058052575
2.9787593 	0.0056451133 	0.0026353591 	1.8783079e-18 	0.0059038045 	3.1723002e-20 	0.0057744595
2.9826657 	0.005615954 	0.0026188936 	1.242692e-17 	0.0058542411 	5.8262421e-20 	0.0057350981
2.9863507 	0.0055780465 	0.002599744 	3.6887029e-17 	0.0057961232 	1.5650874e-19 	0.0056870854
2.9898267 	0.0055310126 	0.0025777166 	8.2180215e-21 	0.0057292245 	2.3845848e-22 	0.0056301192
2.9931057 	0.0054742234 	0.002552435 	-3.6446998e-21 	0.0056530648 	-1.7405905e-23 	0.005563645
2.9961989 	0.0054067604 	0.0025233208 	-4.9416305e-21 	0.0055668686 	-4.6494557e-23 	0.0054868135
2.9991167 	0.0053273708 	0.0024895691 	6.0484196e-17 	0.0054695209 	1.6418714e-19 	0.005398436
3.0018692 	0.00523441 	0.0024509233 	-7.4616561e-17 	0.0053594671 	-1.877198e-19 	0.0052969376
3.0044656 	0.0051257639 	0.0024047828 	-4.1216963e-17 	0.0052344434 	-1.2061379e-19 	0.0051801222
3.006915 	0.0049983554 	0.0023453693 	7.4672626e-17 	0.0050912141 	1.8782648e-19 	0.0050447916
3.0092255 	0.0048478556 	0.0022720548 	7.900969e-18 	0.0049258336 	9.0598398e-21 	0.0048868372
3.0114051 	0.0046693186 	0.0021860054 	2.9636025e-18 	0.0047338349 	6.0431524e-21 	0.0047015726
3.0134611 	0.0044576853 	0.0020848887 	-4.4629904e-18 	0.0045102767 	-1.526618e-20 	0.0044839798
3.0154007 	0.0042080176 	0.001966422 	2.5613752e-18 	0.0042501969 	4.0129893e-21 	0.0042291069
3.0172304 	0.0039160369 	0.0018286022 	-1.7024594e-17 	0.0039492447 	-2.6928834e-20 	0.0039326406
3.0189564 	0.0035789477 	0.0016701104 	-4.043938e-18 	0.0036045377 	-4.8630373e-21 	0.0035917414
3.0205847 	0.0031964375 	0.0014907815 	-3.1467963e-17 	0.0032156613 	-3.2611619e-20 	0.0032060488
3.0221207 	0.0027708541 	0.0012799672 	-3.6073239e-18 	0.0027847273 	-3.1595151e-21 	0.002777792
3.0235696 	0.0023104161 	0.0010366952 	2.3867108e-17 	0.0023198456 	2.4547083e-20 	0.002315131
3.0249365 	0.0018342195 	0.00078160565 	1.8132201e-23 	0.0018401893 	-6.740191e-24 	0.0018372035
3.026226 	0.0013720472 	0.00053819149 	3.7507056e-18 	0.0013755115 	2.3794316e-21 	0.0013737789
3.0274424 	0.00095797948 	0.0003315174 	1.6486208e-18 	0.00095978624 	1.0345599e-21 	0.00095888268
3.0285899 	0.00061953425 	0.00017933804 	-2.1050595e-18 	0.00062036405 	-1.3267799e-21 	0.00061994916
3.0296723 	0.0003684296 	8.3828008e-05 	-1.9083931e-20 	0.0003687582 	-7.9183156e-24 	0.00036859394
3.0306935 	0.00019935982 	3.3264037e-05 	1.6968467e-20 	0.00019946925 	4.9906401e-24 	0.00019941455
3.0316569 	9.6218659e-05 	1.0902297e-05 	2.8855236e-20 	9.6248213e-05 	9.9816993e-24 	9.6233438e-05
3.0325656 	3.9887931e-05 	2.8069559e-06 	-7.3445891e-21 	3.9894021e-05 	-2.3986042e-24 	3.9890975e-05
3.0334229 	1.3297396e-05 	5.1782512e-07 	-2.5455612e-22 	1.3298254e-05 	-7.6609197e-26 	1.3297825e-05
3.0342316 	3.4454486e-06 	5.9639128e-08 	3.9656695e-24 	3.4455168e-06 	6.8759618e-29 	3.445483e-06
3.0349946 	2.951578e-06 	6.9100723e-09 	1.6108951e-24 	2.9515815e-06 	1.3172346e-28 	2.9515798e-06
3.0357143 	0 	0 	0 	0 	0 	0
