/*--------------------------------*- C++ -*----------------------------------*\
| =========                 |                                                 |
| \\      /  F ield         | OpenFOAM: The Open Source CFD Toolbox           |
|  \\    /   O peration     | Version:  2.4.0                                 |
|   \\  /    A nd           | Web:      www.OpenFOAM.org                      |
|    \\/     M anipulation  |                                                 |
\*---------------------------------------------------------------------------*/
FoamFile
{
    version     2.0;
    format      ascii;
    class       volScalarField;
    location    "20";
    object      omega;
}
// * * * * * * * * * * * * * * * * * * * * * * * * * * * * * * * * * * * * * //

dimensions      [0 0 -1 0 0 0 0];

internalField   nonuniform List<scalar> 
19650
(
0.31610055
0.30393451
0.29299729
0.28308412
0.27404772
0.26576537
0.25815287
0.25113949
0.24467461
0.23871613
0.23322646
0.22817885
0.22353916
0.21928806
0.21539523
0.21184388
0.20860981
0.2056781
0.20303003
0.20065399
0.19853893
0.19666987
0.1950459
0.19365551
0.19249278
0.1915353
0.19079567
0.19028495
0.18996415
0.18983881
0.18983445
0.18988951
0.19004639
0.19046329
0.19096175
0.19168292
0.19246837
0.19347368
0.19453183
0.19579968
0.19710622
0.19860227
0.20012308
0.20180724
0.20350557
0.20534323
0.20709498
0.20871798
0.21023498
0.21160138
0.21285764
0.2139546
0.21493785
0.21576254
0.21647273
0.21702789
0.21747169
0.21776977
0.21795271
0.21801107
0.2179487
0.21777849
0.21750778
0.21715407
0.21672444
0.30459537
0.29285723
0.28222956
0.27257233
0.26377678
0.25574558
0.24840613
0.24168769
0.23553978
0.229908
0.22475448
0.22003519
0.21572002
0.21177322
0.20817049
0.20488448
0.20189502
0.19918365
0.19673124
0.19452999
0.19256097
0.19082368
0.18930593
0.18800503
0.18691032
0.1860174
0.18534194
0.18484181
0.18451094
0.18435956
0.18434689
0.18438525
0.18451357
0.18487088
0.18531446
0.18597622
0.1866759
0.18758785
0.1885373
0.18968664
0.19087335
0.19224583
0.19365001
0.19522517
0.19681786
0.19856686
0.200221
0.20178054
0.20320724
0.20452406
0.20569427
0.20674659
0.20765312
0.20843467
0.20908272
0.20959909
0.20999592
0.21026535
0.21041526
0.2104649
0.21037121
0.21021272
0.20992074
0.20959492
0.20915032
0.29515463
0.28373125
0.27338622
0.26400445
0.25548052
0.24772499
0.24065979
0.23421354
0.22832881
0.22294707
0.21802584
0.21351807
0.20939325
0.20561438
0.20216145
0.19900561
0.19613464
0.1935253
0.19116954
0.18904724
0.18715348
0.18547287
0.18400447
0.18273171
0.18165814
0.18078103
0.18009071
0.17953194
0.17911463
0.17885305
0.17875555
0.17875565
0.17880973
0.17899921
0.17934271
0.1798656
0.18045066
0.18120478
0.18201563
0.18299262
0.1840207
0.18521569
0.18645799
0.18786605
0.18931927
0.19093102
0.19249266
0.19395608
0.19533081
0.19657692
0.19771922
0.19871518
0.19960289
0.20033952
0.20096979
0.20145074
0.20183731
0.20207031
0.2022354
0.20223406
0.2021951
0.20199274
0.20177581
0.20142921
0.20107732
0.2847331
0.27377732
0.26386443
0.25489146
0.24676154
0.23938935
0.23269346
0.22660324
0.22105332
0.21598581
0.21135132
0.20710527
0.20321461
0.19964929
0.1963869
0.19340838
0.1906954
0.18823861
0.18602517
0.18405202
0.18230788
0.18078959
0.17948183
0.1783742
0.17745027
0.17671609
0.17613822
0.1756701
0.17529652
0.17502929
0.17487065
0.17482599
0.17483276
0.17489018
0.17504585
0.17537963
0.17574424
0.17627189
0.17681975
0.17753488
0.17826838
0.17917004
0.18009834
0.18119119
0.18232584
0.18362064
0.18489879
0.18613073
0.18730194
0.18839927
0.18940446
0.19032301
0.191128
0.19184326
0.19243711
0.19294278
0.19332979
0.19363416
0.19382983
0.19394607
0.19397758
0.19392512
0.19383064
0.19365973
0.19348555
0.27146238
0.26115151
0.25185234
0.24346944
0.23590927
0.22908756
0.22292021
0.21733502
0.21226734
0.20766398
0.2034777
0.19966621
0.19619503
0.19303768
0.19017747
0.18760272
0.18530487
0.18326957
0.18148136
0.17992256
0.17857228
0.17741102
0.17642396
0.175593
0.17489921
0.17433675
0.17391251
0.17358847
0.17332327
0.17311942
0.17297419
0.17289546
0.17287551
0.17288512
0.17293186
0.17308383
0.17328943
0.17360781
0.17394748
0.17440102
0.1748809
0.17547265
0.17610027
0.17683853
0.17762552
0.17852562
0.17944516
0.1803543
0.18124706
0.18210558
0.1829213
0.18368595
0.1843897
0.1850326
0.18560532
0.18611184
0.18654714
0.18692136
0.18722692
0.18748079
0.18767038
0.18782111
0.1879232
0.18800452
0.18805107
0.25486739
0.2455333
0.23716794
0.22967552
0.22296952
0.21696803
0.21158954
0.20675223
0.2023916
0.19846517
0.19495432
0.1918349
0.1890828
0.18666516
0.18454774
0.18269232
0.18106345
0.17963166
0.17837243
0.1772657
0.17629528
0.17544935
0.17471501
0.17408673
0.17356104
0.17312439
0.17277069
0.17252333
0.17235378
0.17222671
0.17213883
0.17208986
0.17207582
0.17208049
0.17210678
0.17219556
0.17232245
0.17252192
0.17274416
0.17303808
0.1733604
0.17375358
0.17417825
0.1746771
0.17520809
0.1758232
0.17644911
0.17711091
0.1777496
0.17842084
0.17903871
0.17968828
0.18025888
0.18086282
0.18136827
0.18191286
0.18234604
0.18281928
0.18317925
0.18357611
0.18387123
0.18419381
0.18444318
0.18470783
0.18492997
0.27926924
0.26649183
0.25508723
0.2449892
0.2360345
0.22809276
0.22102964
0.21479938
0.20931617
0.20450171
0.20029512
0.1966418
0.19348577
0.19075738
0.18838264
0.18629988
0.18446285
0.18283003
0.18137251
0.18006258
0.17888234
0.17781737
0.17685498
0.17598901
0.17520984
0.17451587
0.17390013
0.17336214
0.17289966
0.1725138
0.17219752
0.17194569
0.17178457
0.17170287
0.17165731
0.17164315
0.17164575
0.17166889
0.17172954
0.17183052
0.17195521
0.17211931
0.17230793
0.17253971
0.17279333
0.17309946
0.17341949
0.173807
0.17419566
0.17467197
0.17512491
0.17566215
0.17614208
0.17671683
0.17720301
0.17779178
0.17826558
0.17884701
0.17929304
0.17984849
0.18025583
0.18077477
0.1811377
0.18161167
0.18192934
0.18235242
0.18263249
0.18300488
0.18326081
0.29384038
0.27876717
0.26530317
0.25331049
0.24271049
0.23341541
0.2253085
0.21828065
0.21229184
0.20719272
0.20286189
0.19914633
0.19596357
0.19321994
0.19082831
0.18873043
0.18687386
0.18521703
0.18372262
0.18236499
0.18112233
0.17998125
0.17892789
0.17795294
0.17704949
0.17621258
0.17544075
0.17473298
0.17409025
0.17351286
0.17300322
0.17255834
0.1721841
0.17187535
0.17162684
0.17144464
0.17134741
0.17132807
0.17132952
0.17134479
0.17140285
0.17147382
0.17160941
0.17173046
0.17192512
0.17209281
0.17234423
0.1725551
0.17286276
0.17311616
0.17348185
0.1737778
0.17420629
0.1745457
0.17502805
0.17539808
0.17592056
0.17630905
0.17685564
0.17724905
0.17780278
0.17818828
0.1787299
0.17909639
0.17961099
0.17995454
0.18043504
0.18075558
0.18120173
0.18150405
0.18192147
0.18221439
0.27730378
0.26381956
0.25196462
0.24164497
0.23277011
0.22515269
0.21861045
0.21297311
0.20812143
0.2039457
0.20033349
0.19723096
0.19452263
0.19219182
0.19016324
0.1883648
0.18675345
0.18529477
0.18396317
0.18273513
0.18159088
0.18051597
0.17950238
0.17854556
0.17764789
0.17680853
0.17602989
0.17531165
0.17465381
0.17405565
0.1735158
0.1730347
0.17261181
0.17224918
0.17194643
0.17169976
0.17150799
0.17138712
0.17134984
0.17135534
0.17137905
0.17145076
0.17151642
0.17166364
0.17177069
0.17197585
0.17212163
0.17238233
0.17256471
0.17288051
0.17309756
0.17346699
0.17371737
0.17413374
0.17441481
0.17487352
0.17517893
0.17567181
0.17599419
0.17650969
0.17684175
0.17736851
0.17770529
0.17823328
0.1785729
0.17908923
0.17942881
0.17992545
0.18026298
0.18073831
0.1810729
0.18153015
0.18186319
0.25487087
0.24508964
0.23650081
0.22897296
0.22238122
0.21661454
0.21156997
0.20715603
0.20331417
0.19996039
0.19706052
0.19455152
0.19236878
0.19050173
0.18884612
0.18735963
0.18600309
0.18474413
0.18356112
0.1824446
0.18139288
0.18040352
0.17947692
0.17860987
0.17780323
0.17705251
0.1763573
0.17571545
0.17512569
0.17458854
0.17410176
0.17366581
0.1732786
0.17293955
0.17265051
0.17240818
0.17221272
0.17206174
0.17197228
0.17195378
0.17196293
0.1720129
0.17206519
0.17218924
0.17227193
0.1724508
0.17255861
0.17278732
0.17292158
0.17320099
0.17336739
0.17369851
0.17390116
0.17428505
0.1745257
0.17496554
0.17523838
0.17571899
0.17601368
0.17652183
0.17682891
0.17734795
0.17766394
0.1781855
0.17851117
0.17902501
0.1793601
0.17985987
0.18020302
0.18068731
0.18103616
0.18150706
0.18185978
0.24414398
0.2361999
0.22909679
0.22275865
0.21711973
0.21214078
0.20776094
0.20394057
0.20060237
0.19770706
0.19522266
0.19308349
0.19129142
0.18972883
0.18831038
0.18699407
0.18576724
0.18462363
0.18356088
0.18257272
0.18165487
0.18080133
0.18000964
0.17927537
0.17859604
0.17796785
0.17739005
0.17685928
0.17637437
0.17593304
0.17553362
0.17517506
0.17485547
0.17457357
0.17432921
0.17412208
0.17395092
0.17380988
0.17370265
0.17364284
0.17363222
0.17364154
0.17367261
0.17376189
0.17381548
0.17393132
0.17399261
0.17412217
0.17419602
0.17435589
0.17445013
0.17465372
0.17477012
0.17503242
0.1751857
0.17554744
0.17574608
0.17618669
0.17641839
0.1769095
0.17717021
0.17768537
0.17797466
0.17850088
0.17881837
0.17934449
0.17968954
0.1802102
0.18058221
0.18109823
0.18149599
0.18201111
0.18243359
0.23649228
0.22918988
0.22266202
0.21683296
0.21172048
0.20731882
0.20358204
0.20042541
0.19778353
0.19560006
0.19374008
0.19215173
0.19071966
0.18939154
0.18816542
0.1870397
0.18600749
0.18505945
0.18418881
0.18338848
0.182654
0.18197926
0.18136059
0.18079254
0.18027199
0.17979517
0.17935886
0.17896005
0.17859648
0.17826543
0.1779654
0.17769411
0.17745022
0.17723187
0.17703987
0.1768709
0.17672567
0.17660728
0.17651253
0.17643616
0.17639338
0.17639055
0.17640023
0.17643062
0.17650246
0.17659604
0.17666832
0.17675987
0.17681455
0.17689899
0.17693316
0.17700689
0.17702873
0.17710405
0.17714509
0.17732693
0.17743098
0.17773096
0.17789551
0.17829884
0.17852816
0.17898889
0.17927538
0.17977507
0.1801136
0.18064312
0.18103139
0.18158477
0.18202424
0.18259862
0.1830903
0.18368331
0.18422458
0.22527167
0.2188649
0.21349709
0.20913533
0.20557659
0.20262674
0.20015734
0.19806599
0.19627482
0.19464691
0.19320374
0.19191247
0.1907407
0.18968325
0.18872906
0.18786748
0.18709038
0.18638827
0.185755
0.18518219
0.18466629
0.18419973
0.18378036
0.1834008
0.18305959
0.18274948
0.18246886
0.18221161
0.18197589
0.18175715
0.18155496
0.18136433
0.18118802
0.18102127
0.18086556
0.18072238
0.18058861
0.18046647
0.18036265
0.18026462
0.18018773
0.18013274
0.18008279
0.18007078
0.1800769
0.18009802
0.18015762
0.18020934
0.18027051
0.18030454
0.18034488
0.18035923
0.18038147
0.18036766
0.18043196
0.18051404
0.18063408
0.18084959
0.18101257
0.18132893
0.18156141
0.18195907
0.18226948
0.18272519
0.18311456
0.1836183
0.18408479
0.18463378
0.18517352
0.18576877
0.18637511
0.18701142
0.18767613
0.21599806
0.21190159
0.20848215
0.20559617
0.20316235
0.20104875
0.19917612
0.19749524
0.19597953
0.19468512
0.19359207
0.1926233
0.19177594
0.19102824
0.19037235
0.18979423
0.18928866
0.18884654
0.18846594
0.18813755
0.18785612
0.18761338
0.18740345
0.18721927
0.18705285
0.18690131
0.18675868
0.18662108
0.18648761
0.18635166
0.18621754
0.18607859
0.18593872
0.18579742
0.185652
0.18551007
0.18536617
0.18522466
0.18509246
0.18495666
0.18484244
0.18472308
0.18463161
0.18454
0.18447526
0.1844249
0.18439029
0.18439141
0.18440581
0.18443328
0.18443485
0.18442884
0.18440443
0.18437159
0.18437052
0.18446294
0.18450674
0.18473717
0.184852
0.18519124
0.18539146
0.18581043
0.18611444
0.18658659
0.18700015
0.18751374
0.18803298
0.1885858
0.18920299
0.18979708
0.19049784
0.19112885
0.19189496
0.21608709
0.21252417
0.2094967
0.20690349
0.20463271
0.20257906
0.20075996
0.19920187
0.19785124
0.19677729
0.1959092
0.1951728
0.19454704
0.19401671
0.19357283
0.19320929
0.19291955
0.19269856
0.19252494
0.19241402
0.1923232
0.19226565
0.19222408
0.19218675
0.19215535
0.1921201
0.19207364
0.19202816
0.19195505
0.19188133
0.19177877
0.19167406
0.19154352
0.19140795
0.19125423
0.19109288
0.19092303
0.19074496
0.19056736
0.19038285
0.19020716
0.19002612
0.18986173
0.18969458
0.18954886
0.18940657
0.18928531
0.18917835
0.18908715
0.18902476
0.18897015
0.1889589
0.18894232
0.18890298
0.18884158
0.18881416
0.18890216
0.18893569
0.18914245
0.18924309
0.18958125
0.18975027
0.19020799
0.1904527
0.19098059
0.19135249
0.19190987
0.19240582
0.19299242
0.19360336
0.19422017
0.19492943
0.19556955
0.19635636
0.21767239
0.21432152
0.21142178
0.20884381
0.20655791
0.20454813
0.20287638
0.20148761
0.20034945
0.19951347
0.19888686
0.19837268
0.19796164
0.19765213
0.19743997
0.19731416
0.19726029
0.19726435
0.19731487
0.1973957
0.1974938
0.19759312
0.19769643
0.19779517
0.19786274
0.19792895
0.19797143
0.19796989
0.19795427
0.19791879
0.19784432
0.19775231
0.19762308
0.19748283
0.19730502
0.19712555
0.19690958
0.19670203
0.19646043
0.19623676
0.19598257
0.19575443
0.19550044
0.19527787
0.19503641
0.19482742
0.19460968
0.19442098
0.19423619
0.19407422
0.19392974
0.19380074
0.19370315
0.19361355
0.19356775
0.19349886
0.19346616
0.19354393
0.19357234
0.19377557
0.19387241
0.19420397
0.19436726
0.19482173
0.19505092
0.19560445
0.1959386
0.19652429
0.19699446
0.19760447
0.19819174
0.19882926
0.19951742
0.2001755
0.20094411
0.22021939
0.21684922
0.21385035
0.21121457
0.20896993
0.20709283
0.20558385
0.20438832
0.20346612
0.20288638
0.2024676
0.20217335
0.20197832
0.20193091
0.20194614
0.20206944
0.20225164
0.20247031
0.20271114
0.20296133
0.20321128
0.20344652
0.20366786
0.20387006
0.20403475
0.20416381
0.20427734
0.20434159
0.20434376
0.20432816
0.20428632
0.20419251
0.20407179
0.20390593
0.20371985
0.20349741
0.20325717
0.20299249
0.20271195
0.20241999
0.20211406
0.20180901
0.2014924
0.20118698
0.20087281
0.20057836
0.20027711
0.2000037
0.19972355
0.19947896
0.19922805
0.19901642
0.19880374
0.19862831
0.19845954
0.19832838
0.19820396
0.19815846
0.19822262
0.19824868
0.19844775
0.19854191
0.19886865
0.1990287
0.19947626
0.1997023
0.20024513
0.20058036
0.20115472
0.20162538
0.20222478
0.20281222
0.20344295
0.20412837
0.20478621
0.20554923
0.23726567
0.23208222
0.2275319
0.22348629
0.21991039
0.21680872
0.21419214
0.2120337
0.21029879
0.20895227
0.20795687
0.2072646
0.20689769
0.20666299
0.20660586
0.20662882
0.20682019
0.20710155
0.20743941
0.20781191
0.20820151
0.20859451
0.20898338
0.20935554
0.20970331
0.21002166
0.21031091
0.21055683
0.21075192
0.21091383
0.21104066
0.2110882
0.2110847
0.21105833
0.21098779
0.21087495
0.21069597
0.21050381
0.21024638
0.20998833
0.20966732
0.20935842
0.20899139
0.20864726
0.20825268
0.20788808
0.20748359
0.20711186
0.20671261
0.20634553
0.20596361
0.20561054
0.20525635
0.20492279
0.2046065
0.20429538
0.20402407
0.20374215
0.20351517
0.20327468
0.20308956
0.20293554
0.20294187
0.20296258
0.20315484
0.20324551
0.20356711
0.20372398
0.2041659
0.20439084
0.20492326
0.20526454
0.20582443
0.2063062
0.20689077
0.20749509
0.2081112
0.20882023
0.20946623
0.21025783
0.23670952
0.23178298
0.22744572
0.22372132
0.22058518
0.21800046
0.21592595
0.21431819
0.21312774
0.21230242
0.21180367
0.2116169
0.21158311
0.21167046
0.21197356
0.21237339
0.21283366
0.21332906
0.2138442
0.21436171
0.21487397
0.21536992
0.21584348
0.21628602
0.21669158
0.21706168
0.21738771
0.21766014
0.2178779
0.2180634
0.21819184
0.21822688
0.21821857
0.21818179
0.21808887
0.21793936
0.21772822
0.21748185
0.2171818
0.21685325
0.21648016
0.21608861
0.21566069
0.21522691
0.21476292
0.21430693
0.21382478
0.21336409
0.2128799
0.2124281
0.21195629
0.21152197
0.2110757
0.21066314
0.21025282
0.20986632
0.20949587
0.20914402
0.20881176
0.20850331
0.20821022
0.20798832
0.20788613
0.20785594
0.20796778
0.20805346
0.20836973
0.20852393
0.20896284
0.20918861
0.20971625
0.21006479
0.2106208
0.21111076
0.21169756
0.21231597
0.2129366
0.21366737
0.21431829
0.21513949
0.23694016
0.2324137
0.2285736
0.22540438
0.22283676
0.22081359
0.2192912
0.2182168
0.21752562
0.21717498
0.21712374
0.21718265
0.21751359
0.21796866
0.2184975
0.2190721
0.21967254
0.22028433
0.22089587
0.22149782
0.22208284
0.22264478
0.22317687
0.22367316
0.22413103
0.22454793
0.22491423
0.22522017
0.22547494
0.22568866
0.22582884
0.22586577
0.22585609
0.22581313
0.22570029
0.22552432
0.22526587
0.22497675
0.22460794
0.22422143
0.22376182
0.22329938
0.22277238
0.22225786
0.22168736
0.22114434
0.22055247
0.2200018
0.219408
0.21886561
0.21828668
0.21776261
0.21721272
0.2167122
0.21620175
0.21572882
0.21526206
0.21482329
0.21439897
0.21400172
0.21361844
0.21330963
0.21312241
0.2130132
0.21303161
0.21306869
0.21330579
0.21345605
0.21389018
0.21412566
0.21463778
0.21501125
0.21555171
0.21606304
0.21664083
0.2172802
0.217896
0.21864594
0.21929635
0.22013549
0.23860389
0.23462977
0.23139476
0.22879406
0.22677205
0.22528635
0.22426554
0.22363555
0.2233995
0.22338924
0.2235757
0.22400804
0.22453629
0.22512931
0.22576408
0.22642464
0.22709899
0.22777627
0.22844964
0.22911211
0.22975789
0.2303805
0.23097436
0.23153465
0.23205604
0.23253219
0.23295306
0.23331139
0.2336153
0.23386824
0.23402964
0.23406726
0.23405619
0.23400692
0.23386996
0.23366338
0.23334312
0.23299734
0.23254334
0.23207802
0.23151476
0.23095674
0.23031385
0.22969219
0.22900064
0.22834275
0.22763192
0.22696107
0.22625605
0.22559062
0.22491018
0.22426423
0.22362013
0.22300431
0.22240212
0.22182438
0.22126544
0.22073134
0.22021555
0.21972793
0.21925541
0.21885969
0.21858975
0.21839825
0.21832269
0.21831113
0.21845348
0.21855536
0.218905
0.2191244
0.21962303
0.220007
0.22053165
0.22105342
0.22161409
0.22226331
0.22286124
0.22361658
0.2242483
0.22508644
0.24204256
0.23866711
0.23599284
0.23390937
0.23238369
0.23134833
0.23072125
0.23049385
0.23049053
0.23069617
0.23112713
0.23165247
0.23224756
0.23289163
0.23357069
0.23427352
0.23499302
0.23571825
0.23644867
0.23717127
0.23788496
0.23858036
0.23924964
0.23988991
0.24048654
0.24103535
0.24151982
0.2419424
0.24230391
0.24258648
0.24275067
0.2427852
0.24276884
0.24270249
0.24252006
0.24225212
0.24185364
0.24141585
0.24085944
0.24027585
0.2395941
0.23889846
0.23812925
0.23735858
0.23653902
0.23572989
0.2348917
0.23407718
0.23324459
0.23245131
0.23164186
0.23088746
0.2301144
0.22940685
0.22868055
0.22802113
0.22734749
0.22673664
0.22611515
0.22555572
0.22498179
0.22451994
0.22415176
0.22389683
0.22372715
0.22366161
0.22369981
0.22375149
0.22400359
0.22416854
0.22457954
0.22492163
0.22540427
0.22592892
0.22645137
0.22710017
0.22765312
0.22840493
0.22898641
0.22981554
0.24733504
0.2445073
0.24227676
0.24062592
0.23947817
0.23874434
0.23844651
0.23838531
0.23848991
0.23882196
0.23927018
0.23980274
0.24040337
0.24105744
0.24175281
0.24248546
0.24324091
0.24402074
0.24480895
0.24560548
0.24639554
0.24717609
0.24793196
0.24865655
0.24933443
0.24995192
0.25050673
0.25098468
0.25138758
0.25167408
0.25181191
0.25182296
0.25179048
0.25168689
0.25141535
0.25104906
0.25054933
0.24997978
0.24929724
0.24856066
0.24773533
0.24687765
0.24595328
0.24502279
0.24404199
0.24308307
0.24208387
0.24113247
0.24014619
0.23922783
0.23827822
0.23740795
0.23651178
0.23569539
0.23486374
0.23410048
0.23333905
0.23262615
0.23193463
0.23127155
0.23064351
0.23007621
0.22965876
0.2292985
0.22907907
0.22890822
0.2288699
0.2288703
0.22901626
0.22913094
0.22942953
0.22972608
0.23009053
0.23056806
0.23099776
0.23163493
0.23212429
0.23286293
0.23337548
0.23418315
0.25743315
0.25434784
0.25188051
0.24999381
0.24863219
0.24770351
0.24718662
0.24692311
0.24688442
0.24699866
0.24728843
0.24769392
0.24818889
0.24876803
0.24941181
0.25011961
0.25087434
0.25167613
0.25250807
0.25336818
0.25423923
0.25511667
0.25598136
0.25682584
0.25762764
0.2583787
0.25905955
0.25966751
0.26018344
0.26058933
0.26083924
0.26092257
0.26091518
0.26084706
0.26065485
0.26026917
0.25977674
0.25914579
0.25842813
0.25759018
0.2566948
0.25569921
0.25468022
0.25358076
0.25249144
0.25134054
0.25022731
0.24907122
0.24797031
0.24684577
0.24578295
0.24471512
0.24370756
0.24270967
0.24176815
0.24084363
0.23997357
0.23912038
0.23832195
0.23753665
0.23680633
0.23608441
0.23546073
0.23494621
0.23453202
0.23421241
0.233989
0.23384644
0.23379456
0.23383421
0.23389046
0.23409096
0.23431456
0.23458054
0.23498715
0.23531577
0.23587407
0.23626026
0.23694138
0.23738327
0.23815706
0.26886246
0.26544113
0.26261805
0.26040279
0.25866701
0.25744671
0.25662466
0.25600755
0.25566315
0.25556769
0.25558773
0.25577915
0.25610775
0.25654743
0.25709262
0.25772446
0.2584408
0.25922366
0.26006931
0.26096156
0.26188901
0.26284132
0.26379557
0.26474463
0.26566072
0.26653426
0.26733952
0.2680734
0.26870863
0.26923461
0.26960666
0.26980209
0.26982539
0.26979488
0.26967208
0.26934396
0.26883801
0.26821604
0.26743701
0.2665712
0.26557054
0.26451585
0.26335428
0.26217089
0.26091167
0.25965799
0.2583591
0.25708703
0.25579542
0.25454741
0.25329596
0.25210328
0.25091294
0.24979524
0.24867854
0.24764343
0.24660779
0.24565305
0.24470227
0.24382046
0.24295449
0.24213818
0.24135172
0.24063779
0.24006484
0.23955458
0.23917721
0.23885598
0.23865293
0.2385013
0.23845498
0.23845523
0.23854576
0.2387046
0.23886446
0.23919705
0.23942434
0.2398965
0.24018764
0.24076959
0.24112064
0.24178174
0.28139265
0.27753289
0.27428367
0.27161916
0.26942992
0.26778823
0.26652771
0.26551993
0.26477686
0.26428892
0.26402455
0.26396716
0.26402796
0.2642734
0.26465947
0.26516661
0.26579218
0.26651507
0.26732934
0.26821889
0.26916699
0.27016375
0.27118198
0.27221253
0.27322613
0.27420617
0.27513351
0.27598405
0.27674973
0.27739586
0.27790088
0.27822047
0.27834308
0.27834267
0.27827194
0.27804225
0.27758947
0.27695053
0.27618726
0.27525964
0.27423519
0.27307801
0.27185644
0.27053841
0.26918967
0.267779
0.26637004
0.26492711
0.26351511
0.26208857
0.26071669
0.25934265
0.258039
0.25674186
0.25552112
0.25431395
0.25318057
0.25206752
0.25102144
0.24999953
0.24903847
0.24809988
0.24722035
0.2463557
0.24559058
0.24492607
0.24436457
0.24388847
0.24351108
0.24320679
0.24299055
0.24284532
0.24276673
0.24276206
0.24283305
0.2429014
0.24313552
0.24327501
0.2436326
0.24383994
0.24430401
0.24456474
0.24511552
0.29018572
0.28647725
0.28328965
0.28062714
0.2784494
0.27667507
0.27521387
0.27403449
0.27313532
0.27249472
0.27209387
0.27190616
0.27189865
0.27205612
0.27240014
0.27289321
0.27351506
0.27425703
0.27510417
0.2760347
0.27703964
0.27808871
0.27916998
0.28025541
0.28132214
0.28235267
0.2833141
0.28419796
0.28496417
0.2855936
0.28604465
0.28628336
0.2863368
0.28630546
0.2861676
0.28577154
0.28517344
0.28438355
0.28345296
0.28235834
0.28115564
0.27982625
0.27842861
0.27694285
0.27543035
0.27386432
0.27230922
0.27072911
0.26918908
0.26764662
0.2661627
0.26469314
0.26329166
0.26191436
0.26061015
0.25933189
0.25813043
0.25695082
0.25584816
0.25476389
0.25375011
0.25275807
0.2518233
0.25091631
0.25008861
0.24937609
0.24873981
0.24820669
0.24774809
0.2473753
0.24707706
0.24684733
0.24669373
0.24658895
0.24656506
0.24657371
0.24667463
0.24675468
0.24698418
0.24712802
0.24746503
0.24766158
0.24809121
0.29856229
0.29490554
0.29176189
0.28907414
0.28679471
0.28486624
0.28326285
0.28194729
0.28095085
0.28018253
0.27968471
0.27942973
0.27938864
0.27949648
0.27982469
0.28031777
0.28095016
0.28171591
0.28259162
0.28356042
0.2846024
0.28569651
0.28681299
0.28793876
0.28903205
0.29008184
0.29105358
0.29191996
0.29265219
0.2932073
0.29354649
0.29367082
0.29366508
0.29356811
0.29325902
0.29265559
0.29187257
0.29089157
0.28975943
0.28846485
0.28706191
0.28553906
0.28395607
0.28229641
0.28062216
0.27891077
0.27722144
0.2755276
0.27388133
0.27225364
0.27068979
0.2691565
0.26769715
0.2662708
0.26492331
0.2636069
0.2623677
0.26115886
0.26001914
0.25891106
0.25786233
0.25684287
0.25587853
0.25493513
0.25408009
0.25331288
0.25263707
0.25204197
0.25152656
0.25109225
0.25072011
0.25043023
0.25019042
0.25002526
0.2499084
0.24985114
0.24985601
0.24988247
0.25000126
0.25009153
0.25032207
0.25046638
0.2507904
0.30587881
0.30235557
0.29927735
0.29656487
0.29424156
0.29226812
0.29060986
0.28925647
0.28819466
0.28743186
0.28689376
0.28662237
0.28657626
0.2866795
0.28701763
0.28751685
0.28816698
0.28894329
0.2898406
0.29082541
0.29188602
0.29299238
0.29411827
0.29523887
0.29632686
0.29734627
0.29828134
0.29907575
0.29970659
0.3001251
0.30030859
0.30032083
0.30024916
0.29999268
0.29941305
0.29860126
0.2975982
0.29639443
0.29503898
0.29352584
0.29191215
0.29019114
0.2884229
0.28659777
0.28477266
0.28293443
0.281133
0.27935038
0.27763025
0.27594699
0.27434165
0.27277976
0.2713013
0.26986674
0.26851209
0.26719965
0.26595857
0.26475577
0.26361681
0.26250871
0.26146066
0.26043528
0.25946632
0.25851532
0.25763957
0.25685239
0.25613702
0.25550661
0.25494584
0.25445635
0.25404021
0.25367983
0.25339227
0.25315388
0.25297764
0.25285418
0.25277578
0.25275636
0.25278354
0.25282797
0.25296367
0.25306058
0.25328835
0.31590537
0.31218096
0.30881228
0.30584861
0.3032246
0.30096307
0.29903052
0.29740913
0.29607252
0.29505897
0.29428027
0.29378109
0.29352899
0.29348906
0.293601
0.29393835
0.29443842
0.29508302
0.29585753
0.29674202
0.29771889
0.29875563
0.29984078
0.30093079
0.30201109
0.30304627
0.30400192
0.30484614
0.30553529
0.30601491
0.30627435
0.30630884
0.30626411
0.30607378
0.30552635
0.30473758
0.3037103
0.3024858
0.30105973
0.29948358
0.29775721
0.29593805
0.29402715
0.2920814
0.29009996
0.28813453
0.28617876
0.2842783
0.28241774
0.28063792
0.27891387
0.27728158
0.27571034
0.27422961
0.27280786
0.2714685
0.27018019
0.2689649
0.26778931
0.26667795
0.26559625
0.26456952
0.26356663
0.26261066
0.26167335
0.26080386
0.26000648
0.2592823
0.25862348
0.25803459
0.25751065
0.25704595
0.25664775
0.25630068
0.25601325
0.25578016
0.25558981
0.25546151
0.25536525
0.25532386
0.25532388
0.25536764
0.25541975
0.25555803
0.32553963
0.32164879
0.31811468
0.31491075
0.31207642
0.30955183
0.30736327
0.30548165
0.30389393
0.30259631
0.30157171
0.30083705
0.30031204
0.30004395
0.29999304
0.30007992
0.30039008
0.30085561
0.3014647
0.30219732
0.30304051
0.30396319
0.3049554
0.30597857
0.30701319
0.30803007
0.30899448
0.30987297
0.3106274
0.31119537
0.31155647
0.31166964
0.31165744
0.31153728
0.31115293
0.31041981
0.30945465
0.30824605
0.30683365
0.30521835
0.30345072
0.30153799
0.29953537
0.29745202
0.29534212
0.29321161
0.29111017
0.28903581
0.28703214
0.28508746
0.2832379
0.28146403
0.27979355
0.27820227
0.27671111
0.2752922
0.27396389
0.27269481
0.2715035
0.27035769
0.26927559
0.26822703
0.2672307
0.26625685
0.26532905
0.26441413
0.2635617
0.26277258
0.26204506
0.26138067
0.26077324
0.26022366
0.25973316
0.2592918
0.25890935
0.2585745
0.25828752
0.25805509
0.25785857
0.25771447
0.25761202
0.25754197
0.25752516
0.25753223
0.25758421
0.33643857
0.33227339
0.32843867
0.32490877
0.32169376
0.31880432
0.31621576
0.31395764
0.31196954
0.31031346
0.30893549
0.30782731
0.30698738
0.30640322
0.30605294
0.30590943
0.30593026
0.30614447
0.3065381
0.30707018
0.30773123
0.30850083
0.30936099
0.31028272
0.31125341
0.31222708
0.31319506
0.31410859
0.31493585
0.31563828
0.31615695
0.31644538
0.3165172
0.31648296
0.31631332
0.31582176
0.31500355
0.31394177
0.31262854
0.31110073
0.30936302
0.30746332
0.30541401
0.30326831
0.30104082
0.29878487
0.29651147
0.29426995
0.29206359
0.28993438
0.28787676
0.28592341
0.28406065
0.28231268
0.28065841
0.27911668
0.27766025
0.27630517
0.27502105
0.27382233
0.27267807
0.27160329
0.27056639
0.26958592
0.2686297
0.26771914
0.26682419
0.26598492
0.26520374
0.26447925
0.26380761
0.2631916
0.262625
0.26210833
0.26164268
0.2612216
0.26084928
0.26052337
0.26023705
0.25999961
0.25980095
0.25963946
0.25952709
0.25944035
0.25939181
0.25938628
0.35085676
0.34616048
0.34173328
0.33755714
0.33366227
0.330063
0.32678477
0.32381666
0.32119987
0.31888654
0.31692095
0.31526671
0.31391013
0.31284325
0.31205108
0.31152426
0.31119641
0.31112624
0.31117861
0.31145429
0.31188305
0.31245798
0.31314707
0.31394465
0.31481873
0.31574664
0.31670385
0.31765735
0.31857447
0.31942163
0.32015961
0.32072331
0.32108827
0.32120436
0.32119241
0.32106866
0.3206675
0.31989323
0.31886271
0.3175659
0.31603327
0.31427022
0.31231956
0.31019618
0.30795059
0.30560181
0.30320279
0.30077102
0.2983566
0.29597093
0.2936568
0.29141674
0.28928433
0.28725198
0.28534473
0.28354556
0.28187259
0.28030203
0.2788471
0.27747991
0.27621192
0.27501238
0.27389409
0.27282513
0.27182019
0.27084881
0.2699275
0.26902675
0.26818466
0.26739748
0.26666545
0.26598402
0.26535158
0.2647674
0.26422899
0.26373369
0.26328424
0.26287605
0.2625091
0.26218697
0.26190044
0.26165631
0.26145318
0.26128148
0.26115109
0.2610569
0.26098398
0.42002651
0.42756579
0.43510924
0.44270759
0.45011888
0.45742642
0.46443481
0.47091587
0.47686882
0.482211
0.48697558
0.49109735
0.49458591
0.49750641
0.49977744
0.50152143
0.50270794
0.50336597
0.50345552
0.50328424
0.50257098
0.50094649
0.49874627
0.49606288
0.49284553
0.48950993
0.48606893
0.48249532
0.47888399
0.47514316
0.47129115
0.46740673
0.46349507
0.45968762
0.45604337
0.45255652
0.44926627
0.44628297
0.44354671
0.44072445
0.43763391
0.43427585
0.43065208
0.42677508
0.42261541
0.41821568
0.41354593
0.40864356
0.40353803
0.39821677
0.39279301
0.38721359
0.38162715
0.37600214
0.37044475
0.36500215
0.35965475
0.35449575
0.3495385
0.3448523
0.34047179
0.33643069
0.33275518
0.32946966
0.32656209
0.32404796
0.32188517
0.32010883
0.31867009
0.31753949
0.31673038
0.31615436
0.31586484
0.31580485
0.31587788
0.31619324
0.31666765
0.31729587
0.31804118
0.31890053
0.31983746
0.32082886
0.32184991
0.32286489
0.32383876
0.32473818
0.32552024
0.326131
0.32651776
0.32666658
0.32665965
0.32653185
0.32610746
0.32528495
0.32416751
0.32277284
0.321101
0.31918709
0.31704495
0.31472246
0.31224243
0.30966002
0.30700109
0.30432155
0.30164377
0.29901797
0.29645766
0.29400342
0.29165678
0.28944767
0.28736546
0.28543059
0.28362254
0.28195486
0.28040042
0.27896902
0.27763008
0.27639253
0.27522468
0.27413719
0.27309812
0.272122
0.27117684
0.27029842
0.26948159
0.2687213
0.26801345
0.26735537
0.26674299
0.26617621
0.26565188
0.26516755
0.26472573
0.26432249
0.26395794
0.26363412
0.26334709
0.26309588
0.26288582
0.26270645
0.26255902
0.26245138
0.43072792
0.43802525
0.44514499
0.45200036
0.45856338
0.46473813
0.47054627
0.47589208
0.48077393
0.48517773
0.4891089
0.49250371
0.49548868
0.4979803
0.49997599
0.50143182
0.50228795
0.50240961
0.50225257
0.50158334