/*--------------------------------*- C++ -*----------------------------------*\
| =========                 |                                                 |
| \\      /  F ield         | OpenFOAM: The Open Source CFD Toolbox           |
|  \\    /   O peration     | Version:  2.4.0                                 |
|   \\  /    A nd           | Web:      www.OpenFOAM.org                      |
|    \\/     M anipulation  |                                                 |
\*---------------------------------------------------------------------------*/
FoamFile
{
    version     2.0;
    format      ascii;
    class       volVectorField;
    location    "20";
    object      U;
}
// * * * * * * * * * * * * * * * * * * * * * * * * * * * * * * * * * * * * * //

dimensions      [0 1 -1 0 0 0 0];

internalField   nonuniform List<vector> 
19650
(
(0.67652416 -0.063797797 5.2943726e-21)
(0.67562725 -0.058563532 -7.9152181e-21)
(0.67479462 -0.05350735 -1.1602772e-20)
(0.67402111 -0.048623147 1.0462591e-20)
(0.67330189 -0.043904197 -1.5424189e-20)
(0.67263246 -0.039343214 6.7681771e-21)
(0.67200865 -0.034932403 1.2865357e-21)
(0.67142669 -0.030663523 6.812106e-21)
(0.67088315 -0.026527958 -5.9431219e-22)
(0.67037499 -0.022516781 6.8409035e-21)
(0.66989953 -0.018620821 -1.374706e-20)
(0.66945449 -0.014830743 -5.97861e-22)
(0.66903791 -0.011137113 -2.5019471e-21)
(0.66864819 -0.007530465 1.8204707e-20)
(0.66828405 -0.0040013723 -6.0179713e-22)
(0.66794453 -0.00054049934 1.6339112e-20)
(0.66762926 0.0028612917 -4.4009837e-20)
(0.66733727 0.0062129279 1.8208196e-20)
(0.66706878 0.0095232045 -5.9668426e-22)
(0.6668239 0.012800533 1.8132333e-20)
(0.6666028 0.016053059 8.7399775e-21)
(0.66640599 0.019288634 -2.30485e-20)
(0.66623409 0.022514787 -1.3677161e-20)
(0.66608791 0.025738719 8.70379e-21)
(0.66596834 0.028967304 1.9820999e-20)
(0.66587645 0.03220709 -2.4712774e-20)
(0.66581338 0.035464309 1.9727323e-20)
(0.66578041 0.038744884 1.9650745e-20)
(0.66577892 0.042054461 -2.4536061e-20)
(0.66581038 0.045398406 8.5472612e-21)
(0.66587639 0.048781839 -3.888098e-20)
(0.66597865 0.052209647 4.485438e-20)
(0.66611899 0.055686509 8.4347138e-21)
(0.66629935 0.059216921 -6.2032899e-20)
(0.66652184 0.062805204 -4.9770793e-22)
(0.66678868 0.066455529 8.4513669e-21)
(0.6671023 0.070171944 4.4015823e-20)
(0.66746529 0.073958369 8.2513306e-21)
(0.66788042 0.077818622 -6.9546631e-20)
(0.6683507 0.081756427 8.3505012e-21)
(0.66887937 0.085775418 4.6750921e-20)
(0.66946991 0.089879149 -4.7514582e-20)
(0.6701261 0.094071098 4.2720883e-20)
(0.67085191 0.098354657 7.9963628e-21)
(0.67165159 0.10273313 -1.5181757e-20)
(0.67254259 0.10720216 5.1555596e-20)
(0.67358123 0.11174153 -2.5255438e-21)
(0.6748335 0.11634472 -9.7996862e-20)
(0.67632259 0.12100073 4.6754643e-20)
(0.6780456 0.12569708 8.1595095e-20)
(0.68001047 0.13042106 -7.2188369e-20)
(0.68222626 0.13515916 1.4922451e-19)
(0.68469948 0.13989707 1.1525165e-19)
(0.68743441 0.14461939 1.1668245e-19)
(0.69043788 0.14930684 -1.2933544e-19)
(0.69370905 0.15394534 2.7480549e-19)
(0.69725095 0.15851872 4.0264682e-20)
(0.70106388 0.16301105 -1.6691533e-19)
(0.7051464 0.1674063 6.0265879e-20)
(0.70949569 0.17168764 2.63681e-19)
(0.71410865 0.17584028 8.3990492e-20)
(0.71897979 0.17985367 4.4512996e-20)
(0.72410051 0.18371835 9.7766458e-20)
(0.72946271 0.18742559 -1.2730242e-19)
(0.73505863 0.19096619 -3.4157632e-20)
(0.67976453 -0.062838909 -8.0656076e-21)
(0.67877006 -0.057684029 -1.7774665e-22)
(0.67785012 -0.052701096 6.1239742e-21)
(0.67699923 -0.047884348 6.1523202e-21)
(0.6762122 -0.043227434 -1.0583255e-20)
(0.67548418 -0.038723461 2.8689787e-20)
(0.67481061 -0.034365047 -2.2251867e-20)
(0.67418731 -0.030144379 -1.0675392e-20)
(0.67361046 -0.026053277 6.2341331e-21)
(0.67307661 -0.022083252 5.5746961e-21)
(0.67258267 -0.018225567 6.2645549e-21)
(0.67212593 -0.014471317 6.2766429e-21)
(0.67170406 -0.010811482 -4.3242575e-21)
(0.67131506 -0.007236995 -1.7577509e-22)
(0.67095724 -0.0037388094 -2.2622921e-20)
(0.6706294 -0.00030796368 1.881771e-20)
(0.67033063 0.003064324 -4.3398422e-21)
(0.6700598 0.0063867221 -1.2637944e-20)
(0.66981681 0.0096677271 6.2873326e-21)
(0.66960147 0.012915467 -4.3120682e-21)
(0.66941375 0.016137852 -1.6912617e-22)
(0.66925393 0.019342522 1.1994751e-20)
(0.66912248 0.022536814 -2.2360139e-20)
(0.66902001 0.025727753 3.4757302e-20)
(0.66894732 0.028922054 -1.6363751e-20)
(0.66890534 0.032126118 1.1877127e-20)
(0.66889517 0.035346036 -1.6277931e-20)
(0.668918 0.038587602 1.2484243e-20)
(0.66897518 0.041856331 -2.2688706e-20)
(0.66906817 0.045157463 6.1393091e-21)
(0.66919855 0.048495986 1.8183749e-20)
(0.66936804 0.051876653 6.0585835e-21)
(0.66957847 0.055304002 -5.0188173e-20)
(0.66983182 0.058782376 6.1041823e-21)
(0.67013022 0.062315932 1.7967774e-20)
(0.67047593 0.065908667 6.0072687e-21)
(0.6708714 0.069564434 -4.7317486e-21)
(0.67131924 0.073286949 2.7057149e-20)
(0.67182227 0.077079802 -1.5156977e-20)
(0.6723835 0.080946474 2.6746301e-20)
(0.67300617 0.084890339 -3.6258594e-20)
(0.67369377 0.088914669 -1.5452814e-20)
(0.67445004 0.093022638 5.8535537e-21)
(0.67527895 0.097217319 2.6181395e-20)
(0.67618475 0.10150167 -2.775091e-20)
(0.67718422 0.10587036 -2.7832057e-20)
(0.67833041 0.11030118 4.0384463e-20)
(0.67968579 0.11478724 9.0099115e-21)
(0.68127217 0.11931746 6.0689501e-20)
(0.68308642 0.12387942 -1.9180178e-20)
(0.68513564 0.12846055 -1.4331472e-20)
(0.687428 0.13304757 -1.0731981e-19)
(0.68996924 0.13762649 -1.2500231e-19)
(0.69276292 0.14218236 -3.2660048e-20)
(0.69581512 0.14669611 -5.5222329e-20)
(0.69912437 0.15115473 -1.1290717e-19)
(0.702693 0.15554272 4.4135051e-20)
(0.70652074 0.1598448 -4.8079012e-20)
(0.71060564 0.16404564 -1.2723066e-20)
(0.71494438 0.16812921 9.2605807e-20)
(0.71953343 0.17208145 -2.4362784e-19)
(0.72436702 0.1758925 9.0589221e-20)
(0.7294365 0.17955356 5.1867393e-20)
(0.73473373 0.18305651 2.0462122e-19)
(0.74025084 0.18639283 1.0048894e-19)
(0.68296536 -0.061733805 -1.4680678e-20)
(0.68187997 -0.056672256 5.9364618e-21)
(0.68087839 -0.051776003 -1.2407567e-20)
(0.67995491 -0.047039616 5.3633328e-21)
(0.67910407 -0.042457104 -9.1405819e-21)
(0.67832074 -0.038021961 5.4011178e-21)
(0.67760006 -0.033727214 4.8037049e-21)
(0.67693754 -0.029565477 6.066569e-21)
(0.67632903 -0.025529005 5.462729e-21)
(0.67577074 -0.021609756 5.4783641e-21)
(0.67525925 -0.01779944 1.3200091e-22)
(0.67479149 -0.014089596 -1.8688887e-20)
(0.6743648 -0.01047164 2.0316222e-20)
(0.67397683 -0.0069369295 -1.2733503e-20)
(0.67362555 -0.003476823 8.958912e-21)
(0.67330962 -8.2754093e-05 -9.334088e-21)
(0.67302742 0.0032536721 4.9001199e-21)
(0.67277786 0.006540831 -1.2095851e-20)
(0.67256053 0.0097868533 8.9338735e-21)
(0.67237491 0.012999567 4.8763671e-21)
(0.6722208 0.016186621 -1.2027777e-20)
(0.67209825 0.019355404 2.3595193e-20)
(0.67200755 0.022513025 -1.260914e-20)
(0.67194914 0.0256663 8.2169496e-21)
(0.6719237 0.02882175 6.0561151e-21)
(0.67193204 0.031985596 4.1907633e-20)
(0.67197514 0.035163763 -2.831104e-20)
(0.67205415 0.038361884 -6.6606827e-20)
(0.67217034 0.041585323 4.2245993e-20)
(0.67232514 0.044839169 8.0805791e-21)
(0.67252011 0.048128263 5.3340845e-21)
(0.67275694 0.051457204 -9.0023163e-21)
(0.67303746 0.054830377 -5.0626214e-20)
(0.67336366 0.058251961 8.0713036e-21)
(0.67373766 0.061725941 8.0273044e-21)
(0.67416174 0.065256132 4.1181916e-20)
(0.67463836 0.068846192 -3.0499706e-20)
(0.67517014 0.072499627 4.077595e-20)
(0.67575988 0.076219803 5.1024915e-21)
(0.67641061 0.080009959 -6.0292691e-20)
(0.67712555 0.083873212 7.8291549e-21)
(0.67790815 0.087812558 2.6204071e-21)
(0.67876214 0.091830877 5.154457e-21)
(0.67969141 0.09593093 4.1909263e-20)
(0.68070025 0.10011535 -2.2839471e-20)
(0.6818047 0.10437786 -1.8568244e-21)
(0.68305464 0.10869451 -8.4223033e-21)
(0.68450903 0.11305804 -6.678354e-20)
(0.68618829 0.11745737 1.3739366e-20)
(0.68808905 0.1218802 -1.4426353e-19)
(0.6902176 0.12631414 1.5577324e-19)
(0.69258122 0.13074618 5.8337106e-20)
(0.6951849 0.13516268 -3.4391831e-20)
(0.69803152 0.13954913 6.9990183e-20)
(0.7011264 0.14388682 3.8999477e-20)
(0.70446757 0.14816382 -7.7060679e-21)
(0.70805662 0.15236529 -8.2843155e-20)
(0.71189272 0.15647659 8.267127e-20)
(0.71597339 0.16048315 -2.6770794e-19)
(0.72029487 0.16436976 -6.9097502e-20)
(0.72485322 0.16812316 1.3582524e-19)
(0.72964243 0.17173418 -2.8498073e-20)
(0.73465385 0.17519471 2.3827795e-21)
(0.73987932 0.17849728 -1.1768864e-19)
(0.74531092 0.18163405 -6.5161645e-20)
(0.68614294 -0.060481756 6.0367006e-21)
(0.68497357 -0.055527102 -1.8428204e-20)
(0.68389627 -0.050730654 1.0652292e-20)
(0.68290516 -0.0460873 -7.1669963e-21)
(0.68199461 -0.041591394 -7.200557e-21)
(0.68115927 -0.037236809 1.7260517e-20)
(0.68039408 -0.033016973 1.8924926e-20)
(0.67969432 -0.02892492 -2.6931814e-20)
(0.67905558 -0.024953343 2.5567824e-20)
(0.67847382 -0.021094646 -7.3649071e-21)
(0.67794534 -0.017340995 -1.5411772e-20)
(0.67746682 -0.013684381 -8.9376455e-21)
(0.67703529 -0.010116673 8.8679682e-22)
(0.67664814 -0.0066296725 1.0962241e-20)
(0.67630303 -0.0032151686 -2.7315983e-20)
(0.67599856 0.00013502808 1.7711565e-20)
(0.67573232 0.0034288844 1.9136472e-20)
(0.67550351 0.0066744025 -7.3480509e-21)
(0.67531125 0.0098793348 -8.950651e-21)
(0.67515481 0.01305121 1.9122263e-20)
(0.67503378 0.016197376 -3.3701191e-20)
(0.67494802 0.019324938 1.7534021e-20)
(0.67489761 0.022440743 2.7072426e-20)
(0.67488287 0.025551365 -1.5417124e-20)
(0.6749043 0.0286631 -2.6886521e-20)
(0.67496261 0.031781959 1.8884003e-20)
(0.67505866 0.034913671 -2.3109557e-21)
(0.67519352 0.038063685 1.2293593e-20)
(0.67536839 0.041237189 2.5125865e-20)
(0.67558463 0.044439099 -4.1062602e-20)
(0.67584375 0.047674089 -1.8343192e-20)
(0.67614741 0.050946591 3.6213366e-20)
(0.67649742 0.05426082 -3.259697e-20)
(0.67689573 0.05762078 -8.541013e-21)
(0.67734446 0.061030277 2.4661756e-20)
(0.67784587 0.064492936 1.8212605e-20)
(0.6784024 0.068012214 2.4317369e-20)
(0.67901665 0.071591408 -6.464646e-20)
(0.67969141 0.075233659 1.8017678e-20)
(0.68042968 0.078941968 -1.4462239e-20)
(0.68123463 0.082719197 -2.511869e-20)
(0.68210969 0.086568074 2.3882295e-20)
(0.68305851 0.090491191 1.7596732e-20)
(0.68408491 0.094491006 -1.4095272e-20)
(0.68519315 0.098569833 2.3282678e-20)
(0.68639858 0.10272054 1.0091039e-20)
(0.68774794 0.10691761 -1.697327e-20)
(0.68929672 0.11115349 1.8970528e-20)
(0.69106395 0.11541716 -6.9357665e-21)
(0.69304602 0.11969647 6.3464989e-20)
(0.69524843 0.12397926 -6.817371e-20)
(0.69767757 0.12825285 3.049813e-20)
(0.70033765 0.13250396 -9.1899644e-20)
(0.70323108 0.13671842 1.834556e-21)
(0.70636249 0.14087787 1.0581069e-19)
(0.70972921 0.14497183 6.4017149e-20)
(0.71333208 0.14898616 6.0397394e-21)
(0.71716977 0.1529068 1.3474762e-20)
(0.72123942 0.15671992 8.0552293e-20)
(0.72553684 0.16041118 -1.5902126e-19)
(0.73005772 0.16396808 6.029087e-20)
(0.73479585 0.16738219 -4.4206881e-20)
(0.7397426 0.1706461 -1.2429392e-19)
(0.74488985 0.17375299 5.2422243e-20)
(0.75022965 0.17669573 -4.8253218e-20)
(0.68931425 -0.059083553 1.6094395e-21)
(0.68806798 -0.054248809 -3.3218329e-21)
(0.68692095 -0.049564816 3.1005636e-21)
(0.6858672 -0.045026763 1.4464935e-20)
(0.68490099 -0.040629343 -2.0672765e-20)
(0.68401687 -0.036366792 1.0183172e-20)
(0.68320963 -0.032232932 -1.3680089e-20)
(0.6824744 -0.028221209 1.7878064e-20)
(0.68180661 -0.024324751 -3.3909005e-21)
(0.68120204 -0.020536407 -1.4945513e-20)
(0.68065678 -0.016848798 -1.382125e-20)
(0.68016732 -0.013254376 2.519261e-20)
(0.67973047 -0.0097454684 -1.775819e-20)
(0.6793434 -0.0063143342 3.2526103e-20)
(0.67900354 -0.0029532089 -7.337309e-21)
(0.67870925 0.00034569007 4.6887075e-22)
(0.678458 0.0035899216 -1.8975654e-20)
(0.67824872 0.0067870375 1.1542133e-20)
(0.67808029 0.0099444269 -7.3107995e-21)
(0.67795179 0.013069291 -1.8261251e-20)
(0.6778626 0.016168646 1.8016998e-20)
(0.67781242 0.019249286 4.3813338e-20)
(0.67780115 0.022317768 -2.0953329e-20)
(0.67782894 0.025380396 -9.9326179e-23)
(0.67789616 0.028443214 -5.028206e-20)
(0.67800338 0.031511997 3.9608211e-20)
(0.67815137 0.034592253 2.1557174e-20)
(0.67834107 0.037689225 -2.1770433e-20)
(0.67857359 0.040807898 4.3006713e-20)
(0.67885024 0.043953001 -3.1898228e-20)
(0.67917244 0.047129019 -5.9514218e-20)
(0.67954181 0.050340204 2.1308933e-20)
(0.67996009 0.053590584 2.7546586e-20)
(0.68042919 0.056883979 2.1030295e-20)
(0.6809512 0.060224006 -2.7555237e-20)
(0.68152833 0.063614093 -1.0050277e-20)
(0.68216297 0.067057495 -6.2926381e-21)
(0.6828577 0.070557292 2.6925151e-20)
(0.68361527 0.074116404 -1.3571094e-20)
(0.68443859 0.077737595 9.6434062e-21)
(0.68533081 0.081423477 3.0992348e-20)
(0.68629526 0.085176514 -6.7141293e-20)
(0.68733552 0.088999021 3.6781595e-20)
(0.68845532 0.09289316 1.9845523e-20)
(0.68965885 0.096860935 -3.5177176e-20)
(0.69096072 0.10089444 -1.3017662e-20)
(0.69240467 0.10496678 -4.5641356e-21)
(0.69404272 0.1090702 -4.2476498e-20)
(0.69589249 0.11319375 5.6903053e-20)
(0.69795019 0.11732551 -7.2898571e-20)
(0.70022053 0.12145363 1.0672913e-19)
(0.70270902 0.12556581 -1.791754e-20)
(0.70541889 0.1296493 9.3991646e-20)
(0.70835339 0.1336895 -9.312549e-20)
(0.71151418 0.13766996 -8.6561158e-20)
(0.71489992 0.14158033 -1.1025007e-20)
(0.71851001 0.1454076 2.3937845e-19)
(0.72234255 0.14913834 8.793643e-20)
(0.7263944 0.1527595 -9.4395124e-20)
(0.73066105 0.15625764 9.1384545e-20)
(0.7351378 0.15962109 -1.1114177e-19)
(0.73981833 0.16284213 3.5542376e-21)
(0.74469403 0.16591406 -5.94854e-20)
(0.7497569 0.16883073 -1.5691774e-19)
(0.75499904 0.17158569 7.3792402e-20)
(0.69249659 -0.057539171 -1.9057655e-20)
(0.69118044 -0.052836729 2.4852829e-20)
(0.68996958 -0.048277296 1.2322936e-20)
(0.68885806 -0.043856353 -2.2387929e-20)
(0.68784012 -0.039568918 1.6141727e-20)
(0.68691026 -0.035409579 -2.6313599e-20)
(0.68606323 -0.031372539 2.0002477e-20)
(0.68529407 -0.027451651 -2.6477564e-20)
(0.68459814 -0.023640465 1.6321126e-20)
(0.68397108 -0.019932274 2.1740973e-20)
(0.68340889 -0.016320151 -1.1127155e-20)
(0.68290791 -0.012797007 1.3898853e-20)
(0.68246481 -0.0093556324 3.4433607e-21)
(0.6820766 -0.005988746 -1.959259e-21)
(0.68174055 -0.0026890346 -4.4065212e-20)
(0.68145484 0.00055083948 3.7605987e-20)
(0.68121681 0.003738012 -2.456268e-21)
(0.68102519 0.0068796174 -3.2199989e-20)
(0.68087869 0.0099826585 1.6473988e-20)
(0.68077619 0.013053973 4.6086467e-20)
(0.68071693 0.016100223 -7.1315466e-20)
(0.68070041 0.019127874 2.555743e-20)
(0.6807264 0.022143167 1.634152e-20)
(0.6807949 0.025152113 -1.1553941e-20)
(0.68090612 0.028160479 -2.2648947e-20)
(0.68106052 0.031173784 3.6907617e-20)
(0.68125873 0.03419729 4.5954238e-21)
(0.68150158 0.037236009 -5.0032228e-20)
(0.6817901 0.040294711 7.5068454e-20)
(0.68212548 0.043377913 -6.9698184e-20)
(0.68250906 0.046489899 2.4476056e-20)
(0.68294239 0.04963472 -1.8895869e-21)
(0.68342713 0.052816209 -1.1207974e-20)
(0.68396513 0.056037991 2.4635487e-20)
(0.68455839 0.059303483 -2.1902945e-20)
(0.68520909 0.062615912 -3.0476821e-20)
(0.68591953 0.065978324 2.4390138e-20)
(0.68669223 0.069393585 3.4776857e-20)
(0.68752986 0.07286439 -3.0096631e-20)
(0.68843527 0.07639327 4.2921012e-20)
(0.68941151 0.079982592 -4.0202765e-20)
(0.69046181 0.083634563 1.8924248e-20)
(0.69158965 0.087351229 2.9829509e-20)
(0.69279863 0.091134466 -1.9800041e-21)
(0.69409285 0.09498598 -5.2673919e-20)
(0.69548618 0.098897169 -6.0301469e-21)
(0.69701941 0.10283999 2.9939059e-20)
(0.69874113 0.10680651 2.3967836e-20)
(0.70066762 0.11078592 -3.1444511e-20)
(0.70279491 0.11476656 3.7253077e-20)
(0.70512702 0.11873689 -8.8497628e-20)
(0.7076687 0.12268504 2.7425352e-20)
(0.71042228 0.12659874 -6.6231086e-20)
(0.71339281 0.13046185 -7.4078734e-20)
(0.71657572 0.13426294 5.6171135e-20)
(0.71997324 0.13799013 -1.0659574e-19)
(0.72358367 0.14163116 -1.0848641e-19)
(0.72740411 0.14517351 -6.7764954e-21)
(0.73143125 0.14860495 1.9436411e-20)
(0.73566028 0.15191297 1.7790508e-19)
(0.74008624 0.15508672 -1.7153228e-19)
(0.7447027 0.15811922 4.7560963e-20)
(0.74950118 0.16100446 1.7067831e-19)
(0.75447378 0.16373694 2.2093951e-19)
(0.7596127 0.16631093 7.7766267e-20)
(0.70245004 -0.075504122 2.1658492e-21)
(0.70056735 -0.070372597 -1.4517354e-20)
(0.6988201 -0.065388138 1.238806e-20)
(0.6972018 -0.06054855 -4.0269633e-21)
(0.6957061 -0.055851077 3.7512635e-21)
(0.69432676 -0.051292445 4.7660927e-21)
(0.69305769 -0.046868881 -4.074228e-21)
(0.69189299 -0.042576147 1.2715909e-20)
(0.69082697 -0.038409572 -4.093043e-21)
(0.68985414 -0.034364088 -7.076873e-21)
(0.68896928 -0.030434267 -7.1477324e-21)
(0.68816743 -0.026614356 -6.1303599e-21)
(0.68744392 -0.022898323 2.6947829e-20)
(0.68679438 -0.019279891 -2.7309385e-20)
(0.68621474 -0.015752582 3.8776281e-21)
(0.68570129 -0.012309764 4.9072666e-21)
(0.6852506 -0.0089446874 -6.1936631e-21)
(0.6848596 -0.005650533 2.7222745e-20)
(0.68452547 -0.0024204455 -7.2707151e-21)
(0.68424625 0.00075245874 -2.7584362e-20)
(0.68401919 0.0038748883 1.6110152e-20)
(0.68384287 0.0069535618 -7.2584911e-21)
(0.68371587 0.0099950875 1.6063483e-20)
(0.68363692 0.013005924 4.9028147e-21)
(0.6836051 0.015992371 -4.2503897e-20)
(0.6836198 0.018960545 4.9134955e-21)
(0.68368061 0.02191636 1.8948288e-20)
(0.6837874 0.024865515 -4.1207454e-20)
(0.68394026 0.027813485 6.4859853e-20)
(0.6841395 0.030765511 -4.2034394e-20)
(0.68438563 0.033726595 -1.0039708e-20)
(0.68467938 0.036701502 3.0645531e-20)
(0.68502164 0.039694765 1.8620125e-20)
(0.68541349 0.042710677 -1.0013571e-20)
(0.6858562 0.045753304 4.7507154e-21)
(0.68635118 0.048826485 -4.1205713e-20)
(0.68690003 0.051933848 3.0116304e-20)
(0.68750449 0.055078809 3.474125e-20)
(0.68816648 0.058264579 -3.7884319e-20)
(0.68888807 0.061494176 4.6726111e-21)
(0.6896715 0.064770436 -2.8768277e-20)
(0.69051917 0.068096006 4.7160315e-21)
(0.69143366 0.071473358 1.7884163e-20)
(0.69241772 0.074904792 3.632183e-21)
(0.69347429 0.078392436 4.532739e-21)
(0.69460647 0.081938246 -1.4026452e-20)
(0.69581759 0.085544011 -6.5307556e-21)
(0.69711113 0.089211332 4.5565075e-20)
(0.69849102 0.092941629 -4.0815189e-20)
(0.69997037 0.096725688 2.3447434e-20)
(0.70158714 0.10053452 -1.5138741e-21)
(0.70338652 0.10436005 -2.3843933e-20)
(0.70538345 0.10819167 8.9849718e-20)
(0.7075738 0.11201799 -3.227569e-20)
(0.70996088 0.11582781 2.6724071e-20)
(0.71254869 0.11960964 1.3104983e-19)
(0.71533893 0.12335167 -4.3366428e-21)
(0.71833586 0.12703827 6.4736455e-20)
(0.72153452 0.13065973 5.8098581e-20)
(0.72493668 0.13420453 2.0189181e-20)
(0.72854027 0.13766088 -3.6395391e-21)
(0.73234181 0.14101717 -1.498475e-20)
(0.73633765 0.14426202 5.6334593e-20)
(0.74052269 0.14738379 -1.6216775e-19)
(0.74489171 0.15037248 2.0267281e-19)
(0.74943816 0.15322181 1.1384052e-19)
(0.75415369 0.15592647 -1.3584077e-19)
(0.75903054 0.15848157 -1.8265301e-19)
(0.76406108 0.16088206 -2.6677033e-20)
(0.71272465 -0.088636202 2.057819e-22)
(0.71031614 -0.083272313 -8.8892953e-21)
(0.70806562 -0.078049425 1.0124057e-20)
(0.70596663 -0.072967214 1.0234419e-20)
(0.70401275 -0.068024748 -1.9087979e-20)
(0.70219761 -0.063220524 1.9655051e-21)
(0.70051491 -0.058552483 -1.3742318e-20)
(0.69895843 -0.05401804 1.3654678e-20)
(0.6975221 -0.049614126 2.0295145e-20)
(0.69619996 -0.045337205 -3.2263998e-20)
(0.69498624 -0.041183313 1.2349941e-20)
(0.69387536 -0.037148078 -1.1206528e-20)
(0.69286195 -0.033226766 1.3957348e-20)
(0.69194085 -0.029414307 -2.3256584e-20)
(0.69110719 -0.025705331 2.0716349e-20)
(0.69035634 -0.022094212 1.4099768e-20)
(0.68968396 -0.018575096 -3.6390046e-20)
(0.68908601 -0.015141943 2.4243254e-20)
(0.68855874 -0.011788569 1.1300466e-20)
(0.68809875 -0.0085086826 2.3879579e-20)
(0.68770291 -0.0052959225 -2.3135496e-20)
(0.68736835 -0.0021438917 1.0875039e-20)
(0.68709306 0.00095384566 -6.4517708e-20)
(0.68687423 0.0040035724 5.1672082e-20)
(0.68671035 0.0070115979 2.5330268e-20)
(0.68659991 0.0099841322 -6.5238237e-20)
(0.68654152 0.012927244 1.1311489e-20)
(0.68653415 0.015846859 2.4269416e-20)
(0.68657705 0.018748734 1.0771092e-20)
(0.68666971 0.021638445 -2.2946702e-20)
(0.68681185 0.024521366 1.0735436e-20)
(0.68700343 0.027402665 -2.2827163e-20)
(0.68724464 0.030287292 1.0699741e-20)
(0.68753587 0.033179976 -1.6520118e-20)
(0.68787771 0.03608522 6.4197332e-20)
(0.68827093 0.039007309 -3.6284329e-20)
(0.68871649 0.041950298 2.4131644e-20)
(0.68921554 0.044918024 1.0431832e-20)
(0.68976938 0.047914105 -6.2147475e-20)
(0.69037949 0.050941951 1.0018742e-20)
(0.69104749 0.054004763 2.3790493e-20)
(0.6917752 0.057105541 -3.5365132e-20)
(0.69256456 0.060247089 2.3606786e-20)
(0.69341771 0.063432027 9.765794e-21)
(0.69433692 0.066662785 -2.169904e-20)
(0.69532464 0.069941613 2.3183461e-20)
(0.6963835 0.073270582 9.985013e-21)
(0.6975163 0.076651588 -5.9677566e-20)
(0.69872599 0.080086348 1.0099255e-20)
(0.70001573 0.083576402 5.9998782e-20)
(0.70138883 0.087123097 -2.140425e-20)
(0.70284902 0.090727583 -3.0236522e-20)
(0.70440863 0.094380126 2.6326692e-21)
(0.70610286 0.098051003 3.3220826e-20)
(0.70797353 0.10173204 -1.2199539e-20)
(0.71003429 0.10541282 -6.5256337e-20)
(0.71228089 0.10908226 4.4926994e-20)
(0.71471597 0.11272953 1.2586244e-20)
(0.71734284 0.11634356 -1.7909525e-19)
(0.72016268 0.11991306 -4.2793244e-20)
(0.72317905 0.12342284 -1.8945702e-19)
(0.72638673 0.12686439 1.364144e-20)
(0.72978686 0.13022712 3.5198841e-20)
(0.73337686 0.13349997 -9.2968394e-20)
(0.73715274 0.13667221 -1.1371134e-19)
(0.74111045 0.1397333 1.2286527e-20)
(0.74524463 0.1426725 5.0265485e-20)
(0.74954983 0.14548062 -1.5020153e-19)
(0.7540195 0.14815204 -5.1508271e-20)
(0.7586455 0.15068211 9.9621075e-20)
(0.76342039 0.15306652 7.0280931e-20)
(0.76833683 0.15530085 1.3860781e-19)
(0.71909561 -0.090540843 4.6256832e-21)
(0.71645532 -0.085270714 4.9531122e-21)
(0.71398067 -0.080132285 2.1761805e-21)
(0.71166544 -0.075125866 -2.8096989e-20)
(0.70950343 -0.070251162 1.1664123e-20)
(0.70748842 -0.065507302 3.1163368e-21)
(0.70561427 -0.060892879 3.1460133e-21)
(0.7038749 -0.056405965 -2.2050967e-20)
(0.7022643 -0.052044138 3.1199678e-21)
(0.70077659 -0.047804526 1.2987161e-20)
(0.69940602 -0.043683823 3.1977954e-21)
(0.698147 -0.039678322 5.2030545e-21)
(0.69699412 -0.035783947 -9.659293e-21)
(0.69594217 -0.03199628 -1.1713263e-20)
(0.69498614 -0.028310597 6.2396623e-21)
(0.69412129 -0.0247219 1.1293328e-20)
(0.69334308 -0.021224951 -2.9911955e-20)
(0.6926473 -0.017814309 1.0316463e-20)
(0.69202995 -0.014484355 4.2849551e-21)
(0.69148737 -0.011229346 1.1402039e-20)
(0.69101616 -0.0080434334 5.3248594e-21)
(0.69061324 -0.0049207145 1.1449892e-20)
(0.69027575 -0.0018552554 1.2494493e-20)
(0.69000169 0.0011589231 -5.8941604e-21)
(0.68978821 0.0041276884 1.4519357e-20)
(0.68963377 0.007056973 -7.3918466e-20)
(0.68953679 0.0099526063 3.3015631e-21)
(0.68949578 0.012820273 1.1424842e-20)
(0.68950964 0.015665529 3.2906699e-21)
(0.68957749 0.01849377 2.0494157e-20)
(0.68969873 0.021310229 5.2784706e-21)
(0.68987297 0.024119952 9.2892712e-21)
(0.69010005 0.026927792 5.2319476e-21)
(0.69038002 0.029738403 1.1220492e-20)
(0.69071315 0.03255623 4.1756853e-21)
(0.6910999 0.035385506 -7.2366484e-20)
(0.69154091 0.038230259 5.2637676e-21)
(0.69203702 0.041094296 1.0180602e-20)
(0.69258922 0.043981217 1.2108209e-20)
(0.6931987 0.046894409 3.1871667e-21)
(0.6938668 0.049837056 1.1971707e-20)
(0.694595 0.052812139 1.0900586e-20)
(0.69538499 0.055822439 4.9975046e-21)
(0.69623857 0.058870541 1.0730689e-20)
(0.69715774 0.061958848 -3.7198433e-20)
(0.69814463 0.065089568 -2.7312387e-20)
(0.69920154 0.06826473 1.2908657e-21)
(0.70033095 0.071486181 1.3527271e-20)
(0.70153549 0.074755589 8.6959815e-21)
(0.70281794 0.078074442 1.0447707e-20)
(0.70418129 0.08144405 4.7838167e-21)
(0.70562861 0.08486553 -3.2643642e-20)
(0.70716341 0.088339805 9.4860838e-21)
(0.70879719 0.091856737 -2.3731583e-20)
(0.7105624 0.095386068 2.8037893e-21)
(0.71249757 0.098919563 4.8840764e-20)
(0.71461507 0.10244699 -6.5436641e-22)
(0.71691058 0.10595762 5.681689e-20)
(0.71938611 0.109441 -3.7011254e-20)
(0.7220443 0.11288647 1.0778466e-19)
(0.72488588 0.11628323 9.407783e-20)
(0.72791347 0.11961677 -3.904174e-20)
(0.7311213 0.12288008 9.2464788e-20)
(0.73450998 0.12606326 -1.051384e-19)
(0.73807655 0.12915598 1.208585e-19)
(0.74181675 0.13214825 9.5691252e-20)
(0.7457264 0.13503033 -6.9018402e-20)
(0.74980011 0.13779236 -4.853525e-20)
(0.75403251 0.14042594 5.1019293e-20)
(0.75841729 0.1429261 -6.1276096e-20)
(0.76294677 0.14528877 -1.3080711e-19)
(0.76761392 0.14751023 7.0932248e-20)
(0.77241183 0.1495867 -7.7220009e-20)
(0.72288382 -0.086789073 3.5324464e-20)
(0.72018938 -0.081758045 -3.5177036e-21)
(0.71766057 -0.076849954 -1.9970804e-20)
(0.71529146 -0.072065095 -3.70554e-21)
(0.71307609 -0.067403194 3.9834434e-22)
(0.71100854 -0.062863439 1.9241251e-20)
(0.70908292 -0.058444512 -6.9441621e-21)
(0.7072934 -0.054144608 -5.1196044e-22)
(0.70563423 -0.049961464 -2.8078414e-21)
(0.70409979 -0.045892396 4.5291624e-22)
(0.70268455 -0.041934318 -3.8304728e-21)
(0.70138317 -0.038083773 -3.8567157e-21)
(0.70019045 -0.034336963 1.437526e-21)
(0.69910138 -0.030689775 2.0031391e-20)
(0.69811117 -0.027137816 -3.8664804e-21)
(0.69721524 -0.023676437 -3.8876893e-21)
(0.69640923 -0.020300774 -4.1249795e-20)
(0.69568906 -0.017005773 5.8692292e-20)
(0.69505087 -0.013786218 -4.5838179e-20)
(0.69449108 -0.01063678 1.8149221e-20)
(0.6940064 -0.0075520353 3.9156548e-20)
(0.69359377 -0.0045265144 -1.8296649e-20)
(0.69325039 -0.0015547264 -4.617679e-20)
(0.69297419 0.0013688701 5.9290815e-20)
(0.69276223 0.0042497505 -6.6137836e-20)
(0.692613 0.0070934834 4.1596946e-20)
(0.69252486 0.0099055258 -2.5081144e-20)
(0.69249627 0.012691192 3.8085583e-20)
(0.69252606 0.015455677 -4.1495541e-20)
(0.6926133 0.01820403 4.2351031e-20)
(0.69275729 0.020941145 -4.5721707e-20)
(0.69295756 0.023671746 5.85573e-20)
(0.69321384 0.02640038 -4.1164144e-20)
(0.6935261 0.029131406 3.7587166e-20)
(0.69389448 0.031868987 -4.5277927e-20)
(0.69431932 0.034617089 4.1703549e-20)
(0.69480114 0.037379482 -2.4534491e-20)
(0.69534064 0.040159727 3.8072974e-20)
(0.69593871 0.042961186 -4.0419859e-20)
(0.69659638 0.045787014 3.6795787e-20)
(0.69731485 0.048640169 -4.1062634e-20)
(0.6980955 0.051523412 -2.0711387e-20)
(0.69893983 0.054439305 3.7341399e-20)
(0.69984954 0.057390217 -4.3612314e-20)
(0.70082645 0.060378333 3.6980326e-20)
(0.70187257 0.063405647 -3.8961749e-20)
(0.70299003 0.066473968 5.4158619e-20)
(0.70418114 0.069584927 -1.9024428e-20)
(0.70544838 0.072739973 1.871395e-20)
(0.70679436 0.075940377 -4.1102832e-20)
(0.70822187 0.079187236 3.4584331e-20)
(0.70973381 0.082481469 -4.1335256e-20)
(0.71133345 0.08582382 1.6970964e-20)
(0.71303153 0.08920375 6.0052111e-20)
(0.71485816 0.092590393 -4.4542529e-20)
(0.71684859 0.095975572 -6.8693068e-20)
(0.71901392 0.099349394 5.9212119e-20)
(0.72134976 0.10270155 3.013958e-20)
(0.72385748 0.106022 -3.4785199e-20)
(0.72653906 0.10930058 -5.8316532e-20)
(0.72939477 0.11252703 1.2897673e-20)
(0.73242605 0.11568799 5.2473401e-20)
(0.735627 0.11877787 -5.762471e-20)
(0.73899783 0.12178721 4.2396236e-20)
(0.74253536 0.12470623 5.0946875e-20)
(0.74623529 0.12752561 -1.5222254e-19)
(0.75009342 0.13023634 4.2062903e-21)
(0.75410444 0.1328294 1.6135743e-19)
(0.75826308 0.13529715 7.885361e-20)
(0.76256328 0.13763522 2.1305284e-20)
(0.76699773 0.13984016 1.5586856e-19)
(0.77155978 0.1419088 -6.3631154e-20)
(0.77624284 0.14383795 -1.4044424e-19)
(0.72656142 -0.08301873 1.4556892e-20)
(0.72382435 -0.07822254 6.5624368e-21)
(0.72125193 -0.073541054 -1.7491418e-20)
(0.71883853 -0.068974548 9.6360237e-21)
(0.71657849 -0.064522764 -9.0972799e-21)
(0.71446618 -0.06018494 9.7856913e-21)
(0.712496 -0.055959841 9.8928343e-21)
(0.71066239 -0.05184578 -1.8102002e-20)
(0.70895989 -0.047840641 1.9785533e-20)
(0.70738315 -0.043941916 1.0098667e-20)
(0.70592693 -0.040146728 -1.8806133e-20)
(0.70458613 -0.036451852 1.016508e-20)
(0.7033558 -0.03285375 -1.9000216e-20)
(0.7022312 -0.029348592 2.0255057e-20)
(0.70120776 -0.025932288 -3.1956327e-20)
(0.7002811 -0.022600515 1.0735821e-20)
(0.69944709 -0.019348748 2.3223703e-20)
(0.69870181 -0.016172287 -2.2551563e-20)
(0.69804157 -0.013066282 1.03887e-20)
(0.69746295 -0.010025776 1.0422122e-20)
(0.69696274 -0.0070457224 2.3460891e-20)
(0.696538 -0.0041210268 -2.2275993e-20)
(0.69618599 -0.0012465648 1.0478008e-20)
(0.69590456 0.0015828511 -2.2326185e-20)
(0.69569077 0.0043723318 -2.9292216e-20)
(0.69554316 0.0071270593 2.3947557e-20)
(0.69546005 0.009852105 -2.271399e-20)
(0.69543987 0.012552425 1.0437871e-20)
(0.69548141 0.015232868 2.3844569e-20)
(0.69558367 0.017898154 1.0378413e-20)
(0.69574589 0.02055286 -2.2570338e-20)
(0.6959675 0.023201405 1.0344652e-20)
(0.69624814 0.025848044 2.3157334e-20)
(0.69658764 0.028496859 1.0690473e-20)
(0.69698604 0.031151745 -7.4120008e-20)
(0.69744355 0.033816413 2.3028424e-20)
(0.69796053 0.036494385 1.655753e-20)
(0.69853756 0.039188987 1.0134597e-20)
(0.69917535 0.041903348 2.3109857e-20)
(0.6998748 0.044640402 -7.2796868e-20)
(0.70063694 0.047402889 2.3056787e-20)
(0.70146299 0.050193355 -2.1662414e-20)
(0.70235431 0.053014151 1.0039944e-20)
(0.70331242 0.055867437 2.2690814e-20)
(0.70433899 0.05875519 9.3788152e-21)
(0.70543585 0.061679196 -2.0834681e-20)
(0.70660499 0.064641058 2.1822701e-20)
(0.70784855 0.067642197 -2.6571842e-20)
(0.70916883 0.070683855 -2.0286973e-20)
(0.71056828 0.073767096 9.6942362e-21)
(0.71204955 0.076892814 9.5723705e-21)
(0.71361536 0.080061727 -2.019163e-20)
(0.71526879 0.08327439 5.6162016e-20)
(0.71702003 0.086519938 -3.9905711e-20)
(0.71889735 0.089767127 1.1837078e-20)
(0.72093297 0.093007943 3.0092558e-20)
(0.72313681 0.096232919 -2.7151931e-20)
(0.72550437 0.099432202 -8.1308913e-21)
(0.72803644 0.10259624 -2.5424758e-20)
(0.73073435 0.10571539 1.0976815e-19)
(0.73359792 0.10877994 1.3248748e-20)
(0.73662757 0.11177778 -1.7123834e-19)
(0.73981775 0.1147041 1.3958572e-20)
(0.74316813 0.11755 1.1010462e-19)
(0.74667535 0.12030634 -1.7000806e-19)
(0.75033502 0.12296448 8.7816132e-21)