/*--------------------------------*- C++ -*----------------------------------*\
| =========                 |                                                 |
| \\      /  F ield         | OpenFOAM: The Open Source CFD Toolbox           |
|  \\    /   O peration     | Version:  2.4.0                                 |
|   \\  /    A nd           | Web:      www.OpenFOAM.org                      |
|    \\/     M anipulation  |                                                 |
\*---------------------------------------------------------------------------*/
FoamFile
{
    version     2.0;
    format      ascii;
    class       volScalarField;
    location    "5000";
    object      omega;
}
// * * * * * * * * * * * * * * * * * * * * * * * * * * * * * * * * * * * * * //

dimensions      [0 0 -1 0 0 0 0];

internalField   nonuniform List<scalar> 
15600
(
30335.684
30205.728
5081.2024
5060.9599
1654.4681
1649.5145
753.52283
752.94436
418.49505
419.89636
266.55004
269.38277
187.95855
192.19982
142.4905
148.12987
113.24224
120.03116
92.661751
99.917058
77.184766
84.073638
65.021272
70.973338
55.210855
59.939591
47.18098
50.645117
40.526046
42.916026
34.98255
36.561109
30.351076
31.380586
26.487677
27.156396
23.262362
23.689159
20.559856
20.821779
30220.384
30213.375
30294.082
30326.245
30349.181
30351.567
30335.695
30297.561
30267.621
30273.999
30269.646
30260.895
30253.131
30250.522
30237.293
30229.908
30226.299
30225.276
30232.959
30309.12
30512.821
30668.56
30675.78
30540.195
30340.233
30274.604
30399.033
5063.3849
5062.4564
5075.7949
5081.1079
5084.8068
5085.0696
5082.2328
5075.7339
5070.8264
5071.7958
5071.0161
5069.448
5068.1732
5067.6218
5065.3758
5064.1203
5063.4877
5063.3281
5064.6811
4890.1924
4915.5582
4929.7802
4930.0835
4907.4889
5084.1001
5076.7855
5095.1116
1647.9543
1647.6724
1651.8851
1653.5102
1654.6865
1654.7593
1653.843
1651.7384
1650.173
1650.4766
1650.2155
1649.6843
1649.2642
1649.0565
1648.3017
1647.8511
1647.5869
1647.4964
1647.8918
1612.3265
1621.4054
1627.3354
1627.1287
1620.1064
1656.9796
1658.0924
1662.8597
746.63077
746.45068
748.18743
748.79984
749.33594
749.39538
749.038
748.1301
747.455
747.60321
747.49145
747.24618
747.04941
746.93877
746.56603
746.3027
746.10509
746.01061
746.1272
735.15099
739.41067
742.57601
742.23122
739.72454
753.9867
759.30125
760.7035
407.18838
406.98908
407.73243
407.92467
408.23052
408.30786
408.19461
407.76388
407.43879
407.53941
407.49055
407.35651
407.24164
407.16418
406.92389
406.7112
406.51409
406.40071
406.39374
402.06089
404.39672
406.45396
406.06026
405.55273
415.08773
423.91812
424.20084
249.30981
249.04473
249.27349
249.22966
249.42995
249.52899
249.55283
249.36511
249.2173
249.30439
249.29011
249.20964
249.13061
249.06353
248.87502
248.66896
248.45116
248.31289
248.23282
246.21997
247.62791
249.1769
248.76697
249.42035
258.7505
270.68407
270.11614
165.1749
164.82
164.73091
164.52289
164.65954
164.77367
164.88285
164.83914
164.79745
164.88494
164.89434
164.84478
164.7838
164.7181
164.55011
164.33365
164.0885
163.92376
163.79373
162.7349
163.63191
164.91249
164.50189
165.9422
176.95296
191.11311
189.22972
115.95594
115.50043
115.1895
114.84283
114.92569
115.04308
115.20701
115.25742
115.28795
115.38324
115.41229
115.38462
115.33514
115.26839
115.1089
114.876
114.6008
114.40624
114.23417
113.60399
114.18174
115.29301
114.87433
116.9518
130.78269
145.74418
141.92994
85.164629
84.610028
84.134268
83.656172
83.680127
83.785444
83.980969
84.095313
84.17908
84.28677
84.334751
84.326304
84.2876
84.221516
84.067842
83.818461
83.513098
83.284842
83.071481
82.634329
82.98446
83.96203
83.512348
86.220667
103.55539
117.61951
111.52757
64.899046
64.260337
63.661367
63.054018
63.006796
63.082953
63.289648
63.446264
63.570696
63.693593
63.761422
63.772785
63.747624
63.686992
63.541732
63.280016
62.946536
62.681126
62.423604
62.059267
62.224647
63.074685
62.561738
66.016863
87.030134
98.663085
90.355087
51.002133
50.307528
49.62164
48.889904
48.757944
48.787889
48.986979
49.167966
49.322891
49.46216
49.551175
49.584448
49.577531
49.529265
49.398132
49.131415
48.773951
48.469186
48.163289
47.804565
47.803713
48.52058
47.910689
52.344416
76.6409
84.831978
74.677912
41.120799
40.408468
39.670554
38.826794
38.600577
38.569128
38.744036
38.933288
39.108853
39.263624
39.374306
39.431796
39.448099
39.41992
39.310027
39.04789
38.672549
38.328297
37.970424
37.579585
37.419892
37.996798
37.26592
43.019738
69.668372
74.047631
62.552496
33.848885
33.160438
32.404489
31.470713
31.148425
31.044979
31.182135
31.364801
31.550403
31.71717
31.847907
31.930429
31.973878
31.972158
31.890321
31.643302
31.257831
30.876709
30.465787
30.022957
29.714444
30.147345
29.29651
36.809751
64.475774
65.195682
52.894853
28.318031
27.690496
26.947955
25.954823
25.543796
25.365069
25.454411
25.617278
25.801421
25.973775
26.119941
26.225374
26.297521
26.324742
26.275833
26.053742
25.666879
25.254626
24.793781
24.293252
23.854245
24.144918
23.220845
32.995321
60.17991
57.621637
45.058398
23.985127
23.444443
22.741742
21.724674
21.240691
20.991281
21.026826
21.159367
21.33054
21.499783
21.653726
21.776517
21.874839
21.92894
21.914042
21.724154
21.344693
20.910056
20.407587
19.855715
19.314462
19.470913
18.589925
31.031708
56.351623
50.984694
38.628794
20.509425
20.067735
19.424258
18.418076
17.88243
17.573789
17.553557
17.649177
17.79748
17.954244
18.106509
18.238468
18.356065
18.430439
18.446438
18.292129
17.927892
17.481915
16.951073
16.363649
15.755528
15.790297
15.157631
30.38935
52.82892
45.091635
33.323052
17.674638
17.331527
16.758742
15.792928
15.22848
14.876105
14.802345
14.858607
14.977336
15.113612
15.25497
15.387027
15.513889
15.599239
15.63893
15.51977
15.176753
14.731528
14.188909
13.587247
12.94873
12.876189
12.793368
30.569439
49.531124
39.819685
28.934
15.338438
15.084612
14.58652
13.682511
13.110204
12.730021
12.609707
12.627148
12.713518
12.82416
12.947501
13.071552
13.196934
13.283825
13.337377
13.250028
12.932048
12.499206
11.962174
11.368377
10.733076
10.561502
11.286843
31.299371
46.410911
35.088482
25.300283
13.401235
13.222799
12.797422
11.968084
11.404825
11.011151
10.854065
10.835238
10.890085
10.973218
11.074522
11.184619
11.299353
11.380125
11.438869
11.37593
11.085849
10.675184
10.159196
9.5919752
8.9866889
8.7419343
10.41566
32.54315
43.425632
30.844683
22.289141
11.788389
11.670432
11.311777
10.562439
10.020409
9.6248649
9.4412387
9.3906293
9.4168754
9.4733496
9.5516029
9.6442398
9.7421123
9.8118969
9.8696898
9.8221951
9.5617232
9.180266
8.6969702
8.1691948
7.6117358
7.3435791
10.058198
34.309536
40.539883
27.05279
19.788467
30203.086
30203.165
30203.323
30203.56
30203.877
30204.272
30204.746
30205.299
30205.931
30206.642
30207.432
30208.301
30209.249
30210.276
30211.382
30212.568
30213.832
30215.175
30216.598
30218.1
30219.68
30221.34
30223.079
30224.898
30226.795
30228.771
30230.827
30232.962
30235.177
30237.471
30277.105
5059.6161
5059.6363
5059.675
5059.7245
5059.7893
5059.8669
5059.9585
5060.0632
5060.1812
5060.3122
5060.456
5060.6125
5060.7815
5060.9628
5061.1563
5061.366
5061.5907
5061.8276
5062.0767
5062.338
5062.6114
5062.8971
5063.1952
5063.5064
5063.8309
5064.1722
5064.5288
5064.9141
5065.3093
5065.7929
5072.7984
1646.4378
1646.4651
1646.5056
1646.5468
1646.5957
1646.6487
1646.7071
1646.7697
1646.8363
1646.9063
1646.9794
1647.055
1647.1326
1647.2119
1647.2924
1647.3757
1647.4614
1647.5479
1647.635
1647.7226
1647.8105
1647.8992
1647.9882
1648.0795
1648.1715
1648.2714
1648.3717
1648.4975
1648.6089
1648.8294
1651.1922
745.74327
745.79322
745.85704
745.91912
745.98778
746.05876
746.13317
746.2094
746.28698
746.36488
746.44225
746.51814
746.59168
746.66204
746.72846
746.7912
746.85018
746.904
746.9521
746.99441
747.03032
747.06073
747.08453
747.10486
747.11854
747.13658
747.14565
747.18327
747.18778
747.33344
748.39084
406.44053
406.52082
406.61681
406.71089
406.81182
406.91543
407.02212
407.13028
407.23873
407.34616
407.45112
407.55223
407.64804
407.73726
407.81862
407.89137
407.95497
408.0083
408.05044
408.0811
408.09927
408.1059
408.09948
408.08379
408.05446
408.02521
407.9785
407.96092
407.89404
407.99223
408.49748
248.39858
248.51178
248.64261
248.77268
248.91028
249.05209
249.19749
249.34515
249.49308
249.63984
249.7833
249.9217
250.05296
250.17531
250.28691
250.38619
250.47142
250.5419
250.59632
250.63398
250.6534
250.65527
250.63781
250.6047
250.55093
250.49164
250.40682
250.34832
250.22684
250.28295
250.49143
163.83218
163.97558
164.13814
164.30193
164.47404
164.65265
164.83597
165.02325
165.21177
165.40006
165.58547
165.76591
165.9388
166.10189
166.2528
166.38933
166.50871
166.61001
166.69161
166.75229
166.78996
166.80487
166.79458
166.76275
166.70359
166.63251
166.52874
166.44553
166.2895
166.31136
166.34762
113.93763
114.10305
114.28864
114.47778
114.67602
114.88345
115.09717
115.31728
115.54046
115.76551
115.98939
116.20993
116.42418
116.62959
116.82338
117.00286
117.16446
117.30659
117.42741
117.52515
117.59708
117.64286
117.65912
117.6491
117.60679
117.54636
117.44791
117.36277
117.20009
117.20462
117.15591
82.300732
82.475564
82.670834
82.871717
83.082341
83.304655
83.534983
83.774368
84.019233
84.268806
84.519994
84.770784
85.018153
85.259499
85.491874
85.712379
85.91708
86.103405
86.269537
86.413228
86.531131
86.622279
86.68251
86.714221
86.710701
86.685723
86.619933
86.560999
86.426203
86.440629
86.384379
61.156644
61.326616
61.516272
61.712843
61.919373
62.139279
62.368552
62.609059
62.857336
63.113167
63.373734
63.637428
63.901495
64.163587
64.420935
64.670763
64.909351
65.133223
65.340761
65.529528
65.695805
65.838149
65.951763
66.038352
66.090599
66.121289
66.112506
66.108294
66.036375
66.094743
66.104654
46.517397
46.670428
46.841226
47.019241
47.206799
47.408118
47.619281
47.842688
48.075286
48.317391
48.566712
48.822196
49.081631
49.343192
49.604616
49.863592
50.117121
50.361371
50.595012
50.815844
51.020226
51.206602
51.369977
51.511713
51.624157
51.719775
51.781516
51.85281
51.868335
52.004113
52.145879
36.165012
36.294213
36.438355
36.589125
36.748373
36.920462
37.101837
37.295072
37.49765
37.710276
37.931256
38.160086
38.395203
38.635416
38.879145
39.124753
39.370172
39.61206
39.849295
40.080329
40.302124
40.513437
40.709719
40.892461
41.054273
41.207979
41.337614
41.487828
41.599225
41.834219
42.152281
28.743968
28.848081
28.963952
29.085318
29.213693
29.353125
29.500525
29.658341
29.824564
30.000081
30.183713
30.375363
30.574044
30.779121
30.989672
31.204726
31.423088
31.642419
31.861788
32.080458
32.296337
32.508796
32.714297
32.914837
33.103985
33.295446
33.474675
33.689354
33.885659
34.217915
34.726654
23.354591
23.436195
23.526545
23.621089
23.72109
23.830075
23.945408
24.069242
24.19997
24.338493
24.483991
24.636598
24.795727
24.961126
25.132361
25.308969
25.490419
25.675344
25.86309
26.053581
26.245707
26.439502
26.63267
26.827837
27.01995
27.223712
27.42622
27.679003
27.93309
28.340039
29.018471
19.377392
19.440633
19.510062
19.582472
19.658936
19.742434
19.830723
19.925611
20.025787
20.132064
20.243842
20.361345
20.48422
20.612423
20.745813
20.884239
21.02758
21.175169
21.326651
21.482331
21.641879
21.805841
21.97303
22.14657
22.322785
22.517047
22.718024
22.980501
23.259344
23.70655
24.505762
16.385805
16.434858
16.488051
16.543215
16.601278
16.664729
16.731661
16.803554
16.87931
16.959617
17.044005
17.132701
17.225472
17.322358
17.423369
17.528502
17.637847
17.751147
17.868299
17.989743
18.115645
18.246843
18.382943
18.527309
18.677336
18.848486
19.030713
19.280321
19.555117
20.007369
20.86617
14.088938
14.127332
14.168277
14.210399
14.254519
14.30272
14.353374
14.407681
14.464705
14.525006
14.588193
14.654456
14.723621
14.79574
14.870887
14.949112
15.030588
15.115264
15.203198
15.294831
15.390577
15.491382
15.597313
15.711738
15.832735
15.975258
16.130275
16.353361
16.604872
17.034478
17.895196
12.289211
12.3197
12.351514
12.383901
12.417605
12.454377
12.492832
12.533937
12.576883
12.622121
12.669307
12.718588
12.769811
12.823018
12.8783
12.935708
12.995429
13.057507
13.122075
13.189524
13.260347
13.335483
13.415216
13.502748
13.596536
13.710561
13.836683
14.027607
14.24651
14.636475
15.454984
10.851784
10.876435
10.901461
10.926604
10.952558
10.980806
11.01017
11.04143
11.073884
11.107888
11.143137
11.179734
11.217537
11.256562
11.296902
11.338591
11.381795
11.426595
11.473146
11.52178
11.57297
11.627597
11.686006
11.751154
11.821679
11.910305
12.00984
12.168415
12.35286
12.695989
13.444689
9.6835545
9.7038986
9.7238678
9.743611
9.7637919
9.785674
9.8082607
9.8321824
9.8568259
9.8824718
9.9088473
9.9360182
9.9638459
9.9923248
10.021544
10.051508
10.08236
10.114185
10.147134
10.181483
10.217645
10.256425
10.298147
10.345494
10.397194
10.464577
10.541574
10.670555
10.823175
11.118822
11.785674
30202.962
30202.938
30202.951
30202.946
30202.947
30202.946
30202.946
30202.946
30202.946
30202.946
30202.946
30202.945
30202.945
30202.945
30202.945
30202.944
30202.944
30202.944
30202.944
30202.943
30202.943
30202.943
30202.943
30202.942
30202.942
30202.942
30202.942
30202.941
30202.941
30202.941
30202.94
30202.94
30202.94
30202.94
30202.939
30202.939
30202.939
30202.939
30202.939
30202.938
30202.938
30202.938
30202.938
30202.938
30202.937
30202.937
30202.937
30202.937
30202.937
30202.937
30202.936
30202.936
30202.936
30202.936
30202.936
30202.936
30202.936
30202.935
30202.935
30202.935
5062.2806
5061.1993
5061.3122
5061.6367
5061.3554
5061.4044
5061.3717
5061.3697
5061.3596
5061.3521
5061.3431
5061.3312
5061.3174
5061.3023
5061.2862
5061.2688
5061.2503
5061.2323
5061.2135
5061.1943
5061.1744
5061.155
5061.1346
5061.1137
5061.0939
5061.0745
5061.0567
5061.0388
5061.0166
5060.9995
5060.976
5060.9535
5060.9327
5060.9124
5060.8926
5060.8732
5060.854
5060.8351
5060.8164
5060.7979
5060.7797
5060.7616
5060.7438
5060.7263
5060.709
5060.6919
5060.6752
5060.6589
5060.643
5060.6272
5060.6119
5060.5969
5060.5823
5060.5679
5060.5546
5060.5407
5060.53
5060.5151
5060.5083
5060.5211
1652.9973
1651.3705
1651.4321
1651.9273
1651.6064
1651.6515
1651.605
1651.5902
1651.5647
1651.54
1651.511
1651.4764
1651.4375
1651.3953
1651.3505
1651.3027
1651.2529
1651.2025
1651.1504
1651.0971
1651.0427
1650.9882
1650.9323
1650.8757
1650.8204
1650.7652
1650.7117
1650.6566
1650.5974
1650.5424
1650.4807
1650.4204
1650.3628
1650.306
1650.2503
1650.1953
1650.141
1650.0873
1650.0342
1649.9818
1649.9301
1649.879
1649.8286
1649.779
1649.7303
1649.6825
1649.6357
1649.5899
1649.5452
1649.5015
1649.459
1649.4175
1649.3775
1649.3385
1649.3019
1649.265
1649.2339
1649.1963
1649.1745
1649.1619
757.55118
756.14938
755.75498
756.58408
756.18836
756.24911
756.18886
756.16556
756.12613
756.0849
756.03544
755.97615
755.90871
755.83454
755.75476
755.66927
755.57957
755.48735
755.39189
755.29354
755.19282
755.09089
754.9865
754.88077
754.77598
754.67092
754.56723
754.46062
754.34896
754.24057
754.1246
754.0099
753.89867
753.78888
753.68063
753.57356
753.46758
753.3626
753.25869
753.15584
753.0541
752.95349
752.85419
752.7563
752.65999
752.56528
752.47246
752.38148
752.29254
752.20539
752.12063
752.03791
751.95816
751.88037
751.80674
751.73358
751.66896
751.59669
751.54644
751.50137
424.13326
423.80957
422.6287
423.83945
423.40721
423.49721
423.43547
423.41327
423.36841
423.31816
423.2552
423.17777
423.08736
422.98587
422.87487
422.75456
422.62687
422.49391
422.35537
422.21165
422.06361
421.91256
421.75763
421.59988
421.44217
421.2834
421.12513
420.96305
420.79424
420.62747
420.45245
420.27746
420.10639
419.93701
419.76947
419.60334
419.43852
419.27491
419.11262
418.95164
418.79209
418.63402
418.47769
418.32327
418.17104
418.02106
417.87374
417.72898
417.58712
417.44794
417.31229
417.17978
417.0516
416.92661
416.80738
416.68991
416.58285
416.4693
416.37955
416.29724
271.85209
273.04254
271.0337
272.5431
272.13771
272.26623
272.22023
272.21147
272.1739
272.12632
272.06207
271.97915
271.87843
271.76214
271.63214
271.48912
271.33501
271.1725
271.00173
270.82321
270.63799
270.44758
270.25162
270.05087
269.84866
269.64434
269.43926
269.23015
269.01238
268.79529
268.56968
268.34193
268.11783
267.89523
267.67439
267.45487
267.23661
267.01948
266.80364
266.58911
266.37604
266.16453
265.9549
265.74739
265.54235
265.33992
265.1406
264.94429
264.7514
264.56192
264.37678
264.19567
264.01985
263.84832
263.68359
263.52208
263.37164
263.21772
263.08482
262.96773
192.2176
194.73889
192.19401
193.81925
193.50042
193.66916
193.65539
193.6714
193.65265
193.61993
193.56739
193.49314
193.39706
193.28168
193.14884
192.99981
192.83613
192.66115
192.4753
192.27938
192.07436
191.86208
191.64255
191.41616
191.18652
190.9537
190.71884
190.48037
190.23161
189.98257
189.72514
189.46302
189.20354
188.94496
188.68767
188.43135
188.17595
187.92138
187.66781
187.4153
187.16401
186.9141
186.66587
186.41966
186.1758
185.93458
185.69642
185.4614
185.22994
185.00236
184.77936
184.56097
184.34813
184.14034
183.9395
183.74326
183.55739
183.37206
183.20152
183.05972
145.86045
149.20388
146.52385
148.08347
147.88365
148.08933
148.11982
148.16917
148.17689
148.16869
148.1383
148.08438
148.00587
147.90546
147.7847
147.64549
147.48868
147.31824
147.13473
146.93934
146.73275
146.51724
146.29292
146.05997
145.82199
145.57984
145.3346
145.08659
144.82743
144.56778
144.30022
144.02569
143.75227
143.47889
143.20607
142.9337
142.66173
142.39019
142.1192
141.84889
141.57941
141.31095
141.04377
140.77827
140.51472
140.25358
139.99504
139.73953
139.48747
139.23956
138.99594
138.75716
138.52346
138.29524
138.07324
137.8569
137.64918
137.44606
137.24997
137.09705
116.18079
119.77385
117.3062
118.68485
118.60551
118.84493
118.92635
119.01254
119.05333
119.07549
119.07327
119.04815
118.9961
118.92048
118.82249
118.70461
118.56684
118.41366
118.24563
118.06433
117.87012
117.66566
117.45104
117.22644
116.99508
116.75868
116.51832
116.27602
116.02268
115.76943
115.50898
115.23991
114.97023
114.69957
114.42857
114.15741
113.88606
113.61466
113.34331
113.07222
112.80152
112.53143
112.26213
111.99407
111.72743
111.46279
111.20012
110.9403
110.68386
110.43166
110.18315
109.93944
109.6999
109.46593
109.23692
109.01423
108.79792
108.58958
108.38089
108.22782
95.547193
99.00195
96.921707
98.090558
98.112318
98.387653
98.519083
98.643713
98.721131
98.777265
98.808007
98.813977
98.794242
98.748931
98.679716
98.589639
98.477895
98.349274
98.204262
98.044807
97.870991
97.685739
97.489088
97.281367
97.065255
96.843268
96.61638
96.388041
96.149747
95.912796
95.669359
95.416302
95.160928
94.903457
94.644653
94.384938
94.124377
93.863238
93.601608
93.339785
93.077884
92.816143
92.554702
92.294025
92.034197
91.77591
91.518898
91.264687
91.014052
90.767607
90.524146
90.285201
90.04943
89.819004
89.592195
89.371915
89.155815
88.95007
88.7381
88.589787
80.254955
83.341857
81.721061
82.690018
82.788189
83.10172
83.275965
83.438363
83.553784
83.645739
83.711672
83.752638
83.766468
83.75562
83.719916
83.662478
83.582134
83.483821
83.367933
83.236598
83.089812
82.930514
82.758782
82.575101
82.381626
82.181448
81.975415
81.768055
81.550993
81.33433
81.111599
80.878708
80.641914
80.401838
80.159357
79.915098
79.669261
79.422219
79.174107
78.925294
78.675914
78.426219
78.176333
77.926715
77.677403
77.429124
77.181493
76.936869
76.69652
76.460063
76.225921
75.995804
75.767984
75.545026
75.324515
75.110374
74.89852
74.698435
74.48808
74.344361
68.380378
70.969639
69.802148
70.599607
70.751998
71.096428
71.306849
71.504047
71.656407
71.784076
71.885697
71.962515
72.012395
72.037629
72.036975
72.016599
71.971547
71.907953
71.825994
71.727831
71.613507
71.485754
71.344765
71.191138
71.026583
70.85453
70.675688
70.495344
70.304895
70.112604
69.914124
69.705272
69.491152
69.272598
69.050552
68.825779
68.598644
68.369588
68.138835
67.906816
67.673706
67.43976
67.205127
66.97023
66.735118
66.500475
66.265955
66.033605
65.804408
65.578482
65.354247
65.133425
64.914185
64.699188
64.485692
64.278196
64.071424
63.877153
63.670102
63.528432
58.8255
60.905473
60.109807
60.774535
60.964001
61.327643
61.567575
61.794638
61.980352
62.141211
62.276587
62.387706
62.472667
62.533501
62.569333
62.58418
62.576141
62.549129
62.502932
62.440042
62.360611
62.266986
62.159547
62.038946
61.906502
61.765869
61.617499
61.467205
61.306771
61.143141
60.972769
60.792015
60.604846
60.412185
60.214953
60.013996
59.809831
59.602935
59.393646
59.182455
58.969578
58.755264
58.539725
58.323324
58.106167
57.888835
57.671148
57.454219
57.238314
57.024674
56.812097
56.602172
56.393244
56.18778
55.983092
55.783778
55.584003
55.3967
55.195503
55.055544
50.933322
52.571157
52.049066
52.612445
52.826987
53.196796
53.459427
53.709915
53.923402
54.11288
54.278031
54.4199
54.536884
54.630706
54.700811
54.750168
54.77753
54.785178
54.775279
54.747578
54.703281
54.644202
54.570997
54.484283
54.38503
54.277089
54.160501
54.041408
53.912347
53.779302
53.638843
53.488099
53.329927
53.165333
52.995113
52.820171
52.641131
52.458486
52.272692
52.084311
51.893579
51.700742
51.506093
51.30993
51.112445
50.914088
50.714886
50.515454
50.315702
50.117005
49.918698
49.722133
49.526029
49.332463
49.139079
48.950221
48.759998
48.581602
48.3891
48.252329
44.305881
45.590529
45.256865
45.739915
45.969192
46.335799
46.613027
46.87958
47.11394
47.325989
47.515426
47.683036
47.827495
47.95022
48.050914
48.131738
48.191738
48.232668
48.256082
48.261282
48.251559
48.225904
48.186118
48.132669
48.066201
47.990817
47.905939
47.817963
47.720301
47.618078
47.507867
47.387525
47.258829
47.122931
46.980439
46.832288
46.679145
46.521526
46.359979
46.195167
46.027294
45.856615
45.683519
45.508236
45.331052
45.152294
44.972193
44.791073
44.608767
44.426348
44.243632
44.061699
43.879693
43.699265
43.518462
43.341296
43.161956
42.993606
42.811166
42.678813
38.685782
39.699597
39.490462
39.906591
40.141632
40.498041
40.781687
41.056604
41.304268
41.531958
41.739257
41.926689
42.093152
42.239781
42.366446
42.474661
42.563505
42.634285
42.687974
42.724253
42.745524
42.750716
42.743112
42.72124
42.686095
42.642115
42.587851
42.530044
42.462897
42.390629
42.309975
42.219382
42.119577
42.011964
41.896914
41.775353
41.648
41.515329
41.377981
41.236752
41.09172
40.943192
40.791645
40.637247
40.480374
40.321253
40.160299
39.99762
39.833155
39.667554
39.501
39.334306
39.166994
39.000343
38.832765
38.667994
38.500251
38.342709
38.170972
38.044231
33.893551
34.703406
34.574119
34.932632
35.165695
35.506243
35.788505
36.064175
36.317444
36.553517
36.771858
36.972794
37.155365
37.320451
37.467959
37.598863
37.712089
37.80857
37.888723
37.952522
38.001675
38.035468
38.056609
38.063135
38.057764
38.04325
38.017654
37.988381
37.950162
37.906173
37.853622
37.791392
37.719134
37.638715
37.550136
37.454325
37.352076
37.243707
37.130043
37.011966
36.889321
36.762541
36.632163
36.498304
36.361411
36.221657
36.079602
35.935148
35.788449
35.639754
35.489513
35.338289
35.1859
35.033336
34.879289
34.727319
34.571563
34.425382
34.26461
34.144665
29.795849
30.453325
30.373194
30.681703
30.905888
31.225375
31.498914
31.768136
32.019646
32.257057
32.47978
32.688014
32.880851
33.058918
33.221983
33.370573
33.503354
33.620962
33.723301
33.810598
33.883945
33.942721
33.989392
34.021696
34.042565
34.054564
34.055313
34.052308
34.040765
34.022655
33.996131
33.960318
33.913699
33.858921
33.795373
33.724076
33.645851
33.560781
33.470011
33.374378
33.273429
33.167776
33.057986
32.944148
32.826734
32.70594
32.5824
32.455805
32.32659
32.194657
32.060657
31.924939
31.787515
31.649174
31.508798
31.369875
31.22634
31.091945
30.942219
30.830256
26.289597
26.834019
26.781385
27.046457
27.255023
27.548214
27.806244
28.062596
28.305809
28.538289
28.75947
28.96941
29.167173
29.353085
29.52654
29.687793
29.83521
29.969223
30.089281
30.195814
30.289274
30.369016
30.437463
30.491711
30.535501
30.570588
30.594515
30.614741
30.625931
30.631181
30.628041
30.616215
30.592865
30.561849
30.52154
30.47323
30.417668
30.354659
30.285818
30.211743
30.131627
30.046334
29.956458
29.862031
29.763509
29.661228
29.555755
29.446607
29.334513
29.219089
29.101157
28.980885
28.85838
28.734313
28.607676
28.481955
28.350815
28.228543
28.089862
27.987099
23.293985
23.750604
23.713568
23.938593
24.124877
24.38675
24.62337
24.861518
25.091138
25.313611
25.528427
25.735361
25.933407
26.122522
26.301484
26.470572
26.62783
26.773636
26.907015
27.028474
27.137746
27.234206
27.320265
27.392136
27.455057
27.509124
27.551991
27.591653
27.621765
27.647025
27.663992
27.672358
27.670204
27.660851
27.641686
27.614616
27.580127
27.537756
27.489772
27.436245
27.375934
27.310133
27.239431
27.16372
27.083473
26.999259
26.911359
26.819243
26.723884
26.624668
26.522583
26.417661
26.309985
26.200198
26.087335
25.974917
25.856336
25.74644
25.618781
25.526544
22.851809
20.219429
17.977537
16.037578
14.33228
12.813547
11.442307
10.193177
9.0521156
8.0078353
7.0576216
6.2031083
5.4428197
4.7663715
4.1644046
3.6321055
3.1649208
2.7581898
2.4069698
2.1060299
1.8499687
1.6333662
1.4510575
1.2982627
1.1706392
1.0643916
0.97628389
0.90360894
0.84413814
0.79605596
0.75791707
0.72859566
0.70724192
0.69324729
0.68622018
0.68597996
0.69193909
0.70546933
0.72652598
0.75587882
0.79482862
0.845425
0.91096771
0.99647827
1.1069628
1.2380933
1.3876497
1.558416
1.752243
1.9631681
2.1745868
2.3649217
2.5164856
2.6186665
2.6666808
2.6629442
2.6224968
2.5488473
2.4629957
2.3785424
2.3028834
2.2378815
2.1840178
2.1416832
2.1109936
2.0919438
2.0844895
2.088442
2.1038383
2.1311929
2.1704927
2.2221385
2.2867093
2.3649908
2.4580093
2.5670752
2.6938383
2.8403617
3.0092395
3.2037146
3.4278452
3.686758
3.9870027
4.3370475
4.7479983
5.2346632
5.817167
6.523461
7.3933211
8.4848906
22.919988
20.256531
17.988416
16.029337
14.309507
12.77441
11.388871
10.127892
8.9753134
7.9232813
6.9704543
6.1178855
5.3622315
4.6918648
4.0967876
3.5719233
3.112374
2.7131382
2.3689787
2.0744475
1.8240112
1.6122241
1.4339518
1.2844769
1.159564
1.0555241
0.96921277
0.89799934
0.8397187
0.79261686
0.75529715
0.72667179
0.70592074
0.69245898
0.68591245
0.68607853
0.69247798
0.7064209
0.72785496
0.75760856
0.79699581
0.84811421
0.91431407
1.0006777
1.112338
1.2449422
1.3961292
1.5686105
1.7645071
1.9782331
2.1931423
2.3870929
2.5418482
2.6465998
2.6963951
2.6931164
2.6520698
2.5763259
2.4876165
2.4000273
2.3215893
2.2543003
2.1984564
2.1543818
2.122156
2.1017444
2.0930671
2.0959491
2.110295
2.1367047
2.1751202
2.2259313
2.2897087
2.3672327
2.4595275
2.5679043
2.6940197
2.8399642
3.008316
3.2023011
3.42598
3.6844997
3.9844434
4.3343341
4.7453678
5.2325026
5.816115
6.5245961
7.3984792
8.4971941
23.024709
20.333438
18.040622
16.056613
14.314588
12.764879
11.368596
10.099444
8.941013
7.8856261
6.9321748
6.0815021
5.3280458
4.6597776
4.0675294
3.5458722
3.0896711
2.6937344
2.352675
2.0609411
1.8129421
1.6032234
1.4266697
1.2785991
1.1548226
1.0516991
0.96612831
0.89551727
0.83773223
0.79104448
0.75407757
0.7257595
0.70528257
0.69207177
0.68576238
0.68614692
0.69281444
0.70703642
0.72878634
0.75889987
0.79870875
0.85034006
0.91725529
1.0046395
1.1177431
1.2522227
1.4055785
1.5804339
1.7791256
1.9962832
2.2149918
2.4123906
2.5697006
2.6760686
2.7266007
2.7230267
2.6806223
2.602386
2.510683
2.420031
2.338936
2.2694584
2.2117265
2.1660016
2.1323223
2.110619
2.1007793
2.1026412
2.1159807
2.1414554
2.1790062
2.2289893
2.2919657
2.3687076
2.4602325
2.5678493
2.6932199
2.8383864
3.0059453
3.1991474
3.4220803
3.6799234
3.9793107
4.3288437
4.7398392
5.2274419
5.8123205
6.5233103
7.4016802
8.5082638
23.109559
20.388545
18.0716
16.068144
14.307392
12.739178
11.326365
10.043367
8.8747141
7.8134868
6.8586925
6.0102311
5.2609457
4.5978413
4.0114863
3.4962068
3.0465639
2.6570434
2.3219827
2.0356392
1.7923182
1.5865529
1.4132721
1.2678657
1.1462364
1.0448355
0.96064769
0.89115322
0.8342786
0.78834325
0.75200843
0.72423176
0.70422904
0.69144412
0.68552706
0.6862438
0.69329249
0.70786632
0.72997819
0.76048234
0.80073311
0.85289227
0.92048964
1.0088441
1.1233541
1.2596538
1.415119
1.5922275
1.7935398
2.0139802
2.2364456
2.4373408
2.5972495
2.7051944
2.7563267
2.752272
2.7081711
2.6271211
2.5322277
2.4384905
2.3547754
2.283145
2.2235886
2.1762959
2.1412523
2.1183438
2.1074218
2.1083329
2.12073
2.1453158
2.1820401
2.2312213
2.2934102
2.3693703
2.4601159
2.566955
2.6915137
2.835876
3.0026373
3.1950545
3.4172321
3.6743821
3.9731888
4.3223311
4.7332461
5.2212669
5.8073635
6.5208724
7.4039051
8.5186815
23.202577
20.450703
18.10759
16.081182
14.302237
12.718744
11.29365
10.001596
8.8273464
7.7641141
6.8108077
5.9665653
5.2211844
4.5612035
3.9785337
3.4672546
3.0216422
2.6359514
2.3043693
2.02108
1.7803629
1.5767733
1.405287
1.2613449
1.140906
1.0404743
0.95708084
0.88824437
0.83192264
0.78645995
0.75053727
0.72312776
0.70345972
0.69098763
0.68537152
0.68635785
0.69373342
0.70862984
0.73109147
0.76198573
0.80268613
0.85538742
0.92368687
1.0130429
1.1290547
1.2673491
1.4251425
1.6047564
1.8089453
2.0328727
2.2591794
2.4634839
2.6257312
2.7348754
2.7862009
2.7813573
2.7351431
2.6509255
2.5525925
2.4556439
2.3692734
2.2955024
2.2341472
2.1853293
2.1489819
2.1249331
2.1129921
2.1130088
2.1245186
2.1482625
2.1841979
2.2326073
2.2940312
2.3692316
2.4592183
2.5652669
2.6890367
2.8326015
2.9985637
3.190192
3.4116116
3.6680669
3.9662936
4.315051
4.7259013
5.2143756
5.8017601
6.5179073
7.4057898
8.5290877
23.288369
20.504745
18.135207
16.086301
14.286594
12.685008
11.244585
9.9404537
8.7580036
7.6908206
6.7374979
5.8960644
5.1550557
4.5004687
3.9239624
3.4192347
2.9802149
2.600859
2.2751217
1.9970335
1.7608039
1.5609945
1.3926284
1.2512204
1.1328204
1.0340228
0.95194018
0.88416122
0.82870083
0.78394901
0.74862263
0.72172307
0.702501
0.69042893
0.68518185
0.68648388
0.69422867
0.70947277
0.73230077
0.76359727
0.80475795
0.8580129
0.92702934
1.0173918
1.1348586
1.2751987
1.4354738
1.6176845
1.8248272
2.0523145
2.2825298
2.490249
2.6547099
2.764784
2.8159463
2.8100142
2.7612639
2.6735256
2.5715216
2.4712789
2.3822442
2.3063523
2.2432545
2.1929842
2.1554036
2.1302842
2.1173919
2.1165437
2.1272729
2.1502318
2.1854271
2.2331098
2.2938223
2.3683115
2.4575555
2.5628618
2.6858779
2.8286804
2.9938783
3.1847537
3.4054531
3.6612561
3.9589523
4.307385
4.7182479