/*--------------------------------*- C++ -*----------------------------------*\
| =========                 |                                                 |
| \\      /  F ield         | OpenFOAM: The Open Source CFD Toolbox           |
|  \\    /   O peration     | Version:  2.4.0                                 |
|   \\  /    A nd           | Web:      www.OpenFOAM.org                      |
|    \\/     M anipulation  |                                                 |
\*---------------------------------------------------------------------------*/
FoamFile
{
    version     2.0;
    format      ascii;
    class       surfaceScalarField;
    location    "5000";
    object      phi;
}
// * * * * * * * * * * * * * * * * * * * * * * * * * * * * * * * * * * * * * //

dimensions      [0 3 -1 0 0 0 0];

internalField   nonuniform List<scalar> 
30950
(
-2.6384197e-06
-1.0148655e-06
3.6516871e-06
-3.1151208e-07
-9.2945533e-06
-3.0708821e-06
1.1350587e-05
-1.2569067e-06
-1.7601282e-05
-5.7191284e-06
2.024953e-05
-2.6258405e-06
-2.7680195e-05
-8.771387e-06
3.0732449e-05
-4.0217128e-06
-3.9776234e-05
-1.1968506e-05
4.2973355e-05
-4.9998385e-06
-5.4009773e-05
-1.4975455e-05
5.7016727e-05
-5.1154607e-06
-7.0217214e-05
-1.7409671e-05
7.2651436e-05
-3.9745445e-06
-8.7921671e-05
-1.89073e-05
8.9419304e-05
-1.277111e-06
-0.00010655171
-1.9183795e-05
0.00010682821
3.137973e-06
-0.00012565513
-1.807753e-05
0.00012454886
9.2637644e-06
-0.00014496419
-1.554349e-05
0.00014243015
1.694151e-05
-0.00016433802
-1.1630163e-05
0.00016042469
2.591264e-05
-0.00018370448
-6.4544542e-06
0.00017852877
3.5877924e-05
-0.00020304061
-1.7459225e-07
0.00019676075
4.6547703e-05
-0.00022236898
7.0421182e-06
0.00021515227
5.7672982e-05
-0.00024173876
1.5041276e-05
0.00023373961
6.9073867e-05
-0.00026124158
2.3693769e-05
0.00025258909
8.0628181e-05
-0.0002809871
3.2900966e-05
0.00027177993
9.2262544e-05
-0.000301093
4.2593257e-05
0.00029140073
0.00010393895
-0.00032161898
0.00031162408
5.2588184e-05
0.00011568659
4.7393157e-07
6.0201824e-08
-5.3412692e-07
4.1063541e-07
6.3294888e-08
4.3454094e-07
-2.390503e-08
5.1450202e-07
-7.9961824e-08
5.9381953e-07
-7.931828e-08
6.616806e-07
-6.7861987e-08
7.0174927e-07
-4.0069797e-08
7.1970936e-07
-1.7961855e-08
7.2170439e-07
-1.9963012e-09
7.1276287e-07
8.9388425e-09
6.935324e-07
1.9228884e-08
6.6634062e-07
2.7188849e-08
6.3181574e-07
3.4523481e-08
5.9228126e-07
3.9532736e-08
5.5711165e-07
3.516179e-08
5.44227e-07
1.2892495e-08
5.6483448e-07
-2.060523e-08
6.1854818e-07
-5.3708958e-08
7.1321108e-07
-9.4658875e-08
8.6034435e-07
-1.4712444e-07
1.0475652e-06
-1.8721287e-07
1.203777e-06
-1.5621036e-07
1.4616226e-06
-2.5784324e-07
1.700548e-06
-2.3892621e-07
3.0419661e-07
1.3963581e-06
-2.6010937e-06
2.9052766e-06
1.0505877e-06
1.5419455e-06
2.8579219e-07
-1.7675296e-06
1.3580786e-06
2.4715992e-07
1.4127168e-06
-7.8542825e-08
1.6564723e-06
-3.2371851e-07
1.8952031e-06
-3.1805015e-07
2.1032245e-06
-2.7588482e-07
2.2269718e-06
-1.6381872e-07
2.2835529e-06
-7.4545503e-08
2.2905087e-06
-8.9540453e-09
2.2632583e-06
3.6185561e-08
2.2041939e-06
7.8290884e-08
2.1196909e-06
1.1168791e-07
2.0123671e-06
1.4184513e-07
1.8887445e-06
1.6315289e-07
1.7795149e-06
1.4438311e-07
1.7363172e-06
5.6098068e-08
1.7986434e-06
-8.2929067e-08
1.9596548e-06
-2.1471499e-07
2.2548642e-06
-3.8986374e-07
2.6974297e-06
-5.8968005e-07
3.2797617e-06
-7.6953611e-07
3.7334285e-06
-6.0987561e-07
4.544339e-06
-1.0687516e-06
4.9083376e-06
-6.0292614e-07
2.3591895e-07
6.0687847e-06
-8.624972e-06
1.1766151e-05
3.7761959e-06
2.8075695e-06
7.1712416e-07
-3.2388947e-06
2.4896307e-06
5.6509698e-07
2.5644294e-06
-1.53341e-07
2.9780365e-06
-7.3732671e-07
3.384571e-06
-7.2458576e-07
3.7424297e-06
-6.3374492e-07
3.957284e-06
-3.786747e-07
4.057041e-06
-1.7430493e-07
4.0704292e-06
-2.2344063e-08
4.0238743e-06
8.2737034e-08
3.9218104e-06
1.8035253e-07
3.7746199e-06
2.5887469e-07
3.5871683e-06
3.2929489e-07
3.3706419e-06
3.7967713e-07
3.1793035e-06
3.3571323e-07
3.0999461e-06
1.3546381e-07
3.2045809e-06
-1.8756105e-07
3.4788069e-06
-4.8893521e-07
3.9906725e-06
-9.0172454e-07
4.7477345e-06
-1.3467317e-06
5.7537131e-06
-1.7755054e-06
6.5210163e-06
-1.3771779e-06
7.8900585e-06
-2.4377924e-06
8.0056006e-06
-7.1846975e-07
-6.4708449e-07
1.4721478e-05
-1.5772794e-05
2.6891845e-05
8.2529262e-06
4.3063054e-06
1.3887164e-06
-4.9778924e-06
3.8306465e-06
1.0407538e-06
3.9168753e-06
-2.3956941e-07
4.5013913e-06
-1.321844e-06
5.083403e-06
-1.3065988e-06
5.599423e-06
-1.1497665e-06
5.9127128e-06
-6.9196645e-07
6.060291e-06
-3.2188594e-07
6.0817979e-06
-4.3853267e-08
6.0151246e-06
1.494062e-07
5.8669058e-06
3.2856845e-07
5.6516607e-06
4.7411535e-07
5.3764015e-06
6.0455154e-07
5.0579936e-06
6.9808219e-07
4.7756432e-06
6.1805599e-07
4.6539297e-06
2.5718438e-07
4.799766e-06
-3.3339468e-07
5.1933436e-06
-8.8250679e-07
5.9346132e-06
-1.642989e-06
7.0269194e-06
-2.4390269e-06
8.4767473e-06
-3.2253235e-06
9.5830328e-06
-2.4834617e-06
1.1469246e-05
-4.3240035e-06
1.0888801e-05
-1.3802675e-07
-2.5243676e-06
2.8134655e-05
-2.4144203e-05
4.8511662e-05
1.4841163e-05
6.0735294e-06
2.3382042e-06
-7.0230114e-06
5.4134461e-06
1.7008351e-06
5.4994235e-06
-3.2554622e-07
6.2520754e-06
-2.0744971e-06
7.0150172e-06
-2.0695418e-06
7.6960211e-06
-1.830772e-06
8.1146633e-06
-1.1106105e-06
8.3147787e-06
-5.2200393e-07
8.3462991e-06
-7.5375684e-08
8.2588621e-06
2.3683936e-07
8.0614409e-06
5.259872e-07
7.772774e-06
7.6277828e-07
7.4018412e-06
9.754823e-07
6.9723087e-06
1.1276123e-06
6.5895876e-06
1.0007701e-06
6.4185354e-06
4.2824388e-07
6.6031888e-06
-5.1804499e-07
7.1210624e-06
-1.4003741e-06
8.1026771e-06
-2.6245982e-06
9.5488141e-06
-3.8851524e-06
1.1458813e-05
-5.135312e-06
1.2926448e-05
-3.9510959e-06
1.5267916e-05
-6.6654706e-06
1.3425403e-05
1.7044845e-06
-5.5915282e-06
4.7151594e-05
-3.3892264e-05
7.6812382e-05
2.3922248e-05
8.1486717e-06
3.6056322e-06
-9.4160955e-06
7.2744126e-06
2.5750919e-06
7.3451056e-06
-3.9623875e-07
8.2585583e-06
-2.9879512e-06
9.2049685e-06
-3.0159533e-06
1.0055764e-05
-2.6815696e-06
1.0585915e-05
-1.6407638e-06
1.0843204e-05
-7.7929514e-07
1.088677e-05
-1.1894509e-07
1.0778105e-05
3.4549976e-07
1.0528594e-05
7.7549525e-07
1.0161242e-05
1.1301255e-06
9.6866524e-06
1.4500688e-06
9.136589e-06
1.6776727e-06
8.6437605e-06
1.4935922e-06
8.4155632e-06
6.5644691e-07
8.6351826e-06
-7.3766137e-07
9.2807338e-06
-2.0459188e-06
1.0511303e-05
-3.8551617e-06
1.2326928e-05
-5.7007649e-06
1.4708784e-05
-7.5171579e-06
1.6555398e-05
-5.7977074e-06
1.9264757e-05
-9.3748281e-06
1.5463899e-05
5.5053404e-06
-1.0037518e-05
7.2653018e-05
-4.5126114e-05
0.00011190096
3.5812852e-05
1.0574684e-05
5.2322629e-06
-1.220131e-05
9.4537539e-06
3.6960196e-06
9.4904188e-06
-4.329031e-07
1.0552015e-05
-4.0495489e-06
1.1680695e-05
-4.1446342e-06
1.2703454e-05
-3.7043308e-06
1.3350129e-05
-2.2874407e-06
1.3668946e-05
-1.0981146e-06
1.3726715e-05
-1.7671759e-07
1.3596578e-05
4.7563281e-07
1.3292361e-05
1.0797101e-06
1.284123e-05
1.5812519e-06
1.2255039e-05
2.0362571e-06
1.1575012e-05
2.3576973e-06
1.0962094e-05
2.106505e-06
1.0668164e-05
9.5038299e-07
1.0917234e-05
-9.867277e-07
1.1691846e-05
-2.820524e-06
1.3177036e-05
-5.3403452e-06
1.5373934e-05
-7.8976508e-06
1.8233928e-05
-1.0377142e-05
2.0470303e-05
-8.0340814e-06
2.3431824e-05
-1.2336349e-05
1.6841527e-05
1.2095636e-05
-1.6020167e-05
0.00010551472
-5.7836468e-05
0.00015371724
5.0627814e-05
1.3396461e-05
7.2586643e-06
-1.5422859e-05
1.1994405e-05
5.0980723e-06
1.1974352e-05
-4.1284882e-07
1.3165379e-05
-5.2405774e-06
1.4470499e-05
-5.4497561e-06
1.5664102e-05
-4.8979348e-06
1.643069e-05
-3.0540319e-06
1.6814929e-05
-1.4823565e-06
1.6889148e-05
-2.5094036e-07
1.6737626e-05
6.2715066e-07
1.6376485e-05
1.4408469e-06
1.5836954e-05
2.1207775e-06
1.5131488e-05
2.7417192e-06
1.4312326e-05
3.1768564e-06
1.3569297e-05
2.8495288e-06
1.3200318e-05
1.3193669e-06
1.3471577e-05
-1.257983e-06
1.4374155e-05
-3.7230952e-06
1.6115965e-05
-7.0821484e-06
1.8700974e-05
-1.0482647e-05
2.203903e-05
-1.3715187e-05
2.4666867e-05
-1.0661916e-05
2.7732192e-05
-1.5401673e-05
1.7394294e-05
2.2433532e-05
-2.3633476e-05
0.0001465425
-7.1847341e-05
0.00020193109
6.8199768e-05
1.6657487e-05
9.7218573e-06
-1.9120677e-05
1.4939453e-05
6.8161043e-06
1.4836038e-05
-3.0943367e-07
1.613108e-05
-6.5356203e-06
1.7601262e-05
-6.9199404e-06
1.8960592e-05
-6.2572667e-06
1.9848463e-05
-3.9419055e-06
2.0301439e-05
-1.9353354e-06
2.0394532e-05
-3.4403607e-07
2.0222265e-05
7.9941298e-07
1.9802781e-05
1.8603272e-06
1.9170987e-05
2.7525672e-06
1.8339328e-05
3.5733759e-06
1.7372577e-05
4.1436041e-06
1.6489815e-05
3.7322875e-06
1.6035966e-05
1.7732209e-06
1.6320219e-05
-1.5422322e-06
1.7346688e-05
-4.7495567e-06
1.9342616e-05
-9.0780695e-06
2.2316281e-05
-1.3456299e-05
2.6124861e-05
-1.7523755e-05
2.9134484e-05
-1.3671539e-05
3.211618e-05
-1.8383369e-05
1.6971096e-05
3.7578614e-05
-3.2886582e-05
0.00019640018
-8.6869003e-05
0.00025591349
8.8158972e-05
2.0393957e-05
1.2651373e-05
-2.3323469e-05
1.8327255e-05
8.8828032e-06
1.8110231e-05
-9.2408845e-08
1.9476825e-05
-7.9022162e-06
2.1094327e-05
-8.5374438e-06
2.2609805e-05
-7.7727463e-06
2.3617978e-05
-4.9500816e-06
2.4142412e-05
-2.4597724e-06
2.4257319e-05
-4.5894727e-07
2.4065973e-05
9.9075341e-07
2.3588072e-05
2.3382233e-06
2.286162e-05
3.4790144e-06
2.1898329e-05
4.5366627e-06
2.0777083e-05
5.2648467e-06
1.9746003e-05
4.763364e-06
1.9197303e-05
2.3219244e-06
1.9483536e-05
-1.8284618e-06
2.0626172e-05
-5.8921851e-06
2.2868268e-05
-1.1320157e-05
2.6223301e-05
-1.6811318e-05
3.0486218e-05
-2.178666e-05
3.3854247e-05
-1.7039564e-05
3.6515507e-05
-2.1044629e-05
1.5447725e-05
5.8646393e-05
-4.3712518e-05
0.00025556043
-0.00010261795
0.00031481891
0.00011008988
2.4626221e-05
1.6064546e-05
-2.8039393e-05
2.2183878e-05
1.1325144e-05
2.182029e-05
2.7117906e-07
2.3219156e-05
-9.301084e-06
2.495955e-05
-1.0277839e-05
2.6616898e-05
-9.430097e-06
2.7742053e-05
-6.0752393e-06
2.8340352e-05
-3.0580751e-06
2.8481026e-05
-5.9962486e-07
2.8274075e-05
1.1976996e-06
2.7739913e-05
2.8723814e-06
2.6918852e-05
4.3000712e-06
2.5821138e-05
5.6343735e-06
2.4541254e-05
6.5447279e-06
2.335533e-05
5.9492855e-06
2.2702288e-05
2.9749713e-06
2.2977674e-05
-2.1038438e-06
2.4224591e-05
-7.1390946e-06
2.669842e-05
-1.3793977e-05
3.0417909e-05
-2.0530793e-05
3.5109147e-05
-2.6477887e-05
3.8796577e-05
-2.0726994e-05
4.0833547e-05
-2.30816e-05
1.2731794e-05
8.6748144e-05
-5.5997137e-05
0.00032428937
-0.00011889472
0.00037771648
0.00013362531
2.934929e-05
1.996216e-05
-3.3246902e-05
2.6513486e-05
1.4160943e-05
2.5969207e-05
8.1545914e-07
2.7355799e-05
-1.0687677e-05
2.9188376e-05
-1.2110417e-05
3.0969086e-05
-1.1210808e-05
3.2205843e-05
-7.3120003e-06
3.2880587e-05
-3.7328231e-06
3.3052675e-05
-7.7171709e-07
3.2836291e-05
1.4140787e-06
3.2251409e-05
3.457257e-06
3.1339341e-05
5.2121342e-06
3.0108646e-05
6.8650636e-06
2.8670442e-05
7.9829292e-06
2.732656e-05
7.2931651e-06
2.6560958e-05
3.7405761e-06
2.681129e-05
-2.3541716e-06
2.814585e-05
-8.4736469e-06
3.0829502e-05
-1.6477619e-05
3.4885348e-05
-2.4586625e-05
3.9968292e-05
-3.1560818e-05
4.391906e-05
-2.4677758e-05
4.4929586e-05
-2.4092127e-05
8.7517121e-06
0.00012292602
-6.9601843e-05
0.00040264292
-0.00013559021
0.00044370483
0.00015845979
3.4526711e-05
2.4326186e-05
-3.8890734e-05
3.1291562e-05
1.7396088e-05
3.0533415e-05
1.5736057e-06
3.1860361e-05
-1.2014625e-05
3.3749539e-05
-1.3999596e-05
3.5631736e-05
-1.3093008e-05
3.6973122e-05
-8.6533906e-06
3.7727294e-05
-4.4869979e-06
3.7938679e-05
-9.8310608e-07
3.7722481e-05
1.6302731e-06
3.7096662e-05
4.0830715e-06
3.610195e-05
6.2068424e-06
3.4745492e-05
8.2215177e-06
3.315539e-05
9.5730292e-06
3.1655321e-05
8.793234e-06
3.0771281e-05
4.6246191e-06
3.0981441e-05
-2.5643273e-06
3.2381999e-05
-9.8741977e-06
3.5245493e-05
-1.9341103e-05
3.9597608e-05
-2.8938727e-05
4.5025421e-05
-3.698862e-05
4.9165402e-05
-2.881774e-05
4.8592873e-05
-2.3519597e-05
3.4328264e-06
0.00016808606
-8.4364638e-05
0.0004904404
-0.00015265867
0.00051199886
0.00018432989
4.0092905e-05
2.9121092e-05
-4.488781e-05
3.6465222e-05
2.1023767e-05
3.5463559e-05
2.5752698e-06
3.6683796e-05
-1.3234863e-05
3.8591316e-05
-1.5907118e-05
4.0550928e-05
-1.5052622e-05
4.1988544e-05
-1.0091011e-05
4.2825198e-05
-5.3236553e-06
4.3085471e-05
-1.243385e-06
4.2882234e-05
1.8335045e-06
4.2229486e-05
4.7358137e-06
4.1165647e-05
7.2706755e-06
3.9697307e-05
9.6898528e-06
3.796899e-05
1.1301343e-05
3.6320391e-05
1.0441833e-05
3.5315347e-05
5.6296641e-06
3.5470009e-05
-2.7189827e-06
3.69102e-05
-1.1314381e-05
3.9915733e-05
-2.2346625e-05
4.4512892e-05
-3.3535871e-05
5.0230652e-05
-4.2706368e-05
5.446689e-05
-3.3053974e-05
5.1499942e-05
-2.0552651e-05
-3.3300046e-06
0.00022291601
-0.00010007247
0.00058718286
-0.00017008984
0.00058201621
0.00021100079
4.5965377e-05
3.4298492e-05
-5.1142777e-05
4.1962935e-05
2.5026206e-05
4.0694211e-05
3.8439937e-06
4.1764624e-05
-1.4305278e-05
4.3652138e-05
-1.7794634e-05
4.5663884e-05
-1.706437e-05
4.7187415e-05
-1.1614545e-05
4.8108254e-05
-6.2444974e-06
4.8427067e-05
-1.562203e-06
4.8250983e-05
2.0095854e-06
4.7587981e-05
5.3988106e-06
4.6472656e-05
8.3859966e-06
4.4912392e-05
1.1250113e-05
4.3066184e-05
1.3147551e-05
4.1282752e-05
1.2225264e-05
4.0157729e-05
6.7546903e-06
4.0242192e-05
-2.8034407e-06
4.1692008e-05
-1.2764188e-05
4.4795655e-05
-2.5450261e-05
4.9579061e-05
-3.8319263e-05
5.5528132e-05
-4.8655429e-05
5.9748057e-05
-3.7273899e-05
5.335234e-05
-1.4156934e-05
-1.163524e-05
0.00028790358
-0.00011655312
0.00069210074
-0.0001878922
0.00065335529
0.00023826087
5.2061661e-05
3.9803452e-05
-5.7566617e-05
4.771015e-05
2.9377711e-05
4.6158996e-05
5.3951528e-06
4.7043506e-05
-1.518979e-05
4.8875046e-05
-1.9626174e-05
5.0913163e-05
-1.9102489e-05
5.2509771e-05
-1.3211159e-05
5.351336e-05
-7.2480898e-06
5.38978e-05
-1.9466506e-06
5.376166e-05
2.1457188e-06
5.3104705e-05
6.0557583e-06
5.1957354e-05
9.5333407e-06
5.0328644e-05
1.2878819e-05
4.8388846e-05
1.5087344e-05
4.6488588e-05
1.4125526e-05
4.5248027e-05
7.9952507e-06
4.5248924e-05
-2.8043284e-06
4.6676674e-05
-1.4191928e-05
4.9831764e-05
-2.8605336e-05
5.4741094e-05
-4.3228575e-05
6.0865216e-05
-5.4779545e-05
6.4936052e-05
-4.1344726e-05
5.4026896e-05
-3.247788e-06
-2.1518984e-05
0.00036344945
-0.00013376568
0.00080434745
-0.00020608527
0.00072567486
0.0002659152
5.8313392e-05
4.5580512e-05
-6.4090455e-05
5.3643198e-05
3.4047904e-05
5.1803376e-05
7.2349726e-06
5.2474905e-05
-1.586132e-05
5.421885e-05
-2.1370122e-05
5.6258115e-05
-2.1141757e-05
5.791221e-05
-1.4865259e-05
5.8992719e-05
-8.3286032e-06
5.9445081e-05
-2.3990181e-06
5.9357323e-05
2.2334717e-06
5.8719133e-05
6.6939423e-06
5.7557752e-05
1.0694717e-05
5.5883639e-05
1.4552928e-05
5.3874328e-05
1.7096654e-05
5.1876864e-05
1.6122993e-05
5.0527253e-05
9.3448633e-06
5.0433172e-05
-2.7102391e-06
5.1808308e-05
-1.5567055e-05
5.496996e-05
-3.1766971e-05
5.9950826e-05
-4.820943e-05
6.6202159e-05
-6.1030866e-05
6.9969389e-05
-4.5111956e-05
5.3375323e-05
1.3346273e-05
-3.3065218e-05
0.00044989
-0.00015169351
0.00092297574
-0.00022469831
0.00079867965
0.00029380599
6.4673223e-05
5.1578334e-05
-7.0671033e-05
5.9716569e-05
3.9004546e-05
5.7590558e-05
9.3609936e-06
5.8031541e-05
-1.6302303e-05
5.966199e-05
-2.3000573e-05
6.1678566e-05
-2.3158333e-05
6.3372485e-05
-1.6559187e-05
6.4519707e-05
-9.4758293e-06
6.5036753e-05
-2.9160732e-06
6.4999764e-05
2.2704542e-06
6.438739e-05
7.3063083e-06
6.3225528e-05
1.185657e-05
6.1524584e-05
1.6253869e-05
5.9465693e-05
1.9155536e-05
5.7388751e-05
1.8199946e-05
5.5937043e-05
1.0796567e-05
5.5738842e-05
-2.5120227e-06
5.7034728e-05
-1.6862928e-05
6.016467e-05
-3.4896897e-05
6.5174985e-05
-5.3219719e-05
7.1518164e-05
-6.7374049e-05
7.4790719e-05
-4.8384488e-05
5.115403e-05
3.6982935e-05
-4.6469883e-05
0.00054751389
-0.00017034109
0.001046847
-0.00024376811
0.00087210667
0.00032181781
7.1115087e-05
5.775258e-05
-7.7289321e-05
6.5903662e-05
4.421596e-05
6.3501101e-05
1.1763565e-05
6.3702828e-05
-1.6504031e-05
6.5199912e-05
-2.4497656e-05
6.7172422e-05
-2.5130844e-05
6.8887622e-05
-1.8274396e-05
7.008807e-05
-1.0676282e-05
7.0661593e-05
-3.4896057e-06
7.0671802e-05
2.2602379e-06
7.0086014e-05
7.8920877e-06
6.8931047e-05
1.3011527e-05
6.7214785e-05
1.7970126e-05
6.5119217e-05
2.1251096e-05
6.2975956e-05
2.0343217e-05
6.1427904e-05
1.2344616e-05
6.1118932e-05
-2.2030362e-06
6.2315174e-05
-1.8059155e-05
6.5385222e-05
-3.7966927e-05
7.0398865e-05
-5.8233337e-05
7.6811902e-05
-7.3787088e-05
7.9348515e-05
-5.0921081e-05
4.7018197e-05
6.9313231e-05
-6.2046169e-05
0.00065657822
-0.0001897341
0.0011745349
-0.00026333848
0.00094571103
0.00034988007
7.76412e-05
-8.3933694e-05
6.4045087e-05
7.2185585e-05
4.9671564e-05
6.9533267e-05
1.4415895e-05
6.948956e-05
-1.6460322e-05
7.084162e-05
-2.5849716e-05
7.2750821e-05
-2.7040044e-05
7.4469079e-05
-1.9992661e-05
7.5707142e-05
-1.1914349e-05
7.6325441e-05
-4.1079133e-06
7.6374406e-05
2.2112642e-06
7.5810526e-05
8.4559596e-06
7.4663443e-05
1.41586e-05
7.2935073e-05
1.969849e-05
7.0808148e-05
2.3378012e-05
6.8605012e-05
2.2546361e-05
6.6964814e-05
1.3984811e-05
6.6539971e-05
-1.7781802e-06
6.7624991e-05
-1.9144162e-05
7.0616129e-05
-4.095805e-05
7.5626494e-05
-6.3243677e-05
8.209519e-05
-8.0255784e-05
8.3576463e-05
-5.2402334e-05
4.0394511e-05
0.00011249517
-8.0315923e-05
0.00077728862
-0.00020992423
0.0013041432
-0.00028343541
0.0010192222
0.00037806875
1.2093301e-06
-4.4327747e-08
-1.1649924e-06
1.2561577e-06
-4.6833242e-08
1.3000025e-06
-4.3834994e-08
1.3437061e-06
-4.3712071e-08
1.3852056e-06
-4.1492713e-08
1.4248839e-06
-3.9688906e-08
1.4618306e-06
-3.6946365e-08
1.4958345e-06
-3.4005077e-08
1.5263424e-06
-3.0507551e-08
1.5530125e-06
-2.6671449e-08
1.57543e-06
-2.2417849e-08
1.5932711e-06
-1.7842792e-08
1.6062201e-06
-1.2948977e-08
1.6140128e-06
-7.7937675e-09
1.6164032e-06
-2.3905423e-09
1.6132474e-06
3.1547154e-09
1.6044e-06
8.8468656e-09
1.5896601e-06
1.4738512e-08
1.5688063e-06
2.0852789e-08
1.5416798e-06
2.7124929e-08
1.5080709e-06
3.3607456e-08
1.4678148e-06
4.0254396e-08
1.4205724e-06
4.7240766e-08
1.3660056e-06
5.4565019e-08
1.3032123e-06
6.2791365e-08
1.2305852e-06
7.262541e-08
1.1458019e-06
8.4781357e-08
1.0429624e-06
1.0283735e-07
9.2018076e-07
1.2277792e-07
7.4829085e-07
1.7188834e-07
2.1415374e-07
3.7748938e-06
-1.869403e-07
-3.6322695e-06
3.9212783e-06
-1.932229e-07
4.0613497e-06
-1.838951e-07
4.1989655e-06
-1.813365e-07
4.3311279e-06
-1.7364762e-07
4.4568508e-06
-1.6542312e-07
4.5746927e-06
-1.5478795e-07
4.6831497e-06
-1.4246366e-07
4.7810167e-06
-1.2837443e-07
4.866917e-06
-1.1257389e-07
4.9397365e-06
-9.5238253e-08
4.9983455e-06
-7.6454485e-08
5.0418123e-06
-5.6416215e-08
5.0692518e-06
-3.5235253e-08
5.079908e-06
-1.3047334e-08
5.0732826e-06
9.7783064e-09
5.0489431e-06
3.3185302e-08
5.0061903e-06
5.748929e-08
4.9443773e-06
8.2664301e-08
4.8628586e-06
1.086415e-07
4.7611499e-06
1.3531423e-07
4.6383768e-06
1.6302515e-07
4.4940118e-06
1.9160365e-07
4.3260355e-06
2.2253891e-07
4.1332115e-06
2.5561293e-07
3.9078903e-06
2.9794421e-07
3.647477e-06
3.4519216e-07
3.3257068e-06
4.2460474e-07
2.9506538e-06
4.9782609e-07
2.4061591e-06
7.1638079e-07
8.5277178e-07
6.6113104e-06
-4.4161093e-07
-6.3566276e-06
6.8694683e-06
-4.5138659e-07
7.1187723e-06
-4.3318753e-07
7.3624153e-06
-4.2498882e-07
7.5975228e-06
-4.0874733e-07
7.820957e-06
-3.8886931e-07
8.0310972e-06
-3.6492767e-07
8.2247926e-06
-3.3616049e-07
8.4002542e-06
-3.038357e-07
8.5548858e-06
-2.6720732e-07
8.6868382e-06
-2.2719128e-07
8.7940548e-06
-1.8367352e-07
8.8749218e-06
-1.3728333e-07
8.9278384e-06
-8.8153555e-08
8.9514613e-06
-3.667053e-08
8.9448605e-06
1.6377596e-08
8.9072824e-06
7.0762521e-08
8.837447e-06
1.2732276e-07
8.7342188e-06
1.8589116e-07
8.5963514e-06
2.4650675e-07
8.4230692e-06
3.0859458e-07
8.2126042e-06
3.7348779e-07
7.9643159e-06
4.3988987e-07
7.6740847e-06
5.127677e-07
7.3406583e-06
5.8903694e-07
6.9491808e-06
6.8941935e-07
6.497786e-06
7.9658455e-07
5.9362709e-06
9.8611711e-07
5.2860762e-06
1.148016e-06
4.3314126e-06
1.6710422e-06
1.9452776e-06
9.7281635e-06
-8.225499e-07
-9.3472132e-06
1.0112025e-05
-8.3525229e-07
1.0484233e-05
-8.0538449e-07
1.0847466e-05
-7.8822988e-07
1.1198725e-05
-7.6000029e-07
1.1532831e-05
-7.2298565e-07
1.1847759e-05
-6.7985532e-07
1.2138722e-05
-6.2712526e-07
1.2403187e-05
-5.683016e-07
1.2637289e-05
-5.0131136e-07
1.283832e-05
-4.2822321e-07
1.3003219e-05
-3.4857563e-07
1.3129587e-05
-2.6365186e-07
1.3215024e-05
-1.7359302e-07
1.3257497e-05
-7.9144094e-08
1.325555e-05
1.8322358e-08
1.3208055e-05
1.1825619e-07
1.3113101e-05
2.2227477e-07
1.2968953e-05
3.3003705e-07
1.2773696e-05
4.4176174e-07
1.2526142e-05
5.5614617e-07
1.2223588e-05
6.7603907e-07
1.1865088e-05
7.9838755e-07
1.1444424e-05
9.334287e-07
1.095991e-05
1.0735489e-06
1.0389569e-05
1.2597577e-06
9.7310883e-06
1.4550622e-06
8.910598e-06
1.8066044e-06
7.9592273e-06
2.0993816e-06
6.5621684e-06
3.0680987e-06
3.5295428e-06
1.3131313e-05
-1.3450964e-06
-1.2608756e-05
1.3655915e-05
-1.3598589e-06
1.4165802e-05
-1.3152605e-06
1.4663329e-05
-1.2857654e-06
1.514509e-05
-1.241755e-06
1.5604018e-05
-1.1819247e-06
1.6037438e-05
-1.1132748e-06
1.6438958e-05
-1.028647e-06
1.6805132e-05
-9.3447453e-07
1.7130776e-05
-8.2695764e-07
1.7412196e-05
-7.0964428e-07
1.7645249e-05
-5.8163029e-07
1.7826635e-05
-4.4503875e-07
1.7953069e-05
-3.0002802e-07
1.8021715e-05
-1.4779085e-07
1.8030455e-05
9.5815749e-09
1.7977715e-05
1.7099467e-07
1.7860931e-05
3.3905713e-07
1.7677642e-05
5.1332487e-07
1.7425183e-05
6.9421812e-07
1.7101818e-05
8.7950898e-07
1.6703864e-05
1.0739909e-06
1.6229841e-05
1.2724078e-06
1.5671461e-05
1.4918068e-06
1.5026109e-05
1.7188976e-06
1.4264893e-05
2.0209714e-06
1.3383674e-05
2.3362789e-06
1.2285582e-05
2.9046933e-06
1.1006911e-05
3.3780479e-06
9.1361713e-06
4.9388361e-06
5.6426917e-06
1.6818265e-05
-2.0255273e-06
-1.6137824e-05
1.7499569e-05
-2.0411648e-06
1.816286e-05
-1.9785421e-06
1.8810379e-05
-1.9332913e-06
1.943802e-05
-1.8693916e-06
2.0037022e-05
-1.7809353e-06
2.0603804e-05
-1.6800566e-06
2.1130422e-05
-1.5552666e-06
2.161234e-05
-1.4163932e-06
2.2043024e-05
-1.2576448e-06
2.2417658e-05
-1.0842796e-06
2.2730933e-05
-8.9490886e-07
2.2978537e-05
-6.9264258e-07
2.3156194e-05
-4.7768759e-07
2.3260169e-05
-2.5176683e-07
2.3287461e-05
-1.7713151e-08
2.3235961e-05
2.2249314e-07
2.310247e-05
4.7254579e-07
2.2883651e-05
7.3214277e-07
2.2576e-05
1.0018665e-06
2.2177067e-05
1.2784392e-06
2.1682138e-05
1.5689171e-06
2.1088938e-05
1.8656053e-06
2.0387141e-05
2.1936002e-06
1.9572661e-05
2.5333749e-06
1.8609977e-05
2.9836529e-06
1.7491591e-05
3.4546617e-06
1.6098644e-05
4.297637e-06
1.4467368e-05
5.0093183e-06
1.2093516e-05
7.3126862e-06
8.3201019e-06
2.0769996e-05
-2.8805042e-06
-1.9915009e-05
2.1624341e-05
-2.8955134e-06
2.2457238e-05
-2.8114301e-06
2.3270975e-05
-2.7470349e-06
2.4060506e-05
-2.6589179e-06
2.4815578e-05
-2.5360162e-06
2.5531491e-05
-2.3959685e-06
2.6198809e-05
-2.2225867e-06
2.6811757e-05
-2.0293408e-06
2.7362418e-05
-1.8083078e-06
2.7844729e-05
-1.5665914e-06
2.8252138e-05
-1.3023205e-06
2.8579194e-05
-1.0196992e-06
2.8820533e-05
-7.1902861e-07
2.8971407e-05
-4.0264022e-07
2.9027673e-05
-7.3981199e-08
2.8986538e-05
2.6362743e-07
2.8844193e-05
6.1488799e-07
2.8596275e-05
9.8005929e-07
2.8238328e-05
1.3598109e-06
2.7766998e-05
1.7497671e-06
2.7176458e-05
2.159454e-06
2.6463343e-05
2.5787187e-06
2.5615311e-05
3.0416286e-06
2.4626213e-05
3.5224706e-06
2.3454244e-05
4.1556187e-06
2.2086932e-05
4.8219706e-06
2.0384682e-05
5.9998844e-06
1.8377967e-05
7.016028e-06
1.5475018e-05
1.0215634e-05
1.1593799e-05
2.4938432e-05
-3.9259179e-06
-2.3893008e-05
2.5981398e-05
-3.9384807e-06
2.6999557e-05
-3.8295804e-06
2.7995269e-05
-3.7427515e-06
2.8962446e-05
-3.6260913e-06
2.9889539e-05
-3.4631164e-06
3.0770595e-05
-3.2770247e-06
3.1594768e-05
-3.0467612e-06
3.2354932e-05
-2.7895054e-06
3.3041775e-05
-2.4951545e-06
3.3647889e-05
-2.1727064e-06
3.4165403e-05
-1.8198383e-06
3.4587614e-05
-1.4419112e-06
3.4907955e-05
-1.0393723e-06
3.5120526e-05
-6.1521152e-07
3.5219801e-05
-1.7325943e-07
3.5202073e-05
2.8135397e-07
3.5062871e-05
7.5408731e-07
3.4796692e-05
1.2462364e-06
3.4397975e-05
1.7585249e-06
3.3862235e-05
2.2855048e-06
3.3182401e-05
2.8392842e-06
3.2353683e-05
3.4074343e-06
3.1361696e-05
4.0336122e-06
3.0197621e-05
4.686543e-06
2.8813707e-05
5.5395288e-06
2.7190907e-05
6.4447671e-06
2.5170262e-05
8.0205263e-06
2.2770627e-05
9.4156571e-06
1.9318886e-05
1.3667372e-05
1.5489817e-05
2.9234124e-05
-5.1750232e-06
-2.798501e-05
3.0478694e-05
-5.1830522e-06
3.1695555e-05
-5.0464343e-06
3.2886893e-05
-4.9340952e-06
3.4045735e-05
-4.78493e-06
3.5159377e-05
-4.5767647e-06
3.6220643e-05
-4.3382894e-06
3.721735e-05
-4.0434705e-06
3.8141012e-05
-3.713166e-06
3.8980926e-05
-3.335071e-06
3.9728287e-05
-2.9200673e-06
4.0373852e-05
-2.4654058e-06
4.0909569e-05
-1.9776286e-06
4.1327559e-05
-1.4573637e-06
4.1620629e-05
-9.0828156e-07
4.1781655e-05
-3.3428718e-07
4.1805673e-05
2.57335e-07
4.1687402e-05
8.7235607e-07
4.1420139e-05
1.5134985e-06
4.0997007e-05
2.1816541e-06
4.0412128e-05
2.8703815e-06
3.9656971e-05
3.5944384e-06
3.8724962e-05
4.3394414e-06
3.7599536e-05
5.1590343e-06
3.6268635e-05
6.0174417e-06
3.4678813e-05
7.1293478e-06
3.2803004e-05
8.3205731e-06
3.046423e-05
1.0359297e-05
2.7664097e-05
1.2215786e-05
2.3654854e-05
1.7676612e-05
2.0023985e-05
3.3528376e-05
-6.6362456e-06
-3.2067145e-05
3.4982829e-05
-6.6375046e-06
3.6407583e-05
-6.471182e-06
3.7804099e-05
-6.3306135e-06
3.9164973e-05
-6.1458019e-06
4.0476415e-05
-5.8882109e-06
4.1730238e-05
-5.5921121e-06
4.2913016e-05
-5.226251e-06
4.4014988e-05
-4.8151379e-06
4.5024115e-05
-4.3442016e-06
4.5930217e-05
-3.8261706e-06
4.6722666e-05
-3.2578585e-06
4.7392014e-05
-2.6469774e-06
4.7928988e-05
-1.994341e-06
4.832499e-05
-1.3042844e-06
4.857119e-05
-5.8049033e-07
4.8660926e-05
1.6759767e-07
4.8587833e-05
9.454462e-07
4.8344032e-05
1.7572974e-06
4.7921076e-05
2.6046067e-06
4.7311417e-05
3.4800381e-06
4.6504761e-05
4.4010909e-06
4.5492399e-05
5.3518014e-06
4.4255322e-05
6.3961072e-06
4.2777756e-05
7.4950051e-06
4.1000671e-05
8.9064282e-06
3.8887881e-05
1.0433361e-05
3.6245599e-05
1.3001575e-05
3.3053239e-05
1.540814e-05
2.8495439e-05
2.223441e-05
2.5195945e-05
3.768593e-05
-8.3117937e-06
-3.6010375e-05
3.9352534e-05
-8.3041089e-06
4.098863e-05
-8.1072738e-06
4.259425e-05
-7.9362368e-06
4.4162211e-05
-7.7137612e-06
4.5677633e-05
-7.4036362e-06
4.7131674e-05
-7.0461518e-06
4.8509754e-05
-6.604333e-06
4.9801045e-05
-6.1064286e-06
5.0992271e-05
-5.5354295e-06
5.2071996e-05
-4.9058954e-06
5.3028267e-05
-4.2141324e-06
5.3850282e-05
-3.468992e-06
5.452737e-05
-2.6714313e-06
5.50495e-05
-1.8264146e-06
5.5406235e-05
-9.3722723e-07
5.5588754e-05
-1.4922488e-08
5.5589261e-05
9.4493747e-07
5.5398856e-05
1.9477003e-06
5.5007277e-05
2.996183e-06
5.4405091e-05
4.082222e-06
5.3579911e-05
5.2262681e-06
5.2520629e-05
6.4110806e-06
5.120544e-05
7.7112934e-06
4.9614587e-05
9.0858548e-06
4.768345e-05
1.0837562e-05
4.5366175e-05
1.2750633e-05
4.2453284e-05
1.5914463e-05
3.8898288e-05
1.8963132e-05
3.3825748e-05
2.7306947e-05
3.0982291e-05
4.1616511e-05
-1.0198225e-05
-3.9730072e-05
4.3492089e-05
-1.0179685e-05
4.533739e-05
-9.95257e-06
4.715046e-05
-9.7493072e-06
4.8924918e-05
-9.4882188e-06
5.0644777e-05
-9.1234975e-06
5.2300896e-05
-8.7022692e-06
5.3877653e-05
-8.1810927e-06
5.5363401e-05
-7.5921766e-06
5.674378e-05
-6.915812e-06
5.8006296e-05
-6.1684114e-06
5.9137816e-05
-5.3456566e-06
6.0126331e-05
-4.4575069e-06
6.0959885e-05
-3.5049887e-06
6.1627114e-05
-2.4936445e-06
6.2116296e-05
-1.4264128e-06
6.2416171e-05
-3.1479824e-07
6.2517209e-05
8.4389526e-07
6.2409773e-05
2.0551352e-06
6.2081663e-05
3.3242896e-06
6.152151e-05
4.6423727e-06
6.0714625e-05
6.0331499e-06
5.9647431e-05
7.4782724e-06
5.8295034e-05
9.0636863e-06
5.6633777e-05
1.074711e-05
5.4593458e-05
1.2877877e-05
5.2118833e-05
1.5225255e-05
4.8985956e-05
1.9047336e-05
4.5120611e-05
2.2828471e-05
3.9596188e-05
3.2831367e-05
3.7331567e-05
4.5301921e-05
-1.2288946e-05
-4.3211195e-05
4.7380219e-05
-1.2257983e-05
4.9429056e-05
-1.2001404e-05
5.144426e-05
-1.1764513e-05
5.342058e-05
-1.1464538e-05
5.5340917e-05
-1.1043836e-05
5.7196079e-05
-1.0557429e-05
5.8969511e-05
-9.9545263e-06
6.0648964e-05
-9.2716295e-06
6.2219161e-05
-8.4860105e-06
6.3666761e-05
-7.616011e-06
6.4977649e-05
-6.6565471e-06
6.6138816e-05
-5.618673e-06
6.7137227e-05
-4.5034027e-06
6.7960392e-05
-3.3168094e-06
6.8595469e-05
-2.0614923e-06
6.9029334e-05
-7.4866333e-07
6.9250632e-05
6.2259401e-07
6.9248732e-05
2.0570341e-06
6.9009893e-05
3.563126e-06
6.8520981e-05
5.1312835e-06
6.7765034e-05
6.789093e-06
6.672622e-05
8.5170843e-06
6.5376525e-05
1.0413378e-05
6.3688879e-05
1.2434754e-05
6.1587783e-05
1.4978969e-05
5.9009802e-05
1.7803234e-05
5.5718239e-05
2.2338896e-05
5.1611811e-05
2.6934895e-05
4.572415e-05
3.8719026e-05
4.4164974e-05
4.8779581e-05
-1.4577089e-05
-4.6491432e-05
5.1054054e-05
-1.4532452e-05
5.330001e-05
-1.4247358e-05
5.5511102e-05
-1.3975603e-05
5.7683267e-05
-1.3636704e-05
5.9798315e-05
-1.3158883e-05
6.1847111e-05
-1.2606225e-05
6.3812244e-05
-1.1919661e-05
6.5681003e-05
-1.1140388e-05
6.7437319e-05
-1.024233e-05
6.9067176e-05
-9.245868e-06
7.0555644e-05
-8.1450185e-06
7.1888918e-05
-6.951948e-06
7.3053095e-05
-5.6675827e-06
7.4034796e-05
-4.2985115e-06
7.4820281e-05
-2.8469797e-06
7.5395207e-05
-1.3235908e-06
7.5746486e-05
2.7131128e-07
7.5862406e-05
1.9411129e-06
7.5728172e-05
3.6973564e-06
7.5329236e-05
5.530217e-06
7.4646655e-05
7.4716708e-06
7.3662794e-05
9.5009437e-06
7.2346817e-05
1.1729351e-05
7.0669105e-05
1.4112463e-05
6.8549523e-05
1.7098548e-05
6.5918497e-05
2.0434257e-05
6.2528931e-05
2.5728459e-05
5.8255877e-05
3.1207943e-05
5.2107577e-05
4.4867323e-05
5.1384731e-05
5.2109054e-05
-1.7057458e-05
-4.9628681e-05
5.4574756e-05
-1.6998153e-05
5.7012726e-05
-1.6685326e-05
5.9414623e-05
-1.63775e-05
6.1777472e-05
-1.5999554e-05
6.4082012e-05
-1.5463423e-05
6.6319172e-05
-1.4843384e-05
6.8470718e-05
-1.4071208e-05
7.0523537e-05
-1.3193207e-05
7.2460838e-05
-1.2179631e-05
7.426802e-05
-1.105305e-05
7.5929451e-05