/*--------------------------------*- C++ -*----------------------------------*\
| =========                 |                                                 |
| \\      /  F ield         | OpenFOAM: The Open Source CFD Toolbox           |
|  \\    /   O peration     | Version:  2.4.0                                 |
|   \\  /    A nd           | Web:      www.OpenFOAM.org                      |
|    \\/     M anipulation  |                                                 |
\*---------------------------------------------------------------------------*/
FoamFile
{
    version     2.0;
    format      ascii;
    class       volVectorField;
    location    "15000";
    object      U;
}
// * * * * * * * * * * * * * * * * * * * * * * * * * * * * * * * * * * * * * //

dimensions      [0 1 -1 0 0 0 0];

internalField   nonuniform List<vector> 
9793
(
(0.70392991 0.062324902 -1.2879068e-19)
(0.7119251 0.065196615 -1.2680473e-19)
(0.72014076 0.068024526 -2.1961483e-19)
(0.72855247 0.070796903 9.1670718e-20)
(0.73713835 0.073501595 1.2281966e-21)
(0.72579041 0.061910765 2.2003803e-19)
(0.73341031 0.064633336 1.5539693e-19)
(0.74123736 0.067305791 1.223234e-19)
(0.7492479 0.069917101 -1.2026802e-19)
(0.75742071 0.07245593 1.1814859e-19)
(0.7657356 0.07491067 -1.4313816e-20)
(0.77417363 0.077269642 1.4240835e-20)
(0.78271678 0.079521214 -1.1135622e-19)
(0.79134752 0.08165371 0)
(0.80004698 0.083654903 -1.3112105e-20)
(0.80880278 0.085511184 1.1987489e-20)
(0.81761151 0.087208026 -9.8850407e-22)
(0.82646923 0.08873105 1.9536906e-19)
(0.83536828 0.09006653 0)
(0.84429845 0.091201754 0)
(0.853247 0.09212545 0)
(0.86219875 0.092828173 0)
(0.87113656 0.093302712 5.0544633e-21)
(0.88004158 0.093544446 -8.3808038e-20)
(0.88889362 0.093551533 4.6385442e-21)
(0.89767182 0.093325061 6.7482788e-20)
(0.90635523 0.092869571 -6.8671585e-20)
(0.91492592 0.092193789 -6.5368955e-20)
(0.92335809 0.091311731 0)
(0.93161886 0.090240682 0)
(0.93968043 0.088998287 -5.6193906e-20)
(0.94751999 0.087600598 1.2505809e-22)
(0.95512314 0.086058487 -5.0723498e-20)
(0.96247293 0.084373494 0)
(0.96953098 0.082553119 2.7532988e-22)
(0.97629277 0.080598801 -8.9744766e-20)
(0.98272784 0.078554815 6.7728977e-22)
(0.98880841 0.076438413 4.1887653e-20)
(0.99451326 0.074266676 2.3259323e-22)
(0.99981073 0.072054886 -4.746804e-22)
(1.0046548 0.06981779 -4.0105175e-20)
(1.0089862 0.067566726 6.1129798e-22)
(0.69198937 0.034761854 1.3786453e-19)
(0.69574497 0.037352827 0)
(0.69995423 0.039981964 3.3712463e-20)
(0.70459598 0.0426416 -3.3509853e-20)
(0.70964881 0.045323454 0)
(0.71509222 0.048018657 1.3115548e-19)
(0.72090514 0.050717524 2.2566252e-19)
(0.72706833 0.053410668 3.1899869e-20)
(0.73355191 0.05608846 0)
(0.74031736 0.058740944 0)
(0.74733181 0.061358466 -1.5254726e-19)
(0.75456708 0.063931014 -8.9067431e-20)
(0.76199649 0.066448144 -2.9282017e-20)
(0.76959736 0.068899591 1.4437636e-19)
(0.77734924 0.071274883 0)
(0.7852327 0.073563384 0)
(0.79322949 0.075754481 1.0892525e-19)
(0.80132225 0.077837696 -1.0669537e-19)
(0.80949412 0.079802611 1.300338e-20)
(0.81772707 0.081638391 7.6395582e-20)
(0.82600909 0.08333298 -8.793595e-20)
(0.83433645 0.084873552 -9.4824987e-22)
(0.84270503 0.086247533 1.0827132e-20)
(0.85110739 0.087443061 -1.1608447e-20)
(0.85953385 0.088449302 0)
(0.86797258 0.089256816 0)
(0.87640969 0.089857875 -1.0240721e-20)
(0.88482971 0.090246786 8.9673134e-20)
(0.89321577 0.090420165 -7.1740726e-20)
(0.90154996 0.090377056 -4.6553556e-21)
(0.90981387 0.090119015 0)
(0.91798912 0.089650573 0)
(0.92606 0.088979878 6.8084969e-20)
(0.93400349 0.088119775 -3.8792248e-21)
(0.94178979 0.08708594 5.8373692e-20)
(0.94939319 0.085894212 0)
(0.95679347 0.084559029 -5.2956238e-20)
(0.96397896 0.083090146 0)
(0.9709211 0.081485354 -3.7029227e-22)
(0.97759088 0.079762042 -4.5868341e-20)
(0.98398972 0.077920556 -2.6333006e-22)
(0.99008091 0.075992776 -4.3843626e-20)
(0.99584517 0.073996199 3.7834506e-22)
(1.001262 0.071946748 4.1342673e-20)
(1.0063013 0.069858939 8.4249391e-20)
(1.0109198 0.067746915 -6.484817e-22)
(1.0150619 0.065621692 6.1989161e-22)
(0.715971 0.035198703 -1.0022441e-19)
(0.71954386 0.037709363 0)
(0.72354425 0.040250478 1.3001324e-19)
(0.72795224 0.04281434 0)
(0.73274758 0.045392697 0)
(0.73791079 0.04797679 0)
(0.74342177 0.050557136 -1.2510029e-19)
(0.74926203 0.053124599 9.1626193e-20)
(0.75540325 0.055669947 6.0524142e-20)
(0.76180911 0.058183736 -1.783551e-19)
(0.76844854 0.060656864 2.9524177e-20)
(0.77529481 0.063079967 1.1629825e-19)
(0.78232263 0.065443356 1.1321733e-19)
(0.78951039 0.067737569 -1.4028109e-19)
(0.79683863 0.069953031 5.4944386e-20)
(0.80428882 0.072080092 -5.3928221e-20)
(0.81184355 0.074109203 -5.3474443e-20)
(0.81948628 0.076031027 -5.071725e-20)
(0.82720095 0.077836361 1.2994384e-20)
(0.83497049 0.079515704 -7.9150966e-22)
(0.84278338 0.081058457 1.2206297e-20)
(0.85063571 0.082453372 1.0765613e-20)
(0.85852328 0.083689522 -9.2391205e-20)
(0.86643893 0.084756716 -9.9931072e-20)
(0.87437359 0.085645773 0)
(0.88231632 0.086348829 0)
(0.89025446 0.086859596 9.9604609e-21)
(0.89817404 0.087173619 -8.7799505e-20)
(0.90605996 0.087288476 1.4956243e-19)
(0.91389629 0.087203854 -7.609053e-20)
(0.92166672 0.086921589 4.3592971e-21)
(0.92935499 0.086446084 0)
(0.93694721 0.085784899 -5.9226717e-20)
(0.94442273 0.084949799 -3.8170125e-21)
(0.9517543 0.083954977 -5.7575428e-20)
(0.95891796 0.082814446 -5.6738198e-20)
(0.96589647 0.08154135 1.6638365e-21)
(0.97267805 0.080147197 7.7241681e-22)
(0.97922027 0.078629697 -7.5810855e-22)
(0.98551348 0.076997621 -2.2349777e-23)
(0.99155796 0.075264805 -2.5668793e-22)
(0.99731556 0.073449007 -4.4433981e-20)
(1.002773 0.071567545 -2.985311e-22)
(1.0079102 0.069635359 6.7499912e-22)
(1.0126989 0.067666332 -8.3783805e-20)
(1.0170986 0.065674106 0)
(1.021057 0.063669428 -6.2791902e-22)
(0.73181269 0.028425489 9.8506209e-20)
(0.73390367 0.030743176 0)
(0.73644488 0.033103017 9.669993e-20)
(0.73942084 0.035499049 -6.4118698e-20)
(0.7428147 0.037924965 -3.1410385e-20)
(0.74660914 0.040373913 -1.2634526e-19)
(0.75078551 0.042838223 0)
(0.75532483 0.045309764 3.0646793e-20)
(0.76020872 0.047779962 -3.0470115e-20)
(0.76541819 0.050239616 0)
(0.77093564 0.052679923 -1.4834451e-19)
(0.77673446 0.055092123 -8.6748047e-20)
(0.78278071 0.057467352 1.206123e-21)
(0.78904527 0.059797116 -2.8153374e-20)
(0.79550305 0.062072745 -5.5150126e-20)
(0.80213028 0.064285336 -2.4691778e-19)
(0.80890662 0.066426261 2.6781231e-20)
(0.81581372 0.068486848 -2.665539e-20)
(0.82283409 0.070458434 0)
(0.82995132 0.07233252 1.0147321e-19)
(0.83714977 0.074100872 1.9995369e-19)
(0.84441428 0.075755452 -9.7376151e-20)
(0.8517288 0.077288007 -9.6209817e-20)
(0.85908236 0.078689294 1.157686e-20)
(0.86647095 0.079949503 -1.1437441e-19)
(0.87389032 0.081059189 1.1199375e-20)
(0.88133365 0.08200964 1.140557e-20)
(0.88879241 0.082793109 -8.3559049e-20)
(0.89625652 0.08340307 -1.0238857e-20)
(0.90371441 0.08383443 -7.8088941e-20)
(0.91115345 0.084083725 0)
(0.91856006 0.084149275 -7.3067863e-20)
(0.92592001 0.084031217 7.0268223e-20)
(0.93321873 0.083731533 -6.7237431e-20)
(0.94044173 0.083254427 6.0543363e-20)
(0.94757663 0.082606882 -5.4126368e-20)
(0.95460472 0.081799687 -3.7534247e-21)
(0.96150077 0.08084574 -1.7513912e-21)
(0.96824262 0.079757666 5.6015e-20)
(0.97481533 0.078547549 0)
(0.98119825 0.077225909 -5.0533566e-20)
(0.98735229 0.075801697 3.8812559e-22)
(0.99328502 0.074262567 3.6841803e-22)
(0.99898198 0.072631343 -4.4837546e-22)
(1.004416 0.070922328 4.451651e-20)
(1.0095761 0.069150824 -4.3467268e-20)
(1.0144424 0.067330667 4.3771834e-20)
(1.0189884 0.065475157 4.1383487e-20)
(1.0231763 0.06359748 0)
(1.0269572 0.061708122 0)
(0.75495794 0.028794981 -9.451807e-20)
(0.75696601 0.03104532 0)
(0.75939285 0.03333085 -3.1383554e-20)
(0.76222431 0.035645556 -6.1550956e-20)
(0.76544489 0.037983105 9.1835049e-20)
(0.76903857 0.040336674 -3.010707e-20)
(0.77298807 0.042698696 2.9949632e-20)
(0.77727571 0.045061222 2.942967e-20)
(0.78188432 0.047415929 -2.9268533e-20)
(0.78679613 0.049753966 1.4328403e-19)
(0.7919946 0.05206692 -2.8523384e-20)
(0.797455 0.054346562 1.1265856e-19)
(0.80314589 0.056584657 1.3852431e-19)
(0.80904029 0.058773359 1.0794626e-19)
(0.81511487 0.060904725 8.0802246e-20)
(0.82134753 0.062970663 1.0602127e-19)
(0.82771934 0.064963387 1.0313494e-19)
(0.83421313 0.066875134 1.0136132e-19)
(0.84081257 0.068698211 2.4839148e-20)
(0.84750226 0.070425136 -1.4782943e-19)
(0.85426752 0.07204873 -4.866493e-20)
(0.86109409 0.073562045 9.4425862e-20)
(0.86796695 0.074957985 -2.3267144e-20)
(0.87487568 0.076228537 0)
(0.88181613 0.077365187 0)
(0.88878407 0.078359805 0)
(0.89577295 0.079204971 9.4116135e-20)
(0.90277476 0.079894162 7.1129287e-20)
(0.90978014 0.08042198 0)
(0.9167785 0.080784305 7.6339266e-20)
(0.92375836 0.080978462 0)
(0.93070746 0.081003332 -7.9588401e-20)
(0.93761299 0.080859359 1.2877336e-20)
(0.94446186 0.080548571 6.5851615e-20)
(0.95124107 0.080074936 -1.3056558e-19)
(0.95793945 0.079444909 1.2151193e-19)
(0.96453979 0.078668408 -5.8283391e-20)
(0.97101846 0.077757267 1.7260603e-21)
(0.97735532 0.076723713 -5.5347888e-20)
(0.98353477 0.075580898 -5.1407084e-20)
(0.98952181 0.074335994 9.843059e-20)
(0.99530055 0.072996451 0)
(1.0008828 0.071551828 4.4895035e-23)
(1.0062428 0.070018164 4.5408553e-20)
(1.0113647 0.068410949 3.4473795e-22)
(1.0162379 0.066744062 -4.3750842e-20)
(1.020843 0.065030589 -9.5976297e-22)
(1.0251551 0.063283334 1.7864437e-23)
(1.029139 0.061515025 1.7999323e-23)
(1.0327488 0.05973587 2.1628426e-20)
(1.0359693 0.057949062 1.9812787e-20)
(1.0388158 0.056151691 -9.573025e-21)
(1.0413131 0.054339093 -9.8888922e-21)
(0.77735016 0.02900963 6.0585736e-20)
(0.77928095 0.031188378 5.9616674e-20)
(0.78159928 0.033395787 0)
(0.78429217 0.035625788 -2.9396428e-20)
(0.78734542 0.037872056 5.8379425e-20)
(0.7907443 0.040127835 -1.5526979e-22)
(0.79447291 0.042385712 -2.8683564e-20)
(0.79851495 0.044637964 0)
(0.8028546 0.04687657 1.1119584e-19)
(0.80747542 0.049093074 -1.3844106e-19)
(0.8123621 0.051279517 1.3566228e-19)
(0.81749189 0.053428237 0)
(0.822836 0.055531661 -1.0532731e-19)
(0.82836962 0.057582638 -1.3088868e-19)
(0.83407132 0.059573973 -5.0844155e-20)
(0.83992068 0.061498397 -2.5443122e-20)
(0.84590018 0.063348966 -1.9912925e-19)
(0.85199388 0.065118812 -1.2273359e-19)
(0.85818655 0.066801184 2.4207473e-20)
(0.86446376 0.068389565 2.3430351e-20)
(0.87081175 0.069877761 4.5854265e-20)
(0.87721712 0.071259823 3.6452825e-22)
(0.88366576 0.072529695 3.7266431e-22)
(0.89014775 0.073680466 3.7939357e-22)
(0.89665886 0.074704769 2.1428257e-20)
(0.90319479 0.075595623 0)
(0.90974926 0.076346718 9.0363684e-20)
(0.91631469 0.076952573 6.8276028e-20)
(0.92288239 0.077408718 -9.4245564e-21)
(0.9294426 0.077711826 9.3309691e-21)
(0.93598485 0.07785984 7.1321646e-20)
(0.94249804 0.077852059 6.075381e-20)
(0.94897058 0.077689126 -5.8171701e-20)
(0.95539065 0.077373047 -6.0263809e-20)
(0.9617465 0.076907556 6.1924207e-20)
(0.96802784 0.076298665 -6.3387804e-20)
(0.97421833 0.075555636 5.3745121e-20)
(0.98029564 0.074689914 3.4799556e-21)
(0.98624046 0.073714296 5.1142531e-20)
(0.99202856 0.072641558 1.013316e-19)
(0.99762542 0.071481679 -4.7214402e-20)
(1.0030453 0.070220783 0)
(1.0082854 0.068864316 -4.4959937e-23)
(1.0133219 0.067423001 4.5875716e-20)
(1.0181448 0.065912193 -4.5027408e-20)
(1.0227428 0.064344565 4.4648985e-20)
(1.0270974 0.06273256 -3.0789735e-22)
(1.0311853 0.061088465 0)
(1.0349736 0.059424525 0)
(1.0384196 0.057750627 -2.0918245e-20)
(1.0415084 0.056069877 2.0941693e-20)
(1.0442534 0.054379528 -1.4413722e-22)
(1.0466768 0.052675035 1.0169945e-20)
(0.79893454 0.029063036 0)
(0.80079011 0.031166063 -1.1437104e-19)
(0.80300282 0.03329166 5.6628983e-20)
(0.80556086 0.035433767 -1.1239225e-19)
(0.80845132 0.037586056 -5.5490612e-20)
(0.81166082 0.039741878 5.5068365e-20)
(0.8151749 0.041894025 -1.6357388e-19)
(0.81897873 0.044035055 0)
(0.82305788 0.046157305 -1.074328e-19)
(0.82739737 0.048252783 2.6275629e-20)
(0.83198316 0.050314034 -1.3090085e-19)
(0.83679451 0.052334028 0)
(0.84180519 0.054305893 1.0194541e-19)
(0.84699254 0.056223185 2.4850172e-20)
(0.85233689 0.058079466 9.876726e-20)
(0.85781943 0.059868287 4.7986189e-20)
(0.86342393 0.061583526 2.5062535e-20)
(0.86913554 0.063219171 -7.0116339e-20)
(0.87494 0.064769348 -4.6171654e-20)
(0.88082378 0.066228431 -6.7432e-20)
(0.8867739 0.06759111 -8.9553339e-20)
(0.89277773 0.068852322 -8.696675e-20)
(0.89882203 0.07000692 0)
(0.9048973 0.071048951 0)
(0.91099923 0.071972049 0)
(0.91712349 0.072770226 0)
(0.92326402 0.07343812 -1.6573236e-19)
(0.92941367 0.073971118 -6.6660566e-20)
(0.93556434 0.074365517 0)
(0.94170706 0.074618625 -6.2624142e-20)
(0.94783229 0.074728864 -7.8476106e-20)
(0.95392992 0.074695845 -6.7152302e-20)
(0.95998946 0.074520342 8.2818368e-21)
(0.96600017 0.074204319 6.274697e-20)
(0.97195113 0.073751338 -7.6586797e-21)
(0.97783232 0.073167189 3.6071587e-21)
(0.98362749 0.072461068 -3.5517639e-21)
(0.98931469 0.071645528 0)
(0.99487129 0.070735634 -5.1932007e-20)
(1.0002621 0.069738828 1.035565e-22)
(1.0054882 0.0686541 -4.8654245e-20)
(1.0105663 0.067471138 -3.6720673e-22)
(1.0154758 0.066195648 3.6893819e-22)
(1.0202042 0.064841354 -4.5671947e-20)
(1.0247421 0.063421743 9.0076738e-20)
(1.0290777 0.061948334 -4.4524196e-20)
(1.0331934 0.060432935 -4.358543e-20)
(1.0370676 0.058887274 -1.3358639e-21)
(1.0406693 0.057323067 -2.0183982e-20)
(1.0439591 0.055749828 0)
(1.0469223 0.054170513 -2.0887083e-20)
(1.0495705 0.05258249 1.0304407e-20)
(1.0519234 0.050981295 1.4868204e-22)
(0.8164619 0.015665539 0)
(0.81620122 0.017454673 5.3141936e-26)
(0.81598086 0.019276888 1.7451398e-21)
(0.8160078 0.021140879 -1.3917425e-20)
(0.81639985 0.023045942 1.3865026e-20)
(0.81714918 0.024987703 0)
(0.81824704 0.026961553 8.2533997e-20)
(0.81968834 0.028962822 -1.0964045e-19)
(0.82146669 0.030986469 1.092712e-19)
(0.8235735 0.033026935 5.3931952e-20)
(0.82599826 0.035078192 5.3638132e-20)
(0.8287294 0.037134021 5.3144143e-20)
(0.83175495 0.039187954 -5.2784079e-20)
(0.83506189 0.041233064 1.5672963e-19)
(0.83863682 0.043262274 -5.1726745e-20)
(0.8424667 0.045268359 0)
(0.84653786 0.047243865 5.0158705e-20)
(0.85083749 0.049181893 -4.9945938e-20)
(0.85534666 0.05107608 0)
(0.86004145 0.05292028 -9.6382999e-20)
(0.86490107 0.054708753 9.5073109e-20)
(0.86990738 0.056435802 0)
(0.87504294 0.058095754 -1.8578709e-19)
(0.8802926 0.059683248 9.1989423e-20)
(0.88564244 0.061193047 1.1291314e-19)
(0.89107907 0.062620067 8.7849973e-20)
(0.8965897 0.063959464 6.5633905e-20)
(0.9021621 0.0652067 -2.1231458e-20)
(0.90778433 0.066357471 1.8919987e-19)
(0.91344395 0.067407408 0)
(0.91913191 0.06835139 0)
(0.92484385 0.069183919 -9.824724e-20)
(0.93057548 0.06989986 1.9466959e-20)
(0.93632101 0.070494651 7.562099e-20)
(0.94207373 0.070964405 0)
(0.94782615 0.071306045 8.0096356e-20)
(0.95357006 0.071517383 6.9487138e-20)
(0.95929675 0.071597216 -8.513225e-21)
(0.96499704 0.071545403 8.3497417e-21)
(0.97066134 0.071362854 5.5403916e-20)
(0.97627948 0.071051562 -7.5677264e-21)
(0.98184073 0.070615115 7.4660158e-21)
(0.98733429 0.070059811 -3.523208e-21)
(0.99274285 0.069396301 6.8619593e-21)
(0.99804201 0.068638917 -7.2568493e-23)
(1.0032009 0.067798543 9.8517497e-20)
(1.0082109 0.066877155 9.6079579e-23)
(1.0130936 0.065858678 9.6649217e-20)
(1.017841 0.064745036 0)
(1.0224376 0.063545421 4.4941586e-23)
(1.0268751 0.062272914 -4.5949306e-20)
(1.0311434 0.06093918 -8.945702e-20)
(1.0352307 0.059554845 8.8198883e-20)
(1.0391205 0.05813106 -6.7823441e-22)
(1.0427923 0.056678913 -4.2970171e-20)
(1.0462176 0.055209546 2.0100074e-20)
(1.0493594 0.053732098 -2.1450826e-20)
(1.0522037 0.05224938 -1.9949317e-20)
(1.05476 0.050758877 0)
(1.0570457 0.049256205 -1.0228397e-20)
(0.83586778 0.015841956 0)
(0.83569767 0.017584871 5.1191003e-26)
(0.8355691 0.019358345 5.3979068e-20)
(0.83567007 0.021168936 -3.3944102e-20)
(0.83610453 0.023015618 -2.7056754e-20)
(0.83686681 0.024893856 0)
(0.83794889 0.026798803 2.6587635e-20)
(0.83934623 0.028725653 -5.3355508e-20)
(0.84105332 0.030669329 0)
(0.84306262 0.032624367 -5.2424599e-20)
(0.84536478 0.034584895 5.2248138e-20)
(0.84794952 0.036544916 -5.1545289e-20)
(0.85080608 0.03849824 5.1465677e-20)
(0.85392272 0.040438307 -5.0877913e-20)
(0.8572873 0.042358469 -5.0019582e-20)
(0.8608879 0.044251986 4.9831286e-20)
(0.86471201 0.046111984 0)
(0.86874777 0.047932147 9.6471343e-20)
(0.87297783 0.049706742 0)
(0.8773802 0.051430308 1.1857281e-19)
(0.88193568 0.053097771 -1.4044141e-19)
(0.88662745 0.054704117 -6.8425862e-20)
(0.89143927 0.056244362 9.1211049e-20)
(0.89635698 0.057713826 0)
(0.90136752 0.059107957 0)
(0.90645831 0.060422354 -1.5181724e-19)
(0.91161735 0.06165285 -2.1453227e-20)
(0.91683312 0.062795566 8.3393855e-20)
(0.92209443 0.06384685 -6.2242485e-20)
(0.92738965 0.064803007 -4.0363385e-20)
(0.93271023 0.06565964 3.9566574e-20)
(0.9380519 0.066412009 7.7469215e-20)
(0.94341054 0.067055706 -1.9103497e-20)
(0.9487807 0.067586837 0)
(0.95415615 0.068002114 -8.9377561e-21)
(0.95953003 0.068298968 -6.1630076e-20)
(0.96489482 0.068475616 8.4658451e-21)
(0.97024254 0.068531164 -8.2916462e-20)
(0.97556469 0.068465732 8.0706923e-20)
(0.980852 0.068280533 -1.5816604e-22)
(0.98609394 0.067977872 -1.5501985e-22)
(0.99127872 0.067561919 -1.0986594e-20)
(0.99639349 0.067041082 7.0394097e-21)
(1.0014177 0.066428525 -6.7785283e-21)
(1.0063226 0.065735594 6.9913417e-23)
(1.0110985 0.064962364 -4.7489033e-20)
(1.0157658 0.064097417 -5.1115653e-20)
(1.0203267 0.063136534 -4.7099566e-20)
(1.0247659 0.062085173 0)
(1.029074 0.06095521 0)
(1.0332424 0.059757871 -2.4979819e-22)
(1.0372606 0.058503439 4.6212339e-20)
(1.0411171 0.057201726 -3.9324081e-22)
(1.0447962 0.055863142 0)
(1.048279 0.054498085 4.2566293e-20)
(1.0515387 0.053117137 2.7360411e-21)
(1.0545411 0.051729105 1.8890483e-20)
(1.0572723 0.050336719 2.2765791e-20)
(1.0597406 0.04893763 6.5730726e-22)
(1.0619612 0.047527578 -1.5684641e-23)
(0.85418535 0.011000553 0)
(0.85400911 0.012604358 0)
(0.85386272 0.014239107 0)
(0.85374886 0.015904692 0)
(0.85365779 0.017599086 -5.1242108e-26)
(0.85360962 0.019321678 0)
(0.8537759 0.021077525 -3.3686653e-20)
(0.85424951 0.022865498 4.0351969e-20)
(0.85502574 0.024680717 2.660746e-20)
(0.85609705 0.026517959 0)
(0.85745914 0.02837233 0)
(0.85910696 0.030238822 0)
(0.86103363 0.032112045 5.2037444e-20)
(0.86323063 0.033986285 -5.1879269e-20)
(0.86568855 0.035855775 0)
(0.86839757 0.037714612 1.0184998e-19)
(0.8713469 0.039556606 -1.007794e-19)
(0.87452535 0.041375542 5.0057316e-20)
(0.8779219 0.043165151 0)
(0.88152492 0.044919053 -1.2141641e-19)
(0.88532337 0.046631476 -1.9269748e-19)
(0.8893012 0.048297284 2.1961266e-22)
(0.89343811 0.049911594 2.3628937e-20)
(0.89771636 0.051469886 2.3088199e-20)
(0.90212033 0.052967742 1.3742047e-19)
(0.90663496 0.054400789 4.515689e-20)
(0.91124703 0.055764926 4.4101761e-20)
(0.91594438 0.05705619 2.7536891e-22)
(0.92071526 0.05827077 1.0843262e-19)
(0.92554847 0.059405084 -1.0562475e-19)
(0.93043329 0.060455822 -4.2105577e-20)
(0.93535929 0.061419891 -1.0231712e-19)
(0.94031567 0.062294168 8.0173071e-20)
(0.94529448 0.063074886 0)
(0.95029166 0.063757955 7.7016557e-20)
(0.9553033 0.064339577 0)
(0.96032432 0.06481641 9.1511595e-21)
(0.96534899 0.065185651 7.1703505e-20)
(0.97037095 0.065445162 -1.593724e-22)
(0.97538321 0.065593509 -8.6220115e-21)
(0.98037809 0.065630136 7.4784199e-20)
(0.98534708 0.065555576 -7.2510214e-20)
(0.9902801 0.065371851 6.2399984e-20)
(0.99516456 0.065082366 6.7857135e-20)
(0.99998662 0.064692966 -7.3658633e-21)
(1.0047299 0.064214977 5.6204572e-20)
(1.0093718 0.063659015 -3.3565935e-21)
(1.0139084 0.063021804 3.3283936e-21)
(1.0183572 0.062295871 -5.0000325e-20)
(1.022724 0.061474102 5.0634928e-20)
(1.0269957 0.060560196 -1.5711085e-21)
(1.0311616 0.059564346 4.9363793e-20)
(1.0352126 0.058496844 -4.8611301e-20)
(1.0391399 0.057367068 4.7301613e-20)
(1.0429331 0.056184197 -7.2315895e-22)
(1.0465812 0.054957237 -4.5323024e-20)
(1.0500695 0.053695849 -4.5873622e-20)
(1.0533802 0.052409785 1.39986e-21)
(1.0564883 0.051109117 -2.8094169e-21)
(1.059362 0.049802357 -2.1006806e-20)
(1.0619882 0.048492189 0)
(1.0643737 0.047176463 0)
(1.066532 0.045851093 0)
(0.87028231 0.011106183 0)
(0.87016863 0.012666422 -2.6502094e-20)
(0.87008641 0.014255578 2.6550434e-20)
(0.87003825 0.015873538 0)
(0.87001545 0.017518329 -2.6525261e-20)
(0.87003623 0.019188958 2.6613696e-20)
(0.87025738 0.020889425 0)
(0.87076354 0.022618557 -3.98552e-20)
(0.87155036 0.024371369 5.2783273e-20)
(0.8726108 0.02614248 -2.6408736e-20)
(0.87394079 0.027926885 0)
(0.87553548 0.029719576 -2.5873602e-20)
(0.87738839 0.031515284 -7.74254e-20)
(0.87949156 0.033308468 0)
(0.88183621 0.035093575 0)
(0.88441314 0.036864972 0)
(0.88721229 0.038616798 0)
(0.8902232 0.040343204 0)
(0.89343556 0.04203836 2.439787e-20)
(0.8968385 0.043696353 7.3036208e-20)
(0.90042167 0.045311839 9.6211919e-20)
(0.90417017 0.04688017 0)
(0.90806523 0.048396985 -9.2983468e-20)
(0.91209046 0.049858244 2.2931411e-20)
(0.9162314 0.051260011 -1.1427217e-19)
(0.92047404 0.052598429 0)
(0.92480613 0.053869908 -8.8839265e-20)
(0.92921635 0.05507099 -1.0839186e-19)
(0.93369378 0.056198366 -6.3834833e-20)
(0.93822803 0.057248946 8.4736008e-20)
(0.94280912 0.058219906 -2.059401e-20)
(0.94742741 0.059108623 1.0234533e-19)
(0.95207294 0.059912449 1.9268604e-20)
(0.95673833 0.06062815 -3.9228353e-20)
(0.96141975 0.06125218 -6.7279422e-20)
(0.96611348 0.061781244 9.475622e-21)
(0.97081477 0.062212454 -7.3279491e-20)
(0.9755182 0.062543419 -1.4344215e-19)
(0.98021761 0.06277242 6.9744851e-20)
(0.98490599 0.062898435 0)
(0.98957504 0.062921494 6.6015282e-20)
(0.99421498 0.06284289 5.6314888e-20)
(0.99881333 0.062666553 -5.4366648e-20)
(1.0033548 0.062398144 -3.8210967e-21)
(1.007824 0.062044848 -5.4223537e-20)
(1.0122042 0.061614667 -5.9495508e-20)
(1.016506 0.061101608 5.4589419e-20)
(1.0207444 0.06050104 3.3724099e-21)
(1.0249213 0.059804822 5.2425937e-20)
(1.0290256 0.059017137 -4.9901071e-20)
(1.0330465 0.058146374 -8.1655888e-22)
(1.0369741 0.057201354 -5.0583515e-20)
(1.0407996 0.056190406 4.9077629e-20)
(1.0445143 0.055121654 3.2671202e-22)
(1.0481083 0.054003416 -3.7747734e-22)
(1.0515714 0.052843969 0)
(1.0548896 0.051652299 9.4239265e-20)
(1.0580462 0.050437593 -7.3202128e-22)
(1.0610183 0.049209463 0)
(1.0637761 0.047976117 -1.9854427e-22)
(1.0663072 0.046740211 -2.346528e-20)
(1.0686173 0.045499782 7.0877404e-22)
(1.0707184 0.044250945 6.8430526e-22)
(0.88499034 0.011136444 0)
(0.88493185 0.012652777 0)
(0.88490605 0.014196129 0)
(0.88491548 0.015766334 -2.6333402e-20)
(0.88495231 0.01736145 5.2712251e-20)
(0.88503305 0.018980185 -2.6421217e-20)
(0.88530121 0.02062555 0)
(0.88583409 0.022296273 1.3268736e-20)
(0.88662765 0.023987472 -2.6418646e-20)
(0.88767541 0.025693814 0)
(0.88897351 0.027410312 0)
(0.89051735 0.029131991 5.1928485e-20)
(0.89230079 0.0308537 5.1566818e-20)
(0.89431633 0.032570084 -2.5408017e-20)
(0.89655569 0.034275808 -2.4980017e-20)
(0.89901025 0.035965499 -4.9873916e-20)
(0.90167052 0.037633605 -2.4729353e-20)
(0.90452668 0.039274605 2.4651804e-20)
(0.90756907 0.040883037 -2.4214877e-20)
(0.91078744 0.042453428 9.5944575e-20)
(0.91417209 0.043980841 -2.3859793e-20)
(0.91770914 0.045461022 0)
(0.92138124 0.04689005 1.1622195e-19)
(0.9251732 0.048264313 -2.321726e-22)
(0.92907162 0.04958029 -4.5159274e-20)
(0.93306353 0.05083456 -6.6324522e-20)
(0.93713754 0.052023971 0)
(0.94128315 0.053145505 8.6865364e-20)
(0.94549024 0.054196272 8.5512229e-20)
(0.94974916 0.055173598 0)
(0.95405071 0.056075064 -6.1639735e-20)
(0.95838596 0.056898429 -2.037896e-20)
(0.96274576 0.057641433 -6.0026201e-20)
(0.96712325 0.058301294 -1.9631099e-20)
(0.97151477 0.058874921 0)
(0.97591668 0.059359451 6.5246463e-20)
(0.98032424 0.059752403 8.2413898e-20)
(0.98473195 0.060051798 7.1437524e-20)
(0.98913312 0.060256522 -1.3030134e-19)
(0.99351968 0.060366194 -8.5201456e-21)
(0.99788123 0.060382196 -2.1542214e-22)
(1.0022056 0.06030719 0)
(1.006478 0.060148097 3.8105783e-21)
(1.0106852 0.05991361 -1.1904877e-19)
(1.0148175 0.059596749 -3.5641683e-21)
(1.0188931 0.059196051 -5.6322661e-20)
(1.0229319 0.058708648 -5.5291436e-20)
(1.0269267 0.058126708 1.6803739e-21)
(1.0308678 0.057455419 5.1720603e-20)
(1.0347443 0.056701581 0)
(1.0385462 0.055872289 0)
(1.0422646 0.054974659 -3.9359146e-22)
(1.0458911 0.054015845 3.9582868e-22)
(1.0494175 0.053003142 4.9584344e-20)
(1.0528345 0.051944148 0)
(1.0561324 0.050846509 7.4727136e-22)
(1.0592985 0.049718624 -4.6387186e-22)
(1.062317 0.048569181 2.4521993e-20)
(1.0651666 0.047407368 -2.5096748e-20)
(1.0678199 0.046241088 2.4028927e-20)
(1.070265 0.045072946 2.3099953e-20)
(1.0725068 0.043901135 1.2247375e-20)
(1.0745559 0.042721953 -1.2115811e-20)
(0.89844003 0.011103937 0)
(0.89843102 0.012576421 0)
(0.89845565 0.014074148 0)
(0.89851635 0.015596905 0)
(0.89860606 0.017142787 -2.4855403e-26)
(0.89873977 0.018710251 0)
(0.89904884 0.020301441 -1.974011e-20)
(0.89960389 0.021914952 2.6255434e-20)
(0.90040114 0.023546043 0)
(0.90143461 0.025189492 2.5867982e-20)
(0.9027007 0.026840407 0)
(0.90419505 0.028493917 5.1098189e-20)
(0.90591187 0.030145022 0)
(0.90784409 0.031788562 0)
(0.90998393 0.033419426 4.2200709e-22)
(0.91232328 0.035032495 4.9920798e-20)
(0.91485322 0.036622515 4.9038981e-20)
(0.91756451 0.038184284 0)
(0.92044807 0.03971267 2.4028517e-20)
(0.92349427 0.04120257 -4.8109315e-20)
(0.92669397 0.042649442 -1.1759917e-19)
(0.93003426 0.044049414 9.2796135e-20)
(0.93349907 0.045398928 0)
(0.93707433 0.046694722 0)
(0.94074765 0.047933638 1.1156876e-19)
(0.94450702 0.049112634 6.653902e-20)
(0.94834187 0.050228935 -2.1656643e-20)
(0.9522425 0.051279889 2.1585757e-20)
(0.9561995 0.052262952 0)
(0.96020398 0.0531758 0)
(0.96424741 0.054016369 8.2041222e-20)
(0.96832153 0.05478272 -1.9941264e-20)
(0.97241786 0.055472901 1.9853381e-20)
(0.97652995 0.056084548 9.5957411e-21)
(0.98065405 0.056614983 -1.4296767e-22)
(0.98478625 0.057061782 -9.7232245e-21)
(0.98892121 0.057422946 8.1222835e-20)
(0.99305254 0.057697001 -7.9388403e-20)
(0.99717182 0.057884078 6.040021e-20)
(1.0012691 0.057984986 8.4279482e-21)
(1.0053315 0.05800334 -1.9470188e-22)
(1.009347 0.057943632 -7.0542339e-20)
(1.0133043 0.057810736 7.6904664e-21)
(1.0172112 0.057598104 6.3159013e-20)
(1.0210814 0.057304945 5.4573079e-20)
(1.0249311 0.056918374 -3.4980635e-21)
(1.0287527 0.056440905 7.0246744e-21)
(1.0325363 0.055877453 -5.196704e-21)
(1.0362712 0.055233019 -5.2613049e-20)
(1.0399476 0.054513019 5.3546763e-20)
(1.0435564 0.05372331 0)
(1.0470894 0.052870086 0)
(1.050539 0.051959765 0)
(1.0538975 0.050998979 -5.0259823e-20)
(1.0571562 0.049994714 -5.0647472e-20)
(1.0603062 0.048954067 3.8983501e-22)
(1.0633354 0.047884926 -4.8787901e-20)
(1.0662294 0.046795537 -2.4182835e-20)
(1.0689684 0.045694691 2.3261222e-20)
(1.0715271 0.044589993 1.5586334e-23)
(1.0738941 0.043483976 2.4592799e-20)
(1.0760737 0.042374967 9.9809116e-23)
(1.0780753 0.041259425 1.156651e-20)
(0.91073408 0.011018311 2.5890178e-20)
(0.91077002 0.012447373 2.5882485e-20)
(0.91084033 0.013900042 -4.10884e-23)
(0.9109473 0.015376055 -2.5953639e-20)
(0.91108459 0.016873522 2.482053e-26)
(0.91126575 0.018390714 0)
(0.91161093 0.019929041 -6.5485258e-21)
(0.91218468 0.021486965 0)
(0.91298338 0.023059873 0)
(0.91400154 0.024642697 -2.5849294e-20)
(0.91523581 0.026230676 -4.5599325e-23)
(0.91668209 0.027819065 2.5131226e-20)
(0.91833492 0.029403028 -5.0510344e-20)
(0.92018767 0.030977608 2.5128996e-20)
(0.92223303 0.032537923 4.9925396e-20)
(0.92446337 0.034079107 0)
(0.92687034 0.03559619 -2.4697708e-20)
(0.92944524 0.037084274 -4.8340686e-20)
(0.93217955 0.038538539 2.4006438e-20)
(0.93506424 0.039954229 2.3556756e-20)
(0.9380907 0.041327155 7.041897e-20)
(0.94124697 0.042653793 2.2262575e-20)
(0.94451816 0.043930922 -4.5616073e-20)
(0.94789128 0.045155575 2.2625959e-20)
(0.95135486 0.046324886 -1.1130702e-19)
(0.95489782 0.047436136 -6.5293698e-20)
(0.9585104 0.048486903 2.1470821e-20)
(0.96218358 0.049474854 -2.4984051e-22)
(0.96590865 0.050397709 -2.1067677e-20)
(0.96967735 0.051253434 2.0471241e-20)
(0.97348176 0.052040303 6.038346e-20)
(0.97731406 0.05275662 8.9240017e-20)
(0.98116623 0.053400673 -1.361091e-22)
(0.98503188 0.053970602 -9.6434023e-21)
(0.98890665 0.054464136 0)
(0.99278563 0.054879429 -1.4668915e-19)
(0.99666197 0.05521542 -7.17567e-20)
(1.0005279 0.055471425 6.9911867e-20)
(1.0043729 0.05564945 0)
(1.0081868 0.055752194 -7.3991805e-20)
(1.0119598 0.055786408 -5.6092116e-20)
(1.0156915 0.055741559 1.5160478e-22)
(1.0193934 0.055619182 0)
(1.0230812 0.05541817 6.0065865e-20)
(1.0267559 0.055127109 0)
(1.0304138 0.054748071 1.1625485e-19)
(1.0340466 0.054285725 -5.7172439e-20)
(1.037644 0.053744048 0)
(1.0411963 0.053127269 0)
(1.0446949 0.052440205 -1.0910606e-19)
(1.0481316 0.051688149 5.3821217e-20)
(1.0514991 0.050876713 0)
(1.0547903 0.050011728 5.2425767e-20)
(1.057998 0.049099267 5.1734723e-20)
(1.0611142 0.048145788 5.096052e-20)
(1.0641305 0.047157922 0)
(1.0670359 0.046143106 2.5088518e-20)
(1.0698169 0.045109184 -2.4888742e-20)
(1.0724553 0.044064582 7.6260749e-22)
(1.0749277 0.043016611 -7.732014e-22)
(1.0772236 0.041967728 -2.3466618e-20)
(1.0793463 0.040916369 -1.2752072e-20)
(1.0813045 0.039859142 0)
(0.92195799 0.01088757 2.5620374e-20)
(0.92203501 0.012273872 0)
(0.92214696 0.013682281 -2.5630687e-20)
(0.92229601 0.015112483 5.1329722e-20)
(0.92247645 0.016562606 -2.5696898e-20)
(0.92270048 0.01803078 -2.7283385e-20)
(0.92307786 0.019517791 1.9423279e-20)
(0.92366752 0.021021965 -3.8524123e-20)
(0.92446599 0.022538825 2.5662231e-20)
(0.92546826 0.024063457 0)
(0.92667121 0.025591244 -1.8691908e-22)
(0.92807098 0.027117599 -5.0376217e-20)
(0.92966247 0.028637856 0)
(0.93143945 0.030147264 -2.4754736e-20)
(0.93339507 0.031641164 7.3744976e-20)
(0.93552221 0.033114938 -2.4327728e-20)
(0.93781301 0.03456389 1.5970065e-22)
(0.94025935 0.035983401 9.5570894e-20)