/*--------------------------------*- C++ -*----------------------------------*\
| =========                 |                                                 |
| \\      /  F ield         | OpenFOAM: The Open Source CFD Toolbox           |
|  \\    /   O peration     | Version:  2.4.0                                 |
|   \\  /    A nd           | Web:      www.OpenFOAM.org                      |
|    \\/     M anipulation  |                                                 |
\*---------------------------------------------------------------------------*/
FoamFile
{
    version     2.0;
    format      ascii;
    class       volScalarField;
    location    "110";
    object      p;
}
// * * * * * * * * * * * * * * * * * * * * * * * * * * * * * * * * * * * * * //

dimensions      [0 2 -2 0 0 0 0];

internalField   nonuniform List<scalar> 
78300
(
-0.12042423
-0.064548532
-0.077212775
-0.06350481
-0.070494429
-0.05807761
-0.053451942
-0.036591938
-0.025962517
-0.015227692
-0.011813673
-0.0077426284
-0.0066763597
-0.004895377
-0.0044044446
-0.0033278567
-0.0029448926
-0.0022080283
-0.0018425273
-0.0013129665
-0.0010159802
-0.0006691954
-0.00048424227
-0.00030001173
-0.00021252352
-0.00013325328
-0.00010602163
-0.00010429406
-0.00012626225
-0.00016950853
-0.00022226473
-0.00028490291
-0.00034949812
-0.00040327432
-0.00044181941
-0.00044268266
-0.00041051368
-0.00035988822
-0.0002846929
-0.00017042613
-3.7905698e-10
0.00022887751
0.00036850842
0.00056760843
0.00076321189
0.00090670586
0.0010982395
0.0012552324
0.001399786
0.001516443
0.0015982785
0.0016539189
0.0016585479
0.0016290436
0.0015320715
0.0013962671
0.0011633094
0.00089076901
0.00047879765
3.8906841e-05
-0.00060535166
-0.0012421268
-0.0021983691
-0.0028262846
-0.0034088725
-0.0038048433
-0.0041566928
-0.0043618173
-0.0045104912
-0.0045427638
-0.0045160716
-0.0043952915
-0.0042175125
-0.0039604854
-0.0036478268
-0.003267868
-0.0028344386
-0.0023400901
-0.0017944394
-0.001193531
-0.00054344783
0.00015843531
0.0009079413
0.0017055921
0.0025481317
0.0034360443
0.0043664867
0.0053408627
0.0063573639
0.0074140305
0.0085107409
0.0096464985
0.010820307
0.012031395
0.013278564
0.01456044
0.015875068
0.017221129
0.018596714
0.020000536
0.021430292
0.022884984
0.024365651
0.025870322
0.027396216
0.028938606
0.030499707
0.032078668
0.033673959
0.035283843
0.036908056
0.038545741
0.040195758
0.041855996
0.043525657
0.045204754
0.046893415
0.048589617
0.050291341
0.051995338
0.053701223
0.055407375
0.057113031
0.058814807
0.060512765
0.062205786
0.063894664
0.065576442
0.067251673
0.06891914
0.070579218
0.07223081
0.073873405
0.075506425
0.077129346
0.078743784
0.080348354
0.081942805
0.083524075
0.085093059
0.086647414
0.088187401
0.089711724
0.091220254
0.092712574
0.094188353
0.095647245
0.097087593
0.098509291
0.099910978
0.10129602
0.10266273
0.10401229
0.10534259
0.10665755
0.10795788
0.1092449
0.11051673
0.11177324
0.11301619
0.11424405
0.11545427
0.11664226
0.11781242
0.11897185
0.1201174
0.12124521
0.12235712
0.12345517
0.12454057
0.12561007
0.12666048
0.12769213
0.1287027
0.12969424
0.1306651
0.13162239
0.13256526
0.13349801
0.1344126
0.13531688
0.13620806
0.13709378
0.13796243
0.13882249
0.13966908
0.14051107
0.14133683
0.14215257
0.14295114
0.14374245
0.14451475
0.14528002
0.14602715
0.14677355
0.14750058
0.14822733
0.14892791
0.14963192
0.15030928
0.15100063
0.15166298
0.15234708
0.1529969
0.15367822
0.15431833
0.15500084
0.155632
0.15632616
0.15697937
0.15769755
0.15838955
0.15913827
0.15987131
0.16065256
0.16142561
0.16223919
0.16304756
0.1638874
0.16471989
0.16557207
0.1664087
0.1672484
0.16805216
0.16882356
0.16953027
0.17016211
0.17068692
0.17109071
0.1713511
0.17144497
0.17137355
0.17110706
0.17062095
0.16988267
0.16893595
0.16780088
0.1664741
0.16492994
0.16311625
0.16101749
0.15851896
0.15570813
0.15242501
0.14875782
0.14458522
0.13989632
0.13451889
0.12833728
0.12056163
0.11168736
0.10043044
0.087399385
0.070485342
0.051333175
0.027248592
0.0013735671
-0.031109098
-0.06468425
-0.10571046
-0.14338544
-0.18631749
-0.20964757
-0.23104522
-0.22816043
-0.23175149
-0.21080978
-0.20939493
-0.17953622
-0.18397428
-0.12042805
-0.064551949
-0.077214386
-0.063505413
-0.070488801
-0.058080545
-0.053456258
-0.036617449
-0.025987866
-0.015254437
-0.0118291
-0.0077576173
-0.0066838662
-0.0049026795
-0.0044088786
-0.0033330523
-0.0029484666
-0.0022121271
-0.0018455883
-0.0013161465
-0.0010183633
-0.00067137891
-0.00048571936
-0.00030119779
-0.00021325721
-0.00013371499
-0.00010628367
-0.00010425922
-0.00012613561
-0.00016915068
-0.00022187613
-0.00028440622
-0.00034898224
-0.00040282951
-0.00044151391
-0.00044264416
-0.00041071741
-0.00036026385
-0.00028525161
-0.00017135531
-1.5852781e-06
0.00022718469
0.00036739206
0.00056656693
0.00076175554
0.00090568194
0.0010969285
0.0012542372
0.0013988458
0.0015157026
0.0015977178
0.0016535671
0.0016583524
0.0016290431
0.0015321781
0.0013965477
0.0011636295
0.00089120669
0.0004791744
3.9318035e-05
-0.00060508339
-0.001241825
-0.0021976836
-0.0028254215
-0.0034081717
-0.0038041394
-0.0041560266
-0.0043611455
-0.0045098386
-0.0045421043
-0.0045154199
-0.0043946319
-0.0042168554
-0.0039598184
-0.0036471577
-0.0032671906
-0.0028337581
-0.0023394013
-0.0017937474
-0.0011928334
-0.00054274726
0.00015913919
0.00090864723
0.001706298
0.0025488373
0.0034367474
0.0043671849
0.0053415582
0.0063580561
0.007414718
0.0085114213
0.009647171
0.010820972
0.012032048
0.013279208
0.014561068
0.015875686
0.017221729
0.018597301
0.020001109
0.021430849
0.022885525
0.024366176
0.025870832
0.0273967
0.028939063
0.030500132
0.032079075
0.033674338
0.035284204
0.036908388
0.038546054
0.040196043
0.041856262
0.043525894
0.04520497
0.046893606
0.048589782
0.050291482
0.051995451
0.053701312
0.055407436
0.05711307
0.05881482
0.060512753
0.062205752
0.063894605
0.065576362
0.067251568
0.068919016
0.07057907
0.072230643
0.073873216
0.075506217
0.077129118
0.078743535
0.080348088
0.081942517
0.083523773
0.085092735
0.086647076
0.088187042
0.089711353
0.091219864
0.092712171
0.094187932
0.095646815
0.097087148
0.098508833
0.099910512
0.10129554
0.10266224
0.10401179
0.10534209
0.10665703
0.10795736
0.10924436
0.11051619
0.1117727
0.11301563
0.11424349
0.1154537
0.11664169
0.11781185
0.11897127
0.12011681
0.12124462
0.12235652
0.12345457
0.12453996
0.12560946
0.12665987
0.12769151
0.1287021
0.12969363
0.1306645
0.13162178
0.13256466
0.13349741
0.134412
0.13531627
0.13620745
0.13709317
0.13796182
0.13882189
0.13966847
0.14051047
0.14133623
0.14215198
0.14295055
0.14374186
0.14451416
0.14527945
0.14602658
0.14677299
0.14750002
0.14822678
0.14892736
0.14963139
0.15030875
0.15100013
0.15166248
0.1523466
0.15299643
0.15367777
0.15431789
0.15500043
0.15563172
0.15632619
0.15697976
0.15769831
0.15839067
0.15913979
0.1598732
0.16065485
0.16142826
0.16224223
0.16305092
0.1638911
0.16472386
0.16557629
0.16641307
0.16725282
0.16805651
0.16882767
0.16953398
0.17016525
0.17068931
0.17109217
0.17135145
0.17144409
0.17137123
0.17110323
0.17061549
0.16987569
0.16892765
0.16779127
0.1664631
0.16491742
0.16310202
0.16100115
0.1585008
0.15568704
0.15240153
0.14873057
0.14455421
0.13986011
0.13447598
0.12828424
0.12049967
0.11161266
0.10034534
0.087297902
0.07037216
0.051199689
0.027102574
0.001208664
-0.031281652
-0.064869887
-0.10588402
-0.14354433
-0.18641151
-0.20969102
-0.23104468
-0.22814841
-0.23173109
-0.2107965
-0.20938568
-0.17953204
-0.18397461
-0.1204321
-0.064555209
-0.077216513
-0.063505604
-0.070482731
-0.058083091
-0.05346047
-0.036644202
-0.026014562
-0.015283
-0.011845775
-0.0077738785
-0.0066919379
-0.0049105348
-0.0044136762
-0.0033386757
-0.0029523541
-0.0022165558
-0.0018488877
-0.0013195704
-0.0010209377
-0.00067373889
-0.00048732136
-0.00030248547
-0.00021405256
-0.00013419721
-0.00010660944
-0.00010420174
-0.00012604516
-0.00016874848
-0.00022149109
-0.00028386545
-0.00034841944
-0.00040233947
-0.00044118053
-0.00044262298
-0.00041097091
-0.00036067977
-0.00028584289
-0.00017242876
-3.5830958e-06
0.00022509201
0.00036628976
0.00056562437
0.00076017384
0.00090476841
0.0010955027
0.0012532096
0.0013978024
0.0015148777
0.0015970935
0.0016531746
0.0016581295
0.001629032
0.0015322809
0.0013968406
0.0011639625
0.00089167193
0.00047957258
3.9766042e-05
-0.00060478687
-0.0012414581
-0.0021968979
-0.002824429
-0.0034073659
-0.0038033324
-0.0041552688
-0.0043603832
-0.004509103
-0.0045413625
-0.0045146904
-0.0043938949
-0.0042161243
-0.0039590767
-0.0036464164
-0.0032664408
-0.0028330067
-0.0023386412
-0.0017929854
-0.0011920658
-0.00054197769
0.00015991151
0.00090942097
0.0017070703
0.0025496082
0.0034375145
0.004367945
0.0053423149
0.0063588086
0.0074154652
0.0085121597
0.0096479002
0.010821693
0.012032755
0.013279904
0.014561745
0.015876351
0.017222374
0.018597931
0.020001723
0.021431446
0.022886105
0.024366737
0.025871377
0.027397216
0.02893955
0.030500581
0.032079507
0.033674737
0.035284587
0.036908735
0.038546385
0.040196343
0.041856543
0.043526142
0.045205197
0.046893805
0.048589952
0.050291627
0.051995563
0.053701399
0.055407491
0.057113102
0.058814823
0.060512729
0.062205703
0.063894528
0.065576264
0.067251441
0.068918871
0.070578896
0.072230449
0.073872998
0.07550598
0.07712886
0.078743253
0.08034779
0.081942191
0.083523435
0.08509237
0.086646698
0.088186639
0.089710939
0.091219426
0.092711722
0.09418746
0.095646335
0.097086653
0.098508323
0.099909997
0.101295
0.10266171
0.10401123
0.10534154
0.10665646
0.10795679
0.10924378
0.11051559
0.1117721
0.11301501
0.11424287
0.11545306
0.11664106
0.11781122
0.11897064
0.12011617
0.12124398
0.12235586
0.12345392
0.12453929
0.1256088
0.12665919
0.12769084
0.12870143
0.12969296
0.13066384
0.13162111
0.132564
0.13349674
0.13441134
0.13531561
0.13620679
0.13709251
0.13796116
0.13882123
0.13966781
0.14050982
0.14133557
0.14215133
0.1429499
0.14374122
0.14451353
0.14527882
0.14602596
0.14677238
0.1474994
0.14822618
0.14892677
0.14963082
0.15030819
0.15099958
0.15166194
0.15234609
0.15299593
0.1536773
0.15431743
0.155
0.15563141
0.15632622
0.15698017
0.15769912
0.15839187
0.15914142
0.15987522
0.1606573
0.1614311
0.16224548
0.16305452
0.16389506
0.16472811
0.16558079
0.16641773
0.16725754
0.16806115
0.16883204
0.16953792
0.17016858
0.17069183
0.17109367
0.17135176
0.17144309
0.17136866
0.17109904
0.17060952
0.16986809
0.16891865
0.1677809
0.16645124
0.16490391
0.16308662
0.16098336
0.15848116
0.15566397
0.1523761
0.14870093
0.14452065
0.139821
0.13442969
0.12822721
0.1204334
0.11153232
0.100254
0.087188041
0.070249763
0.051054224
0.026943611
0.0010305695
-0.031467932
-0.065068843
-0.10606922
-0.14371297
-0.18650982
-0.20973495
-0.23104199
-0.22813351
-0.23170809
-0.21078107
-0.20937552
-0.17952667
-0.18397526
-0.12043574
-0.064558011
-0.077218422
-0.063505607
-0.070476692
-0.058085602
-0.053464691
-0.036670602
-0.026040594
-0.015311111
-0.011862247
-0.0077900541
-0.0066998194
-0.0049182677
-0.0044184228
-0.0033442699
-0.002956238
-0.0022209566
-0.0018521488
-0.0013229539
-0.0010234861
-0.00067607725
-0.00048891165
-0.00030376688
-0.00021483959
-0.0001346497
-0.00010698509
-0.00010411591
-0.0001260156
-0.00016832973
-0.00022115866
-0.00028333024
-0.00034786371
-0.0004018535
-0.0004408602
-0.00044264485
-0.00041128361
-0.00036112454
-0.00028642944
-0.00017359612
-5.9298981e-06
0.00022264426
0.00036531368
0.00056490523
0.00075856937
0.00090410018
0.001094067
0.0012522465
0.0013967278
0.0015140248
0.0015964515
0.0016527723
0.0016579019
0.0016290172
0.0015323814
0.0013971323
0.0011642966
0.00089213969
0.00047997801
4.0223906e-05
-0.00060447155
-0.0012410712
-0.0021961366
-0.0028234617
-0.0034065742
-0.0038025415
-0.0041545259
-0.0043596365
-0.0045083822
-0.004540635
-0.0045139749
-0.0043931709
-0.0042154064
-0.0039583468
-0.0036456874
-0.003265702
-0.0028322667
-0.0023378911
-0.0017922339
-0.0011913081
-0.00054121798
0.0001606741
0.00091018529
0.0017078325
0.0025503693
0.0034382713
0.0043686943
0.005343061
0.0063595506
0.0074162026
0.0085128883
0.00964862
0.010822405
0.012033452
0.013280592
0.014562412
0.015877008
0.017223008
0.018598552
0.020002327
0.021432033
0.022886675
0.024367288
0.025871914
0.027397721
0.028940028
0.03050102
0.032079932
0.033675127
0.035284966
0.036909075
0.038546712
0.040196636
0.041856822
0.043526386
0.045205422
0.046894004
0.04859012
0.050291772
0.051995672
0.053701484
0.055407542
0.057113133
0.058814825
0.060512702
0.062205654
0.063894449
0.065576165
0.067251312
0.068918727
0.070578721
0.072230258
0.073872781
0.075505745
0.077128604
0.078742973
0.080347495
0.081941865
0.0835231
0.085092005
0.086646323
0.088186235
0.089710527
0.091218989
0.092711274
0.094186985
0.095645856
0.097086158
0.098507813
0.099909484
0.10129446
0.10266118
0.10401068
0.105341
0.10665589
0.10795622
0.1092432
0.110515
0.11177151
0.11301439
0.11424226
0.11545243
0.11664044
0.11781059
0.11897001
0.12011553
0.12124333
0.12235519
0.12345327
0.12453861
0.12560814
0.12665852
0.12769017
0.12870076
0.12969228
0.13066319
0.13162045
0.13256335
0.13349608
0.13441069
0.13531496
0.13620614
0.13709186
0.13796051
0.13882058
0.13966716
0.14050917
0.14133492
0.14215069
0.14294925
0.14374059
0.1445129
0.1452782
0.14602533
0.14677177
0.14749879
0.14822559
0.14892618
0.14963025
0.15030763
0.15099905
0.1516614
0.15234558
0.15299543
0.15367683
0.15431697
0.15499958
0.1556311
0.15632624
0.15698058
0.15769993
0.15839306
0.15914303
0.15987722
0.16065974
0.16143392
0.1622487
0.1630581
0.163899
0.16473233
0.16558526
0.16642235
0.16726222
0.16806576
0.16883637
0.16954184
0.17017186
0.17069432
0.17109513
0.17135205
0.17144209
0.17136609
0.17109488
0.17060358
0.16986053
0.1689097
0.16777062
0.16643949
0.16489052
0.16307132
0.1609655
0.15846163
0.15564072
0.15235076
0.1486712
0.14448721
0.13978213
0.13438377
0.1281708
0.12036844
0.1114529
0.10016402
0.087078444
0.070127959
0.05090809
0.026784111
0.00085373304
-0.0316526
-0.065263902
-0.10624957
-0.14387575
-0.1866021
-0.20977391
-0.23103582
-0.22811649
-0.23168392
-0.21076518
-0.20936508
-0.17952112
-0.18397575
-0.1204391
-0.064560551
-0.077219953
-0.063505435
-0.07047029
-0.058088233
-0.05346912
-0.036697796
-0.02606696
-0.015339785
-0.011879062
-0.007806685
-0.0067078139
-0.0049261706
-0.004423292
-0.0033500318
-0.0029602507
-0.0022254878
-0.0018554958
-0.001326425
-0.0010261031
-0.00067847988
-0.00049054702
-0.00030508729
-0.00021564666
-0.00013509429
-0.00010740872
-0.00010400461
-0.00012602846
-0.00016788423
-0.00022085394
-0.00028278395
-0.00034729817
-0.00040135837
-0.00044054227
-0.00044270261
-0.00041165639
-0.00036161491
-0.00028703788
-0.00017486463
-8.555194e-06
0.00021984261
0.00036438173
0.00056430151
0.00075687262
0.00090357137
0.0010925662
0.001251289
0.0013955912
0.0015131192
0.0015957714
0.0016523454
0.0016576602
0.0016289964
0.0015324827
0.0013974324
0.0011646449
0.00089262665
0.00048040716
4.0706088e-05
-0.00060412727
-0.001240663
-0.0021953925
-0.002822509
-0.0034057858
-0.0038017557
-0.0041537856
-0.0043588922
-0.004507662
-0.0045399071
-0.0045132573
-0.0043924435
-0.0042146838
-0.0039576107
-0.003644952
-0.0032649549
-0.0028315179
-0.0023371306
-0.0017914717
-0.0011905387
-0.0005404462
0.00016144924
0.00091096267
0.0017086075
0.0025511435
0.0034390411
0.0043694572
0.0053438209
0.0063603059
0.0074169541
0.0085136307
0.0096493538
0.010823133
0.012034164
0.013281294
0.014563091
0.015877679
0.017223654
0.018599185
0.020002941
0.021432629
0.022887256
0.024367848
0.025872463
0.027398237
0.028940518
0.030501465
0.032080366
0.033675523
0.035285354
0.036909421
0.038547048
0.040196937
0.04185711
0.043526637
0.045205657
0.04689421
0.048590294
0.050291923
0.051995786
0.053701573
0.055407596
0.057113167
0.058814827
0.060512676
0.062205604
0.063894369
0.065576065
0.067251182
0.068918582
0.070578544
0.072230063
0.073872561
0.075505507
0.077128346
0.078742689
0.080347196
0.081941533
0.083522761
0.085091632
0.086645941
0.088185821
0.089710107
0.09121854
0.092710816
0.094186498
0.095645365
0.097085651
0.098507289
0.09990896
0.1012939
0.10266063
0.10401011
0.10534045
0.1066553
0.10795564
0.1092426
0.1105144
0.1117709
0.11301376
0.11424163
0.11545178
0.1166398
0.11780996
0.11896936
0.12011488
0.12124268
0.12235451
0.12345261
0.12453792
0.12560746
0.12665782
0.12768948
0.12870008
0.12969159
0.13066252
0.13161977
0.13256269
0.13349541
0.13441003
0.13531428
0.13620547
0.13709119
0.13795984
0.13881991
0.13966648
0.1405085
0.14133424
0.14215003
0.14294859
0.14373994
0.14451225
0.14527757
0.1460247
0.14677115
0.14749817
0.14822498
0.14892558
0.14962967
0.15030705
0.15099849
0.15166085
0.15234506
0.15299491
0.15367635
0.15431649
0.15499913
0.15563077
0.15632626
0.15698098
0.15770074
0.15839427
0.15914468
0.15987928
0.16066225
0.16143682
0.16225203
0.16306179
0.16390306
0.16473668
0.16558986
0.16642712
0.16726703
0.16807052
0.16884083
0.16954587
0.17017524
0.17069689
0.17109663
0.17135235
0.17144108
0.17136346
0.17109061
0.17059745
0.16985274
0.16890047
0.16776006
0.16642742
0.16487675
0.16305554
0.16094698
0.1584415
0.15561652
0.15232461
0.14864037
0.14445269
0.13974209
0.13433651
0.12811273
0.12030218
0.11137122
0.10007194
0.086965191
0.070002703
0.050756587
0.026618828
0.00067216354
-0.031841522
-0.065461536
-0.10643047
-0.14403703
-0.18668948
-0.20980729
-0.23102421
-0.2280958
-0.23165701
-0.21074813
-0.2093538
-0.1795154
-0.1839759
-0.12044215
-0.064562828
-0.077221068
-0.063504908
-0.070463313
-0.058090777
-0.053473645
-0.036725778
-0.026093685
-0.015369013
-0.011896238
-0.0078237858
-0.0067159693
-0.0049342752
-0.0044283052
-0.003355975
-0.0029644021
-0.0022301605
-0.0018589451
-0.0013299982
-0.0010288002
-0.00068095596
-0.00049223434
-0.00030645104
-0.00021647751
-0.00013553616
-0.00010787271
-0.00010387151
-0.00012607272
-0.00016741329
-0.00022056665
-0.00028222493
-0.00034672049
-0.00040085187
-0.00044022209
-0.00044278565
-0.00041207645
-0.00036214537
-0.00028766717
-0.00017620879
-1.1342547e-05
0.00021672459
0.00036345448
0.00056375401
0.00075507351
0.00090312778
0.0010909958
0.0012503182
0.0013943927
0.0015121593
0.0015950492
0.0016518877
0.001657398
0.0016289633
0.0015325791
0.0013977354
0.001165003
0.00089312906
0.00048085681
4.1209826e-05
-0.000603757
-0.0012402362
-0.0021946668
-0.0028215685
-0.0034049986
-0.0038009729
-0.0041530458
-0.0043581483
-0.0045069402
-0.0045391766
-0.0045125355
-0.0043917106
-0.0042139537
-0.0039568665
-0.0036442084
-0.0032641973
-0.0028307581
-0.0023363576
-0.0017906968
-0.0011897558
-0.0005396604
0.00016223884
0.00091175493
0.0017093971
0.0025519327
0.003439826
0.0043702365
0.0053445976
0.0063610765
0.0074177214
0.0085143887
0.0096501034
0.010823876
0.01203489
0.013282013
0.014563785
0.015878365
0.017224313
0.018599831
0.020003565
0.021433236
0.022887849
0.024368421
0.025873024
0.027398765
0.02894102
0.030501918
0.03208081
0.033675927
0.035285752
0.036909774
0.038547393
0.040197244
0.041857408
0.043526894
0.045205899
0.046894424
0.048590475
0.050292081
0.051995903
0.053701666
0.055407651
0.057113202
0.058814831
0.060512649
0.062205554
0.063894287
0.065575964
0.067251047
0.068918434
0.070578362
0.072229865
0.073872336
0.075505265
0.077128082
0.078742398
0.080346891
0.081941191
0.083522415
0.085091249
0.08664555
0.088185395
0.089709677
0.091218078
0.092710345
0.094185995
0.095644861
0.09708513
0.09850675
0.099908421
0.10129333
0.10266008
0.10400952
0.10533988
0.1066547
0.10795505
0.109242
0.11051378
0.11177028
0.1130131
0.11424099
0.11545111
0.11663915
0.1178093
0.1189687
0.12011421
0.121242
0.12235381
0.12345193
0.1245372
0.12560676
0.12665711
0.12768876
0.12869938
0.12969088
0.13066184
0.13161907
0.13256201
0.13349471
0.13440935
0.13531359
0.13620479
0.1370905
0.13795915
0.13881923
0.13966579
0.14050781
0.14133355
0.14214935
0.1429479
0.14373927
0.14451158
0.14527691
0.14602404
0.1467705
0.14749752
0.14822436
0.14892495
0.14962907
0.15030646
0.15099792
0.15166029
0.15234453
0.15299437
0.15367585
0.15431599
0.15499867
0.15563042
0.15632626
0.15698139
0.15770158
0.15839552
0.15914639
0.1598814
0.16066484
0.16143981
0.16225547
0.16306561
0.16390726
0.16474117
0.16559462
0.16643205
0.167272
0.16807544
0.16884543
0.16955005
0.17017874
0.17069955
0.17109817
0.17135266
0.17144004
0.17136075
0.17108621
0.17059111
0.16984469
0.16889094
0.16774917
0.16641496
0.16486255
0.16303924
0.16092778
0.1584207
0.15559135
0.15229758
0.14860841
0.144417
0.13970073
0.13428777
0.12805269
0.12023428
0.11128693
0.099977451
0.086847985
0.069873825
0.050599772
0.026447708
0.00048569039
-0.032034454
-0.065661438
-0.10661098
-0.14419506
-0.18676943
-0.20983241
-0.23100485
-0.22806979
-0.23162627
-0.21072933
-0.20934142
-0.17950936
-0.1839757
-0.12044493
-0.064564808
-0.077221708
-0.063503837
-0.070455549
-0.058093014
-0.053478148
-0.036754498
-0.026120735
-0.015398714
-0.011913732
-0.0078413268
-0.0067243003
-0.0049425859
-0.0044334678
-0.0033620981
-0.0029686894
-0.0022349734
-0.0018625016
-0.0013336767
-0.0010315808
-0.00068350731
-0.00049397542
-0.0003078586
-0.00021733338
-0.00013597974
-0.00010836929
-0.00010372111
-0.00012613869
-0.00016692014
-0.00022028848
-0.00028165306
-0.00034612975
-0.00040033289
-0.00043989624
-0.00044288471
-0.00041253138
-0.00036270909
-0.00028831557
-0.00017760663
-1.4204108e-05
0.0002133278
0.00036250094
0.00056321434
0.00075317402
0.00090272271
0.0010893556
0.0012493183
0.0013931329
0.0015111431
0.0015942802
0.0016513929
0.0016571082
0.0016289106
0.0015326636
0.0013980348
0.0011653649
0.00089364149
0.00048132229
4.173048e-05
-0.00060336399
-0.0012397965
-0.0021939667
-0.0028206451
-0.0034042163
-0.0038001963
-0.0041523094
-0.0043574073
-0.004506219
-0.0045384454
-0.0045118112
-0.0043909737
-0.0042132172
-0.0039561157
-0.0036434585
-0.0032634307
-0.0028299885
-0.0023355734
-0.0017899104
-0.0011889604
-0.00053886174
0.00016304179
0.00091256087
0.0017102004
0.0025527359
0.0034406252
0.0043710331
0.0053453914
0.0063618616
0.0074185036
0.0085151614
0.0096508679
0.010824635
0.012035632
0.013282746
0.014564492
0.015879064
0.017224984
0.01860049
0.020004196
0.021433849
0.022888453
0.024369004
0.025873598
0.027399306
0.028941534
0.03050238
0.032081263
0.033676338
0.035286159
0.036910134
0.038547747
0.040197559
0.041857713
0.043527159
0.045206149
0.046894644
0.048590661
0.050292242
0.051996023
0.053701761
0.055407707
0.057113238
0.058814834
0.060512621
0.062205504
0.063894202
0.065575861
0.06725091
0.068918284
0.070578176
0.072229663
0.073872106
0.075505017
0.077127813
0.0787421
0.08034658
0.081940841
0.083522061
0.085090855
0.08664515
0.088184957
0.089709235
0.091217603
0.092709861
0.094185477
0.095644342
0.097084594
0.098506194
0.099907869
0.10129274
0.10265951
0.10400892
0.10533931
0.10665409
0.10795445
0.10924137
0.11051314
0.11176965
0.11301243
0.11424033
0.11545042
0.11663848
0.11780863
0.11896802
0.12011352
0.12124131
0.12235309
0.12345124
0.12453646
0.12560604
0.12665637
0.12768802
0.12869865
0.12969015
0.13066114
0.13161835
0.13256131
0.133494
0.13440866
0.13531289
0.13620409
0.13708979
0.13795844
0.13881852
0.13966507
0.14050711
0.14133283
0.14214865
0.1429472
0.14373859
0.14451089
0.14527624
0.14602336
0.14676985
0.14749685
0.14822371
0.14892431
0.14962846
0.15030584
0.15099734
0.1516597
0.15234397
0.15299381
0.15367533
0.15431547
0.15499819
0.15563005
0.15632627
0.15698181
0.15770244
0.1583968
0.15914814
0.15988358
0.16066751
0.1614429
0.16225902
0.16306954
0.16391159
0.16474581
0.16559954
0.16643714
0.16727713
0.16808053
0.16885019
0.16955437
0.17018235
0.1707023
0.17109977
0.17135299
0.17143898
0.17135796
0.17108167
0.17058457
0.16983638
0.16888111
0.16773793
0.16640211
0.16484789
0.16302241
0.16090789
0.15839923
0.15556527
0.15226965
0.14857532
0.14438011
0.13965802
0.1342375
0.12799051
0.12016465
0.11119985
0.099880549
0.086726842
0.069741552
0.05043804
0.026271129
0.00029468116
-0.032230615
-0.06586254
-0.10678971
-0.14434753
-0.18683895
-0.20984625
-0.23097523
-0.22803669
-0.23159057
-0.21070813
-0.20932768
-0.17950289
-0.18397509
-0.12044734
-0.064566489
-0.077221791
-0.06350202
-0.070446752
-0.058094698
-0.053482485
-0.036783918
-0.026148116
-0.015428832
-0.011931514
-0.0078592865
-0.0067328209
-0.0049511125
-0.0044387856
-0.0033684032
-0.002973112
-0.0022399283
-0.0018661715
-0.0013374654
-0.0010344486
-0.00068613704
-0.00049577262
-0.00030931121
-0.00021821557
-0.00013643006
-0.00010889122
-0.00010355806
-0.00012621725
-0.00016640801
-0.00022001142
-0.00028106763
-0.0003455247
-0.00039980016
-0.00043956172
-0.00044299235
-0.00041301166
-0.00036330117
-0.00028898483
-0.00017904401
-1.7087689e-05
0.0002096894
0.00036149725
0.00056264164
0.0007511802
0.00090231198
0.0010876441
0.0012482723
0.001391808
0.0015100655
0.001593457
0.0016508522
0.0016567817
0.0016288293
0.001532728
0.0013983224
0.0011657239
0.00089415731
0.00048179796
4.2262288e-05
-0.00060295634
-0.0012393511
-0.0021933007
-0.0028197444
-0.0034034429
-0.0037994294
-0.0041515796
-0.004356672
-0.0045055008
-0.0045377157
-0.0045110862
-0.0043902345
-0.0042124747
-0.0039553599
-0.0036427039
-0.0032626561
-0.00282921
-0.002334779
-0.0017891133
-0.0011881536
-0.00053805107
0.0001638573
0.00091337966
0.0017110167
0.0025535525
0.0034414382
0.0043718482
0.0053462037
0.0063626609
0.0074193003
0.0085159483
0.0096516468
0.010825408
0.012036387
0.013283493
0.014565212
0.015879777
0.017225668
0.01860116
0.020004832
0.021434466
0.022889069
0.024369598
0.025874183
0.027399861
0.028942062
0.030502849
0.032081725
0.033676757
0.035286575
0.036910501
0.038548108
0.040197881
0.041858026
0.043527429
0.045206405
0.046894869
0.048590851
0.050292408
0.051996146
0.053701857
0.055407764
0.057113274
0.058814837
0.060512591
0.062205451
0.063894114
0.065575754
0.067250768
0.06891813
0.070577984
0.072229455
0.07387187
0.075504762
0.077127538
0.078741794
0.080346261
0.081940481
0.083521698
0.085090451
0.086644739
0.088184506
0.089708781
0.091217114
0.092709363
0.094184944
0.095643808
0.097084042
0.098505623
0.099907302
0.10129214
0.10265892
0.1040083
0.10533872
0.10665345
0.10795383
0.10924073
0.11051249
0.111769
0.11301174
0.11423966
0.11544971
0.11663779
0.11780795
0.11896733
0.12011282
0.12124059
0.12235235
0.12345053
0.1245357
0.1256053
0.12665561
0.12768727
0.12869791
0.12968939
0.13066041
0.1316176
0.13256059
0.13349326
0.13440794
0.13531216
0.13620336
0.13708906
0.13795772
0.1388178
0.13966434
0.14050639
0.1413321
0.14214793
0.14294647
0.14373788
0.14451018
0.14527555
0.14602267
0.14676917
0.14749617
0.14822305
0.14892365
0.14962782
0.15030522
0.15099673
0.1516591
0.1523434
0.15299324
0.1536748
0.15431494
0.1549977
0.15562966
0.15632626
0.15698223
0.15770331
0.15839811
0.15914994
0.15988583
0.16067026
0.16144609
0.16226268
0.1630736
0.16391606
0.16475061
0.16560461
0.1664424
0.16728243
0.16808579
0.1688551
0.16955882
0.17018607
0.17070515
0.17110141
0.17135332
0.17143788
0.17135508
0.17107698
0.17057781
0.16982781
0.16887095
0.16772634
0.16638884
0.16483275
0.16300501
0.16088732
0.15837704
0.15553828
0.15224079
0.1485411
0.14434197
0.13961389
0.13418565
0.12792604
0.12009311
0.11110988
0.09978106
0.086601808
0.069605948
0.050271693
0.02608945
9.9429868e-05
-0.032429329
-0.066064002
-0.10696505
-0.14449216
-0.18689499
-0.20984565
-0.23093261
-0.22799448
-0.2315486
-0.21068378
-0.20931226
-0.17949583
-0.18397402
-0.1204494
-0.064567857
-0.077221232
-0.063499223
-0.070436638
-0.058095538
-0.053486473
-0.036813996
-0.026175859
-0.015459321
-0.011949551
-0.0078776508
-0.006741541
-0.0049598639
-0.0044442635
-0.0033748946
-0.0029776693
-0.0022450286
-0.00186996
-0.0013413696
-0.0010374077
-0.00068884849
-0.00049762822
-0.00031081006
-0.00021912518
-0.00013689184
-0.00010943177
-0.00010338672
-0.00012629988
-0.00016587982
-0.00021972801
-0.00028046762
-0.00034490394
-0.00039925242
-0.00043921611
-0.0004431028
-0.00041351034
-0.00036391882
-0.00028967901
-0.00018051292
-1.9965838e-05
0.0002058463
0.00036042554
0.00056200185
0.00074909825
0.00090185516
0.0010858574
0.0012471625
0.0013904117
0.0015089184
0.0015925699
0.0016502546
0.0016564075
0.0016287086
0.001532762
0.0013985885
0.0011660711
0.00089466828
0.00048227648
4.2797925e-05
-0.00060254006
-0.0012389091
-0.0021926783
-0.0028188728
-0.0034026828
-0.0037986763
-0.0041508595
-0.0043559452
-0.004504788
-0.0045369896
-0.0045103623
-0.0043894945
-0.0042117268
-0.0039546005
-0.0036419467
-0.0032618745
-0.0028284232
-0.0023339752
-0.0017883062
-0.0011873358
-0.00053722899
0.00016468485
0.00091421078
0.0017118456
0.0025543821
0.0034422649
0.0043726835
0.005347036
0.0063634741
0.0074201112
0.0085167492
0.0096524399
0.010826195
0.012037157
0.013284254
0.014565946
0.015880503
0.017226363
0.018601842
0.020005468
0.021435085
0.022889696
0.024370202
0.02587478
0.02740043
0.028942603
0.030503325
0.032082195
0.033677184
0.035286999
0.036910875
0.038548476
0.040198208
0.041858343
0.043527704
0.045206665
0.046895098
0.048591044
0.050292575
0.05199627
0.053701954
0.05540782
0.057113308
0.058814837
0.060512558
0.062205395
0.063894021
0.065575643
0.06725062
0.06891797
0.070577786
0.072229239
0.073871626
0.075504499
0.077127254
0.078741478
0.080345932
0.081940109
0.083521324
0.085090033
0.086644314
0.088184041
0.089708312
0.09121661
0.092708849
0.094184394
0.095643258
0.097083474
0.098505033
0.099906716
0.10129151
0.10265832
0.10400766
0.10533811
0.1066528
0.10795319
0.10924007
0.11051182
0.11176833
0.11301103
0.11423896
0.11544898
0.11663708
0.11780724
0.11896661
0.12011209
0.12123986
0.12235159
0.12344979
0.12453492
0.12560454
0.12665482
0.12768648
0.12869714
0.12968861
0.13065967
0.13161684
0.13255986
0.13349251
0.13440721
0.13531141
0.13620262
0.13708831
0.13795697
0.13881705
0.13966358
0.14050564
0.14133134
0.14214719
0.14294572
0.14373715
0.14450945
0.14527484
0.14602195
0.14676847
0.14749546
0.14822237
0.14892297
0.14962717
0.15030457
0.15099611
0.15165848
0.15234282
0.15299265
0.15367425
0.15431439
0.15499718
0.15562925
0.15632624
0.15698265
0.1577042
0.15839946
0.15915179
0.15988814
0.16067309
0.16144937
0.16226646
0.1630778
0.16392068
0.16475556
0.16560986
0.16644783
0.16728791
0.16809122
0.16886018
0.16956343
0.17018992
0.17070808
0.17110311
0.17135366
0.17143675
0.1713521