0.44815619 	0 	0 	0 	0 	0 	0
0.4490919 	8.2886305e-16 	-1.0426231e-16 	-1.7049469e-32 	6.6666667e-16 	0 	6.6666667e-16
0.4500972 	6.6666667e-16 	-6.5991677e-32 	-3.9484267e-32 	6.6666667e-16 	0 	6.6666667e-16
0.45117748 	6.6666667e-16 	-2.072882e-31 	-1.5097267e-33 	6.6666667e-16 	0 	6.6666667e-16
0.45233831 	6.6666667e-16 	2.3747201e-31 	-1.2792163e-32 	6.6666667e-16 	0 	6.6666667e-16
0.45358571 	6.6666667e-16 	-4.9251328e-32 	-2.0305534e-32 	6.6666667e-16 	0 	6.6666667e-16
0.45492613 	6.6666667e-16 	-1.2394639e-31 	4.6462957e-32 	6.6666667e-16 	0 	6.6666667e-16
0.4563665 	6.6666667e-16 	2.3735995e-31 	3.7747335e-32 	6.6666667e-16 	0 	6.6666667e-16
0.45791427 	6.6666667e-16 	-1.3800274e-31 	-1.0281094e-32 	6.6666667e-16 	0 	6.6666667e-16
0.45957744 	6.6666667e-16 	-8.8482834e-32 	5.0215587e-33 	6.6666667e-16 	0 	6.6666667e-16
0.46136461 	6.6666667e-16 	2.2111027e-31 	-2.0891573e-33 	6.6666667e-16 	0 	6.6666667e-16
0.46328502 	6.6666667e-16 	1.2189819e-31 	-2.1550721e-32 	6.6666667e-16 	0 	6.6666667e-16
0.4653486 	6.6666667e-16 	1.3860019e-31 	2.9830009e-33 	6.6666667e-16 	0 	6.6666667e-16
0.46756601 	6.6666667e-16 	-1.6576496e-31 	-7.0109812e-33 	6.6666667e-16 	0 	6.6666667e-16
0.4699487 	6.6666667e-16 	1.0079835e-31 	-6.7048144e-34 	6.6666667e-16 	0 	6.6666667e-16
0.47250899 	6.6666667e-16 	4.9859532e-32 	4.3553371e-33 	6.6666667e-16 	0 	6.6666667e-16
0.47526009 	6.6666667e-16 	-2.2386098e-31 	-8.5087943e-33 	6.6666667e-16 	0 	6.6666667e-16
0.47821622 	6.6666667e-16 	4.1340849e-32 	9.6406721e-33 	6.6666667e-16 	0 	6.6666667e-16
0.48139263 	6.6666667e-16 	1.6799199e-31 	5.8773384e-33 	6.6666667e-16 	0 	6.6666667e-16
0.48480572 	6.6666667e-16 	7.2378051e-32 	-1.1702677e-32 	6.6666667e-16 	0 	6.6666667e-16
0.4884731 	6.6666667e-16 	9.9660576e-32 	-2.8151236e-33 	6.6666667e-16 	0 	6.6666667e-16
0.49241369 	6.6666667e-16 	9.1627082e-32 	9.8000049e-33 	6.6666667e-16 	0 	6.6666667e-16
0.4966478 	6.6666667e-16 	-5.4506942e-32 	2.6676596e-33 	6.6666667e-16 	0 	6.6666667e-16
0.50119727 	6.6666667e-16 	-6.145013e-32 	-3.8414505e-33 	6.6666667e-16 	0 	6.6666667e-16
0.50608554 	6.6666667e-16 	7.4426319e-32 	-7.6185204e-33 	6.6666667e-16 	0 	6.6666667e-16
0.51133778 	6.6666667e-16 	-2.3044904e-32 	3.9773174e-33 	6.6666667e-16 	0 	6.6666667e-16
0.51698105 	6.6666667e-16 	-4.5133323e-32 	4.7945449e-33 	6.6666667e-16 	0 	6.6666667e-16
0.52304439 	6.6666667e-16 	-1.8601427e-34 	-5.5936133e-33 	6.6666667e-16 	0 	6.6666667e-16
0.52955899 	6.6666667e-16 	-5.406627e-32 	2.5123396e-33 	6.6666667e-16 	0 	6.6666667e-16
0.53655834 	6.6666667e-16 	-1.922992e-32 	9.6811553e-34 	6.6666667e-16 	0 	6.6666667e-16
0.54407843 	6.6666667e-16 	1.6680299e-32 	5.0853716e-33 	6.6666667e-16 	0 	6.6666667e-16
0.55215787 	6.6666667e-16 	-4.372386e-32 	2.4550743e-34 	6.6666667e-16 	0 	6.6666667e-16
0.56083814 	6.6666667e-16 	-1.4446052e-33 	-1.8877938e-33 	6.6666667e-16 	0 	6.6666667e-16
0.57016375 	6.6666667e-16 	-1.1892171e-32 	1.651092e-33 	6.6666667e-16 	0 	6.6666667e-16
0.58018253 	6.6666667e-16 	-5.8977749e-32 	-2.2070403e-33 	6.6666667e-16 	0 	6.6666667e-16
0.59094578 	6.6666667e-16 	-2.2380291e-32 	-8.9708018e-34 	6.6666667e-16 	0 	6.6666667e-16
0.60250858 	6.6666667e-16 	1.1153248e-32 	-1.8598109e-33 	6.6666667e-16 	0 	6.6666667e-16
0.61493007 	6.6666667e-16 	-9.027798e-33 	-6.8390459e-34 	6.6666667e-16 	0 	6.6666667e-16
0.62827371 	6.6666667e-16 	2.0257047e-32 	-7.9885018e-34 	6.6666667e-16 	0 	6.6666667e-16
0.64260759 	6.6666667e-16 	3.5757389e-32 	-2.3738638e-33 	6.6666667e-16 	0 	6.6666667e-16
0.6580048 	6.6666667e-16 	-4.0863911e-33 	2.3404615e-33 	6.6666667e-16 	0 	6.6666667e-16
0.67454375 	6.6666667e-16 	-2.4582277e-34 	1.1777909e-33 	6.6666667e-16 	0 	6.6666667e-16
0.69230856 	6.6666667e-16 	1.9363867e-32 	-1.2041293e-33 	6.6666667e-16 	0 	6.6666667e-16
0.71138948 	6.6666667e-16 	8.8443533e-33 	1.3634734e-33 	6.6666667e-16 	0 	6.6666667e-16
0.73188331 	6.6666667e-16 	-2.6443283e-32 	-1.560439e-35 	6.6666667e-16 	0 	6.6666667e-16
0.75389385 	6.6666667e-16 	5.7102897e-33 	-1.8441615e-34 	6.6666667e-16 	0 	6.6666667e-16
0.77753244 	6.6666667e-16 	-4.6513212e-33 	6.0756006e-34 	6.6666667e-16 	0 	6.6666667e-16
0.80291842 	6.6666667e-16 	-2.2572839e-32 	-4.9411091e-34 	6.6666667e-16 	0 	6.6666667e-16
0.83017976 	6.6666667e-16 	-5.5016946e-33 	4.1293372e-34 	6.6666667e-16 	0 	6.6666667e-16
0.85945361 	6.6666667e-16 	-6.6138171e-33 	3.6669751e-34 	6.6666667e-16 	0 	6.6666667e-16
0.89088696 	6.6666667e-16 	-4.3031977e-33 	1.0986237e-33 	6.6666667e-16 	0 	6.6666667e-16
0.9246373 	6.6666667e-16 	-7.2059448e-34 	-5.8451724e-34 	6.6666667e-16 	0 	6.6666667e-16
0.96087337 	6.6666667e-16 	9.9612262e-33 	-1.0143039e-33 	6.6666667e-16 	0 	6.6666667e-16
0.99977589 	6.6666667e-16 	3.5589786e-33 	3.3235276e-34 	6.6666667e-16 	0 	6.6666667e-16
1.0415384 	6.6666667e-16 	8.0643365e-33 	5.6788781e-35 	6.6666667e-16 	0 	6.6666667e-16
1.0863682 	6.6666667e-16 	5.2387571e-33 	5.9682091e-36 	6.6666667e-16 	0 	6.6666667e-16
1.134487 	6.6666667e-16 	-2.3057362e-33 	-1.6213715e-34 	6.6666667e-16 	0 	6.6666667e-16
1.1861323 	6.6666667e-16 	2.1184094e-33 	1.9872801e-34 	6.6666667e-16 	0 	6.6666667e-16
1.2415581 	6.6666667e-16 	2.6778502e-33 	1.2650565e-34 	6.6666667e-16 	0 	6.6666667e-16
1.3010362 	6.6666667e-16 	-5.2420763e-33 	-1.8157108e-34 	6.6666667e-16 	0 	6.6666667e-16
1.3648572 	6.6666667e-16 	-5.3664445e-33 	3.6873581e-34 	6.6666667e-16 	0 	6.6666667e-16
1.4333319 	6.6666667e-16 	4.0948058e-33 	-2.2523188e-34 	6.6666667e-16 	0 	6.6666667e-16
1.5067925 	6.6666667e-16 	4.0584103e-33 	-6.3726258e-34 	6.6666667e-16 	0 	6.6666667e-16
1.5855941 	6.6666667e-16 	0 	2.9590894e-35 	6.6666667e-16 	0 	6.6666667e-16
1.6701161 	6.6666667e-16 	-1.0425788e-34 	3.6972892e-34 	6.6666667e-16 	0 	6.6666667e-16
1.7201517 	6.6666667e-16 	0 	8.549663e-35 	6.6666667e-16 	0 	6.6666667e-16
1.7607693 	6.6666667e-16 	8.2260685e-36 	-1.5103695e-34 	6.6666667e-16 	0 	6.6666667e-16
1.8512441 	6.6666667e-16 	3.8734875e-33 	-1.1847539e-34 	6.6666667e-16 	0 	6.6666667e-16
1.9352735 	6.6666667e-16 	3.8906037e-33 	-9.3197009e-36 	6.6666667e-16 	0 	6.6666667e-16
2.0133292 	6.6666667e-16 	-1.4715398e-33 	-4.7073576e-35 	6.6666667e-16 	0 	6.6666667e-16
2.0858468 	6.6666667e-16 	-9.3848226e-34 	-3.6117828e-36 	6.6666667e-16 	0 	6.6666667e-16
2.153228 	6.6666667e-16 	-2.9315731e-33 	-5.5773038e-36 	6.6666667e-16 	0 	6.6666667e-16
2.2158443 	6.6666667e-16 	-1.2206976e-32 	0 	6.6666667e-16 	0 	6.6666667e-16
2.2740391 	6.6666667e-16 	-7.923119e-33 	3.5927557e-36 	6.6666667e-16 	0 	6.6666667e-16
2.3281301 	6.6666667e-16 	1.1602572e-35 	8.5888173e-36 	6.6666667e-16 	0 	6.6666667e-16
2.3784113 	6.6666667e-16 	-9.1929147e-35 	7.8127315e-35 	6.6666667e-16 	0 	6.6666667e-16
2.4251549 	6.6666667e-16 	4.7348714e-33 	6.0374585e-35 	6.6666667e-16 	0 	6.6666667e-16
2.4686132 	6.6666667e-16 	1.2650022e-32 	4.8940503e-35 	6.6666667e-16 	0 	6.6666667e-16
2.5090199 	6.6666667e-16 	8.1271564e-33 	-2.1970039e-34 	6.6666667e-16 	0 	6.6666667e-16
2.5465917 	6.6666667e-16 	-1.343667e-32 	-1.5576972e-34 	6.6666667e-16 	0 	6.6666667e-16
2.5815297 	6.6666667e-16 	-4.4985571e-33 	-1.2524722e-35 	6.6666667e-16 	0 	6.6666667e-16
2.6140201 	6.6666667e-16 	2.538639e-32 	1.9153007e-34 	6.6666667e-16 	0 	6.6666667e-16
2.6442361 	6.6666667e-16 	1.0395432e-32 	3.4378362e-34 	6.6666667e-16 	0 	6.6666667e-16
2.672338 	6.6666667e-16 	-5.8141117e-33 	-1.4874274e-34 	6.6666667e-16 	0 	6.6666667e-16
2.698475 	6.6666667e-16 	-1.3289662e-32 	-2.5301544e-34 	6.6666667e-16 	0 	6.6666667e-16
2.7227854 	6.6666667e-16 	-5.7584872e-33 	-9.6835438e-35 	6.6666667e-16 	0 	6.6666667e-16
2.7453976 	6.6666667e-16 	1.4767462e-32 	1.3338877e-34 	6.6666667e-16 	0 	6.6666667e-16
2.766431 	6.6666667e-16 	-5.7383092e-34 	6.2601726e-35 	6.6666667e-16 	0 	6.6666667e-16
2.7859964 	6.6666667e-16 	1.0366589e-32 	-1.4119385e-34 	6.6666667e-16 	0 	6.6666667e-16
2.8041967 	6.6666667e-16 	1.7670961e-32 	-1.6295379e-34 	6.6666667e-16 	0 	6.6666667e-16
2.8211278 	6.6666667e-16 	-3.2025513e-32 	1.4944831e-34 	6.6666667e-16 	0 	6.6666667e-16
2.8368784 	6.6666667e-16 	2.2931315e-33 	3.3348579e-34 	6.6666667e-16 	0 	6.6666667e-16
2.8515313 	6.6666667e-16 	3.4717693e-32 	1.8393323e-34 	6.6666667e-16 	0 	6.6666667e-16
2.8651631 	6.6666667e-16 	-1.0115118e-32 	-3.6284313e-34 	6.6666667e-16 	0 	6.6666667e-16
2.8778453 	6.6666667e-16 	7.4825759e-34 	-3.9402374e-34 	6.6666667e-16 	0 	6.6666667e-16
2.8896443 	6.6666667e-16 	-1.8485567e-32 	3.040087e-34 	6.6666667e-16 	0 	6.6666667e-16
2.9006217 	6.6666667e-16 	-2.900506e-32 	7.4047266e-36 	6.6666667e-16 	0 	6.6666667e-16
2.910835 	6.6666667e-16 	-1.2871584e-32 	-3.0241956e-34 	6.6666667e-16 	0 	6.6666667e-16
2.9203374 	6.6666667e-16 	-2.1523311e-32 	2.3906897e-34 	6.6666667e-16 	0 	6.6666667e-16
2.9291785 	6.6666667e-16 	6.8265463e-34 	2.8917706e-34 	6.6666667e-16 	0 	6.6666667e-16
2.9374045 	6.6666667e-16 	2.5502648e-32 	-1.6674158e-34 	6.6666667e-16 	0 	6.6666667e-16
2.9450582 	6.6666667e-16 	-2.9245826e-32 	-1.0143311e-34 	6.6666667e-16 	0 	6.6666667e-16
2.9521795 	6.6666667e-16 	3.3044987e-33 	3.4116786e-36 	6.6666667e-16 	0 	6.6666667e-16
2.9588056 	6.6666667e-16 	4.7843658e-32 	-3.2532452e-35 	6.6666667e-16 	0 	6.6666667e-16
2.9649709 	6.6666667e-16 	-1.984528e-32 	-1.514243e-34 	6.6666667e-16 	0 	6.6666667e-16
2.9707075 	6.6666667e-16 	3.9602935e-32 	5.6620085e-35 	6.6666667e-16 	0 	6.6666667e-16
2.9760453 	6.6666667e-16 	8.1889788e-32 	2.3751254e-34 	6.6666667e-16 	0 	6.6666667e-16
2.981012 	6.6666667e-16 	-1.2145767e-33 	-4.8661181e-35 	6.6666667e-16 	0 	6.6666667e-16
2.9856335 	6.6666667e-16 	-4.6082987e-32 	9.7922764e-35 	6.6666667e-16 	0 	6.6666667e-16
2.9899337 	6.6666667e-16 	-2.2831079e-32 	4.1142667e-35 	6.6666667e-16 	0 	6.6666667e-16
2.9939351 	6.6666667e-16 	1.1426043e-31 	-2.4576075e-34 	6.6666667e-16 	0 	6.6666667e-16
2.9976584 	6.6666667e-16 	8.2729912e-32 	4.1716459e-35 	6.6666667e-16 	0 	6.6666667e-16
3.001123 	6.6666667e-16 	-9.6342694e-32 	1.8450549e-34 	6.6666667e-16 	0 	6.6666667e-16
3.0043468 	6.6666667e-16 	-6.5204784e-32 	-3.4632291e-35 	6.6666667e-16 	0 	6.6666667e-16
3.0073466 	6.6666667e-16 	-3.7658666e-32 	-1.0979884e-34 	6.6666667e-16 	0 	6.6666667e-16
3.0101381 	6.6666667e-16 	-2.0001082e-31 	4.8600433e-35 	6.6666667e-16 	0 	6.6666667e-16
3.0127355 	6.6666667e-16 	-1.1959486e-31 	-7.9813746e-36 	6.6666667e-16 	0 	6.6666667e-16
3.0151526 	6.6666667e-16 	-9.7291578e-32 	7.9980125e-35 	6.6666667e-16 	0 	6.6666667e-16
3.0174017 	6.6666667e-16 	-3.9028159e-32 	1.863861e-34 	6.6666667e-16 	0 	6.6666667e-16
3.0194946 	6.6666667e-16 	2.1042338e-31 	-1.8706999e-34 	6.6666667e-16 	0 	6.6666667e-16
3.0214421 	6.6666667e-16 	2.8318881e-31 	-1.0385677e-34 	6.6666667e-16 	0 	6.6666667e-16
3.0232543 	6.6666667e-16 	1.1008479e-31 	5.8367882e-35 	6.6666667e-16 	0 	6.6666667e-16
3.0249407 	6.6666667e-16 	-1.9853469e-31 	3.3939173e-35 	6.6666667e-16 	0 	6.6666667e-16
3.0265099 	6.6666667e-16 	8.150716e-32 	1.5616253e-35 	6.6666667e-16 	0 	6.6666667e-16
3.0279701 	6.6666667e-16 	-1.6080074e-32 	1.4165816e-36 	6.6666667e-16 	0 	6.6666667e-16
3.029329 	6.6666667e-16 	-3.1426276e-31 	-5.2960032e-35 	6.6666667e-16 	0 	6.6666667e-16
3.0305934 	6.6666667e-16 	-3.4999806e-31 	-6.0080189e-36 	6.6666667e-16 	0 	6.6666667e-16
3.0317701 	6.6666667e-16 	3.0995589e-31 	-4.9766041e-36 	6.6666667e-16 	0 	6.6666667e-16
3.032865 	6.6666667e-16 	4.7638647e-31 	-7.2218657e-35 	6.6666667e-16 	0 	6.6666667e-16
3.0338839 	6.6666667e-16 	-4.3377908e-31 	3.1400453e-35 	6.6666667e-16 	0 	6.6666667e-16
3.034832 	6.6666667e-16 	1.5499942e-16 	3.2051323e-35 	6.6666667e-16 	0 	6.6666667e-16
3.0357143 	0 	0 	0 	0 	0 	0
