/*--------------------------------*- C++ -*----------------------------------*\
| =========                 |                                                 |
| \\      /  F ield         | OpenFOAM: The Open Source CFD Toolbox           |
|  \\    /   O peration     | Version:  2.4.0                                 |
|   \\  /    A nd           | Web:      www.OpenFOAM.org                      |
|    \\/     M anipulation  |                                                 |
\*---------------------------------------------------------------------------*/
FoamFile
{
    version     2.0;
    format      ascii;
    class       volScalarField;
    location    "20";
    object      nut;
}
// * * * * * * * * * * * * * * * * * * * * * * * * * * * * * * * * * * * * * //

dimensions      [0 2 -1 0 0 0 0];

internalField   nonuniform List<scalar> 
32000
(
4.468663e-07
1.2429661e-07
4.7971742e-07
4.8968604e-08
2.0127893e-08
3.7473648e-09
4.3523309e-09
1.7064293e-09
1.603224e-09
1.0886182e-09
8.9737236e-10
7.2359729e-10
6.1535926e-10
5.3413562e-10
4.7585073e-10
4.3281982e-10
4.0175639e-10
3.8007606e-10
3.6340121e-10
3.4954944e-10
3.3756642e-10
3.2696013e-10
3.1726546e-10
3.0822138e-10
2.9946451e-10
2.9081097e-10
2.8176595e-10
2.7274429e-10
2.644874e-10
2.5720122e-10
2.5087536e-10
2.4546347e-10
2.4093347e-10
2.3726051e-10
2.3451067e-10
2.3284639e-10
2.3221293e-10
2.3213349e-10
2.3240966e-10
2.3303169e-10
2.3402689e-10
2.3546193e-10
2.3750307e-10
2.4041372e-10
2.4479831e-10
2.5178624e-10
2.6655989e-10
2.8490573e-10
2.9751569e-10
3.0796943e-10
3.169202e-10
3.2486508e-10
3.3198549e-10
3.3843817e-10
3.4432197e-10
3.4971592e-10
3.5468064e-10
3.5926548e-10
3.635106e-10
3.6745035e-10
3.7111391e-10
3.7452631e-10
3.7770912e-10
3.8068145e-10
3.8346008e-10
3.8605982e-10
3.88494e-10
3.9077461e-10
3.9291209e-10
3.949161e-10
3.9679537e-10
3.9855788e-10
4.0021071e-10
4.017606e-10
4.0321357e-10
4.0457527e-10
4.0585161e-10
4.0704747e-10
4.0816925e-10
4.0922061e-10
4.1020738e-10
4.1112915e-10
4.1198423e-10
4.1277686e-10
4.1350913e-10
4.1418486e-10
4.148063e-10
4.1535956e-10
4.1582566e-10
4.1637129e-10
4.167975e-10
4.1717646e-10
4.1750955e-10
4.1779773e-10
4.180419e-10
4.182431e-10
4.1840196e-10
4.1851903e-10
4.1859466e-10
4.1862898e-10
4.1862302e-10
4.1857566e-10
4.1848668e-10
4.1835674e-10
4.1818506e-10
4.1797121e-10
4.1771445e-10
4.1741415e-10
4.170694e-10
4.1667915e-10
4.1624227e-10
4.1575742e-10
4.1522318e-10
4.146379e-10
4.139998e-10
4.1330691e-10
4.12557e-10
4.1174778e-10
4.1087655e-10
4.0994053e-10
4.0893667e-10
4.0786154e-10
4.0671142e-10
4.0548248e-10
4.0417016e-10
4.0276983e-10
4.0127632e-10
3.9968381e-10
3.979863e-10
3.9617696e-10
3.9424823e-10
3.9219209e-10
3.8999963e-10
3.8766075e-10
3.8516458e-10
3.8249894e-10
3.7964998e-10
3.7660267e-10
3.7333974e-10
3.6984178e-10
3.6608662e-10
3.6204898e-10
3.5769924e-10
3.5300281e-10
3.4791885e-10
3.4239779e-10
3.3637902e-10
3.2978351e-10
3.2251247e-10
3.1441027e-10
3.0529705e-10
2.9467841e-10
2.8191258e-10
2.6346068e-10
2.4856695e-10
2.4140348e-10
2.3678267e-10
2.3359185e-10
2.312971e-10
2.2955843e-10
2.2819462e-10
2.2725709e-10
2.2666554e-10
2.2644275e-10
2.2669456e-10
2.2782274e-10
2.3006983e-10
2.3316483e-10
2.3704198e-10
2.4172019e-10
2.4720529e-10
2.5354033e-10
2.6069914e-10
2.6847611e-10
2.7611048e-10
2.8323557e-10
2.8991249e-10
2.9696293e-10
3.0424828e-10
3.1205932e-10
3.2072573e-10
3.3063304e-10
3.4250402e-10
3.5835392e-10
3.8156756e-10
4.138505e-10
4.5758066e-10
5.1605651e-10
5.9749045e-10
7.0410307e-10
8.7684584e-10
1.0543546e-09
1.5406817e-09
1.5107186e-09
3.7041803e-09
2.5822458e-09
1.5425781e-08
2.8739239e-08
1.6761992e-07
1.49051e-07
2.139975e-07
1.1567352e-07
2.1169239e-07
6.5018561e-08
2.535926e-08
3.8580557e-09
7.1263745e-09
3.7142298e-09
2.9647224e-09
2.1415406e-09
1.7133637e-09
1.3845553e-09
1.162861e-09
9.9890907e-10
8.7645605e-10
7.8363236e-10
7.130119e-10
6.5955256e-10
6.1606217e-10
5.7902037e-10
5.4686495e-10
5.1894063e-10
4.9460351e-10
4.7258855e-10
4.5161847e-10
4.3179886e-10
4.1220489e-10
3.9228397e-10
3.7322668e-10
3.5600903e-10
3.4045958e-10
3.263136e-10
3.1343346e-10
3.0174423e-10
2.9131381e-10
2.8237059e-10
2.7495653e-10
2.6861869e-10
2.6309869e-10
2.5835043e-10
2.5442163e-10
2.5150628e-10
2.4984557e-10
2.4974519e-10
2.517825e-10
2.5707781e-10
2.7021745e-10
2.8596019e-10
2.9618699e-10
3.0478223e-10
3.1236622e-10
3.1920094e-10
3.2536717e-10
3.309713e-10
3.3609191e-10
3.4079025e-10
3.4511667e-10
3.4911249e-10
3.5281195e-10
3.5624583e-10
3.5943964e-10
3.6241544e-10
3.6519237e-10
3.6778748e-10
3.70216e-10
3.7249183e-10
3.7462366e-10
3.7661871e-10
3.7848576e-10
3.8023311e-10
3.8186813e-10
3.8339766e-10
3.848277e-10
3.86164e-10
3.8741171e-10
3.8857558e-10
3.8966106e-10
3.9067266e-10
3.9161639e-10
3.9249614e-10
3.9331765e-10
3.9408096e-10
3.9478425e-10
3.9543078e-10
3.9602233e-10
3.9656223e-10
3.9705276e-10
3.9748532e-10
3.9769386e-10
3.982594e-10
3.9857753e-10
3.9885367e-10
3.9909083e-10
3.9928927e-10
3.9944517e-10
3.9955855e-10
3.9963464e-10
3.9967758e-10
3.996883e-10
3.9966318e-10
3.9960557e-10
3.995165e-10
3.9939165e-10
3.9923131e-10
3.990362e-10
3.9880589e-10
3.9853982e-10
3.9823756e-10
3.9789836e-10
3.9752139e-10
3.9710579e-10
3.9665049e-10
3.9615443e-10
3.9561637e-10
3.9503503e-10
3.9440937e-10
3.937382e-10
3.9301818e-10
3.9224682e-10
3.9142176e-10
3.9054052e-10
3.8960028e-10
3.8859801e-10
3.8753065e-10
3.8639451e-10
3.8518587e-10
3.8390067e-10
3.8253422e-10
3.8108164e-10
3.7953785e-10
3.7789697e-10
3.7615281e-10
3.7429856e-10
3.7232644e-10
3.7022806e-10
3.6799385e-10
3.6561276e-10
3.6307264e-10
3.6035891e-10
3.5745541e-10
3.5434633e-10
3.5100791e-10
3.474106e-10
3.4351919e-10
3.3929129e-10
3.346785e-10
3.2962192e-10
3.2405226e-10
3.1787216e-10
3.1094744e-10
3.0309536e-10
2.938882e-10
2.8243374e-10
2.6546292e-10
2.5168647e-10
2.4591597e-10
2.434573e-10
2.4319405e-10
2.4457678e-10
2.4723567e-10
2.5088158e-10
2.554321e-10
2.6071929e-10
2.6668295e-10
2.7344715e-10
2.8143574e-10
2.9048516e-10
3.0054683e-10
3.1180716e-10
3.241807e-10
3.3768263e-10
3.5238186e-10
3.68251e-10
3.8505655e-10
4.0200022e-10
4.1887528e-10
4.3599657e-10
4.5444505e-10
4.7413897e-10
4.9562535e-10
5.1952675e-10
5.4663505e-10
5.7811935e-10
6.1781123e-10
6.7026329e-10
7.3885696e-10
8.2786054e-10
9.440401e-10
1.1005823e-09
1.3074177e-09
1.6172858e-09
1.9853916e-09
2.7439444e-09
2.9943636e-09
5.8380066e-09
2.6057059e-09
1.7812753e-08
3.4122909e-08
1.3314277e-07
1.4240141e-07
1.5266755e-08
2.3914453e-08
2.3928687e-08
2.7273084e-08
1.6960469e-08
2.1623996e-09
6.267194e-09
3.993854e-09
2.9870313e-09
2.3001214e-09
1.8262271e-09
1.4869128e-09
1.2439037e-09
1.0644686e-09
9.2566652e-10
8.1819646e-10
7.3354547e-10
6.6662576e-10
6.1101922e-10
5.635313e-10
5.2267518e-10
4.8795395e-10
4.5880638e-10
4.3311122e-10
4.0889415e-10
3.8668171e-10
3.6548717e-10
3.4362564e-10
3.2233498e-10
3.031961e-10
2.8592081e-10
2.7010787e-10
2.5557292e-10
2.4223458e-10
2.3013415e-10
2.1943612e-10
2.1020765e-10
2.0218221e-10
1.9512376e-10
1.8891099e-10
1.8351678e-10
1.7909584e-10
1.7577832e-10
1.7369311e-10
1.7304613e-10
1.743396e-10
1.795543e-10
1.8568566e-10
1.8930013e-10
1.9262241e-10
1.9586347e-10
1.9892106e-10
2.0174783e-10
2.0435534e-10
2.0676461e-10
2.0899192e-10
2.1105472e-10
2.1296742e-10
2.1474237e-10
2.1639511e-10
2.1793661e-10
2.1937662e-10
2.2072382e-10
2.2198617e-10
2.2317102e-10
2.2428565e-10
2.253303e-10
2.2630652e-10
2.2721816e-10
2.2806899e-10
2.2886233e-10
2.296013e-10
2.3028866e-10
2.3092705e-10
2.315186e-10
2.3206493e-10
2.3256975e-10
2.3303535e-10
2.33465e-10
2.3386097e-10
2.342267e-10
2.3456257e-10
2.3486752e-10
2.3514305e-10
2.3538995e-10
2.3560991e-10
2.3580422e-10
2.3597365e-10
2.3591308e-10
2.3625443e-10
2.3636298e-10
2.3645061e-10
2.365204e-10
2.3657192e-10
2.3659933e-10
2.3660195e-10
2.365863e-10
2.3655748e-10
2.3651641e-10
2.364558e-10
2.3638504e-10
2.3630368e-10
2.3620316e-10
2.3608612e-10
2.3595354e-10
2.3580523e-10
2.3564092e-10
2.3546054e-10
2.3526373e-10
2.3505015e-10
2.3481951e-10
2.3457134e-10
2.3430527e-10
2.3402085e-10
2.337177e-10
2.3339583e-10
2.3305529e-10
2.3269337e-10
2.3230877e-10
2.3190042e-10
2.3146722e-10
2.3100798e-10
2.3052145e-10
2.3000636e-10
2.2946121e-10
2.2888452e-10
2.282747e-10
2.2762965e-10
2.2694681e-10
2.2622529e-10
2.2546295e-10
2.2465765e-10
2.2380711e-10
2.2290867e-10
2.2195952e-10
2.2095633e-10
2.198951e-10
2.1877143e-10
2.1757945e-10
2.1631292e-10
2.1496843e-10
2.1353502e-10
2.1199696e-10
2.1033299e-10
2.0852192e-10
2.0654006e-10
2.0435932e-10
2.0195363e-10
1.9927761e-10
1.9628392e-10
1.9289017e-10
1.8893801e-10
1.8381817e-10
1.7608731e-10
1.7008758e-10
1.682944e-10
1.6857849e-10
1.704263e-10
1.7361546e-10
1.7801639e-10
1.8343809e-10
1.8976773e-10
1.9688704e-10
2.0473648e-10
2.1344015e-10
2.2328731e-10
2.3374778e-10
2.4511078e-10
2.5777195e-10
2.7154664e-10
2.8643496e-10
3.0247378e-10
3.1959607e-10
3.3768126e-10
3.5632328e-10
3.7564575e-10
3.9614729e-10
4.1864667e-10
4.4321988e-10
4.7049492e-10
5.0118582e-10
5.3624012e-10
5.7678153e-10
6.2713025e-10
6.9032537e-10
7.6998933e-10
8.6997758e-10
9.9766002e-10
1.1650657e-09
1.3851084e-09
1.6966985e-09
2.0894628e-09
2.7645895e-09
3.0582632e-09
5.1356931e-09
1.3657516e-09
1.1609977e-08
2.0465471e-08
2.0025245e-08
2.5688348e-08
2.3198276e-10
1.1378311e-09
6.4686012e-10
5.7548674e-09
5.9137001e-09
9.0563265e-10
3.189748e-09
2.4766563e-09
2.0891374e-09
1.8275428e-09
1.499132e-09
1.2387191e-09
1.0409875e-09
8.9278948e-10
7.7303114e-10
6.7766893e-10
5.9986903e-10
5.3627599e-10
4.8293618e-10
4.3760199e-10
3.9909457e-10
3.6710203e-10
3.4117625e-10
3.1891608e-10
2.9812161e-10
2.7954439e-10
2.6234181e-10
2.4427593e-10
2.2645282e-10
2.1065064e-10
1.9657957e-10
1.8383972e-10
1.7226413e-10
1.6179111e-10
1.5243718e-10
1.4427645e-10
1.3732603e-10
1.3140963e-10
1.2632975e-10
1.2190434e-10
1.180214e-10
1.1474712e-10
1.1210001e-10
1.1005423e-10
1.0854325e-10
1.0758417e-10
1.0737421e-10
1.0716718e-10
1.0671718e-10
1.0680223e-10
1.0732077e-10
1.0797285e-10
1.086619e-10
1.0934694e-10
1.100138e-10
1.1065217e-10
1.112589e-10
1.1183069e-10
1.1236481e-10
1.1286884e-10
1.133443e-10
1.1379288e-10
1.1421638e-10
1.1461674e-10
1.1499598e-10
1.1535658e-10
1.1569441e-10
1.1600902e-10
1.1630119e-10
1.1657185e-10
1.1682183e-10
1.1705193e-10
1.1726288e-10
1.1745542e-10
1.1762861e-10
1.1777956e-10
1.1791487e-10
1.1803532e-10
1.1814215e-10
1.1823636e-10
1.183195e-10
1.1839199e-10
1.1845338e-10
1.1850418e-10
1.1854457e-10
1.1857517e-10
1.1859653e-10
1.186123e-10
1.1847705e-10
1.1861624e-10
1.1860954e-10
1.1859616e-10
1.1857841e-10
1.1855565e-10
1.1852267e-10
1.1847867e-10
1.1842904e-10
1.1837797e-10
1.1832618e-10
1.1826602e-10
1.1820854e-10
1.1815199e-10
1.1808745e-10
1.1801866e-10
1.1794628e-10
1.1787026e-10
1.1779053e-10
1.1770715e-10
1.1762004e-10
1.1752912e-10
1.174344e-10
1.173358e-10
1.172333e-10
1.1712691e-10
1.1701668e-10
1.1690302e-10
1.1678648e-10
1.1666537e-10
1.1653921e-10
1.1640771e-10
1.1627065e-10
1.1612782e-10
1.15979e-10
1.1582403e-10
1.156627e-10
1.1549485e-10
1.1532036e-10
1.1513749e-10
1.149422e-10
1.1473957e-10
1.1452963e-10
1.1431252e-10
1.1408852e-10
1.138579e-10
1.1362104e-10
1.133783e-10
1.131299e-10
1.1287615e-10
1.1261678e-10
1.123518e-10
1.1208454e-10
1.1181362e-10
1.1153396e-10
1.1123278e-10
1.1090832e-10
1.1055577e-10
1.1017019e-10
1.097551e-10
1.0930487e-10
1.0883124e-10
1.0833065e-10
1.0783004e-10
1.0703804e-10
1.0582908e-10
1.0534606e-10
1.0591832e-10
1.0721509e-10
1.0920314e-10
1.1191889e-10
1.1542964e-10
1.1965191e-10
1.2450306e-10
1.2994537e-10
1.3597428e-10
1.4271635e-10
1.5039728e-10
1.583952e-10
1.67203e-10
1.772715e-10
1.8837966e-10
2.0050217e-10
2.1360694e-10
2.2745951e-10
2.4217578e-10
2.5768751e-10
2.7432702e-10
2.9265289e-10
3.1316281e-10
3.3605157e-10
3.6193926e-10
3.9152465e-10
4.2574861e-10
4.6553225e-10
5.1491265e-10
5.748477e-10
6.4826035e-10
7.3631082e-10
8.4509477e-10
9.8269249e-10
1.1590455e-09
1.3955482e-09
1.6930546e-09
2.1460626e-09
2.0484906e-09
2.9284611e-09
5.7849234e-10
5.1489169e-09
5.5049174e-09
5.8776516e-10
1.2077064e-09
2.2890544e-13
1.3543957e-11
1.6355235e-12
6.299566e-10
1.2212842e-09
2.9910755e-10
1.2251003e-09
1.1169234e-09
1.0023021e-09
9.4072473e-10
8.1891577e-10
7.196326e-10
6.3195905e-10
5.5920926e-10
4.9254446e-10
4.3463721e-10
3.8358854e-10
3.3973149e-10
3.0266241e-10
2.7130824e-10
2.4493903e-10
2.2349906e-10
2.0675169e-10
1.9275238e-10
1.796724e-10
1.6823739e-10
1.5786111e-10
1.4640773e-10
1.347605e-10
1.2457118e-10
1.1569538e-10
1.0787402e-10
1.0101931e-10
9.5110739e-11
9.0154983e-11
8.6148746e-11
8.3027158e-11
8.0598346e-11
7.8724707e-11
7.7191127e-11
7.5822448e-11
7.4614895e-11
7.3530259e-11
7.2476044e-11
7.1255709e-11
6.9639798e-11
6.6934251e-11
6.3883377e-11
6.1831646e-11
6.0680597e-11
6.0150706e-11
5.9869844e-11
5.9733698e-11
5.9681078e-11
5.9682882e-11
5.9717972e-11
5.977441e-11
5.984295e-11
5.9916711e-11
5.9995414e-11
6.0076583e-11
6.0158555e-11
6.0240271e-11
6.0321176e-11
6.0401114e-11
6.0480264e-11
6.0553655e-11
6.0620646e-11
6.0680978e-11
6.0734583e-11
6.0781432e-11
6.0821551e-11
6.0854996e-11
6.0881865e-11
6.0893404e-11
6.0870271e-11
6.0843757e-11
6.0813994e-11
6.0781254e-11
6.0745851e-11
6.0708309e-11
6.0668923e-11
6.0627632e-11
6.058449e-11
6.0539498e-11
6.0492791e-11
6.0444592e-11
6.039815e-11
6.0279696e-11
6.0295986e-11
6.0246012e-11
6.0196071e-11
6.0147738e-11
6.0100367e-11
6.004984e-11
5.9995446e-11
5.9941239e-11
5.9890424e-11
5.9843456e-11
5.9794503e-11
5.9751926e-11
5.9713993e-11
5.967418e-11
5.9635582e-11
5.9598546e-11
5.9563079e-11
5.9529175e-11
5.9496943e-11
5.9466411e-11
5.9437606e-11
5.9410642e-11
5.9385583e-11
5.936255e-11
5.9341703e-11
5.9323246e-11
5.930764e-11
5.929552e-11
5.9285914e-11
5.9278699e-11
5.9273939e-11
5.9271764e-11
5.9272361e-11
5.9275948e-11
5.9282798e-11
5.9293223e-11
5.9307603e-11
5.9326393e-11
5.9341425e-11
5.9331871e-11
5.9325602e-11
5.9323355e-11
5.9326009e-11
5.9334639e-11
5.9350485e-11
5.9375014e-11
5.9409852e-11
5.9456794e-11
5.951792e-11
5.9595232e-11
5.9691289e-11
5.981157e-11
5.995952e-11
6.0135284e-11
6.0336546e-11
6.0566689e-11
6.0830167e-11
6.1133878e-11
6.1495788e-11
6.19313e-11
6.2481513e-11
6.3185269e-11
6.4164608e-11
6.5327709e-11
6.7254653e-11
6.9408071e-11
7.0780568e-11
7.1965001e-11
7.3177557e-11
7.458354e-11
7.6336227e-11
7.8398233e-11
8.0713911e-11
8.3311904e-11
8.6255973e-11
8.9661155e-11
9.3796128e-11
9.8145534e-11
1.0328231e-10
1.0959878e-10
1.1687498e-10
1.250434e-10
1.3391304e-10
1.4261243e-10
1.5199413e-10
1.6214993e-10
1.7343456e-10
1.8633068e-10
2.0109411e-10
2.1791859e-10
2.3734627e-10
2.5996624e-10
2.8656619e-10
3.178341e-10
3.5695548e-10
4.0340457e-10
4.5891133e-10
5.1722462e-10
5.8223786e-10
6.5574018e-10
7.384849e-10
8.3368654e-10
9.2649914e-10
1.0556624e-09
9.1377375e-10
1.1844055e-09
2.1666674e-10
1.1986666e-09
8.0361505e-10
1.6882902e-12
1.4205855e-11
2.0621836e-17
5.8120859e-15
4.2904671e-17
2.7477281e-11
1.5713179e-10
8.0546455e-11
3.9066049e-10
4.227175e-10
3.9697374e-10
3.9631362e-10
3.5960817e-10
3.2887721e-10
2.967671e-10
2.6759043e-10
2.3778928e-10
2.1041208e-10
1.8517623e-10
1.6292005e-10
1.4413878e-10
1.2848633e-10
1.1563183e-10
1.0560437e-10
9.8307734e-11
9.2588982e-11
8.733042e-11
8.3040715e-11
7.9456987e-11
7.5135672e-11
7.0605976e-11
6.6992374e-11
6.4205798e-11
6.2063015e-11
6.0487821e-11
5.9448369e-11
5.8927711e-11
5.885756e-11
5.9141448e-11
5.7967833e-11
4.6357825e-11
3.7526554e-11
3.0866395e-11
2.6062614e-11
2.2811283e-11
2.0843338e-11
1.9962679e-11
2.006985e-11
2.1223177e-11
2.1749047e-11
2.1654561e-11
2.1881229e-11
2.2422915e-11
2.3028265e-11
2.364725e-11
2.4252785e-11
2.4836392e-11
2.5390922e-11
2.5914551e-11
2.640687e-11
2.6868707e-11
2.7301263e-11
2.7705991e-11
2.8084511e-11
2.843857e-11
2.8770063e-11
2.9080992e-11
2.9373637e-11
2.9642778e-11
2.988934e-11
3.011414e-11
3.0318145e-11
3.0502257e-11
3.0667372e-11
3.0814325e-11
3.094395e-11
3.1057072e-11
3.1154511e-11
3.1237162e-11
3.1305904e-11
3.1361761e-11
3.1405565e-11
3.1438193e-11
3.1459986e-11
3.1471106e-11
3.147231e-11
3.1464305e-11
3.1447953e-11
3.1424093e-11
3.1412991e-11
3.130299e-11
3.1315704e-11
3.126994e-11
3.1221036e-11
3.1171202e-11
3.1121001e-11
3.1065347e-11
3.1000976e-11
3.0932434e-11
3.0865534e-11
3.0802265e-11
3.0716716e-11
3.0658159e-11
3.061609e-11
3.0554752e-11
3.0492234e-11
3.0429461e-11
3.0366372e-11
3.0302892e-11
3.0239068e-11
3.0174832e-11
3.0110095e-11
3.0044856e-11
2.9979036e-11
2.9912601e-11
2.984554e-11
2.9777872e-11
2.9709798e-11
2.9642068e-11
2.9573399e-11
2.9503002e-11
2.9430508e-11
2.9355646e-11
2.9278184e-11
2.9197892e-11
2.9114561e-11
2.9027971e-11
2.8937929e-11
2.8844287e-11
2.8746892e-11
2.864567e-11
2.8540646e-11
2.8431856e-11
2.831945e-11
2.8203704e-11
2.8084898e-11
2.7963425e-11
2.7839607e-11
2.7713674e-11
2.7585848e-11
2.7455786e-11
2.7323176e-11
2.7189999e-11
2.7057226e-11
2.6918079e-11
2.6767428e-11
2.6595307e-11
2.6394734e-11
2.6158317e-11
2.5887363e-11
2.5571745e-11
2.521542e-11
2.4801739e-11
2.4333634e-11
2.3519985e-11
2.1932894e-11
2.0282819e-11
1.9993823e-11
2.0857378e-11
2.2989548e-11
2.6642796e-11
3.2243565e-11
4.0305125e-11
5.13631e-11
6.3577482e-11
6.3588991e-11
6.3572271e-11
6.3732849e-11
6.367435e-11
6.4075524e-11
6.5266684e-11
6.7073401e-11
6.9453577e-11
7.2328312e-11
7.5432571e-11
7.8928404e-11
8.2915925e-11
8.762894e-11
9.3368392e-11
1.0019768e-10
1.0815577e-10
1.1762732e-10
1.2896923e-10
1.4263231e-10
1.5905331e-10
1.7990154e-10
2.0396291e-10
2.3124487e-10
2.5925172e-10
2.8860988e-10
3.1897419e-10
3.4907744e-10
3.7846959e-10
3.9662533e-10
4.2037901e-10
3.3723705e-10
3.9198285e-10
7.6099537e-11
1.7342165e-10
6.2327674e-11
7.9683664e-17
5.5111313e-15
4.6402031e-22
3.2530131e-19
4.541362e-23
2.0394385e-13
1.1651581e-11
1.7841502e-11
1.0663897e-10
1.4155426e-10
1.3723961e-10
1.4666989e-10
1.3846326e-10
1.3179573e-10
1.2243542e-10
1.1304296e-10
1.0209862e-10
9.1587259e-11
8.1568092e-11
7.2568989e-11
6.4998984e-11
5.8820505e-11
5.3949806e-11
5.0482148e-11
4.8476853e-11
4.7366136e-11
4.6407387e-11
4.5975539e-11
4.599319e-11
4.5429867e-11
4.4621468e-11
4.0896088e-11
3.2621135e-11
2.5607986e-11
1.9721234e-11
1.4890364e-11
1.1039532e-11
8.0865048e-12
5.9328726e-12
4.4145745e-12
3.3336024e-12
2.5554372e-12
1.9970912e-12
1.6111265e-12
1.3584473e-12
1.2079508e-12
1.1375805e-12
1.1354077e-12
1.1996801e-12
1.21843e-12
1.2009554e-12
1.2110391e-12
1.2444002e-12
1.2821149e-12
1.3214496e-12
1.3604186e-12
1.3983271e-12
1.4346028e-12
1.4690554e-12
1.5016048e-12
1.5322657e-12
1.5610855e-12
1.5881351e-12
1.613502e-12
1.6372881e-12
1.6596104e-12
1.6805959e-12
1.7003226e-12
1.7183788e-12
1.7348783e-12
1.7498692e-12
1.7634107e-12
1.7755587e-12
1.7863703e-12
1.7958993e-12
1.8042004e-12
1.8113285e-12
1.8173395e-12
1.8222945e-12
1.8262547e-12
1.8292908e-12
1.8314629e-12
1.8328345e-12
1.8334357e-12
1.8332848e-12
1.8324393e-12
1.8309506e-12
1.8288811e-12
1.8262919e-12
1.8245336e-12
1.8156968e-12
1.8160143e-12
1.8119525e-12
1.8076996e-12
1.8034254e-12
1.7991641e-12
1.7945128e-12
1.7892216e-12
1.7836544e-12
1.7782824e-12
1.7732534e-12
1.7664026e-12
1.7618561e-12
1.7587217e-12
1.7539988e-12
1.7492457e-12
1.7445162e-12
1.739806e-12
1.7351098e-12
1.7304315e-12
1.7257666e-12
1.7211092e-12
1.7164598e-12
1.7118137e-12
1.7071694e-12
1.7025273e-12
1.6978899e-12
1.6932711e-12
1.6887222e-12
1.6841653e-12
1.6795395e-12
1.6748183e-12
1.6699836e-12
1.6650208e-12
1.6599159e-12
1.6546569e-12
1.6492316e-12
1.6436299e-12
1.6378456e-12
1.6318734e-12
1.6257138e-12
1.6193758e-12
1.6128701e-12
1.6062173e-12
1.5994481e-12
1.5925953e-12
1.5857017e-12
1.5788068e-12
1.5719456e-12
1.565155e-12
1.5584322e-12
1.5517781e-12
1.5453357e-12
1.5392935e-12
1.5331671e-12
1.5265943e-12
1.5188612e-12
1.5094891e-12
1.497958e-12
1.4845063e-12
1.468511e-12
1.4504755e-12
1.4294288e-12
1.4060979e-12
1.3601791e-12
1.2620067e-12
1.1568594e-12
1.1427799e-12
1.2100048e-12
1.3721112e-12
1.6575925e-12
2.1149557e-12
2.8102364e-12
3.8224754e-12
5.2519313e-12
7.2372684e-12
9.9933232e-12
1.3734656e-11
1.8138806e-11
2.3426141e-11
2.997072e-11
3.7687093e-11
4.6517555e-11
4.686755e-11
4.6679417e-11
4.6771836e-11
4.7208088e-11
4.8074752e-11
4.9481369e-11
5.1417708e-11
5.3907975e-11
5.7125729e-11
6.1237686e-11
6.6466431e-11
7.2979359e-11
8.1566851e-11
9.1364406e-11
1.0217098e-10
1.1295674e-10
1.2360426e-10
1.3355266e-10
1.4184403e-10
1.4768906e-10
1.4672963e-10
1.4478509e-10
1.1008394e-10
1.1079416e-10
2.0232203e-11
1.4707622e-11
2.0993917e-12
4.7034206e-22
2.2565755e-19
1.0939405e-27
3.8680866e-24
9.7192521e-30
6.2147992e-17
2.5411895e-13
1.3324049e-12
1.7428344e-11
4.5131074e-11
4.3816589e-11
5.1008971e-11
5.03285e-11
5.0506715e-11
4.902173e-11
4.7273954e-11
4.4445039e-11
4.1613801e-11
3.8805838e-11
3.6207487e-11
3.3988289e-11
2.832592e-11
2.1983851e-11
1.7559188e-11
1.4693108e-11
1.2698755e-11
1.087142e-11
9.3997958e-12
8.1943365e-12
6.7184945e-12
5.2018254e-12
3.9948097e-12
3.0362475e-12
2.2640071e-12
1.6496304e-12
1.1736144e-12
8.1675084e-13
5.6015996e-13
3.8499879e-13
2.6933311e-13
1.9190405e-13
1.3924266e-13
1.0335289e-13
7.9621172e-14
6.4637514e-14
5.5901601e-14
5.1725154e-14
5.1181034e-14
5.3878651e-14
5.4078414e-14
5.2725027e-14
5.3142569e-14
5.4781163e-14
5.664917e-14
5.862915e-14
6.0612315e-14
6.2557464e-14
6.4431201e-14
6.6220704e-14
6.7919491e-14
6.9526458e-14
7.1042514e-14
7.2470074e-14
7.3812682e-14
7.5074881e-14
7.6262353e-14
7.7381792e-14
7.8428189e-14
7.9382935e-14
8.025306e-14
8.1040787e-14
8.1748901e-14
8.2380139e-14
8.2937313e-14
8.3423158e-14
8.3840503e-14
8.4192243e-14
8.4481376e-14
8.4711214e-14
8.4885111e-14
8.5006947e-14
8.5080117e-14
8.510824e-14
8.5093288e-14
8.5036696e-14
8.4941829e-14
8.4811662e-14
8.4649741e-14
8.4459575e-14
8.4310649e-14
8.3771765e-14
8.3754765e-14
8.3486966e-14
8.3210203e-14
8.2934453e-14
8.2661071e-14
8.2365456e-14
8.2033052e-14
8.1686492e-14
8.1355904e-14
8.1048553e-14
8.0630399e-14
8.0356247e-14
8.017209e-14
7.9890317e-14
7.9609416e-14
7.9331879e-14
7.905748e-14
7.8785905e-14
7.8517377e-14
7.8251663e-14
7.798845e-14
7.7727777e-14
7.7469424e-14
7.7213331e-14
7.6959568e-14
7.6708291e-14
7.6460198e-14
7.6217853e-14
7.5977916e-14
7.5736743e-14
7.5492814e-14
7.5245133e-14
7.4992974e-14
7.4735659e-14
7.4472626e-14
7.4203338e-14
7.3927412e-14
7.3644678e-14
7.3355065e-14
7.3058881e-14
7.2756908e-14
7.2450128e-14
7.2140112e-14
7.1829061e-14
7.1519394e-14
7.121415e-14
7.0916349e-14
7.0628806e-14
7.0354611e-14
7.0094708e-14
6.9850289e-14
6.962902e-14
6.9447404e-14
6.9280341e-14
6.9106725e-14
6.888647e-14
6.8593532e-14
6.8197708e-14
6.7719875e-14
6.7129878e-14
6.6466097e-14
6.568388e-14
6.4845723e-14
6.2844699e-14
5.8054015e-14
5.2758358e-14
5.2200469e-14
5.6086497e-14
6.5465164e-14
8.2556771e-14
1.1128952e-13
1.5759145e-13
2.2937544e-13
3.3735378e-13
4.9756531e-13
7.3558455e-13
1.0810737e-12
1.5103976e-12
2.0555793e-12
2.7665666e-12
3.6473011e-12
4.7016868e-12
5.9207876e-12
7.2784459e-12
8.7336768e-12
1.0348098e-11
1.2286451e-11
1.4783444e-11
1.7900306e-11
2.183265e-11
2.6862284e-11
3.3348636e-11
3.5842908e-11
3.7435271e-11
3.985162e-11
4.2630738e-11
4.5686894e-11
4.8616604e-11
5.1281416e-11
5.3328735e-11
5.4367027e-11
5.3812489e-11
5.0733543e-11
4.5966207e-11
3.4772447e-11
2.1504223e-11
2.0686043e-12
3.922866e-13
1.2713114e-14
3.7824125e-27
1.4877038e-24
2.8276702e-31
1.4701111e-29
5.5388732e-27
4.7259659e-22
1.7270143e-15
7.1431624e-14
1.4540862e-12
6.7001177e-12
6.9952345e-12
1.1543767e-11
1.2893503e-11
1.470708e-11
1.5067066e-11
1.4665604e-11
1.2889515e-11
1.0710527e-11
8.3339727e-12
6.1648655e-12
4.4791028e-12
3.2532843e-12
2.3937349e-12
1.8236295e-12
1.4705106e-12
1.2389411e-12
1.0334441e-12
8.7255664e-13
7.4538577e-13
5.9045975e-13
4.3602601e-13
3.1898179e-13
2.306898e-13
1.6322977e-13
1.1245971e-13
7.5382492e-14
4.9278315e-14
3.1700434e-14
2.0475157e-14
1.3529564e-14
9.1515988e-15
6.3311517e-15
4.4988616e-15
3.3354234e-15
2.6249752e-15
2.2189201e-15
2.0210313e-15
1.9775416e-15
2.0562936e-15
2.0236471e-15
1.9464029e-15
1.9612422e-15
2.0259103e-15
2.1010851e-15
2.1822255e-15
2.2644738e-15
2.3458608e-15
2.4248146e-15
2.5006641e-15
2.5730336e-15
2.6417937e-15
2.7069136e-15
2.7684378e-15
2.8264701e-15
2.8811677e-15
2.9327514e-15
2.9815965e-15
3.0266128e-15
3.0676905e-15
3.1049954e-15
3.1386086e-15
3.1686365e-15
3.1951863e-15
3.2183721e-15
3.2383072e-15
3.255112e-15
3.2689122e-15
3.279841e-15
3.2880459e-15
3.2936795e-15
3.2969164e-15
3.2979153e-15
3.2968448e-15
3.2938093e-15
3.2888939e-15
3.2822597e-15
3.2740483e-15
3.264425e-15
3.2535553e-15
3.2443143e-15
3.2178841e-15
3.2151336e-15
3.2009645e-15
3.186472e-15
3.1721276e-15
3.157957e-15
3.1427401e-15
3.1257974e-15
3.1082875e-15
3.0918026e-15
3.0765441e-15
3.0560574e-15
3.0425437e-15
3.03353e-15
3.0198463e-15
3.0063147e-15
2.9930317e-15
2.9799865e-15
2.9671645e-15
2.9545753e-15
2.9422088e-15
2.9300508e-15
2.9181035e-15
2.9063581e-15
2.8948129e-15
2.8834721e-15
2.8723437e-15
2.8614535e-15
2.8508978e-15
2.8405821e-15
2.8303289e-15
2.8200657e-15
2.8097479e-15
2.799345e-15
2.7888306e-15
2.7781836e-15
2.7673859e-15
2.7564269e-15
2.7453066e-15
2.7340316e-15
2.7226271e-15
2.7111416e-15
2.6996353e-15
2.6881988e-15
2.6769537e-15
2.6660363e-15
2.6556156e-15
2.6458665e-15
2.6369601e-15
2.6290874e-15
2.6223486e-15
2.6168583e-15
2.6129674e-15
2.6116474e-15
2.6120086e-15
2.6129956e-15
2.6127765e-15
2.6101872e-15
2.6037851e-15
2.5948716e-15
2.5823269e-15
2.568437e-15
2.5516661e-15
2.5359384e-15
2.471595e-15
2.2855903e-15
2.0704302e-15
2.0525369e-15
2.2314323e-15
2.6681033e-15
3.4923699e-15
4.945171e-15
7.4223474e-15
1.1502465e-14
1.8021585e-14
2.8335025e-14
4.4717361e-14
7.0140643e-14
1.0343363e-13
1.4818061e-13
2.0972135e-13
2.8990121e-13
3.9044023e-13
5.1164072e-13
6.5170676e-13
8.0686181e-13
9.8468344e-13
1.2057124e-12
1.5013849e-12
1.8844356e-12
2.3872946e-12
3.0575388e-12
3.959861e-12
5.1883326e-12
6.8526985e-12
9.1804282e-12
1.1818117e-11
1.4450724e-11
1.6677899e-11
1.8171021e-11
1.857406e-11
1.764027e-11
1.5245025e-11
1.1578699e-11
7.6750701e-12
3.7958578e-12
1.8460079e-12
1.7779118e-13
3.0825976e-15
1.9351846e-17
3.0018806e-31
2.3059585e-30
4.128004e-31
7.3203868e-31
4.5896405e-31
9.6326881e-29
3.1859825e-18
2.5561966e-15
9.0434076e-14
5.7947276e-13
6.6816092e-13
1.2147112e-12
1.4431788e-12
1.716804e-12
1.8058993e-12
1.7775375e-12
1.5442673e-12
1.2519453e-12
9.3626694e-13
6.5752022e-13
4.5104726e-13
3.0891983e-13
2.1479591e-13
1.556499e-13
1.2070376e-13
9.9209128e-14
8.0789674e-14
6.6738827e-14
5.6012012e-14
4.2924221e-14
3.0250608e-14
2.1109695e-14
1.4564877e-14
9.8215051e-15
6.439934e-15
4.1058765e-15
2.5559539e-15
1.5722789e-15
9.7927834e-16
6.3125584e-16
4.2132068e-16
2.9038502e-16
2.0703766e-16
1.5469633e-16
1.229617e-16
1.0475792e-16
9.5375998e-17
9.1822132e-17
9.1494604e-17
8.5834125e-17
8.0397248e-17
8.0303141e-17
8.2471009e-17
8.5235147e-17
8.8367603e-17
9.1623832e-17
9.4898048e-17
9.8108724e-17
1.0121772e-16
1.0420219e-16
1.0705157e-16
1.0976054e-16
1.1232775e-16
1.1475509e-16
1.1704726e-16
1.1921172e-16
1.2126219e-16
1.2312299e-16
1.2481233e-16
1.2633384e-16
1.2769041e-16
1.2888605e-16
1.2992499e-16
1.3081186e-16
1.3155142e-16
1.3214886e-16
1.3260973e-16
1.3294002e-16
1.331464e-16
1.3323588e-16
1.3321639e-16
1.3309546e-16
1.3288098e-16
1.3257865e-16
1.3219346e-16
1.3173313e-16
1.3120445e-16
1.3061514e-16
1.2997302e-16
1.2938914e-16
1.2810803e-16
1.2780925e-16
1.270366e-16
1.2625557e-16
1.2548831e-16
1.2473372e-16
1.2393038e-16
1.2304651e-16
1.2214382e-16
1.2130677e-16
1.2053548e-16
1.19549e-16
1.1886742e-16
1.1839227e-16
1.1772014e-16
1.17062e-16
1.1642141e-16
1.1579792e-16
1.1519075e-16
1.1460033e-16
1.1402622e-16
1.1346777e-16
1.1292512e-16
1.1239793e-16
1.1188619e-16
1.1139022e-16
1.109104e-16
1.1044772e-16
1.1000548e-16
1.0958248e-16
1.0917014e-16
1.0876503e-16
1.0836518e-16
1.0796945e-16
1.0757694e-16
1.0718703e-16
1.0679936e-16
1.0641397e-16
1.0603143e-16
1.0565276e-16
1.0527995e-16
1.0491616e-16
1.0456534e-16
1.0423305e-16
1.0392649e-16
1.0365395e-16
1.0342555e-16
1.032523e-16
1.0314555e-16
1.0311826e-16
1.0317986e-16
1.0334112e-16
1.0362233e-16
1.0408002e-16
1.0469649e-16
1.0542077e-16
1.061706e-16
1.0689738e-16
1.075357e-16
1.0817488e-16
1.0879057e-16
1.0954633e-16
1.10431e-16
1.1176007e-16
1.1120242e-16
1.055416e-16
9.7939227e-17
9.7605953e-17
1.0569059e-16
1.2562692e-16
1.6407683e-16
2.3362142e-16
3.5563133e-16
5.6286749e-16
9.0482615e-16
1.4692146e-15
2.4127371e-15
3.9604817e-15
6.0697547e-15
9.0559162e-15
1.3375883e-14
1.9283227e-14
2.7031109e-14
3.6761271e-14
4.8424299e-14
6.177205e-14
7.7567514e-14
9.7884985e-14
1.2610662e-13
1.6407185e-13
2.1596576e-13
2.8811181e-13
3.8962882e-13
5.3441921e-13
7.3982705e-13
1.0414958e-12
1.3958469e-12
1.7571187e-12
2.0612917e-12
2.2526309e-12
2.2762992e-12
2.0980713e-12
1.7235192e-12
1.2071191e-12
7.1733134e-13
3.1850232e-13
1.1634693e-13
1.2600662e-14
5.9275203e-18
9.9518272e-21
2.0372991e-27
6.9864187e-31
5.9742526e-31
2.2147936e-24
3.9013116e-22
4.5177574e-25
1.9389422e-21
5.946535e-17
3.9898823e-15
3.9314379e-14
5.0249279e-14
1.0240556e-13
1.3084451e-13
1.6379202e-13
1.7818747e-13
1.783713e-13
1.5363615e-13
1.2175054e-13
8.7582433e-14
5.8394264e-14
3.7793612e-14
2.4381317e-14
1.6009477e-14
1.1036945e-14
8.2408328e-15
6.6371241e-15
5.3139338e-15
4.3267277e-15
3.598323e-15
2.6910757e-15
1.8288649e-15
1.2344513e-15
8.2835014e-16
5.4660498e-16
3.5366239e-16
2.2529763e-16
1.4276613e-16
9.171199e-17
6.1452822e-17
4.3817864e-17
3.3071931e-17
2.6094185e-17
2.1301654e-17
1.8008513e-17
1.5858831e-17
1.4524995e-17
1.3669332e-17
1.2914555e-17
1.1767304e-17
1.0035882e-17
8.9370632e-18
8.6776018e-18
8.7129057e-18
8.8477245e-18
9.0454144e-18
9.2718289e-18
9.511423e-18
9.7529846e-18
9.9909053e-18
1.0221724e-17
1.0443582e-17
1.0655338e-17
1.085639e-17
1.1046558e-17
1.1226018e-17
1.139514e-17
1.1553901e-17
1.1693591e-17
1.1817608e-17
1.1926103e-17
1.2019318e-17
1.209759e-17
1.2161289e-17
1.2210828e-17
1.2246654e-17
1.2269253e-17
1.2279164e-17
1.2276972e-17
1.2263325e-17
1.2238919e-17
1.2204515e-17
1.2160883e-17
1.2108819e-17
1.2049011e-17
1.1982114e-17
1.1908905e-17
1.1830071e-17
1.1746361e-17
1.1658557e-17
1.1572843e-17
1.1447967e-17
1.1378585e-17
1.1282512e-17
1.1186911e-17
1.1093965e-17
1.1003251e-17
1.0907952e-17
1.0804834e-17