/*--------------------------------*- C++ -*----------------------------------*\
| =========                 |                                                 |
| \\      /  F ield         | OpenFOAM: The Open Source CFD Toolbox           |
|  \\    /   O peration     | Version:  2.4.0                                 |
|   \\  /    A nd           | Web:      www.OpenFOAM.org                      |
|    \\/     M anipulation  |                                                 |
\*---------------------------------------------------------------------------*/
FoamFile
{
    version     2.0;
    format      ascii;
    class       volScalarField;
    location    "20";
    object      p;
}
// * * * * * * * * * * * * * * * * * * * * * * * * * * * * * * * * * * * * * //

dimensions      [0 2 -2 0 0 0 0];

internalField   nonuniform List<scalar> 
32000
(
-0.21194263
-0.12869491
-0.13942952
-0.12218325
-0.12895821
-0.12175792
-0.12543531
-0.12168558
-0.12173949
-0.11823521
-0.11563409
-0.11184294
-0.11030452
-0.11179549
-0.11736341
-0.12743971
-0.14169489
-0.15835743
-0.17410408
-0.18414908
-0.18493688
-0.17926671
-0.17374156
-0.17107873
-0.16997837
-0.16688508
-0.1619522
-0.15920328
-0.15943584
-0.16037193
-0.16173538
-0.16378497
-0.16678426
-0.17135693
-0.17796704
-0.1870411
-0.19884844
-0.2138533
-0.23266649
-0.25473942
-0.27690895
-0.29401699
-0.3038958
-0.30838351
-0.31146643
-0.31466857
-0.32050977
-0.32909516
-0.34353148
-0.36014759
-0.37869008
-0.39641664
-0.41229518
-0.42525971
-0.43485054
-0.44081004
-0.44311411
-0.4418505
-0.43719346
-0.42936478
-0.41861929
-0.40523273
-0.38949428
-0.37170014
-0.35214378
-0.33111563
-0.3088934
-0.28573869
-0.2619009
-0.23761339
-0.21309496
-0.18854794
-0.16415748
-0.14009253
-0.11650334
-0.093523521
-0.07126804
-0.0498351
-0.029304971
-0.009742117
0.0088057591
0.026305158
0.042735824
0.058090672
0.072374881
0.08560134
0.097792975
0.10898056
0.11919894
0.12848992
0.13689833
0.14447662
0.15127863
0.15737758
0.16288047
0.16781232
0.17214114
0.17589242
0.17911267
0.18185793
0.18417867
0.18612092
0.18772506
0.18902893
0.19006787
0.19087405
0.19147734
0.19190589
0.19218492
0.19233804
0.1923871
0.19235198
0.19225089
0.1921008
0.19191704
0.19171408
0.19150492
0.1913018
0.19111574
0.19095663
0.19083317
0.19075346
0.19072465
0.19075306
0.19084407
0.19100218
0.19123072
0.19153174
0.19190609
0.19235274
0.19286887
0.19344954
0.19408754
0.19477294
0.19549387
0.19623545
0.19698146
0.19771392
0.19841511
0.19906597
0.1996514
0.20015307
0.20056217
0.20086635
0.20107239
0.20117273
0.20118976
0.20111004
0.20096885
0.20071754
0.20038927
0.19983436
0.19893686
0.19738219
0.19526433
0.19265371
0.18914937
0.18412272
0.17824302
0.17476997
0.17756788
0.18686341
0.19963327
0.2127374
0.22416649
0.23284207
0.23847628
0.24079866
0.23976659
0.23614674
0.23039086
0.22286576
0.21390399
0.2037721
0.19287991
0.1815144
0.16987773
0.15765773
0.14479565
0.13110995
0.11631324
0.10002454
0.081682715
0.060600008
0.03480856
0.003548646
-0.033436494
-0.076592818
-0.12665697
-0.18415834
-0.24947493
-0.32111811
-0.39149949
-0.44866585
-0.45986792
-0.43314512
-0.37750796
-0.35325184
-0.30535811
-0.32920935
-0.21195124
-0.12869497
-0.13943306
-0.12219457
-0.1289555
-0.12176932
-0.1254272
-0.12169767
-0.12174553
-0.11825841
-0.11565852
-0.11187109
-0.11031449
-0.11177747
-0.11730689
-0.12734247
-0.14156332
-0.15821123
-0.17397564
-0.18407726
-0.18493894
-0.17931047
-0.17378163
-0.17109761
-0.16999384
-0.16692575
-0.1620043
-0.15922629
-0.15943074
-0.16036214
-0.16172243
-0.16376543
-0.16675493
-0.17131373
-0.17790789
-0.18696562
-0.19875841
-0.21374897
-0.23254976
-0.2546206
-0.27681045
-0.29395576
-0.30386744
-0.3083706
-0.31146061
-0.3146676
-0.32051427
-0.32910318
-0.34353794
-0.36015102
-0.37869249
-0.39641658
-0.4122933
-0.4252557
-0.43484469
-0.4408024
-0.4431049
-0.44183988
-0.43718166
-0.42935203
-0.41860583
-0.40521876
-0.38948003
-0.37168577
-0.35212954
-0.33110168
-0.30887991
-0.28572581
-0.26188876
-0.23760208
-0.21308454
-0.18853845
-0.16414896
-0.14008498
-0.11649677
-0.093517913
-0.071263373
-0.049831328
-0.029302059
-0.009740001
0.008807129
0.026305853
0.042735901
0.058090209
0.072373935
0.085599983
0.097791277
0.10897857
0.11919673
0.12848755
0.13689585
0.14447409
0.15127609
0.15737503
0.16287787
0.16780971
0.17213862
0.17589002
0.17911043
0.18185582
0.18417671
0.1861191
0.18772339
0.1890274
0.19006649
0.19087282
0.19147627
0.19190495
0.19218413
0.19233738
0.19238657
0.19235158
0.19225061
0.19210063
0.19191697
0.19171411
0.19150504
0.191302
0.19111602
0.19095698
0.19083359
0.19075393
0.19072518
0.19075364
0.19084469
0.19100283
0.1912314
0.19153245
0.19190681
0.19235346
0.19286959
0.19345026
0.19408824
0.19477361
0.1954945
0.19623603
0.19698198
0.19771437
0.19841549
0.19906627
0.19965163
0.20015322
0.20056224
0.20086634
0.20107232
0.2011726
0.20118962
0.20110983
0.20096859
0.20071711
0.20038855
0.19983317
0.19893549
0.19738158
0.19526303
0.19265085
0.18914395
0.18411336
0.17823681
0.17478572
0.17761555
0.18693656
0.19971818
0.21281966
0.22423499
0.23288967
0.23849899
0.24079378
0.23973697
0.23609666
0.23032312
0.22278384
0.21381067
0.20367115
0.19277479
0.18140721
0.16976699
0.15754147
0.14467303
0.13097832
0.11616945
0.099863838
0.08149956
0.06038072
0.034542261
0.0032357891
-0.03379526
-0.076997646
-0.1271056
-0.18464339
-0.24997712
-0.32158037
-0.3918461
-0.44877131
-0.4597856
-0.43300733
-0.37743444
-0.35322529
-0.30535451
-0.32921183
-0.21195893
-0.12869496
-0.13943752
-0.12220627
-0.12895293
-0.12178144
-0.12541859
-0.12171068
-0.12175232
-0.11828387
-0.11568561
-0.11190232
-0.11032594
-0.11175816
-0.11724513
-0.1272357
-0.14141858
-0.15805015
-0.17383391
-0.18399756
-0.18494039
-0.17935789
-0.17382535
-0.17111841
-0.17001091
-0.16697053
-0.16206205
-0.1592523
-0.15942545
-0.16035138
-0.16170827
-0.16374405
-0.16672279
-0.17126634
-0.17784299
-0.18688286
-0.19865984
-0.21363494
-0.23242263
-0.25449217
-0.27670572
-0.29389237
-0.3038392
-0.3083579
-0.31145484
-0.31466666
-0.32051881
-0.32911058
-0.34354382
-0.36015367
-0.37869449
-0.39641618
-0.41229117
-0.42525137
-0.43483849
-0.44079428
-0.4430951
-0.44182858
-0.43716906
-0.42933838
-0.41859141
-0.40520378
-0.38946476
-0.37167038
-0.35211426
-0.33108667
-0.3088654
-0.28571197
-0.26187566
-0.23758984
-0.21307325
-0.18852814
-0.1641397
-0.14007677
-0.11648962
-0.09351181
-0.071258298
-0.049827228
-0.029298901
-0.0097377154
0.0088085939
0.026306577
0.042735944
0.058089657
0.072372849
0.085598443
0.097789363
0.10897633
0.11919426
0.12848489
0.13689307
0.14447125
0.15127325
0.15737216
0.16287494
0.16780677
0.1721358
0.17588735
0.17910792
0.18185345
0.18417451
0.18611705
0.18772151
0.18902569
0.19006495
0.19087144
0.19147505
0.1919039
0.19218324
0.19233664
0.19238598
0.19235113
0.19225029
0.19210043
0.1919169
0.19171414
0.19150517
0.19130223
0.19111634
0.19095737
0.19083406
0.19075448
0.19072579
0.1907543
0.1908454
0.19100358
0.19123219
0.19153327
0.19190765
0.19235432
0.19287045
0.19345111
0.19408907
0.19477441
0.19549526
0.19623673
0.19698263
0.19771494
0.19841598
0.19906667
0.19965195
0.20015344
0.20056237
0.20086637
0.20107228
0.20117249
0.20118947
0.20110961
0.2009683
0.20071662
0.20038774
0.19983185
0.19893396
0.19738093
0.1952616
0.19264793
0.1891385
0.18410364
0.17822975
0.1748016
0.17766605
0.18701521
0.19981057
0.21290959
0.22431008
0.23294187
0.23852371
0.24078805
0.23970386
0.23604106
0.23024803
0.22269312
0.21370742
0.20355953
0.19265858
0.18128867
0.16964448
0.15741283
0.14453731
0.1308326
0.11601022
0.09968582
0.08129656
0.060137687
0.034247337
0.002889689
-0.034191697
-0.077444294
-0.12759952
-0.1851757
-0.25052506
-0.32207937
-0.39221107
-0.44886708
-0.45967932
-0.43284868
-0.37734839
-0.35319495
-0.30534692
-0.32921684
-0.21196438
-0.12869581
-0.13944118
-0.12221784
-0.12894999
-0.12179357
-0.12540989
-0.12172379
-0.12175933
-0.11830977
-0.11571331
-0.11193405
-0.11033753
-0.11173832
-0.11718184
-0.12712635
-0.14127053
-0.15788575
-0.17368985
-0.18391715
-0.18494237
-0.17940603
-0.17386962
-0.17113958
-0.17002863
-0.16701631
-0.16212085
-0.15927892
-0.15942018
-0.16034035
-0.16169373
-0.16372211
-0.16668977
-0.17121769
-0.17777646
-0.18679821
-0.19855926
-0.21351899
-0.23229442
-0.25436511
-0.27660598
-0.29383594
-0.30381699
-0.30834873
-0.31145071
-0.31466642
-0.32052314
-0.32911628
-0.34354855
-0.36015589
-0.37869692
-0.39641673
-0.41229035
-0.42524854
-0.43483382
-0.44078766
-0.44308671
-0.44181856
-0.43715761
-0.42932574
-0.41857786
-0.40518952
-0.38945008
-0.37165545
-0.35209932
-0.33107192
-0.30885105
-0.28569818
-0.26186254
-0.23757752
-0.2130618
-0.18851763
-0.16413019
-0.14006827
-0.11648216
-0.093505366
-0.071252866
-0.049822757
-0.029295368
-0.0097350509
0.0088104331
0.02630767
0.042736342
0.058089451
0.072372093
0.085597216
0.097787748
0.10897436
0.11919204
0.12848247
0.13689051
0.14446861
0.15127058
0.15736942
0.16287213
0.16780397
0.17213312
0.17588479
0.17910552
0.18185118
0.18417238
0.18611507
0.18771968
0.18902402
0.19006344
0.1908701
0.19147387
0.19190287
0.19218236
0.19233591
0.19238539
0.19235069
0.19224998
0.19210024
0.19191682
0.19171418
0.1915053
0.19130245
0.19111665
0.19095776
0.19083453
0.19075501
0.19072639
0.19075495
0.1908461
0.19100433
0.19123297
0.19153408
0.19190849
0.19235517
0.1928713
0.19345196
0.19408991
0.19477523
0.19549603
0.19623746
0.1969833
0.19771555
0.19841651
0.19906712
0.19965231
0.20015371
0.20056255
0.20086644
0.20107228
0.20117241
0.20118935
0.20110941
0.20096803
0.20071616
0.20038697
0.19983064
0.19893261
0.19738049
0.19526029
0.19264525
0.18913346
0.18409367
0.17822032
0.17481316
0.17771259
0.18709197
0.19990333
0.21300114
0.22438713
0.2329957
0.23854942
0.2407826
0.23967017
0.23598419
0.23017111
0.22260015
0.21360162
0.20344519
0.19253956
0.18116726
0.16951896
0.15728098
0.14439818
0.13068317
0.11584688
0.099503177
0.081088223
0.05988839
0.033945289
0.0025358824
-0.034596034
-0.077898557
-0.12809985
-0.18571166
-0.25107105
-0.32256658
-0.39255041
-0.44892608
-0.45954386
-0.43267646
-0.37725692
-0.35316167
-0.30533632
-0.32922276
-0.21196775
-0.12869781
-0.13944359
-0.12222986
-0.12894624
-0.12180623
-0.12540058
-0.12173751
-0.12176672
-0.11833705
-0.11574261
-0.11196742
-0.11034959
-0.1117171
-0.11711461
-0.12701033
-0.14111374
-0.15771212
-0.17353837
-0.18383355
-0.1849455
-0.17945704
-0.17391619
-0.17116189
-0.1700477
-0.16706496
-0.16218283
-0.15930696
-0.15941464
-0.16032861
-0.16167825
-0.16369873
-0.16665458
-0.17116591
-0.17770582
-0.18670864
-0.19845321
-0.21339727
-0.23216122
-0.25423622
-0.27650978
-0.29378737
-0.30380263
-0.30834454
-0.31144913
-0.31466756
-0.32052776
-0.32912035
-0.34355243
-0.36015826
-0.37870052
-0.39641901
-0.4122916
-0.42524788
-0.43483126
-0.44078297
-0.44308004
-0.44181002
-0.43714737
-0.42931408
-0.41856506
-0.40517578
-0.38943571
-0.37164065
-0.35208436
-0.33105704
-0.30883647
-0.28568408
-0.26184901
-0.23756472
-0.21304984
-0.18850655
-0.1641201
-0.14005916
-0.11647409
-0.093498311
-0.071246832
-0.049817699
-0.029291266
-0.0097318416
0.0088127889
0.026309251
0.042737196
0.05808967
0.072371727
0.085596349
0.09778646
0.1089727
0.11919009
0.12848029
0.13688817
0.14446616
0.15126806
0.15736677
0.16286942
0.16780127
0.17213054
0.17588233
0.17910319
0.18184896
0.18417031
0.18611313
0.18771789
0.18902238
0.19006196
0.19086876
0.1914727
0.19190185
0.1921815
0.19233518
0.19238482
0.19235025
0.19224968
0.19210005
0.19191675
0.19171421
0.19150544
0.19130267
0.19111697
0.19095815
0.190835
0.19075555
0.19072699
0.19075561
0.19084681
0.19100508
0.19123377
0.1915349
0.19190933
0.19235603
0.19287217
0.19345283
0.19409077
0.19477607
0.19549684
0.19623823
0.19698402
0.1977162
0.1984171
0.19906762
0.19965274
0.20015404
0.20056279
0.20086657
0.20107232
0.20117237
0.20118927
0.20110925
0.20096779
0.20071574
0.20038625
0.19982954
0.19893142
0.19738029
0.19525909
0.19264276
0.18912858
0.18408258
0.17820671
0.17481875
0.17775504
0.1871688
0.19999918
0.21309739
0.22446891
0.23305319
0.23857719
0.24077737
0.23963474
0.235924
0.23008956
0.22250153
0.21348941
0.20332397
0.19241339
0.18103847
0.16938572
0.15714101
0.14425041
0.13052441
0.11567331
0.099309062
0.080866765
0.059623599
0.033625157
0.002161865
-0.035022189
-0.078375453
-0.12862227
-0.18626661
-0.25162828
-0.32304932
-0.39286169
-0.44893168
-0.45935976
-0.43247742
-0.37715677
-0.35312393
-0.30532277
-0.32922917
-0.21196869
-0.12870103
-0.13944457
-0.12224229
-0.12894149
-0.1218194
-0.12539034
-0.12175182
-0.12177444
-0.11836581
-0.11577366
-0.11200263
-0.11036223
-0.1116945
-0.11704321
-0.12688718
-0.14094758
-0.15752865
-0.17337908
-0.18374677
-0.18495021
-0.17951139
-0.17396533
-0.1711854
-0.1700682
-0.16711688
-0.16224839
-0.1593366
-0.15940882
-0.16031613
-0.16166174
-0.1636738
-0.16661706
-0.17111079
-0.17763084
-0.18661392
-0.19834152
-0.21326978
-0.23202338
-0.25410659
-0.27641933
-0.29374965
-0.30379897
-0.30834732
-0.31145133
-0.31467085
-0.32053308
-0.32912252
-0.34355561
-0.36016124
-0.37870602
-0.39642387
-0.41229576
-0.42525025
-0.4348316
-0.44078094
-0.44307571
-0.4418035
-0.43713883
-0.4293038
-0.41855334
-0.40516287
-0.38942193
-0.37162619
-0.35206957
-0.33104221
-0.30882181
-0.28566977
-0.26183518
-0.23755154
-0.21303742
-0.18849497
-0.16410946
-0.14004949
-0.11646545
-0.093490675
-0.071240221
-0.049812073
-0.029286612
-0.0097281011
0.0088156513
0.026311311
0.042738499
0.058090307
0.072371747
0.085595838
0.097785498
0.10897132
0.1191884
0.12847835
0.13688604
0.14446389
0.15126568
0.15736423
0.16286677
0.16779867
0.17212807
0.17587998
0.17910096
0.18184681
0.18416828
0.18611123
0.18771613
0.18902076
0.19006049
0.19086745
0.19147154
0.19190083
0.19218064
0.19233447
0.19238425
0.19234981
0.19224938
0.19209987
0.19191669
0.19171425
0.19150558
0.1913029
0.19111729
0.19095855
0.19083548
0.1907561
0.1907276
0.19075627
0.19084752
0.19100583
0.19123456
0.19153573
0.19191018
0.1923569
0.19287305
0.19345372
0.19409165
0.19477694
0.19549768
0.19623903
0.19698479
0.19771691
0.19841774
0.19906819
0.19965323
0.20015444
0.2005631
0.20086677
0.20107242
0.20117237
0.20118922
0.20110912
0.20096758
0.20071535
0.20038557
0.19982856
0.19893041
0.19738036
0.19525799
0.1926405
0.1891238
0.1840698
0.17818712
0.17481598
0.17779147
0.18724444
0.2000977
0.21319832
0.22455554
0.23311444
0.23860702
0.24077225
0.23959728
0.23586006
0.23000283
0.22239662
0.21337012
0.20319519
0.19227938
0.1809016
0.16924402
0.1569921
0.14409312
0.13035536
0.11548841
0.099102245
0.080630773
0.059341681
0.033285272
0.0017660721
-0.035471393
-0.078875648
-0.12916636
-0.18683838
-0.25219145
-0.32351738
-0.39312794
-0.44886078
-0.45910698
-0.43224022
-0.37704585
-0.35308181
-0.3053058
-0.3292363
-0.21196685
-0.12870554
-0.13944389
-0.122255
-0.12893553
-0.12183297
-0.12537903
-0.12176666
-0.12178243
-0.11839607
-0.11580652
-0.1120398
-0.11037553
-0.11167055
-0.11696755
-0.12675668
-0.14077176
-0.15733512
-0.17321201
-0.18365721
-0.18495714
-0.17956957
-0.17401724
-0.17121013
-0.17009021
-0.16717231
-0.16231775
-0.15936795
-0.15940276
-0.16030289
-0.16164417
-0.16364724
-0.16657712
-0.17105222
-0.17755141
-0.186514
-0.19822423
-0.21313666
-0.23188134
-0.25397736
-0.27633686
-0.29372589
-0.30380906
-0.30835927
-0.31145866
-0.31467714
-0.32053946
-0.32912253
-0.34355858
-0.36016571
-0.37871449
-0.39643256
-0.41230412
-0.42525691
-0.43483597
-0.4407826
-0.44307463
-0.44179979
-0.43713267
-0.42929552
-0.41854324
-0.40515122
-0.3894091
-0.37161242
-0.35205525
-0.3310277
-0.30880729
-0.28565545
-0.26182121
-0.23753812
-0.21302467
-0.188483
-0.16409839
-0.14003934
-0.11645629
-0.093482516
-0.071233079
-0.049805921
-0.029281437
-0.0097238552
0.0088190011
0.026313836
0.042740243
0.058091359
0.072372154
0.085595686
0.097784866
0.10897025
0.11918699
0.12847666
0.13688414
0.14446182
0.15126347
0.15736178
0.16286422
0.16779618
0.17212573
0.17587775
0.17909881
0.18184473
0.18416631
0.18610938
0.18771441
0.18901918
0.19005905
0.19086615
0.1914704
0.19189983
0.19217979
0.19233376
0.19238368
0.19234938
0.19224908
0.19209969
0.19191662
0.19171429
0.19150572
0.19130313
0.19111761
0.19095894
0.19083595
0.19075664
0.1907282
0.19075693
0.19084823
0.19100658
0.19123535
0.19153655
0.19191103
0.19235777
0.19287393
0.19345461
0.19409254
0.19477782
0.19549854
0.19623987
0.19698559
0.19771766
0.19841844
0.19906882
0.19965379
0.20015492
0.20056349
0.20086703
0.20107259
0.20117244
0.20118921
0.20110902
0.20096739
0.20071501
0.20038495
0.19982771
0.1989296
0.19738073
0.19525703
0.19263855
0.18911902
0.18405437
0.17815924
0.17480195
0.17781959
0.18731752
0.2001983
0.21330372
0.22464694
0.23317939
0.23863886
0.24076713
0.23955751
0.23579203
0.22991052
0.22228499
0.21324329
0.20305841
0.19213708
0.18075621
0.16909333
0.15683369
0.1439257
0.13017532
0.11529142
0.098881863
0.080379257
0.059041527
0.032924612
0.00134779
-0.035943861
-0.079398551
-0.12973025
-0.18742302
-0.25275329
-0.32395845
-0.39333032
-0.44868857
-0.45876355
-0.43195131
-0.37692144
-0.35303573
-0.30528487
-0.32924434
-0.21196173
-0.12871142
-0.13944128
-0.1222679
-0.12892811
-0.12184684
-0.12536641
-0.12178196
-0.1217906
-0.11842788
-0.11584132
-0.1120791
-0.11038958
-0.11164527
-0.11688757
-0.12661857
-0.14058592
-0.15713124
-0.17303712
-0.18356535
-0.18496715
-0.17963228
-0.17407222
-0.17123616
-0.17011385
-0.16723158
-0.16239126
-0.1594012
-0.15939651
-0.1602889
-0.1616255
-0.16361898
-0.16653462
-0.17099003
-0.17746735
-0.18640872
-0.19810121
-0.21299781
-0.23173521
-0.25384924
-0.27626425
-0.29371897
-0.30383588
-0.30838261
-0.31147253
-0.31468731
-0.32054727
-0.32912021
-0.34356215
-0.36017328
-0.37872738
-0.39644687
-0.41231844
-0.42526951
-0.43484588
-0.44078926
-0.44307795
-0.44179989
-0.43712975
-0.42928995
-0.41853537
-0.40514138
-0.38939768
-0.37159971
-0.35204178
-0.33101384
-0.30879319
-0.28564137
-0.26180731
-0.23752464
-0.21301176
-0.18847078
-0.16408699
-0.14002881
-0.11644673
-0.093473919
-0.071225482
-0.049799305
-0.029275797
-0.0097191525
0.0088227967
0.026316791
0.042742397
0.058092798
0.072372925
0.085595875
0.097784547
0.10896947
0.11918584
0.12847521
0.13688246
0.14445995
0.1512614
0.15735941
0.16286173
0.16779379
0.17212354
0.17587567
0.17909677
0.18184272
0.18416441
0.18610758
0.18771274
0.18901763
0.19005764
0.19086488
0.19146927
0.19189885
0.19217896
0.19233306
0.19238312
0.19234895
0.19224878
0.19209951
0.19191656
0.19171433
0.19150586
0.19130336
0.19111792
0.19095932
0.19083641
0.19075716
0.19072879
0.19075757
0.19084892
0.19100732
0.19123612
0.19153736
0.19191186
0.19235862
0.1928748
0.19345549
0.19409343
0.19477871
0.19549942
0.19624073
0.19698644
0.19771847
0.19841919
0.19906953
0.19965443
0.20015548
0.20056396
0.20086738
0.20107282
0.20117257
0.20118926
0.20110898
0.20096725
0.20071471
0.20038439
0.19982701
0.19892901
0.19738144
0.19525626
0.19263699
0.18911403
0.18403487
0.17812022
0.17477342
0.17783711
0.18738689
0.20030051
0.21341349
0.22474306
0.23324793
0.2386726
0.24076182
0.23951508
0.23571945
0.22981209
0.22216605
0.21310833
0.20291304
0.19198595
0.18060171
0.16893303
0.1566651
0.14374738
0.12998346
0.11508139
0.09864684
0.080111
0.058721775
0.032541908
0.00090603522
-0.036440041
-0.079943769
-0.13031217
-0.18801664
-0.25330646
-0.32436012
-0.39344973
-0.44838938
-0.45830555
-0.4315944
-0.37677985
-0.35298489
-0.30525955
-0.32925347
-0.21195285
-0.12871878
-0.13943647
-0.1222808
-0.1289189
-0.12186093
-0.12535221
-0.12179765
-0.12179886
-0.11846127
-0.11587817
-0.11212071
-0.11040452
-0.11161876
-0.11680319
-0.12647258
-0.14038967
-0.15691669
-0.17285443
-0.1834718
-0.18498135
-0.17970044
-0.17413066
-0.17126361
-0.17013923
-0.16729505
-0.16246928
-0.15943659
-0.15939018
-0.16027416
-0.16160567
-0.16358893
-0.16648945
-0.17092403
-0.17737844
-0.18629784
-0.1979722
-0.21285292
-0.23158474
-0.25372244
-0.27620331
-0.29373128
-0.30388215
-0.30841946
-0.31149429
-0.31470215
-0.32055684
-0.32911582
-0.34356736
-0.36018629
-0.37874681
-0.39646917
-0.41234102
-0.42529016
-0.43486316
-0.44080252
-0.44308703
-0.44180496
-0.43713108
-0.42928795
-0.41853047
-0.40513397
-0.3893882
-0.37158853
-0.35202957
-0.33100101
-0.30877983
-0.2856278
-0.26179374
-0.23751133
-0.21299888
-0.18845848
-0.16407543
-0.14001806
-0.11643688
-0.093465001
-0.071217534
-0.049792324
-0.029269781
-0.0097140734
0.0088269656
0.026320109
0.042744902
0.058094571
0.072374013
0.085596364
0.097784506
0.10896894
0.11918493
0.12847398
0.13688098
0.14445825
0.15125947
0.1573571
0.16285928
0.16779151
0.1721215
0.17587374
0.17909481
0.18184078
0.18416256
0.18610582
0.1877111
0.18901611
0.19005625
0.19086362
0.19146816
0.19189787
0.19217812
0.19233236
0.19238256
0.19234852
0.19224848
0.19209932
0.19191648
0.19171436
0.19150598
0.19130357
0.19111821
0.19095969
0.19083685
0.19075766
0.19072935
0.19075818
0.19084958
0.19100801
0.19123686
0.19153812
0.19191265
0.19235944
0.19287563
0.19345635
0.1940943
0.1947796
0.1955003
0.19624161
0.19698731
0.19771932
0.19842001
0.1990703
0.19965515
0.20015613
0.20056452
0.20086782
0.20107314
0.20117277
0.20118937
0.20110898
0.20096714
0.20071446
0.20038391
0.19982647
0.19892866
0.19738252
0.19525574
0.19263586
0.18910854
0.18400938
0.17806666
0.17472693
0.17784181
0.18745154
0.20040403
0.21352754
0.2248438
0.23331989
0.23870808
0.24075604
0.23946955
0.2356418
0.22970693
0.22203913
0.21296455
0.20275843
0.19182532
0.18043742
0.16876235
0.15648553
0.14355731
0.12977881
0.11485724
0.098395972
0.07982463
0.058380895
0.032135729
0.00043970596
-0.03696049
-0.080510955
-0.13091039
-0.18861527
-0.2538436
-0.32471005
-0.39346725
-0.44793749
-0.45770777
-0.43115098
-0.37661581
-0.35292717
-0.30522991
-0.32926396
-0.21193959
-0.12872776
-0.13942915
-0.12229348
-0.12890756
-0.12187499
-0.12533608
-0.12181364
-0.12180712
-0.11849629
-0.11591721
-0.11216487
-0.11042051
-0.11159114
-0.11671441
-0.12631851
-0.14018266
-0.15669117
-0.17266396
-0.18337731
-0.1850011
-0.1797752
-0.17419305
-0.17129267
-0.17016649
-0.16736309
-0.16255224
-0.15947439
-0.15938391
-0.16025871
-0.16158466
-0.16355701
-0.16644146
-0.17085405
-0.17728442
-0.18618105
-0.19783678
-0.21270142
-0.23142923
-0.25359653
-0.2761539
-0.29376457
-0.30395015
-0.30847168
-0.31152513
-0.31472234
-0.32056847
-0.32911047
-0.34357564
-0.36020777
-0.37877574
-0.39650258
-0.41237475
-0.42532147
-0.4348901
-0.44082433
-0.44310352
-0.44181638
-0.43713781
-0.42929052
-0.41852938
-0.4051297
-0.38938128
-0.37157946
-0.35201914
-0.3309896
-0.30876757
-0.28561506
-0.26178078
-0.23749844
-0.21298627
-0.18844633
-0.16406391
-0.14000726
-0.11642692
-0.09345592
-0.071209384
-0.049785113
-0.029263513
-0.0097087334
0.0088314009
0.02632369
0.042747667
0.058096594
0.072375341
0.085597079
0.097784675
0.10896862
0.11918421
0.12847293
0.13687965
0.14445669
0.15125762
0.15735479
0.16285683
0.1677893
0.17211963
0.17587194
0.17909291
0.1818389
0.18416075
0.18610409
0.18770948
0.1890146
0.19005487
0.19086237
0.19146705
0.1918969
0.19217729
0.19233165
0.19238199
0.19234807
0.19224816
0.19209911
0.19191638
0.19171436
0.19150608
0.19130375
0.19111847
0.19096002
0.19083725
0.19075812
0.19072986
0.19075873
0.19085018
0.19100865
0.19123753
0.19153882
0.19191337
0.19236019
0.19287641
0.19345715
0.19409512
0.19478044
0.19550116
0.19624248
0.1969882
0.19772021
0.19842088
0.19907115
0.19965595
0.20015688
0.2005652
0.20086837
0.20107355
0.20117307
0.20118955
0.20110906
0.20096709
0.20071427
0.20038352
0.19982611
0.19892858
0.19738403
0.19525559
0.19263521
0.18910208
0.1839755
0.17799474
0.17465891
0.17783165
0.18751074
0.20050872
0.21364587
0.22494901
0.23339503
0.2387451
0.24074937
0.23942038
0.23555843
0.22959433
0.22190349
0.2128112
0.20259383
0.19165447
0.18026261
0.16858052
0.15629413
0.14335455
0.12956036
0.11461783
0.098127971
0.079518692
0.058017279
0.031704595
-5.234248e-05
-0.037505738
-0.081099741
-0.13152306
-0.18921497
-0.25435738
-0.32499624
-0.39336462
-0.44730793
-0.45694456
-0.43060064
-0.37642279
-0.35285934
-0.30519666
-0.32927613
-0.21192116
-0.12873849
-0.139419
-0.12230567
-0.12889366
-0.12188877
-0.12531764
-0.1218298
-0.12181525
-0.11853307
-0.11595859
-0.11221184
-0.11043774
-0.11156261
-0.11662133
-0.12615621
-0.13996455
-0.15645441
-0.1724658
-0.1832828
-0.18502807
-0.17985804
-0.17425996
-0.17132363
-0.17019578
-0.16743612
-0.16264059
-0.15951496
-0.15937791
-0.16024259
-0.16156243
-0.16352313
-0.1663905
-0.17077984
-0.17718498
-0.18605791
-0.19769434
-0.2125424
-0.2312675
-0.25347032
-0.27611498
-0.29381978
-0.30404153
-0.3085407
-0.31156593
-0.31474836
-0.32058233
-0.32910632
-0.34358947
-0.36024131
-0.37881807
-0.39655099
-0.41242322
-0.42536657
-0.43492935
-0.4408569
-0.44312928
-0.44183573
-0.43715126
-0.42929876
-0.41853303
-0.40512937
-0.38937759
-0.37157315
-0.35201104
-0.33098006
-0.30875683
-0.28560352
-0.26176877
-0.23748629
-0.21297421
-0.18843459
-0.16405268
-0.13999665
-0.11641706
-0.093446875
-0.071201217
-0.049777845
-0.029257159
-0.0097032861
0.0088359586
0.026327402
0.042750566
0.058098749
0.072376799
0.08559792
0.09778496
0.10896841
0.11918358
0.12847196
0.13687841
0.14445519
0.15125579
0.15735243
0.16285432
0.16778715
0.17211792
0.17587024
0.17909105
0.18183704
0.18415895
0.18610237
0.18770786
0.18901309
0.19005348
0.19086111
0.19146592
0.1918959
0.19217642
0.19233092
0.19238139
0.1923476
0.1922478
0.19209887
0.19191624
0.19171432
0.19150614
0.19130388
0.19111868
0.19096029
0.19083758
0.19075851
0.19073029
0.19075921
0.19085069
0.19100919
0.1912381
0.19153942
0.19191399
0.19236084
0.19287708
0.19345785
0.19409586
0.19478122
0.19550196
0.19624332
0.19698907
0.19772111
0.19842179
0.19907207
0.19965684
0.20015773
0.20056598
0.20086904
0.20107408
0.20117346
0.20118982
0.2011092
0.20096709
0.20071414
0.20038321
0.19982596
0.19892877
0.19738604
0.19525595
0.19263498
0.18909404
0.18393035
0.17790027
0.17456588
0.17780496
0.18756409
0.20061465
0.2137685
0.22505848
0.23347298
0.23878337
0.2407413
0.23936692
0.23546864
0.22947352
0.22175831
0.21264745
0.20241846
0.19147263
0.18007648
0.16838667
0.15608999
0.14313811
0.12932699
0.11436193
0.09784146
0.079191645
0.057629237
0.031246942
-0.00057128133
-0.038076365
-0.081709754
-0.13214844
-0.18981184
-0.25484085
-0.32520751
-0.3931245
-0.44647756
-0.45599085
-0.42992185
-0.3761927
-0.35277624
-0.30516156
-0.32929042
-0.21189669
-0.12875119
-0.1394057
-0.12231702
-0.12887672
-0.121902
-0.12529643
-0.121846
-0.12182312
-0.11857164
-0.11600249
-0.11226195
-0.11045643
-0.11153343
-0.11652408
-0.12598557
-0.13973506
-0.15620611
-0.17226
-0.18318928
-0.18506425
-0.1799508
-0.17433213
-0.17135693
-0.17022724
-0.16751455
-0.16273483
-0.15955868
-0.15937245
-0.16022591
-0.16153898
-0.16348721
-0.16633643
-0.17070115
-0.17707972
-0.18592785
-0.19754403
-0.21237458
-0.23109775
-0.25334175
-0.2760856
-0.29389671
-0.30415707
-0.30862736
-0.31161717
-0.31478031
-0.32059871
-0.32910561
-0.34361397
-0.36029117
-0.37887878
-0.39661919
-0.4124907
-0.42542912
-0.43498398
-0.44090276
-0.44316639
-0.4418647
-0.43717287
-0.42931388
-0.41854245
-0.40513385
-0.38937787
-0.37157028
-0.3520059
-0.3309729
-0.30874806
-0.28559361
-0.26175809
-0.23747522
-0.21296304
-0.18842356
-0.16404201
-0.13998649
-0.11640755
-0.093438105
-0.071193259
-0.049770735
-0.02925092
-0.009697924
0.0088404563
0.02633107
0.042753436
0.058100882
0.072378243
0.085598748
0.097785234
0.10896818
0.11918295
0.12847098
0.13687715
0.14445368
0.15125389
0.1573499
0.16285165
0.16778503
0.17211634
0.17586856
0.17908917
0.18183516
0.18415713
0.18610062
0.1877062
0.18901154
0.19005205
0.19085981
0.19146474
0.19189485
0.19217551
0.19233014
0.19238073
0.19234706
0.19224739
0.19209856
0.19191603
0.19171421
0.19150613
0.19130395
0.19111881
0.19096048
0.19083782
0.19075879
0.19073061
0.19075957
0.19085107
0.1910096
0.19123853
0.19153987
0.19191446
0.19236134
0.1928776
0.19345841
0.19409646
0.19478187
0.19550267
0.19624409
0.19698991
0.197722
0.19842272
0.19907303
0.1996578
0.20015868
0.20056689
0.20086984
0.20107473
0.20117397
0.20119017
0.20110943
0.20096714
0.20071407
0.20038299
0.19982603
0.19892927
0.19738863
0.19525707
0.19263501
0.18908356
0.1838706
0.17777889
0.17444463
0.17776057
0.18761158
0.20072208
0.21389552
0.22517195
0.23355331
0.23882261
0.24073112
0.23930843
0.2353716
0.2293436
0.22160269
0.21247242
0.20223145
0.19127894
0.17987818
0.16817988
0.15587214
0.14290692
0.12907755
0.11408824
0.097534987
0.078841852
0.057214998
0.030761164
-0.0011183519
-0.038672997
-0.082340718
-0.13278487
-0.19040231
-0.25528765
-0.32533377
-0.39273389
-0.4454262
-0.45482327
-0.42909284
-0.37591567
-0.35267051
-0.3051277
-0.32930736
-0.21186509
-0.12876614
-0.13938887
-0.12232712
-0.1288562
-0.12191428
-0.12527193
-0.12186206
-0.12183059
-0.11861203
-0.11604909
-0.11231555
-0.11047683
-0.11150392
-0.11642293
-0.12580658
-0.13949392
-0.15594599
-0.17204669
-0.18309785
-0.18511189
-0.18005567
-0.17441067
-0.171393
-0.17026105
-0.16759877
-0.16283554
-0.15960598
-0.15936786
-0.16020877
-0.1615143
-0.16344917
-0.16627905
-0.17061768
-0.17696815
-0.18579012
-0.19738471
-0.21219625
-0.23091757
-0.2532078
-0.27606308
-0.29399386
-0.3042965
-0.3087317
-0.31167876
-0.31481788
-0.32061932
-0.32911032
-0.343656
-0.36036319
-0.37896399
-0.39671284
-0.41258213
-0.42551323
-0.43505734
-0.44096465
-0.44321707
-0.44190514
-0.43720414
-0.42933712
-0.41855869
-0.40514404
-0.38938294
-0.37157158
-0.35200431
-0.33096867
-0.30874175
-0.28558576
-0.26174916
-0.23746562
-0.21295311
-0.18841359
-0.16403223
-0.13997709
-0.11639869
-0.093429891
-0.07118578
-0.04976404
-0.029245042
-0.0096928795
0.0088446725
0.026334484
0.042756075
0.058102802
0.07237949
0.085599392
0.097785332
0.1089678
0.11918216
0.12846986
0.13687576
0.14445201
0.15125179
0.15734709
0.16284869
0.16778292
0.17211486
0.1758668
0.17908721
0.18183319
0.18415521
0.18609878
0.18770446
0.18900991
0.19005054
0.19085842
0.19146348
0.19189372
0.19217451
0.19232927
0.19237999
0.19234644
0.19224688
0.19209816
0.19191573
0.191714
0.19150601
0.19130391
0.19111883
0.19096054
0.19083792
0.19075893
0.19073078
0.19075976
0.19085128
0.19100981
0.19123876
0.19154011
0.19191472
0.19236162
0.1928779
0.19345876
0.19409686
0.19478235
0.19550322
0.19624474
0.19699065