/*--------------------------------*- C++ -*----------------------------------*\
| =========                 |                                                 |
| \\      /  F ield         | OpenFOAM: The Open Source CFD Toolbox           |
|  \\    /   O peration     | Version:  2.4.0                                 |
|   \\  /    A nd           | Web:      www.OpenFOAM.org                      |
|    \\/     M anipulation  |                                                 |
\*---------------------------------------------------------------------------*/
FoamFile
{
    version     2.0;
    format      ascii;
    class       volSymmTensorField;
    location    "20";
    object      R;
}
// * * * * * * * * * * * * * * * * * * * * * * * * * * * * * * * * * * * * * //

dimensions      [0 2 -2 0 0 0 0];

internalField   nonuniform List<symmTensor> 
32000
(
(0.027284621 -1.0309078e-06 9.0701616e-27 0.027284697 -5.1092661e-24 0.027284647)
(0.0088225824 4.4220888e-06 2.749364e-21 0.0088225845 8.6115613e-25 0.0088225813)
(0.022700691 1.5403549e-06 9.5865256e-22 0.022700617 -3.640586e-23 0.022700656)
(0.0082947036 9.593662e-07 2.9933653e-22 0.0082944018 -2.833768e-23 0.0082945527)
(0.0062028479 4.4982584e-08 1.3750554e-23 0.0062028231 -4.4630074e-24 0.0062028351)
(0.00036211866 3.7248833e-08 1.287023e-23 0.0003620794 -1.3474377e-24 0.00036209908)
(0.00084043306 1.3309894e-08 5.4297257e-24 0.00084041145 1.3812307e-25 0.00084042213)
(7.8231873e-05 1.1218865e-08 -2.8362301e-25 7.8203849e-05 -6.4122437e-25 7.8217873e-05)
(0.00023035557 7.222675e-09 3.7860051e-24 0.00023033055 -1.0411684e-24 0.00023034302)
(0.00012758169 4.9864384e-09 2.4362871e-24 0.00012755838 -2.1271955e-24 0.00012757002)
(0.00012797783 2.8932751e-09 2.0235964e-25 0.00012796042 3.5424432e-25 0.0001279691)
(0.00010358253 1.5390361e-09 1.4823561e-25 0.00010357092 1.8919203e-25 0.00010357672)
(9.2631701e-05 2.9292771e-10 6.4174969e-25 9.2629401e-05 7.8298272e-25 9.2630553e-05)
(8.1825932e-05 -7.1128813e-10 -2.6018589e-25 8.1834406e-05 -3.4047414e-25 8.1830187e-05)
(7.3999065e-05 -1.3238407e-09 -2.1058075e-25 7.4016033e-05 -2.3867506e-25 7.400758e-05)
(6.7672754e-05 -1.8159785e-09 3.3489543e-25 6.7696655e-05 3.4443133e-25 6.7684747e-05)
(6.284435e-05 -2.3014889e-09 -4.5109161e-24 6.2873289e-05 5.3384597e-24 6.2858867e-05)
(5.9387923e-05 -2.724234e-09 -5.5179871e-24 5.9418987e-05 5.0854027e-24 5.9403498e-05)
(5.6799087e-05 -2.7819186e-09 -2.1001463e-24 5.6828001e-05 2.9534122e-24 5.681357e-05)
(5.4647482e-05 -2.2784632e-09 -1.559015e-24 5.4669334e-05 2.3217289e-24 5.4658411e-05)
(5.272845e-05 -1.2851473e-09 8.2878706e-25 5.2739827e-05 1.0373763e-24 5.2734129e-05)
(5.0968654e-05 -2.8100547e-10 -5.0618988e-25 5.0970786e-05 -6.2262752e-25 5.0969715e-05)
(4.9284255e-05 2.7383901e-10 9.6598721e-26 4.9281829e-05 1.2667796e-25 4.9283043e-05)
(4.7638396e-05 3.6839239e-10 2.6374219e-25 4.7635395e-05 3.2231959e-25 4.7636895e-05)
(4.5970771e-05 4.6259564e-10 3.3681819e-25 4.5967129e-05 4.6028025e-25 4.5968944e-05)
(4.4255496e-05 6.4025101e-10 -2.5307749e-25 4.425061e-05 -3.1069684e-25 4.4253049e-05)
(4.2385656e-05 4.3088814e-10 -4.7532842e-25 4.2382539e-05 -6.4539942e-25 4.2384099e-05)
(4.0376932e-05 -1.7252008e-10 -5.0200088e-25 4.0378401e-05 -6.4330783e-25 4.0377666e-05)
(3.8371305e-05 -4.9941362e-10 1.2515534e-25 3.8374965e-05 1.6567973e-25 3.8373133e-05)
(3.6451717e-05 -6.2424801e-10 -1.0018976e-25 3.6455932e-05 -1.5261178e-25 3.6453825e-05)
(3.4638338e-05 -7.5597773e-10 -1.0586029e-25 3.4643038e-05 -1.6552024e-25 3.4640691e-05)
(3.2938035e-05 -9.5085617e-10 1.4812066e-25 3.294341e-05 2.0589726e-25 3.2940727e-05)
(3.1358212e-05 -1.2332181e-09 1.2160453e-25 3.1364455e-05 1.9524974e-25 3.136134e-05)
(2.990465e-05 -1.6394708e-09 -1.6144468e-26 2.9911982e-05 3.1058807e-27 2.9908325e-05)
(2.8599536e-05 -2.193288e-09 -1.5810531e-24 2.8608082e-05 4.5417296e-25 2.8603821e-05)
(2.7501629e-05 -2.9242908e-09 -1.8325558e-24 2.7511433e-05 6.1590518e-25 2.7506545e-05)
(2.6662131e-05 -3.847607e-09 -1.7222093e-24 2.6673147e-05 1.1949699e-24 2.6667657e-05)
(2.602237e-05 -5.0008353e-09 -2.2633345e-24 2.603458e-05 1.0452379e-24 2.6028496e-05)
(2.5520979e-05 -6.3632537e-09 1.400264e-25 2.553416e-05 3.7566334e-25 2.5527591e-05)
(2.5152804e-05 -7.6485907e-09 -6.728415e-26 2.5166111e-05 -2.1968434e-25 2.5159475e-05)
(2.493868e-05 -8.1989699e-09 2.8235946e-26 2.4950468e-05 7.1072698e-26 2.4944588e-05)
(2.4908071e-05 -7.6149015e-09 2.3331398e-26 2.4916901e-05 8.1688281e-26 2.4912497e-05)
(2.5108367e-05 -6.2567546e-09 -3.5034845e-27 2.5114017e-05 -9.0086613e-26 2.5111201e-05)
(2.5596364e-05 -5.1467317e-09 -1.1226859e-26 2.559979e-05 -1.8661043e-26 2.5598081e-05)
(2.6508035e-05 -4.5418163e-09 -7.8677081e-27 2.6510033e-05 -1.1524403e-25 2.6509036e-05)
(2.8017577e-05 -4.586216e-09 -3.2655176e-24 2.8018577e-05 1.7719421e-25 2.8018077e-05)
(3.1255494e-05 -4.7168893e-09 -3.3544912e-24 3.1255614e-05 2.6214548e-26 3.1255553e-05)
(3.5049017e-05 -4.8436936e-09 -6.6981267e-29 3.504901e-05 -1.4070284e-29 3.5049011e-05)
(3.7558305e-05 -4.2785627e-09 -3.6743418e-31 3.7558255e-05 8.8185791e-29 3.7558279e-05)
(3.9675077e-05 -2.0783548e-09 -4.550472e-31 3.9674992e-05 -1.0367274e-28 3.9675033e-05)
(4.1484025e-05 5.0118934e-10 6.2750961e-31 4.1483922e-05 4.2780785e-29 4.1483973e-05)
(4.3094885e-05 3.6605276e-09 -8.3160594e-31 4.3094771e-05 5.1249696e-29 4.3094828e-05)
(4.4539173e-05 6.8988216e-09 -1.3313933e-31 4.4539056e-05 -9.2088178e-29 4.4539115e-05)
(4.58493e-05 1.0153346e-08 1.0298614e-30 4.5849186e-05 3.2599375e-29 4.5849244e-05)
(4.7044345e-05 1.324795e-08 -6.4824075e-31 4.7044237e-05 3.0877761e-30 4.7044293e-05)
(4.8140108e-05 1.613271e-08 -6.411729e-31 4.8140008e-05 2.418316e-29 4.8140061e-05)
(4.9148615e-05 1.8761353e-08 1.3328236e-23 4.9148524e-05 -1.7168665e-26 4.9148573e-05)
(5.0079728e-05 2.112057e-08 1.5015828e-23 5.0079647e-05 -1.557537e-26 5.0079691e-05)
(5.0941476e-05 2.3203042e-08 -8.2383351e-24 5.0941404e-05 6.9518142e-27 5.0941444e-05)
(5.1740698e-05 2.5009577e-08 -8.8863679e-24 5.1740636e-05 6.279731e-27 5.1740671e-05)
(5.2483294e-05 2.6544852e-08 -1.8857939e-23 5.2483241e-05 1.0935522e-26 5.2483271e-05)
(5.3174298e-05 2.7817415e-08 -1.9776124e-23 5.3174254e-05 9.303298e-27 5.317428e-05)
(5.3818111e-05 2.883827e-08 1.8280342e-31 5.3818076e-05 9.7886988e-30 5.3818098e-05)
(5.4418633e-05 2.962e-08 -4.1867805e-32 5.4418606e-05 -1.4765713e-29 5.4418624e-05)
(5.4979293e-05 3.0176257e-08 -2.7642692e-31 5.4979274e-05 2.4352407e-29 5.4979288e-05)
(5.5503134e-05 3.0522494e-08 1.4923225e-30 5.5503122e-05 -2.2655943e-29 5.5503133e-05)
(5.5992925e-05 3.0668812e-08 -4.5595692e-31 5.5992921e-05 -2.7165799e-30 5.5992927e-05)
(5.6451124e-05 3.0621898e-08 1.0873069e-23 5.6451126e-05 -5.3107751e-28 5.6451129e-05)
(5.6879924e-05 3.0395365e-08 2.1601006e-23 5.6879932e-05 2.1296334e-28 5.6879932e-05)
(5.7281341e-05 3.0003367e-08 1.0668795e-23 5.7281356e-05 6.5088101e-28 5.7281352e-05)
(5.7657197e-05 2.9460098e-08 -1.4099847e-31 5.7657217e-05 -3.2018081e-29 5.7657211e-05)
(5.8009192e-05 2.8779708e-08 7.13337e-31 5.8009217e-05 3.0340747e-29 5.8009207e-05)
(5.8338795e-05 2.7976301e-08 3.4207076e-32 5.8338825e-05 -2.8743751e-29 5.8338813e-05)
(5.8647436e-05 2.7063803e-08 6.6113945e-31 5.864747e-05 1.7870939e-29 5.8647455e-05)
(5.8936365e-05 2.6056065e-08 -1.0267969e-30 5.8936403e-05 -1.4828263e-29 5.8936386e-05)
(5.9206735e-05 2.4966649e-08 -8.6866851e-31 5.9206776e-05 -9.800867e-31 5.9206757e-05)
(5.9459776e-05 2.3808892e-08 -8.4545952e-24 5.945982e-05 -3.5798273e-27 5.9459799e-05)
(5.9696361e-05 2.259572e-08 -8.0272603e-24 5.9696407e-05 -3.8329859e-27 5.9696385e-05)
(5.9917775e-05 2.1339603e-08 9.3096549e-32 5.9917823e-05 1.4187761e-30 5.99178e-05)
(6.0124563e-05 2.0052501e-08 6.5913797e-31 6.0124612e-05 6.7095138e-31 6.0124588e-05)
(6.0318019e-05 1.8745555e-08 -8.8320178e-33 6.0318068e-05 3.8784852e-31 6.0318044e-05)
(6.0498089e-05 1.7428817e-08 6.189297e-24 6.0498139e-05 4.3945799e-27 6.0498115e-05)
(6.0664586e-05 1.6112312e-08 5.7237215e-24 6.0664636e-05 4.4453902e-27 6.0664611e-05)
(6.0818739e-05 1.4804761e-08 -4.0885843e-31 6.0818789e-05 7.0398123e-31 6.0818764e-05)
(6.0960937e-05 1.3513855e-08 1.1796763e-31 6.0960986e-05 1.708939e-30 6.0960961e-05)
(6.1092037e-05 1.2247538e-08 3.6695385e-31 6.1092085e-05 -5.5628999e-30 6.1092061e-05)
(6.1212428e-05 1.1012e-08 -5.3637206e-32 6.1212475e-05 -1.4806761e-30 6.1212451e-05)
(6.1323116e-05 9.8122953e-09 -1.5714813e-31 6.1323162e-05 3.3897469e-30 6.1323139e-05)
(6.1421371e-05 8.6541653e-09 6.4487938e-32 6.1421415e-05 3.3748228e-30 6.1421392e-05)
(6.1513698e-05 7.5445585e-09 6.0291361e-32 6.151374e-05 -1.0850435e-29 6.1513718e-05)
(6.1595258e-05 6.4846215e-09 -3.7527318e-32 6.1595298e-05 1.0006259e-29 6.1595277e-05)
(6.1667828e-05 5.4786493e-09 1.9474131e-24 6.1667867e-05 3.5440836e-27 6.1667847e-05)
(6.173169e-05 4.535034e-09 1.6122488e-24 6.1731726e-05 3.3387358e-27 6.1731707e-05)
(6.1787031e-05 3.6543298e-09 -9.8642194e-32 6.1787065e-05 -6.1161257e-30 6.1787047e-05)
(6.1834008e-05 2.8078412e-09 1.1910271e-31 6.1834041e-05 6.8144449e-31 6.1834024e-05)
(6.1872805e-05 1.9860326e-09 -2.1204384e-32 6.1872837e-05 5.4380484e-31 6.187282e-05)
(6.1903522e-05 1.2122905e-09 4.3093252e-25 6.1903551e-05 2.7646627e-27 6.1903535e-05)
(6.1926258e-05 5.0083563e-10 1.7804355e-25 6.1926285e-05 2.54002e-27 6.1926271e-05)
(6.1941092e-05 -1.4765192e-10 -1.0085479e-32 6.1941117e-05 2.0385471e-30 6.1941104e-05)
(6.194801e-05 -7.3970347e-10 -1.7152737e-32 6.1948033e-05 -1.9682963e-31 6.1948021e-05)
(6.1946961e-05 -1.2807394e-09 -5.6615744e-33 6.1946982e-05 3.9869287e-31 6.1946971e-05)
(6.1938346e-05 -1.7735204e-09 3.2432711e-32 6.1938365e-05 1.8214064e-31 6.1938355e-05)
(6.1921918e-05 -2.2204468e-09 7.8935465e-25 6.1921935e-05 -1.6035764e-27 6.1921926e-05)
(6.1897426e-05 -2.6231355e-09 9.3245763e-25 6.1897441e-05 -1.4419114e-27 6.1897433e-05)
(6.1864944e-05 -2.9835543e-09 2.6938303e-32 6.1864957e-05 9.617647e-31 6.186495e-05)
(6.1824364e-05 -3.3037799e-09 -1.5178852e-32 6.1824376e-05 4.6627363e-30 6.182437e-05)
(6.1775556e-05 -3.5852699e-09 -1.2734985e-24 6.1775566e-05 9.9178767e-28 6.1775561e-05)
(6.1718364e-05 -3.8298119e-09 1.3468956e-27 6.1718374e-05 -7.6072283e-31 6.1718369e-05)
(6.165262e-05 -4.0393167e-09 1.4358095e-24 6.1652627e-05 -7.4442201e-28 6.1652623e-05)
(6.1578106e-05 -4.2151247e-09 1.4862287e-31 6.1578113e-05 1.3634236e-29 6.1578109e-05)
(6.1494573e-05 -4.358876e-09 1.045873e-31 6.1494578e-05 -9.4428155e-30 6.1494575e-05)
(6.1401765e-05 -4.4721866e-09 -1.7018545e-31 6.1401769e-05 1.3292457e-29 6.1401767e-05)
(6.1299375e-05 -4.5563635e-09 -9.1413781e-32 6.1299378e-05 3.0927513e-30 6.1299376e-05)
(6.1187056e-05 -4.612987e-09 -1.4398884e-31 6.1187058e-05 -8.3850824e-30 6.1187057e-05)
(6.1064451e-05 -4.6434273e-09 2.9206952e-31 6.1064452e-05 -1.1738791e-29 6.1064451e-05)
(6.0931143e-05 -4.6492492e-09 7.4899861e-33 6.0931143e-05 7.4603442e-30 6.0931143e-05)
(6.0786684e-05 -4.6324798e-09 -1.6562095e-31 6.0786684e-05 2.1828059e-30 6.0786684e-05)
(6.0630593e-05 -4.593185e-09 -1.6156024e-31 6.0630591e-05 -1.2414245e-29 6.0630592e-05)
(6.0462314e-05 -4.5318645e-09 3.1539538e-31 6.0462311e-05 -4.9457085e-30 6.0462313e-05)
(6.0281267e-05 -4.449245e-09 -4.6746193e-32 6.0281264e-05 7.5515555e-31 6.0281265e-05)
(6.0086823e-05 -4.3458738e-09 1.5438702e-24 6.0086818e-05 4.0958704e-28 6.0086821e-05)
(5.987827e-05 -4.2222779e-09 1.4993939e-24 5.9878265e-05 4.4072482e-28 5.9878267e-05)
(5.9654862e-05 -4.0791221e-09 -1.4491348e-24 5.9654856e-05 -4.9857387e-28 5.9654859e-05)
(5.9415784e-05 -3.9170147e-09 -1.3909675e-24 5.9415778e-05 -5.9969619e-28 5.9415781e-05)
(5.916011e-05 -3.7365496e-09 -9.4498108e-32 5.9160103e-05 5.8094542e-30 5.9160107e-05)
(5.888688e-05 -3.5384869e-09 1.2571076e-24 5.8886872e-05 7.123549e-28 5.8886876e-05)
(5.8595043e-05 -3.3237654e-09 1.1802722e-24 5.8595035e-05 7.6381863e-28 5.8595039e-05)
(5.8283409e-05 -3.0933918e-09 -2.1989439e-24 5.8283401e-05 -1.6370362e-27 5.8283405e-05)
(5.7950742e-05 -2.8486698e-09 -2.0239666e-24 5.7950732e-05 -1.7347922e-27 5.7950737e-05)
(5.759566e-05 -2.5914365e-09 -1.7830794e-31 5.759565e-05 -1.550104e-30 5.7595655e-05)
(5.7216607e-05 -2.3237296e-09 8.2629355e-25 5.7216597e-05 9.2267697e-28 5.7216602e-05)
(5.681196e-05 -2.0481289e-09 7.2789101e-25 5.681195e-05 9.5874393e-28 5.6811955e-05)
(5.6379916e-05 -1.7679945e-09 -4.7753836e-32 5.6379905e-05 -1.4433969e-29 5.6379911e-05)
(5.591841e-05 -1.4869435e-09 1.625523e-31 5.59184e-05 5.1275622e-30 5.5918405e-05)
(5.5425263e-05 -1.2092912e-09 8.2994847e-25 5.5425253e-05 2.9167087e-26 5.5425258e-05)
(5.4898021e-05 -9.3966297e-10 1.1626786e-24 5.4898011e-05 4.6997489e-23 5.4898016e-05)
(5.4333921e-05 -6.8313383e-10 -5.7537178e-25 5.4333912e-05 4.6827248e-23 5.4333917e-05)
(5.3729951e-05 -4.4426002e-10 -1.636163e-24 5.3729942e-05 -6.1572487e-26 5.3729947e-05)
(5.3082671e-05 -2.2848746e-10 -8.1723825e-25 5.3082663e-05 -4.638275e-23 5.3082667e-05)
(5.2388205e-05 -3.8764062e-11 8.0578573e-25 5.2388199e-05 -4.6101099e-23 5.2388202e-05)
(5.1642169e-05 1.2044385e-10 8.0134552e-25 5.1642163e-05 3.2133135e-26 5.1642166e-05)
(5.0839543e-05 2.4923217e-10 2.0212159e-31 5.0839539e-05 2.0974047e-29 5.0839541e-05)
(4.9974505e-05 3.396381e-10 -1.3632276e-33 4.9974502e-05 5.7901636e-30 4.9974503e-05)
(4.9040283e-05 3.9717138e-10 4.6742288e-31 4.9040281e-05 -1.431439e-29 4.9040282e-05)
(4.8028786e-05 4.161343e-10 -5.1096426e-31 4.8028786e-05 7.0432559e-30 4.8028786e-05)
(4.6930218e-05 4.1246362e-10 7.597433e-32 4.6930219e-05 -2.0919051e-29 4.6930219e-05)
(4.5732714e-05 3.7597846e-10 1.6847996e-32 4.5732715e-05 3.0194217e-29 4.5732715e-05)
(4.4420501e-05 3.3268958e-10 3.7047101e-31 4.4420503e-05 -2.3862993e-29 4.4420502e-05)
(4.297459e-05 2.4782394e-10 4.4525983e-33 4.2974594e-05 3.7542218e-29 4.2974592e-05)
(4.136273e-05 1.5425253e-10 -7.600586e-31 4.1362735e-05 -1.1910903e-29 4.1362733e-05)
(3.9553583e-05 -2.1818888e-11 3.5475696e-31 3.9553591e-05 -6.2016799e-30 3.9553587e-05)
(3.7437278e-05 -2.6463406e-10 9.6023665e-32 3.7437291e-05 2.0390648e-30 3.7437285e-05)
(3.4929425e-05 -6.7408451e-10 3.5407502e-29 3.4929442e-05 -3.2939876e-29 3.4929433e-05)
(3.1147942e-05 -1.0497291e-09 2.3006084e-27 3.1147928e-05 1.922495e-27 3.1147935e-05)
(2.7926807e-05 -1.2451873e-09 -6.8726999e-27 2.7926543e-05 1.2618763e-25 2.7926675e-05)
(2.6431116e-05 -1.3366137e-09 -2.8814831e-26 2.6430523e-05 2.2906908e-25 2.6430819e-05)
(2.5521127e-05 -1.1007547e-09 1.9913105e-26 2.5520364e-05 -1.2375421e-25 2.5520745e-05)
(2.5028204e-05 -2.0057366e-10 -3.6263356e-26 2.5027958e-05 1.571435e-25 2.5028083e-05)
(2.4831818e-05 1.571548e-09 -2.0347327e-26 2.4833554e-05 6.2538088e-26 2.4832689e-05)
(2.4853117e-05 3.6688041e-09 -9.011565e-26 2.4858308e-05 2.712673e-25 2.4855714e-05)
(2.505374e-05 4.9787237e-09 5.5735807e-26 2.5062344e-05 -9.7227311e-26 2.5058045e-05)
(2.5424418e-05 5.1431839e-09 4.2758316e-26 2.543504e-05 -8.2320796e-26 2.5429737e-05)
(2.5926713e-05 4.4980841e-09 -1.6225602e-25 2.5937693e-05 3.4696692e-25 2.5932216e-05)
(2.6572048e-05 3.4372178e-09 4.484171e-27 2.6581911e-05 -2.240629e-26 2.6576994e-05)
(2.7405222e-05 2.2847868e-09 -3.5840058e-25 2.7412923e-05 6.746587e-25 2.7409085e-05)
(2.848599e-05 1.2276294e-09 2.8440199e-25 2.8490858e-05 -4.7544652e-25 2.8488433e-05)
(2.97892e-05 2.5232082e-10 -1.2672261e-25 2.9790448e-05 2.0317627e-25 2.9789829e-05)
(3.1228613e-05 -4.5636087e-10 -2.4642282e-26 3.1226444e-05 5.0652382e-26 3.1227529e-05)
(3.2790526e-05 -9.5875233e-10 -5.0392588e-26 3.2785278e-05 6.5630062e-26 3.2787897e-05)
(3.4469889e-05 -1.3344761e-09 -1.6874264e-25 3.4461798e-05 2.7419985e-25 3.4465834e-05)
(3.6257989e-05 -1.6433439e-09 1.7871042e-25 3.6247166e-05 -2.4849699e-25 3.6252565e-05)
(3.8151963e-05 -1.9135604e-09 -1.8478782e-25 3.8138538e-05 2.5812184e-25 3.8145234e-05)
(4.0126393e-05 -2.1747169e-09 1.4717183e-24 4.0110464e-05 1.3986194e-24 4.0118409e-05)
(4.2104684e-05 -2.4366099e-09 1.6146691e-24 4.2086428e-05 1.7195201e-24 4.2095534e-05)
(4.3939704e-05 -2.6765164e-09 -1.2228849e-25 4.391937e-05 1.5375569e-25 4.3929513e-05)
(4.5606251e-05 -2.8697364e-09 1.4500387e-25 4.5584061e-05 -1.7779448e-25 4.559513e-05)
(4.7183356e-05 -3.0174674e-09 -5.7505805e-25 4.7159298e-05 8.2112861e-25 4.71713e-05)
(4.8808588e-05 -3.160153e-09 2.6253242e-24 4.8782482e-05 1.989978e-24 4.8795506e-05)
(5.0437302e-05 -3.2846164e-09 2.1853523e-24 5.0408974e-05 2.9320405e-24 5.0423107e-05)
(5.2142573e-05 -3.4003604e-09 1.7535611e-26 5.2111678e-05 2.6731065e-26 5.2127091e-05)
(5.3994033e-05 -3.5140352e-09 7.9283185e-26 5.3960063e-05 -1.9661115e-25 5.3977009e-05)
(5.6062031e-05 -3.6365397e-09 -1.6907616e-25 5.6024233e-05 2.6830695e-25 5.6043087e-05)
(5.8541047e-05 -3.7752738e-09 -1.7594434e-26 5.8498326e-05 -1.496525e-25 5.8519633e-05)
(6.1870764e-05 -4.0279019e-09 4.4442878e-26 6.1820967e-05 1.8477534e-25 6.18458e-05)
(6.6562295e-05 -4.670185e-09 -1.4029839e-25 6.6502468e-05 7.018058e-26 6.65323e-05)
(7.2614524e-05 -5.9315076e-09 9.2551436e-28 7.2541552e-05 -1.3347337e-26 7.2577933e-05)
(8.0390019e-05 -8.1811943e-09 1.6416385e-25 8.0299834e-05 1.4848123e-25 8.0344793e-05)
(8.9957672e-05 -1.2079924e-08 2.1899924e-25 8.9844668e-05 -5.1281776e-25 8.9901e-05)
(0.00010329399 -1.8906843e-08 -7.5524684e-25 0.00010314986 1.102475e-24 0.00010322171)
(0.00011693074 -3.0595019e-08 8.4862878e-25 0.0001167462 -1.819488e-24 0.00011683819)
(0.00014672401 -5.2381834e-08 1.3090236e-24 0.00014648108 -9.3264756e-25 0.00014660219)
(0.0001485083 -8.3868797e-08 2.1634383e-25 0.0001482183 -1.6480782e-24 0.00014836291)
(0.00026022277 -1.5169031e-07 6.1489619e-23 0.00025984721 2.7940757e-23 0.0002600346)
(9.525613e-05 -1.5321622e-07 5.795175e-23 9.5001692e-05 1.2297262e-23 9.5128733e-05)
(0.00082182327 -2.8583773e-07 2.5748939e-24 0.00082151805 -1.1005697e-23 0.0008216708)
(0.00035561067 -7.8779406e-08 2.0715503e-25 0.0003555588 -1.8907621e-24 0.00035558488)
(0.0059173069 -8.0641583e-08 -3.6954808e-25 0.0059172663 6.2208772e-24 0.0059172877)
(0.0087126341 1.0690563e-06 3.7020161e-25 0.0087127473 1.0690917e-24 0.0087126913)
(0.02406911 9.7882436e-07 -6.0897075e-22 0.024069099 6.7598558e-25 0.024069098)
(0.0090055983 7.2162282e-06 -4.4865065e-21 0.0090054516 2.0858413e-23 0.0090055307)
(0.0073579543 -8.2229329e-08 6.8121772e-26 0.0073580601 -2.7768719e-24 0.0073580033)
(0.0034326734 3.733118e-06 -2.413741e-21 0.003432664 -1.1158731e-24 0.0034326655)
(0.0069652247 7.534892e-07 -1.2694388e-21 0.0069652484 6.4144528e-24 0.0069652433)
(0.0033063341 1.2033669e-06 -1.8791689e-21 0.0033059578 1.5897875e-22 0.0033061457)
(0.002590128 6.3715876e-08 -1.52214e-23 0.0025900969 1.2014231e-23 0.0025901125)
(0.00016570906 3.6903378e-08 -1.2316158e-23 0.00016567009 1.7522915e-24 0.00016568961)
(0.00042546754 2.2490944e-08 -9.6781424e-24 0.00042543093 -3.4474104e-24 0.00042544915)
(6.4229592e-05 2.353997e-08 -7.2094399e-25 6.4170176e-05 -1.5148521e-24 6.4199924e-05)
(0.00013902601 1.3030026e-08 -8.6663454e-24 0.00013898054 -1.542191e-24 0.00013900327)
(8.538482e-05 9.421583e-09 -4.4806393e-24 8.5340429e-05 4.3267476e-24 8.536266e-05)
(8.3550008e-05 5.3417127e-09 1.1808607e-24 8.3517862e-05 1.4332624e-24 8.353396e-05)
(6.9186602e-05 2.9210661e-09 5.2082167e-25 6.9165204e-05 5.6485037e-25 6.9175933e-05)
(6.1896659e-05 7.5294783e-10 -4.3081372e-25 6.1892276e-05 -5.2790591e-25 6.1894478e-05)
(5.4866853e-05 -1.0070081e-09 -7.3817633e-24 5.4881876e-05 7.8744272e-24 5.4874357e-05)
(4.9534097e-05 -2.0436515e-09 -1.4689351e-23 4.9563782e-05 1.5189701e-23 4.9548911e-05)
(4.5122437e-05 -2.8412588e-09 5.4140142e-25 4.5163527e-05 4.201766e-25 4.5142935e-05)
(4.1614446e-05 -3.6273647e-09 8.1719144e-24 4.1663255e-05 -8.0747079e-24 4.1638789e-05)
(3.8970337e-05 -4.3312265e-09 7.7778265e-24 3.9021727e-05 -9.8118283e-24 3.8995966e-05)
(3.6912292e-05 -4.48983e-09 3.4527417e-24 3.6959377e-05 -4.3923343e-24 3.6935776e-05)
(3.51742e-05 -3.8033021e-09 2.854373e-24 3.5209573e-05 -3.1530389e-24 3.5191851e-05)
(3.3620844e-05 -2.3179643e-09 -1.1832827e-24 3.363961e-05 -1.2844361e-24 3.3630225e-05)
(3.2200168e-05 -7.054913e-10 7.6778709e-25 3.2204368e-05 9.9198934e-25 3.2202287e-05)
(3.0857279e-05 2.8082227e-10 1.6146727e-24 3.0854103e-05 2.004899e-24 3.0855709e-05)
(2.9566599e-05 5.074858e-10 -5.8572103e-25 2.9562258e-05 -7.3969523e-25 2.9564436e-05)
(2.8293943e-05 6.3222936e-10 -3.5441724e-25 2.8288689e-05 -4.1831699e-25 2.829132e-05)
(2.702073e-05 8.6965363e-10 3.7291839e-25 2.7013959e-05 5.5302238e-25 2.7017359e-05)
(2.568018e-05 6.1262909e-10 3.9454122e-25 2.5676097e-05 5.5522505e-25 2.5678158e-05)
(2.4265302e-05 -2.0572936e-10 1.0397734e-25 2.4267547e-05 9.181942e-26 2.4266432e-05)
(2.2848907e-05 -6.6173784e-10 -9.861283e-26 2.2853976e-05 -1.6166707e-25 2.2851439e-05)
(2.1479855e-05 -8.2698987e-10 -5.9216543e-25 2.1485566e-05 -7.354872e-25 2.1482708e-05)
(2.0171622e-05 -9.7687432e-10 -2.4139021e-25 2.0177844e-05 -2.9052815e-25 2.0174731e-05)
(1.8929823e-05 -1.1929599e-09 -2.2244317e-25 1.8936747e-05 -3.1666376e-25 1.8933281e-05)
(1.7759785e-05 -1.4991842e-09 -6.6677605e-25 1.7767592e-05 -9.5478953e-25 1.7763683e-05)
(1.6665515e-05 -1.9297214e-09 3.6729954e-26 1.6674394e-05 -1.6247628e-26 1.6669946e-05)
(1.56593e-05 -2.5021754e-09 2.0796821e-24 1.566932e-05 -8.7002253e-26 1.5664299e-05)
(1.4773332e-05 -3.2374626e-09 1.7198622e-24 1.4784466e-05 -1.4304105e-24 1.4778885e-05)
(1.4038567e-05 -4.1378483e-09 2.2192678e-24 1.40507e-05 -7.2343918e-25 1.4044617e-05)
(1.3432299e-05 -5.229956e-09 1.238707e-23 1.3445358e-05 -5.1612427e-24 1.343881e-05)
(1.2924657e-05 -6.4926258e-09 1.1137454e-23 1.2938369e-05 -5.4513829e-24 1.2931492e-05)
(1.2512854e-05 -7.6667827e-09 -1.2733214e-23 1.2526362e-05 5.8424869e-24 1.2519585e-05)
(1.2206234e-05 -8.1584368e-09 -1.3374581e-23 1.2217991e-05 4.0081213e-24 1.2212094e-05)
(1.2017702e-05 -7.6074095e-09 8.3374734e-27 1.2026439e-05 1.1793049e-25 1.2022061e-05)
(1.1968273e-05 -6.3152107e-09 -9.2937372e-24 1.1973865e-05 2.0218157e-24 1.1971066e-05)
(1.2085641e-05 -5.1989823e-09 -7.4757665e-24 1.2089023e-05 1.0167414e-24 1.208733e-05)
(1.2432587e-05 -4.530742e-09 1.6087033e-26 1.2434544e-05 3.0868101e-25 1.2433565e-05)
(1.3100861e-05 -4.4502547e-09 3.1531602e-24 1.3101816e-05 -2.4715624e-25 1.3101338e-05)
(1.4577416e-05 -4.4107494e-09 3.2023555e-24 1.4577503e-05 -1.8923485e-26 1.4577461e-05)
(1.6296685e-05 -4.225777e-09 -1.4381489e-29 1.6296626e-05 -5.20524e-29 1.6296657e-05)
(1.7449622e-05 -3.3560007e-09 -3.6353825e-31 1.7449446e-05 -1.4334726e-29 1.7449537e-05)
(1.8413483e-05 -1.0310446e-09 -1.2024056e-30 1.8413211e-05 6.2471697e-29 1.8413348e-05)
(1.9237891e-05 1.5753915e-09 2.0931604e-30 1.9237577e-05 -1.8851453e-29 1.9237735e-05)
(1.997048e-05 4.5982986e-09 -2.8377952e-24 1.9970142e-05 3.9564049e-26 1.9970311e-05)
(2.0626959e-05 7.6254726e-09 -4.9782427e-24 2.0626625e-05 3.9464517e-26 2.0626792e-05)
(2.1221905e-05 1.0598099e-08 3.0685495e-30 2.1221586e-05 6.4005429e-29 2.1221745e-05)
(2.176425e-05 1.3378299e-08 -4.3931717e-31 2.1763957e-05 -6.6046637e-29 2.1764103e-05)
(2.2261234e-05 1.5930641e-08 -1.8622855e-30 2.2260969e-05 -4.0870462e-29 2.22611e-05)
(2.2718398e-05 1.8225215e-08 -1.2255259e-23 2.2718165e-05 1.5821924e-26 2.271828e-05)
(2.3140272e-05 2.0257556e-08 -1.3742966e-23 2.314007e-05 1.4288308e-26 2.3140169e-05)
(2.3530549e-05 2.2027708e-08 7.555018e-24 2.3530377e-05 -6.4772438e-27 2.3530461e-05)
(2.3892367e-05 2.3541542e-08 -2.4837875e-23 2.3892225e-05 2.9915297e-26 2.3892293e-05)
(2.4228424e-05 2.48075e-08 -5.2446407e-23 2.422831e-05 4.8008281e-26 2.4228364e-05)
(2.454103e-05 2.583661e-08 -1.8386227e-23 2.4540943e-05 1.4312774e-26 2.4540983e-05)
(2.4832197e-05 2.6641419e-08 5.5379287e-30 2.4832135e-05 -9.6755931e-31 2.4832163e-05)
(2.5103706e-05 2.7235307e-08 -4.7535267e-31 2.5103668e-05 6.4314526e-30 2.5103683e-05)
(2.5357124e-05 2.7632223e-08 1.3069162e-30 2.5357107e-05 1.4571646e-29 2.5357112e-05)
(2.5593843e-05 2.7847428e-08 1.3320656e-31 2.5593847e-05 -4.6695171e-29 2.5593841e-05)
(2.581512e-05 2.788879e-08 2.784399e-31 2.5815143e-05 5.7673242e-29 2.5815128e-05)
(2.6022084e-05 2.7762965e-08 -9.897478e-24 2.6022124e-05 4.135256e-28 2.6022101e-05)
(2.621573e-05 2.7482975e-08 -7.8315894e-23 2.6215787e-05 -1.7222119e-26 2.6215755e-05)
(2.6396977e-05 2.7061708e-08 -6.7576292e-23 2.6397049e-05 -2.3082852e-26 2.639701e-05)
(2.6566653e-05 2.6511946e-08 -1.6320998e-30 2.6566738e-05 -1.9715606e-29 2.6566693e-05)
(2.6725529e-05 2.5846278e-08 2.18769e-30 2.6725626e-05 7.0932011e-30 2.6725575e-05)
(2.6874277e-05 2.5077151e-08 -3.1767257e-30 2.6874384e-05 -9.7467829e-31 2.6874328e-05)
(2.7013546e-05 2.4216766e-08 7.887527e-31 2.7013662e-05 9.457818e-30 2.7013602e-05)
(2.7143911e-05 2.3277157e-08 3.0998863e-30 2.7144035e-05 -6.9841763e-30 2.7143971e-05)
(2.7265907e-05 2.2270051e-08 -1.7953778e-30 2.7266037e-05 -3.4506669e-30 2.726597e-05)
(2.7380091e-05 2.1206939e-08 7.6642114e-24 2.7380226e-05 3.2539479e-27 2.7380157e-05)
(2.7486897e-05 2.00989e-08 7.2614585e-24 2.7487036e-05 3.4664395e-27 2.7486965e-05)
(2.7586902e-05 1.8956599e-08 2.1323654e-31 2.7587044e-05 1.223357e-30 2.7586972e-05)
(2.7680395e-05 1.7790227e-08 2.0099045e-30 2.7680538e-05 1.4477675e-31 2.7680465e-05)
(2.7767892e-05 1.6609263e-08 4.5216496e-31 2.7768036e-05 -1.2137001e-30 2.7767963e-05)
(2.7849351e-05 1.5422273e-08 -5.600506e-24 2.7849494e-05 -3.9767458e-27 2.7849422e-05)
(2.7924668e-05 1.4237642e-08 -5.1705514e-24 2.7924809e-05 -4.0135442e-27 2.7924738e-05)
(2.7994325e-05 1.3062775e-08 4.5201046e-31 2.7994464e-05 4.6239946e-30 2.7994394e-05)
(2.8058533e-05 1.1904195e-08 -2.5688137e-23 2.8058669e-05 -4.826559e-26 2.8058601e-05)
(2.8117679e-05 1.0768564e-08 -2.3266683e-23 2.8117812e-05 -4.7107638e-26 2.8117745e-05)
(2.8171967e-05 9.6611843e-09 -8.0535766e-31 2.8172095e-05 -2.2026204e-30 2.8172031e-05)
(2.8223411e-05 8.5864688e-09 8.440001e-31 2.8223535e-05 -3.3119057e-30 2.8223473e-05)
(2.8263708e-05 7.5464473e-09 -1.0905441e-23 2.8263826e-05 -2.8286144e-26 2.8263767e-05)
(2.8307749e-05 6.5551913e-09 -9.4939991e-24 2.8307863e-05 -2.7050443e-26 2.8307807e-05)
(2.8344502e-05 5.6056301e-09 -1.591717e-31 2.834461e-05 4.6553367e-30 2.8344557e-05)
(2.8377205e-05 4.7041788e-09 -1.7570152e-24 2.8377307e-05 -3.2041611e-27 2.8377257e-05)
(2.8405984e-05 3.8575233e-09 -1.4534213e-24 2.8406079e-05 -3.0118517e-27 2.8406032e-05)
(2.8430924e-05 3.0638051e-09 -7.6187622e-32 2.8431014e-05 7.0811802e-30 2.8430969e-05)
(2.8452097e-05 2.2993567e-09 3.1540224e-32 2.8452183e-05 9.6285297e-31 2.8452141e-05)
(2.8469585e-05 1.5598784e-09 -2.6668792e-32 2.8469667e-05 -3.0147368e-30 2.8469627e-05)
(2.8483435e-05 8.6571281e-10 -3.8834659e-25 2.8483511e-05 -2.4902985e-27 2.8483473e-05)
(2.8493692e-05 2.2783161e-10 -1.6037628e-25 2.8493762e-05 -2.2896249e-27 2.8493727e-05)
(2.850039e-05 -3.5350496e-10 2.0619344e-32 2.8500453e-05 -1.2772859e-30 2.8500422e-05)
(2.8503287e-05 -8.8487526e-10 -1.1424235e-32 2.8503345e-05 -5.7060213e-31 2.8503317e-05)
(2.8502652e-05 -1.3711125e-09 1.2359811e-32 2.8502705e-05 -4.2517998e-31 2.8502679e-05)
(2.8499023e-05 -1.814518e-09 -5.6687381e-32 2.8499072e-05 8.0113409e-33 2.8499048e-05)
(2.8491823e-05 -2.2170984e-09 -7.1062114e-25 2.8491867e-05 1.4412723e-27 2.8491845e-05)
(2.8480811e-05 -2.580239e-09 9.1573925e-25 2.848085e-05 -3.4269448e-27 2.8480831e-05)
(2.8466199e-05 -2.9056312e-09 1.9858393e-24 2.8466235e-05 -4.2250724e-27 2.8466217e-05)
(2.844794e-05 -3.19505e-09 -7.9787964e-32 2.8447971e-05 1.7703112e-30 2.8447956e-05)
(2.8425975e-05 -3.449765e-09 1.1459671e-24 2.8426003e-05 -8.9481952e-28 2.8425989e-05)
(2.8400235e-05 -3.6713168e-09 -5.0603495e-28 2.8400258e-05 -2.3498518e-30 2.8400247e-05)
(2.8370639e-05 -3.8613458e-09 -1.2926847e-24 2.8370659e-05 6.6127032e-28 2.8370649e-05)
(2.8337094e-05 -4.0210282e-09 -1.4754167e-31 2.8337111e-05 6.8240329e-30 2.8337103e-05)
(2.8299486e-05 -4.1517838e-09 -1.3596971e-31 2.8299499e-05 -1.5067556e-30 2.8299493e-05)
(2.8257697e-05 -4.255012e-09 5.3184154e-31 2.8257708e-05 -2.1907242e-30 2.8257703e-05)
(2.8211591e-05 -4.3318631e-09 -2.4271709e-31 2.8211599e-05 -3.3761684e-30 2.8211595e-05)
(2.8161009e-05 -4.3837125e-09 -2.3941964e-31 2.8161015e-05 -3.7741642e-30 2.8161012e-05)
(2.8105792e-05 -4.4117778e-09 3.5920714e-31 2.8105795e-05 5.3286072e-30 2.8105793e-05)
(2.8045751e-05 -4.4174559e-09 -2.5451197e-31 2.8045751e-05 -3.0861475e-30 2.8045751e-05)
(2.798068e-05 -4.4025901e-09 -2.2948047e-31 2.7980678e-05 -2.5864321e-31 2.7980679e-05)
(2.7910365e-05 -4.3671878e-09 -2.3309717e-31 2.7910361e-05 2.0639122e-29 2.7910363e-05)
(2.7834554e-05 -4.3116115e-09 1.124295e-32 2.7834548e-05 2.5172186e-30 2.7834551e-05)
(2.7752984e-05 -4.2364453e-09 7.4498839e-31 2.7752975e-05 -3.4115046e-29 2.7752979e-05)
(2.7665369e-05 -4.1421359e-09 -1.3898612e-24 2.7665359e-05 -3.4594859e-28 2.7665364e-05)
(2.7571389e-05 -4.029111e-09 -1.3523017e-24 2.7571376e-05 -4.1752644e-28 2.7571383e-05)
(2.7470704e-05 -3.8979125e-09 1.3050943e-24 2.7470689e-05 4.9592965e-28 2.7470697e-05)
(2.7362946e-05 -3.7490325e-09 1.2552722e-24 2.7362929e-05 5.4148734e-28 2.7362937e-05)
(2.7247695e-05 -3.582948e-09 -6.7421676e-32 2.7247676e-05 -7.297985e-30 2.7247685e-05)
(2.7124516e-05 -3.4002788e-09 -1.1330761e-24 2.7124495e-05 -6.6707128e-28 2.7124505e-05)
(2.6992932e-05 -3.201795e-09 -1.0663491e-24 2.699291e-05 -6.8718641e-28 2.6992921e-05)
(2.6852404e-05 -2.9883309e-09 1.9834078e-24 2.685238e-05 1.4669545e-27 2.6852392e-05)
(2.6702367e-05 -2.760988e-09 1.8303478e-24 2.6702342e-05 1.5779411e-27 2.6702355e-05)
(2.6542199e-05 -2.521337e-09 2.0388172e-31 2.6542172e-05 1.4637462e-29 2.6542185e-05)
(2.637119e-05 -2.2711478e-09 -3.8538068e-24 2.6371163e-05 -7.3315988e-27 2.6371177e-05)
(2.6188603e-05 -2.0126935e-09 -3.4045072e-24 2.6188575e-05 -7.5455315e-27 2.6188589e-05)
(2.5993616e-05 -1.7489528e-09 -2.6599475e-32 2.5993587e-05 7.045384e-29 2.5993601e-05)
(2.5785295e-05 -1.483191e-09 7.7078369e-31 2.5785267e-05 -6.2197092e-29 2.5785281e-05)
(2.5562646e-05 -1.2193335e-09 -6.6687766e-31 2.5562618e-05 2.4669267e-29 2.5562632e-05)
(2.5324548e-05 -9.6164626e-10 -3.0292183e-25 2.5324521e-05 -4.2627778e-23 2.5324535e-05)