/*--------------------------------*- C++ -*----------------------------------*\
| =========                 |                                                 |
| \\      /  F ield         | OpenFOAM: The Open Source CFD Toolbox           |
|  \\    /   O peration     | Version:  2.4.0                                 |
|   \\  /    A nd           | Web:      www.OpenFOAM.org                      |
|    \\/     M anipulation  |                                                 |
\*---------------------------------------------------------------------------*/
FoamFile
{
    version     2.0;
    format      ascii;
    class       volScalarField;
    location    "6401";
    object      k;
}
// * * * * * * * * * * * * * * * * * * * * * * * * * * * * * * * * * * * * * //

dimensions      [0 2 -2 0 0 0 0];

internalField   nonuniform List<scalar> 
32000
(
9.5503724e-08
1.4293503e-07
1.4029054e-07
1.1600876e-07
7.1265562e-08
3.5160058e-08
1.153827e-08
5.948989e-09
1.0957831e-08
1.4170231e-08
1.2934491e-08
1.1225235e-08
9.6168734e-09
8.4356176e-09
7.630777e-09
7.023804e-09
6.5208901e-09
6.071794e-09
5.7239138e-09
5.3591364e-09
4.9987714e-09
4.6758391e-09
4.4076434e-09
4.2168032e-09
4.1208005e-09
4.1350366e-09
4.2486218e-09
4.3990899e-09
4.5993479e-09
4.8859444e-09
5.262222e-09
5.7360802e-09
6.3071986e-09
6.9723308e-09
7.7265365e-09
8.5716179e-09
9.5324065e-09
1.0630484e-08
1.1843541e-08
1.3146032e-08
1.4518984e-08
1.5924315e-08
1.7320906e-08
1.8637154e-08
1.9844658e-08
2.0932348e-08
2.300938e-08
2.9448372e-08
3.5192454e-08
3.9793632e-08
4.4154505e-08
4.8045193e-08
5.1672211e-08
5.4969034e-08
5.802088e-08
6.0814519e-08
6.3387064e-08
6.5737258e-08
6.7885692e-08
6.9836873e-08
7.1603524e-08
7.3191032e-08
7.4608214e-08
7.5860137e-08
7.6953495e-08
7.7893935e-08
7.8686847e-08
7.9337829e-08
7.9853186e-08
8.0239324e-08
8.0506848e-08
8.0649741e-08
8.0665164e-08
8.0577047e-08
8.042112e-08
8.0167671e-08
7.9823848e-08
7.9403062e-08
7.8911752e-08
7.8356724e-08
7.7743717e-08
7.7078851e-08
7.6368169e-08
7.5616517e-08
7.4828901e-08
7.4009549e-08
7.3163033e-08
7.2291479e-08
7.1402779e-08
7.0491381e-08
6.9564606e-08
6.8623456e-08
6.7673091e-08
6.6719905e-08
6.5769422e-08
6.4824506e-08
6.3885742e-08
6.2953684e-08
6.2028303e-08
6.1108784e-08
6.0195106e-08
5.9287551e-08
5.8386273e-08
5.7491583e-08
5.6604008e-08
5.5723638e-08
5.4850728e-08
5.398571e-08
5.3128561e-08
5.2279429e-08
5.1438557e-08
5.0605805e-08
4.9781259e-08
4.8964916e-08
4.8156576e-08
4.7356298e-08
4.6563792e-08
4.5778831e-08
4.5001316e-08
4.4230847e-08
4.346704e-08
4.2709654e-08
4.195815e-08
4.1212033e-08
4.0470871e-08
3.9734026e-08
3.9000814e-08
3.8270665e-08
3.7542751e-08
3.6816241e-08
3.6090316e-08
3.5364045e-08
3.463619e-08
3.3905928e-08
3.3171565e-08
3.2432541e-08
3.1686584e-08
3.0933077e-08
3.0167294e-08
2.9389708e-08
2.859399e-08
2.7783622e-08
2.6946771e-08
2.6094637e-08
2.5203177e-08
2.4296423e-08
2.3326115e-08
2.2348212e-08
2.1259373e-08
2.019095e-08
1.8899784e-08
1.770671e-08
1.592854e-08
1.4037186e-08
1.4486384e-08
1.6092053e-08
1.7786497e-08
1.9447786e-08
2.1034306e-08
2.2526233e-08
2.4004425e-08
2.5463146e-08
2.6935487e-08
2.8438888e-08
3.0102716e-08
3.2017398e-08
3.4029588e-08
3.611057e-08
3.8276633e-08
4.0528013e-08
4.2835623e-08
4.5150054e-08
4.7568123e-08
4.9508772e-08
5.0844322e-08
5.1624051e-08
5.2638453e-08
5.3607072e-08
5.4550967e-08
5.5530721e-08
5.6644322e-08
5.8006368e-08
5.969413e-08
6.2739566e-08
6.8008306e-08
7.297655e-08
7.8899203e-08
8.6602366e-08
9.6758456e-08
1.1028807e-07
1.2812269e-07
1.5292327e-07
1.9487584e-07
2.36414e-07
1.9979518e-07
1.5318772e-07
8.7377783e-08
6.7814053e-08
5.2438562e-08
6.3187626e-08
3.1249222e-06
4.6763946e-06
4.5898728e-06
3.7960712e-06
2.3334311e-06
1.1527557e-06
3.7915481e-07
1.9437083e-07
3.5742455e-07
4.6324785e-07
4.2346325e-07
3.6763918e-07
3.1497218e-07
2.7622462e-07
2.498162e-07
2.2991609e-07
2.1343751e-07
1.9871305e-07
1.8730748e-07
1.7536312e-07
1.6355583e-07
1.5296692e-07
1.4416456e-07
1.3788896e-07
1.3471328e-07
1.351458e-07
1.3884302e-07
1.4375752e-07
1.5029576e-07
1.5965502e-07
1.7194969e-07
1.8743975e-07
2.0611724e-07
2.278778e-07
2.5256003e-07
2.8021821e-07
3.1166121e-07
3.4760295e-07
3.873212e-07
4.299788e-07
4.7495426e-07
5.2100083e-07
5.6677045e-07
6.099136e-07
6.49495e-07
6.8512787e-07
7.5307398e-07
9.6370326e-07
1.1516128e-06
1.3021578e-06
1.4448506e-06
1.5721568e-06
1.6908373e-06
1.798713e-06
1.8985735e-06
1.989983e-06
2.0741561e-06
2.1510537e-06
2.2213498e-06
2.2851917e-06
2.3429957e-06
2.3949379e-06
2.4413071e-06
2.4822688e-06
2.5180423e-06
2.548812e-06
2.5747546e-06
2.5960531e-06
2.6129139e-06
2.6255465e-06
2.6342981e-06
2.6389715e-06
2.639474e-06
2.636589e-06
2.6314852e-06
2.6231903e-06
2.6119382e-06
2.5981679e-06
2.5820902e-06
2.5639274e-06
2.5438677e-06
2.5221111e-06
2.4988553e-06
2.4742589e-06
2.4484859e-06
2.4216743e-06
2.3939739e-06
2.3654542e-06
2.3363735e-06
2.3065501e-06
2.2762235e-06
2.2454265e-06
2.2143281e-06
2.1831373e-06
2.1520351e-06
2.1211149e-06
2.0903961e-06
2.0598967e-06
2.0296157e-06
1.9995264e-06
1.9696283e-06
1.9399306e-06
1.9104381e-06
1.8811613e-06
1.8521173e-06
1.8233089e-06
1.7947447e-06
1.7664387e-06
1.7383902e-06
1.710604e-06
1.683088e-06
1.6558378e-06
1.628856e-06
1.6021427e-06
1.5756912e-06
1.5495036e-06
1.5235702e-06
1.4978837e-06
1.4724409e-06
1.4472286e-06
1.4222343e-06
1.3974501e-06
1.3728585e-06
1.348443e-06
1.3241898e-06
1.3000777e-06
1.2760846e-06
1.2521917e-06
1.228372e-06
1.2045982e-06
1.1808436e-06
1.1570776e-06
1.1332599e-06
1.1093635e-06
1.0853328e-06
1.0611497e-06
1.0367393e-06
1.0120819e-06
9.8702287e-07
9.6157763e-07
9.3553912e-07
9.090213e-07
8.816369e-07
8.5375256e-07
8.2458133e-07
7.9491002e-07
7.631588e-07
7.3115992e-07
6.955302e-07
6.6057059e-07
6.1832039e-07
5.792866e-07
5.2112371e-07
4.5929579e-07
4.7408786e-07
5.2672327e-07
5.8225082e-07
6.3668761e-07
6.8866631e-07
7.3754923e-07
7.8598548e-07
8.3378397e-07
8.8203275e-07
9.3131598e-07
9.8587483e-07
1.0486235e-06
1.1145274e-06
1.1826779e-06
1.2536124e-06
1.32733e-06
1.4028693e-06
1.4786308e-06
1.5577025e-06
1.6210469e-06
1.6645964e-06
1.6901015e-06
1.7233652e-06
1.7550872e-06
1.7860156e-06
1.8181447e-06
1.8546898e-06
1.8993983e-06
1.9549297e-06
2.0551316e-06
2.2277866e-06
2.390364e-06
2.5844172e-06
2.8368492e-06
3.1696037e-06
3.6127328e-06
4.1967071e-06
5.0092727e-06
6.3812158e-06
7.7326749e-06
6.5299001e-06
5.0067225e-06
2.8564372e-06
2.2182196e-06
1.7156244e-06
2.0675875e-06
2.3676447e-05
3.5426148e-05
3.4769327e-05
2.8766917e-05
1.7696734e-05
8.7558515e-06
2.8875248e-06
1.4719307e-06
2.7004046e-06
3.5079061e-06
3.2118635e-06
2.789941e-06
2.3907361e-06
2.0965071e-06
1.8959207e-06
1.7448915e-06
1.6199141e-06
1.5081166e-06
1.4214843e-06
1.3308718e-06
1.2412435e-06
1.1607995e-06
1.0938632e-06
1.0460446e-06
1.021696e-06
1.0247025e-06
1.052572e-06
1.0897659e-06
1.1392343e-06
1.2100564e-06
1.3031379e-06
1.4204624e-06
1.5619907e-06
1.7269484e-06
1.9141134e-06
2.12385e-06
2.362243e-06
2.6347616e-06
2.9360075e-06
3.2596268e-06
3.6009037e-06
3.9503879e-06
4.2978539e-06
4.6254542e-06
4.9260709e-06
5.1966139e-06
5.711124e-06
7.3066961e-06
8.7297876e-06
9.8703984e-06
1.0951613e-05
1.1916217e-05
1.2815495e-05
1.3632893e-05
1.4389577e-05
1.5082172e-05
1.5719919e-05
1.6302541e-05
1.6835151e-05
1.7318862e-05
1.7756829e-05
1.8150385e-05
1.8501718e-05
1.881208e-05
1.9083134e-05
1.9316276e-05
1.9512846e-05
1.967423e-05
1.980199e-05
1.9897715e-05
1.9964028e-05
1.9999458e-05
2.0003269e-05
1.9981419e-05
1.994276e-05
1.9879918e-05
1.9794669e-05
1.969034e-05
1.9568525e-05
1.9430911e-05
1.9278923e-05
1.9114075e-05
1.8937866e-05
1.8751498e-05
1.8556213e-05
1.8353056e-05
1.8143164e-05
1.7927061e-05
1.7706705e-05
1.748072e-05
1.725092e-05
1.7017555e-05
1.6781906e-05
1.6545556e-05
1.6309878e-05
1.6075577e-05
1.5842799e-05
1.5611683e-05
1.5382219e-05
1.5154206e-05
1.492764e-05
1.4702591e-05
1.4479097e-05
1.4257237e-05
1.4037139e-05
1.3818826e-05
1.3602363e-05
1.3387855e-05
1.3175298e-05
1.2964728e-05
1.2756206e-05
1.2549696e-05
1.234522e-05
1.2142778e-05
1.194232e-05
1.1743861e-05
1.1547328e-05
1.1352666e-05
1.115985e-05
1.0968781e-05
1.0779365e-05
1.0591539e-05
1.0405173e-05
1.0220142e-05
1.003634e-05
9.8536083e-06
9.6717781e-06
9.4907072e-06
9.3101907e-06
9.1300226e-06
8.9500004e-06
8.769892e-06
8.5893919e-06
8.4082953e-06
8.2261823e-06
8.0429142e-06
7.8579171e-06
7.6710477e-06
7.4811352e-06
7.288297e-06
7.0909629e-06
6.8899979e-06
6.6824651e-06
6.4711465e-06
6.2500736e-06
6.0252167e-06
5.7845927e-06
5.5421034e-06
5.2720865e-06
5.0071747e-06
4.6869843e-06
4.3912462e-06
3.9507085e-06
3.4829502e-06
3.5959996e-06
3.9956964e-06
4.4171927e-06
4.8304055e-06
5.2249219e-06
5.5959986e-06
5.9637216e-06
6.3266088e-06
6.692946e-06
7.0672586e-06
7.4817003e-06
7.9579423e-06
8.457751e-06
8.9745322e-06
9.5123896e-06
1.0071243e-05
1.0643724e-05
1.1217853e-05
1.181642e-05
1.2295109e-05
1.2624035e-05
1.2817485e-05
1.3070276e-05
1.3310999e-05
1.3545836e-05
1.378997e-05
1.4067827e-05
1.4407776e-05
1.4830876e-05
1.5593804e-05
1.6902557e-05
1.8133296e-05
1.9603893e-05
2.15172e-05
2.403867e-05
2.7394826e-05
3.1816637e-05
3.797512e-05
4.8360995e-05
5.8550623e-05
4.9410217e-05
3.7897329e-05
2.1628611e-05
1.6810753e-05
1.3003776e-05
1.5673548e-05
9.2969287e-05
0.00013910409
0.00013647322
0.00011304265
6.9634253e-05
3.453007e-05
1.1420153e-05
5.7825553e-06
1.0577729e-05
1.3775397e-05
1.2635459e-05
1.0982189e-05
9.4130569e-06
8.2542723e-06
7.464041e-06
6.8694672e-06
6.3779714e-06
5.9376852e-06
5.5963269e-06
5.2397447e-06
4.886807e-06
4.5697651e-06
4.3056881e-06
4.1166287e-06
4.0197279e-06
4.0303798e-06
4.139294e-06
4.2852776e-06
4.4793826e-06
4.757315e-06
5.1227856e-06
5.5836466e-06
6.1398299e-06
6.7883499e-06
7.5244204e-06
8.3492959e-06
9.2866643e-06
1.035821e-05
1.1543046e-05
1.2816179e-05
1.4159056e-05
1.5534591e-05
1.6902578e-05
1.8192951e-05
1.9377693e-05
2.0445347e-05
2.2466475e-05
2.8736784e-05
3.4318171e-05
3.8796504e-05
4.3041885e-05
4.6829288e-05
5.0360394e-05
5.3569974e-05
5.6541313e-05
5.9260799e-05
6.1764974e-05
6.4052767e-05
6.6144295e-05
6.8043884e-05
6.9763947e-05
7.1309688e-05
7.2689707e-05
7.3908905e-05
7.4973806e-05
7.5889887e-05
7.6662394e-05
7.7296766e-05
7.7799129e-05
7.8175715e-05
7.8436739e-05
7.8576723e-05
7.8592327e-05
7.8507184e-05
7.8356036e-05
7.8109904e-05
7.777575e-05
7.736663e-05
7.6888809e-05
7.6348903e-05
7.5752503e-05
7.5105561e-05
7.4413954e-05
7.3682407e-05
7.2915792e-05
7.211822e-05
7.1294151e-05
7.0445648e-05
6.95804e-05
6.8692997e-05
6.7790577e-05
6.6874127e-05
6.5948682e-05
6.5020464e-05
6.4094843e-05
6.3174594e-05
6.2260285e-05
6.1352457e-05
6.0451077e-05
5.9555365e-05
5.8665316e-05
5.7781206e-05
5.6903188e-05
5.6031574e-05
5.516687e-05
5.4309166e-05
5.3458719e-05
5.2615943e-05
5.1780818e-05
5.0953492e-05
5.01342e-05
4.9322807e-05
4.85194e-05
4.7723974e-05
4.693634e-05
4.6156551e-05
4.5384327e-05
4.461945e-05
4.3861823e-05
4.3111056e-05
4.2366778e-05
4.1628753e-05
4.0896457e-05
4.0169409e-05
3.9447189e-05
3.8729173e-05
3.8014701e-05
3.7303213e-05
3.6593905e-05
3.5885968e-05
3.5178606e-05
3.4470909e-05
3.3761676e-05
3.3050102e-05
3.2334539e-05
3.161444e-05
3.0887527e-05
3.0153259e-05
2.9407041e-05
2.8649337e-05
2.7873971e-05
2.7084348e-05
2.6268918e-05
2.5438631e-05
2.4570011e-05
2.3686553e-05
2.2741119e-05
2.1788417e-05
2.0727489e-05
1.968676e-05
1.8428677e-05
1.7267088e-05
1.5537379e-05
1.3702797e-05
1.4149905e-05
1.5723109e-05
1.7382113e-05
1.900853e-05
2.0561372e-05
2.202225e-05
2.3470111e-05
2.4898966e-05
2.6341549e-05
2.7816004e-05
2.9448585e-05
3.1322627e-05
3.3287894e-05
3.5319664e-05
3.7434031e-05
3.9630382e-05
4.1879423e-05
4.4134744e-05
4.6483308e-05
4.8358239e-05
4.9646157e-05
5.0407375e-05
5.1403418e-05
5.2350341e-05
5.3274715e-05
5.423617e-05
5.5330881e-05
5.6670108e-05
5.8339948e-05
6.1348446e-05
6.6482034e-05
7.1307203e-05
7.7075024e-05
8.4579072e-05
9.4462147e-05
0.00010760408
0.00012490602
0.00014902566
0.0001896929
0.00022949121
0.00019361564
0.00014870784
8.4942222e-05
6.6122724e-05
5.1148321e-05
6.1643777e-05
0.00025977728
0.00038872902
0.00038091302
0.00031635076
0.00019537393
9.7251079e-05
3.2272721e-05
1.6206562e-05
2.9526707e-05
3.8558615e-05
3.5437573e-05
3.0820976e-05
2.6424696e-05
2.3171124e-05
2.0951529e-05
1.9282296e-05
1.7904848e-05
1.6668744e-05
1.5709826e-05
1.4709478e-05
1.371867e-05
1.2827817e-05
1.208498e-05
1.1551954e-05
1.127685e-05
1.1303091e-05
1.160634e-05
1.2014642e-05
1.2557363e-05
1.3334615e-05
1.4357187e-05
1.5647237e-05
1.7204773e-05
1.902158e-05
2.1084353e-05
2.3396203e-05
2.6022684e-05
2.9024764e-05
3.2344894e-05
3.5913134e-05
3.9677427e-05
4.3534446e-05
4.7371565e-05
5.0994259e-05
5.4324008e-05
5.7337942e-05
6.299684e-05
8.056211e-05
9.6113244e-05
0.00010861802
0.00012047118
0.00013104503
0.00014090363
0.00014986454
0.00015816096
0.00016575435
0.00017274732
0.00017913672
0.00018497889
0.0001902858
0.00019509215
0.0001994124
0.00020327055
0.00020668019
0.00020965951
0.00021222371
0.00021438739
0.00021616566
0.00021757553
0.00021863433
0.00021937003
0.00021976926
0.00021981974
0.00021958893
0.00021917372
0.00021849309
0.00021756633
0.00021642987
0.00021510117
0.00021359869
0.000211938
0.00021013574
0.00020820828
0.00020616882
0.00020403098
0.00020180624
0.00019950705
0.00019713919
0.00019472414
0.00019224678
0.00018972707
0.0001871678
0.00018458305
0.00018199018
0.00017940417
0.00017683273
0.00017427749
0.00017173997
0.00016922011
0.00016671582
0.00016422714
0.00016175488
0.00015929951
0.00015686193
0.00015444355
0.00015204465
0.00014966596
0.00014730863
0.00014497262
0.00014265834
0.00014036646
0.00013809661
0.00013584904
0.00013362374
0.00013142018
0.00012923852
0.00012707798
0.00012493796
0.00012281819
0.00012071758
0.0001186351
0.0001165701
0.00011452111
0.00011248679
0.00011046596
0.0001084569
0.00010645775
0.00010446695
0.00010248225
0.0001005014
9.8522166e-05
9.6542004e-05
9.455756e-05
9.2566584e-05
9.0564463e-05
8.854966e-05
8.6515802e-05
8.4461394e-05
8.2373585e-05
8.0253682e-05
7.8084383e-05
7.5875216e-05
7.3593848e-05
7.1270963e-05
6.8840798e-05
6.6369182e-05
6.3724075e-05
6.1058763e-05
5.8090409e-05
5.517892e-05
5.1658705e-05
4.8409802e-05
4.3574234e-05
3.8448216e-05
3.9702265e-05
4.410922e-05
4.8760532e-05
5.3320306e-05
5.7674569e-05
6.1771794e-05
6.5833127e-05
6.9841095e-05
7.3887997e-05
7.8025412e-05
8.2605961e-05
8.785726e-05
9.3360009e-05
9.9048263e-05
0.00010496634
0.00011111151
0.00011740069
0.00012370627
0.00013026375
0.00013548912
0.00013907775
0.00014121029
0.0001440024
0.00014665158
0.00014923917
0.00015193106
0.00015499668
0.00015874537
0.0001634266
0.00017185431
0.00018613787
0.00019957508
0.00021561904
0.00023647964
0.0002639067
0.00030028733
0.00034804671
0.00041457592
0.00052677149
0.00063660101
0.00053775405
0.00041477351
0.00023755964
0.00018551407
0.00014351452
0.00017288456
0.00059178285
0.00088500949
0.00086508671
0.00072196955
0.00044808515
0.00022456037
7.4868776e-05
3.7220946e-05
6.7427118e-05
8.8313036e-05
8.1343337e-05
7.0798374e-05
6.0720512e-05
5.324435e-05
4.8141678e-05
4.4304542e-05
4.1146887e-05
3.8306853e-05
3.6102254e-05
3.3805576e-05
3.1529098e-05
2.9480207e-05
2.776971e-05
2.6539309e-05
2.5899477e-05
2.5950195e-05
2.6640459e-05
2.7574217e-05
2.8814915e-05
3.0592342e-05
3.2931922e-05
3.5884713e-05
3.945107e-05
4.361238e-05
4.8338414e-05
5.3635533e-05
5.9651468e-05
6.6525364e-05
7.4127492e-05
8.2298096e-05
9.0917548e-05
9.9751801e-05
0.00010854322
0.0001168553
0.00012450866
0.00013149063
0.00014441676
0.00018462533
0.00021983617
0.00024825321
0.0002751753
0.00029918629
0.00032157011
0.00034191417
0.00036075034
0.00037799209
0.00039387309
0.00040838646
0.0004216608
0.00043372328
0.00044465296
0.00045448248
0.00046326632
0.00047103513
0.00047782996
0.00048368502
0.00048863314
0.00049270822
0.00049594851
0.00049839285
0.00050010242
0.0005010547
0.0005012098
0.00050072629
0.00049982362
0.00049831758
0.00049625119
0.00049370691
0.0004907242
0.00048734473
0.00048360379
0.00047953896
0.00047518736
0.00047057891
0.00046574448
0.0004607101
0.00045550405
0.00045013941
0.00044466481
0.00043904606
0.00043332834
0.00042751813
0.00042164755
0.00041575596
0.00040987735
0.00040402932
0.00039821576
0.00039244036
0.00038670316
0.00038099978
0.00037533066
0.00036969785
0.0003641026
0.0003585471
0.00035303468
0.00034756604
0.00034214292
0.00033676796
0.00033144114
0.00032616344
0.00032093637
0.00031575914
0.00031063235
0.00030555599
0.00030052892
0.00029555148
0.00029062195
0.00028573899
0.00028090197
0.00027610847
0.00027135617
0.00026664354
0.00026196731
0.00025732444
0.00025271224
0.00024812678
0.00024356388
0.00023901995
0.00023448991
0.0002299686
0.00022545096
0.00022093118
0.00021640162
0.00021185715
0.00020728725
0.00020268836
0.00019804605
0.00019335688
0.00018859154
0.00018375298
0.00017880167
0.00017375926
0.00016855195
0.00016324981
0.00015770256
0.00015206051
0.00014602193
0.00013993705
0.00013315926
0.00012651151
0.00011847146
0.00011105374
0.00010002043
8.83169e-05
9.1176249e-05
0.00010124886
0.00011190101
0.00012234177
0.00013231611
0.00014170339
0.00015101033
0.00016019444
0.00016946889
0.00017895256
0.000189448
0.00020146074
0.00021403875
0.00022703783
0.0002405556
0.00025458255
0.0002689257
0.00028330007
0.00029822331
0.0003100893
0.00031823713
0.00032310718
0.00032948285
0.00033551735
0.00034141457
0.00034754826
0.00035453284
0.00036306583
0.00037373114
0.00039291931
0.00042513866
0.00045552847
0.00049166711
0.00053856111
0.00059996178
0.00068092794
0.00078637178
0.00093242439
0.0011784424
0.0014202951
0.0012048303
0.0009382028
0.00054112357
0.00042537002
0.00032942137
0.00039660171
0.0011734092
0.0017483065
0.0017028645
0.0014323229
0.00089713229
0.00045495911
0.00015282964
7.5115046e-05
0.0001349768
0.00017732814
0.00016374109
0.000142637
0.00012238828
0.00010732599
9.7038939e-05
8.9298881e-05
8.2956039e-05
7.7234261e-05
7.2789325e-05
6.8165339e-05
6.3578185e-05
5.9444795e-05
5.5989426e-05
5.3496994e-05
5.2189819e-05
5.2268901e-05
5.3643935e-05
5.5513342e-05
5.7996113e-05
6.1554797e-05
6.6241196e-05
7.2158028e-05
7.9306017e-05
8.7647555e-05
9.71221e-05
0.00010774052
0.00011979212
0.00013355195
0.00014876307
0.00016510614
0.00018233999
0.000200004
0.00021758433
0.00023423712
0.00024960747
0.00026377834
0.00028943218
0.00036975083
0.00043873718
0.00049472125
0.00054768213
0.00059488312
0.00063885812
0.00067881164
0.0007157958
0.0007496483
0.00078083174
0.0008093373
0.00083542032
0.00085913594
0.00088064063
0.0008999991
0.00091731855
0.000932659
0.0009461005
0.00095770946
0.00096754934
0.00097568547
0.00098219153
0.00098714208
0.00099064958
0.00099269355
0.0009931605
0.00099237456
0.0009907654
0.00098797112
0.00098407311
0.00097923181
0.00097352377
0.00096702967
0.00095981798
0.00095196177
0.00094353313
0.00093459037
0.00092519347
0.00091539321
0.00090524468
0.00089477331
0.00088407327
0.00087307866
0.00086187706
0.00085048185
0.00083895653
0.0008273786
0.00081581506
0.00080430104
0.00079284532
0.00078145581
0.0007701335
0.00075887119
0.0007476709
0.0007365374
0.00072547398
0.00071448556
0.00070357905
0.00069275631
0.00068202105
0.00067137866
0.00066082933
0.00065037519
0.00064001929
0.00062976028
0.00061959938
0.0006095367
0.00059957017
0.00058970044
0.00057992428
0.00057023915
0.00056064382
0.0005511336
0.00054170407
0.00053235216
0.00052307154
0.00051385626
0.00050470099
0.00049559806
0.00048653924
0.00047751741
0.00046852256
0.00045954454
0.00045057326
0.00044159729
0.00043260145
0.00042357555
0.00041449872
0.00040536373
0.00039614202
0.00038682675
0.0003773598
0.00036774692
0.00035790936
0.00034788973
0.0003375414
0.00032700334
0.00031597646
0.00030475915
0.00029275078
0.00028064772
0.00026716166
0.00025393162
0.00023792124
0.00022315237
0.00020120002
0.00017785083
0.00018352535
0.0002036081
0.00022491057
0.0002457814
0.00026573448
0.00028451641
0.0003031435
0.0003215234
0.00034008771
0.00035907277
0.00038006743
0.00040404444
0.00042912624
0.00045503533
0.00048195277
0.00050985015
0.00053833452
0.00056685436
0.00059639326
0.00061981496
0.0006358984
0.00064557334
0.00065822849
0.00067017238
0.00068185149
0.00069399185
0.0007078096
0.00072466417
0.00074572531
0.00078358354
0.00084629613
0.00090573548
0.00097578848
0.0010662852
0.0011837943
0.0013369336
0.0015330506
0.001800775
0.0022496421
0.0026948001
0.0023063194
0.0018264798
0.0010684567
0.00085016463
0.00066087904
0.00079538272
0.0020915651
0.0030849656
0.0029927364
0.0025466286
0.0016210617
0.00083867174
0.00028540249
0.00013862096
0.00024618877
0.00032437267
0.00030038087
0.00026194403
0.00022490191
0.00019725848
0.00017836106
0.00016412071
0.00015252151
0.00014201646
0.00013384786
0.00012536288
0.00011693754
0.00010933514
0.00010296976
9.8363323e-05
9.5923298e-05
9.6015338e-05
9.8502758e-05
0.00010190337
0.00010641707
0.00011289214
0.00012142253
0.00013219478
0.00014520771
0.00016038948
0.00017762757
0.00019693586
0.00021882218
0.00024377116
0.00027131597
0.00030087543
0.00033200636
0.00036389334
0.00039561452
0.00042572292
0.00045360118
0.00047964819
0.0005254838
0.00066966368
0.00079021212
0.0008886301
0.00098143824
0.0010640189
0.0011408319
0.0012105532
0.0012750403
0.0013340447
0.0013883844
0.0014380649
0.0014835408
0.0015249181
0.0015624745
0.0015963277
0.0016266666
0.0016535977
0.00167726
0.0016977687
0.0017152326
0.0017297631
0.0017414851
0.0017505245
0.0017570585
0.0017611052
0.0017623941
0.001761503
0.0017591829
0.0017548036
0.001748498
0.0017405402
0.0017310599
0.0017201938
0.0017080579
0.0016947762
0.0016804711
0.0016652418
0.0016491902
0.0016324028
0.0016149733
0.0015969457
0.0015784771
0.0015594601
0.0015400416
0.0015202475
0.0015001899
0.0014800048
0.0014598101
0.0014396695
0.0014196009
0.0013996202
0.0013797319
0.0013599274
0.0013402133
0.0013206001
0.0013010958
0.0012817109
0.0012624587
0.0012433437
0.0012243736
0.0012055585
0.0011868994
0.0011684008
0.0011500683
0.0011319001
0.0011138988
0.0010960649
0.0010783951
0.0010608908
0.0010435468
0.0010263588
0.0010093247
0.00099243678
0.00097568743
0.00095907132
0.00094257756
0.00092619591
0.00090991697
0.00089372738
0.00087761282
0.00086156065
0.00084555328
0.00082957287
0.00081360144
0.00079761877
0.00078159797
0.00076552075
0.00074935002
0.00073307243
0.00071663711
0.00070003177
0.00068315313
0.00066601082
0.00064846388
0.00063058668
0.00061211771
0.00059330334
0.0005736088
0.00055356421
0.00053209517
0.00051044337
0.0004862998
0.0004625979
0.00043388215
0.00040738354
0.00036802005
0.00032588958
0.00033603785
0.00037217624
0.00041066958
0.00044835183
0.00048441692
0.00051837337
0.0005520684
0.00058531803
0.00061891472
0.00065327647
0.00069122688
0.00073443586
0.00077957987
0.00082616859
0.00087448843
0.00092446293
0.00097536618
0.0010262434
0.0010787549
0.0011202333
0.0011487514
0.0011660381
0.0011886049
0.001209844
0.0012306358
0.0012522342
0.0012767923
0.0013066771
0.0013439319
0.0014107757
0.0015192662
0.0016229505
0.0017431521
0.0018971975
0.002094422
0.0023464066
0.0026600962
0.0030774319
0.0037714211
0.0044671609
0.0038813889
0.0031499664
0.0018855087
0.0015287804
0.0011985015
0.0014416351
0.0034020797
0.0049215754
0.0047588419
0.0041124895
0.0026854086
0.0014334031
0.00049870254
0.00023983448
0.00041875388
0.00055296296
0.00051378226
0.0004486619
0.00038558328
0.0003383212
0.00030596516
0.00028151064
0.00026175887
0.00024377476
0.00022977228
0.00021525078
0.00020081595
0.0001877693
0.00017682441
0.00016887243
0.00016460912
0.00016464785
0.00016881788
0.00017455736
0.00018216935
0.00019310313
0.00020751127
0.00022570385
0.00024766701
0.00027326477
0.00030229427
0.00033475969
0.00037146892
0.00041318921
0.00045911987
0.00050827478
0.00055989612
0.00061266369
0.00066507452
0.0007149087
0.00076124132
0.00080524073
0.00088036734
0.0011154254
0.0013056565
0.0014617485
0.0016081359
0.0017380298
0.0018584926
0.00196764
0.0020684249
0.0021605568
0.0022453384
0.0023228369
0.0023937842
0.0024583751
0.0025170573
0.00257003
0.0026175958
0.0026599282
0.002697247
0.0027297331
0.0027575554
0.002780885
0.0027999117
0.0028148247
0.0028258679
0.0028331537
0.0028361733
0.0028357906
0.0028332066
0.0028274393
0.0028186764
0.0028073314
0.0027935978
0.0027776784
0.0027597455
0.0027399838
0.0027185749
0.0026956668
0.0026714109
0.0026459363
0.0026193831
0.0025918195
0.0025634678
0.0025341883
0.0025041894
0.00247352
0.0024423574
0.0024109152
0.0023793805
0.0023478567
0.0023163754
0.0022849659
0.0022536418
0.0022223975
0.0021912494
0.0021602186
0.0021293223
0.0020985808
0.0020680175
0.0020376431
0.0020074719
0.001977521
0.0019477946
0.0019183011
0.0018890502
0.0018600407
0.0018312774
0.0018027621
0.001774491
0.0017464662
0.0017186807
0.0016911287
0.0016638071
0.0016367044
0.0016098095
0.0015831139
0.0015566011
0.0015302555
0.0015040621
0.0014780002
0.0014520474
0.0014261835
0.0014003808
0.0013746109
0.0013488449
0.0013230503
0.0012971842
0.0012712165
0.0012450877
0.0012187747
0.0011921957
0.0011653297
0.0011380107
0.0011102519
0.0010818242
0.001052843
0.0010228851
0.00099234381
0.00096035057
0.00092775578
0.00089281225
0.00085752583
0.0008181282
0.00077939111
0.00073236891
0.00068891973
0.0006244065
0.00055453442
0.00057116803
0.00063079188
0.00069463674
0.00075705678
0.00081689224
0.00087326211
0.0009292553
0.00098453682
0.0010404443
0.001097644
0.0011606959
0.0012321825
0.0013067453
0.0013835686
0.0014630297
0.001544943
0.001628075
0.0017109261
0.0017959994
0.0018628568
0.0019090706
0.0019373665
0.0019741372
0.0020086903
0.0020425951
0.0020778077
0.0021177792
0.0021662656
0.0022263439
0.0023336995
0.002502684
0.0026665455
0.002851474
0.0030856748
0.0033794598
0.00374433
0.0041808152
0.0047411085
0.0056652177
0.0065942236
0.0058548113
0.0048950354
0.0030211891
0.0025102954
0.0019968774
0.0023972169
0.005089075
0.0071533313
0.0069066198
0.0060766618
0.0041075851
0.0022906878
0.00082556675
0.00039553437
0.00067399267
0.00089058403
0.00083072927
0.00072681379
0.00062554274
0.00054927479
0.00049694096
0.00045718804
0.00042544036
0.00039632804
0.00037361829
0.0003501092
0.00032671286
0.00030552314
0.00028770364
0.0002746918
0.00026761012
0.00026741464
0.00027395602
0.0002830428
0.00029508026
0.00031240512
0.00033523581
0.00036404413
0.00039876935
0.0004391494
0.00048481886
0.00053572953
0.00059304428
0.00065784788
0.00072882471
0.00080439971
0.00088336383
0.00096375834
0.0010433698
0.0011191718
0.0011900498
0.0012587504
0.0013727318
0.0017218116
0.0019941968
0.0022186532
0.0024275694
0.0026123154
0.0027829549
0.0029372201
0.0030793357
0.0032090784
0.003328319
0.0034372611
0.0035369697
0.0036277747
0.0037103292
0.0037849444
0.0038520603
0.0039119378
0.0039648928
0.0040111864
0.004051058
0.0040847474
0.0041125164
0.0041346238
0.0041513736
0.0041629984
0.0041687887
0.0041697479
0.0041676867
0.0041612179
0.0041505736
0.0041363116
0.0041186891
0.0040979736
0.0040743926
0.0040481895
0.004019604
0.003988831
0.0039560702
0.0039214929
0.0038852832
0.003847541
0.0038085273
0.0037681102
0.0037265366
0.0036838916
0.0036404273
0.003596444
0.0035522107
0.0035078697
0.0034634698
0.0034190597
0.0033746672
0.0033302966
0.00328598
0.0032417533
0.0031976478
0.0031536981
0.0031099412
0.0030663974
0.003023091
0.0029800487
0.0029372801
0.0028948
0.0028526237
0.0028107524
0.0027691943
0.0027279539
0.0026870278
0.0026464198
0.0026061218
0.0025661272
0.0025264321
0.0024870216
0.0024478812
0.0024089992
0.0023703533
0.0023319221
0.0022936842
0.002255611
0.002217671
0.0021798348
0.0021420632
0.0021043153
0.002066549
0.0020287173
0.0019907575
0.0019526251
0.0019142327
0.0018755443
0.0018364402
0.001796887
0.0017566421
0.0017157201
0.0016737823
0.0016309863
0.0015867111
0.001541521
0.0014941341
0.0014457799
0.0013938752
0.0013413522
0.0012826085
0.0012246975
0.0011542157
0.0010889163
0.00099204475
0.00088500666
0.00091010609
0.0010006722
0.0010982826
0.0011935815
0.0012851482
0.0013715418
0.001457522
0.0015425402
0.0016286713
0.0017168762
0.0018138547
0.001923204
0.002037021
0.0021540138
0.0022745626
0.0023982666
0.0025231964
0.0026472071
0.0027736183
0.0028723787
0.0029415913
0.0029846292
0.0030398998
0.0030919185
0.0031431764
0.0031964534
0.0032567808
0.0033296797
0.0034189639
0.0035772879
0.0038157755
0.0040530504
0.004310409
0.0046316001
0.0050243195
0.0054953724
0.0060325387
0.0066938501
0.0077798339
0.0088482966
0.0080626883
0.006956709
0.0044446061
0.0037940111
0.0030799748
0.0036791567
0.0070581836
0.0095799413
0.00925623
0.0082919735
0.0058339005
0.0034340479
0.0013020776
0.00062874014
0.0010359475
0.0013658339
0.0012798238
0.0011226745
0.00096839557
0.00085142301
0.00077086816
0.00070919229
0.00066064881
0.00061572094
0.00058057477
0.00054426986
0.00050809423
0.00047524765
0.00044753873
0.00042717456
0.00041587947
0.00041503955
0.00042465725
0.00043820459
0.00045612365
0.00048199228
0.00051607343
0.00055901645
0.00061063011
0.00067040546
0.00073768481
0.00081227259
0.0008956745
0.0009892449
0.0010909254
0.0011983668
0.0013098006
0.0014225945
0.0015338564
0.001639985
0.0017400959
0.0018397504
0.0020010649
0.0024751284
0.0028317412
0.0031271178
0.0033997857
0.0036402317
0.0038613971
0.0040609528
0.0042443645
0.0044115888
0.0045650663
0.0047052058
0.0048334104
0.0049501789
0.0050563761
0.0051524441
0.0052389659
0.0053163008
0.0053848652
0.0054450058
0.0054970359
0.0055412666
0.0055780314
0.0056076583
0.0056305122
0.0056468978
0.0056560715
0.005658952
0.0056580265
0.0056515396
0.0056397402
0.0056233177
0.005602586
0.0055778689
0.0055494412
0.0055175972
0.0054826252
0.0054447604
0.0054042448
0.0053612857
0.0053161034
0.0052688328
0.0052197428
0.0051687487
0.005116108
0.0050619524
0.005006607
0.0049504632
0.0048938615
0.004836971
0.0047798597
0.0047225971
0.0046652286
0.0046077735
0.0045502821
0.0044928069
0.004435396
0.0043780999
0.0043209704
0.00426404
0.0042073444
0.0041509208
0.0040947865
0.0040389639
0.0039834747
0.0039283244
0.0038735253
0.0038190859
0.0037650046
0.003711287
0.0036579255
0.0036049135
0.0035522466
0.0034999081
0.0034478805
0.0033961493
0.0033446874
0.0032934681
0.0032424638
0.0031916387
0.0031409523
0.0030903662
0.0030398296
0.0029892893
0.0029386893
0.0028879676
0.0028370412
0.0027858496
0.0027342767
0.0026822702
0.0026296724