/*--------------------------------*- C++ -*----------------------------------*\
| =========                 |                                                 |
| \\      /  F ield         | OpenFOAM: The Open Source CFD Toolbox           |
|  \\    /   O peration     | Version:  2.4.0                                 |
|   \\  /    A nd           | Web:      www.OpenFOAM.org                      |
|    \\/     M anipulation  |                                                 |
\*---------------------------------------------------------------------------*/
FoamFile
{
    version     2.0;
    format      ascii;
    class       surfaceScalarField;
    location    "6401";
    object      phi;
}
// * * * * * * * * * * * * * * * * * * * * * * * * * * * * * * * * * * * * * //

dimensions      [0 3 -1 0 0 0 0];

internalField   nonuniform List<scalar> 
63640
(
8.8983763e-07
-2.5657855e-07
1.2287828e-06
-3.387824e-07
1.2983452e-06
-6.9374083e-08
1.1127996e-06
1.8558096e-07
6.5042742e-07
4.6248157e-07
8.6409348e-08
5.6402447e-07
-3.4220821e-07
4.2862455e-07
-5.099138e-07
1.6770725e-07
-5.0230046e-07
-7.6095279e-09
-4.7574541e-07
-2.6545989e-08
-4.419855e-07
-3.3762407e-08
-4.0791814e-07
-3.4070199e-08
-3.8211785e-07
-2.5800828e-08
-3.6269559e-07
-1.9425487e-08
-3.473092e-07
-1.5399508e-08
-3.3365161e-07
-1.3648017e-08
-3.2239806e-07
-1.127232e-08
-3.152713e-07
-7.1117303e-09
-3.1118329e-07
-4.098853e-09
-3.0898379e-07
-2.1862147e-09
-3.0952597e-07
5.394408e-10
-3.1302432e-07
3.4982587e-09
-3.2019251e-07
7.167628e-09
-3.3148328e-07
1.1291283e-08
-3.4707742e-07
1.5593819e-08
-3.6639819e-07
1.9321441e-08
-3.8724461e-07
2.0846376e-08
-4.087534e-07
2.1509626e-08
-4.3161571e-07
2.2862702e-08
-4.5561399e-07
2.3999055e-08
-4.8006183e-07
2.4448326e-08
-5.0405723e-07
2.3995682e-08
-5.2659401e-07
2.2537639e-08
-5.4672059e-07
2.0124821e-08
-5.6453176e-07
1.7811874e-08
-5.8200612e-07
1.7472909e-08
-6.0040922e-07
1.8403877e-08
-6.1726012e-07
1.6849366e-08
-6.3112241e-07
1.3863337e-08
-6.4135383e-07
1.0229615e-08
-6.4758864e-07
6.2357706e-09
-6.496542e-07
2.0638082e-09
-6.4884705e-07
-8.065861e-10
-6.4745193e-07
-1.3966686e-09
-6.5306219e-07
5.6110488e-09
-6.9923595e-07
4.6172335e-08
-8.3968005e-07
1.4044343e-07
-9.516083e-07
1.1192623e-07
-1.0269747e-06
7.5367738e-08
-1.0790948e-06
5.2118857e-08
-1.1165563e-06
3.7467422e-08
-1.1415305e-06
2.4973426e-08
-1.1578685e-06
1.6340786e-08
-1.1665034e-06
8.6303759e-09
-1.1694333e-06
2.928588e-09
-1.1671687e-06
-2.2689204e-09
-1.1607027e-06
-6.4653781e-09
-1.1504355e-06
-1.0269908e-08
-1.1370005e-06
-1.3435348e-08
-1.1207069e-06
-1.6294119e-08
-1.1019582e-06
-1.8750295e-08
-1.0809948e-06
-2.0962476e-08
-1.0580962e-06
-2.2901279e-08
-1.0334572e-06
-2.4637706e-08
-1.0072882e-06
-2.6171907e-08
-9.7975371e-07
-2.7533192e-08
-9.5102277e-07
-2.8732827e-08
-9.2124241e-07
-2.9779635e-08
-8.9055811e-07
-3.0684534e-08
-8.5910309e-07
-3.1452209e-08
-8.2700103e-07
-3.2101725e-08
-7.9436196e-07
-3.263585e-08
-7.6130489e-07
-3.3057598e-08
-7.279476e-07
-3.3355242e-08
-6.9437807e-07
-3.3570878e-08
-6.6067405e-07
-3.3702522e-08
-6.2692383e-07
-3.3753522e-08
-5.9320616e-07
-3.3717349e-08
-5.5959352e-07
-3.3612751e-08
-5.2614774e-07
-3.3443195e-08
-4.9292889e-07
-3.3220719e-08
-4.5998775e-07
-3.2941186e-08
-4.2737688e-07
-3.261093e-08
-3.9513661e-07
-3.2238812e-08
-3.6330022e-07
-3.1835603e-08
-3.3191098e-07
-3.1387982e-08
-3.0099362e-07
-3.0917129e-08
-2.7057022e-07
-3.0423165e-08
-2.4066708e-07
-2.9902948e-08
-2.1129108e-07
-2.9375723e-08
-1.8246747e-07
-2.8823609e-08
-1.5422914e-07
-2.8238445e-08
-1.2662589e-07
-2.7603429e-08
-9.9704491e-08
-2.6920507e-08
-7.3480705e-08
-2.622367e-08
-4.794931e-08
-2.5531072e-08
-2.3113773e-08
-2.4836536e-08
1.0400484e-09
-2.415297e-08
2.4538156e-08
-2.3498637e-08
4.7387062e-08
-2.2848851e-08
6.9594166e-08
-2.2208101e-08
9.1171008e-08
-2.1576677e-08
1.1211571e-07
-2.0945238e-08
1.3243433e-07
-2.0317833e-08
1.5213855e-07
-1.9704895e-08
1.7122738e-07
-1.9088165e-08
1.8970636e-07
-1.8479354e-08
2.0758733e-07
-1.7880828e-08
2.2486914e-07
-1.7282177e-08
2.4155667e-07
-1.6687596e-08
2.5765973e-07
-1.6103842e-08
2.7317698e-07
-1.55179e-08
2.8811647e-07
-1.4940572e-08
3.0247851e-07
-1.4362095e-08
3.1626371e-07
-1.3785748e-08
3.2948021e-07
-1.3216967e-08
3.4212438e-07
-1.2644412e-08
3.5419558e-07
-1.2071927e-08
3.6569879e-07
-1.1504022e-08
3.7662856e-07
-1.0929791e-08
3.8698094e-07
-1.0352934e-08
3.9675719e-07
-9.7765822e-09
4.059485e-07
-9.1917473e-09
4.1454691e-07
-8.5982664e-09
4.2254855e-07
-8.0025221e-09
4.2993983e-07
-7.3914183e-09
4.3670711e-07
-6.7679008e-09
4.4283898e-07
-6.1321731e-09
4.4831565e-07
-5.4769392e-09
4.5311419e-07
-4.7983548e-09
4.5721439e-07
-4.101017e-09
4.6058392e-07
-3.369004e-09
4.631913e-07
-2.6077736e-09
4.6499599e-07
-1.8045168e-09
4.6595741e-07
-9.6330796e-10
4.6602806e-07
-7.121369e-11
4.6516849e-07
8.57975e-10
4.6328394e-07
1.8845757e-09
4.602964e-07
2.9868156e-09
4.5606007e-07
4.2366888e-09
4.5050757e-07
5.550928e-09
4.4344497e-07
7.0627886e-09
4.3481968e-07
8.6241433e-09
4.2427939e-07
1.0541397e-08
4.1182884e-07
1.2449493e-08
3.9685125e-07
1.4977885e-08
3.795055e-07
1.7342671e-08
3.5861862e-07
2.0886941e-08
3.3471207e-07
2.3904825e-08
3.0543883e-07
2.9273794e-08
2.7191436e-07
3.3522548e-08
2.2884648e-07
4.3067793e-08
1.7762946e-07
5.1213746e-08
1.0383895e-07
7.3789537e-08
8.1330571e-08
2.2505651e-08
8.1527136e-08
-1.9721466e-10
9.4057153e-08
-1.2531987e-08
1.1288498e-07
-1.8828576e-08
1.3742653e-07
-2.4543404e-08
1.6455078e-07
-2.7125139e-08
1.9549569e-07
-3.0946205e-08
2.2907207e-07
-3.3577464e-08
2.6584427e-07
-3.6773246e-08
3.0590205e-07
-4.0059583e-08
3.5150913e-07
-4.5608233e-08
4.0398136e-07
-5.2475203e-08
4.6054422e-07
-5.6564499e-08
5.1989691e-07
-5.935761e-08
5.8198055e-07
-6.2085812e-08
6.4644206e-07
-6.4463793e-08
7.1308336e-07
-6.6643363e-08
7.8074322e-07
-6.7661123e-08
8.4753665e-07
-6.6795531e-08
9.0732098e-07
-5.9784323e-08
9.5831315e-07
-5.0997031e-08
1.002123e-06
-4.381256e-08
1.0466637e-06
-4.4543339e-08
1.0903437e-06
-4.3678061e-08
1.1347028e-06
-4.4359742e-08
1.1819266e-06
-4.7221009e-08
1.2345687e-06
-5.2648566e-08
1.2969007e-06
-6.2323976e-08
1.377508e-06
-8.0611955e-08
1.49339e-06
-1.1588039e-07
1.6377016e-06
-1.4431304e-07
1.8060994e-06
-1.6840343e-07
2.0031489e-06
-1.9703162e-07
2.2368438e-06
-2.3367747e-07
2.5162915e-06
-2.7941318e-07
2.8484651e-06
-3.3215488e-07
3.222485e-06
-3.7399093e-07
3.5816175e-06
-3.5910221e-07
3.8298558e-06
-2.4819119e-07
3.6903489e-06
1.3950788e-07
3.1664625e-06
5.2389567e-07
2.3703584e-06
7.9610867e-07
1.6289546e-06
7.4136942e-07
1.0226754e-06
6.0626176e-07
7.2604457e-07
2.9666361e-07
9.2523807e-08
3.0564914e-06
-1.022853e-06
3.9088678e-06
-1.1910132e-06
4.2807729e-06
-4.4105318e-07
3.6197121e-06
8.4668763e-07
2.230804e-06
1.8515341e-06
4.2708125e-07
2.3677464e-06
-9.7390114e-07
1.8296191e-06
-1.5711321e-06
7.6494435e-07
-1.5698537e-06
-8.8791538e-09
-1.4954459e-06
-1.0094455e-07
-1.3935946e-06
-1.3561922e-07
-1.2908623e-06
-1.3680517e-07
-1.2111921e-06
-1.0547131e-07
-1.1517958e-06
-7.8825945e-08
-1.1043217e-06
-6.2887416e-08
-1.0628217e-06
-5.5136638e-08
-1.0288576e-06
-4.5256673e-08
-1.0076543e-06
-2.8297192e-08
-9.9587111e-07
-1.5892537e-08
-9.9027708e-07
-7.765302e-09
-9.931359e-07
3.3948962e-09
-1.0054389e-06
1.5801883e-08
-1.0291943e-06
3.0922837e-08
-1.0658898e-06
4.7987787e-08
-1.1160199e-06
6.5723884e-08
-1.1776108e-06
8.091347e-08
-1.2440441e-06
8.728e-08
-1.3126762e-06
9.0143182e-08
-1.3854486e-06
9.5635913e-08
-1.4618046e-06
1.0035644e-07
-1.5395755e-06
1.0222003e-07
-1.6160325e-06
1.0045307e-07
-1.6880609e-06
9.4567005e-08
-1.752902e-06
8.4963647e-08
-1.8109186e-06
7.5829178e-08
-1.8681568e-06
7.4709383e-08
-1.9278665e-06
7.8114364e-08
-1.9831009e-06
7.2082132e-08
-2.0289251e-06
5.9688808e-08
-2.0639373e-06
4.5239767e-08
-2.0861265e-06
2.8426048e-08
-2.0967383e-06
1.2673653e-08
-2.0972376e-06
-3.0657511e-10
-2.1001427e-06
1.5066875e-09
-2.1222931e-06
2.7762319e-08
-2.2823802e-06
2.0625795e-07
-2.703119e-06
5.6118146e-07
-3.0530421e-06
4.6184712e-07
-3.2821914e-06
3.0451873e-07
-3.4440025e-06
2.1392881e-07
-3.5569085e-06
1.5038089e-07
-3.6330367e-06
1.0110148e-07
-3.6808338e-06
6.4141287e-08
-3.7055633e-06
3.3355104e-08
-3.7118704e-06
9.2341253e-09
-3.7023864e-06
-1.1757952e-08
-3.6794862e-06
-2.93646e-08
-3.6449019e-06
-4.4857178e-08
-3.6002828e-06
-5.8054651e-08
-3.5468166e-06
-6.9761015e-08
-3.4856114e-06
-7.995705e-08
-3.4175248e-06
-8.9047999e-08
-3.343359e-06
-9.7070046e-08
-3.2637753e-06
-1.0421981e-07
-3.1793983e-06
-1.1055197e-07
-3.0907693e-06
-1.1616062e-07
-2.9984021e-06
-1.2110174e-07
-2.9027697e-06
-1.2541113e-07
-2.8043219e-06
-1.2913223e-07
-2.7034809e-06
-1.3228966e-07
-2.6006324e-06
-1.3494941e-07
-2.4961245e-06
-1.3713974e-07
-2.3903288e-06
-1.3885353e-07
-2.2836131e-06
-1.4006839e-07
-2.1762559e-06
-1.4092948e-07
-2.0685019e-06
-1.4145481e-07
-1.9606265e-06
-1.4163278e-07
-1.852878e-06
-1.4146582e-07
-1.7454825e-06
-1.4100815e-07
-1.6386349e-06
-1.4028772e-07
-1.5325246e-06
-1.3933321e-07
-1.4273089e-06
-1.3815701e-07
-1.3231552e-06
-1.3676464e-07
-1.2201887e-06
-1.3520359e-07
-1.1185152e-06
-1.3350806e-07
-1.0182695e-06
-1.3163213e-07
-9.195311e-07
-1.2965526e-07
-8.2236855e-07
-1.2758546e-07
-7.268666e-07
-1.2540461e-07
-6.3305079e-07
-1.2319107e-07
-5.4100356e-07
-1.2087077e-07
-4.508342e-07
-1.184079e-07
-3.6269415e-07
-1.157436e-07
-2.7672948e-07
-1.12884e-07
-1.9298558e-07
-1.0996721e-07
-1.1144604e-07
-1.0707017e-07
-3.2121762e-08
-1.0416189e-07
4.5033228e-08
-1.0130685e-07
1.2010167e-07
-9.8567544e-08
1.9310436e-07
-9.5851436e-08
2.6406539e-07
-9.3170176e-08
3.3301967e-07
-9.0530705e-08
3.999615e-07
-8.7887526e-08
4.6491086e-07
-8.5266137e-08
5.2790322e-07
-8.2697882e-08
5.8893555e-07
-8.0119553e-08
6.4802664e-07
-7.7570662e-08
7.0521201e-07
-7.5065949e-08
7.6048829e-07
-7.255876e-08
8.1387221e-07
-7.0071524e-08
8.6539236e-07
-6.762486e-08
9.1504609e-07
-6.5172413e-08
9.6285816e-07
-6.2753911e-08
1.0088283e-06
-6.0332211e-08
1.0529607e-06
-5.7918697e-08
1.0952783e-06
-5.5535167e-08
1.1357706e-06
-5.3136873e-08
1.1744363e-06
-5.0738412e-08
1.2112892e-06
-4.8357878e-08
1.2463121e-06
-4.5952685e-08
1.2794937e-06
-4.353521e-08
1.3108361e-06
-4.111927e-08
1.3403114e-06
-3.8667551e-08
1.3678954e-06
-3.6182047e-08
1.3935737e-06
-3.3681823e-08
1.4173038e-06
-3.1121614e-08
1.4390424e-06
-2.8507299e-08
1.4587528e-06
-2.5842833e-08
1.4763706e-06
-2.3095077e-08
1.4918259e-06
-2.0253396e-08
1.5050498e-06
-1.7325846e-08
1.5159443e-06
-1.4262823e-08
1.5244031e-06
-1.1067047e-08
1.5303055e-06
-7.7068062e-09
1.5335095e-06
-4.1694789e-09
1.5338835e-06
-4.4605482e-10
1.5312736e-06
3.4659174e-09
1.525424e-06
7.7341332e-09
1.5160194e-06
1.2390593e-08
1.5026953e-06
1.7561103e-08
1.4850904e-06
2.3154071e-08
1.4627997e-06
2.9353527e-08
1.4353362e-06
3.6086433e-08
1.4020574e-06
4.3821339e-08
1.3622678e-06
5.2238001e-08
1.3150534e-06
6.2192397e-08
1.2593602e-06
7.303231e-08
1.1937589e-06
8.6488165e-08
1.1164894e-06
1.0117231e-07
1.0251198e-06
1.2064394e-07
9.1574576e-07
1.4289441e-07
7.8255697e-07
1.7625632e-07
6.1380677e-07
2.1996018e-07
3.899627e-07
2.9763225e-07
3.1132045e-07
1.0114474e-07
3.1436604e-07
-3.2437407e-09
3.5112916e-07
-4.9297426e-08
4.1201633e-07
-7.9716713e-08
4.8808472e-07
-1.0061404e-07
5.7443509e-07
-1.1347664e-07
6.713494e-07
-1.2786213e-07
7.7748891e-07
-1.3971831e-07
8.9301957e-07
-1.5230528e-07
1.0193034e-06
-1.6634555e-07
1.1627442e-06
-1.8905068e-07
1.32718e-06
-2.1691466e-07
1.5044782e-06
-2.3386544e-07
1.6906295e-06
-2.4551514e-07
1.8852344e-06
-2.5669371e-07
2.0874721e-06
-2.6670459e-07
2.2962289e-06
-2.7540314e-07
2.508602e-06
-2.8003674e-07
2.7176109e-06
-2.7580823e-07
2.906055e-06
-2.4822948e-07
3.0669742e-06
-2.1192346e-07
3.2068622e-06
-1.8370557e-07
3.3469153e-06
-1.8460153e-07
3.4848611e-06
-1.816235e-07
3.6242851e-06
-1.837863e-07
3.7721292e-06
-1.9506369e-07
3.9366746e-06
-2.1720246e-07
4.1301201e-06
-2.5576357e-07
4.3810219e-06
-3.3152313e-07
4.7362737e-06
-4.7113375e-07
5.1807143e-06
-5.8876113e-07
5.7010432e-06
-6.8873992e-07
6.3105773e-06
-8.0654785e-07
7.0347684e-06
-9.578487e-07
7.8988954e-06
-1.1434999e-06
8.9293676e-06
-1.3626012e-06
1.0082469e-05
-1.5270537e-06
1.1216533e-05
-1.493128e-06
1.1998737e-05
-1.0303353e-06
1.1666015e-05
4.7223954e-07
1.0091104e-05
2.0988186e-06
7.7354059e-06
3.1518101e-06
5.3676762e-06
3.1090557e-06
3.5735934e-06
2.4003315e-06
2.4200598e-06
1.4502415e-06
2.2198958e-07
5.7523635e-06
-2.3210086e-06
7.0891772e-06
-2.5276082e-06
7.8288456e-06
-1.1804934e-06
6.6258903e-06
2.0496815e-06
4.2199535e-06
4.2576254e-06
1.0009674e-06
5.5867392e-06
-1.5716299e-06
4.4022315e-06
-2.7306721e-06
1.9239833e-06
-2.7688767e-06
2.932741e-08
-2.6515827e-06
-2.18226e-07
-2.4787176e-06
-3.0848589e-07
-2.3025903e-06
-3.1293663e-07
-2.1639131e-06
-2.4414932e-07
-2.0606915e-06
-1.8205153e-07
-1.9778196e-06
-1.4577479e-07
-1.9058797e-06
-1.2706676e-07
-1.8472498e-06
-1.0390828e-07
-1.8110032e-06
-6.452807e-08
-1.7914095e-06
-3.5498841e-08
-1.7830669e-06
-1.6093108e-08
-1.7896288e-06
9.9530759e-09
-1.8130886e-06
3.9261068e-08
-1.8568095e-06
7.4642582e-08
-1.9234485e-06
1.1462715e-07
-2.0137902e-06
1.5606492e-07
-2.1241982e-06
1.9132207e-07
-2.2432387e-06
2.0632023e-07
-2.3662771e-06
2.1318242e-07
-2.496503e-06
2.2586202e-07
-2.6330416e-06
2.3689582e-07
-2.7720543e-06
2.412333e-07
-2.9088211e-06
2.3722021e-07
-3.0379317e-06
2.2367847e-07
-3.1547665e-06
2.0179657e-07
-3.2600998e-06
1.8116321e-07
-3.3643319e-06
1.7893972e-07
-3.4725596e-06
1.8634288e-07
-3.5732769e-06
1.7279756e-07
-3.657595e-06
1.4400801e-07
-3.7234425e-06
1.1108517e-07
-3.766879e-06
7.1863427e-08
-3.7913233e-06
3.7115951e-08
-3.798058e-06
6.4285781e-09
-3.8127556e-06
1.6202514e-08
-3.8624341e-06
7.7441568e-08
-4.1603016e-06
5.0412367e-07
-4.8811465e-06
1.2820255e-06
-5.4910782e-06
1.0717764e-06
-5.8866128e-06
7.0005482e-07
-6.167355e-06
4.9466961e-07
-6.3603433e-06
3.4337612e-07
-6.4902517e-06
2.3100922e-07
-6.569563e-06
1.4345545e-07
-6.6090467e-06
7.2833626e-08
-6.6157867e-06
1.5972228e-08
-6.5950656e-06
-3.2484318e-08
-6.5505745e-06
-7.3855086e-08
-6.48568e-06
-1.097548e-07
-6.4030586e-06
-1.4067651e-07
-6.3049432e-06
-1.6787703e-07
-6.1931797e-06
-1.9172241e-07
-6.0693466e-06
-2.1288011e-07
-5.9348075e-06
-2.316122e-07
-5.7907619e-06
-2.4826398e-07
-5.6382873e-06
-2.6303001e-07
-5.4783555e-06
-2.7609105e-07
-5.3118623e-06
-2.8759719e-07
-5.13965e-06
-2.9762273e-07
-4.9625077e-06
-3.0627469e-07
-4.7811836e-06
-3.1361047e-07
-4.5963561e-06
-3.1977639e-07
-4.4086421e-06
-3.2484987e-07
-4.2186951e-06
-3.2880119e-07
-4.0271619e-06
-3.3159913e-07
-3.8345363e-06
-3.3355659e-07
-3.6412509e-06
-3.3473859e-07
-3.4477903e-06
-3.3509724e-07
-3.2545927e-06
-3.3466323e-07
-3.0620565e-06
-3.3354434e-07
-2.870526e-06
-3.3181514e-07
-2.6803362e-06
-3.2952526e-07
-2.4917629e-06
-3.2673045e-07
-2.3051034e-06
-3.2342413e-07
-2.120578e-06
-3.1972725e-07
-1.9383743e-06
-3.1571076e-07
-1.7587299e-06
-3.1127496e-07
-1.5817865e-06
-3.0659838e-07
-1.4076649e-06
-3.0170672e-07
-1.2365182e-06
-2.9655112e-07
-1.0683969e-06
-2.9131207e-07
-9.034528e-07
-2.8581492e-07
-7.4188603e-07
-2.7997482e-07
-5.8395872e-07
-2.7367118e-07
-4.2992592e-07
-2.6691578e-07
-2.7986246e-07
-2.6003055e-07
-1.3373819e-07
-2.5319417e-07
8.4253078e-09
-2.463266e-07
1.4671255e-07
-2.3959317e-07
2.8127501e-07
-2.3313064e-07
4.1214891e-07
-2.2672538e-07
5.3937632e-07
-2.2039883e-07
6.6301739e-07
-2.1417164e-07
7.8306216e-07
-2.0793299e-07
8.9954709e-07
-2.0175025e-07
1.0125334e-06
-1.95685e-07
1.1220158e-06
-1.8960129e-07
1.228029e-06
-1.8358433e-07
1.3306339e-06
-1.7767073e-07
1.4298248e-06
-1.7175013e-07
1.5256326e-06
-1.6587953e-07
1.6181057e-06
-1.6009887e-07
1.7072405e-06
-1.5430817e-07
1.7930805e-06
-1.4859525e-07
1.8756238e-06
-1.4287567e-07
1.9548801e-06
-1.3717563e-07
2.0308873e-06
-1.31543e-07
2.103627e-06
-1.2587698e-07
2.173098e-06
-1.2021038e-07
2.2393228e-06
-1.1458368e-07
2.3022706e-06
-1.0890057e-07
2.3619224e-06
-1.0318776e-07
2.4182796e-06
-9.7476919e-08
2.4712928e-06
-9.1681327e-08
2.5209196e-06
-8.5808753e-08
2.5671319e-06
-7.9895261e-08
2.6098545e-06
-7.384443e-08
2.6490107e-06
-6.7664306e-08
2.6845333e-06
-6.1365796e-08
2.7163069e-06
-5.4869091e-08
2.7442085e-06
-4.8154917e-08
2.7681116e-06
-4.1229875e-08
2.7878442e-06
-3.3994859e-08
2.8032128e-06
-2.6436137e-08
2.8140065e-06
-1.8500451e-08
2.8199633e-06
-1.0128505e-08
2.8208601e-06
-1.3436594e-09
2.816404e-06
7.9200213e-09
2.8061701e-06
1.7968006e-08
2.7895508e-06
2.9008994e-08
2.7659613e-06
4.1150855e-08
2.7346579e-06
5.4455581e-08
2.6950548e-06
6.895673e-08
2.6460714e-06
8.5068482e-08
2.5868773e-06
1.0301669e-07
2.5157589e-06
1.2335515e-07
2.4317749e-06
1.4617649e-07
2.3320093e-06
1.7279416e-07
2.21543e-06
2.0306741e-07
2.076623e-06
2.3997728e-07
1.9145766e-06
2.8269082e-07
1.7173707e-06
3.4009799e-07
1.4819909e-06
4.1163567e-07
1.1766723e-06
5.2527483e-07
7.8758246e-07
6.8672068e-07
6.4147176e-07
2.4725202e-07
6.4731123e-07
-9.0842046e-09
7.100495e-07
-1.1203817e-07
8.1848237e-07
-1.8815071e-07
9.5188008e-07
-2.3401408e-07
1.1050123e-06
-2.6661008e-07
1.2758307e-06
-2.9868216e-07
1.4636587e-06
-3.2754784e-07
1.6677095e-06
-3.5635745e-07
1.8912157e-06
-3.8985398e-07
2.1449129e-06
-4.4274937e-07
2.4352483e-06
-5.0725371e-07
2.7484999e-06
-5.471189e-07
3.0777033e-06
-5.7472436e-07
3.4219491e-06
-6.009423e-07
3.7799447e-06
-6.2470291e-07
4.1493368e-06
-6.4479767e-07
4.5254804e-06
-6.5618125e-07
4.8952242e-06
-6.4555387e-07
5.2299326e-06
-5.8293713e-07
5.516489e-06
-4.9848521e-07
5.7672326e-06
-4.3445158e-07
6.0163535e-06
-4.3372442e-07
6.2620425e-06
-4.2730876e-07
6.5098003e-06
-4.3154366e-07
6.7718477e-06
-4.5710582e-07
7.0630203e-06
-5.0838099e-07
7.4041384e-06
-5.9687035e-07
7.8464813e-06
-7.7386944e-07
8.4672127e-06
-1.0918594e-06
9.2448133e-06
-1.3663596e-06
1.0156407e-05
-1.6003365e-06
1.12243e-05
-1.8744168e-06
1.2492522e-05
-2.2260455e-06
1.4002481e-05
-2.6534141e-06
1.5801703e-05
-3.1618012e-06
1.7808227e-05
-3.5335437e-06
1.9802793e-05
-3.4876575e-06
2.1192795e-05
-2.4202826e-06
2.0723019e-05
9.4201009e-07
1.8068058e-05
4.7537897e-06
1.4079671e-05
7.1402056e-06
9.9139234e-06
7.2747621e-06
6.8111859e-06
5.5030444e-06
4.6058645e-06
3.6556083e-06
3.7333662e-07
9.0468069e-06
-4.1662581e-06
1.0907978e-05
-4.3885734e-06
1.199947e-05
-2.2716441e-06
1.0230305e-05
3.8189854e-06
6.6901975e-06
7.7979298e-06
1.8800637e-06
1.0396883e-05
-2.0977992e-06
8.3801087e-06
-3.9762094e-06
3.8023996e-06
-4.1017704e-06
1.5489676e-07
-3.9502806e-06
-3.6970619e-07
-3.7057345e-06
-5.5303783e-07
-3.4522969e-06
-5.6637738e-07
-3.2503209e-06
-4.4612559e-07
-3.0996564e-06
-3.3272042e-07
-2.9784746e-06
-2.6696915e-07
-2.8737627e-06
-2.3176896e-07
-2.7888681e-06
-1.8882132e-07
-2.7369885e-06
-1.163922e-07
-2.709918e-06
-6.2578281e-08
-2.6999086e-06
-2.6088969e-08
-2.7121031e-06
2.2143716e-08
-2.7496179e-06
7.6776293e-08
-2.8173116e-06
1.4233589e-07
-2.9190923e-06
2.164088e-07
-3.0559901e-06
2.9296254e-07
-3.2224613e-06
3.577944e-07
-3.4018374e-06
3.8569645e-07
-3.5872603e-06
3.9860683e-07
-3.7832084e-06
4.2181092e-07
-3.9884473e-06
4.4213609e-07
-4.1973549e-06
4.501419e-07
-4.4030233e-06
4.4288908e-07
-4.5975963e-06
4.1825221e-07
-4.7745842e-06
3.7878228e-07
-4.9353514e-06
3.4193095e-07
-5.0948308e-06
3.3841758e-07
-5.2599278e-06
3.5144052e-07
-5.4142964e-06
3.2716463e-07
-5.5448906e-06
2.7460328e-07
-5.6488017e-06
2.1499432e-07
-5.7203611e-06
1.4342369e-07
-5.765198e-06
8.1950987e-08
-5.7855038e-06
2.6734867e-08
-5.8208507e-06
5.154767e-08
-5.9137493e-06
1.7034087e-07
-6.3712622e-06
9.6163514e-07
-7.413973e-06
2.3247352e-06
-8.3015061e-06
1.9593072e-06
-8.8761937e-06
1.2747439e-06
-9.2830278e-06
9.0150259e-07
-9.5601368e-06
6.2049216e-07
-9.744931e-06
4.1580373e-07
-9.8549027e-06
2.534299e-07
-9.9064864e-06
1.2441275e-07
-9.9096459e-06
1.912953e-08
-9.8723884e-06
-6.9747057e-08
-9.79998e-06
-1.4626283e-07
-9.6975251e-06
-2.1221274e-07
-9.5688749e-06
-2.6932716e-07
-9.4173818e-06
-3.1937086e-07
-9.2457263e-06
-3.6337957e-07
-9.0562696e-06
-4.02336e-07
-8.8510064e-06
-4.3687834e-07
-8.6317264e-06
-4.6754261e-07
-8.4000144e-06
-4.9474497e-07
-8.1573185e-06
-5.1878579e-07
-7.9049612e-06
-5.3995615e-07
-7.6441944e-06
-5.5838885e-07
-7.376186e-06
-5.7428266e-07
-7.1020455e-06
-5.8774769e-07
-6.8227783e-06
-5.9904246e-07
-6.5393001e-06
-6.0832413e-07
-6.2525761e-06
-6.1552526e-07
-5.9635626e-06
-6.2061025e-07
-5.6729942e-06
-6.2412626e-07
-5.3815127e-06
-6.262185e-07
-5.0898348e-06
-6.2677899e-07
-4.7986096e-06
-6.2588858e-07
-4.5084266e-06
-6.2372703e-07
-4.2197967e-06
-6.2044204e-07
-3.933217e-06
-6.1610712e-07
-3.6490941e-06
-6.1085366e-07
-3.367871e-06
-6.0464709e-07
-3.0898738e-06
-5.9772276e-07
-2.8153808e-06
-5.9020261e-07
-2.5447449e-06
-5.8190941e-07
-2.2781773e-06
-5.7316565e-07
-2.0158575e-06
-5.6402619e-07
-1.758018e-06
-5.5439029e-07
-1.5047417e-06
-5.4458783e-07
-1.2562648e-06
-5.3429181e-07
-1.0128933e-06
-5.2334641e-07
-7.7500999e-07
-5.1155456e-07
-5.429872e-07
-4.9893738e-07
-3.1692841e-07
-4.860889e-07
-9.6786771e-08
-4.7333544e-07
1.1739289e-07
-4.6050729e-07
3.2575371e-07
-4.4795292e-07
5.2853661e-07
-4.3591393e-07
7.2578274e-07
-4.2397149e-07
9.1755453e-07
-4.1217164e-07
1.1039395e-06
-4.0055641e-07
1.2849227e-06
-3.8891668e-07
1.4605599e-06
-3.7738643e-07
1.63094e-06
-3.660657e-07
1.7960553e-06
-3.5471567e-07
1.9559589e-06
-3.4348813e-07
2.1107392e-06
-3.3245077e-07
2.2603876e-06
-3.2139892e-07
2.4049518e-06
-3.1044386e-07
2.5445011e-06
-2.9964902e-07
2.6790314e-06
-2.8883936e-07
2.8086064e-06
-2.7817166e-07
2.9332221e-06
-2.6749144e-07
3.0528948e-06
-2.5684895e-07
3.1676782e-06
-2.4632702e-07
3.2775449e-06
-2.3574397e-07
3.3824942e-06
-2.2516072e-07
3.4825568e-06
-2.1464737e-07
3.5776866e-06
-2.0403039e-07
3.6678564e-06
-1.9335827e-07
3.7530651e-06
-1.8268611e-07
3.8332389e-06
-1.718557e-07
3.9083152e-06
-1.6088496e-07
3.9782491e-06
-1.4983029e-07
4.0429277e-06
-1.3852334e-07
4.102237e-06
-1.2697441e-07
4.1560738e-06
-1.1520295e-07
4.2042646e-06
-1.0306028e-07
4.2466262e-06
-9.0516468e-08
4.2829656e-06
-7.7570327e-08
4.3130263e-06
-6.4055045e-08
4.3365163e-06
-4.992664e-08
4.35312e-06
-3.510428e-08
4.3624407e-06
-1.9451447e-08
4.3641446e-06
-3.0486705e-09
4.3577868e-06
1.4275814e-08
4.3427462e-06
3.3008371e-08
4.3180934e-06
5.3660904e-08
4.2829773e-06
7.6267005e-08
4.2362402e-06
1.0119086e-07
4.1770514e-06
1.281455e-07
4.1037066e-06
1.5841187e-07
4.0150863e-06
1.9163809e-07
3.908428e-06
2.3001231e-07
3.7825892e-06
2.7201505e-07
3.6327756e-06
3.2260425e-07
3.4580405e-06
3.7780215e-07
3.2493312e-06
4.4868465e-07
3.0064618e-06
5.2556052e-07
2.7095328e-06
6.3702487e-07
2.3570921e-06
7.6407578e-07
1.897021e-06
9.8534225e-07
1.3242459e-06
1.2594941e-06
1.1007956e-06
4.7069913e-07
1.1074103e-06
-1.5700104e-08
1.1988308e-06
-2.0346101e-07
1.3597381e-06
-3.4905923e-07
1.5569713e-06
-4.3124968e-07
1.7843843e-06
-4.9402434e-07
2.0376004e-06
-5.5189996e-07
2.3164442e-06
-6.0639319e-07
2.6192793e-06
-6.5919408e-07
2.9513905e-06
-7.2196744e-07
3.328225e-06
-8.1958577e-07
3.758865e-06
-9.3789747e-07
4.2237912e-06
-1.0120481e-06
4.7128702e-06
-1.0638095e-06
5.224563e-06
-1.1126386e-06
5.7569639e-06
-1.1571072e-06
6.3063427e-06
-1.1941796e-06
6.8660068e-06
-1.2158481e-06
7.4160428e-06
-1.1955936e-06
7.9154989e-06
-1.0823943e-06
8.3447525e-06
-9.2774623e-07
8.722023e-06
-8.1172724e-07
9.0949799e-06
-8.0668618e-07
9.4625923e-06
-7.9492033e-07
9.8326488e-06
-8.0160221e-07
1.0223039e-05
-8.4749344e-07
1.0655739e-05
-9.4108829e-07
1.1161305e-05
-1.102431e-06
1.1815336e-05
-1.4279092e-06
1.2726988e-05
-2.0035113e-06
1.3869347e-05
-2.5087242e-06
1.5210314e-05
-2.9413079e-06
1.6781249e-05
-3.445334e-06
1.8645196e-05
-4.0899692e-06
2.0860689e-05
-4.8688646e-06
2.3495247e-05
-5.7963309e-06
2.6430821e-05
-6.4690766e-06
2.9370211e-05
-6.4270055e-06
3.1464542e-05
-4.5145513e-06
3.0922214e-05
1.4843536e-06
2.7195668e-05
8.4803457e-06
2.1501905e-05
1.2833978e-05
1.5416289e-05
1.3360323e-05
1.0830528e-05
1.0088786e-05
7.4541545e-06
7.0320328e-06
6.2552658e-07
1.305074e-05
-6.5594417e-06
1.5473637e-05
-6.8113043e-06
1.6884254e-05
-3.6820597e-06
1.4526831e-05
6.1764182e-06
9.7321654e-06
1.2592749e-05
3.1480247e-06
1.698104e-05
-2.5011784e-06
1.4029326e-05
-5.2915402e-06
6.5927633e-06
-5.5687701e-06
4.3212468e-07
-5.3970872e-06
-5.4137534e-07
-5.082874e-06
-8.6725094e-07
-4.7497946e-06
-8.9946206e-07
-4.4811212e-06
-7.1480031e-07
-4.2799124e-06
-5.3393342e-07
-4.1179132e-06
-4.2898238e-07
-3.9784991e-06
-3.7117624e-07
-3.8661837e-06
-3.0115565e-07
-3.7985222e-06
-1.8404202e-07
-3.7647877e-06
-9.6323515e-08
-3.7547311e-06
-3.6133249e-08
-3.7750752e-06
4.2483631e-08
-3.8301874e-06
1.3188749e-07
-3.9265524e-06
2.3869925e-07
-4.0694021e-06
3.592588e-07
-4.2599448e-06
4.8350424e-07
-4.4904638e-06
5.883139e-07
-4.7386502e-06
6.3388232e-07
-4.9951883e-06
6.5514558e-07
-5.2658594e-06
6.9248211e-07
-5.5490719e-06
7.2534926e-07
-5.8372569e-06
7.3832728e-07
-6.1211729e-06
7.2680551e-07
-6.390408e-06
6.874879e-07
-6.6366435e-06
6.2501618e-07
-6.862035e-06
5.6732299e-07
-7.0861636e-06
5.6254466e-07
-7.3176283e-06
5.8290576e-07
-7.5350112e-06
5.4454588e-07
-7.720979e-06
4.6057171e-07
-7.8716065e-06
3.6561998e-07
-7.9797848e-06
2.5160267e-07
-8.0534016e-06
1.5556589e-07
-8.0968611e-06
7.0194665e-08
-8.1642438e-06
1.1892869e-07
-8.3192319e-06
3.2532952e-07
-8.9588443e-06
1.601246e-06
-1.0341646e-05
3.7075356e-06
-1.1521173e-05
3.1388323e-06
-1.2285776e-05
2.0393479e-06
-1.2823855e-05
1.4395803e-06
-1.318738e-05
9.8402327e-07
-1.3426445e-05
6.5486854e-07
-1.3564614e-05
3.9160134e-07
-1.3624065e-05
1.838586e-07
-1.3618074e-05
1.3136859e-08
-1.3557415e-05
-1.3041088e-07
-1.3449244e-05
-2.5443394e-07
-1.3300486e-05
-3.6097373e-07
-1.3116319e-05
-4.5349465e-07
-1.2901281e-05
-5.3440907e-07
-1.2658986e-05
-6.0567655e-07
-1.2392635e-05
-6.6868612e-07
-1.2104925e-05
-7.2459146e-07
-1.1798286e-05
-7.7418051e-07
-1.1474865e-05
-8.1816902e-07
-1.1136631e-05
-8.5701894e-07
-1.0785379e-05
-8.9121034e-07
-1.042281e-05
-9.2095752e-07
-1.0050509e-05
-9.4658296e-07
-9.6699836e-06
-9.6827052e-07
-9.2825991e-06
-9.8642641e-07
-8.8895998e-06
-1.0013199e-06
-8.4922918e-06
-1.0128337e-06
-8.0919697e-06
-1.0209302e-06
-7.6896347e-06
-1.0264626e-06
-7.2861592e-06
-1.0296926e-06
-6.8825142e-06
-1.0304276e-06
-6.47958e-06
-1.0288228e-06
-6.0781557e-06
-1.025151e-06
-5.6789355e-06
-1.0196594e-06
-5.2825949e-06
-1.0124498e-06
-4.8896833e-06
-1.0037655e-06
-4.5008051e-06
-9.9352523e-07
-4.1164027e-06
-9.8212358e-07
-3.7368541e-06
-9.6975016e-07
-3.3626397e-06
-9.5612227e-07
-2.9940482e-06
-9.4175692e-07
-2.6313238e-06
-9.2675022e-07
-2.2747908e-06
-9.1092304e-07
-1.9245737e-06
-8.9480471e-07
-1.5810102e-06
-8.7785546e-07
-1.2445295e-06
-8.5982723e-07
-9.1564426e-07
-8.4044014e-07
-5.948507e-07
-8.1973006e-07
-2.8227833e-07
-7.9866116e-07
2.2123589e-08
-7.7773729e-07
3.182881e-07
-7.5667296e-07
6.0645843e-07
-7.3612251e-07
8.8697244e-07
-7.1642852e-07
1.1598615e-06
-6.9686077e-07
1.4252108e-06
-6.7752219e-07
1.6831369e-06
-6.5848248e-07
1.9336193e-06
-6.3939972e-07
2.1767355e-06
-6.2050202e-07
2.4126042e-06
-6.0193518e-07
2.6412146e-06
-5.8332553e-07
2.8626412e-06
-5.6491525e-07
3.0770012e-06
-5.468107e-07
3.2842831e-06
-5.2868131e-07
3.4845534e-06
-5.1071447e-07
3.6779033e-06
-4.9299991e-07
3.8643284e-06
-4.752653e-07
4.0439146e-06
-4.5775923e-07
4.2166545e-06
-4.4023154e-07
4.3825726e-06
-4.2276777e-07
4.5417385e-06
-4.0549347e-07
4.6941143e-06
-3.881202e-07
4.8397007e-06
-3.7074807e-07
4.9785355e-06
-3.5348328e-07
5.1105552e-06
-3.3605022e-07
5.2357239e-06
-3.1852763e-07
5.3540361e-06
-3.0099882e-07
5.4653899e-06
-2.8321014e-07
5.5697005e-06
-2.6519556e-07
5.6669024e-06
-2.4703312e-07
5.7568398e-06
-2.2846105e-07
5.839357e-06
-2.0949232e-07
5.9143083e-06
-1.9015474e-07
5.9814549e-06
-1.7020729e-07
6.0405455e-06
-1.49607e-07
6.0913111e-06
-1.2833686e-07
6.1333985e-06
-1.0614195e-07
6.1664057e-06
-8.2934156e-08
6.1898959e-06
-5.859463e-08
6.2033224e-06
-3.2879986e-08
6.2062164e-06
-5.943598e-09
6.1979665e-06
2.2523882e-08
6.1777285e-06
5.3246253e-08
6.1442213e-06
8.716731e-08
6.0962758e-06
1.2421269e-07
6.0322893e-06
1.6517558e-07
5.9511101e-06
2.0932477e-07
5.8503876e-06
2.5913308e-07
5.728589e-06
3.1343768e-07
5.581891e-06
3.7670941e-07
5.408729e-06
4.451768e-07
5.2024596e-06
5.2887015e-07
4.9618123e-06
6.1844929e-07
4.6742179e-06
7.3627708e-07
4.339509e-06
8.6026965e-07
3.9300954e-06
1.0464364e-06
3.444404e-06
1.2497663e-06
2.8101768e-06
1.6195656e-06
2.0350738e-06
2.0345955e-06
1.7238251e-06
7.8194445e-07
1.72852e-06
-2.0396131e-08
1.8512576e-06
-3.2620111e-07
2.0694711e-06
-5.6727396e-07
2.3371186e-06
-6.9889954e-07
2.6463794e-06
-8.0328639e-07
2.990635e-06
-8.9615728e-07
3.3699665e-06
-9.8572615e-07
3.7820564e-06
-1.0712854e-06
4.2344171e-06
-1.1743304e-06
4.7475264e-06
-1.3326965e-06
5.3331169e-06
-1.5234916e-06
5.9657467e-06
-1.6446795e-06
6.6319595e-06
-1.7300279e-06
7.3294377e-06
-1.8101198e-06
8.0554688e-06
-1.8831411e-06
8.8048459e-06
-1.9435589e-06
9.5684947e-06
-1.9794973e-06
1.0319182e-05
-1.9462822e-06
1.1002866e-05
-1.7660769e-06
1.1593094e-05
-1.5179786e-06
1.2113848e-05
-1.3324825e-06
1.2626454e-05
-1.3192938e-06
1.3131062e-05
-1.2995231e-06
1.3638164e-05
-1.3087015e-06
1.4171631e-05
-1.3809539e-06
1.4761113e-05
-1.5305733e-06
1.5447987e-05
-1.789293e-06
1.6333415e-05
-2.313339e-06
1.7560063e-05
-3.2301498e-06
1.9097103e-05
-4.045758e-06
2.0903735e-05
-4.7479391e-06
2.3020422e-05
-5.5619976e-06
2.5528919e-05
-6.5984369e-06
2.8505719e-05
-7.8456195e-06
3.2036569e-05
-9.3271584e-06
3.597127e-05
-1.0403742e-05
3.9938814e-05
-1.0394512e-05
4.2846711e-05
-7.422398e-06
4.2315037e-05
2.0160123e-06
3.7548811e-05
1.3246573e-05
3.0106945e-05
2.0275832e-05
2.2008994e-05
2.1458234e-05
1.576952e-05
1.6328225e-05
1.1109444e-05
1.1692158e-05
1.0771636e-06
1.7887466e-05
-9.4831387e-06
2.0902081e-05
-9.8255114e-06
2.2582361e-05
-5.3617688e-06
1.9614944e-05
9.1441878e-06
1.344602e-05
1.876201e-05
4.9023649e-06
2.552476e-05
-2.7162622e-06
2.1647977e-05
-6.6520651e-06
1.0528573e-05
-7.1661184e-06
9.4618675e-07
-6.9952444e-06
-7.1223919e-07