/*--------------------------------*- C++ -*----------------------------------*\
| =========                 |                                                 |
| \\      /  F ield         | OpenFOAM: The Open Source CFD Toolbox           |
|  \\    /   O peration     | Version:  2006                                  |
|   \\  /    A nd           | Website:  www.openfoam.com                      |
|    \\/     M anipulation  |                                                 |
\*---------------------------------------------------------------------------*/
FoamFile
{
    version     2.0;
    format      ascii;
    class       volScalarField;
    location    "20000";
    object      epsilon;
}
// * * * * * * * * * * * * * * * * * * * * * * * * * * * * * * * * * * * * * //

dimensions      [0 2 -3 0 0 0 0];


internalField   nonuniform List<scalar> 
14751
(
4.60226e-06
4.57957e-06
4.56539e-06
4.55445e-06
4.53764e-06
4.52198e-06
4.50451e-06
4.48639e-06
4.46519e-06
4.44216e-06
4.41814e-06
4.39284e-06
4.36783e-06
4.34167e-06
4.31641e-06
4.28962e-06
4.2649e-06
4.23936e-06
4.2153e-06
4.1909e-06
4.16749e-06
4.1454e-06
4.12428e-06
4.10435e-06
4.08558e-06
4.06799e-06
4.05163e-06
4.03645e-06
4.02257e-06
4.00987e-06
3.99835e-06
3.98795e-06
3.97866e-06
3.97049e-06
3.96339e-06
3.95705e-06
3.95161e-06
3.94712e-06
3.94359e-06
3.94113e-06
3.93953e-06
3.93886e-06
3.93903e-06
3.9402e-06
3.94218e-06
3.94506e-06
3.94874e-06
3.95331e-06
3.9586e-06
3.96468e-06
3.97149e-06
3.97911e-06
3.98748e-06
3.99659e-06
4.0064e-06
4.01696e-06
4.0282e-06
4.04018e-06
4.05284e-06
4.06623e-06
4.0803e-06
4.09504e-06
4.1104e-06
4.12646e-06
4.14311e-06
4.16036e-06
4.1782e-06
4.19644e-06
4.21503e-06
4.23401e-06
4.25335e-06
4.27293e-06
4.29272e-06
4.31264e-06
4.33261e-06
4.35259e-06
4.37255e-06
4.39232e-06
4.41191e-06
4.43108e-06
4.44998e-06
4.46822e-06
4.48621e-06
4.50338e-06
4.52042e-06
4.53625e-06
4.55182e-06
4.56555e-06
4.57923e-06
4.59186e-06
4.60422e-06
4.61485e-06
4.62299e-06
4.62797e-06
4.62875e-06
4.62846e-06
4.62049e-06
4.61427e-06
4.60714e-06
2.18093e-06
2.17098e-06
2.16214e-06
2.15386e-06
2.144e-06
2.13368e-06
2.12234e-06
2.11038e-06
2.0973e-06
2.08352e-06
2.0693e-06
2.05468e-06
2.04012e-06
2.02537e-06
2.01099e-06
1.99642e-06
1.98261e-06
1.96886e-06
1.95575e-06
1.94281e-06
1.93041e-06
1.91865e-06
1.90746e-06
1.89692e-06
1.88702e-06
1.87775e-06
1.86914e-06
1.86116e-06
1.85384e-06
1.84714e-06
1.84104e-06
1.83552e-06
1.83056e-06
1.82616e-06
1.82229e-06
1.81884e-06
1.81582e-06
1.81328e-06
1.81122e-06
1.80968e-06
1.80857e-06
1.80791e-06
1.80767e-06
1.8079e-06
1.80854e-06
1.80959e-06
1.81104e-06
1.81288e-06
1.8151e-06
1.81771e-06
1.82068e-06
1.82404e-06
1.82779e-06
1.83189e-06
1.83635e-06
1.84118e-06
1.84636e-06
1.85191e-06
1.8578e-06
1.86407e-06
1.87071e-06
1.87769e-06
1.88502e-06
1.89271e-06
1.90075e-06
1.90913e-06
1.91785e-06
1.92684e-06
1.93607e-06
1.94559e-06
1.95537e-06
1.96538e-06
1.97561e-06
1.98602e-06
1.99659e-06
2.00731e-06
2.01816e-06
2.02909e-06
2.04008e-06
2.05106e-06
2.06204e-06
2.07293e-06
2.0838e-06
2.09449e-06
2.10514e-06
2.11549e-06
2.12572e-06
2.13543e-06
2.14503e-06
2.15427e-06
2.16325e-06
2.17146e-06
2.17846e-06
2.18393e-06
2.18753e-06
2.18972e-06
2.18887e-06
2.18738e-06
2.18478e-06
1.22881e-06
1.22272e-06
1.21517e-06
1.20716e-06
1.19862e-06
1.18936e-06
1.1794e-06
1.16898e-06
1.15809e-06
1.14688e-06
1.13546e-06
1.12391e-06
1.11243e-06
1.10107e-06
1.08999e-06
1.07914e-06
1.0687e-06
1.0586e-06
1.04894e-06
1.03963e-06
1.03073e-06
1.0223e-06
1.01433e-06
1.00686e-06
9.99869e-07
9.93366e-07
9.87342e-07
9.8179e-07
9.76703e-07
9.72062e-07
9.67853e-07
9.64058e-07
9.60665e-07
9.5766e-07
9.55025e-07
9.52717e-07
9.5073e-07
9.49079e-07
9.4776e-07
9.4677e-07
9.46089e-07
9.45706e-07
9.45614e-07
9.45821e-07
9.46309e-07
9.47062e-07
9.48079e-07
9.49393e-07
9.5097e-07
9.528e-07
9.54883e-07
9.57224e-07
9.59824e-07
9.62671e-07
9.65765e-07
9.69105e-07
9.72692e-07
9.76525e-07
9.80607e-07
9.84942e-07
9.8953e-07
9.94366e-07
9.9945e-07
1.00478e-06
1.01037e-06
1.0162e-06
1.02227e-06
1.02857e-06
1.03508e-06
1.04181e-06
1.04876e-06
1.05592e-06
1.06326e-06
1.0708e-06
1.0785e-06
1.08637e-06
1.09437e-06
1.10251e-06
1.11077e-06
1.1191e-06
1.12749e-06
1.13593e-06
1.14439e-06
1.15285e-06
1.16126e-06
1.16961e-06
1.17784e-06
1.18594e-06
1.19387e-06
1.20161e-06
1.20903e-06
1.21597e-06
1.22209e-06
1.22719e-06
1.23115e-06
1.23359e-06
1.23463e-06
1.2342e-06
1.23244e-06
8.46552e-07
8.41229e-07
8.3423e-07
8.26615e-07
8.18901e-07
8.10513e-07
8.01793e-07
7.92812e-07
7.83688e-07
7.74411e-07
7.65063e-07
7.55727e-07
7.46525e-07
7.37544e-07
7.28849e-07
7.20466e-07
7.12436e-07
7.04786e-07
6.97519e-07
6.90628e-07
6.84108e-07
6.7799e-07
6.72282e-07
6.66988e-07
6.62104e-07
6.57625e-07
6.53541e-07
6.49842e-07
6.46517e-07
6.43554e-07
6.40939e-07
6.38657e-07
6.36698e-07
6.3505e-07
6.33697e-07
6.32621e-07
6.31815e-07
6.31277e-07
6.30997e-07
6.3097e-07
6.31185e-07
6.31633e-07
6.32308e-07
6.33204e-07
6.34317e-07
6.35655e-07
6.37209e-07
6.38971e-07
6.40933e-07
6.43085e-07
6.45428e-07
6.4796e-07
6.50679e-07
6.5358e-07
6.56659e-07
6.59912e-07
6.63341e-07
6.66939e-07
6.70708e-07
6.74645e-07
6.7875e-07
6.83016e-07
6.87442e-07
6.92023e-07
6.96759e-07
7.01641e-07
7.06667e-07
7.11825e-07
7.17107e-07
7.22512e-07
7.28031e-07
7.33655e-07
7.39371e-07
7.45172e-07
7.51044e-07
7.56977e-07
7.62953e-07
7.68965e-07
7.74995e-07
7.81022e-07
7.87028e-07
7.93006e-07
7.9892e-07
8.04766e-07
8.1049e-07
8.1611e-07
8.21551e-07
8.26863e-07
8.31943e-07
8.36822e-07
8.41441e-07
8.45672e-07
8.49266e-07
8.52071e-07
8.53947e-07
8.54776e-07
8.54515e-07
8.53054e-07
8.50506e-07
6.83084e-07
6.77516e-07
6.70561e-07
6.63267e-07
6.55949e-07
6.48205e-07
6.40443e-07
6.32587e-07
6.24768e-07
6.16969e-07
6.09278e-07
6.01738e-07
5.94444e-07
5.87435e-07
5.80757e-07
5.74428e-07
5.68464e-07
5.629e-07
5.57711e-07
5.52908e-07
5.4846e-07
5.44392e-07
5.40702e-07
5.37386e-07
5.34437e-07
5.31845e-07
5.29599e-07
5.27685e-07
5.26092e-07
5.24808e-07
5.23818e-07
5.23112e-07
5.22677e-07
5.22501e-07
5.22573e-07
5.22878e-07
5.2341e-07
5.2416e-07
5.25119e-07
5.26279e-07
5.2763e-07
5.29164e-07
5.30875e-07
5.32765e-07
5.34821e-07
5.37038e-07
5.39408e-07
5.41924e-07
5.4458e-07
5.47368e-07
5.50284e-07
5.53323e-07
5.5648e-07
5.59748e-07
5.63121e-07
5.66595e-07
5.70164e-07
5.73822e-07
5.77566e-07
5.81391e-07
5.85291e-07
5.89259e-07
5.93292e-07
5.97382e-07
6.01525e-07
6.05713e-07
6.0994e-07
6.14197e-07
6.18476e-07
6.22769e-07
6.27068e-07
6.31361e-07
6.35638e-07
6.39888e-07
6.44099e-07
6.48259e-07
6.52354e-07
6.56373e-07
6.60298e-07
6.64119e-07
6.67822e-07
6.71399e-07
6.74837e-07
6.78118e-07
6.81227e-07
6.84142e-07
6.86852e-07
6.89336e-07
6.91572e-07
6.93571e-07
6.95313e-07
6.96771e-07
6.97717e-07
6.98029e-07
6.97609e-07
6.96433e-07
6.94421e-07
6.91477e-07
6.87724e-07
5.90752e-07
5.84927e-07
5.77745e-07
5.70434e-07
5.63267e-07
5.55897e-07
5.49054e-07
5.42392e-07
5.35925e-07
5.29623e-07
5.23542e-07
5.17726e-07
5.12221e-07
5.07091e-07
5.02348e-07
4.9799e-07
4.94018e-07
4.90448e-07
4.8724e-07
4.84412e-07
4.81922e-07
4.79783e-07
4.77991e-07
4.76534e-07
4.75404e-07
4.74585e-07
4.74066e-07
4.73832e-07
4.73871e-07
4.74169e-07
4.74713e-07
4.75492e-07
4.76492e-07
4.77702e-07
4.79112e-07
4.80708e-07
4.82478e-07
4.84416e-07
4.8651e-07
4.8875e-07
4.91128e-07
4.93633e-07
4.96257e-07
4.98994e-07
5.01833e-07
5.04765e-07
5.07783e-07
5.10878e-07
5.14041e-07
5.17264e-07
5.2054e-07
5.23861e-07
5.27219e-07
5.30604e-07
5.34008e-07
5.37426e-07
5.40849e-07
5.44271e-07
5.47685e-07
5.51086e-07
5.54466e-07
5.5782e-07
5.61141e-07
5.64425e-07
5.67666e-07
5.70858e-07
5.73997e-07
5.77073e-07
5.80083e-07
5.8302e-07
5.85875e-07
5.8864e-07
5.91307e-07
5.93866e-07
5.96312e-07
5.9863e-07
6.00814e-07
6.0286e-07
6.04761e-07
6.06508e-07
6.08094e-07
6.09511e-07
6.10745e-07
6.11792e-07
6.1264e-07
6.13291e-07
6.13729e-07
6.13959e-07
6.13958e-07
6.13766e-07
6.13418e-07
6.1313e-07
6.12521e-07
6.11405e-07
6.09716e-07
6.07383e-07
6.04412e-07
6.00552e-07
5.96008e-07
5.20054e-07
5.14511e-07
5.07565e-07
5.00582e-07
4.93966e-07
4.87222e-07
4.80823e-07
4.74638e-07
4.6881e-07
4.63284e-07
4.58078e-07
4.53229e-07
4.48747e-07
4.44711e-07
4.41081e-07
4.37909e-07
4.35103e-07
4.32745e-07
4.30757e-07
4.29137e-07
4.27834e-07
4.26858e-07
4.26202e-07
4.25851e-07
4.25794e-07
4.26015e-07
4.265e-07
4.27233e-07
4.282e-07
4.29388e-07
4.30784e-07
4.32374e-07
4.34145e-07
4.36086e-07
4.38186e-07
4.40432e-07
4.42814e-07
4.4532e-07
4.47938e-07
4.50656e-07
4.53464e-07
4.56351e-07
4.59308e-07
4.62325e-07
4.65392e-07
4.68498e-07
4.71634e-07
4.7479e-07
4.77956e-07
4.81123e-07
4.84283e-07
4.87426e-07
4.90544e-07
4.93628e-07
4.96669e-07
4.99659e-07
5.02594e-07
5.05465e-07
5.08268e-07
5.10999e-07
5.13655e-07
5.16229e-07
5.18721e-07
5.21127e-07
5.23446e-07
5.25675e-07
5.27814e-07
5.29861e-07
5.31812e-07
5.33667e-07
5.35421e-07
5.37071e-07
5.38613e-07
5.40035e-07
5.41355e-07
5.42583e-07
5.43695e-07
5.44698e-07
5.45584e-07
5.46353e-07
5.46989e-07
5.4751e-07
5.47881e-07
5.4812e-07
5.4818e-07
5.48119e-07
5.47879e-07
5.47537e-07
5.46991e-07
5.46317e-07
5.45493e-07
5.4457e-07
5.43353e-07
5.41747e-07
5.39712e-07
5.37082e-07
5.34e-07
5.3001e-07
5.25402e-07
4.50767e-07
4.45993e-07
4.39714e-07
4.33302e-07
4.2747e-07
4.21506e-07
4.15825e-07
4.10371e-07
4.05357e-07
4.00714e-07
3.96425e-07
3.92522e-07
3.88985e-07
3.85905e-07
3.83215e-07
3.8099e-07
3.79092e-07
3.77627e-07
3.76486e-07
3.75703e-07
3.752e-07
3.74972e-07
3.75023e-07
3.75336e-07
3.75899e-07
3.76698e-07
3.77716e-07
3.7894e-07
3.80353e-07
3.81943e-07
3.83695e-07
3.85598e-07
3.87637e-07
3.89801e-07
3.92077e-07
3.94455e-07
3.96919e-07
3.99461e-07
4.02067e-07
4.04725e-07
4.07426e-07
4.10156e-07
4.12909e-07
4.15671e-07
4.18437e-07
4.21191e-07
4.23926e-07
4.26629e-07
4.29296e-07
4.31914e-07
4.34477e-07
4.36977e-07
4.39407e-07
4.41759e-07
4.44028e-07
4.46205e-07
4.4829e-07
4.50276e-07
4.52164e-07
4.53952e-07
4.55641e-07
4.57229e-07
4.58719e-07
4.6011e-07
4.61409e-07
4.62615e-07
4.63733e-07
4.64766e-07
4.65713e-07
4.6658e-07
4.67365e-07
4.68067e-07
4.68699e-07
4.69304e-07
4.69854e-07
4.70355e-07
4.70796e-07
4.71194e-07
4.71539e-07
4.7184e-07
4.72076e-07
4.7228e-07
4.72408e-07
4.72488e-07
4.72455e-07
4.72396e-07
4.72234e-07
4.72081e-07
4.71789e-07
4.71446e-07
4.70998e-07
4.70461e-07
4.69698e-07
4.68633e-07
4.67229e-07
4.65239e-07
4.62902e-07
4.59577e-07
4.55592e-07
3.85944e-07
3.82173e-07
3.76972e-07
3.71513e-07
3.66712e-07
3.6175e-07
3.57004e-07
3.52461e-07
3.48362e-07
3.44637e-07
3.41249e-07
3.38224e-07
3.35526e-07
3.33251e-07
3.31321e-07
3.29821e-07
3.28592e-07
3.27751e-07
3.27185e-07
3.26934e-07
3.26915e-07
3.27115e-07
3.27545e-07
3.28187e-07
3.29031e-07
3.30062e-07
3.31266e-07
3.3263e-07
3.34136e-07
3.35773e-07
3.37529e-07
3.39389e-07
3.41343e-07
3.43376e-07
3.45479e-07
3.47639e-07
3.49842e-07
3.52079e-07
3.54338e-07
3.56608e-07
3.5888e-07
3.6114e-07
3.63383e-07
3.65595e-07
3.67773e-07
3.69903e-07
3.71977e-07
3.73985e-07
3.75923e-07
3.77781e-07
3.79554e-07
3.81238e-07
3.8283e-07
3.84322e-07
3.85712e-07
3.86996e-07
3.88177e-07
3.8925e-07
3.90221e-07
3.91089e-07
3.91863e-07
3.92543e-07
3.93134e-07
3.93641e-07
3.94073e-07
3.94433e-07
3.94729e-07
3.94967e-07
3.95149e-07
3.95284e-07
3.9537e-07
3.95452e-07
3.95543e-07
3.95635e-07
3.95727e-07
3.95823e-07
3.9592e-07
3.96035e-07
3.96165e-07
3.96317e-07
3.9647e-07
3.96666e-07
3.96855e-07
3.97072e-07
3.97243e-07
3.97464e-07
3.97654e-07
3.97934e-07
3.98139e-07
3.98351e-07
3.98501e-07
3.98598e-07
3.98538e-07
3.98251e-07
3.977e-07
3.96604e-07
3.95233e-07
3.92875e-07
3.89843e-07
3.29166e-07
3.26367e-07
3.22322e-07
3.17917e-07
3.14139e-07
3.10169e-07
3.06349e-07
3.02691e-07
2.99435e-07
2.96519e-07
2.93898e-07
2.91591e-07
2.89559e-07
2.87893e-07
2.86519e-07
2.85518e-07
2.84735e-07
2.84284e-07
2.84055e-07
2.84092e-07
2.84312e-07
2.84701e-07
2.8527e-07
2.86003e-07
2.86891e-07
2.87922e-07
2.89082e-07
2.9036e-07
2.91737e-07
2.93205e-07
2.94752e-07
2.96364e-07
2.98031e-07
2.99741e-07
3.01484e-07
3.03248e-07
3.05021e-07
3.06796e-07
3.0856e-07
3.10304e-07
3.1202e-07
3.13696e-07
3.15328e-07
3.16904e-07
3.18422e-07
3.1987e-07
3.21244e-07
3.22533e-07
3.23738e-07
3.24849e-07
3.25867e-07
3.26788e-07
3.27612e-07
3.28336e-07
3.28961e-07
3.29484e-07
3.29913e-07
3.30243e-07
3.30486e-07
3.30643e-07
3.30725e-07
3.30734e-07
3.3068e-07
3.30567e-07
3.30408e-07
3.30206e-07
3.29973e-07
3.29714e-07
3.29433e-07
3.29138e-07
3.28877e-07
3.28661e-07
3.28477e-07
3.28332e-07
3.28229e-07
3.28175e-07
3.28167e-07
3.28225e-07
3.28344e-07
3.28532e-07
3.28772e-07
3.29101e-07
3.29476e-07
3.29926e-07
3.30384e-07
3.30939e-07
3.31515e-07
3.32224e-07
3.32908e-07
3.33637e-07
3.3434e-07
3.35028e-07
3.35618e-07
3.36043e-07
3.36266e-07
3.36009e-07
3.35528e-07
3.34122e-07
3.32065e-07
2.81254e-07
2.79266e-07
2.76255e-07
2.72817e-07
2.69918e-07
2.66802e-07
2.6378e-07
2.60875e-07
2.58311e-07
2.56037e-07
2.54008e-07
2.52238e-07
2.50691e-07
2.49451e-07
2.48447e-07
2.47759e-07
2.4724e-07
2.46996e-07
2.4693e-07
2.4708e-07
2.4737e-07
2.47784e-07
2.48336e-07
2.4901e-07
2.49799e-07
2.50693e-07
2.51679e-07
2.52746e-07
2.53879e-07
2.55069e-07
2.56306e-07
2.57579e-07
2.58877e-07
2.60189e-07
2.61508e-07
2.62824e-07
2.64125e-07
2.65404e-07
2.66654e-07
2.67863e-07
2.69029e-07
2.70139e-07
2.7119e-07
2.72175e-07
2.73093e-07
2.73933e-07
2.74693e-07
2.75367e-07
2.75956e-07
2.76454e-07
2.76863e-07
2.77182e-07
2.77415e-07
2.77561e-07
2.77622e-07
2.77598e-07
2.77498e-07
2.77322e-07
2.7708e-07
2.76776e-07
2.76423e-07
2.76024e-07
2.7559e-07
2.75124e-07
2.74641e-07
2.74144e-07
2.73644e-07
2.73148e-07
2.72657e-07
2.72217e-07
2.71843e-07
2.71526e-07
2.71265e-07
2.7107e-07
2.70945e-07
2.70898e-07
2.70924e-07
2.71042e-07
2.71249e-07
2.71553e-07
2.71936e-07
2.72435e-07
2.73009e-07
2.73685e-07
2.74403e-07
2.75241e-07
2.76132e-07
2.77174e-07
2.78225e-07
2.79343e-07
2.80464e-07
2.816e-07
2.82683e-07
2.83652e-07
2.84469e-07
2.84876e-07
2.85097e-07
2.84486e-07
2.83265e-07
2.4149e-07
2.40132e-07
2.37963e-07
2.3533e-07
2.33124e-07
2.3069e-07
2.28304e-07
2.25992e-07
2.23958e-07
2.22163e-07
2.20565e-07
2.19174e-07
2.17959e-07
2.16995e-07
2.16221e-07
2.15706e-07
2.15321e-07
2.15161e-07
2.15139e-07
2.1529e-07
2.15545e-07
2.15889e-07
2.16335e-07
2.16869e-07
2.17487e-07
2.18178e-07
2.18932e-07
2.1974e-07
2.20587e-07
2.21468e-07
2.22372e-07
2.2329e-07
2.24213e-07
2.25132e-07
2.26041e-07
2.26931e-07
2.27794e-07
2.28623e-07
2.29412e-07
2.30153e-07
2.30843e-07
2.31474e-07
2.32043e-07
2.32545e-07
2.32981e-07
2.33343e-07
2.33632e-07
2.3384e-07
2.33974e-07
2.34029e-07
2.34008e-07
2.33913e-07
2.33748e-07
2.33515e-07
2.33217e-07
2.32855e-07
2.32441e-07
2.31973e-07
2.31463e-07
2.30915e-07
2.30342e-07
2.29747e-07
2.29141e-07
2.28527e-07
2.27919e-07
2.2732e-07
2.2674e-07
2.26184e-07
2.25672e-07
2.25241e-07
2.24877e-07
2.24581e-07
2.24354e-07
2.24209e-07
2.24147e-07
2.24176e-07
2.24292e-07
2.24512e-07
2.24832e-07
2.25259e-07
2.25781e-07
2.26425e-07
2.27161e-07
2.28007e-07
2.28916e-07
2.29951e-07
2.31058e-07
2.32318e-07
2.33609e-07
2.34978e-07
2.36373e-07
2.37803e-07
2.39215e-07
2.4055e-07
2.41772e-07
2.42652e-07
2.43372e-07
2.43363e-07
2.42791e-07
2.08645e-07
2.07755e-07
2.06232e-07
2.04235e-07
2.02552e-07
2.00637e-07
1.98734e-07
1.96871e-07
1.95229e-07
1.93778e-07
1.9248e-07
1.91346e-07
1.90348e-07
1.89552e-07
1.88906e-07
1.88472e-07
1.88136e-07
1.87982e-07
1.87934e-07
1.88024e-07
1.88189e-07
1.88416e-07
1.88716e-07
1.8908e-07
1.89502e-07
1.89975e-07
1.90489e-07
1.91037e-07
1.91606e-07
1.92192e-07
1.92786e-07
1.93381e-07
1.93969e-07
1.94543e-07
1.95097e-07
1.95626e-07
1.96122e-07
1.96581e-07
1.96997e-07
1.97366e-07
1.97685e-07
1.97948e-07
1.98154e-07
1.983e-07
1.98387e-07
1.98411e-07
1.98372e-07
1.98266e-07
1.981e-07
1.9787e-07
1.97582e-07
1.97237e-07
1.96841e-07
1.96396e-07
1.95907e-07
1.95374e-07
1.94809e-07
1.94211e-07
1.93591e-07
1.92954e-07
1.92311e-07
1.91665e-07
1.91025e-07
1.90394e-07
1.89785e-07
1.892e-07
1.88648e-07
1.88136e-07
1.87704e-07
1.87342e-07
1.87048e-07
1.86827e-07
1.86683e-07
1.86622e-07
1.8665e-07
1.86772e-07
1.86984e-07
1.87301e-07
1.8772e-07
1.88247e-07
1.88871e-07
1.89616e-07
1.90458e-07
1.9141e-07
1.92435e-07
1.93583e-07
1.94812e-07
1.96187e-07
1.97609e-07
1.99113e-07
2.00659e-07
2.02254e-07
2.03853e-07
2.05403e-07
2.06871e-07
2.08056e-07
2.09102e-07
2.09514e-07
2.09415e-07
1.81474e-07
1.80928e-07
1.79881e-07
1.78368e-07
1.77065e-07
1.75534e-07
1.7399e-07
1.72459e-07
1.71098e-07
1.69887e-07
1.68795e-07
1.67828e-07
1.66966e-07
1.66266e-07
1.65684e-07
1.65274e-07
1.64937e-07
1.64747e-07
1.6464e-07
1.64639e-07
1.64694e-07
1.6479e-07
1.64939e-07
1.65133e-07
1.65367e-07
1.65636e-07
1.65931e-07
1.66247e-07
1.66572e-07
1.66905e-07
1.67237e-07
1.67562e-07
1.67875e-07
1.6817e-07
1.68443e-07
1.68689e-07
1.68902e-07
1.69081e-07
1.69221e-07
1.69317e-07
1.6937e-07
1.69374e-07
1.69331e-07
1.69237e-07
1.69095e-07
1.68902e-07
1.6866e-07
1.68366e-07
1.68026e-07
1.67639e-07
1.67209e-07
1.6674e-07
1.66237e-07
1.65701e-07
1.65138e-07
1.64549e-07
1.63944e-07
1.63322e-07
1.62694e-07
1.62063e-07
1.61439e-07
1.60825e-07
1.60228e-07
1.59652e-07
1.59106e-07
1.58593e-07
1.58119e-07
1.57712e-07
1.57374e-07
1.57103e-07
1.56899e-07
1.56767e-07
1.56711e-07
1.56738e-07
1.5685e-07
1.57052e-07
1.57343e-07
1.57733e-07
1.58222e-07
1.58813e-07
1.59499e-07
1.60299e-07
1.61194e-07
1.62194e-07
1.6327e-07
1.64463e-07
1.6574e-07
1.67153e-07
1.68621e-07
1.70174e-07
1.71776e-07
1.73436e-07
1.75115e-07
1.76767e-07
1.78358e-07
1.79717e-07
1.80952e-07
1.8164e-07
1.81865e-07
1.58893e-07
1.58595e-07
1.57889e-07
1.56738e-07
1.55705e-07
1.54454e-07
1.53172e-07
1.51882e-07
1.50721e-07
1.49676e-07
1.48722e-07
1.47862e-07
1.47084e-07
1.46435e-07
1.45879e-07
1.45462e-07
1.45101e-07
1.44858e-07
1.44678e-07
1.44584e-07
1.44529e-07
1.44502e-07
1.44513e-07
1.44556e-07
1.44627e-07
1.44722e-07
1.44834e-07
1.44959e-07
1.45088e-07
1.45218e-07
1.45344e-07
1.45461e-07
1.45564e-07
1.45649e-07
1.45713e-07
1.45754e-07
1.45766e-07
1.45748e-07
1.45697e-07
1.4561e-07
1.45487e-07
1.45326e-07
1.45126e-07
1.44887e-07
1.44612e-07
1.44298e-07
1.43947e-07
1.43558e-07
1.43137e-07
1.42683e-07
1.422e-07
1.41691e-07
1.41162e-07
1.40614e-07
1.40051e-07
1.39476e-07
1.38896e-07
1.38311e-07
1.3773e-07
1.37155e-07
1.36596e-07
1.36054e-07
1.35536e-07
1.35044e-07
1.34586e-07
1.34166e-07
1.33793e-07
1.33489e-07
1.33245e-07
1.33062e-07
1.32943e-07
1.32893e-07
1.32914e-07
1.33013e-07
1.33191e-07
1.33453e-07
1.33798e-07
1.34234e-07
1.34761e-07
1.35384e-07
1.36095e-07
1.36911e-07
1.37817e-07
1.38821e-07
1.39901e-07
1.41089e-07
1.4236e-07
1.43755e-07
1.45211e-07
1.46749e-07
1.48343e-07
1.49997e-07
1.51681e-07
1.53352e-07
1.54979e-07
1.56415e-07
1.57739e-07
1.58591e-07
1.59025e-07
1.40018e-07
1.39899e-07
1.39429e-07
1.38541e-07
1.37698e-07
1.36648e-07
1.35557e-07
1.34442e-07
1.33424e-07
1.32494e-07
1.31632e-07
1.30843e-07
1.30117e-07
1.29493e-07
1.28943e-07
1.28506e-07
1.28113e-07
1.27815e-07
1.27567e-07
1.27387e-07
1.27237e-07
1.27105e-07
1.27002e-07
1.26922e-07
1.26862e-07
1.2682e-07
1.2679e-07
1.26769e-07
1.26749e-07
1.26728e-07
1.26702e-07
1.26668e-07
1.26622e-07
1.2656e-07
1.26482e-07
1.26383e-07
1.26262e-07
1.26117e-07
1.25946e-07
1.25746e-07
1.2552e-07
1.25264e-07
1.24979e-07
1.24666e-07
1.24326e-07
1.23958e-07
1.23565e-07
1.23145e-07
1.22704e-07
1.2224e-07
1.21759e-07
1.21263e-07
1.20756e-07
1.20241e-07
1.19719e-07
1.19194e-07
1.18672e-07
1.18152e-07
1.17643e-07
1.17146e-07
1.16668e-07
1.16211e-07
1.15781e-07
1.15379e-07
1.15012e-07
1.14683e-07
1.1441e-07
1.14194e-07
1.14032e-07
1.13925e-07
1.13877e-07
1.13892e-07
1.13972e-07
1.14123e-07
1.14347e-07
1.14646e-07
1.15021e-07
1.15479e-07
1.16019e-07
1.16647e-07
1.17356e-07
1.18159e-07
1.19046e-07
1.20023e-07
1.21073e-07
1.22222e-07
1.23451e-07
1.24793e-07
1.26197e-07
1.2768e-07
1.29221e-07
1.30822e-07
1.3246e-07
1.34095e-07
1.35698e-07
1.37143e-07
1.38486e-07
1.39422e-07
1.39979e-07
1.24142e-07
1.24151e-07
1.2384e-07
1.23142e-07
1.2243e-07
1.21526e-07
1.20572e-07
1.19587e-07
1.18672e-07
1.17823e-07
1.17027e-07
1.16284e-07
1.15591e-07
1.14981e-07
1.1443e-07
1.13972e-07
1.13548e-07
1.13203e-07
1.12899e-07
1.1265e-07
1.12422e-07
1.1221e-07
1.12019e-07
1.11846e-07
1.11689e-07
1.11547e-07
1.11414e-07
1.11288e-07
1.11162e-07
1.11037e-07
1.10908e-07
1.10772e-07
1.10627e-07
1.10471e-07
1.10301e-07
1.10118e-07
1.09916e-07
1.09698e-07
1.0946e-07
1.09201e-07
1.08923e-07
1.08623e-07
1.08303e-07
1.07963e-07
1.07605e-07
1.07228e-07
1.06833e-07
1.06422e-07
1.05997e-07
1.05559e-07
1.0511e-07
1.04655e-07
1.04195e-07
1.03733e-07
1.03272e-07
1.02812e-07
1.02359e-07
1.01915e-07
1.01483e-07
1.01066e-07
1.0067e-07
1.00297e-07
9.99502e-08
9.96324e-08
9.93486e-08
9.91023e-08
9.89106e-08
9.87667e-08
9.86695e-08
9.86227e-08
9.8629e-08
9.86922e-08
9.88141e-08
9.89993e-08
9.92496e-08
9.95679e-08
9.99539e-08
1.00414e-07
1.00949e-07
1.01561e-07
1.02248e-07
1.0302e-07
1.03868e-07
1.04798e-07
1.05797e-07
1.06886e-07
1.08051e-07
1.09317e-07
1.10646e-07
1.12049e-07
1.13509e-07
1.15029e-07
1.16588e-07
1.18151e-07
1.19691e-07
1.21101e-07
1.22414e-07
1.23378e-07
1.23997e-07
1.10709e-07
1.10808e-07
1.106e-07
1.10036e-07
1.09415e-07
1.08617e-07
1.07766e-07
1.06877e-07
1.0604e-07
1.05251e-07
1.04502e-07
1.03795e-07
1.03127e-07
1.02526e-07
1.01975e-07
1.015e-07
1.01054e-07
1.00673e-07
1.00327e-07
1.00026e-07
9.97436e-08
9.94729e-08
9.92203e-08
9.8983e-08
9.87598e-08
9.85489e-08
9.83469e-08
9.81517e-08
9.79582e-08
9.77659e-08
9.75719e-08
9.73743e-08
9.71707e-08
9.69596e-08
9.67398e-08
9.651e-08
9.62684e-08
9.60145e-08
9.57475e-08
9.54663e-08
9.51717e-08
9.48622e-08
9.45391e-08
9.42025e-08
9.38545e-08
9.34942e-08
9.31233e-08
9.27418e-08
9.23528e-08
9.19565e-08
9.15557e-08
9.11526e-08
9.07498e-08
9.03488e-08
8.99519e-08
8.95604e-08
8.91782e-08
8.88061e-08
8.84482e-08
8.81066e-08
8.77854e-08
8.74865e-08
8.72131e-08
8.69672e-08
8.67529e-08
8.65779e-08
8.64487e-08
8.63602e-08
8.63132e-08
8.63111e-08
8.63564e-08
8.64523e-08
8.66005e-08
8.68048e-08
8.7067e-08
8.73896e-08
8.77727e-08
8.82217e-08
8.87373e-08
8.93225e-08
8.99749e-08
9.07027e-08
9.15e-08
9.23711e-08
9.33071e-08
9.43237e-08
9.54121e-08
9.65918e-08
9.78313e-08
9.91406e-08
1.00506e-07
1.01928e-07
1.03389e-07
1.0486e-07
1.06313e-07
1.07657e-07
1.08912e-07
1.09864e-07
1.10503e-07
9.92799e-08
9.94409e-08
9.92954e-08
9.88261e-08
9.82687e-08
9.75495e-08
9.67763e-08
9.59626e-08
9.51857e-08
9.44446e-08
9.37346e-08
9.30566e-08
9.24109e-08
9.18205e-08
9.12725e-08
9.07882e-08
9.03298e-08
8.99266e-08
8.95537e-08
8.9219e-08
8.89006e-08
8.85932e-08
8.83017e-08
8.80244e-08
8.77602e-08
8.75079e-08
8.72646e-08
8.70288e-08
8.67962e-08
8.65664e-08
8.63374e-08
8.61074e-08
8.58746e-08
8.56379e-08
8.53961e-08
8.51485e-08
8.48935e-08
8.46308e-08
8.43598e-08
8.40796e-08
8.37909e-08
8.34925e-08
8.31856e-08
8.28703e-08
8.25483e-08
8.22189e-08
8.18836e-08
8.15423e-08
8.11976e-08
8.08496e-08
8.05008e-08
8.01527e-08
7.98077e-08
7.94668e-08
7.9132e-08
7.88043e-08
7.84868e-08
7.81804e-08
7.78881e-08
7.7612e-08
7.73553e-08
7.71195e-08
7.69075e-08
7.67209e-08
7.65629e-08
7.64442e-08
7.63621e-08
7.63153e-08
7.63051e-08
7.63347e-08
7.64062e-08
7.65223e-08
7.66848e-08
7.68968e-08
7.716e-08
7.74766e-08
7.7847e-08
7.82758e-08
7.87638e-08
7.93138e-08
7.99242e-08
8.06016e-08
8.1342e-08
8.21487e-08
8.30155e-08
8.39551e-08
8.49613e-08
8.60493e-08
8.71944e-08
8.8404e-08
8.96668e-08
9.09833e-08
9.23382e-08
9.37047e-08
9.50584e-08
9.63206e-08
9.74991e-08
9.84141e-08
9.90455e-08
8.95078e-08
8.9707e-08
8.95971e-08
8.91937e-08
8.86825e-08
8.80243e-08
8.73126e-08
8.65601e-08
8.58333e-08
8.51329e-08
8.44572e-08
8.38068e-08
8.31839e-08
8.26076e-08
8.20682e-08
8.15831e-08
8.11221e-08
8.07085e-08
8.03225e-08
7.99696e-08
7.96321e-08
7.93056e-08
7.89942e-08
7.86965e-08
7.84116e-08
7.81388e-08
7.78755e-08
7.76207e-08
7.73706e-08
7.71252e-08
7.68825e-08
7.66413e-08
7.64001e-08
7.61577e-08
7.59135e-08
7.56667e-08
7.5416e-08
7.51611e-08
7.49015e-08
7.46366e-08
7.43669e-08
7.40914e-08
7.3811e-08
7.35259e-08
7.32373e-08
7.29449e-08
7.26497e-08
7.23516e-08
7.20528e-08
7.17533e-08
7.14552e-08
7.11597e-08
7.08686e-08
7.05829e-08
7.03041e-08
7.00331e-08
6.97724e-08
6.95227e-08
6.92865e-08
6.90655e-08
6.88625e-08
6.86787e-08
6.85165e-08
6.83776e-08
6.82654e-08
6.81877e-08
6.81405e-08
6.81241e-08
6.81399e-08
6.81906e-08
6.82783e-08
6.84053e-08
6.8573e-08
6.87844e-08
6.90409e-08
6.93446e-08
6.9696e-08
7.0099e-08
7.05547e-08
7.10654e-08
7.16301e-08
7.22544e-08
7.29355e-08
7.36762e-08
7.44722e-08
7.53337e-08
7.62566e-08
7.72527e-08
7.83027e-08
7.94118e-08
8.05709e-08
8.17798e-08
8.30256e-08
8.42842e-08
8.55329e-08
8.67041e-08
8.77967e-08
8.86598e-08
8.92651e-08
8.11149e-08
8.13338e-08
8.12422e-08
8.08848e-08
8.04088e-08
7.98e-08
7.91392e-08
7.84387e-08
7.77558e-08
7.70925e-08
7.64494e-08
7.58271e-08
7.5229e-08
7.46708e-08
7.41457e-08
7.36677e-08
7.32128e-08
7.27994e-08
7.24117e-08
7.20536e-08
7.17105e-08
7.13789e-08
7.1062e-08
7.07589e-08
7.04688e-08
7.01909e-08
6.99234e-08
6.96651e-08
6.94131e-08
6.91671e-08
6.89256e-08
6.86875e-08
6.84515e-08
6.82167e-08
6.79824e-08
6.77479e-08
6.75122e-08
6.72749e-08
6.70356e-08
6.67938e-08
6.65497e-08
6.63027e-08
6.60534e-08
6.58018e-08
6.5549e-08
6.52947e-08
6.50395e-08
6.47836e-08
6.45286e-08
6.42746e-08
6.40231e-08
6.37751e-08
6.35322e-08
6.32952e-08
6.30652e-08
6.28429e-08
6.26305e-08
6.24286e-08
6.22391e-08
6.20637e-08
6.19044e-08
6.17625e-08
6.16399e-08
6.15382e-08
6.14618e-08
6.14141e-08
6.13923e-08
6.13973e-08
6.14306e-08
6.14945e-08
6.15908e-08
6.17216e-08
6.18883e-08
6.20933e-08
6.23381e-08
6.26244e-08
6.2953e-08
6.33273e-08
6.37482e-08
6.4218e-08
6.47361e-08
6.53071e-08
6.59291e-08
6.66046e-08
6.73309e-08
6.8116e-08
6.89574e-08
6.98643e-08
7.08214e-08
7.18326e-08
7.28902e-08
7.39935e-08
7.51315e-08
7.62828e-08
7.7426e-08
7.85031e-08
7.95065e-08
8.03091e-08
8.08776e-08
7.38784e-08
7.41019e-08
7.40177e-08
7.36931e-08
7.3246e-08
7.26792e-08
7.20625e-08
7.14082e-08
7.07656e-08
7.01379e-08
6.95271e-08
6.89342e-08
6.83631e-08
6.7827e-08
6.73213e-08
6.68571e-08
6.64154e-08
6.60107e-08
6.56304e-08
6.52769e-08
6.49385e-08
6.46124e-08
6.43009e-08
6.40032e-08
6.37188e-08
6.34469e-08
6.3186e-08
6.2935e-08
6.26914e-08
6.24549e-08
6.22243e-08
6.19985e-08
6.17763e-08
6.1557e-08
6.13399e-08
6.11244e-08
6.09096e-08
6.0695e-08
6.04804e-08
6.02651e-08
6.00493e-08
5.98325e-08
5.96152e-08
5.93972e-08
5.91795e-08
5.89617e-08
5.87443e-08
5.85275e-08
5.83124e-08
5.80993e-08
5.78892e-08
5.7683e-08
5.7482e-08
5.72868e-08
5.70983e-08
5.69173e-08
5.67452e-08
5.65829e-08
5.64318e-08
5.62934e-08
5.61694e-08
5.60608e-08
5.59694e-08
5.58961e-08
5.58471e-08
5.5821e-08
5.58172e-08
5.58368e-08
5.58811e-08
5.59522e-08
5.60517e-08
5.61814e-08
5.63425e-08
5.65374e-08
5.67672e-08
5.70337e-08
5.73376e-08
5.76817e-08
5.80673e-08
5.84962e-08
5.89683e-08
5.94872e-08
6.00521e-08
6.06649e-08
6.1324e-08
6.2036e-08
6.27995e-08
6.36215e-08
6.449e-08
6.54076e-08
6.6368e-08
6.73701e-08
6.84044e-08
6.94518e-08
7.04925e-08
7.14761e-08
7.23908e-08
7.31291e-08
7.36547e-08
6.76176e-08
6.78341e-08
6.77514e-08
6.74508e-08
6.70291e-08
6.64996e-08
6.59226e-08
6.53108e-08
6.47064e-08
6.41136e-08
6.35355e-08
6.29733e-08
6.24314e-08
6.19207e-08
6.14383e-08
6.09931e-08
6.05701e-08
6.01806e-08
5.98144e-08
5.9473e-08
5.91468e-08
5.88335e-08
5.85349e-08
5.82502e-08
5.79789e-08
5.77205e-08
5.74733e-08
5.72365e-08
5.7008e-08
5.67874e-08
5.65734e-08
5.63653e-08
5.61619e-08
5.59626e-08
5.57666e-08
5.55733e-08
5.5382e-08
5.51923e-08
5.50037e-08
5.48157e-08
5.46285e-08
5.44415e-08
5.4255e-08
5.40689e-08
5.3884e-08
5.36998e-08
5.35168e-08
5.3335e-08
5.31554e-08
5.29782e-08
5.28041e-08
5.2634e-08
5.24689e-08
5.23092e-08
5.21557e-08
5.2009e-08
5.18704e-08
5.17406e-08
5.16209e-08
5.15123e-08
5.14164e-08
5.13343e-08
5.12672e-08
5.12163e-08
5.11867e-08
5.11761e-08
5.11847e-08
5.12137e-08
5.12642e-08
5.13381e-08
5.14368e-08
5.15619e-08
5.17146e-08
5.18969e-08
5.211e-08
5.23553e-08
5.26336e-08
5.29476e-08
5.32982e-08
5.36874e-08
5.4115e-08
5.45842e-08
5.50946e-08
5.56481e-08
5.62436e-08
5.68867e-08
5.75766e-08
5.83188e-08
5.91039e-08
5.99335e-08
6.08022e-08
6.17088e-08
6.2645e-08
6.35937e-08
6.45365e-08
6.54298e-08
6.62586e-08
6.69322e-08
6.74124e-08
6.2185e-08
6.23857e-08
6.23016e-08
6.202e-08
6.16218e-08
6.11266e-08
6.05865e-08
6.00145e-08
5.94469e-08
5.88888e-08
5.83438e-08
5.78135e-08
5.73022e-08
5.68195e-08
5.63634e-08
5.59409e-08
5.55405e-08
5.51707e-08
5.48233e-08
5.44991e-08
5.41903e-08
5.38949e-08
5.36141e-08
5.33473e-08
5.3094e-08
5.28535e-08
5.26245e-08
5.24061e-08
5.21965e-08
5.19953e-08
5.18013e-08
5.16137e-08
5.14315e-08
5.12541e-08
5.10808e-08
5.0911e-08
5.07439e-08
5.05791e-08
5.04163e-08
5.02549e-08
5.0095e-08
4.99361e-08
4.97783e-08
4.96216e-08
4.94664e-08
4.93125e-08
4.91601e-08
4.90093e-08
4.88607e-08
4.87146e-08
4.85716e-08
4.84324e-08
4.82976e-08
4.81678e-08
4.80436e-08
4.79254e-08
4.78145e-08
4.77113e-08
4.76169e-08
4.75324e-08
4.74589e-08
4.73975e-08
4.73493e-08
4.73155e-08
4.72997e-08
4.72999e-08
4.73168e-08
4.73512e-08
4.74045e-08
4.7478e-08
4.75732e-08
4.76914e-08
4.78338e-08
4.80022e-08
4.81975e-08
4.84212e-08
4.86742e-08
4.89585e-08
4.92754e-08
4.96263e-08
5.00117e-08
5.04339e-08
5.0893e-08
5.13907e-08
5.19267e-08
5.25053e-08
5.31265e-08
5.37944e-08
5.45017e-08
5.52492e-08
5.60324e-08
5.68498e-08
5.76942e-08
5.85503e-08
5.94012e-08
6.02087e-08
6.09561e-08
6.15664e-08
6.20008e-08
5.74593e-08
5.76386e-08
5.75524e-08
5.72866e-08
5.69109e-08
5.64479e-08
5.59426e-08
5.54084e-08
5.48767e-08
5.4353e-08
5.38413e-08
5.33435e-08
5.2864e-08
5.24107e-08
5.19827e-08
5.15856e-08
5.12103e-08
5.08631e-08
5.05377e-08
5.02341e-08
4.99458e-08
4.96713e-08
4.94114e-08
4.91655e-08
4.89328e-08
4.8713e-08
4.85046e-08
4.83069e-08
4.81182e-08
4.7938e-08
4.77654e-08
4.75994e-08
4.74393e-08
4.72843e-08
4.71338e-08
4.69872e-08
4.68438e-08
4.67031e-08
4.65649e-08
4.64285e-08
4.6294e-08
4.6161e-08
4.60293e-08
4.58991e-08
4.57706e-08
4.56435e-08
4.55181e-08
4.53943e-08
4.52727e-08
4.51534e-08
4.50371e-08
4.4924e-08
4.4815e-08
4.47103e-08
4.46105e-08
4.45161e-08
4.44279e-08
4.43464e-08
4.42727e-08
4.42074e-08
4.41518e-08
4.41065e-08
4.40728e-08
4.40519e-08
4.40459e-08
4.40535e-08
4.40754e-08
4.41125e-08
4.41658e-08
4.42368e-08
4.43266e-08
4.44365e-08
4.45675e-08