/*--------------------------------*- C++ -*----------------------------------*\
| =========                 |                                                 |
| \\      /  F ield         | OpenFOAM: The Open Source CFD Toolbox           |
|  \\    /   O peration     | Version:  2006                                  |
|   \\  /    A nd           | Website:  www.openfoam.com                      |
|    \\/     M anipulation  |                                                 |
\*---------------------------------------------------------------------------*/
FoamFile
{
    version     2.0;
    format      ascii;
    class       volVectorField;
    location    "20000";
    object      U;
}
// * * * * * * * * * * * * * * * * * * * * * * * * * * * * * * * * * * * * * //

dimensions      [0 1 -1 0 0 0 0];


internalField   nonuniform List<vector> 
14751
(
(0.00193902 9.76365e-08 0)
(0.00193404 -2.45936e-08 1.67947e-27)
(0.00193996 2.95723e-08 1.68053e-27)
(0.00193415 1.69907e-07 6.51374e-24)
(0.00192407 1.25408e-07 0)
(0.00191549 2.31248e-07 0)
(0.00190263 2.42417e-07 2.88262e-24)
(0.00188847 3.08745e-07 -2.15125e-26)
(0.00187056 3.30556e-07 0)
(0.00185143 3.60023e-07 0)
(0.00183007 3.89003e-07 7.43684e-26)
(0.00180745 3.94364e-07 5.50789e-25)
(0.00178351 4.17267e-07 -5.51351e-25)
(0.00175858 3.98474e-07 9.92527e-25)
(0.00173282 4.18082e-07 -9.93534e-25)
(0.00170647 3.77786e-07 0)
(0.00168047 3.85608e-07 -8.51616e-25)
(0.00165379 3.45357e-07 1.8717e-24)
(0.00162785 3.39863e-07 -4.24835e-25)
(0.00160155 3.11037e-07 -3.87722e-25)
(0.00157641 2.89662e-07 0)
(0.00155169 2.70061e-07 -3.43489e-25)
(0.00152769 2.48135e-07 -3.09433e-26)
(0.00150456 2.28666e-07 6.97038e-25)
(0.00148227 2.09621e-07 3.22408e-26)
(0.00146094 1.91557e-07 -2.77027e-25)
(0.00144057 1.75799e-07 -3.84832e-26)
(0.0014212 1.59273e-07 1.51886e-25)
(0.00140288 1.45702e-07 4.42806e-28)
(0.00138554 1.32253e-07 3.03343e-25)
(0.00136925 1.20196e-07 3.26638e-28)
(0.00135398 1.09161e-07 1.53683e-25)
(0.00133975 9.8659e-08 1.55823e-25)
(0.00132653 8.92761e-08 7.93125e-26)
(0.00131427 8.10009e-08 -1.64052e-25)
(0.00130304 7.31553e-08 8.28576e-25)
(0.00129286 6.63e-08 8.66548e-26)
(0.00128357 5.96823e-08 -8.66852e-26)
(0.00127524 5.26933e-08 0)
(0.0012678 4.78388e-08 0)
(0.00126123 4.1611e-08 -3.89112e-25)
(0.00125558 3.74324e-08 -4.03378e-25)
(0.00125081 3.17655e-08 4.18509e-25)
(0.00124691 2.83686e-08 0)
(0.00124383 2.33495e-08 0)
(0.00124164 2.03102e-08 0)
(0.00124029 1.52865e-08 1.21614e-25)
(0.00123979 1.30891e-08 -1.26263e-25)
(0.00124011 8.57965e-09 1.22709e-25)
(0.00124131 6.01927e-09 -1.27621e-25)
(0.00124333 2.40145e-09 1.38749e-25)
(0.00124618 -1.78763e-10 -1.43871e-25)
(0.00124983 -3.39612e-09 -1.32077e-25)
(0.00125431 -5.63346e-09 -1.92446e-26)
(0.00125963 -9.40984e-09 -1.20785e-25)
(0.00126577 -1.07623e-08 1.35829e-27)
(0.0012727 -1.45355e-08 -4.25081e-26)
(0.00128046 -1.60912e-08 0)
(0.001289 -1.93802e-08 1.8364e-25)
(0.00129834 -2.07228e-08 0)
(0.00130842 -2.36077e-08 -3.88954e-25)
(0.00131927 -2.4836e-08 0)
(0.00133087 -2.78921e-08 0)
(0.00134318 -2.89668e-08 -8.41556e-25)
(0.00135616 -3.14649e-08 1.08029e-24)
(0.00136985 -3.31088e-08 -6.64249e-25)
(0.00138413 -3.48608e-08 1.34811e-24)
(0.00139907 -3.64339e-08 0)
(0.00141463 -3.78849e-08 -4.74604e-25)
(0.00143073 -4.01256e-08 4.74348e-25)
(0.00144735 -4.1754e-08 4.91885e-25)
(0.00146447 -4.45949e-08 -7.3952e-25)
(0.00148206 -4.67733e-08 0)
(0.00150005 -5.01995e-08 2.55547e-25)
(0.00151842 -5.25114e-08 0)
(0.00153717 -5.91893e-08 -1.05516e-24)
(0.00155626 -6.23274e-08 1.05436e-24)
(0.00157559 -6.95122e-08 0)
(0.00159517 -7.38249e-08 -1.35546e-24)
(0.00161508 -8.7518e-08 1.08437e-24)
(0.00163515 -8.98946e-08 0)
(0.00165531 -1.08537e-07 0)
(0.00167559 -1.11058e-07 1.38163e-25)
(0.001696 -1.39862e-07 3.46246e-26)
(0.00171651 -1.39807e-07 0)
(0.00173698 -1.77426e-07 1.10759e-24)
(0.0017573 -1.68182e-07 -2.34901e-24)
(0.00177705 -2.0575e-07 1.10319e-24)
(0.00179714 -2.05203e-07 0)
(0.00181637 -2.29081e-07 2.70815e-25)
(0.00183534 -2.2916e-07 -2.70544e-25)
(0.00185311 -2.3751e-07 -5.32904e-25)
(0.00187012 -2.38701e-07 8.15818e-27)
(0.00188486 -2.03489e-07 5.09705e-25)
(0.0018995 -2.48614e-07 -1.26032e-25)
(0.00191124 -1.41364e-07 1.25944e-25)
(0.00191947 -1.80349e-07 4.88267e-25)
(0.00192739 -7.20339e-08 3.67574e-27)
(0.00193646 -2.16311e-07 -3.67498e-27)
(0.00570615 5.22492e-07 0)
(0.00569303 -3.3128e-08 7.78597e-23)
(0.00570356 1.97646e-07 4.62433e-24)
(0.00568953 1.09613e-06 -1.37266e-23)
(0.00566448 1.00818e-06 0)
(0.00564287 1.41214e-06 -1.34979e-22)
(0.00561167 1.56522e-06 3.86815e-24)
(0.00557669 1.91603e-06 -2.30827e-23)
(0.00553257 2.11556e-06 1.52207e-23)
(0.00548485 2.29714e-06 -1.13523e-22)
(0.00543185 2.48511e-06 -2.64955e-23)
(0.00537544 2.57308e-06 1.29749e-22)
(0.00531585 2.73114e-06 0)
(0.00525327 2.74042e-06 -9.36538e-23)
(0.00518874 2.88332e-06 0)
(0.00512231 2.79066e-06 2.07011e-23)
(0.00505664 2.87962e-06 -2.07859e-23)
(0.00498912 2.79065e-06 -5.8776e-23)
(0.00492315 2.81135e-06 -1.89517e-23)
(0.00485643 2.73247e-06 7.09341e-23)
(0.00479237 2.65155e-06 0)
(0.00472948 2.58324e-06 0)
(0.00466835 2.48896e-06 6.22567e-26)
(0.00460935 2.39327e-06 -6.05528e-26)
(0.00455249 2.29044e-06 -5.91646e-26)
(0.00449805 2.18275e-06 -5.95428e-23)
(0.00444603 2.07673e-06 2.94032e-23)
(0.0043966 1.96082e-06 -2.91042e-23)
(0.00434984 1.85224e-06 -2.87832e-23)
(0.00430566 1.74048e-06 -2.27027e-25)
(0.00426421 1.63021e-06 -2.21355e-23)
(0.00422544 1.5214e-06 -7.59303e-24)
(0.00418939 1.41247e-06 -2.34673e-25)
(0.00415603 1.30738e-06 -3.98824e-24)
(0.00412525 1.20525e-06 3.87536e-24)
(0.0040972 1.10268e-06 3.11485e-23)
(0.00407193 1.00411e-06 1.23454e-23)
(0.00404912 9.07059e-07 -8.52518e-24)
(0.00402887 8.08212e-07 -4.33959e-24)
(0.00401105 7.17948e-07 2.32168e-24)
(0.00399565 6.21874e-07 1.47746e-23)
(0.00398276 5.33036e-07 3.0226e-24)
(0.00397226 4.39629e-07 9.54745e-24)
(0.00396417 3.54728e-07 9.22851e-24)
(0.00395837 2.64143e-07 1.34792e-24)
(0.00395499 1.79731e-07 -1.45382e-24)
(0.00395394 8.88849e-08 -2.39437e-24)
(0.00395526 8.40842e-09 5.55447e-25)
(0.00395885 -8.11496e-08 -1.10326e-26)
(0.00396484 -1.64057e-07 4.10341e-25)
(0.00397309 -2.50168e-07 1.50256e-24)
(0.00398363 -3.3224e-07 -6.8307e-25)
(0.00399638 -4.16495e-07 8.50289e-24)
(0.0040114 -4.97992e-07 1.93801e-24)
(0.00402868 -5.84124e-07 -1.69057e-24)
(0.00404818 -6.60819e-07 0)
(0.00406983 -7.46375e-07 0)
(0.0040937 -8.23526e-07 0)
(0.00411966 -9.05395e-07 -4.79813e-24)
(0.00414769 -9.79216e-07 4.51442e-24)
(0.00417766 -1.05732e-06 3.82437e-23)
(0.00420963 -1.12887e-06 -9.79313e-24)
(0.00424347 -1.20477e-06 9.77816e-24)
(0.00427913 -1.27108e-06 -7.99151e-23)
(0.00431644 -1.34093e-06 -8.43579e-23)
(0.00435545 -1.40455e-06 1.07318e-23)
(0.00439588 -1.4657e-06 -1.11492e-24)
(0.00443782 -1.52522e-06 -1.09265e-23)
(0.00448117 -1.57933e-06 2.27185e-23)
(0.00452564 -1.63214e-06 -2.26656e-23)
(0.0045712 -1.67977e-06 -2.34594e-23)
(0.00461772 -1.72783e-06 2.37681e-23)
(0.00466512 -1.76854e-06 9.57048e-23)
(0.00471318 -1.80833e-06 1.93427e-22)
(0.00476181 -1.84131e-06 -2.20653e-22)
(0.00481097 -1.88449e-06 -1.97967e-22)
(0.00486054 -1.90803e-06 0)
(0.00491023 -1.93956e-06 0)
(0.00496008 -1.9595e-06 -2.02078e-22)
(0.0050101 -2.00206e-06 0)
(0.00506002 -1.99641e-06 0)
(0.00510947 -2.03749e-06 -2.55972e-22)
(0.00515874 -2.02064e-06 5.08968e-23)
(0.00520757 -2.08168e-06 -2.04804e-22)
(0.00525618 -2.03722e-06 2.04316e-22)
(0.00530368 -2.10321e-06 1.52749e-22)
(0.00535024 -2.00077e-06 1.01434e-22)
(0.00539453 -2.06784e-06 -5.03626e-23)
(0.00543886 -1.99864e-06 -2.48558e-23)
(0.00548037 -1.99705e-06 -1.72677e-22)
(0.00552039 -1.9072e-06 2.4256e-23)
(0.00555686 -1.83314e-06 -2.15719e-22)
(0.00559038 -1.71725e-06 -1.89253e-22)
(0.00561862 -1.51366e-06 -7.25995e-25)
(0.00564488 -1.54359e-06 0)
(0.00566491 -9.89853e-07 2.75587e-24)
(0.00567692 -1.01145e-06 -9.05047e-23)
(0.00569084 -6.55576e-07 2.55789e-27)
(0.00570465 -9.02041e-07 3.20532e-25)
(0.00935223 1.30327e-06 0)
(0.00933072 3.67265e-07 -7.17972e-23)
(0.00934275 8.90536e-07 4.26624e-24)
(0.00932622 2.79171e-06 -2.73041e-22)
(0.0092937 2.84137e-06 6.20561e-26)
(0.00926656 3.728e-06 1.24835e-22)
(0.00922764 4.24467e-06 0)
(0.00918298 5.12766e-06 0)
(0.00912553 5.72492e-06 4.41322e-22)
(0.00906244 6.24282e-06 1.05504e-22)
(0.00899234 6.75642e-06 4.03039e-22)
(0.00891724 7.06811e-06 3.35394e-22)
(0.00883777 7.495e-06 2.7501e-22)
(0.00875353 7.63287e-06 -2.60049e-22)
(0.00866649 7.98582e-06 2.20584e-24)
(0.00857625 7.87566e-06 2.07506e-24)
(0.00848685 8.08567e-06 3.42571e-22)
(0.00839453 7.95141e-06 1.08045e-22)
(0.00830398 7.99541e-06 -1.64284e-24)
(0.00821245 7.83271e-06 -1.00897e-22)
(0.00812437 7.6427e-06 3.1514e-23)
(0.00803804 7.47173e-06 -3.16669e-23)
(0.00795407 7.23699e-06 0)
(0.007873 6.98809e-06 -1.44653e-23)
(0.00779486 6.71627e-06 1.45283e-23)
(0.00772004 6.42619e-06 5.63579e-23)
(0.00764862 6.13166e-06 -2.78316e-23)
(0.0075808 5.81118e-06 -8.28956e-23)
(0.00751677 5.50078e-06 4.13439e-23)
(0.00745643 5.17978e-06 -1.38248e-23)
(0.00739997 4.85831e-06 2.78448e-23)
(0.00734739 4.53692e-06 5.63617e-23)
(0.00729872 4.21358e-06 7.22248e-24)
(0.00725395 3.89635e-06 -1.46229e-23)
(0.00721298 3.58304e-06 7.39938e-24)
(0.00717598 3.26963e-06 -3.07128e-23)
(0.00714303 2.96183e-06 4.74339e-23)
(0.00711376 2.65833e-06 8.15779e-23)
(0.00708827 2.35163e-06 0)
(0.00706646 2.06105e-06 0)
(0.00704827 1.75962e-06 -1.34983e-23)
(0.00703386 1.47211e-06 3.29642e-23)
(0.00702304 1.17698e-06 -1.47248e-23)
(0.00701585 8.97839e-07 -4.31071e-23)
(0.00701213 6.08888e-07 9.89343e-26)
(0.00701206 3.31239e-07 1.91881e-23)
(0.00701552 4.19517e-08 0)
(0.00702257 -2.27719e-07 0)
(0.00703306 -5.14603e-07 3.89609e-25)
(0.00704716 -7.88334e-07 -3.89508e-25)
(0.00706466 -1.06703e-06 -3.31937e-24)
(0.0070856 -1.33745e-06 1.67371e-24)
(0.00710981 -1.61091e-06 -3.46485e-24)
(0.00713742 -1.87872e-06 2.55892e-23)
(0.00716834 -2.15329e-06 0)
(0.00720253 -2.40855e-06 -7.9057e-24)
(0.00723984 -2.67895e-06 7.8954e-24)
(0.00728036 -2.93123e-06 0)
(0.00732383 -3.1892e-06 6.80398e-23)
(0.00737023 -3.42924e-06 -6.9948e-23)
(0.0074193 -3.67369e-06 -3.59181e-23)
(0.0074711 -3.90248e-06 -1.86706e-23)
(0.00752538 -4.13444e-06 1.863e-23)
(0.00758205 -4.34388e-06 7.72882e-23)
(0.00764079 -4.55442e-06 7.90189e-23)
(0.00770162 -4.74757e-06 -1.4098e-22)
(0.00776412 -4.93038e-06 -1.43361e-22)
(0.00782831 -5.10403e-06 -4.14843e-23)
(0.00789397 -5.26039e-06 0)
(0.00796068 -5.4067e-06 3.46992e-22)
(0.00802831 -5.5363e-06 -4.44235e-23)
(0.00809661 -5.65904e-06 4.42715e-23)
(0.0081654 -5.75973e-06 -9.04606e-23)
(0.00823434 -5.85081e-06 -1.36942e-22)
(0.00830325 -5.92276e-06 1.8555e-22)
(0.00837201 -6.00462e-06 2.32964e-22)
(0.0084404 -6.04133e-06 9.45492e-23)
(0.00850795 -6.08557e-06 -9.41545e-23)
(0.00857475 -6.10258e-06 5.70968e-22)
(0.00864063 -6.14855e-06 0)
(0.00870533 -6.09817e-06 7.66346e-22)
(0.00876815 -6.12231e-06 -5.75506e-22)
(0.0088297 -6.03957e-06 0)
(0.00888938 -6.08281e-06 1.9151e-22)
(0.00894779 -5.92911e-06 -1.90901e-22)
(0.00900311 -5.94784e-06 -9.50195e-22)
(0.00905606 -5.66086e-06 7.55305e-22)
(0.00910443 -5.66567e-06 0)
(0.00915167 -5.41847e-06 0)
(0.00919388 -5.26648e-06 1.37799e-22)
(0.00923292 -4.94189e-06 4.5442e-23)
(0.00926619 -4.61315e-06 2.00425e-22)
(0.00929434 -4.19241e-06 1.64067e-22)
(0.00931539 -3.62051e-06 -6.98368e-22)
(0.00933246 -3.41284e-06 0)
(0.00934263 -2.19359e-06 3.3411e-22)
(0.00934367 -2.07139e-06 7.28137e-23)
(0.00935109 -1.33751e-06 2.47696e-24)
(0.00935764 -1.46747e-06 -2.98023e-25)
(0.0127368 2.48322e-06 -6.62622e-23)
(0.012704 1.75004e-06 -7.98256e-27)
(0.0127124 2.68445e-06 0)
(0.0126935 5.60146e-06 2.33651e-22)
(0.012655 6.1232e-06 7.18678e-24)
(0.0126236 7.61991e-06 2.23189e-25)
(0.0125805 8.70843e-06 -8.60087e-22)
(0.0125307 1.02649e-05 0)
(0.0124661 1.14395e-05 -1.20811e-21)
(0.0123946 1.24499e-05 2.41797e-23)
(0.0123156 1.3413e-05 -3.60052e-22)
(0.0122308 1.40777e-05 -3.43459e-22)
(0.0121413 1.48463e-05 -2.87338e-22)
(0.012046 1.52012e-05 -3.51904e-22)
(0.0119476 1.57806e-05 -5.21483e-22)
(0.0118452 1.57135e-05 4.93924e-22)
(0.0117438 1.60217e-05 -2.7014e-22)
(0.011639 1.58515e-05 0)
(0.0115362 1.58701e-05 -3.02015e-23)
(0.0114326 1.55875e-05 2.96573e-22)
(0.0113329 1.52321e-05 -2.29486e-22)
(0.0112357 1.48846e-05 -2.48569e-22)
(0.0111413 1.44301e-05 -2.63037e-23)
(0.0110504 1.39371e-05 7.50384e-25)
(0.010963 1.33986e-05 -2.02798e-22)
(0.0108795 1.28214e-05 2.52526e-23)
(0.0108002 1.22273e-05 1.9734e-22)
(0.0107252 1.15883e-05 1.22333e-22)
(0.0106547 1.09572e-05 2.44919e-23)
(0.0105887 1.03058e-05 0)
(0.0105274 9.64997e-06 0)
(0.0104708 8.99123e-06 4.99072e-23)
(0.0104189 8.32844e-06 1.27885e-23)
(0.0103718 7.67257e-06 -1.28204e-23)
(0.0103294 7.02115e-06 0)
(0.0102917 6.37223e-06 -1.37794e-23)
(0.010259 5.72845e-06 -4.21679e-23)
(0.0102308 5.0933e-06 -5.77591e-23)
(0.0102073 4.455e-06 0)
(0.0101884 3.83889e-06 0)
(0.010174 3.20982e-06 -6.4104e-23)
(0.0101642 2.60075e-06 -4.17285e-23)
(0.0101589 1.98382e-06 8.47855e-24)
(0.0101581 1.38872e-06 1.07605e-22)
(0.0101615 7.8142e-07 -3.25128e-23)
(0.0101696 1.89462e-07 -2.40997e-23)
(0.010182 -4.16453e-07 4.27525e-23)
(0.0101988 -9.94771e-07 -2.56003e-24)
(0.0102199 -1.5952e-06 -6.89284e-25)
(0.0102455 -2.17611e-06 6.89082e-25)
(0.0102752 -2.76109e-06 -1.31192e-23)
(0.010309 -3.33324e-06 1.48039e-24)
(0.0103469 -3.90621e-06 0)
(0.0103888 -4.46935e-06 -1.92427e-23)
(0.0104346 -5.03757e-06 -1.33311e-23)
(0.0104843 -5.57605e-06 -1.03304e-22)
(0.0105377 -6.13053e-06 -1.13511e-22)
(0.0105947 -6.6554e-06 0)
(0.0106551 -7.1813e-06 -1.80525e-22)
(0.0107188 -7.67692e-06 7.75561e-23)
(0.0107854 -8.17045e-06 -1.56607e-23)
(0.0108549 -8.63553e-06 0)
(0.010927 -9.09515e-06 0)
(0.0110015 -9.51564e-06 -3.46112e-23)
(0.0110779 -9.92598e-06 6.99016e-23)
(0.0111563 -1.03027e-05 -1.78074e-22)
(0.011236 -1.06538e-05 1.45692e-22)
(0.011317 -1.09791e-05 0)
(0.011399 -1.12694e-05 3.81523e-23)
(0.0114814 -1.15325e-05 -2.6781e-22)
(0.0115639 -1.17598e-05 -6.22753e-22)
(0.0116463 -1.19641e-05 -7.84632e-23)
(0.0117282 -1.21248e-05 6.41512e-22)
(0.0118092 -1.22593e-05 -7.30972e-22)
(0.0118891 -1.23558e-05 -6.57391e-22)
(0.0119676 -1.24511e-05 5.80315e-22)
(0.0120444 -1.24719e-05 0)
(0.0121189 -1.24905e-05 8.45316e-23)
(0.0121912 -1.24614e-05 1.69266e-22)
(0.0122611 -1.2454e-05 -6.60894e-25)
(0.0123282 -1.23057e-05 -1.27978e-21)
(0.0123916 -1.2239e-05 2.05123e-21)
(0.0124523 -1.2026e-05 0)
(0.0125092 -1.1956e-05 1.70972e-22)
(0.0125634 -1.16168e-05 -1.53292e-21)
(0.0126123 -1.14676e-05 6.78668e-22)
(0.012657 -1.09132e-05 -6.74536e-22)
(0.0126949 -1.07115e-05 0)
(0.0127299 -1.01746e-05 0)
(0.0127578 -9.72684e-06 -1.31293e-21)
(0.0127808 -9.03718e-06 0)
(0.0127964 -8.28936e-06 0)
(0.0128051 -7.3889e-06 -1.94747e-23)
(0.0128057 -6.26511e-06 6.32994e-22)
(0.0128009 -5.57153e-06 -5.97102e-22)
(0.0127902 -3.59599e-06 -2.90581e-22)
(0.0127711 -3.06385e-06 -9.11348e-24)
(0.0127627 -1.78076e-06 -8.47972e-27)
(0.012754 -1.48444e-06 -1.06277e-24)
(0.0157504 4.24836e-06 -5.85228e-23)
(0.0157031 4.43735e-06 -4.5526e-22)
(0.0157023 5.84163e-06 0)
(0.0156772 9.6635e-06 8.55672e-22)
(0.0156306 1.09805e-05 8.11346e-22)
(0.0155921 1.31365e-05 7.97775e-22)
(0.0155434 1.49129e-05 7.41411e-22)
(0.0154882 1.71942e-05 0)
(0.0154178 1.90548e-05 6.88963e-22)
(0.0153402 2.06538e-05 -6.5729e-22)
(0.0152554 2.21311e-05 -6.26165e-22)
(0.015165 2.32293e-05 0)
(0.0150702 2.43612e-05 5.66919e-22)
(0.0149696 2.49866e-05 1.07883e-21)
(0.014866 2.57703e-05 5.12572e-22)
(0.0147586 2.57943e-05 -5.47687e-22)
(0.0146525 2.61459e-05 5.24219e-22)
(0.0145433 2.59363e-05 5.41122e-23)
(0.0144365 2.58605e-05 -5.42617e-23)
(0.0143294 2.5418e-05 -2.52607e-22)
(0.0142269 2.484e-05 5.87121e-22)
(0.0141276 2.42368e-05 -9.3913e-23)
(0.0140317 2.34839e-05 3.17751e-22)
(0.0139399 2.26575e-05 3.32092e-22)
(0.0138523 2.1758e-05 1.73329e-22)
(0.0137692 2.07935e-05 4.02101e-25)
(0.0136907 1.97941e-05 -5.01592e-22)
(0.0136173 1.87298e-05 2.07407e-22)
(0.013549 1.76649e-05 2.06563e-23)
(0.0134857 1.6569e-05 -1.65555e-22)
(0.0134278 1.54628e-05 -1.87467e-22)
(0.0133752 1.43492e-05 -2.52813e-22)
(0.013328 1.32293e-05 0)
(0.0132861 1.21153e-05 1.63498e-22)
(0.0132496 1.10065e-05 -1.6752e-22)
(0.0132184 9.90389e-06 -1.71679e-22)
(0.0131927 8.8048e-06 -1.16326e-23)
(0.0131721 7.71979e-06 0)
(0.0131569 6.63417e-06 0)
(0.0131468 5.57557e-06 -9.08874e-23)
(0.0131418 4.5059e-06 4.07101e-23)
(0.0131421 3.45982e-06 0)
(0.0131474 2.40808e-06 -1.16265e-22)
(0.0131577 1.38209e-06 -6.0376e-23)
(0.0131729 3.46484e-07 2.73639e-23)
(0.0131932 -6.70155e-07 6.91437e-23)
(0.0132184 -1.69912e-06 -6.5515e-23)
(0.0132486 -2.6944e-06 -4.39303e-24)
(0.0132834 -3.71008e-06 2.04713e-23)
(0.0133231 -4.70012e-06 0)
(0.0133674 -5.68907e-06 -9.80587e-24)
(0.0134162 -6.6592e-06 -4.58152e-23)
(0.0134692 -7.62315e-06 5.16962e-24)
(0.0135265 -8.57037e-06 0)
(0.013588 -9.51545e-06 1.14378e-23)
(0.0136535 -1.04194e-05 8.15132e-23)
(0.0137228 -1.13314e-05 1.08068e-22)
(0.0137958 -1.22006e-05 -1.21646e-23)
(0.013872 -1.30582e-05 -1.01756e-22)
(0.0139514 -1.38703e-05 0)
(0.0140335 -1.46649e-05 0)
(0.0141183 -1.54138e-05 2.48835e-22)
(0.0142052 -1.61397e-05 -2.79402e-23)
(0.0142941 -1.68059e-05 0)
(0.0143844 -1.74405e-05 4.74798e-22)
(0.014476 -1.80199e-05 2.42686e-22)
(0.0145683 -1.85501e-05 -4.9556e-22)
(0.014661 -1.90294e-05 -6.38412e-23)
(0.0147538 -1.94496e-05 6.37242e-23)
(0.0148459 -1.98166e-05 -5.90278e-22)
(0.0149371 -2.01217e-05 5.98922e-22)
(0.015027 -2.03791e-05 6.82043e-23)
(0.0151152 -2.05657e-05 -6.86221e-22)
(0.0152011 -2.07012e-05 6.25308e-22)
(0.0152844 -2.07736e-05 5.63058e-22)
(0.0153649 -2.08228e-05 -5.69246e-22)
(0.0154423 -2.07673e-05 1.29411e-21)
(0.0155157 -2.06882e-05 -1.30369e-21)
(0.0155853 -2.0539e-05 -5.83879e-22)
(0.0156507 -2.03929e-05 -1.32192e-21)
(0.0157117 -2.0073e-05 7.36899e-22)
(0.0157673 -1.98167e-05 -1.18379e-21)
(0.0158184 -1.93889e-05 0)
(0.015864 -1.90837e-05 0)
(0.0159053 -1.84697e-05 1.18435e-21)
(0.0159392 -1.80147e-05 0)
(0.0159672 -1.71072e-05 1.46755e-22)
(0.0159862 -1.65349e-05 -1.46323e-22)
(0.0160006 -1.55946e-05 0)
(0.0160061 -1.47099e-05 1.0777e-21)
(0.0160051 -1.35546e-05 7.12942e-23)
(0.0159957 -1.22623e-05 0)
(0.0159785 -1.07403e-05 0)
(0.0159525 -8.91933e-06 -1.08352e-21)
(0.0159206 -7.53678e-06 5.32004e-22)
(0.0158842 -4.78696e-06 0)
(0.0158406 -3.562e-06 -5.05579e-22)
(0.0158111 -1.57184e-06 -3.94535e-24)
(0.015783 -6.0937e-07 9.62192e-25)
(0.018357 6.92623e-06 2.02637e-22)
(0.018294 8.59401e-06 3.9384e-22)
(0.0182792 1.04918e-05 0)
(0.0182441 1.51012e-05 8.39008e-26)
(0.0181869 1.75033e-05 8.82129e-26)
(0.0181377 2.04578e-05 -6.72902e-22)
(0.0180777 2.30926e-05 1.96533e-23)
(0.0180112 2.61224e-05 -1.96461e-23)
(0.0179304 2.87145e-05 -1.20593e-21)
(0.0178428 3.09414e-05 5.92246e-22)
(0.0177489 3.29428e-05 1.52216e-21)
(0.0176503 3.44935e-05 3.29916e-24)
(0.0175483 3.59539e-05 -4.15312e-22)
(0.0174413 3.68377e-05 -4.52353e-22)
(0.0173323 3.77561e-05 5.22836e-23)
(0.0172201 3.78606e-05 -2.65839e-24)
(0.0171102 3.81638e-05 3.85052e-22)
(0.016998 3.78673e-05 -2.27322e-24)
(0.016889 3.75936e-05 -8.80944e-23)
(0.0167808 3.69143e-05 4.30623e-23)
(0.016678 3.60277e-05 -3.62573e-22)
(0.0165793 3.50648e-05 6.6148e-22)
(0.016485 3.3912e-05 -6.0104e-22)
(0.0163955 3.2644e-05 -2.9171e-22)
(0.0163109 3.12728e-05 2.84553e-22)
(0.0162316 2.98081e-05 0)
(0.0161578 2.82874e-05 2.74802e-22)
(0.0160896 2.6684e-05 -1.36108e-22)
(0.0160273 2.50672e-05 -3.3927e-23)
(0.0159708 2.34096e-05 4.06934e-22)
(0.0159202 2.1736e-05 4.26373e-22)
(0.0158756 2.00502e-05 1.37895e-22)
(0.0158369 1.83575e-05 2.79959e-22)
(0.0158042 1.66696e-05 -2.85317e-22)
(0.0157774 1.49898e-05 3.61817e-28)
(0.0157565 1.33221e-05 2.70404e-27)
(0.0157416 1.16564e-05 9.77371e-24)
(0.0157325 1.00099e-05 1.4911e-22)
(0.0157291 8.36794e-06 0)
(0.0157315 6.75631e-06 8.5001e-23)
(0.0157394 5.14008e-06 0)
(0.0157531 3.55128e-06 0)
(0.0157723 1.96386e-06 9.49069e-23)
(0.0157969 4.05937e-07 0)
(0.0158268 -1.15464e-06 6.52516e-24)
(0.0158622 -2.6918e-06 -6.31486e-23)
(0.0159028 -4.23365e-06 2.75248e-23)
(0.0159486 -5.73587e-06 3.40788e-23)
(0.0159993 -7.2494e-06 -1.67473e-23)
(0.0160551 -8.73023e-06 9.67557e-25)
(0.0161155 -1.01997e-05 3.21217e-23)
(0.0161806 -1.16416e-05 6.23644e-23)
(0.0162499 -1.30646e-05 4.23798e-24)
(0.0163236 -1.44599e-05 9.08085e-24)
(0.0164013 -1.58392e-05 -9.08117e-24)
(0.0164829 -1.71638e-05 -1.62362e-22)
(0.0165679 -1.8479e-05 9.69653e-24)
(0.0166565 -1.97353e-05 0)
(0.016748 -2.09595e-05 1.6756e-22)
(0.0168422 -2.21191e-05 0)
(0.0169386 -2.32369e-05 0)
(0.0170371 -2.42869e-05 -2.0536e-22)
(0.0171372 -2.52872e-05 2.30766e-23)
(0.0172385 -2.62035e-05 -4.85475e-23)
(0.0173406 -2.70574e-05 -3.4441e-22)
(0.017443 -2.78292e-05 0)
(0.0175452 -2.85204e-05 -4.10833e-22)
(0.0176469 -2.91284e-05 0)
(0.0177476 -2.96479e-05 0)
(0.0178466 -3.00808e-05 4.36091e-22)
(0.0179436 -3.04196e-05 0)
(0.018038 -3.06782e-05 0)
(0.0181294 -3.08336e-05 1.15489e-22)
(0.0182173 -3.09051e-05 -1.15408e-22)
(0.0183012 -3.08815e-05 1.18636e-22)
(0.0183809 -3.0807e-05 1.19264e-21)
(0.0184561 -3.0604e-05 -1.08442e-21)
(0.018526 -3.03479e-05 1.09624e-21)
(0.0185907 -2.99954e-05 -1.22152e-22)
(0.0186497 -2.96152e-05 9.88992e-22)
(0.0187029 -2.90395e-05 0)
(0.0187492 -2.8485e-05 -1.99849e-21)
(0.0187896 -2.77448e-05 0)
(0.018823 -2.7073e-05 0)
(0.0188504 -2.60841e-05 2.0088e-21)
(0.0188689 -2.5182e-05 0)
(0.0188799 -2.38257e-05 2.00047e-21)
(0.0188802 -2.27162e-05 -1.99312e-21)
(0.0188743 -2.12423e-05 0)
(0.0188578 -1.97512e-05 0)
(0.0188328 -1.79461e-05 0)
(0.0187971 -1.5925e-05 2.98765e-23)
(0.0187526 -1.36527e-05 -4.45261e-23)
(0.018699 -1.10286e-05 9.47594e-22)
(0.0186395 -8.80879e-06 -7.09862e-24)
(0.0185768 -5.2862e-06 1.40356e-23)
(0.0185084 -3.14538e-06 -4.4438e-22)
(0.0184559 -3.50831e-07 4.26886e-22)
(0.0184071 1.4326e-06 6.49241e-27)
(0.0204997 1.08092e-05 1.33487e-26)
(0.0204208 1.42587e-05 6.69177e-22)
(0.0203864 1.67464e-05 1.28202e-21)
(0.0203346 2.20579e-05 1.0926e-25)
(0.0202623 2.56981e-05 -5.87215e-22)
(0.0201972 2.94647e-05 1.1302e-21)
(0.0201216 3.29564e-05 1.06155e-21)
(0.0200402 3.6682e-05 -1.01881e-21)
(0.0199461 3.99756e-05 9.68838e-22)
(0.0198463 4.2796e-05 -8.64014e-22)
(0.0197417 4.52703e-05 -9.28511e-22)
(0.0196336 4.72258e-05 0)
(0.0195234 4.89368e-05 4.77215e-23)
(0.0194096 5.00203e-05 -4.76963e-23)
(0.0192951 5.09788e-05 0)
(0.0191789 5.11088e-05 0)
(0.019066 5.12593e-05 -6.34919e-22)
(0.0189522 5.07986e-05 0)
(0.0188426 5.02251e-05 0)
(0.018735 4.9226e-05 -3.36965e-23)
(0.0186336 4.79414e-05 3.37201e-23)
(0.0185374 4.65216e-05 -2.85177e-22)
(0.0184465 4.48757e-05 2.76604e-22)
(0.0183613 4.30711e-05 -4.76268e-22)
(0.0182819 4.11336e-05 2.32212e-22)
(0.0182085 3.90745e-05 -4.83278e-22)
(0.0181413 3.6938e-05 3.85621e-25)
(0.0180805 3.47033e-05 2.49864e-22)
(0.0180262 3.2441e-05 -2.20969e-22)
(0.0179783 3.01299e-05 -2.2112e-22)
(0.017937 2.77976e-05 -2.36351e-22)
(0.0179022 2.54495e-05 1.39833e-23)
(0.017874 2.30953e-05 -2.42478e-22)
(0.0178522 2.07458e-05 1.45313e-22)
(0.0178368 1.84085e-05 1.04174e-22)
(0.0178277 1.60888e-05 1.21995e-22)
(0.0178251 1.37722e-05 0)
(0.0178287 1.14823e-05 8.20625e-24)
(0.0178385 9.20439e-06 -8.2333e-24)
(0.0178544 6.96158e-06 -1.38526e-22)
(0.0178763 4.72512e-06 -9.14003e-24)
(0.0179042 2.52015e-06 9.15221e-24)
(0.0179379 3.26761e-07 -8.7254e-23)
(0.0179774 -1.83155e-06 9.87073e-24)
(0.0180223 -3.9796e-06 5.32533e-24)
(0.0180728 -6.0972e-06 -9.77632e-23)
(0.0181286 -8.20647e-06 8.41837e-24)
(0.0181897 -1.02687e-05 -2.48556e-23)
(0.0182558 -1.23263e-05 -1.49592e-24)
(0.0183269 -1.43417e-05 1.45586e-26)
(0.0184026 -1.63299e-05 1.40019e-23)
(0.0184828 -1.82776e-05 3.23755e-23)
(0.0185671 -2.01879e-05 -1.0651e-23)
(0.0186554 -2.20546e-05 7.18618e-24)
(0.0187475 -2.38845e-05 0)
(0.0188432 -2.56429e-05 2.50203e-22)
(0.0189419 -2.73654e-05 -1.64076e-23)
(0.0190436 -2.90094e-05 1.64109e-23)
(0.0191477 -3.05932e-05 1.74384e-23)
(0.019254 -3.20887e-05 2.47713e-22)
(0.0193619 -3.35104e-05 3.27699e-22)
(0.0194711 -3.48373e-05 1.94728e-23)
(0.0195812 -3.60804e-05 -3.79291e-23)
(0.0196918 -3.72113e-05 -6.30722e-22)
(0.0198022 -3.82416e-05 0)
(0.0199122 -3.91585e-05 4.18289e-23)
(0.0200211 -3.99579e-05 1.31154e-21)
(0.0201285 -4.06365e-05 4.36546e-23)
(0.0202339 -4.1193e-05 -4.36462e-23)
(0.0203367 -4.16244e-05 -9.07462e-23)
(0.0204364 -4.19246e-05 9.07321e-23)
(0.0205325 -4.21057e-05 0)
(0.0206245 -4.21479e-05 9.54119e-23)
(0.0207119 -4.20744e-05 -1.72924e-21)
(0.0207944 -4.1879e-05 -1.32414e-24)
(0.0208717 -4.15994e-05 -8.86597e-22)
(0.0209436 -4.11665e-05 0)
(0.0210091 -4.06435e-05 -1.01148e-22)
(0.0210684 -3.99971e-05 1.01069e-22)
(0.021121 -3.92869e-05 1.74028e-21)
(0.0211668 -3.83691e-05 -1.75059e-21)
(0.0212045 -3.74154e-05 1.65702e-21)
(0.0212352 -3.62689e-05 1.45484e-21)
(0.0212577 -3.51161e-05 1.87606e-21)
(0.0212731 -3.36595e-05 -1.66906e-21)
(0.0212786 -3.21936e-05 -1.66893e-21)
(0.0212753 -3.03023e-05 7.13595e-27)
(0.0212604 -2.85251e-05 -2.99107e-26)
(0.0212378 -2.641e-05 -1.65157e-21)
(0.0212037 -2.41851e-05 -1.64105e-21)
(0.0211596 -2.16439e-05 -5.05789e-23)
(0.0211035 -1.88288e-05 -1.55898e-21)
(0.0210379 -1.57386e-05 0)
(0.0209631 -1.22511e-05 -1.56596e-21)
(0.0208822 -9.09651e-06 0)
(0.0207984 -4.80062e-06 -1.16964e-23)
(0.0207096 -1.58665e-06 1.49857e-21)
(0.0206366 2.09353e-06 -3.63102e-22)
(0.020568 4.82312e-06 -5.48031e-27)
(0.0221904 1.59367e-05 -1.42979e-22)
(0.0220975 2.11908e-05 -5.55275e-22)
(0.0220424 2.4344e-05 -1.06585e-21)
(0.0219726 3.0265e-05 -5.1849e-22)
(0.021885 3.51575e-05 7.54811e-24)
(0.0218041 3.97573e-05 -9.16817e-22)
(0.0217146 4.41372e-05 -9.01655e-22)
(0.0216206 4.85144e-05 8.44223e-22)
(0.0215159 5.24509e-05 0)
(0.021407 5.58102e-05 7.6138e-22)
(0.0212946 5.8696e-05 -1.4437e-21)
(0.0211802 6.0996e-05 1.36784e-21)
(0.0210648 6.28823e-05 0)
(0.0209475 6.40949e-05 7.47292e-23)
(0.0208308 6.50084e-05 -1.45636e-22)
(0.0207137 6.50979e-05 1.3818e-22)
(0.020601 6.50094e-05 -1.31329e-22)
(0.0204888 6.43135e-05 6.40287e-23)
(0.0203818 6.33565e-05 5.34413e-22)
(0.0202778 6.19595e-05 -2.51802e-24)
(0.0201809 6.01996e-05 -5.57745e-23)
(0.02009 5.82415e-05 0)
(0.0200051 5.60218e-05 0)
(0.0199267 5.35989e-05 -2.43425e-23)
(0.0198547 5.10133e-05 -3.83888e-22)
(0.0197895 4.82778e-05 2.37988e-23)
(0.0197309 4.54432e-05 3.71358e-22)
(0.0196793 4.24963e-05 -1.61009e-22)
(0.0196347 3.95067e-05 2.29011e-22)
(0.0195969 3.64612e-05 -2.29265e-23)
(0.0195662 3.339e-05 -1.84425e-22)
(0.0195423 3.02999e-05 1.74673e-22)
(0.0195253 2.72056e-05 1.17498e-23)
(0.0195152 2.41167e-05 1.21838e-23)
(0.0195117 2.10453e-05 1.8511e-22)
(0.0195149 1.79991e-05 -1.28321e-23)
(0.0195247 1.496e-05 -3.69086e-25)
(0.019541 1.19556e-05 1.34402e-22)
(0.0195636 8.97303e-06 -1.36804e-23)
(0.0195925 6.03155e-06 1.15137e-22)
(0.0196275 3.11159e-06 0)
(0.0196686 2.30721e-07 7.889e-24)
(0.0197156 -2.6236e-06 5.64683e-23)
(0.0197683 -5.43412e-06 0)
(0.0198264 -8.21625e-06 -6.95282e-23)
(0.01989 -1.09569e-05 7.23045e-23)
(0.0199589 -1.36705e-05 7.51454e-23)
(0.0200329 -1.63262e-05 0)
(0.0201117 -1.89545e-05 -6.45867e-25)
(0.0201952 -2.15266e-05 6.46456e-25)
(0.020283 -2.40497e-05 0)
(0.020375 -2.65141e-05 -4.53578e-23)
(0.0204707 -2.89163e-05 0)
(0.02057 -3.12526e-05 0)
(0.0206727 -3.35244e-05 0)
(0.0207783 -3.57027e-05 -1.17373e-22)
(0.0208864 -3.7811e-05 -4.25234e-25)
(0.020997 -3.98158e-05 2.77462e-23)
(0.0211093 -4.17253e-05 2.14707e-22)
(0.021223 -4.35178e-05 -2.99365e-23)
(0.0213377 -4.51979e-05 -2.12607e-22)
(0.021453 -4.67507e-05 4.9837e-22)
(0.0215683 -4.81797e-05 0)
(0.0216833 -4.94637e-05 5.25007e-22)
(0.0217974 -5.06042e-05 0)
(0.0219103 -5.15954e-05 5.85415e-22)
(0.0220212 -5.24282e-05 -5.97961e-22)
(0.0221298 -5.30991e-05 6.47861e-22)
(0.0222356 -5.36109e-05 1.46887e-24)
(0.0223379 -5.39551e-05 -7.40914e-23)
(0.0224362 -5.41275e-05 0)
(0.0225302 -5.41428e-05 7.81319e-23)
(0.0226194 -5.39907e-05 -7.80712e-23)
(0.0227033 -5.36911e-05 1.27728e-21)
(0.0227816 -5.32366e-05 0)
(0.0228541 -5.26627e-05 -1.39199e-21)
(0.0229204 -5.1916e-05 -9.3896e-25)
(0.0229798 -5.10408e-05 2.51092e-22)
(0.0230322 -5.00131e-05 -1.67822e-22)
(0.0230772 -4.88809e-05 -9.43497e-26)
(0.0231146 -4.75345e-05 1.36825e-21)
(0.0231435 -4.60894e-05 0)
(0.0231645 -4.44481e-05 -1.38079e-21)
(0.0231767 -4.27192e-05 -2.76961e-21)
(0.023181 -4.07109e-05 0)
(0.0231748 -3.85912e-05 1.38571e-21)
(0.0231591 -3.60911e-05 -1.38225e-21)
(0.0231314 -3.35579e-05 1.46475e-21)
(0.0230952 -3.07251e-05 1.28612e-21)
(0.023047 -2.76851e-05 -1.44891e-21)
(0.0229885 -2.43138e-05 8.48822e-23)
(0.0229182 -2.0624e-05 1.29749e-21)
(0.0228381 -1.66774e-05 -1.28182e-21)
(0.0227487 -1.23105e-05 1.30501e-21)
(0.0226529 -8.18742e-06 1.28743e-21)
(0.0225539 -3.13015e-06 -1.25341e-21)
(0.0224501 1.20888e-06 -6.26442e-22)
(0.0223603 5.78949e-06 -4.80857e-24)
(0.022275 9.50847e-06 4.58439e-27)
(0.0235282 2.2329e-05 6.0217e-23)
(0.0234247 2.92803e-05 -9.33344e-22)
(0.0233526 3.32251e-05 3.57024e-24)
(0.0232683 3.97186e-05 -8.60493e-22)
(0.0231691 4.5814e-05 0)
(0.0230763 5.11891e-05 0)
(0.0229767 5.63908e-05 0)
(0.0228738 6.13652e-05 0)
(0.0227621 6.58843e-05 0)
(0.0226474 6.97214e-05 0)
(0.0225306 7.29553e-05 -2.47316e-25)
(0.0224131 7.55326e-05 -1.15025e-21)
(0.0222958 7.75225e-05 -1.0898e-21)
(0.0221779 7.8792e-05 0)
(0.0220617 7.9581e-05 5.96778e-23)
(0.0219466 7.95556e-05 -5.97026e-23)
(0.0218365 7.91464e-05 -8.84045e-22)
(0.0217283 7.81353e-05 8.42102e-22)
(0.0216258 7.67144e-05 -4.01553e-22)
(0.0215275 7.48423e-05 0)
(0.0214368 7.25294e-05 4.51755e-23)
(0.0213527 6.99545e-05 -4.52434e-23)
(0.0212753 6.70832e-05 0)
(0.0212049 6.3965e-05 3.3308e-22)
(0.0211414 6.06549e-05 3.24977e-22)
(0.021085 5.71681e-05 3.18689e-22)
(0.0210359 5.3561e-05 -3.1413e-22)
(0.0209939 4.98295e-05 1.93972e-23)
(0.0209593 4.60406e-05 -1.94371e-23)
(0.0209319 4.21908e-05 1.94446e-23)
(0.0209117 3.8312e-05 4.491e-22)
(0.0208986 3.44132e-05 -1.77806e-22)
(0.0208926 3.05138e-05 4.01326e-23)
(0.0208935 2.66224e-05 -9.93472e-24)
(0.0209012 2.27556e-05 -1.67067e-22)
(0.0209157 1.89229e-05 -1.823e-22)
(0.0209369 1.51056e-05 0)