y,U_0,U_1,U_2
-2.7950884e-17,0,0,0
0.00086769924,-0.014289116,-2.821751e-06,-5.0767032e-24
0.0017874829,-0.028632062,-1.461199e-05,-6.5866273e-24
0.0027624773,-0.0431736,-3.459787e-05,-2.9487943e-24
0.0037959966,-0.057835365,-6.4778111e-05,-1.493214e-24
0.0048915537,-0.072497797,-0.0001067604,-1.7666889e-24
0.0060528726,-0.086958006,-0.00016201009,3.8604716e-24
0.0072839007,-0.10087074,-0.00023194984,4.4935539e-24
0.0085888223,-0.11371899,-0.00031858989,2.5321301e-25
0.0099720729,-0.12490996,-0.00042442085,-3.5097926e-24
0.011438354,-0.13401703,-0.00055052666,-8.4894875e-24
0.01299265,-0.14097751,-0.00069589201,-4.166985e-24
0.014640245,-0.14605493,-0.00085936815,9.9781908e-25
0.016386737,-0.14964634,-0.0010408114,-4.6391326e-24
0.018238064,-0.15212559,-0.0012404219,-4.1652859e-24
0.020200518,-0.15378393,-0.0014582909,2.5906612e-24
0.022280771,-0.15483022,-0.0016945481,3.5194683e-25
0.024485892,-0.15540955,-0.0019495169,6.6345351e-27
0.026823378,-0.15562219,-0.0022237246,-1.0625936e-24
0.029301173,-0.15553775,-0.0025178638,-2.9473608e-24
0.0319277,-0.15520503,-0.0028327597,1.1018276e-24
0.034711887,-0.15465849,-0.0031693523,-2.4049441e-24
0.037663197,-0.15392251,-0.0035286852,-1.8650583e-24
0.040791661,-0.15301427,-0.0039118993,-2.7510694e-24
0.044107915,-0.15194567,-0.0043202292,-1.1302216e-23
0.047623229,-0.15072458,-0.0047550019,-7.1282408e-24
0.051349553,-0.14935578,-0.0052176358,-4.5598822e-24
0.055299553,-0.14784154,-0.0057096423,-6.2002121e-26
0.059486654,-0.14618209,-0.0062326268,5.2042961e-24
0.06392509,-0.14437587,-0.0067882909,6.5116991e-24
0.068629948,-0.14241975,-0.0073784352,4.3704382e-24
0.073617218,-0.14030912,-0.0080049617,-3.0827993e-24
0.078903853,-0.13803802,-0.0086698773,-2.3816152e-24
0.084507823,-0.13559908,-0.0093752968,5.5802156e-24
0.090448176,-0.13298356,-0.010123446,-3.7387347e-24
0.096745104,-0.13018127,-0.010916665,-1.5424947e-23
0.10342001,-0.12718049,-0.011757412,-1.7376737e-24
0.11049558,-0.12396789,-0.012648266,-1.245191e-23
0.11799587,-0.1205283,-0.013591926,-1.7243097e-23
0.12594638,-0.11684464,-0.01459122,2.1877506e-23
0.13437411,-0.11289762,-0.015649099,2.3546069e-23
0.14330773,-0.10866553,-0.01676864,-1.2983321e-23
0.1527776,-0.10412394,-0.017953047,-1.2640677e-24
0.1628159,-0.099245336,-0.019205644,-1.7506769e-24
0.17345677,-0.093998773,-0.020529869,-3.4608045e-23
0.18473635,-0.088349375,-0.021929272,8.9273403e-25
0.19669301,-0.082257832,-0.023407496,7.664956e-23
0.20936737,-0.075679809,-0.024968261,6.4021476e-23
0.22280253,-0.068565262,-0.02661534,4.2466599e-23
0.23704414,-0.060857685,-0.028352525,5.5261827e-23
0.25214061,-0.052493244,-0.030183569,-1.1779435e-23
0.26814327,-0.043399738,-0.032112132,-5.2995035e-24
0.28510649,-0.033495541,-0.034141698,3.4977887e-23
0.30308795,-0.022688765,-0.036275449,-4.481506e-24
0.32214876,-0.010876138,-0.038516215,-2.2382213e-23
0.34235371,0.0020570283,-0.040865719,5.2673729e-23
0.36377149,0.016234954,-0.043323649,-2.8055773e-23
0.38647488,0.031798032,-0.04588869,1.178465e-22
0.41054106,0.048907136,-0.048558576,4.2685842e-22
0.43605183,0.067739791,-0.051328474,1.8935848e-22
0.46309391,0.088489668,-0.054190075,2.216642e-22
0.49175922,0.11136504,-0.057130522,6.0776172e-22
0.52214518,0.13658544,-0.06013091,2.1632624e-22
0.55435509,0.16437554,-0.063164391,-2.4426362e-22
0.58849842,0.19495518,-0.066193964,1.2170884e-22
0.62469124,0.22852584,-0.069170296,1.7935378e-22
0.66305656,0.26524465,-0.072028196,2.4810908e-23
0.70372479,0.30518391,-0.074686041,-1.2564916e-22
0.74683417,0.34830382,-0.077045767,-8.6487315e-24
0.79253123,0.39442312,-0.078994735,6.6782859e-22
0.84097128,0.44316186,-0.080410873,1.3445105e-22
0.892319,0.49389706,-0.081169368,-8.0202004e-22
0.9467489,0.54573313,-0.081158894,-5.6108345e-24
1.004446,0.59748357,-0.080307916,3.5721295e-22
1.0656064,0.64773115,-0.078617285,6.8745929e-22
1.1304381,0.69503792,-0.076185403,4.2903386e-22
1.1668475,0.71794504,-0.074602168,1.9202194e-22
1.1991613,0.73827997,-0.073195021,-2.7172784e-23
1.2720096,0.77693708,-0.069858816,1.2529282e-22
1.3492308,0.811158,-0.066350601,3.2400504e-22
1.4310872,0.84156872,-0.062768295,4.5195216e-22
1.5178571,0.8687139,-0.059186051,-7.1493777e-22
1.6046271,0.8924269,-0.055750801,-6.0402417e-22
1.6864835,0.91268679,-0.052575022,3.6453694e-22
1.7637046,0.93010604,-0.049647137,2.3459673e-22
1.836553,0.94527483,-0.046928294,2.8764734e-22
1.9052762,0.95859114,-0.044391093,4.9045835e-22
1.9701079,0.97033915,-0.042015356,5.603528e-22
2.0312683,0.98073284,-0.039785678,5.324379e-22
2.0889654,0.98994037,-0.037689737,1.6464794e-22
2.1433953,0.99809818,-0.035717267,5.8295104e-23
2.194743,1.0053195,-0.033859458,-1.5478469e-22
2.2431831,1.0116996,-0.032108564,-1.6201091e-22
2.2888801,1.0173199,-0.030457599,-5.6183234e-24
2.3319895,1.0222496,-0.028900234,-1.6369474e-22
2.3726577,1.0265477,-0.027430657,6.3125585e-23
2.411023,1.0302651,-0.026043451,3.4312923e-22
2.4472159,1.033445,-0.024733583,3.8761186e-23
2.4813592,1.036124,-0.023496344,8.1780991e-23
2.5135691,1.0383328,-0.022327302,3.1459524e-22
2.5439551,1.0400966,-0.021222278,3.7895527e-23
2.5726204,1.0414356,-0.020177323,-5.2534936e-23
2.5826559,1.0417807,-0.019810415,-3.4113883e-23
2.5996625,1.0423654,-0.019188531,-2.3487012e-24
2.6251732,1.0428972,-0.018252444,-6.1141184e-23
2.6492394,1.0430383,-0.017365769,-6.0596655e-23
2.6719428,1.0427918,-0.016525265,-7.5541809e-23
2.6933606,1.0421571,-0.015727834,2.5796822e-23
2.7135655,1.04113,-0.014970501,6.4584968e-23
2.7326263,1.0397024,-0.01425041,-1.0061716e-22
2.7506078,1.0378629,-0.01356481,-1.1350212e-22
2.767571,1.0355964,-0.012911053,-1.2261077e-22
2.7835737,1.0328845,-0.01228659,-2.0631479e-22
2.7986701,1.0297058,-0.011688978,-1.1095847e-22
2.8129118,1.0260362,-0.011115884,-3.4756458e-23
2.8263469,1.021849,-0.0105651,-7.9932248e-23
2.8390213,1.0171165,-0.010034567,-2.7533058e-23
2.8509779,1.0118098,-0.0095223952,2.4974311e-23
2.8622575,1.0059009,-0.0090268995,-7.5296619e-23
2.8728984,0.99936344,-0.0085466285,-8.9074433e-23
2.8829367,0.99217418,-0.0080803849,-3.7120398e-24
2.8924066,0.98431426,-0.0076272481,5.6338344e-23
2.9013402,0.97577052,-0.0071865878,-1.9094654e-24
2.9097679,0.96653643,-0.0067580584,-3.2598006e-23
2.9177184,0.95661251,-0.0063415778,2.0168472e-23
2.9252187,0.94600643,-0.0059372951,3.5566173e-23
2.9322943,0.9347325,-0.0055455435,-2.0862267e-24
2.9389692,0.92281074,-0.005166787,-3.1200841e-23
2.9452661,0.91026558,-0.0048015622,-1.9030434e-23
2.9512065,0.89712431,-0.0044504242,-2.4176937e-23
2.9568104,0.88341536,-0.0041138964,-1.4579957e-23
2.9620971,0.86916658,-0.0037924306,7.7289935e-24
2.9670843,0.8544035,-0.003486378,1.6966419e-23
2.9717892,0.83914788,-0.0031959689,1.462996e-23
2.9762276,0.82341618,-0.0029213051,1.3085304e-23
2.9804147,0.80721831,-0.0026623604,-1.6379682e-23
2.9843647,0.79055638,-0.0024189822,-2.9631672e-23
2.9880911,0.77342369,-0.0021909073,-9.248622e-24
2.9916064,0.75580369,-0.0019777783,3.1881929e-24
2.9949226,0.73766867,-0.0017791517,8.1379565e-24
2.9980511,0.71897834,-0.0015945179,9.5974716e-24
3.0010024,0.69967816,-0.0014233185,1.9795766e-25
3.0037866,0.67969737,-0.0012649569,-3.7338733e-24
3.0064131,0.65894627,-0.0011188129,5.2933855e-24
3.0088909,0.63731305,-0.00098425416,-5.9120469e-24
3.0112284,0.61465954,-0.00086064346,-4.6322025e-24
3.0134335,0.59081615,-0.00074734529,1.2902404e-24
3.0155138,0.56557586,-0.00064372958,-4.8949296e-24
3.0174762,0.53868791,-0.00054918856,-1.0097251e-24
3.0193275,0.50985306,-0.00046324504,-1.6946737e-24
3.021074,0.47872525,-0.0003858891,-4.6885382e-24
3.0227216,0.44493125,-0.00031794166,6.2209206e-24
3.0242759,0.40813207,-0.00026011817,8.4104315e-24
3.0257422,0.3681633,-0.00020988335,2.891198e-26
3.0271255,0.32527025,-0.00016130375,-7.2352045e-25
3.0284304,0.28032778,-0.00011330449,-9.0497826e-26
3.0296614,0.234767,-7.3290452e-05,-1.6730885e-24
3.0308227,0.19009126,-4.6220851e-05,-6.8001066e-25
3.0319183,0.14735444,-2.867494e-05,-2.4197824e-24
3.0329518,0.10702513,-1.6054769e-05,-5.7819505e-24
3.0339268,0.069175723,-7.0245174e-06,-4.542439e-24
3.0348466,0.033705968,-1.4433286e-06,-1.3167005e-24
3.0357143,0,0,0
