/*--------------------------------*- C++ -*----------------------------------*\
  =========                 |
  \\      /  F ield         | OpenFOAM: The Open Source CFD Toolbox
   \\    /   O peration     | Website:  https://openfoam.org
    \\  /    A nd           | Version:  7
     \\/     M anipulation  |
\*---------------------------------------------------------------------------*/
FoamFile
{
    version     2.0;
    format      ascii;
    class       volScalarField;
    location    "25000";
    object      nut;
}
// * * * * * * * * * * * * * * * * * * * * * * * * * * * * * * * * * * * * * //

dimensions      [0 2 -1 0 0 0 0];

internalField   nonuniform List<scalar> 
2473
(
7.87858e-05
8.7391e-05
9.68881e-05
0.00010736
0.000118882
0.000131524
0.000144486
0.000145339
0.000159425
0.000160363
0.000175588
0.000176612
0.000192969
0.000194078
0.000211534
0.000212728
0.000229904
0.000231225
0.000232502
0.000250552
0.000251959
0.000253317
0.000272139
0.000273628
0.000275063
0.000294537
0.000296102
0.000297609
0.000315895
0.000317597
0.000319233
0.000320805
0.00033939
0.000341158
0.000342856
0.000344486
0.000363218
0.000365042
0.000366793
0.000368474
0.000387197
0.000389065
0.00039086
0.000392581
0.000409165
0.000411137
0.000413039
0.000414866
0.000416618
0.000432854
0.000434848
0.000436772
0.00043862
0.000440391
0.000456141
0.000458144
0.000460076
0.000461932
0.000463713
0.000476775
0.000478844
0.000480841
0.000482768
0.000484621
0.000486398
0.000498743
0.000500789
0.000502766
0.000504674
0.00050651
0.000508273
0.000519806
0.000521814
0.000523757
0.000525632
0.000527438
0.000529173
0.000537797
0.000539815
0.00054177
0.000543662
0.00054549
0.000547253
0.00054895
0.00055669
0.000558634
0.00056052
0.000562347
0.000564114
0.000565822
0.000567467
0.00057429
0.000576145
0.000577946
0.000579692
0.000581386
0.000583024
0.000584606
0.000588696
0.000590494
0.000592243
0.000593944
0.000595596
0.000597201
0.000598758
0.000600266
0.000603543
0.000605214
0.000606842
0.000608428
0.000609972
0.000611476
0.000612939
0.00061436
0.00061685
0.000618379
0.000619871
0.000621328
0.000622751
0.00062414
0.000625497
0.000626821
0.000627155
0.000628559
0.000629931
0.000631274
0.000632588
0.000633877
0.00063514
0.000636379
0.000637595
0.000637398
0.000638625
0.000639827
0.000641006
0.000642166
0.000643309
0.000644434
0.000645545
0.000646641
0.000645975
0.000647011
0.000648031
0.000649037
0.000650031
0.000651015
0.000651993
0.000652964
0.000653932
0.000652008
0.000652857
0.000653692
0.000654519
0.000655339
0.000656157
0.000656974
0.000657793
0.000658616
0.000659445
0.000657391
0.00065802
0.000658644
0.000659267
0.000659893
0.000660525
0.000661165
0.000661817
0.000662483
0.000663165
0.000661043
0.000661442
0.000661844
0.000662254
0.000662676
0.000663113
0.000663569
0.000664046
0.000664547
0.000665075
0.000662788
0.00066294
0.000663098
0.000663268
0.000663456
0.000663665
0.000663899
0.000664161
0.000664456
0.000664785
0.000665152
0.000663169
0.000663058
0.000662963
0.000662889
0.000662842
0.000662827
0.000662847
0.000662908
0.000663012
0.000663163
0.000663363
0.000662169
0.000661765
0.000661377
0.000661011
0.000660677
0.00066038
0.000660125
0.000659919
0.000659765
0.000659668
0.000659631
0.000659659
0.000659279
0.00065857
0.000657884
0.000657226
0.000656609
0.000656039
0.000655524
0.00065507
0.000654683
0.000654368
0.000654131
0.000653976
0.000654654
0.000653624
0.000652619
0.000651647
0.000650721
0.000649849
0.000649044
0.000648312
0.000647662
0.000647099
0.000646633
0.000646269
0.000649302
0.000648519
0.000647175
0.000645855
0.000644565
0.00064332
0.000642128
0.000641006
0.000639962
0.000639009
0.000638152
0.000637404
0.000636777
0.00063587
0.00063771
0.000639141
0.00063817
0.000636584
0.000635035
0.000633528
0.000632082
0.000630706
0.000629419
0.000628226
0.000627139
0.000626182
0.000618991
0.000621283
0.000623472
0.000625363
0.000626889
0.000628022
0.00062646
0.000624654
0.000622893
0.000621186
0.000619552
0.000618005
0.000616545
0.00061521
0.000604812
0.000606929
0.000608956
0.000610845
0.000612651
0.000614187
0.000615364
0.000615909
0.000613842
0.000611816
0.000609843
0.000607938
0.000606094
0.00060436
0.00058942
0.00059135
0.000593199
0.00059497
0.000596669
0.000598308
0.000599839
0.000601313
0.000602506
0.000603346
0.000602842
0.000600539
0.000598308
0.000596091
0.000593957
0.000576853
0.000578469
0.000580009
0.000581483
0.000582905
0.000584283
0.000585622
0.000586932
0.000588163
0.000589347
0.000590239
0.000590798
0.000589352
0.000586773
0.000584248
0.000564473
0.000565698
0.000566845
0.000567928
0.000568961
0.000569959
0.000570935
0.0005719
0.000572862
0.000573824
0.000574755
0.000575609
0.000576198
0.000576489
0.000574855
0.000550931
0.000551897
0.000552765
0.00055355
0.000554267
0.000554932
0.000555562
0.000556172
0.000556779
0.000557399
0.000558038
0.000558709
0.000559399
0.00056011
0.000560702
0.000561043
0.000538895
0.000539498
0.000539998
0.000540409
0.000540748
0.000541031
0.000541274
0.000541495
0.00054171
0.000541935
0.000542184
0.000542475
0.000542811
0.000543201
0.000543608
0.000544051
0.000526761
0.000527107
0.000527327
0.000527437
0.000527452
0.000527388
0.000527262
0.00052709
0.000526889
0.000526675
0.000526463
0.00052627
0.000526113
0.000526002
0.000525951
0.00052597
0.000526067
0.000515643
0.000515595
0.000515413
0.000515111
0.000514705
0.000514212
0.000513649
0.000513032
0.000512376
0.000511698
0.000511014
0.000510338
0.000509688
0.000509078
0.000508525
0.000508047
0.000507654
0.000504935
0.000504482
0.000503883
0.000503154
0.000502312
0.000501373
0.000500354
0.000499271
0.000498139
0.000496974
0.000495791
0.000494606
0.000493433
0.000492289
0.000491191
0.000490154
0.000489194
0.000495585
0.000494905
0.00049405
0.000493036
0.00049188
0.000490599
0.000489211
0.000487731
0.000486177
0.000484563
0.000482904
0.000481215
0.000479509
0.000477802
0.000476109
0.000474443
0.00047282
0.000471255
0.000469763
0.000487004
0.000485957
0.000484718
0.000483306
0.000481738
0.000480033
0.000478209
0.000476282
0.000474269
0.000472185
0.000470044
0.00046786
0.000465646
0.000463416
0.000461181
0.000458957
0.000456755
0.000454588
0.000452471
0.000479902
0.00047851
0.000476909
0.00047512
0.000473164
0.000471059
0.000468824
0.000466476
0.000464032
0.000461505
0.000458911
0.000456261
0.000453568
0.000450844
0.0004481
0.000445349
0.000442602
0.000439869
0.000437162
0.000475838
0.00047438
0.000472671
0.000470739
0.000468609
0.0004663
0.000463833
0.000461228
0.000458502
0.000455669
0.000452746
0.000449746
0.000446679
0.000443559
0.000440395
0.000437199
0.00043398
0.00043075
0.000427517
0.000424291
0.000472065
0.000470348
0.000468371
0.00046616
0.00046374
0.000461134
0.000458362
0.000455444
0.000452398
0.000449239
0.000445982
0.00044264
0.000439225
0.000435748
0.000432218
0.000428646
0.000425041
0.000421413
0.00041777
0.000414121
0.000471382
0.000469761
0.000467843
0.000465655
0.000463224
0.000460575
0.000457731
0.000454715
0.000451546
0.000448243
0.000444823
0.000441299
0.000437685
0.000433992
0.00043023
0.000426411
0.000422542
0.000418634
0.000414694
0.00041073
0.000406749
0.000470722
0.000468973
0.000466914
0.000464573
0.000461978
0.000459156
0.000456132
0.000452929
0.000449569
0.000446069
0.000442447
0.000438718
0.000434895
0.000430989
0.00042701
0.000422968
0.000418872
0.000414731
0.000410551
0.000406339
0.000402101
0.000471539
0.000469716
0.000467568
0.000465125
0.000462417
0.000459473
0.000456319
0.00045298
0.000449479
0.000445834
0.000442063
0.000438181
0.000434202
0.000430137
0.000425995
0.000421785
0.000417516
0.000413195
0.00040883
0.000404423
0.000399981
0.000475264
0.000473788
0.000471937
0.000469743
0.00046724
0.000464462
0.000461438
0.000458197
0.000454766
0.000451166
0.000447419
0.000443542
0.000439551
0.000435459
0.000431277
0.000427014
0.000422678
0.000418276
0.000413817
0.000409304
0.000404741
0.00040013
0.000478792
0.000477339
0.00047549
0.000473284
0.000470757
0.000467943
0.000464876
0.000461585
0.000458098
0.000454438
0.000450626
0.000446681
0.000442617
0.000438448
0.000434185
0.000429835
0.000425406
0.000420904
0.000416336
0.000411705
0.000407011
0.000402256
0.000483363
0.000481951
0.000480128
0.000477935
0.000475411
0.000472592
0.000469514
0.000466207
0.000462699
0.000459013
0.000455172
0.000451193
0.000447091
0.000442879
0.000438567
0.000434162
0.00042967
0.000425096
0.000420447
0.000415724
0.000410925
0.00040605
0.000489556
0.000488655
0.000487292
0.000485508
0.000483346
0.000480848
0.000478052
0.000474993
0.000471701
0.000468206
0.000464529
0.000460693
0.000456715
0.00045261
0.000448389
0.000444062
0.000439635
0.000435111
0.000430496
0.000425795
0.000421009
0.000416133
0.000411166
0.000495149
0.000494305
0.000492995
0.00049126
0.000489147
0.000486695
0.000483945
0.00048093
0.000477681
0.000474227
0.00047059
0.000466791
0.000462846
0.000458769
0.000454573
0.000450263
0.000445846
0.000441323
0.000436699
0.000431979
0.000427162
0.000422243
0.000417217
0.000500842
0.000500064
0.000498821
0.000497153
0.000495104
0.000492716
0.000490025
0.000487068
0.000483875
0.000480476
0.000476892
0.000473145
0.00046925
0.000465221
0.000461068
0.000456799
0.000452416
0.00044792
0.000443314
0.000438605
0.000433789
0.000428862
0.000423816
0.000506852
0.000506691
0.000506037
0.00050491
0.000503343
0.000501379
0.000499059
0.000496424
0.000493512
0.000490358
0.000486993
0.000483441
0.000479724
0.000475859
0.000471861
0.00046774
0.000463504
0.000459154
0.000454689
0.000450111
0.000445427
0.000440636
0.000435728
0.000430696
0.000513229
0.000513363
0.000512976
0.000512064
0.000510654
0.000508792
0.000506527
0.000503909
0.000500987
0.000497804
0.000494396
0.000490795
0.000487027
0.000483114
0.000479073
0.000474917
0.000470656
0.000466292
0.000461821
0.000457246
0.000452577
0.000447807
0.000442926
0.000437925
0.000521569
0.000522326
0.000522441
0.000521888
0.000520698
0.000518936
0.000516677
0.000513991
0.000510947
0.000507603
0.000504011
0.000500214
0.000496247
0.000492139
0.000487914
0.00048359
0.000479183
0.0004747
0.000470138
0.000465501
0.000460796
0.000456013
0.000451137
0.000446155
0.000531269
0.000533901
0.000535706
0.000536588
0.000536516
0.000535568
0.000533858
0.000531504
0.000528616
0.000525291
0.000521613
0.000517654
0.000513473
0.000509117
0.000504628
0.000500038
0.000495374
0.000490659
0.000485912
0.000481138
0.000476348
0.000471531
0.00046667
0.000461746
0.000456748
0.000547764
0.000552303
0.000555445
0.000557179
0.000557554
0.000556753
0.000554968
0.000552379
0.000549142
0.00054539
0.000541235
0.00053677
0.000532069
0.000527194
0.000522198
0.00051712
0.000511995
0.000506856
0.00050173
0.000496646
0.000491635
0.00048663
0.000481623
0.000476593
0.000471533
0.000570792
0.000577135
0.000581222
0.000583348
0.00058378
0.000582832
0.000580777
0.000577845
0.000574222
0.000570063
0.000565493
0.000560615
0.000555511
0.000550249
0.000544882
0.000539453
0.000533998
0.000528546
0.000523124
0.000517784
0.000512573
0.000507373
0.0005022
0.000497049
0.000491921
0.000598152
0.000603723
0.000606703
0.000607732
0.000607276
0.000605678
0.000603197
0.000600032
0.000596338
0.000592238
0.000587829
0.000583188
0.000578379
0.00057345
0.000568442
0.000563383
0.000558296
0.000553193
0.000548076
0.000542932
0.000537701
0.000532463
0.000527256
0.000522103
0.000517014
0.000614724
0.00062108
0.000618809
0.000615811
0.000612855
0.000609936
0.000607046
0.000604175
0.000601314
0.000598452
0.00059558
0.00059269
0.000589774
0.000586826
0.000583838
0.000580804
0.000577718
0.000574573
0.000571361
0.000568076
0.000564369
0.000559587
0.000554785
0.000549988
0.000545226
0.000540507
0.000623661
0.000620442
0.000617269
0.00061418
0.00061118
0.000608258
0.000605398
0.000602587
0.000599807
0.000597046
0.00059429
0.000591529
0.000588753
0.000585952
0.000583118
0.000580243
0.000577319
0.000574338
0.000571293
0.000568175
0.000564973
0.000561678
0.00055829
0.000554802
0.000551207
0.000547494
0.000621381
0.000617946
0.000614632
0.000611458
0.000608418
0.000605496
0.000602669
0.000599916
0.000597218
0.000594557
0.000591917
0.000589283
0.000586644
0.000583988
0.000581305
0.000578586
0.000575821
0.000573001
0.000570118
0.000567163
0.000564124
0.000560994
0.000557769
0.000554442
0.000551005
0.00054745
0.000617958
0.000614315
0.000610866
0.00060761
0.000604535
0.000601614
0.000598821
0.000596128
0.000593511
0.000590949
0.000588422
0.000585914
0.000583409
0.000580895
0.00057836
0.000575793
0.000573183
0.000570521
0.000567797
0.000565
0.00056212
0.000559149
0.000556081
0.000552908
0.000549624
0.000546217
0.000617459
0.000613367
0.000609525
0.000605943
0.00060261
0.000599502
0.000596585
0.000593826
0.000591193
0.000588657
0.000586192
0.000583776
0.00058139
0.000579018
0.000576643
0.000574252
0.000571834
0.000569376
0.000566867
0.000564296
0.000561654
0.000558928
0.00055611
0.000553194
0.00055017
0.000547031
0.000543767
0.000611954
0.000607589
0.000603554
0.000599846
0.000596439
0.000593301
0.00059039
0.000587666
0.000585092
0.000582635
0.000580266
0.000577959
0.000575693
0.000573449
0.00057121
0.00056896
0.000566687
0.000564377
0.000562017
0.000559596
0.000557103
0.000554527
0.000551857
0.000549086
0.000546206
0.000543207
0.000540079
0.000605244
0.000600614
0.000596392
0.000592562
0.000589086
0.00058592
0.000583017
0.000580329
0.000577814
0.000575435
0.000573159
0.000570959
0.000568811
0.000566692
0.000564585
0.000562473
0.000560341
0.000558174
0.000555959
0.000553684
0.000551336
0.000548904
0.000546378
0.000543748
0.000541005
0.00053814
0.000535142
0.000597324
0.000592436
0.000588035
0.000584089
0.000580549
0.00057736
0.000574467
0.000571815
0.000569359
0.000567057
0.000564873
0.000562777
0.000560743
0.000558746
0.000556768
0.000554789
0.000552794
0.000550766
0.000548692
0.000546558
0.000544351
0.000542059
0.000539671
0.000537177
0.000534567
0.000531831
0.000528958
0.00059392
0.000588198
0.000583061
0.00057849
0.000574436
0.000570838
0.00056763
0.000564749
0.000562135
0.000559738
0.000557511
0.000555417
0.000553423
0.000551499
0.000549621
0.000547767
0.000545918
0.000544055
0.000542162
0.000540224
0.000538227
0.000536156
0.000534
0.000531745
0.000529382
0.0005269
0.000524289
0.000521537
0.000583936
0.000577879
0.000572503
0.000567772
0.00056362
0.000559971
0.000556749
0.000553883
0.000551309
0.00054897
0.000546818
0.000544812
0.000542916
0.0005411
0.000539337
0.000537604
0.000535879
0.000534145
0.000532382
0.000530576
0.000528711
0.000526772
0.000524746
0.00052262
0.000520384
0.000518026
0.000515535
0.000512899
0.000572769
0.000566387
0.000560788
0.00055591
0.00055167
0.000547977
0.000544748
0.000541901
0.000539368
0.000537088
0.00053501
0.00053309
0.00053129
0.000529577
0.000527925
0.000526308
0.000524704
0.000523093
0.000521457
0.000519777
0.000518039
0.000516227
0.000514327
0.000512326
0.000510212
0.000507974
0.000505599
0.000503076
0.000560446
0.000553757
0.00054795
0.00054294
0.000538624
0.000534898
0.000531667
0.000528843
0.000526353
0.000524133
0.000522128
0.000520291
0.000518584
0.000516972
0.000515427
0.000513922
0.000512434
0.000510941
0.000509426
0.000507868
0.000506253
0.000504563
0.000502784
0.000500903
0.000498908
0.000496784
0.000494523
0.000492112
0.000547008
0.000540031
0.000534034
0.00052891
0.000524532
0.000520782
0.000517556
0.000514761
0.000512316
0.000510156
0.000508222
0.000506467
0.00050485
0.000503335
0.000501893
0.000500495
0.000499118
0.00049774
0.00049634
0.000494899
0.000493401
0.000491829
0.000490167
0.000488402
0.00048652
0.000484509
0.000482359
0.000480058
0.000540892
0.000532504
0.000525261
0.000519097
0.000513876
0.000509451
0.000505689
0.000502476
0.000499713
0.000497317
0.000495217
0.000493354
0.000491679
0.000490149
0.000488727
0.000487383
0.000486088
0.000484817
0.000483547
0.000482258
0.00048093
0.000479544
0.000478084
0.000476534
0.00047488
0.000473109
0.000471208
0.000469167
0.000466974
0.000525747
0.000516992
0.000509508
0.000503202
0.000497905
0.000493448
0.000489685
0.000486493
0.000483769
0.000481423
0.000479385
0.000477592
0.000475995
0.000474549
0.000473216
0.000471966
0.000470769
0.000469599
0.000468433
0.000467249
0.000466027
0.000464749
0.000463396
0.000461953
0.000460406
0.000458742
0.000456949
0.000455015
0.000452927
0.000509632
0.000500538
0.000492843
0.000486422
0.00048107
0.000476598
0.000472846
0.000469684
0.000467003
0.000464712
0.000462736
0.000461013
0.000459491
0.000458126
0.000456879
0.000455718
0.000454614
0.00045354
0.000452472
0.000451388
0.000450267
0.000449091
0.00044784
0.0004465
0.000445056
0.000443496
0.000441807
0.000439977
0.000437995
0.000492619
0.000483218
0.000475344
0.000468835
0.000463451
0.000458982
0.000455254
0.00045213
0.000449498
0.000447264
0.000445351
0.000443697
0.000442249
0.000440962
0.000439797
0.000438721
0.000437706
0.000436722
0.000435747
0.000434757
0.000433732
0.000432651
0.000431498
0.000430256
0.000428912
0.000427452
0.000425864
0.000424137
0.000422257
0.000474785
0.000465113
0.000457095
0.000450528
0.000445137
0.000440687
0.000436996
0.000433919
0.000431342
0.000429167
0.000427319
0.000425734
0.000424357
0.000423145
0.000422058
0.000421063
0.000420131
0.000419233
0.000418345
0.000417443
0.000416508
0.000415517
0.000414456
0.000413308
0.000412059
0.000410696
0.000409207
0.00040758
0.000405802
0.000456215
0.00044631
0.000438185
0.000431591
0.000426216
0.000421804
0.000418162
0.000415142
0.000412625
0.000410514
0.000408731
0.000407213
0.000405907
0.000404766
0.000403754
0.000402835
0.000401981
0.000401163
0.000400357
0.000399538
0.000398686
0.000397781
0.000396807
0.000395748
0.000394591
0.000393321
0.000391927
0.000390397
0.000388719
0.000448905
0.000436998
0.000426903
0.000418709
0.00041212
0.000406785
0.000402429
0.000398848
0.000395892
0.000393441
0.000391396
0.000389681
0.00038823
0.000386991
0.00038592
0.000384978
0.000384131
0.00038335
0.000382607
0.000381877
0.000381135
0.000380361
0.000379536
0.000378645
0.000377671
0.0003766
0.00037542
0.000374119
0.000372684
0.000371104
0.000429403
0.000417227
0.000406985
0.000398763
0.000392211
0.00038694
0.000382657
0.00037915
0.000376267
0.000373887
0.000371912
0.000370264
0.00036888
0.000367707
0.000366703
0.000365827
0.000365048
0.000364335
0.000363662
0.000363001
0.00036233
0.000361629
0.00036088
0.000360066
0.000359172
0.000358185
0.000357091
0.000355878
0.000354535
0.000353051
0.000409392
0.000396998
0.000386656
0.000378446
0.000371964
0.000366779
0.000362585
0.000359164
0.000356362
0.000354059
0.000352156
0.000350576
0.000349259
0.000348151
0.000347209
0.000346397
0.000345681
0.000345032
0.000344422
0.000343826
0.000343221
0.000342588
0.000341909
0.000341168
0.00034035
0.000339441
0.000338429
0.000337302
0.000336048
0.000334657
0.000388965
0.000376408
0.000366015
0.000357858
0.000351476
0.000346401
0.000342313
0.000338988
0.000336275
0.000334053
0.000332225
0.000330715
0.000329462
0.000328417
0.000327537
0.000326784
0.000326128
0.000325538
0.000324986
0.000324449
0.000323905
0.000323335
0.000322721
0.000322048
0.000321301
0.000320466
0.000319532
0.000318487
0.00031732
0.00031602
0.00036822
0.000355556
0.00034516
0.000337098
0.000330846
0.000325902
0.000321934
0.000318717
0.000316099
0.000313963
0.000312212
0.000310773
0.000309586
0.000308602
0.00030778
0.000307083
0.000306482
0.000305945
0.000305447
0.000304965
0.000304477
0.000303965
0.000303411
0.000302801
0.00030212
0.000301356
0.000300496
0.00029953
0.000298445
0.000297234
0.000347252
0.000334539
0.00032419
0.000316263
0.000310171
0.000305378
0.000301544
0.000298444
0.000295929
0.000293882
0.000292211
0.000290842
0.00028972
0.000288795
0.000288029
0.000287386
0.000286835
0.000286348
0.000285899
0.000285467
0.00028503
0.000284571
0.000284073
0.000283522
0.000282903
0.000282205
0.000281414
0.000280523
0.000279519
0.000278392
0.000326154
0.000313453
0.000303203
0.00029545
0.000289544
0.000284921
0.000281233
0.000278259
0.000275852
0.0002739
0.00027231
0.000271013
0.000269954
0.000269088
0.000268375
0.000267781
0.000267277
0.000266835
0.000266431
0.000266045
0.000265655
0.000265244
0.000264797
0.0002643
0.000263738
0.000263102
0.000262378
0.000261558
0.00026063
0.000259586
0.000305021
0.000292393
0.000282292
0.00027475
0.000269056
0.000264619
0.00026109
0.000258249
0.000255956
0.0002541
0.000252594
0.000251369
0.000250374
0.000249564
0.000248902
0.000248354
0.000247893
0.000247493
0.00024713
0.000246785
0.000246437
0.000246071
0.000245671
0.000245223
0.000244715
0.000244137
0.000243475
0.000242722
0.000241867
0.000240902
0.000297653
0.000283942
0.00027145
0.000261547
0.000254253
0.000248794
0.000244557
0.000241197
0.000238497
0.000236322
0.000234566
0.000233144
0.000231992
0.00023106
0.000230305
0.000229691
0.000229187
0.000228765
0.000228404
0.000228079
0.000227771
0.000227461
0.000227135
0.000226777
0.000226375
0.000225916
0.000225391
0.000224788
0.000224099
0.000223313
0.000222424
0.00027645
0.000263006
0.000250712
0.000241056
0.000234043
0.00022884
0.000224817
0.000221635
0.000219081
0.000217028
0.000215375
0.000214038
0.000212959
0.000212088
0.000211387
0.000210819
0.000210355
0.000209971
0.000209645
0.000209353
0.00020908
0.000208804
0.000208514
0.000208194
0.000207834
0.000207421
0.000206946
0.000206396
0.000205768
0.000205048
0.000204232
0.000255395
0.000242295
0.000230263
0.000220902
0.000214201
0.000209272
0.000205475
0.000202477
0.000200075
0.000198147
0.000196598
0.000195348
0.000194341
0.000193532
0.000192881
0.000192358
0.000191932
0.000191583
0.000191289
0.000191028
0.000190785
0.00019054
0.000190283
0.000189998
0.000189675
0.000189304
0.000188874
0.000188376
0.000187804
0.000187147
0.0001864
0.000234571
0.000221891
0.000210184
0.000201164
0.000194803
0.000190162
0.0001866
0.000183794
0.000181547
0.000179747
0.000178304
0.000177141
0.000176207
0.000175458
0.000174857
0.000174376
0.000173986
0.000173669
0.000173405
0.000173172
0.000172955
0.000172739
0.00017251
0.000172256
0.000171968
0.000171635
0.000171248
0.000170797
0.000170278
0.00016968
0.000168998
0.000214056
0.00020187
0.00019055
0.000181916
0.000175919
0.000171581
0.000168262
0.000165651
0.000163563
0.000161893
0.000160556
0.000159481
0.000158618
0.000157928
0.000157376
0.000156935
0.00015658
0.000156293
0.000156056
0.000155848
0.000155656
0.000155464
0.000155261
0.000155035
0.000154779
0.00015448
0.000154132
0.000153725
0.000153255
0.000152713
0.000152094
0.000193926
0.000182306
0.000171434
0.000163228
0.000157618
0.000153593
0.000150521
0.00014811
0.000146183
0.000144644
0.000143414
0.000142426
0.000141635
0.000141002
0.000140497
0.000140095
0.000139774
0.000139515
0.000139302
0.000139116
0.000138946
0.000138776
0.000138597
0.000138396
0.000138167
0.0001379
0.000137589
0.000137222
0.000136799
0.000136309
0.000135748
0.000174257
0.000163268
0.000152905
0.000145166
0.000139961
0.000136257
0.000133438
0.000131228
0.000129464
0.000128056
0.000126933
0.000126032
0.000125311
0.000124735
0.000124276
0.000123912
0.000123622
0.000123389
0.000123199
0.000123034
0.000122883
0.000122733
0.000122574
0.000122396
0.000122193
0.000121954
0.000121676
0.000121347
0.000120967
0.000120526
0.000120021
0.00015512
0.000144824
0.000135028
0.000127794
0.00012301
0.000119632
0.000117068
0.00011506
0.000113459
0.000112183
0.000111166
0.000110351
0.000109699
0.000109179
0.000108765
0.000108438
0.000108177
0.000107969
0.0001078
0.000107654
0.000107521
0.000107388
0.000107247
0.00010709
0.000106909
0.000106697
0.000106449
0.000106156
0.000105816
0.000105421
0.000104968
0.000136587
0.00012704
0.000117869
0.000111174
0.000106822
0.000103773
0.000101464
9.96591e-05
9.82203e-05
9.70752e-05
9.61643e-05
9.5434e-05
9.48497e-05
9.43844e-05
9.40146e-05
9.37227e-05
9.34904e-05
9.33057e-05
9.3156e-05
9.3027e-05
9.29098e-05
9.27926e-05
9.26689e-05
9.25297e-05
9.237e-05
9.21819e-05
9.19617e-05
9.17008e-05
9.13984e-05
9.10468e-05
9.06437e-05
0.000118731
0.000109982
0.000101489
9.53651e-05
9.1454e-05
8.87352e-05
8.66813e-05
8.50774e-05
8.38e-05
8.27846e-05
8.19775e-05
8.13307e-05
8.08134e-05
8.04018e-05
8.00749e-05
7.98171e-05
7.96122e-05
7.94496e-05
7.93182e-05
7.92049e-05
7.91021e-05
7.89992e-05
7.88905e-05
7.87679e-05
7.86272e-05
7.84613e-05
7.82669e-05
7.80363e-05
7.7769e-05
7.74581e-05
7.71016e-05
0.000101628
9.37185e-05
8.59553e-05
8.04298e-05
7.69649e-05
7.45749e-05
7.27735e-05
7.13686e-05
7.02506e-05
6.93629e-05
6.86579e-05
6.8093e-05
6.76415e-05
6.72823e-05
6.69972e-05
6.67726e-05
6.6594e-05
6.64525e-05
6.63382e-05
6.62396e-05
6.61501e-05
6.60603e-05
6.59653e-05
6.5858e-05
6.57348e-05
6.55894e-05
6.5419e-05
6.52168e-05
6.49826e-05
6.471e-05
6.43978e-05
9.14602e-05
8.53603e-05
7.83223e-05
7.13362e-05
6.64338e-05
6.3417e-05
6.13523e-05
5.97997e-05
5.85906e-05
5.76292e-05
5.68665e-05
5.62614e-05
5.57767e-05
5.53894e-05
5.50815e-05
5.4837e-05
5.46445e-05
5.44914e-05
5.43701e-05
5.42722e-05
5.41874e-05
5.41104e-05
5.40328e-05
5.39505e-05
5.38575e-05
5.37507e-05
5.36245e-05
5.34767e-05
5.33014e-05
5.30984e-05
5.28623e-05
5.2592e-05
7.52842e-05
7.00193e-05
6.38759e-05
5.77097e-05
5.34506e-05
5.08807e-05
4.91357e-05
4.78268e-05
4.6809e-05
4.60004e-05
4.53596e-05
4.48518e-05
4.44452e-05
4.41204e-05
4.38623e-05
4.36574e-05
4.34961e-05
4.33677e-05
4.3266e-05
4.31837e-05
4.31122e-05
4.3047e-05
4.2981e-05
4.29109e-05
4.28314e-05
4.27402e-05
4.26323e-05
4.25061e-05
4.23564e-05
4.21834e-05
4.19822e-05
4.17521e-05
6.01581e-05
5.57131e-05
5.04774e-05
4.51677e-05
4.15675e-05
3.94395e-05
3.80064e-05
3.69344e-05
3.61024e-05
3.54419e-05
3.49193e-05
3.45056e-05
3.41745e-05
3.39103e-05
3.37005e-05
3.35339e-05
3.34028e-05
3.32984e-05
3.32156e-05
3.31485e-05
3.30899e-05
3.30363e-05
3.29816e-05
3.29234e-05
3.28571e-05
3.2781e-05
3.2691e-05
3.25857e-05
3.24609e-05
3.23168e-05
3.21494e-05
3.19581e-05
4.62245e-05
4.25749e-05
3.8249e-05
3.38267e-05
3.08931e-05
2.9198e-05
2.80663e-05
2.72226e-05
2.6569e-05
2.60509e-05
2.56417e-05
2.53183e-05
2.50599e-05
2.48538e-05
2.46903e-05
2.45606e-05
2.44587e-05
2.43776e-05
2.43132e-05
2.42609e-05
2.42151e-05
2.41729e-05
2.41296e-05
2.40831e-05
2.40301e-05
2.3969e-05
2.38967e-05
2.38121e-05
2.37118e-05
2.3596e-05
2.34616e-05
2.33083e-05
3.36634e-05
3.07763e-05
2.73503e-05
2.38394e-05
2.15678e-05
2.02909e-05
1.94465e-05
1.88194e-05
1.8335e-05
1.79517e-05
1.76498e-05
1.74118e-05
1.72219e-05
1.70709e-05
1.69514e-05
1.68568e-05
1.67827e-05
1.67239e-05
1.66773e-05
1.66395e-05
1.66063e-05
1.65755e-05
1.65436e-05
1.65091e-05
1.64694e-05
1.64235e-05
1.63689e-05
1.63049e-05
1.62289e-05
1.61411e-05
1.60393e-05
1.59232e-05
2.27093e-05
2.05446e-05
1.7995e-05
1.54021e-05
1.37752e-05
1.28907e-05
1.23128e-05
1.18859e-05
1.15575e-05
1.12983e-05
1.1095e-05
1.09353e-05
1.08084e-05
1.07079e-05
1.06288e-05
1.05666e-05
1.05183e-05
1.04802e-05
1.04503e-05
1.04264e-05
1.04052e-05
1.03856e-05
1.0365e-05
1.03424e-05
1.0316e-05
1.02851e-05
1.0248e-05
1.02042e-05
1.0152e-05
1.00916e-05
1.00213e-05
9.941e-06
1.36699e-05
1.21791e-05
1.04622e-05
8.75823e-06
7.73095e-06
7.19463e-06
6.85062e-06
6.59834e-06
6.40522e-06
6.25352e-06
6.13517e-06
6.04287e-06
5.97007e-06
5.91295e-06
5.86851e-06
5.83407e-06
5.80783e-06
5.78758e-06
5.77217e-06
5.76016e-06
5.74972e-06
5.74002e-06
5.72958e-06
5.71778e-06
5.70353e-06
5.68638e-06
5.66536e-06
5.64013e-06
5.60966e-06
5.57403e-06
5.53231e-06
5.48444e-06
6.91053e-06
6.0284e-06
5.05299e-06
4.13196e-06
3.60555e-06
3.34392e-06
3.18077e-06
3.06214e-06
2.9719e-06
2.90143e-06
2.84697e-06
2.805e-06
2.77237e-06
2.74725e-06
2.72821e-06
2.71395e-06
2.70362e-06
2.69614e-06
2.69094e-06
2.68733e-06
2.68439e-06
2.68173e-06
2.67858e-06
2.67466e-06
2.66942e-06
2.66261e-06
2.65376e-06
2.64268e-06
2.62887e-06
2.61235e-06
2.59268e-06
2.5698e-06
2.69398e-06
2.29243e-06
1.87786e-06
1.51368e-06
1.31862e-06
1.22685e-06
1.17196e-06
1.13235e-06
1.10241e-06
1.07921e-06
1.06155e-06
1.04825e-06
1.03822e-06
1.03083e-06
1.02558e-06
1.02203e-06
1.01986e-06
1.01868e-06
1.0183e-06
1.01845e-06
1.01879e-06
1.01917e-06
1.0193e-06
1.01906e-06
1.01825e-06
1.01675e-06
1.01439e-06
1.01109e-06
1.00665e-06
1.00107e-06
9.94167e-07
9.85927e-07
7.47526e-07
6.24308e-07
5.0736e-07
4.12239e-07
3.64844e-07
3.439e-07
3.32203e-07
3.23837e-07
3.17576e-07
3.12794e-07
3.09287e-07
3.06799e-07
3.05082e-07
3.03996e-07
3.03426e-07
3.03264e-07
3.03436e-07
3.03838e-07
3.04425e-07
3.05121e-07
3.05834e-07
3.06523e-07
3.07106e-07
3.07548e-07
3.07787e-07
3.07794e-07
3.07511e-07
3.06914e-07
3.05941e-07
3.04594e-07
3.02814e-07
3.00593e-07
1.41937e-07
1.17684e-07
9.65733e-08
8.0837e-08
7.38849e-08
7.11767e-08
6.99209e-08
6.90655e-08
6.84593e-08
6.80322e-08
6.77766e-08
6.76648e-08
6.76629e-08
6.77534e-08
6.79198e-08
6.81461e-08
6.84202e-08
6.87241e-08
6.90501e-08
6.93837e-08
6.97072e-08
7.00125e-08
7.02823e-08
7.05102e-08
7.0682e-08
7.07915e-08
7.08256e-08
7.07791e-08
7.0638e-08
7.04025e-08
7.00585e-08
6.96041e-08
1.72145e-08
1.4251e-08
1.19243e-08
1.0438e-08
9.9836e-09
9.90105e-09
9.93756e-09
9.98259e-09
1.00309e-08
1.0082e-08
1.01403e-08
1.02059e-08
1.02773e-08
1.0354e-08
1.04349e-08
1.0519e-08
1.06052e-08
1.06915e-08
1.07773e-08
1.08606e-08
1.09394e-08
1.10126e-08
1.10778e-08
1.11342e-08
1.11796e-08
1.12131e-08
1.12328e-08
1.12379e-08
1.12262e-08
1.11979e-08
1.11505e-08
1.10839e-08
1.1e-09
9.10358e-10
7.808e-10
7.23353e-10
7.32605e-10
7.52942e-10
7.75524e-10
7.95004e-10
8.12109e-10
8.27497e-10
8.41892e-10
8.55647e-10
8.6891e-10
8.81808e-10
8.94372e-10
9.06626e-10
9.18527e-10
9.29995e-10
9.41003e-10
9.51421e-10
9.61118e-10
9.7003e-10
9.77967e-10
9.84876e-10
9.90576e-10
9.94999e-10
9.97973e-10
9.99439e-10
9.99224e-10
9.97327e-10
9.9355e-10
9.87873e-10
2.49743e-11
2.06624e-11
1.8188e-11
1.79079e-11
1.92854e-11
2.05839e-11
2.17863e-11
2.28164e-11
2.37162e-11
2.45179e-11
2.52495e-11
2.59283e-11
2.65656e-11
2.71691e-11
2.77421e-11
2.82883e-11
2.88075e-11
2.92993e-11
2.97636e-11
3.01971e-11
3.05973e-11
3.09627e-11
3.12881e-11
3.15721e-11
3.18092e-11
3.19975e-11
3.21316e-11
3.22099e-11
3.22273e-11
3.21837e-11
3.20728e-11
3.18942e-11
9.18655e-14
7.5983e-14
6.78022e-14
6.89593e-14
7.66959e-14
8.34735e-14
8.95969e-14
9.48719e-14
9.94985e-14
1.0363e-13
1.0739e-13
1.10863e-13
1.14108e-13
1.17163e-13
1.20046e-13
1.22779e-13
1.25362e-13
1.27797e-13
1.30085e-13
1.32211e-13
1.3417e-13
1.35955e-13
1.37544e-13
1.38933e-13