/*--------------------------------*- C++ -*----------------------------------*\
  =========                 |
  \\      /  F ield         | OpenFOAM: The Open Source CFD Toolbox
   \\    /   O peration     | Website:  https://openfoam.org
    \\  /    A nd           | Version:  7
     \\/     M anipulation  |
\*---------------------------------------------------------------------------*/
FoamFile
{
    version     2.0;
    format      ascii;
    class       volScalarField;
    location    "25000";
    object      omega;
}
// * * * * * * * * * * * * * * * * * * * * * * * * * * * * * * * * * * * * * //

dimensions      [0 0 -1 0 0 0 0];

internalField   nonuniform List<scalar> 
2473
(
0.0824641
0.0733676
0.0655369
0.0587939
0.0529857
0.0479808
0.043875
0.0436665
0.040123
0.039946
0.0368873
0.0367367
0.0340964
0.0339677
0.031689
0.0315785
0.029713
0.0296131
0.0295179
0.0279108
0.0278242
0.0277419
0.0263599
0.0262849
0.0262134
0.0250282
0.024963
0.024901
0.023948
0.0238882
0.0238316
0.0237779
0.0229686
0.0229169
0.022868
0.0228215
0.0221392
0.0220949
0.0220528
0.0220129
0.0214433
0.0214056
0.0213698
0.0213359
0.0208998
0.0208668
0.0208353
0.0208054
0.0207771
0.0204251
0.0203982
0.0203725
0.0203481
0.020325
0.0200487
0.0200275
0.0200074
0.0199883
0.0199703
0.0197786
0.0197622
0.0197467
0.0197319
0.019718
0.0197049
0.0195696
0.0195588
0.0195488
0.0195393
0.0195305
0.0195222
0.019438
0.0194328
0.0194282
0.019424
0.0194202
0.0194168
0.0193789
0.019379
0.0193795
0.0193803
0.0193814
0.0193827
0.0193843
0.0193829
0.0193888
0.019395
0.0194013
0.0194078
0.0194143
0.0194209
0.0194526
0.0194644
0.0194763
0.0194883
0.0195002
0.0195121
0.0195237
0.0195677
0.0195855
0.0196033
0.0196211
0.0196388
0.0196563
0.0196737
0.0196907
0.0197557
0.0197797
0.0198037
0.0198275
0.0198511
0.0198745
0.0198975
0.01992
0.0200038
0.0200342
0.0200644
0.0200944
0.0201242
0.0201535
0.0201824
0.0202107
0.0202743
0.0203114
0.0203483
0.020385
0.0204213
0.0204573
0.0204928
0.0205278
0.020562
0.0206347
0.0206786
0.0207221
0.0207654
0.0208083
0.0208507
0.0208925
0.0209338
0.0209742
0.0210553
0.0211061
0.0211564
0.0212064
0.021256
0.021305
0.0213534
0.021401
0.0214478
0.0214794
0.0215377
0.0215955
0.0216529
0.0217097
0.0217661
0.0218218
0.0218769
0.0219311
0.0219844
0.022019
0.0220846
0.0221497
0.0222141
0.022278
0.0223413
0.0224038
0.0224656
0.0225265
0.0225864
0.0226266
0.0226999
0.0227724
0.0228442
0.0229152
0.0229855
0.0230549
0.0231235
0.0231911
0.0232577
0.023225
0.0233075
0.023389
0.0234693
0.0235487
0.0236271
0.0237045
0.0237809
0.0238563
0.0239306
0.0240037
0.0239769
0.0240686
0.0241589
0.0242477
0.0243352
0.0244213
0.0245062
0.0245898
0.024672
0.0247529
0.0248323
0.0247121
0.0248164
0.0249186
0.0250188
0.0251171
0.0252135
0.0253082
0.025401
0.0254921
0.0255815
0.025669
0.0257547
0.0256363
0.0257534
0.0258679
0.0259798
0.0260892
0.0261961
0.0263005
0.0264025
0.026502
0.026599
0.0266936
0.0267855
0.0266655
0.026798
0.0269271
0.0270531
0.0271759
0.0272956
0.0274119
0.0275249
0.0276346
0.0277409
0.0278437
0.0279428
0.0276493
0.0278021
0.0279516
0.0280972
0.0282393
0.0283777
0.0285125
0.0286433
0.0287702
0.0288928
0.0290113
0.0291252
0.0292343
0.0288664
0.0290347
0.0292003
0.0293629
0.0295223
0.0296776
0.0298293
0.0299768
0.0301202
0.0302588
0.0303927
0.0305218
0.030645
0.0299807
0.0301651
0.0303474
0.0305276
0.0307061
0.0308823
0.0310557
0.0312259
0.0313918
0.0315537
0.031711
0.0318634
0.0320112
0.0321526
0.0313302
0.0315291
0.0317261
0.0319215
0.0321153
0.0323076
0.0324988
0.0326877
0.032874
0.0330566
0.0332348
0.0334083
0.0335779
0.0337412
0.0325186
0.0327342
0.0329482
0.0331609
0.0333723
0.0335828
0.0337923
0.0340009
0.0342086
0.0344155
0.0346201
0.0348216
0.0350172
0.0352112
0.0353995
0.0339525
0.0341823
0.0344112
0.0346393
0.0348669
0.0350941
0.0353212
0.0355483
0.0357752
0.0360021
0.0362286
0.0364544
0.0366781
0.0368995
0.0371161
0.0354341
0.0356826
0.0359306
0.0361782
0.0364258
0.0366737
0.0369221
0.0371711
0.0374207
0.0376712
0.0379222
0.038174
0.0384281
0.0386786
0.0389268
0.0367236
0.0369976
0.0372709
0.0375437
0.0378165
0.0380896
0.0383634
0.0386381
0.038914
0.0391911
0.0394695
0.0397492
0.0400302
0.0403122
0.0405931
0.0408741
0.038367
0.0386667
0.0389659
0.039265
0.0395644
0.0398647
0.0401661
0.040469
0.0407736
0.0410802
0.0413889
0.0416996
0.0420123
0.0423267
0.0426413
0.0429568
0.0397809
0.0401102
0.0404377
0.0407651
0.0410927
0.041421
0.0417507
0.0420821
0.0424157
0.0427517
0.0430905
0.0434321
0.0437767
0.044124
0.0444739
0.0448255
0.0451789
0.0415957
0.0419543
0.0423117
0.0426691
0.0430272
0.0433866
0.0437478
0.0441115
0.0444781
0.044848
0.0452214
0.0455987
0.0459798
0.0463648
0.0467533
0.0471451
0.0475399
0.0435091
0.043899
0.0442881
0.0446777
0.0450682
0.0454607
0.0458556
0.0462538
0.0466556
0.0470617
0.0474723
0.0478877
0.0483082
0.0487336
0.0491639
0.0495989
0.0500384
0.0450971
0.0455217
0.0459447
0.0463673
0.0467906
0.0472154
0.0476427
0.0480732
0.0485077
0.0489469
0.0493912
0.0498411
0.050297
0.0507591
0.0512275
0.0517023
0.0521833
0.0526704
0.0531631
0.0471733
0.0476331
0.0480914
0.0485494
0.0490084
0.0494693
0.0499332
0.050401
0.0508737
0.0513519
0.0518363
0.0523274
0.0528258
0.0533317
0.0538455
0.0543671
0.0548967
0.0554341
0.0559791
0.0493589
0.0498532
0.0503461
0.050839
0.0513334
0.0518304
0.052331
0.0528363
0.0533473
0.0538648
0.0543895
0.054922
0.0554629
0.0560126
0.0565714
0.0571396
0.0577172
0.0583043
0.0589006
0.0510783
0.0516075
0.0521328
0.0526576
0.0531835
0.0537117
0.0542433
0.0547796
0.0553215
0.05587
0.0564258
0.0569898
0.0575626
0.0581447
0.0587367
0.0593388
0.0599514
0.0605746
0.0612085
0.0618532
0.0532736
0.0538306
0.0543858
0.0549419
0.0555
0.0560614
0.0566272
0.0571986
0.0577765
0.0583619
0.0589555
0.0595581
0.0601702
0.0607926
0.0614255
0.0620695
0.0627248
0.0633918
0.0640704
0.0647609
0.0548193
0.055404
0.0559872
0.0565705
0.057156
0.0577446
0.0583375
0.0589359
0.0595407
0.0601529
0.0607733
0.0614026
0.0620416
0.0626907
0.0633505
0.0640215
0.0647041
0.0653984
0.066105
0.0668238
0.0675551
0.0568215
0.0574276
0.0580342
0.0586427
0.0592546
0.0598708
0.0604926
0.0611208
0.0617562
0.0623998
0.0630522
0.063714
0.0643858
0.0650681
0.0657613
0.0664658
0.0671819
0.0679099
0.0686501
0.0694026
0.0701676
0.0586785
0.0593019
0.0599277
0.0605573
0.0611918
0.0618321
0.062479
0.0631333
0.0637958
0.0644669
0.0651473
0.0658374
0.0665376
0.0672483
0.0679698
0.0687023
0.069446
0.0702011
0.0709678
0.0717462
0.0725364
0.0597178
0.0603497
0.0609851
0.0616252
0.0622712
0.0629238
0.0635838
0.0642516
0.0649279
0.065613
0.0663073
0.0670112
0.0677248
0.0684485
0.0691823
0.0699264
0.0706809
0.0714457
0.0722209
0.0730067
0.0738029
0.0746097
0.0611619
0.0617971
0.0624388
0.0630879
0.0637451
0.0644109
0.0650857
0.0657697
0.0664632
0.0671664
0.0678792
0.0686017
0.0693339
0.0700759
0.0708274
0.0715884
0.0723588
0.0731384
0.073927
0.0747245
0.0755309
0.076346
0.062356
0.0629881
0.0636301
0.0642824
0.0649454
0.0656192
0.0663037
0.066999
0.0677049
0.0684211
0.0691474
0.0698836
0.0706294
0.0713843
0.0721482
0.0729206
0.0737012
0.0744894
0.0752851
0.0760877
0.0768971
0.0777129
0.0626644
0.063274
0.0638967
0.0645329
0.0651828
0.065846
0.0665224
0.0672115
0.0679129
0.068626
0.0693502
0.0700849
0.0708296
0.0715836
0.0723464
0.0731172
0.0738955
0.0746806
0.0754718
0.0762685
0.07707
0.0778759
0.0786857
0.0633076
0.0638973
0.0645046
0.0651293
0.0657711
0.0664292
0.067103
0.0677914
0.0684936
0.0692086
0.0699355
0.0706733
0.0714211
0.072178
0.072943
0.0737152
0.0744938
0.0752777
0.0760661
0.0768578
0.0776522
0.0784483
0.0792455
0.0636512
0.0642153
0.0648018
0.0654099
0.0660385
0.0666865
0.0673525
0.0680351
0.0687329
0.0694446
0.0701688
0.0709042
0.0716496
0.0724036
0.073165
0.0739327
0.0747054
0.075482
0.0762611
0.0770415
0.0778222
0.0786019
0.0793796
0.0631866
0.0636923
0.0642261
0.0647872
0.0653743
0.0659856
0.066619
0.0672728
0.0679449
0.0686334
0.0693367
0.0700529
0.0707804
0.0715176
0.0722628
0.0730145
0.0737712
0.0745315
0.0752938
0.0760567
0.0768185
0.0775779
0.0783336
0.079084
0.0629711
0.0634373
0.0639377
0.0644705
0.0650336
0.0656241
0.0662395
0.0668772
0.0675347
0.0682097
0.0688998
0.0696029
0.0703171
0.0710403
0.0717707
0.0725064
0.0732455
0.0739864
0.0747272
0.0754662
0.0762015
0.0769314
0.0776543
0.0783686
0.0624803
0.0629062
0.0633724
0.063876
0.0644136
0.0649815
0.0655765
0.0661952
0.0668345
0.0674918
0.0681642
0.0688494
0.069545
0.0702487
0.0709582
0.0716715
0.0723864
0.0731009
0.0738129
0.0745203
0.0752211
0.0759132
0.0765947
0.0772636
0.0614098
0.0617494
0.0621384
0.062573
0.0630491
0.0635619
0.0641069
0.0646799
0.0652772
0.0658953
0.066531
0.0671813
0.0678435
0.0685151
0.0691933
0.069876
0.0705605
0.0712446
0.071926
0.0726023
0.0732711
0.0739302
0.0745771
0.0752098
0.0758256
0.0605313
0.0608364
0.0611969
0.0616065
0.0620595
0.0625501
0.063073
0.0636235
0.0641976
0.0647916
0.065402
0.0660257
0.0666599
0.0673018
0.0679489
0.0685984
0.0692478
0.0698948
0.0705368
0.0711713
0.0717958
0.0724077
0.0730042
0.0735828
0.0741406
0.059533
0.0598191
0.060163
0.0605563
0.060992
0.0614639
0.0619663
0.0624944
0.0630442
0.0636117
0.0641938
0.0647872
0.0653891
0.0659968
0.0666076
0.0672188
0.0678281
0.0684328
0.0690305
0.0696188
0.0701954
0.0707569
0.0713003
0.0718228
0.0723212
0.0584937
0.0587756
0.0591131
0.0594971
0.0599203
0.0603764
0.0608599
0.0613664
0.0618917
0.0624322
0.0629848
0.0635464
0.0641143
0.0646858
0.0652583
0.0658293
0.0663964
0.066957
0.0675089
0.0680498
0.0685779
0.0690889
0.0695798
0.0700474
0.0704886
0.0572574
0.0574736
0.0577542
0.0580866
0.058462
0.0588735
0.0593147
0.0597806
0.0602667
0.060769
0.0612843
0.0618094
0.0623414
0.0628777
0.0634158
0.063953
0.0644871
0.0650156
0.065536
0.0660461
0.0665436
0.0670259
0.0674895
0.0679314
0.0683487
0.0687382
0.0562699
0.0564897
0.0567663
0.0570916
0.0574575
0.0578569
0.0582838
0.0587331
0.0592004
0.059682
0.0601745
0.0606749
0.0611805
0.0616887
0.0621971
0.0627032
0.0632047
0.0636993
0.0641847
0.0646583
0.0651177
0.0655597
0.0659817
0.066381
0.0667547
0.0670998
0.0553236
0.0555426
0.0558158
0.0561352
0.0564928
0.0568816
0.0572957
0.0577299
0.0581802
0.0586427
0.0591142
0.059592
0.0600733
0.0605558
0.0610369
0.0615145
0.0619863
0.06245
0.0629033
0.0633439
0.0637691
0.0641759
0.064562
0.0649245
0.0652608
0.065568
0.0544224
0.0546417
0.0549129
0.055228
0.0555789
0.0559587
0.0563616
0.0567826
0.0572175
0.0576628
0.0581154
0.0585725
0.0590317
0.0594906
0.059947
0.0603986
0.0608433
0.0612789
0.0617031
0.0621138
0.0625082
0.0628836
0.0632377
0.0635678
0.0638713
0.0641455
0.0534147
0.0535746
0.0537958
0.0540669
0.0543794
0.0547254
0.055098
0.0554915
0.0559009
0.0563223
0.0567523
0.0571879
0.0576265
0.0580656
0.0585032
0.058937
0.059365
0.0597851
0.0601953
0.0605933
0.0609769
0.0613438
0.0616912
0.0620169
0.0623184
0.0625932
0.0628387
0.0526215
0.0527879
0.053013
0.0532859
0.0535978
0.0539408
0.054308
0.0546939
0.0550936
0.0555034
0.0559199
0.0563404
0.0567623
0.0571835
0.0576018
0.0580152
0.0584219
0.0588198
0.059207
0.0595813
0.0599407
0.0602829
0.0606053
0.0609059
0.0611822
0.0614319
0.0616524
0.0518942
0.0520691
0.0523004
0.0525772
0.0528906
0.0532324
0.0535961
0.0539762
0.0543681
0.054768
0.0551729
0.05558
0.0559872
0.0563923
0.0567934
0.0571885
0.057576
0.0579539
0.0583203
0.0586734
0.0590111
0.0593311
0.0596314
0.0599097
0.0601638
0.0603915
0.0605904
0.0512386
0.0514246
0.0516645
0.0519473
0.0522641
0.0526068
0.0529689
0.0533449
0.0537307
0.0541225
0.0545175
0.0549131
0.0553074
0.0556982
0.0560839
0.0564627
0.0568329
0.0571929
0.0575407
0.0578747
0.0581929
0.0584933
0.0587738
0.0590324
0.059267
0.0594754
0.0596555
0.0505243
0.0506605
0.0508601
0.0511109
0.051402
0.0517243
0.0520697
0.0524319
0.0528057
0.053187
0.0535724
0.0539592
0.0543451
0.0547281
0.0551065
0.0554786
0.0558428
0.0561977
0.0565415
0.0568728
0.0571897
0.0574905
0.0577733
0.0580363
0.0582774
0.0584947
0.0586862
0.0588499
0.0500097
0.0501648
0.0503807
0.0506449
0.0509464
0.0512761
0.0516261
0.0519902
0.0523635
0.0527421
0.0531228
0.053503
0.0538807
0.0542541
0.0546217
0.0549818
0.0553332
0.0556745
0.056004
0.0563204
0.0566221
0.0569074
0.0571746
0.0574219
0.0576476
0.0578497
0.0580264
0.0581757
0.0495792
0.0497563
0.0499912
0.0502712
0.0505853
0.0509244
0.0512808
0.0516486
0.0520231
0.0524005
0.052778
0.0531533
0.0535244
0.0538898
0.0542481
0.0545979
0.0549381
0.0552673
0.0555842
0.0558874
0.0561756
0.056447
0.0567003
0.0569338
0.0571458
0.0573344
0.057498
0.0576347
0.049237
0.0494393
0.0496961
0.0499943
0.0503231
0.0506736
0.0510383
0.0514115
0.0517888
0.0521667
0.0525426
0.0529144
0.0532804
0.0536393
0.0539899
0.0543309
0.0546613
0.05498
0.0552857
0.0555773
0.0558534
0.0561127
0.0563536
0.0565748
0.0567746
0.0569513
0.0571034
0.0572291
0.0489874
0.0492183
0.0494997
0.0498186
0.0501644
0.0505283
0.050903
0.0512833
0.051665
0.052045
0.0524208
0.0527906
0.053153
0.0535069
0.0538511
0.0541847
0.0545068
0.0548164
0.0551124
0.0553938
0.0556593
0.0559077
0.0561377
0.056348
0.056537
0.0567032
0.056845
0.0569609
0.0486368
0.0488347
0.0490976
0.0494065
0.0497486
0.0501135
0.0504928
0.0508794
0.0512686
0.0516563
0.0520398
0.052417
0.0527864
0.0531466
0.0534968
0.0538361
0.0541637
0.0544788
0.0547807
0.0550683
0.0553408
0.055597
0.0558359
0.0560562
0.0562568
0.0564362
0.056593
0.0567258
0.0568331
0.0485455
0.0487831
0.0490816
0.0494212
0.0497891
0.0501753
0.0505719
0.0509724
0.0513721
0.0517675
0.0521561
0.0525363
0.0529066
0.053266
0.053614
0.0539497
0.0542726
0.0545821
0.0548774
0.0551579
0.0554227
0.0556709
0.0559014
0.0561132
0.0563052
0.0564762
0.0566247
0.0567494
0.056849
0.0485555
0.0488374
0.0491754
0.0495487
0.049945
0.050355
0.050771
0.0511872
0.0515992
0.0520039
0.0523993
0.0527839
0.0531566
0.0535167
0.0538638
0.0541972
0.0545167
0.0548218
0.0551119
0.0553864
0.0556447
0.0558859
0.0561091
0.0563135
0.056498
0.0566615
0.0568026
0.0569201
0.0570128
0.0486714
0.0490026
0.0493842
0.0497945
0.0502221
0.0506582
0.051096
0.0515298
0.0519559
0.0523717
0.0527755
0.053166
0.0535426
0.0539048
0.0542523
0.0545849
0.0549022
0.055204
0.0554901
0.0557598
0.0560127
0.056248
0.056465
0.056663
0.0568408
0.0569977
0.0571322
0.0572433
0.0573298
0.0488986
0.0492845
0.0497141
0.050165
0.0506268
0.0510917
0.0515534
0.0520071
0.0524493
0.052878
0.0532918
0.0536899
0.0540719
0.0544376
0.0547869
0.0551198
0.0554362
0.0557361
0.0560192
0.0562852
0.0565338
0.0567643
0.056976
0.0571684
0.0573405
0.0574915
0.0576202
0.0577256
0.0578065
0.0492432
0.0496897
0.0501721
0.0506674
0.0511666
0.051663
0.0521513
0.052627
0.0530873
0.0535308
0.0539564
0.0543638
0.0547527
0.0551234
0.055476
0.0558106
0.0561274
0.0564265
0.0567078
0.0569712
0.0572164
0.057443
0.0576504
0.0578381
0.0580053
0.0581512
0.0582747
0.0583749
0.0584507
0.0492918
0.049712
0.0502257
0.0507661
0.05131
0.0518502
0.0523812
0.0528987
0.0533988
0.0538796
0.0543399
0.0547792
0.0551975
0.0555951
0.0559723
0.0563296
0.0566673
0.0569857
0.0572852
0.0575659
0.0578278
0.0580707
0.0582944
0.0584983
0.0586821
0.0588451
0.0589866
0.0591055
0.059201
0.0592722
0.0498174
0.0503132
0.0509015
0.0515056
0.0521027
0.0526878
0.0532567
0.0538064
0.0543337
0.0548373
0.0553166
0.0557717
0.0562029
0.0566109
0.0569962
0.0573597
0.0577018
0.0580232
0.0583244
0.0586056
0.058867
0.0591086
0.0593303
0.0595317
0.0597124
0.0598719
0.0600096
0.0601245
0.0602158
0.0602827
0.0504764
0.0510563
0.0517274
0.0524019
0.0530572
0.0536914
0.0543021
0.0548873
0.0554447
0.0559737
0.0564744
0.0569475
0.0573936
0.0578139
0.0582091
0.0585804
0.0589285
0.0592543
0.0595584
0.0598413
0.0601034
0.0603447
0.0605654
0.060765
0.0609434
0.0611001
0.0612346
0.061346
0.0614336
0.0614965
0.0512789
0.0519526
0.052716
0.053468
0.0541874
0.0548756
0.0555321
0.0561565
0.0567473
0.0573047
0.0578296
0.0583231
0.0587864
0.0592209
0.0596279
0.0600088
0.0603644
0.060696
0.0610044
0.0612902
0.0615542
0.0617963
0.0620169
0.0622157
0.0623926
0.0625472
0.0626791
0.0627874
0.0628717
0.0629309
0.0522371
0.0530156
0.053882
0.0547199
0.0555098
0.0562574
0.0569645
0.0576324
0.0582603
0.0588494
0.0594014
0.059918
0.0604009
0.060852
0.0612729
0.0616651
0.0620301
0.062369
0.0626832
0.0629733
0.0632403
0.0634843
0.0637058
0.0639046
0.0640808
0.0642339
0.0643639
0.0644697
0.064551
0.0646068
0.0533654
0.0542614
0.0552433
0.0561764
0.0570442
0.0578575
0.0586207
0.0593367
0.0600059
0.0606305
0.061213
0.0617558
0.0622611
0.0627313
0.0631682
0.063574
0.0639501
0.0642982
0.0646196
0.0649155
0.0651867
0.0654339
0.0656573
0.0658571
0.0660334
0.0661858
0.0663144
0.0664181
0.0664968
0.0665495
0.0546814
0.0557094
0.0568211
0.0578605
0.0588148
0.059701
0.0605264
0.061296
0.0620114
0.0626757
0.0632925
0.0638649
0.0643957
0.0648878
0.0653434
0.065765
0.0661544
0.0665134
0.0668439
0.067147
0.067424
0.0676755
0.0679021
0.0681039
0.0682811
0.0684336
0.0685614
0.0686636
0.06874
0.0687898
0.0562061
0.0573832
0.0586415
0.0597997
0.0608504
0.0618179
0.0627128
0.0635424
0.0643094
0.0650184
0.0656739
0.06628
0.0668398
0.067357
0.0678341
0.0682741
0.0686792
0.0690513
0.0693928
0.0697049
0.0699892
0.0702464
0.0704774
0.0706822
0.0708614
0.0710147
0.0711425
0.0712437
0.0713183
0.0713655
0.0570693
0.0579654
0.0593114
0.0607362
0.0620281
0.0631868
0.0642454
0.0652181
0.0661151
0.0669403
0.0676997
0.068399
0.0690432
0.0696362
0.0701821
0.0706841
0.0711455
0.0715689
0.0719566
0.0723112
0.0726342
0.0729276
0.0731922
0.0734289
0.073638
0.0738203
0.0739753
0.0741038
0.0742045
0.0742778
0.0743226
0.0589692
0.0599908
0.0615294
0.0631442
0.0645873
0.0658677
0.0670289
0.0680895
0.0690625
0.0699536
0.07077
0.0715191
0.0722068
0.0728377
0.0734166
0.0739473
0.0744336
0.0748784
0.0752844
0.0756546
0.0759909
0.0762954
0.076569
0.0768131
0.077028
0.0772144
0.0773723
0.0775023
0.0776033
0.0776757
0.0777186
0.0611608
0.0623218
0.0640809
0.0659138
0.0675291
0.0689476
0.0702253
0.0713855
0.072445
0.0734108
0.0742923
0.0750982
0.0758357
0.0765101
0.0771271
0.0776909
0.0782062
0.078676
0.0791035
0.0794923
0.0798443
0.0801622
0.0804471
0.0807004
0.0809226
0.0811147
0.0812766
0.0814092
0.0815113
0.0815835
0.0816248
0.0636913
0.0650075
0.0670207
0.0691059
0.0709185
0.0724949
0.0739056
0.0751798
0.076338
0.0773895
0.0783455
0.0792167
0.0800114
0.080736
0.081397
0.0819994
0.0825484
0.0830475
0.0835004
0.0839112
0.0842821
0.0846162
0.0849147
0.0851795
0.0854109
0.0856104
0.0857776
0.0859141
0.0860183
0.0860912
0.0861315
0.0666203
0.0681103
0.0704184
0.0727976
0.0748382
0.0765964
0.0781605
0.0795658
0.080838
0.0819882
0.0830303
0.0839769
0.0848379
0.0856207
0.086333
0.0869803
0.0875687
0.0881023
0.0885852
0.089022
0.0894155
0.0897691
0.0900842
0.0903631
0.0906062
0.090815
0.0909895
0.0911314
0.091239
0.0913135
0.0913537
0.0700242
0.0717101
0.0743633
0.077088
0.0793944
0.0813642
0.0831065
0.0846644
0.086069
0.0873341
0.0884763
0.0895108
0.0904491
0.0912999
0.0920723
0.0927723
0.0934073
0.0939816
0.0945
0.094968
0.0953885
0.0957657
0.0961011
0.0963973
0.0966548
0.0968757
0.0970597
0.0972089
0.0973216
0.0973991
0.0974403
0.0740025
0.0759111
0.0789718
0.0821066
0.0847264
0.0869448
0.0888965
0.0906335
0.0921937
0.0935937
0.0948535
0.0959913
0.0970207
0.0979518
0.098795
0.0995576
0.100248
0.100871
0.101431
0.101937
0.10239
0.102796
0.103156
0.103473
0.103749
0.103985
0.104182
0.104341
0.104461
0.104543
0.104587
0.0786869
0.0808514
0.0843983
0.0880256
0.091019
0.0935333
0.0957339
0.0976837
0.0994287
0.100989
0.102389
0.103649
0.104787
0.105814
0.106742
0.107579
0.108335
0.109016
0.109628
0.110179
0.110671
0.111112
0.111503
0.111847
0.112146
0.112402
0.112614
0.112787
0.112917
0.113007
0.113056
0.0842553
0.0867175
0.090852
0.0950786
0.0985238
0.101395
0.103895
0.106102
0.108069
0.109822
0.11139
0.112799
0.114067
0.115209
0.116239
0.117167
0.118003
0.118755
0.119429
0.120035
0.120577
0.121061
0.12149
0.121868
0.122195
0.122476
0.12271
0.122901
0.123045
0.123147
0.123204
0.0909534
0.0937677
0.0986228
0.10359
0.10759
0.110898
0.113766
0.116286
0.118526
0.120515
0.122288
0.123878
0.125306
0.126589
0.127745
0.128783
0.129718
0.130557
0.131308
0.131983
0.132585
0.133124
0.133601
0.134022
0.134387
0.1347
0.134962
0.135178
0.135343
0.135462
0.135532
0.099129
0.102368
0.108123
0.114022
0.118717
0.122571
0.125897
0.128808
0.131387
0.133669
0.135699
0.137514
0.139141
0.1406
0.141911
0.143088
0.144146
0.145095
0.145943
0.146704
0.147384
0.147991
0.14853
0.149006
0.14942
0.149778
0.150079
0.150328
0.150523
0.150668
0.150759
0.108727
0.10929
0.113056
0.119958
0.127055
0.132639
0.137191
0.141101
0.14451
0.14752
0.150175
0.15253
0.154631
0.156512
0.158194
0.159705
0.161058
0.162273
0.163361
0.164334
0.165207
0.165986
0.166684
0.167304
0.167854
0.168334
0.168751
0.169105
0.169403
0.169641
0.169824
0.169949
0.121621
0.122207
0.126646
0.13505
0.143729
0.150479
0.155945
0.160619
0.164679
0.168252
0.171394
0.174174
0.176648
0.178858
0.180832
0.182602
0.184185
0.185607
0.186878
0.188014
0.189034
0.189946
0.190765
0.191494
0.192143
0.192714
0.193214
0.193644
0.194012
0.194313
0.194555
0.194734
0.13847
0.139096
0.144428
0.154864
0.165695
0.174026
0.180726
0.186431
0.191366
0.195697
0.199494
0.202843
0.205818
0.20847
0.210837
0.212955
0.214848
0.216546
0.218065
0.219422
0.220643
0.221736
0.22272
0.223601
0.22439
0.225089
0.225709
0.226249
0.226721
0.227119
0.227452
0.227716
0.161266
0.161974
0.168555
0.181845
0.195713
0.206263
0.214692
0.221835
0.227992
0.233377
0.238084
0.242225
0.245896
0.249163
0.252073
0.254675
0.256999
0.259083
0.260947
0.262614
0.264116
0.265465
0.266685
0.267783
0.268774
0.269662
0.270458
0.271164
0.271795
0.272343
0.27282
0.273223
0.193504
0.194399
0.202822
0.220306
0.238647
0.25244
0.263385
0.272616
0.280542
0.287451
0.293473
0.298755
0.303429
0.307581
0.311275
0.314575
0.317519
0.320161
0.322525
0.324642
0.326554
0.328277
0.329844
0.331264
0.332557
0.333728
0.334793
0.335754
0.336633
0.337418
0.338127
0.338755
0.24175
0.243063
0.254373
0.278318
0.303543
0.322271
0.337026
0.349405
0.35999
0.369184
0.377172
0.384161
0.390332
0.395805
0.400668
0.40501
0.408882
0.412357
0.41547
0.418262
0.42079
0.42308
0.425172
0.427082
0.428836
0.430442
0.431923
0.433282
0.434546
0.435706
0.436781
0.437766
0.319242
0.321456
0.337515
0.371811
0.408017
0.434498
0.455187
0.47244
0.487125
0.499832
0.510835
0.520436
0.528897
0.536392
0.543041
0.548976
0.554267
0.559016
0.563275
0.567099
0.570571
0.573727
0.576621
0.57928
0.581737
0.584006
0.586116
0.588075
0.589919
0.591637
0.593253
0.594763
0.454346
0.45825
0.482172
0.533201
0.587103
0.625855
0.655837
0.680669
0.701696
0.719818
0.73546
0.749072
0.761047
0.77164
0.781029
0.789402
0.796864
0.803561
0.809566
0.814959
0.819857
0.824312
0.828401
0.832161
0.835638
0.838854
0.841846
0.844629
0.847247
0.849691
0.851986
0.85413
0.709337
0.715477
0.751576
0.828871
0.910842
0.968782
1.01317
1.04967
1.08043
1.10682
1.12954
1.14926
1.16658
1.18187
1.19541
1.20747
1.2182
1.22782
1.23642
1.24413
1.25111
1.25743
1.2632
1.26848
1.27331
1.27775
1.28183
1.28557
1.28904
1.29222
1.29514
1.2978
1.22264
1.23003
1.28386
1.40228
1.52915
1.61748
1.68454
1.73934
1.78526
1.82452
1.85819
1.88734
1.91288
1.9354
1.95528
1.97295
1.98862
2.00261
2.01508
2.02618
2.03615
2.04511
2.0532
2.06049
2.06708
2.07299
2.07831
2.08306
2.08731
2.09106
2.09434
2.09714
2.34309
2.34977
2.43234
2.62072
2.82393
2.96318
3.06797
3.15299
3.22386
3.28414
3.33566
3.38011
3.41894
3.45306
3.48308
3.50968
3.53317
3.55404
3.57253
3.58886
3.60341
3.61634
3.62785
3.63808
3.64712
3.65506
3.66197
3.66792
3.67301
3.67723
3.68062
3.6832
5.18014
5.1855
5.3222
5.64034
5.98199
6.21202
6.38338
6.52132
6.63559
6.73227
6.81452
6.8852
6.94672
7.00059
7.04783
7.08952
7.12619
7.15862
7.18719
7.21228
7.23445
7.25398
7.27117
7.28624
7.29933
7.31059
7.32012
7.32805
7.33451
7.33952
7.34312
7.34536
14.2722
14.2778
14.5194
15.0805
15.6753
16.07
16.3607
16.5927
16.7835
16.944
17.0799
17.1962
17.297
17.385
17.4619
17.5296
17.5889
17.6411
17.687
17.7271
17.7623
17.7932
17.8202
17.8437
17.8639
17.881
17.8953
17.9069
17.916
17.9228
17.9272
17.9293
56.0156
56.0313
56.42
57.2917
58.2096
58.8289
59.28
59.6366
59.9279
60.1713
60.3764
60.5512
60.7021
60.8334
60.9477
61.0481
61.1358
61.2129
61.2804
61.3393
61.3909
61.436
61.4753
61.5093
61.5385
61.5631
61.5834
61.5997
61.6124
61.6216
61.6273
61.6296
401.165
401.293
401.134
400.472
400.009
400
400.001
400.001
400
399.999
399.999
399.999
399.999
399.999
399.999
399.999
399.999
399.999
399.999
399.999
399.999
399.999
399.999
399.999
399.999
399.999
399.999
399.999
399.999
399.999
399.999
399.999
)
;

boundaryField
{
    bottomWall
    {
        type            omegaWallFunction;
        beta1           0.075;
        blended         0;
        value           nonuniform List<scalar> 
32
(
399.999
399.999
399.999
399.999
399.999
399.999
399.999
399.999
399.999
399.999
399.999
399.999
399.999
399.999
399.999
399.999
399.999
399.999
399.999
399.999
399.999
399.999
399.999
400
400.001
400.001
400
400.009
400.472
401.134
401.293
401.165
)
;
    }
    defaultFaces
    {
        type            empty;
    }
    inlet
    {
        type            cyclic;
    }
    outlet
    {
        type            cyclic;
    }
    topWall
    {
        type            omegaWallFunction;
        beta1           0.075;
        blended         0;
        value           nonuniform 0();
    }
    procBoundary3to0
    {
        type            processor;
        value           nonuniform List<scalar> 8(0.856117 1.30018 2.09944 3.68491 7.34615 17.929 61.6284 399.999);
    }
    procBoundary3to2
    {
        type            processor;
        value           nonuniform List<scalar> 
121
(
0.0819451
0.0729201
0.0651548
0.0584699
0.0527119
0.0477498
0.0434713
0.0397808
0.0365962
0.0338476
0.0314755
0.029429
0.0276649
0.0261466
0.0248429
0.0237274
0.0227778
0.0219753
0.0213039
0.0207503
0.0203032
0.0199533
0.0196925
0.0195145
0.0194138
0.0193859
0.0194273
0.0195352
0.0197073
0.019942
0.0202383
0.0205955
0.0210137
0.0214936
0.0220366
0.0226451
0.0233229
0.0240753
0.0249102
0.0258384
0.0268749
0.0280383
0.0293384
0.0307623
0.0322876
0.033898
0.0355818
0.0373272
0.0391709
0.0411532
0.0432716
0.0455332
0.047937
0.0504818
0.0504818
0.053661
0.0565311
0.0595059
0.0625083
0.0654632
0.0682991
0.0709453
0.0733388
0.0754273
0.0771698
0.078535
0.0794988
0.080043
0.0801544
0.079828
0.0790724
0.0779177
0.0764221
0.0746748
0.0727924
0.0709003
0.0690968
0.0674133
0.0658432
0.0643876
0.0630523
0.0618414
0.0607582
0.059805
0.0589836
0.0582957
0.0577428
0.0573266
0.0570493
0.0569134
0.056922
0.0570794
0.0573905
0.0578617
0.058501
0.0593179
0.0603241
0.0615338
0.0629643
0.0646364
0.0665755
0.0688123
0.0713845
0.0743384
0.0777312
0.0816346
0.0861388
0.091359
0.0974445
0.104591
0.113062
0.123216
0.135554
0.150798
0.170017
0.19485
0.227912
0.273551
0.339301
0.438661
0.596166
)
;
    }
    procBoundary3to5
    {
        type            processor;
        value           nonuniform List<scalar> 
159
(
0.0930346
0.0830025
0.0738352
0.0659387
0.0591365
0.0532765
0.0482271
0.0482271
0.0440921
0.0403076
0.0370447
0.0342311
0.0318048
0.0318048
0.0298193
0.0280026
0.0264395
0.0250972
0.0250972
0.0240105
0.0230226
0.0221856
0.0214827
0.0214827
0.0209344
0.0204534
0.0200709
0.0200709
0.019796
0.019581
0.0194436
0.0194436
0.0193792
0.0193773
0.0194409
0.0194409
0.01955
0.0197317
0.0199734
0.0199734
0.0202371
0.0205906
0.0210042
0.0210042
0.0214207
0.0219527
0.0225524
0.0225524
0.0231412
0.0238835
0.0238835
0.0246057
0.0255165
0.02653
0.02653
0.0274934
0.0286961
0.0286961
0.0297941
0.0311294
0.0311294
0.0323006
0.0337207
0.0351844
0.0351844
0.0364464
0.0380651
0.0380651
0.0394506
0.0412357
0.0431177
0.0431177
0.044671
0.0467128
0.0488623
0.0488623
0.0505449
0.0527137
0.0527137
0.0542317
0.0562142
0.0580562
0.0580562
0.0590882
0.0605321
0.0617329
0.0617329
0.062067
0.062735
0.0631096
0.0631096
0.0627091
0.0625399
0.0620966
0.0620966
0.0611219
0.0602863
0.0593142
0.0582822
0.0582822
0.0571165
0.0561206
0.0551714
0.054267
0.054267
0.0533265
0.0525249
0.051787
0.0511183
0.0511183
0.0504657
0.0499304
0.0494758
0.049106
0.048825
0.048825
0.0485348
0.0484037
0.0483692
0.0484356
0.0486077
0.0488911
0.0488911
0.0490664
0.0495324
0.0501262
0.0508574
0.0517375
0.0527803
0.0540023
0.0554238
0.0554238
0.0568438
0.0587045
0.0608574
0.0633499
0.0662421
0.0696109
0.0735565
0.0782112
0.0837534
0.0904287
0.0985846
0.0985846
0.110743
0.124046
0.141417
0.164888
0.198012
0.247435
0.326531
0.464002
0.723366
1.24648
2.38737
5.26293
14.4254
56.2603
401.019
)
;
    }
}


// ************************************************************************* //
