/*--------------------------------*- C++ -*----------------------------------*\
  =========                 |
  \\      /  F ield         | OpenFOAM: The Open Source CFD Toolbox
   \\    /   O peration     | Website:  https://openfoam.org
    \\  /    A nd           | Version:  7
     \\/     M anipulation  |
\*---------------------------------------------------------------------------*/
FoamFile
{
    version     2.0;
    format      ascii;
    class       volSymmTensorField;
    location    "25000";
    object      R;
}
// * * * * * * * * * * * * * * * * * * * * * * * * * * * * * * * * * * * * * //

dimensions      [0 2 -2 0 0 0 0];

internalField   nonuniform List<symmTensor> 
2473
(
(4.48566e-06 1.85458e-06 5.85212e-26 4.177e-06 3.93248e-26 4.33133e-06)
(4.44029e-06 1.76847e-06 -2.84524e-26 4.10859e-06 -1.28618e-27 4.27444e-06)
(4.41174e-06 1.67943e-06 5.7175e-26 4.05461e-06 -7.55505e-26 4.23315e-06)
(4.40069e-06 1.5869e-06 -4.75215e-24 4.01546e-06 3.66531e-26 4.20805e-06)
(4.40762e-06 1.49139e-06 -3.55675e-26 3.99118e-06 2.51528e-25 4.19934e-06)
(4.43252e-06 1.39285e-06 1.1296e-23 3.98165e-06 -1.73394e-25 4.20709e-06)
(4.4665e-06 1.29274e-06 1.20183e-23 3.98596e-06 -2.52228e-25 4.22623e-06)
(4.47548e-06 1.28938e-06 -5.85013e-24 3.98643e-06 -1.41432e-25 4.23093e-06)
(4.52524e-06 1.18452e-06 -1.11936e-23 4.00359e-06 -1.1196e-25 4.2644e-06)
(4.53604e-06 1.18175e-06 -2.59443e-25 4.0051e-06 1.47672e-26 4.27056e-06)
(4.60129e-06 1.07128e-06 -9.26294e-25 4.03469e-06 1.90647e-25 4.31795e-06)
(4.61378e-06 1.06977e-06 -6.68049e-24 4.03705e-06 2.27047e-25 4.32541e-06)
(4.69401e-06 9.53153e-07 3.93285e-25 4.07871e-06 8.26372e-27 4.38634e-06)
(4.70805e-06 9.52146e-07 1.37759e-23 4.08174e-06 -2.12662e-25 4.39492e-06)
(4.80275e-06 8.29944e-07 4.91615e-26 4.13497e-06 -1.91055e-25 4.46886e-06)
(4.8184e-06 8.29077e-07 -1.51222e-23 4.13847e-06 6.72687e-26 4.47839e-06)
(4.90844e-06 7.01449e-07 -4.0376e-26 4.19974e-06 4.22877e-25 4.55412e-06)
(4.92685e-06 7.00899e-07 -1.69047e-23 4.20288e-06 1.82248e-26 4.56485e-06)
(4.94389e-06 7.00304e-07 8.05517e-24 4.20677e-06 9.65529e-26 4.57527e-06)
(5.0456e-06 5.66488e-07 -4.38645e-26 4.27852e-06 8.51755e-28 4.66211e-06)
(5.06549e-06 5.66356e-07 -1.68688e-23 4.28194e-06 7.77797e-25 4.67371e-06)
(5.08386e-06 5.66776e-07 4.32313e-26 4.28615e-06 -9.35978e-26 4.68496e-06)
(5.19664e-06 4.2631e-07 9.16856e-26 4.36807e-06 -3.67602e-25 4.78243e-06)
(5.21819e-06 4.26148e-07 3.54454e-23 4.37161e-06 -2.42856e-25 4.79476e-06)
(5.23765e-06 4.26591e-07 -9.27426e-26 4.37618e-06 5.46815e-27 4.80686e-06)
(5.36094e-06 2.79489e-07 -3.58625e-23 4.468e-06 4.84287e-25 4.9145e-06)
(5.38348e-06 2.8003e-07 -1.64558e-24 4.47191e-06 -3.74038e-25 4.92781e-06)
(5.40462e-06 2.80549e-07 5.9199e-25 4.47645e-06 -1.30733e-26 4.94042e-06)
(5.51178e-06 1.26116e-07 4.4857e-27 4.57496e-06 7.86094e-25 5.04339e-06)
(5.53787e-06 1.26221e-07 2.4012e-24 4.57798e-06 7.9047e-25 5.05783e-06)
(5.56179e-06 1.27683e-07 6.02155e-25 4.58203e-06 2.16976e-26 5.07188e-06)
(5.58373e-06 1.29137e-07 -6.14335e-25 4.58698e-06 -8.67349e-27 5.08541e-06)
(5.69873e-06 -3.21726e-08 8.06326e-23 4.69494e-06 -1.88996e-24 5.19696e-06)
(5.72637e-06 -3.17689e-08 4.0183e-23 4.69804e-06 -1.34475e-24 5.21217e-06)
(5.75167e-06 -3.06476e-08 1.1627e-24 4.70223e-06 -3.77451e-25 5.22696e-06)
(5.77484e-06 -2.88284e-08 -1.28138e-24 4.70736e-06 1.33106e-26 5.24118e-06)
(5.89717e-06 -1.97157e-07 -8.13454e-23 4.82463e-06 2.2467e-25 5.36094e-06)
(5.92608e-06 -1.95578e-07 -8.3874e-23 4.82795e-06 2.36258e-24 5.37706e-06)
(5.95277e-06 -1.9399e-07 -4.07295e-23 4.83229e-06 1.3248e-24 5.39259e-06)
(5.97747e-06 -1.91652e-07 -1.23004e-24 4.83747e-06 4.29636e-26 5.40738e-06)
(6.10635e-06 -3.67267e-07 3.1593e-24 4.96406e-06 8.37084e-25 5.53511e-06)
(6.13678e-06 -3.65831e-07 1.74249e-22 4.96753e-06 -1.74253e-24 5.55202e-06)
(6.16459e-06 -3.63634e-07 8.57452e-23 4.97219e-06 -9.44464e-25 5.56846e-06)
(6.19028e-06 -3.60672e-07 1.16245e-24 4.97774e-06 -9.00238e-27 5.58412e-06)
(6.29109e-06 -5.44454e-07 -8.31618e-23 5.11087e-06 2.16553e-24 5.70097e-06)
(6.32549e-06 -5.43104e-07 2.47775e-25 5.11341e-06 8.05144e-25 5.71934e-06)
(6.35717e-06 -5.41776e-07 1.32433e-24 5.1172e-06 -3.36756e-24 5.73724e-06)
(6.38667e-06 -5.38858e-07 -1.45888e-24 5.12196e-06 -7.98941e-25 5.75433e-06)
(6.41364e-06 -5.35121e-07 7.16741e-27 5.12781e-06 -1.82841e-25 5.77073e-06)
(6.51835e-06 -7.25321e-07 9.16593e-23 5.26982e-06 3.97443e-25 5.894e-06)
(6.55411e-06 -7.24786e-07 9.10502e-23 5.27271e-06 -2.32912e-24 5.91342e-06)
(6.58763e-06 -7.21824e-07 -1.85059e-22 5.2766e-06 3.80076e-24 5.93203e-06)
(6.61857e-06 -7.18838e-07 3.73821e-25 5.28168e-06 -4.02428e-25 5.94995e-06)
(6.64653e-06 -7.15848e-07 -2.2998e-23 5.28808e-06 5.87854e-25 5.96733e-06)
(6.75434e-06 -9.12196e-07 9.39096e-23 5.43888e-06 -3.38074e-24 6.09679e-06)
(6.79208e-06 -9.10763e-07 -9.42908e-23 5.44191e-06 6.30403e-25 6.11698e-06)
(6.82717e-06 -9.07647e-07 9.49298e-23 5.44617e-06 8.92824e-25 6.1365e-06)
(6.85889e-06 -9.04552e-07 -4.93509e-23 5.45199e-06 8.64956e-25 6.15566e-06)
(6.88851e-06 -9.00636e-07 2.59664e-23 5.45869e-06 -2.65971e-25 6.17374e-06)
(6.95792e-06 -1.10622e-06 -5.27622e-24 5.61538e-06 3.97056e-24 6.28664e-06)
(6.99966e-06 -1.10455e-06 -9.58158e-23 5.61769e-06 2.46966e-24 6.30867e-06)
(7.0387e-06 -1.10121e-06 5.33988e-25 5.6213e-06 5.33427e-26 6.33002e-06)
(7.07537e-06 -1.09874e-06 9.36599e-23 5.626e-06 -3.35046e-24 6.35051e-06)
(7.10889e-06 -1.09542e-06 2.78663e-24 5.63217e-06 3.45921e-25 6.37045e-06)
(7.13953e-06 -1.08955e-06 -1.02641e-26 5.63962e-06 -1.24133e-26 6.38967e-06)
(7.2094e-06 -1.30121e-06 1.88226e-22 5.80408e-06 -4.93668e-24 6.5069e-06)
(7.25324e-06 -1.3001e-06 2.00072e-22 5.80667e-06 -6.23032e-24 6.52979e-06)
(7.29393e-06 -1.29642e-06 -9.87902e-23 5.8108e-06 2.68435e-24 6.55219e-06)
(7.33145e-06 -1.29366e-06 -9.83752e-23 5.81645e-06 9.439e-25 6.57408e-06)
(7.36682e-06 -1.29007e-06 -1.22474e-24 5.82308e-06 3.54596e-27 6.59488e-06)
(7.39923e-06 -1.28473e-06 2.6821e-23 5.83105e-06 -7.05392e-25 6.61493e-06)
(7.4692e-06 -1.50151e-06 -1.97428e-22 6.00276e-06 3.51947e-24 6.73604e-06)
(7.51433e-06 -1.49914e-06 -3.95233e-22 6.00609e-06 5.24186e-24 6.76019e-06)
(7.55667e-06 -1.49682e-06 1.03964e-22 6.01084e-06 -9.51668e-25 6.78368e-06)
(7.59579e-06 -1.4928e-06 -3.42041e-24 6.01728e-06 9.06177e-25 6.80673e-06)
(7.63267e-06 -1.48793e-06 -5.09489e-26 6.02469e-06 2.34325e-26 6.82864e-06)
(7.66652e-06 -1.48312e-06 -2.56925e-23 6.03349e-06 2.94533e-25 6.84979e-06)
(7.68729e-06 -1.70891e-06 2.059e-22 6.20874e-06 5.59553e-25 6.94778e-06)
(7.73658e-06 -1.70682e-06 1.99204e-22 6.21159e-06 -1.68679e-24 6.97402e-06)
(7.78299e-06 -1.70392e-06 -6.35161e-24 6.21588e-06 5.8489e-24 6.99954e-06)
(7.82695e-06 -1.70025e-06 6.31777e-24 6.22144e-06 -1.04327e-24 7.02421e-06)
(7.86801e-06 -1.69573e-06 -1.51482e-26 6.22855e-06 5.15938e-26 7.04824e-06)
(7.90601e-06 -1.69039e-06 1.5876e-24 6.23707e-06 -5.74456e-26 7.07152e-06)
(7.9409e-06 -1.68513e-06 -1.60354e-24 6.24705e-06 2.23469e-25 7.09405e-06)
(7.95987e-06 -1.9168e-06 2.06727e-22 6.42725e-06 -7.97948e-24 7.19349e-06)
(8.01079e-06 -1.91496e-06 -6.34223e-24 6.43091e-06 -3.8235e-24 7.2209e-06)
(8.05925e-06 -1.91148e-06 2.02803e-22 6.43588e-06 -5.70602e-24 7.24747e-06)
(8.10481e-06 -1.90718e-06 -6.13361e-25 6.44242e-06 -9.39256e-25 7.27337e-06)
(8.14694e-06 -1.90302e-06 3.19101e-24 6.45067e-06 -8.25622e-25 7.29879e-06)
(8.18643e-06 -1.89714e-06 -3.20953e-24 6.46026e-06 -3.58782e-25 7.32331e-06)
(8.22282e-06 -1.89136e-06 4.13786e-25 6.47142e-06 3.70805e-25 7.34716e-06)
(8.23937e-06 -2.12816e-06 -1.96917e-22 6.6558e-06 1.57644e-24 7.44763e-06)
(8.29186e-06 -2.12562e-06 -2.0885e-22 6.66044e-06 4.33646e-24 7.4763e-06)
(8.34193e-06 -2.12141e-06 -2.02988e-22 6.66651e-06 4.29806e-24 7.50416e-06)
(8.38857e-06 -2.11738e-06 -1.04947e-22 6.67432e-06 3.09614e-24 7.53151e-06)
(8.43264e-06 -2.11258e-06 -9.59748e-23 6.68353e-06 2.09693e-24 7.55803e-06)
(8.47367e-06 -2.10607e-06 -5.59546e-23 6.69439e-06 1.69771e-24 7.58394e-06)
(8.51149e-06 -2.0997e-06 5.39285e-23 6.70679e-06 -1.94514e-24 7.60912e-06)
(8.46881e-06 -2.34555e-06 -4.03914e-22 6.8904e-06 1.20719e-23 7.67959e-06)
(8.52559e-06 -2.34284e-06 1.51084e-24 6.89449e-06 -1.38735e-25 7.71012e-06)
(8.57952e-06 -2.33853e-06 1.44778e-24 6.90024e-06 4.16266e-24 7.74003e-06)
(8.63103e-06 -2.33445e-06 2.11597e-22 6.90745e-06 -2.61042e-24 7.76912e-06)
(8.67918e-06 -2.32963e-06 9.57703e-23 6.91656e-06 -1.21252e-24 7.79786e-06)
(8.72474e-06 -2.32318e-06 -2.96281e-24 6.9271e-06 9.6718e-25 7.82576e-06)
(8.76724e-06 -2.31781e-06 5.32448e-23 6.93931e-06 -7.77105e-25 7.85305e-06)
(8.80603e-06 -2.31078e-06 -1.02931e-22 6.95332e-06 2.38963e-24 7.87984e-06)
(8.76001e-06 -2.56245e-06 4.11741e-22 7.1379e-06 -3.69926e-24 7.94889e-06)
(8.81814e-06 -2.55875e-06 -2.16456e-22 7.14318e-06 6.69398e-24 7.98068e-06)
(8.87339e-06 -2.55349e-06 2.11611e-22 7.15017e-06 -4.56709e-24 8.01184e-06)
(8.92583e-06 -2.5485e-06 -7.14523e-25 7.15891e-06 -1.92004e-24 8.04246e-06)
(8.97578e-06 -2.54377e-06 -3.20031e-24 7.16913e-06 -7.50278e-25 8.07228e-06)
(9.02236e-06 -2.5374e-06 3.68439e-24 7.18139e-06 8.72793e-25 8.10185e-06)
(9.06576e-06 -2.5313e-06 1.73917e-24 7.19529e-06 -4.56023e-25 8.13075e-06)
(9.10697e-06 -2.52353e-06 5.05041e-23 7.21055e-06 -5.06113e-25 8.15868e-06)
(9.05704e-06 -2.78148e-06 1.359e-23 7.39541e-06 -4.61802e-24 8.22635e-06)
(9.11669e-06 -2.77667e-06 2.09901e-22 7.40169e-06 -4.34688e-24 8.25902e-06)
(9.17321e-06 -2.77128e-06 -7.08411e-24 7.4101e-06 -3.80024e-24 8.29149e-06)
(9.22636e-06 -2.76529e-06 2.23415e-26 7.42045e-06 5.53548e-26 8.32359e-06)
(9.27714e-06 -2.75869e-06 3.10622e-25 7.43243e-06 -2.912e-26 8.35503e-06)
(9.32546e-06 -2.7533e-06 1.06426e-22 7.44601e-06 -2.60251e-24 8.38573e-06)
(9.37071e-06 -2.74538e-06 -1.92762e-24 7.46136e-06 7.89926e-25 8.41593e-06)
(9.41283e-06 -2.73681e-06 -1.21331e-24 7.47855e-06 -3.19565e-25 8.44561e-06)
(9.297e-06 -3.00619e-06 -1.36125e-25 7.65643e-06 4.69281e-24 8.47677e-06)
(9.35991e-06 -3.00158e-06 -7.60261e-25 7.6625e-06 -1.34615e-25 8.51139e-06)
(9.42062e-06 -2.99556e-06 -2.02638e-22 7.67027e-06 4.67865e-24 8.54531e-06)
(9.47807e-06 -2.98995e-06 -2.01716e-22 7.68003e-06 6.81578e-24 8.5789e-06)
(9.5328e-06 -2.98379e-06 7.07887e-24 7.69172e-06 -1.04001e-25 8.61208e-06)
(9.58422e-06 -2.97613e-06 -6.39862e-24 7.70552e-06 1.02644e-25 8.64506e-06)
(9.63324e-06 -2.96883e-06 3.14228e-25 7.72097e-06 -8.50827e-25 8.67739e-06)
(9.68025e-06 -2.96092e-06 1.02626e-22 7.73787e-06 -2.71177e-24 8.70887e-06)
(9.72366e-06 -2.9524e-06 -2.81361e-25 7.75686e-06 -2.33357e-27 8.74008e-06)
(9.60499e-06 -3.22867e-06 3.98105e-22 7.93169e-06 -1.32915e-23 8.76832e-06)
(9.66853e-06 -3.22267e-06 -9.76509e-25 7.93913e-06 4.38559e-24 8.80394e-06)
(9.72997e-06 -3.21624e-06 2.08876e-22 7.94831e-06 -6.87304e-24 8.83893e-06)
(9.78778e-06 -3.20937e-06 1.95252e-22 7.95989e-06 -2.78499e-24 8.87393e-06)
(9.84336e-06 -3.20203e-06 5.59666e-24 7.97314e-06 -2.18174e-25 8.90829e-06)
(9.89618e-06 -3.19418e-06 -6.34355e-24 7.98833e-06 -1.51405e-24 8.94229e-06)
(9.94625e-06 -3.18579e-06 2.68438e-26 8.00553e-06 2.45662e-26 8.97601e-06)
(9.99385e-06 -3.17687e-06 1.02805e-24 8.02445e-06 -2.44541e-24 9.00911e-06)
(1.00384e-05 -3.16833e-06 -1.60736e-24 8.04531e-06 2.97715e-26 9.04184e-06)
(9.91833e-06 -3.45218e-06 -3.97365e-22 8.21653e-06 8.87211e-24 9.06754e-06)
(9.98227e-06 -3.44466e-06 4.10016e-22 8.22542e-06 -1.84495e-23 9.10412e-06)
(1.00441e-05 -3.43774e-06 -3.99813e-22 8.23598e-06 1.19706e-23 9.13995e-06)
(1.01029e-05 -3.42951e-06 1.60287e-24 8.24888e-06 -1.82133e-24 9.17578e-06)
(1.01591e-05 -3.42087e-06 -6.73177e-25 8.26369e-06 -2.72392e-26 9.21121e-06)
(1.02122e-05 -3.41178e-06 -2.00575e-22 8.28086e-06 7.29264e-24 9.2467e-06)
(1.0263e-05 -3.40317e-06 3.23546e-24 8.29976e-06 -6.26222e-26 9.28159e-06)
(1.03116e-05 -3.39315e-06 -2.04067e-22 8.32053e-06 7.28483e-24 9.31608e-06)
(1.03572e-05 -3.38266e-06 -1.38709e-24 8.34331e-06 -2.89521e-25 9.35028e-06)
(1.01704e-05 -3.68463e-06 1.75834e-24 8.50266e-06 -6.23797e-27 9.33652e-06)
(1.02373e-05 -3.67662e-06 3.89244e-22 8.51061e-06 -4.89609e-24 9.37405e-06)
(1.03013e-05 -3.66748e-06 -7.89215e-22 8.52091e-06 1.94297e-23 9.41139e-06)
(1.03633e-05 -3.65901e-06 3.9361e-22 8.53297e-06 -5.79961e-24 9.4481e-06)
(1.04224e-05 -3.64931e-06 4.59913e-24 8.54737e-06 1.72484e-24 9.48481e-06)
(1.0479e-05 -3.64021e-06 3.73731e-24 8.56378e-06 -2.86915e-26 9.52123e-06)
(1.05325e-05 -3.63073e-06 1.93367e-22 8.58257e-06 -1.87795e-24 9.5577e-06)
(1.05839e-05 -3.61994e-06 3.049e-24 8.60317e-06 6.7893e-25 9.59373e-06)
(1.06336e-05 -3.60875e-06 1.99991e-22 8.62552e-06 -5.07102e-24 9.62924e-06)
(1.06796e-05 -3.59805e-06 -5.10277e-23 8.65045e-06 1.89121e-24 9.665e-06)
(1.0495e-05 -3.91079e-06 -1.89877e-24 8.80506e-06 4.53019e-24 9.65009e-06)
(1.05621e-05 -3.90185e-06 1.11887e-23 8.8141e-06 -5.05978e-24 9.68797e-06)
(1.06258e-05 -3.89097e-06 3.90783e-22 8.82578e-06 2.89588e-24 9.72597e-06)
(1.06877e-05 -3.88084e-06 -8.74299e-25 8.83922e-06 -3.99583e-24 9.76332e-06)
(1.07466e-05 -3.8705e-06 1.88722e-22 8.85497e-06 -7.3013e-24 9.80063e-06)
(1.08027e-05 -3.8599e-06 6.03685e-24 8.8731e-06 1.58635e-24 9.83803e-06)
(1.08569e-05 -3.84901e-06 1.95962e-22 8.8932e-06 -9.25382e-24 9.87514e-06)
(1.0909e-05 -3.83689e-06 9.40154e-23 8.91524e-06 -2.98451e-24 9.91193e-06)
(1.09581e-05 -3.82534e-06 -9.45999e-23 8.93975e-06 1.34279e-24 9.94891e-06)
(1.10046e-05 -3.81348e-06 4.84189e-23 8.96652e-06 -1.12126e-24 9.98588e-06)
(1.08253e-05 -4.13674e-06 3.70293e-22 9.11731e-06 -1.37813e-23 9.97155e-06)
(1.08923e-05 -4.12675e-06 -2.89257e-24 9.12741e-06 -5.03647e-24 1.00097e-05)
(1.09558e-05 -4.11491e-06 3.82832e-22 9.13998e-06 -1.91158e-23 1.00478e-05)
(1.10166e-05 -4.10301e-06 -2.47508e-24 9.15495e-06 5.56698e-27 1.00858e-05)
(1.10751e-05 -4.0919e-06 -1.86533e-22 9.17203e-06 3.49418e-24 1.01237e-05)
(1.11313e-05 -4.07971e-06 1.86225e-22 9.19128e-06 -5.78096e-24 1.01614e-05)
(1.11853e-05 -4.0664e-06 -1.91742e-22 9.21281e-06 3.99625e-24 1.01991e-05)
(1.12369e-05 -4.05376e-06 -6.07931e-24 9.23654e-06 -1.49832e-24 1.02368e-05)
(1.12865e-05 -4.04088e-06 4.55862e-24 9.26236e-06 1.32993e-24 1.02743e-05)
(1.13336e-05 -4.02682e-06 -1.90935e-24 9.29054e-06 -6.3443e-25 1.0312e-05)
(1.10935e-05 -4.37632e-06 3.70412e-22 9.43077e-06 -1.43803e-23 1.02621e-05)
(1.11623e-05 -4.36402e-06 -3.71106e-22 9.43968e-06 9.54404e-24 1.0301e-05)
(1.12281e-05 -4.35189e-06 -3.84978e-22 9.45084e-06 1.01013e-23 1.03394e-05)
(1.12912e-05 -4.33985e-06 -3.83322e-22 9.46428e-06 6.39845e-24 1.03775e-05)
(1.1351e-05 -4.32694e-06 1.78332e-24 9.48028e-06 -6.95942e-26 1.04157e-05)
(1.14086e-05 -4.31313e-06 5.87543e-24 9.49852e-06 1.68499e-24 1.04538e-05)
(1.14646e-05 -4.29923e-06 -7.46846e-24 9.51866e-06 -1.76652e-24 1.04916e-05)
(1.15179e-05 -4.2852e-06 -3.37976e-25 9.54134e-06 3.44339e-24 1.05296e-05)
(1.15689e-05 -4.27015e-06 -9.37448e-23 9.56635e-06 2.22241e-24 1.05677e-05)
(1.16182e-05 -4.25583e-06 9.369e-23 9.59346e-06 -3.1837e-24 1.06058e-05)
(1.16651e-05 -4.24043e-06 -4.79374e-23 9.62307e-06 2.3483e-24 1.0644e-05)
(1.14372e-05 -4.60422e-06 -3.78004e-22 9.76373e-06 4.49801e-24 1.06005e-05)
(1.15057e-05 -4.59305e-06 3.82747e-22 9.77303e-06 -1.05023e-23 1.06391e-05)
(1.15701e-05 -4.57949e-06 -2.04957e-24 9.78506e-06 4.42967e-24 1.06776e-05)
(1.16318e-05 -4.56615e-06 5.59713e-24 9.7994e-06 8.46234e-24 1.07158e-05)
(1.16913e-05 -4.55206e-06 -5.81891e-24 9.81587e-06 2.35563e-25 1.07536e-05)
(1.17482e-05 -4.53628e-06 3.33159e-26 9.83467e-06 -1.51247e-25 1.07914e-05)
(1.18024e-05 -4.52054e-06 -8.93172e-25 9.856e-06 -1.95367e-24 1.08294e-05)
(1.1855e-05 -4.50479e-06 1.85004e-22 9.87926e-06 -8.02178e-24 1.08671e-05)
(1.19051e-05 -4.4881e-06 -9.35661e-23 9.90519e-06 5.65505e-24 1.09053e-05)
(1.19535e-05 -4.47136e-06 -1.84944e-25 9.93337e-06 -1.60069e-24 1.09435e-05)
(1.20002e-05 -4.45453e-06 9.36773e-23 9.96382e-06 -3.26357e-24 1.09818e-05)
(1.17165e-05 -4.84528e-06 1.06447e-23 1.01018e-05 1.98016e-23 1.09088e-05)
(1.17872e-05 -4.83355e-06 -1.34609e-23 1.01094e-05 5.14774e-24 1.09485e-05)
(1.18547e-05 -4.82144e-06 -3.59219e-22 1.01193e-05 9.80545e-24 1.09872e-05)
(1.19191e-05 -4.80795e-06 -1.99522e-24 1.01313e-05 2.22251e-25 1.10251e-05)
(1.19796e-05 -4.79305e-06 3.61388e-22 1.01461e-05 -1.56933e-23 1.1063e-05)
(1.20379e-05 -4.77754e-06 3.85965e-24 1.01628e-05 -1.14503e-25 1.11003e-05)
(1.20935e-05 -4.76136e-06 -9.34495e-24 1.0182e-05 4.21721e-24 1.11376e-05)
(1.21466e-05 -4.74358e-06 -1.80485e-22 1.02036e-05 5.91469e-24 1.1175e-05)
(1.21976e-05 -4.72592e-06 -1.84261e-22 1.02275e-05 4.5223e-24 1.12125e-05)
(1.22467e-05 -4.70747e-06 1.85548e-22 1.02537e-05 -5.66288e-24 1.12502e-05)
(1.22937e-05 -4.68818e-06 -9.25794e-23 1.02824e-05 3.20957e-24 1.12881e-05)
(1.23386e-05 -4.66988e-06 -4.56616e-23 1.03137e-05 9.34903e-25 1.13264e-05)
(1.20728e-05 -5.07167e-06 7.09175e-22 1.04626e-05 -2.88149e-23 1.12676e-05)
(1.21448e-05 -5.06284e-06 -7.77042e-24 1.04693e-05 1.60427e-25 1.13067e-05)
(1.22117e-05 -5.05024e-06 3.58706e-22 1.04792e-05 -6.12607e-24 1.13453e-05)
(1.22748e-05 -5.0373e-06 1.74021e-24 1.04913e-05 -2.11679e-26 1.13831e-05)
(1.23344e-05 -5.02224e-06 -3.61731e-22 1.0506e-05 7.07083e-24 1.14204e-05)
(1.23912e-05 -5.00583e-06 3.4454e-24 1.05229e-05 -1.33361e-25 1.14573e-05)
(1.24457e-05 -4.98806e-06 3.52734e-22 1.05418e-05 -1.60761e-23 1.14936e-05)
(1.24973e-05 -4.96971e-06 -1.66018e-24 1.05634e-05 1.7845e-24 1.15303e-05)
(1.25467e-05 -4.9499e-06 -2.79927e-24 1.05871e-05 3.59225e-24 1.15669e-05)
(1.25942e-05 -4.92947e-06 1.90525e-24 1.06134e-05 -2.64326e-24 1.16036e-05)
(1.26392e-05 -4.90924e-06 -2.00037e-26 1.06421e-05 1.5134e-24 1.16409e-05)
(1.26827e-05 -4.88751e-06 -4.05523e-27 1.06732e-05 3.43123e-25 1.16783e-05)
(1.24348e-05 -5.29481e-06 -6.88238e-22 1.08413e-05 1.84173e-23 1.16373e-05)
(1.25073e-05 -5.28912e-06 -6.39228e-24 1.08474e-05 -9.50027e-24 1.16769e-05)
(1.25749e-05 -5.27986e-06 -8.80369e-24 1.08559e-05 -9.68921e-24 1.17153e-05)
(1.26379e-05 -5.26781e-06 5.44397e-24 1.08675e-05 -3.05041e-25 1.17528e-05)
(1.2697e-05 -5.25294e-06 5.25138e-24 1.08814e-05 4.17994e-24 1.17894e-05)
(1.27531e-05 -5.23602e-06 -6.97169e-24 1.08976e-05 -4.02359e-24 1.18253e-05)
(1.28058e-05 -5.2179e-06 -3.46767e-22 1.09162e-05 4.26494e-24 1.1861e-05)
(1.28559e-05 -5.19854e-06 2.35962e-24 1.0937e-05 -2.27834e-27 1.18965e-05)
(1.29039e-05 -5.17786e-06 1.71382e-22 1.09601e-05 -8.26027e-24 1.19318e-05)
(1.29488e-05 -5.15591e-06 -8.72974e-23 1.09859e-05 4.87999e-24 1.19675e-05)
(1.29922e-05 -5.13272e-06 8.63902e-23 1.10138e-05 -4.16016e-24 1.20032e-05)
(1.30342e-05 -5.10819e-06 -6.64355e-25 1.1044e-05 1.47103e-26 1.2039e-05)
(1.27271e-05 -5.51948e-06 4.74493e-24 1.12307e-05 -1.08832e-23 1.19795e-05)
(1.28031e-05 -5.51891e-06 6.69504e-22 1.12369e-05 -3.02616e-23 1.20204e-05)
(1.28756e-05 -5.51221e-06 -6.72682e-22 1.1244e-05 3.05129e-23 1.20596e-05)
(1.2944e-05 -5.50584e-06 -3.39836e-22 1.12519e-05 5.78629e-24 1.20974e-05)
(1.30082e-05 -5.49751e-06 -3.3366e-24 1.12616e-05 4.70851e-24 1.21344e-05)
(1.30676e-05 -5.48484e-06 3.60823e-24 1.12739e-05 -4.56674e-24 1.21705e-05)
(1.31225e-05 -5.46856e-06 -3.37803e-22 1.1289e-05 2.06379e-23 1.22059e-05)
(1.31743e-05 -5.45123e-06 -3.28882e-22 1.13064e-05 2.02346e-23 1.22405e-05)
(1.32227e-05 -5.43108e-06 8.98148e-25 1.13262e-05 -9.36352e-28 1.22747e-05)
(1.32689e-05 -5.4098e-06 -1.69099e-22 1.13481e-05 4.74391e-24 1.23086e-05)
(1.33128e-05 -5.38657e-06 1.69658e-22 1.13721e-05 -7.66067e-24 1.23423e-05)
(1.33542e-05 -5.36141e-06 -8.6371e-23 1.13986e-05 2.62678e-24 1.23762e-05)
(1.3393e-05 -5.33521e-06 4.86716e-25 1.14279e-05 -4.2013e-27 1.24105e-05)
(1.31099e-05 -5.70664e-06 -6.5316e-22 1.16391e-05 1.77744e-23 1.23749e-05)
(1.31824e-05 -5.72227e-06 -1.30104e-21 1.16475e-05 3.89754e-23 1.24157e-05)
(1.32537e-05 -5.73619e-06 6.70992e-22 1.1655e-05 -6.32314e-25 1.24547e-05)
(1.33193e-05 -5.7331e-06 -3.32916e-22 1.16649e-05 2.05292e-23 1.24929e-05)
(1.33831e-05 -5.72535e-06 3.24825e-22 1.16749e-05 -1.5947e-23 1.2529e-05)
(1.34438e-05 -5.71614e-06 -3.17194e-22 1.16852e-05 1.15673e-23 1.25636e-05)
(1.34995e-05 -5.70493e-06 6.51796e-22 1.16977e-05 -2.84308e-23 1.25981e-05)
(1.35506e-05 -5.68861e-06 3.26136e-22 1.17131e-05 -1.25249e-23 1.26319e-05)
(1.35983e-05 -5.66954e-06 -1.66058e-24 1.17309e-05 3.88134e-28 1.26647e-05)
(1.3643e-05 -5.64781e-06 -7.05113e-25 1.17508e-05 1.69486e-24 1.2697e-05)
(1.36848e-05 -5.62421e-06 -1.63312e-22 1.17731e-05 3.30808e-24 1.27291e-05)
(1.37243e-05 -5.59873e-06 6.81121e-25 1.17975e-05 7.52826e-25 1.27609e-05)
(1.37611e-05 -5.57159e-06 8.4739e-27 1.18247e-05 -2.83534e-27 1.27929e-05)
(1.34456e-05 -5.88452e-06 6.18056e-22 1.20444e-05 -2.76904e-23 1.27448e-05)
(1.35139e-05 -5.90089e-06 -2.56422e-24 1.20569e-05 2.181e-23 1.27854e-05)
(1.358e-05 -5.91541e-06 6.47332e-22 1.20693e-05 5.31629e-25 1.28245e-05)
(1.36441e-05 -5.93079e-06 6.25206e-22 1.20811e-05 -4.0541e-23 1.28626e-05)
(1.37062e-05 -5.94432e-06 3.07059e-22 1.20924e-05 -9.03856e-25 1.29001e-05)
(1.37684e-05 -5.95733e-06 -3.20937e-22 1.21022e-05 6.77186e-24 1.29358e-05)
(1.38258e-05 -5.94973e-06 1.60984e-26 1.21142e-05 8.99534e-24 1.29704e-05)
(1.38813e-05 -5.94029e-06 -6.32878e-22 1.2126e-05 2.4843e-23 1.30035e-05)
(1.39339e-05 -5.92851e-06 -3.05743e-22 1.21383e-05 1.27519e-23 1.30352e-05)
(1.39814e-05 -5.91234e-06 1.66725e-24 1.2153e-05 -1.90027e-24 1.3067e-05)
(1.40254e-05 -5.89351e-06 -1.90135e-24 1.21701e-05 -1.71715e-24 1.30978e-05)
(1.4066e-05 -5.87043e-06 -1.56043e-22 1.21895e-05 1.16878e-23 1.31279e-05)
(1.41035e-05 -5.84457e-06 9.96383e-25 1.22115e-05 -1.07139e-26 1.31577e-05)
(1.41385e-05 -5.81635e-06 -1.4465e-25 1.22355e-05 -3.50095e-25 1.31872e-05)
(1.3874e-05 -6.08671e-06 -5.96518e-22 1.24741e-05 -5.47306e-24 1.31741e-05)
(1.39373e-05 -6.10186e-06 6.12552e-22 1.24883e-05 -1.75189e-23 1.3213e-05)
(1.39979e-05 -6.11614e-06 -8.71278e-24 1.25028e-05 5.16533e-25 1.32503e-05)
(1.40559e-05 -6.13119e-06 -6.08887e-22 1.25175e-05 2.08284e-23 1.32863e-05)
(1.41116e-05 -6.14497e-06 3.08905e-22 1.25321e-05 -2.53682e-23 1.33215e-05)
(1.41656e-05 -6.15846e-06 -3.29166e-25 1.25461e-05 4.41687e-24 1.33563e-05)
(1.42197e-05 -6.17194e-06 3.09031e-22 1.25585e-05 -1.16047e-23 1.339e-05)
(1.42733e-05 -6.18109e-06 6.12132e-22 1.25697e-05 -2.08628e-23 1.34222e-05)
(1.43236e-05 -6.17017e-06 3.04476e-22 1.25825e-05 -4.79836e-24 1.3453e-05)
(1.43711e-05 -6.15746e-06 -1.54996e-22 1.25953e-05 1.04239e-23 1.34828e-05)
(1.44154e-05 -6.14241e-06 -1.48937e-22 1.26088e-05 8.51483e-24 1.35118e-05)
(1.44561e-05 -6.12305e-06 3.04827e-22 1.26243e-05 -1.35866e-23 1.35399e-05)
(1.44928e-05 -6.09923e-06 -1.23311e-24 1.26424e-05 -2.19653e-26 1.35676e-05)
(1.4526e-05 -6.07225e-06 -3.79857e-23 1.2663e-05 2.12722e-24 1.35946e-05)
(1.42603e-05 -6.28116e-06 6.44538e-25 1.2906e-05 1.04516e-25 1.35833e-05)
(1.43225e-05 -6.29781e-06 -5.71322e-22 1.29213e-05 3.86065e-23 1.36217e-05)
(1.43805e-05 -6.31235e-06 9.50344e-24 1.29371e-05 -1.028e-23 1.36587e-05)
(1.44351e-05 -6.32689e-06 5.81598e-22 1.29532e-05 -3.02512e-23 1.36944e-05)
(1.44877e-05 -6.3405e-06 5.67576e-22 1.29691e-05 -2.14346e-23 1.37284e-05)
(1.45381e-05 -6.35541e-06 -5.86327e-22 1.29852e-05 2.19491e-23 1.37614e-05)
(1.45859e-05 -6.36784e-06 4.07182e-24 1.30015e-05 1.63689e-26 1.37934e-05)
(1.4633e-05 -6.38121e-06 -5.23347e-25 1.3017e-05 -4.25371e-24 1.38246e-05)
(1.46786e-05 -6.39348e-06 -2.9527e-22 1.30316e-05 8.42984e-24 1.38557e-05)
(1.47251e-05 -6.406e-06 2.95394e-22 1.30442e-05 -1.67666e-23 1.38857e-05)
(1.47708e-05 -6.40841e-06 2.94688e-22 1.30562e-05 -1.32157e-23 1.3914e-05)
(1.48132e-05 -6.39337e-06 1.46367e-22 1.30692e-05 -4.91907e-24 1.39412e-05)
(1.48535e-05 -6.37831e-06 -1.48828e-22 1.30818e-05 3.53684e-24 1.39669e-05)
(1.48902e-05 -6.36042e-06 2.64686e-25 1.30956e-05 2.41144e-26 1.39925e-05)
(1.49235e-05 -6.33684e-06 3.72874e-23 1.3111e-05 -1.39506e-24 1.40171e-05)
(1.4735e-05 -6.50283e-06 -4.67272e-24 1.33717e-05 2.01731e-25 1.40534e-05)
(1.47909e-05 -6.51891e-06 5.61546e-22 1.33889e-05 -5.99969e-24 1.40901e-05)
(1.48439e-05 -6.53374e-06 -9.5599e-24 1.34059e-05 1.10365e-23 1.41248e-05)
(1.48935e-05 -6.54868e-06 -5.67538e-22 1.34229e-05 9.20735e-24 1.4158e-05)
(1.494e-05 -6.56213e-06 -5.58042e-22 1.34399e-05 1.08485e-23 1.41901e-05)
(1.49847e-05 -6.57621e-06 2.87036e-22 1.34566e-05 -1.56421e-24 1.42207e-05)
(1.50276e-05 -6.58856e-06 -9.46177e-25 1.34731e-05 -4.4761e-26 1.42501e-05)
(1.50683e-05 -6.60214e-06 1.12361e-24 1.34899e-05 4.52572e-24 1.42788e-05)
(1.51075e-05 -6.61465e-06 2.80665e-22 1.35065e-05 -1.28058e-23 1.43066e-05)
(1.51462e-05 -6.62623e-06 -7.827e-24 1.3522e-05 -8.1685e-24 1.4334e-05)
(1.51849e-05 -6.63906e-06 -1.43282e-22 1.35358e-05 2.87572e-24 1.43609e-05)
(1.52241e-05 -6.65028e-06 8.10746e-25 1.3548e-05 -1.71002e-24 1.43867e-05)
(1.5261e-05 -6.64357e-06 -2.90996e-25 1.35601e-05 1.60694e-24 1.44115e-05)
(1.52963e-05 -6.62629e-06 1.37268e-27 1.35725e-05 6.07744e-27 1.44344e-05)
(1.53298e-05 -6.60627e-06 9.27489e-28 1.35841e-05 -3.43711e-25 1.44561e-05)
(1.52334e-05 -6.73682e-06 -3.38718e-27 1.3861e-05 6.51473e-26 1.45471e-05)
(1.52841e-05 -6.7512e-06 4.56993e-24 1.38803e-05 7.63413e-25 1.45821e-05)
(1.53312e-05 -6.76578e-06 5.31962e-22 1.38993e-05 -2.97151e-23 1.46153e-05)
(1.5375e-05 -6.77973e-06 -5.6297e-24 1.39179e-05 -6.54102e-25 1.46466e-05)
(1.54167e-05 -6.79295e-06 1.60442e-24 1.39359e-05 -7.31076e-25 1.46763e-05)
(1.54561e-05 -6.80539e-06 -5.48728e-25 1.39533e-05 3.40462e-25 1.47045e-05)
(1.5493e-05 -6.8177e-06 1.8861e-24 1.39706e-05 -1.49689e-26 1.47318e-05)
(1.55281e-05 -6.82914e-06 2.66431e-22 1.39875e-05 -2.11613e-23 1.47579e-05)
(1.55623e-05 -6.84112e-06 -2.77161e-22 1.4004e-05 8.19656e-24 1.47829e-05)
(1.55943e-05 -6.85205e-06 -2.72548e-22 1.40207e-05 1.26391e-23 1.48074e-05)
(1.56257e-05 -6.86357e-06 1.59624e-24 1.40367e-05 1.80902e-24 1.4831e-05)
(1.56571e-05 -6.87423e-06 -9.96995e-26 1.40512e-05 5.14709e-27 1.4854e-05)
(1.56881e-05 -6.88514e-06 1.735e-26 1.40645e-05 2.41065e-27 1.48772e-05)
(1.57203e-05 -6.8943e-06 2.50603e-26 1.40751e-05 -1.2814e-27 1.48986e-05)
(1.57505e-05 -6.88638e-06 -7.53758e-27 1.40856e-05 -3.57502e-25 1.49185e-05)
(1.57107e-05 -6.96494e-06 5.1023e-22 1.43582e-05 -1.45491e-23 1.50346e-05)
(1.57612e-05 -6.98106e-06 -1.28533e-24 1.43809e-05 3.359e-26 1.50709e-05)
(1.58068e-05 -6.99598e-06 5.06202e-22 1.44031e-05 -1.74761e-23 1.5105e-05)
(1.58489e-05 -7.011e-06 -5.28753e-22 1.44245e-05 7.77648e-24 1.51368e-05)
(1.5888e-05 -7.02384e-06 -5.10215e-22 1.44448e-05 3.08162e-23 1.51664e-05)
(1.59241e-05 -7.03662e-06 -5.03959e-22 1.44645e-05 2.11149e-23 1.51944e-05)
(1.59581e-05 -7.04856e-06 2.59734e-22 1.44831e-05 -1.10961e-23 1.52206e-05)
(1.59903e-05 -7.06036e-06 -5.70735e-24 1.45008e-05 -5.95854e-27 1.52453e-05)
(1.602e-05 -7.07133e-06 -5.17866e-22 1.45182e-05 2.41843e-23 1.52691e-05)
(1.60484e-05 -7.08227e-06 3.94188e-24 1.45349e-05 4.02818e-24 1.52917e-05)
(1.60754e-05 -7.09306e-06 -3.19008e-25 1.4551e-05 3.8607e-24 1.53134e-05)
(1.61011e-05 -7.10225e-06 -2.47009e-26 1.45668e-05 1.94629e-24 1.53339e-05)
(1.61257e-05 -7.11255e-06 6.50669e-29 1.45821e-05 -6.05936e-27 1.53536e-05)
(1.61493e-05 -7.12242e-06 1.35557e-26 1.45966e-05 -1.69443e-24 1.53726e-05)
(1.61726e-05 -7.13126e-06 -1.48865e-25 1.46095e-05 -1.74678e-27 1.53911e-05)
(1.61958e-05 -7.14072e-06 -3.26722e-23 1.46204e-05 2.51405e-24 1.54088e-05)
(1.62786e-05 -7.22609e-06 1.56057e-24 1.49103e-05 -2.43404e-23 1.55943e-05)
(1.6324e-05 -7.24229e-06 -8.22782e-27 1.49369e-05 -2.02508e-27 1.56303e-05)
(1.63646e-05 -7.25787e-06 -9.58602e-24 1.49623e-05 -2.306e-23 1.56637e-05)
(1.64017e-05 -7.27128e-06 3.73534e-24 1.49862e-05 2.17956e-23 1.56941e-05)
(1.64358e-05 -7.28454e-06 4.98276e-22 1.50086e-05 1.50624e-24 1.57222e-05)
(1.64669e-05 -7.29689e-06 5.76675e-24 1.50299e-05 1.0307e-23 1.57484e-05)
(1.64957e-05 -7.30826e-06 -4.82e-24 1.50497e-05 -1.50419e-23 1.57726e-05)
(1.6522e-05 -7.3194e-06 1.87074e-24 1.50686e-05 -1.63478e-27 1.57953e-05)
(1.65466e-05 -7.33037e-06 2.50541e-22 1.50864e-05 -3.24347e-24 1.58166e-05)
(1.65698e-05 -7.34043e-06 -2.93654e-24 1.51031e-05 4.4138e-24 1.58365e-05)
(1.65915e-05 -7.34966e-06 1.29497e-24 1.51188e-05 -2.0438e-26 1.58551e-05)
(1.66116e-05 -7.35887e-06 1.23571e-22 1.51339e-05 -6.62831e-24 1.58727e-05)
(1.66304e-05 -7.36735e-06 -2.00853e-24 1.51482e-05 1.85142e-24 1.58892e-05)
(1.6648e-05 -7.37578e-06 -1.23716e-22 1.51619e-05 8.58992e-24 1.59047e-05)
(1.66638e-05 -7.38423e-06 8.73394e-25 1.51752e-05 1.03909e-26 1.59192e-05)
(1.66789e-05 -7.39232e-06 6.3033e-23 1.51873e-05 -3.55045e-24 1.59326e-05)
(1.68369e-05 -7.48646e-06 9.68334e-22 1.54686e-05 -2.21137e-24 1.61527e-05)
(1.68831e-05 -7.50467e-06 -4.91595e-22 1.5501e-05 2.70129e-23 1.61921e-05)
(1.6924e-05 -7.52158e-06 -1.29138e-24 1.55319e-05 1.20938e-23 1.62279e-05)
(1.69604e-05 -7.537e-06 -4.74636e-22 1.55607e-05 1.73013e-23 1.62605e-05)
(1.69928e-05 -7.55078e-06 4.78236e-22 1.55878e-05 -4.18309e-23 1.62902e-05)
(1.70215e-05 -7.56351e-06 4.64121e-22 1.56131e-05 -3.05653e-23 1.63174e-05)
(1.70477e-05 -7.57581e-06 1.01739e-24 1.56365e-05 1.11875e-23 1.63421e-05)
(1.70712e-05 -7.58696e-06 -4.72915e-22 1.56582e-05 3.22158e-23 1.63647e-05)
(1.70927e-05 -7.59836e-06 4.14931e-24 1.56782e-05 2.53294e-27 1.63855e-05)
(1.71119e-05 -7.60729e-06 1.89993e-24 1.5697e-05 -4.31956e-24 1.64047e-05)
(1.713e-05 -7.61657e-06 2.33868e-22 1.57139e-05 -1.68539e-23 1.6422e-05)
(1.71461e-05 -7.62557e-06 -1.79541e-24 1.57297e-05 2.37899e-26 1.6438e-05)
(1.71609e-05 -7.63372e-06 -1.9743e-24 1.57444e-05 -5.89746e-24 1.64525e-05)
(1.71742e-05 -7.64181e-06 1.17999e-22 1.57577e-05 -6.70711e-24 1.64659e-05)
(1.71854e-05 -7.64917e-06 1.1912e-22 1.57706e-05 -5.09188e-24 1.64781e-05)
(1.71954e-05 -7.65663e-06 -6.06551e-25 1.57823e-05 -8.96538e-27 1.64889e-05)
(1.72041e-05 -7.6629e-06 -2.99951e-23 1.57929e-05 1.03455e-24 1.64984e-05)
(1.7484e-05 -7.78288e-06 5.08779e-24 1.60953e-05 1.71608e-24 1.67899e-05)
(1.75265e-05 -7.80184e-06 4.56764e-22 1.61333e-05 -3.76986e-24 1.68299e-05)
(1.75632e-05 -7.81927e-06 4.43147e-22 1.61692e-05 -2.87933e-23 1.68662e-05)
(1.75952e-05 -7.83495e-06 -1.54884e-23 1.62026e-05 2.29262e-23 1.6899e-05)