/*--------------------------------*- C++ -*----------------------------------*\
  =========                 |
  \\      /  F ield         | OpenFOAM: The Open Source CFD Toolbox
   \\    /   O peration     | Website:  https://openfoam.org
    \\  /    A nd           | Version:  7
     \\/     M anipulation  |
\*---------------------------------------------------------------------------*/
FoamFile
{
    version     2.0;
    format      ascii;
    class       volVectorField;
    location    "25000";
    object      UDNS;
}
// * * * * * * * * * * * * * * * * * * * * * * * * * * * * * * * * * * * * * //

dimensions      [0 1 -1 0 0 0 0];

internalField   nonuniform List<vector> 
2473
(
(0.0258548 -0.000184734 4.57883e-05)
(0.0261444 -0.00020523 4.79824e-05)
(0.0264032 -0.000225901 5.1588e-05)
(0.0266358 -0.000246741 5.67889e-05)
(0.026844 -0.00026763 6.32031e-05)
(0.0270288 -0.000288669 6.98231e-05)
(0.027081 -0.000291828 7.64054e-05)
(0.0271923 -0.000309919 7.59579e-05)
(0.0272266 -0.000312731 8.26072e-05)
(0.0273345 -0.00033134 8.22834e-05)
(0.0273519 -0.000333671 8.91265e-05)
(0.0274571 -0.000352997 8.88502e-05)
(0.02746 -0.000354863 9.54335e-05)
(0.027562 -0.000374699 9.53445e-05)
(0.0275508 -0.000376144 0.000101041)
(0.0276497 -0.000396494 0.000101438)
(0.0275305 -0.000375671 0.000106115)
(0.0276252 -0.00039755 0.0001065)
(0.0277223 -0.000418567 0.000107077)
(0.0275925 -0.000396801 0.000111147)
(0.0276855 -0.0004194 0.000111403)
(0.0277808 -0.000440873 0.000111835)
(0.02764 -0.000418265 0.00011614)
(0.0277312 -0.000441463 0.000116184)
(0.0278252 -0.000463598 0.000116365)
(0.0276737 -0.000439982 0.000121255)
(0.0277635 -0.000463972 0.0001211)
(0.0278562 -0.000486877 0.000120925)
(0.0276104 -0.000436051 0.000125325)
(0.0276957 -0.000462075 0.000125136)
(0.0277841 -0.000486832 0.000124808)
(0.0278752 -0.000510384 0.000124423)
(0.0276213 -0.0004577 0.000128576)
(0.027706 -0.000484552 0.000128246)
(0.0277936 -0.00051016 0.000127509)
(0.0278841 -0.000534405 0.000126771)
(0.0276202 -0.000479952 0.000130614)
(0.0277045 -0.000507602 0.0001301)
(0.0277917 -0.000533963 0.000129579)
(0.0278819 -0.000558975 0.000128933)
(0.0276079 -0.000502761 0.00013042)
(0.0276912 -0.000531248 0.000130256)
(0.0277778 -0.000558397 0.000130299)
(0.0278674 -0.000584197 0.000130187)
(0.0275061 -0.000494939 0.000129458)
(0.0275849 -0.000525928 0.000129502)
(0.0276675 -0.000555398 0.000129587)
(0.0277538 -0.000583522 0.00012999)
(0.0278432 -0.000610096 0.000130582)
(0.0274746 -0.000517473 0.00013048)
(0.0275527 -0.000549449 0.000130461)
(0.0276345 -0.000580085 0.000130679)
(0.0277201 -0.000609168 0.000131145)
(0.0278093 -0.000636757 0.000131857)
(0.0274319 -0.000540702 0.000133984)
(0.0275107 -0.000573666 0.000133901)
(0.0275927 -0.000605244 0.000133617)
(0.0276779 -0.000635403 0.000133347)
(0.0277667 -0.000664016 0.000133381)
(0.0273051 -0.000528961 0.000138796)
(0.02738 -0.000564716 0.00013851)
(0.027459 -0.000598869 0.000138261)
(0.0275418 -0.000631293 0.000137927)
(0.0276275 -0.00066226 0.000137311)
(0.0277162 -0.000691787 0.000136805)
(0.0272453 -0.000552564 0.000143784)
(0.0273206 -0.000589445 0.000142916)
(0.0273996 -0.000624769 0.000142544)
(0.0274824 -0.000658267 0.00014244)
(0.0275686 -0.000690049 0.000142155)
(0.0276577 -0.000720289 0.00014152)
(0.0271764 -0.000576722 0.00014748)
(0.0272515 -0.000614921 0.000147117)
(0.0273306 -0.000651297 0.000146757)
(0.0274136 -0.000685932 0.000146588)
(0.0275 -0.000718711 0.000146374)
(0.0275896 -0.000749631 0.00014589)
(0.0270278 -0.000560433 0.000147896)
(0.0270989 -0.000601635 0.000149378)
(0.0271739 -0.000641009 0.000150254)
(0.0272535 -0.000678618 0.000150401)
(0.0273366 -0.000714293 0.000150082)
(0.0274226 -0.000748065 0.00014989)
(0.0275121 -0.000779898 0.000149467)
(0.0269408 -0.00058496 0.000149824)
(0.027012 -0.000627176 0.00015075)
(0.0270868 -0.000667838 0.000151652)
(0.0271654 -0.000706634 0.000152341)
(0.0272481 -0.000743292 0.000152363)
(0.0273343 -0.000777824 0.000151819)
(0.0274233 -0.000810768 0.000151387)
(0.0268441 -0.000609928 0.000151739)
(0.0269148 -0.000653366 0.000151672)
(0.0269889 -0.000694946 0.00015124)
(0.027066 -0.000734868 0.000151197)
(0.0271478 -0.000772932 0.000151331)
(0.0272341 -0.00080859 0.000151361)
(0.0273239 -0.00084219 0.000151291)
(0.0266761 -0.000587781 0.000152488)
(0.02674 -0.00063501 0.000151458)
(0.0268086 -0.000679876 0.000150344)
(0.0268819 -0.000722486 0.000149707)
(0.0269593 -0.000763468 0.000148612)
(0.0270399 -0.00080293 0.000148181)
(0.0271249 -0.00084001 0.000147906)
(0.0272142 -0.000874537 0.000148093)
(0.0265644 -0.000611574 0.000151245)
(0.0266275 -0.000660038 0.000149467)
(0.0266954 -0.000706408 0.000147739)
(0.0267681 -0.000750686 0.000146901)
(0.0268453 -0.000792724 0.000146683)
(0.0269256 -0.00083301 0.000146107)
(0.027009 -0.000871417 0.00014623)
(0.0270967 -0.000907247 0.000146547)
(0.0264429 -0.000636126 0.000146827)
(0.0265073 -0.00068568 0.00014619)
(0.0265754 -0.000733606 0.000144667)
(0.0266476 -0.000779169 0.00014378)
(0.0267237 -0.000822441 0.000143917)
(0.0268038 -0.000863528 0.000144614)
(0.026887 -0.000903043 0.000145263)
(0.0269744 -0.000940226 0.000145946)
(0.0262524 -0.000609049 0.000138506)
(0.0263135 -0.000661643 0.000138696)
(0.0263788 -0.000712361 0.000139133)
(0.0264474 -0.000761241 0.000139191)
(0.0265196 -0.000807944 0.000138891)
(0.0265957 -0.000852732 0.00013945)
(0.0266763 -0.000894878 0.000140556)
(0.0267604 -0.000935397 0.000141016)
(0.0268478 -0.000973775 0.000140963)
(0.0261134 -0.000634574 0.000129136)
(0.0261752 -0.000687962 0.000129809)
(0.026241 -0.000740121 0.000130463)
(0.0263117 -0.000789847 0.000131346)
(0.0263855 -0.000837691 0.000131611)
(0.0264623 -0.000883514 0.000131445)
(0.0265428 -0.00092695 0.000131477)
(0.0266268 -0.000968352 0.000131442)
(0.0267137 -0.00100781 0.000132107)
(0.0259677 -0.000660065 0.000118296)
(0.0260285 -0.000715077 0.000119784)
(0.0260938 -0.000768593 0.000121495)
(0.0261641 -0.00081963 0.000122245)
(0.0262382 -0.000868377 0.000122445)
(0.026316 -0.00091502 0.000121756)
(0.0263974 -0.000959784 0.000121422)
(0.0264827 -0.00100185 0.00012133)
(0.0265703 -0.0010423 0.000121586)
(0.0257556 -0.000626525 0.000108545)
(0.0258116 -0.0006857 0.000108782)
(0.0258719 -0.00074255 0.000110029)
(0.0259367 -0.000797063 0.000111328)
(0.0260054 -0.000850002 0.000112064)
(0.02608 -0.000899759 0.000113457)
(0.0261585 -0.000947663 0.000113487)
(0.0262407 -0.000993603 0.000112694)
(0.0263274 -0.00103693 0.00011215)
(0.0264179 -0.00107792 0.00011115)
(0.025586 -0.000652287 0.000103022)
(0.0256437 -0.0007125 0.000101861)
(0.0257051 -0.000771026 0.000101009)
(0.0257717 -0.000826224 0.000101882)
(0.025841 -0.000880328 0.000102159)
(0.0259152 -0.000932179 0.000102425)
(0.025995 -0.000981087 0.000103861)
(0.0260782 -0.0010282 0.000103073)
(0.0261649 -0.00107282 0.000101857)
(0.0262557 -0.00111479 0.00010033)
(0.0254068 -0.000679671 9.7935e-05)
(0.0254671 -0.000740656 9.64248e-05)
(0.0255304 -0.000800009 9.37904e-05)
(0.0255974 -0.000856842 9.30886e-05)
(0.025669 -0.000911452 9.30742e-05)
(0.0257434 -0.000965036 9.16746e-05)
(0.025823 -0.00101554 9.15305e-05)
(0.025907 -0.00106355 9.19959e-05)
(0.0259946 -0.00110924 9.1406e-05)
(0.0260862 -0.00115257 8.98487e-05)
(0.0251603 -0.000642276 8.99528e-05)
(0.0252156 -0.00070822 8.89908e-05)
(0.0252771 -0.000770456 8.81174e-05)
(0.0253428 -0.000830517 8.5451e-05)
(0.025412 -0.000888353 8.37513e-05)
(0.0254847 -0.000944093 8.31119e-05)
(0.0255608 -0.000998459 8.13855e-05)
(0.0256407 -0.00105053 7.9125e-05)
(0.0257256 -0.00109969 7.96026e-05)
(0.025815 -0.00114662 7.99223e-05)
(0.0259078 -0.00119133 7.88153e-05)
(0.0249559 -0.000669763 7.84992e-05)
(0.0250105 -0.000737289 7.62139e-05)
(0.0250714 -0.00080148 7.57964e-05)
(0.0251386 -0.000862794 7.52912e-05)
(0.0252107 -0.000921622 7.2704e-05)
(0.0252865 -0.000978231 7.19786e-05)
(0.0253656 -0.00103283 7.0794e-05)
(0.0254468 -0.00108627 6.86783e-05)
(0.0255329 -0.00113717 6.66009e-05)
(0.0256246 -0.00118551 6.56898e-05)
(0.0257212 -0.00123121 6.52361e-05)
(0.0246907 -0.000624855 6.98128e-05)
(0.0247405 -0.000697521 6.54477e-05)
(0.024796 -0.000767049 6.22847e-05)
(0.0248577 -0.000833027 6.05e-05)
(0.0249251 -0.000895991 6.03378e-05)
(0.0249971 -0.000956206 5.81785e-05)
(0.0250743 -0.00101384 5.79638e-05)
(0.0251563 -0.00106918 5.76774e-05)
(0.025242 -0.00112331 5.53932e-05)
(0.025331 -0.00117607 5.25243e-05)
(0.0254251 -0.0012257 5.09199e-05)
(0.0255232 -0.00127285 5.07269e-05)
(0.0244608 -0.000652691 5.65115e-05)
(0.0245121 -0.00072691 5.29654e-05)
(0.0245699 -0.000798039 5.01392e-05)
(0.0246332 -0.000865632 4.77818e-05)
(0.0247017 -0.000929604 4.72992e-05)
(0.024774 -0.000991237 4.52618e-05)
(0.0248514 -0.0010506 4.29767e-05)
(0.0249354 -0.00110796 4.27682e-05)
(0.0250247 -0.00116263 4.19672e-05)
(0.0251169 -0.00121599 3.89477e-05)
(0.0252128 -0.00126748 3.70745e-05)
(0.025314 -0.00131555 3.54856e-05)
(0.0242177 -0.000682058 4.41228e-05)
(0.0242717 -0.000757571 4.11493e-05)
(0.0243309 -0.000830471 3.96484e-05)
(0.024396 -0.000899462 3.68061e-05)
(0.0244657 -0.000964764 3.66471e-05)
(0.0245418 -0.00102721 3.52533e-05)
(0.0246217 -0.00108826 3.13026e-05)
(0.0247056 -0.00114731 2.859e-05)
(0.0247948 -0.00120327 2.84375e-05)
(0.0248886 -0.00125745 2.67241e-05)
(0.0249858 -0.00131029 2.45686e-05)
(0.0250881 -0.00135984 2.26841e-05)
(0.0239141 -0.000633778 3.69435e-05)
(0.0239612 -0.000712461 3.36602e-05)
(0.0240146 -0.000789593 3.08653e-05)
(0.0240744 -0.000864465 2.95576e-05)
(0.0241409 -0.000934689 2.77261e-05)
(0.0242143 -0.00100173 2.74192e-05)
(0.0242931 -0.00106551 2.66369e-05)
(0.0243751 -0.00112702 2.47722e-05)
(0.024461 -0.00118744 2.18774e-05)
(0.0245529 -0.00124488 1.90532e-05)
(0.0246485 -0.00130004 1.74356e-05)
(0.0247478 -0.00135342 1.57692e-05)
(0.0248503 -0.00140505 1.38099e-05)
(0.023642 -0.000664264 3.33032e-05)
(0.0236909 -0.000743484 2.94895e-05)
(0.0237437 -0.000822157 2.48014e-05)
(0.0238035 -0.000898802 2.15437e-05)
(0.0238706 -0.000971548 1.93107e-05)
(0.023945 -0.00104048 1.83646e-05)
(0.0240257 -0.00110503 1.97293e-05)
(0.0241108 -0.00116733 2.07865e-05)
(0.0242005 -0.00122886 1.84681e-05)
(0.0242928 -0.00128793 1.68708e-05)
(0.0243906 -0.00134385 1.46101e-05)
(0.0244922 -0.00139817 1.23487e-05)
(0.024597 -0.00145005 1.12691e-05)
(0.0233087 -0.000611246 3.46245e-05)
(0.0233553 -0.000696675 3.22926e-05)
(0.0234092 -0.000776238 2.79322e-05)
(0.0234654 -0.000855008 2.25715e-05)
(0.0235241 -0.00093384 1.632e-05)
(0.0235898 -0.00100845 1.40165e-05)
(0.0236623 -0.0010795 1.41823e-05)
(0.0237436 -0.00114625 1.54161e-05)
(0.0238307 -0.00120968 1.54336e-05)
(0.0239222 -0.00127202 1.42474e-05)
(0.0240168 -0.00133086 1.39378e-05)
(0.0241144 -0.00138862 1.35981e-05)
(0.0242165 -0.00144395 1.17199e-05)
(0.0243239 -0.00149641 1.02171e-05)
(0.0230016 -0.000644268 2.90369e-05)
(0.0230513 -0.000731472 3.03846e-05)
(0.02311 -0.000812492 2.66687e-05)
(0.0231708 -0.000889667 2.17314e-05)
(0.0232327 -0.00096853 1.56288e-05)
(0.0232978 -0.00104549 9.1184e-06)
(0.0233702 -0.00111861 8.12162e-06)
(0.0234485 -0.00118793 8.95257e-06)
(0.0235351 -0.00125208 9.69388e-06)
(0.0236242 -0.00131577 8.89715e-06)
(0.0237195 -0.00137586 8.39379e-06)
(0.0238205 -0.00143406 8.83061e-06)
(0.0239247 -0.00149016 9.08205e-06)
(0.024033 -0.00154449 9.52187e-06)
(0.0226436 -0.000583226 1.1255e-05)
(0.0226823 -0.00067795 1.66034e-05)
(0.0227307 -0.000768397 2.11169e-05)
(0.0227898 -0.000851101 2.15187e-05)
(0.0228545 -0.000927078 1.92284e-05)
(0.0229193 -0.0010056 1.48476e-05)
(0.0229875 -0.00108265 6.44988e-06)
(0.0230582 -0.00115728 3.72432e-07)
(0.023134 -0.00122862 -5.74343e-07)
(0.0232173 -0.00129503 1.53404e-06)
(0.0233069 -0.00135869 2.10267e-06)
(0.0233995 -0.00142123 1.72371e-06)
(0.0234999 -0.00148043 2.06989e-06)
(0.0236054 -0.00153772 1.94801e-06)
(0.0237154 -0.00159301 2.47399e-06)
(0.0223078 -0.000615763 1.09315e-06)
(0.0223442 -0.00071223 2.66521e-06)
(0.0223897 -0.000804897 6.56693e-06)
(0.0224438 -0.000890415 1.07519e-05)
(0.0225082 -0.000967149 1.35121e-05)
(0.0225759 -0.00104442 1.07315e-05)
(0.0226462 -0.00112136 5.69427e-06)
(0.0227177 -0.00119633 -4.97293e-06)
(0.0227938 -0.0012691 -1.06499e-05)
(0.0228755 -0.00133727 -1.0222e-05)
(0.0229649 -0.00140249 -5.25156e-06)
(0.0230585 -0.00146532 -5.09208e-06)
(0.0231547 -0.00152721 -4.31168e-06)
(0.0232596 -0.00158576 -5.9611e-06)
(0.0233701 -0.00164211 -7.10519e-06)
(0.0219554 -0.000648254 -3.55928e-06)
(0.0219876 -0.000744109 -3.53711e-06)
(0.0220232 -0.000840141 -2.18181e-06)
(0.022072 -0.000929037 5.268e-07)
(0.0221343 -0.00100921 3.87007e-06)
(0.0222051 -0.00108518 5.42475e-06)
(0.0222768 -0.00116184 6.21896e-06)
(0.0223492 -0.001236 -9.02161e-07)
(0.0224238 -0.00130932 -1.15089e-05)
(0.022503 -0.00137936 -1.28119e-05)
(0.0225903 -0.00144722 -1.29266e-05)
(0.0226838 -0.00150987 -1.38042e-05)
(0.022781 -0.00157276 -1.21966e-05)
(0.0228828 -0.00163325 -9.62467e-06)
(0.0229934 -0.00169216 -7.28228e-06)
(0.0215532 -0.000581226 -1.35365e-05)
(0.0215777 -0.000680946 -9.93365e-06)
(0.021609 -0.000775879 -7.92644e-06)
(0.0216424 -0.00087267 -7.67176e-06)
(0.0216843 -0.000966429 -5.84916e-06)
(0.02174 -0.0010507 -1.64848e-06)
(0.0218077 -0.00112753 1.32206e-06)
(0.0218767 -0.00120288 3.08594e-06)
(0.0219486 -0.00127689 -2.82406e-07)
(0.0220254 -0.00134945 -7.95977e-06)
(0.0221038 -0.00142073 -1.26367e-05)
(0.0221864 -0.00149038 -1.34599e-05)
(0.0222773 -0.001555 -1.5174e-05)
(0.0223749 -0.00161846 -1.30946e-05)
(0.022477 -0.00168027 -8.42865e-06)
(0.0225837 -0.00174154 -2.56903e-06)
(0.0211562 -0.000612776 -2.59526e-05)
(0.0211777 -0.000713307 -1.97215e-05)
(0.0212071 -0.000810232 -9.27197e-06)
(0.0212423 -0.000904676 -7.14896e-06)
(0.0212794 -0.00100094 -7.43788e-06)
(0.0213253 -0.00108922 -4.4327e-06)
(0.0213827 -0.00116889 -8.0909e-09)
(0.0214484 -0.00124344 2.05835e-06)
(0.0215189 -0.00131806 2.43542e-06)
(0.0215939 -0.00139125 -3.01889e-06)
(0.0216715 -0.00146178 -5.90373e-06)
(0.0217535 -0.00153273 -7.2114e-06)
(0.0218435 -0.00159887 -9.26186e-06)
(0.0219374 -0.0016644 -9.25731e-06)
(0.0220372 -0.00172602 -7.40968e-06)
(0.0221404 -0.00178919 -1.77423e-06)
(0.0207308 -0.000536634 -3.69363e-05)
(0.0207419 -0.000643668 -3.66567e-05)
(0.0207592 -0.000745781 -2.65041e-05)
(0.0207849 -0.000843861 -1.51108e-05)
(0.0208185 -0.000937674 -6.13417e-06)
(0.0208549 -0.00103431 -1.99004e-06)
(0.0208955 -0.00112364 -1.00051e-06)
(0.0209429 -0.00120682 7.71903e-07)
(0.0210008 -0.00128219 5.05835e-07)
(0.0210658 -0.00135869 7.21321e-06)
(0.0211368 -0.00143239 8.71183e-06)
(0.0212138 -0.00150254 1.62833e-06)
(0.0212924 -0.00157486 1.66458e-06)
(0.0213802 -0.00164267 -8.23522e-07)
(0.0214735 -0.00170837 -1.14371e-06)
(0.0215695 -0.00177067 -7.08187e-07)
(0.0216685 -0.00183476 -4.28438e-07)
(0.0202987 -0.000567945 -3.83135e-05)
(0.020307 -0.000674256 -3.67646e-05)
(0.0203196 -0.000778158 -3.17329e-05)
(0.0203431 -0.000876652 -2.22737e-05)
(0.0203747 -0.000972344 -1.21114e-05)
(0.0204109 -0.00106653 -3.76925e-06)
(0.0204484 -0.00115584 -1.93378e-07)
(0.0204882 -0.00124112 2.29956e-07)
(0.0205385 -0.00131904 2.59512e-06)
(0.0205958 -0.00139739 3.48064e-06)
(0.0206601 -0.00147153 9.3168e-06)
(0.0207309 -0.00154293 1.24097e-05)
(0.020807 -0.00161538 1.58517e-05)
(0.0208915 -0.00168632 1.52994e-05)
(0.0209822 -0.00175124 1.40075e-05)
(0.0210718 -0.00181288 1.1118e-05)
(0.0211625 -0.00187625 4.92618e-06)
(0.0198517 -0.000598456 -3.76265e-05)
(0.0198568 -0.000704958 -3.66744e-05)
(0.0198677 -0.000808694 -3.64054e-05)
(0.0198844 -0.000909046 -3.46843e-05)
(0.019908 -0.00100588 -2.48384e-05)
(0.0199381 -0.00109942 -1.69614e-05)
(0.0199742 -0.00118808 -9.0998e-06)
(0.0200151 -0.00127333 -7.25516e-06)
(0.0200606 -0.00135333 -3.05024e-06)
(0.0201121 -0.0014318 -9.14161e-07)
(0.0201676 -0.00150765 5.26068e-06)
(0.0202301 -0.00158032 1.7262e-05)
(0.0202975 -0.00165354 2.33563e-05)
(0.0203704 -0.00172761 2.70183e-05)
(0.0204526 -0.00179142 2.66361e-05)
(0.0205346 -0.00185203 2.12493e-05)
(0.0206215 -0.00191599 1.26591e-05)
(0.0194034 -0.000513108 -4.16362e-05)
(0.0193923 -0.000627426 -3.99818e-05)
(0.0193914 -0.000735467 -3.96977e-05)
(0.019397 -0.000838325 -4.23574e-05)
(0.0194065 -0.000939295 -4.30629e-05)
(0.0194236 -0.00103636 -3.50269e-05)
(0.0194474 -0.0011311 -2.65505e-05)
(0.019481 -0.00122104 -1.88406e-05)
(0.0195206 -0.00130562 -1.18827e-05)
(0.0195637 -0.00138646 -4.03743e-06)
(0.0196116 -0.00146409 8.49218e-07)
(0.0196603 -0.00154028 2.45792e-06)
(0.0197113 -0.00161378 1.30696e-05)
(0.0197685 -0.00168755 2.5451e-05)
(0.0198289 -0.00176239 3.27263e-05)
(0.0198976 -0.0018284 3.11148e-05)
(0.0199733 -0.00188875 2.71729e-05)
(0.0200525 -0.00195324 2.03007e-05)
(0.0201365 -0.00201751 1.09704e-05)
(0.0189379 -0.000540048 -4.68347e-05)
(0.0189236 -0.000654198 -4.16918e-05)
(0.018917 -0.000763924 -4.1416e-05)
(0.0189168 -0.00086539 -4.01585e-05)
(0.0189206 -0.000966887 -4.08621e-05)
(0.0189333 -0.00106435 -4.19801e-05)
(0.01895 -0.00116008 -3.18304e-05)
(0.018972 -0.00125164 -2.30742e-05)
(0.0190036 -0.00133735 -1.42241e-05)
(0.0190432 -0.0014183 -7.58245e-06)
(0.0190843 -0.00149511 2.03882e-06)
(0.0191289 -0.00156971 4.776e-06)
(0.0191728 -0.00164233 1.03456e-05)
(0.0192201 -0.00171702 2.29589e-05)
(0.0192713 -0.00179202 2.97103e-05)
(0.0193279 -0.00186129 3.43158e-05)
(0.0193951 -0.00192207 3.44631e-05)
(0.0194629 -0.00198504 2.61342e-05)
(0.019533 -0.00205145 1.47794e-05)
(0.0184648 -0.000566017 -5.02199e-05)
(0.0184467 -0.000680941 -4.28157e-05)
(0.0184366 -0.000790289 -3.50378e-05)
(0.0184338 -0.000891229 -2.93754e-05)
(0.0184346 -0.00099176 -2.86516e-05)
(0.018439 -0.00109034 -3.24407e-05)
(0.0184458 -0.00118476 -2.95196e-05)
(0.018458 -0.0012769 -2.03275e-05)
(0.0184777 -0.00136554 -1.65162e-05)
(0.0185051 -0.00144755 -1.45657e-05)
(0.0185392 -0.00152281 -5.52222e-06)
(0.0185732 -0.0015967 9.09177e-06)
(0.0186116 -0.00166903 1.13684e-05)
(0.0186555 -0.0017429 1.47753e-05)
(0.0186941 -0.00181699 2.23472e-05)
(0.018739 -0.00188898 2.8407e-05)
(0.0187914 -0.00195049 2.83234e-05)
(0.0188493 -0.00201237 2.50155e-05)
(0.0189131 -0.00208094 1.87565e-05)
(0.018021 -0.000470764 -4.33595e-05)
(0.0179854 -0.000590139 -4.76142e-05)
(0.0179608 -0.000706314 -4.42325e-05)
(0.017947 -0.000816619 -3.26231e-05)
(0.0179427 -0.000916257 -2.20416e-05)
(0.0179385 -0.00101526 -1.63331e-05)
(0.0179346 -0.00111218 -1.8372e-05)
(0.0179344 -0.00120535 -1.99317e-05)
(0.0179374 -0.0012992 -1.44715e-05)
(0.017948 -0.00138846 -1.26788e-05)
(0.017962 -0.00147093 -1.35403e-05)
(0.0179815 -0.00154628 -1.15438e-05)
(0.0180087 -0.00162088 5.06136e-06)
(0.0180385 -0.00169296 1.1092e-05)
(0.0180711 -0.00176653 1.30857e-05)
(0.0181052 -0.00183725 1.67944e-05)
(0.0181395 -0.00191134 2.5801e-05)
(0.0181802 -0.00197272 2.66108e-05)
(0.018228 -0.00203748 2.55669e-05)
(0.018282 -0.00210596 2.83102e-05)
(0.0175508 -0.000490867 -3.03846e-05)
(0.0175108 -0.000611593 -3.77036e-05)
(0.0174806 -0.000728621 -4.51258e-05)
(0.0174583 -0.000840418 -3.78703e-05)
(0.0174439 -0.00093912 -2.41642e-05)
(0.017432 -0.00103564 -1.44469e-05)
(0.0174223 -0.00113137 -1.2215e-05)
(0.0174188 -0.00122431 -1.13853e-05)
(0.017413 -0.00131716 -9.34597e-06)
(0.0174124 -0.00140673 -1.09386e-05)
(0.0174164 -0.00148818 -5.10345e-06)
(0.0174232 -0.00156625 -9.30971e-06)
(0.0174386 -0.00164055 -6.34605e-06)
(0.0174569 -0.00171205 4.44555e-06)
(0.0174772 -0.00178615 1.62279e-05)
(0.0175051 -0.00185589 1.93373e-05)
(0.017532 -0.00192809 2.84126e-05)
(0.0175601 -0.00199072 3.58889e-05)
(0.0175934 -0.00205691 2.95834e-05)
(0.017637 -0.00212706 3.51092e-05)
(0.017144 -0.000381666 -8.9937e-06)
(0.0170893 -0.000508332 -1.67365e-05)
(0.017043 -0.000630747 -3.13061e-05)
(0.0170057 -0.000746953 -4.23968e-05)
(0.0169712 -0.000858674 -4.29575e-05)
(0.0169445 -0.000959434 -3.23907e-05)
(0.0169273 -0.00105327 -1.66857e-05)
(0.016911 -0.00114894 -7.03921e-06)
(0.0169001 -0.00124136 -1.08121e-05)
(0.01689 -0.00132927 -1.34757e-05)
(0.0168725 -0.00142087 -1.40802e-05)
(0.0168655 -0.00150184 -6.67205e-06)
(0.016863 -0.00158012 -1.14414e-05)
(0.0168654 -0.00165642 -1.59083e-05)
(0.0168758 -0.00172649 -5.18791e-06)
(0.0168845 -0.00180095 1.05744e-05)
(0.0169014 -0.00187032 1.91171e-05)
(0.0169133 -0.001941 2.93922e-05)
(0.0169313 -0.00200352 3.96755e-05)
(0.0169542 -0.00207073 3.7447e-05)
(0.0169839 -0.00214352 4.28109e-05)
(0.0166922 -0.000397293 -3.95844e-06)
(0.0166291 -0.000523834 -1.20558e-05)
(0.016576 -0.000646463 -2.75922e-05)
(0.0165297 -0.000762034 -4.08229e-05)
(0.0164893 -0.000872712 -4.51329e-05)
(0.0164538 -0.000975005 -3.71003e-05)
(0.0164272 -0.00106837 -1.91432e-05)
(0.0164036 -0.00116221 -7.76353e-06)
(0.0163835 -0.00125551 -9.34745e-06)
(0.0163657 -0.00133884 -1.64353e-05)
(0.0163396 -0.00142842 -1.69733e-05)
(0.0163217 -0.00151214 -1.56359e-05)
(0.0163084 -0.00158915 -1.73582e-05)
(0.0162947 -0.00166723 -2.34996e-05)
(0.0162917 -0.00173671 -1.39834e-05)
(0.0162895 -0.00181054 7.85822e-07)
(0.0162878 -0.00187886 1.40465e-05)
(0.0162883 -0.00194867 2.78923e-05)
(0.0162928 -0.0020127 4.68839e-05)
(0.016305 -0.00207987 4.9135e-05)
(0.0163234 -0.00215364 5.05228e-05)
(0.0162442 -0.000409236 -8.64698e-06)
(0.016171 -0.000534486 -1.13853e-05)
(0.0161063 -0.00065845 -1.91772e-05)
(0.0160503 -0.000774635 -3.61532e-05)
(0.0160056 -0.000885401 -4.44924e-05)
(0.0159659 -0.000986058 -4.03001e-05)
(0.0159304 -0.00108043 -1.91496e-05)
(0.0159001 -0.00117241 -7.20955e-06)
(0.015869 -0.00126544 -7.06254e-06)
(0.0158414 -0.00134611 -1.59158e-05)
(0.0158135 -0.00143187 -2.41896e-05)
(0.0157834 -0.00151796 -2.7929e-05)
(0.0157573 -0.00159276 -2.8488e-05)
(0.0157287 -0.0016701 -2.63859e-05)
(0.0157085 -0.0017421 -1.26168e-05)
(0.0156893 -0.00181356 2.00472e-06)
(0.0156698 -0.0018826 1.52889e-05)
(0.015658 -0.00195073 2.78396e-05)
(0.0156448 -0.0020172 4.50796e-05)
(0.0156494 -0.00208571 5.18134e-05)
(0.0156587 -0.00215971 5.01263e-05)
(0.0158887 -0.000283039 -9.34266e-06)
(0.0158004 -0.00041787 -1.34734e-05)
(0.0157218 -0.000540937 -1.16802e-05)
(0.0156471 -0.000665072 -1.08206e-05)
(0.0155809 -0.00078292 -2.58904e-05)
(0.0155278 -0.000895649 -3.6439e-05)
(0.0154847 -0.000994886 -4.13426e-05)
(0.0154452 -0.00108918 -2.23279e-05)
(0.0154047 -0.00117934 -7.5003e-06)
(0.0153643 -0.0012691 -6.04461e-06)
(0.0153248 -0.00135111 -1.23034e-05)
(0.0152888 -0.0014313 -2.20347e-05)
(0.0152432 -0.0015176 -3.07763e-05)
(0.0152075 -0.00159298 -3.34851e-05)
(0.0151732 -0.00166727 -2.58603e-05)
(0.0151362 -0.00174121 -6.58889e-06)
(0.0150998 -0.00180901 4.26032e-06)
(0.0150622 -0.00187889 8.66125e-06)
(0.0150329 -0.00194819 2.05396e-05)
(0.0150076 -0.00201484 3.71797e-05)
(0.0149982 -0.00209046 4.83832e-05)
(0.0149978 -0.00215967 5.04059e-05)
(0.0154562 -0.000288571 -9.78034e-06)
(0.0153645 -0.000423722 -1.24329e-05)
(0.0152814 -0.000545489 -7.14071e-06)
(0.0152019 -0.000667507 -4.10844e-06)
(0.0151271 -0.000786667 -1.15837e-05)
(0.0150642 -0.000902176 -2.79071e-05)
(0.0150148 -0.00100203 -3.98533e-05)
(0.0149673 -0.00109322 -3.00498e-05)
(0.0149157 -0.00118172 -1.07363e-05)
(0.0148677 -0.00126851 -6.00417e-06)
(0.0148127 -0.00135065 -8.33486e-06)
(0.0147643 -0.00142898 -1.54803e-05)
(0.0147135 -0.00151256 -2.64263e-05)
(0.0146673 -0.00159099 -2.91353e-05)
(0.014623 -0.00166098 -2.40059e-05)
(0.014576 -0.00173486 -1.06259e-05)
(0.0145284 -0.00179953 -2.98136e-08)
(0.0144763 -0.00186851 -2.31021e-06)
(0.0144304 -0.00194032 1.13906e-05)
(0.0143941 -0.00200573 3.22304e-05)
(0.0143631 -0.00208866 5.28134e-05)
(0.0143432 -0.00215551 6.20201e-05)
(0.0150282 -0.000293738 -5.50696e-06)
(0.0149341 -0.000427952 -6.07907e-06)
(0.0148497 -0.000548008 -6.53161e-07)
(0.0147686 -0.000667544 5.95383e-06)
(0.0146888 -0.000786506 -5.10749e-07)
(0.0146165 -0.000903224 -2.28516e-05)
(0.0145527 -0.00100554 -3.4397e-05)
(0.0144932 -0.00109292 -3.62632e-05)
(0.0144352 -0.00118137 -1.86897e-05)
(0.0143802 -0.00126552 -6.87442e-06)
(0.0143166 -0.00134332 -4.56797e-06)
(0.0142545 -0.00142429 -9.15235e-06)
(0.0142003 -0.00150501 -2.32279e-05)
(0.0141382 -0.00158156 -2.69409e-05)
(0.0140787 -0.00165163 -2.62164e-05)
(0.014022 -0.00172461 -1.82072e-05)
(0.0139711 -0.00178748 -7.62916e-06)
(0.0139092 -0.00185264 -8.58529e-06)
(0.0138487 -0.00192688 3.90532e-06)
(0.013797 -0.00199327 3.27506e-05)
(0.0137478 -0.00207672 6.09065e-05)
(0.0137059 -0.00214752 7.43094e-05)
(0.0147112 -0.000155183 1.2937e-05)
(0.0146071 -0.000297323 3.65966e-06)
(0.0145119 -0.000430037 9.44391e-07)
(0.0144257 -0.000550653 4.10544e-06)
(0.0143425 -0.000666426 1.03898e-05)
(0.0142639 -0.000783948 7.58539e-06)
(0.0141862 -0.000899348 -1.32071e-05)
(0.0141071 -0.00100246 -2.54225e-05)
(0.0140348 -0.00108948 -3.36241e-05)
(0.0139705 -0.00117777 -2.05376e-05)
(0.0139041 -0.00125883 -4.71999e-06)
(0.0138386 -0.00133405 -1.0699e-06)
(0.0137674 -0.00141347 -5.05684e-06)
(0.0136957 -0.00149299 -2.07768e-05)
(0.0136159 -0.00156545 -3.21688e-05)
(0.0135441 -0.00163925 -3.12491e-05)
(0.0134802 -0.00171162 -2.11149e-05)
(0.0134226 -0.00177345 -1.47817e-05)
(0.0133553 -0.00183366 -1.02507e-05)
(0.0132851 -0.00190636 3.65782e-06)
(0.0132176 -0.00197716 3.41256e-05)
(0.013153 -0.00205705 6.13975e-05)
(0.0130938 -0.00213229 7.39552e-05)
(0.0143018 -0.000158354 2.09323e-05)
(0.0141969 -0.000299981 1.59026e-05)
(0.0141017 -0.000430793 9.25056e-06)
(0.0140129 -0.000552061 5.06569e-06)
(0.0139284 -0.000664293 9.19572e-06)
(0.0138485 -0.000780366 1.04077e-05)
(0.0137638 -0.000892001 -3.21449e-06)
(0.0136759 -0.000992239 -1.36331e-05)
(0.0135942 -0.00108382 -2.17483e-05)
(0.0135205 -0.00116904 -1.60528e-05)
(0.0134445 -0.0012492 -2.93678e-06)
(0.0133697 -0.00132246 -3.13935e-06)
(0.0132896 -0.00139826 -5.97974e-06)
(0.0132006 -0.00147451 -2.43452e-05)
(0.01311 -0.00154582 -3.22148e-05)
(0.0130284 -0.0016226 -2.78729e-05)
(0.0129544 -0.00169569 -2.15337e-05)
(0.0128869 -0.00175632 -1.3882e-05)
(0.0128154 -0.00181228 -3.82048e-06)
(0.0127381 -0.00188543 8.14894e-06)
(0.0126631 -0.00195522 2.87765e-05)
(0.0125803 -0.00203284 5.03738e-05)
(0.0125011 -0.00210868 6.27766e-05)
(0.013906 -0.000160462 2.20223e-05)
(0.0137982 -0.000300481 2.52125e-05)
(0.0137013 -0.000431245 1.58866e-05)
(0.013613 -0.000550215 8.4926e-06)
(0.0135266 -0.000661264 8.78061e-06)
(0.0134411 -0.000774562 1.15997e-05)
(0.0133481 -0.000882104 4.29849e-06)
(0.0132579 -0.000981336 -5.05044e-06)
(0.0131688 -0.00107339 -1.13468e-05)
(0.0130838 -0.00115658 -1.19647e-05)
(0.0129965 -0.00123522 -3.17098e-07)
(0.0129077 -0.00130679 -3.06979e-06)
(0.0128182 -0.00137976 -4.99289e-06)
(0.0127231 -0.00145215 -1.70385e-05)
(0.0126283 -0.00152434 -2.04922e-05)
(0.0125358 -0.00160081 -1.71496e-05)
(0.0124494 -0.00167692 -1.37652e-05)
(0.0123703 -0.00173643 -9.15645e-06)
(0.0122889 -0.00178958 2.21235e-06)
(0.0122067 -0.0018636 1.02057e-05)
(0.0121227 -0.00192759 2.36135e-05)
(0.012019 -0.00200226 3.85373e-05)
(0.0119153 -0.00207655 5.61131e-05)
(0.0136468 -8.5379e-06 2.10959e-05)
(0.0135248 -0.000159612 2.27625e-05)
(0.0134166 -0.000299194 2.6793e-05)
(0.0133169 -0.000430073 2.10884e-05)
(0.0132267 -0.000548246 1.18965e-05)
(0.0131377 -0.000655544 1.33126e-05)
(0.0130402 -0.000765645 2.00491e-05)
(0.0129467 -0.000870532 1.63351e-05)
(0.0128506 -0.000967477 8.17678e-06)
(0.0127523 -0.00105848 9.30199e-07)
(0.0126551 -0.00114043 -6.12277e-06)
(0.0125547 -0.00121769 4.72462e-06)
(0.0124552 -0.00128757 1.03061e-05)
(0.0123583 -0.00135901 4.24399e-06)
(0.0122599 -0.00142924 5.03098e-07)
(0.0121642 -0.00150155 -3.12396e-06)
(0.0120666 -0.0015748 -2.60021e-06)
(0.0119602 -0.00165327 -7.81602e-07)
(0.0118659 -0.00171195 -6.68075e-06)
(0.0117746 -0.00176688 2.93166e-07)
(0.0116909 -0.00183942 6.86679e-06)
(0.0115884 -0.00189425 1.46575e-05)
(0.011469 -0.00196611 2.77616e-05)
(0.0113464 -0.00203784 5.0542e-05)
(0.0132836 -5.22971e-06 2.35177e-05)
(0.0131602 -0.000156848 2.59037e-05)
(0.0130522 -0.000296922 2.58988e-05)
(0.0129487 -0.000426193 2.46803e-05)
(0.012853 -0.000544574 1.82807e-05)
(0.0127603 -0.000646734 2.23951e-05)
(0.0126548 -0.000753453 3.23499e-05)
(0.0125557 -0.000857617 3.12591e-05)
(0.0124526 -0.000950685 1.8957e-05)
(0.0123472 -0.00103973 1.04638e-05)
(0.0122361 -0.00112078 1.04992e-05)
(0.0121256 -0.00119606 1.67561e-05)
(0.0120197 -0.00126622 2.39694e-05)
(0.0119151 -0.00133549 1.66995e-05)
(0.0118101 -0.00140597 1.81782e-05)
(0.011715 -0.00147897 1.18773e-05)
(0.0116092 -0.00154554 7.0985e-06)
(0.0114904 -0.00162364 3.3634e-06)
(0.0113763 -0.00168423 -7.1502e-06)
(0.0112772 -0.00174262 -1.72372e-06)
(0.0111814 -0.00180918 -6.53436e-07)
(0.0110638 -0.00185795 6.49131e-06)
(0.0109382 -0.00192562 1.92327e-05)
(0.0107988 -0.00199438 4.11587e-05)
(0.0129333 -1.16142e-06 2.44709e-05)
(0.0128146 -0.000152772 2.91492e-05)
(0.0127079 -0.000291332 2.75671e-05)
(0.0125965 -0.000419586 2.68383e-05)
(0.0124925 -0.00053822 2.80923e-05)
(0.012391 -0.000635931 3.33296e-05)
(0.0122863 -0.000738627 4.02653e-05)
(0.01218 -0.000841405 3.85661e-05)
(0.0120719 -0.000932651 2.76432e-05)
(0.0119544 -0.00101707 2.22388e-05)
(0.0118335 -0.00109666 2.82989e-05)
(0.0117167 -0.00117204 3.04901e-05)
(0.0116021 -0.00124211 3.76512e-05)
(0.011488 -0.00131067 3.05697e-05)
(0.0113805 -0.00138195 2.77748e-05)
(0.0112765 -0.00145351 2.05381e-05)
(0.0111629 -0.00151611 1.08514e-05)
(0.01104 -0.00158803 4.593e-06)
(0.010907 -0.00165206 -1.3583e-06)
(0.0107921 -0.00171388 -1.5862e-06)
(0.0106785 -0.00177534 2.74995e-06)
(0.0105548 -0.00182162 4.66449e-06)
(0.0104245 -0.001883 1.74991e-05)
(0.0102658 -0.00194535 2.73745e-05)
(0.0127219 0.000158937 3.26517e-05)
(0.0125958 1.39077e-06 2.83158e-05)
(0.0124805 -0.00014921 3.09321e-05)
(0.0123725 -0.000285008 3.15465e-05)
(0.0122565 -0.000407851 3.03586e-05)
(0.0121424 -0.000528338 3.3271e-05)
(0.0120363 -0.000624136 3.70333e-05)
(0.0119317 -0.000722428 4.00613e-05)
(0.0118181 -0.000823147 3.70854e-05)
(0.0117052 -0.000911425 3.18556e-05)
(0.0115803 -0.000991002 3.30999e-05)
(0.0114505 -0.00106888 3.77989e-05)
(0.0113248 -0.0011459 3.89135e-05)
(0.0112037 -0.00121462 4.60283e-05)
(0.0110833 -0.00128389 3.97408e-05)
(0.0109691 -0.00135512 3.25084e-05)
(0.0108522 -0.00142401 2.58057e-05)