/*--------------------------------*- C++ -*----------------------------------*\
| =========                 |                                                 |
| \\      /  F ield         | OpenFOAM: The Open Source CFD Toolbox           |
|  \\    /   O peration     | Version:  2.4.0                                 |
|   \\  /    A nd           | Web:      www.OpenFOAM.org                      |
|    \\/     M anipulation  |                                                 |
\*---------------------------------------------------------------------------*/
FoamFile
{
    version     2.0;
    format      ascii;
    class       volScalarField;
    location    "15000";
    object      nut;
}
// * * * * * * * * * * * * * * * * * * * * * * * * * * * * * * * * * * * * * //

dimensions      [0 2 -1 0 0 0 0];

internalField   nonuniform List<scalar> 
9754
(
0.0096436915
0.0083843941
0.0072003835
0.0061943595
0.0053735295
0.0047033586
0.0041577655
0.0037271595
0.0034099544
0.003203355
0.00309867
0.0030872917
0.0031344397
0.010767802
0.00956478
0.008349241
0.0072311614
0.0062857864
0.0055066902
0.0048626679
0.0043341089
0.0039142104
0.0036017716
0.0033938223
0.0032855287
0.0032671332
0.011850399
0.010732438
0.0095562585
0.0083878341
0.0073288954
0.0064322967
0.0056848686
0.0050605572
0.0045439779
0.0041300451
0.0038169715
0.0036045613
0.0034883844
0.0034582095
0.0034981527
0.0035838509
0.0036960956
0.0038224215
0.003950209
0.0038849131
0.0037875115
0.0036975242
0.0036375804
0.018677438
0.017982137
0.01723289
0.016439782
0.015611795
0.014750778
0.013847373
0.012887803
0.01185981
0.010761863
0.0096174394
0.0084962948
0.0074887469
0.0066306225
0.0059072988
0.0052971526
0.0047880768
0.0043749547
0.0040577964
0.0038377478
0.0037092584
0.0036639352
0.0036951367
0.0037766042
0.0038828116
0.0040107141
0.0041458326
0.0042087381
0.0041377845
0.00406646
0.023285074
0.023224608
0.023159151
0.023083031
0.022992536
0.022882159
0.022747438
0.022581491
0.022381327
0.022145374
0.021871134
0.021555599
0.021195526
0.020787926
0.020329548
0.019816595
0.019245967
0.018618809
0.017929693
0.017193896
0.016419544
0.015612698
0.014770136
0.013882638
0.012938579
0.011929365
0.010856479
0.0097471981
0.0086721038
0.0077079509
0.0068797689
0.006174015
0.0055733478
0.0050668858
0.004650916
0.0043273244
0.0040959634
0.0039532359
0.0038894573
0.0039085049
0.0039808617
0.0040824994
0.0042061531
0.00434563
0.0044915764
0.0045299858
0.023421463
0.023367557
0.023308138
0.023239527
0.023157229
0.023057099
0.022934971
0.022784645
0.022603616
0.022390657
0.022143659
0.021859945
0.0215364
0.021170022
0.020757742
0.020296153
0.019781875
0.019213011
0.018591873
0.017914949
0.017197322
0.016445686
0.015660813
0.014838212
0.013969478
0.013045396
0.01205968
0.011015555
0.0099433142
0.0089105547
0.0079821391
0.0071769819
0.0064841339
0.0058886329
0.0053813312
0.0049609108
0.0046282891
0.004383887
0.0042235389
0.0041403124
0.0041422772
0.004194796
0.0042948784
0.0044138118
0.0045508767
0.0047028474
0.02355257
0.023504876
0.023450819
0.023389457
0.023314581
0.023223773
0.023113155
0.022977104
0.022813541
0.02262156
0.022399422
0.022144825
0.021854906
0.021526749
0.021157395
0.020743746
0.020282617
0.019771382
0.019209307
0.018599737
0.017940601
0.017245346
0.016517646
0.015755873
0.014955251
0.014108629
0.013208638
0.012250115
0.011237807
0.010203122
0.009208763
0.0083099174
0.0075227886
0.0068384736
0.0062445636
0.0057350511
0.0053083938
0.0049652405
0.0047056634
0.004524652
0.0044270841
0.0043945625
0.0044322965
0.0045224575
0.0046363552
0.004770311
0.023756472
0.023721575
0.023679416
0.023636637
0.023588329
0.023532401
0.023464825
0.023382628
0.023282555
0.023159546
0.023011905
0.022839016
0.022639479
0.022411376
0.02215217
0.021859141
0.021529453
0.021160231
0.020748555
0.020291707
0.019787907
0.019237499
0.018644699
0.018008587
0.017337099
0.01663443
0.015897298
0.015121114
0.014299963
0.013427523
0.012499472
0.011521544
0.010524773
0.0095654934
0.0086915947
0.0079179573
0.0072384253
0.0066447704
0.0061317095
0.0056975397
0.005343011
0.0050650258
0.0048677534
0.0047461938
0.0046850749
0.0047007356
0.0047639382
0.0048770763
0.0050063225
0.0051534553
0.0053175394
0.0054950023
0.005683434
0.0058823701
0.0060603236
0.0061592384
0.0061994158
0.0062668349
0.0063662547
0.0064823071
0.0065842982
0.0066700624
0.023869033
0.023838136
0.023801417
0.023762895
0.023720002
0.0236693
0.023608269
0.023533995
0.02344361
0.023332543
0.023199428
0.023043901
0.022864869
0.022660776
0.02242945
0.022168449
0.021875119
0.021546773
0.021180736
0.020774418
0.020325692
0.01983362
0.019299529
0.018728175
0.018117845
0.0174711
0.016794796
0.016084136
0.015335027
0.014542355
0.013700518
0.012805696
0.011864012
0.010904492
0.0099772654
0.0091244382
0.0083610902
0.007685535
0.0070919851
0.0065748781
0.0061333645
0.0057649709
0.0054716601
0.0052546643
0.0051049436
0.0050273687
0.0050019863
0.0050448795
0.0051335432
0.005261891
0.0054043055
0.005563121
0.0057374571
0.0059257474
0.0061254397
0.0063345748
0.0065513517
0.0067745834
0.0069130695
0.0070099088
0.0071437773
0.0072234849
0.023977332
0.023949415
0.023918007
0.023883543
0.023845924
0.023800016
0.023744993
0.023678044
0.023596607
0.023496525
0.023376703
0.023236988
0.023076557
0.02289418
0.022688052
0.02245606
0.022195799
0.021904785
0.021580557
0.021220723
0.020823127
0.020386271
0.01991017
0.019397274
0.018849222
0.018266655
0.017645668
0.016997077
0.016314967
0.015595418
0.014833904
0.014025314
0.013166129
0.012262148
0.011339686
0.010442484
0.0096084617
0.0088550186
0.008183783
0.0075894448
0.0070687577
0.0066185494
0.0062382086
0.0059299419
0.0056895136
0.0055196085
0.0054150106
0.0053625287
0.0053729093
0.0054324229
0.0055372799
0.0056742233
0.0058298446
0.0059989352
0.0061817044
0.0063769985
0.0065831798
0.0067978407
0.0070184547
0.0072433774
0.0074710889
0.0076982604
0.024034148
0.024003616
0.024080584
0.024055246
0.02402862
0.023999498
0.023965072
0.023924156
0.023874844
0.023814756
0.023741653
0.023651746
0.023544159
0.023418904
0.023275381
0.023112653
0.022929253
0.022723415
0.022493037
0.022235871
0.021949672
0.021632251
0.021281569
0.020895941
0.020474675
0.020018863
0.019529249
0.019006464
0.018452455
0.017861349
0.0172399
0.016587904
0.015899978
0.015171971
0.014398972
0.013577621
0.012713161
0.011828146
0.01096037
0.010145805
0.0094028177
0.0087355106
0.0081414704
0.007616883
0.0071590777
0.0067683596
0.0064432187
0.0061848846
0.0059922907
0.0058625403
0.0057876509
0.0057635956
0.0057960668
0.0058654302
0.0059776958
0.0061199791
0.006282634
0.0064617114
0.006650759
0.0068499453
0.007057646
0.0072720015
0.0074910748
0.0077124865
0.024173649
0.024151874
0.024129679
0.024102168
0.024177695
0.024155485
0.024133448
0.024108763
0.024077802
0.024041433
0.023997529
0.023943926
0.023878661
0.023798265
0.02370203
0.023590084
0.023462007
0.023317107
0.02315422
0.022971916
0.022768416
0.022541752
0.02228991
0.02201091
0.021702879
0.021364148
0.020993701
0.020591772
0.020158258
0.019693254
0.019198152
0.018672654
0.018113611
0.017520376
0.016899855
0.016245688
0.015553182
0.014817755
0.014036151
0.013212305
0.012365111
0.011528495
0.01073522
0.010004662
0.0093439132
0.0087511706
0.0082238393
0.0077599516
0.0073588654
0.0070210677
0.0067458922
0.0065323497
0.00638099
0.0062793822
0.0062325566
0.0062327755
0.0062780106
0.0063537773
0.0064670416
0.0066092079
0.006773104
0.0069525262
0.0071439267
0.0073444175
0.0075516951
0.0077636887
0.024256981
0.024238318
0.0242196
0.024197186
0.024268725
0.024250534
0.024232155
0.024210078
0.024183208
0.024151293
0.02411258
0.024065166
0.024007343
0.023935926
0.023850326
0.02375074
0.023636878
0.023508245
0.023363938
0.02320283
0.023023462
0.022824168
0.022603191
0.022358772
0.022089223
0.021792987
0.021468957
0.021116898
0.020736128
0.020326181
0.019887482
0.019420218
0.018923301
0.018398683
0.017838528
0.017248633
0.016628979
0.015973567
0.015277474
0.01453707
0.01375517
0.012948637
0.012146231
0.011377313
0.010662484
0.010009696
0.0094200524
0.0088922835
0.0084241665
0.0080164012
0.0076681077
0.0073786544
0.0071491345
0.006975423
0.0068541744
0.0067801676
0.0067560759
0.0067716248
0.0068271234
0.0069112823
0.0070268409
0.007167064
0.0073272079
0.0075032156
0.0076916028
0.0078894402
0.0080944859
0.0083014435
0.0085072459
0.024350016
0.02435104
0.024345358
0.024334747
0.024319151
0.024303679
0.024286551
0.024353657
0.02433905
0.024323115
0.024303694
0.024280718
0.024253094
0.024219373
0.024177903
0.024127209
0.024064354
0.023988822
0.023900833
0.023800181
0.023686516
0.023559145
0.023417206
0.023259535
0.023084766
0.022891417
0.022677965
0.022442924
0.022184885
0.021902779
0.021596163
0.021264045
0.020905575
0.020520479
0.020108705
0.019669697
0.019204993
0.018711934
0.018188744
0.017630748
0.017045725
0.016428737
0.015773154
0.015075475
0.014338773
0.013576548
0.01281233
0.012071684
0.011375644
0.010734193
0.010151341
0.0096248572
0.0091557505
0.0087438822
0.008388754
0.0080904661
0.0078470742
0.0076563311
0.0075170415
0.0074215393
0.0073720748
0.007364618
0.0073939943
0.007456841
0.0075494116
0.0076678117
0.0078080762
0.0079663316
0.0081394021
0.0083259629
0.0085176163
0.008709678
0.024415377
0.024417764
0.024413825
0.024406309
0.024393494
0.024381275
0.024368505
0.024430573
0.024419453
0.024405792
0.02438918
0.024369647
0.024346058
0.024317119
0.024281378
0.024237558
0.02418294
0.02411704
0.024040056
0.023951816
0.023852068
0.02374028
0.023615805
0.023477737
0.023324988
0.023156352
0.022970552
0.022766316
0.022542407
0.022297851
0.022032155
0.021744218
0.021432997
0.021097794
0.020738197
0.020353668
0.019944655
0.019510362
0.019050652
0.018563648
0.018044686
0.017492688
0.016913265
0.016299408
0.015646809
0.014957986
0.014243185
0.013520952
0.012814165
0.012142667
0.011517992
0.010943944
0.010423026
0.0099567134
0.0095450041
0.0091883671
0.0088845538
0.0086319476
0.0084290302
0.0082750358
0.0081623679
0.0080928312
0.0080636003
0.0080729033
0.0081150174
0.0081869174
0.0082857952
0.0084081171
0.008550396
0.0087124559
0.008882692
0.0090546355
0.02447408
0.024477622
0.024475745
0.024470202
0.024460272
0.024451323
0.024442365
0.024498327
0.024490297
0.024479235
0.024465314
0.024448962
0.02442918
0.024404826
0.024374623
0.024337471
0.024290839
0.024234243
0.024167816
0.024091376
0.024004724
0.023907438
0.023799037
0.023678826
0.023545963
0.023399496
0.023238395
0.023061606
0.022868077
0.022656963
0.0224278
0.022179511
0.021911007
0.021621393
0.021309989
0.020976152
0.020619711
0.020240229
0.019837464
0.019411222
0.01895873
0.018480306
0.017968761
0.017423983
0.016851476
0.016246223
0.015607683
0.014943334
0.014267731
0.013600172
0.012958651
0.0123559
0.011796862
0.01128693
0.01082777
0.010421947
0.010067115
0.0097619687
0.0095048861
0.0092953041
0.0091293895
0.0090073656
0.008922857
0.008878311
0.0088714609
0.008897543
0.0089537631
0.0090377182
0.0091459489
0.0092797103
0.0094243538
0.0095716018
0.024515547
0.024525073
0.024529544
0.024529375
0.024525869
0.024518489
0.024512668
0.024507192
0.024555665
0.024550442
0.024541991
0.024530691
0.024517358
0.024501205
0.024481266
0.024456441
0.02442579
0.024386955
0.024339421
0.024283223
0.024218132
0.024143956
0.024060339
0.023966915
0.023863155
0.023748418
0.023621974
0.023483024
0.023330726
0.02316422
0.0229828
0.022786083
0.022573082
0.022342765
0.022094192
0.021826555
0.021539115
0.021231369
0.020902842
0.020553139
0.02018201
0.019788242
0.019372705
0.018930252
0.018462044
0.017960801
0.017427639
0.016868608
0.016282023
0.015671321
0.015046107
0.014422816
0.013819008
0.013243485
0.012706216
0.012212894
0.011767446
0.011370943
0.011022852
0.010721109
0.01046505
0.010252948
0.01008318
0.0099540681
0.0098638768
0.0098090225
0.0097922831
0.0098085432
0.0098550198
0.0099291344
0.010033472
0.0101508
0.010271155
0.010393025
0.010516584
0.024557802
0.024567198
0.024572341
0.024573589
0.024571993
0.024566924
0.024564045
0.024561801
0.024601154
0.024598492
0.02459253
0.024583744
0.024573296
0.024560626
0.024544963
0.024525381
0.024501099
0.024469922
0.024431279
0.024385081
0.024331019
0.02426887
0.024198304
0.024119025
0.024030622
0.023932609
0.023824442
0.023705517
0.023575193
0.023432792
0.023277754
0.023109798
0.022928065
0.022731634
0.022519618
0.022291193
0.022045588
0.021782149
0.021500301
0.021199536
0.020879459
0.02053932
0.020179134
0.01979692
0.019393664
0.018964371
0.018510621
0.018026188
0.017511938
0.016974823
0.016417652
0.015847002
0.015274239
0.014712652
0.014172811
0.013664597
0.013194957
0.012768673
0.012387219
0.012050242
0.011757006
0.011507041
0.011297947
0.011129267
0.01099979
0.01090753
0.010852474
0.010830555
0.010842729
0.010884986
0.010960788
0.011050866
0.011144159
0.011239331
0.011336369
0.024590178
0.024599144
0.024604677
0.024607054
0.024607155
0.024604164
0.024604019
0.024604784
0.024633123
0.024632782
0.024629127
0.024622705
0.024614998
0.024605677
0.024594162
0.024579713
0.024561696
0.024538076
0.024508212
0.024471864
0.024428617
0.024378188
0.024320235
0.024254496
0.024180632
0.024098272
0.024007009
0.023906403
0.023795982
0.023675235
0.023543743
0.023401334
0.023247294
0.023080836
0.02290118
0.022707563
0.022499245
0.022275536
0.022035811
0.021779493
0.021506083
0.021214976
0.020905841
0.020577634
0.020230231
0.019862205
0.019474818
0.019064482
0.018631071
0.018171089
0.017684186
0.017177712
0.016661091
0.016143058
0.015630367
0.015133177
0.014661628
0.014222944
0.013821292
0.013459814
0.013139177
0.012860153
0.01262036
0.012419776
0.012257759
0.012133222
0.012045374
0.011992315
0.01197367
0.011986745
0.012035195
0.012099069
0.012166468
0.012235903
0.01230725
0.024611176
0.024619379
0.024624987
0.024628195
0.024629733
0.024628569
0.024630928
0.024634479
0.024649587
0.024651327
0.024649765
0.024645528
0.024640399
0.024634286
0.024626803
0.024617387
0.024605557
0.024589428
0.024568276
0.024541692
0.024509132
0.024470229
0.0244246
0.024371982
0.024312076
0.024244581
0.024169189
0.024085583
0.023993426
0.023892349
0.023782059
0.023662489
0.023533069
0.023393158
0.023242104
0.023079246
0.022903919
0.022715476
0.0225133
0.022296803
0.022065441
0.021818648
0.02155597
0.021276675
0.020980307
0.020666412
0.020335334
0.019986191
0.019619052
0.019233426
0.018826568
0.0183997
0.017949422
0.017488043
0.017020638
0.016558933
0.016110404
0.015682263
0.015280615
0.014910067
0.014573862
0.014275687
0.014014692
0.013790595
0.013603431
0.013452804
0.013338159
0.013258281
0.01321314
0.013200085
0.013222788
0.013262673
0.013305989
0.013351245
0.013398494
0.024618972
0.02462604
0.024631382
0.024635104
0.024637794
0.024638193
0.024642799
0.024648911
0.024648165
0.024651745
0.02465205
0.024649796
0.024647069
0.024644017
0.02464045
0.024635983
0.02463028
0.024621608
0.024609144
0.024592291
0.02457036
0.024542879
0.024509404
0.024469644
0.024423306
0.024370127
0.024309863
0.02424228
0.024167143
0.024084192
0.023993239
0.023894306
0.02378696
0.023670703
0.023545015
0.023409353
0.023263155
0.023105855
0.022936892
0.022755716
0.022561791
0.022354584
0.022133612
0.021898258
0.02164799
0.021382618
0.021102256
0.020806744
0.0204961
0.020170306
0.019828557
0.019472734
0.019098087
0.018711479
0.018311212
0.017902231
0.017494477
0.017095064
0.016710796
0.016349458
0.016014666
0.015709754
0.015438953
0.015201526
0.014997907
0.0148285
0.01469333
0.014591991
0.014523683
0.014488291
0.014488163
0.014505428
0.014526365
0.014549372
0.014574531
0.024611276
0.024616802
0.024621516
0.024625425
0.024628969
0.02463067
0.024637217
0.02464569
0.024625978
0.024631153
0.024633094
0.024632616
0.024632109
0.024631972
0.024632213
0.024632626
0.024633015
0.024631797
0.024628035
0.024620931
0.024609633
0.024593549
0.024572153
0.024545108
0.024512103
0.024472887
0.024427248
0.024375002
0.024315983
0.024250008
0.024176965
0.024096951
0.024009649
0.023914694
0.02381169
0.023700214
0.023579817
0.023450029
0.023310375
0.023160372
0.022999536
0.022827381
0.022643449
0.022447188
0.022238078
0.022015986
0.021780948
0.021533001
0.021272252
0.020998848
0.020712767
0.020414412
0.020102857
0.019779434
0.019446694
0.019106437
0.018760556
0.018413174
0.018069835
0.017736282
0.017419005
0.017122223
0.016852371
0.016611769
0.016400836
0.016220706
0.016072012
0.015954927
0.01586873
0.01581344
0.015792956
0.015788784
0.015789546
0.015792576
0.015798016
0.024585173
0.024588724
0.024592435
0.024596207
0.024600313
0.024603089
0.024611118
0.024621953
0.024579502
0.02458603
0.024589387
0.024590488
0.024592031
0.024594677
0.024598638
0.024603885
0.024610363
0.024616634
0.024621636
0.024624349
0.024623748
0.024619102
0.024609795
0.024595423
0.024575643
0.024550192
0.024518868
0.024481509
0.024437989
0.024388175
0.024332004
0.02426962
0.024200809
0.024125316
0.02404286
0.023953129
0.023855781
0.023750447
0.023636745
0.023514277
0.023382632
0.023241392
0.023090151
0.022928426
0.022755739
0.022571972
0.022377124
0.022171247
0.021954493
0.021727062
0.021489173
0.021241164
0.020983091
0.02071533
0.020439275
0.020156441
0.019867993
0.019577432
0.019287316
0.01900012
0.018720396
0.0184524
0.01820089
0.017970557
0.017764434
0.017583457
0.017429167
0.017302583
0.017204119
0.017133619
0.017095429
0.017073176
0.017056606
0.017042531
0.017030977
0.017020316
0.017012181
0.017006364
0.024543755
0.024548157
0.024551832
0.024560758
0.024574196
0.024504341
0.024512056
0.024516658
0.024519177
0.02452263
0.024527959
0.024535586
0.024545661
0.024558267
0.024572111
0.02458599
0.024598647
0.024608868
0.024615771
0.024618637
0.024616985
0.024610425
0.024598669
0.024581504
0.024558772
0.024530363
0.02449617
0.024456154
0.024410484
0.024359026
0.024301619
0.024238079
0.02416819
0.024091708
0.024008358
0.023917849
0.02381987
0.023714091
0.023600169
0.023477769
0.023346484
0.023205893
0.023055889
0.022896455
0.02272764
0.022549576
0.022362473
0.022166586
0.02196227
0.021749901
0.021529899
0.021302921
0.021070828
0.020834089
0.020594483
0.020353709
0.020113644
0.019876887
0.019646422
0.019425686
0.019218096
0.019028768
0.018858764
0.018709993
0.018584016
0.01848182
0.018404531
0.018353968
0.018318845
0.018288663
0.018261059
0.018235866
0.018212708
0.018191674
0.018172761
0.024463493
0.024467976
0.024472411
0.024482033
0.024497916
0.024395253
0.024404058
0.024409792
0.024413608
0.024418875
0.024426834
0.02443812
0.024453067
0.024471894
0.024493453
0.024516384
0.024539176
0.02456041
0.024579044
0.024594244
0.024605442
0.024612192
0.024614168
0.024611134
0.024602922
0.024589419
0.024570527
0.024546211
0.024516645
0.024481754
0.024441455
0.024395641
0.024344181
0.02428691
0.024223639
0.024154157
0.024078237
0.023995623
0.023906052
0.02380926
0.023704916
0.023592669
0.02347243
0.023344174
0.023207944
0.02306385
0.022912073
0.022752871
0.022586564
0.022413574
0.022234552
0.022049668
0.021860736
0.021668316
0.021473487
0.02127736
0.021081184
0.020886398
0.02069546
0.020510022
0.020332838
0.020166792
0.020015902
0.01988091
0.019763549
0.019665098
0.019587166
0.019531437
0.019487791
0.019448091
0.019411154
0.01937613
0.019343046
0.019311938
0.019282806
0.024349867
0.024354292
0.02435942
0.024369887
0.024387767
0.024246186
0.024255968
0.024262757
0.024267786
0.024274825
0.024285418
0.024300416
0.024320337
0.024345537
0.024375014
0.024407236
0.02444042
0.02447293
0.02450355
0.024531323
0.024555583
0.024575822
0.024591666
0.024602847
0.024609176
0.024610528
0.024606796
0.024597934
0.024584112
0.024565292
0.02454146
0.024512568
0.024478545
0.024439316
0.02439474
0.024344701
0.024289043
0.024227551
0.024160066
0.024086353
0.024006202
0.023919308
0.023825622
0.023725041
0.023617665
0.023503572
0.023382892
0.023255897
0.023122749
0.022983948
0.022840056
0.022691514
0.022539224
0.022384567
0.022227945
0.022070213
0.021912325
0.021755315
0.021600555
0.021449233
0.021303944
0.02116486
0.021035962
0.020919589
0.020816106
0.020726781
0.020652915
0.020597177
0.020549808
0.020503125
0.02045869
0.020416408
0.020376156
0.020337898
0.020301534
0.024196332
0.024200643
0.02420648
0.024217906
0.024237765
0.024053351
0.024063927
0.024071721
0.02407793
0.024086743
0.024099999
0.02411876
0.024143733
0.024175407
0.024212926
0.024254581
0.024298301
0.024342226
0.024384955
0.024425401
0.024462798
0.024496562
0.024526269
0.024551615
0.024572376
0.024588409
0.024599593
0.024605858
0.024607358
0.024604087
0.024596063
0.024583334
0.024565845
0.02454362
0.02451653
0.02448459
0.024447586
0.02440556
0.024358189
0.024305516
0.024247347
0.024183223
0.024113337
0.024037667
0.02395615
0.02386887
0.02377593
0.02367752
0.023573785
0.023465433
0.023352286
0.023234968
0.023114047
0.022991013
0.022865501
0.022738848
0.022612312
0.022486556
0.022362427
0.022240817
0.022122944
0.022010001
0.021902754
0.021804129
0.021714402
0.021634622
0.021565972
0.02151088
0.021462354
0.021414131
0.021367205
0.021322297
0.021279279
0.021238084
0.021198447
0.023998724
0.024002957
0.024009586
0.024022093
0.024044352
0.023819376
0.023830645
0.023839451
0.023846861
0.023857469
0.023873384
0.023895883
0.023925855
0.023963925
0.024009378
0.024060328
0.02411442
0.024169567
0.024224185
0.024277053
0.0243273
0.024374266
0.024417473
0.02445657
0.024491303
0.024521494
0.024547015
0.024567758
0.024583847
0.024595309
0.024602187
0.024604594
0.024602506
0.024596019
0.024585029
0.024569653
0.024549644
0.02452522
0.024495981
0.024462174
0.02442326
0.024379487
0.02433066
0.024276934
0.024217685
0.024153541
0.024084488
0.02401121
0.023933224
0.023850644
0.023763883
0.023674041
0.023580792
0.023484608
0.023386484
0.023287337
0.023186802
0.023085797
0.022985168
0.022885736
0.022788386
0.022694059
0.022603702
0.022518655
0.022441142
0.02237167
0.022310868
0.022261053
0.022216486
0.022173218
0.022130762
0.022089259
0.022048799
0.022009484
0.021971098
0.023759789
0.023764047
0.023771543
0.023785106
0.02356707
0.023547991
0.023560113
0.023570017
0.023578694
0.023591122
0.023609671
0.02363583
0.02367067
0.023714946
0.023768083
0.023828026
0.023892147
0.02395814
0.02402424
0.024089098
0.024151733
0.02421141
0.024267593
0.024319884
0.024367992
0.0244117
0.024450842
0.024485299
0.024515121
0.024540379
0.024561158
0.024577507
0.024589566
0.024597305
0.024600897
0.024600213
0.024595448
0.024586357
0.024573168
0.024555548
0.024533514
0.02450698
0.024475699
0.024439771
0.024399351
0.024354193
0.024304425
0.024250079
0.024191771
0.024129188
0.024062998
0.023993317
0.023920969
0.023846573
0.023771068
0.023694147
0.023616058
0.02353728
0.023458442
0.023380198
0.023303241
0.023228312
0.023156119
0.023087131
0.023023811
0.022966944
0.022916682
0.02287631
0.022839977
0.022803997
0.022768168
0.022732607
0.022697465
0.022662946
0.022629008
0.023483701
0.023488101
0.023496501
0.023510888
0.022890019
0.023240628
0.023253803
0.023264915
0.023274931
0.023289211
0.023310368
0.0233401
0.023379659
0.023429928
0.02349047
0.023559071
0.023632846
0.02370928
0.023786434
0.023862831
0.023937387
0.024009291
0.024077945
0.024142903
0.024203834
0.024260489
0.02431266
0.024360203
0.024403121
0.024441484
0.024475403
0.024504894
0.024530109
0.024550952
0.024567632
0.024579946
0.024588201
0.024592096
0.024592044
0.024587677
0.024579373
0.024566739
0.024549763
0.024528419
0.02450333
0.024473934
0.024440405
0.024402235
0.024360433
0.024315047
0.024266411
0.024214021
0.024159072
0.024102665
0.024045069
0.023985928
0.023926395
0.02386669
0.023807188
0.023748344
0.023690674
0.023634761
0.023581143
0.023529831
0.023481935
0.023438436
0.023399438
0.023368268
0.023340094
0.023311922
0.023283635
0.023255306
0.023226989
0.023198729
0.023170597
0.02317209
0.023176732
0.023186061
0.023201061
0.022262475
0.022899386
0.02291366
0.022926026
0.022937417
0.022953553
0.022977271
0.023010471
0.023054576
0.023110592
0.023178224
0.02325511
0.023338121
0.02342455
0.02351229
0.023599745
0.02368573
0.023769356
0.023849966
0.023927064
0.024000276
0.02406932
0.024133963
0.024194013
0.024249454
0.024300345
0.024346815
0.02438894
0.024426812
0.024460422
0.024489827
0.024514957
0.024535879
0.024552509
0.024564961
0.024573201
0.024577352
0.024577381
0.024573318
0.024565159
0.024553168
0.024537365
0.024517864
0.024494565
0.024467725
0.024437549
0.024404354
0.024368161
0.024329341
0.024288558
0.024246326
0.024202853
0.024158593
0.024113947
0.024069317
0.024025117
0.023981777
0.023939765
0.023899568
0.023861512
0.023826112
0.023793984
0.023764939
0.023741929
0.023721038
0.023699967
0.023678683
0.023657236
0.023635624
0.023613774
0.023591772
0.02282699
0.022831944
0.022842218
0.022857727
0.021680587
0.022526617
0.022541931
0.022555525
0.022568271
0.022586225
0.022612424
0.02264895
0.022697395
0.02275888
0.022833247
0.022918001
0.023009788
0.023105721
0.023203539
0.023301531
0.023398414
0.023493228
0.023585254
0.023673948
0.02375889
0.023839761
0.023916297
0.023988267
0.024055618
0.024118417
0.024176814
0.024230934
0.024280892
0.024326751
0.024368569
0.024406344
0.024440087
0.024469752
0.024495334
0.024516808
0.024534184
0.024547418
0.024556527
0.024561506
0.024562488
0.024559587
0.024552961
0.02454269
0.024528947
0.024511934
0.024491928
0.024469089
0.024443679
0.024416163
0.024386947
0.02435635
0.024324749
0.024292511
0.02426001
0.024227619
0.024195712
0.024164678
0.024134917
0.024106767
0.024080565
0.024056803
0.024035061
0.024017968
0.024002345
0.023986456
0.023970338
0.023954009
0.023937485
0.023920762
0.023903854
0.022450668
0.022455971
0.022467191
0.022483163
0.021133732
0.022124709
0.022140976
0.022155734
0.022169779
0.022189476
0.022218037
0.022257718
0.022310262
0.022376902
0.022457612
0.022549778
0.02264984
0.022754744
0.022862087
0.022970052
0.023077267
0.023182697
0.023285569
0.023385286
0.023481387
0.023573512
0.023661363
0.02374467
0.023823337
0.023897436
0.023967129
0.024032568
0.02409389
0.024151203
0.024204597
0.024254129
0.024299838
0.02434173
0.024379799
0.024414034
0.02444441
0.024470844
0.024493282
0.024511659
0.02452598
0.024536292
0.0245427
0.02454532
0.024544302
0.024539836
0.024532173
0.024521536
0.024508172
0.024492466
0.024474757
0.024455384
0.024434691
0.024413017
0.024390712
0.024368114
0.024345556
0.024323375
0.024301903
0.024281444
0.024262184
0.024244803
0.024228413
0.024215523
0.024203568
0.024191284
0.02417877
0.024166029
0.024153065
0.024139883
0.024126487
0.022045486
0.02205115
0.022063297
0.022079703
0.02061558
0.021695997
0.02171317
0.021729026
0.021744297
0.021765637
0.02179642
0.021839055
0.021895431
0.021966883
0.022053512
0.0221526
0.022260399
0.022373705
0.022489983
0.022607322
0.022724261
0.022839701
0.022952814
0.023062954
0.023169616
0.023272401
0.023370975
0.023465029
0.023554422
0.023639226
0.023719612
0.023795746
0.023867782
0.023935852
0.024000072
0.024060533
0.024117308
0.024170447
0.024219978
0.024265926
0.024308294
0.024347013
0.024382004
0.02441317
0.024440443
0.024463791
0.024483224
0.024498797
0.024510589
0.024518726
0.024523391
0.024524776
0.0245231
0.024518696
0.024511864
0.024502933
0.024492234
0.024480092
0.024466837
0.024452787
0.024438247
0.024423518
0.024408886
0.02439462
0.024380928
0.02436816
0.024355702
0.02434567
0.024336079
0.024326099
0.024315889
0.024305447
0.024294773
0.024283871
0.024272743
0.021613805
0.021619827
0.021632865
0.021649681
0.020121987
0.021242683
0.021260928
0.02127778
0.021294194
0.021317068
0.021349915
0.021395289
0.02145521
0.021531109
0.021623211
0.021728706
0.021843676
0.021964786
0.02208938
0.022215459
0.022341485
0.022466297
0.022589016
0.022708949
0.022825547
0.022938374
0.02304706
0.023151256
0.023250776
0.023345689
0.023436171
0.023522398
0.023604534
0.023682726
0.023757107
0.023827791
0.023894875
0.023958437
0.024018538
0.024075234
0.024128561
0.024178479
0.02422491
0.024267751
0.024306913
0.024342328
0.024373958
0.024401797
0.024425862
0.024446205
0.024462921
0.024476125
0.02448596
0.024492676
0.024496514
0.024497763
0.024496721
0.024493685
0.024488961
0.024482842
0.024475611
0.024467541
0.024458887
0.024449889
0.024440734
0.024431684
0.024422143
0.024413999
0.024405834
0.024397228
0.024388398
0.02437934
0.024370056
0.024360546
0.024350815
0.02115793
0.021164297
0.021178184
0.021195388
0.019650236
0.02076724
0.020786467
0.020804301
0.02082181
0.020846107
0.020880857
0.020928745
0.020991917
0.021071885
0.021169
0.021280369
0.021401926
0.02153022
0.021662488
0.021796652
0.021931103
0.022064625
0.022196289
0.022325359
0.022451247
0.022573476
0.022691643
0.02280536
0.022914395
0.023018812
0.02311879
0.023214511
0.023306145
0.02339385
0.02347777
0.023558033
0.023634753
0.023708031
0.023777947
0.023844581
0.023908001
0.023968192
0.024025079
0.024078556
0.024128526
0.024174908
0.024217635
0.024256671
0.024291992
0.024323597
0.024351518
0.024375801
0.024396507
0.024413795
0.024427837
0.024438862
0.024447114
0.024452841
0.024456302
0.02445775
0.024457433
0.024455591
0.024452449
0.024448214
0.024443053
0.024437188
0.024430024
0.024423233
0.024415975
0.024408228
0.02440026
0.024392072
0.024383662
0.024375035
0.024366192
0.020680088
0.020686783
0.020701482
0.020719075
0.019198504
0.020271994
0.020292055
0.020310939
0.020329489
0.020355058
0.020391547
0.020441726
0.020507849
0.020591503
0.020693163
0.02080986
0.02093741
0.021072259
0.021211544
0.021353123
0.021495322
0.021636874
0.021776804
0.021914339
0.022048849
0.022179823
0.022306823
0.022429424
0.02254735
0.022660656
0.022769523
0.022874136
0.022974669
0.023071287
0.023164141
0.023253369
0.023339098
0.023421441
0.023500497
0.023576363
0.023649128
0.0237188
0.023785306
0.023848535
0.023908385
0.023964765
0.024017592
0.024066806
0.024112356
0.024154204
0.024192334
0.024226738
0.02425741
0.024284429
0.024307907
0.024328017
0.024344944
0.024358885
0.024370041
0.024378617
0.024384815
0.024388831
0.024390852
0.02439105
0.024389563
0.024386588
0.024381528
0.024375845
0.024369263
0.024362141
0.024354794
0.024347223
0.02433943
0.024331417
0.024323188
0.020182431
0.020189442
0.020204948
0.020223007
0.018765455
0.019759215
0.01977987
0.019800196
0.019819541
0.019846124
0.019884242
0.019936492
0.020005268
0.020092216
0.02019795
0.020319415
0.020452364
0.020593142
0.020738783
0.020887095
0.02103636
0.021185253
0.021332761
0.021478075
0.02162053
0.021759579
0.021894753
0.02202559