/*--------------------------------*- C++ -*----------------------------------*\
| =========                 |                                                 |
| \\      /  F ield         | OpenFOAM: The Open Source CFD Toolbox           |
|  \\    /   O peration     | Version:  2.4.0                                 |
|   \\  /    A nd           | Web:      www.OpenFOAM.org                      |
|    \\/     M anipulation  |                                                 |
\*---------------------------------------------------------------------------*/
FoamFile
{
    version     2.0;
    format      ascii;
    class       volScalarField;
    location    "15000";
    object      omega;
}
// * * * * * * * * * * * * * * * * * * * * * * * * * * * * * * * * * * * * * //

dimensions      [0 0 -1 0 0 0 0];

internalField   nonuniform List<scalar> 
9754
(
3.4870098
3.8915559
4.3658487
4.8573895
5.3327192
5.7859111
6.2163916
6.6134889
6.9543275
7.2096994
7.3521986
7.3494709
7.2361801
3.1845258
3.4997473
3.8913213
4.3336657
4.7824283
5.2160607
5.6326554
6.0302948
6.3985473
6.7175523
6.9628069
7.1047216
7.1193789
2.939459
3.1834617
3.4913265
3.8636822
4.2720435
4.6813376
5.0782671
5.4618835
5.8298406
6.1726243
6.4744594
6.7108525
6.856652
6.8945314
6.8195551
6.6579663
6.438065
6.1752864
5.887614
5.587292
5.280147
4.9704048
4.665043
1.9942398
2.065318
2.1454891
2.2353943
2.3360335
2.449645
2.5809288
2.7371098
2.9281933
3.1663619
3.4622048
3.811287
4.1857642
4.5592634
4.9231535
5.276865
5.6177638
5.9387521
6.2249676
6.4540547
6.6075611
6.6691096
6.6176461
6.4861301
6.3034125
6.0762226
5.8238758
5.5593221
5.2895874
5.0200172
1.5288585
1.5285844
1.5296997
1.5331235
1.5395334
1.5495362
1.5636444
1.582364
1.6054745
1.6324946
1.663126
1.6972573
1.7349541
1.7764152
1.8220328
1.872466
1.9286335
1.9915579
2.0621387
2.1410476
2.2289242
2.3269303
2.4378461
2.5662568
2.7188403
2.904435
3.1335218
3.4136476
3.736967
4.0789439
4.419933
4.7539928
5.080281
5.3970992
5.6981202
5.9690957
6.1929381
6.3525012
6.4368211
6.4117927
6.3126364
6.1645678
5.9751332
5.758531
5.5276362
5.2925466
1.4932774
1.4931347
1.4943906
1.4978525
1.5041757
1.513937
1.5276161
1.5456744
1.5678621
1.5936689
1.6227487
1.6549279
1.690204
1.7286966
1.7706728
1.8165929
1.8671376
1.9231483
1.9854621
2.0547741
2.1316268
2.2166651
2.3115125
2.4189863
2.5433755
2.6906289
2.8685087
3.0859579
3.3478087
3.6448884
3.9566097
4.2681232
4.5747257
4.8759847
5.1705253
5.4516546
5.7082616
5.9258232
6.0914348
6.1941779
6.1978794
6.1409714
6.0187796
5.867203
5.6859845
5.4886636
1.4573266
1.4573195
1.4587257
1.4622424
1.468501
1.4780527
1.4913494
1.508816
1.5301817
1.5549172
1.5826409
1.6131275
1.6463134
1.682251
1.7211144
1.7632182
1.8090466
1.8592468
1.9145393
1.9755875
2.0429109
2.1169545
2.1987116
2.289893
2.3931784
2.5124243
2.65285
2.821283
3.0251554
3.2673131
3.5386055
3.8222485
4.10659
4.3880036
4.6661586
4.9387987
5.2005294
5.4424227
5.6530683
5.8239934
5.932545
5.9820001
5.9525896
5.8635205
5.7442594
5.6001781
1.4216143
1.4213256
1.4209951
1.4211807
1.4227347
1.4263113
1.4325162
1.4418772
1.4548224
1.4717465
1.4923662
1.5161417
1.5426666
1.5716752
1.6030513
1.6367884
1.6729879
1.7118577
1.7537302
1.7990765
1.8484706
1.9025021
1.9616613
2.0263217
2.097169
2.1752792
2.2623065
2.360693
2.4738205
2.606262
2.7639338
2.952905
3.1746601
3.4210173
3.6784748
3.9378448
4.196071
4.4518491
4.7031725
4.9457685
5.1721989
5.3764686
5.5434129
5.6647306
5.7425414
5.7437992
5.7008928
5.6047529
5.4930255
5.3640875
5.2222969
5.0756964
4.9305307
4.790378
4.6580291
4.535673
4.4250136
4.3258833
4.23817
4.1614851
4.0959414
4.0416002
1.3845738
1.3845285
1.3843789
1.384766
1.386463
1.390096
1.3962479
1.4054249
1.4180346
1.4344471
1.4543735
1.4772713
1.5027191
1.5304211
1.5602184
1.5920535
1.6259678
1.6620893
1.7006368
1.7419367
1.7864166
1.8345591
1.8868055
1.9434926
2.0051556
2.0725291
2.1466668
2.2290974
2.3219756
2.4282412
2.5518614
2.6979168
2.8713238
3.0728681
3.295632
3.5289156
3.7652359
4.001162
4.2349574
4.4653176
4.6882691
4.9001727
5.0927762
5.2562007
5.3886857
5.4739788
5.5187689
5.5060617
5.4524015
5.3627778
5.2633454
5.1529077
5.0349017
4.9138856
4.7945334
4.6803421
4.5737681
4.4759062
4.3873801
4.3081158
4.2379256
4.1770781
1.3473616
1.3475587
1.3475728
1.3481457
1.3499726
1.3536507
1.3597413
1.3687304
1.3810074
1.3969225
1.4161871
1.4382631
1.4627223
1.4892487
1.5176507
1.5478282
1.579772
1.6135479
1.64929
1.6872126
1.7276145
1.7708619
1.8173196
1.8672907
1.9212265
1.9796778
2.0433558
2.1132474
2.1907191
2.2776381
2.3765304
2.4908154
2.6248076
2.7825236
2.9644129
3.1649885
3.3757836
3.5900922
3.8042926
4.0171288
4.2266644
4.4309494
4.6261871
4.8055484
4.965645
5.0964198
5.1949121
5.2588823
5.2800994
5.2640627
5.2120606
5.1362865
5.0495741
4.9574267
4.8611112
4.7633637
4.6669616
4.5745892
4.4880503
4.4080167
4.3345698
4.2683178
1.3451514
1.3469066
1.3100635
1.3104711
1.310674
1.311404
1.3133392
1.3170447
1.3230584
1.3318467
1.3437828
1.3592003
1.377816
1.3991025
1.422632
1.4480771
1.4752227
1.5039351
1.5341634
1.5659228
1.5992837
1.6343754
1.6713926
1.7105927
1.7522517
1.7966213
1.8440931
1.8951153
1.9502025
2.0100227
2.0754657
2.1477281
2.2284013
2.3196409
2.4243591
2.5461884
2.6883875
2.8514041
3.0310911
3.220428
3.4136318
3.6072705
3.7995268
3.9891689
4.1745425
4.3521315
4.5188302
4.6687888
4.7973213
4.9011398
4.9735802
5.0198283
5.0302162
5.0173017
4.9748633
4.9137663
4.8423952
4.7647186
4.686245
4.6074035
4.529638
4.4541813
4.381904
4.3135958
1.3051558
1.3062032
1.3075093
1.3094272
1.2727854
1.2733708
1.2737574
1.2746265
1.2766478
1.2803593
1.2862754
1.2948436
1.306422
1.3213299
1.3392941
1.3598032
1.3824358
1.4068609
1.4328485
1.4602403
1.4889518
1.5189577
1.5502784
1.5829794
1.6171752
1.6530311
1.6907358
1.7304777
1.7725875
1.8174428
1.8654501
1.9170837
1.9729475
2.033825
2.1007427
2.1750506
2.2585674
2.3537571
2.4636395
2.5909515
2.7362224
2.8961079
3.0650331
3.2379649
3.4114015
3.583873
3.7541452
3.9206948
4.0812386
4.2323502
4.3706649
4.4931178
4.5942795
4.6742484
4.7283806
4.7603745
4.7674604
4.75852
4.7276278
4.6812328
4.6246737
4.5625505
4.4974696
4.4312164
4.3648752
4.2994051
1.2674015
1.2685567
1.2699486
1.2719986
1.2356364
1.2363684
1.2369191
1.2379071
1.2399917
1.2436859
1.2494806
1.2578049
1.2690026
1.2833804
1.3006783
1.3204055
1.3421524
1.3655907
1.3904832
1.416655
1.4439969
1.4724512
1.5019992
1.5326582
1.5644815
1.5975618
1.6320111
1.6679524
1.7056515
1.7454232
1.7876008
1.8325492
1.880697
1.9325734
1.9888576
2.0504168
2.1183883
2.1942981
2.2801971
2.3786193
2.4918565
2.6202527
2.7613593
2.9108614
3.0642681
3.2186486
3.3722138
3.5236513
3.6719028
3.8146168
3.9496928
4.0748458
4.18647
4.2828819
4.3612668
4.4213954
4.4617981
4.4849412
4.488897
4.4799267
4.4554987
4.41976
4.3754162
4.3247376
4.2694678
4.2110794
4.1503321
4.0904306
4.03297
1.2343797
1.2310781
1.2297583
1.2299006
1.2311291
1.2325775
1.2347298
1.1987274
1.1995766
1.2002652
1.2013486
1.2034724
1.2071246
1.2127725
1.2208266
1.2316167
1.2454382
1.2620464
1.2809746
1.3018297
1.3242912
1.3481213
1.3731361
1.3992093
1.4262589
1.4542362
1.4831215
1.5129224
1.5436758
1.5754318
1.6082536
1.6423428
1.677953
1.7153565
1.7548449
1.7967422
1.8414274
1.8893574
1.941106
1.9974021
2.0591942
2.1277498
2.2047819
2.2923742
2.3921922
2.504621
2.6279911
2.759113
2.8941409
3.0303284
3.1656068
3.2993116
3.4296952
3.555107
3.6738621
3.7838479
3.8834584
3.9707387
4.0444777
4.1033714
4.147658
4.1763601
4.1911006
4.1919765
4.1803242
4.1577744
4.125967
4.0865308
4.0408959
3.9892999
3.9365306
3.8853083
1.1967039
1.1936715
1.1925196
1.1927549
1.1940286
1.1955049
1.19773
1.1621688
1.1631076
1.1639063
1.1650599
1.1671978
1.1707825
1.1762575
1.184014
1.194368
1.2076038
1.2234937
1.2415975
1.261542
1.283019
1.3057952
1.3296843
1.3545498
1.3802934
1.4068439
1.4341538
1.4621968
1.4909681
1.5204697
1.5507154
1.5818486
1.6140646
1.6475794
1.6826261
1.7194581
1.7583602
1.7996584
1.8437439
1.8910937
1.942316
1.9981903
2.0597796
2.128493
2.2058368
2.2931202
2.3907403
2.4976685
2.6114087
2.7288732
2.8475604
2.9659974
3.0826442
3.1959372
3.3045195
3.4067424
3.5016869
3.5880062
3.6646401
3.7302122
3.784424
3.8263734
3.8561588
3.8738179
3.8796018
3.8744467
3.8591166
3.8346948
3.8024199
3.761869
3.7187249
3.6763441
1.1595544
1.1567695
1.1557611
1.1560666
1.1573605
1.1588383
1.1611079
1.126069
1.1270718
1.1279535
1.1291528
1.1312795
1.1347716
1.1400478
1.1474798
1.1573693
1.1699894
1.1851301
1.2023793
1.2213864
1.2418586
1.2635716
1.2863414
1.310028
1.334523
1.3597405
1.3856128
1.4120888
1.4391332
1.4667125
1.4948015
1.5234949
1.5529356
1.583288
1.6147337
1.6474709
1.6817186
1.7177197
1.7557544
1.7961508
1.8393069
1.8857137
1.9360293
1.9911139
2.0519831
2.1197677
2.195472
2.2795127
2.3712432
2.4688385
2.5699354
2.6722825
2.7745525
2.8749435
2.9721697
3.0644981
3.151335
3.2317329
3.3048854
3.3697574
3.4258568
3.4724062
3.5090068
3.5354475
3.5516446
3.5577875
3.5542313
3.5415286
3.5206137
3.4905042
3.4570986
3.4239474
1.1276111
1.1230247
1.1204668
1.1195807
1.1199347
1.1212264
1.1226821
1.1249702
1.090534
1.0915773
1.0925171
1.0937387
1.0958304
1.099206
1.1042591
1.1113414
1.1207397
1.1327154
1.1470765
1.1634399
1.1814789
1.2009187
1.2215468
1.2431861
1.2656975
1.2889689
1.3129056
1.3374269
1.3624646
1.3879616
1.4138589
1.4401028
1.4667488
1.4938961
1.5216634
1.5501866
1.579617
1.6101223
1.6418867
1.6751173
1.7100498
1.7469584
1.7861681
1.8280934
1.8732535
1.9222449
1.9758015
2.0347695
2.0999003
2.171569
2.2495064
2.3323723
2.418069
2.5053777
2.5924223
2.6776852
2.7596947
2.8373711
2.9098752
2.9767338
3.0371885
3.0906106
3.1366092
3.1745452
3.2040804
3.2250361
3.2372505
3.2408269
3.2360098
3.2234153
3.201766
3.1766948
3.1516213
3.1270632
3.1028917
1.0914486
1.0872007
1.0848514
1.0840692
1.0844531
1.0857232
1.0871363
1.0894202
1.0556658
1.056729
1.0577044
1.0589272
1.0609625
1.0641999
1.0690083
1.0757184
1.0846019
1.0959077
1.1094616
1.1249098
1.1419499
1.1603268
1.179842
1.2003281
1.2216511
1.2436995
1.2663754
1.2895911
1.3132677
1.3373338
1.3617132
1.386332
1.4112161
1.4364297
1.4620536
1.4881841
1.5149322
1.5424229
1.5707948
1.6002023
1.6308187
1.6628402
1.6964924
1.7320514
1.7698442
1.8102018
1.8535401
1.9003958
1.9513745
2.0070296
2.0677037
2.1332157
2.2025681
2.2744952
2.3477081
2.4206382
2.491866
2.5600611
2.6243143
2.6839983
2.7385603
2.7873518
2.8302234
2.8665483
2.8959405
2.9181125
2.9329261
2.9402418
2.940219
2.9331633
2.9178433
2.8992843
2.8805933
2.862175
2.8440054
1.0560886
1.0521616
1.050005
1.0493117
1.0497102
1.050943
1.0522966
1.0545571
1.0215634
1.0226289
1.0236203
1.0248258
1.0267859
1.0298666
1.0344117
1.040731
1.0490801
1.0596952
1.0724189
1.0869263
1.1029399
1.1202246
1.1385973
1.1579025
1.1780136
1.1988236
1.2202357
1.2421601
1.2645128
1.2872142
1.3101776
1.3333163
1.3566343
1.3801691
1.4039719
1.4281066
1.4526499
1.4776912
1.5033317
1.529685
1.5568784
1.5850549
1.614375
1.6450321
1.6772428
1.7111942
1.7471108
1.7852773
1.8260787
1.8699163
1.917191
1.9681555
2.0226676
2.0799533
2.1394288
2.1998369
2.2598589
2.3182911
2.3741791
2.4265755
2.4748784
2.5184232
2.5571338
2.5904937
2.618128
2.6397386
2.6551362
2.6642281
2.6668359
2.6633986
2.6527616
2.6390923
2.6252124
2.6114739
2.5978699
1.0216027
1.0179816
1.0160047
1.0153887
1.0157902
1.0169738
1.0182547
1.0204766
0.98832279
0.98937601
0.99036678
0.99153945
0.99340863
0.99631744
1.0005845
1.0064984
1.0142985
1.0242074
1.0360837
1.0496308
1.0645956
1.0807631
1.0979664
1.1160626
1.1349348
1.1544827
1.1746138
1.1952402
1.2162771
1.237642
1.2592432
1.280987
1.3028623
1.3248873
1.3470906
1.3695111
1.3921981
1.415212
1.4386227
1.4625113
1.4869693
1.5121003
1.5380194
1.5648654
1.5927867
1.621892
1.6523008
1.6841584
1.7176612
1.7530439
1.7905748
1.8304989
1.8729979
1.9178251
1.9647731
2.0131758
2.0621042
2.1106067
2.1577687
2.2027012
2.2447132
2.2829398
2.3171551
2.3470307
2.3722034
2.3923818
2.4073527
2.4170264
2.4211691
2.4200779
2.4129038
2.4029067
2.3926454
2.3824263
2.3722467
0.98806091
0.98473324
0.98292627
0.98237892
0.98277502
0.98390077
0.98509979
0.98727132
0.95603862
0.95706791
0.95804434
0.95917142
0.96093709
0.96366199
0.96764003
0.9731384
0.98037978
0.98957275
1.0005911
1.0131654
1.0270661
1.0420983
1.0581108
1.0749742
1.0925821
1.1108423
1.1296689
1.1489787
1.1686897
1.1887202
1.2089781
1.2293677
1.2498681
1.270484
1.2912282
1.312121
1.3331911
1.3544759
1.3760208
1.3978802
1.4201178
1.4428061
1.4660267
1.4898794
1.5144672
1.5398522
1.5660946
1.593266
1.6214567
1.6507812
1.6813798
1.7134098
1.7470234
1.7822411
1.8188952
1.8568754
1.8956416
1.9346133
1.9731207
2.0104359
2.0458774
2.0788054
2.1084285
2.1345806
2.1569566
2.1752586
2.1892603
2.1988168
2.2038758
2.2043157
2.1996129
2.1924411
2.1849458
2.1774015
2.169809
0.95553524
0.95249119
0.95084658
0.9503619
0.95074718
0.9518091
0.95292185
0.9550334
0.9248052
0.92580179
0.926753
0.92782439
0.92947678
0.93200894
0.9356905
0.94076732
0.94744529
0.95591857
0.96607511
0.9776715
0.9905009
1.0043875
1.019196
1.0348098
1.0511335
1.068084
1.0855829
1.1035538
1.1219197
1.1406028
1.159514
1.1785593
1.1977125
1.2169697
1.2363331
1.2558101
1.2754146
1.295167
1.315094
1.3352297
1.3556154
1.3762999
1.3973387
1.4188028
1.4407627
1.4632495
1.4862889
1.5099098
1.5341474
1.5590468
1.5846571
1.6110701
1.6383457
1.6665426
1.695546
1.7253714
1.7557687
1.7864557
1.8170529
1.8470866
1.8760209
1.9034043
1.9284498
1.9507575
1.970125
1.9862569
1.9989161
2.0079278
2.0132432
2.0147325
2.0117905
2.0068335
2.0014032
1.9958692
1.990224
0.92410431
0.92133589
0.91984787
0.91942163
0.91979265
0.92078612
0.92181653
0.92385407
0.89471946
0.89567697
0.89659442
0.89760221
0.89913382
0.90146705
0.9048478
0.90950079
0.91561513
0.92337039
0.9326677
0.94328848
0.95504749
0.96778726
0.98138722
0.99574365
1.0107717
1.0263976
1.0425512
1.0591635
1.0761642
1.0934811
1.1110309
1.128724
1.1465323
1.1644469
1.1824635
1.2005815
1.2188048
1.2371421
1.2556067
1.2742177
1.2929996
1.3119831
1.331204
1.3507109
1.3705508
1.390733
1.4112606
1.4321382
1.4533698
1.474963
1.4969248
1.5192769
1.5420323
1.56521
1.5887553
1.6126198
1.6366989
1.660866
1.6849395
1.7086631
1.7317037
1.7537079
1.7742327
1.7927942
1.8090321
1.8227783
1.8337941
1.8418932
1.8469587
1.8489386
1.8472806
1.8438772
1.8399618
1.8359144
1.8317354
1.8276093
1.8233606
1.8190172
0.8896492
0.89000348
0.8909245
0.89188331
0.89382722
0.86588541
0.86679748
0.86767392
0.86861138
0.87001633
0.87214643
0.87522453
0.87945455
0.88500896
0.89205272
0.90049927
0.91015362
0.92085098
0.9324512
0.94484769
0.95794879
0.97167984
0.98597589
1.0007752
1.0160164
1.0316367
1.0475708
1.0637424
1.0800683
1.0965208
1.113089
1.1297652
1.1465441
1.1634238
1.1804054
1.1974934
1.2146965
1.2320275
1.2495038
1.2671466
1.2849879
1.3030571
1.3213489
1.3398509
1.3585505
1.3774346
1.3964895
1.4157008
1.4350557
1.4545345
1.4741176
1.4937739
1.5133876
1.5329279
1.5523068
1.5714358
1.5901861
1.6083777
1.625787
1.6421452
1.657168
1.6703948
1.6817139
1.6909192
1.6978329
1.7023283
1.704262
1.7033949
1.7009728
1.6981465
1.695178
1.6920832
1.6889014
1.6856278
1.6822664
0.86114443
0.86147923
0.86232477
0.8632126
0.86505907
0.83841018
0.83927092
0.84010073
0.84096177
0.84223508
0.84415933
0.84693491
0.85074536
0.85574682
0.86208978
0.86969915
0.87840238
0.88805396
0.89853006
0.90973713
0.92159474
0.9340377
0.94700947
0.9604562
0.97432421
0.98855814
1.0031
1.0178812
1.0328264
1.0479095
1.0631195
1.0784477
1.0938866
1.109431
1.1250782
1.1408272
1.1566799
1.1726419
1.1887212
1.2049291
1.2212859
1.237808
1.2544803
1.2712802
1.2881843
1.3051685
1.3222069
1.3392716
1.3563349
1.3733608
1.3902979
1.4071301
1.423727
1.4400434
1.4560139
1.4715809
1.4866709
1.5011851
1.5149934
1.5279366
1.5398402
1.5504804
1.5595397
1.5669555
1.5725797
1.5762982
1.5779624
1.5773773
1.5756248
1.5735687
1.5713498
1.5690401
1.5666387
1.564145
1.5615617
0.83401555
0.834327
0.8350937
0.83590947
0.83765582
0.8124075
0.81320914
0.81398817
0.81476648
0.8159036
0.81762037
0.82009516
0.82349159
0.8279499
0.83360634
0.84039659
0.84816935
0.8567973
0.86617196
0.87621188
0.88684704
0.89802095
0.9096848
0.92179207
0.9342963
0.94714921
0.9603001
0.97368848
0.9872466
1.0009516
1.0147929
1.0287621
1.0428518
1.0570546
1.0713668
1.0857836
1.1003031
1.1149278
1.1296585
1.144502
1.1594679
1.1745653
1.1897718
1.205064
1.220408
1.2357738
1.25113
1.2664388
1.2816722
1.2967789
1.3117046
1.3264037
1.3407979
1.3547769
1.3683122
1.3813521
1.3938395
1.4057096
1.416881
1.4272585
1.4367294
1.4452195
1.4524761
1.4583372
1.4627857
1.4657315
1.4670739
1.4665722
1.4652329
1.4638418
1.4623181
1.4606685
1.4589035
1.4570291
1.4550558
0.80837676
0.8086594
0.80934298
0.81008567
0.81173101
0.78839239
0.78912039
0.78984367
0.79053383
0.79153335
0.7930456
0.79522774
0.79822439
0.80216055
0.80715884
0.81316487
0.82004713
0.82769523
0.83601485
0.84493562
0.85439696
0.86435025
0.87475353
0.8855669
0.89675039
0.90826221
0.92005834
0.93208603
0.94428502
0.95663565
0.96912923
0.98175614
0.9945113
1.0073851
1.0203758
1.0334736
1.0466812
1.0599881
1.0734043
1.0869203
1.1005441
1.1142915
1.1281236
1.1420107
1.1559253
1.1698323
1.1836969
1.1974801
1.2111492
1.2246342
1.2379217
1.2509473
1.2636479
1.2759042
1.2877311
1.2990364
1.3097384
1.3197964
1.3291584
1.3377652
1.3455485
1.35244
1.3583801
1.3631868
1.3668609
1.3693365
1.3705326
1.3702457
1.3692568
1.3682158
1.3670889
1.3658293
1.3644503
1.3629612
1.3613821
0.78472842
0.78497633
0.78557389
0.78624462
0.7878054
0.7670267
0.76767326
0.76833775
0.76893967
0.7698071
0.77112599
0.77303401
0.77565843
0.7791102
0.78349937
0.78878047
0.79484
0.8015828
0.80892734
0.81681311
0.82518792
0.83401
0.84324339
0.85285384
0.86280702
0.87306705
0.88359517
0.89434609
0.90526664
0.91633967
0.92755849
0.93891325
0.95040047
0.96200963
0.97374043
0.98557999
0.99753501
1.0095869
1.0217516
1.0340093
1.0463867
1.0588606
1.0714138
1.0840075
1.0966453
1.1092582
1.1218155
1.1342475
1.1465561
1.1587028
1.1706328
1.1822493
1.1935417
1.2044494
1.2148952
1.2248106
1.2342165
1.2430534
1.2512665
1.2588029
1.2656094
1.2716304
1.2768066
1.2810586
1.2842557
1.2863724
1.2873687
1.2870601
1.2861282
1.2850548
1.2839161
1.2827067
1.2814246
1.2800672
1.2786491
0.76372805
0.76393721
0.76445036
0.76504866
0.76652832
0.74836552
0.74893881
0.74954764
0.7500666
0.75081178
0.75195246
0.75360896
0.75589304
0.75890305
0.76273765
0.76735946
0.77267115
0.77859125
0.78504964
0.79199452
0.79938107
0.80717348
0.81534093
0.82385404
0.83268331
0.84179804
0.85116518
0.86074455
0.8704912
0.88038911
0.8904326
0.9006175
0.91093519
0.92138371
0.9319519
0.94264119
0.95343861
0.96435069
0.9753631
0.98648764
0.99772297
1.0090639
1.0204985
1.0319914
1.0435053
1.0550195
1.0664957
1.0778987
1.089169
1.1002906
1.1111901
1.1218256
1.1321163
1.1419881
1.1513635
1.1602487
1.1686234
1.1764491
1.1836807
1.1902736
1.1961835
1.2013642
1.2057725
1.2093795
1.2120418
1.2137204
1.2144016
1.213858
1.212762
1.2115772
1.2103608
1.2091085
1.2078135
1.2064665
1.2050726
0.74544564
0.7456146
0.74604805
0.74657078
0.7479367
0.73213902
0.73264712
0.73320474
0.73364642
0.73427886
0.73525574
0.73668164
0.73865447
0.74126122
0.74459034
0.7486118
0.75324298
0.75841477
0.76406731
0.77015663
0.77664438
0.78349999
0.79069711
0.79821053
0.80601485
0.8140835
0.82238842
0.83089412
0.83956184
0.84837814
0.85733859
0.86644308
0.87568469
0.88506722
0.89457996
0.90423056
0.91400228
0.92390718
0.93392278
0.94406509
0.95431492
0.96468643
0.9751565
0.98569626
0.9962446
1.0068019
1.0173286
1.0278186
1.0381863
1.0483962
1.0583962
1.0681777
1.0776318
1.0866562
1.0952151
1.1033122
1.1108679
1.1178589
1.1242528
1.1300145
1.1351076
1.1394936
1.1431395
1.1460434
1.1481421
1.1493837
1.1497531
1.1490314
1.1478188
1.1465326
1.1452251
1.143894
1.1425383
1.1411576
1.1397506
0.72960239
0.72973165
0.73009091
0.7305386
0.7317707
0.7181269
0.71857272
0.71908192
0.71945072
0.71997852
0.72080434
0.72201834
0.72370584
0.7259436
0.72881083
0.73228433
0.73629489
0.74078466
0.74570314
0.75101336
0.75668284
0.76268563
0.76899928
0.77560222
0.78247254
0.78958712
0.79692136
0.80444477
0.81212246
0.8199437
0.8279049
0.83600517
0.84424245
0.85261849
0.86113179
0.86978553
0.87857653
0.88750779
0.89657311
0.90577333
0.91510364
0.92456079
0.93412233
0.94376082
0.95343553
0.96311713
0.97277089
0.98237041
0.99187148
1.0012297
1.0103936
1.0193257
1.0279637
1.0362291
1.0440695
1.0514552
1.058346
1.064706
1.0704993
1.0756914
1.080249
1.0841378
1.0873259
1.0897917
1.0915054
1.0924355
1.0925801
1.0917473
1.0904759
1.0891385
1.0877825
1.0864067
1.0850132
1.0836076
1.082187
0.7159548
0.71604668
0.7163377
0.71671539
0.71782002
0.70613313
0.70651984
0.70698345
0.70728348
0.70771384
0.70839992
0.70941853
0.71084354
0.71274242
0.71518607
0.71815765
0.72160033
0.72546658
0.7297145
0.73431351
0.73923642
0.74446142
0.74996955
0.75574241
0.76176118
0.76800579
0.77445474
0.78108151
0.78785512
0.79476607
0.80181112
0.80898837
0.81629607
0.82373418
0.83130256
0.83900296
0.84683625
0.8548053
0.86291087
0.87115464
0.87953837
0.88806042
0.89670109
0.90543542
0.91423105
0.9230558
0.93187445
0.94065374
0.94935554
0.9579366
0.96634823
0.97454667
0.98247647
0.99006985
0.99727914
1.0040678
1.0103986
1.0162362
1.0215451
1.0262917
1.0304443
1.0339715
1.0368443
1.0390391
1.0405342
1.0413061
1.0413599
1.0405256
1.0392923
1.0379968
1.0366825
1.0353494
1.0339982
1.0326304
1.0312469
0.70429426
0.70435248
0.70458175
0.70489605
0.7058859
0.69598764
0.69631951
0.69674114
0.69697678
0.69731653
0.69787312
0.69871101
0.69989358
0.7014799
0.70353334
0.70604311
0.70896391
0.7122578
0.71589083
0.7198383
0.72407788
0.72859152
0.73336338
0.73837787
0.74361889
0.74906908
0.75470968
0.76051757
0.76646536
0.77254456
0.77875225
0.78508632
0.79154496
0.7981272
0.80483253
0.81166126
0.81861409
0.82569282
0.83289938
0.84023603
0.84770712
0.85531398
0.86304184
0.87087081
0.87877653
0.88673161
0.89470505
0.9026637
0.91057259
0.91839073
0.92607201
0.93357107
0.94083482
0.94780087
0.95442486
0.96066885
0.96649694
0.97187447
0.97676641
0.98114
0.98496469
0.98821076
0.99085128
0.99286313
0.99422737
0.99492434
0.99496246
0.99418913
0.99305107
0.99185457
0.99063911
0.98940531
0.98815394
0.98688601
0.98560242
0.69444584
0.69447505
0.69464942
0.69490717
0.69579538
0.68754844
0.68782912
0.68821267
0.68838853
0.68864427
0.68908074
0.68975096
0.69070865
0.69200524
0.69369732
0.6957799
0.69821858
0.70098442
0.70405092
0.70739885
0.71101036
0.71487089
0.71896742
0.72328688
0.72781559
0.73253859
0.73743955
0.7424983
0.74769066
0.75300899
0.75845055
0.76401325
0.76969528
0.77549539
0.78141277
0.78744702
0.79359828
0.79986739
0.80625567
0.81276467
0.81939833
0.82615838
0.83303263
0.84000452
0.84705481
0.85416156
0.86129964
0.86844057
0.87555427
0.8826046
0.88955031
0.89634894
0.90295054
0.90929688
0.9153463
0.92106149
0.92640724
0.93134941
0.93585357
0.93988756
0.94342152
0.94642679
0.94887771
0.95075209
0.95203217
0.95270053
0.95276632
0.95209112
0.95108276
0.9500198
0.94893803
0.94783819
0.94672108
0.94558751
0.9444383
0.68626628
0.68627153
0.68639785
0.68660551
0.68740408
0.68070226
0.68092905
0.68127975
0.68140061
0.68157864
0.68190352
0.68241757
0.6831656
0.6841921
0.68554748
0.68723248
0.68922305
0.69149882
0.69404035
0.69683357
0.69986486
0.70312287
0.70659717
0.71027703
0.71415091
0.71820599
0.7224281
0.72679966
0.73129937
0.73592023
0.7406596
0.74551539
0.7504858
0.75556947
0.76076541
0.76607292
0.77149176
0.77702219
0.78266499
0.78842107
0.79429355
0.80028377
0.80638087
0.81257012
0.81883479
0.8251561
0.83151279
0.83788055
0.84423377
0.85054139
0.85676774
0.86287546
0.86881987
0.87454831
0.88002278
0.88520849
0.89007206
0.89458082
0.89870156
0.90240305
0.90565623
0.90843324
0.9107093
0.91246289
0.91367688
0.91433477
0.91444538
0.91388238
0.91301621
0.91209924
0.91116366
0.91021011
0.90923929
0.90825188
0.90724859
0.67964131
0.6796276
0.67971234
0.67987553
0.68059445
0.67534958
0.67552764
0.67584801
0.67591733
0.67602337
0.67624422
0.67661205
0.67716338
0.67793641
0.67897589
0.68028827
0.68185945
0.68367728
0.68572913
0.68800587
0.69049786
0.6931968
0.6960947
0.69918295
0.70245196
0.70589086
0.7094874
0.71322629
0.71708877
0.72106838
0.72516246
0.72936886
0.73368574
0.73811164
0.74264545
0.74728627
0.75203364
0.75688747
0.76184811
0.76691605
0.77209369
0.77738199
0.78277114
0.78824789
0.79379732
0.79940275
0.80504553
0.81070426
0.81635656
0.82197519
0.82752893
0.83298505
0.83830413
0.84343934
0.84835682
0.85302523
0.8574142
0.86149364
0.86523264
0.86860185
0.87157369
0.87412159
0.87622176
0.87785346
0.87900007
0.87964545
0.87979751
0.87934072
0.87860947
0.87783133
0.87703506
0.87622115
0.87539017
0.87454271
0.87367935
0.67448257
0.67445449
0.67450319
0.67462609
0.67527351
0.67141522
0.67155129
0.67184069
0.67186187
0.67190235
0.67202571
0.67225568
0.67262107
0.67315446
0.67389521
0.67485573
0.67603135
0.67741791
0.67900958
0.68080194
0.68278915
0.68496586
0.68732638
0.68986407
0.69257118
0.69543856
0.69845572
0.70160941
0.70488314
0.70827086
0.7117698
0.71537769
0.71909258
0.72291287
0.72683731
0.73086486
0.73499483
0.73922691
0.74356115
0.74799769
0.75253838
0.75718384
0.76192522
0.76675061
0.77164662
0.77659833
0.78158911
0.78659995
0.79161101
0.79659816
0.80153373
0.80638878
0.81112837
0.8157108
0.82010594
0.82428572
0.82822284
0.83189011
0.83525937
0.83830369
0.84099756
0.8433162
0.84523728
0.8467411
0.84781179
0.84843369
0.84861369
0.84824623
0.84763174
0.84697459
0.84630041
0.84560953
0.84490241
0.84417952
0.84344134
0.67072437
0.67068572
0.67070212
0.67078544
0.67136729
0.66884302
0.6689466
0.66919303
0.6691754
0.66915974
0.66918927
0.66928796
0.66947608
0.66978117
0.67023699
0.67086283
0.67166198
0.67263868
0.67379436
0.67512884
0.67663976
0.67832489
0.68018075
0.68220252
0.68438413
0.68671808
0.68919542
0.69180477
0.69453167
0.69737037
0.70031792
0.70337186
0.70653005
0.70979073
0.71315246
0.71661402
0.72017454
0.72383345
0.72759058
0.73144578
0.73540044
0.73945491
0.74360122
0.7478287
0.75212534
0.75647776
0.76087107
0.76528829
0.76971169
0.77411979
0.77848795
0.78279042
0.78699613
0.79106792
0.79497884
0.79870375
0.8022181
0.8054974
0.80851617
0.81124994
0.81367539
0.81576978
0.81751243
0.81888498
0.81987251
0.82046006
0.82065376
0.8203574
0.81983995
0.8192843
0.81871319
0.81812687
0.81752564
0.8169099
0.81628001
0.6683199
0.66826318
0.6682579
0.66830019
0.66882047
0.66759106
0.66766922
0.66786675
0.66782387
0.66774868
0.66769022
0.66766457
0.66768251
0.66776891
0.66795029
0.66825636
0.6686925
0.66927529
0.67001488
0.67091287
0.67196993
0.67318841
0.67456658
0.67610098
0.67778741
0.67961988
0.68159083
0.68369052
0.68590637
0.68823283
0.69066671
0.69320528
0.6958462
0.69858743
0.70142734
0.70436447
0.70739774
0.71052636
0.71374989
0.71706794
0.72048148
0.72399062
0.72758822
0.73126477
0.7350095
0.73881042
0.7426542
0.7465256
0.7504088
0.75428457
0.75813091
0.76192485
0.76563869
0.76923926
0.77270243
0.77600559
0.77912667
0.78204357
0.78473333
0.78717378
0.78934373
0.79122244
0.79279098
0.79403239
0.79493289
0.79547832
0.79567429
0.79543344
0.79499571
0.79452424
0.79403911
0.79354046
0.79302855
0.79250364
0.79196603
0.66711508
0.66712717
0.66759457
0.66762451
0.66768777
0.66784184
0.66777989
0.6676416
0.66750137
0.66735654
0.66721261
0.66708742
0.6670007
0.66700304
0.66707841
0.66727799
0.66762089
0.66809849
0.66871631
0.6694885
0.67041101
0.67148069
0.67269655
0.67405394
0.67554616
0.67716511
0.67890002
0.68074538
0.68269765
0.68475387
0.68691137
0.68916784
0.69152136
0.69397024
0.69651313
0.69914898
0.7018771
0.70469684
0.70760876
0.71061276
0.71370246
0.71686939
0.72010394
0.72339539
0.7267318
0.73009953
0.7334844
0.73686921
0.7402343
0.74355912
0.74681897
0.74998424
0.75303325
0.75594564
0.75870153
0.76128098
0.76366326
0.76582835
0.76775705
0.76943052
0.77083151
0.77194453
0.77275689
0.7732554
0.77344526
0.77324745
0.77287524
0.77247354
0.77205999
0.77163468
0.77119779
0.77074953
0.77029011
0.66725279
0.66722577
0.66765471
0.66889836
0.66894994
0.669062
0.66897377
0.66876737
0.66853205
0.66825813
0.66794883
0.667622
0.66729681
0.6670336
0.66679933
0.66663087
0.66658842
0.66664708
0.66682515
0.66717361
0.66765878
0.66827863
0.66904369
0.66994788
0.67098352
0.67214522
0.67342415
0.67481432
0.6763118
0.67791345
0.67961626
0.68141752
0.68331501
0.68530675
0.68739111
0.68956674
0.69183265
0.69418797
0.69663281
0.69916686
0.70178443
0.704478
0.70723903
0.71005794
0.71292406
0.71582519
0.71874863
0.72167901
0.72459873
0.72748946
0.73032915
0.73309137
0.73575664
0.73830657
0.74072322
0.7429886
0.74508399
0.7469913
0.74869317
0.75017254
0.75141376
0.75240269
0.7531278
0.75357684
0.75375473
0.75359032
0.75327228
0.75292869
0.75257499
0.75221123
0.75183753
0.75145404
0.75106095
0.66863793
0.66855222
0.66895295
0.67147445
0.67151389
0.67158817
0.67147697
0.67121157
0.67088664
0.67048116
0.66998914
0.66942182
0.66879434
0.66817899
0.66762338
0.66713985
0.66677216
0.66650002
0.66629281
0.66622314
0.66627464
0.66644114
0.66677557
0.66724635
0.66784053
0.66856328
0.66940727
0.67036329
0.67142765
0.67259788
0.67387006
0.67524085
0.67670789
0.67826893
0.67992194
0.68166523
0.68349753
0.68541767
0.68742537
0.68952004
0.69169664
0.6939485
0.69626805
0.69864674
0.70107507
0.70354214
0.70603657
0.70854465
0.71105069
0.71353828
0.7159878
0.7183757
0.72068445
0.72289744
0.72499844
0.7269712
0.72879882
0.73046496
0.73195393
0.7332503
0.73433992
0.73520996
0.73584997
0.73624862
0.73641061
0.73627223
0.73599943
0.7357047
0.73540147
0.73508976
0.67131633
0.67117611
0.67155613
0.67533085
0.67535781
0.67540401
0.67526165
0.67494285
0.6745375
0.67401635
0.67336677
0.67259431
0.67171412
0.67075807
0.66980865
0.66890526
0.66809981
0.66742638
0.6668762
0.6664647
0.66618021
0.66596085
0.66587429
0.6659166
0.66606497
0.6663646
0.66679465
0.66733143
0.66797876
0.66873733
0.66959882
0.67055912
0.6716169
0.67276946
0.67401399
0.67534846
0.67677141
0.67828137
0.67987756
0.68155914
0.68332164
0.68515919
0.68706505
0.68903165
0.6910505
0.6931119
0.69520569
0.69731964
0.69943978
0.70155148
0.7036373
0.70567632
0.70765275
0.70955157
0.71135809
0.71305763
0.71463492
0.71607521
0.71736433
0.71848837
0.71943454
0.72019121