/*--------------------------------*- C++ -*----------------------------------*\
| =========                 |                                                 |
| \\      /  F ield         | OpenFOAM: The Open Source CFD Toolbox           |
|  \\    /   O peration     | Version:  2.4.0                                 |
|   \\  /    A nd           | Web:      www.OpenFOAM.org                      |
|    \\/     M anipulation  |                                                 |
\*---------------------------------------------------------------------------*/
FoamFile
{
    version     2.0;
    format      ascii;
    class       volScalarField;
    location    "380";
    object      p;
}
// * * * * * * * * * * * * * * * * * * * * * * * * * * * * * * * * * * * * * //

dimensions      [0 2 -2 0 0 0 0];

internalField   nonuniform List<scalar> 
32000
(
-0.031078481
-0.0097814175
-0.014162838
-0.011876778
-0.010251689
-0.0045799327
0.0010894733
0.0046101454
0.0064325349
0.0075147318
0.0083752606
0.0091688358
0.0099094782
0.010598648
0.011216882
0.011726868
0.012111974
0.012405497
0.012611292
0.012725468
0.012772959
0.012760414
0.01269833
0.01261078
0.012500869
0.012382161
0.012252617
0.012130945
0.012032763
0.011960499
0.011926643
0.011946062
0.012036139
0.012212904
0.012488784
0.012868497
0.013347379
0.013911338
0.014540654
0.015209971
0.015898181
0.01658959
0.017274608
0.017945042
0.018600338
0.019238644
0.01986933
0.020502265
0.02110184
0.021639334
0.022088362
0.022422141
0.02262472
0.022693007
0.022640696
0.022491391
0.022273376
0.022013556
0.021733456
0.021446733
0.021157595
0.020859741
0.020539459
0.020178935
0.019758502
0.019258984
0.018663533
0.017957779
0.017128951
0.016166317
0.015064336
0.013826455
0.012466008
0.011003125
0.0094608527
0.0078621707
0.0062284572
0.004578785
0.002928206
0.0012862719
-0.00034420556
-0.0019681039
-0.0035972528
-0.005249322
-0.0069468682
-0.0087152171
-0.010581117
-0.012571859
-0.014712226
-0.017022201
-0.019513263
-0.022182647
-0.025006927
-0.027933077
-0.03087012
-0.033685399
-0.036202263
-0.038220878
-0.039545618
-0.040075453
-0.039890809
-0.039459579
-0.039245858
-0.039340113
-0.039707981
-0.040177061
-0.04061544
-0.040922358
-0.041042404
-0.040961995
-0.040723087
-0.04041257
-0.040175248
-0.040216874
-0.040809278
-0.042301255
-0.044965424
-0.048815671
-0.053828192
-0.059643801
-0.065335954
-0.06950423
-0.07063579
-0.067957701
-0.0624498
-0.057291303
-0.05475503
-0.053743311
-0.052355927
-0.050551889
-0.048659404
-0.047290157
-0.046537675
-0.046113687
-0.045797964
-0.04551176
-0.04525381
-0.045021534
-0.044801794
-0.044614302
-0.044532605
-0.044627899
-0.044900755
-0.04525442
-0.045509104
-0.045438845
-0.044814729
-0.043427686
-0.041096697
-0.037628964
-0.032841011
-0.026332248
-0.018025953
-0.0073709714
-0.0019104412
0.0024600394
0.0058865337
0.0087592512
0.01124196
0.013544976
0.015686532
0.017812228
0.019969314
0.022229207
0.024590967
0.027157656
0.030210099
0.03385123
0.038126263
0.043058168
0.048629851
0.054801393
0.061510201
0.068695049
0.076148018
0.083618248
0.090852882
0.097770561
0.10424703
0.11017698
0.11546268
0.12001139
0.12370428
0.1264049
0.1280238
0.12798776
0.12547114
0.12007242
0.11093076
0.097081029
0.077371753
0.050737743
0.017519559
-0.019931076
-0.050082497
-0.067080738
-0.071561169
-0.069445412
-0.060031606
-0.057949562
-0.031080042
-0.0097807951
-0.014162326
-0.011872635
-0.010250533
-0.0045901064
0.0010734717
0.0045959755
0.0064224751
0.0075072527
0.0083684876
0.0091621846
0.0099029743
0.010592439
0.011211232
0.011722153
0.012108303
0.01240268
0.012609309
0.012724258
0.012772336
0.012760315
0.012698604
0.012611277
0.012501507
0.012382883
0.012253405
0.012131661
0.012033313
0.011960825
0.011926645
0.011945623
0.012035147
0.012211281
0.012486514
0.012865653
0.013344118
0.013907851
0.014537146
0.015206642
0.015895202
0.016587076
0.017272638
0.017943657
0.018599558
0.019238459
0.019869603
0.02050245
0.021101824
0.021639099
0.022087896
0.022421473
0.022623927
0.02269218
0.022639918
0.022490721
0.022272853
0.022013189
0.021733231
0.021446617
0.021157537
0.020859684
0.020539346
0.020178713
0.019758132
0.01925844
0.0186628
0.017956854
0.017127848
0.01616508
0.015063027
0.013825139
0.012464735
0.011001932
0.0094597645
0.0078612023
0.0062276149
0.0045780672
0.0029275988
0.0012857552
-0.00034465927
-0.0019685222
-0.0035976591
-0.0052497351
-0.0069473014
-0.0087156772
-0.010581608
-0.012572382
-0.014712777
-0.017022776
-0.019513848
-0.022183219
-0.02500744
-0.027933457
-0.030870253
-0.033685142
-0.036201451
-0.038219378
-0.039543408
-0.040072789
-0.039888181
-0.039457432
-0.039244266
-0.039338794
-0.039706686
-0.040175757
-0.040614216
-0.040921318
-0.041041655
-0.040961651
-0.040723264
-0.040413391
-0.040176842
-0.040219335
-0.040812668
-0.042305646
-0.044970511
-0.04882049
-0.053831714
-0.059645157
-0.065334296
-0.06949905
-0.070627582
-0.067948605
-0.062443601
-0.057290376
-0.054756204
-0.053742863
-0.052354767
-0.050552113
-0.048661502
-0.0472932
-0.046540561
-0.046115924
-0.045799589
-0.04551296
-0.045254705
-0.04502211
-0.044801911
-0.044613741
-0.044531126
-0.044625333
-0.044897116
-0.045249947
-0.045504216
-0.045434036
-0.044810468
-0.04342436
-0.041094646
-0.037628481
-0.032842726
-0.026336761
-0.018037122
-0.0073852582
-0.0019165784
0.0024605971
0.0058904384
0.0087657155
0.011250388
0.01355506
0.015698224
0.017825799
0.019984928
0.022247019
0.024611373
0.027182368
0.030240588
0.033887911
0.038169373
0.043107586
0.048685131
0.054861818
0.061574916
0.068762427
0.076215719
0.083684056
0.090915614
0.097829435
0.10430106
0.11022536
0.1155046
0.12004591
0.1237302
0.12642078
0.12802636
0.12797091
0.12543049
0.1200038
0.1108287
0.096941583
0.077194126
0.050533166
0.017315633
-0.020076564
-0.050142495
-0.06708463
-0.071546353
-0.069431333
-0.060021051
-0.057949276
-0.03108131
-0.0097797971
-0.014161755
-0.011867593
-0.010248913
-0.0046008592
0.0010562007
0.0045804101
0.006411273
0.0074988926
0.0083609233
0.0091547585
0.0098957095
0.010585499
0.011204911
0.011716869
0.012104179
0.012399509
0.012607064
0.012722872
0.012771606
0.012760168
0.012698874
0.012611797
0.012502184
0.012383656
0.012254251
0.012132432
0.012033905
0.01196117
0.011926635
0.011945128
0.012034041
0.01220948
0.012484
0.012862505
0.01334051
0.013903995
0.014533265
0.015202958
0.015891902
0.016584287
0.017270451
0.017942116
0.018598685
0.019238242
0.019869892
0.020502638
0.021101788
0.021638816
0.022087354
0.022420707
0.022623022
0.022691237
0.022639032
0.022489961
0.02227226
0.022012776
0.021732983
0.021446494
0.021157483
0.020859635
0.020539236
0.020178485
0.019757738
0.019257848
0.018661993
0.017955827
0.01712662
0.016163698
0.015061563
0.013823664
0.012463309
0.011000595
0.0094585458
0.0078601192
0.0062266762
0.0045772686
0.0029269255
0.0012851837
-0.00034515811
-0.0019689782
-0.0035980975
-0.005250176
-0.0069477587
-0.0087161591
-0.01058212
-0.012572924
-0.014713348
-0.017023371
-0.019514459
-0.022183822
-0.025007991
-0.027933878
-0.030870426
-0.033684909
-0.036200622
-0.038217795
-0.03954102
-0.040069837
-0.039885156
-0.039454857
-0.039242308
-0.03933717
-0.039705134
-0.040174231
-0.040612813
-0.040920146
-0.041040827
-0.040961289
-0.04072349
-0.040414336
-0.040178646
-0.040222093
-0.04081644
-0.042310558
-0.044976261
-0.048825973
-0.053835802
-0.05964696
-0.065332918
-0.06949387
-0.070618936
-0.067938529
-0.062436091
-0.057288557
-0.054757137
-0.053742335
-0.052353458
-0.050552336
-0.048663797
-0.047296595
-0.046543849
-0.046118515
-0.045801483
-0.045514354
-0.045255744
-0.045022774
-0.044802027
-0.044613044
-0.044529336
-0.044622273
-0.044892826
-0.045244726
-0.04549856
-0.045428513
-0.044805612
-0.04342061
-0.04109239
-0.037628062
-0.032844888
-0.026342235
-0.018050271
-0.0074019396
-0.0019244188
0.0024603459
0.0058940449
0.0087722433
0.01125914
0.013565707
0.015710696
0.017840399
0.020001836
0.022266412
0.024633709
0.027209537
0.030274227
0.033928493
0.038217151
0.043162419
0.048746509
0.054928948
0.061646829
0.068837295
0.076290924
0.083757137
0.09098526
0.097894789
0.10436102
0.11027904
0.1155511
0.12008416
0.12375887
0.12643822
0.12802892
0.12795181
0.12538484
0.11992699
0.11071469
0.096786121
0.076996664
0.050306766
0.017091951
-0.02023295
-0.050203178
-0.067084483
-0.071527196
-0.069414373
-0.060008382
-0.057948805
-0.03108188
-0.0097787415
-0.014160709
-0.011862375
-0.010247262
-0.0046116157
0.0010390918
0.0045648747
0.0063999542
0.0074903883
0.0083532106
0.0091471788
0.0098882894
0.010578407
0.011198451
0.011711462
0.012099951
0.012396255
0.012604753
0.012721435
0.012770838
0.012759993
0.012699125
0.012612306
0.012502857
0.01238443
0.0122551
0.012133206
0.012034499
0.011961513
0.011926615
0.011944611
0.012032897
0.012207621
0.012481409
0.012859265
0.013336801
0.013900035
0.014529285
0.015199183
0.015888523
0.016581434
0.017268213
0.017940541
0.018597791
0.019238018
0.019870185
0.020502839
0.02110177
0.021638556
0.022086839
0.022419967
0.02262214
0.022690314
0.022638159
0.022489207
0.022271667
0.02201236
0.021732732
0.021446371
0.021157434
0.020859596
0.020539144
0.020178279
0.01975737
0.019257283
0.018661212
0.017954825
0.017125414
0.016162337
0.015060115
0.013822201
0.012461888
0.010999257
0.0094573188
0.007859023
0.0062257209
0.0045764517
0.0029262337
0.0012845959
-0.00034566911
-0.0019694399
-0.0035985336
-0.0052506053
-0.0069481939
-0.0087166081
-0.010582588
-0.012573412
-0.014713858
-0.017023903
-0.019515007
-0.022184374
-0.025008513
-0.027934306
-0.030870658
-0.033684798
-0.036199986
-0.038216462
-0.039538901
-0.040067083
-0.039882148
-0.039452134
-0.039240157
-0.039335383
-0.039703484
-0.040172669
-0.040611421
-0.040919018
-0.041040059
-0.040960987
-0.040723759
-0.040415289
-0.0401804
-0.040224724
-0.040819982
-0.042315191
-0.044981761
-0.048831246
-0.053839814
-0.059649003
-0.065332268
-0.069489919
-0.070611707
-0.067929374
-0.062428325
-0.057285756
-0.054757462
-0.053741797
-0.052352278
-0.050552597
-0.048665988
-0.047299867
-0.046547105
-0.046121141
-0.045803422
-0.045515782
-0.045256804
-0.045023449
-0.044802128
-0.044612276
-0.044527414
-0.044619044
-0.044888374
-0.045239396
-0.045492882
-0.045423073
-0.044800949
-0.043417164
-0.041090556
-0.037628216
-0.032847812
-0.02634883
-0.018064812
-0.0074204412
-0.0019339777
0.0024584907
0.005896323
0.0087776012
0.011266856
0.013575428
0.015722338
0.017854265
0.020018116
0.022285292
0.024655646
0.027236485
0.030307882
0.03396933
0.038265426
0.043218022
0.048808913
0.054997328
0.06172018
0.068913711
0.076367703
0.083831751
0.091056382
0.097961538
0.10442228
0.11033388
0.11559862
0.12012328
0.1237882
0.12645606
0.12803159
0.12793238
0.12533831
0.11984869
0.1105986
0.096628154
0.076796823
0.050079347
0.016870617
-0.020381691
-0.050253626
-0.067076093
-0.071503433
-0.069395189
-0.059995134
-0.057947633
-0.031081734
-0.0097776961
-0.014158867
-0.011856806
-0.010245491
-0.0046227926
0.0010216364
0.0045489717
0.006388239
0.0074815178
0.0083451354
0.0091392301
0.0098805004
0.010570958
0.011191666
0.011705779
0.012095503
0.01239283
0.012602318
0.012719916
0.012770023
0.012759801
0.012699379
0.012612833
0.012503557
0.012385238
0.012255986
0.012134014
0.012035118
0.011961866
0.011926582
0.01194405
0.012031672
0.012205637
0.012478648
0.012855819
0.013332862
0.013895839
0.014525076
0.015195195
0.015884956
0.016578424
0.017265854
0.017938882
0.018596852
0.019237784
0.019870498
0.020503065
0.021101781
0.021638326
0.022086351
0.02241925
0.022621275
0.022689399
0.022637286
0.022488445
0.022271062
0.022011932
0.02173247
0.021446242
0.021157386
0.020859567
0.020539067
0.020178092
0.019757022
0.019256737
0.018660447
0.017953834
0.017124213
0.016160973
0.015058658
0.013820721
0.012460441
0.010997886
0.009456054
0.0078578853
0.006224722
0.0045755913
0.0029255008
0.0012839713
-0.00034621008
-0.0019699229
-0.0035989807
-0.005251034
-0.0069486165
-0.008717032
-0.010583018
-0.012573852
-0.014714311
-0.017024373
-0.019515497
-0.02218488
-0.025009015
-0.027934756
-0.030870968
-0.033684838
-0.036199575
-0.038215414
-0.039537081
-0.040064536
-0.039879135
-0.039449216
-0.039237757
-0.039333387
-0.0397017
-0.040171048
-0.040610026
-0.040917931
-0.041039356
-0.040960755
-0.040724087
-0.040416271
-0.040182133
-0.040227261
-0.040823326
-0.042319582
-0.044987084
-0.048836398
-0.053843838
-0.059651393
-0.065332496
-0.069487421
-0.07060618
-0.067921406
-0.062420364
-0.057281859
-0.054757093
-0.053741233
-0.052351255
-0.050552935
-0.04866812
-0.047303063
-0.046550379
-0.046123849
-0.045805444
-0.045517271
-0.045257907
-0.045024151
-0.044802214
-0.044611421
-0.044525323
-0.044615592
-0.044883698
-0.045233899
-0.045487144
-0.04541771
-0.04479651
-0.043414098
-0.041089271
-0.037629139
-0.032851787
-0.026357048
-0.018081625
-0.007442529
-0.0019465305
0.0024540502
0.0058965061
0.0087811783
0.011273052
0.013583837
0.015732861
0.017867209
0.020033691
0.022303696
0.02467737
0.027263609
0.030342204
0.034011369
0.038315461
0.043275912
0.048874112
0.055068957
0.061797158
0.068993981
0.076448378
0.083910157
0.09113114
0.098031713
0.1044867
0.11039158
0.11564864
0.12016447
0.12381912
0.12647489
0.12803449
0.12791209
0.12528954
0.11976665
0.11047713
0.096463344
0.076589415
0.0498457
0.016647989
-0.020522278
-0.050289696
-0.067054731
-0.071471831
-0.069371996
-0.059980881
-0.057945412
-0.03108083
-0.0097766355
-0.014155948
-0.011850628
-0.010243374
-0.0046344652
0.0010036936
0.0045326108
0.0063760384
0.0074721998
0.0083366145
0.0091308261
0.0098722548
0.010563067
0.011184478
0.011699754
0.012090782
0.012389198
0.012599738
0.012718307
0.012769162
0.012759598
0.012699651
0.012613393
0.012504301
0.012386095
0.012256923
0.012134864
0.012035766
0.01196223
0.011926531
0.011943433
0.012030343
0.012203496
0.012475678
0.012852119
0.013328642
0.013891351
0.014520582
0.015190944
0.015881157
0.016575221
0.017263346
0.017937119
0.018595856
0.019237536
0.019870833
0.020503322
0.021101825
0.021638128
0.022085892
0.022418555
0.022620423
0.022688487
0.022636406
0.022487669
0.02227044
0.022011485
0.021732194
0.021446106
0.02115734
0.020859548
0.020539008
0.020177927
0.019756698
0.019256213
0.018659697
0.017952851
0.017123012
0.0161596
0.015057182
0.013819212
0.012458956
0.010996469
0.0094547382
0.0078566932
0.0062236672
0.0045746762
0.0029247167
0.0012833016
-0.00034678798
-0.0019704324
-0.003599442
-0.0052514635
-0.0069490255
-0.0087174278
-0.010583406
-0.012574237
-0.0147147
-0.017024773
-0.01951592
-0.022185335
-0.025009496
-0.027935233
-0.030871374
-0.033685054
-0.036199429
-0.0382147
-0.039535608
-0.04006223
-0.039876114
-0.039446076
-0.039235067
-0.039331144
-0.039699757
-0.040169353
-0.040608626
-0.040916888
-0.041038728
-0.040960608
-0.040724494
-0.040417308
-0.040183873
-0.040229739
-0.040826511
-0.042323775
-0.044992322
-0.048841556
-0.053848012
-0.059654295
-0.065333829
-0.069486705
-0.070602776
-0.067915055
-0.062412357
-0.05727676
-0.054755917
-0.053740624
-0.052350422
-0.050553394
-0.048670223
-0.047306215
-0.04655371
-0.046126674
-0.045807576
-0.045518839
-0.045259067
-0.045024887
-0.044802286
-0.044610465
-0.044523033
-0.044611879
-0.044878765
-0.045228223
-0.045481361
-0.045412468
-0.044792371
-0.043411517
-0.041088671
-0.037631012
-0.032857058
-0.02636734
-0.018101551
-0.0074699901
-0.0019635653
0.002445776
0.0058935124
0.0087820193
0.011276875
0.013590161
0.015741567
0.017878611
0.020048017
0.022321162
0.024698525
0.027290696
0.030377146
0.034054728
0.038367535
0.043336545
0.048942714
0.055144579
0.061878619
0.069079016
0.076533863
0.083993232
0.091210372
0.098106103
0.104555
0.11045278
0.11570171
0.12020821
0.12385194
0.12649488
0.12803761
0.12789063
0.12523791
0.11967987
0.11034891
0.096289986
0.076372699
0.049604692
0.01642469
-0.020650873
-0.050305385
-0.067014733
-0.071428619
-0.069342778
-0.059965031
-0.057941813
-0.031079126
-0.0097755193
-0.014151596
-0.011843586
-0.01024064
-0.0046465928
0.00098526614
0.0045158648
0.0063633805
0.0074624379
0.0083276387
0.0091219515
0.0098635331
0.010554712
0.011176864
0.011693368
0.012085776
0.012385351
0.01259701
0.012716609
0.01276826
0.012759394
0.012699949
0.012613995
0.012505096
0.012387007
0.012257914
0.012135759
0.012036445
0.011962601
0.011926457
0.011942752
0.012028898
0.012201182
0.012472479
0.012848144
0.013324117
0.013886549
0.014515785
0.015186414
0.015877113
0.016571813
0.01726068
0.017935248
0.018594799
0.019237275
0.019871192
0.020503611
0.021101906
0.021637967
0.022085465
0.022417887
0.022619588
0.02268758
0.02263552
0.022486879
0.022269798
0.022011018
0.021731902
0.021445961
0.021157296
0.020859543
0.020538971
0.020177792
0.019756406
0.019255719
0.018658973
0.017951886
0.017121818
0.016158225
0.015055693
0.013817677
0.012457435
0.010995007
0.0094533694
0.0078554433
0.0062225525
0.0045737017
0.002923877
0.0012825826
-0.00034740547
-0.0019709692
-0.0035999162
-0.0052518899
-0.0069494147
-0.0087177866
-0.01058374
-0.012574553
-0.014715007
-0.017025087
-0.019516261
-0.022185725
-0.025009949
-0.02793574
-0.030871891
-0.033685484
-0.036199605
-0.038214397
-0.039534576
-0.040060247
-0.039873137
-0.039442715
-0.039232063
-0.039328635
-0.039697647
-0.04016759
-0.040607236
-0.040915913
-0.041038202
-0.040960576
-0.040725008
-0.040418424
-0.040185642
-0.040232176
-0.040829553
-0.042327773
-0.044997536
-0.048846829
-0.053852473
-0.059657906
-0.065336578
-0.069488258
-0.070602159
-0.067911047
-0.062404643
-0.057270402
-0.054753787
-0.053739955
-0.052349844
-0.050554033
-0.048672318
-0.047309327
-0.046557106
-0.046129629
-0.045809828
-0.045520493
-0.045260286
-0.045025657
-0.04480234
-0.044609396
-0.044520531
-0.044607902
-0.044873601
-0.045222434
-0.045475644
-0.045407497
-0.04478871
-0.04340962
-0.041088972
-0.037634083
-0.032863926
-0.026380227
-0.018125476
-0.0075046973
-0.0019867414
0.0024321767
0.0058859849
0.0087788755
0.011277168
0.01359331
0.015747441
0.017887516
0.020060213
0.022336882
0.024718395
0.027317158
0.030412246
0.034099068
0.038421427
0.043399817
0.049014724
0.055224293
0.061964735
0.06916902
0.076624363
0.084081164
0.091294264
0.098184881
0.10462735
0.11051762
0.11575796
0.12025457
0.12388672
0.12651605
0.12804087
0.12786786
0.12518318
0.11958803
0.11021359
0.096107862
0.076146856
0.049357462
0.016203658
-0.020761887
-0.05029369
-0.066949824
-0.07136959
-0.069305227
-0.059946949
-0.057936389
-0.031076583
-0.0097743069
-0.014145344
-0.011835391
-0.010236943
-0.0046591232
0.00096630136
0.0044988222
0.0063503086
0.0074522447
0.0083182042
0.0091125944
0.0098543185
0.010545875
0.011168806
0.011686607
0.012080473
0.01238128
0.01259413
0.012714825
0.012767323
0.012759197
0.012700282
0.012614648
0.012505948
0.01238798
0.012258963
0.012136702
0.012037153
0.011962979
0.011926355
0.011941997
0.012027325
0.012198677
0.012469029
0.012843868
0.013319262
0.01388141
0.014510664
0.015181588
0.015872809
0.016568191
0.017257848
0.017933264
0.018593681
0.019236999
0.019871577
0.020503937
0.021102029
0.021637849
0.022085078
0.022417251
0.022618775
0.022686683
0.02263463
0.022486073
0.022269134
0.022010528
0.02173159
0.021445806
0.021157254
0.020859553
0.020538963
0.020177694
0.019756156
0.019255267
0.018658286
0.01795095
0.017120645
0.016156858
0.015054198
0.013816123
0.01245588
0.010993499
0.0094519458
0.0078541321
0.0062213729
0.0045726623
0.0029229761
0.0012818099
-0.00034806576
-0.0019715343
-0.0036004019
-0.0052523089
-0.0069497765
-0.0087180977
-0.010584007
-0.012574784
-0.014715215
-0.017025295
-0.0195165
-0.022186034
-0.025010365
-0.027936279
-0.030872539
-0.033686169
-0.036200172
-0.038214602
-0.039534097
-0.040058693
-0.039870275
-0.039439156
-0.039228731
-0.039325842
-0.039695366
-0.040165773
-0.040605881
-0.040915039
-0.041037815
-0.040960693
-0.040725663
-0.04041965
-0.040187467
-0.040234599
-0.040832484
-0.042331583
-0.045002811
-0.048852366
-0.053857401
-0.059662466
-0.065341113
-0.069492664
-0.070605149
-0.06791034
-0.06239772
-0.057262805
-0.054750536
-0.053739209
-0.052349607
-0.050554932
-0.048674435
-0.047312407
-0.046560578
-0.046132727
-0.045812211
-0.045522239
-0.045261566
-0.04502646
-0.044802367
-0.044608202
-0.044517806
-0.044603674
-0.044868261
-0.045216644
-0.045470163
-0.045403018
-0.044785781
-0.043408681
-0.041090461
-0.037638672
-0.032872777
-0.026396353
-0.018154446
-0.0075487652
-0.002017964
0.0024115015
0.0058723069
0.0087702423
0.011272525
0.013591956
0.015749235
0.017892758
0.020069194
0.022349862
0.024736104
0.027342271
0.030446929
0.034143954
0.038476849
0.043465575
0.049090111
0.055308172
0.062055663
0.069264183
0.076720064
0.084174127
0.091382982
0.098268203
0.10470389
0.11058623
0.11581749
0.12030364
0.12392351
0.12653838
0.12804422
0.12784366
0.12512512
0.11949085
0.11007088
0.095916797
0.075912146
0.049105256
0.015987931
-0.020849689
-0.050247478
-0.066853315
-0.071289989
-0.069256558
-0.059925825
-0.057928531
-0.031073201
-0.0097729358
-0.014136596
-0.011825688
-0.010231832
-0.0046719794
0.00094666093
0.0044815748
0.0063368708
0.0074416341
0.0083083059
0.0091027395
0.0098445894
0.01053653
0.01116028
0.011679447
0.012074856
0.012376974
0.012591095
0.012712953
0.012766352
0.01275901
0.012700656
0.012615357
0.012506866
0.01238902
0.012260076
0.012137693
0.01203789
0.01196336
0.011926219
0.011941159
0.012025608
0.012195962
0.012465304
0.012839263
0.013314046
0.013875902
0.014505194
0.015176444
0.015868229
0.016564341
0.017254842
0.017931161
0.018592498
0.01923671
0.019871989
0.020504302
0.021102201
0.021637782
0.022084738
0.022416656
0.022617989
0.022685796
0.022633736
0.022485251
0.022268445
0.02201001
0.021731255
0.021445638
0.021157213
0.020859581
0.020538988
0.020177642
0.019755961
0.019254872
0.018657652
0.017950059
0.017119505
0.016155509
0.015052706
0.013814553
0.012454293
0.010991944
0.009450464
0.0078527545
0.0062201219
0.0045715509
0.0029220071
0.0012809773
-0.00034877304
-0.0019721296
-0.0036008976
-0.0052527158
-0.0069501028
-0.0087183493
-0.010584191
-0.012574911
-0.014715303
-0.017025374
-0.019516616
-0.022186244
-0.025010732
-0.027936853
-0.030873339
-0.033687155
-0.036201206
-0.038215421
-0.039534301
-0.040057693
-0.039867625
-0.039435439
-0.039225067
-0.039322759
-0.039692919
-0.040163921
-0.040604594
-0.040914306
-0.041037612
-0.040961008
-0.040726507
-0.040421034
-0.040189394
-0.040237057
-0.04083537
-0.042335232
-0.045008273
-0.048858374
-0.053863029
-0.059668265
-0.065347865
-0.069500593
-0.070612708
-0.067914106
-0.062392267
-0.057254105
-0.05474599
-0.053738377
-0.052349819
-0.050556199
-0.048676625
-0.047315475
-0.046564149
-0.046135989
-0.045814737
-0.045524082
-0.045262907
-0.045027291
-0.044802358
-0.044606866
-0.044514851
-0.044599221
-0.044862834
-0.04521102
-0.045465161
-0.045399327
-0.044783914
-0.043409047
-0.041093498
-0.037645176
-0.032884084
-0.02641649
-0.018189676
-0.0076045698
-0.0020594114
0.0023817162
0.0058505769
0.0087543355
0.011261269
0.01358451
0.015745457
0.017892939
0.020073667
0.02235892
0.024750621
0.027365194
0.030480532
0.034188911
0.038533493
0.043533667
0.049168864
0.055396328
0.062151604
0.069364744
0.076821209
0.084272343
0.091476748
0.098356278
0.10478481
0.11065879
0.11588046
0.12035555
0.12396236
0.12656188
0.12804757
0.12781782
0.12506343
0.11938794
0.10992035
0.095716485
0.075668674
0.048849138
0.015780309
-0.020909004
-0.050159805
-0.066718287
-0.071184558
-0.069193483
-0.059900596
-0.057917433
-0.031068996
-0.0097713256
-0.014124619
-0.011814037
-0.010224721
-0.0046850152
0.00092620509
0.0044642194
0.0063231266
0.0074306271
0.0082979417
0.0090923718
0.0098343229
0.010526651
0.011151259
0.011671867
0.012068905
0.012372421
0.012587896
0.012710991
0.012765351
0.01275884
0.012701077
0.012616129
0.012507853
0.012390132
0.012261255
0.012138736
0.012038657
0.011963741
0.011926042
0.011940227
0.01202373
0.012193014
0.012461272
0.012834293
0.013308431
0.013869991
0.014499343
0.01517096
0.015863357
0.016560251
0.017251652
0.017928934
0.01859125
0.019236408
0.01987243
0.020504713
0.021102426
0.021637772
0.022084453
0.022416105
0.022617234
0.022684922
0.022632835
0.022484407
0.022267724
0.022009458
0.021730891
0.021445453
0.021157172
0.02085963
0.020539053
0.020177647
0.019755833
0.019254549
0.018657087
0.01794923
0.017118413
0.016154193
0.015051224
0.013812973
0.012452674
0.010990341
0.0094489196
0.0078513041
0.0062187917
0.0045703588
0.0029209618
0.0012800778
-0.00034953231
-0.0019727571
-0.0036014021
-0.0052531056
-0.0069503845
-0.0087185285
-0.010584275
-0.012574914
-0.014715249
-0.0170253
-0.019516583
-0.022186334
-0.025011038
-0.027937463
-0.030874315
-0.033688494
-0.036202793
-0.038216975
-0.039535336
-0.040057393
-0.039865308
-0.039431632
-0.039221081
-0.039319387
-0.039690321
-0.040162067
-0.040603419
-0.040913768
-0.041037648
-0.040961577
-0.040727598
-0.040422634
-0.040191486
-0.04023962
-0.040838314
-0.042338768
-0.045014089
-0.048865129
-0.053869654
-0.059675651
-0.065357321
-0.069512796
-0.070625938
-0.067923743
-0.062389186
-0.057244597
-0.05473997
-0.053737458
-0.052350613
-0.050557964
-0.048678951
-0.047318567
-0.046567851
-0.046139442
-0.045817426
-0.045526031
-0.045264311
-0.045028142
-0.044802297
-0.044605371
-0.044511668
-0.044594598
-0.044857459
-0.0452058
-0.045460966
-0.045396821
-0.044783538
-0.043411159
-0.041098528
-0.037654073
-0.032898417
-0.026441539
-0.018232555
-0.0076747349
-0.0021135433
0.0023404818
0.0058185792
0.0087290574
0.011241419
0.013569087
0.015734338
0.017886402
0.0200721
0.022362666
0.024760737
0.027384954
0.030512292
0.034233377
0.038591
0.043603915
0.049250967
0.055488876
0.062252772
0.069470957
0.076928047
0.084376046
0.091575789
0.098449317
0.1048703
0.11073545
0.115947
0.12041038
0.12400331
0.12658654
0.12805083
0.12779016
0.12499779
0.11927886
0.10976154
0.09550654
0.075416467
0.048590046
0.015583298
-0.020935067
-0.05002418
-0.066537861
-0.071047664
-0.06911223
-0.059869912
-0.057902053
-0.031064003
-0.0097693574
-0.014108465
-0.011799905
-0.010214882
-0.0046979979
0.00090485589
0.004446834
0.0063091506
0.0074192536
0.0082871144
0.0090814783
0.0098234966
0.010516211
0.011141714
0.011663839
0.0120626
0.012367605
0.012584524
0.012708934
0.012764318
0.012758687
0.012701548
0.012616969
0.012508914
0.012391318
0.012262504
0.012139831
0.012039452
0.011964119
0.011925818
0.011939188
0.012021675
0.012189807
0.012456902
0.01282892
0.013302377
0.013863637
0.014493074
0.015165109
0.015858171
0.016555906
0.01724827
0.017926579
0.018589935
0.019236095
0.019872904
0.020505174
0.021102713
0.021637827
0.022084228
0.022415605
0.022616511
0.022684059
0.022631925
0.022483536
0.022266965
0.022008863
0.02173049
0.021445245
0.021157129
0.020859702
0.020539166
0.020177719
0.019755788
0.019254318
0.018656613
0.017948482
0.017117389
0.016152922
0.015049763
0.013811387
0.012451025
0.010988686
0.0094473072
0.0078497732
0.0062173728
0.004569076
0.0029198303
0.0012791031
-0.00035034948
-0.0019734194
-0.0036019141
-0.0052534727
-0.0069506116
-0.0087186208
-0.010584241
-0.01257477
-0.014715024
-0.017025046
-0.019516375
-0.02218628
-0.025011269
-0.02793811
-0.030875491
-0.033690242
-0.036205026
-0.038219397
-0.039537371
-0.040057967
-0.039863485
-0.039427834
-0.039216805
-0.039315747
-0.039687602
-0.040160255
-0.040602414
-0.040913489
-0.041037994
-0.040962474
-0.04072901
-0.040424529
-0.040193824
-0.040242379
-0.040841456
-0.042342285
-0.04502044
-0.048872966
-0.053877633
-0.059685021
-0.065370021
-0.069530092
-0.070646074
-0.067940856
-0.062389645
-0.057234794
-0.0547323
-0.053736469
-0.05235215
-0.050560379
-0.048681492
-0.04732173
-0.046571729
-0.046143122
-0.045820299
-0.045528097
-0.045265775
-0.045029002
-0.044802164
-0.044603701
-0.044508273
-0.044589899
-0.044852346
-0.045201322
-0.045458025
-0.045396012
-0.044785193
-0.043415556
-0.041106087
-0.037665937
-0.032916452
-0.026472529
-0.018284637
-0.0077621191
-0.0021831054
0.0022851377
0.0057737612
0.0086919709
0.011210661
0.013543482
0.015713804
0.017871208
0.020062708
0.022359481
0.024765058
0.027400415
0.03054134
0.034276724
0.038648966
0.043676115
0.049336389
0.055585931
0.062359382
0.069583075
0.077040828
0.084485472
0.091680334
0.098547537
0.10496057
0.11081641
0.11601726
0.12046826
0.12404639
0.12661232
0.12805387
0.12776041
0.12492781
0.11916313
0.10959389
0.09528653
0.075155454
0.048328733
0.015399028
-0.020923833
-0.049834869
-0.066305476
-0.070873492
-0.069008605
-0.0598321
-0.057881075
-0.031058287
-0.0097668793
-0.014086975
-0.011782641
-0.010201419
-0.0047106225
0.00088254177
0.0044294511
0.0062950331
0.007407554
0.0082758326
0.0090700484
0.0098120882
0.010505181
0.011131615
0.011655338
0.012055918
0.012362509
0.012580968
0.012706778
0.012763251
0.012758553
0.012702072
0.012617877
0.012510052
0.012392582
0.012263822
0.012140977
0.012040273
0.01196449
0.011925539
0.011938031
0.01201942
0.012186312
0.012452156
0.012823099
0.013295835
0.013856793
0.014486347
0.015158859
0.015852653
0.016551294
0.017244688
0.0179241
0.018588553
0.019235772
0.019873412
0.020505692
0.021103067
0.021637953
0.022084071
0.02241516
0.022615823
0.022683206
0.022630999
0.022482629
0.022266158
0.022008215
0.021730042
0.021445008
0.021157083
0.020859799
0.020539335
0.020177875
0.019755847
0.019254201
0.018656252
0.017947839
0.017116452
0.016151714
0.015048335
0.013809801
0.012449347
0.010986977
0.0094456206
0.007848153
0.0062158546
0.0045676909
0.0029186015
0.0012780435
-0.0003512315
-0.0019741197
-0.0036024325
-0.005253811
-0.0069507731
-0.0087186098
-0.010584068
-0.012574452
-0.0147146
-0.017024578
-0.019515961
-0.022186057
-0.025011407
-0.027938796
-0.030876895
-0.03369246
-0.036208009
-0.038222837
-0.039540592
-0.040059613
-0.039862353
-0.039424186
-0.039212301
-0.039311884
-0.039684811
-0.040158551
-0.040601652
-0.04091355
-0.041038733
-0.040963785
-0.040730835
-0.040426812
-0.04019651
-0.040245453
-0.040844954
-0.042345939
-0.045027552
-0.048882264
-0.053887381
-0.059696824
-0.065386553
-0.069553356
-0.070674461
-0.067967231
-0.062395133
-0.057225492
-0.054722822
-0.053735456
-0.052354625
-0.050563619
-0.048684338
-0.047325022
-0.046575843
-0.046147079
-0.045823386
-0.04553029
-0.045267295
-0.045029853
-0.044801936
-0.044601839
-0.044504704
-0.044585272
-0.044847796
-0.045198047