/*--------------------------------*- C++ -*----------------------------------*\
| =========                 |                                                 |
| \\      /  F ield         | OpenFOAM: The Open Source CFD Toolbox           |
|  \\    /   O peration     | Version:  2.4.0                                 |
|   \\  /    A nd           | Web:      www.OpenFOAM.org                      |
|    \\/     M anipulation  |                                                 |
\*---------------------------------------------------------------------------*/
FoamFile
{
    version     2.0;
    format      ascii;
    class       volScalarField;
    location    "20000";
    object      nut;
}
// * * * * * * * * * * * * * * * * * * * * * * * * * * * * * * * * * * * * * //

dimensions      [0 2 -1 0 0 0 0];

internalField   nonuniform List<scalar> 
9793
(
0.016033719
0.016028509
0.016029972
0.016039152
0.016057169
0.016113565
0.016118861
0.016131306
0.016151908
0.016181748
0.01622189
0.016273453
0.0163377
0.016416448
0.016511454
0.016624178
0.016755814
0.016908132
0.017083305
0.017283484
0.017510858
0.017767617
0.018055906
0.018377775
0.018735143
0.019129355
0.019559885
0.020027603
0.020533627
0.02108113
0.02167305
0.022313009
0.02301252
0.023805346
0.024409418
0.024451114
0.024487678
0.024519334
0.02454628
0.02456896
0.024587839
0.024602504
0.016321041
0.016302085
0.016283959
0.016267109
0.016252016
0.01623923
0.016229001
0.016222054
0.016219396
0.016221906
0.016230413
0.016245807
0.016268831
0.016300435
0.016341631
0.01639342
0.016456844
0.016533087
0.016623876
0.01673086
0.016855398
0.016998552
0.017161962
0.017347655
0.017557596
0.017793766
0.018058122
0.018352568
0.018678917
0.019038881
0.01943365
0.01986267
0.020326921
0.020827691
0.021368648
0.021952392
0.022580576
0.023281019
0.024086658
0.024452052
0.024487979
0.024518995
0.024545395
0.024567451
0.024585698
0.024600757
0.024612445
0.016423378
0.016406093
0.016390632
0.016377421
0.016366854
0.016359454
0.01635543
0.016355478
0.01636054
0.016371471
0.016389006
0.016413938
0.016446922
0.016488824
0.016540561
0.016603041
0.016677213
0.016764166
0.016865531
0.016982846
0.017117371
0.017270051
0.0174424
0.017636318
0.017853618
0.018096109
0.018365568
0.01866372
0.018992221
0.019352656
0.019746148
0.020172171
0.020631811
0.021126657
0.021661285
0.022237525
0.022854557
0.023558575
0.024392143
0.024483178
0.024512858
0.024537849
0.024558493
0.024575133
0.024588413
0.024599127
0.024607343
0.016644053
0.016619758
0.016598147
0.016578961
0.016562445
0.016548834
0.016538447
0.01653166
0.016528957
0.016530487
0.016536882
0.016548988
0.016567617
0.016593383
0.016626939
0.01666882
0.016719789
0.016780645
0.016852198
0.016935307
0.017030976
0.017140756
0.0172661
0.017408194
0.017567886
0.017746596
0.017946134
0.018168202
0.01841448
0.018686624
0.018986239
0.019314884
0.019674084
0.020064935
0.020486962
0.020941403
0.021430351
0.021959158
0.022529518
0.023150893
0.02386642
0.024473251
0.024500784
0.02452361
0.024541949
0.024556185
0.024566747
0.024574406
0.02458015
0.024584329
0.016863314
0.016835666
0.016811801
0.016791499
0.01677492
0.016762359
0.016754063
0.016750349
0.01675162
0.016757921
0.016769765
0.016787894
0.016813025
0.016845593
0.016886115
0.016935004
0.016992919
0.017060577
0.017138714
0.017228131
0.017329785
0.017445189
0.017575749
0.017722617
0.017886575
0.018068986
0.018271601
0.018496047
0.018743924
0.019016795
0.019316189
0.019643601
0.020000524
0.020388041
0.020805746
0.021255218
0.021739421
0.022263864
0.02283139
0.02347457
0.024228259
0.024482305
0.024502098
0.024517295
0.024528172
0.024535178
0.024538856
0.024540123
0.024540188
0.024539708
0.024539778
0.024540918
0.024543263
0.017137892
0.017107499
0.017081897
0.01706074
0.017044204
0.017032561
0.017025984
0.017024697
0.017028999
0.017038796
0.017054441
0.017076712
0.017106043
0.017142832
0.017187485
0.017240347
0.017302037
0.017373235
0.017454675
0.017547159
0.017651647
0.017769657
0.017902587
0.018051574
0.018217357
0.018401252
0.01860497
0.01883008
0.019078112
0.019350553
0.019648857
0.019974469
0.020328862
0.020713154
0.021127187
0.021573402
0.02205605
0.022582233
0.023167907
0.023850719
0.024456127
0.02447206
0.024483185
0.024489795
0.024492238
0.024491055
0.024486927
0.024480947
0.024474572
0.024468789
0.024464802
0.024463115
0.024463772
0.01745919
0.017428268
0.017402315
0.01738153
0.017365821
0.01735533
0.017350122
0.017350324
0.017356144
0.017367391
0.017384348
0.017407773
0.017438068
0.017475674
0.017520956
0.017574295
0.017636363
0.017707892
0.017789661
0.017882512
0.017987438
0.018105977
0.018239521
0.018389199
0.01855569
0.01874025
0.018944532
0.019170032
0.019418195
0.019690419
0.019988073
0.020312568
0.020665466
0.021048215
0.021461521
0.021909729
0.022399444
0.022943399
0.023578201
0.024304315
0.024431494
0.024437515
0.024438793
0.024435657
0.024428536
0.02441809
0.024405166
0.024391052
0.024377476
0.024365777
0.024357259
0.024352391
0.024351102
0.018162377
0.018104456
0.018041688
0.017980113
0.017924903
0.017876458
0.0178338
0.017796099
0.017763758
0.017736617
0.017714653
0.017697762
0.017686014
0.017679421
0.017678083
0.01768221
0.017691604
0.017706694
0.017728053
0.017756353
0.017792051
0.01783566
0.017887622
0.017948681
0.01801959
0.018101166
0.01819427
0.018299888
0.018419551
0.018554618
0.018706174
0.018874805
0.019061665
0.019268312
0.019496138
0.019746485
0.020020664
0.020320002
0.020646016
0.021000833
0.021387212
0.021807802
0.022270316
0.022787813
0.023388013
0.024070497
0.024377316
0.024377049
0.024371843
0.024361947
0.024347783
0.024329902
0.024309105
0.024286422
0.02426335
0.024241895
0.024223758
0.02421033
0.024202022
0.024198621
0.018502146
0.018443381
0.018378121
0.018312777
0.018252304
0.01819838
0.018150179
0.018107271
0.01806952
0.018036981
0.018009564
0.017987257
0.017970214
0.017958531
0.017952398
0.01795212
0.017957484
0.017969203
0.017987761
0.018013955
0.018048252
0.018091278
0.018143407
0.018205385
0.018277962
0.018361912
0.018458044
0.018567298
0.018691117
0.018830779
0.018987297
0.019161146
0.01935337
0.019565431
0.019798619
0.020054238
0.02033364
0.020638404
0.020970708
0.021334647
0.021736331
0.022181519
0.022683934
0.023265984
0.023921674
0.024306099
0.024298413
0.024285625
0.024267939
0.024245724
0.024219509
0.024189974
0.024158065
0.024124995
0.024092463
0.02406275
0.024037917
0.024019421
0.024007592
0.024002057
0.01899766
0.01893276
0.018868074
0.0188064
0.018746287
0.018680388
0.018613756
0.018549849
0.018492082
0.018439612
0.018391179
0.018347571
0.018309094
0.018275882
0.018248109
0.018226092
0.018210054
0.018200304
0.018197386
0.018201065
0.01821172
0.018230153
0.018257241
0.018293272
0.018338721
0.018394059
0.018460001
0.018537179
0.018626319
0.018728145
0.018843576
0.018973944
0.019120422
0.019283913
0.019464843
0.019664198
0.019883421
0.020123823
0.020386937
0.02067467
0.020989836
0.021336596
0.02172345
0.022161675
0.022660371
0.023236873
0.023868631
0.024216567
0.024200724
0.024179695
0.024153642
0.024122901
0.024087932
0.024049356
0.024007974
0.023964861
0.023921395
0.023879462
0.0238416
0.023810207
0.023786792
0.023771589
0.023764053
0.01928453
0.019217381
0.019150339
0.019085818
0.019023632
0.018956464
0.01888889
0.018823339
0.018764212
0.018710564
0.018661113
0.01861621
0.01857636
0.018541885
0.018513104
0.01849045
0.018474246
0.01846485
0.018462677
0.018467877
0.018480646
0.018501702
0.018531874
0.018571661
0.018621416
0.018681621
0.0187529
0.018835907
0.018931312
0.019039805
0.019162176
0.01929971
0.019453485
0.019624344
0.019812707
0.020019663
0.020246864
0.020496044
0.020769785
0.021071768
0.021408229
0.021786893
0.022221542
0.022726453
0.023298256
0.023902537
0.024108292
0.024084009
0.024054508
0.024019937
0.023980597
0.0239369
0.023889374
0.023838721
0.023785841
0.02373192
0.023678483
0.023627581
0.023581984
0.023544406
0.023516392
0.023498076
0.023488745
0.019573367
0.019502536
0.019432106
0.019364385
0.01929948
0.019229941
0.019160212
0.019092562
0.019031979
0.018977505
0.018928181
0.018884028
0.018845373
0.018812458
0.018785573
0.018765149
0.018751529
0.018745084
0.018746081
0.018754745
0.018771572
0.018797099
0.018832058
0.018877111
0.018932631
0.01899895
0.019076618
0.019166356
0.019268799
0.019384598
0.019514469
0.019659679
0.01982125
0.020000109
0.020196902
0.020413217
0.020651624
0.020915144
0.021209232
0.02154095
0.0219215
0.022360249
0.022862301
0.023419418
0.023990719
0.023979793
0.02394703
0.023909089
0.0238661
0.023818325
0.023766121
0.023709956
0.023650414
0.02358826
0.02352448
0.023460355
0.02339754
0.023338234
0.023285417
0.023242095
0.023209843
0.023188693
0.023177773
0.019885298
0.019809753
0.019734774
0.019662713
0.019593854
0.019520641
0.01944763
0.019377055
0.019314427
0.019258749
0.019209093
0.01916541
0.019127936
0.019096841
0.019072358
0.019054879
0.019044717
0.019042237
0.019047827
0.019061463
0.019083649
0.019115079
0.019156538
0.019208462
0.019271181
0.019344962
0.01943038
0.019528079
0.019638682
0.019762768
0.019901166
0.020055287
0.020226233
0.020415388
0.020624269
0.020855861
0.021115184
0.02140745
0.021742147
0.022128801
0.022577822
0.023073442
0.023590382
0.02386564
0.023829777
0.023788789
0.023742723
0.023691666
0.02363584
0.023575552
0.023511206
0.02344331
0.0233725
0.023299593
0.02322565
0.023152035
0.02308052
0.023013435
0.022953953
0.022905351
0.022869225
0.022845514
0.022833193
0.020238048
0.020156859
0.020076332
0.019998923
0.019925039
0.019846941
0.019769514
0.019695057
0.019629598
0.019571915
0.019521306
0.019477601
0.019440979
0.019411546
0.019389475
0.019375114
0.01936874
0.019370688
0.019381324
0.019400526
0.019428745
0.019466686
0.019515154
0.019574535
0.019645065
0.019726884
0.019820566
0.019926866
0.020046471
0.020179929
0.020328435
0.020494008
0.02067805
0.020883507
0.021113991
0.02137441
0.021672881
0.022016395
0.022414495
0.022849904
0.023315713
0.023740593
0.023700867
0.02365706
0.023608466
0.023554889
0.023496366
0.023433078
0.0233653
0.023293383
0.023217768
0.023139005
0.023057773
0.022974935
0.022891621
0.022809269
0.022729756
0.022655533
0.022589946
0.022536522
0.022496874
0.022470854
0.0224573
0.020643629
0.020556217
0.020469505
0.020386094
0.020306492
0.020222728
0.020140147
0.020061174
0.019992219
0.01993218
0.019880093
0.019835879
0.019799684
0.019771558
0.01975162
0.019740171
0.019737452
0.019743765
0.019759412
0.019784145
0.019818329
0.019862662
0.019918011
0.019984795
0.020063193
0.020153164
0.020255375
0.020371055
0.020501184
0.02064626
0.020808751
0.020992332
0.021198518
0.021432858
0.021701477
0.022010341
0.022363466
0.022745504
0.023153328
0.02356146
0.023560205
0.023513082
0.023461587
0.023405762
0.023345329
0.023280103
0.023210111
0.023135575
0.023056812
0.022974211
0.02288825
0.022799515
0.022708726
0.02261679
0.0225249
0.022434558
0.022347743
0.02226701
0.022195862
0.022138055
0.022095219
0.022067122
0.022052477
0.021109949
0.021015817
0.020922406
0.020832487
0.020746675
0.020656733
0.020568526
0.020484663
0.020411818
0.020348927
0.02029493
0.020249748
0.020213498
0.020186184
0.020167875
0.020158827
0.020159247
0.020169413
0.020189558
0.020219264
0.020258803
0.020308969
0.020370834
0.02044502
0.020531707
0.020630502
0.020742577
0.020870573
0.021015996
0.021178843
0.021363803
0.021576707
0.02181933
0.022098851
0.022408282
0.02273748
0.023087494
0.023435247
0.02340723
0.023356497
0.023301911
0.023243492
0.023180968
0.023114208
0.02304299
0.022967125
0.022886659
0.022801853
0.022713059
0.022620705
0.0225253
0.022427468
0.022327965
0.022227742
0.022128046
0.022030439
0.021936992
0.021850357
0.021774167
0.021712393
0.021666678
0.021636714
0.021621102
0.021640337
0.021539566
0.021439535
0.021343116
0.021250998
0.021154656
0.021060499
0.020971373
0.020893793
0.020827375
0.02077078
0.020723938
0.020686943
0.020659747
0.020642356
0.020634971
0.020637772
0.020651051
0.020675006
0.02070898
0.020753294
0.020809183
0.020878148
0.020961225
0.021058638
0.021169221
0.021295297
0.021441575
0.021610247
0.021801182
0.022020231
0.022265397
0.02252986
0.022807119
0.023097542
0.023293435
0.023241673
0.023187269
0.023129379
0.02306812
0.023003242
0.022934616
0.02286205
0.022785372
0.022704365
0.022618833
0.022528843
0.022434696
0.022336781
0.022235561
0.022131575
0.02202548
0.021918074
0.021810342
0.021703574
0.021599398
0.021499966
0.021408005
0.021327265
0.021261907
0.0212136
0.021181963
0.021165493
0.022224882
0.022120871
0.022016945
0.021915937
0.0218187
0.021716595
0.021616542
0.021521395
0.021438908
0.021368198
0.021308367
0.021259284
0.021220924
0.021193147
0.021175904
0.021169376
0.021173807
0.021189679
0.021217302
0.021255667
0.021305432
0.021368465
0.021446673
0.021541513
0.021653596
0.021781987
0.02193038
0.022098702
0.022287214
0.022489465
0.022699854
0.022926503
0.023155034
0.023119287
0.02306356
0.023005303
0.022944013
0.022879787
0.022812361
0.02274163
0.022667419
0.022589569
0.022507903
0.022422237
0.022332357
0.022238061
0.022139436
0.02203682
0.021930643
0.021821401
0.021709648
0.021596087
0.021481557
0.021367058
0.021253917
0.021143845
0.021039048
0.020942304
0.020857462
0.020788872
0.020738243
0.020705111
0.020687878
0.022817133
0.022721365
0.022622407
0.022523383
0.022425947
0.022321748
0.022218423
0.022119825
0.022034691
0.021961582
0.021899773
0.021849078
0.021809442
0.021780772
0.021763115
0.021756798
0.021762317
0.021780669
0.021812752
0.021857921
0.021917534
0.021991199
0.022080145
0.022185153
0.022306189
0.022440003
0.022582411
0.022734168
0.022899412
0.023045729
0.022990313
0.022932775
0.022873124
0.022810816
0.022746034
0.022678687
0.022608554
0.022535535
0.022459457
0.022380173
0.022297519
0.02221133
0.022121428
0.02202763
0.021929726
0.021827511
0.021721082
0.021610821
0.021497203
0.021380743
0.02126199
0.021141741
0.021020842
0.020900273
0.02078142
0.020666124
0.020556543
0.020455496
0.020366949
0.020295451
0.020242779
0.020208308
0.020190397
0.023275891
0.023205686
0.023130958
0.023054305
0.022977338
0.022890981
0.022802115
0.022713973
0.02263663
0.022568919
0.02251027
0.022461202
0.022422413
0.022394347
0.02237738
0.022372004
0.022378763
0.022398626
0.022432255
0.022478446
0.022535551
0.022603094
0.022680252
0.022766383
0.02286556
0.022962038
0.022908649
0.022852702
0.022794339
0.022733522
0.022669921
0.022603922
0.022535696
0.022465119
0.022392142
0.022316659
0.022238513
0.022157572
0.022073674
0.021986666
0.021896387
0.021802675
0.021705341
0.02160421
0.021499087
0.021389755
0.021276302
0.021159194
0.021038935
0.020916015
0.020790983
0.020664838
0.020538288
0.02041227
0.02028836
0.02016854
0.020054647
0.019949685
0.019857785
0.019783714
0.019729096
0.01969343
0.019675049
0.023169821
0.023177302
0.023184425
0.023189226
0.023155868
0.023096974
0.023043565
0.022996381
0.022956038
0.022923548
0.022899579
0.02288456
0.022878788
0.022882204
0.022895135
0.022919599
0.022944884
0.022902576
0.022856896
0.022808014
0.022756082
0.022701254
0.022643571
0.022582787
0.022519194
0.022452988
0.02238425
0.022312963
0.022239303
0.022163435
0.022085354
0.022004971
0.021922165
0.021836795
0.021748721
0.021657776
0.021563816
0.021466687
0.021366221
0.021262209
0.021154515
0.021042954
0.020927266
0.020807524
0.02068438
0.020558255
0.020429556
0.020298947
0.020167783
0.020036157
0.019905186
0.019776486
0.019651445
0.019532765
0.01942383
0.019328915
0.019252939
0.019197401
0.019161683
0.019143751
0.019140569
0.019148877
0.022893364
0.022901463
0.022909278
0.022914244
0.022915315
0.022912276
0.022905312
0.02289448
0.022879826
0.022861389
0.022839206
0.022813307
0.022783712
0.022750446
0.022713526
0.02267296
0.022628686
0.022580524
0.022528662
0.022473323
0.022414695
0.022352949
0.022288204
0.022220473
0.022149899
0.022076641
0.022000825
0.021922548
0.021841961
0.021759235
0.021674393
0.021587341
0.02149796
0.021406109
0.021311644
0.021214373
0.021114206
0.021010978
0.02090449
0.02079451
0.020681025
0.020563794
0.020442447
0.020317127
0.020188842
0.020057522
0.019923578
0.019787974
0.019650827
0.019513204
0.019376781
0.019243461
0.01911505
0.018994518
0.018884205
0.018788227
0.018711455
0.018655242
0.018618925
0.018600725
0.018597626
0.018606353
0.022576897
0.022585558
0.022593996
0.022599237
0.02259997
0.022596237
0.022588066
0.022575525
0.022558678
0.022537584
0.022512301
0.022482881
0.022449364
0.022411795
0.022370211
0.022324633
0.022275048
0.022221403
0.022163845
0.02210261
0.022037907
0.021969928
0.021898847
0.021824782
0.02174787
0.02166826
0.021586098
0.02150153
0.021414721
0.021325854
0.021234951
0.021141935
0.021046697
0.020949077
0.020848915
0.020746
0.020640386
0.020531783
0.020419944
0.020304677
0.020186245
0.020064048
0.019937614
0.019807395
0.019673376
0.019535831
0.019395989
0.019255069
0.019113611
0.018973528
0.018835318
0.018700805
0.018570927
0.018448162
0.018335778
0.018237958
0.018159707
0.018102573
0.018065777
0.018047442
0.018044517
0.018053884
0.022223219
0.022232391
0.022241406
0.022246843
0.022247285
0.022242821
0.022233472
0.022219309
0.022200405
0.022176834
0.022148675
0.022115999
0.022078868
0.022037349
0.021991497
0.021941354
0.021886943
0.02182827
0.021765505
0.02169891
0.02162871
0.021555125
0.021478368
0.021398604
0.021315991
0.021230681
0.021142844
0.021052668
0.02096032
0.020865984
0.020769676
0.020671389
0.020570999
0.020468279
0.020363059
0.020255164
0.020144949
0.0200316
0.019914971
0.019795083
0.019671403
0.019543328
0.019411183
0.019275623
0.019136699
0.018996123
0.018854214
0.018711845
0.018568919
0.018426363
0.018285568
0.01814826
0.018016095
0.017891496
0.017777548
0.017678421
0.017599179
0.017541412
0.017504301
0.017485938
0.017483145
0.017492819
0.021835183
0.021844807
0.021854352
0.021859953
0.021860104
0.021854933
0.021844464
0.021828778
0.02180796
0.0217821
0.021751295
0.021715634
0.021675201
0.021630082
0.021580353
0.021526079
0.021467312
0.021404091
0.021336616
0.021265183
0.021190034
0.021111431
0.021029619
0.020944779
0.020857081
0.020766683
0.02067382
0.020578711
0.020481468
0.020382281
0.020281188
0.02017836
0.020073502
0.019966256
0.019856548
0.019744345
0.019629003
0.019510128
0.019388314
0.019263442
0.019135091
0.019003788
0.018869482
0.018732252
0.018591847
0.018448942
0.018304312
0.018158888
0.018013344
0.017868584
0.017725785
0.017586572
0.017452745
0.017326779
0.017211724
0.017111721
0.017031873
0.016973756
0.016936512
0.016918224
0.016915633
0.016925656
0.021415677
0.021425693
0.021435713
0.021441463
0.021441316
0.021435478
0.021423967
0.021406873
0.021384297
0.021356343
0.021323126
0.021284755
0.021241329
0.021192959
0.021139735
0.021081754
0.021019093
0.020951802
0.020880112
0.02080435
0.020724775
0.020641734
0.020555468
0.020466137
0.020373926
0.020279018
0.020181795
0.020082424
0.019980846
0.019877348
0.019772067
0.019664732
0.019554795
0.019442581
0.019328137
0.019211283
0.019091728
0.018970089
0.018846342
0.018719689
0.018589788
0.018456374
0.018319353
0.018179116
0.018036077
0.01789082
0.017744018
0.017596476
0.017449016
0.017302593
0.017158352
0.017017875
0.01688298
0.01675616
0.016640459
0.016539985
0.016459866
0.016401652
0.016364447
0.016346329
0.016344004
0.016354347
0.020967608
0.020977953
0.020988392
0.020994273
0.020993824
0.020987374
0.020974912
0.02095654
0.020932373
0.02090253
0.020867142
0.020826335
0.020780227
0.020728945
0.020672598
0.020611338
0.020545235
0.020474341
0.020398909
0.020319297
0.020235801
0.020148942
0.020058788
0.019965477
0.019869257
0.019770387
0.01966897
0.019564806
0.019458453
0.01935039
0.019240672
0.019129165
0.019016001
0.018901615
0.018785301
0.018666641
0.018545606
0.018421748
0.018295226
0.018165858
0.018033437
0.017897754
0.017758577
0.017616211
0.017471209
0.017324185
0.017175805
0.017026834
0.016878117
0.016730634
0.016585524
0.016444359
0.016308943
0.016181771
0.016065872
0.015965311
0.015885233
0.015827151
0.015790136
0.01577228
0.015770239
0.015780873
0.0158005
0.015824904
0.015838321
0.020493876
0.02050449
0.020515289
0.02052128
0.020520536
0.020513543
0.020500237
0.020480731
0.020455151
0.02042363
0.020386313
0.020343345
0.020294855
0.020240993
0.020181892
0.020117809
0.020048695
0.019974617
0.019895871
0.019812849
0.019725938
0.01963517
0.019540672
0.019443025
0.019342529
0.019239451
0.019133994
0.019026543
0.01891795
0.018807966
0.01869642
0.018583321
0.018468315
0.018351402
0.018232491
0.018111391
0.017987984
0.017862036
0.017733452
0.017602095
0.017467804
0.017330411
0.017189664
0.01704584
0.016899525
0.016751354
0.016602
0.016452219
0.01630286
0.016154905
0.016009489
0.015868178
0.015732758
0.01560571
0.015490042
0.01538976
0.01531001
0.01525227
0.015215583
0.015198084
0.015196276
0.015207194
0.015226921
0.015252258
0.015288047
0.019997356
0.020008183
0.020019284
0.020025351
0.020024361
0.020016919
0.020002892
0.019982404
0.019955593
0.019922604
0.019883597
0.019838729
0.019788145
0.01973202
0.019670457
0.01960344
0.019531058
0.019453538
0.019371225
0.01928457
0.019193978
0.019099597
0.019002372
0.018902619
0.018800172
0.018695273
0.018588185
0.01847897
0.018367941
0.01825544
0.018141514
0.018026091
0.01790898
0.017790058
0.017669202
0.017546266
0.017421114
0.017293576
0.017163512
0.017030781
0.016895232
0.016756719
0.016614989
0.016470317
0.0163233
0.016174583
0.016024846
0.015874842
0.015725416
0.01557755
0.015432369
0.015291429
0.015156493
0.01503002
0.014914987
0.014815331
0.01473618
0.014678974
0.014642742
0.014625527
0.014624159
0.014635243
0.014655081
0.014681016
0.014717523
0.019480888
0.019491874
0.019503225
0.019509271
0.019508158
0.019500226
0.019485441
0.019463923
0.019435811
0.019401257
0.019360434
0.019313517
0.019260667
0.019202084
0.019137844
0.019068293
0.018993798
0.018914311
0.01883011
0.018741666
0.018649356
0.01855348
0.018454286
0.018352163
0.018247375
0.018140178
0.018030835
0.017919541
0.017806537
0.017692127
0.017576396
0.017459252
0.017340549
0.017220148
0.017097914
0.016973706
0.016847386
0.016718804
0.016587814
0.016454277
0.016318045
0.016178983
0.016036841
0.015891897
0.015744756
0.015596067
0.015446511
0.015296841
0.015147896
0.015000652
0.014856218
0.014716138
0.014582147
0.014456673
0.014342656
0.014243951
0.014165652
0.014109158
0.01407349
0.014056632
0.014055638
0.014066856
0.014086798
0.014113077
0.014149581
0.018969913
0.018975938
0.018974601
0.018966075
0.018950499
0.018928025
0.018898825
0.018863077
0.018820978
0.018772727
0.018718504
0.018658521
0.018592938
0.018521931
0.018445631
0.018364206
0.018278018
0.018187549
0.018093197
0.017995317
0.017894234
0.017790255
0.017683661
0.017574722
0.0174637
0.017350832
0.017236359
0.017120576
0.017003575
0.016885258
0.01676549
0.016644135
0.016521052
0.016396105
0.016269157
0.016140063
0.016008683
0.015874878
0.015738504
0.015599438
0.015457428
0.01531276
0.015166041
0.015017924
0.014869086
0.014720278
0.014572329
0.014426209
0.014283005
0.014144246
0.014011633
0.013887558
0.013774914
0.013677462
0.01360025
0.013544631
0.013509624
0.013493176
0.013492521
0.01350382
0.013523815
0.013550276
0.013586415
0.018422232
0.0184282
0.018426742
0.018417922
0.018401883
0.018378785
0.018348808
0.018312141
0.018268992
0.018219572
0.018164077
0.018102725
0.018035713
0.01796322
0.017885424
0.017802465
0.017714728
0.017622706
0.017526812
0.017427421
0.017324897
0.017219539
0.017111636
0.017001463
0.016889284
0.016775352
0.016659912
0.016543263
0.016425499
0.016306519
0.016186194
0.016064387
0.015940962
0.015815783
0.015688714
0.015559617
0.015428354
0.015294793
0.01515879
0.015020233
0.014878872
0.014734997
0.014589217
0.014442183
0.01429457
0.014147121
0.014000654
0.013856128
0.013714608
0.013577602
0.013446773
0.013324468
0.013213529
0.013117614
0.013041706
0.012987111
0.012952853
0.012936852
0.012936512
0.012947836
0.01296782
0.012994331
0.013029894
0.012500569
0.01252197
0.017862875
0.01786868
0.01786702
0.017857904
0.017841455
0.017817831
0.017787215
0.017749803
0.017705815
0.017655471
0.01759898
0.017536569
0.017468455
0.017394826
0.017315885
0.017231777
0.017142895
0.017049752
0.016952768
0.016852331
0.016748823
0.016642553
0.016533812
0.016422884
0.016310035
0.016195526
0.016079603
0.015962572
0.015844526
0.015725367
0.015604965
0.015483187
0.015359898
0.015234965
0.015108257
0.014979637
0.014848973
0.014716136
0.014580988
0.014443425
0.014303199
0.014160604
0.014016248
0.013870778
0.013724863
0.013579238
0.013434707
0.013292215
0.013152803
0.013017951
0.012889283
0.012769094
0.012660168
0.01256605
0.012491646
0.012438213
0.012404783
0.012389256
0.012389214
0.012400506
0.012420406
0.012446848
0.012481696
0.011961892
0.011983112
0.017293976
0.01729979
0.017297997
0.017288643
0.017271861
0.017247818
0.017216703
0.017178719
0.017134095
0.017083061
0.017025835
0.016962656
0.016893753
0.016819324
0.016739591
0.016654702
0.016565067
0.016471209
0.016373559
0.016272512
0.016168463
0.016061726
0.0159526
0.015841372
0.015728314
0.015613688
0.015497743
0.015380787
0.015262917
0.015144033
0.015024009
0.014902713
0.014780013
0.014655779
0.014529882
0.014402192
0.014272579
0.01414092
0.014007079
0.013870964
0.01373233
0.013591469
0.01344899
0.013305533
0.013161759
0.013018391
0.012876219
0.012736169
0.012599257
0.012466931
0.012340772
0.012223017
0.012116387
0.012024306
0.011951589
0.011899442
0.01186691
0.011851878
0.011852116
0.011863323
0.011883065
0.011909312
0.011943352
0.011434421
0.011455369
0.016718346
0.01672412
0.016722212
0.016712672
0.01669564
0.016671289
0.016639814
0.016601427
0.016556365
0.016504865
0.016447156
0.016383485
0.016314093
0.016239186
0.016158999
0.016073689
0.015983674
0.01588949
0.015791575
0.01569033
0.015586159
0.015479381
0.015370299
0.015259205
0.015146371
0.015032064
0.014916533
0.014800086
0.014682823
0.014564644
0.014445424
0.014325036
0.01420335
0.014080239
0.013955579
0.013829242
0.013701102
0.013571045
0.013438935
0.013304692
0.013168073
0.013029371
0.012889189
0.012748162
0.012606937
0.012466227
0.012326803
0.012189573
0.01205552
0.011926062
0.011802732
0.011687701
0.011583626
0.0114938
0.011422936
0.011372186
0.011340615
0.011326096
0.011326595
0.011337668
0.011357176
0.011383054
0.011416283
0.010919476
0.010940062
0.016138405
0.016144115
0.016142105
0.016132427
0.016115224
0.016090673
0.016058977
0.016020352
0.015975043
0.015923295
0.015865345
0.015801447
0.015731852
0.015656773
0.015576458
0.015491068
0.015401031
0.015306891
0.015209092
0.015108039
0.015004144
0.014897727
0.014789095
0.014678543
0.014566345
0.014452768
0.014338059
0.014222529
0.014106278
0.013989207
0.013871193
0.013752112
0.013631838
0.013510247
0.013387218
0.013262629
0.013136357
0.013008295
0.012878309
0.012746331
0.012612119
0.012475967
0.012338472
0.012200257
0.012061958
0.011924274
0.011787955
0.011653888
0.011523024
0.011396745
0.011276532
0.01116449
0.011063201
0.010975828
0.010906966
0.010857713
0.010827158
0.010813165
0.010813908
0.010824802
0.010844001
0.010869287
0.010901787
0.010418263
0.010438372
0.015560003
0.015550232
0.015532936
0.015508292
0.015476508
0.015437806
0.015392434
0.015340648
0.015282687
0.015218816
0.015149291
0.015074333
0.014994198
0.014909054
0.014819334
0.014725588
0.014628266
0.014527775
0.01442453
0.014318854
0.014211055
0.01410143
0.013990253
0.013877791
0.01376429
0.013650059
0.013535198
0.013419611
0.013303177
0.013185776
0.013067283
0.01294758
0.012826549
0.012704074
0.012580035
0.012454331
0.012326832
0.01219748
0.012066037
0.011932795
0.011798341
0.011663289
0.01152826
0.011393937
0.011261045
0.011130453
0.011003075
0.010880254
0.010763418
0.0106546
0.010556305
0.01047156
0.010404831
0.010357164
0.01032767
0.010314219
0.010315185
0.010325858
0.010344685
0.010369301
0.010400838
0.0099317803
0.0099513185
0.014978117
0.014968302
0.014950988
0.014926355
0.014894611
0.014855984
0.014810729
0.014759102
0.014701352
0.014637748
0.014568553
0.014493991
0.01441433
0.014329739
0.014240657
0.014147637
0.014051132
0.01395155
0.013849308
0.013744729
0.013638123
0.013529785
0.013419989
0.013309003
0.013197068
0.013084491
0.012971373
0.01285762
0.012743113
0.012627735
0.012511366
0.012393892
0.012275198
0.012155173
0.012033702
0.01191069
0.01178601
0.011659613
0.011531268
0.011401263
0.011270174
0.011138603
0.011007153
0.01087649
0.010747318
0.010620478
0.01049685
0.010377735
0.010264506
0.010159121
0.010064001
0.0099820364
0.0099175554
0.00987155
0.0098431537
0.0098302625
0.0098314265
0.0098418432
0.0098602429
0.0098841576
0.0099145156
0.0094608831
0.0094798017
0.014398537
0.014388734
0.014371478
0.014346953
0.014315373
0.014276968
0.014231996
0.01418072
0.01412339
0.014060279
0.013991659
0.013917755
0.013838844
0.013755096
0.013666953
0.01357497
0.013479601
0.013381253
0.013280343
0.013177194
0.013072115
0.0129654
0.012857321
0.012748145
0.012638108
0.012527515
0.012416466
0.012304869
0.012192609
0.012079572
0.011965641
0.011850707
0.01173466
0.011617393
0.011498795
0.011378778
0.011257218
0.011134077
0.011009126
0.010882652
0.010755217
0.01062741
0.010499815
0.010373081
0.010247884
0.010125042
0.010005396
0.0098902031
0.00978078
0.009679006
0.0095872168
0.0095081647
0.0094460287
0.0094017469
0.0093745059
0.0093621438
0.009363499
0.0093736302
0.0093915529
0.009414743
0.0094438304
0.009006351
0.0090246038
0.013813519
0.013796387
0.013772063
0.013740763
0.013702717
0.013658187
0.013607439
0.013550725
0.013488323
0.013420508
0.013347507
0.013269603
0.013186969
0.013100046
0.013009392
0.012915455
0.012818644
0.012719373
0.012617963
0.012514721
0.01240994
0.012303888
0.012196829
0.012088997
0.01198069
0.01187201
0.011762865
0.011653144
0.011542736
0.011431531
0.01131942
0.0112063
0.011092069
0.01097662
0.010859872
0.010741702
0.010622083
0.010500792
0.010378109
0.010254585
0.010130791
0.010007294
0.0098847218
0.0097637226
0.0096450905
0.0095296238
0.0094185382
0.0093130891
0.0092150774
0.0091267481
0.0090507174
0.008991005
0.0089485003
0.0089224356
0.0089106167
0.0089121379
0.008921959
0.0089393599
0.0089618036
0.0089895725
0.0085688256
0.0085863735
0.013244517
0.013227573
0.013203537
0.013172624
0.013135067
0.013091128
0.013041074
0.012985161
0.012923667
0.012856871
0.012785001
0.012708345
0.012627076
0.012541636
0.012452578
0.01236035
0.012265354
0.012168005
0.012068618