/*--------------------------------*- C++ -*----------------------------------*\
| =========                 |                                                 |
| \\      /  F ield         | OpenFOAM: The Open Source CFD Toolbox           |
|  \\    /   O peration     | Version:  2.4.0                                 |
|   \\  /    A nd           | Web:      www.OpenFOAM.org                      |
|    \\/     M anipulation  |                                                 |
\*---------------------------------------------------------------------------*/
FoamFile
{
    version     2.0;
    format      ascii;
    class       volScalarField;
    location    "20000";
    object      omega;
}
// * * * * * * * * * * * * * * * * * * * * * * * * * * * * * * * * * * * * * //

dimensions      [0 0 -1 0 0 0 0];

internalField   nonuniform List<scalar> 
9793
(
1.6505811
1.6361311
1.6212368
1.6059592
1.5903548
1.5824915
1.5683043
1.5537244
1.5388132
1.5236275
1.5082203
1.4926408
1.476935
1.4611456
1.4453247
1.429482
1.4135921
1.3976274
1.3815622
1.3653734
1.349042
1.3325529
1.3158946
1.2990612
1.2820511
1.2648676
1.2475192
1.2300019
1.2123954
1.1948163
1.1773757
1.1601822
1.1433203
1.1268648
1.1110926
1.0958969
1.0814344
1.0678588
1.0553674
1.0441918
1.0346474
1.0271083
1.6139365
1.6077416
1.6005574
1.5924138
1.5833734
1.5734807
1.5627816
1.5513106
1.5391489
1.5263995
1.5131476
1.4994736
1.4854512
1.4711404
1.4565967
1.4418715
1.427012
1.412062
1.3970616
1.3820598
1.3670657
1.3520556
1.3370042
1.3218879
1.3066856
1.2913797
1.275956
1.2604034
1.2447155
1.2288895
1.2129266
1.1968324
1.1806008
1.1643019
1.148039
1.1319123
1.1160175
1.1004155
1.0852046
1.0706416
1.0566109
1.0432567
1.0307237
1.0191952
1.0088847
1.0000828
0.99313404
1.539689
1.5338176
1.5269799
1.5192316
1.5106204
1.5011921
1.4909945
1.4800658
1.4684822
1.4563542
1.4437652
1.4307915
1.4175046
1.4039636
1.3902214
1.3763271
1.3623256
1.3482581
1.3341624
1.3200843
1.3060319
1.291984
1.2779171
1.2638099
1.2496427
1.2353993
1.2210662
1.2066327
1.192092
1.1774405
1.1626778
1.1478075
1.1328225
1.1177845
1.1027857
1.0879164
1.0732527
1.058847
1.0448836
1.031458
1.0185378
1.0062466
0.99471802
0.98411974
0.97464698
0.966565
0.96018906
1.4760802
1.473591
1.4700463
1.4654902
1.4600073
1.4536026
1.4463337
1.4382474
1.4293879
1.4198034
1.4095316
1.3986418
1.3872516
1.3754393
1.3632763
1.35083
1.3381578
1.3253082
1.3123281
1.29926
1.2861426
1.2730113
1.2599079
1.24684
1.2337882
1.2207311
1.2076491
1.1945241
1.181341
1.1680874
1.1547529
1.1413309
1.1278175
1.1142118
1.100516
1.086723
1.0728871
1.0590911
1.0454137
1.0319082
1.0186508
1.0059028
0.99356998
0.98171793
0.97045479
0.95990035
0.95020604
0.94154837
0.93416752
0.92834975
1.4034148
1.4009452
1.3975731
1.3932858
1.3881054
1.3820771
1.375249
1.3676666
1.359371
1.350409
1.3408102
1.3306463
1.3200336
1.309035
1.2977182
1.2861469
1.2743738
1.2624462
1.2504071
1.2382953
1.2261464
1.2139922
1.2018704
1.1897877
1.1777263
1.1656667
1.153591
1.1414828
1.1293285
1.1171166
1.1048381
1.092487
1.0800596
1.0675553
1.0549758
1.0423138
1.0296173
1.0169597
1.0044036
0.99199695
0.97989602
0.96827197
0.95701505
0.94620749
0.9359486
0.92634562
0.91753438
0.90967296
0.90297698
0.89770425
0.89387271
0.89137276
0.89003625
1.3334007
1.3310189
1.3278333
1.3237541
1.3188451
1.3131541
1.3067287
1.299614
1.2918504
1.2834849
1.2745271
1.2650938
1.2552408
1.2450457
1.2345687
1.2238674
1.2129905
1.2019788
1.1908714
1.1797032
1.1685057
1.1573071
1.146141
1.1350134
1.1239078
1.1128071
1.101695
1.0905575
1.0793827
1.068161
1.0568848
1.0455494
1.034152
1.0226923
1.0111715
0.99958206
0.98796533
0.97638341
0.96488729
0.95356537
0.94265062
0.932092
0.92188474
0.91209936
0.90282413
0.89415306
0.88620618
0.87912336
0.8730962
0.868355
0.86491431
0.86267444
0.86148348
1.2661299
1.2638721
1.2607733
1.256881
1.2522366
1.2468819
1.2408606
1.2342145
1.2269832
1.219208
1.2109024
1.2021783
1.1930744
1.1836754
1.1740239
1.1641731
1.1541661
1.1440419
1.1338341
1.1235734
1.1132871
1.1030003
1.0927432
1.0825214
1.0723208
1.0621267
1.0519255
1.0417057
1.0314577
1.0211742
1.0108492
1.0004794
0.99006294
0.97959907
0.969088
0.95852094
0.94793238
0.93737633
0.9269279
0.91676717
0.90697589
0.89746662
0.88829186
0.87951231
0.87120337
0.86344572
0.85634393
0.85002036
0.84464369
0.840418
0.83735496
0.83536483
0.83431177
1.1941491
1.1968361
1.1996162
1.2017257
1.2029667
1.2033325
1.202851
1.201443
1.1992899
1.1963301
1.1926524
1.1882938
1.1832918
1.1776866
1.171516
1.1648206
1.1576283
1.1499929
1.1419582
1.1335941
1.1249533
1.1160924
1.1070559
1.0978832
1.0886036
1.0792477
1.0698427
1.0604125
1.0509821
1.0415791
1.0322096
1.022862
1.0135249
1.0041878
0.99484159
0.9854793
0.97609529
0.96668528
0.95724658
0.94777697
0.93827445
0.92873734
0.91915599
0.90956381
0.90003515
0.89071731
0.88173519
0.87300499
0.86454015
0.85638778
0.84859863
0.84123627
0.83436936
0.8280883
0.8224993
0.81774968
0.81401889
0.8113164
0.80956254
0.80863719
1.1344237
1.1368645
1.1393167
1.1410977
1.1420599
1.1422165
1.1415918
1.1402697
1.1381961
1.1354293
1.1320014
1.1279478
1.1233046
1.1181108
1.1124019
1.106223
1.0995791
1.0925679
1.0851938
1.0775266
1.0696041
1.0614947
1.0532207
1.0448169
1.0363157
1.0277452
1.019129
1.0104926
1.0018583
0.99325213
0.98468305
0.97614261
0.96762091
0.95911087
0.95060492
0.94209789
0.93358496
0.92506209
0.91652587
0.90797254
0.89939894
0.89080311
0.88218309
0.87360028
0.86518843
0.8570543
0.84915304
0.84145912
0.8340088
0.82684217
0.82000138
0.81354027
0.80751735
0.80201068
0.79711215
0.79294972
0.78968021
0.78731152
0.7857738
0.78496195
1.0726818
1.0745096
1.0764523
1.0786906
1.0810634
1.0834285
1.0851392
1.0860809
1.0862749
1.0857619
1.0844706
1.0824803
1.0798323
1.0765706
1.0727382
1.0683755
1.0635227
1.0582141
1.0525161
1.0464365
1.039982
1.0332064
1.026184
1.0189276
1.011475
1.0038724
0.99615906
0.98835593
0.98049253
0.97258922
0.96467982
0.95678327
0.9489258
0.9411127
0.93334017
0.92559914
0.91788374
0.91018684
0.90250337
0.89482791
0.88715532
0.87948088
0.87180065
0.86411606
0.85643432
0.84879084
0.84130194
0.83403406
0.82695906
0.82004098
0.81330832
0.8067937
0.80053076
0.79455505
0.78891274
0.7836541
0.77884675
0.77457019
0.77093529
0.76807857
0.7660067
0.76465884
0.76394348
1.0214936
1.0232301
1.0250522
1.0270026
1.0291179
1.0313375
1.033025
1.0340411
1.0343829
1.0340781
1.0330333
1.0313081
1.0289566
1.0260273
1.0225641
1.0186064
1.0141918
1.0093585
1.004122
0.99854875
0.99261928
0.98637726
0.97986946
0.97315409
0.96625867
0.95924025
0.95212317
0.94494209
0.93772272
0.93049231
0.92327032
0.91607697
0.90893656
0.90185475
0.89482428
0.8878388
0.88088981
0.87397107
0.86707559
0.86019745
0.85333114
0.8464739
0.8396305
0.83282145
0.82607837
0.81949498
0.81307397
0.80679079
0.8006186
0.79458241
0.78870994
0.78302921
0.77756905
0.77236012
0.76744243
0.76285945
0.75866983
0.75494231
0.7517726
0.74927908
0.74746716
0.74628386
0.74564964
0.97470146
0.97618539
0.97777634
0.97947953
0.9813376
0.98332011
0.98484065
0.98577034
0.98610062
0.98584228
0.98498705
0.98354767
0.98154694
0.97901394
0.97598021
0.97247739
0.96853752
0.96419771
0.95945036
0.95436361
0.94896523
0.94327385
0.93732133
0.93118534
0.92490243
0.91851249
0.91203315
0.90550828
0.89896141
0.89242085
0.88589926
0.87941594
0.8729919
0.8666344
0.86033442
0.85408546
0.84787857
0.84170713
0.83556455
0.82944643
0.82335393
0.81729475
0.81129792
0.80541258
0.79967684
0.79406004
0.78851849
0.78304759
0.77767131
0.77241419
0.76730048
0.76235455
0.75760156
0.7530682
0.7487893
0.74480244
0.74115836
0.73791617
0.73515794
0.73298555
0.7314029
0.73036376
0.72979903
0.93248734
0.93372075
0.93505324
0.93648121
0.93804498
0.93973323
0.94101893
0.94179005
0.94203476
0.94175883
0.94096339
0.93965752
0.93785676
0.93558241
0.932859
0.92971226
0.92617008
0.92226158
0.91800826
0.91344168
0.90858553
0.90347825
0.89816343
0.89268355
0.88707487
0.88137244
0.87560324
0.86979413
0.86396853
0.85814789
0.85235013
0.84659139
0.84088967
0.83524958
0.82966467
0.82412794
0.81863326
0.81317556
0.80775494
0.8023751
0.79705621
0.7918183
0.78671987
0.78174024
0.77686242
0.77200499
0.76718433
0.76242339
0.75774519
0.75317154
0.74872394
0.74442389
0.74029352
0.7363561
0.73264192
0.72918328
0.72602373
0.72321361
0.72082249
0.71893702
0.71755934
0.71664888
0.71614562
0.89502486
0.89602847
0.89711465
0.89827939
0.89955756
0.90094368
0.90197224
0.90255454
0.9026639
0.90232361
0.9015321
0.90029893
0.89863726
0.89656437
0.89410022
0.89126602
0.88808548
0.88458326
0.88078152
0.87670584
0.87237731
0.86783261
0.86311309
0.85825448
0.85328854
0.84824538
0.84314917
0.83802189
0.83288323
0.82775096
0.82264074
0.81756638
0.81254347
0.80757621
0.8026601
0.79779111
0.79296905
0.78819523
0.78348483
0.77884791
0.77433155
0.76992549
0.76560923
0.76134872
0.75711023
0.75288729
0.74869469
0.74455454
0.7404879
0.73651444
0.73265334
0.72892364
0.72534475
0.72193689
0.71872616
0.71574
0.7130153
0.71059422
0.70853477
0.70690942
0.70571821
0.70492533
0.70447867
0.86195387
0.86277373
0.86366146
0.86461316
0.86565888
0.86679308
0.86760781
0.86802307
0.86802675
0.86763056
0.86683959
0.86566422
0.86411734
0.86221483
0.85997442
0.85741462
0.85455606
0.8514199
0.84802617
0.84439678
0.84054986
0.83651773
0.83233702
0.82803849
0.8236496
0.8191965
0.81470034
0.81017999
0.8056526
0.80113382
0.79663767
0.79217708
0.78776633
0.7834118
0.77911361
0.77487418
0.77070231
0.76660209
0.76261098
0.75871676
0.75490172
0.75115472
0.74742352
0.7437142
0.74002445
0.73635109
0.7327069
0.72911169
0.72558428
0.7221422
0.71880242
0.71558167
0.71249682
0.70956518
0.70680893
0.70425096
0.70192183
0.69985602
0.69810074
0.69671512
0.69569686
0.69501411
0.69462167
0.83276684
0.83343718
0.83416496
0.83494634
0.83580753
0.83674204
0.8373925
0.83768581
0.83761889
0.83719673
0.83642701
0.83532012
0.83388852
0.83214714
0.83011226
0.82780066
0.82523079
0.82242137
0.81939021
0.8161566
0.81273653
0.80915833
0.80545412
0.80165083
0.79777258
0.79384246
0.78987918
0.78589957
0.78191917
0.7779521
0.77401246
0.7701142
0.76627102
0.76249657
0.75879327
0.75516912
0.75164093
0.74819636
0.74482082
0.74150911
0.73821728
0.73494958
0.73170166
0.72847401
0.72526677
0.72207828
0.71892021
0.71581022
0.71276507
0.7098002
0.70693056
0.70417067
0.70153494
0.69903791
0.69669809
0.694534
0.69257013
0.69083371
0.68936186
0.68820104
0.68734629
0.68676906
0.68643031
0.80705767
0.80759907
0.80818985
0.80882664
0.80953264
0.81030055
0.8108178
0.81101917
0.8109032
0.81047424
0.80973955
0.80870889
0.80739395
0.80580853
0.8039676
0.80188645
0.7995818
0.79707046
0.79436838
0.79149276
0.78845795
0.78528902
0.78201441
0.77865803
0.7752414
0.7717848
0.76830557
0.76482004
0.76134295
0.75788734
0.75447122
0.75110752
0.74780744
0.74459808
0.74146939
0.73841168
0.73541537
0.73247664
0.72955845
0.72666754
0.72379996
0.72095559
0.71813364
0.71533448
0.71255893
0.70980617
0.70708681
0.70441657
0.70181019
0.69928114
0.69684256
0.69450684
0.6922859
0.69019171
0.68823949
0.68644326
0.68482174
0.68339543
0.68219195
0.68124558
0.68054816
0.68007404
0.67978975
0.78449278
0.78492148
0.78539296
0.78590431
0.78647613
0.78710039
0.78750518
0.78763187
0.78747997
0.7870537
0.7863598
0.78540728
0.78420684
0.78277112
0.7811137
0.77924845
0.77719045
0.7749548
0.77255579
0.77000872
0.7673268
0.76453282
0.76165243
0.75870724
0.7557165
0.75269787
0.74967021
0.74664908
0.74364672
0.74067515
0.73776053
0.73490417
0.73211192
0.72938069
0.72670708
0.72408007
0.72147921
0.71891051
0.71636927
0.71385521
0.71136728
0.7089053
0.70646938
0.70406024
0.70167909
0.69932574
0.69700997
0.69474563
0.69254553
0.69042124
0.68838462
0.68644554
0.68461349
0.68289848
0.68131265
0.67986478
0.67856869
0.67743889
0.67649378
0.67575541
0.67521155
0.67483975
0.67461155
0.76475888
0.76509553
0.76546809
0.76587394
0.76633142
0.76683186
0.76714161
0.76720434
0.76702551
0.76660782
0.76595749
0.76508269
0.76399309
0.76270003
0.76121576
0.75955275
0.75772462
0.75574501
0.75362686
0.7513838
0.74902943
0.74658458
0.74407206
0.741511
0.73891785
0.73630835
0.7337076
0.73112278
0.72856134
0.72603136
0.72353756
0.72108672
0.71868695
0.71631981
0.71398937
0.711696
0.70943542
0.70720688
0.70500891
0.70284103
0.70070283
0.69859437
0.6965163
0.69446969
0.69245603
0.69047566
0.68853793
0.6866547
0.68483674
0.68309432
0.68143859
0.67987549
0.67841302
0.67706046
0.67582598
0.67471161
0.67372942
0.67288803
0.67219593
0.67166215
0.67126932
0.67100047
0.67083054
0.74752071
0.74779466
0.7480951
0.74842041
0.74878752
0.74918716
0.74942103
0.749432
0.74923908
0.74883894
0.74823706
0.74744088
0.74645922
0.74530239
0.74398156
0.74250813
0.7408945
0.73915318
0.73729589
0.73533533
0.73328812
0.73117009
0.72899977
0.72679304
0.72456378
0.72232584
0.72008829
0.71786072
0.71565195
0.71346912
0.71130477
0.70917084
0.70707707
0.70502256
0.70300619
0.70102679
0.69908269
0.69717291
0.6952969
0.69345439
0.69164532
0.68987008
0.68813004
0.68642643
0.68476082
0.68313433
0.68155651
0.68003605
0.67858225
0.67720549
0.67591614
0.67471256
0.67360614
0.67260598
0.67171201
0.67091895
0.67024596
0.6696909
0.66925026
0.66891909
0.66868184
0.6685176
0.66840408
0.73312646
0.73344626
0.73379143
0.73398684
0.73398804
0.73380244
0.73343391
0.73288866
0.73217431
0.73129957
0.73027429
0.7291089
0.72781395
0.72640074
0.72488059
0.72326414
0.72156281
0.71978544
0.71794702
0.71606427
0.71415135
0.71222102
0.71028531
0.70834287
0.70640615
0.70448491
0.70258702
0.70071595
0.69887752
0.69707815
0.69531947
0.69360057
0.69192025
0.69027752
0.68867171
0.6871031
0.68557143
0.68407691
0.68262049
0.68120473
0.67983005
0.67849817
0.67721207
0.67598178
0.67480953
0.6737068
0.67268606
0.67175309
0.6708935
0.67013778
0.66948759
0.66893941
0.66850522
0.66817176
0.66791892
0.66773124
0.66759102
0.66748347
0.66739173
0.66730807
0.66723871
0.6671638
0.71960898
0.71990817
0.72022893
0.72041816
0.72042974
0.72027555
0.71995762
0.71948297
0.71885934
0.71809516
0.71719972
0.71618269
0.71505373
0.7138231
0.71250099
0.71109713
0.70962146
0.7080773
0.70647953
0.70484376
0.703183
0.70150869
0.69983157
0.69815774
0.69649484
0.69485013
0.69323009
0.6916398
0.69008421
0.68856859
0.68709495
0.68566263
0.68427062
0.68291848
0.68160607
0.68033487
0.67910338
0.67791266
0.67676506
0.67566438
0.67460753
0.67359864
0.67264474
0.67175363
0.67091542
0.67015722
0.66949083
0.66891124
0.66844467
0.66808824
0.66782312
0.6676334
0.6675136
0.66743643
0.66741233
0.66742392
0.66744749
0.66746995
0.66747625
0.66745189
0.66740723
0.66732429
0.70768983
0.70796767
0.70826468
0.70844324
0.70847207
0.70835376
0.70809216
0.70769281
0.70716243
0.70650852
0.70573947
0.70486404
0.703891
0.70282967
0.70168929
0.70047858
0.69920669
0.69788017
0.69651088
0.69511216
0.69369539
0.69227064
0.6908473
0.68943252
0.68803316
0.68665564
0.68530557
0.68398757
0.6827061
0.68146587
0.68026931
0.67911553
0.67800357
0.67693405
0.67590776
0.67492729
0.67398685
0.67309203
0.67224739
0.67145576
0.67070551
0.67001325
0.66938993
0.66883311
0.66836689
0.66800689
0.66773695
0.66754221
0.66743343
0.66737634
0.66739032
0.66745931
0.66760536
0.66781479
0.66805981
0.66831289
0.66853699
0.66870815
0.66881548
0.66885031
0.6688297
0.66873101
0.69730198
0.69755614
0.69782774
0.69799578
0.69803554
0.6979481
0.69773691
0.69740671
0.69696332
0.69641334
0.69576425
0.69502389
0.69420022
0.69330166
0.69233661
0.69131301
0.69023914
0.68912193
0.68797218
0.68680169
0.68562069
0.68443799
0.68326177
0.68209884
0.68095556
0.67983803
0.67875098
0.67769806
0.67668372
0.67571255
0.67478745
0.6739056
0.67306689
0.67227458
0.6715302
0.67083562
0.6701756
0.66957354
0.6690311
0.66854464
0.66812969
0.66780417
0.66755293
0.66736658
0.66726678
0.66721852
0.66723537
0.66731295
0.66748352
0.66774632
0.6680878
0.66849279
0.66895459
0.6694565
0.66997129
0.67046343
0.67088437
0.67120436
0.67141421
0.67150875
0.67151603
0.67141329
0.68838916
0.68861716
0.68886105
0.68901682
0.68906394
0.68900319
0.68883751
0.68857099
0.68820871
0.68775649
0.68722094
0.6866091
0.68592812
0.68518559
0.68438922
0.68354614
0.68266389
0.68174911
0.68081166
0.67986212
0.6789099
0.67796224
0.67702629
0.67610864
0.67521534
0.67435232
0.6735223
0.67272795
0.6719755
0.6712694
0.67061202
0.66999493
0.66942412
0.66890757
0.66844408
0.66803128
0.66768792
0.66742438
0.6672177
0.66706961
0.66699257
0.66696588
0.66698708
0.66706627
0.66723549
0.66749561
0.66784387
0.66827311
0.66878711
0.66938412
0.67005612
0.67078877
0.67156648
0.67236568
0.67315371
0.67388697
0.67450526
0.67497467
0.67528783
0.67544266
0.67547708
0.67536765
0.68090319
0.68110292
0.68131696
0.68145827
0.68150985
0.68147224
0.68134789
0.68114033
0.68085396
0.68049393
0.68006608
0.67957669
0.67903222
0.67843949
0.67780559
0.67713665
0.6764396
0.67572089
0.67498953
0.674255
0.673526
0.67280681
0.67210483
0.67142724
0.6707797
0.67016736
0.66958805
0.66904622
0.66855376
0.66811183
0.66771966
0.66738399
0.66711999
0.66691322
0.66675878
0.66665988
0.66662373
0.66662596
0.66666465
0.6667656
0.66693916
0.66719316
0.66752781
0.66794236
0.66844503
0.66903897
0.66972424
0.67049717
0.67135493
0.67229212
0.67329968
0.67436163
0.67545784
0.6765585
0.67762409
0.67860235
0.67942077
0.68004155
0.68045923
0.68067522
0.68073539
0.68061879
0.67480308
0.67497288
0.6751553
0.67528012
0.6753336
0.675316
0.6752293
0.67507651
0.67486147
0.67458868
0.67426335
0.67389108
0.6734777
0.67302932
0.67255252
0.67205159
0.67153381
0.67100577
0.67047564
0.6699518
0.66944164
0.66894357
0.66847064
0.66803075
0.66762743
0.66726329
0.66694554
0.66669116
0.66649129
0.66634057
0.66624118
0.66619558
0.66619579
0.66622326
0.6662995
0.66643637
0.66663241
0.66690143
0.66723588
0.66764059
0.66812172
0.6686858
0.66933855
0.67008243
0.67092019
0.67185308
0.67288051
0.67399907
0.67520363
0.67648604
0.67783496
0.67923143
0.6806514
0.68205915
0.68340792
0.68463647
0.68565933
0.68643458
0.68695872
0.68723702
0.68732225
0.68719774
0.68706815
0.68675558
0.68706751
0.67005473
0.6701933
0.67034271
0.67044936
0.67050238
0.67050183
0.67044934
0.6703475
0.67019967
0.67000983
0.66978261
0.669523
0.66923627
0.66892785
0.6686035
0.66826408
0.6679209
0.66758011
0.66724846
0.66693297
0.66663783
0.66637783
0.66616405
0.66598951
0.66585602
0.66576586
0.66572282
0.66572369
0.66574869
0.66581736
0.66593984
0.66611371
0.66634875
0.66664227
0.66699479
0.66741072
0.66789226
0.66844605
0.66907418
0.66978055
0.67057038
0.67144943
0.67242491
0.6735003
0.67467658
0.67595342
0.67732889
0.67879863
0.68035584
0.68199012
0.68368768
0.68542608
0.68717727
0.68889959
0.69053877
0.69202432
0.69325716
0.69419101
0.69482431
0.69516633
0.6952768
0.69514332
0.69500428
0.69462572
0.69489323
0.66663087
0.66673723
0.66685248
0.66693951
0.66698941
0.66700274
0.66698105
0.66692666
0.6668425
0.66673211
0.66659955
0.66644924
0.66628599
0.66611432
0.66594105
0.66577622
0.66562671
0.66549346
0.66538144
0.66529558
0.66523921
0.66522316
0.66523
0.66526138
0.66533508
0.66545408
0.66561989
0.66584064
0.66611548
0.66644322
0.66682638
0.66726584
0.66776588
0.66832862
0.66895622
0.66965214
0.67041971
0.67126384
0.67218885
0.67319945
0.67430123
0.67549992
0.67680362
0.67821586
0.6797365
0.68136392
0.68309485
0.68492356
0.68684163
0.68883647
0.69089185
0.6929816
0.69507351
0.69711977
0.69905827
0.70080899
0.70225859
0.70335612
0.70410197
0.70450945
0.7046457
0.70450259
0.70434965
0.7039066
0.70413631
0.66451111
0.66458446
0.6646646
0.66473046
0.66477662
0.66480442
0.66481562
0.66481241
0.66479753
0.66477411
0.66474572
0.66471619
0.66468974
0.66467008
0.66466497
0.66467209
0.66468884
0.66472548
0.6647892
0.66488377
0.66501324
0.66518287
0.66539961
0.66566249
0.66597425
0.66633714
0.66675264
0.66722396
0.66775254
0.66833836
0.66898275
0.66968761
0.6704561
0.67129132
0.67219648
0.67317536
0.67423196
0.67537111
0.6765979
0.67791775
0.67933689
0.68086139
0.68250026
0.68425679
0.68612979
0.68811643
0.69021215
0.69240973
0.69469903
0.69706527
0.6994897
0.70194224
0.70438635
0.7067678
0.70901625
0.71104183
0.7127162
0.7139834
0.71484586
0.7153209
0.71548364
0.71533013
0.71516017
0.71465178
0.71484618
0.66376567
0.66380828
0.66385402
0.66390063
0.66394775
0.66399612
0.66404725
0.66410325
0.66416673
0.66424067
0.6643285
0.66443348
0.66456049
0.66471308
0.66489709
0.66511544
0.66537207
0.66567009
0.66601253
0.66640252
0.66684387
0.66733843
0.6678881
0.66849461
0.66915924
0.66988355
0.67066875
0.67151485
0.672423
0.67339574
0.67443626
0.67554814
0.67673524
0.67800183
0.67935252
0.68079252
0.6823275
0.68396346
0.68570736
0.68756569
0.68954849
0.69165874
0.6938942
0.69625081
0.69872273
0.70130118
0.70397428
0.70672489
0.70953173
0.71236059
0.71517038
0.71790018
0.72047096
0.72278261
0.72469102
0.72613479
0.72711858
0.7276636
0.72785367
0.72768867
0.72750021
0.72692302
0.72708192
0.66414411
0.66416475
0.66420384
0.66426047
0.66433444
0.66442628
0.66453711
0.66466858
0.66482278
0.66500218
0.66520968
0.6654482
0.66572135
0.66603267
0.66638632
0.66678628
0.66723561
0.66773644
0.66829102
0.66890147
0.66956987
0.6702981
0.67108767
0.67193988
0.67285571
0.67383598
0.67488146
0.67599171
0.67716786
0.67841291
0.67973048
0.68112458
0.68259961
0.68416036
0.68581205
0.6875604
0.68941167
0.69137245
0.69345043
0.69565258
0.69799003
0.70046549
0.7030756
0.70581509
0.70867679
0.71165032
0.71472197
0.71787215
0.72107692
0.72429775
0.72748875
0.730582
0.73348926
0.73609973
0.7382527
0.73988087
0.74099131
0.74160905
0.74182738
0.74164955
0.74144144
0.74079138
0.74091324
0.75616459
0.75594914
0.66579906
0.66580109
0.66583576
0.66590376
0.66600537
0.6661411
0.66631182
0.66651881
0.66676371
0.66704848
0.66737554
0.66774743
0.66816702
0.66863757
0.66916234
0.66974533
0.67038884
0.67109399
0.67186225
0.67269498
0.67359321
0.67455828
0.67559125
0.67669295
0.677864
0.67910473
0.68041551
0.68179536
0.68324533
0.68476891
0.6863702
0.68805369
0.68982433
0.69168746
0.69364888
0.69571489
0.6978924
0.7001886
0.70261194
0.70516992
0.70787482
0.71072908
0.71372822
0.71686571
0.72013302
0.72351809
0.72700531
0.73057251
0.73419295
0.73782355
0.74141338
0.74488713
0.7481468
0.75107042
0.7534797
0.75530099
0.75654402
0.75723751
0.75748512
0.75729286
0.75706393
0.75633689
0.75641934
0.7734113
0.77315537
0.66875511
0.66873127
0.66875913
0.66883791
0.66896725
0.66914725
0.66937838
0.66966152
0.66999782
0.6703888
0.67083641
0.67134274
0.67191013
0.67254151
0.67323953
0.67400802
0.67484847
0.67576097
0.67674617
0.67780475
0.67893688
0.68014333
0.68142466
0.68278121
0.68421323
0.68572058
0.68730327
0.68895977
0.69069108
0.69250114
0.69439455
0.69637635
0.69845205
0.70062758
0.70290932
0.70530422
0.70781986
0.71046404
0.71324608
0.71617398
0.71926126
0.72251012
0.72591492
0.72946781
0.73315885
0.73697422
0.74089635
0.7449003
0.74895642
0.7530168
0.75702516
0.76089844
0.76452825
0.76778086
0.77045949
0.77248347
0.77386564
0.77463814
0.77491612
0.77470751
0.7744566
0.77364925
0.77368842
0.79251449
0.7922151
0.67301609
0.67296727
0.67298802
0.67307743
0.67323473
0.67345956
0.67375195
0.67411235
0.67454143
0.67504021
0.67561023
0.67625311
0.67697072
0.67776567
0.6786401
0.67959767
0.68063907
0.68176332
0.68297022
0.68425979
0.68563138
0.68708526
0.68862146
0.69023983
0.69194021
0.69372202
0.69558495
0.69752688
0.69954875
0.70165499
0.70385074
0.7061416
0.70853367
0.71103349
0.71364808
0.71638504
0.71925271
0.72225951
0.72541568
0.72872974
0.73221656
0.73587807
0.73970744
0.74369546
0.74783072
0.75209752
0.75647623
0.76093898
0.76545307
0.76996542
0.77441415
0.77870793
0.78272739
0.78632636
0.78928858
0.79152568
0.79305408
0.79390903
0.79421851
0.79399128
0.79371731
0.79282997
0.79281635
0.81357749
0.81323198
0.67860425
0.67853038
0.6785441
0.6786444
0.6788302
0.67910077
0.67945569
0.67989496
0.68041879
0.68102771
0.68172284
0.68250534
0.68337663
0.68433902
0.68539416
0.6865456
0.68779321
0.68913493
0.69056975
0.69209696
0.69371516
0.69542408
0.69722326
0.69911205
0.70108989
0.70315575
0.70530897
0.70754687
0.70987033
0.71228429
0.71479444
0.71740699
0.72012865
0.72296661
0.72592857
0.72902282
0.73225847
0.73564463
0.73919253
0.74291121
0.74681697
0.7509115
0.75518672
0.75963196
0.76423431
0.76897604
0.77383539
0.77878133
0.78377796
0.78876669
0.79367968
0.79841689
0.80284724
0.80681141
0.81007264
0.81253404
0.81421628
0.81515727
0.81549937
0.81525087
0.81495266
0.81399066
0.81390751
0.83671032
0.83631879
0.68545719
0.68556887
0.68578403
0.68610161
0.68652076
0.68704108
0.68766226
0.6883844
0.68920817
0.69013431
0.69116375
0.69229856
0.69353991
0.69489125
0.69635167
0.69791798
0.69958837
0.70136141
0.70323493
0.70520814
0.70728007
0.70944959
0.71171572
0.71407697
0.71653236
0.71907861
0.72171655
0.72445164
0.72729017
0.73023897
0.73330543
0.73649738
0.73982328
0.74329211
0.74691384
0.75069829
0.75465772
0.75880173
0.76314817
0.76769842
0.77244314
0.7773701
0.78246479
0.78770735
0.79307375
0.79852959
0.80403556
0.80952723
0.81493043
0.82013583
0.82500001
0.82934961
0.83292636
0.83562393
0.83746807
0.83849873
0.83887453
0.83860174
0.83827742
0.83723701
0.83709033
0.86203699
0.86159881
0.69376548
0.69388913
0.69413475
0.69450097
0.69498655
0.69559065
0.69631248
0.69715167
0.69810849
0.69918321
0.70037634
0.70168969
0.70312396
0.70468252
0.7063637
0.70816318
0.71007829
0.71210692
0.71424609
0.71649449
0.71885066
0.72131297
0.72388002
0.72654984
0.72932114
0.73219002
0.73515723
0.7382288
0.74141166
0.74471328
0.74814176
0.75170564
0.75541414
0.75927699
0.76330507
0.76750891
0.77190194
0.77649429
0.78130543
0.78633648
0.79157672
0.79701228
0.80262697
0.80839862
0.81430082
0.8202955
0.82633984
0.83236305
0.83828436
0.8439845
0.84930699
0.8540635
0.85797331
0.86091946
0.86293398
0.86405784
0.86446835
0.8641678
0.86381488
0.86268862
0.8624859
0.88969095
0.88920255
0.70351594
0.7036519
0.70392929
0.70434618
0.70490088
0.7055921
0.70641859
0.70737947
0.70847462
0.70970389
0.71106731
0.7125665
0.71420164
0.7159761
0.7178874
0.71993009
0.72210064
0.72439623
0.72681306
0.7293493
0.73200297
0.73477194
0.73765439
0.74064786
0.74375072
0.74695843
0.75027167
0.75369708
0.75724223
0.76091529
0.76472509
0.76868092
0.77279281
0.77707128
0.78152817
0.78617476
0.7910257
0.79609167
0.80139389
0.80693316
0.81269731
0.8186707
0.82483538
0.83116665
0.83763563
0.84420028
0.85081407
0.85739939
0.86386853
0.87009152
0.87589827
0.88108427
0.88534551
0.88855311
0.89074672
0.89196716
0.89241323
0.89208089
0.89169646
0.89047612
0.89021648
0.91980806
0.91926603
0.71491218
0.7152232
0.71569329
0.71632036
0.7171027
0.71803856
0.71912662
0.72036633
0.72175713
0.72329858
0.7249921
0.72683739
0.72883781
0.73099008
0.73328757
0.73572588
0.73830147
0.74100969
0.74384818
0.74681445
0.74990583
0.75312007
0.75645419
0.75990624
0.76347098
0.76714904
0.77094766
0.77487512
0.7789403
0.78315283
0.78752275
0.79206099
0.79677884
0.80168921
0.80680411
0.81213953
0.81770668
0.82352862
0.82960581
0.83592456
0.84246727
0.84921417
0.85613778
0.86320665
0.87037439
0.87759063
0.88477039
0.89181868
0.89859407
0.90491222
0.91055117
0.91518293
0.91866508
0.92104662
0.92236673
0.92284899
0.92248013
0.92206088
0.92073771
0.92041732
0.95253019
0.95193094
0.72773463
0.72808131
0.72860753
0.72931076
0.73018887
0.73123962
0.73246121
0.73385269
0.73541307
0.73714145
0.73903908
0.74110513
0.74334301
0.74574863
0.74831411
0.75103417
0.75390452
0.75691966
0.76007666
0.76337249
0.76680394
0.77036832
0.77406208
0.77788295
0.78182495
0.78588865
0.79008192
0.79441379
0.79889387
0.80353264
0.80834094
0.8133306
0.81851376
0.82390444
0.82951539
0.83536405
0.84146212
0.84783465
0.85448166
0.86138787
0.86853354
0.87589697
0.88344764
0.89115143
0.89895717
0.90681057
0.91461856
0.92227874
0.92963714
0.93649484
0.94261081
0.94763263
0.95140245
0.95398076
0.95540315
0.95592192
0.95551105
0.95505322
0.95361783
0.95323153
0.98800461
0.98734403
0.74219321
0.74257792
0.74316365
0.74394741
0.74492663
0.74609857
0.74746097
0.74901243
0.75075158
0.75267701
0.75478983
0.75708867
0.75957701
0.76224991
0.76509822
0.76811574
0.77129742
0.77463682
0.77813046
0.78177475
0.78556589
0.78950074
0.79357516
0.79778652
0.80212807
0.80660028
0.8112117
0.81597214
0.820892
0.8259826
0.83125564
0.83672391
0.84240041
0.84830033
0.85443718
0.86082992
0.86749074
0.87444679
0.88169757
0.8892261
0.8970103
0.90502644
0.91324065
0.92161604
0.93009622
0.93862285
0.94709409
0.95539992
0.96337274
0.97079876
0.97741609
0.98284775
0.98691812
0.98970187
0.99122847
0.99178373
0.99132444
0.99082377
0.9892659
0.98880768
1.0263824
1.0256559
0.75837174
0.75879722
0.75944633
0.7603156
0.761402
0.7627023
0.76421371
0.76593445
0.76786271
0.76999656
0.77233702
0.77488212
0.77763544
0.78059119
0.78373888
0.78707132
0.79058269
0.79426558
0.79811591
0.8021295
0.80630194
0.81062961
0.81510772
0.81973327
0.82449869
0.82940433
0.83445946
0.83967467
0.84506119
0.85063126
0.85639742
0.86237351
0.86857336
0.87501345
0.881708
0.88867763
0.89593494
0.9035093
0.91139962
0.9195871
0.92804707
0.93675368
0.94566934
0.95475437
0.96394655
0.97318351
0.98235377
0.99133966
0.99995867
1.0079821
1.015125
1.0209862
1.0253694
1.0283669
1.0299988
1.03059
1.0300749
1.0295266
1.027835
1.0272982
1.0678169
1.0670193
0.7763643
0.77683371
0.77755059
0.778511
0.77971143
0.7811481
0.78281775
0.78471813
0.78684704
0.789202
0.79178392
0.79459024
0.79762466
0.80088048
0.80434581
0.80801244
0.81187371
0.8159212
0.8201502
0.8245559
0.82913323
0.83387806
0.83878489
0.84385036
0.84906597
0.85443194
0.85995829
0.86565645
0.87153847
0.87761757
0.88390714
0.89042212
0.89717719
0.90419019
0.91147601
0.91905705
0.92694624
0.93517535
0.9437425
0.95262701
0.9618013
0.97123735
0.98089342
0.99072699
1.0006694
1.0106544
1.0205597
1.0302603
1.0395571
1.0482068
1.0558989
1.0622089
1.0669162
1.0701353
1.0718727
1.0724987
1.0719192
1.0713179
1.0694803
1.0688574
1.1124611
1.1115871
0.79627575
0.79679268
0.79758229
0.79864011
0.79996219
0.80154418
0.80338229
0.80547381
0.80781613
0.81040619
0.81324483
0.81632885
0.81966207
0.82323685
0.82703983
0.83106169
0.83529494
0.83973002
0.84436156
0.84918412
0.85419187
0.85938016
0.86474272
0.87027575
0.87596979
0.88182492
0.88785187
0.89406298
0.90047114
0.90709059
0.91393558
0.92102221
0.928366
0.93598621
0.94389838
0.95212678
0.96068462