/*--------------------------------*- C++ -*----------------------------------*\
| =========                 |                                                 |
| \\      /  F ield         | OpenFOAM: The Open Source CFD Toolbox           |
|  \\    /   O peration     | Version:  2.4.0                                 |
|   \\  /    A nd           | Web:      www.OpenFOAM.org                      |
|    \\/     M anipulation  |                                                 |
\*---------------------------------------------------------------------------*/
FoamFile
{
    version     2.0;
    format      ascii;
    class       volScalarField;
    location    "20000";
    object      p;
}
// * * * * * * * * * * * * * * * * * * * * * * * * * * * * * * * * * * * * * //

dimensions      [0 2 -2 0 0 0 0];

internalField   nonuniform List<scalar> 
9793
(
0.24185509
0.23943073
0.23683006
0.23405432
0.23110328
0.2395434
0.2370952
0.23447836
0.23169495
0.2287456
0.22563191
0.22235642
0.21892245
0.21533384
0.21159415
0.20771771
0.20371409
0.19958947
0.19535448
0.19102238
0.18660827
0.18212939
0.17760483
0.17305493
0.16850144
0.16396641
0.1594724
0.15504356
0.15068373
0.14640879
0.14223336
0.13816466
0.13421913
0.13038812
0.12655854
0.1227098
0.11895272
0.11532928
0.11180893
0.10837001
0.10498068
0.10161678
0.25312334
0.25219475
0.25112866
0.2499203
0.24856603
0.24706266
0.24540683
0.24359694
0.24162129
0.23947991
0.23717693
0.23471298
0.23208847
0.22930618
0.22636752
0.22327481
0.22003126
0.2166408
0.2131078
0.20943643
0.20564072
0.20173031
0.19771158
0.19359494
0.18939316
0.18512056
0.18079329
0.176429
0.17204629
0.16766485
0.16330451
0.15898546
0.1547292
0.15053867
0.14642781
0.14240922
0.13849082
0.13468853
0.13096801
0.12723915
0.12350144
0.11987064
0.11636294
0.11294908
0.10961009
0.10631623
0.10304525
0.25107484
0.25009767
0.24898385
0.24772925
0.24633086
0.24478615
0.24309246
0.24124883
0.23924498
0.23708168
0.23476362
0.23229222
0.22966861
0.2268962
0.22397708
0.2209142
0.21771129
0.21437276
0.2109034
0.20730782
0.20359963
0.19978837
0.19588048
0.19188603
0.18781716
0.18368735
0.17951157
0.17530602
0.17108765
0.16687422
0.16268352
0.15853362
0.15444371
0.15041605
0.14646265
0.14259463
0.13882312
0.13515892
0.1315323
0.12789325
0.12427426
0.1207691
0.11737421
0.11406429
0.11082303
0.1076227
0.10444297
0.2512217
0.2505841
0.24982202
0.24893136
0.24790865
0.24675078
0.24545423
0.24401662
0.24243607
0.24071062
0.23883989
0.23681503
0.23463746
0.23231236
0.2298418
0.22722759
0.22447367
0.22158269
0.2185581
0.21540407
0.21212536
0.20872703
0.20521398
0.20159929
0.19789226
0.19409928
0.19022994
0.18629569
0.18230909
0.17828391
0.17423497
0.17017762
0.16612784
0.16210158
0.15811504
0.15418536
0.15031426
0.14651196
0.14278974
0.13916209
0.13562079
0.13208227
0.1285281
0.12503294
0.12164903
0.11836303
0.11515429
0.11200847
0.10889974
0.10580951
0.24912345
0.24844052
0.24763378
0.24669955
0.24563484
0.24443707
0.24310333
0.24163184
0.24002135
0.23827055
0.23637963
0.23434111
0.23215701
0.22983289
0.2273714
0.22477495
0.22204788
0.21919332
0.21621511
0.21311772
0.20990614
0.20658557
0.20316106
0.19964503
0.19604646
0.19237154
0.18862935
0.18483056
0.18098677
0.17711062
0.17321556
0.16931543
0.16542463
0.16155743
0.15772836
0.15395279
0.15023187
0.14657461
0.14299444
0.13950316
0.13605927
0.13260475
0.12914738
0.12577697
0.12250937
0.11932887
0.11621881
0.11316624
0.11014713
0.10714463
0.10419698
0.10131457
0.098512381
0.24693897
0.24621261
0.24536369
0.24438894
0.24328591
0.24205252
0.24068646
0.23918651
0.23755201
0.23578226
0.23387806
0.23183318
0.22965017
0.22733492
0.22489056
0.22231998
0.21962784
0.21681761
0.2138934
0.21085987
0.20772208
0.20448526
0.20115446
0.19774138
0.19425455
0.19069991
0.18708594
0.18342253
0.17972034
0.17599088
0.17224631
0.16849913
0.16476224
0.16104846
0.15737083
0.15374307
0.15016588
0.14664874
0.14320685
0.1398345
0.13647067
0.13309233
0.12975029
0.12650459
0.12334929
0.12027144
0.11725768
0.11429614
0.11136468
0.10844811
0.10558145
0.10277491
0.10004237
0.24468194
0.24391407
0.24302538
0.24201305
0.24087515
0.23961013
0.23821625
0.23669287
0.23503992
0.2332573
0.23134635
0.22930208
0.22712747
0.22482864
0.2224091
0.21987207
0.21722242
0.21446384
0.21160056
0.20863728
0.20557905
0.20243098
0.199198
0.19589103
0.19251809
0.18908481
0.18559905
0.18206992
0.17850715
0.1749212
0.17132306
0.16772397
0.16413552
0.16056924
0.15703688
0.15355065
0.15011185
0.14673213
0.14342039
0.1401382
0.13684372
0.13355651
0.13034147
0.12721589
0.12416835
0.12119021
0.11827025
0.11539753
0.11255179
0.10971943
0.10693239
0.10420066
0.1015371
0.24529028
0.24500599
0.24469338
0.24445605
0.24411128
0.24364331
0.24306384
0.24237311
0.24156702
0.24064236
0.23959684
0.238429
0.23713782
0.23572216
0.23418193
0.2325176
0.23072961
0.22881978
0.22678417
0.22462613
0.22235189
0.21996518
0.21746946
0.21486963
0.2121695
0.20937329
0.20648567
0.20351152
0.20045583
0.19732334
0.19412417
0.19086583
0.18755357
0.18419465
0.18079742
0.17737076
0.17392412
0.17046744
0.16701081
0.16356466
0.16013941
0.15674575
0.15339517
0.15009099
0.14684227
0.14363149
0.14041547
0.1371982
0.13402812
0.13093723
0.12792375
0.12497846
0.12209561
0.11926525
0.11647733
0.11371354
0.1109619
0.10825171
0.10559268
0.10299688
0.24323897
0.24291935
0.24257001
0.24228823
0.24190333
0.24139728
0.24078114
0.24005565
0.23921723
0.23826322
0.23719177
0.23600191
0.23469307
0.2332646
0.23171686
0.23005073
0.22826711
0.22636812
0.22435058
0.2222181
0.2199769
0.21763079
0.21518334
0.21263943
0.21000287
0.20727784
0.20446888
0.20158075
0.19861823
0.19558586
0.19249309
0.18934689
0.18615217
0.1829156
0.17964483
0.17634794
0.1730335
0.16971047
0.16638795
0.16307537
0.1597822
0.15651903
0.1532975
0.15011883
0.14697289
0.14382767
0.14068054
0.13756622
0.1345183
0.1315411
0.12863019
0.12577963
0.1229851
0.12023753
0.11752792
0.11483987
0.11216293
0.10952431
0.10693351
0.10440206
0.24194941
0.24175924
0.24152193
0.24123445
0.24088115
0.2404961
0.24017147
0.23974756
0.23920591
0.2385568
0.23780112
0.23693573
0.23595833
0.23486744
0.23366243
0.23234309
0.2309091
0.22936118
0.22770048
0.22592817
0.22404661
0.22205322
0.21995169
0.21774816
0.21544648
0.21305023
0.21056424
0.20799226
0.20533842
0.20260713
0.19980296
0.19693049
0.19399404
0.19100242
0.18796211
0.18487768
0.18175528
0.17860192
0.17542495
0.17223219
0.16903176
0.16583201
0.16264145
0.1594693
0.15632807
0.15322444
0.15014379
0.14706117
0.14397963
0.14092763
0.13793045
0.13499444
0.13211846
0.1293005
0.12653645
0.12382268
0.12115096
0.11851332
0.11589505
0.11328686
0.11071423
0.10818634
0.10571432
0.24012228
0.23990061
0.23963186
0.23931323
0.23892991
0.23851323
0.23814954
0.23768921
0.23711488
0.23643603
0.2356536
0.23476492
0.23376804
0.23266179
0.23144579
0.23012008
0.22868465
0.22714045
0.22548884
0.22373113
0.22186988
0.21990304
0.21783435
0.21566978
0.21341318
0.21106812
0.20863931
0.20613042
0.20354546
0.20088867
0.19816444
0.19537712
0.19253081
0.18963366
0.1866917
0.18370917
0.18069175
0.17764591
0.17457829
0.17149612
0.16840683
0.16531854
0.16223902
0.15917797
0.15614733
0.15313412
0.15011289
0.14709588
0.14410914
0.14116788
0.13827736
0.13543893
0.13265301
0.12991901
0.12723351
0.12459333
0.12199104
0.11941956
0.11686562
0.11432084
0.11180903
0.10933899
0.10692145
0.2383716
0.23812107
0.23782359
0.23747665
0.2370663
0.2366213
0.23622243
0.23572931
0.23512594
0.23442117
0.23361584
0.23270764
0.23169496
0.23057693
0.22935342
0.22802469
0.22659097
0.22505339
0.2234135
0.22167277
0.21983384
0.21789508
0.21586028
0.21373524
0.21152373
0.20922923
0.2068563
0.20440851
0.20188972
0.19930399
0.19665548
0.19394833
0.19118638
0.18837718
0.18552633
0.18263775
0.17971672
0.17676924
0.17380135
0.17082002
0.16783217
0.1648475
0.16187204
0.15891402
0.15595923
0.15300236
0.1500522
0.14713274
0.14424994
0.14140788
0.13860956
0.13585728
0.1331522
0.13049402
0.12787969
0.12530642
0.12276747
0.12025652
0.11776156
0.11527498
0.11281896
0.11040195
0.10803428
0.23669727
0.23642042
0.23609685
0.23572427
0.23528955
0.23481909
0.23438854
0.23386608
0.23323712
0.23250997
0.23168539
0.23076125
0.22973627
0.2286098
0.22738194
0.22605316
0.22462386
0.22309534
0.22146929
0.21974731
0.2179321
0.21602234
0.21402182
0.21193617
0.20976903
0.20752379
0.20520484
0.2028156
0.20035981
0.19784133
0.19526407
0.19263195
0.1899486
0.18722096
0.18445418
0.18165198
0.17881922
0.17596175
0.17308509
0.17019756
0.16730431
0.16441799
0.16153407
0.15864354
0.15574916
0.15286908
0.15001659
0.14719239
0.14440006
0.1416438
0.13892701
0.13625202
0.13361986
0.13103027
0.1284805
0.12596811
0.12348697
0.12103141
0.11859051
0.11615732
0.11375252
0.11138417
0.10906224
0.23509878
0.2347978
0.23445043
0.23405458
0.23359786
0.23310448
0.23264531
0.23209658
0.23144503
0.23069853
0.22985771
0.22892067
0.22788634
0.22675427
0.22552475
0.22419838
0.22277573
0.22125824
0.21964768
0.2179457
0.21615505
0.2142747
0.21230837
0.2102615
0.20813764
0.20594004
0.20367287
0.20133941
0.1989433
0.19648818
0.19397768
0.19141551
0.18880516
0.18615286
0.18346346
0.18074054
0.17798893
0.17521574
0.17242444
0.16962762
0.16682702
0.16401249
0.16119084
0.15836874
0.15556251
0.15277498
0.15000865
0.14726643
0.14455348
0.14187389
0.13923052
0.13662528
0.13405905
0.13153162
0.12904051
0.12658361
0.12415528
0.12175042
0.1193591
0.11697495
0.11461721
0.11229356
0.11001368
0.23357506
0.23325192
0.23288275
0.23246569
0.23198905
0.23147499
0.23098986
0.23041747
0.22974592
0.22898261
0.22812809
0.22718062
0.22613933
0.22500394
0.22377485
0.2224528
0.22103848
0.2195334
0.21793942
0.21625822
0.21449251
0.21264153
0.21070891
0.20869992
0.20661801
0.20446625
0.20224854
0.19996802
0.19762824
0.19523269
0.19278454
0.19028733
0.18774466
0.18516185
0.18254441
0.17989609
0.1772211
0.17453145
0.17182839
0.16910448
0.16636919
0.16362124
0.16087563
0.15814161
0.1554176
0.15270877
0.15001776
0.1473492
0.14470811
0.14209789
0.13952088
0.13697874
0.13447227
0.1320013
0.12956363
0.12715736
0.12477733
0.12241895
0.12007315
0.11773407
0.11541964
0.11313715
0.11089599
0.23212472
0.23178113
0.23139195
0.23095551
0.23046077
0.22992798
0.22941923
0.22882546
0.22813612
0.22735814
0.22649198
0.22553608
0.22448974
0.22335281
0.22212578
0.22080946
0.21940466
0.21791295
0.21633622
0.21467617
0.21293544
0.21111344
0.20921376
0.20724149
0.20519997
0.20309213
0.20092145
0.19869088
0.19640398
0.19406419
0.19167397
0.18923743
0.18675932
0.18424241
0.18169453
0.17912347
0.17652906
0.17390851
0.17127066
0.16861303
0.1659481
0.16328426
0.16061797
0.15795593
0.15530201
0.15266273
0.15004023
0.14743883
0.14486301
0.14231563
0.13979876
0.13731386
0.1348617
0.13244215
0.13005323
0.12769325
0.12535747
0.12304174
0.12073778
0.11844022
0.1161657
0.11392115
0.11171576
0.23074595
0.23038343
0.22997583
0.22952164
0.22901042
0.22846062
0.22793028
0.22731708
0.22661184
0.22582102
0.22494495
0.22398228
0.22293243
0.22179535
0.22057161
0.21926207
0.2178676
0.21638983
0.21483067
0.21319183
0.21147583
0.20968221
0.20781448
0.20587751
0.20387452
0.20180843
0.19968208
0.1974984
0.19526158
0.19297549
0.19064034
0.18826211
0.18585035
0.18340606
0.18092756
0.17842109
0.17589157
0.17333581
0.17076421
0.16818493
0.16559393
0.16299663
0.16039604
0.15779842
0.15520891
0.15263352
0.1500738
0.1475337
0.14501723
0.14252696
0.14006475
0.13763195
0.13522928
0.13285666
0.1305123
0.12819471
0.12589953
0.12362299
0.12135755
0.11909827
0.11686061
0.11465111
0.1124788
0.22943761
0.22905736
0.22863254
0.22816184
0.22763535
0.22706986
0.22651961
0.22588867
0.22516914
0.22436704
0.22348258
0.22251453
0.22146244
0.22032633
0.21910681
0.21780478
0.21642116
0.21495759
0.21341601
0.21179815
0.21010629
0.20834011
0.20650308
0.2045999
0.20263403
0.20060873
0.19852497
0.19638591
0.19419851
0.19196947
0.18969693
0.18738145
0.1850281
0.18264357
0.18022869
0.17778453
0.1753186
0.17283506
0.17033078
0.16781204
0.16528118
0.1627434
0.16020315
0.1576656
0.15513568
0.1526189
0.15011659
0.1476324
0.14517004
0.14273183
0.14031946
0.13793421
0.13557674
0.13324704
0.13094348
0.12866477
0.12640689
0.12416643
0.1219365
0.11971258
0.11750901
0.11533194
0.11319031
0.22820121
0.22780379
0.22736205
0.2268751
0.22633364
0.22575307
0.22518433
0.22453738
0.22380509
0.22299293
0.22210119
0.22112878
0.22007533
0.21894091
0.21772621
0.21643216
0.21505974
0.21361062
0.21208685
0.21049033
0.20882237
0.20708262
0.20527506
0.2034048
0.20147649
0.19949543
0.19746087
0.19537234
0.1932375
0.19105899
0.18884082
0.18658494
0.18428891
0.18196005
0.17960739
0.17722728
0.1748199
0.17239065
0.16994155
0.16747763
0.16500261
0.16252088
0.16003672
0.15755475
0.15507965
0.15261661
0.15016687
0.14773386
0.14532096
0.14293032
0.14056351
0.13822173
0.13590563
0.13361524
0.13134912
0.12910612
0.12688256
0.12467535
0.12247822
0.12028704
0.11811505
0.11596804
0.11385489
0.2270465
0.22663004
0.22617041
0.22566645
0.22510904
0.22451252
0.22392565
0.22326405
0.22252035
0.22169889
0.22080039
0.21982409
0.21876975
0.21763751
0.21642807
0.21514241
0.21378159
0.21234745
0.21084268
0.20927022
0.20763041
0.2059213
0.20414773
0.20231498
0.200427
0.19848542
0.1964943
0.19445652
0.19237423
0.19024477
0.18807511
0.18587281
0.18363414
0.18135965
0.17905612
0.1767245
0.17436708
0.17198809
0.16959061
0.16717862
0.16475579
0.16232615
0.1598938
0.15746309
0.15503846
0.1526248
0.15022331
0.14783721
0.14546963
0.14312255
0.14079746
0.13849551
0.13621734
0.13396304
0.13173133
0.12952123
0.12732933
0.12515283
0.12298605
0.1208252
0.1186825
0.11656337
0.11447671
0.22456255
0.22399103
0.22337931
0.22277191
0.22209043
0.22133168
0.2205001
0.21959531
0.21861619
0.21756241
0.21643411
0.21523193
0.21395687
0.21260999
0.21119313
0.20970847
0.20815731
0.2065426
0.20486491
0.20312783
0.20133484
0.19948712
0.19758349
0.19563081
0.19363634
0.19159942
0.18951847
0.18739526
0.18523547
0.18303946
0.18081
0.17855155
0.17626598
0.1739559
0.17162469
0.16927548
0.16691188
0.16453747
0.16215607
0.15977162
0.15738823
0.15501013
0.15264192
0.15028479
0.14794177
0.14561578
0.14330867
0.1410219
0.13875656
0.13651328
0.13429221
0.13209221
0.12991242
0.12774972
0.12560159
0.12346289
0.12133015
0.11921465
0.1171214
0.11505941
0.11302426
0.11108971
0.22354952
0.22296805
0.22234551
0.22172224
0.22102499
0.22025409
0.21941443
0.21850474
0.21752374
0.21647122
0.21534742
0.21415308
0.21288923
0.2115569
0.2101576
0.20869244
0.20716136
0.205569
0.20391832
0.20221123
0.20045034
0.19863694
0.19677145
0.19485672
0.19289779
0.19089602
0.18885226
0.18676864
0.18464864
0.1824936
0.18030675
0.17809137
0.17584945
0.17358364
0.17129703
0.16899272
0.16667408
0.1643446
0.16200792
0.1596678
0.15732816
0.154993
0.15266668
0.15035042
0.14804708
0.14575938
0.14348909
0.14123759
0.13900593
0.13679474
0.13460423
0.13243339
0.1302815
0.12814571
0.12602378
0.12391106
0.12180443
0.11971423
0.11764508
0.11560616
0.11359074
0.1116781
0.22259424
0.22200499
0.22137503
0.22074296
0.22003907
0.21926272
0.21841864
0.21750634
0.21652499
0.21547457
0.21435546
0.21316847
0.21191464
0.21059498
0.20921094
0.20776386
0.20625455
0.20468571
0.20305903
0.20137689
0.19964216
0.1978565
0.19602131
0.19413933
0.19221368
0.19024614
0.18823827
0.18619215
0.18411029
0.18199425
0.17984729
0.17767226
0.17547117
0.17324665
0.17100162
0.16873909
0.16646228
0.16417454
0.16187935
0.15958034
0.15728121
0.15498579
0.15269819
0.15041967
0.14815292
0.14590049
0.14366407
0.14144498
0.13924426
0.13706254
0.13490009
0.13275606
0.13062985
0.12851892
0.12642124
0.12433266
0.12225037
0.12018379
0.11813713
0.11611985
0.11412259
0.11223153
0.22169508
0.22109902
0.22046247
0.21982206
0.21911193
0.21833127
0.21748455
0.21657155
0.21559163
0.21454483
0.21343151
0.21225248
0.21100872
0.20970118
0.20833128
0.20690047
0.20541002
0.20386237
0.20225838
0.20060044
0.19889145
0.19713313
0.19532718
0.19347617
0.19158239
0.1896477
0.18767386
0.18566286
0.18361683
0.18153742
0.17942777
0.17729049
0.1751276
0.17294163
0.17073541
0.16851184
0.166274
0.16402511
0.1617685
0.15950765
0.15724608
0.15498742
0.1527356
0.15049186
0.1482588
0.14603881
0.14383352
0.1416442
0.13947189
0.13731728
0.13518069
0.13306142
0.13095897
0.12887107
0.12679593
0.12472984
0.12267025
0.12062575
0.11860009
0.11660315
0.11462258
0.11275297
0.22084962
0.22024776
0.21960554
0.21895754
0.21824175
0.21745746
0.21660884
0.21569579
0.21471778
0.21367494
0.21256763
0.21139666
0.21016298
0.20886754
0.2075117
0.20609697
0.20462471
0.20309721
0.201515
0.19988039
0.19819617
0.1964641
0.1946859
0.19286398
0.19100028
0.18909664
0.18715485
0.1851768
0.18316445
0.18111941
0.17904472
0.17694284
0.1748157
0.17266581
0.17049586
0.16830866
0.16610713
0.16389438
0.16167361
0.15944814
0.15722133
0.15499665
0.15277783
0.15056614
0.14836409
0.14617397
0.14399735
0.14183548
0.13968941
0.13755985
0.13544718
0.13335082
0.1312704
0.12920387
0.12714965
0.12510447
0.12306608
0.12104221
0.11903619
0.11705842
0.11509314
0.1132451
0.2200549
0.21944811
0.2188011
0.21814636
0.21742567
0.21663844
0.21578861
0.21487609
0.21390047
0.21286191
0.21176083
0.21059799
0.20937436
0.20809084
0.2067488
0.2053497
0.20389493
0.20238663
0.20082521
0.19921286
0.19755228
0.19584517
0.19409324
0.19229875
0.19046344
0.18858911
0.18667752
0.18473047
0.18274979
0.18073707
0.1786952
0.17662649
0.17453284
0.17241667
0.17028059
0.16812727
0.16595954
0.16378038
0.16159286
0.15940015
0.1572055
0.15501223
0.15282391
0.15064185
0.14846846
0.14630596
0.14415585
0.14201939
0.13989758
0.13779118
0.1357006
0.13362543
0.13156537
0.12951865
0.12748386
0.12545817
0.12343958
0.12143506
0.1194474
0.11748775
0.11553646
0.11371033
0.21930801
0.21869707
0.21804603
0.21738534
0.21666046
0.21587097
0.21502051
0.21410903
0.21313618
0.21210217
0.21100745
0.20985276
0.20863906
0.20736723
0.20603861
0.20465463
0.20321664
0.20172666
0.20018507
0.19859395
0.19695587
0.19527249
0.19354545
0.19177688
0.18996841
0.18812176
0.18623864
0.18432075
0.18236984
0.18038747
0.17837635
0.1763387
0.17427637
0.1721917
0.17008718
0.1679654
0.16582911
0.16368118
0.16152455
0.15936227
0.15719747
0.15503334
0.1528733
0.15071871
0.14857189
0.14643495
0.14430935
0.14219633
0.14009693
0.13801192
0.13594176
0.13388617
0.13184497
0.12981662
0.12779991
0.12579239
0.12379233
0.12180595
0.1198355
0.11789303
0.11595449
0.11415083
0.11198725
0.11150719
0.099761558
0.2186062
0.21799178
0.21733739
0.21667146
0.21594306
0.21515188
0.21430128
0.21339124
0.21242147
0.21139221
0.21030392
0.20915735
0.20795341
0.206693
0.2053774
0.20400802
0.20258614
0.20111368
0.19959102
0.19802014
0.19640348
0.19474262
0.19303913
0.19129506
0.18951194
0.1876914
0.18583506
0.18394459
0.18202165
0.18006772
0.1780854
0.1760768
0.17404375
0.17198851
0.16991347
0.16782114
0.16571417
0.16359533
0.16146748
0.15933354
0.1571965
0.15505945
0.15292562
0.15079646
0.14867421
0.14656089
0.14445795
0.1423666
0.1402879
0.13822264
0.13617137
0.1341339
0.13211017
0.13009887
0.12809898
0.12610843
0.12412573
0.12215638
0.12020205
0.11827593
0.11634892
0.11456843
0.11237467
0.11207526
0.10002252
0.21794688
0.21732957
0.21667244
0.21600192
0.21527058
0.21447819
0.21362789
0.21271961
0.21175316
0.2107288
0.20964697
0.20850844
0.2073141
0.20606481
0.20476182
0.20340647
0.20200002
0.20054431
0.1990397
0.19748809
0.19589177
0.19425226
0.19257108
0.19085015
0.18909092
0.18729494
0.1854638
0.1835991
0.18170242
0.1797752
0.17781989
0.17583853
0.17383291
0.17180521
0.16975776
0.16769297
0.16561339
0.1635217
0.16142064
0.15931304
0.15720179
0.15508985
0.15298033
0.15087471
0.14877521
0.14668375
0.14460175
0.14253044
0.14047087
0.13842389
0.13639007
0.13436939
0.13236185
0.1303664
0.12838216
0.12640746
0.12444104
0.12248772
0.12054849
0.11863795
0.11672125
0.11496461
0.11273701
0.1126174
0.10027296
0.21732756
0.21670791
0.21604856
0.21537403
0.21464027
0.21384712
0.21299745
0.21209122
0.21112826
0.21010888
0.20903351
0.2079029
0.20671793
0.20547943
0.20418861
0.20284677
0.20145511
0.20001537
0.19852795
0.19699463
0.1954176
0.19379831
0.19213823
0.19043915
0.18870246
0.18692965
0.18512225
0.18328179
0.18140981
0.17950771
0.17757779
0.17562201
0.17364211
0.17164021
0.16961855
0.16757947
0.16552545
0.16345906
0.16138295
0.15929985
0.15721256
0.15512393
0.15303694
0.15095315
0.14887471
0.14680348
0.14474086
0.14268808
0.14064622
0.13861613
0.13659847
0.13459334
0.13260081
0.13062007
0.12865043
0.12669055
0.1247394
0.12280116
0.12087608
0.11898043
0.1170728
0.11534069
0.11307566
0.11313639
0.10050321
0.21546329
0.21478527
0.21404955
0.21325599
0.21240724
0.21150327
0.21054394
0.20952957
0.20846061
0.20733777
0.20616191
0.20493386
0.20365476
0.20232589
0.20094837
0.19952388
0.19805281
0.1965369
0.19497818
0.19337805
0.19173791
0.19005949
0.1883441
0.18659317
0.18480817
0.18299056
0.18114182
0.17926331
0.17735722
0.17542543
0.17346962
0.17149186
0.16949432
0.16747927
0.1654491
0.16340629
0.16135342
0.15929312
0.15722811
0.15516113
0.15309505
0.15103149
0.14897256
0.14692007
0.14487538
0.14283975
0.14081426
0.13879981
0.1367971
0.13480636
0.13282776
0.13086071
0.12890466
0.12695865
0.12502184
0.12309783
0.12118598
0.11930459
0.11740479
0.11569789
0.11339189
0.11363387
0.10071342
0.2149143
0.21423326
0.21349597
0.21270232
0.21185474
0.21095319
0.20999758
0.20898823
0.20792559
0.20681036
0.20564336
0.20442539
0.20315758
0.20184113
0.20047713
0.19906717
0.19761169
0.19611232
0.194571
0.19298905
0.19136781
0.18970891
0.18801364
0.18628334
0.18451943
0.18272332
0.18089643
0.1790401
0.17715638
0.17524708
0.17331385
0.1713587
0.16938372
0.16739112
0.16538321
0.1633624
0.16133118
0.15929211
0.15724781
0.15520094
0.15315426
0.15110946
0.14906862
0.14703348
0.1450054
0.14298563
0.14097529
0.13897531
0.13698644
0.13500904
0.13304336
0.13108904
0.12914567
0.12721264
0.12528931
0.12337871
0.12147923
0.11961154
0.11771832
0.11603738
0.11368691
0.11411097
0.10090548
0.14339099
0.19372299
0.21439939
0.21371575
0.21297726
0.2121838
0.21133759
0.21043859
0.20948676
0.2084824
0.20742598
0.20631817
0.20515976
0.20395154
0.20269458
0.20139003
0.20003896
0.19864286
0.19720221
0.19571856
0.19419374
0.192629
0.19102564
0.1893852
0.1877089
0.18599806
0.18425403
0.18247816
0.18067182
0.17883632
0.17697362
0.17508541
0.17317335
0.17123936
0.16928549
0.16731387
0.16532675
0.16332647
0.16131543
0.15929612
0.15727108
0.15524291
0.15321424
0.15118684
0.14916276
0.14714369
0.14513098
0.1431259
0.14112958
0.13914299
0.13716694
0.1352019
0.13324821
0.13130572
0.12937418
0.12745333
0.12554265
0.12364473
0.12175681
0.11990231
0.11801443
0.11636022
0.11396192
0.11456869
0.10108093
0.14365316
0.19421972
0.21391651
0.21323064
0.21249127
0.21169823
0.21085356
0.20995722
0.20900919
0.20800978
0.20695945
0.20585886
0.20470877
0.20350994
0.2022634
0.20097025
0.19963152
0.19824863
0.19682209
0.19535337
0.19384418
0.19229576
0.19070931
0.18908631
0.18742793
0.18573544
0.18401013
0.18225331
0.18046631
0.17865039
0.17680741
0.17493901
0.17304678
0.17113261
0.16919849
0.16724649
0.16527879
0.16329766
0.16130543
0.15930453
0.15729742
0.15528662
0.15327466
0.1512634
0.14925487
0.14725068
0.14525222
0.14326073
0.14127739
0.13930319
0.137339
0.13538542
0.13344285
0.13151139
0.12959088
0.12768144
0.12578267
0.12389674
0.12201958
0.12017783
0.11829406
0.1166674
0.11421807
0.11500795
0.1012411
0.1438978
0.19469693
0.21346372
0.21277594
0.21203596
0.21124355
0.21040055
0.20950694
0.20856271
0.20756819
0.20652382
0.20543023
0.20428818
0.20309838
0.20186184
0.2005796
0.19925265
0.19788234
0.19646921
0.19501466
0.19352031
0.19198733
0.19041687
0.18881035
0.18716889
0.1854937
0.18378604
0.18204716
0.18027834
0.17848083
0.17665638
0.17480655
0.17293293
0.17103733
0.16912169
0.16718803
0.16523847
0.16327521
0.16130053
0.15931677
0.15732634
0.15533168
0.15333525
0.15133897
0.14934484
0.14735445
0.14536917
0.14339028
0.14141894
0.13945622
0.137503
0.13556005
0.1336278
0.13170659
0.12979638
0.12789765
0.12601008
0.12413551
0.12226835
0.12043899
0.11855807
0.11695985
0.11445644
0.11542961
0.10138712
0.14412617
0.1951555
0.21303916
0.21234978
0.21160943
0.21081781
0.20997659
0.20908575
0.2081453
0.20715559
0.20611703
0.20503024
0.20389593
0.20271482
0.20148786
0.20021605
0.19890033
0.197542
0.19614161
0.19470052
0.19322024
0.19170187
0.19014654
0.18855559
0.1869301
0.18527123
0.18358019
0.1818582
0.18010649
0.17832629
0.17651924
0.17468685
0.17283066
0.17095246
0.16905413
0.16713762
0.16520501
0.16325843
0.1613001
0.15933232
0.15735741
0.15537776
0.15339574
0.15141336
0.14943258
0.14745499
0.14548192
0.14351468
0.14155445
0.13960235
0.1376593
0.13572619
0.13380351
0.13189185
0.12999126
0.12810258
0.12622554
0.12436175
0.12250388
0.12068657
0.11880729
0.11723841
0.11467804
0.11583446
0.10152002
0.14433943
0.19559632
0.21120987
0.21041919
0.20957982
0.20869177
0.20775509
0.20677008
0.20573717
0.20465695
0.20353011
0.20235735
0.20113956
0.19987771
0.19857271
0.19722577
0.19583749
0.19440917
0.19294221
0.19143769
0.18989667
0.18832043
0.18671001
0.18506653
0.18339116
0.18168507
0.17994946
0.17818553
0.17639483
0.1745788
0.17273897
0.17087707
0.16899493
0.16709446
0.16517768
0.16324668
0.16130361
0.1593507
0.15739024
0.15542455
0.1534559
0.15148641
0.14951803
0.14755228
0.14559052
0.14363407
0.14168413
0.13974185
0.13780821
0.13588422
0.13397043
0.13206766
0.13017604
0.12829681
0.12642968
0.12457613
0.12272684
0.12092134
0.11904245
0.11750388
0.1148838
0.11622327
0.10164067
0.14453863
0.1960203
0.21083561
0.21004597
0.20920852
0.20832327
0.20739029
0.20640988
0.20538245
0.20430859
0.20318894
0.20202418
0.20081516
0.19956282
0.19826803
0.19693193
0.19555517
0.19413896
0.19268463
0.1911932
0.18966572
0.18810338
0.18650718
0.18487822
0.18321761
0.1815265
0.17980603
0.1780574
0.17628205
0.17448139
0.17265689
0.17081026
0.16894328
0.16705782
0.16515584
0.16323937
0.16131053
0.15937149
0.15742447
0.15547176
0.15351554
0.15155801
0.14960111
0.14764634
0.14569505
0.14374858
0.14180816
0.13987497
0.13795004
0.13603451
0.13412896
0.13223447
0.13035123
0.12848089
0.12662307
0.12477928
0.12293787
0.12114399
0.11926426
0.117757
0.11507459
0.1165968
0.1017498
0.14472481
0.19642834
0.21048507
0.20969655
0.20886106
0.2079786
0.20704925
0.20607333
0.20505122
0.20398348
0.20287074
0.20171365
0.20051303
0.19926977
0.1979847
0.19665891
0.19529308
0.19388835
0.19244599
0.19096697
0.18945228
0.18790306
0.1863203
0.18470503
0.18305833
0.18138131
0.17967509
0.17794085
0.17617993
0.17439368
0.17258357
0.17075125
0.16889846
0.16702704
0.16513888
0.16323599
0.16132042
0.15939429
0.15745978
0.15551913
0.15357444
0.15162801
0.14968176
0.14773716
0.14579557
0.14385834
0.14192673
0.14000195
0.13808508
0.13617739
0.13427949
0.13239271
0.13051728
0.12865531
0.12680624
0.12497177
0.12313756
0.12135518
0.11947335
0.11799847
0.11525118
0.11695581
0.10184799
0.14489889
0.1968214
0.20936942
0.20853591
0.20765622
0.20673044
0.20575887
0.20474191
0.20368007
0.20257397
0.20142423
0.20023164
0.19899703
0.19772122
0.19640523
0.19504976
0.19365594
0.19222491
0.19075762
0.18925504
0.18771822
0.18614813
0.18454577
0.18291218
0.18124843
0.17955562
0.1778349
0.17608754
0.17431482
0.1725182
0.17069929
0.16885979
0.16700149
0.16512626
0.16323603
0.16133284
0.15941875
0.15749589
0.15556645
0.15363246
0.15169632
0.14975995
0.14782477
0.14589216
0.14396348
0.14204001
0.14012302
0.1382136
0.13631317
0.13442236
0.13254278
0.13067464
0.12882055
0.12697969
0.12515415
0.12332646
0.12155553
0.11967031
0.11822897
0.11541429
0.11730105
0.10193571
0.14506178
0.19720044
0.20906317
0.20823165
0.20735469
0.2064324
0.20546506
0.20445307
0.20339691
0.20229718
0.20115447
0.19996954
0.19874318
0.19747619
0.19616951
0.19482389
0.1934404
0.19202011
0.19056392
0.18907278
0.18754767
0.18598954
0.18439935
0.18277811
0.18112686
0.17944667
0.17773866
0.17600403
0.17424402
0.17246005
0.17065371
0.16882665
0.16698062
0.16511747
0.16323907
0.16134742
0.15944454
0.15753251
0.1556135
0.15368945
0.15176286
0.14983563
0.14790918
0.14598488
0.14406411
0.14214818
0.14023838
0.13833585
0.13644216
0.13455792
0.13268504
0.1308237
0.12897706
0.12714389
0.12532692
0.12350509
0.12174561
0.11985569
0.11844912
0.11556453
0.1176333
0.10201331
0.14521431
0.19756647
0.20877648
0.20794694
0.20707267
0.20615378
0.20519054
0.20418334
0.20313265
0.20203902
0.20090304
0.19972542
0.19850692
0.19724831
0.19595048
0.19461421
0.19324051
0.19183039
0.19038471
0.18890437
0.18739033
0.18584349
0.18426477
0.18265517
0.18101569
0.17934736
0.17765131
0.17592865
0.17418056
0.17240845
0.17061388
0.16879847
0.16696393
0.16511205
0.1632447
0.16136381
0.15947138
0.15756943
0.1556601
0.15374527
0.15182753
0.14990878
0.14799041
0.1460738
0.14416036
0.14225139
0.14034825
0.1384521
0.13656464
0.13468649
0.13281987
0.13096486
0.12912526
0.12729928
0.12549058
0.12367392
0.12192599
0.12003001
0.11865955
0.11570248
0.11795334
0.10208107
0.14535726
0.1979205
0.2085081
0.20768054
0.2068089
0.20589331
0.20493404
0.20393145
0.202886
0.20179822
0.20066868
0.19949804
0.19828703
0.1970364
0.19574697
0.19441956
0.19305514
0.19165465
0.19021891
0.18874879
0.1872452
0.185709
0.18414111
0.18254247
0.18091406
0.1792569
0.1775721
0.17586067
0.17412377
0.17236279
0.17057925
0.16877473
0.16695093
0.16510959
0.16325255
0.1613817
0.15949899
0.15760643
0.15570609
0.15379982
0.15189028
0.14997939
0.1480685
0.14615902
0.14425234
0.14234981
0.14045283
0.13856257
0.1366809
0.13480839
0.1329476
0.13109848
0.12926556
0.12744627
0.12564558
0.1238334
0.12209719
0.12019371
0.11886086
0.11582861
0.11826198
0.10213914
0.14549139
0.19826358
0.20825688
0.20743126
0.20656219
0.20564981
0.20469437
0.20369622
0.20265581
0.20157363
0.20045023
0.19928625
0.19808237
0.19683931
0.19555786
0.19423886
0.19288324
0.19149186
0.19006552
0.18860507
0.18711134
0.18558519
0.1840275
0.18243918
0.18082121
0.17917455
0.17750031
0.17579944
0.17407304
0.17232249
0.17054928
0.16875497
0.16694121
0.16510972
0.16326229
0.1614008
0.15952716
0.15764331
0.15575134
0.153853
0.15195107
0.15004745
0.14814349
0.14624059
0.14434018
0.1424436
0.14055231
0.13866749
0.13679118
0.1349239
0.13306857
0.13122492
0.12939833
0.12758526
0.12579238
0.12398394
0.12225974
0.12034723
0.11905364
0.11594336
0.11856005