/*--------------------------------*- C++ -*----------------------------------*\
| =========                 |                                                 |
| \\      /  F ield         | OpenFOAM: The Open Source CFD Toolbox           |
|  \\    /   O peration     | Version:  2.4.0                                 |
|   \\  /    A nd           | Web:      www.OpenFOAM.org                      |
|    \\/     M anipulation  |                                                 |
\*---------------------------------------------------------------------------*/
FoamFile
{
    version     2.0;
    format      ascii;
    class       volScalarField;
    location    "280";
    object      p;
}
// * * * * * * * * * * * * * * * * * * * * * * * * * * * * * * * * * * * * * //

dimensions      [0 2 -2 0 0 0 0];

internalField   nonuniform List<scalar> 
78300
(
-0.13729894
-0.4089427
-0.68326437
-0.80094225
-0.80101838
-0.71072267
-0.63280713
-0.59321212
-0.5725118
-0.51201346
-0.54761872
-0.5100081
-0.72121848
-0.42536568
-0.13100333
-0.4879144
-0.60681583
-0.63894429
-0.56051426
-0.57771193
-0.62698857
-0.66515446
-0.68807759
-0.70484311
-0.72053885
-0.7329342
-0.74391547
-0.75400167
-0.75992886
-0.7620656
-0.7586454
-0.75536175
-0.74394342
-0.72740079
-0.70055999
-0.66596133
-0.64160463
-0.62155201
-0.56206318
-0.42679182
-2.2598176e-11
-0.57780885
-0.72549863
-0.73985321
-0.72832201
-0.74763011
-0.75332432
-0.74631387
-0.76031357
-0.77117137
-0.78014167
-0.7885802
-0.79596149
-0.80229166
-0.80742232
-0.81174632
-0.81522383
-0.81818081
-0.82069326
-0.82307084
-0.82578847
-0.82811663
-0.83128924
-0.83300756
-0.83478112
-0.83632501
-0.83856225
-0.84025857
-0.84242526
-0.84495287
-0.84811134
-0.85051045
-0.8526898
-0.85474174
-0.85689202
-0.85840227
-0.85983422
-0.86124737
-0.86268728
-0.86306067
-0.86309078
-0.86285308
-0.86300752
-0.86269521
-0.86287563
-0.86362697
-0.86535337
-0.86686519
-0.86862854
-0.87071195
-0.87330293
-0.87551368
-0.87756556
-0.87916936
-0.88120327
-0.88294516
-0.88534963
-0.88785817
-0.89110827
-0.89386881
-0.89724445
-0.90147273
-0.90665766
-0.91278536
-0.91959956
-0.92784441
-0.93694959
-0.94746836
-0.95819298
-0.97018008
-0.98320381
-0.99888063
-1.0153004
-1.0312371
-1.042991
-1.0510746
-1.0546432
-1.0546938
-1.051959
-1.0484951
-1.0448209
-1.0415324
-1.0382802
-1.035519
-1.0330282
-1.0313542
-1.030028
-1.0297297
-1.0302994
-1.0318907
-1.0336204
-1.0351925
-1.0371005
-1.0395863
-1.042058
-1.043216
-1.0439128
-1.0443009
-1.0444985
-1.0421839
-1.0381179
-1.0321528
-1.0245204
-1.0143898
-1.002393
-0.98961262
-0.97557086
-0.96088425
-0.94578878
-0.9310046
-0.91391187
-0.89419687
-0.87268499
-0.84850779
-0.81685212
-0.77545145
-0.73173201
-0.68866981
-0.63584876
-0.56295402
-0.48924328
-0.42981529
-0.3612853
-0.23131312
-0.01803759
0.22077455
0.39754787
0.49851534
0.5420089
0.5592496
0.54906054
0.49892037
0.39447258
0.2154947
-0.030472813
-0.34610006
-0.68325343
-1.0618102
-1.4681995
-1.926695
-2.3389043
-2.6848441
-2.8942581
-3.0489506
-3.1495927
-3.2134324
-3.2383762
-3.1624136
-3.0454707
-2.9021132
-2.7587655
-2.6133859
-2.4823917
-2.34962
-2.2163051
-2.0688824
-1.943564
-1.8565737
-1.7995648
-1.7112579
-1.5841222
-1.431637
-1.2905826
-1.1250325
-0.93193089
-0.70808209
-0.51343975
-0.30743365
-0.10954896
0.080681001
0.22303361
0.34346888
0.44345446
0.54206491
0.6499184
0.77009814
0.88275464
1.0099936
1.3427601
1.986726
2.480316
2.401896
1.956242
1.3248635
1.1251861
3.7015544
9.0088314
21.183038
36.549702
32.448741
32.634538
27.200183
20.323739
11.333488
2.058826
-7.8929873
-17.164446
-27.06997
-35.506111
-40.278334
-41.066452
-37.984749
-30.91073
-29.522433
-27.742412
-36.465511
-47.344507
-50.145585
-44.077836
-22.644824
6.3514836
31.080728
41.835859
35.153808
12.150493
-15.344169
-29.098827
-19.614754
-1.6523761
6.7119703
6.249337
4.1397007
3.5698556
2.8772092
1.602038
0.7646893
0.43251293
0.055335946
-0.081707965
-0.072965645
-0.13685305
-0.40876377
-0.68330316
-0.80095621
-0.80101835
-0.71073391
-0.63284906
-0.5931809
-0.57250711
-0.51215508
-0.54719976
-0.51046494
-0.71994837
-0.42590495
-0.13553242
-0.48903543
-0.60537645
-0.6375868
-0.56067966
-0.5779862
-0.62711559
-0.665203
-0.68809396
-0.70486214
-0.72054635
-0.73293719
-0.74390613
-0.75398649
-0.75988173
-0.76203879
-0.75864544
-0.75535766
-0.74395326
-0.7274405
-0.70064397
-0.66606055
-0.64166073
-0.62163507
-0.562283
-0.42717186
-0.0082266015
-0.57832447
-0.72506019
-0.73965445
-0.72831673
-0.74762347
-0.75332442
-0.74639804
-0.76030759
-0.77116783
-0.78013767
-0.78857095
-0.79595388
-0.80228669
-0.80741951
-0.81174316
-0.81522262
-0.8181804
-0.82069321
-0.82307088
-0.82578578
-0.82811603
-0.8312835
-0.83300416
-0.83477689
-0.83632383
-0.83855851
-0.84025735
-0.84242352
-0.84495274
-0.84810817
-0.85050804
-0.85268687
-0.85473988
-0.85688866
-0.85840005
-0.85983159
-0.86124596
-0.86268385
-0.86305906
-0.86308864
-0.86285286
-0.86300497
-0.86269503
-0.86287471
-0.8636282
-0.86535284
-0.86686591
-0.86862882
-0.87071333
-0.87330287
-0.87551414
-0.8775642
-0.87916932
-0.88120235
-0.88294734
-0.88535021
-0.88786177
-0.89111072
-0.89387219
-0.89724689
-0.90147546
-0.90666101
-0.91278767
-0.91960409
-0.92784672
-0.93695429
-0.9474687
-0.9581955
-0.97017734
-0.98320474
-0.99887643
-1.015302
-1.0312338
-1.0429899
-1.0510696
-1.0546396
-1.0546898
-1.0519574
-1.0484944
-1.0448207
-1.0415325
-1.0382811
-1.0355197
-1.0330298
-1.0313548
-1.0300304
-1.0297308
-1.0303012
-1.0318907
-1.0336217
-1.0351923
-1.0371004
-1.0395848
-1.0420573
-1.0432144
-1.0439104
-1.0442982
-1.0444953
-1.0421803
-1.0381137
-1.0321485
-1.0245167
-1.0143859
-1.00239
-0.98961001
-0.97556909
-0.96088277
-0.9457885
-0.93100174
-0.91391066
-0.89419501
-0.87268349
-0.84850443
-0.81684856
-0.77545343
-0.73173253
-0.68867219
-0.63584556
-0.56296945
-0.48925212
-0.42983372
-0.36128013
-0.23129568
-0.018064025
0.22068938
0.39747165
0.49842268
0.54195313
0.55917014
0.54897373
0.49882816
0.39435345
0.21542277
-0.030566096
-0.34608101
-0.68328256
-1.0617036
-1.4682096
-1.9265536
-2.3388657
-2.6846888
-2.8941653
-3.048781
-3.1494555
-3.2132823
-3.2382434
-3.1623328
-3.0453662
-2.9020617
-2.7586935
-2.6133615
-2.4823274
-2.349592
-2.2162593
-2.0688848
-1.9435451
-1.8565699
-1.7995137
-1.7112303
-1.5840531
-1.4316128
-1.2905319
-1.1250691
-0.93192007
-0.70816243
-0.51346596
-0.30754029
-0.10958414
0.08060718
0.22304338
0.3434474
0.44346394
0.54204767
0.6499529
0.770044
0.88261962
1.0100192
1.3434902
1.9877035
2.4803861
2.40003
1.9523427
1.3248933
1.1306548
3.7036728
9.0168819
21.183874
36.543547
32.445814
32.620832
27.191746
20.311508
11.319176
2.0391806
-7.9090516
-17.182007
-27.082149
-35.51159
-40.274319
-41.048442
-37.973213
-30.900424
-29.513036
-27.745899
-36.456842
-47.332607
-50.127311
-44.036061
-22.601695
6.3808802
31.085513
41.80707
35.113137
12.113186
-15.344246
-29.07901
-19.56815
-1.6533346
6.7050148
6.2421669
4.1370987
3.568508
2.8757612
1.6014934
0.7648151
0.43275802
0.055261058
-0.081951779
-0.072716872
-0.13615008
-0.40847308
-0.68335584
-0.80097226
-0.80101731
-0.7107484
-0.63291893
-0.59312821
-0.57250037
-0.51237978
-0.54653729
-0.51122152
-0.7178999
-0.42681582
-0.14288338
-0.49082298
-0.60304844
-0.63539496
-0.56092992
-0.57841515
-0.62730898
-0.66527201
-0.68811238
-0.70488533
-0.72055247
-0.73293643
-0.74388629
-0.7539578
-0.75980216
-0.76199275
-0.75864313
-0.75534979
-0.74396843
-0.72750451
-0.70078173
-0.66622529
-0.64175495
-0.62177048
-0.56264821
-0.42785686
-0.021196036
-0.5791598
-0.72436598
-0.73933579
-0.72830585
-0.74761025
-0.75332464
-0.74653359
-0.7602973
-0.77116124
-0.78013045
-0.78855549
-0.79594122
-0.80227845
-0.80741485
-0.81173807
-0.81522074
-0.8181799
-0.82069327
-0.82307109
-0.82578158
-0.82811514
-0.83127448
-0.83299893
-0.83477034
-0.83632222
-0.83855278
-0.84025572
-0.84242109
-0.84495288
-0.84810343
-0.8505045
-0.8526825
-0.85473724
-0.8568836
-0.85839681
-0.85982772
-0.86124405
-0.86267868
-0.8630568
-0.86308558
-0.86285289
-0.86300126
-0.86269512
-0.86287366
-0.86363064
-0.86535244
-0.8668675
-0.86862971
-0.870716
-0.8733032
-0.87551527
-0.8775624
-0.87916966
-0.8812013
-0.88295121
-0.88535149
-0.88786792
-0.89111502
-0.89387797
-0.89725115
-0.90148017
-0.90666671
-0.91279169
-0.91961168
-0.92785076
-0.93696214
-0.94746954
-0.95819979
-0.97017316
-0.98320656
-0.99887001
-1.0153047
-1.0312285
-1.0429883
-1.0510618
-1.054634
-1.0546834
-1.0519549
-1.0484933
-1.0448205
-1.0415326
-1.0382825
-1.0355208
-1.0330324
-1.0313558
-1.0300342
-1.0297326
-1.0303041
-1.0318906
-1.0336238
-1.035192
-1.0371002
-1.0395823
-1.0420562
-1.0432118
-1.0439065
-1.0442938
-1.0444901
-1.0421745
-1.0381069
-1.0321415
-1.0245105
-1.0143795
-1.002385
-0.9896057
-0.97556612
-0.96088024
-0.94578785
-0.93099706
-0.91390863
-0.89419193
-0.87268102
-0.8484992
-0.81684309
-0.77545661
-0.73173332
-0.68867656
-0.63584132
-0.56299437
-0.48926593
-0.42986457
-0.36127507
-0.23127154
-0.018108838
0.22055363
0.39735134
0.49827491
0.54186351
0.55904181
0.54883374
0.4986799
0.39416257
0.21530818
-0.030714738
-0.3460492
-0.6833277
-1.0615289
-1.4682235
-1.9263257
-2.3388044
-2.6844409
-2.8940144
-3.0485054
-3.1492313
-3.213037
-3.2380302
-3.1622008
-3.0451956
-2.901976
-2.7585747
-2.6133192
-2.4822214
-2.3495448
-2.2161841
-2.0688863
-1.9435114
-1.8565609
-1.7994309
-1.7111859
-1.5839405
-1.4315706
-1.2904487
-1.1251286
-0.93190339
-0.70829099
-0.51350905
-0.30771404
-0.1096422
0.080488316
0.22305911
0.34341258
0.44347724
0.54201633
0.65000541
0.76995287
0.8823962
1.0100424
1.344664
1.9893072
2.4805511
2.3970346
1.9460108
1.3248924
1.1393536
3.7068291
9.0294187
21.184959
36.534324
32.440805
32.598856
27.177931
20.291514
11.295707
2.0071188
-7.9353035
-17.210583
-27.102103
-35.520653
-40.267865
-41.019004
-37.954211
-30.883231
-29.497586
-27.751187
-36.44284
-47.313463
-50.097709
-43.968508
-22.531484
6.4292061
31.093996
41.760614
35.047009
12.052275
-15.344843
-29.046922
-19.492147
-1.6540217
6.6939926
6.2307246
4.1329153
3.5662847
2.873382
1.600598
0.765
0.43313649
0.05514172
-0.082333835
-0.072326719
-0.13516415
-0.40805096
-0.68341517
-0.80098534
-0.80101295
-0.71076555
-0.63302214
-0.59305102
-0.57249004
-0.51269969
-0.54560384
-0.5123508
-0.71493541
-0.42816873
-0.15350309
-0.49334276
-0.59970952
-0.63225832
-0.56127136
-0.5790184
-0.62757667
-0.66536304
-0.68813199
-0.70491209
-0.72055598
-0.7329302
-0.74385329
-0.75391235
-0.75968424
-0.76192351
-0.75863712
-0.75533663
-0.74398912
-0.72759575
-0.70098125
-0.66646728
-0.64189626
-0.62196614
-0.56318271
-0.42892044
-0.039352472
-0.58036719
-0.7233932
-0.73887894
-0.72828937
-0.74758813
-0.75332353
-0.74672835
-0.76028228
-0.77115074
-0.78011908
-0.7885326
-0.7959225
-0.80226617
-0.80740778
-0.81173055
-0.81521791
-0.81817915
-0.82069338
-0.82307148
-0.82577557
-0.82811396
-0.8312617
-0.83299172
-0.83476123
-0.83632028
-0.83854488
-0.84025375
-0.84241802
-0.84495352
-0.84809692
-0.85049973
-0.85267658
-0.8547338
-0.85687665
-0.85839247
-0.85982252
-0.86124165
-0.86267155
-0.86305387
-0.86308157
-0.86285334
-0.86299631
-0.86269568
-0.86287264
-0.86363463
-0.86535231
-0.86687023
-0.86863148
-0.8707203
-0.87330411
-0.87551728
-0.8775602
-0.87917061
-0.88120025
-0.88295715
-0.88535371
-0.88787718
-0.89112157
-0.89388663
-0.89725764
-0.90148731
-0.90667523
-0.91279781
-0.91962292
-0.92785692
-0.93697377
-0.94747107
-0.9582062
-0.97016742
-0.98320959
-0.9988612
-1.0153085
-1.0312207
-1.0429859
-1.0510505
-1.0546257
-1.0546743
-1.0519512
-1.0484918
-1.0448202
-1.0415328
-1.0382846
-1.0355223
-1.0330361
-1.0313573
-1.0300397
-1.0297353
-1.0303083
-1.0318906
-1.0336268
-1.0351914
-1.0370998
-1.0395787
-1.0420545
-1.0432078
-1.0439006
-1.0442874
-1.0444824
-1.042166
-1.038097
-1.0321313
-1.0245014
-1.01437
-1.0023776
-0.98959927
-0.97556165
-0.96087636
-0.94578664
-0.93099011
-0.91390552
-0.89418727
-0.87267726
-0.84849162
-0.81683522
-0.77546109
-0.73173454
-0.68868322
-0.63583576
-0.56303027
-0.48928602
-0.42991014
-0.36126965
-0.23123864
-0.018175568
0.22035734
0.39717786
0.49806163
0.54173319
0.55885514
0.54862992
0.49846393
0.39388551
0.21514118
-0.030930171
-0.34600424
-0.68339302
-1.0612761
-1.4682432
-1.9259964
-2.3387147
-2.6840815
-2.8937928
-3.0481034
-3.1489027
-3.2126772
-3.237719
-3.1620057
-3.0449457
-2.9018482
-2.7583995
-2.6132542
-2.4820651
-2.3494737
-2.2160731
-2.0688858
-1.9434604
-1.8565455
-1.7993096
-1.7111197
-1.5837751
-1.431506
-1.2903254
-1.1252133
-0.93187847
-0.70847547
-0.51357138
-0.30796668
-0.10972827
0.080314872
0.22308023
0.34336079
0.44349292
0.54196657
0.65007621
0.76981591
0.88206994
1.0100678
1.3463554
1.9916175
2.4808046
2.3927367
1.9368906
1.3249133
1.1517993
3.711086
9.046978
21.185895
36.520873
32.433317
32.567178
27.157706
20.262389
11.2616
1.9607359
-7.973232
-17.251789
-27.130917
-35.533757
-40.258594
-40.976346
-37.926518
-30.858037
-29.474922
-27.758351
-36.422336
-47.285579
-50.054879
-43.871308
-22.430193
6.4993527
31.107
41.69411
34.95182
11.964244
-15.346105
-29.000822
-19.382618
-1.6538696
6.6786132
6.2145839
4.1268863
3.5629786
2.8699059
1.5992988
0.76524718
0.43365431
0.054978719
-0.0828601
-0.071777536
-0.13393687
-0.4075086
-0.68347202
-0.80099167
-0.80100511
-0.71078475
-0.633156
-0.59295292
-0.57247543
-0.51310393
-0.54444244
-0.5138465
-0.71113019
-0.42993098
-0.16704249
-0.49646759
-0.59549392
-0.62830989
-0.56168685
-0.57977538
-0.62791208
-0.66547528
-0.68815407
-0.70494299
-0.72055785
-0.73291932
-0.74380855
-0.75385142
-0.75953187
-0.7618329
-0.758627
-0.75531787
-0.74401422
-0.72771062
-0.70123531
-0.66677968
-0.64208419
-0.62221696
-0.56387139
-0.43035688
-0.06171485
-0.58192766
-0.72220003
-0.73829912
-0.72826922
-0.74755716
-0.75331921
-0.74697516
-0.76026384
-0.77113646
-0.78010354
-0.78850284
-0.79589812
-0.80224991
-0.80739821
-0.81172051
-0.81521391
-0.8181779
-0.82069334
-0.8230719
-0.82576784
-0.82811248
-0.83124544
-0.83298267
-0.83474984
-0.83631808
-0.83853503
-0.84025151
-0.84241446
-0.84495462
-0.84808879
-0.85049379
-0.85266925
-0.85472962
-0.85686793
-0.85838712
-0.85981614
-0.86123877
-0.86266259
-0.8630503
-0.86307671
-0.86285415
-0.86299023
-0.86269666
-0.86287173
-0.8636401
-0.86535244
-0.86687403
-0.86863411
-0.87072615
-0.87330557
-0.8755201
-0.87755769
-0.87917222
-0.88119932
-0.88296505
-0.88535689
-0.88788933
-0.89113017
-0.89389798
-0.89726624
-0.90149673
-0.90668638
-0.9128059
-0.91963753
-0.92786508
-0.93698883
-0.94747326
-0.95821449
-0.97016033
-0.98321378
-0.9988503
-1.015313
-1.0312104
-1.0429825
-1.0510357
-1.0546149
-1.0546624
-1.0519465
-1.0484899
-1.0448199
-1.0415331
-1.0382873
-1.0355244
-1.0330409
-1.0313593
-1.0300468
-1.0297386
-1.0303135
-1.0318905
-1.0336305
-1.0351906
-1.0370991
-1.039574
-1.0420521
-1.0432026
-1.0438929
-1.0442789
-1.0444723
-1.0421548
-1.038084
-1.032118
-1.0244895
-1.0143576
-1.0023679
-0.98959081
-0.97555572
-0.9608711
-0.94578474
-0.93098101
-0.9139013
-0.89418108
-0.87267218
-0.84848189
-0.81682519
-0.77546671
-0.7317363
-0.68869225
-0.63582948
-0.56307616
-0.48931217
-0.42996965
-0.36126475
-0.23119866
-0.018263805
0.22010492
0.39695514
0.49778801
0.54156419
0.55861372
0.54836605
0.49818401
0.39352797
0.21492393
-0.031208353
-0.34595003
-0.68347877
-1.0609548
-1.4682693
-1.9255754
-2.3385976
-2.6836188
-2.8935041
-3.0475838
-3.1484755
-3.2122091
-3.2373147
-3.1617485
-3.0446201
-2.9016787
-2.7581701
-2.6131655
-2.4818609
-2.3493785
-2.2159276
-2.0688815
-1.943392
-1.8565226
-1.7991519
-1.7110316
-1.5835596
-1.4314184
-1.2901633
-1.125319
-0.93184473
-0.70870971
-0.51365096
-0.30829179
-0.10984162
0.080090038
0.22310465
0.34329205
0.44350805
0.54189752
0.65015964
0.76963383
0.88165129
1.0101033
1.3485113
1.994531
2.4811013
2.3872713
1.9253226
1.3250539
1.1675927
3.7162049
9.0687148
21.185943
36.502864
32.423365
32.526631
27.131424
20.224878
11.217909
1.9016099
-8.0214587
-17.304134
-27.167469
-35.550397
-40.246929
-40.922057
-37.891094
-30.825552
-29.445427
-27.766573
-36.39518
-47.249304
-50.00012
-43.748034
-22.301642
6.588907
31.124659
41.610656
34.831637
11.852381
-15.348349
-28.943004
-19.244271
-1.6520629
6.6600352
6.1946209
4.1191239
3.5585934
2.8654335
1.5976355
0.76553537
0.43427818
0.054784323
-0.083492558
-0.071082753
-0.13250771
-0.40685628
-0.68351807
-0.8009874
-0.80099378
-0.71080536
-0.63331771
-0.59283679
-0.57245621
-0.51358124
-0.54309484
-0.51569224
-0.70657287
-0.43207153
-0.18313092
-0.5000867
-0.5905427
-0.62367689
-0.56215688
-0.58066494
-0.628308
-0.66560741
-0.68817955
-0.70497825
-0.72055878
-0.73290455
-0.74375343
-0.75377638
-0.75934928
-0.7617229
-0.75861269
-0.75529354
-0.74404309
-0.72784599
-0.70153728
-0.66715559
-0.64231735
-0.62251738
-0.56470013
-0.43215445
-0.087295086
-0.58382098
-0.72084253
-0.73761248
-0.72824713
-0.74751712
-0.75331059
-0.74726671
-0.76024369
-0.77111883
-0.78008417
-0.78846705
-0.79586868
-0.80222992
-0.80738618
-0.81170798
-0.81520862
-0.81817598
-0.82069302
-0.82307224
-0.82575853
-0.82811067
-0.83122599
-0.83297195
-0.83473647
-0.83631566
-0.83852347
-0.84024906
-0.84241054
-0.84495614
-0.84807919
-0.85048679
-0.85266068
-0.85472476
-0.85685764
-0.85838084
-0.85980871
-0.86123543
-0.86265197
-0.86304613
-0.8630711
-0.86285528
-0.8629832
-0.86269807
-0.86287104
-0.86364696
-0.86535288
-0.86687882
-0.8686376
-0.87073343
-0.87330759
-0.87552369
-0.87755501
-0.87917455
-0.88119867
-0.8829748
-0.88536105
-0.88790418
-0.89114066
-0.8939118
-0.89727683
-0.9015083
-0.90669993
-0.91281587
-0.91965519
-0.92787515
-0.93700698
-0.94747611
-0.9582244
-0.97015213
-0.98321903
-0.99883768
-1.0153178
-1.0311976
-1.0429781
-1.0510178
-1.0546017
-1.0546481
-1.0519408
-1.0484875
-1.0448195
-1.0415335
-1.0382905
-1.0355269
-1.0330466
-1.0313617
-1.0300552
-1.0297427
-1.0303198
-1.0318904
-1.0336348
-1.0351896
-1.0370982
-1.0395682
-1.042049
-1.0431961
-1.0438834
-1.0442686
-1.0444599
-1.0421412
-1.0380682
-1.0321019
-1.024475
-1.0143424
-1.0023559
-0.98958038
-0.97554836
-0.96086447
-0.94578202
-0.93096987
-0.91389594
-0.89417339
-0.87266577
-0.84847023
-0.81681332
-0.77547335
-0.73173872
-0.68870367
-0.63582317
-0.56313099
-0.48934416
-0.43004209
-0.36126128
-0.23115373
-0.018373525
0.21980073
0.39668701
0.49745943
0.54135863
0.55832146
0.54804632
0.49784438
0.39309651
0.21465926
-0.031544199
-0.3458901
-0.68358414
-1.0605739
-1.4683016
-1.9250728
-2.338454
-2.6830615
-2.8931518
-3.0469561
-3.1479565
-3.2116395
-3.2368227
-3.1614304
-3.0442231
-2.9014675
-2.757889
-2.6130519
-2.4816112
-2.3492591
-2.2157493
-2.0688716
-1.9433065
-1.8564914
-1.79896
-1.7109217
-1.5832971
-1.4313076
-1.2899646
-1.1254419
-0.9318022
-0.70898753
-0.51374623
-0.30868277
-0.10998148
0.079817604
0.22313041
0.34320678
0.44352003
0.54180891
0.65025022
0.76940692
0.88115085
1.0101592
1.3510835
1.9979453
2.4813827
2.3807457
1.9116544
1.3254078
1.1863496
3.7220607
9.0938485
21.184403
36.47994
32.410816
32.477994
27.099452
20.179809
11.165708
1.831286
-8.0787072
-17.366245
-27.210751
-35.570113
-40.233229
-40.857765
-37.848811
-30.786454
-29.40958
-27.775096
-36.361135
-47.204769
-49.934368
-43.601518
-22.14909
6.6957918
31.147099
41.513022
34.690056
11.719675
-15.352166
-28.875639
-19.081797
-1.6476135
6.6394123
6.1716115
4.1097209
3.5531537
2.8600645
1.5956352
0.76583862
0.43497545
0.054569906
-0.084195544
-0.070255953
-0.13091407
-0.40610353
-0.68354563
-0.80096921
-0.80097924
-0.7108272
-0.63350449
-0.59270523
-0.5724324
-0.51412101
-0.54160062
-0.51785863
-0.70136076
-0.43457037
-0.20139168
-0.50410135
-0.58499535
-0.61847924
-0.56266261
-0.58166684
-0.62875742
-0.66575815
-0.68820929
-0.705018
-0.72055939
-0.73288663
-0.74368919
-0.75368843
-0.75914076
-0.76159551
-0.75859428
-0.75526382
-0.74407537
-0.72799921
-0.70188116
-0.66758851
-0.64259399
-0.62286176
-0.56565553
-0.43430018
-0.11521886
-0.58602159
-0.71937174
-0.73683579
-0.7282247
-0.7474679
-0.7532975
-0.74759574
-0.76022366
-0.77109846
-0.78006147
-0.78842609
-0.79583481
-0.80220649
-0.80737179
-0.81169307
-0.815202
-0.81817328
-0.82069234
-0.82307239
-0.82574777
-0.8281085
-0.83120368
-0.83295971
-0.8347214
-0.83631305
-0.83851045
-0.84024645
-0.84240639
-0.84495804
-0.84806828
-0.85047884
-0.85265104
-0.85471926
-0.85684593
-0.85837373
-0.8598004
-0.86123165
-0.86263988
-0.86304139
-0.86306486
-0.86285667
-0.86297537
-0.86269987
-0.86287063
-0.86365508
-0.86535363
-0.86688455
-0.86864195
-0.87074203
-0.87331016
-0.87552797
-0.87755226
-0.87917764
-0.88119843
-0.88298626
-0.88536622
-0.88792147
-0.89115284
-0.89392783
-0.89728926
-0.90152186
-0.90671567
-0.91282761
-0.91967558
-0.927887
-0.93702782
-0.94747962
-0.95823567
-0.97014306
-0.98322528
-0.99882369
-1.0153224
-1.0311823
-1.0429725
-1.050997
-1.0545863
-1.0546317
-1.0519343
-1.0484847
-1.0448191
-1.0415339
-1.0382943
-1.0355298
-1.0330532
-1.0313645
-1.0300648
-1.0297474
-1.0303268
-1.0318903
-1.0336396
-1.0351883
-1.0370969
-1.0395615
-1.042045
-1.0431884
-1.0438723
-1.0442565
-1.0444453
-1.0421252
-1.0380496
-1.0320831
-1.0244579
-1.0143246
-1.0023418
-0.98956805
-0.97553962
-0.96085644
-0.94577835
-0.93095682
-0.91388944
-0.89416426
-0.87265804
-0.84845689
-0.81679993
-0.77548086
-0.73174191
-0.68871748
-0.63581763
-0.56319383
-0.48938176
-0.43012627
-0.36126018
-0.23110629
-0.018505131
0.2194489
0.39637713
0.49708137
0.54111863
0.55798245
0.54767518
0.49744971
0.3925984
0.2143506
-0.031931722
-0.34582761
-0.68370744
-1.0601422
-1.4683385
-1.9244981
-2.3382844
-2.6824192
-2.8927401
-3.0462305
-3.1473527
-3.2109759
-3.2362489
-3.1610532
-3.0437591
-2.901215
-2.7575589
-2.6129121
-2.4813187
-2.3491154
-2.21554
-2.0688542
-1.9432041
-1.8564503
-1.7987366
-1.71079
-1.5829912
-1.4311736
-1.2897318
-1.1255786
-0.93175158
-0.70930295
-0.5138561
-0.30913311
-0.11014707
0.07950189
0.22315583
0.34310587
0.44352673
0.54170114
0.65034302
0.76913587
0.88057893
1.0102467
1.3540285
2.0017676
2.4815909
2.3732489
1.8962221
1.3260371
1.207698
3.728591
9.1217336
21.180706
36.451766
32.395464
32.422008
27.062129
20.127985
11.105991
1.7511902
-8.1438429
-17.436883
-27.259877
-35.592499
-40.217802
-40.785039
-37.800299
-30.741331
-29.367833
-27.783182
-36.320069
-47.151866
-49.857847
-43.432999
-21.974964
6.8182997
31.174444
41.403503
34.529928
11.568671
-15.358328
-28.800679
-18.899657
-1.6394879
6.617745
6.1462328
4.0987834
3.546698
2.8538878
1.5933157
0.76612939
0.43571452
0.054346153
-0.084935869
-0.069310422
-0.12919076
-0.40525915
-0.68354776
-0.80093428
-0.800962
-0.71085063
-0.63371379
-0.59256076
-0.57240437
-0.51471343
-0.53999693
-0.52030492
-0.695597
-0.43742207
-0.22145227
-0.50841988
-0.57898516
-0.61282933
-0.5631871
-0.58276216
-0.62925372
-0.66592623
-0.68824404
-0.70506233
-0.72056019
-0.73286617
-0.74361697
-0.75358852
-0.75891046
-0.76145259
-0.75857189
-0.75522898
-0.74411083
-0.72816792
-0.70226143
-0.66807232
-0.64291225
-0.62324467
-0.56672457
-0.43678098
-0.14473122
-0.58849884
-0.71783262
-0.73598607
-0.72820359
-0.74740964
-0.75328049
-0.74795517
-0.76020548
-0.77107602
-0.78003601
-0.78838089
-0.79579716
-0.80217996
-0.8073552
-0.81167594
-0.81519403
-0.81816975
-0.82069123
-0.82307229
-0.82573573
-0.82810596
-0.83117883
-0.83294611
-0.83470491
-0.83631027
-0.8384962
-0.84024373
-0.84240212
-0.84496024
-0.84805621
-0.85047002
-0.8526405
-0.8547132
-0.856833
-0.85836587
-0.85979135
-0.86122744
-0.86262651
-0.86303614
-0.86305812
-0.86285826
-0.86296691
-0.86270204
-0.86287058
-0.86366434
-0.86535473
-0.86689111
-0.86864713
-0.87075182
-0.87331327
-0.87553289
-0.87754958
-0.87918153
-0.88119874
-0.88299927
-0.88537238
-0.88794095
-0.89116653
-0.89394583
-0.89730339
-0.90153725
-0.90673336
-0.912841
-0.91969837
-0.92790051
-0.93705097
-0.94748379
-0.95824803
-0.9701334
-0.98323246
-0.99880875
-1.0153266
-1.0311647
-1.0429656
-1.0509735
-1.0545688
-1.0546133
-1.051927
-1.0484817
-1.0448186
-1.0415345
-1.0382986
-1.0355331
-1.0330605
-1.0313679
-1.0300755
-1.0297528
-1.0303345
-1.0318903
-1.0336446
-1.0351868
-1.0370951
-1.039554
-1.0420402
-1.0431795
-1.0438594
-1.0442427
-1.0444285
-1.0421069
-1.0380286
-1.0320618
-1.0244384
-1.0143042
-1.0023256
-0.9895539
-0.97552954
-0.96084703
-0.94577361
-0.93094202
-0.91388177
-0.89415377
-0.87264897
-0.84844213
-0.81678541
-0.77548918
-0.73174599
-0.68873368
-0.63581368
-0.56326378
-0.48942481
-0.43022091
-0.36126241
-0.23105906
-0.018659433
0.21905315
0.3960289
0.49665915
0.54084625
0.55760085
0.54725725
0.49700495
0.39204135
0.21400183
-0.032364323
-0.34576527
-0.68384629
-1.0596681
-1.4683782
-1.9238605
-2.3380889
-2.6817016
-2.892273
-3.0454173
-3.1466714
-3.210226
-3.2355995
-3.1606185
-3.0432325
-2.9009213
-2.7571826
-2.612745
-2.480986
-2.3489474
-2.2153017
-2.0688275
-1.9430847
-1.8563983
-1.7984839
-1.710637
-1.5826456
-1.4310167
-1.2894681
-1.1257261
-0.93169416
-0.7096502
-0.51397989
-0.3096365
-0.11033765
0.079147543
0.22317944
0.34299061
0.44352652
0.54157516
0.65043376
0.7688219
0.87994537
1.010376
1.357306
2.0059167
2.4816759
2.3648614
1.8793442
1.3269664
1.2312763
3.7357462
9.1519274
21.174406
36.418019
32.377078
32.359392
27.019768
20.070153
11.039648
1.6626217
-8.215853
-17.514914
-27.314048
-35.61719
-40.200912
-40.705323
-37.745873
-30.690662
-29.32058
-27.790103
-36.272064
-47.09086
-49.770167
-43.240481
-21.780256
6.9552213
31.206855
41.284069
34.353467
11.401458
-15.367694
-28.719858
-18.701966
-1.6266855
6.5958969
6.119122
4.086452
3.5392765
2.8469808
1.5906877
0.76638032
0.4364651
0.054122908
-0.085683012
-0.068259027
-0.12737007
-0.40433101
-0.68351815
-0.80088024
-0.80094292
-0.71087643
-0.63394322
-0.59240593
-0.57237277
-0.51534938
-0.53831825
-0.52298251
-0.68938825
-0.44063354
-0.242951
-0.51295567
-0.57263716
-0.60683217
-0.56371566
-0.58393335
-0.62979058
-0.66611037
-0.68828445
-0.70511123
-0.72056159
-0.73284367
-0.74353778
-0.7534773
-0.75866231
-0.76129585
-0.75854564
-0.75518928
-0.74414923
-0.72834991
-0.70267294
-0.66860124
-0.64327016
-0.62366115
-0.56789463
-0.43958377
-0.17517963
-0.59121816
-0.71626395
-0.73508021
-0.72818549
-0.74734276
-0.75326065
-0.74833826
-0.76019072
-0.77105217
-0.78000835
-0.78833227
-0.79575636
-0.8021507
-0.80733662
-0.81165677
-0.81518479
-0.81816535
-0.82068967
-0.82307187
-0.82572257
-0.828103
-0.83115179
-0.8329313
-0.83468726
-0.83630732
-0.83848095
-0.84024091
-0.84239783
-0.84496267
-0.84804316
-0.85046044
-0.85262921
-0.85470661
-0.85681902
-0.85835736
-0.8597817
-0.86122282
-0.86261207
-0.86303042
-0.86305096
-0.86285996
-0.86295797
-0.86270454
-0.86287095
-0.8636746
-0.86535619
-0.86689844
-0.8686531
-0.87076267
-0.87331691
-0.87553838
-0.87754709
-0.87918626
-0.88119973
-0.88301368
-0.88537956
-0.88796237
-0.89118153
-0.89396557
-0.89731906
-0.90155431
-0.90675277
-0.91285594
-0.9197232
-0.92791555
-0.93707604
-0.94748862
-0.95826124
-0.9701234
-0.98324049
-0.99879326
-1.0153299
-1.0311448
-1.0429573
-1.0509476
-1.0545494
-1.0545932
-1.0519191
-1.0484783
-1.0448183
-1.0415353
-1.0383034
-1.0355368
-1.0330685
-1.0313717
-1.0300871
-1.0297587
-1.0303428
-1.0318904
-1.0336498
-1.0351851
-1.0370929
-1.0395456
-1.0420345
-1.0431694
-1.043845
-1.0442274
-1.0444096
-1.0420866
-1.0380051
-1.0320383
-1.0244167
-1.0142816
-1.0023075
-0.98953801
-0.97551816
-0.96083623
-0.94576768
-0.9309256
-0.91387295
-0.894142
-0.87263859
-0.8484262
-0.81677014
-0.77549823
-0.73175108
-0.68875226
-0.63581217
-0.56334008
-0.48947317
-0.43032477
-0.36126897
-0.23101491
-0.018837641
0.21861649
0.39564533
0.49619778
0.54054345
0.55718081
0.54679721
0.49651523
0.39143335
0.21361716
-0.032835058
-0.34570547
-0.68399782
-1.0591597
-1.4684179
-1.9231686
-2.3378672
-2.6809181
-2.8917549
-3.044527
-3.1459199
-3.2093978
-3.2348806
-3.1601281
-3.0426473
-2.9005862
-2.7567626
-2.6125495
-2.4806157
-2.3487548
-2.2150364
-2.0687899
-1.9429486
-1.8563336
-1.7982045
-1.7104631
-1.5822643
-1.4308374
-1.2891771
-1.1258818
-0.93163155
-0.71002372
-0.51411718
-0.31018684
-0.11055252
0.078759328
0.22319991
0.34286255
0.44351815
0.54143223
0.65051866
0.76846678
0.87925956
1.0105554
1.3608767
2.0103204
2.4815969
2.3556613
1.8613194
1.3281902
1.2567367
3.7434648
9.1842511
21.165135
36.378296
32.355437
32.290831
26.972667
20.007004
10.967485
1.5667759
-8.2938173
-17.599282
-27.37253
-35.643845
-40.182772
-40.619869
-37.685414
-30.634819
-29.268127
-27.795185
-36.217126
-47.022457
-49.671729
-43.018803
-21.563322
7.1061501
31.24458
41.156445
34.16268
11.219877
-15.381102
-28.634682
-18.492372
-1.6082531
6.5746612
6.0908893
4.0728976
3.5309507
2.8394139
1.5877596
0.76656475
0.43719826
0.053909087
-0.086409152
-0.067114373
-0.12548149
-0.40332597
-0.68345111
-0.80080506
-0.80092305
-0.71090566
-0.63419056
-0.59224334
-0.57233854
-0.51602041
-0.53659636
-0.52583844
-0.68284224
-0.44421943
-0.26554186
-0.51762742
-0.56606721
-0.60058522
-0.56423579
-0.58516422
-0.63036209
-0.66630929
-0.68833106
-0.70516465
-0.72056392
-0.73281954
-0.74345256
-0.75335531
-0.75840002
-0.76112692
-0.75851561
-0.755145
-0.74419037
-0.72854316
-0.70311081
-0.66916975
-0.64366567
-0.62410684
-0.56915359
-0.44269523
-0.20600318
-0.59414216
-0.71469857
-0.73413456
-0.72817205
-0.74726787
-0.75323927
-0.74873865
-0.7601807
-0.77102756
-0.77997902
-0.78828103
-0.79571301
-0.80211908
-0.80731626
-0.81163582
-0.81517434
-0.8181601
-0.82068765
-0.82307107
-0.82570845
-0.82809961
-0.8311229
-0.83291543
-0.83466873
-0.83630419
-0.83846494
-0.84023803
-0.8423936
-0.84496525
-0.84802929
-0.85045019
-0.85261732
-0.85469955
-0.85680418
-0.85834829
-0.85977158
-0.86121781
-0.86259674
-0.86302426
-0.8630435
-0.86286173
-0.86294872
-0.86270732
-0.86287179
-0.86368571
-0.86535801
-0.86690643
-0.86865982
-0.87077442
-0.87332106
-0.87554439
-0.87754491
-0.87919187
-0.88120153
-0.88302932
-0.88538774
-0.88798544
-0.89119766
-0.89398679
-0.89733613
-0.90157288
-0.90677369
-0.91287229
-0.91974976
-0.92793199
-0.93710263
-0.94749411
-0.95827505
-0.97011332
-0.98324931
-0.99877762
-1.0153321
-1.0311228
-1.0429477
-1.0509197
-1.0545283
-1.0545718
-1.0519107
-1.0484748
-1.044818
-1.0415362
-1.0383087
-1.035541
-1.0330771
-1.031376
-1.0300995
-1.0297652
-1.0303516
-1.0318906
-1.0336552
-1.0351832
-1.0370902
-1.0395366
-1.0420278
-1.0431582
-1.043829