/*--------------------------------*- C++ -*----------------------------------*\
| =========                 |                                                 |
| \\      /  F ield         | OpenFOAM: The Open Source CFD Toolbox           |
|  \\    /   O peration     | Version:  2.4.0                                 |
|   \\  /    A nd           | Web:      www.OpenFOAM.org                      |
|    \\/     M anipulation  |                                                 |
\*---------------------------------------------------------------------------*/
FoamFile
{
    version     2.0;
    format      ascii;
    class       volVectorField;
    location    "280";
    object      U;
}
// * * * * * * * * * * * * * * * * * * * * * * * * * * * * * * * * * * * * * //

dimensions      [0 1 -1 0 0 0 0];

internalField   nonuniform List<vector> 
78300
(
(-0.0028782337 5.693741e-05 1.5327644e-21)
(-0.00692045 -1.7481244e-05 -8.2268035e-21)
(-0.0012437108 2.1577456e-05 9.9452976e-21)
(-0.0032388589 0.00012459007 -3.8890268e-19)
(-0.00060686758 1.0816914e-05 -9.9613279e-20)
(-0.0025105066 0.00018869898 2.0535554e-19)
(-0.00064381225 -1.0006073e-05 1.1576094e-19)
(-0.0018006741 0.00038402826 -5.4177801e-19)
(-0.00093640239 0.00017107317 -2.5688382e-19)
(-0.00076552583 0.0002459337 3.9871593e-19)
(0.00026350166 -6.7301198e-05 3.3365282e-19)
(0.00057272026 8.1175199e-05 -1.1550199e-18)
(-0.000338746 0.00015979558 2.9982362e-19)
(-0.0031813302 0.00013501607 -1.0717327e-18)
(-0.00061952007 -0.00019673526 2.8253844e-19)
(0.0013036966 0.00049444457 -1.8360919e-18)
(-0.00056556802 0.001321753 -7.9752852e-19)
(-0.0019816528 0.0017675007 4.8402962e-19)
(-0.0018336217 0.0012799173 -1.7691706e-18)
(-0.00098374635 0.0010854871 1.629941e-18)
(-0.00068802904 0.00096640593 2.6834846e-18)
(-0.00062029083 0.00081109758 -2.9760608e-18)
(-0.00056066597 0.00066819663 -1.328716e-18)
(-0.00049315795 0.00057286624 7.550875e-19)
(-0.0003988704 0.00047063141 2.1533943e-18)
(-0.00034847081 0.00040417188 6.0488987e-19)
(-0.00029833583 0.0003516924 8.6856354e-19)
(-0.00028126827 0.0003123952 -3.1351781e-18)
(-0.00028915821 0.00028522611 -2.6237647e-18)
(-0.00033496057 0.0002698145 -1.7477324e-18)
(-0.00035885161 0.00025212645 1.7498731e-18)
(-0.00040398179 0.00024604165 3.523374e-18)
(-0.00050186176 0.00024895846 1.2630952e-18)
(-0.00063881257 0.00026591908 1.6332757e-18)
(-0.00074728164 0.00023709797 -1.7082396e-18)
(-0.00074728596 0.00023781377 1.1310732e-18)
(-0.00080165154 0.0003701736 -1.9248353e-18)
(-0.0011134888 0.00041441612 -7.047079e-20)
(-0.0016572539 0.00014714813 -3.9186095e-18)
(-0.0042350873 5.0755824e-05 8.4790616e-19)
(-0.00052303799 -0.0010793382 -2.1660994e-20)
(0.0043370709 0.00077146277 7.5856208e-19)
(0.00025509719 0.00084010239 1.4757512e-18)
(-0.0006295339 0.00049702349 1.7152689e-18)
(-0.00070191834 0.00051098057 -2.6768293e-18)
(-0.00063594563 0.0005470776 -2.9660286e-18)
(-0.00072096179 0.00043342881 1.0262906e-18)
(-0.0006816677 0.00040446204 2.7530123e-18)
(-0.00058309792 0.0004397761 -2.7035239e-18)
(-0.00060645461 0.00040128341 2.1683367e-18)
(-0.00060194013 0.00036167688 4.7793035e-18)
(-0.0005957412 0.00032783058 -6.3181448e-19)
(-0.00058205311 0.00028733473 8.9872584e-19)
(-0.0005560943 0.00024315553 3.5184809e-18)
(-0.00052606719 0.00020145048 1.1805826e-18)
(-0.00047923385 0.00015964056 -1.0789092e-18)
(-0.00043958084 0.00012433221 -8.7367956e-19)
(-0.0003842582 9.0588518e-05 -2.0620701e-18)
(-0.00035643004 6.7390125e-05 -3.7879911e-20)
(-0.00030544174 4.4350697e-05 2.2035861e-18)
(-0.00032162331 3.2283261e-05 -5.2558763e-19)
(-0.00031865384 1.6363492e-05 -7.7197033e-20)
(-0.00047055287 5.4735902e-06 -8.7715906e-20)
(-0.00074302445 -5.1732735e-07 1.1665509e-23)
(-0.0009310766 -1.7211944e-07 -2.9053606e-23)
(-0.0011314992 -1.4660795e-06 -9.0456612e-23)
(-0.0013023593 -7.9748362e-07 9.5714629e-23)
(-0.00147505 -1.6249481e-06 -9.0864199e-23)
(-0.0016200267 -1.9870586e-06 5.7992706e-23)
(-0.0017634334 -3.0965154e-06 -7.369611e-23)
(-0.0018968544 -2.1268334e-06 4.6637983e-23)
(-0.0020292801 -1.8997265e-06 9.7178758e-23)
(-0.0021459019 -1.5986655e-06 -1.3074993e-22)
(-0.0022563941 -1.9451661e-06 -5.1892939e-16)
(-0.0023579522 -1.2148416e-06 -5.1959479e-16)
(-0.0024529689 -1.2326014e-06 2.5300498e-22)
(-0.0025361774 -1.0940458e-06 -9.5708366e-23)
(-0.0026134954 -1.4716902e-06 -8.6751825e-23)
(-0.0026882441 -3.2782294e-07 9.8524761e-23)
(-0.002759112 -2.3066523e-07 -7.949955e-23)
(-0.002821786 1.661139e-07 4.5732598e-23)
(-0.0028826884 -5.2506407e-07 -1.260237e-22)
(-0.0029311177 1.9698166e-07 6.5795322e-23)
(-0.0029743762 -5.6511881e-07 9.8537371e-23)
(-0.0030088592 -8.3345277e-07 -9.9560259e-23)
(-0.0030395609 -2.1350777e-06 1.3084403e-23)
(-0.0030710703 -1.857558e-06 -7.3591605e-23)
(-0.0031028799 -2.2415037e-06 9.8954905e-23)
(-0.0031291523 -2.3247529e-06 5.9999333e-23)
(-0.0031523246 -2.9508595e-06 -9.4025429e-23)
(-0.0031745893 -2.4877766e-06 6.6632532e-23)
(-0.003196096 -2.4254537e-06 -5.2297049e-23)
(-0.003210741 -1.6311051e-06 2.457964e-23)
(-0.0032185326 -2.0049337e-06 2.7515129e-24)
(-0.0032396757 -1.6915865e-06 -3.6799565e-24)
(-0.0032303056 -2.7557941e-06 -3.0795477e-23)
(-0.0032116456 -2.4588128e-06 2.7013286e-24)
(-0.003192198 -3.5606925e-06 -3.7549791e-23)
(-0.0031771156 -3.1504976e-06 2.5980908e-24)
(-0.003170556 -3.5027913e-06 6.8149865e-23)
(-0.0031450498 -3.6438948e-06 -3.1257447e-23)
(-0.0031188224 -4.1781954e-06 2.7646995e-24)
(-0.0030936504 -4.7813985e-06 -3.8384087e-23)
(-0.0030712205 -4.7981406e-06 2.5461724e-24)
(-0.0030483002 -5.8990111e-06 7.0146436e-23)
(-0.0030279436 -5.6639919e-06 3.1945447e-24)
(-0.0030135914 -6.7531868e-06 -3.5856701e-24)
(-0.0030087505 -5.6520321e-06 -3.2851375e-23)
(-0.0030099769 -6.5154565e-06 2.9863331e-24)
(-0.0030030826 -5.3711268e-06 3.746195e-23)
(-0.0029998257 -6.9969469e-06 -6.8853091e-23)
(-0.0030655619 -5.8334188e-06 7.6366474e-23)
(-0.0031169765 -7.1738828e-06 -7.0932769e-23)
(-0.003140079 -4.227618e-06 1.3587116e-23)
(-0.0032268931 -3.1715347e-06 -7.6416521e-24)
(-0.0033092464 -4.951018e-07 3.253208e-23)
(-0.003382771 4.2118972e-07 -1.8202572e-23)
(-0.0034321419 1.4531614e-06 -4.5988035e-24)
(-0.0034518639 1.0794609e-06 3.3640018e-24)
(-0.0034449223 8.732584e-07 3.0823542e-24)
(-0.0034273003 5.9023897e-07 -6.3401389e-16)
(-0.0034065145 4.9953347e-07 -6.3184039e-16)
(-0.0033829098 1.3392358e-07 -3.6132004e-23)
(-0.0033587467 1.1050791e-07 3.0656585e-24)
(-0.0033321614 -3.3891329e-07 3.3057577e-24)
(-0.0033067516 -1.3074357e-07 2.2925772e-24)
(-0.0032777994 -7.85788e-07 2.016176e-25)
(-0.0032467526 -5.5623025e-07 7.1128089e-24)
(-0.0032167944 -8.4705172e-07 3.0387332e-24)
(-0.0031971267 -2.7505848e-07 -1.1038072e-23)
(-0.0031856547 -5.5135907e-07 -5.464195e-25)
(-0.0031734408 -1.854773e-07 -5.6551199e-24)
(-0.0031566037 -2.196776e-07 9.4064859e-24)
(-0.0031471819 2.6498818e-07 -1.3007367e-24)
(-0.0031524395 2.7579558e-07 -2.9477828e-25)
(-0.0031599342 4.3303085e-07 -5.5576216e-25)
(-0.0031590739 6.5708816e-07 -4.2758975e-26)
(-0.003158361 7.2319013e-07 -3.4238113e-24)
(-0.0031750339 1.1048774e-06 1.5680027e-24)
(-0.0032028195 9.081509e-07 7.9401765e-24)
(-0.0032274728 8.8843387e-07 -1.4951453e-23)
(-0.003250675 6.1878547e-07 2.1193399e-23)
(-0.003279875 2.1377931e-07 -6.372777e-25)
(-0.0033105418 -3.1654727e-07 -1.0912893e-23)
(-0.0033329395 -1.0819036e-06 2.9266659e-24)
(-0.0033491109 -1.4836802e-06 -6.9071769e-24)
(-0.0033620445 -2.2001066e-06 2.9027653e-24)
(-0.0033725401 -2.6661806e-06 1.9980219e-25)
(-0.0033840197 -3.3349453e-06 3.0044088e-24)
(-0.003415598 -2.764437e-06 2.9034549e-24)
(-0.0034626963 -4.0802481e-06 2.5545653e-24)
(-0.0035109927 -4.9615712e-06 -1.0268985e-23)
(-0.0035708408 -5.9223934e-06 -6.1627424e-24)
(-0.0036816805 -6.7288673e-06 -9.4385243e-24)
(-0.0038296855 -9.7617962e-06 4.6803315e-24)
(-0.0039211871 -1.4999178e-05 1.0603087e-23)
(-0.0039469737 -1.5905971e-05 2.2161285e-23)
(-0.0040423612 -1.7323977e-05 -4.1774586e-16)
(-0.0042718947 -2.1438464e-05 -1.8102896e-19)
(-0.0043695468 -3.4660058e-05 3.4165251e-16)
(-0.00425087 -3.3023059e-05 2.1355591e-23)
(-0.0042746733 -3.1619727e-05 -5.2901476e-24)
(-0.0049400036 -3.6129983e-05 2.6372725e-23)
(-0.0061786619 -6.7889187e-05 -1.7824227e-23)
(-0.0070661769 -0.00011799332 8.5176913e-24)
(-0.0065846603 -0.0001397069 -1.3531404e-23)
(-0.0052672678 -0.0001052872 1.3492003e-23)
(-0.0039705965 -7.1697721e-05 -2.1617581e-23)
(-0.0029678179 -3.4750235e-05 3.3565526e-23)
(-0.002246291 -2.5551619e-05 -8.8257254e-24)
(-0.0014653312 -8.3565037e-06 -1.6628053e-23)
(-0.00049558325 1.8794185e-05 5.8359345e-24)
(0.00085112442 5.2231706e-05 1.3144293e-23)
(0.0022824488 0.00011519224 -1.0937234e-23)
(0.0036931412 0.00015975714 -3.5087135e-24)
(0.0047282973 0.00023222494 1.3729253e-23)
(0.0056418908 0.00024509161 -1.2856864e-23)
(0.0067037284 0.00031337542 -3.2881148e-23)
(0.0076603766 0.00031667439 -7.9564417e-23)
(0.007605523 0.00037925938 6.7388952e-23)
(0.0063507412 0.00031808967 6.9102663e-23)
(0.0041777101 0.0002823179 -1.0785054e-22)
(0.0021141002 0.00018069841 2.4256263e-22)
(0.00097504429 0.00015803818 -2.3330283e-22)
(5.1736895e-05 0.00011032679 1.4296355e-22)
(-0.00065995991 8.1809392e-05 -1.2639273e-22)
(-0.0021812449 2.5040862e-05 1.4639595e-22)
(-0.003724738 -6.1795723e-05 9.3601737e-23)
(-0.0045164753 -8.9734103e-05 -8.1352849e-23)
(-0.0047666819 -0.00012186989 8.3012863e-23)
(-0.0047375637 -0.00011960822 -2.2450736e-22)
(-0.0045623021 -0.00013065694 1.2545685e-22)
(-0.0044256901 -0.0001138491 -1.0614538e-22)
(-0.0043857797 -0.00012688485 1.650565e-22)
(-0.0044068667 -0.00013036886 -2.35553e-23)
(-0.0042182217 -0.00014615394 -5.7233104e-23)
(-0.0036104483 -0.00011271623 -5.5538287e-23)
(-0.0029780552 -8.0023856e-05 1.9028433e-22)
(-0.0029549431 -6.1337275e-05 -1.0912132e-15)
(-0.0035709703 -0.0001071899 -1.0390079e-15)
(-0.0041230564 -0.00013681446 5.6818323e-23)
(-0.0042192459 -0.00016407997 6.8120235e-23)
(-0.004194285 -0.00016273576 -4.8313381e-23)
(-0.0046350078 -0.00021807714 -8.7415962e-25)
(-0.0052185142 -0.00024335283 1.9551959e-23)
(-0.0052676223 -0.00027956647 4.2937323e-16)
(-0.005093347 -0.00025214536 3.118015e-16)
(-0.0051404388 -0.00028594079 3.3286615e-20)
(-0.0051003261 -0.00028624215 -1.2259946e-19)
(-0.0045563141 -0.00030390233 4.0779366e-20)
(-0.0039096414 -0.00028840715 -7.2786921e-19)
(-0.0033466454 -0.00029553158 -1.8576313e-19)
(-0.0030925694 -0.00030707973 -1.5978665e-18)
(-0.0032616634 -0.0003797161 1.3003626e-19)
(-0.0033049717 -0.00036691261 -2.4207075e-20)
(-0.0035850189 -0.00051695114 1.0136677e-18)
(-0.003678413 -0.00060223564 -9.0892605e-19)
(-0.0063624195 -0.00089855328 3.3717794e-18)
(-0.0095006536 -0.00011316136 -3.0380365e-18)
(-0.0099699842 0.00029981443 -1.2125564e-18)
(-0.0035468372 1.0757175e-05 -2.7722265e-18)
(0.0016613148 -0.0021497118 1.516998e-17)
(0.0066480338 -0.0025254415 2.6990545e-18)
(0.0033654731 -0.0022301043 -7.0709297e-18)
(-0.021004548 0.00073086447 -6.5606058e-18)
(-0.064203761 0.00018085179 -3.4333227e-18)
(-0.14364413 -0.0019093524 4.0022275e-18)
(-0.2161654 -0.0025099164 -1.3096851e-16)
(-0.083893734 -0.0030615692 -1.5053528e-17)
(0.026223645 -0.0022765688 -3.6255187e-17)
(0.03935393 -0.0030475428 -2.3862119e-16)
(0.091556203 0.0009880562 3.0180918e-17)
(0.1144812 -0.00029149669 1.2207994e-16)
(0.12398553 -0.0048713928 4.94496e-17)
(0.12440629 -0.0095902409 -3.4102914e-18)
(0.1193621 -0.011031492 6.4364558e-18)
(0.11698193 -0.011472537 1.3052702e-17)
(0.1092887 -0.010205374 -4.2351323e-17)
(0.080838223 -0.0032778583 -1.9684106e-16)
(0.041925126 0.0076025395 2.4504456e-16)
(-0.00034568939 0.015964212 -6.7778009e-17)
(-0.042288564 0.018566529 -6.5944226e-18)
(-0.034868895 0.013999969 -4.9591957e-17)
(-0.0090841686 0.0091188741 -2.8575932e-17)
(0.042695376 0.00061108365 1.2857338e-17)
(0.10479492 -0.001969568 -8.7578145e-17)
(0.074591832 0.0035150497 1.4033617e-17)
(-0.001968594 0.018206013 2.6950541e-16)
(-0.11026834 0.038200712 5.937699e-18)
(-0.21515174 0.045034864 8.8460619e-17)
(-0.23227283 0.036099972 2.5090871e-17)
(-0.15673477 0.013958205 1.1245238e-17)
(-0.028230574 -0.015402072 2.5886638e-17)
(0.11312426 -0.034529156 -6.2329319e-17)
(0.21449933 -0.029266827 1.7636733e-17)
(0.19070372 -0.0040691047 -2.6558012e-17)
(0.056086143 0.030856331 1.6011326e-16)
(-0.079313686 0.044763584 9.6222253e-17)
(-0.093704266 0.020212062 -2.7464366e-18)
(-0.027057368 0.0043048796 2.4487865e-17)
(0.020583933 0.0014946701 1.9819181e-17)
(0.030000081 0.0050492828 1.9666957e-18)
(0.023094919 0.0040018221 -2.2677547e-18)
(0.018620262 0.0011361323 2.0799773e-18)
(0.017002087 0.00053785696 7.186678e-19)
(0.012041564 0.00041762826 7.1587153e-20)
(0.0079055433 0.00016387973 6.5926669e-20)
(0.0038019637 -8.3372655e-06 5.1346706e-21)
(0.0074798973 -8.5132806e-05 -5.0577921e-21)
(0.0005417754 4.2592365e-05 -7.4879102e-22)
(-0.012170937 -5.3117933e-05 1.6902873e-21)
(-0.024401982 -0.00018675788 2.3765208e-20)
(-0.0064787956 4.1690328e-05 -3.6711584e-20)
(-0.010458409 0.00035140997 4.5861396e-19)
(-0.0011229923 1.6212384e-05 6.0208603e-21)
(-0.0062625654 0.00056919539 7.5910688e-19)
(-0.0010978464 7.0572885e-06 -3.0572076e-19)
(-0.0049738668 0.0011323891 7.7161926e-19)
(-0.0022517811 0.00052203096 7.7851882e-19)
(-0.0021342292 0.00081531708 -9.4476977e-19)
(0.00068297526 -0.00040575351 -4.02225e-19)
(0.00061760292 0.00044775511 1.7469867e-19)
(-0.00077612527 -4.3545759e-05 6.7342691e-18)
(-0.0054146708 0.00072581653 8.080572e-19)
(-0.00092812804 0.001425465 -7.7331508e-19)
(0.001034009 0.0020478595 1.64026e-18)
(-0.0032552483 0.0033905721 -1.2904051e-18)
(-0.0061137578 0.0047115502 -6.4056743e-19)
(-0.0050461619 0.003903055 -1.8464814e-18)
(-0.0033596727 0.0033722381 6.7863153e-19)
(-0.0026791684 0.0029523361 -1.2411588e-18)
(-0.0023182631 0.0024545037 1.4475114e-18)
(-0.0019955644 0.0020112021 2.1468465e-18)
(-0.001739539 0.0017246579 6.0250219e-18)
(-0.0014300196 0.0014146223 -1.9522489e-18)
(-0.0012448914 0.0012135193 -3.1818384e-18)
(-0.0010830275 0.0010512246 -4.9347602e-18)
(-0.0009939688 0.0009318234 2.6514279e-18)
(-0.0009627321 0.00083456646 1.1567568e-18)
(-0.0010090839 0.00079673678 5.8021632e-18)
(-0.0010211808 0.00075715994 -8.8334882e-18)
(-0.0010826498 0.00073652238 -5.2066084e-18)
(-0.001241447 0.00074908356 -9.1739555e-19)
(-0.0014849167 0.0008107869 -1.7499008e-18)
(-0.0016085725 0.00074706565 -4.8657526e-20)
(-0.0016219099 0.00076159015 5.4262141e-18)
(-0.0019406431 0.0011297177 4.574605e-18)
(-0.002481532 0.0012537427 2.1908133e-19)
(-0.0028068601 0.00049296015 3.8721347e-18)
(-0.0063246586 0.00015668549 4.2140642e-19)
(0.00029275961 0.0017039968 -2.9120889e-22)
(0.0048348545 0.0029925815 4.3389446e-18)
(-0.0013549297 0.0023497505 9.4660244e-19)
(-0.0020362469 0.0013982113 6.919368e-19)
(-0.0022184953 0.0015404189 -1.4121058e-18)
(-0.0022403755 0.0016571658 7.6203639e-18)
(-0.0021734274 0.001321381 -2.2947625e-18)
(-0.002131235 0.0012951946 1.6143542e-18)
(-0.0021128507 0.0013466632 1.669951e-19)
(-0.0021206676 0.0012296998 1.4155733e-18)
(-0.0020804948 0.0011092771 -9.6406563e-19)
(-0.00204568 0.0010009501 5.0326357e-18)
(-0.0019777764 0.00087816197 3.5329093e-19)
(-0.0018697396 0.00074540858 -1.1447707e-18)
(-0.0017515975 0.00061942033 3.2086304e-19)
(-0.0015887072 0.00049170123 -3.3296507e-18)
(-0.0014495926 0.00038513895 3.3781032e-18)
(-0.0012701124 0.00028305255 -2.7445143e-18)
(-0.0011783774 0.00021199585 8.2177998e-19)
(-0.0010313075 0.00014250748 -7.4710063e-20)
(-0.0010811817 0.00010278679 -1.9235844e-19)
(-0.001084921 5.7185386e-05 -1.6924623e-18)
(-0.0015352597 2.0563339e-05 1.3483183e-19)
(-0.0023319136 3.3564136e-06 -2.4388617e-22)
(-0.0028975815 2.8049346e-06 -2.5490181e-25)
(-0.0035084033 1.9824136e-06 -4.7644695e-23)
(-0.0040261099 1.5082666e-06 1.5840779e-22)
(-0.0045447292 1.0505773e-06 -9.5027117e-23)
(-0.0049948483 -5.9773823e-08 3.192448e-23)
(-0.0054416352 -1.319347e-06 3.2138669e-23)
(-0.0058407872 -1.5156033e-06 3.2346051e-23)
(-0.0062230856 -1.1647047e-06 -1.1305256e-22)
(-0.0065680274 -1.1999148e-06 4.9213466e-23)
(-0.0068990844 -1.4601036e-06 3.2461679e-23)
(-0.0071954345 -1.2361419e-06 3.2589762e-23)
(-0.0074693426 -9.8798091e-07 -1.9548043e-22)
(-0.0077175412 -1.1717802e-06 1.3095996e-22)
(-0.0079492396 -1.3531782e-06 -6.6056031e-23)
(-0.0081566206 -6.3607672e-07 3.2613626e-23)
(-0.0083463225 2.1947117e-07 -9.7692178e-23)
(-0.0085234981 6.1179347e-07 3.2664221e-23)
(-0.008707337 2.7334928e-07 3.2653853e-23)
(-0.0088511932 1.0923714e-07 3.2650559e-23)
(-0.0089816471 -6.9291635e-08 3.2644933e-23)
(-0.0091022288 -9.0470373e-07 3.2679576e-23)
(-0.009218755 -1.9630244e-06 3.2801686e-23)
(-0.0093252688 -2.3527564e-06 -9.7849859e-23)
(-0.0094214388 -2.4965442e-06 -1.6065882e-23)
(-0.0095094091 -2.9172208e-06 -1.1573899e-22)
(-0.0095918119 -3.4683249e-06 1.8164336e-22)
(-0.0096603065 -3.5024533e-06 -1.1619628e-22)
(-0.0097157629 -3.3896429e-06 3.3001435e-23)
(-0.0097496816 -3.1934025e-06 1.00098e-22)
(-0.0097725507 -3.1348259e-06 3.3439499e-23)
(-0.0098383816 -3.0720641e-06 -4.1775054e-23)
(-0.0098155892 -3.7107207e-06 -2.439662e-23)
(-0.0097717243 -4.0427634e-06 -5.9715342e-23)
(-0.0097259076 -4.290393e-06 -4.2427031e-23)
(-0.0096828678 -3.8120621e-06 1.2750961e-22)
(-0.0096649224 -4.1509452e-06 -4.2428678e-23)
(-0.0096119272 -5.0083814e-06 -2.4885245e-23)
(-0.0095624429 -5.6394589e-06 -6.1030954e-23)
(-0.009517605 -6.2029209e-06 1.2977351e-22)
(-0.0094768655 -6.6706294e-06 -6.1376117e-23)
(-0.0094426113 -7.254788e-06 -2.5640221e-23)
(-0.0094189685 -7.8303604e-06 -4.463613e-23)
(-0.0094129484 -8.2721452e-06 1.1539908e-22)
(-0.0094250663 -8.5387918e-06 -2.59426e-23)
(-0.0094531298 -8.9155513e-06 -7.3942736e-24)
(-0.00947132 -9.7590505e-06 -8.5139368e-23)
(-0.0095235916 -9.6357027e-06 7.2568459e-23)
(-0.0097788057 -9.8852269e-06 -2.797445e-23)
(-0.0099417762 -9.9621205e-06 8.9317517e-25)
(-0.0099358334 -7.7175788e-06 8.6270637e-23)
(-0.010067826 -4.7242228e-06 -1.7383481e-23)
(-0.010182055 -2.5975514e-06 -1.9269291e-23)
(-0.010271935 -8.3898277e-07 -1.1680411e-23)
(-0.010317748 3.0242094e-07 -2.92376e-23)
(-0.010320051 4.6704008e-07 -1.9091569e-24)
(-0.010284378 5.6955188e-07 1.5745564e-23)
(-0.010234221 2.6824731e-07 -8.2111533e-24)
(-0.010178481 3.2482025e-07 1.2269927e-23)
(-0.010116413 7.5345516e-08 -4.8407022e-24)
(-0.010056375 4.0154633e-08 7.6298955e-24)
(-0.0099942422 -2.5337996e-07 -1.6125346e-23)
(-0.0099367242 -3.1580774e-07 2.9623002e-23)
(-0.0098724262 -5.3649318e-07 5.8981845e-24)
(-0.0098100657 -7.6509498e-07 -1.1439608e-23)
(-0.009750783 -8.4416965e-07 -2.0630998e-23)
(-0.0097102625 -7.3793139e-07 2.9198758e-24)
(-0.0096757643 -3.5673836e-07 5.9201378e-24)
(-0.0096422531 -7.2644334e-07 1.061537e-23)
(-0.0096065356 -7.0700583e-07 -9.6804468e-24)
(-0.0095869415 -5.8683297e-07 2.3263404e-24)
(-0.0095811794 1.9332517e-07 1.8369666e-25)
(-0.0095751504 -3.5498393e-07 1.1220846e-24)
(-0.0095599483 -4.453341e-07 -1.6878434e-25)
(-0.0095490281 -5.9285676e-07 -5.1611779e-24)
(-0.0095547892 2.5659544e-07 9.2521174e-24)
(-0.0095689065 -5.2355821e-07 1.3805658e-24)
(-0.0095829299 -8.2982846e-07 5.908322e-24)
(-0.00959396 -1.4182874e-06 -1.7692423e-23)
(-0.0096134492 -1.5101476e-06 -1.4226252e-23)
(-0.0096343103 -2.4621975e-06 3.082883e-24)
(-0.0096567749 -3.3396278e-06 3.4566542e-23)
(-0.0096705562 -3.627437e-06 1.9222414e-23)
(-0.0096785727 -4.3868874e-06 -2.9182628e-23)
(-0.0096930075 -4.750889e-06 -4.2439297e-23)
(-0.0097236793 -5.2066608e-06 7.0288617e-23)
(-0.009783264 -5.2162729e-06 -1.7688239e-23)
(-0.0098453305 -6.4287599e-06 8.4895268e-25)
(-0.0099185737 -8.1904971e-06 -3.167392e-23)
(-0.010022244 -9.2838113e-06 2.2349889e-23)
(-0.010186488 -1.0888412e-05 -1.0722518e-23)
(-0.01035369 -1.5654712e-05 -1.3594071e-23)
(-0.010435576 -2.2417767e-05 -2.7092466e-23)
(-0.01048021 -2.5209491e-05 6.8301739e-23)
(-0.010611472 -2.4724044e-05 -2.6292579e-23)
(-0.010821376 -3.2860679e-05 7.675008e-25)
(-0.010788845 -4.7283234e-05 2.8518677e-23)
(-0.010642543 -5.0349843e-05 -3.1380705e-24)
(-0.010774201 -3.7910525e-05 -4.1886039e-23)
(-0.011623099 -4.8556572e-05 -1.2487027e-23)
(-0.01302372 -0.00010151512 6.6875134e-24)
(-0.013952676 -0.00016965562 -8.7877906e-24)
(-0.013101441 -0.0001901307 4.9953874e-24)
(-0.011354879 -0.00014065173 -3.0090596e-23)
(-0.0095966891 -7.64033e-05 6.2892021e-23)
(-0.00794473 -3.3809719e-05 -4.9606873e-23)
(-0.0066620588 -5.5784426e-06 6.8537311e-24)
(-0.0054142253 2.4811152e-05 9.2017418e-24)
(-0.004027429 6.8289587e-05 -3.9497949e-23)
(-0.0020717365 0.00013124405 4.0382798e-23)
(-6.3565041e-05 0.00020689478 -2.3942143e-24)
(0.0019733846 0.00028639987 -1.4968407e-24)
(0.0036184871 0.00034795486 2.8408762e-23)
(0.0053356069 0.0003854778 1.0211467e-22)
(0.0073798279 0.00042261689 -1.5487137e-22)
(0.0089333545 0.00049252465 -2.052581e-22)
(0.0086987372 0.00053750561 4.7841891e-22)
(0.0067755452 0.00050269017 -5.8086425e-22)
(0.0035409163 0.00040063375 1.7088828e-22)
(0.00045075847 0.00024900707 3.2853282e-22)
(-0.0011999873 0.00016871555 2.9491373e-22)
(-0.0024990534 0.00010547464 2.1006022e-23)
(-0.0034202016 5.4072463e-05 -6.6831476e-22)
(-0.0057237774 -5.177714e-06 4.9356454e-22)
(-0.0080568223 -0.00013142708 -3.0906904e-22)
(-0.009335214 -0.00019400547 4.5308902e-22)
(-0.0096627795 -0.00022407041 -5.0182982e-22)
(-0.0095426793 -0.00023123451 2.5170757e-22)
(-0.0092133122 -0.00022595039 -1.518194e-22)
(-0.0089996196 -0.00021748788 -4.7459118e-23)
(-0.0088422086 -0.00021985042 2.1160191e-22)
(-0.0086741886 -0.00023150609 -2.2022554e-22)
(-0.0082429817 -0.0002375711 2.9123451e-24)
(-0.0073915824 -0.00019869441 -7.0252611e-23)
(-0.0065875818 -0.00013714776 3.1756895e-22)
(-0.006492998 -0.00011934381 -2.1418022e-22)
(-0.007207419 -0.00017816029 -6.2945531e-23)
(-0.0078238648 -0.00025171035 2.6230845e-22)
(-0.0078775462 -0.00028092088 -2.5337922e-22)
(-0.0075917198 -0.00028338724 -1.3821327e-22)
(-0.0080721698 -0.00031931263 2.0086748e-22)
(-0.0088760691 -0.00038322094 -1.1898524e-22)
(-0.0089928637 -0.00040633182 1.3633849e-22)
(-0.0087588122 -0.00038107631 6.2721717e-23)
(-0.0088475132 -0.0004016746 -8.7693166e-20)
(-0.0089785078 -0.00047914187 -1.3593282e-20)
(-0.008267276 -0.00054777934 4.7705541e-21)
(-0.007470519 -0.00063792947 8.7671582e-19)
(-0.0065072524 -0.00067160473 6.7134343e-19)
(-0.0061223522 -0.00075136584 3.9693878e-18)
(-0.0065366814 -0.00093528855 4.2675351e-18)
(-0.0063728078 -0.00092678058 -1.3234908e-18)
(-0.0072118971 -0.0012914586 -1.9408131e-18)
(-0.0074747633 -0.0014708536 4.8817103e-19)
(-0.012230323 -0.0022658763 -1.799646e-18)
(-0.014141749 -0.00012167867 1.9097363e-18)
(-0.013568609 0.00096214581 -3.1175559e-18)
(-0.0050574562 0.00017331928 -1.7238839e-18)
(-0.0028641454 -0.005447905 -1.2136628e-17)
(0.0041870382 -0.0055613412 2.298181e-17)
(-0.00053393386 -0.007027811 5.8872882e-18)
(-0.030725217 0.00043065621 3.1251951e-19)
(-0.094806292 0.0044741207 -1.1194949e-17)
(-0.21787093 0.0011478416 -3.1863008e-17)
(-0.32595334 0.0084742163 1.5827457e-16)
(-0.12480106 -0.00011605047 -4.9239421e-16)
(0.033566918 -0.0068219939 9.7341877e-17)
(0.055057594 -0.0044792146 -4.8297898e-17)
(0.13919734 0.00093812073 6.6073012e-17)
(0.17180301 -0.0023683843 -1.1250962e-16)
(0.17789379 -0.015164699 -1.7890118e-17)
(0.17065201 -0.026125519 -7.3966701e-18)
(0.16050625 -0.031700071 -1.8174369e-17)
(0.15694044 -0.031869705 8.5870608e-17)
(0.14760907 -0.030082985 7.4553169e-17)
(0.11630796 -0.011352604 1.7660302e-16)
(0.07572046 0.018055122 -1.0095746e-17)
(0.025887892 0.038399096 -2.5069159e-16)
(-0.033559148 0.051677219 9.0746497e-17)
(-0.02759942 0.038977095 -8.7531309e-17)
(0.0031489789 0.024671562 5.4333152e-17)
(0.070697242 0.0034823232 2.5486782e-16)
(0.16170185 -0.011330738 -6.3984925e-17)
(0.12174827 0.0040171953 -5.1903344e-17)
(0.025344259 0.046213483 -4.8037289e-16)
(-0.1128201 0.097767827 7.7124292e-17)
(-0.26552852 0.1188776 -4.3584242e-17)
(-0.30510506 0.098364333 -2.0285292e-18)
(-0.21980877 0.042752669 -4.3291815e-17)
(-0.064263444 -0.030614861 -1.8128823e-16)
(0.12673571 -0.082584856 2.6304889e-17)
(0.29236122 -0.06922899 -1.5994587e-17)
(0.29411405 -0.011382294 -4.1662058e-17)
(0.14185169 0.080404947 -5.5133912e-17)
(-0.041711883 0.10769023 -1.1695728e-16)
(-0.10080307 0.059345635 7.0441639e-18)
(-0.025885289 0.01738135 -6.5507857e-18)
(0.043116203 0.0094681247 -2.3969623e-17)
(0.069879216 0.016658244 6.2215094e-18)
(0.059829805 0.012768812 -4.7754597e-18)
(0.041892922 0.0045932961 1.630956e-18)
(0.035826208 0.0021758015 2.6654583e-18)
(0.027683134 0.0012652013 3.1821233e-19)
(0.018700284 0.00038893219 -1.8529758e-20)
(0.007879086 2.9346822e-05 -8.1818387e-21)
(0.021177957 -6.1422538e-05 2.6474713e-21)
(0.00088073112 6.9449286e-05 2.7444247e-21)
(-0.022727989 0.00010972101 1.5687392e-21)
(-0.042726562 -0.00029462188 -8.1394195e-21)
(-0.012507484 -5.525865e-06 -3.9327656e-21)
(-0.017796588 0.00054095341 -2.3101063e-19)
(-0.0013521863 3.4881947e-06 6.1196797e-19)
(-0.0095505194 0.00094094036 -5.0668935e-19)
(-0.0013127597 1.7331657e-05 3.0365476e-19)
(-0.0080144261 0.0019024833 -1.6386227e-18)
(-0.0034192703 0.0008902682 1.0746192e-18)
(-0.003521017 0.001341151 3.9354114e-20)
(0.0011545589 -0.00057309403 5.6236795e-19)
(0.00012838809 0.00066068451 -9.4738021e-19)
(-0.00079089391 0.00022404506 -6.6823577e-18)
(-0.0064529997 0.001264771 1.5819635e-18)
(-0.0025092298 0.0017649043 9.021667e-19)
(-0.00072379203 0.0033402291 -4.3842144e-19)
(-0.006048299 0.0059307038 5.3341089e-19)
(-0.0098390479 0.0080776593 1.4042649e-18)
(-0.0081970555 0.0065132461 3.9497114e-18)
(-0.006011687 0.0056081149 -2.7818535e-18)
(-0.0049547263 0.0049213303 -3.5102541e-18)
(-0.0042134144 0.0041007058 -8.1965349e-19)
(-0.0035615003 0.0033624402 2.484246e-18)
(-0.003094945 0.0028792511 -6.6627332e-18)
(-0.0025550653 0.0023639338 2.137878e-19)
(-0.0022199306 0.0020278372 -3.7846339e-18)
(-0.0019366831 0.001759502 3.7345085e-18)
(-0.0017609241 0.0015624407 2.5139135e-18)
(-0.0016592246 0.0014065171 1.2835755e-19)
(-0.0016832554 0.0013403129 2.7590855e-18)
(-0.0016761793 0.0012710638 -1.0062946e-18)
(-0.0017290873 0.0012394683 -8.7426104e-19)
(-0.0019100647 0.001257526 -3.2458461e-18)
(-0.0022176698 0.0013537711 1.2658202e-19)
(-0.0023141612 0.0012446487 -6.70083e-18)
(-0.0023574113 0.0012744793 -4.886491e-18)
(-0.0029676233 0.0018883343 -1.0464761e-18)
(-0.0036103689 0.002067576 3.2445333e-19)
(-0.0033476055 0.0007619062 5.3935148e-19)
(-0.0063971816 0.00017104513 -1.8804939e-18)
(-0.0018865517 0.0013217457 4.4181086e-20)
(0.0022753924 0.0050951465 -6.932981e-18)
(-0.0035345156 0.0040955961 -4.229435e-18)
(-0.0034569421 0.0024301271 -1.8561112e-20)
(-0.0037993597 0.0025966739 1.1313387e-17)
(-0.0039824531 0.0027950027 -3.8650697e-18)
(-0.0036768921 0.0022449687 -4.4753091e-18)
(-0.0036921796 0.0021798588 -3.5513075e-18)
(-0.0038044594 0.0022885132 -5.4454538e-19)
(-0.0037783994 0.0020900369 1.4000412e-18)
(-0.0036948847 0.0018877276 -5.0760385e-18)
(-0.003623209 0.001705207 -1.3279406e-18)
(-0.003492899 0.0014969625 -6.1685676e-19)
(-0.0032942367 0.0012720835 -5.6313504e-18)
(-0.0030791978 0.0010579785 3.4249698e-18)
(-0.0027935184 0.00084256551 3.9845257e-18)
(-0.0025485915 0.00066109769 -1.2317808e-18)
(-0.002241293 0.00048828236 1.6107587e-18)
(-0.0020831143 0.00036699218 -1.6836723e-18)
(-0.0018444059 0.00024981869 -3.6644713e-18)
(-0.0019305006 0.00018274434 -2.1713833e-19)
(-0.00195263 0.00010566845 1.0437923e-19)
(-0.0027072398 4.717431e-05 -1.9475639e-19)
(-0.0040267245 1.6251364e-05 2.1774396e-22)
(-0.004978528 1.4664308e-05 -1.3006527e-23)
(-0.0060077702 1.2196041e-05 -4.59201e-23)
(-0.0068794127 1.1985283e-05 1.0009036e-22)
(-0.0077481784 9.8692845e-06 -4.6004279e-23)
(-0.0085123806 8.3758335e-06 -4.6201834e-23)
(-0.0092702852 5.8801354e-06 1.0097844e-22)
(-0.0099374438 6.1669577e-06 -4.6292512e-23)
(-0.010567073 5.5516921e-06 -4.6617697e-23)
(-0.011140809 5.2731538e-06 -4.6866512e-23)
(-0.011693503 4.1462975e-06 3.6648204e-23)
(-0.012183463 4.4767223e-06 1.83295e-23)
(-0.01263411 3.8253423e-06 3.8772939e-23)
(-0.013047883 3.4252929e-06 -4.7191378e-23)
(-0.013434176 2.3934223e-06 1.8424555e-23)
(-0.013769204 3.5719914e-06 -1.1513007e-22)
(-0.014070579 3.4854957e-06 1.0471367e-22)
(-0.014357859 4.1692407e-06 -4.7466408e-23)
(-0.014664357 2.8144578e-06 -1.3378229e-22)
(-0.014903348 3.1321195e-06 1.0471053e-22)
(-0.015121946 1.8782994e-06 3.6970606e-23)
(-0.015334613 1.2415586e-06 -1.3382702e-22)
(-0.015544691 -7.8099458e-07 1.0470943e-22)
(-0.015730089 -6.1202054e-07 -4.7677528e-23)
(-0.015891308 -1.4904604e-06 3.8944423e-23)
(-0.016044125 -1.8639388e-06 1.8453541e-23)
(-0.016189596 -3.0526457e-06 -4.7995128e-23)
(-0.016304584 -2.7611472e-06 -4.8260008e-23)
(-0.016390684 -3.295424e-06 1.9184412e-22)
(-0.016440427 -2.7036268e-06 -1.359999e-22)
(-0.016478094 -2.9801377e-06 3.7597964e-23)
(-0.016590207 -2.6870696e-06 1.0698763e-22)
(-0.016554757 -5.4441518e-06 -4.8412274e-23)
(-0.016489171 -5.2592358e-06 -1.3733142e-22)
(-0.016419416 -6.6389628e-06 2.9191222e-23)
(-0.016346268 -5.1169976e-06 3.8013001e-23)
(-0.016316799 -6.1238032e-06 2.9605875e-23)
(-0.016243636 -6.9301966e-06 2.98341e-23)
(-0.016180321 -7.5772029e-06 -6.0288574e-23)
(-0.016125761 -8.2633456e-06 2.9988399e-23)
(-0.016075672 -8.2521953e-06 3.9255777e-23)
(-0.016041742 -9.5080849e-06 -6.143919e-23)
(-0.016027635 -9.032254e-06 3.071989e-23)
(-0.016042535 -1.0132254e-05 3.1343343e-23)
(-0.016081107 -8.6066099e-06 -3.142458e-23)
(-0.016145087 -9.8854683e-06 -5.0811492e-23)
(-0.016203684 -8.8331653e-06 -5.0620061e-24)
(-0.01633556 -8.0977178e-06 4.1764469e-23)
(-0.016805214 -5.7629473e-06 3.331189e-23)
(-0.017089823 -1.0251767e-05 -1.0736801e-22)
(-0.017029395 -6.4192022e-06 1.6696002e-22)
(-0.017162344 -3.5105367e-06 -1.3891968e-22)
(-0.017263891 -2.9932842e-07 1.1496103e-22)
(-0.017326007 4.6978777e-07 -4.5374073e-23)
(-0.01733401 1.3900824e-06 -2.0450307e-23)
(-0.017299979 1.3676879e-07 -4.8448012e-24)
(-0.017230813 -9.1394677e-08 3.4741615e-23)
(-0.017148677 -7.8498196e-07 -2.1566894e-23)
(-0.017059789 -6.392912e-07 1.8819647e-23)