/*--------------------------------*- C++ -*----------------------------------*\
| =========                 |                                                 |
| \\      /  F ield         | OpenFOAM: The Open Source CFD Toolbox           |
|  \\    /   O peration     | Version:  2.4.0                                 |
|   \\  /    A nd           | Web:      www.OpenFOAM.org                      |
|    \\/     M anipulation  |                                                 |
\*---------------------------------------------------------------------------*/
FoamFile
{
    version     2.0;
    format      ascii;
    class       volScalarField;
    location    "5000";
    object      omega;
}
// * * * * * * * * * * * * * * * * * * * * * * * * * * * * * * * * * * * * * //

dimensions      [0 0 -1 0 0 0 0];

internalField   nonuniform List<scalar> 
9820
(
1.0048145
1.0057549
1.0068106
1.0079792
1.0092599
1.0106543
1.0121488
0.95895385
0.95981161
0.96075479
0.96178951
0.96291999
0.96415082
0.96547856
0.91780522
0.91849733
0.91926665
0.92011662
0.92105061
0.92207268
0.92318367
0.87972495
0.87975876
0.87984489
0.87999445
0.88020105
0.88046641
0.88079233
0.88118037
0.88163723
0.88215934
0.8827485
0.88340689
0.88413685
0.88494112
0.88582175
0.84886049
0.84885398
0.84887765
0.84894335
0.84906427
0.84923427
0.84945488
0.84972742
0.85005427
0.85043649
0.85087546
0.85137294
0.85193068
0.85255055
0.85323436
0.8218352
0.82178102
0.82177034
0.82178857
0.82184117
0.82194151
0.82208298
0.82226676
0.82249419
0.82276637
0.82308562
0.82345411
0.82387358
0.82434563
0.82487175
0.79851421
0.79837055
0.79824874
0.7981498
0.79807474
0.79802459
0.79800338
0.79800888
0.79803365
0.79808983
0.79817969
0.79830106
0.79845537
0.79864341
0.79887196
0.7991428
0.79945612
0.79981272
0.80021367
0.77726111
0.77716119
0.77708053
0.77701971
0.77697962
0.7769608
0.77696299
0.77697817
0.77701383
0.77707296
0.77715528
0.77726192
0.77739393
0.77755265
0.77773908
0.77795436
0.77819976
0.77847665
0.7787864
0.75835613
0.75828679
0.75823507
0.75820116
0.75818651
0.75819099
0.75820991
0.75824972
0.7583085
0.75838651
0.75848451
0.7586033
0.75874357
0.75890663
0.7590885
0.7592898
0.75951268
0.75975881
0.76002963
0.74188474
0.74178813
0.74170728
0.74164234
0.74159354
0.74156085
0.74154443
0.74154712
0.74156187
0.74159508
0.74164723
0.74171681
0.7418041
0.74190947
0.74203333
0.74217607
0.7423384
0.74251985
0.74272031
0.74294023
0.74318029
0.7434413
0.72717148
0.72709257
0.727028
0.72697789
0.72694262
0.72692146
0.72691738
0.72692533
0.72694793
0.72698862
0.72704517
0.72711778
0.72720667
0.72731207
0.72743424
0.72757341
0.72772997
0.72790411
0.72809599
0.72830582
0.7285339
0.72878064
0.72904655
0.72933197
0.72963824
0.71553612
0.71536227
0.71519988
0.71504909
0.71491004
0.71478285
0.71466768
0.71456464
0.71447389
0.71439558
0.71432988
0.71427697
0.71423697
0.71421047
0.71419511
0.71419709
0.71420845
0.7142344
0.71427592
0.71433171
0.714402
0.71448702
0.71458696
0.71470207
0.71483251
0.71497855
0.71514043
0.71531842
0.71551274
0.71572363
0.71595134
0.71619619
0.71645835
0.7167387
0.70442211
0.7042725
0.70413279
0.70400311
0.70388359
0.70377436
0.70367557
0.70358736
0.70350985
0.70344321
0.70338759
0.70334318
0.70331006
0.70328891
0.70327701
0.70327991
0.70329213
0.70331777
0.70335647
0.70340785
0.7034721
0.70354946
0.70364011
0.70374428
0.70386213
0.70399389
0.70413978
0.70430006
0.70447497
0.70466474
0.70486959
0.70508977
0.70532541
0.70557716
0.69505367
0.69492625
0.69480717
0.69469655
0.6945945
0.69450117
0.69441668
0.69434117
0.69427478
0.69421766
0.69416994
0.6941318
0.69410333
0.69408518
0.69407454
0.69407677
0.69408714
0.69410918
0.69414269
0.69418721
0.69424293
0.69431005
0.69438879
0.69447935
0.69458191
0.69469667
0.69482385
0.69496369
0.69511642
0.69528228
0.69546149
0.69565426
0.69586073
0.69608146
0.68734554
0.68723866
0.68713856
0.68704537
0.68695919
0.68688016
0.6868084
0.68674403
0.68668717
0.68663798
0.68659657
0.68656312
0.68653772
0.68652074
0.68651171
0.6865103
0.68651666
0.68653314
0.68655995
0.68659594
0.68664138
0.68669654
0.6867616
0.68683673
0.68692213
0.68701801
0.68712458
0.68724208
0.68737073
0.68751076
0.68766238
0.68782581
0.6880012
0.68818904
0.681861
0.68174337
0.6816305
0.68152249
0.68141941
0.68132134
0.68122837
0.68114058
0.68105808
0.68098097
0.68090935
0.68084333
0.68078302
0.68072854
0.68067999
0.68063751
0.68060121
0.68057124
0.68054772
0.68053083
0.68052097
0.68051513
0.68051744
0.68052751
0.68054603
0.68057208
0.68060598
0.68064801
0.68069817
0.68075659
0.68082353
0.68089923
0.68098391
0.68107779
0.68118108
0.681294
0.68141674
0.6815495
0.68169246
0.68184609
0.67714235
0.67705102
0.67696307
0.67687858
0.67679763
0.67672028
0.67664659
0.67657665
0.67651054
0.67644834
0.67639014
0.67633604
0.67628613
0.6762405
0.67619925
0.67616248
0.67613031
0.67610287
0.67608029
0.6760627
0.67605038
0.676043
0.67603751
0.67603997
0.67604933
0.67606447
0.67608616
0.67611446
0.67614878
0.67618941
0.67623696
0.67629164
0.6763536
0.67642303
0.67650012
0.67658509
0.67667806
0.67677919
0.6768888
0.67700734
0.67392357
0.6738571
0.67379265
0.67373036
0.67367027
0.67361239
0.67355682
0.67350362
0.67345282
0.67340451
0.67335876
0.67331562
0.67327519
0.67323752
0.67320268
0.67317077
0.6731419
0.6731162
0.6730938
0.6730748
0.67305935
0.67304768
0.67303855
0.67303394
0.67302986
0.67303243
0.67304217
0.67305655
0.67307359
0.6730953
0.67312302
0.67315626
0.67319503
0.67323948
0.67328981
0.67334625
0.67340867
0.67347737
0.67355303
0.67363598
0.67271653
0.67266514
0.67261459
0.67256489
0.67251599
0.6724679
0.6724206
0.67237406
0.67232833
0.67228329
0.67223875
0.67219493
0.67215174
0.67210921
0.67206767
0.67202691
0.67198691
0.67194794
0.67190999
0.67187292
0.67183692
0.67180197
0.67176813
0.67173549
0.67170405
0.67167388
0.67164506
0.67161772
0.67159198
0.67156796
0.67154577
0.6715255
0.67150738
0.67149099
0.67147705
0.67146436
0.67145424
0.67144756
0.67144511
0.67144098
0.67144313
0.67145207
0.67146382
0.67147901
0.67149801
0.67152115
0.67154843
0.67157926
0.67161476
0.67165646
0.67170377
0.67209888
0.67208114
0.67206329
0.67204531
0.67202715
0.67200876
0.67199014
0.6719712
0.67195209
0.67193214
0.67191142
0.67189019
0.67186847
0.67184652
0.67182491
0.6718022
0.6717787
0.67175583
0.67173259
0.67170856
0.67168441
0.6716599
0.67163502
0.67161012
0.67158491
0.6715595
0.67153399
0.67150848
0.6714831
0.67145796
0.67143314
0.67140868
0.67138474
0.67136122
0.6713384
0.67131599
0.67129428
0.67127359
0.67125492
0.67123655
0.67121987
0.67120612
0.67119464
0.67118534
0.6711783
0.67117387
0.6711701
0.67116792
0.67117019
0.67117953
0.67119137
0.67279117
0.67281196
0.6728321
0.67285152
0.67287016
0.67288792
0.67290475
0.67292057
0.67293533
0.67294895
0.67296137
0.67297255
0.67298242
0.67299088
0.67299825
0.67300236
0.67300531
0.67300419
0.67300406
0.67300335
0.67300361
0.67299748
0.6729879
0.67298312
0.67297427
0.67296192
0.67294909
0.67293456
0.67291756
0.67290032
0.67288083
0.67285971
0.67283713
0.67281302
0.67278757
0.67276087
0.67273299
0.67270395
0.67267382
0.6726426
0.67261044
0.67257733
0.67254338
0.67250871
0.67247376
0.672438
0.6724018
0.67236584
0.67233029
0.67229528
0.67226092
0.67222741
0.67219477
0.67216224
0.6721309
0.67210251
0.67207634
0.6720523
0.67203091
0.67463243
0.67469478
0.67475595
0.67481586
0.67487442
0.67493151
0.67498704
0.67504093
0.67509306
0.67514335
0.67519171
0.67523806
0.6752823
0.67532435
0.67536414
0.67540158
0.67543658
0.67546923
0.67549884
0.67552538
0.67554912
0.67557003
0.67558828
0.67560446
0.67561697
0.67562673
0.67562993
0.67563521
0.67562969
0.6756277
0.67562436
0.67561055
0.67560343
0.67558882
0.67557148
0.67555181
0.67552873
0.67550276
0.67547408
0.67544271
0.67540863
0.67537186
0.67533245
0.67529048
0.67524602
0.67519917
0.67515001
0.67509875
0.6750453
0.67498978
0.67493246
0.6748736
0.6748134
0.67475204
0.67468968
0.6746266
0.67456257
0.67449777
0.67443306
0.67436859
0.67430479
0.67424072
0.67797962
0.6780811
0.67818069
0.67827826
0.67837369
0.67846686
0.67855765
0.67864595
0.67873164
0.67881459
0.67889471
0.67897188
0.67904598
0.67911693
0.67918461
0.67924893
0.67930978
0.6793671
0.67942074
0.67947035
0.67951611
0.67955783
0.67959543
0.67962921
0.67965877
0.67968438
0.67970482
0.67972146
0.67973083
0.67973188
0.67973296
0.67973244
0.67971955
0.6797125
0.67969754
0.67968277
0.67966013
0.67963324
0.6796022
0.67956695
0.67952743
0.67948361
0.67943555
0.67938332
0.67932703
0.67926675
0.67920257
0.67913462
0.67906296
0.67898766
0.67890886
0.67882675
0.67874151
0.67865335
0.67856244
0.67846905
0.67837324
0.6782751
0.67817508
0.6780733
0.67797069
0.67786509
0.68203818
0.68218903
0.68233801
0.68248496
0.68262974
0.68277219
0.68291217
0.68304954
0.68318416
0.68331587
0.68344454
0.68357002
0.68369217
0.68381085
0.68392594
0.68403728
0.68414476
0.68424823
0.68434758
0.68444267
0.68453339
0.68461961
0.68470122
0.68477813
0.68485009
0.68491708
0.68497895
0.68503554
0.68508694
0.68513299
0.68517374
0.68520877
0.68523816
0.68526126
0.68527708
0.68528357
0.68527768
0.68527531
0.68527015
0.6852584
0.68524182
0.68521957
0.6851915
0.68515779
0.68511833
0.68507298
0.68502171
0.68496457
0.68490167
0.68483309
0.68475893
0.68467925
0.68459414
0.68450369
0.68440797
0.6843071
0.68420121
0.68409047
0.68397506
0.68385515
0.68373099
0.68360274
0.68347054
0.68333472
0.68319527
0.68305338
0.68290633
0.68808763
0.68827985
0.68846962
0.68865674
0.68884104
0.68902235
0.68920052
0.68937535
0.6895467
0.68971439
0.68987826
0.69003814
0.69019386
0.69034528
0.69049222
0.69063453
0.69077206
0.69090465
0.69103215
0.69115441
0.69127129
0.69138264
0.69148833
0.69158824
0.69168218
0.69177003
0.69185166
0.69192692
0.69199573
0.69205799
0.69211363
0.69216249
0.69220441
0.69223921
0.692267
0.69228396
0.69228261
0.69228384
0.69227093
0.69226658
0.69224861
0.69222747
0.69219782
0.69216115
0.69211716
0.69206563
0.69200653
0.69193993
0.69186595
0.69178468
0.6916962
0.69160057
0.69149786
0.69138813
0.69127145
0.69114794
0.69101771
0.69088091
0.6907377
0.69058827
0.6904328
0.69027152
0.69010458
0.68993231
0.68975462
0.6895728
0.68938403
0.69561423
0.6958478
0.69607831
0.69630556
0.69652936
0.69674951
0.69696583
0.69717812
0.6973862
0.69758986
0.69778893
0.69798321
0.69817252
0.69835667
0.69853549
0.69870878
0.69887638
0.6990381
0.69919377
0.69934321
0.69948627
0.69962277
0.69975254
0.69987544
0.69999131
0.70009997
0.70020128
0.70029508
0.70038124
0.70045962
0.70053012
0.70059259
0.7006469
0.7006929
0.70073034
0.70076056
0.70076491
0.70076304
0.7007583
0.70075291
0.70072828
0.70071148
0.70067998
0.70064009
0.7005913
0.70053329
0.70046604
0.70038965
0.70030424
0.70020991
0.70010673
0.69999475
0.69987399
0.69974451
0.69960638
0.69945969
0.69930456
0.69914114
0.69896955
0.69878998
0.69860262
0.69840767
0.69820531
0.69799587
0.69777927
0.69755673
0.69732572
0.7046428
0.704918
0.70518954
0.70545722
0.70572081
0.7059801
0.70623488
0.70648492
0.70673003
0.70696997
0.70720454
0.70743354
0.70765674
0.70787394
0.70808493
0.70828951
0.70848747
0.70867861
0.70886274
0.70903965
0.70920916
0.70937108
0.7095252
0.70967136
0.70980938
0.70993906
0.71006024
0.71017274
0.7102764
0.71037105
0.71045655
0.71053274
0.71059949
0.71065668
0.71070368
0.7107436
0.71075834
0.71075929
0.71075604
0.71075041
0.71071824
0.71070665
0.71067336
0.71063001
0.71057617
0.71051145
0.71043581
0.71034937
0.71025226
0.71014457
0.71002635
0.70989762
0.70975841
0.70960875
0.7094487
0.70927834
0.70909777
0.70890713
0.70870657
0.70849624
0.70827631
0.70804701
0.70780851
0.70756113
0.70730486
0.70704071
0.70676679
0.70647261
0.70629768
0.71520511
0.71552254
0.71583575
0.71614447
0.71644848
0.71674754
0.7170414
0.71732983
0.71761259
0.71788944
0.71816014
0.71842447
0.71868218
0.71893304
0.71917681
0.71941328
0.71964221
0.71986336
0.72007653
0.72028149
0.72047801
0.72066589
0.7208449
0.72101484
0.72117551
0.7213267
0.72146821
0.72159984
0.72172141
0.72183272
0.72193361
0.72202387
0.72210339
0.72217194
0.72222919
0.72227641
0.72230973
0.7223137
0.72230626
0.72230163
0.72226854
0.72225759
0.72222126
0.72217393
0.72211477
0.72204317
0.72195901
0.72186237
0.72175337
0.7216321
0.72149857
0.72135279
0.72119477
0.72102453
0.72084211
0.72064759
0.72044106
0.72022264
0.71999249
0.71975074
0.71949758
0.71923318
0.71895778
0.71867162
0.71837487
0.71806812
0.71775054
0.71740768
0.71720235
0.7273398
0.72770045
0.72805627
0.72840701
0.72875241
0.72909219
0.72942611
0.72975389
0.73007527
0.73038999
0.73069779
0.7309984
0.73129156
0.73157702
0.73185452
0.7321238
0.7323846
0.73263668
0.73287978
0.73311365
0.73333805
0.73355274
0.73375747
0.73395201
0.73413612
0.73430959
0.73447217
0.73462365
0.73476382
0.73489244
0.73500934
0.73511427
0.73520714
0.73528751
0.73535573
0.73541038
0.73545623
0.7354709
0.73546185
0.73545678
0.73543162
0.73541151
0.73537341
0.73532224
0.73525772
0.73517922
0.73508653
0.73497966
0.73485871
0.73472371
0.73457468
0.73441161
0.73423449
0.73404332
0.73383814
0.73361901
0.73338602
0.73313927
0.73287891
0.73260509
0.73231798
0.73201773
0.73170462
0.73137879
0.73104067
0.73069026
0.73032821
0.72993537
0.72969906
0.74109241
0.74149758
0.74189735
0.74229143
0.74267954
0.74306139
0.74343668
0.74380514
0.74416646
0.74452037
0.74486657
0.74520477
0.74553469
0.74585604
0.74616854
0.74647189
0.74676583
0.74705006
0.74732431
0.74758831
0.74784178
0.74808444
0.74831604
0.7485363
0.74874496
0.74894177
0.74912647
0.74929881
0.74945855
0.74960544
0.74973927
0.74985973
0.74996679
0.75005979
0.75013961
0.75020307
0.75025934
0.75027568
0.75028272
0.75026176
0.7502518
0.75022289
0.75018806
0.75013303
0.75006334
0.74997813
0.74987706
0.74976008
0.74962721
0.74947848
0.74931386
0.74913335
0.74893691
0.74872454
0.74849626
0.74825212
0.74799219
0.74771658
0.74742543
0.74711885
0.74679708
0.7464602
0.74610855
0.74574209
0.74536169
0.74496645
0.74455905
0.74411483
0.74384697
0.74378356
0.75651529
0.75696669
0.75741211
0.75785124
0.75828377
0.75870938
0.75912776
0.75953859
0.75994156
0.76033635
0.76072264
0.76110012
0.76146847
0.76182737
0.76217651
0.76251558
0.76284426
0.76316225
0.76346924
0.76376493
0.764049
0.76432116
0.7645811
0.76482854
0.76506319
0.76528474
0.76549293
0.76568746
0.76586807
0.76603448
0.76618644
0.76632362
0.76644596
0.76655274
0.76664493
0.76671904
0.76678423
0.76681012
0.7668118
0.76680622
0.76679574
0.76676754
0.76672936
0.76667197
0.76659778
0.7665063
0.7663972
0.76627037
0.76612578
0.76596342
0.76578326
0.76558526
0.76536938
0.76513561
0.76488397
0.76461447
0.7643272
0.76402223
0.7636997
0.76335972
0.76300255
0.76262821
0.76223719
0.76182912
0.76140548
0.76096419
0.76051044
0.76001342
0.75971337
0.75964122
0.77366767
0.77416739
0.77466057
0.77514686
0.77562592
0.77609742
0.776561
0.77701632
0.77746304
0.77790082
0.77832929
0.77874813
0.77915697
0.77955548
0.77994332
0.78032013
0.78068557
0.78103931
0.78138101
0.78171032
0.78202691
0.78233046
0.78262062
0.78289706
0.78315948
0.78340754
0.78364093
0.78385933
0.78406244
0.78424995
0.78442158
0.78457698
0.78471602
0.78483804
0.78494368
0.78503045
0.78510356
0.78515155
0.78514951
0.78515704
0.78512822
0.7851113
0.78507252
0.78501338
0.78493536
0.78483821
0.7847216
0.78458535
0.78442937
0.78425364
0.7840581
0.78384269
0.78360738
0.78335212
0.78307692
0.78278179
0.78246681
0.78213202
0.78177759
0.78140357
0.78101028
0.78059764
0.78016638
0.77971569
0.77924783
0.77875917
0.77825804
0.77770667
0.77737384
0.77729335
0.79261562
0.79316621
0.79370969
0.79424569
0.79477384
0.79529377
0.7958051
0.79630746
0.79680048
0.79728377
0.79775696
0.79821967
0.79867152
0.79911214
0.79954114
0.79995815
0.80036279
0.80075469
0.80113347
0.80149877
0.80185022
0.80218743
0.80251007
0.80281775
0.80311012
0.80338682
0.80364751
0.80389183
0.80411944
0.80433
0.80452319
0.80469864
0.80485614
0.80499515
0.80511576
0.80521713
0.8052989
0.80536708
0.80537625
0.80538306
0.80535466
0.80533732
0.80529951
0.80523939
0.80515842
0.80505642
0.804933
0.80478791
0.80462107
0.80443238
0.80422178
0.80398919
0.80373456
0.80345784
0.803159
0.80283806
0.80249507
0.80213007
0.80174324
0.80133456
0.80090446
0.80045268
0.79998027
0.7994859
0.79897282
0.7984354
0.79788583
0.79727843
0.79691225
0.79682395
0.81343213
0.81403659
0.81463339
0.81522212
0.81580237
0.81637376
0.81693587
0.81748829
0.81803062
0.81856244
0.81908335
0.81959292
0.82009075
0.82057642
0.82104952
0.82150965
0.82195637
0.8223893
0.82280801
0.8232121
0.82360116
0.82397479
0.82433259
0.82467415
0.82499908
0.82530698
0.82559747
0.82587015
0.82612466
0.8263606
0.82657763
0.82677534
0.82695343
0.82711149
0.82724913
0.82736666
0.82746065
0.82754266
0.827577
0.82756772
0.82756159
0.82753621
0.82750096
0.82744032
0.82735744
0.8272516
0.82712227
0.82696917
0.82679215
0.82659111
0.82636595
0.82611657
0.82584289
0.82554485
0.82522241
0.82487555
0.82450435
0.8241088
0.82368911
0.82324521
0.82277762
0.82228586
0.82177141
0.82123219
0.82067287
0.82008527
0.81948612
0.81882094
0.81842082
0.81832531
0.83619712
0.83685896
0.8375126
0.83815758
0.83879348
0.83941986
0.84003628
0.84064229
0.84123746
0.84182132
0.84239345
0.84295338
0.84350066
0.84403485
0.84455549
0.84506214
0.84555434
0.84603164
0.8464936
0.84693976
0.84736968
0.84778292
0.84817904
0.84855758
0.84891812
0.84926022
0.84958346
0.84988739
0.85017161
0.85043568
0.85067921
0.85090178
0.851103
0.8512825
0.8514397
0.85157509
0.85168531
0.85177938
0.85182584
0.85183178
0.85182274
0.85181338
0.85177435
0.85171439
0.85163103
0.85152261
0.85138853
0.85122846
0.85104221
0.85082963
0.85059058
0.85032496
0.85003264
0.84971355
0.84936764
0.84899488
0.84859533
0.84816896
0.84771603
0.84723634
0.84673062
0.84619805
0.84564067
0.84505541
0.84444876
0.84380946
0.84315956
0.84243471
0.84200003
0.841898
0.86099749
0.86172077
0.86243532
0.86314063
0.86383626
0.86452171
0.86519652
0.86586021
0.86651229
0.86715227
0.86777966
0.86839399
0.86899474
0.86958144
0.8701536
0.87071071
0.87125229
0.87177784
0.87228688
0.87277891
0.87325344
0.87370999
0.87414807
0.8745672
0.87496689
0.87534666
0.87570604
0.87604455
0.87636174
0.87665713
0.87693028
0.87718071
0.87740802
0.87761174
0.8777914
0.87794686
0.87807701
0.87818209
0.87826641
0.87828808
0.87826772
0.87826014
0.8782249
0.87816888
0.87808632
0.87797658
0.87783912
0.87767341
0.8774791
0.87725599
0.87700393
0.87672276
0.87641237
0.87607264
0.87570353
0.87530495
0.87487701
0.8744196
0.87393309
0.87341709
0.87287262
0.87229837
0.87169718
0.87106467
0.87040951
0.86971691
0.86901501
0.86822846
0.86775855
0.86765074
0.88792715
0.88871654
0.88949665
0.89026697
0.891027
0.89177621
0.89251409
0.89324012
0.89395378
0.89465452
0.89534183
0.89601516
0.89667399
0.89731778
0.89794598
0.89855806
0.89915349
0.89973173
0.90029223
0.90083447
0.9013579
0.901862
0.90234622
0.90281003
0.9032529
0.90367431
0.90407374
0.90445065
0.90480454
0.90513488
0.9054412
0.90572296
0.90597971
0.90621089
0.9064162
0.90659473
0.90674744
0.90686889
0.90697619
0.90700974
0.90701929
0.90698536
0.9069667
0.90691963
0.90683842
0.90672877
0.90658968
0.90641992
0.90621896
0.90598653
0.90572248
0.90542664
0.90509887
0.90473902
0.90434706
0.90392286
0.90346656
0.90297795
0.90245754
0.90190473
0.90132087
0.90070406
0.90005815
0.89937709
0.89867229
0.89792454
0.89716941
0.89631894
0.89581306
0.89570023
0.91708711
0.91794789
0.91879889
0.91963953
0.92046927
0.92128756
0.92209382
0.92288751
0.92366803
0.92443483
0.92518731
0.92592489
0.926647
0.92735305
0.92804245
0.92871462
0.92936896
0.9300049
0.93062184
0.93121919
0.93179637
0.93235279
0.93288787
0.93340101
0.93389165
0.93435918
0.93480305
0.93522267
0.93561748
0.9359869
0.9363304
0.93664737
0.93693738
0.93719969
0.93743417
0.9376394
0.93781715
0.93796105
0.93808518
0.93816023
0.93815614
0.93816357
0.93811519
0.93808885
0.93801028
0.93790285
0.93776416
0.93759214
0.93738607
0.93714567
0.93687081
0.93656129
0.93621697
0.93583763
0.93542327
0.93497368
0.93448909
0.93396915
0.93341457
0.9328244
0.93220053
0.93154021
0.93084863
0.9301176
0.92936201
0.92855703
0.92774741
0.92683061
0.9262879
0.9261708
0.94858552
0.94952368
0.95045154
0.9513685
0.95227396
0.95316731
0.95404796
0.95491527
0.95576864
0.95660743
0.95743101
0.95823874
0.95902999
0.95980413
0.96056051
0.96129849
0.96201744
0.96271671
0.96339565
0.96405363
0.96468999
0.96530411
0.96589532
0.966463
0.9670065
0.96752518
0.96801841
0.96848556
0.968926
0.96933909
0.96972425
0.9700808
0.97040828
0.97070584
0.97097338
0.97120936
0.97141519
0.9715866
0.97172828
0.97184239
0.97185934
0.97187725
0.97181764
0.97180605
0.97173404
0.97163101
0.97149466
0.97132214
0.97111256
0.97086566
0.9705813
0.9702592
0.96989923
0.96950111
0.96906485
0.96859015
0.96807738
0.96752596
0.9669369
0.9663088
0.96564423
0.96493936
0.96420108
0.96341855
0.96261086
0.96174656
0.96088079
0.95989514
0.95931463
0.95919396
0.98253771
0.98355996
0.98457141
0.98557141
0.98655931
0.98753446
0.98849619
0.98944383
0.99037671
0.99129414
0.99219543
0.99307989
0.99394682
0.99479554
0.99562534
0.99643553
0.99722541
0.99799427
0.99874141
0.99946613
1.0001677
1.0008455
1.0014987
1.0021267
1.0027287
1.0033041
1.0038521
1.0043721
1.0048634
1.0053252
1.005757
1.0061579
1.0065275
1.0068648
1.0071697
1.0074408
1.0076786
1.007881
1.0080473
1.008188
1.0082461
1.0082751
1.0082283
1.0082162
1.0081493
1.0080528
1.0079206
1.0077494
1.007538
1.0072862
1.0069937
1.0066603
1.0062856
1.0058694
1.0054118
1.0049122
1.0043713
1.0037883
1.0031644
1.0024976
1.0017916
1.001041
1.0002549
0.99941911
0.99855784
0.997632
0.99670811
0.99565087
0.99503144
0.99490776
1.0190663
1.0201801
1.0212827
1.0223732
1.023451
1.0245154
1.0255657
1.0266011
1.0276209
1.0286243
1.0296107
1.0305792
1.031529
1.0324595
1.0333698
1.0342593
1.0351271
1.0359724
1.0367946
1.0375928
1.0383662
1.0391142
1.0398358
1.0405304
1.0411972
1.0418353
1.0424441
1.0430228
1.0435706
1.0440867
1.0445704
1.045021
1.0454377
1.0458198
1.0461667
1.0464773
1.0467518
1.0469884
1.0471867
1.0473482
1.0474729
1.0474907
1.047495
1.0474369
1.0474
1.0473133
1.0471882
1.0470203
1.0468091
1.046554
1.0462549
1.0459112
1.0455229
1.0450893
1.0446107
1.0440865
1.0435175
1.0429024
1.0422432
1.0415371
1.0407886
1.0399909
1.0391556
1.0382646
1.037348
1.0363581
1.0353741
1.0342421
1.0335824
1.033456
1.0583012
1.0595149
1.0607168
1.0619062
1.0630822
1.0642441
1.0653912
1.0665226
1.0676374
1.068735
1.0698145
1.0708749
1.0719157
1.0729358
1.0739345
1.0749109
1.0758642
1.0767936
1.0776983
1.0785773
1.0794298
1.0802551
1.0810521
1.0818202
1.0825584
1.083266
1.083942
1.0845856
1.085196
1.0857723
1.0863138
1.0868196
1.0872889
1.0877209
1.088115
1.0884699
1.0887858
1.0890606
1.0892958
1.0894845
1.0896496
1.0896996
1.0897231
1.0896617
1.0896387
1.0895607
1.0894501
1.0892878
1.0890787
1.0888221
1.0885177
1.088165
1.0877638
1.0873135
1.0868143
1.0862655
1.0856682
1.0850206
1.0843254
1.0835787
1.0827867
1.0819402
1.0810541
1.0801057
1.0791318
1.078075
1.0770283
1.0758182
1.0751163
1.0749874
1.1003797
1.1017024
1.1030129
1.1043102
1.1055935
1.106862
1.1081149
1.1093512
1.1105701
1.1117706
1.112952
1.1141132
1.1152534
1.1163718
1.1174673
1.1185391
1.1195862
1.1206078
1.121603
1.1225707
1.1235102
1.1244204
1.1253004
1.1261493
1.1269662
1.1277501
1.1285002
1.1292155
1.129895
1.1305379
1.1311433
1.1317102
1.1322378
1.1327253
1.1331717
1.1335761
1.1339382
1.1342559
1.1345314
1.134756
1.1349508
1.1350512
1.1350783
1.1350584
1.1350372
1.1349598
1.1348626
1.1347105
1.1345057
1.1342491
1.1339408
1.1335801
1.1331667
1.1326999
1.1321803
1.1316067
1.1309806
1.1302997
1.1295675
1.1287789
1.1279419
1.1270446
1.1261058
1.1250972
1.1240636
1.1229364
1.1218244
1.1205322
1.1197861
1.1196541
1.1454466
1.1468884
1.1483174
1.1497325
1.1511331
1.152518
1.1538865
1.1552375
1.1565701
1.1578832
1.159176
1.1604474
1.1616964
1.1629222
1.1641236
1.1652998
1.1664496
1.1675722
1.1686665
1.1697315
1.1707661
1.1717694
1.1727404
1.173678
1.1745811
1.1754489
1.1762803
1.1770742
1.1778297
1.1785458
1.1792214
1.1798557
1.1804476
1.1809962
1.1815005
1.1819596
1.1823728
1.1827385
1.1830576
1.1833251
1.1835472
1.1837211
1.1837917
1.1837606
1.1837501
1.1836676
1.1835902
1.1834525
1.1832539
1.1829985
1.1826872
1.182319
1.1818939
1.1814107
1.1808704
1.1802713
1.1796157
1.1789003
1.1781298
1.1772975
1.1764135
1.1754629
1.1744689
1.1733969
1.1723008
1.1710994
1.1699188
1.16854
1.1677469
1.1676109
1.1936543
1.1952259
1.1967842
1.1983281
1.1998565
1.2013685
1.2028632
1.2043394
1.205796
1.2072321
1.2086465
1.2100381
1.211406
1.212749
1.2140661
1.2153562
1.2166182
1.2178511
1.2190536
1.2202247
1.2213633
1.2224683
1.2235385
1.224573
1.2255704
1.2265298
1.22745
1.2283299
1.2291684
1.2299644
1.2307169
1.2314248
1.232087
1.2327026
1.2332702
1.2337893
1.2342584
1.2346769
1.2350437
1.235358
1.2356162
1.2358324
1.2359622
1.2359487
1.2359578
1.235873
1.2358026
1.235679
1.2354907
1.2352371
1.2349232
1.2345478
1.2341108
1.2336108
1.2330491
1.2324236
1.2317371
1.2309856
1.2301749
1.2292964
1.228363
1.2273559
1.2263038
1.2251646
1.2240023
1.2227222
1.2214689
1.2199985
1.219155
1.2190133
1.2451624
1.2468756
1.248575
1.250259
1.2519269
1.2535774
1.2552096
1.2568221
1.258414
1.2599838
1.2615307
1.2630533
1.2645505
1.2660213
1.2674643
1.2688784
1.2702624
1.2716152
1.2729355
1.2742222
1.2754738
1.2766894
1.2778675
1.2790072
1.2801071
1.281166
1.2821826
1.2831559
1.2840845
1.2849675
1.2858033
1.2865913
1.2873297
1.288018
1.2886544
1.2892386
1.2897684
1.2902442
1.2906629
1.2910268
1.2913291
1.2915779
1.2917739
1.2918038
1.291821
1.2917338
1.2916733
1.2915529
1.2913883
1.2911342
1.2908174
1.2904343
1.2899848
1.289467
1.2888826
1.288229
1.2875098
1.2867196
1.2858662
1.2849383
1.2839524
1.282885
1.2817709
1.2805599
1.2793273
1.2779631
1.2766323
1.2750642
1.2741661
1.2740162
1.3001385
1.3020058
1.3038587
1.3056953
1.3075148
1.3093157
1.3110974
1.3128581
1.3145969
1.3163121
1.3180029
1.3196676
1.3213053
1.3229146
1.3244941
1.3260427
1.3275591
1.3290419
1.3304898
1.3319014
1.3332754
1.3346106
1.3359055
1.337159
1.3383695
1.3395359
1.3406566
1.3417307
1.3427565
1.3437331
1.3446589
1.3455329
1.3463535
1.34712
1.3478302
1.3484845
1.3490792
1.3496166
1.3500911
1.3505075
1.3508576
1.3511449
1.3513842
1.3514806
1.3515073
1.3514359
1.3513808
1.3512673
1.3511116
1.3508587
1.3505386
1.3501469
1.3496835
1.3491461
1.3485371
1.3478529
1.3470982
1.3462662
1.3453666
1.3443854
1.3433429
1.3422103
1.3410297
1.3397412
1.3384331
1.3369785
1.3355645
1.333892
1.332934
1.3327721
1.3587575
1.3607923
1.3628117
1.3648138
1.3667977
1.3687619
1.3707056
1.3726268
1.3745248
1.3763974
1.3782439
1.3800624
1.3818519
1.3836109
1.385338
1.3870318
1.3886909
1.390314
1.3918993
1.3934457
1.3949513
1.3964153
1.3978356
1.3992114
1.4005407
1.4018222
1.4030546
1.4042366
1.4053665
1.4064432
1.407465
1.408431
1.409339
1.4101889
1.4109776
1.4117063
1.4123698
1.4129725
1.4135057
1.4139779
1.4143764
1.4147108
1.414977
1.4151715
1.4151691
1.4151668
1.4150823
1.4149996
1.4148289
1.4145798
1.4142554
1.4138531
1.4133736
1.412814
1.4121774
1.411459
1.4106652
1.409787
1.4088368
1.4077973
1.406693
1.4054893
1.4042365
1.4028639
1.401474
1.3999216
1.3984174
1.3966326
1.3956083
1.3954293
1.421202
1.4234181
1.4256179
1.427799
1.4299607
1.4321012
1.43422
1.4363145
1.4383842
1.4404264
1.4424408
1.4444249
1.446378
1.4482981
1.4501837
1.4520336
1.453846
1.4556195
1.4573521
1.4590427
1.4606893
1.4622908
1.4638451
1.4653513
1.4668071
1.4682114
1.4695624
1.4708591
1.4720994
1.4732823
1.4744057
1.4754688
1.4764691
1.4774067
1.4782779
1.4790845
1.4798199
1.4804909
1.4810849
1.4816154
1.4820623
1.4824484
1.4827395
1.4829989
1.4830339
1.4830442
1.4829454
1.4828838
1.4827158
1.4824657
1.4821342
1.4817183
1.4812192
1.4806336
1.4799652
1.4792082
1.4783703
1.4774404
1.4764339
1.4753295
1.4741572
1.4728753
1.4715431
1.4700785
1.4685992
1.4669404
1.4653379
1.4634317
1.4623331
1.4621306
1.4876621
1.4900739
1.4924682
1.4948421
1.4971954
1.4995258
1.501833
1.5041137
1.506368
1.5085923
1.5107869
1.5129484
1.5150767
1.5171691
1.5192243
1.5212409
1.5232169
1.5251506
1.5270401
1.5288841
1.5306804
1.5324279
1.5341242
1.5357687
1.5373581
1.5388919
1.5403682
1.5417857
1.5431421
1.5444364
1.545666
1.5468307
1.5479272
1.5489561
1.5499128
1.5507998
1.5516094
1.5523504
1.5530063
1.5535965
1.5540915
1.5545295
1.5548495
1.5551528
1.5552336
1.5552572
1.5551553
1.555097
1.554935
1.5546804
1.5543379
1.5539039
1.5533807
1.5527637
1.5520581
1.5512561
1.5503678
1.5493792
1.5483093
1.5471323
1.545884
1.5445152
1.5430954
1.5415293
1.5399516
1.5381763
1.5364659
1.5344278
1.5332452
1.5330113
1.5583349
1.560957
1.5635601
1.5661413
1.5687001
1.571234
1.5737429
1.576223
1.5786745
1.5810935
1.5834803
1.585831
1.588146
1.5904216
1.5926571
1.5948506
1.5969999
1.5991033
1.6011588
1.6031647
1.6051189
1.6070202
1.6088658
1.6106553
1.6123848
1.6140544
1.6156616
1.6172049
1.618682
1.6200919
1.6214316
1.6227011
1.6238965
1.625019
1.626063
1.6270318
1.6279166
1.6287281
1.6294459
1.6300951
1.6306376
1.6311245
1.6314764
1.6318119
1.6319324
1.6319698
1.6318682
1.6318079
1.6316475
1.6313833
1.6310242
1.6305662
1.6300125
1.6293573
1.6286071
1.6277525
1.6268057
1.6257497
1.6246076
1.6233485
1.6220149
1.6205487
1.6190312
1.6173526
1.6156659
1.6137625
1.611933
1.6097508
1.6084727
1.6081987
1.6334244
1.6362717
1.6390979
1.6419009
1.6446791
1.6474303
1.6501541
1.6528466
1.6555077
1.6581335
1.6607241
1.6632755
1.6657879
1.6682573
1.6706832
1.6730631
1.6753948
1.6776765
1.6799061
1.6820817
1.6842011
1.686263
1.6882643
1.6902047
1.6920797
1.69389
1.6956324
1.6973055
1.6989066
1.7004348
1.7018869
1.703263
1.7045586
1.7057756
1.706907
1.7079577
1.7089172
1.7097978
1.710576
1.7112818
1.7118699
1.7124008
1.7127839
1.7131455
1.7132946
1.7133415
1.7132407
1.7131749
1.7130084
1.7127276
1.7123445
1.7118546
1.711262
1.7105598
1.709756
1.7088389
1.7078238
1.7066898
1.7054649
1.7041122
1.7026818
1.7011063
1.6994792
1.6976752
1.6958671
1.693822
1.6918607
1.6895201
1.6881335
1.687809
1.7131417
1.7162288
1.7192928
1.7223315
1.7253431
1.7283253
1.7312765
1.7341941
1.7370764
1.7399209
1.7427259
1.7454891
1.7482083
1.7508815
1.7535065
1.7560811
1.7586033
1.7610708
1.7634815
1.7658334
1.7681241
1.7703519
1.7725141
1.7746095
1.7766349
1.778589
1.7804693
1.7822743
1.7840011
1.7856489