/*--------------------------------*- C++ -*----------------------------------*\
| =========                 |                                                 |
| \\      /  F ield         | OpenFOAM: The Open Source CFD Toolbox           |
|  \\    /   O peration     | Version:  2.4.0                                 |
|   \\  /    A nd           | Web:      www.OpenFOAM.org                      |
|    \\/     M anipulation  |                                                 |
\*---------------------------------------------------------------------------*/
FoamFile
{
    version     2.0;
    format      ascii;
    class       volScalarField;
    location    "5000";
    object      p;
}
// * * * * * * * * * * * * * * * * * * * * * * * * * * * * * * * * * * * * * //

dimensions      [0 2 -2 0 0 0 0];

internalField   nonuniform List<scalar> 
9820
(
0.24798028
0.24801349
0.24800802
0.2479627
0.24787621
0.2477471
0.24757389
0.24635372
0.24635805
0.24632368
0.24624943
0.24613399
0.24597597
0.24577398
0.24479248
0.24476978
0.24470843
0.24460723
0.24446488
0.24428005
0.2440514
0.24245036
0.24266677
0.24285334
0.24300905
0.24313303
0.24322458
0.24328296
0.2433076
0.24329686
0.2432488
0.24316222
0.24303586
0.24286843
0.24265869
0.24240539
0.24121094
0.24140399
0.24156724
0.24169925
0.24179933
0.24186692
0.24190159
0.24190233
0.24186735
0.24179531
0.24168498
0.24153497
0.24134404
0.24111107
0.24083486
0.24003052
0.24020186
0.24034394
0.24045361
0.24053046
0.2405745
0.2405857
0.24056296
0.24050461
0.2404099
0.24027733
0.24010498
0.23989177
0.23963687
0.23933914
0.23805549
0.2383168
0.23855043
0.23875569
0.23893185
0.23907812
0.23919375
0.23927823
0.23933089
0.23935103
0.23933834
0.23929184
0.2392104
0.23909448
0.2389418
0.23874853
0.23851379
0.23823739
0.23791861
0.23710129
0.23734529
0.23756126
0.23774831
0.2379052
0.23802982
0.23812279
0.23818594
0.23821823
0.23821813
0.23818487
0.23811718
0.23801344
0.23787252
0.23769339
0.23747525
0.23721725
0.23691842
0.23657779
0.23618764
0.23641495
0.23661416
0.23678453
0.23692514
0.23703494
0.23711377
0.23716175
0.23717806
0.23716159
0.23711158
0.23702657
0.23690437
0.23674248
0.23654117
0.23630238
0.23602511
0.23570745
0.235348
0.23451992
0.23481223
0.23507836
0.23531771
0.23552959
0.23571335
0.23586829
0.23599363
0.23608861
0.23615272
0.23618557
0.23618646
0.23615452
0.23608904
0.23598867
0.23585164
0.2356766
0.23546311
0.23521128
0.23492015
0.23458837
0.23421465
0.23373484
0.234013
0.23426491
0.23448998
0.23468755
0.23485699
0.23499765
0.23510882
0.23518981
0.23523998
0.2352588
0.23524558
0.23519951
0.23511991
0.23500551
0.23485478
0.23466671
0.23444062
0.23417599
0.23387197
0.23352746
0.23314131
0.23271228
0.23223904
0.23171996
0.22950691
0.22998503
0.23044143
0.23087567
0.23128726
0.23167571
0.23204049
0.23238109
0.23269698
0.23298765
0.23325256
0.23349119
0.23370296
0.23388724
0.2340434
0.23417081
0.23426883
0.23433675
0.23437394
0.23437977
0.23435357
0.23429455
0.23420205
0.23407488
0.23391163
0.23371142
0.2334735
0.23319714
0.23288151
0.23252559
0.23212832
0.23168858
0.23120522
0.23067707
0.22890827
0.22937393
0.22981788
0.23023965
0.23063877
0.23101474
0.23136707
0.23169522
0.2319987
0.23227696
0.23252948
0.23275571
0.2329551
0.23312702
0.23327085
0.23338596
0.23347176
0.23352757
0.23355271
0.23354656
0.23350841
0.23343752
0.23333323
0.23319438
0.2330197
0.23280835
0.23255956
0.23227254
0.23194645
0.23158033
0.23117319
0.23072397
0.23023165
0.2296952
0.22833769
0.22879164
0.22922388
0.22963395
0.23002138
0.23038567
0.23072632
0.23104283
0.23133468
0.23160135
0.23184229
0.23205697
0.23224482
0.23240526
0.23253764
0.23264136
0.23271582
0.23276039
0.23277439
0.23275716
0.23270802
0.23262624
0.23251116
0.23236165
0.23217653
0.23195502
0.23169633
0.23139965
0.23106414
0.2306889
0.23027298
0.22981538
0.22931516
0.22877134
0.22779412
0.22823706
0.22865832
0.22905741
0.22943388
0.22978723
0.23011697
0.23042258
0.23070357
0.2309594
0.23118954
0.23139346
0.23157058
0.23172033
0.2318421
0.23193527
0.23199923
0.23203338
0.23203707
0.23200963
0.23195037
0.23185862
0.23173366
0.2315744
0.23137977
0.231149
0.2308813
0.23057589
0.23023191
0.22984851
0.22942478
0.22895978
0.22845259
0.22790231
0.22425088
0.22480413
0.22533837
0.22585316
0.22634807
0.22682267
0.2272765
0.22770911
0.22812006
0.22850887
0.22887507
0.22921818
0.2295377
0.22983314
0.23010398
0.2303497
0.23056977
0.23076366
0.2309308
0.23107063
0.23118255
0.23126595
0.23132021
0.23134472
0.23133889
0.23130203
0.23123346
0.23113258
0.23099861
0.23083044
0.23062713
0.23038794
0.23011208
0.22979877
0.2294472
0.22905651
0.22862584
0.2281543
0.22764101
0.22708508
0.22381675
0.22436018
0.22488462
0.22538963
0.22587479
0.22633965
0.22678377
0.2272067
0.22760798
0.22798716
0.22834375
0.22867728
0.22898726
0.22927318
0.22953456
0.22977085
0.22998155
0.2301661
0.23032397
0.23045459
0.23055737
0.23063172
0.23067702
0.23069265
0.23067801
0.23063249
0.23055536
0.23044612
0.23030392
0.23012762
0.22991641
0.22966957
0.22938633
0.22906591
0.22870751
0.22831033
0.22787351
0.22739621
0.22687757
0.22631676
0.2234029
0.2239371
0.22445232
0.22494815
0.22542415
0.22587988
0.2263149
0.22672875
0.22712098
0.22749113
0.22783874
0.22816332
0.22846438
0.22874143
0.22899397
0.22922149
0.22942345
0.22959933
0.22974859
0.22987065
0.22996497
0.23003093
0.23006795
0.23007541
0.23005268
0.22999917
0.22991421
0.22979729
0.22964754
0.22946384
0.22924547
0.2289917
0.22870179
0.22837497
0.22801047
0.2276075
0.22716525
0.22668289
0.22615961
0.22559457
0.21609664
0.21680318
0.2174953
0.21817259
0.21883466
0.21948109
0.22011148
0.22072542
0.22132251
0.22190233
0.22246446
0.2230085
0.22353402
0.22404061
0.22452782
0.22499522
0.22544239
0.22586887
0.22627421
0.22665798
0.22701969
0.22735889
0.22767511
0.22796785
0.22823662
0.22848093
0.22870027
0.22889412
0.22906194
0.2292032
0.22931734
0.22940381
0.22946202
0.22949139
0.22949131
0.22946116
0.22940032
0.22930817
0.22918421
0.22902755
0.22883712
0.22861224
0.2283522
0.22805628
0.22772372
0.22735378
0.22694567
0.22649863
0.22601185
0.22548454
0.22491589
0.2158124
0.21651047
0.21719416
0.21786305
0.21851674
0.21915482
0.2197769
0.22038255
0.22097138
0.22154297
0.22209691
0.22263278
0.22315015
0.22364862
0.22412774
0.22458709
0.22502623
0.22544471
0.2258421
0.22621793
0.22657176
0.22690311
0.22721151
0.22749649
0.22775754
0.22799419
0.22820592
0.22839221
0.22855255
0.22868639
0.22879319
0.2288724
0.22892345
0.22894575
0.22893872
0.22890174
0.2288342
0.22873546
0.22860505
0.22844208
0.22824554
0.22801476
0.22774906
0.22744773
0.22711003
0.22673523
0.22632259
0.22587133
0.2253807
0.22484992
0.22427821
0.21112093
0.21188875
0.21264462
0.21338815
0.21411893
0.21483655
0.21554061
0.21623072
0.21690646
0.21756744
0.21821325
0.21884348
0.21945773
0.22005559
0.22063666
0.22120052
0.22174675
0.22227494
0.22278467
0.22327552
0.22374706
0.22419886
0.22463047
0.22504147
0.2254314
0.22579983
0.22614628
0.22647029
0.22677141
0.22704914
0.22730301
0.22753252
0.22773717
0.22791644
0.22806983
0.2281968
0.2282968
0.2283693
0.22841372
0.22842951
0.22841607
0.22837281
0.22829913
0.22819438
0.22805806
0.22788934
0.22768725
0.22745114
0.22718033
0.22687414
0.22653185
0.22615274
0.22573609
0.22528115
0.22478718
0.22425344
0.22367916
0.22306384
0.22240395
0.20855906
0.20935248
0.2101352
0.21090683
0.21166695
0.21241516
0.21315106
0.21387424
0.21458429
0.21528081
0.21596341
0.21663167
0.2172852
0.2179236
0.21854644
0.21915334
0.21974388
0.22031765
0.22087424
0.22141324
0.22193423
0.22243679
0.22292049
0.22338492
0.22382964
0.22425422
0.22465821
0.22504118
0.22540267
0.22574223
0.2260594
0.22635371
0.22662469
0.22687187
0.22709474
0.2272928
0.22746556
0.2276125
0.22773309
0.22782681
0.2278931
0.22793142
0.2279412
0.22792186
0.22787283
0.22779351
0.22768328
0.22754158
0.22736762
0.22716049
0.22691956
0.22664416
0.22633361
0.22598722
0.22560429
0.22518412
0.22472598
0.22422914
0.22369289
0.22311649
0.22249944
0.22183856
0.20837578
0.20916185
0.20993726
0.2107016
0.21145447
0.21219546
0.21292417
0.21364018
0.2143431
0.21503253
0.21570806
0.21636929
0.21701582
0.21764723
0.21826314
0.21886312
0.21944677
0.22001369
0.22056346
0.22109567
0.2216099
0.22210573
0.22258274
0.22304051
0.2234786
0.22389659
0.22429403
0.22467049
0.2250255
0.22535863
0.22566941
0.22595738
0.22622207
0.22646301
0.2266797
0.22687166
0.22703837
0.22717933
0.22729402
0.22738191
0.22744247
0.22747515
0.2274794
0.22745465
0.22740032
0.22731583
0.22720058
0.22705399
0.22687527
0.22666357
0.22641829
0.22613876
0.22582431
0.22547429
0.22508799
0.22466473
0.22420381
0.22370453
0.22316619
0.22258805
0.22196965
0.22130812
0.20415914
0.20498521
0.20580273
0.20661129
0.20741046
0.20819982
0.20897896
0.20974748
0.21050496
0.21125099
0.21198518
0.21270711
0.21341639
0.2141126
0.21479534
0.21546422
0.21611883
0.21675877
0.21738363
0.21799301
0.21858649
0.21916368
0.21972417
0.22026753
0.22079337
0.22130126
0.22179078
0.22226152
0.22271305
0.22314494
0.22355676
0.22394808
0.22431845
0.22466742
0.22499454
0.22529936
0.22558142
0.22584025
0.22607539
0.22628633
0.22647261
0.22663371
0.22676912
0.22687835
0.22696086
0.22701613
0.22704362
0.22704278
0.22701304
0.22695386
0.22686464
0.2267448
0.22659376
0.22641072
0.22619489
0.22594568
0.22566244
0.22534453
0.22499127
0.22460201
0.22417607
0.22371277
0.22321142
0.22267134
0.22209183
0.22147241
0.22081054
0.20402335
0.20484275
0.20565364
0.20645558
0.20724817
0.20803097
0.20880359
0.20956561
0.21031662
0.21105622
0.211784
0.21249955
0.21320248
0.21389237
0.21456883
0.21523146
0.21587984
0.21651358
0.21713228
0.21773552
0.21832291
0.21889402
0.21944847
0.21998583
0.22050569
0.22100763
0.22149125
0.22195611
0.2224018
0.22282788
0.22323394
0.22361952
0.2239842
0.22432753
0.22464906
0.22494832
0.22522487
0.22547824
0.22570798
0.22591359
0.22609458
0.22625048
0.22638076
0.22648493
0.22656247
0.22661286
0.22663556
0.22663003
0.22659573
0.22653208
0.22643854
0.22631452
0.22615942
0.22597246
0.22575291
0.22550017
0.22521361
0.2248926
0.2245365
0.22414464
0.22371638
0.22325104
0.22274796
0.22220649
0.22162591
0.22100577
0.22034382
0.20389258
0.20470569
0.20551032
0.20630603
0.20709241
0.20786903
0.2086355
0.2093914
0.21013632
0.21086985
0.2115916
0.21230115
0.2129981
0.21368205
0.2143526
0.21500934
0.21565187
0.21627979
0.21689269
0.21749017
0.21807182
0.21863724
0.21918602
0.21971774
0.220232
0.22072837
0.22120645
0.22166581
0.22210603
0.22252668
0.22292734
0.22330757
0.22366693
0.22400499
0.22432129
0.22461538
0.22488681
0.2251351
0.22535981
0.22556046
0.22573656
0.22588762
0.22601315
0.22611264
0.22618559
0.22623147
0.22624976
0.22623993
0.22620143
0.22613371
0.22603621
0.22590838
0.2257496
0.22555909
0.22533617
0.22508026
0.22479074
0.22446699
0.22410837
0.22371426
0.22328399
0.22281694
0.22231244
0.22176985
0.22118849
0.2205679
0.2199061
0.20376672
0.20457391
0.20537264
0.20616247
0.206943
0.20771381
0.20847448
0.20922461
0.20996379
0.21069161
0.21140768
0.21211158
0.21280291
0.21348126
0.21414625
0.21479746
0.21543449
0.21605693
0.21666439
0.21725646
0.21783273
0.2183928
0.21893626
0.2194627
0.2199717
0.22046285
0.22093574
0.22138995
0.22182505
0.22224062
0.22263623
0.22301146
0.22336586
0.22369899
0.22401042
0.22429969
0.22456634
0.22480991
0.22502995
0.22522599
0.22539754
0.22554413
0.22566526
0.22576042
0.22582913
0.22587086
0.22588509
0.2258713
0.22582895
0.2257575
0.22565638
0.22552509
0.22536297
0.22516924
0.22494329
0.22468454
0.22439238
0.2240662
0.22370538
0.22330931
0.22287734
0.22240885
0.2219032
0.22135977
0.22077788
0.22015706
0.21949561
0.2187944
0.21806103
0.2036457
0.2044473
0.20524046
0.20602476
0.20679978
0.2075651
0.20832031
0.20906501
0.20979879
0.21052123
0.21123195
0.21193053
0.21261657
0.21328967
0.21394942
0.21459542
0.21522728
0.21584458
0.21644693
0.21703392
0.21760514
0.21816019
0.21869866
0.21922014
0.21972421
0.22021047
0.2206785
0.22112788
0.22155819
0.22196901
0.22235991
0.22273046
0.22308022
0.22340877
0.22371565
0.22400043
0.22426264
0.22450181
0.22471751
0.22490927
0.2250766
0.22521904
0.22533609
0.22542726
0.22549205
0.22552995
0.22554045
0.22552303
0.22547715
0.22540228
0.22529788
0.22516343
0.22499826
0.22480162
0.22457295
0.22431166
0.22401715
0.22368883
0.2233261
0.22292834
0.22249493
0.22202526
0.22151871
0.22097466
0.22039246
0.21977162
0.2191107
0.21841019
0.21767598
0.20352941
0.20432574
0.20511366
0.20589274
0.20666256
0.20742272
0.20817279
0.20891237
0.20964106
0.21035845
0.21106413
0.2117577
0.21243876
0.21310691
0.21376175
0.21440286
0.21502986
0.21564233
0.21623987
0.21682209
0.21738857
0.21793891
0.2184727
0.21898953
0.21948898
0.21997066
0.22043414
0.220879
0.22130483
0.22171121
0.2220977
0.22246388
0.22280932
0.22313358
0.22343622
0.2237168
0.22397488
0.22420997
0.22442164
0.22460942
0.22477284
0.22491144
0.22502472
0.22511219
0.22517336
0.22520774
0.2252148
0.22519404
0.22514493
0.22506695
0.22495955
0.22482222
0.22465428
0.22445503
0.22422391
0.22396035
0.22366377
0.22333357
0.22296917
0.22256996
0.22213536
0.22166474
0.2211575
0.22061304
0.22003072
0.21941005
0.21874981
0.21805014
0.21731527
0.20341775
0.20420912
0.2049921
0.20576626
0.20653119
0.20728648
0.20803171
0.20876647
0.20949037
0.21020299
0.21090394
0.2115928
0.21226918
0.21293267
0.21358288
0.2142194
0.21484183
0.21544976
0.2160428
0.21662053
0.21718256
0.21772848
0.21825788
0.21877035
0.21926548
0.21974286
0.22020208
0.22064272
0.22106436
0.22146657
0.22184895
0.22221105
0.22255244
0.22287271
0.2231714
0.22344808
0.22370229
0.22393359
0.22414151
0.22432561
0.2244854
0.22462044
0.22473023
0.22481429
0.22487213
0.22490325
0.22490715
0.22488333
0.22483126
0.22475043
0.22464031
0.22450035
0.22432991
0.22412831
0.22389499
0.22362942
0.22333099
0.22299915
0.22263331
0.22223289
0.22179729
0.22132592
0.22081819
0.2202735
0.21969125
0.2190709
0.21841147
0.21771278
0.21697738
0.21619629
0.20331064
0.20409733
0.20487565
0.20564518
0.2064055
0.2071562
0.20789687
0.2086271
0.20934648
0.21005462
0.21075111
0.21143554
0.21210751
0.21276663
0.21341249
0.21404469
0.21466282
0.21526649
0.21585529
0.21642882
0.21698667
0.21752844
0.21805373
0.21856211
0.21905319
0.21952655
0.21998178
0.22041846
0.22083618
0.22123451
0.22161303
0.22197132
0.22230895
0.22262548
0.22292049
0.22319353
0.22344416
0.22367192
0.22387637
0.22405704
0.22421347
0.22434521
0.22445177
0.22453267
0.22458744
0.22461557
0.22461657
0.22458994
0.22453516
0.22445173
0.22433912
0.22419679
0.22402408
0.22382035
0.22358508
0.22331771
0.22301767
0.2226844
0.22231733
0.22191588
0.22147948
0.22100755
0.2204995
0.21995474
0.21937269
0.21875281
0.2180943
0.2173967
0.21666089
0.21588048
0.20320797
0.20399025
0.20476418
0.20552934
0.20628532
0.2070317
0.20776807
0.20849403
0.20920917
0.20991309
0.21060538
0.21128564
0.21195347
0.21260847
0.21325024
0.21387838
0.21449248
0.21509214
0.21567697
0.21624655
0.21680048
0.21733836
0.21785979
0.21836434
0.21885162
0.21932122
0.21977271
0.22020569
0.22061973
0.22101443
0.22138936
0.22174409
0.2220782
0.22239125
0.22268282
0.22295247
0.22319976
0.22342424
0.22362546
0.22380295
0.22395627
0.22408495
0.22418853
0.22426652
0.22431844
0.22434382
0.22434215
0.22431295
0.2242557
0.22416989
0.22405502
0.22391053
0.22373576
0.22353013
0.22329311
0.22302415
0.22272269
0.22238818
0.22202007
0.22161778
0.22118074
0.2207084
0.22020018
0.21965551
0.2190738
0.2184545
0.21779701
0.21710058
0.21636448
0.21558481
0.20310963
0.20388775
0.20465755
0.20541861
0.20617049
0.2069128
0.20764513
0.20836706
0.20907821
0.20977815
0.21046649
0.21114283
0.21180677
0.2124579
0.21309582
0.21372014
0.21433045
0.21492635
0.21550744
0.21607332
0.21662358
0.21715781
0.21767561
0.21817658
0.2186603
0.21912636
0.21957436
0.22000387
0.22041449
0.22080579
0.22117736
0.22152876
0.22185959
0.2221694
0.22245777
0.22272426
0.22296844
0.22318986
0.22338807
0.22356262
0.22371305
0.22383891
0.22393972
0.22401502
0.22406433
0.22408717
0.22408306
0.22405149
0.22399197
0.22390401
0.22378708
0.22364063
0.22346401
0.22325667
0.22301809
0.22274772
0.22244502
0.22210945
0.22174046
0.22133748
0.22089997
0.22042737
0.21991911
0.21937463
0.21879338
0.21817476
0.21751837
0.21682321
0.21608689
0.21530801
0.20301553
0.20378974
0.20455564
0.20531282
0.20606085
0.20679933
0.20752784
0.20824599
0.20895337
0.20964958
0.2103342
0.21100685
0.21166712
0.21231461
0.21294893
0.21356966
0.21417641
0.21476877
0.21534636
0.21590875
0.21645556
0.21698637
0.21750078
0.21799838
0.21847877
0.21894153
0.21938625
0.21981252
0.22021993
0.22060805
0.22097648
0.22132478
0.22165254
0.22195932
0.22224471
0.22250826
0.22274955
0.22296812
0.22316354
0.22333536
0.22348311
0.22360635
0.22370462
0.22377743
0.22382433
0.22384484
0.22383847
0.22380474
0.22374316
0.22365322
0.22353443
0.2233862
0.22320791
0.22299904
0.22275907
0.22248746
0.22218369
0.22184721
0.22147748
0.22107396
0.2206361
0.22016336
0.21965519
0.21911102
0.21853032
0.21791248
0.21725725
0.21656341
0.21582694
0.21504889
0.20292556
0.20369607
0.2044583
0.20521183
0.20595623
0.2066911
0.20741603
0.20813061
0.20883445
0.20952713
0.21020826
0.21087744
0.21153426
0.21217833
0.21280925
0.21342661
0.21403001
0.21461906
0.21519335
0.21575248
0.21629605
0.21682365
0.21733488
0.21782933
0.21830659
0.21876625
0.21920791
0.21963115
0.22003555
0.22042071
0.2207862
0.2211316
0.2214565
0.22176046
0.22204307
0.22230388
0.22254247
0.2227584
0.22295123
0.22312051
0.22326578
0.2233866
0.22348251
0.22355303
0.22359771
0.22361607
0.22360764
0.22357192
0.22350845
0.22341672
0.22329623
0.22314638
0.22296659
0.22275635
0.22251515
0.22224246
0.22193775
0.22160051
0.22123018
0.22082624
0.22038816
0.21991539
0.2194074
0.21886364
0.21828358
0.21766658
0.21701258
0.21632011
0.21558355
0.21480634
0.2028396
0.20360663
0.2043654
0.20511549
0.20585647
0.20658794
0.20730949
0.20802072
0.20872122
0.20941059
0.21008843
0.21075434
0.21140792
0.21204877
0.21267649
0.21329069
0.21389095
0.21447688
0.21504808
0.21560415
0.21614468
0.21666927
0.21717751
0.217669
0.21814334
0.2186001
0.21903889
0.21945929
0.21986089
0.22024327
0.22060602
0.22094872
0.22127094
0.22157227
0.22185228
0.22211055
0.22234663
0.2225601
0.22275051
0.22291744
0.22306042
0.223179
0.22327272
0.22334113
0.22338376
0.22340015
0.22338982
0.22335229
0.22328709
0.22319373
0.22307169
0.22292038
0.22273924
0.22252778
0.22228549
0.22201186
0.22170635
0.22136846
0.22099766
0.22059341
0.22015521
0.21968251
0.21917479
0.21863151
0.21805216
0.21743607
0.21678334
0.21609229
0.21535567
0.21457933
0.20275754
0.20352129
0.2042768
0.20502365
0.20576141
0.20648967
0.20720804
0.20791611
0.20861347
0.20929972
0.20997447
0.21063731
0.21128784
0.21192566
0.21255038
0.2131616
0.21375891
0.21434191
0.21491021
0.2154634
0.21600108
0.21652285
0.21702829
0.21751702
0.21798861
0.21844266
0.21887877
0.21929651
0.21969548
0.22007527
0.22043546
0.22077562
0.22109536
0.22139423
0.22167183
0.22192771
0.22216146
0.22237265
0.22256082
0.22272556
0.22286641
0.22298292
0.22307463
0.22314109
0.22318183
0.2231964
0.22318433
0.22314514
0.22307837
0.22298353
0.22286009
0.22270744
0.2225251
0.22231255
0.2220693
0.22179484
0.22148866
0.22115023
0.22077905
0.22037461
0.21993637
0.21946383
0.21895646
0.21841373
0.21783515
0.21722002
0.21656859
0.21587899
0.21514234
0.21436688
0.20267926
0.20343992
0.20419236
0.20493615
0.20567088
0.20639613
0.2071115
0.20781659
0.208511
0.20919432
0.20986615
0.2105261
0.21117376
0.21180874
0.21243064
0.21303905
0.21363359
0.21421384
0.21477942
0.21532991
0.21586491
0.21638403
0.21688686
0.21737299
0.21784201
0.21829352
0.21872711
0.21914237
0.21953889
0.21991625
0.22027404
0.22061185
0.22092926
0.22122584
0.22150118
0.22175486
0.22198644
0.22219549
0.22238158
0.22254429
0.22268317
0.22279777
0.22288762
0.22295228
0.22299128
0.22300418
0.22299051
0.22294981
0.2228816
0.22278542
0.22266069
0.22250685
0.22232342
0.22210991
0.22186582
0.22159065
0.22128389
0.22094503
0.22057357
0.22016901
0.21973082
0.2192585
0.21875155
0.21820942
0.21763167
0.21701755
0.21636744
0.21567932
0.21494266
0.21416808
0.20260464
0.20336239
0.20411193
0.20485285
0.20558472
0.20630713
0.20701968
0.20772197
0.20841359
0.20909415
0.20976324
0.21042047
0.21106544
0.21169774
0.21231699
0.21292277
0.2135147
0.21409237
0.21465539
0.21520335
0.21573584
0.21625248
0.21675285
0.21723654
0.21770316
0.21815229
0.21858353
0.21899647
0.21939069
0.21976578
0.22012134
0.22045694
0.22077218
0.22106663
0.22133987
0.22159148
0.22182104
0.22202812
0.22221228
0.22237309
0.22251014
0.22262297
0.22271111
0.22277411
0.22281152
0.22282288
0.22280775
0.22276566
0.22269614
0.22259873
0.22247285
0.22231793
0.22213353
0.22191917
0.22167434
0.22139855
0.22109131
0.22075211
0.22038046
0.21997585
0.21953778
0.21906575
0.21855927
0.2180178
0.21744091
0.21682783
0.21617907
0.21549244
0.21475578
0.21398207
0.20253357
0.20328857
0.20403539
0.20477359
0.20550277
0.2062225
0.2069324
0.20763205
0.20832105
0.20899901
0.20966552
0.21032019
0.21096262
0.21159241
0.21220916
0.21281248
0.21340196
0.21397721
0.21453782
0.2150834
0.21561355
0.21612785
0.21662592
0.21710733
0.2175717
0.2180186
0.21844764
0.2188584
0.21925047
0.21962345
0.21997692
0.22031047
0.22062367
0.22091613
0.22118742
0.22143711
0.22166479
0.22187003
0.2220524
0.22221146
0.2223468
0.22245799
0.22254455
0.22260603
0.22264196
0.22265192
0.22263544
0.22259208
0.22252137
0.22242285
0.22229592
0.22214002
0.22195476
0.22173964
0.22149418
0.22121787
0.22091023
0.22057077
0.22019899
0.21979441
0.21935652
0.21888484
0.21837887
0.2178381
0.21726209
0.21665009
0.21600268
0.21531756
0.21458091
0.21380806
0.20246591
0.20321832
0.20396257
0.20469822
0.20542486
0.20614208
0.20684947
0.20754664
0.20823317
0.20890869
0.20957277
0.21022504
0.21086508
0.2114925
0.21210691
0.21270791
0.21329509
0.21386806
0.21442642
0.21496977
0.21549771
0.21600983
0.21650573
0.21698501
0.21744727
0.21789209
0.21831906
0.21872779
0.21911786
0.21948885
0.21984037
0.220172
0.22048332
0.22077392
0.22104338
0.22129129
0.22151722
0.22172075
0.22190145
0.22205889
0.22219265
0.22230232
0.22238742
0.22244749
0.22248208
0.22249074
0.22247304
0.22242852
0.22235672
0.22225719
0.2221293
0.22197253
0.2217865
0.22157072
0.2213247
0.22104795
0.22074
0.22040035
0.22002851
0.21962401
0.21918635
0.21871506
0.21820964
0.2176696
0.21709452
0.2164836
0.21583754
0.21515394
0.2144173
0.2136453
0.20240154
0.20315152
0.20389334
0.20462659
0.20535084
0.20606568
0.20677072
0.20746555
0.20814976
0.20882297
0.20948478
0.21013478
0.21077258
0.21139778
0.21200998
0.2126088
0.21319382
0.21376465
0.2143209
0.21486215
0.21538802
0.21589809
0.21639197
0.21686925
0.21732953
0.2177724
0.21819745
0.21860427
0.21899246
0.21936161
0.21971131
0.22004114
0.2203507
0.22063956
0.22090733
0.22115357
0.22137788
0.22157982
0.22175898
0.22191492
0.22204721
0.22215546
0.22223921
0.22229799
0.22233135
0.22233883
0.22232
0.22227442
0.22220164
0.22210119
0.22197243
0.22181488
0.22162817
0.22141181
0.22116531
0.2208882
0.22057999
0.22024021
0.21986838
0.21946401
0.21902663
0.21855576
0.21805093
0.21751164
0.21693749
0.21632768
0.21568298
0.2150009
0.21426426
0.2134931
0.20234034
0.20308801
0.20382756
0.20455854
0.20528054
0.20599315
0.20669597
0.20738859
0.20807062
0.20874167
0.20940132
0.21004919
0.21068488
0.21130799
0.21191813
0.21251489
0.21309789
0.21366671
0.21422097
0.21476026
0.21528419
0.21579235
0.21628433
0.21675974
0.21721816
0.21765921
0.21808245
0.2184875
0.21887394
0.21924136
0.21958935
0.21991751
0.22022542
0.22051267
0.22077885
0.22102355
0.22124634
0.22144681
0.22162453
0.22177908
0.22191002
0.22201695
0.22209945
0.22215705
0.22218928
0.22219567
0.22217581
0.22212927
0.22205561
0.22195431
0.22182476
0.22166652
0.22147921
0.22126234
0.22101544
0.22073802
0.22042963
0.22008977
0.21971799
0.2193138
0.21887674
0.21840632
0.21790211
0.21736359
0.21679039
0.21618168
0.21553833
0.21485778
0.21412114
0.2133508
0.20228217
0.20302768
0.20376508
0.20449392
0.2052138
0.20592431
0.20662504
0.20731559
0.20799557
0.20866457
0.20932221
0.20996807
0.21060178
0.21122292
0.21183112
0.21242596
0.21300704
0.21357399
0.21412638
0.21466383
0.21518594
0.2156923
0.2161825
0.21665616
0.21711285
0.21755218
0.21797374
0.21837713
0.21876192
0.21912773
0.21947414
0.21980073
0.22010711
0.22039286
0.22065757
0.22090082
0.22112221
0.22132131
0.2214977
0.22165096
0.22178065
0.22188636
0.2219677
0.22202421
0.2220554
0.22206081
0.22204001
0.22199259
0.22191813
0.22181605
0.22168578
0.22152693
0.22133909
0.22112179
0.22087454
0.22059689
0.22028836
0.21994848
0.21957679
0.21917282
0.2187361
0.21826617
0.21776259
0.21722485
0.21665261
0.21604501
0.215403
0.21472397
0.21398732
0.21321778
0.20222692
0.20297039
0.20370576
0.20443259
0.20515048
0.205859
0.20655776
0.20724636
0.20792441
0.20859149
0.20924722
0.20989121
0.21052305
0.21114235
0.21174871
0.21234174
0.21292104
0.21348622
0.21403686
0.21457259
0.21509299
0.21559766
0.2160862
0.21655821
0.21701329
0.21745102
0.21787101
0.21827283
0.2186561
0.2190204
0.21936532
0.21969046
0.21999541
0.22027976
0.22054309
0.22078501
0.22100509
0.22120292
0.22137807
0.22153014
0.22165868
0.22176327
0.22184353
0.22189902
0.22192927
0.22193377
0.22191212
0.2218639
0.22178872
0.22168594
0.22155501
0.22139562
0.22120733
0.22098965
0.22074212
0.22046428
0.22015566
0.2198158
0.21944425
0.21904052
0.21860418
0.21813476
0.21763182
0.21709488
0.21652359
0.21591711
0.21527641
0.2145989
0.21386223
0.21309348
0.20217445
0.202916
0.20364946
0.2043744
0.2050904
0.20579706
0.20649397
0.20718074
0.20785696
0.20852224
0.20917618
0.2098184
0.21044848
0.21106605
0.21167069
0.21226203
0.21283965
0.21340316
0.21395217
0.21448627
0.21500507
0.21550817
0.21599515
0.21646562
0.21691918
0.21735542
0.21777393
0.21817431
0.21855615
0.21891904
0.21926258
0.21958636
0.21988998
0.22017302
0.22043508
0.22067575
0.22089462
0.22109126
0.22126527
0.22141623
0.22154371
0.22164728
0.22172653
0.22178108
0.22181046
0.22181414
0.22179172
0.22174278
0.22166693
0.22156351
0.22143201
0.22127214
0.22108344
0.22086545
0.22061769
0.2203397
0.22003104
0.21969125
0.21931986
0.21891641
0.21848047
0.21801157
0.21750929
0.21697314
0.21640281
0.21579743
0.21515804
0.21448203
0.21374533
0.21297735
0.20212465
0.20286438
0.20359604
0.2043192
0.20503343
0.20573833
0.2064335
0.20711854
0.20779304
0.20845663
0.20910889
0.20974944
0.21037788
0.21099381
0.21159684
0.21218658
0.21276263
0.21332458
0.21387205
0.21440464
0.21492194
0.21542356
0.21590908
0.21637811
0.21683025
0.2172651
0.21768223
0.21808125
0.21846175
0.21882333
0.21916558
0.2194881
0.21979047
0.2200723
0.22033317
0.22057268
0.22079043
0.22098598
0.22115893
0.22130886
0.22143536
0.22153798
0.22161632
0.22167
0.22169857
0.22170151
0.22167838
0.22162879
0.22155234
0.22144835
0.22131633
0.22115604
0.220967
0.22074874
0.22050079
0.22022271
0.21991405
0.21957435
0.21920315
0.21880001
0.21836448
0.21789612
0.2173945
0.21685915
0.21628977
0.21568548
0.21504738
0.21437287
0.21363613
0.21286891
0.20207738
0.2028154
0.20354537
0.20426685
0.20497941
0.20568266
0.20637619
0.2070596
0.20773249
0.20839448
0.20904516
0.20968414
0.21031103
0.21092543
0.21152695
0.21211519
0.21268976
0.21325025
0.21379628
0.21432745
0.21484334
0.21534358
0.21582774
0.21629542
0.21674624
0.21717978
0.21759562
0.21799338
0.21837263
0.21873299
0.21907404
0.21939537
0.21969659
0.21997729
0.22023705
0.22047549
0.22069219
0.22088672
0.22105869
0.22120768
0.22133326
0.22143503
0.22151253
0.2215654
0.22159323
0.22159549
0.22157173
0.22152155
0.22144454
0.22134003
0.22120756
0.22104691
0.22085757
0.22063909
0.220391
0.22011287
0.21980423
0.21946466
0.21909368
0.21869087
0.21825577
0.21778795
0.217287
0.21675244
0.216184
0.2155808
0.21494395
0.21427093
0.21353414
0.21276767
0.20203252
0.20276894
0.20349731
0.20421721
0.2049282
0.20562989
0.20632187
0.20700375
0.20767513
0.20833562
0.20898481
0.20962232
0.21024776
0.21086072
0.21146082
0.21204765
0.21262083
0.21317995
0.21372463
0.21425446
0.21476905
0.21526798
0.21575087
0.2162173
0.21666687
0.21709919
0.21751384
0.21791041
0.21828851
0.21864772
0.21898765
0.21930788
0.21960803
0.21988767
0.22014641
0.22038385
0.22059958
0.22079317
0.22096423
0.22111235
0.22123709
0.22133806
0.2214148
0.22146693
0.22149408
0.22149572
0.22147138
0.22142068
0.22134316
0.22123817
0.22110531
0.22094435
0.22075476
0.22053611
0.22028792
0.22000976
0.21970119
0.21936176
0.21899103
0.21858856
0.2181539
0.21768663
0.21718635
0.21665258
0.21608507
0.21548294
0.21484732
0.21417577
0.21343894
0.2126732
0.20198996
0.20272486
0.20345173
0.20417014
0.20487966
0.20557988
0.20627041
0.20695085
0.2076208
0.20827988
0.20892767
0.2095638
0.21018787
0.21079947
0.21139824
0.21198376
0.21255563
0.21311348
0.21365689
0.21418547
0.21469883
0.21519655
0.21567825
0.21614349
0.21659191
0.2170231
0.21743662
0.21783209
0.2182091
0.21856725
0.21890613
0.21922535
0.21952449
0.21980316
0.22006094
0.22029746
0.22051229
0.22070501
0.22087523
0.22102255
0.22114652
0.22124675
0.2213228
0.22137426
0.22140077
0.22140183
0.22137698
0.22132582
0.22124783
0.22114241
0.22100922
0.22084799
0.2206582
0.22043941
0.22019115
0.219913
0.21960452
0.21926526
0.2188948
0.21849268
0.21805848
0.21759177
0.21709215
0.21655917
0.21599257
0.2153915
0.21475707
0.21408697
0.2133501
0.2125851
0.20194958
0.20268305
0.20340852
0.20412552
0.20483364
0.20553249
0.20622165
0.20690074
0.20756935
0.20822709
0.20887357
0.2095084
0.21013119
0.21074152
0.21133904
0.21192332
0.21249397
0.21305061
0.21359284
0.21412026
0.21463246
0.21512905
0.21560963
0.21607378
0.21652112
0.21695124
0.21736372
0.21775816
0.21813416
0.21849132
0.21882923
0.2191475
0.21944571
0.21972348
0.21998037
0.22021603
0.22043003
0.22062195
0.2207914
0.22093797
0.22106123
0.22116078
0.22123619
0.22128706
0.22131298
0.22131352
0.2212882
0.22123663
0.22115821
0.22105239
0.22091893
0.22075747
0.22056752
0.22034863
0.22010033
0.21982222
0.21951386
0.2191748
0.21880462
0.21840287
0.21796912
0.21750297
0.21700401
0.21647181
0.2159061
0.21530607
0.21467281
0.21400415
0.21326725
0.21250296
0.20191126
0.2026434
0.20336753
0.20408322
0.20479003
0.20548758
0.20617545
0.20685326
0.20752061
0.20817711
0.20882236
0.20945596
0.21007754
0.21068669
0.21128303