/*--------------------------------*- C++ -*----------------------------------*\
  =========                 |
  \\      /  F ield         | OpenFOAM: The Open Source CFD Toolbox
   \\    /   O peration     | Website:  https://openfoam.org
    \\  /    A nd           | Version:  7
     \\/     M anipulation  |
\*---------------------------------------------------------------------------*/
FoamFile
{
    version     2.0;
    format      ascii;
    class       volScalarField;
    location    "25000";
    object      omega;
}
// * * * * * * * * * * * * * * * * * * * * * * * * * * * * * * * * * * * * * //

dimensions      [0 0 -1 0 0 0 0];

internalField   nonuniform List<scalar> 
14751
(
100.009
100.012
100.003
99.995
99.9892
99.9845
99.9793
99.9765
99.9764
99.9765
99.9766
99.9845
100.001
100.015
100.025
100.033
100.038
100.042
100.047
100.046
100.041
100.035
100.028
100.016
99.9968
99.9802
99.9675
99.9601
99.9578
99.9556
99.9534
99.9513
99.9492
99.9471
99.9451
99.9473
99.9538
99.9604
99.9673
99.9805
100.002
100.02
100.035
100.043
100.046
100.048
100.05
100.052
100.054
100.056
100.058
100.058
100.056
100.054
100.052
100.05
100.048
100.046
100.043
100.035
100.021
100.002
99.9812
99.9681
99.9613
99.9547
99.9483
99.9454
99.9459
99.9464
99.9469
99.9474
99.9479
99.9484
99.9489
99.9496
99.9502
99.9509
99.9515
99.9522
99.9528
99.9534
99.9539
99.9562
99.9603
99.9645
99.9687
99.9756
99.9854
99.9982
100.013
100.019
100.018
100.017
100.016
100.015
100.012
100.008
100.003
16.934
16.9311
16.9088
16.8761
16.8334
16.7864
16.7374
16.6866
16.6356
16.5845
16.5336
16.4841
16.4365
16.3897
16.3436
16.2986
16.2547
16.2126
16.1721
16.1327
16.0944
16.0579
16.0232
15.9897
15.9573
15.9269
15.8989
15.8733
15.85
15.8285
15.8085
15.79
15.7731
15.7575
15.7433
15.731
15.7204
15.711
15.7027
15.6963
15.6918
15.688
15.6846
15.6814
15.6782
15.6759
15.6743
15.6735
15.6736
15.6743
15.6759
15.6779
15.6805
15.6838
15.6879
15.6928
15.6986
15.7052
15.7126
15.7203
15.7281
15.7365
15.7456
15.7568
15.7698
15.7841
15.7996
15.8169
15.836
15.8566
15.8786
15.9022
15.9273
15.9541
15.9826
16.0127
16.0445
16.0781
16.1135
16.1506
16.1893
16.2298
16.2719
16.3156
16.361
16.4075
16.4551
16.5039
16.5537
16.6041
16.6548
16.7042
16.7515
16.7967
16.8389
16.8761
16.9062
16.9266
16.9348
5.81073
5.80716
5.78772
5.76103
5.72618
5.68789
5.64814
5.60675
5.56509
5.52338
5.48191
5.44113
5.4014
5.36254
5.32469
5.28807
5.25265
5.21878
5.18635
5.15535
5.12569
5.09761
5.07111
5.04607
5.02239
5.00033
4.97986
4.961
4.94371
4.92778
4.91318
4.89984
4.88772
4.87676
4.86691
4.85823
4.85071
4.84415
4.83852
4.83392
4.83035
4.82754
4.8254
4.82386
4.82283
4.82249
4.82282
4.8238
4.82542
4.82767
4.83054
4.83399
4.83798
4.84259
4.84782
4.85368
4.86016
4.86728
4.87506
4.88337
4.89218
4.90163
4.91176
4.92282
4.93486
4.94773
4.96146
4.97618
4.99195
5.00869
5.02645
5.04526
5.06515
5.08617
5.10833
5.13166
5.15618
5.18193
5.2089
5.23713
5.26652
5.29717
5.32892
5.3618
5.39569
5.43043
5.46591
5.50206
5.53868
5.57553
5.61231
5.64858
5.68357
5.71685
5.74771
5.77438
5.79593
5.81028
5.8154
2.98117
2.97675
2.95922
2.93792
2.91026
2.88046
2.84977
2.8179
2.78601
2.75424
2.72283
2.692
2.66205
2.63296
2.60482
2.57782
2.55189
2.52727
2.50385
2.48171
2.46073
2.44103
2.4226
2.40541
2.38939
2.3746
2.36101
2.3486
2.33734
2.32713
2.31795
2.30975
2.30248
2.29612
2.29061
2.28595
2.28214
2.27907
2.27673
2.2751
2.27419
2.27389
2.27417
2.27499
2.27631
2.27816
2.28054
2.28342
2.28678
2.29061
2.2949
2.29963
2.30477
2.31034
2.31633
2.32273
2.32956
2.33679
2.34443
2.35246
2.36084
2.36963
2.37885
2.38855
2.39876
2.40945
2.42063
2.43233
2.44461
2.45745
2.47086
2.48487
2.4995
2.51478
2.53072
2.54733
2.56464
2.58267
2.6014
2.62089
2.64102
2.66191
2.6834
2.70551
2.72815
2.75121
2.77461
2.79827
2.82202
2.84571
2.86909
2.89202
2.91394
2.93445
2.95316
2.96872
2.98101
2.9883
2.98878
1.9177
1.91271
1.89571
1.87753
1.85379
1.82909
1.8039
1.77801
1.75243
1.72723
1.70258
1.67863
1.65562
1.63351
1.61236
1.59231
1.57325
1.55539
1.53855
1.52285
1.50816
1.49455
1.48198
1.47044
1.45987
1.45027
1.44161
1.43386
1.427
1.42096
1.4157
1.4112
1.40741
1.40432
1.40188
1.40007
1.39889
1.39827
1.3982
1.39864
1.39959
1.401
1.40285
1.40512
1.40776
1.41081
1.41426
1.41811
1.42235
1.4269
1.43176
1.43691
1.44233
1.44801
1.45396
1.46016
1.4666
1.47329
1.48021
1.48736
1.49471
1.5023
1.51013
1.51822
1.52659
1.53522
1.54414
1.55335
1.56289
1.57276
1.58297
1.59353
1.60447
1.6158
1.62754
1.63969
1.65226
1.66527
1.67871
1.6926
1.70683
1.72153
1.73651
1.75182
1.76735
1.78304
1.7988
1.81458
1.83021
1.84561
1.86059
1.87511
1.88873
1.90118
1.91225
1.92086
1.92731
1.92979
1.92708
1.37377
1.36857
1.35203
1.33604
1.31486
1.29373
1.27228
1.25062
1.22952
1.20903
1.18927
1.17033
1.15238
1.13538
1.11935
1.10438
1.09032
1.07737
1.06529
1.05423
1.04402
1.03474
1.02632
1.01875
1.01197
1.00598
1.00073
0.996188
0.992334
0.989119
0.986511
0.984484
0.983003
0.982045
0.981579
0.981584
0.98205
0.982924
0.984192
0.985827
0.987828
0.990147
0.99278
0.995706
0.998899
1.00238
1.00614
1.01018
1.01446
1.01894
1.0236
1.02843
1.03341
1.03855
1.04382
1.04924
1.05478
1.06044
1.06623
1.07214
1.07816
1.0843
1.09057
1.09698
1.10356
1.11028
1.11718
1.12425
1.13153
1.13902
1.14674
1.15469
1.1629
1.17139
1.18016
1.18921
1.19854
1.20818
1.21808
1.22828
1.23869
1.24939
1.26023
1.27126
1.28236
1.29349
1.30457
1.31557
1.32635
1.33686
1.34695
1.35663
1.36554
1.37348
1.38034
1.38519
1.38841
1.38818
1.38382
1.03561
1.03082
1.0153
1.00161
0.98295
0.965204
0.947129
0.929289
0.912108
0.895703
0.880066
0.865329
0.851534
0.838674
0.826716
0.815739
0.805564
0.796366
0.787906
0.780308
0.773412
0.767294
0.761864
0.757132
0.75302
0.749537
0.746624
0.744272
0.74244
0.741099
0.740219
0.739778
0.739746
0.740102
0.740818
0.741877
0.743262
0.744937
0.746889
0.749094
0.751547
0.754214
0.757092
0.760161
0.763401
0.76682
0.770399
0.774118
0.777947
0.781877
0.785899
0.790002
0.794168
0.798403
0.802694
0.807036
0.811428
0.815864
0.820349
0.824879
0.829448
0.83408
0.838772
0.843534
0.848386
0.853322
0.858363
0.863519
0.868817
0.874256
0.879859
0.885642
0.891614
0.897794
0.904177
0.910765
0.91756
0.924574
0.931777
0.939204
0.946756
0.954547
0.962398
0.970391
0.9784
0.986415
0.994362
1.00223
1.00989
1.01734
1.02442
1.03122
1.0374
1.04279
1.04736
1.05021
1.05178
1.05028
1.04544
0.803636
0.799858
0.785959
0.774885
0.758976
0.744698
0.729896
0.715735
0.702132
0.689423
0.677396
0.666272
0.655946
0.64649
0.637791
0.629956
0.62278
0.616447
0.6107
0.605678
0.601199
0.597355
0.59404
0.591281
0.588997
0.587204
0.58584
0.584906
0.584357
0.584179
0.584339
0.584823
0.585601
0.586659
0.58797
0.58952
0.591294
0.593263
0.595416
0.597732
0.600205
0.602808
0.605536
0.60837
0.611295
0.614304
0.617379
0.620499
0.623653
0.626841
0.63005
0.633274
0.636499
0.63973
0.642956
0.646177
0.649392
0.652597
0.6558
0.659
0.662197
0.665409
0.668639
0.671896
0.675197
0.678544
0.681956
0.685443
0.689031
0.692723
0.69654
0.700496
0.704596
0.708855
0.713268
0.717842
0.722577
0.727488
0.732548
0.737797
0.743141
0.7487
0.754301
0.760044
0.765801
0.77159
0.777341
0.783059
0.788628
0.79407
0.799253
0.804262
0.80881
0.812756
0.816075
0.817939
0.818818
0.817018
0.812552
0.637455
0.634906
0.622985
0.614555
0.601403
0.590453
0.578624
0.56781
0.557281
0.547742
0.538685
0.530522
0.522939
0.51615
0.509927
0.504456
0.49948
0.495227
0.491417
0.488224
0.485436
0.48316
0.481277
0.479832
0.478739
0.478025
0.477625
0.47755
0.477753
0.47823
0.478947
0.479896
0.481049
0.482395
0.483911
0.485586
0.487404
0.489344
0.491394
0.493537
0.495764
0.498055
0.500403
0.50279
0.505203
0.507633
0.510064
0.512485
0.514895
0.517286
0.519651
0.521984
0.524276
0.526531
0.528744
0.530913
0.533042
0.535129
0.537183
0.539203
0.541197
0.543176
0.545149
0.547124
0.54912
0.55114
0.553204
0.555322
0.557516
0.559793
0.562169
0.564655
0.567257
0.569991
0.572857
0.575861
0.579009
0.582314
0.585753
0.58937
0.593078
0.597
0.600973
0.605109
0.60928
0.613529
0.617782
0.622064
0.626268
0.630431
0.634432
0.638366
0.641971
0.645136
0.64784
0.649346
0.650124
0.648623
0.644988
0.516083
0.514722
0.504808
0.498791
0.488114
0.48011
0.47076
0.462785
0.454706
0.447721
0.440937
0.435033
0.42949
0.424679
0.420256
0.416493
0.413079
0.410285
0.407802
0.405847
0.404193
0.40295
0.401987
0.401372
0.401007
0.400934
0.401084
0.401477
0.402063
0.402848
0.403795
0.404904
0.406145
0.407514
0.408986
0.410556
0.412206
0.413921
0.415688
0.417494
0.419329
0.421176
0.423029
0.424871
0.426694
0.428488
0.430246
0.431959
0.433628
0.435244
0.436803
0.438301
0.439734
0.441105
0.442411
0.443655
0.44484
0.445968
0.447048
0.448083
0.449081
0.450054
0.451011
0.451962
0.452925
0.453907
0.454926
0.455991
0.457124
0.45833
0.459623
0.461014
0.462511
0.464133
0.465882
0.467767
0.469792
0.471973
0.474293
0.47679
0.47939
0.482208
0.485099
0.488175
0.491317
0.494578
0.497887
0.501281
0.50466
0.508068
0.511394
0.514733
0.517845
0.520653
0.523128
0.524643
0.525631
0.524706
0.52207
0.426314
0.425988
0.417852
0.413827
0.405211
0.39951
0.392117
0.386331
0.380108
0.375052
0.369944
0.365709
0.361644
0.35827
0.355131
0.352585
0.350269
0.348488
0.346914
0.345794
0.34486
0.344265
0.343859
0.343729
0.343769
0.344034
0.344448
0.345044
0.345764
0.346627
0.347589
0.34866
0.349806
0.35103
0.352304
0.353629
0.354984
0.356362
0.357747
0.359131
0.360502
0.361849
0.363165
0.364438
0.365661
0.366829
0.367937
0.368979
0.369958
0.370864
0.371698
0.372458
0.373141
0.373753
0.374292
0.374764
0.375174
0.375526
0.37583
0.376091
0.376318
0.376523
0.376716
0.376908
0.377114
0.377345
0.377617
0.377942
0.378335
0.378805
0.379365
0.380025
0.380795
0.381692
0.382721
0.383893
0.385211
0.386692
0.388321
0.390135
0.392068
0.394222
0.396471
0.39892
0.401458
0.404147
0.406918
0.409815
0.412744
0.415756
0.41874
0.421787
0.424683
0.427377
0.42983
0.431521
0.432824
0.432529
0.43086
0.358926
0.359237
0.352694
0.350063
0.343157
0.339126
0.333263
0.329093
0.324263
0.320629
0.316755
0.313752
0.310757
0.308423
0.306197
0.304513
0.302958
0.301878
0.300919
0.30032
0.299817
0.299597
0.299492
0.299609
0.29983
0.300226
0.300711
0.301331
0.302021
0.302811
0.303651
0.304559
0.305498
0.306477
0.307467
0.308472
0.30947
0.31046
0.311425
0.312361
0.313256
0.314104
0.314897
0.315629
0.316294
0.316889
0.317411
0.317858
0.318232
0.318526
0.318746
0.318888
0.318955
0.318952
0.318881
0.318748
0.318561
0.318324
0.31805
0.317745
0.317422
0.317089
0.316759
0.31644
0.31615
0.315896
0.315696
0.31556
0.315504
0.315538
0.315674
0.315922
0.316289
0.316791
0.317431
0.318219
0.319161
0.320271
0.321537
0.322993
0.324583
0.326396
0.328315
0.330439
0.332666
0.335058
0.337549
0.340185
0.342884
0.345699
0.348522
0.351436
0.35425
0.356932
0.359436
0.361331
0.362925
0.363158
0.362254
0.307246
0.307891
0.302742
0.301034
0.295541
0.292721
0.288058
0.285088
0.281307
0.278724
0.275758
0.273655
0.271427
0.26984
0.268251
0.267171
0.266134
0.265494
0.264892
0.264576
0.264302
0.264266
0.264284
0.264484
0.264735
0.265121
0.265549
0.266077
0.266631
0.267253
0.267888
0.268561
0.269232
0.269915
0.270581
0.271238
0.271863
0.272459
0.273008
0.273512
0.273959
0.274346
0.274668
0.27492
0.275099
0.275203
0.275232
0.275185
0.275063
0.274866
0.274598
0.274262
0.27386
0.2734
0.272884
0.272321
0.271718
0.271083
0.270427
0.269759
0.269093
0.268436
0.267802
0.2672
0.266642
0.266139
0.265703
0.265345
0.265081
0.264917
0.264867
0.26494
0.265144
0.265491
0.265981
0.26662
0.267413
0.268373
0.269489
0.27079
0.272233
0.273895
0.275669
0.277641
0.279719
0.281963
0.284309
0.286802
0.289365
0.292045
0.294752
0.297562
0.300308
0.302971
0.305496
0.307532
0.309314
0.30994
0.309607
0.266724
0.2676
0.263579
0.262524
0.258166
0.25622
0.252494
0.2504
0.247407
0.245591
0.243288
0.241831
0.240148
0.239085
0.237933
0.23723
0.236486
0.236076
0.235636
0.235452
0.235262
0.235276
0.235295
0.235465
0.235642
0.235927
0.236215
0.236576
0.236931
0.23733
0.237713
0.238115
0.238489
0.23886
0.239192
0.239501
0.239761
0.239982
0.240144
0.240254
0.240298
0.240281
0.240196
0.240043
0.239821
0.239529
0.239168
0.238739
0.238245
0.237687
0.237072
0.236404
0.235688
0.234933
0.234142
0.233325
0.232489
0.231642
0.230795
0.229957
0.229139
0.228351
0.227605
0.226908
0.226275
0.225711
0.22523
0.224835
0.224541
0.224352
0.22428
0.224336
0.224525
0.22486
0.225341
0.225964
0.226735
0.227662
0.228737
0.229983
0.231363
0.232934
0.234618
0.236486
0.238459
0.240593
0.242828
0.245205
0.247654
0.250213
0.252814
0.25552
0.25819
0.260808
0.263316
0.265431
0.267317
0.268238
0.268344
0.234334
0.235365
0.232235
0.231641
0.228179
0.226853
0.223854
0.222386
0.219984
0.218713
0.21689
0.215883
0.214578
0.213836
0.212926
0.212413
0.211786
0.211468
0.211071
0.210912
0.210704
0.210674
0.21061
0.210676
0.210714
0.21084
0.210938
0.211093
0.211215
0.211367
0.211482
0.211604
0.211682
0.211748
0.211764
0.211752
0.211684
0.211574
0.211402
0.21118
0.210894
0.210551
0.210146
0.209683
0.20916
0.208582
0.207948
0.207262
0.206528
0.205749
0.20493
0.204078
0.203199
0.202301
0.201389
0.200473
0.199561
0.19866
0.197781
0.196927
0.196109
0.195336
0.194616
0.193958
0.193372
0.192867
0.192456
0.192134
0.191912
0.191795
0.19179
0.191906
0.192145
0.192517
0.193017
0.193653
0.194426
0.195343
0.196398
0.197607
0.198938
0.200436
0.202046
0.203825
0.205709
0.207744
0.20988
0.21215
0.214496
0.216954
0.219465
0.222077
0.224674
0.227239
0.229717
0.231872
0.233822
0.234962
0.235393
0.207955
0.20908
0.206642
0.206366
0.203597
0.202701
0.200258
0.199225
0.197261
0.196361
0.19488
0.19414
0.193042
0.192453
0.19163
0.191184
0.190574
0.190261
0.189828
0.189621
0.189326
0.189194
0.188996
0.188915
0.188778
0.188719
0.188609
0.188547
0.188434
0.188344
0.188204
0.188067
0.187878
0.187676
0.18742
0.187139
0.186802
0.18643
0.186001
0.185532
0.185007
0.184437
0.183816
0.183153
0.182443
0.181696
0.180909
0.180092
0.179245
0.178376
0.177488
0.176587
0.175676
0.174764
0.173856
0.172961
0.172085
0.171237
0.170427
0.169659
0.168932
0.168256
0.167638
0.167083
0.166601
0.166196
0.165874
0.165639
0.1655
0.16546
0.165526
0.165702
0.16599
0.166395
0.166915
0.167562
0.168335
0.169242
0.170276
0.171451
0.172742
0.174189
0.175745
0.177456
0.17927
0.181225
0.183278
0.185458
0.187717
0.190085
0.192512
0.195035
0.197556
0.20006
0.202492
0.204658
0.206638
0.20793
0.208593
0.186073
0.187244
0.185333
0.185269
0.183024
0.182415
0.180387
0.179641
0.177998
0.17731
0.176019
0.175397
0.174368
0.173828
0.173009
0.172559
0.171906
0.171543
0.171027
0.170727
0.170309
0.170046
0.169692
0.169449
0.16913
0.168887
0.168578
0.168316
0.167993
0.167694
0.167338
0.166989
0.166585
0.166176
0.165713
0.165236
0.164708
0.164158
0.16356
0.162938
0.162273
0.161582
0.160853
0.160098
0.159312
0.158505
0.157675
0.156831
0.155975
0.155115
0.154256
0.153401
0.152547
0.151705
0.150877
0.15007
0.149289
0.14854
0.147828
0.147156
0.146531
0.145959
0.145444
0.144991
0.144605
0.14429
0.144049
0.14389
0.143821
0.143846
0.143969
0.144194
0.144522
0.14496
0.145507
0.146172
0.146953
0.147857
0.148878
0.150029
0.151292
0.152697
0.154207
0.15586
0.157613
0.159495
0.161475
0.163573
0.165751
0.168033
0.170376
0.17281
0.175253
0.177687
0.180061
0.182212
0.184192
0.185581
0.186402
0.167597
0.168776
0.167258
0.167324
0.165463
0.165032
0.163302
0.162721
0.16127
0.160668
0.159441
0.158852
0.157825
0.157278
0.156418
0.155926
0.155199
0.154759
0.154138
0.153731
0.153181
0.152787
0.152282
0.15189
0.151409
0.151007
0.15053
0.150106
0.149618
0.149163
0.148652
0.148156
0.147608
0.147065
0.146474
0.145881
0.145245
0.144602
0.143922
0.143233
0.142514
0.141789
0.141041
0.140281
0.139501
0.138715
0.137915
0.137115
0.13631
0.13551
0.134714
0.133927
0.133151
0.132392
0.131652
0.130939
0.130252
0.129597
0.128976
0.128394
0.12786
0.127377
0.126951
0.126585
0.126283
0.126048
0.125886
0.125803
0.125803
0.12589
0.126068
0.12634
0.126709
0.127179
0.127752
0.128432
0.12922
0.130121
0.13113
0.13226
0.133494
0.13486
0.136326
0.137923
0.139616
0.141431
0.143338
0.145357
0.147456
0.149652
0.15191
0.154254
0.156613
0.158969
0.161274
0.163389
0.165344
0.166785
0.167705
0.151732
0.152893
0.151658
0.151791
0.150201
0.149863
0.148327
0.147808
0.146434
0.145848
0.144635
0.144038
0.142983
0.142403
0.141487
0.140936
0.140131
0.139612
0.138891
0.138387
0.137723
0.137221
0.136595
0.136088
0.135483
0.134966
0.134369
0.133836
0.133237
0.132684
0.132079
0.131503
0.130878
0.130272
0.129623
0.128985
0.128312
0.127644
0.126947
0.126252
0.125534
0.124818
0.124083
0.123349
0.122602
0.121859
0.12111
0.120367
0.119624
0.118889
0.118159
0.117441
0.116738
0.116058
0.1154
0.11477
0.114168
0.1136
0.113067
0.112577
0.112134
0.11174
0.1114
0.111117
0.110896
0.110738
0.11065
0.110635
0.110697
0.110839
0.111065
0.111378
0.11178
0.112277
0.112868
0.113557
0.114346
0.115239
0.116232
0.117336
0.11854
0.119863
0.121282
0.122821
0.124454
0.126199
0.128034
0.129973
0.13199
0.134099
0.13627
0.13852
0.14079
0.143061
0.145288
0.14735
0.149261
0.150718
0.15169
0.137899
0.139021
0.137981
0.138137
0.13673
0.136422
0.134991
0.13447
0.133124
0.132532
0.131314
0.130698
0.129611
0.128995
0.128024
0.127423
0.126549
0.125968
0.125168
0.124597
0.123849
0.123276
0.122566
0.121989
0.121305
0.120721
0.120053
0.119461
0.1188
0.118197
0.117538
0.11692
0.116257
0.115622
0.114951
0.114301
0.113621
0.112955
0.112266
0.111587
0.110888
0.110195
0.109487
0.108788
0.108083
0.107387
0.106691
0.106005
0.105324
0.104656
0.103997
0.103358
0.102736
0.102139
0.101565
0.10102
0.100505
0.100024
0.0995789
0.099176
0.0988172
0.0985061
0.0982455
0.0980386
0.0978888
0.0977995
0.0977746
0.0978172
0.0979304
0.0981176
0.0983813
0.0987254
0.0991513
0.0996637
0.100263
0.100953
0.101734
0.102612
0.103583
0.104655
0.105821
0.107097
0.108465
0.109943
0.111511
0.113183
0.114943
0.116799
0.118732
0.120751
0.122831
0.124985
0.127162
0.129342
0.131483
0.133479
0.13533
0.136774
0.137763
0.125673
0.126742
0.125832
0.125979
0.124691
0.124375
0.123005
0.122467
0.121135
0.120536
0.119311
0.118683
0.11757
0.116932
0.115921
0.115286
0.114361
0.113735
0.112879
0.112256
0.111453
0.110829
0.110066
0.109442
0.10871
0.108086
0.107378
0.106752
0.106059
0.105428
0.104743
0.104104
0.103426
0.102783
0.102109
0.101462
0.100791
0.10014
0.0994708
0.0988176
0.0981501
0.0974953
0.0968327
0.0961846
0.0955341
0.0948979
0.0942642
0.0936458
0.0930346
0.0924407
0.0918594
0.0913001
0.0907593
0.0902441
0.0897524
0.0892902
0.088857
0.0884579
0.0880939
0.0877698
0.0874868
0.0872485
0.0870571
0.0869157
0.0868271
0.0867944
0.0868206
0.0869086
0.087061
0.0872811
0.0875712
0.0879348
0.0883734
0.0888913
0.0894889
0.0901698
0.0909346
0.0917878
0.0927281
0.0937621
0.0948836
0.0961066
0.0974167
0.0988292
0.100328
0.101925
0.103605
0.105376
0.107221
0.109146
0.111133
0.113187
0.115268
0.117352
0.119401
0.121319
0.123098
0.124507
0.125485
0.114744
0.115753
0.114922
0.115043
0.11383
0.113493
0.112171
0.111614
0.110311
0.109695
0.108478
0.107828
0.106706
0.106042
0.105009
0.104343
0.103386
0.102721
0.101831
0.101168
0.100331
0.0996702
0.0988771
0.0982215
0.0974642
0.0968147
0.0960872
0.0954437
0.0947392
0.0940999
0.093413
0.0927781
0.0921083
0.0914789
0.0908232
0.0901993
0.089556
0.0889379
0.0883057
0.087694
0.087073
0.0864699
0.0858635
0.0852747
0.0846868
0.0841161
0.0835504
0.0830025
0.0824641
0.0819451
0.0814404
0.0809583
0.0804948
0.0800569
0.079642
0.0792557
0.0788973
0.0785715
0.0782786
0.0780228
0.0778048
0.0776283
0.0774946
0.0774068
0.0773673
0.0773789
0.0774439
0.077565
0.0777448
0.0779861
0.0782911
0.0786632
0.0791038
0.0796168
0.0802028
0.0808652
0.0816049
0.0824261
0.083328
0.0843164
0.0853869
0.0865512
0.0877982
0.0891404
0.0905654
0.0920819
0.0936788
0.095361
0.0971145
0.0989442
0.100833
0.102786
0.104766
0.10675
0.108701
0.110534
0.112231
0.113589
0.114535
0.104887
0.10583
0.105047
0.105132
0.103969
0.103607
0.102328
0.10175
0.100486
0.0998424
0.0986458
0.0979666
0.096849
0.0961541
0.095114
0.0944162
0.0934467
0.092754
0.0918502
0.091164
0.0903157
0.0896375
0.0888364
0.0881698
0.0874096
0.0867562
0.0860318
0.0853919
0.0846977
0.0840705
0.0834029
0.0827895
0.0821465
0.0815466
0.0809252
0.0803385
0.0797366
0.0791628
0.0785791
0.0780187
0.0774531
0.0769083
0.0763631
0.0758372
0.0753146
0.0748106
0.0743135
0.0738352
0.0733676
0.0729201
0.0724872
0.0720766
0.071684
0.071316
0.0709698
0.0706508
0.0703577
0.070095
0.0698625
0.069664
0.0694999
0.0693735
0.069286
0.0692403
0.0692382
0.0692822
0.0693745
0.0695175
0.0697136
0.0699654
0.0702751
0.0706457
0.0710787
0.0715777
0.0721436
0.0727794
0.0734864
0.0742684
0.0751251
0.0760617
0.0770754
0.0781756
0.0793545
0.0806221
0.0819689
0.0834017
0.0849114
0.0865016
0.0881605
0.0898913
0.0916798
0.0935282
0.0954043
0.0972848
0.0991346
0.100875
0.102484
0.10378
0.10468
0.0959399
0.0968149
0.096059
0.0961055
0.0949806
0.0945958
0.0933522
0.0927595
0.0915284
0.0908634
0.0896894
0.0889885
0.0878839
0.0871685
0.0861352
0.0854199
0.0844552
0.0837503
0.0828516
0.0821595
0.0813188
0.0806412
0.0798516
0.0791919
0.078448
0.0778081
0.0771052
0.0764857
0.0758191
0.0752196
0.0745862
0.0740072
0.0734037
0.0728443
0.0722678
0.0717271
0.0711751
0.0706525
0.0701233
0.0696189
0.0691123
0.0686275
0.0681443
0.0676811
0.0672226
0.0667832
0.0663514
0.0659387
0.0655369
0.0651548
0.064787
0.0644402
0.0641104
0.0638037
0.0635171
0.0632557
0.063018
0.0628081
0.0626254
0.0624734
0.0623525
0.0622656
0.0622135
0.0621991
0.0622238
0.06229
0.0623995
0.0625547
0.0627576
0.063011
0.0633166
0.0636775
0.064095
0.0645725
0.0651111
0.0657138
0.0663819
0.0671189
0.067925
0.0688049
0.0697569
0.0707891
0.0718957
0.0730851
0.07435
0.0756958
0.0771153
0.0786106
0.0801721
0.0818017
0.0834873
0.085229
0.0869988
0.0887732
0.0905184
0.092163
0.0936783
0.0949039
0.0957487
0.0877858
0.0885918
0.0878535
0.087863
0.0867705
0.0863674
0.0851592
0.0845572
0.0833588
0.0826817
0.0815356
0.0808239
0.0797423
0.0790193
0.0780064
0.0772882
0.0763441
0.0756421
0.0747654
0.0740828
0.0732664
0.0726046
0.0718426
0.0712046
0.070492
0.0698795
0.0692121
0.0686254
0.0679987
0.0674375
0.0668481
0.066312
0.0657561
0.0652436
0.0647181
0.0642279
0.0637297
0.0632609
0.0627882
0.0623405
0.0618925
0.0614662
0.0610429
0.0606392
0.060241
0.0598614
0.0594899
0.0591365
0.0587939
0.0584699
0.0581592
0.057868
0.0575925
0.057338
0.0571019
0.0568886
0.0566967
0.0565297
0.0563871
0.056272
0.0561845
0.0561275
0.0561016
0.0561093
0.0561519
0.0562316
0.0563499
0.0565094
0.0567116
0.0569592
0.0572539
0.0575985
0.0579945
0.0584449
0.0589511
0.0595157
0.0601403
0.0608281
0.0615797
0.0623994
0.0632863
0.0642475
0.0652789
0.0663875
0.067568
0.0688245
0.0701513
0.0715496
0.0730117
0.0745381
0.0761188
0.0777524
0.0794141
0.0810804
0.0827191
0.0842645
0.0856841
0.0868341
0.0876185
0.0803403
0.0810777
0.0803546
0.0803304
0.0792708
0.0788549
0.0776849
0.07708
0.0759184
0.0752395
0.0741287
0.0734182
0.0723703
0.0716529
0.0706731
0.0699659
0.0690562
0.0683708
0.0675298
0.0668696
0.0660911
0.0654573
0.0647354
0.0641302
0.0634602
0.0628847
0.0622625
0.0617168
0.0611379
0.0606212
0.0600817
0.0595929
0.0590887
0.0586259
0.0581534
0.0577149
0.0572711
0.0568555
0.0564382
0.0560447
0.0556525
0.0552811
0.0549133
0.0545642
0.054221
0.0538952
0.0535774
0.0532765
0.0529857
0.0527119
0.0524503
0.0522065
0.0519769
0.0517661
0.0515719
0.051398
0.0512431
0.0511104
0.0509993
0.0509126
0.0508505
0.0508153
0.0508077
0.0508301
0.0508833
0.0509696
0.0510904
0.0512479
0.0514437
0.0516801
0.051959
0.0522827
0.0526529
0.0530724
0.0535425
0.0540659
0.0546441
0.0552802
0.055975
0.0567325
0.0575524
0.0584409
0.0593955
0.060422
0.0615166
0.0626825
0.0639153
0.0652156
0.0665769
0.0679991
0.0694738
0.0709982
0.0725507
0.0741079
0.0756391
0.0770838
0.0784069
0.0794786
0.0802005
0.0735417
0.0742121
0.0735059
0.0734525
0.0724294
0.0720068
0.0708799
0.0702794
0.0691612
0.0684907
0.0674235
0.0667259
0.0657218
0.0650221
0.0640867
0.0634024
0.0625382
0.0618806
0.0610863
0.0604587
0.0597279
0.0591309
0.0584579
0.057893
0.0572729
0.0567407
0.0561693
0.0556693
0.055142
0.0546728
0.0541854
0.0537453
0.0532935
0.0528803
0.0524602
0.0520719
0.0516805
0.0513154
0.0509501
0.050607
0.0502661
0.0499444
0.0496269
0.0493265
0.0490321
0.0487536
0.0484827
0.0482271
0.0479808
0.0477498
0.0475298
0.0473256
0.0471341
0.0469594
0.0467993
0.0466571
0.0465318
0.046426
0.0463393
0.0462741
0.0462305
0.0462107
0.0462154
0.0462464
0.0463048
0.0463926
0.046511
0.0466621
0.0468473
0.047069
0.0473286
0.0476286
0.0479704
0.0483568
0.048789
0.0492696
0.0498001
0.0503835
0.0510207
0.0517153
0.0524679
0.0532836
0.0541611
0.0551053
0.0561138
0.0571892
0.0583279
0.05953
0.0607904
0.0621083
0.0634767
0.064892
0.0663351
0.0677831
0.0692069
0.0705506
0.0717774
0.0727703
0.0734298
0.0673431
0.0679488
0.0672639
0.0671862
0.0662049
0.0657816
0.064704
0.064115
0.0630478
0.0623949
0.0613797
0.060705
0.0597536
0.0590818
0.0581997
0.0575478
0.0567376
0.0561163
0.0553761
0.0547882
0.0541116
0.0535574
0.0529384
0.0524182
0.0518519
0.0513659
0.0508478
0.050395
0.0499203
0.0494987
0.0490631
0.0486707
0.0482697
0.0479039
0.0475338
0.0471925
0.0468498
0.0465311
0.0462133
0.0459156
0.0456208
0.0453433
0.0450701
0.0448124
0.0445605
0.0443227
0.0440921
0.043875
0.0436665
0.0434713
0.0432861
0.0431147
0.0429546
0.0428092
0.0426767
0.0425599
0.0424578
0.0423729
0.0423047
0.0422554
0.0422251
0.0422157
0.0422278
0.0422632
0.0423228
0.0424083
0.042521
0.0426628
0.0428349
0.0430395
0.0432781
0.0435529
0.0438652
0.0442176
0.0446115
0.0450491
0.0455321
0.046063
0.0466432
0.0472759
0.0479619
0.0487059
0.0495075
0.0503708
0.0512944
0.0522803
0.0533259
0.0544311
0.0555914
0.0568061
0.058069
0.0593763
0.0607108
0.0620506
0.063368
0.0646115
0.0657436
0.0666585
0.0672574
0.0617066
0.0622508
0.0615924
0.0614953
0.0605615
0.0601432
0.0591213
0.0585506
0.0575415
0.056914
0.0559579
0.0553143
0.0544225
0.0537863
0.052964
0.0523514
0.0516006
0.0510213
0.0503397
0.0497959
0.0491769
0.0486683
0.0481055
0.0476318
0.0471202
0.046681
0.0462159
0.0458096
0.0453863
0.0450106
0.0446245
0.0442771
0.0439239
0.0436021
0.043278
0.0429796
0.0426811
0.042404
0.0421286
0.0418712
0.0416169
0.0413779
0.0411434
0.0409225
0.040707
0.0405041
0.0403076
0.040123
0.039946
0.0397808
0.0396243
0.0394799
0.0393454
0.0392237
0.0391133
0.0390165
0.0389327
0.0388638
0.0388096
0.0387719
0.0387508
0.0387481
0.0387642
0.0388009
0.0388588
0.0389397
0.0390446
0.0391753
0.039333
0.0395196
0.0397364
0.0399856
0.0402685
0.0405873
0.0409434
0.0413391
0.0417757
0.0422558
0.0427807
0.0433534
0.043975
0.0446496
0.0453775
0.0461623
0.0470033
0.0479023
0.0488572
0.0498676
0.0509302
0.0520438
0.0532033
0.0544046
0.0556325
0.056866
0.058079
0.0592242
0.060264
0.0611029
0.0616442
0.0565991
0.0570858
0.0564587
0.0563472
0.0554661
0.0550581
0.0540975
0.0535507
0.0526055
0.0520095
0.051118
0.0505113
0.049684
0.0490886
0.0483299
0.0477608
0.0470723
0.046538
0.0459168
0.045419
0.0448583
0.0443961
0.0438892
0.0434617
0.0430035
0.0426096
0.0421956
0.0418335
0.0414587
0.0411259
0.0407859
0.0404799
0.0401704
0.0398886
0.039606
0.0393459
0.0390869
0.0388465
0.0386084
0.038386
0.0381669
0.0379613
0.03776
0.0375704
0.037386
0.0372124
0.0370447
0.0368873
0.0367367
0.0365962
0.0364634
0.0363411
0.0362274
0.0361248
0.0360321
0.0359513
0.0358817
0.0358251
0.0357813
0.0357519
0.0357371
0.0357383
0.0357561
0.0357919
0.0358465
0.0359213
0.0360173
0.0361361
0.0362788
0.0364473
0.0366427
0.0368668
0.0371211
0.0374076
0.0377276
0.038083
0.0384755
0.0389071
0.0393794
0.0398949
0.0404551
0.0410637
0.0417211
0.042431
0.0431928
0.0440083
0.0448759
0.0457951
0.0467632
0.047779
0.0488383
0.0499368
0.0510611
0.0521914
0.0533029
0.0543527
0.0553035
0.0560693
0.0565565
0.0519895
0.0524231
0.0518315
0.0517101
0.0508859
0.0504926
0.0495975
0.0490791
0.0482018
0.0476415
0.0468179
0.0462519
0.0454915
0.0449399
0.0442463
0.0437226
0.0430969
0.0426087
0.0420474
0.0415955
0.0410917
0.0406748
0.0402218
0.0398385
0.0394311
0.03908
0.0387136
0.0383926
0.0380625
0.0377691
0.037471
0.0372025
0.0369323
0.0366861
0.0364403
0.0362141
0.0359896
0.0357812
0.0355756
0.0353834
0.0351948
0.0350176
0.0348446
0.0346817
0.0345235
0.0343747
0.0342311
0.0340964
0.0339677
0.0338476
0.0337344
0.0336301
0.0335335
0.0334463
0.0333678
0.0332995
0.0332411
0.0331939
0.0331579
0.0331345
0.0331238
0.0331271
0.033145
0.0331786
0.0332288
0.0332967
0.0333835
0.0334903
0.0336183
0.0337691
0.0339439
0.0341443
0.0343715
0.0346274
0.0349133
0.035231
0.035582
0.0359682
0.0363911
0.036853
0.0373555
0.037902
0.0384932
0.0391322
0.0398192
0.0405556
0.0413402
0.0421726
0.0430506
0.043973
0.0449362
0.0459361
0.0469608
0.0479919
0.049006
0.049964
0.0508298
0.051526
0.0519631
0.0478469
0.048232
0.0476789
0.0475517
0.0467873
0.0464121
0.045585
0.045098
0.0442907
0.0437687
0.0430143
0.0424908
0.0417976
0.0412908
0.0406618
0.0401837
0.0396194
0.0391763
0.0386728
0.0382653
0.0378156
0.0374418
0.0370394
0.0366975
0.0363372
0.0360256
0.0357029
0.0354194
0.0351298
0.0348717
0.0346112
0.034376
0.0341407
0.0339259
0.0337125
0.0335158
0.0333214
0.0331408
0.0329631
0.032797
0.0326343
0.0324814
0.0323325
0.0321922
0.0320562
0.0319281
0.0318048
0.031689
0.0315785
0.0314755
0.0313784
0.031289
0.0312062
0.0311316
0.0310646
0.0310063
0.0309567
0.0309168
0.0308867
0.0308675
0.0308594
0.0308636
0.0308806
0.0309113
0.0309566
0.0310176
0.031095
0.0311903
0.0313043
0.0314384
0.0315938
0.0317718
0.0319739
0.0322014
0.0324557
0.0327385
0.033051
0.0333952
0.0337723
0.0341846
0.0346336
0.0351223
0.0356518
0.0362249
0.0368419
0.0375042
0.0382109
0.0389617
0.0397547
0.0405888
0.041461
0.0423674
0.0432974
0.044234
0.0451555
0.0460261
0.0468115
0.0474421
0.0478332
0.0441397
0.0444809
0.0439683
0.0438388
0.0431354
0.0427808
0.0420226
0.0415687
0.0408315
0.0403488
0.039663
0.0391822
0.0385549
0.0380923
0.0375257
0.0370919
0.0365861
0.0361864
0.0357373
0.0353717
0.0349724
0.0346387
0.0342829
0.0339791
0.0336617
0.033386
0.0331027
0.0328529
0.0325995
0.032373
0.0321457
0.0319401
0.0317354
0.0315481
0.0313629
0.0311919
0.0310235
0.0308668
0.0307133
0.0305694
0.0304289
0.0302968
0.0301683
0.0300471
0.0299298
0.0298193
0.029713
0.0296131
0.0295179
0.029429
0.0293453
0.0292682
0.0291969
0.0291326
0.0290749
0.0290248
0.0289822
0.028948
0.0289224
0.0289062
0.0288998
0.028904
0.0289195