/*--------------------------------*- C++ -*----------------------------------*\
| =========                 |                                                 |
| \\      /  F ield         | OpenFOAM: The Open Source CFD Toolbox           |
|  \\    /   O peration     | Version:  2.4.0                                 |
|   \\  /    A nd           | Web:      www.OpenFOAM.org                      |
|    \\/     M anipulation  |                                                 |
\*---------------------------------------------------------------------------*/
FoamFile
{
    version     2.0;
    format      ascii;
    class       volVectorField;
    location    "350";
    object      U;
}
// * * * * * * * * * * * * * * * * * * * * * * * * * * * * * * * * * * * * * //

dimensions      [0 1 -1 0 0 0 0];

internalField   nonuniform List<vector> 
19475
(
(0.0053818188 2.2994154e-05 1.3052334e-21)
(0.003950449 1.9810567e-05 -1.2715978e-21)
(0.0067339626 -4.2718868e-05 1.086258e-21)
(0.005280907 -0.00016238317 -2.9721029e-20)
(0.0058621206 -0.00039724943 -8.462441e-21)
(0.0033433628 -0.0003917387 1.6386978e-20)
(0.0021507099 -0.00039001432 9.5769735e-21)
(-0.0006326734 0.00015273277 -3.371974e-20)
(-0.0015773647 0.00051723638 -1.2362421e-20)
(-0.0023399318 0.00098638076 1.3892758e-20)
(-0.001928926 0.00097270741 8.5344446e-21)
(-0.0017028635 0.00098361492 -2.179118e-20)
(-0.0012586484 0.00080395742 3.4037515e-21)
(-0.0011072015 0.00076639624 -1.57158e-20)
(-0.00090404305 0.00066480206 1.1799575e-20)
(-0.00084860617 0.00065497424 -1.6603081e-20)
(-0.00074475156 0.00059601209 -5.1467509e-21)
(-0.0007178571 0.00059113281 2.3315159e-21)
(-0.00065549588 0.00055058256 -8.3451022e-21)
(-0.00062769963 0.00053435288 5.7544693e-21)
(-0.00057979691 0.00049665335 7.1471511e-21)
(-0.0005518482 0.00047282367 -5.6292301e-21)
(-0.00051530031 0.00043859238 -1.9681529e-21)
(-0.00049861245 0.00041967718 8.3880883e-22)
(-0.00048066557 0.00039993051 1.9490722e-21)
(-0.00047381752 0.00039003392 4.3901881e-22)
(-0.0004677814 0.00038118297 5.5857474e-22)
(-0.00047038948 0.0003797561 -1.8136874e-21)
(-0.00047566844 0.00038072242 -1.513264e-21)
(-0.00048861044 0.0003880476 -1.0279152e-21)
(-0.00050569648 0.00039880684 1.1130859e-21)
(-0.00052978816 0.00041523394 2.4085116e-21)
(-0.00055866854 0.00043553599 9.4352092e-22)
(-0.00059369658 0.00046078342 1.3042217e-21)
(-0.00063259897 0.00048921764 -1.4408265e-21)
(-0.00067457693 0.00052030573 9.6387046e-22)
(-0.00071463259 0.00054951517 -1.5372646e-21)
(-0.00075374908 0.00057619622 -4.9020842e-23)
(-0.00079238727 0.00060030184 -2.1764726e-21)
(-0.00082989166 0.00062105072 3.3620097e-22)
(-0.0016992705 -3.0222491e-07 -8.5112645e-24)
(-0.0016568304 -3.0590492e-07 8.8075844e-24)
(-0.0016147341 -3.0897977e-07 8.1591064e-25)
(-0.0015730482 -3.1169446e-07 -8.026866e-24)
(-0.0015317427 -3.150046e-07 4.4519445e-24)
(-0.0014908846 -3.1775146e-07 -4.9018743e-24)
(-0.0014504149 -3.2118481e-07 7.2294213e-24)
(-0.0014104242 -3.2355269e-07 -1.850209e-24)
(-0.0013708354 -3.2634273e-07 -3.6303575e-24)
(-0.0013317761 -3.2827533e-07 1.1664726e-24)
(-0.0012931304 -3.3093465e-07 4.7095049e-24)
(-0.0012550685 -3.3313291e-07 -5.4630617e-24)
(-0.0012174138 -3.3580159e-07 4.7780594e-24)
(-0.0011803953 -3.3809196e-07 -5.2180961e-24)
(-0.0011437605 -3.4031751e-07 2.6772856e-24)
(-0.0011078268 -3.422949e-07 3.0576209e-24)
(-0.001072251 -3.4403309e-07 4.9596646e-24)
(-0.0010374612 -3.4566803e-07 -5.6803041e-24)
(-0.0010029839 -3.4706702e-07 -3.9072076e-24)
(-0.00096940084 -3.4815973e-07 5.0293709e-24)
(-0.00093606136 -3.4894785e-07 -1.0707792e-23)
(-0.00090376158 -3.4906549e-07 9.9676582e-24)
(-0.00087161154 -3.49258e-07 -5.9114648e-24)
(-0.00084070021 -3.4831397e-07 5.1499213e-24)
(-0.00080981609 -3.4796462e-07 -5.9899092e-24)
(-0.00078042865 -3.4577343e-07 -4.1251009e-24)
(-0.0007509072 -3.4515705e-07 3.2670366e-24)
(-0.00072323199 -3.4185528e-07 -4.1765333e-24)
(-0.00069521741 -3.4147049e-07 1.0757673e-23)
(-0.00066951505 -3.3778959e-07 -6.5380853e-24)
(-0.00064318865 -3.3830549e-07 5.7271933e-24)
(-0.00061978542 -3.3360542e-07 -9.8105694e-24)
(-0.00059539399 -3.3398688e-07 9.1874329e-25)
(-0.00057475569 -3.2729959e-07 3.3999895e-24)
(-0.00055266745 -3.2730751e-07 3.8164259e-24)
(-0.00053544674 -3.1791918e-07 -1.45547e-23)
(-0.00051621515 -3.1805038e-07 8.4930005e-17)
(-0.00050332062 -3.0606899e-07 8.5436372e-17)
(-0.00048773909 -3.0648112e-07 -4.3424291e-24)
(-0.00048038151 -2.9053195e-07 -6.4627342e-24)
(-0.00046959326 -2.9074868e-07 5.638759e-24)
(-0.00046932444 -2.7010944e-07 1.025323e-24)
(-0.00046488342 -2.7096386e-07 -1.8657172e-24)
(-0.00047337203 -2.471126e-07 -8.7618488e-17)
(-0.00047545715 -2.5686929e-07 -8.8126873e-17)
(-0.00048910949 -5.824742e-06 -1.5781057e-20)
(-0.00049977594 -2.5738823e-05 1.6374729e-19)
(-0.00050369039 -4.6383986e-05 7.4290014e-20)
(-0.00051051846 -6.7617203e-05 -4.8168791e-19)
(-0.00050300533 -8.6688794e-05 -8.0183133e-20)
(-0.00049769188 -0.00010544335 -5.3671917e-19)
(-0.00047930122 -0.00012020178 3.5889992e-20)
(-0.00046158878 -0.00013350431 -5.6008934e-21)
(-0.00043272969 -0.0001414765 1.9898329e-19)
(-0.00040292009 -0.00014667491 -1.5644757e-19)
(-0.00036355254 -0.0001454953 5.0995347e-19)
(-0.00032172161 -0.00014011671 -3.4749183e-19)
(-0.00027121606 -0.00012733415 -9.445781e-20)
(-0.00021666855 -0.00010873722 -1.7358019e-19)
(-0.0001532795 -8.1352973e-05 9.8653482e-19)
(-8.3616633e-05 -4.5872844e-05 2.1601481e-19)
(-2.469736e-06 1.2864132e-06 -8.429926e-19)
(8.5763577e-05 5.7663978e-05 -9.2551328e-19)
(0.00018451944 0.00012534647 -1.4796893e-19)
(0.00029084226 0.00020221993 7.1321613e-20)
(0.00040746812 0.00028987527 -9.9557622e-19)
(0.00053210062 0.00038631443 -6.6503779e-20)
(0.00066692777 0.00049264654 -1.8100622e-19)
(0.00080965923 0.00060656548 -1.1866038e-18)
(0.00096174894 0.00072848648 1.8013702e-19)
(0.0011202633 0.0008553711 9.7492827e-19)
(0.0012853799 0.00098640267 7.0692991e-19)
(0.0014507328 0.0011159352 -2.64768e-19)
(0.0016092915 0.0012404825 -1.311373e-19)
(0.0017640119 0.0013640027 -1.2161143e-19)
(0.001916779 0.0014882756 2.4816442e-19)
(0.0020653682 0.0016118339 8.7197235e-19)
(0.0022144342 0.0017385614 -9.4759624e-19)
(0.0023386654 0.0018485529 2.5398736e-19)
(0.0024708145 0.0019681295 2.6325149e-20)
(0.0026166438 0.0021024718 2.3943468e-19)
(0.0027799023 0.0022547457 1.4167138e-19)
(0.0029647336 0.0024291949 -6.6410915e-20)
(0.0031697186 0.0026254189 3.3468849e-19)
(0.0034097138 0.0028567927 -4.0018833e-20)
(0.0036950859 0.0031307395 -6.9778678e-19)
(0.0040760718 0.0034759691 -1.6679837e-20)
(0.0045025278 0.0038387257 -4.5278807e-19)
(0.0050220473 0.0042538684 4.2079278e-19)
(0.0055910679 0.0046728853 3.459187e-20)
(0.0062956802 0.005156014 5.1164449e-20)
(0.0070670095 0.0056259747 -1.1850378e-19)
(0.00805752 0.0061831741 7.1403603e-20)
(0.009150025 0.0066953412 4.7114841e-20)
(0.010614904 0.0073110823 -1.7398583e-20)
(0.012199143 0.0077691228 1.3112178e-19)
(0.014233585 0.0081981247 -9.5864939e-20)
(0.016104131 0.0081229167 -3.5266782e-19)
(0.018039127 0.0076174355 -4.2457316e-19)
(0.018246894 0.006076558 -8.3614493e-20)
(0.017342664 0.0043518197 1.2655897e-19)
(0.014869848 0.002657471 -1.5881149e-19)
(0.012667094 0.0014917207 -9.7565959e-20)
(0.0093044643 0.00063730912 -2.071918e-20)
(0.007793406 0.00024461339 -3.0792461e-20)
(0.0047917499 3.406481e-05 -1.8674022e-20)
(0.0050743606 -2.7848945e-05 -1.0723746e-20)
(0.0024499021 -1.116924e-05 -1.8345226e-21)
(0.016291821 6.0428766e-05 1.4365153e-21)
(0.012499525 5.1398761e-05 3.6609316e-21)
(0.020374425 -0.00013642956 -3.9957504e-21)
(0.016168574 -0.0004912696 3.4921722e-20)
(0.017800696 -0.0011898661 5.0926951e-22)
(0.010425396 -0.0011862043 6.0357807e-20)
(0.0068213285 -0.001186314 -2.5202694e-20)
(-0.0014978163 0.00041645645 4.7844311e-20)
(-0.0044958666 0.001519748 3.7390917e-20)
(-0.0068995979 0.0029388584 -3.2859658e-20)
(-0.0057509642 0.0029159273 -1.0254303e-20)
(-0.0050983635 0.0029544427 3.3007295e-21)
(-0.0037854189 0.0024234751 7.7035901e-20)
(-0.0033311984 0.0023107301 1.1818791e-20)
(-0.002725256 0.002008115 -3.2137446e-20)
(-0.0025567888 0.0019775474 1.4781679e-20)
(-0.0022464615 0.0018015799 -8.3409539e-21)
(-0.0021642175 0.0017860482 -3.1752417e-21)
(-0.0019779541 0.001664775 -8.7032575e-21)
(-0.0018940304 0.0016155021 2.3945039e-21)
(-0.0017510549 0.0015024994 -3.3000563e-21)
(-0.001667298 0.0014305993 2.7281763e-21)
(-0.0015583713 0.0013279178 3.1747769e-21)
(-0.0015084458 0.0012708502 6.6970474e-21)
(-0.0014551993 0.0012116179 -1.7632199e-21)
(-0.0014350554 0.0011818745 -2.3017526e-21)
(-0.0014176061 0.0011555033 -3.1627246e-21)
(-0.0014259814 0.0011514026 1.5297444e-21)
(-0.0014425412 0.0011546513 6.6486238e-22)
(-0.001482012 0.001177 3.4003258e-21)
(-0.0015340021 0.0012097722 -5.5977795e-21)
(-0.0016069201 0.0012595725 -3.5453291e-21)
(-0.0016941933 0.0013210645 -6.8336823e-22)
(-0.0017997584 0.0013973767 -1.3925144e-21)
(-0.0019168217 0.0014832424 -4.1483817e-23)
(-0.0020429825 0.0015769982 4.6054326e-21)
(-0.00216346 0.0016651373 3.6412261e-21)
(-0.0022810777 0.0017456341 1.4835641e-22)
(-0.002397227 0.0018183178 2.1439978e-21)
(-0.0025099831 0.0018808288 1.68031e-22)
(-0.0050754886 -1.2663694e-06 3.1222579e-24)
(-0.0049477833 -1.2572875e-06 -7.3476179e-24)
(-0.0048211204 -1.2476925e-06 9.227816e-24)
(-0.0046956827 -1.237638e-06 1.2489378e-24)
(-0.0045713825 -1.2273545e-06 -8.2052078e-24)
(-0.0044484204 -1.2170358e-06 1.4556407e-23)
(-0.004326638 -1.2063631e-06 -1.0734836e-23)
(-0.0042063007 -1.1947997e-06 1.4265941e-24)
(-0.0040871808 -1.1831338e-06 1.991669e-24)
(-0.0039696489 -1.1707991e-06 -1.0203688e-23)
(-0.0038533617 -1.1586222e-06 1.1380663e-23)
(-0.0037388192 -1.1457911e-06 2.2317997e-24)
(-0.0036255064 -1.1336233e-06 -5.8040308e-24)
(-0.0035141018 -1.1203876e-06 -5.8931204e-24)
(-0.0034038692 -1.1077458e-06 -1.1404277e-23)
(-0.003295741 -1.0933495e-06 2.0753094e-23)
(-0.0031887097 -1.0800108e-06 1.4460193e-23)
(-0.0030840342 -1.0645536e-06 -3.1328926e-23)
(-0.0029803265 -1.0504399e-06 3.1222845e-23)
(-0.0028792996 -1.0333433e-06 -9.3039045e-24)
(-0.002779044 -1.0179807e-06 -1.4492835e-23)
(-0.0026819022 -9.9884286e-07 -1.1955453e-23)
(-0.002585258 -9.8194499e-07 -4.7403545e-25)
(-0.0024923156 -9.6034208e-07 2.7067355e-23)
(-0.0023995099 -9.4192015e-07 -2.0054951e-23)
(-0.0023111687 -9.1751144e-07 1.2621195e-23)
(-0.0022224929 -8.9716494e-07 -2.0153694e-23)
(-0.0021393139 -8.6922725e-07 2.2437238e-23)
(-0.0020551878 -8.4719881e-07 -1.2400957e-23)
(-0.0019779344 -8.1552019e-07 7.4022888e-24)
(-0.0018989074 -7.9143444e-07 2.4884775e-24)
(-0.0018285809 -7.5360759e-07 -1.2615806e-23)
(-0.0017554199 -7.2533174e-07 1.3125116e-23)
(-0.0016934298 -6.7849724e-07 -1.8319529e-25)
(-0.0016272563 -6.4404415e-07 5.1038518e-24)
(-0.0015755685 -5.8428559e-07 -2.3857981e-23)
(-0.0015180481 -5.4087926e-07 1.6130228e-23)
(-0.001479384 -4.6370721e-07 5.164995e-24)
(-0.0014329121 -4.084791e-07 -2.4208194e-23)
(-0.001410919 -3.0701138e-07 2.3852559e-23)
(-0.0013789405 -2.3597284e-07 1.6526999e-23)
(-0.0013782653 -1.0275847e-07 -2.4462214e-23)
(-0.0013654363 -1.6349121e-08 1.9279495e-23)
(-0.0013910712 1.3143431e-07 -2.7351475e-23)
(-0.0013981365 1.5954711e-07 -2.9053866e-23)
(-0.0014398989 -1.6275146e-05 4.1213689e-20)
(-0.0014721899 -7.5596679e-05 1.7942413e-20)
(-0.0014836202 -0.00013701873 8.6759257e-21)
(-0.0015032089 -0.00020021695 5.7574678e-19)
(-0.0014800361 -0.0002569305 2.8760451e-19)
(-0.001463066 -0.0003125765 1.323347e-18)
(-0.0014071105 -0.00035624465 1.1696323e-18)
(-0.0013529176 -0.00039540641 -3.0407103e-19)
(-0.0012654548 -0.00041858334 -3.7829622e-19)
(-0.0011749466 -0.00043330575 8.353107e-20)
(-0.0010558505 -0.00042888618 -2.7038093e-19)
(-0.00092921763 -0.00041174744 2.1687043e-19)
(-0.00077662695 -0.00037236993 -2.4145849e-19)
(-0.00061186047 -0.00031543592 -1.0728111e-19)
(-0.00042069353 -0.00023209179 -7.8502276e-19)
(-0.00021067961 -0.00012436092 1.8389879e-18)
(3.3423556e-05 1.8423857e-05 6.9821446e-19)
(0.00029861186 0.00018886532 4.5351502e-20)
(0.00059504579 0.00039322471 -4.7982034e-19)
(0.00091397864 0.00062514408 -5.637772e-19)
(0.0012634998 0.00088938303 1.1983656e-18)
(0.0016368139 0.0011799566 -2.1698387e-18)
(0.0020403984 0.001500144 4.8382142e-19)
(0.0024674581 0.0018430759 -2.3992583e-19)
(0.0029222889 0.0022099206 3.9300084e-19)
(0.0033962852 0.0025916424 -8.9543373e-19)
(0.0038898511 0.0029856961 -2.5458563e-19)
(0.0043841668 0.0033753292 -5.7689231e-19)
(0.0048587266 0.0037503376 3.6695459e-19)
(0.0053221505 0.0041224321 -7.9539054e-19)
(0.0057797445 0.0044968423 -4.3508515e-19)
(0.0062251073 0.0048693728 -7.7972294e-19)
(0.0066705119 0.0052508798 3.8896255e-20)
(0.0070380459 0.0055804128 9.3733539e-19)
(0.0074318587 0.0059399105 -3.6148947e-19)
(0.0078679938 0.0063443685 4.2178379e-19)
(0.0083559751 0.0068027777 -2.6882109e-19)
(0.0089077292 0.007327629 -1.3109491e-18)
(0.0095193273 0.0079179873 2.4384547e-19)
(0.010234526 0.0086134764 1.4759394e-19)
(0.01108438 0.0094365892 1.240522e-18)
(0.012215064 0.010470683 -2.1613333e-19)
(0.013481795 0.011558291 2.2198755e-19)
(0.015023497 0.012800605 -3.7284741e-20)
(0.016714265 0.014055988 -1.3242497e-19)
(0.018803175 0.015498953 -3.5743979e-19)
(0.021093529 0.016904743 4.9872825e-20)
(0.024027521 0.01856407 -6.4551188e-20)
(0.027269906 0.020092231 7.3409533e-20)
(0.031608157 0.021918573 6.10623e-21)
(0.036314186 0.023281114 -1.5968712e-19)
(0.04232566 0.024537135 2.455455e-19)
(0.047870499 0.024302799 9.4779658e-20)
(0.053586092 0.022773044 5.1276977e-19)
(0.054343047 0.018212194 -2.6422712e-19)
(0.05186047 0.013091132 2.6591313e-19)
(0.044779175 0.0080518296 -1.2421732e-19)
(0.038328667 0.0045504388 -3.6071716e-19)
(0.028477901 0.0019790672 -9.1712193e-20)
(0.023904065 0.00077710634 8.6502764e-21)
(0.015038947 0.00012502635 2.9657496e-20)
(0.015695542 -7.0568994e-05 5.6055108e-21)
(0.0081808793 -3.5685396e-05 6.6611105e-21)
(0.02761407 8.5865489e-05 1.3451019e-21)
(0.021777252 7.1976076e-05 -1.2540538e-21)
(0.034365135 -0.00024179322 -4.2779815e-22)
(0.027609515 -0.00083028331 -1.7578092e-20)
(0.030125663 -0.001987518 5.1749192e-20)
(0.018063426 -0.0020133394 -4.0255812e-20)
(0.011943637 -0.0020231776 2.5012526e-20)
(-0.0019356481 0.0006042763 -1.0171622e-19)
(-0.0072179423 0.0024729205 5.1656666e-20)
(-0.011408293 0.0048691945 1.3427517e-21)
(-0.0096060682 0.0048674509 1.4411509e-20)
(-0.0085426628 0.0049424907 -1.7833226e-20)
(-0.0063687961 0.004071188 -7.6592677e-20)
(-0.0056044753 0.0038827557 2.3095917e-20)
(-0.0045930804 0.0033816898 3.4494677e-20)
(-0.0043064424 0.0033285247 -3.9501476e-21)
(-0.0037877755 0.0030363959 3.4632525e-21)
(-0.0036471814 0.0030086859 6.7704168e-21)
(-0.0033358677 0.0028067526 1.8607292e-20)
(-0.0031939997 0.0027232459 -9.8167498e-21)
(-0.0029549995 0.0025345975 -9.3545812e-21)
(-0.0028142124 0.0024136594 -1.556289e-21)
(-0.0026322106 0.0022421709 3.6854271e-21)
(-0.0025483016 0.0021462899 -7.4096683e-21)
(-0.0024595837 0.0020474296 1.9268388e-22)
(-0.002426092 0.0019977199 -2.7443267e-21)
(-0.002397562 0.0019540925 2.3945478e-21)
(-0.0024121863 0.0019476643 1.451286e-21)
(-0.0024408303 0.001953849 7.366079e-23)
(-0.0025078 0.0019919894 1.6147619e-21)
(-0.0025959364 0.002047786 -6.3470173e-22)
(-0.0027190755 0.0021320743 -5.9367828e-22)
(-0.0028663287 0.0022360308 -2.4112675e-21)
(-0.0030440954 0.0023647121 9.9943634e-23)
(-0.0032410482 0.0025093316 -5.6195222e-21)
(-0.0034531078 0.0026669575 -4.1443011e-21)
(-0.0036557721 0.0028151939 -8.3109857e-22)
(-0.0038535776 0.0029505297 2.208621e-22)
(-0.0040488576 0.0030726228 3.006247e-22)
(-0.0042384237 0.0031775491 -7.480079e-22)
(-0.0084787529 -3.5910362e-06 -1.349672e-23)
(-0.0082640673 -3.5605749e-06 6.2002519e-24)
(-0.0080511432 -3.5283295e-06 -2.5978394e-24)
(-0.0078402723 -3.4944182e-06 -4.8059433e-24)
(-0.0076313136 -3.4601821e-06 2.6310744e-24)
(-0.0074245984 -3.4246382e-06 9.7300561e-24)
(-0.0072198781 -3.388938e-06 -1.0893103e-23)
(-0.0070175876 -3.351009e-06 8.7967305e-24)
(-0.006817356 -3.3127085e-06 3.9234499e-24)
(-0.006619786 -3.2722204e-06 -2.7062021e-24)
(-0.0064243175 -3.231881e-06 -1.4085141e-23)
(-0.0062317675 -3.1899747e-06 1.8173328e-23)
(-0.0060412995 -3.1483202e-06 -1.998952e-23)
(-0.0058540258 -3.1050892e-06 1.6097148e-23)
(-0.0056687493 -3.0619451e-06 -1.8582361e-23)
(-0.0054869942 -3.016593e-06 1.6322112e-23)
(-0.0053071162 -2.9711378e-06 1.6558361e-23)
(-0.0051311752 -2.9232799e-06 -3.0735333e-23)
(-0.0049569056 -2.8755365e-06 2.2656154e-23)
(-0.0047871124 -2.8248609e-06 -2.765924e-23)
(-0.0046186759 -2.7741078e-06 3.2089484e-23)
(-0.0044554327 -2.7192672e-06 -2.5516533e-23)
(-0.0042931024 -2.6645829e-06 4.2474873e-24)
(-0.0041369361 -2.6042652e-06 2.6618613e-23)
(-0.0039810947 -2.5449915e-06 -1.5434694e-23)
(-0.0038326772 -2.4782337e-06 1.0657207e-23)
(-0.0036838186 -2.4131085e-06 -2.6310295e-23)
(-0.0035440887 -2.3374079e-06 2.4658288e-23)
(-0.0034029137 -2.2648997e-06 -3.364524e-23)
(-0.0032731403 -2.1790839e-06 2.8662778e-23)
(-0.0031405804 -2.0974946e-06 -2.6941918e-23)
(-0.003022458 -1.9963598e-06 2.0655856e-23)
(-0.0028998245 -1.8998053e-06 -1.8888423e-23)
(-0.002795725 -1.7763766e-06 7.1600911e-24)
(-0.0026849185 -1.658205e-06 1.8354685e-23)
(-0.0025981434 -1.5026356e-06 -2.76349e-23)
(-0.0025019705 -1.3543251e-06 3.5105661e-23)
(-0.0024370785 -1.1547166e-06 -2.3219692e-23)
(-0.0023595763 -9.6547213e-07 1.1336649e-23)
(-0.0023226893 -7.0346714e-07 -3.2939203e-24)
(-0.0022696522 -4.6108708e-07 -6.0664393e-24)
(-0.0022685528 -1.1667712e-07 -1.6981031e-23)
(-0.0022477854 1.8021151e-07 1.8990806e-23)
(-0.0022908221 5.5661022e-07 2.1932194e-23)
(-0.002303834 7.0071011e-07 -2.8077949e-23)
(-0.0023747365 -2.6240399e-05 -4.2156807e-20)
(-0.0024291281 -0.00012441435 -2.8175079e-19)
(-0.0024479496 -0.00022591524 -2.6879943e-20)
(-0.0024795187 -0.00033040978 -2.2295695e-19)
(-0.0024400275 -0.00042405693 -3.9855211e-19)
(-0.0024102406 -0.00051571993 -8.6446692e-19)
(-0.0023156572 -0.00058738961 -9.9828301e-20)
(-0.0022235412 -0.00065128829 1.0890164e-18)
(-0.0020760522 -0.00068849063 -1.42605e-19)
(-0.0019231294 -0.00071132759 -1.698493e-19)
(-0.001722531 -0.00070216614 -8.9955953e-19)
(-0.0015090727 -0.00067153015 -6.1282284e-19)
(-0.0012522602 -0.00060369396 -1.0709398e-18)
(-0.00097490657 -0.00050631652 -4.7282218e-19)
(-0.00065343382 -0.00036474881 -4.8168575e-19)
(-0.0003002411 -0.0001822449 -8.3850838e-19)
(0.00010978144 5.8742802e-05 -1.2763033e-18)
(0.00055508672 0.00034605208 -3.4918972e-20)
(0.0010525329 0.00068992385 1.773444e-18)
(0.0015876118 0.0010799201 5.0563601e-19)
(0.0021737216 0.0015237899 -6.2594835e-19)
(0.0027996083 0.0020116974 2.1963518e-18)
(0.0034759699 0.0025489295 -1.7485367e-19)
(0.0041915593 0.0031241651 2.6564106e-20)
(0.0049534124 0.003739185 -1.1296214e-18)
(0.0057473346 0.004379064 9.9211795e-19)
(0.0065737744 0.005039383 -4.8084485e-19)
(0.0074015248 0.0056924979 -4.2816732e-19)
(0.0081969414 0.0063217772 -7.5237446e-19)
(0.008974143 0.0069464294 8.3717072e-19)
(0.0097416369 0.0075750591 3.4837181e-20)
(0.010489118 0.0082010076 -1.2346954e-18)
(0.011234802 0.0088411679 4.1307601e-20)
(0.011845509 0.0093903454 -1.0531313e-18)
(0.012504038 0.0099919927 -5.0662133e-19)
(0.013235111 0.010670068 -1.3962784e-18)
(0.01405291 0.011438561 1.2566782e-18)
(0.014976763 0.012317789 2.8315615e-19)
(0.016000684 0.013306665 -1.0141467e-18)
(0.017197004 0.014470304 8.6275212e-21)
(0.018618345 0.015846708 -5.0203279e-19)
(0.020503231 0.017570042 -3.8113272e-21)
(0.022616836 0.019384767 -4.2284846e-19)
(0.025185659 0.021452983 -3.1311665e-19)
(0.028006202 0.023545834 2.381101e-19)
(0.031482409 0.025942354 4.3942773e-19)
(0.035299278 0.028281375 -4.3870229e-19)
(0.040174472 0.031027773 2.1496328e-20)
(0.0455717 0.033562855 1.330141e-20)
(0.052771192 0.036572479 1.1587964e-20)
(0.060602008 0.038828474 1.5988226e-19)
(0.070547765 0.040869606 -9.015241e-20)
(0.079750916 0.040467838 -3.7233574e-19)
(0.089177649 0.037890739 -4.2214908e-19)
(0.090618668 0.030395189 -2.1854186e-19)
(0.086739604 0.021940581 -5.4899446e-19)
(0.075346442 0.01360762 3.6855667e-19)
(0.064718947 0.0077461303 1.267123e-19)
(0.048573794 0.003433567 2.2105092e-19)
(0.040799114 0.0013768919 -8.2756903e-21)
(0.026192043 0.00025077182 1.4399008e-20)
(0.026948208 -9.611805e-05 1.759484e-21)
(0.014800785 -6.3890942e-05 9.2140837e-21)
(0.039415517 9.925e-05 9.320101e-22)
(0.031780072 8.1653299e-05 -2.2005691e-21)
(0.048694378 -0.00036006942 -6.123761e-21)
(0.039648834 -0.0011796496 -1.0579439e-20)
(0.042836495 -0.0027899516 -2.0981451e-20)
(0.026302638 -0.002873546 -1.1925298e-20)
(0.017541922 -0.0029019093 -2.7663308e-20)
(-0.0018951042 0.00071057975 6.4633366e-20)
(-0.0097185537 0.0033714656 -1.6116594e-19)
(-0.015848601 0.0067724521 1.2228434e-20)
(-0.013490155 0.0068242252 -6.7816697e-21)
(-0.012031894 0.0069454004 2.8537123e-20)
(-0.0090094855 0.0057462877 3.8687755e-20)
(-0.0079264995 0.0054819117 -1.384681e-20)
(-0.0065085118 0.0047855544 -1.9580227e-20)
(-0.0060975941 0.0047078912 1.2176748e-20)
(-0.0053695466 0.004300733 2.4262143e-20)
(-0.005167015 0.004259246 1.7858949e-20)
(-0.0047299311 0.0039768602 -1.1364153e-20)
(-0.0045280289 0.003857902 -1.5560128e-21)
(-0.004192318 0.0035933669 1.2047771e-20)
(-0.003993151 0.0034224378 1.2005282e-21)
(-0.0037375838 0.0031818832 -1.4921466e-21)
(-0.0036188775 0.0030465549 -1.397736e-21)
(-0.0034946299 0.0029079906 -1.7085965e-21)
(-0.0034477247 0.0028382303 7.7221526e-21)
(-0.0034085389 0.00277767 -1.967966e-21)
(-0.0034299055 0.0027693049 -9.647232e-22)
(-0.0034715138 0.002779137 -3.5105307e-22)
(-0.0035669771 0.0028338842 -2.3109527e-21)
(-0.0036925645 0.0029137685 3.4318884e-21)
(-0.0038673463 0.0030337036 -2.4212993e-21)
(-0.0040762091 0.0031814389 3.7109065e-21)
(-0.0043278533 0.0033638183 -4.4031889e-22)
(-0.0046064395 0.0035685273 5.4019654e-21)
(-0.0049060907 0.0037912179 3.2091571e-21)
(-0.005192707 0.0040007094 -4.3182982e-21)
(-0.0054723852 0.0041918943 3.5695906e-21)
(-0.0057483981 0.004364211 -7.1942783e-22)
(-0.006016329 0.0045121685 -3.0477534e-22)
(-0.011904497 -7.4230712e-06 -9.3317422e-24)
(-0.011601126 -7.3610945e-06 8.3110995e-24)
(-0.011300256 -7.2954125e-06 -1.0308072e-27)
(-0.011002284 -7.2265169e-06 -1.5635395e-23)
(-0.010707022 -7.1558302e-06 1.3832446e-23)
(-0.010414924 -7.0827429e-06 -5.6179454e-24)
(-0.010125661 -7.0086697e-06 8.710145e-24)
(-0.009839827 -6.9307587e-06 -8.296939e-24)
(-0.0095569207 -6.851301e-06 6.4371476e-24)
(-0.0092777643 -6.7684655e-06 -2.3048928e-23)
(-0.0090015972 -6.6844281e-06 3.6239963e-23)
(-0.0087295355 -6.5979398e-06 -3.8351272e-23)
(-0.0084604428 -6.5106513e-06 4.7897394e-24)
(-0.0081958417 -6.4211842e-06 2.0131882e-23)
(-0.0079341023 -6.3300887e-06 -7.0604454e-24)
(-0.0076773094 -6.2361407e-06 5.0396528e-24)
(-0.0074232198 -6.1405416e-06 -2.4330565e-23)
(-0.0071746528 -6.0421034e-06 2.0473336e-23)
(-0.0069285146 -5.9414345e-06 2.0758482e-23)
(-0.0066886477 -5.8375809e-06 -2.4724574e-23)
(-0.0064507868 -5.7308647e-06 7.2279103e-24)
(-0.0062201909 -5.6198558e-06 -5.530955e-26)
(-0.0059910005 -5.5050806e-06 -3.9463924e-24)
(-0.0057704197 -5.3845305e-06 5.3194208e-24)
(-0.005550446 -5.2600209e-06 -7.3407218e-24)
(-0.0053408282 -5.1273322e-06 2.3774561e-23)
(-0.0051307774 -4.9897015e-06 -2.607097e-23)
(-0.0049334461 -4.8407251e-06 3.5325921e-24)
(-0.0047343127 -4.6861185e-06 -8.8331656e-26)
(-0.004551052 -4.5168171e-06 -2.2305339e-24)
(-0.0043641654 -4.3401674e-06 2.444301e-23)
(-0.0041973736 -4.1416759e-06 -2.6576858e-23)
(-0.0040246087 -3.9317122e-06 2.0572854e-23)
(-0.0038776339 -3.6910336e-06 -1.7276054e-23)
(-0.0037216956 -3.4336323e-06 -9.5780443e-26)
(-0.0035991935 -3.1319765e-06 2.3106643e-23)
(-0.0034640613 -2.8084395e-06 -2.7257747e-23)
(-0.003372452 -2.4220548e-06 2.3066029e-23)
(-0.0032638438 -2.0089172e-06 -2.5538034e-23)
(-0.0032117535 -1.5024735e-06 2.3510208e-23)
(-0.0031378595 -9.7429801e-07 5.6323018e-24)
(-0.0031362451 -3.0862033e-07 -9.9715752e-24)
(-0.0031080649 3.3918514e-07 5.9064637e-24)
(-0.0031686605 1.0613317e-06 -2.6110954e-23)
(-0.0031886848 1.4167453e-06 -3.9242629e-23)
(-0.003289732 -3.562425e-05 2.0516362e-20)
(-0.0033666579 -0.00017195963 7.4412071e-20)
(-0.0033927289 -0.00031270861 9.7654092e-20)
(-0.0034353299 -0.00045767574 1.4731644e-19)
(-0.0033788559 -0.000587412 2.5823929e-19)
(-0.0033349402 -0.0007140517 4.6491777e-19)
(-0.0032006572 -0.00081267337 -6.8196656e-19)
(-0.0030690564 -0.00090001931 -6.7021517e-19)
(-0.0028601164 -0.00094992785 8.2703703e-20)
(-0.0026429917 -0.00097931938 3.4737813e-19)
(-0.0023591445 -0.00096379013 1.2279685e-19)
(-0.0020568301 -0.00091779634 2.1027452e-19)
(-0.0016937282 -0.00081953757 -7.4099584e-19)
(-0.0013014576 -0.00067951596 8.9239619e-19)
(-0.00084723626 -0.00047738208 1.8088827e-18)
(-0.0003480999 -0.00021752681 -9.0709332e-19)
(0.00023065931 0.00012429737 2.4187914e-18)
(0.00085916644 0.00053127571 1.0887718e-18)
(0.0015607933 0.0010175027 -9.8431767e-19)
(0.00231545 0.0015685611 1.112896e-18)
(0.0031416595 0.0021950549 6.1445712e-19)
(0.004023866 0.0028833976 -9.6987297e-19)
(0.0049768107 0.0036407398 4.3844331e-19)
(0.0059849353 0.0044514178 1.469029e-18)
(0.0070578453 0.0053176812 2.19307e-18)
(0.0081758902 0.0062188398 -1.1658277e-18)
(0.0093393378 0.0071484577 1.1271033e-18)
(0.010504741 0.0080682622 -5.1119791e-22)
(0.011625724 0.0089554989 -1.5634664e-19)
(0.012721631 0.0098365805 -3.2008579e-19)
(0.013803959 0.010723398 4.1758758e-19)
(0.014858855 0.011607148 8.1589246e-19)
(0.015908651 0.012509664 1.343628e-19)
(0.016761434 0.013278082 1.2613753e-18)
(0.017687441 0.014123913 5.1307277e-19)
(0.018717804 0.015078903 -6.1485102e-19)
(0.019870297 0.016161181 -4.4863853e-19)
(0.021171056 0.017398419 1.0446142e-18)
(0.022612706 0.018789809 8.4503983e-19)
(0.024295477 0.020425069 7.5426146e-19)
(0.026294692 0.022358111 4.1895112e-19)
(0.028936412 0.024769751 -1.1986969e-19)
(0.031902431 0.027312593 4.4151047e-19)
(0.03550088 0.0302038 -5.1226116e-19)
(0.039457794 0.033133602 -3.6929095e-19)
(0.04432056 0.03647508 -8.5647584e-20)
(0.049669487 0.039742584 8.3126268e-19)
(0.056477573 0.043557778 -2.6959893e-19)
(0.06403106 0.047087735 -6.793649e-20)
(0.07406976 0.051249401 -9.2214552e-21)
(0.085024714 0.054384812 6.3318488e-20)
(0.098847184 0.057164781 -8.2462722e-20)
(0.11169037 0.056586238 3.5025095e-19)
(0.1247414 0.052940743 4.8230294e-19)
(0.12702026 0.042605412 3.4401088e-19)
(0.12193593 0.030890593 -2.4407204e-19)
(0.10656785 0.019324088 -5.2913819e-19)
(0.091835852 0.011082764 -1.3193974e-19)
(0.069637497 0.0050070027 -2.3894665e-19)
(0.058501898 0.0020502083 -5.126309e-20)
(0.0383255 0.00041468412 -1.2236451e-20)
(0.038850938 -0.00010124996 4.2420669e-22)
(0.02232893 -9.5633154e-05 -1.6764963e-20)
(0.051727092 0.00010157763 -6.4708999e-22)
(0.042552507 8.137365e-05 3.0895029e-21)
(0.063377531 -0.00049119546 9.7030775e-21)
(0.052314356 -0.0015395071 1.1700716e-22)
(0.055948928 -0.0035980329 2.1289676e-20)
(0.035176693 -0.003768133 6.7612434e-20)
(0.023649985 -0.0038242605 3.221432e-21)
(-0.0013299394 0.00073279466 -4.2087678e-20)
(-0.011966363 0.0042133137 -3.1350591e-21)
(-0.020201794 0.0086477508 -1.1085702e-20)
(-0.017395184 0.0087859377 -1.8650908e-20)
(-0.015561182 0.0089633349 -1.3564204e-20)
(-0.011706118 0.0074492612 -3.0835884e-20)
(-0.010296165 0.00710885 -1.5077301e-20)
(-0.0084714606 0.0062204583 -3.610546e-22)
(-0.0079298999 0.0061164206 1.5484388e-21)
(-0.0069918981 0.0055953894 -4.1887782e-20)
(-0.0067236319 0.0055385204 -4.3635036e-21)
(-0.0061603143 0.0051758964 3.7052735e-21)
(-0.0058962273 0.0050202614 1.2527633e-20)
(-0.0054633219 0.0046795997 6.9762927e-22)
(-0.0052044594 0.004457721 6.6446259e-21)
(-0.0048750247 0.0041478406 -3.0385418e-21)
(-0.0047207572 0.0039724245 5.198031e-21)
(-0.0045610471 0.0037940817 1.7013235e-21)
(-0.0045007254 0.0037041922 -6.7589628e-21)
(-0.0044514139 0.0036270354 -1.0836728e-21)
(-0.0044800827 0.0036171405 -1.655998e-21)
(-0.0045356246 0.0036313549 -2.9212456e-22)
(-0.0046606371 0.00370355 -8.8440659e-22)
(-0.0048250482 0.0038086162 3.3841105e-21)
(-0.005052938 0.0039653892 1.5908629e-21)
(-0.0053250768 0.0041582513 -2.8973701e-21)
(-0.0056522808 0.0043956896 6.7137512e-22)
(-0.0060142318 0.004661853 -1.3951074e-21)
(-0.0064031226 0.0049508298 -3.833736e-21)
(-0.0067754183 0.0052227608 -7.999303e-23)
(-0.0071386139 0.0054708264 -4.8459588e-21)
(-0.0074969206 0.0056941995 -2.5228105e-21)
(-0.0078447272 0.0058858217 1.695968e-21)
(-0.015347646 -1.2727634e-05 -1.3128847e-23)
(-0.0149539 -1.2621067e-05 1.324851e-23)
(-0.014563416 -1.2508457e-05 -4.560944e-24)
(-0.01417669 -1.2390536e-05 -4.6482788e-24)
(-0.013793495 -1.2269074e-05 5.6008992e-24)
(-0.013414401 -1.214368e-05 -4.7252765e-24)
(-0.013039007 -1.2015406e-05 8.0791377e-24)
(-0.012668057 -1.1881807e-05 5.8299976e-24)
(-0.012300931 -1.174486e-05 -2.6599715e-23)
(-0.011938657 -1.1602861e-05 1.6972929e-23)
(-0.011580291 -1.1457769e-05 -1.906324e-23)
(-0.01122723 -1.1309144e-05 6.2749462e-24)
(-0.010878062 -1.1157501e-05 1.7422345e-23)
(-0.010534692 -1.1003316e-05 -2.9547154e-24)
(-0.010195089 -1.0845382e-05 -1.6737973e-23)
(-0.0098618649 -1.0683978e-05 6.5101585e-24)
(-0.0095322179 -1.0517808e-05 1.798207e-23)
(-0.0092096821 -1.0348964e-05 -2.0017767e-23)
(-0.0088903885 -1.0174229e-05 1.822157e-23)
(-0.0085791583 -9.9965703e-06 -2.8909761e-23)
(-0.0082706506 -9.8110967e-06 1.8398465e-23)
(-0.007971469 -9.622167e-06 1.5589927e-23)
(-0.0076742672 -9.4228621e-06 -3.3515531e-26)
(-0.0073881001 -9.2187399e-06 -2.9633227e-23)
(-0.0071029215 -9.0022857e-06 1.8904563e-23)
(-0.0068309986 -8.778886e-06 1.600626e-23)
(-0.0065587725 -8.5391963e-06 -1.8014857e-23)
(-0.0063028092 -8.2892311e-06 1.0306112e-23)
(-0.006044837 -8.018405e-06 -3.2419399e-24)
(-0.0058071417 -7.7347641e-06 -1.1043484e-23)
(-0.0055651669 -7.4235433e-06 -1.8546654e-23)
(-0.0053488523 -7.0918946e-06 -3.4720738e-24)
(-0.005125333 -6.7208986e-06 1.9731178e-23)
(-0.0049347369 -6.320093e-06 -1.1347865e-23)
(-0.0047332081 -5.8648929e-06 1.9977337e-23)