/*--------------------------------*- C++ -*----------------------------------*\
| =========                 |                                                 |
| \\      /  F ield         | OpenFOAM: The Open Source CFD Toolbox           |
|  \\    /   O peration     | Version:  2.4.0                                 |
|   \\  /    A nd           | Web:      www.OpenFOAM.org                      |
|    \\/     M anipulation  |                                                 |
\*---------------------------------------------------------------------------*/
FoamFile
{
    version     2.0;
    format      ascii;
    class       volVectorField;
    location    "0";
    object      U;
}
// * * * * * * * * * * * * * * * * * * * * * * * * * * * * * * * * * * * * * //

dimensions      [0 1 -1 0 0 0 0];

internalField   uniform (0.001 0 0);

boundaryField
{
    inlet
    {
        type            cyclic;
    }
    outlet
    {
        type            cyclic;
    }
    top
    {
        type            fixedValue;
        value           uniform (0 0 0);
    }
    hills
    {
        type            fixedValue;
        value           nonuniform 0();
    }
    front
    {
        type            empty;
    }
    back
    {
        type            empty;
    }
    procBoundary5to0
    {
        type            processor;
        value           uniform (0.001 0 0);
    }
    procBoundary5to1
    {
        type            processor;
        value           uniform (0.001 0 0);
    }
    procBoundary5to4
    {
        type            processor;
        value           uniform (0.001 0 0);
    }
    procBoundary5to4throughoutlet
    {
        type            processorCyclic;
        value           uniform (0.001 0 0);
    }
    procBoundary5to7
    {
        type            processor;
        value           uniform (0.001 0 0);
    }
}


// ************************************************************************* //
