/*--------------------------------*- C++ -*----------------------------------*\
  =========                 |
  \\      /  F ield         | OpenFOAM: The Open Source CFD Toolbox
   \\    /   O peration     | Website:  https://openfoam.org
    \\  /    A nd           | Version:  7
     \\/     M anipulation  |
\*---------------------------------------------------------------------------*/
FoamFile
{
    version     2.0;
    format      ascii;
    class       volScalarField;
    location    "25000";
    object      k;
}
// * * * * * * * * * * * * * * * * * * * * * * * * * * * * * * * * * * * * * //

dimensions      [0 2 -2 0 0 0 0];

internalField   nonuniform List<scalar> 
4917
(
1.24977e-09
1.25267e-09
1.25531e-09
1.25762e-09
1.25964e-09
1.26122e-09
1.26258e-09
1.26325e-09
1.26333e-09
1.26284e-09
1.26037e-09
1.25756e-09
1.25142e-09
1.24243e-09
1.23194e-09
4.17125e-08
4.17153e-08
4.17072e-08
4.16867e-08
4.16558e-08
4.16096e-08
4.15565e-08
4.14809e-08
4.13878e-08
4.12801e-08
4.11145e-08
4.09472e-08
4.06853e-08
4.03509e-08
3.99935e-08
3.30919e-07
3.29042e-07
3.27028e-07
3.24897e-07
3.22652e-07
3.20323e-07
3.17886e-07
3.15416e-07
3.12797e-07
3.10106e-07
3.07409e-07
3.04435e-07
3.01663e-07
2.98478e-07
2.95181e-07
2.92196e-07
1.24044e-06
1.22742e-06
1.21387e-06
1.19991e-06
1.18546e-06
1.17074e-06
1.15577e-06
1.14078e-06
1.12552e-06
1.11027e-06
1.09534e-06
1.08017e-06
1.06619e-06
1.05191e-06
1.03872e-06
1.02781e-06
2.72223e-06
2.69029e-06
2.65737e-06
2.62368e-06
2.58924e-06
2.55441e-06
2.51926e-06
2.48419e-06
2.44889e-06
2.41393e-06
2.37992e-06
2.3463e-06
2.31542e-06
2.28535e-06
2.25894e-06
2.23826e-06
4.14461e-06
4.1014e-06
4.05705e-06
4.01178e-06
3.9657e-06
3.9192e-06
3.8724e-06
3.82572e-06
3.77892e-06
3.7327e-06
3.68775e-06
3.64378e-06
3.60329e-06
3.56467e-06
3.53162e-06
3.50655e-06
5.20633e-06
5.15936e-06
5.11133e-06
5.06245e-06
5.01285e-06
4.96292e-06
4.91278e-06
4.86283e-06
4.8129e-06
4.76369e-06
4.71587e-06
4.66935e-06
4.6265e-06
4.58618e-06
4.55266e-06
4.5288e-06
5.92681e-06
5.88124e-06
5.83491e-06
5.78802e-06
5.74067e-06
5.69322e-06
5.64577e-06
5.59867e-06
5.55179e-06
5.50576e-06
5.46113e-06
5.41793e-06
5.37821e-06
5.3412e-06
5.31096e-06
5.2899e-06
6.38073e-06
6.33964e-06
6.29821e-06
6.2566e-06
6.21489e-06
6.17337e-06
6.1321e-06
6.0914e-06
6.05114e-06
6.01185e-06
5.97393e-06
5.93749e-06
5.90419e-06
5.87354e-06
5.84911e-06
5.83276e-06
6.64743e-06
6.61259e-06
6.57788e-06
6.54343e-06
6.50925e-06
6.47552e-06
6.44228e-06
6.40978e-06
6.37793e-06
6.34714e-06
6.31768e-06
6.2897e-06
6.26451e-06
6.24182e-06
6.22463e-06
6.21434e-06
6.79155e-06
6.76399e-06
6.73695e-06
6.71054e-06
6.6847e-06
6.65957e-06
6.63509e-06
6.61149e-06
6.58868e-06
6.56699e-06
6.54658e-06
6.52762e-06
6.51115e-06
6.49698e-06
6.48761e-06
6.48405e-06
6.85949e-06
6.83967e-06
6.82064e-06
6.80249e-06
6.78516e-06
6.7687e-06
6.75302e-06
6.73829e-06
6.72444e-06
6.71174e-06
6.70025e-06
6.69016e-06
6.68228e-06
6.67644e-06
6.67474e-06
6.67789e-06
6.88257e-06
6.8704e-06
6.85919e-06
6.84901e-06
6.83977e-06
6.83151e-06
6.82406e-06
6.8176e-06
6.81205e-06
6.80767e-06
6.80446e-06
6.80255e-06
6.80263e-06
6.80446e-06
6.80996e-06
6.81968e-06
6.87971e-06
6.87456e-06
6.87047e-06
6.8675e-06
6.86555e-06
6.86465e-06
6.86469e-06
6.86579e-06
6.86783e-06
6.87102e-06
6.87533e-06
6.88086e-06
6.88809e-06
6.89687e-06
6.9087e-06
6.92405e-06
6.86158e-06
6.86277e-06
6.86508e-06
6.86853e-06
6.87303e-06
6.87859e-06
6.88512e-06
6.89271e-06
6.90127e-06
6.91094e-06
6.92167e-06
6.93351e-06
6.94682e-06
6.96145e-06
6.97858e-06
6.99855e-06
6.82874e-06
6.83404e-06
6.84058e-06
6.84826e-06
6.8571e-06
6.86701e-06
6.87799e-06
6.88996e-06
6.90301e-06
6.91702e-06
6.93212e-06
6.9482e-06
6.96531e-06
6.98364e-06
7.00306e-06
7.02446e-06
7.04803e-06
6.79024e-06
6.7999e-06
6.81081e-06
6.82287e-06
6.8361e-06
6.8504e-06
6.86579e-06
6.8822e-06
6.89967e-06
6.91812e-06
6.9376e-06
6.95801e-06
6.97935e-06
7.00169e-06
7.0249e-06
7.04956e-06
7.07569e-06
6.74805e-06
6.76111e-06
6.77541e-06
6.79087e-06
6.80749e-06
6.82521e-06
6.84401e-06
6.86385e-06
6.88474e-06
6.90661e-06
6.92949e-06
6.95324e-06
6.97781e-06
7.00318e-06
7.02917e-06
7.0561e-06
7.0838e-06
6.70366e-06
6.71917e-06
6.73589e-06
6.75377e-06
6.77281e-06
6.79296e-06
6.8142e-06
6.83648e-06
6.85982e-06
6.88413e-06
6.90941e-06
6.93553e-06
6.96237e-06
6.98981e-06
7.01762e-06
7.04587e-06
7.07419e-06
6.65841e-06
6.67541e-06
6.6936e-06
6.71295e-06
6.73345e-06
6.75506e-06
6.77777e-06
6.80154e-06
6.82634e-06
6.85213e-06
6.87888e-06
6.9064e-06
6.93457e-06
6.96315e-06
6.99187e-06
7.02053e-06
7.0486e-06
6.61372e-06
6.63129e-06
6.65001e-06
6.66987e-06
6.69089e-06
6.71302e-06
6.73625e-06
6.76054e-06
6.78587e-06
6.8122e-06
6.83946e-06
6.86748e-06
6.89605e-06
6.92489e-06
6.95361e-06
6.98185e-06
7.00886e-06
6.57117e-06
6.5884e-06
6.60675e-06
6.62622e-06
6.64682e-06
6.66854e-06
6.69136e-06
6.71524e-06
6.74018e-06
6.76611e-06
6.79298e-06
6.82058e-06
6.84867e-06
6.87689e-06
6.90481e-06
6.93185e-06
6.95709e-06
6.53256e-06
6.54859e-06
6.5657e-06
6.5839e-06
6.6032e-06
6.6236e-06
6.6451e-06
6.66767e-06
6.69131e-06
6.71595e-06
6.74153e-06
6.76783e-06
6.79459e-06
6.82138e-06
6.8477e-06
6.87285e-06
6.89573e-06
6.49987e-06
6.51392e-06
6.52897e-06
6.54505e-06
6.5622e-06
6.58043e-06
6.59975e-06
6.62014e-06
6.6416e-06
6.66408e-06
6.68751e-06
6.71167e-06
6.73627e-06
6.76085e-06
6.78487e-06
6.80751e-06
6.82754e-06
6.46472e-06
6.47522e-06
6.48655e-06
6.49878e-06
6.51198e-06
6.52619e-06
6.54145e-06
6.55777e-06
6.57515e-06
6.59361e-06
6.61311e-06
6.63356e-06
6.65477e-06
6.67644e-06
6.6981e-06
6.71916e-06
6.73876e-06
6.75556e-06
6.45347e-06
6.46073e-06
6.46869e-06
6.47744e-06
6.48706e-06
6.49762e-06
6.50916e-06
6.52173e-06
6.53536e-06
6.55005e-06
6.56578e-06
6.5825e-06
6.60001e-06
6.61802e-06
6.6361e-06
6.65363e-06
6.66972e-06
6.68301e-06
6.45493e-06
6.45842e-06
6.46246e-06
6.46715e-06
6.47259e-06
6.47886e-06
6.48605e-06
6.49421e-06
6.50339e-06
6.51362e-06
6.52489e-06
6.53717e-06
6.5503e-06
6.56402e-06
6.57792e-06
6.59141e-06
6.60361e-06
6.6132e-06
6.47082e-06
6.47012e-06
6.46979e-06
6.46995e-06
6.4707e-06
6.47217e-06
6.47445e-06
6.47763e-06
6.48177e-06
6.48694e-06
6.49314e-06
6.50037e-06
6.50852e-06
6.51738e-06
6.52659e-06
6.53561e-06
6.54362e-06
6.54939e-06
6.50258e-06
6.49738e-06
6.49234e-06
6.48759e-06
6.48326e-06
6.4795e-06
6.47643e-06
6.47416e-06
6.47279e-06
6.47239e-06
6.47301e-06
6.47468e-06
6.47734e-06
6.48085e-06
6.48494e-06
6.48914e-06
6.49273e-06
6.49463e-06
6.55133e-06
6.54139e-06
6.53139e-06
6.52147e-06
6.51177e-06
6.50247e-06
6.49371e-06
6.48564e-06
6.47838e-06
6.47203e-06
6.46667e-06
6.46236e-06
6.45912e-06
6.4569e-06
6.45552e-06
6.45463e-06
6.45364e-06
6.45167e-06
6.6322e-06
6.61782e-06
6.60301e-06
6.58789e-06
6.57262e-06
6.55736e-06
6.54231e-06
6.52763e-06
6.51351e-06
6.50009e-06
6.48751e-06
6.47587e-06
6.46527e-06
6.45584e-06
6.4476e-06
6.44051e-06
6.43434e-06
6.42867e-06
6.42288e-06
6.72158e-06
6.70251e-06
6.68275e-06
6.66243e-06
6.64172e-06
6.62079e-06
6.59985e-06
6.57912e-06
6.5588e-06
6.53906e-06
6.52006e-06
6.50194e-06
6.48487e-06
6.46904e-06
6.45459e-06
6.44161e-06
6.43005e-06
6.41966e-06
6.41014e-06
6.82932e-06
6.80554e-06
6.78082e-06
6.75528e-06
6.72909e-06
6.70245e-06
6.67558e-06
6.64873e-06
6.62214e-06
6.59599e-06
6.57049e-06
6.5458e-06
6.52213e-06
6.49979e-06
6.47902e-06
6.46009e-06
6.44309e-06
6.428e-06
6.41485e-06
6.95534e-06
6.92687e-06
6.89719e-06
6.86644e-06
6.83479e-06
6.80244e-06
6.76964e-06
6.73667e-06
6.7038e-06
6.67124e-06
6.63921e-06
6.60792e-06
6.57764e-06
6.54875e-06
6.52164e-06
6.49673e-06
6.47431e-06
6.45458e-06
6.43794e-06
7.0994e-06
7.06627e-06
7.03167e-06
6.99574e-06
6.95865e-06
6.92063e-06
6.88194e-06
6.84289e-06
6.80377e-06
6.76484e-06
6.72632e-06
6.68847e-06
6.65159e-06
6.61619e-06
6.58278e-06
6.55194e-06
6.52416e-06
6.49989e-06
6.47988e-06
7.29712e-06
7.26118e-06
7.22341e-06
7.18392e-06
7.14285e-06
7.10037e-06
7.05672e-06
7.01219e-06
6.96711e-06
6.92181e-06
6.87657e-06
6.83163e-06
6.78729e-06
6.7439e-06
6.70205e-06
6.66242e-06
6.62574e-06
6.59271e-06
6.56401e-06
6.5408e-06
7.48063e-06
7.44032e-06
7.39793e-06
7.35358e-06
7.30739e-06
7.25955e-06
7.21031e-06
7.15998e-06
7.10894e-06
7.05753e-06
7.00605e-06
6.95478e-06
6.90404e-06
6.85423e-06
6.80605e-06
6.7603e-06
6.7179e-06
6.67974e-06
6.64676e-06
6.6205e-06
7.68117e-06
7.63648e-06
7.58946e-06
7.54024e-06
7.48895e-06
7.43576e-06
7.38094e-06
7.32486e-06
7.26789e-06
7.21042e-06
7.15279e-06
7.09527e-06
7.03823e-06
6.9821e-06
6.9277e-06
6.87596e-06
6.82797e-06
6.78483e-06
6.74771e-06
6.71856e-06
7.89847e-06
7.84935e-06
7.79768e-06
7.74356e-06
7.68713e-06
7.62857e-06
7.56817e-06
7.50633e-06
7.44345e-06
7.37997e-06
7.31623e-06
7.25254e-06
7.18928e-06
7.12694e-06
7.06643e-06
7.00883e-06
6.95538e-06
6.9074e-06
6.86629e-06
6.83439e-06
8.13231e-06
8.07871e-06
8.02231e-06
7.96322e-06
7.90158e-06
7.8376e-06
7.77157e-06
7.70393e-06
7.63513e-06
7.56563e-06
7.49581e-06
7.42599e-06
7.35658e-06
7.28811e-06
7.22159e-06
7.15824e-06
7.09947e-06
7.04679e-06
7.00182e-06
6.96731e-06
8.43765e-06
8.38258e-06
8.32438e-06
8.26315e-06
8.19898e-06
8.13204e-06
8.06253e-06
7.99078e-06
7.91726e-06
7.84247e-06
7.76692e-06
7.691e-06
7.61506e-06
7.53953e-06
7.46498e-06
7.39253e-06
7.32352e-06
7.25954e-06
7.20229e-06
7.1536e-06
7.11661e-06
8.70878e-06
8.64923e-06
8.58632e-06
8.52011e-06
8.45072e-06
8.37831e-06
8.30312e-06
8.22551e-06
8.14598e-06
8.0651e-06
7.9834e-06
7.90132e-06
7.81922e-06
7.73756e-06
7.65695e-06
7.57861e-06
7.50401e-06
7.43492e-06
7.3732e-06
7.32091e-06
7.28155e-06
8.99651e-06
8.93235e-06
8.86454e-06
8.79317e-06
8.71837e-06
8.6403e-06
8.55923e-06
8.47555e-06
8.38984e-06
8.30268e-06
8.2147e-06
8.12634e-06
8.038e-06
7.95015e-06
7.86346e-06
7.77923e-06
7.69909e-06
7.62494e-06
7.55885e-06
7.50305e-06
7.46143e-06
9.36597e-06
9.30104e-06
9.23208e-06
9.15918e-06
9.08244e-06
9.00198e-06
8.91801e-06
8.8308e-06
8.74081e-06
8.64866e-06
8.55501e-06
8.46054e-06
8.36573e-06
8.27101e-06
8.17687e-06
8.08402e-06
7.99387e-06
7.90818e-06
7.82901e-06
7.7586e-06
7.69937e-06
7.65557e-06
9.69222e-06
9.62263e-06
9.54868e-06
9.47046e-06
9.38809e-06
9.30171e-06
9.21154e-06
9.1179e-06
9.02128e-06
8.92239e-06
8.82196e-06
8.72073e-06
8.61924e-06
8.51794e-06
8.41733e-06
8.3182e-06
8.22204e-06
8.13076e-06
8.04657e-06
7.97188e-06
7.90928e-06
7.86336e-06
1.00361e-05
9.96163e-06
9.88247e-06
9.7987e-06
9.71041e-06
9.6178e-06
9.5211e-06
9.42066e-06
9.31705e-06
9.21105e-06
9.10349e-06
8.99518e-06
8.8867e-06
8.77855e-06
8.67127e-06
8.56566e-06
8.46336e-06
8.3664e-06
8.27715e-06
8.19817e-06
8.13223e-06
8.08424e-06
1.0472e-05
1.03979e-05
1.03185e-05
1.02339e-05
1.01443e-05
1.00498e-05
9.95059e-06
9.84698e-06
9.73934e-06
9.62832e-06
9.51479e-06
9.39967e-06
9.28387e-06
9.16805e-06
9.05271e-06
8.93846e-06
8.82614e-06
8.7175e-06
8.61472e-06
8.52033e-06
8.43703e-06
8.36775e-06
8.31773e-06
1.0857e-05
1.07782e-05
1.06936e-05
1.06033e-05
1.05077e-05
1.04066e-05
1.03005e-05
1.01896e-05
1.00743e-05
9.95539e-06
9.83382e-06
9.71066e-06
9.58692e-06
9.46331e-06
9.34039e-06
9.21879e-06
9.09945e-06
8.98422e-06
8.87543e-06
8.77577e-06
8.68808e-06
8.61543e-06
8.5634e-06
1.1261e-05
1.11774e-05
1.10875e-05
1.09914e-05
1.08894e-05
1.07815e-05
1.0668e-05
1.05494e-05
1.04259e-05
1.02986e-05
1.01685e-05
1.00367e-05
9.90451e-06
9.77259e-06
9.64161e-06
9.51225e-06
9.3855e-06
9.26335e-06
9.14831e-06
9.0432e-06
8.951e-06
8.87493e-06
8.82087e-06
1.17657e-05
1.16845e-05
1.15961e-05
1.15007e-05
1.13986e-05
1.129e-05
1.11749e-05
1.10538e-05
1.09269e-05
1.07948e-05
1.06585e-05
1.05192e-05
1.03783e-05
1.02369e-05
1.00961e-05
9.95651e-06
9.81888e-06
9.68427e-06
9.55482e-06
9.43321e-06
9.32242e-06
9.22556e-06
9.14596e-06
9.08983e-06
1.22132e-05
1.21279e-05
1.20346e-05
1.19337e-05
1.18255e-05
1.171e-05
1.15875e-05
1.14583e-05
1.13227e-05
1.11815e-05
1.10356e-05
1.08865e-05
1.07356e-05
1.05845e-05
1.04342e-05
1.02853e-05
1.01388e-05
9.99582e-06
9.85861e-06
9.73006e-06
9.61329e-06
9.51157e-06
9.42831e-06
9.37005e-06
1.26808e-05
1.25914e-05
1.24934e-05
1.2387e-05
1.22725e-05
1.21501e-05
1.20199e-05
1.18822e-05
1.17375e-05
1.15866e-05
1.14305e-05
1.12709e-05
1.11094e-05
1.09478e-05
1.07872e-05
1.06284e-05
1.04723e-05
1.03203e-05
1.01748e-05
1.00388e-05
9.91576e-06
9.80891e-06
9.72183e-06
9.66133e-06
1.32519e-05
1.31684e-05
1.30753e-05
1.29727e-05
1.28609e-05
1.27402e-05
1.26107e-05
1.24726e-05
1.23262e-05
1.2172e-05
1.20108e-05
1.18439e-05
1.16731e-05
1.15003e-05
1.13273e-05
1.11556e-05
1.0986e-05
1.08197e-05
1.0658e-05
1.05035e-05
1.03597e-05
1.02298e-05
1.01175e-05
1.00264e-05
9.96354e-06
1.37621e-05
1.3676e-05
1.35795e-05
1.34726e-05
1.33556e-05
1.32288e-05
1.30923e-05
1.29461e-05
1.27908e-05
1.26267e-05
1.24548e-05
1.22765e-05
1.20937e-05
1.19088e-05
1.17237e-05
1.154e-05
1.13588e-05
1.11814e-05
1.10091e-05
1.08451e-05
1.06927e-05
1.05556e-05
1.04375e-05
1.0342e-05
1.02766e-05
1.42915e-05
1.42034e-05
1.41039e-05
1.39931e-05
1.38713e-05
1.37386e-05
1.35951e-05
1.3441e-05
1.32765e-05
1.31023e-05
1.29192e-05
1.27289e-05
1.25335e-05
1.23356e-05
1.21375e-05
1.1941e-05
1.17473e-05
1.15578e-05
1.13742e-05
1.11997e-05
1.10381e-05
1.08932e-05
1.07689e-05
1.06687e-05
1.06006e-05
1.49164e-05
1.48391e-05
1.47497e-05
1.46479e-05
1.45339e-05
1.44076e-05
1.42695e-05
1.41193e-05
1.39573e-05
1.37838e-05
1.35992e-05
1.34047e-05
1.32019e-05
1.29933e-05
1.27816e-05
1.25696e-05
1.23593e-05
1.21521e-05
1.19496e-05
1.17537e-05
1.15679e-05
1.13963e-05
1.1243e-05
1.11118e-05
1.10066e-05
1.09355e-05
1.54808e-05
1.5404e-05
1.5314e-05
1.52108e-05
1.50941e-05
1.49642e-05
1.48211e-05
1.46648e-05
1.44952e-05
1.43128e-05
1.41179e-05
1.39117e-05
1.3696e-05
1.34735e-05
1.32474e-05
1.30207e-05
1.27956e-05
1.25739e-05
1.23573e-05
1.21481e-05
1.195e-05
1.17676e-05
1.16051e-05
1.14666e-05
1.1356e-05
1.12814e-05
1.61216e-05
1.60597e-05
1.59843e-05
1.58949e-05
1.57912e-05
1.56729e-05
1.55401e-05
1.53928e-05
1.5231e-05
1.50544e-05
1.48634e-05
1.46584e-05
1.44405e-05
1.42117e-05
1.39749e-05
1.37337e-05
1.34914e-05
1.32506e-05
1.30134e-05
1.27817e-05
1.25581e-05
1.23467e-05
1.21525e-05
1.19801e-05
1.18336e-05
1.17169e-05
1.16387e-05
1.67094e-05
1.66509e-05
1.65781e-05
1.64904e-05
1.63873e-05
1.62685e-05
1.61339e-05
1.59835e-05
1.58171e-05
1.56343e-05
1.54353e-05
1.52206e-05
1.49912e-05
1.47492e-05
1.44979e-05
1.4241e-05
1.39825e-05
1.37251e-05
1.34713e-05
1.32235e-05
1.29843e-05
1.27586e-05
1.25516e-05
1.23684e-05
1.22132e-05
1.209e-05
1.20077e-05
1.73055e-05
1.72516e-05
1.71827e-05
1.7098e-05
1.69969e-05
1.6879e-05
1.6744e-05
1.65917e-05
1.64217e-05
1.62338e-05
1.60278e-05
1.58041e-05
1.55636e-05
1.53087e-05
1.50427e-05
1.47699e-05
1.44944e-05
1.42197e-05
1.39485e-05
1.36834e-05
1.34275e-05
1.31863e-05
1.29656e-05
1.27706e-05
1.2606e-05
1.24755e-05
1.23887e-05
1.79399e-05
1.79064e-05
1.78584e-05
1.77948e-05
1.77147e-05
1.76171e-05
1.75016e-05
1.73676e-05
1.7215e-05
1.70431e-05
1.68513e-05
1.66395e-05
1.64078e-05
1.61572e-05
1.58898e-05
1.56094e-05
1.53204e-05
1.50277e-05
1.4735e-05
1.44454e-05
1.4162e-05
1.38885e-05
1.36307e-05
1.3395e-05
1.31873e-05
1.30124e-05
1.28741e-05
1.27822e-05
1.85345e-05
1.85084e-05
1.84676e-05
1.84107e-05
1.83366e-05
1.82443e-05
1.81329e-05
1.80019e-05
1.78507e-05
1.76786e-05
1.74847e-05
1.72687e-05
1.70305e-05
1.67708e-05
1.64918e-05
1.61975e-05
1.58926e-05
1.55825e-05
1.52714e-05
1.49627e-05
1.46602e-05
1.43678e-05
1.40923e-05
1.38406e-05
1.36193e-05
1.34332e-05
1.32864e-05
1.31889e-05
1.91293e-05
1.91248e-05
1.91072e-05
1.90747e-05
1.9026e-05
1.89596e-05
1.88743e-05
1.8769e-05
1.86429e-05
1.84952e-05
1.8325e-05
1.81311e-05
1.79129e-05
1.767e-05
1.74028e-05
1.71136e-05
1.68063e-05
1.64861e-05
1.61588e-05
1.5829e-05
1.55008e-05
1.51783e-05
1.48662e-05
1.45718e-05
1.43032e-05
1.40672e-05
1.38691e-05
1.3713e-05
1.36095e-05
1.97028e-05
1.97069e-05
1.96983e-05
1.96753e-05
1.96361e-05
1.95789e-05
1.95024e-05
1.94052e-05
1.92861e-05
1.91442e-05
1.89781e-05
1.87866e-05
1.85686e-05
1.83233e-05
1.80509e-05
1.77534e-05
1.74346e-05
1.71001e-05
1.6756e-05
1.64077e-05
1.60597e-05
1.57168e-05
1.53841e-05
1.507e-05
1.47834e-05
1.45317e-05
1.43208e-05
1.41547e-05
1.40447e-05
2.0241e-05
2.02637e-05
2.02764e-05
2.02773e-05
2.02645e-05
2.02359e-05
2.01895e-05
2.01234e-05
2.00362e-05
1.99263e-05
1.97925e-05
1.96331e-05
1.94467e-05
1.92315e-05
1.89867e-05
1.87117e-05
1.84083e-05
1.80802e-05
1.77329e-05
1.73733e-05
1.70071e-05
1.66395e-05
1.62757e-05
1.59219e-05
1.55874e-05
1.52818e-05
1.50137e-05
1.47891e-05
1.46124e-05
1.44952e-05
2.07791e-05
2.08085e-05
2.08293e-05
2.08396e-05
2.08373e-05
2.08201e-05
2.07857e-05
2.07319e-05
2.06566e-05
2.05581e-05
2.04348e-05
2.02847e-05
2.0106e-05
1.98968e-05
1.96553e-05
1.93808e-05
1.90745e-05
1.87398e-05
1.83823e-05
1.80089e-05
1.7626e-05
1.72394e-05
1.6855e-05
1.64798e-05
1.61242e-05
1.5799e-05
1.55136e-05
1.52747e-05
1.50867e-05
1.49621e-05
2.12602e-05
2.12997e-05
2.1334e-05
2.13617e-05
2.13806e-05
2.13886e-05
2.13832e-05
2.13618e-05
2.13218e-05
2.12605e-05
2.11757e-05
2.10653e-05
2.09273e-05
2.07593e-05
2.0559e-05
2.03242e-05
2.00535e-05
1.97476e-05
1.94096e-05
1.90444e-05
1.86598e-05
1.82623e-05
1.78582e-05
1.7454e-05
1.70575e-05
1.66806e-05
1.63353e-05
1.60321e-05
1.57782e-05
1.55784e-05
1.5446e-05
2.17622e-05
2.18018e-05
2.18386e-05
2.18709e-05
2.18967e-05
2.1914e-05
2.192e-05
2.19119e-05
2.18866e-05
2.1841e-05
2.17724e-05
2.16779e-05
2.15549e-05
2.14006e-05
2.12126e-05
2.09881e-05
2.07248e-05
2.04227e-05
2.00848e-05
1.97162e-05
1.93238e-05
1.89144e-05
1.84946e-05
1.80717e-05
1.76547e-05
1.72565e-05
1.68909e-05
1.65694e-05
1.63001e-05
1.60882e-05
1.59477e-05
2.22519e-05
2.22877e-05
2.2323e-05
2.23564e-05
2.23862e-05
2.24104e-05
2.24262e-05
2.24306e-05
2.24202e-05
2.23915e-05
2.23409e-05
2.22652e-05
2.21607e-05
2.20239e-05
2.18517e-05
2.16412e-05
2.13899e-05
2.10967e-05
2.07638e-05
2.0396e-05
1.99995e-05
1.95807e-05
1.91472e-05
1.87072e-05
1.82704e-05
1.78515e-05
1.74657e-05
1.71258e-05
1.68409e-05
1.66166e-05
1.6468e-05
2.27116e-05
2.27362e-05
2.2763e-05
2.27916e-05
2.28213e-05
2.28505e-05
2.28776e-05
2.29e-05
2.29147e-05
2.2918e-05
2.29059e-05
2.28743e-05
2.28193e-05
2.27364e-05
2.26215e-05
2.24704e-05
2.22792e-05
2.20451e-05
2.17662e-05
2.14433e-05
2.10801e-05
2.06828e-05
2.02581e-05
1.98137e-05
1.93585e-05
1.89034e-05
1.84647e-05
1.80592e-05
1.77012e-05
1.74007e-05
1.71639e-05
1.70073e-05
2.32209e-05
2.32281e-05
2.3239e-05
2.32539e-05
2.32728e-05
2.32949e-05
2.33191e-05
2.33431e-05
2.33639e-05
2.33777e-05
2.33803e-05
2.3367e-05
2.33336e-05
2.32751e-05
2.3186e-05
2.30611e-05
2.2895e-05
2.26834e-05
2.24236e-05
2.21155e-05
2.17619e-05
2.13686e-05
2.09422e-05
2.04905e-05
2.00232e-05
1.9552e-05
1.90949e-05
1.86706e-05
1.8295e-05
1.79793e-05
1.77304e-05
1.7566e-05
2.37829e-05
2.37623e-05
2.37449e-05
2.37321e-05
2.3725e-05
2.37245e-05
2.37309e-05
2.37438e-05
2.37615e-05
2.37817e-05
2.38008e-05
2.38141e-05
2.38174e-05
2.38053e-05
2.37722e-05
2.37112e-05
2.36156e-05
2.34788e-05
2.32949e-05
2.30599e-05
2.27725e-05
2.24345e-05
2.20509e-05
2.16281e-05
2.11739e-05
2.06981e-05
2.02137e-05
1.97404e-05
1.92987e-05
1.89065e-05
1.85763e-05
1.83157e-05
1.81441e-05
2.44043e-05
2.4354e-05
2.43054e-05
2.42612e-05
2.42234e-05
2.41939e-05
2.41744e-05
2.41656e-05
2.4167e-05
2.41772e-05
2.41935e-05
2.42116e-05
2.42268e-05
2.42331e-05
2.42237e-05
2.4191e-05
2.41266e-05
2.40227e-05
2.38715e-05
2.36673e-05
2.3407e-05
2.30912e-05
2.27238e-05
2.23107e-05
2.18593e-05
2.13797e-05
2.08858e-05
2.0399e-05
1.9942e-05
1.95346e-05
1.91909e-05
1.89195e-05
1.87414e-05
2.51763e-05
2.50971e-05
2.50142e-05
2.49298e-05
2.48471e-05
2.47694e-05
2.47007e-05
2.46439e-05
2.46014e-05
2.45746e-05
2.45633e-05
2.45659e-05
2.45791e-05
2.4598e-05
2.46163e-05
2.46267e-05
2.46204e-05
2.45881e-05
2.45198e-05
2.44059e-05
2.42383e-05
2.40117e-05
2.3725e-05
2.33808e-05
2.29841e-05
2.25418e-05
2.20639e-05
2.15649e-05
2.1068e-05
2.05983e-05
2.01777e-05
1.98219e-05
1.95408e-05
1.93574e-05
2.59822e-05
2.58743e-05
2.57585e-05
2.56364e-05
2.55109e-05
2.53866e-05
2.52685e-05
2.51621e-05
2.50724e-05
2.5003e-05
2.49558e-05
2.49307e-05
2.4926e-05
2.49371e-05
2.4958e-05
2.49812e-05
2.49972e-05
2.49956e-05
2.49643e-05
2.48912e-05
2.47656e-05
2.45794e-05
2.4329e-05
2.40153e-05
2.36422e-05
2.32159e-05
2.27459e-05
2.22472e-05
2.17443e-05
2.12651e-05
2.08337e-05
2.04678e-05
2.01786e-05
1.99912e-05
2.70032e-05
2.68797e-05
2.67455e-05
2.65986e-05
2.64392e-05
2.62704e-05
2.60961e-05
2.59218e-05
2.57552e-05
2.56042e-05
2.54761e-05
2.53759e-05
2.53061e-05
2.52668e-05
2.52551e-05
2.52657e-05
2.52912e-05
2.53222e-05
2.53469e-05
2.53514e-05
2.53213e-05
2.52422e-05
2.51026e-05
2.48959e-05
2.46204e-05
2.42786e-05
2.38758e-05
2.34207e-05
2.29283e-05
2.24244e-05
2.19395e-05
2.15003e-05
2.11266e-05
2.08312e-05
2.06415e-05
2.8014e-05
2.78699e-05
2.77135e-05
2.75401e-05
2.73472e-05
2.71378e-05
2.6914e-05
2.66817e-05
2.64486e-05
2.62251e-05
2.60223e-05
2.58504e-05
2.57161e-05
2.56225e-05
2.55689e-05
2.55521e-05
2.55654e-05
2.55998e-05
2.56427e-05
2.5679e-05
2.56913e-05
2.56617e-05
2.55745e-05
2.54185e-05
2.51891e-05
2.48866e-05
2.45151e-05
2.40826e-05
2.36034e-05
2.31042e-05
2.2618e-05
2.21747e-05
2.1796e-05
2.14966e-05
2.13066e-05
2.91147e-05
2.89504e-05
2.87732e-05
2.85775e-05
2.83583e-05
2.81157e-05
2.78484e-05
2.75616e-05
2.72616e-05
2.69601e-05
2.66709e-05
2.64098e-05
2.61898e-05
2.60192e-05
2.59013e-05
2.58356e-05
2.58173e-05
2.58387e-05
2.58874e-05
2.59473e-05
2.59985e-05
2.60193e-05
2.59886e-05
2.589e-05
2.57145e-05
2.54594e-05
2.51276e-05
2.47258e-05
2.42674e-05
2.37794e-05
2.3297e-05
2.28535e-05
2.24731e-05
2.21725e-05
2.19846e-05
3.04735e-05
3.03062e-05
3.01206e-05
2.99182e-05
2.96993e-05
2.94586e-05
2.91905e-05
2.88912e-05
2.85614e-05
2.82022e-05
2.78251e-05
2.74456e-05
2.70834e-05
2.67587e-05
2.64878e-05
2.62804e-05
2.61402e-05
2.60662e-05
2.60529e-05
2.60897e-05
2.61603e-05
2.62429e-05
2.63114e-05
2.63394e-05
2.63039e-05
2.61898e-05
2.59906e-05
2.57069e-05
2.53443e-05
2.4915e-05
2.44453e-05
2.39725e-05
2.35333e-05
2.3155e-05
2.28562e-05
2.26729e-05
3.1746e-05
3.15619e-05
3.13579e-05
3.11326e-05
3.08914e-05
3.06273e-05
3.03361e-05
3.00148e-05
2.9657e-05
2.92575e-05
2.88199e-05
2.8357e-05
2.78916e-05
2.7451e-05
2.70601e-05
2.67378e-05
2.64952e-05
2.63369e-05
2.62621e-05
2.62636e-05
2.63264e-05
2.64275e-05
2.65373e-05
2.66231e-05
2.66545e-05
2.66089e-05
2.64738e-05
2.62468e-05
2.5932e-05
2.55404e-05
2.50969e-05
2.46401e-05
2.42103e-05
2.38381e-05
2.35446e-05
2.33688e-05
3.32144e-05
3.30342e-05
3.28347e-05
3.26143e-05
3.23708e-05
3.21102e-05
3.18278e-05
3.1519e-05
3.1179e-05
3.08027e-05
3.03845e-05
2.99137e-05
2.9392e-05
2.88373e-05
2.82822e-05
2.77614e-05
2.73045e-05
2.69326e-05
2.66592e-05
2.64914e-05
2.64281e-05
2.64582e-05
2.65594e-05
2.66989e-05
2.68378e-05
2.69374e-05
2.69658e-05
2.6903e-05
2.67414e-05
2.64832e-05
2.61381e-05
2.57292e-05
2.52953e-05
2.48804e-05
2.45189e-05
2.42345e-05
2.40694e-05
3.44798e-05
3.42836e-05
3.40677e-05
3.38311e-05
3.35728e-05
3.32928e-05
3.29958e-05
3.26753e-05
3.23264e-05
3.19431e-05
3.15177e-05
3.1041e-05
3.04987e-05
2.98903e-05
2.92432e-05
2.86002e-05
2.80019e-05
2.74817e-05
2.70649e-05
2.67705e-05
2.66079e-05
2.65737e-05
2.66496e-05
2.68016e-05
2.69843e-05
2.71498e-05
2.72559e-05
2.72725e-05
2.7185e-05
2.69922e-05
2.67025e-05
2.6337e-05
2.59336e-05
2.55394e-05
2.51935e-05
2.49223e-05
2.47713e-05
3.58523e-05
3.56567e-05
3.54408e-05
3.52047e-05
3.49483e-05
3.46714e-05
3.43729e-05
3.40603e-05
3.37298e-05
3.33773e-05
3.29973e-05
3.25809e-05
3.21163e-05
3.1589e-05
3.09773e-05
3.02855e-05
2.9553e-05
2.88296e-05
2.81594e-05
2.75814e-05
2.71303e-05
2.68318e-05
2.6696e-05
2.6714e-05
2.68545e-05
2.70662e-05
2.72911e-05
2.74754e-05
2.75773e-05
2.75723e-05
2.74538e-05
2.72283e-05
2.69151e-05
2.65502e-05
2.61832e-05
2.58579e-05
2.56042e-05
2.54711e-05
3.69183e-05
3.66999e-05
3.64596e-05
3.61979e-05
3.59159e-05
3.56144e-05
3.52938e-05
3.49595e-05
3.46143e-05
3.42561e-05
3.38813e-05
3.34825e-05
3.30473e-05
3.25576e-05
3.19901e-05
3.13164e-05
3.05537e-05
2.97501e-05
2.89562e-05
2.82209e-05
2.75963e-05
2.71297e-05
2.68526e-05
2.67734e-05
2.68705e-05
2.70902e-05
2.73631e-05
2.76225e-05
2.78134e-05
2.78986e-05
2.78633e-05
2.77107e-05
2.74586e-05
2.71406e-05
2.68073e-05
2.6508e-05
2.62765e-05
2.6165e-05
3.78187e-05
3.75733e-05
3.73035e-05
3.70106e-05
3.66961e-05
3.63623e-05
3.60118e-05
3.56476e-05
3.52779e-05
3.49046e-05
3.45277e-05
3.41434e-05
3.37418e-05
3.33054e-05
3.28078e-05
3.22116e-05
3.14925e-05
3.06807e-05
2.9822e-05
2.89665e-05
2.81776e-05
2.75259e-05
2.70724e-05
2.68532e-05
2.68669e-05
2.70663e-05
2.73706e-05
2.76975e-05
2.79779e-05
2.81597e-05
2.82161e-05
2.81451e-05
2.79627e-05
2.77002e-05
2.74078e-05
2.71399e-05
2.69353e-05
2.68494e-05
3.87741e-05
3.85262e-05
3.82499e-05
3.79462e-05
3.76164e-05
3.72629e-05
3.68889e-05
3.64983e-05
3.60956e-05
3.56895e-05
3.5287e-05
3.48933e-05
3.45099e-05
3.41322e-05
3.37473e-05
3.33303e-05
3.28441e-05
3.22341e-05
3.14977e-05
3.06601e-05
2.97587e-05
2.88528e-05
2.80286e-05
2.73795e-05
2.69808e-05
2.6866e-05
2.70076e-05
2.73205e-05
2.7703e-05
2.80695e-05
2.8352e-05
2.85084e-05
2.85277e-05
2.84233e-05
2.82247e-05
2.79803e-05
2.77495e-05
2.75767e-05
2.75205e-05
3.93004e-05
3.90221e-05
3.87119e-05
3.83704e-05
3.79993e-05
3.76011e-05
3.71797e-05
3.67403e-05
3.62892e-05
3.58347e-05
3.53877e-05
3.49591e-05
3.45566e-05
3.41828e-05
3.38322e-05
3.34867e-05
3.31112e-05
3.265e-05
3.20597e-05
3.1337e-05
3.04917e-05
2.95577e-05
2.86159e-05
2.77832e-05
2.71808e-05
2.68931e-05
2.69314e-05
2.72222e-05
2.76437e-05
2.8089e-05
2.84733e-05
2.87367e-05
2.88549e-05
2.88365e-05
2.87099e-05
2.85212e-05
2.83331e-05
2.81969e-05
2.81745e-05
3.9608e-05
3.9297e-05
3.89502e-05
3.85681e-05
3.81521e-05
3.77049e-05
3.72305e-05
3.67348e-05
3.62257e-05
3.57125e-05
3.52067e-05
3.47247e-05
3.42807e-05
3.38856e-05
3.3543e-05
3.3245e-05
3.29652e-05
3.26549e-05
3.22439e-05
3.17096e-05
3.10263e-05
3.01831e-05
2.92246e-05
2.82659e-05
2.7466e-05
2.69732e-05
2.68598e-05
2.7088e-05
2.75262e-05
2.80391e-05
2.85226e-05
2.88982e-05
2.91235e-05
2.9199e-05
2.91522e-05
2.90266e-05
2.88871e-05
2.87922e-05
2.88079e-05
4.00015e-05
3.96953e-05
3.93499e-05
3.89647e-05
3.85399e-05
3.80767e-05
3.75774e-05
3.70462e-05
3.64891e-05
3.59144e-05
3.53335e-05
3.47572e-05
3.4205e-05
3.36977e-05
3.32537e-05
3.28874e-05
3.26037e-05
3.23889e-05
3.2203e-05
3.19773e-05
3.16629e-05
3.12207e-05
3.0589e-05
2.97483e-05
2.87716e-05
2.78269e-05
2.71235e-05
2.68168e-05
2.69333e-05
2.73585e-05
2.79241e-05
2.85008e-05
2.89907e-05
2.9331e-05
2.95082e-05
2.95484e-05
2.94932e-05
2.9408e-05
2.93592e-05
2.9417e-05
3.99059e-05
3.95679e-05
3.91871e-05
3.87626e-05
3.82943e-05
3.7783e-05
3.72307e-05
3.66411e-05
3.60198e-05
3.53754e-05
3.47195e-05
3.4065e-05
3.34296e-05
3.28393e-05
3.23195e-05
3.18953e-05
3.15861e-05
3.13947e-05
3.12959e-05
3.12297e-05
3.11355e-05
3.09674e-05
3.06364e-05
3.00511e-05
2.92035e-05
2.82209e-05
2.7345e-05
2.68236e-05
2.67787e-05
2.71506e-05
2.77497e-05
2.84103e-05
2.90137e-05
2.94751e-05
2.97618e-05
2.98958e-05
2.9918e-05
2.9893e-05
2.98946e-05
2.99984e-05
3.96074e-05
3.92374e-05
3.88213e-05
3.83581e-05
3.78471e-05
3.72888e-05
3.66848e-05
3.6038e-05
3.53535e-05
3.46393e-05
3.39065e-05
3.31701e-05
3.24439e-05
3.17565e-05
3.11375e-05
3.06208e-05
3.02416e-05
3.00223e-05
2.99567e-05
3e-05
3.00897e-05
3.0196e-05
3.0215e-05
2.99958e-05
2.94348e-05
2.85675e-05
2.76123e-05
2.6891e-05
2.66467e-05
2.69149e-05
2.75222e-05
2.82549e-05
2.89675e-05
2.95541e-05
2.99579e-05
3.01923e-05
3.02983e-05
3.03392e-05
3.03956e-05
3.05492e-05
3.94768e-05
3.91231e-05
3.87222e-05
3.82725e-05
3.77726e-05
3.72217e-05
3.66198e-05
3.5968e-05
3.52687e-05
3.45261e-05
3.37471e-05
3.2942e-05
3.21257e-05
3.13093e-05
3.05198e-05
2.97869e-05
2.91488e-05
2.86557e-05
2.83519e-05
2.82527e-05
2.83357e-05
2.8545e-05
2.88794e-05
2.92394e-05
2.94527e-05
2.93248e-05
2.87542e-05
2.78672e-05
2.70117e-05
2.65558e-05
2.66689e-05
2.72485e-05
2.80392e-05
2.88543e-05
2.95671e-05
3.00949e-05
3.04361e-05
3.06318e-05
3.07444e-05
3.08595e-05
3.10662e-05
3.88583e-05
3.84784e-05
3.80493e-05
3.75693e-05
3.70369e-05
3.64511e-05
3.58116e-05
3.5119e-05
3.4375e-05
3.35832e-05
3.27491e-05
3.18819e-05
3.09951e-05
3.00983e-05
2.92139e-05
2.83665e-05
2.75995e-05
2.69713e-05
2.65355e-05
2.63306e-05
2.63632e-05
2.65979e-05
2.70621e-05
2.76993e-05
2.83434e-05
2.87387e-05
2.86412e-05
2.80176e-05
2.71522e-05
2.65135e-05
2.64341e-05
2.69372e-05
2.7768e-05
2.86774e-05
2.95145e-05
3.01716e-05
3.06262e-05
3.0917e-05
3.11063e-05
3.12841e-05
3.15471e-05
3.81117e-05
3.77095e-05
3.72568e-05
3.6752e-05
3.61933e-05
3.55799e-05
3.49111e-05
3.41872e-05
3.34094e-05
3.25802e-05
3.17043e-05
3.07891e-05
2.98464e-05
2.88859e-05
2.79241e-05
2.6984e-05
2.61079e-05
2.53453e-05
2.47507e-05
2.43827e-05
2.42783e-05
2.44332e-05
2.4898e-05
2.56792e-05
2.66641e-05
2.75931e-05
2.80988e-05
2.79398e-05
2.72481e-05
2.65096e-05
2.62286e-05
2.66008e-05
2.74453e-05
2.84407e-05
2.93975e-05
3.01873e-05
3.07615e-05
3.11525e-05
3.14234e-05
3.16676e-05
3.19894e-05
3.76516e-05
3.72814e-05
3.68623e-05
3.63923e-05
3.58697e-05
3.5293e-05
3.4661e-05
3.3973e-05
3.32289e-05
3.24294e-05
3.15763e-05
3.06732e-05
2.97259e-05
2.87438e-05
2.77384e-05
2.67208e-05
2.57188e-05
2.476e-05
2.38803e-05
2.31304e-05
2.25774e-05
2.22816e-05
2.22728e-05
2.26199e-05
2.33798e-05
2.4529e-05
2.58819e-05
2.70297e-05
2.75106e-05
2.72025e-05
2.65107e-05
2.606e-05
2.62577e-05
2.70755e-05
2.8148e-05
2.9219e-05
3.01419e-05
3.08416e-05
3.13376e-05
3.16945e-05
3.20085e-05
3.23914e-05
3.67955e-05
3.64143e-05
3.59844e-05
3.55041e-05
3.49715e-05
3.4385e-05
3.37437e-05
3.30465e-05
3.22931e-05
3.14837e-05
3.06196e-05
2.97031e-05
2.87388e-05
2.77342e-05
2.67003e-05
2.56457e-05
2.4597e-05
2.35802e-05
2.26156e-05
2.17421e-05
2.10219e-05
2.0525e-05
2.03084e-05
2.04523e-05
2.10495e-05
2.21616e-05
2.37247e-05
2.54094e-05
2.66167e-05
2.69047e-05
2.64523e-05
2.59217e-05
2.59286e-05
2.66654e-05
2.7802e-05
2.89824e-05
3.0036e-05
3.08659e-05
3.14718e-05
3.19185e-05
3.23055e-05
3.27515e-05
3.59323e-05
3.55451e-05
3.51101e-05
3.46253e-05
3.40892e-05
3.35e-05
3.28567e-05
3.21584e-05
3.14044e-05
3.05945e-05
2.97293e-05
2.88105e-05
2.78415e-05
2.68283e-05
2.57802e-05
2.47034e-05
2.36181e-05
2.25524e-05
2.1526e-05