0.0010258 	3.73062e-07 	-1.89475e-09 	0 	1.596e-09 	0 	6.21845e-07
0.00334978 	8.31503e-07 	-4.73081e-09 	0 	4.27346e-09 	0 	1.3886e-06
0.00630145 	1.70229e-06 	-1.85045e-08 	0 	2.0451e-08 	0 	2.84312e-06
0.00983054 	3.04467e-06 	-5.55385e-08 	0 	6.90899e-08 	0 	5.05014e-06
0.0138765 	4.74926e-06 	-1.19264e-07 	0 	1.63675e-07 	0 	7.74287e-06
0.0183825 	6.64179e-06 	-2.10207e-07 	0 	3.22317e-07 	0 	1.05173e-05
0.0233014 	8.59509e-06 	-3.23539e-07 	0 	5.59386e-07 	0 	1.31027e-05
0.0285978 	1.04926e-05 	-4.47291e-07 	0 	8.68528e-07 	0 	1.53728e-05
0.0342466 	1.22648e-05 	-5.73571e-07 	0 	1.23755e-06 	0 	1.73226e-05
0.0402317 	1.38674e-05 	-6.98779e-07 	0 	1.65556e-06 	0 	1.89649e-05
0.046544 	1.5282e-05 	-8.21733e-07 	0 	2.11065e-06 	0 	2.03345e-05
0.0531797 	1.65112e-05 	-9.43161e-07 	0 	2.5921e-06 	0 	2.14727e-05
0.0601391 	1.75686e-05 	-1.06414e-06 	0 	3.09094e-06 	0 	2.2414e-05
0.0674258 	1.84714e-05 	-1.18627e-06 	0 	3.60057e-06 	0 	2.31859e-05
0.0750453 	1.92476e-05 	-1.31087e-06 	0 	4.11649e-06 	0 	2.38168e-05
0.0830049 	1.99185e-05 	-1.43978e-06 	0 	4.63544e-06 	0 	2.43244e-05
0.0913134 	2.04994e-05 	-1.57471e-06 	0 	5.15365e-06 	0 	2.47193e-05
0.0999802 	2.10083e-05 	-1.71651e-06 	0 	5.66776e-06 	0 	2.50168e-05
0.109016 	2.14634e-05 	-1.86582e-06 	0 	6.17602e-06 	0 	2.52337e-05
0.11843 	2.18781e-05 	-2.02313e-06 	0 	6.67571e-06 	0 	2.53802e-05
0.128235 	2.22648e-05 	-2.1892e-06 	0 	7.16742e-06 	0 	2.54738e-05
0.138442 	2.26263e-05 	-2.36558e-06 	0 	7.65199e-06 	0 	2.55262e-05
0.149063 	2.29658e-05 	-2.55327e-06 	0 	8.13142e-06 	0 	2.5547e-05
0.160109 	2.3288e-05 	-2.75255e-06 	0 	8.60772e-06 	0 	2.55425e-05
0.171593 	2.35976e-05 	-2.96241e-06 	0 	9.08353e-06 	0 	2.5521e-05
0.183525 	2.39019e-05 	-3.18257e-06 	0 	9.56139e-06 	0 	2.54906e-05
0.195919 	2.42066e-05 	-3.41288e-06 	0 	1.00429e-05 	0 	2.54532e-05
0.208786 	2.45167e-05 	-3.65279e-06 	0 	1.05291e-05 	0 	2.54081e-05
0.222137 	2.48314e-05 	-3.90409e-06 	0 	1.102e-05 	0 	2.5358e-05
0.235985 	2.51443e-05 	-4.16908e-06 	0 	1.15162e-05 	0 	2.52957e-05
0.25034 	2.54511e-05 	-4.44808e-06 	0 	1.20182e-05 	0 	2.52243e-05
0.265214 	2.57471e-05 	-4.74096e-06 	0 	1.25258e-05 	0 	2.51507e-05
0.280617 	2.60385e-05 	-5.04685e-06 	0 	1.30373e-05 	0 	2.50776e-05
0.29656 	2.63416e-05 	-5.36478e-06 	0 	1.35504e-05 	0 	2.50149e-05
0.313054 	2.66794e-05 	-5.69517e-06 	0 	1.40641e-05 	0 	2.4975e-05
0.330107 	2.708e-05 	-6.04279e-06 	0 	1.45777e-05 	0 	2.49575e-05
0.347729 	2.75313e-05 	-6.4104e-06 	0 	1.50924e-05 	0 	2.49344e-05
0.365928 	2.79908e-05 	-6.79842e-06 	0 	1.56042e-05 	0 	2.49041e-05
0.384713 	2.84388e-05 	-7.21034e-06 	0 	1.6109e-05 	0 	2.48814e-05
0.404089 	2.88759e-05 	-7.64356e-06 	0 	1.66041e-05 	0 	2.48523e-05
0.424065 	2.93317e-05 	-8.08726e-06 	0 	1.70861e-05 	0 	2.48225e-05
0.444646 	2.98325e-05 	-8.53108e-06 	0 	1.75538e-05 	0 	2.48051e-05
0.465836 	3.03992e-05 	-8.97706e-06 	0 	1.80091e-05 	0 	2.47989e-05
0.48764 	3.10116e-05 	-9.42452e-06 	0 	1.84526e-05 	0 	2.47983e-05
0.51006 	3.16512e-05 	-9.86616e-06 	0 	1.88886e-05 	0 	2.48097e-05
0.533099 	3.22963e-05 	-1.03015e-05 	0 	1.93077e-05 	0 	2.48699e-05
0.556758 	3.29437e-05 	-1.07354e-05 	0 	1.96924e-05 	0 	2.49775e-05
0.581036 	3.35874e-05 	-1.11702e-05 	0 	2.00467e-05 	0 	2.51308e-05
0.605933 	3.42045e-05 	-1.15933e-05 	0 	2.03772e-05 	0 	2.53371e-05
0.631446 	3.48096e-05 	-1.19934e-05 	0 	2.06938e-05 	0 	2.55481e-05
0.657571 	3.54474e-05 	-1.23798e-05 	0 	2.09985e-05 	0 	2.57155e-05
0.684304 	3.60851e-05 	-1.27629e-05 	0 	2.12974e-05 	0 	2.58361e-05
0.711638 	3.67286e-05 	-1.3137e-05 	0 	2.15731e-05 	0 	2.58739e-05
0.739566 	3.73935e-05 	-1.34995e-05 	0 	2.18266e-05 	0 	2.58621e-05
0.768079 	3.80596e-05 	-1.38274e-05 	0 	2.20402e-05 	0 	2.58806e-05
0.797167 	3.86855e-05 	-1.4106e-05 	0 	2.21924e-05 	0 	2.59189e-05
0.826818 	3.92364e-05 	-1.43527e-05 	0 	2.22925e-05 	0 	2.59523e-05
0.85702 	3.97235e-05 	-1.45656e-05 	0 	2.23638e-05 	0 	2.59878e-05
0.887757 	4.01253e-05 	-1.47385e-05 	0 	2.23874e-05 	0 	2.60217e-05
0.919015 	4.054e-05 	-1.4875e-05 	0 	2.23521e-05 	0 	2.59658e-05
0.950776 	4.09283e-05 	-1.49919e-05 	0 	2.22886e-05 	0 	2.58348e-05
0.983022 	4.13234e-05 	-1.50625e-05 	0 	2.21991e-05 	0 	2.5676e-05
1.01573 	4.16597e-05 	-1.50947e-05 	0 	2.20553e-05 	0 	2.54679e-05
1.04889 	4.18334e-05 	-1.50958e-05 	0 	2.18595e-05 	0 	2.52038e-05
1.08246 	4.19201e-05 	-1.50315e-05 	0 	2.16105e-05 	0 	2.49105e-05
1.11644 	4.19241e-05 	-1.49183e-05 	0 	2.13009e-05 	0 	2.46241e-05
1.15078 	4.18275e-05 	-1.47517e-05 	0 	2.09611e-05 	0 	2.43594e-05
1.18548 	4.1642e-05 	-1.45597e-05 	0 	2.06167e-05 	0 	2.4043e-05
1.22049 	4.13805e-05 	-1.4326e-05 	0 	2.02696e-05 	0 	2.36702e-05
1.25579 	4.10878e-05 	-1.40658e-05 	0 	1.98854e-05 	0 	2.32602e-05
1.29136 	4.07117e-05 	-1.37771e-05 	0 	1.94681e-05 	0 	2.27723e-05
1.32715 	4.0173e-05 	-1.34372e-05 	0 	1.90477e-05 	0 	2.22174e-05
1.36315 	3.95261e-05 	-1.30806e-05 	0 	1.85961e-05 	0 	2.16572e-05
1.39931 	3.88103e-05 	-1.26716e-05 	0 	1.81097e-05 	0 	2.10408e-05
1.43561 	3.8006e-05 	-1.22286e-05 	0 	1.75882e-05 	0 	2.04611e-05
1.47202 	3.71461e-05 	-1.17815e-05 	0 	1.70777e-05 	0 	1.98037e-05
1.50849 	3.61517e-05 	-1.13369e-05 	0 	1.65831e-05 	0 	1.91368e-05
1.54499 	3.50609e-05 	-1.08776e-05 	0 	1.60901e-05 	0 	1.84719e-05
1.5815 	3.38917e-05 	-1.0413e-05 	0 	1.55864e-05 	0 	1.77788e-05
1.61797 	3.26953e-05 	-9.94209e-06 	0 	1.50577e-05 	0 	1.70779e-05
1.65438 	3.1496e-05 	-9.49146e-06 	0 	1.45262e-05 	0 	1.6438e-05
1.69068 	3.03273e-05 	-9.04648e-06 	0 	1.40226e-05 	0 	1.58268e-05
1.72684 	2.91743e-05 	-8.61835e-06 	0 	1.35314e-05 	0 	1.5251e-05
1.76284 	2.80778e-05 	-8.20797e-06 	0 	1.30396e-05 	0 	1.46945e-05
1.79863 	2.70011e-05 	-7.79673e-06 	0 	1.25569e-05 	0 	1.41628e-05
1.83418 	2.58787e-05 	-7.39541e-06 	0 	1.21002e-05 	0 	1.36292e-05
1.86946 	2.47963e-05 	-7.01684e-06 	0 	1.16807e-05 	0 	1.30998e-05
1.90445 	2.37654e-05 	-6.64661e-06 	0 	1.12928e-05 	0 	1.25674e-05
1.9391 	2.27662e-05 	-6.28279e-06 	0 	1.0923e-05 	0 	1.20618e-05
1.97339 	2.17837e-05 	-5.93276e-06 	0 	1.05647e-05 	0 	1.1598e-05
2.00729 	2.08576e-05 	-5.5861e-06 	0 	1.02286e-05 	0 	1.11558e-05
2.04077 	2.00073e-05 	-5.25262e-06 	0 	9.90215e-06 	0 	1.07343e-05
2.07381 	1.9224e-05 	-4.939e-06 	0 	9.57067e-06 	0 	1.03485e-05
2.10639 	1.84754e-05 	-4.63565e-06 	0 	9.23826e-06 	0 	9.9764e-06
2.13848 	1.77456e-05 	-4.33687e-06 	0 	8.90672e-06 	0 	9.61105e-06
2.17005 	1.70742e-05 	-4.0483e-06 	0 	8.57472e-06 	0 	9.2696e-06
2.2011 	1.64437e-05 	-3.77535e-06 	0 	8.24601e-06 	0 	8.95948e-06
2.23159 	1.58565e-05 	-3.51132e-06 	0 	7.93055e-06 	0 	8.68249e-06
2.26152 	1.53116e-05 	-3.25939e-06 	0 	7.63446e-06 	0 	8.43144e-06
2.29087 	1.4789e-05 	-3.01857e-06 	0 	7.35683e-06 	0 	8.19024e-06
2.31963 	1.42859e-05 	-2.78752e-06 	0 	7.0936e-06 	0 	7.96737e-06
2.34778 	1.38095e-05 	-2.56732e-06 	0 	6.84125e-06 	0 	7.77529e-06
2.37531 	1.33536e-05 	-2.35165e-06 	0 	6.60082e-06 	0 	7.61958e-06
2.40222 	1.29219e-05 	-2.13514e-06 	0 	6.37289e-06 	0 	7.49389e-06
2.42849 	1.25219e-05 	-1.9203e-06 	0 	6.15626e-06 	0 	7.3886e-06
2.45413 	1.21496e-05 	-1.71158e-06 	0 	5.94941e-06 	0 	7.29985e-06
2.47913 	1.18044e-05 	-1.50974e-06 	0 	5.75095e-06 	0 	7.22906e-06
2.50348 	1.149e-05 	-1.30953e-06 	0 	5.56328e-06 	0 	7.1788e-06
2.52719 	1.12132e-05 	-1.1117e-06 	0 	5.38621e-06 	0 	7.14519e-06
2.55026 	1.0984e-05 	-9.17341e-07 	0 	5.21808e-06 	0 	7.12968e-06
2.57268 	1.08019e-05 	-7.2431e-07 	0 	5.05714e-06 	0 	7.13633e-06
2.59446 	1.0657e-05 	-5.29125e-07 	0 	4.90576e-06 	0 	7.15426e-06
2.61561 	1.05426e-05 	-3.32702e-07 	0 	4.76685e-06 	0 	7.17369e-06
2.63613 	1.04643e-05 	-1.37938e-07 	0 	4.63842e-06 	0 	7.19936e-06
2.65602 	1.04268e-05 	5.37459e-08 	0 	4.51857e-06 	0 	7.23946e-06
2.67529 	1.04255e-05 	2.42124e-07 	0 	4.40882e-06 	0 	7.2953e-06
2.69396 	1.04552e-05 	4.26528e-07 	0 	4.31096e-06 	0 	7.36612e-06
2.71202 	1.0512e-05 	6.06206e-07 	0 	4.22549e-06 	0 	7.44471e-06
2.72949 	1.05984e-05 	7.80743e-07 	0 	4.15055e-06 	0 	7.52269e-06
2.74638 	1.07224e-05 	9.48981e-07 	0 	4.0832e-06 	0 	7.59855e-06
2.7627 	1.08837e-05 	1.10928e-06 	0 	4.02135e-06 	0 	7.67391e-06
2.77846 	1.10743e-05 	1.26053e-06 	0 	3.96348e-06 	0 	7.75266e-06
2.79367 	1.12857e-05 	1.40244e-06 	0 	3.90813e-06 	0 	7.83606e-06
2.80835 	1.15138e-05 	1.53506e-06 	0 	3.85381e-06 	0 	7.91888e-06
2.8225 	1.17579e-05 	1.65769e-06 	0 	3.79866e-06 	0 	7.99617e-06
2.83614 	1.20164e-05 	1.76924e-06 	0 	3.74075e-06 	0 	8.06828e-06
2.84927 	1.22872e-05 	1.86922e-06 	0 	3.67815e-06 	0 	8.13643e-06
2.86193 	1.25692e-05 	1.95745e-06 	0 	3.60892e-06 	0 	8.20038e-06
2.87411 	1.28664e-05 	2.03352e-06 	0 	3.53062e-06 	0 	8.26008e-06
2.88582 	1.31812e-05 	2.097e-06 	0 	3.44058e-06 	0 	8.31527e-06
2.89709 	1.35118e-05 	2.14758e-06 	0 	3.33605e-06 	0 	8.36229e-06
2.90793 	1.38586e-05 	2.18511e-06 	0 	3.2144e-06 	0 	8.3948e-06
2.91834 	1.42253e-05 	2.20911e-06 	0 	3.07297e-06 	0 	8.40804e-06
2.92834 	1.46145e-05 	2.21892e-06 	0 	2.90907e-06 	0 	8.39851e-06
2.93795 	1.50251e-05 	2.21428e-06 	0 	2.7214e-06 	0 	8.36253e-06
2.94717 	1.54554e-05 	2.19479e-06 	0 	2.5099e-06 	0 	8.29538e-06
2.95601 	1.59031e-05 	2.15889e-06 	0 	2.27468e-06 	0 	8.18979e-06
2.96448 	1.63598e-05 	2.10467e-06 	0 	2.01803e-06 	0 	8.03721e-06
2.9726 	1.68022e-05 	2.02955e-06 	0 	1.74508e-06 	0 	7.82636e-06
2.98037 	1.71767e-05 	1.92728e-06 	0 	1.4619e-06 	0 	7.53579e-06
2.9878 	1.73857e-05 	1.78908e-06 	0 	1.17687e-06 	0 	7.13883e-06
2.99488 	1.72772e-05 	1.60621e-06 	0 	9.01274e-07 	0 	6.61286e-06
3.00163 	1.66228e-05 	1.37051e-06 	0 	6.47187e-07 	0 	5.9379e-06
3.00802 	1.51337e-05 	1.0816e-06 	0 	4.26661e-07 	0 	5.10315e-06
3.01405 	1.26016e-05 	7.59501e-07 	0 	2.50351e-07 	0 	4.11957e-06
3.01971 	9.16699e-06 	4.49274e-07 	0 	1.24423e-07 	0 	3.03058e-06
3.02495 	5.41389e-06 	2.03167e-07 	0 	4.7379e-08 	0 	1.91312e-06
3.02973 	2.37396e-06 	5.98853e-08 	0 	1.12409e-08 	0 	9.49369e-07
3.036 	5.72496e-07 	8.23476e-09 	0 	9.68556e-10 	0 	2.60212e-07
