/*--------------------------------*- C++ -*----------------------------------*\
  =========                 |
  \\      /  F ield         | OpenFOAM: The Open Source CFD Toolbox
   \\    /   O peration     | Website:  https://openfoam.org
    \\  /    A nd           | Version:  7
     \\/     M anipulation  |
\*---------------------------------------------------------------------------*/
FoamFile
{
    version     2.0;
    format      ascii;
    class       volScalarField;
    location    "25000";
    object      p;
}
// * * * * * * * * * * * * * * * * * * * * * * * * * * * * * * * * * * * * * //

dimensions      [0 2 -2 0 0 0 0];

internalField   nonuniform List<scalar> 
14751
(
-1.01183e-12
2.42209e-06
5.4348e-06
8.27848e-06
1.13209e-05
1.43873e-05
1.74504e-05
2.05191e-05
2.35366e-05
2.64885e-05
2.93433e-05
3.20878e-05
3.4695e-05
3.71506e-05
3.94453e-05
4.15588e-05
4.3497e-05
4.52411e-05
4.67995e-05
4.81617e-05
4.93352e-05
5.03186e-05
5.11175e-05
5.17327e-05
5.21723e-05
5.24405e-05
5.25434e-05
5.24883e-05
5.22808e-05
5.1928e-05
5.1437e-05
5.08142e-05
5.00667e-05
4.92009e-05
4.82233e-05
4.71416e-05
4.59604e-05
4.46871e-05
4.33269e-05
4.18879e-05
4.0374e-05
3.87919e-05
3.71477e-05
3.54455e-05
3.36924e-05
3.18928e-05
3.00517e-05
2.81751e-05
2.62689e-05
2.43394e-05
2.23915e-05
2.043e-05
1.84613e-05
1.649e-05
1.45215e-05
1.25613e-05
1.06141e-05
8.68551e-06
6.78074e-06
4.90299e-06
3.05966e-06
1.25336e-06
-5.10536e-07
-2.22616e-06
-3.89156e-06
-5.50126e-06
-7.05223e-06
-8.53905e-06
-9.95993e-06
-1.13106e-05
-1.25877e-05
-1.37888e-05
-1.491e-05
-1.5949e-05
-1.6903e-05
-1.7769e-05
-1.85431e-05
-1.92242e-05
-1.9805e-05
-2.02888e-05
-2.06611e-05
-2.09291e-05
-2.10782e-05
-2.11087e-05
-2.10123e-05
-2.07836e-05
-2.04132e-05
-1.98969e-05
-1.92242e-05
-1.83926e-05
-1.73831e-05
-1.62031e-05
-1.48431e-05
-1.32799e-05
-1.15607e-05
-9.61777e-06
-7.493e-06
-5.19336e-06
-2.99103e-06
-4.82401e-10
2.42175e-06
5.43428e-06
8.27789e-06
1.13202e-05
1.43865e-05
1.74495e-05
2.05182e-05
2.35357e-05
2.64875e-05
2.93422e-05
3.20867e-05
3.46939e-05
3.71495e-05
3.94441e-05
4.15576e-05
4.34957e-05
4.52398e-05
4.67981e-05
4.81602e-05
4.93337e-05
5.03171e-05
5.1116e-05
5.17312e-05
5.21708e-05
5.24391e-05
5.25421e-05
5.2487e-05
5.22795e-05
5.19268e-05
5.14359e-05
5.08132e-05
5.00658e-05
4.92001e-05
4.82226e-05
4.7141e-05
4.59599e-05
4.46867e-05
4.33266e-05
4.18877e-05
4.03739e-05
3.87918e-05
3.71478e-05
3.54456e-05
3.36926e-05
3.18931e-05
3.0052e-05
2.81756e-05
2.62695e-05
2.43399e-05
2.23922e-05
2.04307e-05
1.84621e-05
1.64909e-05
1.45224e-05
1.25623e-05
1.06151e-05
8.68663e-06
6.78191e-06
4.90421e-06
3.06093e-06
1.25468e-06
-5.09182e-07
-2.22477e-06
-3.89014e-06
-5.49981e-06
-7.05075e-06
-8.53755e-06
-9.95841e-06
-1.13091e-05
-1.25861e-05
-1.37872e-05
-1.49084e-05
-1.59475e-05
-1.69015e-05
-1.77674e-05
-1.85416e-05
-1.92227e-05
-1.98036e-05
-2.02874e-05
-2.06597e-05
-2.09277e-05
-2.10769e-05
-2.11075e-05
-2.10111e-05
-2.07825e-05
-2.04122e-05
-1.9896e-05
-1.92233e-05
-1.83918e-05
-1.73823e-05
-1.62025e-05
-1.48425e-05
-1.32795e-05
-1.15604e-05
-9.61762e-06
-7.49301e-06
-5.19335e-06
-2.9911e-06
-7.19151e-10
2.42069e-06
5.43316e-06
8.27631e-06
1.13184e-05
1.43847e-05
1.74479e-05
2.05168e-05
2.35344e-05
2.64864e-05
2.93412e-05
3.20858e-05
3.46931e-05
3.71488e-05
3.94434e-05
4.15569e-05
4.3495e-05
4.52389e-05
4.67971e-05
4.8159e-05
4.93325e-05
5.03157e-05
5.11145e-05
5.17297e-05
5.21693e-05
5.24376e-05
5.25406e-05
5.24856e-05
5.22782e-05
5.19256e-05
5.14347e-05
5.08121e-05
5.00648e-05
4.91992e-05
4.82218e-05
4.71403e-05
4.59594e-05
4.46863e-05
4.33263e-05
4.18875e-05
4.03738e-05
3.87919e-05
3.7148e-05
3.54459e-05
3.3693e-05
3.18936e-05
3.00526e-05
2.81763e-05
2.62702e-05
2.43408e-05
2.23932e-05
2.04318e-05
1.84633e-05
1.64921e-05
1.45238e-05
1.25637e-05
1.06166e-05
8.6882e-06
6.78355e-06
4.90591e-06
3.06269e-06
1.25649e-06
-5.0732e-07
-2.22286e-06
-3.88819e-06
-5.49783e-06
-7.04874e-06
-8.53552e-06
-9.95636e-06
-1.1307e-05
-1.25841e-05
-1.37851e-05
-1.49064e-05
-1.59454e-05
-1.68995e-05
-1.77654e-05
-1.85397e-05
-1.92208e-05
-1.98017e-05
-2.02856e-05
-2.06581e-05
-2.09262e-05
-2.10755e-05
-2.11062e-05
-2.101e-05
-2.07814e-05
-2.04113e-05
-1.98952e-05
-1.92226e-05
-1.83912e-05
-1.73818e-05
-1.6202e-05
-1.4842e-05
-1.32789e-05
-1.15599e-05
-9.61736e-06
-7.493e-06
-5.19314e-06
-2.9922e-06
-9.79359e-10
2.41882e-06
5.43125e-06
8.27379e-06
1.13156e-05
1.43821e-05
1.74454e-05
2.05147e-05
2.35327e-05
2.64851e-05
2.93402e-05
3.20851e-05
3.46926e-05
3.71484e-05
3.94432e-05
4.15567e-05
4.34947e-05
4.52385e-05
4.67965e-05
4.81582e-05
4.93314e-05
5.03145e-05
5.11132e-05
5.17283e-05
5.21678e-05
5.24361e-05
5.25391e-05
5.24842e-05
5.22768e-05
5.19243e-05
5.14335e-05
5.0811e-05
5.00638e-05
4.91984e-05
4.82211e-05
4.71398e-05
4.5959e-05
4.4686e-05
4.33262e-05
4.18876e-05
4.03741e-05
3.87923e-05
3.71485e-05
3.54465e-05
3.36939e-05
3.18946e-05
3.00537e-05
2.81775e-05
2.62716e-05
2.43424e-05
2.23948e-05
2.04336e-05
1.84652e-05
1.64941e-05
1.45259e-05
1.25659e-05
1.06189e-05
8.69058e-06
6.78601e-06
4.90845e-06
3.06529e-06
1.25916e-06
-5.04602e-07
-2.2201e-06
-3.88539e-06
-5.495e-06
-7.04589e-06
-8.53266e-06
-9.95349e-06
-1.13041e-05
-1.25812e-05
-1.37823e-05
-1.49036e-05
-1.59427e-05
-1.68968e-05
-1.77628e-05
-1.85371e-05
-1.92183e-05
-1.97993e-05
-2.02834e-05
-2.0656e-05
-2.09243e-05
-2.10739e-05
-2.11048e-05
-2.10088e-05
-2.07805e-05
-2.04105e-05
-1.98947e-05
-1.92222e-05
-1.8391e-05
-1.73816e-05
-1.62018e-05
-1.48419e-05
-1.32786e-05
-1.15599e-05
-9.61749e-06
-7.49339e-06
-5.19288e-06
-2.99487e-06
-1.92428e-09
2.41572e-06
5.42789e-06
8.26972e-06
1.13109e-05
1.43777e-05
1.74412e-05
2.0511e-05
2.35295e-05
2.64823e-05
2.93378e-05
3.2083e-05
3.46909e-05
3.71469e-05
3.9442e-05
4.15555e-05
4.34935e-05
4.52371e-05
4.67949e-05
4.81564e-05
4.93293e-05
5.03123e-05
5.11108e-05
5.17259e-05
5.21654e-05
5.24336e-05
5.25368e-05
5.24819e-05
5.22747e-05
5.19224e-05
5.14318e-05
5.08095e-05
5.00626e-05
4.91974e-05
4.82203e-05
4.71393e-05
4.59587e-05
4.46861e-05
4.33265e-05
4.18881e-05
4.03749e-05
3.87934e-05
3.71499e-05
3.54482e-05
3.36957e-05
3.18967e-05
3.0056e-05
2.81801e-05
2.62744e-05
2.43453e-05
2.2398e-05
2.04369e-05
1.84687e-05
1.64978e-05
1.45297e-05
1.25699e-05
1.0623e-05
8.69474e-06
6.79026e-06
4.9128e-06
3.0697e-06
1.26364e-06
-5.0007e-07
-2.21554e-06
-3.8808e-06
-5.4904e-06
-7.04127e-06
-8.52805e-06
-9.9489e-06
-1.12996e-05
-1.25767e-05
-1.37779e-05
-1.48992e-05
-1.59384e-05
-1.68926e-05
-1.77587e-05
-1.85331e-05
-1.92145e-05
-1.97957e-05
-2.02801e-05
-2.06529e-05
-2.09215e-05
-2.10714e-05
-2.11027e-05
-2.10071e-05
-2.07791e-05
-2.04094e-05
-1.98939e-05
-1.92216e-05
-1.83907e-05
-1.73815e-05
-1.62018e-05
-1.48421e-05
-1.32787e-05
-1.15603e-05
-9.61826e-06
-7.49445e-06
-5.19274e-06
-2.99953e-06
-4.34846e-09
2.4107e-06
5.42219e-06
8.26319e-06
1.13034e-05
1.43704e-05
1.74341e-05
2.05044e-05
2.35235e-05
2.64768e-05
2.93328e-05
3.20784e-05
3.46867e-05
3.71432e-05
3.94386e-05
4.15522e-05
4.34902e-05
4.52337e-05
4.67914e-05
4.81527e-05
4.93255e-05
5.03084e-05
5.11069e-05
5.1722e-05
5.21617e-05
5.24301e-05
5.25335e-05
5.24789e-05
5.2272e-05
5.192e-05
5.14297e-05
5.08078e-05
5.00613e-05
4.91965e-05
4.82199e-05
4.71393e-05
4.59592e-05
4.4687e-05
4.33279e-05
4.18899e-05
4.0377e-05
3.87959e-05
3.71527e-05
3.54514e-05
3.36993e-05
3.19006e-05
3.00603e-05
2.81848e-05
2.62795e-05
2.43506e-05
2.24036e-05
2.04427e-05
1.84747e-05
1.6504e-05
1.4536e-05
1.25764e-05
1.06296e-05
8.70147e-06
6.79705e-06
4.91968e-06
3.07661e-06
1.27059e-06
-4.93103e-07
-2.2086e-06
-3.87387e-06
-5.4835e-06
-7.03442e-06
-8.52128e-06
-9.94221e-06
-1.1293e-05
-1.25702e-05
-1.37715e-05
-1.4893e-05
-1.59323e-05
-1.68867e-05
-1.7753e-05
-1.85276e-05
-1.92093e-05
-1.97906e-05
-2.02754e-05
-2.06485e-05
-2.09176e-05
-2.1068e-05
-2.10998e-05
-2.10047e-05
-2.07773e-05
-2.04081e-05
-1.9893e-05
-1.92212e-05
-1.83908e-05
-1.7382e-05
-1.62024e-05
-1.48431e-05
-1.32796e-05
-1.15619e-05
-9.62027e-06
-7.49678e-06
-5.19333e-06
-3.00671e-06
-9.15234e-09
2.40295e-06
5.41332e-06
8.25351e-06
1.12924e-05
1.43596e-05
1.74235e-05
2.04944e-05
2.35142e-05
2.64682e-05
2.93248e-05
3.2071e-05
3.468e-05
3.7137e-05
3.9433e-05
4.15469e-05
4.34853e-05
4.52288e-05
4.67865e-05
4.81479e-05
4.93207e-05
5.03036e-05
5.11023e-05
5.17177e-05
5.21577e-05
5.24264e-05
5.25303e-05
5.24761e-05
5.22697e-05
5.19182e-05
5.14285e-05
5.08072e-05
5.00613e-05
4.9197e-05
4.8221e-05
4.71409e-05
4.59614e-05
4.46897e-05
4.33312e-05
4.18937e-05
4.03813e-05
3.88007e-05
3.71579e-05
3.5457e-05
3.37053e-05
3.1907e-05
3.00672e-05
2.81921e-05
2.62871e-05
2.43586e-05
2.24117e-05
2.04511e-05
1.84833e-05
1.65127e-05
1.45449e-05
1.25853e-05
1.06386e-05
8.71052e-06
6.8061e-06
4.92876e-06
3.08564e-06
1.27958e-06
-4.8416e-07
-2.19977e-06
-3.86513e-06
-5.47488e-06
-7.02592e-06
-8.51294e-06
-9.93402e-06
-1.1285e-05
-1.25624e-05
-1.37639e-05
-1.48856e-05
-1.59251e-05
-1.68797e-05
-1.77463e-05
-1.85212e-05
-1.92032e-05
-1.97849e-05
-2.02701e-05
-2.06438e-05
-2.09135e-05
-2.10644e-05
-2.1097e-05
-2.10026e-05
-2.07759e-05
-2.04073e-05
-1.98929e-05
-1.92216e-05
-1.83919e-05
-1.73837e-05
-1.62044e-05
-1.48457e-05
-1.32822e-05
-1.15652e-05
-9.62431e-06
-7.50126e-06
-5.19577e-06
-3.01706e-06
-1.71062e-08
2.3919e-06
5.40074e-06
8.24024e-06
1.12778e-05
1.43451e-05
1.74094e-05
2.04809e-05
2.35018e-05
2.64566e-05
2.93142e-05
3.20613e-05
3.46713e-05
3.71292e-05
3.94261e-05
4.15407e-05
4.34796e-05
4.52235e-05
4.67814e-05
4.81431e-05
4.93161e-05
5.02994e-05
5.10984e-05
5.17143e-05
5.21548e-05
5.24241e-05
5.25285e-05
5.2475e-05
5.22693e-05
5.19184e-05
5.14294e-05
5.08088e-05
5.00635e-05
4.92e-05
4.82247e-05
4.71452e-05
4.59663e-05
4.46952e-05
4.33372e-05
4.19003e-05
4.03884e-05
3.88082e-05
3.71659e-05
3.54654e-05
3.3714e-05
3.19161e-05
3.00766e-05
2.82018e-05
2.62971e-05
2.43688e-05
2.24221e-05
2.04616e-05
1.84939e-05
1.65234e-05
1.45556e-05
1.2596e-05
1.06493e-05
8.72117e-06
6.81666e-06
4.93927e-06
3.096e-06
1.28982e-06
-4.74058e-07
-2.18987e-06
-3.85541e-06
-5.46536e-06
-7.01659e-06
-8.50386e-06
-9.92517e-06
-1.12764e-05
-1.2554e-05
-1.37558e-05
-1.48777e-05
-1.59175e-05
-1.68724e-05
-1.77394e-05
-1.85146e-05
-1.91971e-05
-1.97792e-05
-2.02651e-05
-2.06393e-05
-2.09098e-05
-2.10615e-05
-2.10949e-05
-2.10014e-05
-2.07756e-05
-2.04078e-05
-1.98943e-05
-1.92237e-05
-1.83949e-05
-1.73873e-05
-1.62086e-05
-1.48504e-05
-1.32872e-05
-1.15711e-05
-9.63102e-06
-7.50862e-06
-5.201e-06
-3.03097e-06
-2.87109e-08
2.37734e-06
5.38419e-06
8.22328e-06
1.12595e-05
1.43268e-05
1.73919e-05
2.04644e-05
2.34865e-05
2.64426e-05
2.93016e-05
3.205e-05
3.46614e-05
3.71207e-05
3.94188e-05
4.15344e-05
4.34743e-05
4.52188e-05
4.67773e-05
4.81394e-05
4.9313e-05
5.02967e-05
5.10963e-05
5.17129e-05
5.21541e-05
5.24241e-05
5.25293e-05
5.24765e-05
5.22715e-05
5.19214e-05
5.14332e-05
5.08132e-05
5.00687e-05
4.92059e-05
4.82312e-05
4.71524e-05
4.59741e-05
4.47036e-05
4.33462e-05
4.19096e-05
4.03982e-05
3.88185e-05
3.71765e-05
3.54764e-05
3.37253e-05
3.19276e-05
3.00883e-05
2.82137e-05
2.63092e-05
2.43809e-05
2.24343e-05
2.04739e-05
1.85061e-05
1.65356e-05
1.45677e-05
1.2608e-05
1.06612e-05
8.73291e-06
6.82819e-06
4.95064e-06
3.10712e-06
1.30071e-06
-4.63413e-07
-2.17953e-06
-3.84534e-06
-5.45558e-06
-7.00709e-06
-8.49469e-06
-9.9163e-06
-1.12678e-05
-1.25458e-05
-1.37478e-05
-1.48701e-05
-1.59102e-05
-1.68655e-05
-1.77329e-05
-1.85087e-05
-1.91917e-05
-1.97743e-05
-2.02609e-05
-2.06359e-05
-2.09072e-05
-2.10599e-05
-2.10943e-05
-2.10017e-05
-2.0777e-05
-2.04102e-05
-1.98977e-05
-1.92281e-05
-1.84002e-05
-1.73935e-05
-1.62154e-05
-1.4858e-05
-1.32951e-05
-1.15799e-05
-9.64101e-06
-7.51935e-06
-5.20946e-06
-3.04855e-06
-4.42958e-08
2.35916e-06
5.36364e-06
8.20272e-06
1.12377e-05
1.43054e-05
1.73715e-05
2.04453e-05
2.34692e-05
2.64271e-05
2.92879e-05
3.20381e-05
3.46513e-05
3.71123e-05
3.94121e-05
4.15292e-05
4.34702e-05
4.52158e-05
4.6775e-05
4.81379e-05
4.93122e-05
5.02967e-05
5.1097e-05
5.17144e-05
5.21564e-05
5.24272e-05
5.25332e-05
5.24812e-05
5.2277e-05
5.19277e-05
5.14402e-05
5.0821e-05
5.00772e-05
4.9215e-05
4.8241e-05
4.71627e-05
4.59849e-05
4.47149e-05
4.3358e-05
4.19219e-05
4.04108e-05
3.88314e-05
3.71896e-05
3.54898e-05
3.37388e-05
3.19412e-05
3.0102e-05
2.82275e-05
2.6323e-05
2.43948e-05
2.24481e-05
2.04875e-05
1.85196e-05
1.65489e-05
1.45808e-05
1.26209e-05
1.06737e-05
8.74522e-06
6.84015e-06
4.96232e-06
3.11842e-06
1.31166e-06
-4.52806e-07
-2.16934e-06
-3.83551e-06
-5.44614e-06
-6.998e-06
-8.48602e-06
-9.908e-06
-1.12599e-05
-1.25382e-05
-1.37407e-05
-1.48633e-05
-1.59039e-05
-1.68597e-05
-1.77277e-05
-1.85039e-05
-1.91876e-05
-1.97709e-05
-2.02583e-05
-2.06341e-05
-2.09064e-05
-2.10601e-05
-2.10957e-05
-2.10043e-05
-2.07807e-05
-2.0415e-05
-1.99037e-05
-1.92352e-05
-1.84084e-05
-1.74028e-05
-1.62254e-05
-1.48689e-05
-1.33065e-05
-1.15922e-05
-9.65466e-06
-7.53378e-06
-5.22155e-06
-3.06985e-06
-6.38061e-08
2.33767e-06
5.33952e-06
8.17917e-06
1.12133e-05
1.42817e-05
1.73494e-05
2.04249e-05
2.3451e-05
2.64109e-05
2.9274e-05
3.20264e-05
3.46419e-05
3.7105e-05
3.94068e-05
4.15256e-05
4.34682e-05
4.5215e-05
4.67754e-05
4.81394e-05
4.93146e-05
5.03e-05
5.11012e-05
5.17194e-05
5.21623e-05
5.2434e-05
5.25409e-05
5.24896e-05
5.22863e-05
5.19377e-05
5.14509e-05
5.08323e-05
5.00891e-05
4.92275e-05
4.8254e-05
4.71762e-05
4.59989e-05
4.47293e-05
4.33727e-05
4.19368e-05
4.04259e-05
3.88468e-05
3.7205e-05
3.55053e-05
3.37543e-05
3.19567e-05
3.01175e-05
2.82429e-05
2.63382e-05
2.44098e-05
2.24629e-05
2.05021e-05
1.85339e-05
1.65629e-05
1.45944e-05
1.26341e-05
1.06866e-05
8.75763e-06
6.85208e-06
4.97384e-06
3.12944e-06
1.32221e-06
-4.42716e-07
-2.15978e-06
-3.82642e-06
-5.43753e-06
-6.98983e-06
-8.47834e-06
-9.90076e-06
-1.12531e-05
-1.25319e-05
-1.37349e-05
-1.4858e-05
-1.58992e-05
-1.68555e-05
-1.7724e-05
-1.85009e-05
-1.91852e-05
-1.97693e-05
-2.02576e-05
-2.06344e-05
-2.09078e-05
-2.10627e-05
-2.10995e-05
-2.10095e-05
-2.07872e-05
-2.04228e-05
-1.99128e-05
-1.92455e-05
-1.84199e-05
-1.74155e-05
-1.62389e-05
-1.48834e-05
-1.33216e-05
-1.16082e-05
-9.67214e-06
-7.55203e-06
-5.23742e-06
-3.09467e-06
-8.65991e-08
2.31397e-06
5.31301e-06
8.15364e-06
1.11872e-05
1.42564e-05
1.7326e-05
2.04035e-05
2.34322e-05
2.63947e-05
2.92604e-05
3.20154e-05
3.46335e-05
3.70992e-05
3.94034e-05
4.15242e-05
4.34686e-05
4.5217e-05
4.67791e-05
4.81447e-05
4.93209e-05
5.03073e-05
5.11094e-05
5.17286e-05
5.21724e-05
5.24448e-05
5.25526e-05
5.25021e-05
5.22995e-05
5.19515e-05
5.14653e-05
5.08473e-05
5.01046e-05
4.92435e-05
4.82704e-05
4.71929e-05
4.60159e-05
4.47465e-05
4.33901e-05
4.19543e-05
4.04436e-05
3.88644e-05
3.72226e-05
3.55228e-05
3.37716e-05
3.19738e-05
3.01344e-05
2.82595e-05
2.63546e-05
2.44259e-05
2.24786e-05
2.05174e-05
1.85487e-05
1.65772e-05
1.46082e-05
1.26474e-05
1.06993e-05
8.76977e-06
6.8636e-06
4.98482e-06
3.1398e-06
1.33198e-06
-4.33522e-07
-2.15122e-06
-3.81844e-06
-5.43013e-06
-6.98296e-06
-8.47205e-06
-9.89501e-06
-1.12479e-05
-1.25272e-05
-1.37308e-05
-1.48545e-05
-1.58962e-05
-1.68532e-05
-1.77224e-05
-1.85e-05
-1.91851e-05
-1.97699e-05
-2.02592e-05
-2.06371e-05
-2.09116e-05
-2.1068e-05
-2.11061e-05
-2.10175e-05
-2.07966e-05
-2.04337e-05
-1.9925e-05
-1.9259e-05
-1.84348e-05
-1.74316e-05
-1.6256e-05
-1.49013e-05
-1.33403e-05
-1.16277e-05
-9.69321e-06
-7.57377e-06
-5.25675e-06
-3.12243e-06
-1.12103e-07
2.28857e-06
5.28435e-06
8.12629e-06
1.11593e-05
1.42292e-05
1.73012e-05
2.03812e-05
2.34129e-05
2.63784e-05
2.92474e-05
3.20053e-05
3.46266e-05
3.70953e-05
3.94022e-05
4.15256e-05
4.34724e-05
4.52232e-05
4.67871e-05
4.81541e-05
4.93315e-05
5.03189e-05
5.1122e-05
5.17421e-05
5.21868e-05
5.246e-05
5.25686e-05
5.25187e-05
5.23167e-05
5.19693e-05
5.14837e-05
5.08661e-05
5.01238e-05
4.92629e-05
4.82902e-05
4.72128e-05
4.6036e-05
4.47666e-05
4.34103e-05
4.19744e-05
4.04635e-05
3.88842e-05
3.72422e-05
3.55421e-05
3.37906e-05
3.19924e-05
3.01526e-05
2.82773e-05
2.63719e-05
2.44427e-05
2.24948e-05
2.05331e-05
1.85638e-05
1.65917e-05
1.4622e-05
1.26604e-05
1.07116e-05
8.7814e-06
6.87446e-06
4.995e-06
3.14922e-06
1.3407e-06
-4.25497e-07
-2.14394e-06
-3.81183e-06
-5.42421e-06
-6.97768e-06
-8.46746e-06
-9.89106e-06
-1.12446e-05
-1.25246e-05
-1.37287e-05
-1.48531e-05
-1.58955e-05
-1.68531e-05
-1.77231e-05
-1.85014e-05
-1.91872e-05
-1.9773e-05
-2.02632e-05
-2.06423e-05
-2.09181e-05
-2.10758e-05
-2.11154e-05
-2.10282e-05
-2.08089e-05
-2.04474e-05
-1.99402e-05
-1.92756e-05
-1.84527e-05
-1.74509e-05
-1.62761e-05
-1.49224e-05
-1.33621e-05
-1.165e-05
-9.71717e-06
-7.59814e-06
-5.27864e-06
-3.15228e-06
-1.40536e-07
2.26103e-06
5.25304e-06
8.0967e-06
1.11294e-05
1.42004e-05
1.72753e-05
2.03581e-05
2.33935e-05
2.63625e-05
2.92352e-05
3.19966e-05
3.46215e-05
3.70937e-05
3.94043e-05
4.15311e-05
4.34808e-05
4.5234e-05
4.67994e-05
4.81679e-05
4.93464e-05
5.0335e-05
5.1139e-05
5.17601e-05
5.22056e-05
5.24797e-05
5.2589e-05
5.25397e-05
5.23382e-05
5.19913e-05
5.1506e-05
5.08887e-05
5.01466e-05
4.92859e-05
4.83133e-05
4.72359e-05
4.60591e-05
4.47897e-05
4.34332e-05
4.1997e-05
4.04858e-05
3.89062e-05
3.72637e-05
3.55632e-05
3.38112e-05
3.20124e-05
3.0172e-05
2.82962e-05
2.63901e-05
2.44602e-05
2.25116e-05
2.05491e-05
1.8579e-05
1.66061e-05
1.46355e-05
1.26731e-05
1.07235e-05
8.7924e-06
6.88454e-06
5.00425e-06
3.15757e-06
1.34819e-06
-4.18818e-07
-2.1381e-06
-3.80678e-06
-5.41993e-06
-6.97413e-06
-8.46473e-06
-9.8891e-06
-1.12434e-05
-1.2524e-05
-1.37288e-05
-1.48538e-05
-1.58969e-05
-1.68552e-05
-1.77259e-05
-1.8505e-05
-1.91917e-05
-1.97784e-05
-2.02694e-05
-2.06498e-05
-2.09266e-05
-2.10857e-05
-2.11267e-05
-2.10412e-05
-2.08234e-05
-2.04635e-05
-1.99578e-05
-1.92947e-05
-1.84732e-05
-1.74728e-05
-1.6299e-05
-1.49461e-05
-1.33867e-05
-1.1675e-05
-9.74378e-06
-7.62494e-06
-5.30303e-06
-3.18417e-06
-1.72254e-07
2.23106e-06
5.21908e-06
8.0649e-06
1.10976e-05
1.417e-05
1.72483e-05
2.03346e-05
2.3374e-05
2.6347e-05
2.9224e-05
3.19895e-05
3.46191e-05
3.70959e-05
3.94107e-05
4.15413e-05
4.34937e-05
4.52491e-05
4.68162e-05
4.81862e-05
4.9366e-05
5.03557e-05
5.11608e-05
5.17828e-05
5.22292e-05
5.25039e-05
5.26139e-05
5.25651e-05
5.23641e-05
5.20174e-05
5.15324e-05
5.09153e-05
5.01733e-05
4.93126e-05
4.83399e-05
4.72624e-05
4.60853e-05
4.48156e-05
4.34589e-05
4.20223e-05
4.05106e-05
3.89304e-05
3.72873e-05
3.55861e-05
3.38334e-05
3.20339e-05
3.01927e-05
2.83161e-05
2.64092e-05
2.44785e-05
2.25289e-05
2.05655e-05
1.85944e-05
1.66205e-05
1.46489e-05
1.26855e-05
1.07349e-05
8.80275e-06
6.89385e-06
5.01258e-06
3.16483e-06
1.3544e-06
-4.13565e-07
-2.1338e-06
-3.80336e-06
-5.41738e-06
-6.97239e-06
-8.46385e-06
-9.88906e-06
-1.12441e-05
-1.25254e-05
-1.37309e-05
-1.48566e-05
-1.59003e-05
-1.68592e-05
-1.77304e-05
-1.85103e-05
-1.91978e-05
-1.97855e-05
-2.02775e-05
-2.06591e-05
-2.09371e-05
-2.10975e-05
-2.11402e-05
-2.10563e-05
-2.08402e-05
-2.0482e-05
-1.9978e-05
-1.93165e-05
-1.84965e-05
-1.74976e-05
-1.63249e-05
-1.49728e-05
-1.34143e-05
-1.17029e-05
-9.77348e-06
-7.65473e-06
-5.33062e-06
-3.21853e-06
-2.07286e-07
2.19865e-06
5.18257e-06
8.03095e-06
1.10641e-05
1.41382e-05
1.72204e-05
2.03105e-05
2.33547e-05
2.63325e-05
2.92149e-05
3.19858e-05
3.46208e-05
3.71026e-05
3.94214e-05
4.15556e-05
4.35107e-05
4.52685e-05
4.68375e-05
4.82092e-05
4.93904e-05
5.03812e-05
5.11873e-05
5.18103e-05
5.22575e-05
5.25329e-05
5.26434e-05
5.2595e-05
5.23944e-05
5.2048e-05
5.15631e-05
5.0946e-05
5.02039e-05
4.93431e-05
4.83702e-05
4.72923e-05
4.61149e-05
4.48448e-05
4.34875e-05
4.20502e-05
4.05379e-05
3.8957e-05
3.7313e-05
3.56111e-05
3.38574e-05
3.20569e-05
3.02148e-05
2.83372e-05
2.64294e-05
2.44975e-05
2.25469e-05
2.05824e-05
1.86102e-05
1.6635e-05
1.46622e-05
1.26975e-05
1.07458e-05
8.81248e-06
6.90239e-06
5.02001e-06
3.17108e-06
1.35948e-06
-4.09628e-07
-2.13099e-06
-3.80157e-06
-5.41658e-06
-6.97245e-06
-8.4647e-06
-9.8905e-06
-1.12463e-05
-1.25284e-05
-1.37346e-05
-1.48611e-05
-1.59055e-05
-1.68648e-05
-1.77367e-05
-1.85174e-05
-1.92057e-05
-1.97944e-05
-2.02875e-05
-2.06705e-05
-2.09498e-05
-2.11119e-05
-2.11562e-05
-2.10741e-05
-2.08598e-05
-2.05034e-05
-2.00011e-05
-1.93414e-05
-1.85229e-05
-1.75256e-05
-1.6354e-05
-1.50028e-05
-1.34453e-05
-1.17341e-05
-9.80649e-06
-7.68769e-06
-5.36159e-06
-3.25541e-06
-2.45671e-07
2.16375e-06
5.14349e-06
7.99478e-06
1.10287e-05
1.41049e-05
1.71917e-05
2.02865e-05
2.33366e-05
2.63204e-05
2.92091e-05
3.19857e-05
3.4626e-05
3.71126e-05
3.94356e-05
4.15735e-05
4.35317e-05
4.52922e-05
4.68633e-05
4.82369e-05
4.94195e-05
5.04117e-05
5.12188e-05
5.18429e-05
5.22908e-05
5.25668e-05
5.26779e-05
5.26299e-05
5.24295e-05
5.20832e-05
5.15983e-05
5.09811e-05
5.02389e-05
4.93777e-05
4.84045e-05
4.73261e-05
4.61481e-05
4.48773e-05
4.35193e-05
4.20812e-05
4.05681e-05
3.89863e-05
3.73413e-05
3.56383e-05
3.38835e-05
3.20819e-05
3.02385e-05
2.83596e-05
2.64507e-05
2.45176e-05
2.25657e-05
2.06e-05
1.86264e-05
1.66498e-05
1.46755e-05
1.27094e-05
1.07562e-05
8.82153e-06
6.91005e-06
5.02639e-06
3.17622e-06
1.36362e-06
-4.06573e-07
-2.12924e-06
-3.80101e-06
-5.41712e-06
-6.97399e-06
-8.46712e-06
-9.89358e-06
-1.12501e-05
-1.25331e-05
-1.37401e-05
-1.48673e-05
-1.59125e-05
-1.68726e-05
-1.77452e-05
-1.85268e-05
-1.92159e-05
-1.98058e-05
-2.02999e-05
-2.06844e-05
-2.09651e-05
-2.11289e-05
-2.1175e-05
-2.10948e-05
-2.08823e-05
-2.05279e-05
-2.00274e-05
-1.93695e-05
-1.85526e-05
-1.7557e-05
-1.63866e-05
-1.50362e-05
-1.34798e-05
-1.17686e-05
-9.84289e-06
-7.7239e-06
-5.39601e-06
-3.29485e-06
-2.87518e-07
2.12609e-06
5.10167e-06
7.9562e-06
1.09915e-05
1.40705e-05
1.71631e-05
2.02639e-05
2.33208e-05
2.63109e-05
2.92057e-05
3.19879e-05
3.46336e-05
3.71254e-05
3.94529e-05
4.15952e-05
4.35567e-05
4.53203e-05
4.68937e-05
4.82693e-05
4.94536e-05
5.04472e-05
5.12555e-05
5.18806e-05
5.23293e-05
5.2606e-05
5.27176e-05
5.26699e-05
5.24696e-05
5.21234e-05
5.16383e-05
5.1021e-05
5.02784e-05
4.94168e-05
4.84431e-05
4.7364e-05
4.61853e-05
4.49136e-05
4.35547e-05
4.21155e-05
4.06014e-05
3.90185e-05
3.73723e-05
3.56682e-05
3.3912e-05
3.21091e-05
3.02642e-05
2.83838e-05
2.64734e-05
2.45388e-05
2.25853e-05
2.0618e-05
1.86428e-05
1.66648e-05
1.46892e-05
1.27215e-05
1.07666e-05
8.83025e-06
6.9171e-06
5.0319e-06
3.18028e-06
1.36651e-06
-4.04842e-07
-2.12889e-06
-3.80189e-06
-5.41916e-06
-6.9771e-06
-8.47134e-06
-9.8988e-06
-1.12562e-05
-1.254e-05
-1.37479e-05
-1.48759e-05
-1.59218e-05
-1.68827e-05
-1.77562e-05
-1.85387e-05
-1.92287e-05
-1.98197e-05
-2.03148e-05
-2.07008e-05
-2.0983e-05
-2.11487e-05
-2.11966e-05
-2.11184e-05
-2.09079e-05
-2.05555e-05
-2.00569e-05
-1.9401e-05
-1.85858e-05
-1.7592e-05
-1.64228e-05
-1.50732e-05
-1.35179e-05
-1.18066e-05
-9.88282e-06
-7.76348e-06
-5.43407e-06
-3.33705e-06
-3.3302e-07
2.0855e-06
5.05713e-06
7.91562e-06
1.09534e-05
1.40362e-05
1.71354e-05
2.02424e-05
2.33059e-05
2.63024e-05
2.92034e-05
3.19916e-05
3.46432e-05
3.71408e-05
3.94734e-05
4.16205e-05
4.35858e-05
4.53528e-05
4.69287e-05
4.83067e-05
4.94927e-05
5.04879e-05
5.12975e-05
5.19237e-05
5.23734e-05
5.26508e-05
5.27629e-05
5.27154e-05
5.25152e-05
5.21688e-05
5.16835e-05
5.10659e-05
5.03229e-05
4.94608e-05
4.84864e-05
4.74065e-05
4.62269e-05
4.49542e-05
4.35941e-05
4.21537e-05
4.06381e-05
3.90538e-05
3.74061e-05
3.57004e-05
3.39427e-05
3.21381e-05
3.02919e-05
2.84101e-05
2.64979e-05
2.45614e-05
2.2606e-05
2.06367e-05
1.86597e-05
1.66798e-05
1.47026e-05
1.27333e-05
1.07766e-05
8.8384e-06
6.92346e-06
5.03657e-06
3.18324e-06
1.36787e-06
-4.04955e-07
-2.13043e-06
-3.80472e-06
-5.42321e-06
-6.9823e-06
-8.47769e-06
-9.90622e-06
-1.12646e-05
-1.25494e-05
-1.37581e-05
-1.48869e-05
-1.59336e-05
-1.68954e-05
-1.77697e-05
-1.8553e-05
-1.9244e-05
-1.98362e-05
-2.03324e-05
-2.072e-05
-2.10037e-05
-2.11713e-05
-2.12212e-05
-2.1145e-05
-2.09366e-05
-2.05864e-05
-2.00899e-05
-1.9436e-05
-1.86225e-05
-1.76306e-05
-1.64627e-05
-1.5114e-05
-1.35599e-05
-1.18484e-05
-9.92648e-06
-7.80669e-06
-5.47603e-06
-3.38232e-06
-3.81932e-07
2.04233e-06
5.01069e-06
7.87386e-06
1.09147e-05
1.40015e-05
1.71071e-05
2.02202e-05
2.32905e-05
2.62936e-05
2.92016e-05
3.19963e-05
3.46546e-05
3.71585e-05
3.94968e-05
4.16493e-05
4.36188e-05
4.53896e-05
4.69685e-05
4.8349e-05
4.9537e-05
5.05339e-05
5.1345e-05
5.19725e-05
5.24232e-05
5.27014e-05
5.2814e-05
5.27668e-05
5.25668e-05
5.22202e-05
5.17345e-05
5.11164e-05
5.03727e-05
4.95098e-05
4.85345e-05
4.74535e-05
4.62728e-05
4.49989e-05
4.36378e-05
4.2196e-05
4.06788e-05
3.90927e-05
3.74431e-05
3.57355e-05
3.39758e-05
3.21693e-05
3.03213e-05
2.84378e-05
2.65236e-05
2.45851e-05
2.26276e-05
2.06562e-05
1.8677e-05
1.6695e-05
1.47158e-05
1.27444e-05
1.07858e-05
8.84562e-06
6.92876e-06
5.04007e-06
3.18494e-06
1.36783e-06
-4.06642e-07
-2.1337e-06
-3.8094e-06
-5.42924e-06
-6.9896e-06
-8.48623e-06
-9.91591e-06
-1.12754e-05
-1.25611e-05
-1.37707e-05
-1.49004e-05
-1.5948e-05
-1.69106e-05
-1.77858e-05
-1.85701e-05
-1.9262e-05
-1.98554e-05
-2.03527e-05
-2.0742e-05
-2.10274e-05
-2.11969e-05
-2.12488e-05
-2.11749e-05
-2.09687e-05
-2.06208e-05
-2.01264e-05
-1.94747e-05
-1.86631e-05
-1.76732e-05
-1.65067e-05
-1.51587e-05
-1.36059e-05
-1.18941e-05
-9.97417e-06
-7.85386e-06
-5.52224e-06
-3.43085e-06
-4.33606e-07
1.99669e-06
4.96227e-06
7.83009e-06
1.08738e-05
1.39644e-05
1.70764e-05
2.0196e-05
2.32735e-05
2.62841e-05
2.91997e-05
3.20019e-05
3.46676e-05
3.71785e-05
3.9523e-05
4.16815e-05
4.36558e-05
4.54309e-05
4.70131e-05
4.83966e-05
4.95869e-05
5.05858e-05
5.13986e-05
5.20276e-05
5.24793e-05
5.27582e-05
5.28714e-05
5.28245e-05
5.26245e-05
5.2278e-05
5.17921e-05
5.11732e-05
5.04286e-05
4.95646e-05
4.85881e-05
4.75057e-05
4.63234e-05
4.50479e-05
4.36853e-05
4.2242e-05
4.07231e-05
3.9135e-05
3.74833e-05
3.57735e-05
3.40116e-05
3.22028e-05
3.03525e-05
2.84667e-05
2.65504e-05
2.46096e-05
2.26499e-05
2.06763e-05
1.86948e-05
1.67105e-05
1.47289e-05
1.27553e-05
1.07945e-05
8.85217e-06
6.9332e-06
5.04249e-06
3.18539e-06
1.36637e-06
-4.09906e-07
-2.13868e-06
-3.81596e-06
-5.43731e-06
-6.99907e-06
-8.49704e-06
-9.92795e-06
-1.12885e-05
-1.25753e-05
-1.37859e-05
-1.49165e-05
-1.5965e-05
-1.69285e-05
-1.78046e-05
-1.85899e-05
-1.92827e-05
-1.98775e-05
-2.0376e-05
-2.07671e-05
-2.10541e-05
-2.12257e-05
-2.12798e-05
-2.12082e-05
-2.10044e-05
-2.06589e-05
-2.01668e-05
-1.95175e-05
-1.87078e-05
-1.772e-05
-1.6555e-05
-1.52079e-05
-1.36564e-05
-1.19442e-05
-1.00262e-05
-7.90527e-06
-5.57261e-06
-3.48204e-06
-4.88854e-07
1.94714e-06
4.90993e-06
7.78217e-06
1.08286e-05
1.39233e-05
1.70424e-05
2.01691e-05
2.32547e-05
2.62735e-05
2.91977e-05
3.20082e-05
3.46821e-05
3.72009e-05
3.95526e-05
4.17177e-05
4.36975e-05
4.54775e-05
4.70635e-05
4.84504e-05
4.96438e-05
5.06453e-05
5.14599e-05
5.20903e-05
5.2543e-05
5.28227e-05
5.29362e-05
5.28893e-05
5.26892e-05
5.23426e-05
5.18562e-05
5.12364e-05
5.04907e-05
4.96253e-05
4.86473e-05
4.75632e-05
4.63792e-05
4.51018e-05
4.37372e-05
4.22918e-05
4.07707e-05
3.91804e-05
3.75264e-05
3.58144e-05
3.405e-05
3.22388e-05
3.03861e-05
2.84978e-05
2.6579e-05
2.46357e-05
2.26733e-05
2.06972e-05
1.87132e-05
1.67264e-05
1.47423e-05
1.27661e-05
1.08029e-05
8.85815e-06
6.93683e-06
5.04388e-06
3.18458e-06
1.36347e-06
-4.14797e-07
-2.14545e-06
-3.82447e-06
-5.44749e-06
-7.01078e-06
-8.51021e-06
-9.94245e-06
-1.13042e-05
-1.25922e-05
-1.38037e-05
-1.49354e-05
-1.59848e-05
-1.69492e-05
-1.78263e-05
-1.86126e-05
-1.93065e-05
-1.99026e-05
-2.04023e-05
-2.07953e-05
-2.10841e-05
-2.12579e-05
-2.13144e-05
-2.12453e-05
-2.10439e-05
-2.0701e-05
-2.02114e-05
-1.95646e-05
-1.87571e-05
-1.77714e-05
-1.66081e-05
-1.52619e-05
-1.37117e-05
-1.19991e-05
-1.0083e-05
-7.96085e-06
-5.62698e-06
-3.53608e-06
-5.49631e-07
1.89206e-06
4.85212e-06
7.72884e-06
1.07785e-05
1.38779e-05
1.70047e-05
2.01395e-05
2.32342e-05
2.62622e-05
2.91961e-05
3.2016e-05
3.46992e-05
3.72273e-05
3.95874e-05
4.17601e-05
4.37459e-05
4.55313e-05
4.71216e-05
4.85122e-05
4.97089e-05
5.0713e-05
5.15294e-05
5.21613e-05
5.26151e-05
5.28953e-05
5.30091e-05
5.29621e-05
5.27615e-05
5.24142e-05
5.19269e-05
5.1306e-05
5.05589e-05
4.9692e-05
4.87123e-05
4.76264e-05
4.64404e-05
4.51609e-05
4.3794e-05
4.23463e-05
4.08228e-05
3.923e-05
3.75734e-05
3.58587e-05
3.40916e-05
3.22776e-05
3.04222e-05
2.85311e-05
2.66095e-05
2.46634e-05
2.26982e-05
2.07193e-05
1.87324e-05
1.67428e-05
1.47558e-05
1.27769e-05
1.08109e-05
8.86357e-06
6.93966e-06
5.04424e-06
3.18252e-06
1.3591e-06
-4.21353e-07
-2.15407e-06
-3.83501e-06
-5.45986e-06
-7.02483e-06
-8.52585e-06
-9.95954e-06
-1.13227e-05
-1.26118e-05
-1.38245e-05
-1.49572e-05
-1.60076e-05
-1.6973e-05
-1.7851e-05
-1.86385e-05
-1.93335e-05
-1.9931e-05
-2.04321e-05
-2.08269e-05
-2.11176e-05
-2.12938e-05
-2.13527e-05
-2.12863e-05
-2.10876e-05
-2.07475e-05
-2.02605e-05
-1.96164e-05
-1.88112e-05
-1.78279e-05
-1.66663e-05
-1.5321e-05
-1.37723e-05
-1.20592e-05
-1.0145e-05
-8.02112e-06
-5.68653e-06
-3.59466e-06
-6.17025e-07
1.83078e-06
4.78843e-06
7.67e-06
1.07235e-05
1.38284e-05
1.6964e-05
2.01081e-05
2.32135e-05
2.62523e-05
2.9197e-05
3.20274e-05
3.47211e-05
3.72594e-05
3.96286e-05
4.18095e-05
4.38019e-05
4.55931e-05
4.7188e-05
4.85825e-05
4.97822e-05
5.07888e-05
5.16071e-05
5.22405e-05
5.26953e-05
5.29761e-05
5.309e-05
5.30429e-05
5.28418e-05
5.24935e-05
5.20051e-05
5.13828e-05
5.06341e-05
4.97655e-05
4.87838e-05
4.76958e-05
4.65075e-05
4.52256e-05
4.38562e-05
4.24058e-05
4.08796e-05
3.92839e-05
3.76244e-05
3.59068e-05
3.41367e-05
3.23196e-05
3.04611e-05
2.85669e-05
2.66422e-05
2.46929e-05
2.27246e-05
2.07425e-05
1.87525e-05
1.67597e-05
1.47697e-05
1.27877e-05
1.08188e-05
8.86848e-06
6.94172e-06
5.04356e-06
3.17919e-06
1.35323e-06
-4.29615e-07
-2.16461e-06
-3.84767e-06
-5.47452e-06
-7.04133e-06
-8.54407e-06
-9.97933e-06
-1.13439e-05
-1.26343e-05
-1.38482e-05
-1.4982e-05
-1.60335e-05
-1.7e-05
-1.78791e-05
-1.86677e-05
-1.93639e-05
-1.99629e-05
-2.04653e-05
-2.08623e-05
-2.1155e-05
-2.13337e-05
-2.13952e-05
-2.13316e-05
-2.11358e-05
-2.07987e-05
-2.03146e-05
-1.96734e-05
-1.88706e-05
-1.78899e-05
-1.67301e-05
-1.53859e-05
-1.38386e-05
-1.2125e-05
-1.02127e-05
-8.08756e-06
-5.75295e-06
-3.65887e-06
-6.91373e-07
1.76377e-06
4.71953e-06
7.60661e-06
1.06649e-05
1.37762e-05
1.69219e-05
2.00765e-05
2.31937e-05
2.62445e-05
2.9201e-05
3.2043e-05
3.47479e-05
3.7297e-05