/*--------------------------------*- C++ -*----------------------------------*\
| =========                 |                                                 |
| \\      /  F ield         | OpenFOAM: The Open Source CFD Toolbox           |
|  \\    /   O peration     | Version:  2.4.0                                 |
|   \\  /    A nd           | Web:      www.OpenFOAM.org                      |
|    \\/     M anipulation  |                                                 |
\*---------------------------------------------------------------------------*/
FoamFile
{
    version     2.0;
    format      ascii;
    class       volScalarField;
    location    "10000";
    object      k;
}
// * * * * * * * * * * * * * * * * * * * * * * * * * * * * * * * * * * * * * //

dimensions      [0 2 -2 0 0 0 0];

internalField   nonuniform List<scalar> 
15600
(
4.9255919e-06
9.9729224e-06
9.3353244e-06
8.4402994e-06
6.4699192e-05
5.2811507e-05
0.00024782946
0.00020195313
0.00067112241
0.0005490855
0.0014520333
0.0011977453
0.0026393014
0.0022077746
0.0041375742
0.00352862
0.005749153
0.005010218
0.0073028081
0.0065009587
0.0087176504
0.0079151774
0.0099861101
0.0092282619
0.011139954
0.010451514
0.012215979
0.011611077
0.013248926
0.012734648
0.014265489
0.013842016
0.015282245
0.014944278
0.016305957
0.016045762
0.017336871
0.017146114
0.018371384
0.018242377
1.8893374e-07
1.6751559e-07
1.2235953e-07
1.9006721e-07
2.4710015e-07
3.275129e-07
3.8117719e-07
4.1168519e-07
4.198977e-07
4.156209e-07
3.9847676e-07
3.7223813e-07
3.3859189e-07
3.0106793e-07
2.6039981e-07
2.3705035e-07
2.3578251e-07
2.7610011e-07
3.3293609e-07
4.9248174e-07
6.9074053e-07
1.122563e-06
1.1543875e-06
2.6129852e-06
1.9366107e-06
8.8977777e-07
1.6091464e-05
1.4449697e-07
1.2741826e-07
1.177421e-07
1.3269016e-07
1.4239269e-07
1.5285909e-07
1.5577532e-07
1.5349135e-07
1.4719214e-07
1.3901164e-07
1.2895258e-07
1.1794383e-07
1.066708e-07
9.2904815e-08
7.964351e-08
7.1600907e-08
6.9843994e-08
7.6054757e-08
8.8010036e-08
1.2136583e-07
1.6749731e-07
2.3688922e-07
2.3809906e-07
4.2813603e-07
5.9626267e-07
2.0526195e-06
8.9398291e-06
8.8605721e-07
7.8048886e-07
7.554922e-07
7.9646991e-07
8.0926592e-07
8.0321542e-07
7.6867409e-07
7.1946599e-07
6.6350026e-07
6.0657411e-07
5.4906575e-07
4.9400168e-07
4.4471501e-07
3.8081828e-07
3.2404886e-07
2.8824145e-07
2.7639315e-07
2.806472e-07
3.1061265e-07
3.6881596e-07
4.9590404e-07
5.4577825e-07
5.2026074e-07
3.7499198e-07
2.4419723e-06
1.4440694e-05
5.0059115e-05
3.3999418e-06
2.9949729e-06
2.9052026e-06
3.0530781e-06
3.0937158e-06
3.0580041e-06
2.9162987e-06
2.7214388e-06
2.5036937e-06
2.2840925e-06
2.064153e-06
1.8550473e-06
1.6693562e-06
1.4276659e-06
1.2143282e-06
1.0793804e-06
1.0337254e-06
1.0442322e-06
1.1516428e-06
1.3324145e-06
1.7852924e-06
1.9074279e-06
1.8024864e-06
1.0346931e-06
9.20751e-06
5.5821139e-05
0.00019041984
9.3657995e-06
8.250415e-06
8.0040946e-06
8.405171e-06
8.5132226e-06
8.4101561e-06
8.0172904e-06
7.4793819e-06
6.8792516e-06
6.2744524e-06
5.669284e-06
5.0943937e-06
4.5842871e-06
3.9192356e-06
3.3340147e-06
2.9634079e-06
2.837267e-06
2.8644327e-06
3.1574183e-06
3.6207278e-06
4.8447058e-06
5.154782e-06
4.8546098e-06
2.718626e-06
2.5607388e-05
0.00015464945
0.00051808817
2.1132572e-05
1.8615133e-05
1.8055034e-05
1.8943666e-05
1.9181176e-05
1.8943669e-05
1.8057527e-05
1.6846088e-05
1.5494591e-05
1.4132414e-05
1.2769657e-05
1.1475331e-05
1.0327132e-05
8.8258027e-06
7.510551e-06
6.6760607e-06
6.3898114e-06
6.449653e-06
7.1064866e-06
8.1083333e-06
1.0831977e-05
1.150682e-05
1.0792494e-05
6.049098e-06
5.8926938e-05
0.00035066803
0.0011341502
4.1825638e-05
3.6841017e-05
3.5716817e-05
3.7426897e-05
3.7880684e-05
3.740068e-05
3.5651949e-05
3.3264116e-05
3.0599509e-05
2.7912646e-05
2.5224694e-05
2.2671898e-05
2.040792e-05
1.7432622e-05
1.4844216e-05
1.3196793e-05
1.2624802e-05
1.2740212e-05
1.4029006e-05
1.5950594e-05
2.1259073e-05
2.2551799e-05
2.103112e-05
1.1875968e-05
0.00011990191
0.00069099262
0.0021072936
7.5446095e-05
6.6456046e-05
6.4388133e-05
6.7345188e-05
6.8121481e-05
6.7233001e-05
6.4094884e-05
5.9816023e-05
5.5039367e-05
5.0219525e-05
4.5397297e-05
4.0817537e-05
3.6757627e-05
3.1378517e-05
2.6747933e-05
2.3786055e-05
2.2739348e-05
2.2940102e-05
2.5236245e-05
2.8611948e-05
3.800463e-05
4.0247643e-05
3.7242e-05
2.1307549e-05
0.0002238399
0.0012180141
0.0034125744
0.00012686304
0.00011177731
0.00010821553
0.00011289348
0.00011409853
0.00011255565
0.00010731984
0.00010019477
9.223705e-05
8.4199811e-05
7.6156568e-05
6.8517004e-05
6.1743689e-05
5.2675078e-05
4.4973429e-05
4.0006905e-05
3.8223516e-05
3.8538275e-05
4.2334483e-05
4.7873923e-05
6.3281477e-05
6.6871092e-05
6.1250428e-05
3.5798015e-05
0.00039053504
0.0019489613
0.0049228661
0.00020154427
0.00017771975
0.00017190627
0.00017873058
0.00018043076
0.00017788557
0.00016966096
0.00015849754
0.00014602137
0.00013340414
0.00012077065
0.00010876798
9.8102986e-05
8.3673684e-05
7.1596357e-05
6.3725674e-05
6.0847482e-05
6.1298111e-05
6.7198389e-05
7.5793527e-05
9.9515923e-05
0.00010486968
9.4846865e-05
5.7332314e-05
0.00064124869
0.0028644854
0.0064825473
0.00030483192
0.00026922879
0.00026018025
0.00026936819
0.00027152935
0.00026752451
0.00025528662
0.00023872552
0.00022019674
0.00020142376
0.00018260718
0.00016472026
0.00014873728
0.00012692036
0.00010891964
9.7036962e-05
9.2595434e-05
9.3184265e-05
0.00010186999
0.0001145744
0.00014909384
0.00015657395
0.00013951414
8.8803941e-05
0.00099198753
0.0039191246
0.0079792485
0.00044069529
0.00039023129
0.00037675256
0.00038810885
0.00039052872
0.00038452703
0.00036724703
0.00034393017
0.00031779262
0.00029124007
0.00026457907
0.00023921113
0.00021630037
0.00018485784
0.00015924859
0.00014208304
0.00013549669
0.00013619028
0.00014834733
0.00016631428
0.00021395105
0.00022375583
0.00019612485
0.00013475607
0.0014458705
0.0050635225
0.0093585605
0.00061030041
0.00054230751
0.00052303124
0.00053576159
0.00053802327
0.00052948309
0.00050633193
0.00047516113
0.00044010868
0.00040436761
0.00036838509
0.00033410076
0.00030258431
0.00025936546
0.00022451551
0.00020073919
0.00019133192
0.00019204498
0.00020825032
0.00023262435
0.00029505736
0.00030709531
0.00026474422
0.00020272764
0.0019899949
0.0062600366
0.010606968
0.00081121192
0.00072374917
0.00069717411
0.00070981522
0.00071128591
0.00069974853
0.00067029982
0.00063069583
0.0005859556
0.00054011639
0.00049380327
0.0004496054
0.00040785884
0.00035123729
0.00030580785
0.00027419855
0.00026124395
0.00026182945
0.00028241735
0.00031419216
0.00039196275
0.00040573334
0.00034475457
0.00030522884
0.0026014709
0.0074860857
0.011732888
0.0010379437
0.00092976341
0.00089427358
0.00090481096
0.00090468569
0.0008898096
0.00085411857
0.00080613895
0.00075162304
0.00069544705
0.00063845125
0.00058398407
0.00053047516
0.00045983039
0.00040296871
0.00036258903
0.00034537446
0.00034562629
0.00037058145
0.00041046157
0.00050265821
0.00051716416
0.00043550694
0.00045610512
0.0032625689
0.0087299136
0.012754506
0.0012836568
0.0011538881
0.0011077676
0.0011139147
0.0011112787
0.0010927908
0.0010512886
0.00099553124
0.0009317712
0.0008656574
0.0007982804
0.00073386024
0.00066709677
0.00058306247
0.00051449844
0.00046482511
0.00044271776
0.00044238878
0.00047132094
0.00051963386
0.00062392104
0.0006376349
0.0005367545
0.00066296897
0.0039664607
0.0099857704
0.013692966
0.0015419624
0.0013897821
0.0013312467
0.0013308127
0.0013246081
0.0013022556
0.0012555258
0.0011928888
0.0011208069
0.0010455903
0.0009686117
0.0008947903
0.00081386618
0.00071780173
0.00063788018
0.00057883343
0.0005513282
0.00055015983
0.00058238069
0.00063906049
0.00075205441
0.00076292358
0.00064789524
0.00093174069
0.0047101777
0.011249911
0.01456883
0.0018079448
0.0016324455
0.0015597009
0.0015508384
0.0015398853
0.0015133692
0.0014619369
0.0013933683
0.0013140209
0.0012307269
0.0011451706
0.0010623275
0.00096713889
0.00086071772
0.0007702047
0.00070208253
0.00066882297
0.00066657566
0.00070123898
0.00076585834
0.00088392724
0.00088885856
0.00077006624
0.0012772688
0.0054936257
0.012517603
0.015400432
0.0020782866
0.0018785711
0.0017900452
0.0017710556
0.0017542177
0.0017231638
0.0016673789
0.0015936984
0.0015080893
0.0014177425
0.0013246867
0.0012327952
0.0011240069
0.0010089258
0.00090879056
0.00083215721
0.00079293729
0.00078940999
0.00082564314
0.00089745982
0.0010166388
0.0010127479
0.00090603028
0.0017241138
0.0063172441
0.013781358
0.016203376
0.0023508872
0.0021263003
0.002020705
0.0019900761
0.0019662636
0.0019302215
0.0018702328
0.0017920432
0.0017010262
0.0016045406
0.0015050043
0.0014034766
0.0012825337
0.001160296
0.0010515577
0.00096712578
0.00092188818
0.00091692185
0.00095390085
0.0010318835
0.0011482665
0.0011332744
0.0010594032
0.0023155487
0.0071766066
0.01503071
0.016990617
1.1745599e-06
1.2586099e-06
1.3527154e-06
1.4393185e-06
1.5327278e-06
1.6197381e-06
1.7072775e-06
1.7881907e-06
1.8646146e-06
1.9327071e-06
1.9924162e-06
2.0414958e-06
2.0792097e-06
2.1042103e-06
2.1157224e-06
2.1130417e-06
2.0959078e-06
2.0641777e-06
2.0172799e-06
1.9558437e-06
1.8792119e-06
1.7894736e-06
1.6845859e-06
1.5697212e-06
1.4380279e-06
1.3018899e-06
1.1389474e-06
9.8382901e-07
7.7088124e-07
6.1103525e-07
3.0567233e-07
1.1297167e-06
1.143783e-06
1.1572439e-06
1.1684461e-06
1.1796972e-06
1.187862e-06
1.1940511e-06
1.1966171e-06
1.195964e-06
1.1912923e-06
1.1826332e-06
1.1696164e-06
1.1522197e-06
1.1303329e-06
1.1039852e-06
1.0732106e-06
1.0382117e-06
9.9906372e-07
9.5599421e-07
9.0913017e-07
8.5893732e-07
8.0547019e-07
7.493979e-07
6.9065222e-07
6.2970995e-07
5.668873e-07
5.0010479e-07
4.3369178e-07
3.5501809e-07
2.8955967e-07
1.7611599e-07
7.2410862e-06
7.2583224e-06
7.2604939e-06
7.2535847e-06
7.2399066e-06
7.2097944e-06
7.1643125e-06
7.0986137e-06
7.0134881e-06
6.9069538e-06
6.7793321e-06
6.6301797e-06
6.4601091e-06
6.2697073e-06
6.0600075e-06
5.8319889e-06
5.5874379e-06
5.3270914e-06
5.0532553e-06
4.7662213e-06
4.4701731e-06
4.1633249e-06
3.8528423e-06
3.5327791e-06
3.2139099e-06
2.8855968e-06
2.5557266e-06
2.2204058e-06
1.853835e-06
1.5306605e-06
1.0005394e-06
2.7806829e-05
2.7860551e-05
2.7854861e-05
2.7815058e-05
2.7748219e-05
2.7618815e-05
2.7430012e-05
2.7164129e-05
2.6823906e-05
2.6402262e-05
2.5900446e-05
2.5317076e-05
2.4654622e-05
2.3915547e-05
2.3103948e-05
2.2223688e-05
2.1281653e-05
2.0280763e-05
1.9229999e-05
1.8130385e-05
1.6998166e-05
1.5826126e-05
1.4642235e-05
1.3422752e-05
1.221031e-05
1.0961994e-05
9.7115476e-06
8.4389096e-06
7.0538044e-06
5.829052e-06
3.8259713e-06
7.6435833e-05
7.6576062e-05
7.6553597e-05
7.6437169e-05
7.6246599e-05
7.5884433e-05
7.5359149e-05
7.4622691e-05
7.3682442e-05
7.2519237e-05
7.1136489e-05
6.9530542e-05
6.7708191e-05
6.567625e-05
6.3445962e-05
6.1027936e-05
5.844096e-05
5.5693035e-05
5.2808773e-05
4.9790871e-05
4.6683864e-05
4.3467763e-05
4.0219388e-05
3.6873222e-05
3.354665e-05
3.0121252e-05
2.6690493e-05
2.3198329e-05
1.9397516e-05
1.6037981e-05
1.0538917e-05
0.00017165921
0.00017195132
0.00017188141
0.00017159969
0.00017115291
0.00017032232
0.00016912678
0.00016746001
0.0001653383
0.00016271944
0.00015961105
0.00015600525
0.00015191722
0.00014736221
0.00014236521
0.00013694977
0.00013115768
0.00012500632
0.00011855034
0.00011179532
0.00010484034
9.7640165e-05
9.036626e-05
8.2871346e-05
7.5418191e-05
6.77411e-05
6.0049136e-05
5.2217685e-05
4.3686418e-05
3.6152374e-05
2.3789371e-05
0.00033660792
0.0003370979
0.0003368879
0.00033626203
0.00033531683
0.00033362542
0.00033122455
0.00032791124
0.00032371682
0.00031856129
0.00031245961
0.00030539734
0.0002974039
0.00028850891
0.00027876027
0.00026820282
0.00025691669
0.00024493394
0.00023235934
0.00021920195
0.00020565232
0.00019162042
0.00017743816
0.00016281636
0.00014826621
0.00013326789
0.00011822707
0.00010290363
8.6181044e-05
7.1427248e-05
4.7105818e-05
0.00059672089
0.00059734482
0.00059675295
0.0005954292
0.00059354962
0.00059036867
0.00058595139
0.00057995269
0.00057242719
0.00056324038
0.00055241898
0.00053993985
0.00052585405
0.00051021275
0.00049309744
0.00047458327
0.00045480674
0.00043381841
0.00041179643
0.0003887512
0.00036500877
0.00034040579
0.00031551652
0.00028982774
0.00026423166
0.00023781018
0.00021126808
0.00018419023
0.00015454632
0.00012841365
8.4997905e-05
0.00097360556
0.00097405062
0.00097256619
0.00096992117
0.00096638602
0.00096078675
0.00095322899
0.00094318227
0.00093073422
0.0009156808
0.00089806585
0.00087785602
0.00085513127
0.00082997096
0.00080249921
0.00077282804
0.0007411668
0.00070758279
0.00067234727
0.00063546397
0.00059743522
0.00055798623
0.0005180169
0.00047669014
0.00043542278
0.00039272624
0.00034970912
0.000305719
0.00025731143
0.00021465838
0.0001429144
0.0014750271
0.001474657
0.0014714595
0.0014666111
0.0014604345
0.0014512599
0.0014392444
0.0014236437
0.0014045866
0.0013817901
0.0013553191
0.0013251291
0.0012913331
0.0012540418
0.0012134255
0.001169634
0.0011229582
0.0010734743
0.0010215528
0.00096717553
0.00091104348
0.00085272747
0.00079351145
0.00073213282
0.00067064854
0.00060682874
0.00054225077
0.00047598199
0.00040250404
0.00033777097
0.00022687765
0.0020867004
0.002084701
0.0020788757
0.0020709177
0.0020611091
0.0020472796
0.0020296445
0.0020072394
0.0019802359
0.0019482696
0.0019114261
0.0018696476
0.001823079
0.0017718603
0.0017162047
0.001656295
0.0015925003
0.0015249023
0.0014539552
0.0013796033
0.0013027399
0.0012227472
0.0011413024
0.001056643
0.0009715077
0.00088280361
0.00079255129
0.0006995484
0.00059540528
0.00050367755
0.00034259841
0.0027749991
0.0027707285
0.0027616711
0.0027500166
0.0027359542
0.0027168521
0.002692979
0.002663166
0.002627619
0.0025858945
0.0025380919
0.0024841368
0.002424199
0.0023584417
0.0022871124
0.0022104205
0.0021287952
0.0020423427
0.0019515647
0.0018563629
0.0017577952
0.001655046
0.0015501451
0.0014408132
0.0013304208
0.0012149893
0.0010968443
0.00097461815
0.00083620672
0.00071444428
0.00049407322
0.0035007801
0.0034940049
0.0034816162
0.0034661637
0.0034477598
0.0034233655
0.0033932888
0.0033561838
0.0033122748
0.0032610445
0.0032025945
0.0031368292
0.0030639321
0.0029840808
0.002897546
0.0028045568
0.0027055782
0.0026007657
0.0024906379
0.0023750597
0.0022552176
0.0021301215
0.0020020851
0.0018683639
0.0017328465
0.0015907644
0.001444537
0.0012928507
0.0011191709
0.00096686803
0.00068214387
0.0042326636
0.0042235076
0.0042080569
0.0041890837
0.0041666475
0.0041373647
0.0041015649
0.0040577564
0.0040061647
0.0039462054
0.0038779704
0.0038013386
0.0037164958
0.0036236237
0.0035230045
0.0034148789
0.0032997287
0.0031777577
0.0030494997
0.0029147872
0.0027749
0.0026287158
0.0024787582
0.002321916
0.0021624607
0.0019950206
0.0018218928
0.0016421261
0.0014343381
0.001253084
0.00090391617
0.0049515801
0.0049403461
0.0049222445
0.0049001896
0.004874191
0.0048405833
0.0047997018
0.0047499383
0.004691506
0.0046237609
0.0045467763
0.0044604032
0.0043648205
0.0042602059
0.0041468427
0.0040249757
0.0038950889
0.0037574157
0.0036125176
0.0034601935
0.0033017846
0.0031360787
0.002965739
0.0027873975
0.0026055769
0.0024145185
0.0022162174
0.0020104081
0.0017707991
0.0015630802
0.0011536258
0.0056486729
0.0056356952
0.0056153517
0.0055906579
0.0055615642
0.0055241788
0.0054788308
0.0054238204
0.0053593394
0.0052846921
0.0051999278
0.0051048698
0.0049996841
0.0048845396
0.0047597135
0.0046254493
0.0044822235
0.0043302786
0.0041702111
0.0040017875
0.0038263811
0.003642724
0.0034535559
0.0032553466
0.0030527526
0.0028398204
0.0026181072
0.0023882903
0.0021194003
0.0018874994
0.0014245041
0.0063214735
0.0063070276
0.0062847959
0.0062578449
0.0062260542
0.0061853515
0.0061360525
0.0060763858
0.006006516
0.0059257032
0.0058339704
0.0057311144
0.0056172859
0.0054926423
0.0053574513
0.0052119516
0.0050566079
0.0048916576
0.0047177276
0.0045345613
0.0043435387
0.004143362
0.003936794
0.0037202169
0.0034983197
0.0032651026
0.0030215896
0.0027695482
0.0024737517
0.0022192498
0.0017105177
0.0069708258
0.0069551176
0.0069312884
0.0069023888
0.0068682188
0.0068245636
0.006771721
0.0067078639
0.0066331266
0.0065467311
0.0064486731
0.0063387258
0.0062170234
0.0060837109
0.0059390454
0.0057832596
0.0056168043
0.0054399061
0.00525321
0.0050564502
0.0048509941
0.0046355333
0.0044128122
0.0041791821
0.003939284
0.0036871752
0.0034232929
0.0031505326
0.002829939
0.002553735
0.0020072266
0.0075990371
0.0075822096
0.0075570207
0.0075264174
0.0074901161
0.007443791
0.00738772
0.0073200326
0.0072408311
0.0071493045
0.0070454219
0.0069289344
0.0067999603
0.0066586323
0.0065051969
0.0063398804
0.0061631195
0.005975129
0.0057765595
0.0055671491
0.0053482381
0.0051185241
0.0048807022
0.004631136
0.0043743586
0.0041045516
0.0038215538
0.003529334
0.0031857997
0.0028883472
0.002311808
0.0082089007
0.0081910463
0.008164696
0.0081325836
0.0080943446
0.0080455679
0.0079865115
0.0079152712
0.0078319167
0.0077356082
0.0076262885
0.007503689
0.0073679125
0.0072190796
0.0070574276
0.006883176
0.0066967481
0.0064983479
0.0062886222
0.006067322
0.0058357516
0.0055926283
0.0053405752
0.0050760018
0.0048032914
0.0045167885
0.0042157624
0.0039051264
0.0035402826
0.0032218265
0.002622685
2.8173881e-05
1.0184134e-05
2.0316936e-05
1.5906767e-05
1.6936216e-05
1.6441792e-05
1.6426747e-05
1.6263789e-05
1.6137986e-05
1.5987608e-05
1.5827013e-05
1.56517e-05
1.5470467e-05
1.5282437e-05
1.5090251e-05
1.4893375e-05
1.4696803e-05
1.4498449e-05
1.4298486e-05
1.4097554e-05
1.3897577e-05
1.3697846e-05
1.3497926e-05
1.3301922e-05
1.310938e-05
1.291605e-05
1.2724784e-05
1.2521921e-05
1.2324969e-05
1.2126401e-05
1.1922974e-05
1.1734208e-05
1.1548235e-05
1.1366609e-05
1.1188359e-05
1.1013158e-05
1.0840998e-05
1.0671789e-05
1.0505663e-05
1.0342546e-05
1.0182618e-05
1.0025974e-05
9.872949e-06
9.7235827e-06
9.578161e-06
9.4366475e-06
9.2995447e-06
9.16657e-06
9.0380926e-06
8.9136635e-06
8.794396e-06
8.6794806e-06
8.570547e-06
8.4656714e-06
8.368617e-06
8.2723601e-06
8.1913383e-06
8.0928875e-06
8.0451483e-06
7.9133439e-06
7.8426108e-06
5.2109308e-06
6.8614976e-06
6.1580761e-06
6.346982e-06
6.2985604e-06
6.3280096e-06
6.3279528e-06
6.3337591e-06
6.3324809e-06
6.3282067e-06
6.3182379e-06
6.3061919e-06
6.2894712e-06
6.2708008e-06
6.2478988e-06
6.2240406e-06
6.1965427e-06
6.1675415e-06
6.135598e-06
6.1024742e-06
6.0668654e-06
6.0298294e-06
5.9915118e-06
5.9524098e-06
5.9110694e-06
5.8681427e-06
5.820986e-06
5.7744249e-06
5.7238835e-06
5.6723986e-06
5.6224442e-06
5.5723024e-06
5.5215988e-06
5.4708006e-06
5.419239e-06
5.3675179e-06
5.3151072e-06
5.2625901e-06
5.2095789e-06
5.1565017e-06
5.1031735e-06
5.0500231e-06
4.9967959e-06
4.9440927e-06
4.8912603e-06
4.8395798e-06
4.7874505e-06
4.736326e-06
4.6843296e-06
4.6347181e-06
4.5840123e-06
4.5367944e-06
4.4878648e-06
4.4436131e-06
4.3964894e-06
4.3556977e-06
4.3086792e-06
4.2754324e-06
4.2139322e-06
2.9241769e-05
2.8354028e-05
3.0123493e-05
2.9466554e-05
2.9810503e-05
2.9964874e-05
3.0202335e-05
3.037285e-05
3.0548673e-05
3.0697055e-05
3.0833757e-05
3.0943229e-05
3.1043368e-05
3.1115592e-05
3.1177568e-05
3.1212748e-05
3.124044e-05
3.1242713e-05
3.1235408e-05
3.1207059e-05
3.1168856e-05
3.111176e-05
3.1044163e-05
3.0962839e-05
3.0871992e-05
3.0765183e-05
3.0644306e-05
3.0503908e-05
3.0361746e-05
3.0191444e-05
3.0019173e-05
2.9842974e-05
2.9662425e-05
2.9473092e-05
2.9279499e-05
2.9076974e-05
2.8870052e-05
2.8654855e-05
2.8435618e-05
2.820951e-05
2.7979553e-05
2.774426e-05
2.7506495e-05
2.7264306e-05
2.7021899e-05
2.6774413e-05
2.6530927e-05
2.6279733e-05
2.6031345e-05
2.5772165e-05
2.5525444e-05
2.5265942e-05
2.5026309e-05
2.4769574e-05
2.45397e-05
2.4287446e-05
2.406667e-05
2.3817514e-05
2.3618302e-05
2.3295629e-05
0.00010841994
0.00010785651
0.00011298219
0.00011122526
0.00011236513
0.0001130457
0.00011395922
0.00011464284
0.00011534026
0.00011593647
0.00011648944
0.00011693985
0.00011735523
0.00011766421
0.00011793443
0.0001181022
0.00011824106
0.00011828248
0.00011828721
0.00011821084
0.00011809668
0.00011790964
0.00011768211
0.00011740098
0.0001170827
0.00011670306
0.0001162691
0.00011576193
0.00011524642
0.00011462329
0.00011399282
0.00011334474
0.00011267955
0.00011197976
0.00011126299
0.00011051126
0.00010974205
0.00010894041
0.00010812265
0.00010727787
0.00010641768
0.00010553633
0.0001046448
0.00010373557
0.00010282479
0.00010189376
0.00010097736
0.00010003049
9.9093632e-05
9.8114505e-05
9.7182514e-05
9.62005e-05
9.5294074e-05
9.4320979e-05
9.3450212e-05
9.2492822e-05
9.1654675e-05
9.0709311e-05
8.9948843e-05
8.8728085e-05
0.00029331004
0.00029386925
0.00030616967
0.00030226815
0.00030511488
0.00030705979
0.00030952394
0.00031140723
0.00031332007
0.00031496498
0.00031649504
0.00031774898
0.00031890893
0.00031978154
0.00032055029
0.00032104177
0.00032145501
0.00032160478
0.0003216568
0.00032148518
0.00032121457
0.00032074526
0.00032016563
0.00031943944
0.0003186124
0.00031761873
0.00031647856
0.00031514161
0.00031377804
0.00031212505
0.00031044965
0.00030872347
0.00030695073
0.00030508279
0.00030316783
0.00030115682
0.00029909736
0.00029694866
0.00029475517
0.00029248706
0.00029017601
0.00028780623
0.00028540757
0.00028295959
0.0002805061
0.00027799633
0.00027552499
0.00027296929
0.00027043949
0.00026779352
0.00026527458
0.0002626181
0.00026016618
0.00025753116
0.00025517387
0.00025257865
0.00025030838
0.00024774369
0.00024568022
0.00024238397
0.0006387954
0.00064439462
0.00066729115
0.00066087246
0.00066646009
0.00067090683
0.00067620835
0.00068036868
0.00068457884
0.00068823038
0.00069164453
0.00069446999
0.00069709835
0.0006991115
0.00070090656
0.0007021057
0.00070313838
0.00070360526
0.00070386846
0.00070363593
0.00070320307
0.00070233742
0.0007012321
0.00069980644
0.00069816289
0.00069615795
0.00069383979
0.00069110078
0.00068829176
0.00068486427
0.00068137944
0.00067777521
0.00067406852
0.00067015041
0.00066612652
0.00066188957
0.00065754326
0.00065299833
0.00064835183
0.00064353814
0.00063862641
0.00063358179
0.00062846914
0.0006232439
0.00061800109
0.0006126304
0.00060733756
0.00060185434
0.00059642171
0.00059073052
0.00058531096
0.00057958496
0.00057430029
0.00056860857
0.00056351979
0.00055790155
0.00055299525
0.00054743148
0.0005429621
0.00053585707
0.0011826743
0.0012002349
0.0012348127
0.0012269675
0.0012361413
0.0012446371
0.0012542192
0.0012619711
0.0012698049
0.0012766773
0.0012831559
0.0012885946
0.0012936998
0.0012977116
0.0013013519
0.0013039267
0.0013062133
0.0013074887
0.0013084172
0.0013084262
0.0013081054
0.0013069969
0.0013054538
0.0013033241
0.001300802
0.0012976227
0.0012938876
0.0012894014
0.0012847597
0.0012790163
0.001273147
0.0012670387
0.001260738
0.0012540384
0.001247135
0.0012398297
0.0012323127
0.001224419
0.0012163271
0.0012079146
0.0011993087
0.001190444
0.0011814389
0.0011722114
0.0011629343
0.0011534059
0.0011440022
0.001134228
0.0011245284
0.0011143359
0.001104626
0.0010943307
0.0010848321
0.0010745587
0.0010653857
0.0010552032
0.0010463409
0.0010362154
0.0010281184
0.0010152836
0.0019149838
0.0019499371
0.0019941646
0.0019874945
0.002000601
0.00201436
0.0020292648
0.0020417128
0.0020543134
0.0020655142
0.0020761848
0.0020852947
0.0020939424
0.0021009384
0.0021074129
0.0021122648
0.002116705
0.0021196062
0.002122006
0.0021229895
0.0021234773
0.0021227338
0.0021213584
0.002119047
0.0021161354
0.0021121996
0.0021074307
0.0021015158
0.0020953074
0.0020874299
0.0020793136
0.0020707877
0.0020619505
0.0020524624
0.0020426347
0.0020321504
0.0020213108
0.0020098514
0.0019980562
0.0019857263
0.0019730643
0.0019599623
0.001946607
0.0019328669
0.0019190125
0.0019047259
0.0018905979
0.001875838
0.0018611571
0.0018456568
0.0018308847
0.0018151351
0.0018006167
0.0017848086
0.0017707293
0.0017549626
0.0017413216
0.0017255387
0.0017130376
0.0016932037
0.0027690877
0.0028189574
0.0028708841
0.0028675591
0.0028845184
0.0029037424
0.0029241867
0.0029418027
0.0029597028
0.002975838
0.0029913864
0.0030048867
0.0030178514
0.0030286349
0.0030388042
0.0030468104
0.0030543221
0.0030597859
0.0030646271
0.0030675573
0.0030698825
0.0030704407
0.0030702676
0.0030687674
0.0030664696
0.0030627711
0.0030579937
0.0030516842
0.0030448939
0.0030359087
0.0030265283
0.0030165399
0.0030061126
0.0029947523
0.0029828971
0.0029700979
0.0029567769
0.0029425584
0.0029278423
0.0029123414
0.0028963413
0.0028796842
0.0028626285
0.0028449893
0.0028271366
0.002808631
0.0027902859
0.0027709894
0.0027517446
0.0027312986
0.0027118114
0.0026908802
0.0026716173
0.0026504524
0.0026316786
0.0026103971
0.0025921541
0.002570659
0.0025539002
0.0025271808
0.0036525843
0.0037066907
0.0037664894
0.0037669905
0.0037877805
0.0038115896
0.0038370981
0.00385972
0.003882829
0.0039039462
0.0039245216
0.003942676
0.0039602941
0.0039753073
0.0039896981
0.0040014807
0.0040127499
0.0040215556
0.0040296779
0.0040354647
0.0040405821
0.0040434805
0.0040456075
0.0040459082
0.0040454185
0.0040431375
0.0040396075
0.0040342242
0.0040281353
0.0040194715
0.0040102226
0.0040001675
0.0039895574
0.0039777391
0.0039652736
0.0039515805
0.0039371988
0.003921643
0.0039054266
0.0038881711
0.0038702443
0.0038514358
0.0038320708
0.0038119136
0.0037914201
0.0037700447
0.0037487944
0.0037262563
0.0037037169
0.0036795938
0.0036566078
0.003631698
0.0036088314
0.0035834296
0.0035610237
0.0035352395
0.003513413
0.0034870919
0.003467007
0.0034347477
0.0044888044
0.0045344447
0.0046030326
0.0046067208
0.0046316806
0.004658645
0.0046884483
0.004715579
0.004743464
0.0047692728
0.0047946772
0.0048174029
0.0048396794
0.0048590406
0.0048778516
0.0048937262
0.004909131
0.0049217669
0.0049337184
0.0049429977
0.0049515881
0.0049575969
0.0049628217
0.0049658145
0.0049680493
0.0049680262
0.0049668458
0.004963497
0.0049592178
0.0049522183
0.0049444175
0.0049356278
0.0049261854
0.0049152844
0.0049035976
0.0048904213
0.0048764018
0.0048609509
0.0048446884
0.0048271455
0.0048087692
0.0047892962
0.0047691098
0.0047479316
0.0047262815
0.0047035356
0.0046808435
0.0046565452
0.004632186
0.0046058959
0.0045808555
0.0045534435
0.0045283596
0.004500144
0.0044754261
0.0044464838
0.0044223573
0.0043924659
0.0043702268
0.0043342195
0.0052346879
0.0052748766
0.0053421275
0.005351877
0.005380885
0.0054102679
0.0054435603
0.0054746674
0.0055067752
0.0055367961
0.0055665699
0.0055934778
0.0056200362
0.0056434529
0.005666422
0.0056862046
0.0057055882
0.0057219716
0.0057376996
0.0057504845
0.005762583
0.0057718058
0.0057802505
0.0057861097
0.0057912653
0.005793817
0.0057952144
0.0057942194
0.005792354
0.0057880632
0.0057827275
0.0057762373
0.0057690056
0.0057600858
0.005750252
0.005738685
0.0057261293
0.005711902
0.005696722
0.0056800314
0.0056623549
0.0056433765
0.0056235299
0.005602503
0.0055808569
0.0055579224
0.0055349322
0.005510084
0.0054851771
0.0054580345
0.0054321883
0.0054035746
0.0053774814
0.0053477244
0.0053218519
0.0052909765
0.005265677
0.0052333951
0.005210013
0.0051718699
0.0058759797
0.0059138391
0.0059767443
0.0059926684
0.006025141
0.0060563576
0.0060924241
0.0061269383
0.0061627167
0.0061964778
0.0062301881
0.0062609314
0.0062914645
0.0063187282
0.0063456931
0.0063693344
0.0063926869
0.0064128939
0.0064325224
0.0064490114
0.0064648567
0.0064776063
0.0064896155
0.0064987472
0.0065072631
0.0065128769
0.006517472
0.0065193325
0.0065204438
0.0065191336
0.0065166246
0.0065127797
0.0065081017
0.0065015233
0.0064939127
0.0064843438
0.0064736527
0.0064610698
0.0064474075
0.0064320181
0.0064155061
0.0063975023
0.0063784845
0.0063581164
0.0063369773
0.0063143894
0.0062916044
0.0062669019
0.0062423853
0.0062153631
0.0061896183
0.0061607665
0.0061345378
0.0061041856
0.0060779878
0.0060460997
0.0060204219
0.0059866597
0.005962817
0.0059237002
0.0064153406
0.0064501776
0.0065067865
0.0065285666
0.0065630128
0.0065959272
0.0066341036
0.0066714044
0.0067102421
0.0067471989
0.0067843348
0.0068184871
0.0068526115
0.0068834357
0.0069141634
0.0069415272
0.0069687723
0.0069928079
0.0070163871
0.0070367038
0.007056464
0.0070729796
0.0070888283
0.0071015716
0.0071138218
0.0071229197
0.0071311873
0.007136458
0.0071411477
0.0071432309
0.0071441912
0.0071435888
0.0071420633
0.0071384478
0.007133696
0.0071267798
0.0071186221
0.0071083704
0.0070969265
0.0070835497
0.0070689288
0.0070526364
0.007035192
0.0070162404
0.0069963599
0.0069748953
0.006953066
0.0069291608
0.0069054332
0.0068789745
0.00685372
0.0068250936
0.0067991104
0.0067686375
0.0067424712
0.0067100572
0.006684334
0.0066496154
0.0066255638
0.0065860685
0.0068592502
0.0068907058
0.0069396105
0.0069662293
0.0070014369
0.0070358065
0.0070754609
0.0071148716
0.0071560815
0.0071955968
0.0072355474
0.0072725794
0.0073098118
0.007343807
0.0073779655
0.0074088087
0.0074397673
0.0074675167
0.0074949953
0.0075191499
0.0075428837
0.0075632899
0.0075831419
0.0075997273
0.0076159767
0.0076288731
0.0076411736
0.0076502875
0.0076589714
0.0076649479
0.0076698994
0.0076730008
0.0076751864
0.0076750303
0.007673741
0.0076700648
0.0076650428
0.007657744
0.0076491547
0.0076384366
0.0076263698
0.0076124605
0.0075972704
0.0075804273
0.0075624935
0.0075428636
0.0075226757
0.0075002763
0.0074779901
0.0074527791
0.0074286462
0.0074009362
0.0073758105
0.007345904
0.0073203453
0.0072880919
0.0072628623
0.0072278812
0.007204102
0.0071649007
0.0072179835
0.0072461446
0.0072865463
0.0073164805
0.0073515368
0.0073870107
0.007427519
0.0074683023
0.0075111131
0.0075524495
0.0075944968
0.0076337707
0.0076735231
0.0077101929
0.0077473457
0.0077813135
0.0078156945
0.0078469252
0.0078781299
0.0079060012
0.0079336571
0.0079579535
0.0079818516
0.0080023908
0.0080227839
0.0080396769
0.0080562503
0.0080695123
0.0080824964
0.008092729
0.0081020324
0.0081092415
0.0081155505
0.008119336
0.0081219162
0.0081218716
0.008120556
0.0081167283
0.0081115268
0.0081040132
0.0080950652
0.0080841122
0.0080717616
0.0080576224
0.0080422301
0.0080250521
0.008007098
0.0079868372
0.0079665954
0.0079432723
0.0079208555
0.0078947172
0.0078710276
0.0078423413
0.0078179327
0.0077865026
0.0077622694
0.0077276985
0.0077046548
0.0076663246
0.007503428
0.0075285522
0.00756026
0.0075917371
0.0076259718
0.0076621053
0.0077028164
0.0077441696
0.0077877273
0.0078300527
0.007873379
0.0079141581
0.0079557476
0.0079944977
0.0080341084
0.008070738