0 	0 	0 	0 	0 	0 	0
0.0010637159 	0.0024682166 	-0.00032959923 	5.6612756e-27 	0.0024699683 	-7.2039334e-26 	0.0024690837
0.0022067933 	0.0040911095 	-0.00081956448 	5.5309549e-26 	0.0041002182 	2.3041708e-25 	0.0040956346
0.0034351532 	0.0054452878 	-0.0012574609 	4.5591055e-26 	0.0054709598 	1.3180168e-24 	0.0054581204
0.0047551584 	0.0065059537 	-0.0015256128 	-1.036859e-25 	0.0065578861 	6.5383942e-25 	0.0065319697
0.0061736463 	0.0073633847 	-0.0016887551 	1.5665878e-25 	0.0074504994 	-1.7440358e-24 	0.0074069985
0.0076979646 	0.0080874082 	-0.0018020022 	7.8183385e-25 	0.0082178782 	-8.7032166e-25 	0.0081526789
0.0093360089 	0.0087207868 	-0.00189093 	3.0313546e-25 	0.0089023957 	-6.9133949e-26 	0.0088116113
0.011096264 	0.0092898022 	-0.0019675398 	3.3022586e-26 	0.0095302707 	3.5622052e-25 	0.0094100492
0.012987848 	0.0098113417 	-0.0020380883 	-7.7474542e-26 	0.010118516 	-2.8486167e-25 	0.0099649379
0.015020559 	0.010296781 	-0.0021062007 	9.8679328e-25 	0.010678738 	-2.6711702e-24 	0.010487766
0.017204926 	0.010754111 	-0.0021741878 	2.4282646e-24 	0.011219236 	2.6478766e-24 	0.010986678
0.019552264 	0.011189155 	-0.0022436577 	-1.2822695e-25 	0.01174619 	3.6302185e-24 	0.011467676
0.022074732 	0.011606297 	-0.0023158254 	-1.6116237e-25 	0.012264382 	-8.2934858e-24 	0.011935342
0.024785396 	0.012008927 	-0.0023916797 	4.8492688e-24 	0.012777628 	-5.1566066e-24 	0.01239328
0.027698296 	0.012399746 	-0.0024720797 	1.8236777e-24 	0.013289066 	8.1002187e-24 	0.012844408
0.030828522 	0.012780954 	-0.0025578148 	-1.1592377e-24 	0.013801347 	4.3185293e-24 	0.013291152
0.034192287 	0.013154396 	-0.002649641 	-3.8377934e-24 	0.014316756 	-1.2003161e-23 	0.013735577
0.037807015 	0.013521656 	-0.0027483058 	1.404805e-24 	0.01483731 	-8.1363704e-24 	0.014179483
0.04169143 	0.013884136 	-0.0028545711 	-6.7607607e-24 	0.015364814 	2.1528224e-23 	0.014624475
0.045865653 	0.01424311 	-0.0029692209 	-1.8859692e-23 	0.015900911 	1.1490228e-23 	0.015072011
0.050351306 	0.014599772 	-0.0030930751 	-1.1763156e-23 	0.016447112 	-1.3641739e-23 	0.015523442
0.055171623 	0.014955274 	-0.0032270009 	-6.7931051e-24 	0.017004817 	-1.3287883e-23 	0.015980045
0.060351574 	0.015310753 	-0.0033719118 	9.0322408e-24 	0.017575332 	-1.1976874e-23 	0.016443042
0.06591799 	0.015667368 	-0.0035287813 	5.0308203e-24 	0.018159876 	7.2515967e-24 	0.016913621
0.071899704 	0.01602632 	-0.0036986438 	8.8991233e-24 	0.018759589 	-1.4178668e-23 	0.017392953
0.078327701 	0.016388873 	-0.0038825992 	6.2467159e-23 	0.019375527 	-2.3577516e-23 	0.017882199
0.085235276 	0.016756384 	-0.0040818188 	7.8574873e-23 	0.020008664 	4.2010931e-23 	0.018382523
0.092658211 	0.017130313 	-0.0042975447 	2.0845517e-23 	0.020659882 	3.1616419e-23 	0.018895097
0.10063495 	0.01751225 	-0.0045310882 	5.5800472e-23 	0.021329963 	-3.4444318e-23 	0.019421105
0.10920683 	0.017903924 	-0.0047838268 	8.2116455e-24 	0.022019574 	2.8948148e-23 	0.019961748
0.11841823 	0.018307221 	-0.0050572103 	-1.37687e-22 	0.022729248 	1.3978451e-23 	0.020518234
0.12831687 	0.018724192 	-0.0053527437 	4.3547556e-23 	0.02345937 	-1.1211616e-22 	0.021091781
0.13895403 	0.019157061 	-0.0056719746 	3.1152487e-22 	0.024210139 	-1.378283e-23 	0.021683601
0.1503848 	0.01960822 	-0.0060164908 	5.5177943e-23 	0.024981545 	1.289361e-22 	0.022294884
0.1626684 	0.020080222 	-0.0063878819 	-2.2175597e-22 	0.025773326 	8.3031278e-23 	0.022926777
0.17586845 	0.020575764 	-0.0067877075 	-6.9895941e-23 	0.02658492 	3.4887013e-23 	0.023580346
0.19005333 	0.021097654 	-0.0072174726 	-1.1352424e-22 	0.027415404 	1.5969164e-22 	0.024256535
0.20529651 	0.021648763 	-0.0076785743 	-3.3311619e-22 	0.02826342 	1.0200755e-23 	0.024956098
0.22167696 	0.022231955 	-0.0081722227 	-9.3154125e-23 	0.029127086 	-1.6254984e-22 	0.025679529
0.23927951 	0.022849994 	-0.0086993525 	-5.6989597e-22 	0.030003881 	-6.4474901e-23 	0.026426948
0.25819535 	0.023505416 	-0.0092605333 	7.8450884e-23 	0.030890507 	2.0981082e-24 	0.027197975
0.27852246 	0.024200367 	-0.0098558399 	1.9446871e-22 	0.031782724 	2.1300694e-22 	0.02799156
0.30036613 	0.024936385 	-0.010484668 	1.2627902e-22 	0.032675134 	-2.4795858e-22 	0.028805776
0.32383951 	0.025714138 	-0.011145545 	9.0038339e-22 	0.033560948 	-1.4852838e-22 	0.029637563
0.34906419 	0.026533086 	-0.011835895 	-2.1484197e-22 	0.03443169 	5.0335461e-22 	0.030482411
0.37617083 	0.027391072 	-0.012551738 	-1.4938377e-22 	0.03527687 	-4.6755735e-22 	0.031333996
0.40529983 	0.028283822 	-0.013287357 	1.3411039e-21 	0.036083622 	-7.1281668e-22 	0.03218375
0.43660209 	0.029204361 	-0.0140349 	-1.2516323e-23 	0.036836325 	8.0654049e-22 	0.033020375
0.47023974 	0.030142336 	-0.014783933 	-1.2986602e-21 	0.037516234 	4.0609773e-22 	0.033829322
0.50638702 	0.031083258 	-0.01552096 	1.4872438e-21 	0.038101197 	-6.5414146e-22 	0.034592268
0.54523117 	0.032007715 	-0.016228934 	9.5786237e-22 	0.038565516 	1.3399976e-21 	0.035286645
0.5869734 	0.032890604 	-0.016886856 	-5.1085602e-22 	0.038879922 	1.4025464e-21 	0.03588532
0.63182993 	0.033700459 	-0.01746984 	-1.3682696e-21 	0.039012025 	-2.4496595e-22 	0.03635636
0.6800331 	0.03439659 	-0.017945472 	-4.8226819e-22 	0.038924682 	6.5097034e-22 	0.036660709
0.73183261 	0.034938131 	-0.018282295 	5.4594623e-22 	0.038589408 	1.8812305e-22 	0.036763793
0.78749677 	0.035278989 	-0.01844613 	-2.5042428e-21 	0.037980892 	-1.6263429e-21 	0.036630014
0.84731391 	0.035365719 	-0.018398442 	1.2488745e-21 	0.037074465 	-2.0937781e-21 	0.036220166
0.91159388 	0.035152069 	-0.018108538 	9.4245644e-21 	0.03586397 	-8.9442559e-22 	0.035508039
0.98066963 	0.034603269 	-0.017555343 	8.0062169e-21 	0.034364204 	1.2432273e-21 	0.034483697
1.054899 	0.033705416 	-0.016735478 	-5.9884734e-21 	0.032615605 	2.1143952e-21 	0.033160391
1.1346664 	0.032474146 	-0.015670033 	-5.3572544e-21 	0.030684192 	3.6208831e-22 	0.031578957
1.2203851 	0.030958343 	-0.014407262 	5.27282e-21 	0.028653638 	-1.2144824e-21 	0.029805763
1.3124991 	0.029233951 	-0.013017385 	1.1305459e-20 	0.026608833 	9.6484307e-22 	0.027921152
1.4114856 	0.027386148 	-0.01158921 	6.6945291e-21 	0.024613423 	2.8325342e-21 	0.025999546
1.5178571 	0.025511963 	-0.010220693 	4.8592196e-21 	0.022713937 	-6.1570164e-22 	0.024113002
1.6242287 	0.023746417 	-0.0089974069 	-6.5306139e-21 	0.020983067 	-2.1627876e-21 	0.022364989
1.7232152 	0.022166568 	-0.0079371448 	-9.2285252e-21 	0.019451996 	-8.8227553e-22 	0.020809431
1.8153292 	0.020752003 	-0.0070039442 	5.2780648e-21 	0.01808252 	-6.132408e-23 	0.019417352
1.9010479 	0.019469996 	-0.0061631656 	1.3932149e-20 	0.016839857 	-5.7989042e-22 	0.018154996
1.9808153 	0.018299573 	-0.0053894821 	2.3260145e-20 	0.015706504 	-1.9825635e-21 	0.017003086
2.0550447 	0.017227566 	-0.0046660944 	-4.468543e-21 	0.014673871 	6.1734747e-22 	0.015950752
2.1241204 	0.016245283 	-0.0039827049 	-1.8011865e-20 	0.013737361 	1.5439975e-21 	0.014991344
2.1884004 	0.015346306 	-0.0033334458 	-4.4618945e-22 	0.012893597 	-2.6354455e-22 	0.014119964
2.2482175 	0.014525273 	-0.002715209 	2.8380211e-21 	0.012139099 	-4.3666045e-22 	0.013332191
2.3038817 	0.013777335 	-0.0021264389 	6.1808458e-22 	0.01146981 	-5.8645799e-22 	0.01262357
2.3556812 	0.01309804 	-0.0015663215 	1.27055e-21 	0.010881073 	-3.4828232e-22 	0.011989548
2.4038844 	0.012483436 	-0.0010342701 	7.0020634e-21 	0.01036784 	1.4621786e-22 	0.011425625
2.4487409 	0.011930252 	-0.00052961379 	8.3138501e-21 	0.0099249905 	3.1514719e-22 	0.010927605
2.4904831 	0.011436089 	-5.1432641e-05 	-9.256523e-22 	0.0095476562 	6.3221935e-22 	0.010491855
2.5293273 	0.010999558 	0.00040150698 	-5.2839793e-21 	0.0092315448 	6.675004e-23 	0.010115534
2.5654745 	0.010620351 	0.00083075665 	-4.1150965e-22 	0.0089732167 	-1.625248e-22 	0.0097967695
2.5991122 	0.010299212 	0.0012381533 	1.3632237e-21 	0.0087702985 	3.5791967e-22 	0.0095347444
2.6304145 	0.010037798 	0.001625747 	-3.1139994e-21 	0.008621582 	1.805837e-22 	0.0093296869
2.6595435 	0.0098384025 	0.0019956317 	-8.4743183e-22 	0.0085270061 	-1.3717804e-22 	0.0091827113
2.6866501 	0.0097040396 	0.0023501363 	1.5265865e-21 	0.0084878193 	8.4194458e-23 	0.0090959403
2.7118748 	0.0096360838 	0.0026910649 	-1.0852885e-21 	0.0085046852 	1.3601637e-22 	0.0090703967
2.7353482 	0.009634528 	0.0030197579 	-1.6571646e-21 	0.0085777693 	-3.4684295e-22 	0.0091061642
2.7571918 	0.0096982494 	0.0033371937 	3.0923088e-22 	0.0087067078 	-2.9168589e-22 	0.0092024935
2.7775189 	0.0098226613 	0.0036431959 	3.7162588e-22 	0.0088884041 	3.5073739e-22 	0.0093555432
2.7964348 	0.0099999815 	0.0039366146 	-1.0749565e-21 	0.0091169088 	7.3610323e-23 	0.0095584511
2.8140373 	0.010219571 	0.0042153793 	-6.4890599e-22 	0.0093834878 	-3.5759156e-22 	0.0098015314
2.8304178 	0.010468855 	0.0044768176 	-2.0457717e-22 	0.0096772809 	-1.639581e-22 	0.010073067
2.845661 	0.010734587 	0.0047181218 	-9.64796e-23 	0.0099863891 	4.5572724e-23 	0.010360486
2.8598458 	0.011004122 	0.0049368228 	1.1697615e-22 	0.010299071 	6.3090723e-23 	0.010651594
2.8730459 	0.011266421 	0.0051311402 	2.8519121e-22 	0.010604756 	-7.2857941e-23 	0.010935586
2.8853295 	0.011512632 	0.0053001582 	1.199584e-22 	0.010894694 	-3.2376629e-23 	0.011203661
2.8967603 	0.011736269 	0.0054438321 	1.4227706e-23 	0.011162234 	1.3453867e-22 	0.011449249
2.9073974 	0.011933075 	0.0055628681 	-9.3662759e-23 	0.011402787 	1.6873522e-22 	0.01166793
2.9172961 	0.012100735 	0.0056585897 	-2.6798416e-22 	0.011613625 	3.165853e-23 	0.011857179
2.9265075 	0.012238385 	0.0057326838 	-2.5348893e-22 	0.011793454 	-6.1567181e-23 	0.012015918
2.9350793 	0.012346286 	0.005787074 	-1.9927461e-22 	0.011942127 	-8.9755249e-23 	0.012144206
2.9430561 	0.012425515 	0.0058238139 	3.6756083e-23 	0.012060375 	-3.6407725e-23 	0.012242944
2.950479 	0.012477578 	0.0058449081 	-5.0570069e-23 	0.012149424 	3.982543e-23 	0.012313501
2.9573866 	0.012504194 	0.0058522557 	-9.4718035e-23 	0.012210793 	-2.1792067e-23 	0.012357493
2.9638146 	0.012507162 	0.0058476171 	2.0861095e-23 	0.012246148 	-1.6494949e-23 	0.012376655
2.9697963 	0.012488226 	0.0058325767 	-2.8274169e-23 	0.012257166 	2.5187287e-23 	0.012372696
2.9753627 	0.012448937 	0.0058084947 	-3.7900785e-23 	0.012245386 	-3.2675003e-24 	0.012347161
2.9805427 	0.012390624 	0.0057765239 	8.670075e-24 	0.012212172 	-1.615394e-23 	0.012301398
2.985363 	0.012314358 	0.0057376059 	1.7789674e-23 	0.012158668 	-9.234994e-24 	0.012236513
2.9898486 	0.012220908 	0.0056924616 	2.3262191e-23 	0.012085744 	5.0898841e-24 	0.012153326
2.9940229 	0.012110714 	0.005641592 	-1.7716403e-24 	0.011993962 	9.4980405e-24 	0.012052338
2.9979073 	0.011983858 	0.0055852771 	8.8473337e-25 	0.011883537 	3.4987084e-24 	0.011933698
3.001522 	0.011840022 	0.005523561 	4.6305839e-24 	0.011754297 	-3.8727822e-24 	0.011797159
3.0048858 	0.011678438 	0.0054562292 	7.0314892e-24 	0.01160562 	-8.1901723e-24 	0.011642029
3.008016 	0.011497819 	0.0053827735 	1.0698138e-23 	0.011436366 	-2.3040376e-24 	0.011467092
3.0109289 	0.011296254 	0.0053023342 	4.3363984e-24 	0.011244766 	9.1249873e-25 	0.01127051
3.0136396 	0.011071057 	0.0052136034 	3.9298188e-24 	0.011028274 	2.1786099e-24 	0.011049665
3.016162 	0.010818562 	0.0051146763 	2.5655783e-24 	0.010783352 	2.0162047e-24 	0.010800957
3.0185094 	0.010533805 	0.0050028142 	-4.7129396e-25 	0.010505159 	1.1036217e-24 	0.010519482
3.0206937 	0.010210068 	0.0048740589 	-3.111524e-24 	0.010187088 	-7.9643524e-25 	0.010198578
3.0227264 	0.0098381944 	0.0047225868 	2.6837772e-24 	0.0098200857 	-5.140756e-25 	0.0098291398
3.024618 	0.0094055686 	0.0045395862 	1.5420657e-24 	0.0093916267 	2.58926e-24 	0.0093985974
3.0263783 	0.0088946035 	0.0043112501 	4.217098e-25 	0.0088842036 	9.9789138e-25 	0.008889403
3.0280163 	0.0082806814 	0.0040151153 	7.7931999e-25 	0.0082732641 	2.150629e-25 	0.008276972
3.0295406 	0.0075302355 	0.0036138149 	-1.4756805e-25 	0.0075252882 	1.4911471e-25 	0.0075277612
3.0309591 	0.0066035905 	0.0030493844 	-4.6245035e-26 	0.006600622 	-8.032671e-25 	0.0066021064
3.0322791 	0.005483395 	0.0022715055 	1.2178928e-25 	0.0054818998 	-5.7022826e-25 	0.0054826477
3.0335075 	0.0042828735 	0.0013784745 	3.8377648e-26 	0.0042823032 	-6.6578668e-26 	0.004282589
3.0346506 	0.0034201957 	0.00069239153 	1.0605971e-26 	0.0034200512 	7.4893616e-26 	0.0034201239
3.0357143 	0 	0 	0 	0 	0 	0
