/*--------------------------------*- C++ -*----------------------------------*\
| =========                 |                                                 |
| \\      /  F ield         | OpenFOAM: The Open Source CFD Toolbox           |
|  \\    /   O peration     | Version:  2.4.0                                 |
|   \\  /    A nd           | Web:      www.OpenFOAM.org                      |
|    \\/     M anipulation  |                                                 |
\*---------------------------------------------------------------------------*/
FoamFile
{
    version     2.0;
    format      ascii;
    class       volScalarField;
    location    "20000";
    object      nut;
}
// * * * * * * * * * * * * * * * * * * * * * * * * * * * * * * * * * * * * * //

dimensions      [0 2 -1 0 0 0 0];

internalField   nonuniform List<scalar> 
9754
(
0.0096436691
0.0083843718
0.00720036
0.0061943338
0.0053735042
0.0047033353
0.0041577448
0.0037271395
0.0034099329
0.0032033303
0.0030986412
0.003087258
0.0031344022
0.01076779
0.0095647618
0.0083492212
0.0072311383
0.0062857606
0.0055066645
0.0048626443
0.0043340872
0.0039141891
0.003601749
0.0033937965
0.0032854999
0.0032670974
0.011850407
0.01073243
0.0095562445
0.0083878164
0.0073288728
0.0064322709
0.0056848428
0.005060533
0.0045439552
0.0041300228
0.0038169477
0.0036045355
0.0034883541
0.0034581729
0.0034981127
0.0035838092
0.0036960522
0.0038223784
0.0039501691
0.0038848421
0.003787442
0.0036974589
0.0036375223
0.018677774
0.017982414
0.017233121
0.016439968
0.015611938
0.014750881
0.013847439
0.012887838
0.011859821
0.010761861
0.0096174297
0.0084962794
0.0074887252
0.0066305971
0.005907273
0.0052971279
0.0047880533
0.0043749311
0.0040577722
0.0038377211
0.0037092272
0.0036638983
0.0036950963
0.0037765615
0.0038827665
0.0040106689
0.0041457891
0.0042086594
0.0041377064
0.0040663834
0.023286183
0.023225701
0.023160227
0.023084085
0.022993567
0.022883158
0.022748397
0.022582405
0.022382189
0.02214618
0.021871882
0.021556287
0.021196154
0.020788494
0.020330057
0.019817044
0.019246362
0.018619149
0.017929978
0.017194133
0.016419734
0.015612845
0.014770243
0.013882709
0.012938619
0.011929383
0.010856482
0.0097471932
0.008672091
0.0077079306
0.0068797444
0.0061739894
0.0055733229
0.0050668614
0.0046508919
0.0043272994
0.0040959358
0.0039532048
0.0038894211
0.0039084651
0.0039808175
0.0040824541
0.0042061059
0.0043455829
0.0044915314
0.0045298986
0.023422647
0.023368724
0.023309286
0.023240656
0.023158332
0.02305817
0.022936002
0.022785629
0.022604548
0.022391532
0.022144475
0.021860701
0.021537094
0.021170656
0.020758315
0.020296665
0.01978233
0.01921341
0.018592216
0.017915233
0.017197563
0.016445882
0.015660967
0.014838326
0.013969556
0.013045444
0.012059705
0.011015566
0.0099433147
0.0089105453
0.0079821211
0.0071769588
0.0064841091
0.0058886078
0.0053813065
0.0049608862
0.0046282634
0.0043838593
0.0042235072
0.0041402777
0.0041422364
0.0041947515
0.0042948313
0.004413764
0.004550828
0.0047027974
0.023553831
0.023506121
0.023452042
0.023390663
0.02331576
0.02322492
0.023114262
0.022978163
0.022814547
0.022622509
0.02240031
0.022145652
0.02185567
0.021527451
0.021158035
0.020744325
0.020283136
0.019771844
0.019209713
0.018600088
0.017940892
0.017245596
0.016517852
0.015756036
0.014955375
0.014108717
0.013208696
0.012250149
0.011237825
0.010203129
0.0092087582
0.0083099027
0.0075227677
0.0068384498
0.0062445389
0.0057350264
0.0053083688
0.0049652147
0.0047056352
0.0045246214
0.004427049
0.0043945237
0.0044322528
0.0045224092
0.0046363059
0.0047702595
0.023757843
0.023722933
0.023680758
0.023637963
0.023589634
0.023533686
0.023466083
0.023383853
0.02328374
0.023160683
0.023012989
0.022840041
0.022640444
0.022412278
0.022153009
0.021859916
0.021530165
0.021160881
0.020749144
0.020292237
0.019788379
0.019237917
0.018645062
0.018008892
0.017337362
0.016634649
0.015897473
0.01512125
0.014300063
0.013427592
0.012499518
0.011521573
0.010524788
0.0095654946
0.0086915846
0.0079179397
0.0072384036
0.006644747
0.0061316853
0.0056975151
0.0053429851
0.0050649983
0.004867723
0.0047461591
0.0046850385
0.0047006933
0.0047638912
0.004877026
0.0050062701
0.0051534016
0.0053174844
0.0054949462
0.0056833772
0.0058823127
0.0060601952
0.0061591021
0.0061992769
0.006266691
0.0063661056
0.0064821541
0.0065841449
0.0066699112
0.02387049
0.023839578
0.023802843
0.023764307
0.023721391
0.023670668
0.02360961
0.023535302
0.023444877
0.023333762
0.023200593
0.023045007
0.022865914
0.022661757
0.022430367
0.022169301
0.021875907
0.021547498
0.021181398
0.02077502
0.020326234
0.019834106
0.019299962
0.018728558
0.018118166
0.017471381
0.016795029
0.016084327
0.015335178
0.01454247
0.013700602
0.012805755
0.011864053
0.010904516
0.0099772746
0.0091244344
0.0083610773
0.0076855166
0.0070919638
0.0065748555
0.0061333406
0.0057649459
0.0054716334
0.0052546346
0.0051049105
0.0050273347
0.0050019469
0.0050448351
0.0051334933
0.0052618377
0.0054042508
0.0055630647
0.005737399
0.005925688
0.0061253787
0.0063345122
0.0065512874
0.0067744386
0.0069129155
0.0070097506
0.0071436147
0.0072233235
0.023978877
0.023950947
0.023919522
0.023885038
0.023847403
0.023801471
0.02374642
0.023679438
0.023597959
0.023497829
0.023377953
0.023238179
0.023077685
0.022895244
0.022689051
0.022456993
0.022196668
0.021905589
0.021581298
0.021221402
0.020823745
0.020386831
0.019910674
0.019397722
0.018849624
0.018267
0.017645963
0.016997331
0.016315177
0.015595588
0.014834038
0.014025415
0.013166205
0.012262203
0.011339723
0.010442504
0.0096084662
0.0088550122
0.0081837695
0.0075894272
0.0070687375
0.0066185274
0.0062381852
0.0059299166
0.0056894854
0.0055195778
0.0054149779
0.0053624935
0.0053728678
0.0054323771
0.0055372292
0.0056741691
0.0058297887
0.0059988774
0.0061816446
0.0063769366
0.006583116
0.0067977746
0.0070183864
0.0072433071
0.0074710168
0.0076981861
0.024035727
0.024005181
0.024082223
0.024056871
0.024030226
0.024001083
0.02396664
0.023925702
0.023876362
0.023816239
0.023743095
0.023653139
0.023545497
0.023420183
0.023276597
0.023113804
0.022930339
0.022724435
0.02249399
0.022236759
0.021950495
0.021633012
0.021282267
0.02089658
0.020475256
0.020019388
0.019529723
0.019006882
0.018452823
0.017861663
0.017240175
0.016588138
0.015900171
0.015172126
0.014399095
0.013577717
0.012713234
0.011828198
0.010960402
0.01014582
0.0094028202
0.0087355042
0.0081414582
0.007616867
0.0071590591
0.0067683389
0.0064431957
0.0061848593
0.0059922633
0.0058625098
0.0057876178
0.0057635598
0.0057960261
0.0058653853
0.005977646
0.006119926
0.0062825777
0.0064616535
0.0066506991
0.0068498833
0.007057582
0.0072719355
0.0074910071
0.0077124171
0.024175361
0.024153567
0.024131353
0.024103818
0.024179428
0.024157202
0.024135144
0.024110446
0.024079465
0.024043072
0.02399914
0.023945502
0.023880195
0.02379975
0.02370346
0.023591455
0.023463315
0.02331835
0.023155396
0.022973026
0.022769459
0.022542728
0.022290821
0.022011757
0.021703663
0.021364871
0.020994365
0.020592378
0.02015881
0.019693752
0.019198598
0.018673054
0.018113951
0.017520681
0.016900117
0.016245908
0.015553364
0.014817903
0.01403627
0.013212399
0.012365182
0.011528544
0.01073525
0.010004676
0.0093439166
0.0087511663
0.0082238297
0.0077599383
0.0073588491
0.0070210489
0.0067458711
0.0065323262
0.0063809629
0.0062793542
0.0062325248
0.0062327417
0.0062779725
0.0063537359
0.006466996
0.0066091585
0.006773052
0.0069524718
0.0071438702
0.0073443592
0.0075516354
0.007763628
0.024258785
0.024240105
0.024221369
0.024198929
0.024270554
0.024252343
0.024233948
0.024211858
0.024184967
0.024153029
0.024114287
0.024066838
0.024008973
0.023937508
0.023851853
0.023752207
0.023638282
0.023509584
0.02336521
0.023204034
0.023024599
0.022825238
0.022604195
0.022359711
0.022090098
0.0217938
0.02146971
0.021117592
0.020736766
0.020326764
0.019888011
0.019420698
0.018923725
0.018399061
0.017838854
0.017248923
0.016629231
0.015973779
0.015277651
0.014537216
0.013755289
0.012948731
0.0121463
0.011377361
0.010662514
0.010009713
0.0094200593
0.0088922833
0.008424161
0.0080163918
0.0076680952
0.0073786393
0.0071491165
0.0069754019
0.0068541521
0.0067801429
0.0067560484
0.0067715943
0.0068270903
0.0069112467
0.0070268022
0.0071670229
0.0073271647
0.0075031707
0.0076915565
0.007889393
0.0080944383
0.0083013957
0.0085071978
0.024351942
0.024352963
0.024347272
0.024336646
0.024321033
0.024305544
0.02428839
0.024355582
0.024340955
0.024325008
0.024305571
0.024282575
0.024254928
0.024221178
0.024179674
0.024128938
0.024066034
0.023990448
0.0239024
0.023801685
0.023687954
0.023560517
0.02341851
0.023260772
0.023085935
0.022892519
0.022679001
0.022443895
0.022185793
0.021903626
0.02159695
0.021264774
0.020906248
0.020521097
0.020109271
0.019670211
0.019205456
0.018712355
0.018189106
0.017631066
0.017046009
0.016428985
0.015773364
0.015075652
0.014338921
0.013576669
0.012812426
0.012071756
0.011375695
0.010734228
0.010151363
0.0096248703
0.0091557566
0.008743883
0.0083887509
0.0080904597
0.0078470648
0.0076563182
0.0075170281
0.0074215239
0.007372056
0.0073645973
0.0073939712
0.0074568167
0.0075493852
0.0076677837
0.0078080469
0.0079663014
0.0081393717
0.0083259327
0.0085175867
0.008709649
0.024417401
0.024419784
0.024415838
0.024408306
0.024395474
0.024383237
0.024370445
0.024432597
0.02442146
0.024407784
0.024391156
0.024371603
0.024347992
0.024319025
0.024283249
0.024239389
0.024184722
0.024118768
0.024041726
0.023953423
0.02385361
0.023741756
0.023617213
0.023479077
0.023326261
0.023157556
0.022971691
0.022767388
0.022543415
0.022298797
0.02203304
0.021745044
0.021433766
0.021098507
0.020738858
0.020354275
0.01994521
0.019510871
0.019051106
0.01856406
0.018045041
0.017493003
0.016913548
0.016299656
0.015647023
0.01495817
0.01424334
0.013521079
0.012814265
0.012142745
0.011518051
0.010943987
0.010423057
0.0099567359
0.0095450198
0.0091883777
0.0088845602
0.0086319502
0.0084290305
0.0082750329
0.0081623643
0.0080928254
0.0080635934
0.0080728936
0.0081150073
0.0081869068
0.0082857842
0.008408106
0.0085503854
0.0087124465
0.0088826841
0.0090546291
0.024476203
0.024479741
0.024477854
0.024472297
0.02446235
0.024453383
0.024444406
0.024500451
0.024492404
0.024481327
0.02446739
0.024451019
0.024431214
0.024406833
0.024376597
0.024339405
0.024292726
0.024236076
0.024169591
0.02409309
0.024006373
0.023909022
0.023800553
0.023680274
0.023547343
0.023400808
0.023239641
0.023062786
0.022869192
0.022658014
0.02242879
0.022180441
0.02191188
0.021622209
0.02131075
0.020976859
0.020620366
0.020240834
0.019838018
0.019411735
0.018959185
0.018480719
0.017969119
0.017424305
0.016851766
0.016246482
0.015607908
0.014943528
0.014267895
0.013600309
0.012958762
0.012355989
0.011796933
0.011286987
0.010827816
0.010421983
0.010067145
0.0097619933
0.0095049066
0.0092953212
0.0091294033
0.009007379
0.0089228685
0.008878322
0.0088714697
0.0088975526
0.0089537731
0.0090377291
0.0091459612
0.0092797248
0.0094243708
0.0095716214
0.024517766
0.024527294
0.02453176
0.024531583
0.024528063
0.024520667
0.024514828
0.024509333
0.024557889
0.02455265
0.024544184
0.024532867
0.024519516
0.024503341
0.024483376
0.024458518
0.024427828
0.024388948
0.024341362
0.024285107
0.024219956
0.024145716
0.024062034
0.023968544
0.023864716
0.023749911
0.0236234
0.023484382
0.023332018
0.023165447
0.022983963
0.022787184
0.022574123
0.022343747
0.022095116
0.021827424
0.021539929
0.02123213
0.020903551
0.020553797
0.020182621
0.019788803
0.019373225
0.018930715
0.018462466
0.017961169
0.01742797
0.016868911
0.016282297
0.015671561
0.015046317
0.014422995
0.01381916
0.013243613
0.012706323
0.012212984
0.011767523
0.011371009
0.011022909
0.01072116
0.010465096
0.01025299
0.010083219
0.0099541038
0.0098639126
0.0098090579
0.0097923171
0.0098085791
0.0098550572
0.0099291741
0.010033515
0.010150846
0.010271205
0.010393078
0.010516641
0.024560119
0.024569516
0.024574655
0.024575894
0.024574285
0.024569201
0.024566304
0.024564042
0.024603478
0.0246008
0.024594823
0.024586021
0.024575555
0.024562864
0.024547175
0.024527562
0.024503243
0.024472021
0.024433328
0.024387075
0.024332954
0.024270743
0.024200113
0.024120769
0.024032299
0.023934219
0.023825985
0.023706993
0.023576603
0.023434136
0.023279034
0.023111015
0.022929222
0.022732731
0.022520657
0.022292176
0.022046515
0.021783022
0.021501121
0.021200304
0.020880179
0.02053999
0.020179758
0.019797495
0.019394198
0.01896485
0.01851106
0.018026574
0.017512288
0.016975147
0.016417948
0.015847265
0.015274471
0.014712856
0.014172988
0.01366475
0.013195091
0.012768791
0.012387323
0.012050336
0.011757092
0.01150712
0.011298022
0.011129338
0.010999859
0.010907598
0.010852542
0.010830625
0.0108428
0.01088506
0.010960866
0.011050948
0.011144245
0.011239421
0.011336464
0.024592591
0.024601558
0.024607086
0.024609455
0.024609544
0.024606538
0.024606376
0.024607123
0.024635544
0.024635188
0.024631518
0.024625082
0.024617357
0.024608016
0.024596477
0.024581997
0.024563945
0.024540282
0.02451037
0.024473969
0.024430665
0.024380176
0.024322161
0.024256357
0.024182429
0.024100002
0.024008674
0.023908001
0.023797515
0.023676702
0.023545146
0.023402675
0.023248573
0.023082055
0.022902341
0.022708667
0.022500292
0.022276529
0.02203675
0.02178038
0.02150692
0.021215762
0.020906579
0.020578324
0.020230875
0.019862801
0.019475376
0.019064985
0.018631535
0.018171501
0.017684563
0.017178066
0.016661417
0.016143355
0.015630632
0.015133414
0.014661839
0.014223133
0.013821462
0.01345997
0.013139319
0.012860285
0.012620486
0.012419896
0.012257874
0.012133335
0.012045487
0.011992428
0.011973784
0.011986863
0.012035317
0.012099195
0.0121666
0.01223604
0.012307392
0.024613682
0.024621886
0.02462749
0.024630689
0.024632216
0.024631038
0.024633381
0.024636916
0.024652104
0.024653829
0.024652254
0.024648002
0.024642857
0.024636724
0.024629218
0.024619774
0.02460791
0.024591741
0.024570543
0.024543909
0.024511294
0.024472333
0.024426644
0.024373965
0.024313995
0.024246435
0.024170979
0.024087307
0.023995086
0.023893944
0.023783591
0.023663958
0.023534476
0.023394505
0.023243393
0.023080477
0.022905094
0.022716596
0.022514366
0.022297816
0.022066402
0.021819558
0.02155683
0.021277487
0.020981071
0.020667128
0.020336007
0.019986818
0.019619642
0.019233963
0.018827071
0.018400153
0.017949839
0.017488427
0.017020999
0.016559268
0.016110712
0.015682546
0.015280872
0.014910303
0.014574081
0.014275893
0.014014887
0.013790781
0.01360361
0.013452979
0.013338331
0.013258452
0.013213312
0.013200259
0.013222967
0.013262857
0.013306178
0.01335144
0.013398694
0.024621567
0.024628636
0.024633975
0.024637689
0.024640368
0.024640754
0.024645346
0.024651442
0.024650775
0.024654341
0.024654633
0.024652366
0.024649624
0.024646554
0.024642965
0.024638472
0.024632737
0.024624027
0.024611519
0.024594618
0.024572636
0.0245451
0.024511568
0.024471748
0.024425348
0.024372107
0.024311781
0.024244134
0.024168934
0.024085919
0.023994903
0.023895908
0.023788502
0.023672185
0.023546438
0.023410718
0.023264464
0.023107108
0.022938091
0.022756861
0.022562885
0.022355626
0.022134604
0.0218992
0.021648883
0.021383464
0.021103055
0.020807498
0.020496811
0.020170972
0.019829183
0.019473319
0.019098639
0.018711992
0.018311675
0.017902663
0.017494879
0.017095438
0.016711152
0.016349795
0.016014983
0.015710053
0.015439238
0.015201798
0.01499817
0.014828755
0.01469358
0.014592238
0.01452393
0.014488538
0.014488414
0.014505684
0.014526627
0.014549639
0.014574804
0.024613956
0.024619484
0.024624194
0.024628097
0.024631631
0.024633321
0.024639855
0.024648313
0.024628678
0.02463384
0.024635769
0.024635279
0.024634758
0.024634604
0.024634826
0.024635214
0.024635573
0.02463432
0.024630517
0.024623368
0.024612022
0.024595885
0.024574436
0.024547333
0.024514271
0.024474995
0.024429296
0.024376988
0.024317907
0.02425187
0.024178766
0.024098691
0.024011329
0.023916314
0.023813253
0.023701719
0.023581266
0.023451423
0.023311714
0.023161657
0.023000769
0.022828563
0.02264458
0.022448269
0.022239109
0.02201697
0.021781884
0.021533891
0.021273097
0.020999649
0.020713525
0.020415129
0.020103536
0.019780076
0.019447295
0.019107011
0.018761093
0.018413676
0.018070303
0.017736724
0.017419424
0.017122622
0.016852752
0.016612135
0.016401191
0.016221052
0.016072352
0.015955263
0.015869066
0.015813778
0.015793299
0.015789132
0.015789899
0.015792934
0.01579838
0.024587935
0.024591487
0.024595196
0.024598963
0.02460306
0.024605826
0.024613844
0.024624664
0.024582289
0.024588806
0.024592151
0.024593242
0.024594772
0.024597403
0.024601346
0.02460657
0.02461302
0.024619259
0.024624223
0.024626894
0.024626248
0.024621554
0.024612195
0.02459777
0.024577935
0.024552428
0.024521045
0.024483628
0.024440048
0.024390175
0.024333945
0.024271502
0.024202632
0.02412708
0.024044568
0.02395478
0.023857376
0.023751987
0.023638231
0.02351571
0.023384013
0.02324272
0.023091428
0.022929654
0.022756917
0.022573101
0.022378205
0.022172282
0.021955482
0.021728007
0.021490075
0.021242024
0.020983911
0.020716113
0.020440019
0.020157151
0.019868666
0.019578084
0.019287936
0.019000711
0.01872096
0.01845294
0.018201409
0.017971059
0.017764921
0.017583932
0.017429632
0.017303042
0.017204574
0.017134074
0.017095886
0.017073637
0.017057071
0.017043001
0.017031452
0.017020795
0.017012665
0.017006853
0.024546592
0.024550986
0.024554652
0.024563569
0.024576993
0.024507213
0.024514917
0.02451951
0.02452202
0.024525461
0.024530777
0.024538387
0.024548441
0.024561022
0.024574836
0.02458868
0.024601299
0.024611477
0.024618335
0.024621154
0.024619452
0.02461284
0.024601031
0.024583811
0.024561024
0.024532558
0.024498309
0.024458235
0.024412509
0.024360994
0.02430353
0.024239935
0.024169991
0.024093454
0.02401005
0.023919488
0.023821456
0.023715625
0.023601651
0.023479201
0.023347866
0.023207226
0.023057173
0.022897691
0.022728829
0.022550719
0.022363571
0.022167641
0.021963282
0.021750873
0.021530832
0.021303817
0.021071688
0.020834914
0.020595278
0.020354472
0.020114386
0.019877599
0.019647111
0.019426353
0.019218744
0.0190294
0.018859381
0.0187106
0.018584614
0.018482413
0.018405121
0.018354559
0.018319439
0.01828926
0.018261659
0.01823647
0.018213315
0.018192286
0.018173376
0.024466408
0.024470886
0.024475314
0.024484927
0.024500797
0.02439821
0.024407004
0.024412731
0.024416538
0.024421795
0.024429742
0.024441013
0.024455941
0.024474745
0.024496276
0.024519176
0.024541932
0.024563127
0.024581719
0.024596875
0.024608027
0.024614729
0.024616655
0.02461357
0.024605306
0.024591751
0.024572805
0.024548434
0.024518814
0.024483869
0.024443516
0.024397649
0.024346135
0.02428881
0.024225487
0.024155953
0.024079981
0.023997316
0.023907693
0.023810852
0.023706458
0.023594162
0.023473874
0.02334557
0.023209294
0.023065153
0.022913332
0.022754087
0.022587737
0.022414706
0.022235645
0.022050723
0.021861754
0.021669301
0.02147444
0.021278282
0.021082079
0.020887263
0.020696308
0.020510847
0.020333644
0.020167581
0.020016675
0.019881671
0.019764301
0.019665843
0.019587907
0.019532178
0.019488533
0.019448835
0.0194119
0.019376878
0.019343797
0.019312692
0.019283562
0.024352861
0.024357281
0.024362404
0.024372864
0.024390732
0.024249226
0.024259001
0.024265782
0.024270804
0.024277835
0.024288417
0.024303401
0.024323305
0.024348484
0.024377935
0.024410128
0.024443279
0.024475753
0.024506335
0.024534067
0.024558285
0.024578479
0.024594277
0.024605411
0.024611692
0.024612994
0.024609212
0.024600299
0.024586426
0.024567555
0.024543671
0.024514727
0.024480653
0.024441373
0.024396745
0.024346656
0.024290947
0.024229405
0.024161869
0.024088107
0.024007906
0.023920962
0.023827228
0.023726599
0.023619175
0.023505035
0.02338431
0.02325727
0.023124078
0.022985238
0.022841308
0.022692728
0.022540402
0.022385711
0.022229055
0.022071294
0.021913378
0.021756341
0.021601559
0.021450219
0.021304908
0.021165807
0.021036895
0.020920509
0.020817017
0.020727684
0.020653815
0.020598075
0.020550707
0.020504025
0.020459591
0.02041731
0.02037706
0.020338804
0.020302443
0.024199407
0.024203714
0.024209546
0.024220966
0.024240813
0.024056477
0.024067046
0.024074834
0.024081037
0.024089843
0.024103089
0.024121838
0.024146794
0.024178449
0.024215944
0.024257572
0.024301261
0.024345153
0.024387846
0.024428255
0.024465612
0.024499335
0.024529001
0.024554302
0.024575019
0.024591006
0.024602143
0.024608361
0.024609813
0.024606494
0.024598421
0.024585643
0.024568106
0.024545831
0.024518692
0.024486702
0.024449648
0.024407572
0.024360152
0.024307429
0.024249209
0.024185035
0.024115099
0.024039379
0.023957812
0.023870485
0.023777496
0.02367904
0.023575259
0.023466861
0.02335367
0.023236311
0.023115351
0.02299228
0.022866732
0.022740059
0.022613503
0.022487726
0.022363576
0.022241947
0.022124052
0.022011098
0.021903836
0.021805201
0.021715466
0.02163568
0.021567028
0.021511935
0.02146341
0.021415189
0.021368265
0.021323358
0.021280342
0.02123915
0.021199516
0.024001882
0.024006113
0.024012737
0.024025238
0.024047482
0.023822589
0.023833852
0.023842653
0.023850058
0.023860658
0.023876564
0.023899051
0.023929008
0.02396706
0.024012491
0.024063414
0.024117477
0.024172593
0.024227178
0.024280011
0.024330221
0.02437715
0.024420317
0.024459374
0.024494065
0.024524214
0.024549692
0.024570391
0.024586436
0.024597853
0.024604685
0.024607046
0.024604912
0.024598378
0.024587341
0.024571918
0.024551861
0.024527389
0.024498101
0.024464244
0.024425282
0.02438146
0.024332584
0.024278809
0.024219512
0.02415532
0.02408622
0.024012895
0.023934864
0.023852237
0.023765431
0.023675546
0.023582255
0.023486033
0.023387872
0.023288686
0.02318812
0.023087087
0.022986433
0.02288698
0.02278961
0.022695267
0.022604911
0.022519864
0.022442349
0.022372877
0.022312073
0.022262262
0.022217698
0.022174433
0.022131979
0.022090479
0.022050023
0.022010713
0.021972331
0.023763033
0.023767288
0.023774781
0.023788337
0.023572226
0.023551293
0.023563409
0.023573308
0.023581979
0.023594401
0.023612941
0.023639088
0.023673913
0.023718171
0.023771287
0.023831205
0.023895298
0.023961262
0.024027331
0.024092155
0.024154755
0.024214397
0.024270543
0.024322797
0.024370866
0.024414535
0.024453638
0.024488053
0.024517835
0.024543052
0.02456379
0.024580097
0.024592114
0.024599811
0.02460336
0.024602632
0.024597822
0.024588687
0.024575453
0.024557788
0.02453571
0.02450913
0.024477805
0.024441833
0.024401369
0.024356167
0.024306356
0.024251969
0.02419362
0.024130997
0.024064767
0.023995048
0.023922663
0.023848232
0.023772692
0.023695727
0.023617599
0.023538788
0.02345992
0.023381651
0.023304673
0.023229725
0.023157512
0.023088511
0.023025182
0.022968309
0.022918044
0.022877674
0.022841344
0.022805368
0.022769544
0.022733986
0.022698857
0.022664348
0.022630419
0.023487031
0.023491428
0.023499825
0.023514207
0.022895409
0.02324402
0.023257188
0.023268294
0.023278304
0.023292577
0.023313725
0.023343447
0.023382991
0.023433242
0.023493763
0.023562341
0.023636089
0.023712494
0.023789618
0.023865983
0.023940507
0.024012376
0.024080996
0.024145919
0.024206813
0.024263432
0.024315566
0.024363071
0.024405951
0.024444276
0.024478157
0.024507611
0.024532788
0.024553595
0.024570238
0.024582516
0.024590735
0.024594594
0.024594504
0.0245901
0.024581757
0.024569084
0.024552069
0.024530686
0.024505557
0.024476122
0.024442553
0.024404345
0.024362506
0.024317083
0.02426841
0.024215985
0.024161002
0.024104562
0.024046935
0.023987762
0.023928197
0.023868462
0.023808932
0.023750065
0.023692374
0.023636445
0.023582796
0.023531462
0.023483549
0.02344004
0.023401037
0.023369867
0.023341695
0.023313526
0.023285242
0.023256917
0.0232286
0.023200341
0.023172212
0.023175508
0.023180148
0.023189473
0.023204469
0.022267956
0.022902868
0.022917134
0.022929494
0.022940878
0.022957008
0.022980717
0.023013905
0.023057996
0.023113995
0.023181606
0.023258468
0.023341453
0.023427854
0.023515565
0.02360299
0.023688943
0.023772536
0.023853113
0.023930178
0.024003355
0.024072365
0.024136973
0.024196987
0.024252393
0.024303248
0.024349682
0.024391772
0.024429609
0.024463185
0.024492557
0.024517655
0.024538546
0.024555146
0.024567569
0.024575779
0.024579899
0.024579898
0.024575803
0.024567612
0.024555587
0.024539749
0.024520214
0.02449688
0.024470006
0.024439796
0.024406567
0.024370342
0.02433149
0.024290676
0.024248415
0.024204913
0.024160625
0.024115952
0.024071298
0.024027075
0.023983715
0.023941688
0.023901475
0.023863404
0.023827992
0.023795856
0.023766806
0.023743796
0.023722908
0.023701838
0.023680557
0.023659113
0.023637492
0.023615637
0.023593632
0.022830497
0.022835448
0.022845718
0.022861224
0.021686141
0.022530188
0.022545494
0.022559081
0.022571822
0.022589769
0.022615958
0.022652473
0.022700903
0.022762371
0.022836717
0.022921447
0.023013209
0.023109114
0.023206903
0.023304865
0.023401718
0.0234965
0.023588495
0.023677156
0.023762065
0.023842903
0.023919406
0.023991342
0.02405866
0.024121425
0.024179788
0.024233874
0.024283798
0.024329624
0.02437141
0.024409153
0.024442865
0.024472501
0.024498055
0.024519502
0.024536852
0.024550061
0.024559144
0.024564098
0.024565055
0.024562127
0.024555475
0.024545176
0.024531405
0.024514364
0.024494329
0.024471461
0.024446024
0.024418481
0.024389239
0.024358617
0.024326991
0.024294729
0.024262207
0.024229796
0.02419787
0.024166821
0.024137046
0.024108884
0.024082672
0.024058903
0.024037157
0.024020063
0.024004442
0.023988553
0.023972436
0.023956109
0.023939584
0.023922859
0.023905948
0.022454264
0.022459564
0.02247078
0.022486748
0.021139352
0.022128369
0.022144628
0.022159379
0.022173418
0.022193107
0.022221659
0.022261328
0.022313858
0.022380481
0.02246117
0.022553312
0.022653348
0.022758225
0.022865539
0.022973475
0.02308066
0.023186059
0.0232889
0.023388587
0.023484656
0.023576749
0.023664568
0.023747842
0.023826478
0.023900545
0.023970206
0.024035612
0.024096901
0.024154182
0.024207545
0.024257045
0.024302724
0.024344585
0.024382625
0.024416832
0.024447181
0.024473589
0.024496003
0.024514358
0.024528657
0.024538948
0.024545334
0.024547934
0.024546894
0.024542407
0.024534723
0.024524063
0.024510677
0.02449495
0.024477219
0.024457825
0.024437111
0.024415418
0.024393094
0.024370479
0.024347905
0.024325709
0.024304225
0.024283755
0.024264485
0.0242471
0.024230705
0.024217813
0.024205857
0.024193572
0.024181058
0.024168315
0.02415535
0.024142165
0.024128767
0.022049172
0.022054833
0.022066975
0.022083377
0.020621262
0.021699745
0.02171691
0.021732759
0.021748024
0.021769356
0.021800129
0.021842753
0.021899114
0.021970548
0.022057157
0.022156221
0.022263994
0.022377273
0.022493523
0.022610833
0.022727742
0.022843152
0.022956234
0.023066345
0.023172976
0.023275729
0.023374273
0.023468295
0.023557658
0.023642432
0.023722787
0.02379889
0.023870895
0.023938934
0.024003123
0.024063554
0.024120299
0.024173407
0.024222908
0.024268828
0.024311168
0.024349859
0.024384824
0.024415966
0.024443216
0.024466541
0.024485954
0.024501507
0.024513281
0.0245214
0.024526048
0.024527416
0.024525723
0.024521303
0.024514454
0.024505507
0.024494792
0.024482635
0.024469365
0.024455301
0.024440747
0.024426006
0.024411363
0.024397088
0.024383387
0.024370613
0.02435815
0.024348116
0.024338523
0.02432854
0.024318328
0.024307883
0.024297207
0.024286301
0.02427517
0.021617581
0.021623599
0.021636632
0.021653443
0.020127728
0.021246519
0.021264754
0.0212816
0.021298007
0.021320873
0.021353711
0.021399072
0.021458979
0.02153486
0.021626942
0.021732413
0.021847358
0.02196844
0.022093006
0.022219056
0.022345053
0.022469836
0.022592524
0.022712427
0.022828996
0.022941792
0.023050448
0.023154614
0.023254105
0.023348988
0.02343944
0.023525638
0.023607745
0.023685907
0.023760259
0.023830913
0.023897968
0.023961501
0.024021573
0.02407824
0.024131538
0.024181428
0.024227832
0.024270647
0.024309783
0.024345175
0.024376782
0.0244046
0.024428644
0.024448968
0.024465667
0.024478855
0.024488673
0.024495375
0.024499199
0.024500435
0.02449938
0.024496332
0.024491596
0.024485466
0.024478224
0.024470144
0.024461482
0.024452475
0.024443313
0.024434257
0.024424712
0.024416565
0.024408397
0.024399789
0.024390956
0.024381896
0.024372609
0.024363097
0.024353363
0.021161795
0.021168157
0.021182039
0.021199239
0.019656032
0.020771163
0.020790379
0.020808205
0.020825708
0.020849996
0.020884737
0.020932613
0.02099577
0.02107572
0.021172815
0.02128416
0.021405692
0.02153396
0.021666199
0.021800334
0.021934757
0.02206825
0.022199883
0.022328924
0.022454782
0.022576982
0.02269512
0.022808807
0.022917814
0.023022202
0.023122151
0.023217844
0.02330945
0.023397127
0.023481018
0.023561253
0.023637946
0.023711194
0.023781082
0.023847689
0.023911081
0.023971244
0.024028104
0.024081554
0.024131498
0.024177854
0.024220557
0.02425957
0.024294868
0.024326453
0.024354354
0.024378619
0.024399308
0.02441658
0.024430608
0.02444162
0.024449859
0.024455574
0.024459024
0.024460462
0.024460136
0.024458286
0.024455136
0.024450895
0.024445728
0.024439858
0.02443269
0.024425898
0.024418638
0.024410889
0.02440292
0.02439473
0.024386319
0.02437769
0.024368846
0.020684041
0.020690731
0.020705424
0.020723012
0.019204354
0.020275999
0.020296049
0.020314926
0.020333468
0.020359029
0.020395509
0.020445675
0.020511783
0.02059542
0.02069706
0.020813734
0.020941259
0.021076082
0.02121534
0.021356889
0.02149906
0.021640583
0.021780484
0.021917989
0.022052471
0.022183416
0.022310387
0.022432959
0.022550857
0.022664135
0.022772975
0.02287756
0.022978066
0.023074656
0.023167483
0.023256684
0.023342386
0.023424702
0.023503731
0.023579569
0.023652307
0.023721953
0.023788432
0.023851634
0.023911459
0.023967812
0.024020615
0.024069805
0.024115332
0.024157158
0.024195266
0.02422965
0.024260303
0.024287305
0.024310768
0.024330863
0.024347777
0.024361705
0.02437285
0.024381416
0.024387605
0.024391613
0.024393626
0.024393819
0.024392327
0.024389347
0.024384286
0.024378601
0.024372019
0.024364896
0.024357548
0.024349977
0.024342183
0.02433417
0.02432594
0.020186469
0.020193476
0.020208975
0.020227028
0.018771358
0.019763301
0.019783943
0.019804262
0.019823598
0.019850173
0.019888282
0.01994052
0.020009281
0.020096212
0.020201926
0.020323369
0.020456294
0.020597046
0.02074266
0.020890944
0.021040181
0.021189045
0.021336525
0.02148181
0.021624236