y,k
0.4481146,1e-10
0.44853879,7.445809e-08
0.44897681,1.2858848e-08
0.44942906,4.3609086e-09
0.44989599,2.0386605e-09
0.4503781,1.1357563e-09
0.45087586,7.0451063e-10
0.4513898,4.6936783e-10
0.45192042,3.2885051e-10
0.45246829,2.3908715e-10
0.45303395,1.78786e-10
0.45361798,1.3667109e-10
0.45422098,1.0634908e-10
0.45484357,8.3990679e-11
0.45548638,6.7196877e-11
0.45615006,5.4407785e-11
0.45683531,4.4577142e-11
0.4575428,3.6984849e-11
0.45827328,3.1124619e-11
0.45902747,2.6634232e-11
0.45980616,2.3250936e-11
0.46061014,2.0782128e-11
0.46144023,1.908559e-11
0.46229727,1.8055878e-11
0.46318214,1.761438e-11
0.46409575,1.7701901e-11
0.46503902,1.8273866e-11
0.46601292,1.9296468e-11
0.46701845,2.0743441e-11
0.46805662,2.2593784e-11
0.46912849,2.4829612e-11
0.47023517,2.7434281e-11
0.47137778,3.0390669e-11
0.47255748,3.3679667e-11
0.47377548,3.7278847e-11
0.47503301,4.1161315e-11
0.47633137,4.5294788e-11
0.47767188,4.9640965e-11
0.47905589,5.4155236e-11
0.48048483,5.8786786e-11
0.48196014,6.3479087e-11
0.48348334,6.8170797e-11
0.48505597,7.2796934e-11
0.48667964,7.7290186e-11
0.48835599,8.1582002e-11
0.49008674,8.5603011e-11
0.49187366,8.9282192e-11
0.49371855,9.254407e-11
0.4956233,9.5346427e-11
0.49758984,9.7694135e-11
0.49962018,9.9608346e-11
0.50171638,1.0112132e-10
0.50388058,1.02275e-10
0.50611498,1.0311763e-10
0.50842185,1.036996e-10
0.51080353,1.0407008e-10
0.51326245,1.0427425e-10
0.51580111,1.0435208e-10
0.51842208,1.0433634e-10
0.52112804,1.0425475e-10
0.52392172,1.0413701e-10
0.52680597,1.0400661e-10
0.52978371,1.0387328e-10
0.53285797,1.0373944e-10
0.53603187,1.0360494e-10
0.53930862,1.0347086e-10
0.54269156,1.0334057e-10
0.54618412,1.0321717e-10
0.54978982,1.0310204e-10
0.55351233,1.0299559e-10
0.55735543,1.0289801e-10
0.561323,1.0280939e-10
0.56541906,1.0272974e-10
0.56964776,1.0265888e-10
0.57177618,1.0262848e-10
0.57401366,1.0259651e-10
0.57852116,1.0254214e-10
0.58317458,1.0249519e-10
0.5879786,1.02455e-10
0.5929381,1.0242088e-10
0.59805807,1.0239213e-10
0.60334368,1.0236802e-10
0.60880029,1.0234788e-10
0.61443337,1.0233107e-10
0.62024863,1.0231699e-10
0.62625192,1.023051e-10
0.63244929,1.0229492e-10
0.63884698,1.0228603e-10
0.64545143,1.0227806e-10
0.65226929,1.0227072e-10
0.65930742,1.0226376e-10
0.66657289,1.0225696e-10
0.67407299,1.0225016e-10
0.68181526,1.0224322e-10
0.68980747,1.0223606e-10
0.69805763,1.0222859e-10
0.70657401,1.0222076e-10
0.71536515,1.0221253e-10
0.72443983,1.0220388e-10
0.73380715,1.0219477e-10
0.74347646,1.0218521e-10
0.75345743,1.0217518e-10
0.76376001,1.0216467e-10
0.77439449,1.0215368e-10
0.78537146,1.0214222e-10
0.79670186,1.0213027e-10
0.80839697,1.0211785e-10
0.8204684,1.0210497e-10
0.83292817,1.0209167e-10
0.84578863,1.0207803e-10
0.85906255,1.0206416e-10
0.87276307,1.0205002e-10
0.88690376,1.0203726e-10
0.9014986,1.0202961e-10
0.91656202,1.0203156e-10
0.93210888,1.0204734e-10
0.94815452,1.0208373e-10
0.96471474,1.0214946e-10
0.98180582,1.0226311e-10
0.99944458,1.0243188e-10
1.0176483,1.0264547e-10
1.0364349,1.0286447e-10
1.0558227,1.0299803e-10
1.0758308,1.0293984e-10
1.0964785,1.0266493e-10
1.1177862,1.0223945e-10
1.1397745,1.0181468e-10
1.1624649,1.0152864e-10
1.1858794,1.0137254e-10
1.2100408,1.013108e-10
1.2349723,1.0130487e-10
1.2606983,1.0132898e-10
1.2872435,1.0136143e-10
1.3146335,1.0140402e-10
1.3209788,1.0141549e-10
1.3428965,1.014551e-10
1.3720585,1.0149972e-10
1.4021469,1.0153944e-10
1.4331904,1.0156562e-10
1.4652188,1.01559e-10
1.4982627,1.0150764e-10
1.5323536,1.0139694e-10
1.567524,1.012137e-10
1.6038071,1.0099247e-10
1.6412376,1.0077598e-10
1.6798508,1.0056874e-10
1.7196831,1.003726e-10
1.7607723,1.0019323e-10
1.8018234,1.0003669e-10
1.8415466,9.9907267e-11
1.8799862,9.9805346e-11
1.9171847,9.9724865e-11
1.9531836,9.9657562e-11
1.9880224,9.9597826e-11
2.0217396,9.9543318e-11
2.0543721,9.9493635e-11
2.0859558,9.9448936e-11
2.116525,9.9409336e-11
2.13776,9.9384538e-11
2.1461135,9.9374767e-11
2.1747538,9.9345003e-11
2.2024761,9.9319752e-11
2.2293103,9.9298644e-11
2.2552856,9.9281292e-11
2.2804299,9.926731e-11
2.3047701,9.925634e-11
2.3283326,9.924804e-11
2.3511425,9.9242091e-11
2.3732242,9.9238285e-11
2.3946014,9.9236356e-11
2.4152968,9.923599e-11
2.4353325,9.9237035e-11
2.4547298,9.9239316e-11
2.4735093,9.9242648e-11
2.4916909,9.9246877e-11
2.509294,9.925186e-11
2.526337,9.9257472e-11
2.542838,9.9263604e-11
2.5588145,9.9270151e-11
2.5742833,9.9277023e-11
2.5892607,9.9284131e-11
2.6037624,9.9291402e-11
2.6178038,9.929881e-11
2.6313994,9.930632e-11
2.6445637,9.9313785e-11
2.6573104,9.932108e-11
2.6696528,9.9328311e-11
2.6816039,9.9335503e-11
2.6931762,9.9342543e-11
2.7043818,9.934941e-11
2.7152323,9.9356092e-11
2.7257392,9.9362574e-11
2.7359133,9.9368845e-11
2.7457652,9.9374897e-11
2.7553053,9.9380722e-11
2.7645435,9.9386316e-11
2.7734893,9.9391685e-11
2.782152,9.9396822e-11
2.7905408,9.9401728e-11
2.7986642,9.9406397e-11
2.8065307,9.9410813e-11
2.8141485,9.9414991e-11
2.8215254,9.9418958e-11
2.8286692,9.9422675e-11
2.8355872,9.9426135e-11
2.8422866,9.9429396e-11
2.8487743,9.9432475e-11
2.8550571,9.943536e-11
2.8611414,9.9438053e-11
2.8670335,9.9440553e-11
2.8727395,9.9442868e-11
2.8782654,9.9445025e-11
2.8836168,9.9447033e-11
2.8887992,9.9448902e-11
2.893818,9.945064e-11
2.8986784,9.9452253e-11
2.9033854,9.9453754e-11
2.9079439,9.9455152e-11
2.9123585,9.9456452e-11
2.9166338,9.9457654e-11
2.9207742,9.9458761e-11
2.924784,9.9459787e-11
2.9286673,9.9460742e-11
2.9324281,9.9461628e-11
2.9360703,9.9462444e-11
2.9395976,9.9463192e-11
2.9430137,9.9463874e-11
2.946322,9.9464492e-11
2.949526,9.9465044e-11
2.952629,9.9465511e-11
2.9556341,9.9465839e-11
2.9585445,9.9465873e-11
2.9613632,9.9465278e-11
2.964093,9.9463369e-11
2.9667367,9.9458829e-11
2.9692971,9.9449274e-11
2.9717768,9.943067e-11
2.9741784,9.9396589e-11
2.9765042,9.933718e-11
2.9787568,9.9238718e-11
2.9809383,9.9083646e-11
2.9830511,9.8849571e-11
2.9850974,9.8508308e-11
2.9870791,9.802603e-11
2.9889984,9.7363902e-11
2.9908573,9.6479621e-11
2.9926575,9.5330038e-11
2.9944011,9.3874648e-11
2.9960897,9.2079515e-11
2.9977251,8.9921127e-11
2.999309,8.7389666e-11
3.000843,8.4491317e-11
3.0023287,8.1249327e-11
3.0037676,7.7703757e-11
3.0051611,7.391005e-11
3.0065108,6.9936654e-11
3.0078179,6.5862102e-11
3.0090839,6.177193e-11
3.01031,5.7755812e-11
3.0114975,5.3905219e-11
3.0126476,5.0311808e-11
3.0137614,4.7066668e-11
3.0148402,4.4260457e-11
3.015885,4.1984432e-11
3.0168969,4.0332346e-11
3.017877,3.9403819e-11
3.0188261,3.9305995e-11
3.0197454,4.0159758e-11
3.0206357,4.2106357e-11
3.021498,4.5312579e-11
3.0223332,4.9981679e-11
3.023142,5.6366825e-11
3.0239254,6.4789187e-11
3.0246841,7.5662158e-11
3.0254189,8.9525244e-11
3.0261306,1.070927e-10
3.0268199,1.2932437e-10
3.0274874,1.5753102e-10
3.028134,1.9353479e-10
3.0287602,2.3991985e-10
3.0293667,3.0043647e-10
3.029954,3.8067416e-10
3.0305229,4.8922885e-10
3.0310739,6.3982136e-10
3.0316075,8.5535635e-10
3.0321244,1.1762204e-09
3.0326249,1.6786513e-09
3.0331097,2.5196942e-09
3.0335792,4.0625349e-09
3.034034,7.2932542e-09
3.0344744,1.5602913e-08
3.034901,4.6011204e-08
3.0353141,2.6640838e-07
3.0357143,1e-10
