/*--------------------------------*- C++ -*----------------------------------*\
| =========                 |                                                 |
| \\      /  F ield         | OpenFOAM: The Open Source CFD Toolbox           |
|  \\    /   O peration     | Version:  2.4.0                                 |
|   \\  /    A nd           | Web:      www.OpenFOAM.org                      |
|    \\/     M anipulation  |                                                 |
\*---------------------------------------------------------------------------*/
FoamFile
{
    version     2.0;
    format      ascii;
    class       volScalarField;
    location    "260";
    object      epsilon;
}
// * * * * * * * * * * * * * * * * * * * * * * * * * * * * * * * * * * * * * //

dimensions      [0 2 -3 0 0 0 0];

internalField   nonuniform List<scalar> 
32000
(
11.406425
2.0974445
8.6581475
1.9156353
1.2465253
0.017836348
0.064708836
0.0019008603
0.0099062394
0.0041806877
0.0042676203
0.0031337586
0.0026555569
0.0021963945
0.0018720081
0.001614483
0.0014181803
0.0012745802
0.0011666917
0.0010786467
0.0010025281
0.0009352631
0.00087388211
0.00081687939
0.00076241869
0.0007096309
0.00065597135
0.00060121218
0.00054817675
0.0004987478
0.00045329493
0.00041182488
0.00037430525
0.00034063638
0.00031094974
0.00028594507
0.00026622107
0.00025070193
0.00023818453
0.00022838459
0.00022142741
0.00021757798
0.0002173797
0.00022156724
0.00023202632
0.00025144171
0.00029646206
0.00035213619
0.00039062094
0.00042410457
0.00045343759
0.00048010335
0.00050443984
0.00052686006
0.00054759241
0.00056683539
0.00058474076
0.00060143606
0.00061702659
0.0006316043
0.0006452505
0.00065803566
0.00067002271
0.00068126854
0.00069182407
0.00070173518
0.00071104447
0.00071979023
0.00072800708
0.00073572733
0.00074298055
0.00074979475
0.00075619426
0.00076220319
0.00076784269
0.00077313247
0.00077809417
0.00078274275
0.00078710159
0.00079117976
0.00079500137
0.00079856407
0.00080186292
0.00080492123
0.00080774581
0.00081035285
0.00081274939
0.00081495488
0.00081691427
0.0008187569
0.00082038578
0.00082183604
0.00082311295
0.00082422003
0.00082516019
0.00082593689
0.00082655199
0.0008270074
0.00082730457
0.00082744312
0.00082742209
0.00082724948
0.00082692035
0.00082642978
0.00082577932
0.00082496695
0.0008239902
0.00082284619
0.00082153173
0.00082004282
0.00081837474
0.00081652279
0.00081448124
0.00081224369
0.00080980358
0.00080715325
0.00080428446
0.00080118851
0.0007978553
0.00079427436
0.00079043442
0.00078632275
0.00078192616
0.00077723029
0.0007722189
0.00076687534
0.0007611816
0.00075511724
0.00074866141
0.00074179105
0.00073448021
0.00072670242
0.00071842854
0.00070962543
0.00070025881
0.00069029062
0.00067967848
0.00066837719
0.00065633582
0.00064349807
0.00062980148
0.00061517608
0.00059954217
0.00058280925
0.00056487118
0.00054560189
0.00052485275
0.0005024261
0.00047809549
0.00045145123
0.00042215877
0.00038873488
0.00035033563
0.00029493232
0.00025021228
0.00023100053
0.00022056198
0.00021630303
0.0002165366
0.00022023705
0.00022700663
0.00023682132
0.00024932206
0.00026486275
0.00028439564
0.00030907358
0.00033862536
0.00037192284
0.00040897518
0.00044987979
0.00049464068
0.0005433229
0.00059544869
0.00064928759
0.00070184138
0.0007529309
0.00080495293
0.00086096952
0.00092027588
0.00098527702
0.0010585555
0.0011430482
0.00124625
0.0013840432
0.0015734338
0.001818035
0.0021369139
0.0025390761
0.0031177162
0.0037232591
0.0051505567
0.0051204278
0.011521446
0.0024643335
0.060970213
0.01710909
1.1542705
2.0587134
9.4512025
2.1628997
6.7034881
1.4762377
5.2536484
1.3594426
0.91152297
0.01967869
0.05559855
0.0020392746
0.0090205933
0.0039204562
0.0039779808
0.0029440576
0.0024991339
0.0020729631
0.0017698134
0.0015284249
0.0013436491
0.0012079117
0.0011056674
0.0010221638
0.00094998113
0.00088618904
0.00082800084
0.00077399634
0.00072245235
0.00067254916
0.00062189096
0.00057026866
0.00052024774
0.00047358044
0.00043063334
0.00039141815
0.00035590544
0.00032400027
0.00029582004
0.00027201332
0.00025315576
0.00023827965
0.00022626054
0.0002168201
0.00021006842
0.00020625091
0.00020587368
0.00020962403
0.00021925576
0.00023728224
0.00027896954
0.00033047638
0.00036620023
0.00039710901
0.00042409198
0.00044855721
0.00047083922
0.00049132844
0.00051024484
0.00052777167
0.00054404964
0.00055919694
0.00057331201
0.00058648219
0.00059878948
0.00061030272
0.00062108226
0.00063117921
0.00064064184
0.0006495267
0.00065788849
0.00066576207
0.00067319133
0.00068022409
0.00068690134
0.00069325779
0.00069931461
0.00070507029
0.00071048502
0.00071555714
0.00072026399
0.00072458574
0.00072852492
0.00073207705
0.00073521469
0.00073794601
0.00074030631
0.00074237301
0.00074424003
0.00074601072
0.00074774977
0.00074950453
0.00075125187
0.00075314087
0.00075513522
0.00075728117
0.00075947347
0.00076151464
0.00076329015
0.00076464526
0.00076549155
0.00076583765
0.00076578142
0.00076547021
0.00076504017
0.00076456574
0.00076411889
0.00076367075
0.0007631767
0.00076259975
0.00076192136
0.0007611381
0.00076024924
0.000759244
0.00075809959
0.00075677488
0.00075521577
0.00075337229
0.00075121697
0.00074875057
0.00074599584
0.00074298012
0.00073972158
0.00073622404
0.00073248111
0.00072848759
0.00072423653
0.00071971859
0.00071492128
0.00070983082
0.0007044317
0.00069870552
0.00069263266
0.00068619086
0.00067935421
0.0006720952
0.00066438324
0.00065618313
0.00064745773
0.00063816511
0.00062826064
0.00061771081
0.00060647531
0.00059451521
0.00058179455
0.00056827954
0.00055393427
0.00053871336
0.00052254477
0.0005053057
0.00048678164
0.00046667383
0.00044464825
0.00042021706
0.00039298728
0.0003616743
0.00032552383
0.00027504521
0.00023489803
0.00021757919
0.00020829038
0.0002047515
0.00020547416
0.00020956546
0.0002166683
0.00022671125
0.00023931967
0.00025476129
0.00027386018
0.0002975948
0.00032567502
0.00035712925
0.00039201167
0.00043042654
0.00047239768
0.00051795866
0.00056660883
0.00061672039
0.00066566521
0.00071341613
0.00076222437
0.00081479652
0.00087053589
0.00093166595
0.0010005487
0.0010798876
0.0011765258
0.0013058997
0.0014831885
0.0017101398
0.002004087
0.0023727828
0.0028979826
0.0034474308
0.0047101446
0.0047213343
0.010197503
0.0027067744
0.050955864
0.017352744
0.83869203
1.4385933
5.6762268
1.5164565
4.0744133
1.0525807
3.2799586
0.97603027
0.67121814
0.020819081
0.047603221
0.0021416282
0.0081811175
0.0036648923
0.0036959985
0.0027575678
0.0023450509
0.0019509547
0.0016686164
0.0014430956
0.0012697127
0.0011417865
0.001045158
0.00096616984
0.00089789861
0.00083755518
0.00078253267
0.00073149684
0.00068283544
0.00063577874
0.00058807654
0.00053954751
0.00049250665
0.00044857486
0.00040811433
0.00037114053
0.00033762584
0.00030747901
0.00028080293
0.0002581952
0.00024020781
0.00022597915
0.00021446285
0.00020538696
0.00019884683
0.00019506889
0.0001945233
0.00019785163
0.00020668006
0.0002233547
0.00026181638
0.00030932594
0.00034241688
0.00037086714
0.00039560453
0.00041796732
0.00043828691
0.00045693208
0.00047411477
0.00049000299
0.00050472644
0.00051839405
0.00053109751
0.00054291994
0.00055394483
0.0005642394
0.00057386163
0.00058285682
0.00059127088
0.000599172
0.00060662784
0.00061366938
0.00062035178
0.00062673887
0.00063288388
0.0006388289
0.00064459195
0.00065014568
0.00065538587
0.00066028706
0.00066477948
0.00066880634
0.00067234819
0.00067538641
0.00067784168
0.00067973136
0.00068113369
0.00068218397
0.0006830683
0.00068398193
0.00068505002
0.00068634924
0.00068788896
0.00068984085
0.00069223132
0.00069512087
0.00069829795
0.00070135227
0.00070403663
0.00070602552
0.00070713237
0.00070737166
0.0007069436
0.00070615338
0.00070528578
0.00070448779
0.00070390987
0.00070349878
0.00070316155
0.00070282421
0.00070245101
0.00070203766
0.00070158581
0.00070107755
0.00070047314
0.00069969082
0.00069862467
0.00069717768
0.00069529942
0.0006929992
0.00069033286
0.00068736646
0.00068414995
0.00068070013
0.00067701636
0.00067310147
0.00066895505
0.00066457299
0.00065994665
0.00065506519
0.00064991563
0.00064448154
0.00063874446
0.00063268278
0.0006262704
0.00061947842
0.00061227447
0.00060462082
0.00059647699
0.0005877966
0.0005785335
0.00056866608
0.00055816439
0.00054700758
0.00053518738
0.00052270782
0.00050957894
0.00049580276
0.00048134323
0.00046608064
0.00044973377
0.00043189073
0.00041210233
0.00038979582
0.00036452115
0.00033519546
0.00030119082
0.00025547298
0.00021978719
0.00020433154
0.00019617516
0.00019335215
0.00019457155
0.00019907181
0.00020653321
0.00021683321
0.00022957443
0.00024493231
0.00026359855
0.00028637908
0.00031297136
0.00034256367
0.0003752581
0.0004111681
0.00045033919
0.00049277351
0.00053794921
0.00058434512
0.0006296978
0.00067412402
0.00071972385
0.00076885613
0.00082102793
0.00087827974
0.00094275212
0.0010169091
0.0011069428
0.0012279068
0.0013931348
0.0016025382
0.0018717975
0.0022074421
0.0026803104
0.0031746679
0.0042796086
0.0043273548
0.0089431405
0.0028980248
0.042109696
0.017126522
0.61050918
1.0148846
3.5135506
1.0771095
2.5463674
0.75933791
2.0971953
0.70832452
0.49764742
0.02141369
0.040622389
0.0022099064
0.0073890077
0.0034147497
0.0034224838
0.0025748452
0.0021937675
0.0018307285
0.0015687114
0.0013587405
0.0011965821
0.0010763929
0.00098533651
0.00091082498
0.00084642968
0.00078950071
0.00073760742
0.00068950171
0.00064367975
0.00059942232
0.00055462164
0.00050913248
0.0004650279
0.00042379712
0.00038579658
0.00035104427
0.00031951329
0.00029111496
0.00026593726
0.00024452718
0.00022741246
0.00021383494
0.00020282546
0.00019411901
0.00018779665
0.00018406652
0.00018336424
0.00018628738
0.00019433922
0.00020970315
0.00024505646
0.00028874902
0.00031933998
0.00034545351
0.00036805399
0.00038841588
0.000406868
0.00042375853
0.00043929185
0.00045362071
0.00046686388
0.00047912121
0.00049047779
0.00050101305
0.00051081292
0.00051994289
0.00052845876
0.00053640002
0.00054381049
0.00055077111
0.00055736314
0.00056361331
0.00056959039
0.00057537441
0.00058103174
0.00058661248
0.0005921317
0.00059753661
0.00060265541
0.00060743525
0.0006117562
0.00061552194
0.00061868963
0.00062122555
0.00062300018
0.00062403724
0.00062446119
0.00062446941
0.0006243453
0.00062438048
0.00062476307
0.00062560022
0.00062693415
0.00062896172
0.0006317734
0.0006354477
0.00063967765
0.00064382879
0.00064750339
0.00065019164
0.00065159836
0.00065174031
0.00065092445
0.00064962444
0.00064828782
0.00064714221
0.00064641688
0.00064603509
0.00064585388
0.00064576025
0.00064569993
0.00064566717
0.00064566568
0.00064567112
0.00064562705
0.00064540637
0.00064484707
0.00064380076
0.00064219157
0.00064003778
0.0006374311
0.00063448009
0.00063127115
0.00062783066
0.00062416587
0.00062028809
0.00061620377
0.00061191421
0.00060741472
0.00060269743
0.00059775188
0.00059256349
0.0005871148
0.00058138466
0.00057534641
0.00056896942
0.00056221905
0.00055505454
0.0005474315
0.00053929828
0.00053060948
0.00052135461
0.00051151391
0.00050108548
0.00049009002
0.00047857119
0.0004665871
0.00045418959
0.00044138045
0.00042804316
0.00041382947
0.00039820113
0.00038058459
0.00036031509
0.00033689065
0.00030943592
0.00027750132
0.00023634945
0.00020495594
0.00019131408
0.00018426286
0.00018214783
0.00018387181
0.00018880092
0.00019664718
0.00020723248
0.00022012707
0.00023540732
0.00025362932
0.00027543244
0.00030051163
0.00032821729
0.00035870223
0.00039209172
0.00042845455
0.00046776156
0.00050947305
0.00055217934
0.00059397134
0.00063509832
0.00067750404
0.00072321162
0.0007718252
0.00082520181
0.00088526047
0.00095422013
0.0010376267
0.0011502219
0.0013034563
0.0014954794
0.0017403968
0.0020435586
0.0024654946
0.0029060435
0.003861326
0.0039394779
0.0077687488
0.0030230782
0.034401451
0.016506855
0.44480413
0.72210284
2.2309667
0.77423069
1.6288366
0.55363384
1.3682612
0.51920765
0.37148104
0.021582121
0.034560124
0.0022463621
0.0066451181
0.0031707652
0.0031581994
0.0023964353
0.0020457385
0.0017126445
0.0014703955
0.0012756081
0.0011244708
0.0010119216
0.00092637737
0.00085629065
0.00079572434
0.00074216551
0.00069335551
0.00064813236
0.00060509773
0.00056358324
0.00052162069
0.00047910814
0.00043788673
0.00039931395
0.00036373924
0.0003311819
0.0003016147
0.00027495033
0.00025126156
0.00023104529
0.00021480445
0.00020188094
0.00019138177
0.00018304937
0.00017695117
0.00017327765
0.00017243137
0.00017496772
0.00018227218
0.00019637032
0.00022874133
0.00026880575
0.00029703321
0.00032093627
0.00034151169
0.00035997677
0.0003766584
0.00039188535
0.0004058549
0.00041870465
0.00043054256
0.00044145955
0.00045153434
0.00046084353
0.0004694764
0.00047749645
0.0004849575
0.00049189325
0.0004983458
0.00050440995
0.00051018079
0.00051568074
0.0005209945
0.00052621831
0.00053143244
0.00053669572
0.00054202061
0.00054733003
0.00055238224
0.0005570924
0.00056128718
0.00056482779
0.00056764618
0.00056969215
0.00057078982
0.0005709649
0.00057039192
0.00056933481
0.00056817907
0.00056731626
0.00056699918
0.00056736623
0.00056849214
0.00057060112
0.00057384815
0.00057833452
0.0005836756
0.00058900436
0.0005937542
0.00059721698
0.00059897549
0.0005990412
0.00059782936
0.00059599189
0.00059415484
0.00059263704
0.00059174549
0.00059138258
0.00059135475
0.00059150832
0.00059176903
0.00059212873
0.00059259236
0.00059313181
0.00059367161
0.00059403455
0.00059399741
0.00059335546
0.00059200482
0.00058997372
0.00058739358
0.00058442128
0.00058118293
0.00057771113
0.00057402341
0.00057013996
0.00056607437
0.00056183353
0.00055741671
0.00055281901
0.00054803235
0.00054304387
0.00053783689
0.00053239039
0.00052667679
0.00052066325
0.00051431238
0.0005075798
0.00050041664
0.00049276496
0.00048458452
0.00047587324
0.00046662192
0.00045684855
0.00044660407
0.00043597336
0.00042506449
0.00041398115
0.00040276481
0.00039130244
0.00037917963
0.0003657187
0.00035021112
0.00033189278
0.00031021827
0.00028452839
0.00025461213
0.00021780441
0.00019048098
0.00017858398
0.00017260114
0.00017118269
0.00017341948
0.00017879886
0.00018705657
0.00019795344
0.00021101525
0.00022621213
0.00024396297
0.00026475128
0.0002882826
0.00031407068
0.0003423215
0.00037317501
0.00040672459
0.00044291
0.00048117842
0.00052023693
0.00055851539
0.00059638097
0.00063561659
0.00067792607
0.00072300161
0.00077251724
0.00082817141
0.00089193278
0.00096871119
0.0010730127
0.0012143514
0.0013892338
0.0016102687
0.001881684
0.0022543947
0.0026427339
0.0034576986
0.0035590961
0.0066826721
0.0030726393
0.027779908
0.015566097
0.32407704
0.51772414
1.4477521
0.56271032
1.0625245
0.40756055
0.90816618
0.38415042
0.27922948
0.02141825
0.029325452
0.0022535135
0.0059499339
0.0029336441
0.0029038417
0.0022228608
0.0019014029
0.0015970551
0.0013739607
0.001193944
0.0010535902
0.00094856073
0.00086845246
0.00080272571
0.00074593009
0.00069568705
0.00064990508
0.00060750808
0.00056719999
0.00052836333
0.0004891669
0.00044955816
0.00041115762
0.00037519137
0.00034200074
0.00031160521
0.0002839761
0.00025902641
0.00023681332
0.00021778448
0.00020241736
0.00019014989
0.00018016392
0.00017220995
0.00016634242
0.00016273484
0.00016175822
0.00016392766
0.00017051628
0.00018339701
0.00021291957
0.00024955125
0.00027555385
0.00029737615
0.00031604059
0.00033271455
0.00034772383
0.00036137908
0.00037387098
0.00038532216
0.00039582994
0.00040547657
0.00041433464
0.00042247921
0.00043000346
0.00043696878
0.00044342709
0.00044940632
0.00045494736
0.00046015995
0.00046515258
0.00046994397
0.0004746366
0.00047934266
0.00048415709
0.00048914813
0.00049432618
0.0004995918
0.00050463245
0.00050932563
0.00051344151
0.0005167956
0.00051929228
0.00052086291
0.00052129112
0.00052059914
0.0005190157
0.00051687595
0.00051467143
0.00051289585
0.00051186711
0.00051175487
0.00051266534
0.00051485128
0.00051853176
0.00052383676
0.00053032852
0.00053690456
0.00054281273
0.00054713295
0.00054930956
0.0005493362
0.00054773344
0.00054533906
0.0005429735
0.00054106052
0.00053998213
0.0005396248
0.00053974533
0.00054014838
0.00054073824
0.00054150291
0.00054244714
0.00054354463
0.00054469393
0.00054566349
0.00054616302
0.00054592603
0.00054481831
0.00054288011
0.00054028766
0.00053725531
0.00053394768
0.00053040221
0.00052664857
0.00052271626
0.0005186262
0.00051439088
0.00051001352
0.00050549204
0.00050082061
0.00049598782
0.0004909775
0.00048576838
0.00048033146
0.00047463128
0.00046862709
0.00046227037
0.00045550722
0.00044827201
0.00044053736
0.00043230351
0.00042357333
0.0004143856
0.00040482261
0.00039501158
0.00038511178
0.00037528011
0.00036559918
0.00035596027
0.00034588487
0.00033454497
0.00032108524
0.00030463477
0.0002846162
0.0002605979
0.00023266733
0.00019995888
0.00017643743
0.00016619789
0.00016123811
0.000160502
0.00016326034
0.00016911253
0.00017780749
0.00018903817
0.00020227144
0.00021736422
0.00023459909
0.0002543195
0.00027625766
0.00030009077
0.00032608002
0.00035438338
0.00038511927
0.00041819692
0.00045305638
0.0004885263
0.0005233551
0.00055801038
0.00059411083
0.00063306118
0.00067463065
0.00072031181
0.00077158468
0.0008301631
0.00090033726
0.00099645614
0.0011260326
0.0012840928
0.0014818263
0.0017224119
0.0020479203
0.0023859935
0.0030710545
0.0031879577
0.0056907266
0.0030435881
0.022174894
0.014376798
0.23592605
0.37372267
0.95736433
0.41321395
0.70473775
0.30265083
0.61177001
0.28671128
0.21139777
0.020997498
0.024832803
0.0022341368
0.0053035685
0.002704054
0.0026600311
0.0020546146
0.001761179
0.0014843011
0.0012796917
0.0011139882
0.00098414675
0.0008864937
0.0008117292
0.00075028472
0.00069719025
0.00065019881
0.00060738056
0.00056774481
0.0005300941
0.00049386181
0.00045735143
0.00042056444
0.00038491355
0.00035149411
0.00032063827
0.00029236469
0.00026664225
0.00024338308
0.0002226286
0.00020477818
0.00019028319
0.00017867291
0.00016920242
0.00016163095
0.0001560007
0.00015246887
0.00015137649
0.00015320026
0.00015910666
0.0001708215
0.00019763599
0.00023103488
0.00025495195
0.00027482558
0.00029169434
0.00030668355
0.00032011895
0.00033229439
0.00034339458
0.00035352738
0.00036277974
0.00037122559
0.00037893162
0.00038597322
0.00039244757
0.00039841374
0.0004039219
0.00040899426
0.00041367108
0.00041807806
0.00042233579
0.00042646081
0.0004305743
0.00043480412
0.00043926036
0.00044402141
0.00044909646
0.00045436635
0.00045944905
0.00046417779
0.0004682635
0.00047147257
0.00047367884
0.000474793
0.00047456474
0.00047300778
0.00047040889
0.00046717903
0.00046391846
0.00046122323
0.00045947525
0.00045887439
0.00045955629
0.00046180238
0.00046589436
0.00047199786
0.00047965231
0.00048752518
0.0004946659
0.00049993046
0.00050260592
0.00050265006
0.00050067992
0.00049772265
0.00049480709
0.00049248015
0.00049119348
0.00049082556
0.0004910866
0.00049173959
0.00049266602
0.00049384816
0.00049528813
0.00049697172
0.00049875683
0.000500355
0.00050140231
0.00050156487
0.00050067655
0.00049879327
0.00049614278
0.00049301101
0.00048959095
0.00048592837
0.00048206567
0.00047804199
0.00047388558
0.00046961443
0.00046523554
0.00046074944
0.00045615229
0.00045143379
0.00044657789
0.0004415626
0.00043635706
0.00043092263
0.0004252147
0.00041918007
0.00041275944
0.00040587957
0.00039853181
0.00039071393
0.0003824421
0.00037377673
0.00036483213
0.0003557783
0.00034682591
0.00033818549
0.00032998166
0.00032211137
0.0003140354
0.00030476861
0.00029329631
0.00027863371
0.0002601852
0.00023775987
0.00021179487
0.00018292165
0.00016289719
0.00015421133
0.00015022212
0.00015015199
0.00015344125
0.00015978928
0.00016894502
0.00018052508
0.00019392113
0.00020887079
0.00022552478
0.00024410755
0.00026439651
0.0002862312
0.00030992948
0.00033567134
0.00036359958
0.00039359365
0.00042509339
0.00045705262
0.00048851318
0.00052002328
0.00055303557
0.00058867904
0.00062678723
0.00066867395
0.00071560416
0.00076903359
0.00083265628
0.00092074068
0.0010387296
0.0011803711
0.0013555148
0.0015663789
0.001847025
0.0021371422
0.0027035895
0.002828165
0.0047960579
0.0029388812
0.017500814
0.013012525
0.17148837
0.27138638
0.64361647
0.30636286
0.47416954
0.22650533
0.41746035
0.2157296
0.16125019
0.020381447
0.02100239
0.0021912502
0.0047057672
0.0024826178
0.0024273048
0.0018921549
0.0016254592
0.001374708
0.0011878619
0.0010359727
0.00091634037
0.00082589753
0.00075636867
0.00069911618
0.00064964238
0.00060582881
0.0005659013
0.00052895378
0.0004938835
0.00046017429
0.00042626243
0.0003922064
0.00035922536
0.00032828496
0.00029970727
0.00027350913
0.00024965613
0.00022805846
0.00020874162
0.00019205788
0.00017843197
0.00016747904
0.00015852571
0.00015134045
0.00014595413
0.0001425083
0.00014131557
0.00014281616
0.00014807581
0.00015867901
0.00018293105
0.00021329943
0.00023526952
0.00025332787
0.00026851654
0.00028192718
0.00029388669
0.00030467355
0.00031446707
0.00032336077
0.00033143157
0.00033874544
0.00034536352
0.00035136401
0.00035684736
0.00036187042
0.00036648159
0.00037069747
0.00037455846
0.00037820695
0.00038177345
0.00038527484
0.00038885071
0.00039264421
0.00039678086
0.00040134985
0.00040636039
0.00041167687
0.00041685201
0.00042166729
0.00042577234
0.00042888088
0.00043083268
0.00043151498
0.00043065102
0.00042824127
0.0004246341
0.00042032049
0.00041601039
0.00041239992
0.00040993199
0.00040883438
0.00040926909
0.00041154492
0.00041600351
0.00042285392
0.00043164742
0.00044083761
0.00044926832
0.00045556263
0.00045883031
0.00045896987
0.00045667876
0.00045317127
0.00044969406
0.00044694169
0.00044542579
0.00044502854
0.00044541907
0.00044632005
0.00044758912
0.00044920036
0.00045115516
0.00045345165
0.00045589784
0.00045814331
0.00045974326
0.00046029081
0.00045958765
0.00045771103
0.00045495088
0.00045167864
0.00044810094
0.00044427766
0.00044026378
0.00043610818
0.00043184623
0.00042750114
0.00042308337
0.00041859572
0.00041403594
0.0004093944
0.00040465473
0.0003997937
0.000394778
0.00038956536
0.00038410682
0.00037834407
0.00037221234
0.00036563316
0.00035861849
0.00035116174
0.00034329301
0.00033509494
0.00032671399
0.00031836238
0.00031030108
0.00030279329
0.00029600585
0.00028984336
0.00028371078
0.00027646472
0.00026691866
0.00025396767
0.00023701287
0.0002161173
0.00019210349
0.00016678566
0.00014992705
0.00014267771
0.00013960135
0.0001401797
0.00014400992
0.00015087624
0.00016051204
0.00017244715
0.00018598063
0.00020072674
0.00021671325
0.00023407198
0.00025264557
0.00027243363
0.00029381117
0.00031698562
0.00034212118
0.00036906883
0.00039727551
0.00042582175
0.0004540134
0.000482458
0.00051244227
0.00054484513
0.00057955056
0.00061769758
0.00066034083
0.00070867641
0.00076583365
0.00084606994
0.00095269376
0.0010784111
0.0012318141
0.0014142648
0.0016527004
0.0018975527
0.0023573186
0.0024821503
0.0039991836
0.0027669195
0.013660982
0.01154603
0.12438066
0.19807658
0.4390611
0.22917336
0.32306209
0.17069009
0.28814972
0.16354257
0.1239742
0.019620706
0.017760556
0.0021281027
0.0041559152
0.0022699087
0.0022061101
0.001735899
0.0014946054
0.0012685822
0.001098731
0.00096011879
0.0008503618
0.00076694074
0.00070252378
0.00064936088
0.0006034167
0.00056269815
0.00052558018
0.00049124033
0.00045866633
0.00042739182
0.00039598418
0.00036456013
0.00033416108
0.00030562425
0.00027926088
0.00025508517
0.00023305863
0.00021308852
0.00019518439
0.00017965286
0.00016689135
0.00015659491
0.00014815971
0.00014136398
0.00013622821
0.000132879
0.00013160206
0.00013280306
0.00013745301
0.00014700111
0.00016884017
0.0001963805
0.00021653997
0.00023291663
0.00024654019
0.00025847742
0.00026905783
0.000278546
0.00028711647
0.00029484898
0.0003018108
0.00030806052
0.00031365398
0.0003186755
0.000323227
0.00032736348
0.00033113148
0.00033454223
0.00033763704
0.00034057558
0.00034349493
0.00034641601
0.00034949501
0.00035288995
0.00035674174
0.00036115103
0.00036612857
0.00037152607
0.00037683891
0.00038178858
0.00038596225
0.00038901763
0.00039075628
0.00039103865
0.00038956954
0.00038633225
0.00038173967
0.00037636637
0.00037103082
0.00036652415
0.00036334503
0.00036174559
0.0003619099
0.00036417121
0.00036892718
0.00037643829
0.00038630463
0.00039679525
0.00040654821
0.00041394933
0.00041791132
0.00041824544
0.00041570583
0.00041168412
0.00040764638
0.00040446798
0.00040270409
0.00040225685
0.00040276261
0.00040390671
0.00040552234
0.00040757256
0.0004100653
0.00041299885
0.0004161285
0.0004190342
0.00042118236
0.00042208798
0.0004215221
0.0004195918
0.00041666719
0.00041321005
0.00040942934
0.00040540276
0.00040119793
0.00039687322
0.00039247072
0.00038801829
0.00038352935
0.00037900853
0.0003744546
0.00036985809
0.00036520174
0.00036046049
0.00035559804
0.00035056803
0.00034531678
0.00033978061
0.00033388943
0.00032756454
0.00032083666
0.00031369478
0.00030618348
0.00029840786
0.00029054588
0.00028285017
0.00027562937
0.00026919684
0.00026376095
0.00025923669
0.00025497979
0.00024969431
0.00024201068
0.00023069888
0.00021517193
0.00019575761
0.00017367892
0.000151625
0.00013758665
0.00013164733
0.00012942317
0.00013063249
0.00013501418
0.00014241931
0.00015254762
0.00016482971
0.00017845462
0.00019291249
0.0002081226
0.00022415522
0.00024093887
0.00025862961
0.00027765854
0.00029826868
0.00032063859
0.00034459298
0.00036959292
0.0003948444
0.00041988453
0.00044535819
0.00047238862
0.00050163177
0.00053300757
0.00056748565
0.00060591647
0.0006492374
0.00070005328
0.00077266642
0.00086820222
0.00097858629
0.0011112411
0.0012667908
0.001465965
0.0016686283
0.0020340229
0.0021525925
0.0032981784
0.0025403827
0.010552475
0.01004594
0.089972607
0.14516831
0.30345652
0.17283581
0.2226036
0.12940151
0.20097594
0.1248347
0.096109178
0.018756476
0.015040137
0.0020481735
0.0036530511
0.0020664445
0.001996799
0.001586219
0.0013689448
0.0011662078
0.0010125419
0.0008866347
0.00078639074
0.00070978145
0.00065033757
0.00060115028
0.0005586346
0.0005209196
0.00048652237
0.0004547027
0.00042453439
0.00039559986
0.00036659625
0.00033769773
0.00030978533
0.00028356934
0.00025934956
0.00023713692
0.00021688818
0.00019850681
0.00018198646
0.00016758977
0.00015568631
0.00014604432
0.00013812753
0.00013172414
0.00012684544
0.00012360373
0.00012225936
0.00012318528
0.00012726386
0.00013581529
0.00015539325
0.00018030595
0.00019878764
0.00021361529
0.0002257873
0.00023635456
0.00024565082
0.00025392833
0.00026135748
0.00026800495
0.00027392892
0.00027918115
0.00028381255
0.00028791766
0.00029159678
0.00029490377
0.00029788326
0.00030054139
0.00030292126
0.00030519993
0.00030751676
0.00030990139
0.00031252325
0.00031555471
0.00031915169
0.00032342686
0.00032839445
0.00033389743
0.00033938613
0.00034451312
0.00034880329
0.00035185532
0.00035342799
0.00035335108
0.00035131889
0.00034729501
0.00034175879
0.000335371
0.00032905499
0.00032368882
0.00031981941
0.00031771826
0.00031758606
0.00031977596
0.00032473614
0.00033278609
0.00034361138
0.00035534109
0.00036641502
0.00037498342
0.00037974448
0.00038039109
0.00037770277
0.00037322985
0.00036865645
0.00036505786
0.0003630314
0.0003625127
0.00036311641
0.00036449545
0.00036645873
0.000368955
0.00037201084
0.00037560352
0.00037943414
0.00038300463
0.00038568415
0.00038690524
0.00038641244
0.00038435457
0.00038121142
0.00037752139
0.00037349332
0.00036922331
0.00036479162
0.00036026557
0.00035569317
0.00035110618
0.00034652032
0.00034194136
0.00033736846
0.00033279164
0.0003281921
0.00032354237
0.00031880261
0.00031392202
0.00030884194
0.00030349332
0.00029780102
0.00029169481
0.00028521672
0.00027835386
0.0002711657
0.00026377954
0.00025640317
0.0002493264
0.00024290115
0.00023748674
0.00023333149
0.00023036427
0.0002279004
0.00022450399
0.0002186143
0.00020887285
0.00019471853
0.0001767495
0.00015658121
0.00013749283
0.00012592678
0.00012116639
0.00011973348
0.00012155736
0.00012650115
0.00013446163
0.00014508499
0.0001576878
0.00017133354
0.00018539215
0.00019969515
0.00021428621
0.00022919976
0.00024474329
0.00026140047
0.00027946329
0.00029911031
0.00032014379
0.00034204504
0.00036414091
0.00038616472
0.00040877713
0.00043294281
0.00045912223
0.00048725713
0.00051815435
0.000552468
0.00059088083
0.00063552264
0.00070077587
0.00078556244
0.00088130411
0.00099434947
0.0011247146
0.0012878488
0.0014517692
0.0017351947
0.0018422763
0.0026890055
0.0022746973
0.0080710906
0.0085732079
0.064884159
0.10672171
0.21220977
0.13130473
0.15506574
0.098604002
0.14156572
0.09588418
0.075152534
0.017821156
0.012780905
0.0019551378
0.0031958852
0.0018726827
0.0017996251
0.0014434372
0.0012487662
0.0010678427
0.00092951798
0.00081571328
0.00072459378
0.00065456564
0.00059994156
0.00055460501
0.00051540724
0.00048059633
0.00044882415
0.00041943096
0.00039157214
0.00036487748
0.00033817266
0.00031168659
0.00028615865
0.00026217407
0.00024002066
0.0002197056
0.00020118044
0.00018434415
0.00016917464
0.00015589245
0.00014483884
0.00013584798
0.00012844909
0.0001224403
0.00011782498
0.00011470181
0.00011330726
0.00011398339
0.0001175299
0.0001251445
0.00014261418
0.00016509561
0.00018202755
0.00019543687
0.00020626879
0.00021556715
0.00022367187
0.00023082446
0.00023719179
0.00024282839
0.00024778399
0.00025210431
0.00025583541
0.00025908734
0.00026195397
0.00026448933
0.00026673596
0.00026869537
0.00027041332
0.00027208347
0.00027384399
0.00027573609
0.00027793929
0.00028063924
0.00028400613
0.00028816503
0.00029313594
0.00029875694
0.0003044507
0.00030979112
0.00031424275
0.00031734282
0.00031880259
0.00031841681
0.00031587647
0.00031112481
0.0003047082
0.00029737498
0.00029014698
0.00028397807
0.00027945382
0.00027685877
0.00027640366
0.00027845526
0.00028350516
0.00029193801
0.00030355782
0.00031641585
0.00032876821
0.00033853879
0.00034419823
0.00034528894
0.00034257789
0.0003377458
0.00033268398
0.00032868491
0.00032638785
0.00032577701
0.000326459
0.0003280614
0.00033036997
0.0003333155
0.00033696165
0.00034123184
0.00034577408
0.0003500029
0.00035318127
0.0003546563
0.00035415354
0.00035188128
0.0003484702
0.00034449634
0.00034017901
0.00033562956
0.00033094067
0.00032618758
0.00032142315
0.00031668203
0.00031198135
0.0003073272
0.00030271836
0.00029814356
0.00029358181
0.00028900254
0.00028436198
0.00027960462
0.00027466683
0.00026947445
0.00026394689
0.00025803736
0.000251783
0.00024517537
0.00023828898
0.0002312723
0.0002243602