/*--------------------------------*- C++ -*----------------------------------*\
| =========                 |                                                 |
| \\      /  F ield         | OpenFOAM: The Open Source CFD Toolbox           |
|  \\    /   O peration     | Version:  2.4.0                                 |
|   \\  /    A nd           | Web:      www.OpenFOAM.org                      |
|    \\/     M anipulation  |                                                 |
\*---------------------------------------------------------------------------*/
FoamFile
{
    version     2.0;
    format      ascii;
    class       volScalarField;
    location    "260";
    object      nut;
}
// * * * * * * * * * * * * * * * * * * * * * * * * * * * * * * * * * * * * * //

dimensions      [0 2 -1 0 0 0 0];

internalField   nonuniform List<scalar> 
32000
(
1.2643303e-08
4.1017392e-09
8.6178629e-09
3.1399296e-09
1.9435371e-09
2.5544725e-10
4.8367728e-10
2.5224833e-10
2.193876e-10
1.5751281e-10
1.370285e-10
1.2004914e-10
1.0623685e-10
9.3777747e-11
8.3470886e-11
7.5552986e-11
6.9206674e-11
6.4633551e-11
6.1749775e-11
5.8922551e-11
5.6317027e-11
5.389e-11
5.1030455e-11
4.7559181e-11
4.3073156e-11
3.7182549e-11
3.3343467e-11
4.2869666e-11
5.3141894e-11
6.4087771e-11
7.5140586e-11
8.5866452e-11
9.5729036e-11
1.0431272e-10
1.1134129e-10
1.1670137e-10
1.2030911e-10
1.2175373e-10
1.2085958e-10
1.1777209e-10
1.127903e-10
1.0629703e-10
9.8794328e-11
9.0462556e-11
8.1733777e-11
7.2165565e-11
6.2639961e-11
5.0699109e-11
4.630858e-11
5.7558156e-11
6.8296467e-11
7.8167071e-11
8.7450917e-11
9.5764922e-11
1.0368345e-10
1.1101394e-10
1.174142e-10
1.2253273e-10
1.2588805e-10
1.2703638e-10
1.2558184e-10
1.2116768e-10
1.1342857e-10
1.02499e-10
8.8123768e-11
6.9541325e-11
4.7332562e-11
5.0957508e-11
7.6936415e-11
1.0261654e-10
1.2563965e-10
1.4338437e-10
1.5336167e-10
1.538723e-10
1.4500156e-10
1.2848453e-10
1.0820021e-10
8.9045353e-11
7.5388814e-11
7.0599048e-11
7.7723566e-11
1.001607e-10
1.415063e-10
2.0476581e-10
2.9100081e-10
3.9807896e-10
5.2098731e-10
6.5300987e-10
7.8592245e-10
9.0947051e-10
1.0092391e-09
1.0678322e-09
1.0696583e-09
1.0088565e-09
8.974876e-10
7.6400925e-10
6.3664378e-10
5.3456713e-10
4.6627569e-10
4.3212234e-10
4.2684591e-10
4.4182482e-10
4.6650303e-10
4.9281603e-10
5.1655796e-10
5.3664718e-10
5.5351059e-10
5.6768752e-10
5.7837704e-10
5.8359024e-10
5.8001958e-10
5.6382511e-10
5.3149744e-10
4.806197e-10
4.115567e-10
3.2717471e-10
2.3215075e-10
1.3183783e-10
5.2735753e-11
1.517232e-10
2.4872459e-10
3.4142117e-10
4.2852287e-10
5.0924847e-10
5.8317051e-10
6.5008273e-10
7.0999377e-10
7.630536e-10
8.094883e-10
8.4960373e-10
8.8372674e-10
9.1209105e-10
9.3478099e-10
9.5169434e-10
9.6246287e-10
9.6646097e-10
9.6276259e-10
9.5001565e-10
9.2703948e-10
8.9310654e-10
8.4852563e-10
7.954309e-10
7.3857412e-10
6.8561253e-10
6.4614497e-10
6.2895384e-10
6.3779172e-10
6.6829892e-10
7.1087083e-10
7.5571049e-10
7.9935675e-10
8.3278908e-10
8.5430244e-10
7.8158751e-10
6.6999682e-10
6.0437599e-10
5.4487596e-10
4.9705397e-10
4.6204025e-10
4.415532e-10
4.3637835e-10
4.4692752e-10
4.7006523e-10
5.0224729e-10
5.3966804e-10
5.8133117e-10
6.2100393e-10
6.5056954e-10
6.6804225e-10
6.7448235e-10
6.712757e-10
6.6028647e-10
6.430273e-10
6.1876901e-10
5.8484107e-10
5.4126407e-10
4.9088198e-10
4.3731367e-10
3.8069443e-10
3.2189707e-10
2.6154011e-10
1.9918429e-10
1.3445169e-10
5.8725245e-11
6.8786458e-11
1.5815287e-10
2.6755493e-10
4.0774671e-10
5.9348367e-10
8.3860787e-10
1.1951695e-09
1.5811494e-09
2.2995908e-09
2.053091e-09
3.4660108e-09
2.1049832e-09
4.6362723e-09
4.4486967e-09
9.4330302e-09
4.1978092e-09
6.8829594e-09
3.8748618e-09
5.4318147e-09
2.7642674e-09
1.9065432e-09
3.0263503e-10
5.5948365e-10
4.3900257e-10
3.0348187e-10
2.4040052e-10
2.0246438e-10
1.787635e-10
1.5654187e-10
1.3669728e-10
1.1955385e-10
1.0587015e-10
9.4509113e-11
8.5924444e-11
8.0049476e-11
7.4471842e-11
6.9359834e-11
6.4626698e-11
5.9398708e-11
5.3423199e-11
4.6149979e-11
3.7046463e-11
3.083226e-11
4.2112609e-11
5.4280307e-11
6.7046932e-11
7.9611052e-11
9.1359358e-11
1.0158481e-10
1.0977731e-10
1.1565476e-10
1.1921198e-10
1.2056484e-10
1.1946459e-10
1.1589176e-10
1.1019139e-10
1.0284896e-10
9.4394723e-11
8.5443294e-11
7.6240975e-11
6.7287871e-11
5.821991e-11
5.031817e-11
4.0325544e-11
3.7519387e-11
4.9671411e-11
6.1029699e-11
7.1292691e-11
8.0789393e-11
8.9197988e-11
9.7094157e-11
1.0431716e-10
1.1055803e-10
1.1549463e-10
1.1868656e-10
1.1972826e-10
1.1826264e-10
1.1396501e-10
1.0651803e-10
9.6059813e-11
8.2346853e-11
6.4709475e-11
4.383396e-11
4.8026066e-11
7.267095e-11
9.7082276e-11
1.1897618e-10
1.3588434e-10
1.4548144e-10
1.4619778e-10
1.3814299e-10
1.2295465e-10
1.0426038e-10
8.661946e-11
7.4084845e-11
6.9778912e-11
7.6534218e-11
9.7531025e-11
1.3617033e-10
1.9533388e-10
2.7608589e-10
3.7645256e-10
4.9168452e-10
6.1541021e-10
7.3961497e-10
8.5479921e-10
9.4712937e-10
1.0004366e-09
1.0005438e-09
9.4259471e-10
8.3836199e-10
7.1439986e-10
5.9670368e-10
5.027416e-10
4.4014833e-10
4.0911551e-10
4.0472688e-10
4.189685e-10
4.4207303e-10
4.6661879e-10
4.8875832e-10
5.0750427e-10
5.2322994e-10
5.3636501e-10
5.4609611e-10
5.5051599e-10
5.4652919e-10
5.3058982e-10
4.9951074e-10
4.5119283e-10
3.8606168e-10
3.0682109e-10
2.1784056e-10
1.2423029e-10
5.7176698e-11
1.4851734e-10
2.3878457e-10
3.2530038e-10
4.0678849e-10
4.824891e-10
5.5198136e-10
6.150535e-10
6.7169454e-10
7.2202778e-10
7.6625133e-10
8.0464083e-10
8.37495e-10
8.6502945e-10
8.8732321e-10
9.0428259e-10
9.1556392e-10
9.2057692e-10
9.1843216e-10
9.0781551e-10
8.8754668e-10
8.568309e-10
8.1581027e-10
7.6632693e-10
7.1272091e-10
6.6218868e-10
6.2398495e-10
6.0688646e-10
6.1513986e-10
6.4532416e-10
6.8858617e-10
7.3550463e-10
7.8269648e-10
8.2174454e-10
8.5074884e-10
7.8678675e-10
6.7815604e-10
6.1365568e-10
5.5617159e-10
5.1080402e-10
4.788954e-10
4.6256105e-10
4.6329646e-10
4.8236344e-10
5.1725428e-10
5.6469678e-10
6.2080207e-10
6.8425287e-10
7.4677519e-10
7.9755043e-10
8.3297729e-10
8.5345415e-10
8.6017029e-10
8.5516218e-10
8.402732e-10
8.1458371e-10
7.7511276e-10
7.2223616e-10
6.5973474e-10
5.918398e-10
5.1864908e-10
4.4112288e-10
3.5989474e-10
2.7416858e-10
1.8304649e-10
7.5356999e-11
9.5866473e-11
2.3021492e-10
3.9309845e-10
5.9828981e-10
8.6059878e-10
1.2010985e-09
1.6432629e-09
2.1801301e-09
2.7716838e-09
2.899654e-09
3.1286417e-09
1.5848732e-09
3.3280035e-09
3.3846459e-09
5.6584249e-09
4.1889165e-09
5.9164072e-10
8.1458789e-10
7.4644283e-10
9.1863048e-10
7.3799637e-10
1.3178093e-10
3.0306345e-10
3.8623779e-10
2.1661861e-10
1.9556077e-10
1.6132847e-10
1.4616421e-10
1.2842781e-10
1.1271952e-10
9.8426073e-11
8.6636638e-11
7.6514025e-11
6.8556361e-11
6.2841201e-11
5.7546678e-11
5.2762006e-11
4.8402319e-11
4.3829428e-11
3.886378e-11
3.3135513e-11
2.6283546e-11
2.1551772e-11
2.853855e-11
3.6023072e-11
4.3663072e-11
5.087669e-11
5.7230799e-11
6.2269482e-11
6.5703692e-11
6.7423255e-11
6.752519e-11
6.6239794e-11
6.3648139e-11
5.9908091e-11
5.5332129e-11
5.0256404e-11
4.4991699e-11
3.9846261e-11
3.4931469e-11
3.0445328e-11
2.6218709e-11
2.2742073e-11
1.8529509e-11
1.7551902e-11
2.2854716e-11
2.7731438e-11
3.2064802e-11
3.6015059e-11
3.9467218e-11
4.266988e-11
4.556616e-11
4.8037329e-11
4.995896e-11
5.1160199e-11
5.1484517e-11
5.0794636e-11
4.8965939e-11
4.5878948e-11
4.1594242e-11
3.6018617e-11
2.8898486e-11
2.055808e-11
2.2319607e-11
3.2170849e-11
4.1941173e-11
5.0692484e-11
5.7440048e-11
6.1267158e-11
6.1568289e-11
5.8410697e-11
5.2455774e-11
4.5142362e-11
3.8262416e-11
3.3399033e-11
3.1768632e-11
3.4482211e-11
4.2799242e-11
5.8087506e-11
8.1526377e-11
1.1357529e-10
1.5346537e-10
1.9928968e-10
2.4848824e-10
2.9767121e-10
3.4319727e-10
3.7930513e-10
3.9963347e-10
3.9878897e-10
3.7519858e-10
3.3372452e-10
2.8489248e-10
2.3882566e-10
2.0221642e-10
1.7792745e-10
1.659631e-10
1.6440372e-10
1.7012061e-10
1.7927157e-10
1.8896194e-10
1.9769348e-10
2.0508056e-10
2.1126156e-10
2.1638678e-10
2.2012009e-10
2.2170197e-10
2.1992587e-10
2.1342537e-10
2.0098996e-10
1.8183741e-10
1.5614646e-10
1.2496311e-10
8.9979415e-11
5.3225765e-11
2.7643236e-11
6.3193489e-11
9.8671548e-11
1.3281878e-10
1.6509931e-10
1.9519783e-10
2.2293651e-10
2.482214e-10
2.7103839e-10
2.9142749e-10
3.0945966e-10
3.2523786e-10
3.3887593e-10
3.5045637e-10
3.6000859e-10
3.674941e-10
3.7277443e-10
3.7561113e-10
3.7563968e-10
3.7230743e-10
3.6510504e-10
3.5366355e-10
3.3797806e-10
3.1872753e-10
2.9762099e-10
2.7757623e-10
2.6242831e-10
2.5590965e-10
2.5998557e-10
2.7350532e-10
2.9303985e-10
3.1491104e-10
3.3796265e-10
3.5899819e-10
3.7722131e-10
3.5543699e-10
3.1023854e-10
2.8351383e-10
2.6059383e-10
2.4342712e-10
2.3270167e-10
2.2959535e-10
2.3531582e-10
2.5112e-10
2.7654618e-10
3.1056306e-10
3.5160434e-10
3.9900586e-10
4.4751306e-10
4.9008193e-10
5.2358182e-10
5.4737299e-10
5.6153939e-10
5.6692444e-10
5.6449019e-10
5.5355684e-10
5.3257364e-10
5.0206397e-10
4.6455229e-10
4.2227858e-10
3.7519913e-10
3.2371502e-10
2.6801597e-10
2.0726935e-10
1.4041326e-10
5.9647849e-11
7.8686997e-11
1.8550613e-10
3.1400488e-10
4.7300384e-10
6.6822592e-10
9.1582614e-10
1.1957629e-09
1.5746236e-09
1.7347359e-09
2.0281726e-09
1.4021089e-09
5.1303619e-10
1.1054592e-09
1.072728e-09
7.3307701e-10
9.1612239e-10
5.7008682e-12
3.287144e-11
1.5975729e-11
1.5091013e-10
1.6052059e-10
3.0939005e-11
1.0270423e-10
2.2269591e-10
1.022259e-10
1.0799208e-10
8.7919802e-11
8.2603892e-11
7.3216258e-11
6.4857097e-11
5.6651981e-11
4.9567176e-11
4.3210523e-11
3.7982447e-11
3.4061613e-11
3.0534269e-11
2.7415482e-11
2.4641851e-11
2.190348e-11
1.9112836e-11
1.6112467e-11
1.2747792e-11
1.038861e-11
1.2960141e-11
1.5650902e-11
1.8243399e-11
2.0477611e-11
2.2177021e-11
2.3184775e-11
2.3436598e-11
2.295562e-11
2.1856916e-11
2.0326418e-11
1.8515009e-11
1.6545109e-11
1.4547499e-11
1.2627582e-11
1.0859141e-11
9.2968238e-12
7.9422995e-12
6.8094225e-12
5.8441024e-12
5.0938376e-12
4.2399739e-12
4.0672712e-12
5.1014786e-12
6.0367678e-12
6.851881e-12
7.582394e-12
8.2108555e-12
8.7864219e-12
9.3004935e-12
9.7327714e-12
1.0061984e-11
1.0258488e-11
1.0295355e-11
1.0148674e-11
9.7969035e-12
9.2192354e-12
8.4275597e-12
7.4067392e-12
6.1131806e-12
4.6152578e-12
4.9154425e-12
6.6824562e-12
8.4387176e-12
1.0008299e-11
1.1213608e-11
1.1892361e-11
1.1941507e-11
1.1380249e-11
1.0329793e-11
9.0472164e-12
7.8479342e-12
7.0079736e-12
6.7386325e-12
7.2361228e-12
8.7257059e-12
1.1458357e-11
1.5656358e-11
2.1413244e-11
2.8596047e-11
3.6857586e-11
4.5730799e-11
5.4539459e-11
6.2681729e-11
6.9024424e-11
7.2440946e-11
7.2034609e-11
6.7629415e-11
6.0134431e-11
5.1441789e-11
4.3321634e-11
3.6912691e-11
3.268343e-11
3.0613286e-11
3.0371838e-11
3.1414086e-11
3.3051549e-11
3.4777321e-11
3.6328081e-11
3.7635702e-11
3.8723087e-11
3.9614019e-11
4.0246776e-11
4.0487487e-11
4.012832e-11
3.8936867e-11
3.6711587e-11
3.332247e-11
2.8800958e-11
2.3323477e-11
1.7177917e-11
1.0720636e-11
6.0769067e-12
1.225041e-11
1.8499911e-11
2.4552635e-11
3.0304892e-11
3.5696471e-11
4.0692593e-11
4.5273795e-11
4.9435052e-11
5.3181261e-11
5.6523124e-11
5.9477413e-11
6.206329e-11
6.4294741e-11
6.6176532e-11
6.7701487e-11
6.8844467e-11
6.9562276e-11
6.9789247e-11
6.9417313e-11
6.8345243e-11
6.6494751e-11
6.3851583e-11
6.0527346e-11
5.6828751e-11
5.3297068e-11
5.0657705e-11
4.9628933e-11
5.0616817e-11
5.344292e-11
5.752139e-11
6.2253515e-11
6.7538062e-11
7.2885535e-11
7.8170947e-11
7.5414894e-11
6.6727125e-11
6.1845659e-11
5.8171208e-11
5.598186e-11
5.5434755e-11
5.6868434e-11
6.0790045e-11
6.7823775e-11
7.8287005e-11
9.2338507e-11
1.0994199e-10
1.3109579e-10
1.5397031e-10
1.7590234e-10
1.9526479e-10
2.1125341e-10
2.2338497e-10
2.3158287e-10
2.3596333e-10
2.3609754e-10
2.3155937e-10
2.2272254e-10
2.1064183e-10
1.9580962e-10
1.7809341e-10
1.5744267e-10
1.3370792e-10
1.0623342e-10
7.4142874e-11
3.3619866e-11
4.5050275e-11
1.036203e-10
1.7361452e-10
2.5832736e-10
3.5702385e-10
4.7768114e-10
5.8932123e-10
7.6025395e-10
7.1265961e-10
8.9514441e-10
4.0149019e-10
9.4014767e-11
2.2546239e-10
1.8543285e-10
1.5159794e-11
3.8487962e-11
4.6744033e-15
1.6646505e-13
2.1238329e-14
1.203501e-11
2.2080342e-11
5.0247903e-12
2.4628845e-11
8.3755425e-11
3.3115888e-11
4.0993679e-11
3.3280374e-11
3.2597935e-11
2.9229701e-11
2.6142164e-11
2.2791266e-11
1.972411e-11
1.683727e-11
1.4365964e-11
1.2459904e-11
1.0811402e-11
9.4016778e-12
8.1916267e-12
7.0768509e-12
6.0232379e-12
4.9853736e-12
3.9194823e-12
3.1621377e-12
3.6431401e-12
4.1181756e-12
4.5150622e-12
4.7728393e-12
4.8610197e-12
4.7643655e-12
4.4958321e-12
4.0895946e-12
3.5976176e-12
3.0824739e-12
2.5909552e-12
2.1447708e-12
1.7569474e-12
1.4316536e-12
1.1667175e-12
9.5736369e-13
7.9474142e-13
6.7273864e-13
5.8193865e-13
5.1989128e-13
4.5251724e-13
4.4319524e-13
5.31572e-13
6.1095221e-13
6.7923688e-13
7.3963181e-13
7.910572e-13
8.376535e-13
8.7888383e-13
9.132291e-13
9.3909061e-13
9.5420451e-13
9.56524e-13
9.4415886e-13
9.1542103e-13
8.686456e-13
8.0479833e-13
7.228322e-13
6.194873e-13
5.0140305e-13
5.2317004e-13
6.6382436e-13
8.0468801e-13
9.3064798e-13
1.0273043e-12
1.0818021e-12
1.0863719e-12
1.0432068e-12
9.6214262e-13
8.6358113e-13
7.7213692e-13
7.0913978e-13
6.9088822e-13
7.3296926e-13
8.5352024e-13
1.0734611e-12
1.4119896e-12
1.8779986e-12
2.4614916e-12
3.134087e-12
3.8572865e-12
4.5687379e-12
5.2265442e-12
5.7268609e-12
5.9805804e-12
5.9224313e-12
5.549711e-12
4.9393587e-12
4.2445053e-12
3.6034201e-12
3.1019023e-12
2.7733371e-12
2.6136787e-12
2.5982858e-12
2.6847671e-12
2.8170853e-12
2.955755e-12
3.0799788e-12
3.1842819e-12
3.2702332e-12
3.3393404e-12
3.386377e-12
3.4007332e-12
3.3663564e-12
3.2658827e-12
3.0847792e-12
2.8138046e-12
2.4556946e-12
2.0237939e-12
1.5399619e-12
1.0325007e-12
6.476337e-13
1.1204586e-12
1.6098786e-12
2.0876182e-12
2.5442535e-12
2.9744616e-12
3.3751058e-12
3.7443376e-12
4.081496e-12
4.3867469e-12
4.6607524e-12
4.9046953e-12
5.119996e-12
5.3077095e-12
5.468192e-12
5.6008819e-12
5.7038115e-12
5.7736094e-12
5.8052364e-12
5.7892791e-12
5.7170391e-12
5.5814503e-12
5.3804517e-12
5.1222501e-12
4.8313396e-12
4.5520645e-12
4.3444235e-12
4.2678899e-12
4.3573799e-12
4.5994947e-12
4.950418e-12
5.3703075e-12
5.8628247e-12
6.3989777e-12
6.9696056e-12
6.820443e-12
6.0529087e-12
5.6771399e-12
5.4867122e-12
5.4904903e-12
5.7072903e-12
6.1874852e-12
7.029525e-12
8.3733945e-12
1.0366219e-11
1.3167047e-11
1.6936302e-11
2.181522e-11
2.7558714e-11
3.368395e-11
3.9772317e-11
4.5495794e-11
5.0559522e-11
5.4764675e-11
5.798806e-11
6.0013391e-11
6.0772302e-11
6.0404203e-11
5.9179541e-11
5.7025374e-11
5.3835526e-11
4.9471001e-11
4.3744807e-11
3.6284197e-11
2.6573021e-11
1.3243935e-11
1.7912032e-11
4.0207999e-11
6.6810322e-11
9.8222289e-11
1.3253268e-10
1.722152e-10
1.9946031e-10
2.4763625e-10
1.9858495e-10
2.4665968e-10
8.3272592e-11
1.3039143e-11
3.1520884e-11
1.8605176e-11
2.2934385e-14
1.9744568e-13
1.2440385e-17
8.593099e-17
1.3456307e-17
3.5197905e-13
1.9307013e-12
6.6555987e-13
4.6679437e-12
2.0176551e-11
7.8018643e-12
1.0770334e-11
8.8439585e-12
8.9543526e-12
8.1060418e-12
7.2798853e-12
6.2947575e-12
5.3438732e-12
4.4205963e-12
3.6181397e-12
2.9997014e-12
2.4920873e-12
2.0776827e-12
1.7382376e-12
1.4470732e-12
1.1923218e-12
9.6299745e-13
7.4925358e-13
5.9634322e-13
6.2515842e-13
6.4907586e-13
6.5636873e-13
6.4110193e-13
6.0303836e-13
5.4489346e-13
4.7279285e-13
3.943031e-13
3.1740613e-13
2.4925661e-13
1.9322435e-13
1.4870791e-13
1.1434225e-13
8.8431986e-14
6.9274173e-14
5.5421247e-14
4.5591487e-14
3.8928789e-14
3.4739809e-14
3.2757002e-14
3.0558813e-14
3.0841029e-14
3.5666717e-14
4.0050753e-14
4.3831566e-14
4.7165413e-14
5.0011501e-14
5.2576893e-14
5.4841489e-14
5.6732353e-14
5.8171446e-14
5.9047785e-14
5.9259722e-14
5.8708087e-14
5.730568e-14
5.4964488e-14
5.1730613e-14
4.7558001e-14
4.2297141e-14
3.6377676e-14
3.7446004e-14
4.471844e-14
5.211373e-14
5.8767978e-14
6.3913758e-14
6.6880403e-14
6.7275648e-14
6.5237979e-14
6.1282089e-14
5.6458624e-14
5.2019424e-14
4.9042685e-14
4.8354397e-14
5.0769545e-14
5.7251944e-14
6.8945179e-14
8.6934079e-14
1.1176434e-13
1.4295586e-13
1.7900132e-13
2.1782347e-13
2.5572497e-13
2.9087966e-13
3.1708911e-13
3.2974199e-13
3.2559036e-13
3.0502166e-13
2.7243454e-13
2.3595761e-13
2.026866e-13
1.7688204e-13
1.6011385e-13
1.520345e-13
1.5147627e-13
1.5624165e-13
1.6332891e-13
1.707307e-13
1.7735937e-13
1.8291635e-13
1.8745955e-13
1.9103415e-13
1.9333553e-13
1.9378499e-13
1.915487e-13
1.8578067e-13
1.7580604e-13
1.6122256e-13
1.4221739e-13
1.1948717e-13
9.4155963e-14
6.7757285e-14
4.7094757e-14
7.0593137e-14
9.5653642e-14
1.2030965e-13
1.4397744e-13
1.6634069e-13
1.8721154e-13
2.0647556e-13
2.2408339e-13
2.4003147e-13
2.5434416e-13
2.6707485e-13
2.7829156e-13
2.8804586e-13
2.9635527e-13
3.0319194e-13
3.0845805e-13
3.11988e-13
3.1351037e-13
3.1253329e-13
3.0860706e-13
3.0136e-13
2.9067981e-13
2.7699048e-13
2.6156571e-13
2.4670392e-13
2.3547953e-13
2.3086848e-13
2.3451353e-13
2.4566538e-13
2.6211394e-13
2.8201954e-13
3.0573514e-13
3.3178699e-13
3.5906215e-13
3.4649477e-13
3.0192757e-13
2.8291812e-13
2.7800052e-13
2.8669424e-13
3.1048169e-13
3.5347208e-13
4.2452624e-13
5.3763056e-13
7.1198723e-13
9.7379108e-13
1.3576896e-12
1.902477e-12
2.6111694e-12
3.4559006e-12
4.3985738e-12
5.3948718e-12
6.3898268e-12
7.3314444e-12
8.173353e-12
8.8559914e-12
9.3656249e-12
9.7286987e-12
9.9911417e-12
1.0102817e-11
1.0027882e-11
9.7105415e-12
9.0739682e-12
7.9882382e-12
6.2611687e-12
3.5360402e-12
4.8348262e-12
1.0594663e-11
1.7541416e-11
2.5590105e-11
3.3853125e-11
4.2743188e-11
4.6895475e-11
5.5057508e-11
4.0006507e-11
4.3416229e-11
1.4267782e-11
1.753347e-12
3.0118616e-12
1.0121861e-12
1.3105653e-17
9.3035145e-17
4.6078614e-22
3.1779659e-19
4.5176336e-23
1.9437147e-15
9.5844043e-14
7.0983611e-14
7.2970645e-13
3.4083458e-12
1.4799289e-12
2.1257623e-12
1.7901959e-12
1.8340019e-12
1.6644722e-12
1.485524e-12
1.2641804e-12
1.0455161e-12
8.3349876e-13
6.5216239e-13
5.1601071e-13
4.1034139e-13
3.2821729e-13
2.640539e-13
2.1223832e-13
1.6965707e-13
1.3394366e-13
1.0315809e-13
8.1090824e-14
7.8039753e-14
7.4730911e-14
6.9954944e-14
6.346123e-14
5.557304e-14
4.6835521e-14
3.7960964e-14
2.9618177e-14
2.2360926e-14
1.655089e-14
1.2179962e-14
8.962623e-15
6.6377075e-15
4.9837504e-15
3.8226255e-15
3.0220262e-15
2.4821098e-15
2.1389163e-15
1.9527259e-15
1.9093305e-15
1.8549905e-15
1.9017683e-15
2.1565274e-15
2.3905231e-15
2.5930191e-15
2.7712967e-15
2.9238641e-15
3.0607902e-15
3.1814238e-15
3.282344e-15
3.3598089e-15
3.4084931e-15
3.423375e-15
3.3993706e-15
3.3320989e-15
3.2171106e-15
3.0566009e-15
2.8485031e-15
2.58615e-15
2.2950938e-15
2.3506374e-15
2.7187687e-15
3.0975969e-15
3.4397782e-15
3.7054083e-15
3.860343e-15
3.88529e-15
3.788829e-15
3.5976983e-15
3.3650906e-15
3.1534492e-15
3.0161104e-15
2.9940374e-15
3.128776e-15
3.4704621e-15
4.0795958e-15
5.0152303e-15
6.3087663e-15
7.9372486e-15
9.8219364e-15
1.1852496e-14
1.3818838e-14
1.5644424e-14
1.6973979e-14
1.7575095e-14
1.7289451e-14
1.6166768e-14
1.4458088e-14
1.2585353e-14
1.0902601e-14
9.6137475e-15
8.7878632e-15
8.3976345e-15
8.3886607e-15
8.647997e-15
9.0186787e-15
9.402257e-15
9.7440175e-15
1.0028717e-14
1.025842e-14
1.0433808e-14
1.0537873e-14
1.0539514e-14
1.0397665e-14
1.0073075e-14
9.5364491e-15
8.7721471e-15
7.7919489e-15
6.6307474e-15
5.3439913e-15
4.0112603e-15
2.9731352e-15
4.1168352e-15
5.3696216e-15
6.6117927e-15
7.8096209e-15
8.9452532e-15
1.0007976e-14
1.0991062e-14
1.189122e-14
1.2707611e-14
1.3440934e-14
1.4093475e-14
1.4668403e-14
1.5168219e-14
1.5593839e-14
1.594403e-14
1.6214169e-14
1.6396514e-14
1.6475251e-14
1.6426486e-14
1.622697e-14
1.5856957e-14
1.5309499e-14
1.4604685e-14
1.3805749e-14
1.3027867e-14
1.2424803e-14
1.2143744e-14
1.2261559e-14
1.2743378e-14
1.3483046e-14
1.4394912e-14
1.5496893e-14
1.6702591e-14
1.7909599e-14
1.6979825e-14
1.452034e-14
1.3545867e-14
1.3418073e-14
1.4077456e-14
1.561963e-14
1.830969e-14
2.2733466e-14
2.9864235e-14
4.1194425e-14
5.8990114e-14
8.6648604e-14
1.2854595e-13
1.871467e-13
2.6281971e-13
3.5467147e-13
4.6037759e-13
5.7552333e-13
6.9469412e-13
8.1171533e-13
9.181e-13
1.0115135e-12
1.0953302e-12
1.1761246e-12
1.2456842e-12
1.2984502e-12
1.3248437e-12
1.3101124e-12
1.2286036e-12
1.0383994e-12
6.7480326e-13
9.3755893e-13
2.0018301e-12
3.3211139e-12
4.8470498e-12
6.3651457e-12
7.8829839e-12
8.4163651e-12
9.2772175e-12
6.5964623e-12
5.7930389e-12
2.1206095e-12
2.2578365e-13
1.7425389e-13
2.4058279e-14
4.7177763e-22
2.2743913e-19
1.0826085e-27
3.7492792e-24
9.6283504e-30
2.761671e-17
2.1926186e-15
5.7604576e-15
9.1933077e-14
4.7224921e-13
2.3910686e-13
3.5179509e-13
3.0670239e-13
3.1512883e-13
2.860662e-13
2.5255415e-13
2.1108846e-13
1.7005943e-13
1.3097485e-13
9.8458377e-14
7.4819513e-14
5.7309365e-14
4.4244886e-14
3.4423762e-14
2.6838855e-14
2.0881333e-14
1.6125717e-14
1.2241609e-14
9.4741591e-15
8.58225e-15
7.7401739e-15
6.8301953e-15
5.848228e-15
4.8376726e-15
3.8528857e-15
2.9508664e-15
2.1744441e-15
1.550045e-15
1.0849493e-15
9.9101796e-16
1.0186392e-15
1.0425509e-15
1.0616146e-15
1.0743646e-15
1.0788751e-15
1.0731766e-15
1.0539301e-15
1.0180982e-15
9.4819668e-16
8.7808999e-16
8.3605876e-16
8.057133e-16
7.8258099e-16
7.6374181e-16
7.480477e-16
7.3470183e-16
7.2319207e-16
7.1319819e-16
7.0448197e-16
6.9685701e-16
6.9017069e-16
6.8426625e-16
6.7899797e-16
6.7427241e-16
6.7001784e-16
6.6619815e-16
6.6274679e-16
6.5952367e-16
6.5642997e-16
6.5344086e-16
6.5042796e-16
6.4727801e-16
6.4389496e-16
6.4021781e-16
6.3625285e-16
6.3211634e-16
6.2815753e-16
6.2453149e-16
6.2147738e-16
6.1918011e-16
6.1773707e-16
6.1721938e-16
6.1780973e-16
6.1953854e-16
6.2217643e-16
6.2539321e-16
6.2865723e-16
6.3140513e-16
6.3325483e-16
6.3400481e-16
6.6441649e-16
7.4916867e-16
8.087869e-16
8.3279522e-16
8.14589e-16
7.5837643e-16
6.7706859e-16
6.007099e-16
5.9884487e-16
5.9896092e-16
6.0055071e-16
6.0282994e-16
6.0502148e-16
6.0669962e-16
6.0755293e-16
6.0768897e-16
6.0732584e-16
6.0663503e-16
6.0569941e-16
6.0453714e-16
6.0315127e-16
6.0157411e-16
5.9997361e-16
5.9859592e-16
5.9772445e-16
5.975826e-16
5.9824237e-16
5.9961882e-16
6.0151593e-16
6.037149e-16
6.0613423e-16
6.0874399e-16
6.115117e-16
6.144113e-16
6.1742539e-16
6.2054373e-16
6.2376408e-16
6.2708904e-16
6.305243e-16
6.340807e-16
6.3777462e-16
6.6265215e-16
6.8981335e-16
7.1360142e-16
7.3406555e-16
7.5116625e-16
7.6471767e-16
7.7439883e-16
7.7939906e-16
7.7864278e-16
7.7099616e-16
7.5543707e-16
7.3148218e-16
7.1898828e-16
7.2874552e-16
7.3837169e-16
7.475155e-16
7.5601532e-16
7.6423873e-16
7.7363236e-16
7.8621849e-16
8.0453619e-16
8.3137681e-16
8.6962416e-16
9.2196567e-16
9.8981457e-16
1.0451046e-15
1.0726288e-15
1.0858845e-15
1.0853289e-15
1.0723592e-15
1.0487147e-15
1.2081017e-15
1.6492397e-15
2.374004e-15
3.5634854e-15
5.5113809e-15
8.6293828e-15
1.324855e-14
1.9583611e-14
2.7752557e-14
3.7724194e-14
4.9240784e-14
6.1878216e-14
7.5038135e-14
8.7802723e-14
9.9908354e-14
1.1177755e-13
1.242917e-13
1.3652826e-13
1.4791196e-13
1.5733321e-13
1.6287194e-13
1.6094959e-13
1.4511029e-13
1.0650625e-13
1.513687e-13
3.1571838e-13
5.2610849e-13
7.7181229e-13
1.0147916e-12
1.2413277e-12
1.3082433e-12
1.3544841e-12
9.5374341e-13
6.9105816e-13
2.6364544e-13
2.5931995e-14
4.9007504e-15
1.8407672e-16
3.8099983e-27
1.4905467e-24
2.7858422e-31
1.4118303e-29
5.4531483e-27
4.1104848e-22
3.6429166e-17
3.3234138e-16
8.9626712e-15
5.588522e-14
3.2398479e-14
5.0032734e-14
4.548024e-14
4.7354069e-14
4.3257553e-14
3.795156e-14
3.125378e-14
2.4589949e-14
1.8322574e-14
1.3238581e-14
9.6614454e-15
7.1214651e-15
5.2986726e-15
3.9791408e-15
3.001454e-15
2.2649928e-15
1.7027739e-15
1.2647558e-15
9.5773553e-16
8.2619535e-16
7.0812186e-16
7.3344657e-16
7.6728408e-16
8.028272e-16
8.3992677e-16
8.7843482e-16
9.1788387e-16
9.567885e-16
9.9274358e-16
1.0249016e-15
1.0537001e-15
1.0787449e-15
1.0988929e-15
1.1126455e-15
1.1180126e-15
1.1129255e-15
1.0939198e-15
1.0577836e-15
9.869852e-16
9.1514458e-16
8.7147184e-16
8.402805e-16
8.167167e-16
7.9763497e-16
7.818042e-16
7.6839422e-16
7.5686719e-16
7.4690433e-16
7.3826752e-16
7.3076938e-16
7.2425457e-16
7.1854295e-16
7.1347785e-16
7.0895998e-16
7.049154e-16
7.0131369e-16
6.9807926e-16
6.950352e-16
6.9206855e-16
6.8914403e-16
6.8609968e-16
6.8279118e-16
6.7909532e-16
6.7493546e-16
6.7032491e-16
6.654199e-16
6.6068169e-16
6.5634573e-16
6.5273818e-16
6.501137e-16
6.4861189e-16
6.4833654e-16
6.4951839e-16
6.5222279e-16
6.5614937e-16
6.6085979e-16
6.6563925e-16
6.6972333e-16
6.7258378e-16
6.7393594e-16
6.7359078e-16
6.7126562e-16
6.6669306e-16
6.5984245e-16
6.5139265e-16
6.4289145e-16
6.3544156e-16
6.3011846e-16
6.2749971e-16
6.2753441e-16
6.2957885e-16
6.3260218e-16
6.3554252e-16
6.3779892e-16
6.3895352e-16
6.3912269e-16
6.3858618e-16
6.3757253e-16
6.3619773e-16
6.3449425e-16
6.3245463e-16
6.3014236e-16
6.2779339e-16
6.2574628e-16
6.2438557e-16
6.2400874e-16
6.2470321e-16
6.2634149e-16
6.2863452e-16
6.3129115e-16
6.3421767e-16
6.3736824e-16
6.4069722e-16
6.4416828e-16
6.4775649e-16
6.5144622e-16
6.5523197e-16
6.5911443e-16
6.630982e-16
6.6719441e-16
6.7142138e-16
6.7580543e-16
6.8038492e-16
6.8521103e-16
6.9034739e-16
6.9587524e-16
7.018932e-16
7.0852199e-16
7.157938e-16
7.2379767e-16
7.3257745e-16
7.4211496e-16
7.5229643e-16
7.62879e-16
7.7347201e-16
7.8355591e-16
7.9259403e-16
8.003018e-16
8.0710501e-16
8.1483813e-16
8.2612977e-16
8.4413515e-16
8.7213607e-16
9.1302251e-16
9.688057e-16
1.0373532e-15
1.0904628e-15
1.1165262e-15
1.1280786e-15
1.125046e-15
1.1086105e-15
1.0806331e-15
1.0442182e-15
1.0036194e-15
9.6294371e-16
9.244701e-16
8.8872787e-16
8.5558728e-16
8.4195473e-16
1.3192714e-15
1.9758318e-15
2.8276448e-15
3.8700151e-15
5.0784044e-15
6.4043714e-15
7.7620249e-15
9.1301584e-15
1.0563693e-14
1.2175819e-14
1.3877922e-14
1.5627107e-14
1.7316336e-14
1.8731121e-14
1.9435601e-14
1.8557637e-14
1.500186e-14
2.1972888e-14
4.5246366e-14
7.5725947e-14
1.1139894e-13
1.4604321e-13
1.7553769e-13
1.8058596e-13
1.7469099e-13
1.1777691e-13
7.2833153e-14
2.5960541e-14
2.5514114e-15
4.8529412e-17
2.2413125e-17
3.0470793e-31
2.2896368e-30
4.0430614e-31
6.9550968e-31
4.4781481e-31
8.105974e-29
2.6908715e-18
9.3866364e-17
6.4376141e-16
5.4101021e-15
3.5638879e-15
5.918489e-15
5.6590222e-15
6.0427468e-15
5.5940777e-15
4.9035921e-15
3.9899753e-15
3.0687891e-15
2.2093283e-15
1.5297141e-15
1.0686355e-15
7.5547077e-16
5.4258489e-16
5.6187899e-16
5.8139537e-16
6.0138255e-16
6.2236813e-16
6.4470887e-16
6.6972261e-16
6.9774377e-16
7.2848977e-16
7.6140912e-16
7.9616541e-16
8.3262687e-16
8.7064926e-16
9.1010679e-16
9.5057389e-16
9.9062615e-16
1.0278614e-15
6.6755819e-16
4.425491e-16
3.0628284e-16
2.2257177e-16
1.704546e-16
1.3785532e-16
1.1789865e-16
1.0654244e-16
1.0225281e-16
1.0317037e-16
1.0318563e-16
1.0284388e-16
1.0290738e-16
1.0333162e-16
1.0385322e-16
1.0442307e-16
1.050122e-16
1.0560287e-16
1.0620979e-16
1.0684161e-16
1.0750391e-16
1.0819847e-16
1.0890793e-16
1.0961105e-16
1.1030253e-16
1.1097876e-16
1.1164907e-16
1.1230774e-16
1.1289843e-16
1.1337824e-16
1.137448e-16
1.1394349e-16
1.1392051e-16
1.1363097e-16
1.1304987e-16
1.121908e-16
1.1112702e-16
1.100544e-16
1.0908589e-16
1.0836408e-16
1.0800033e-16
1.0805807e-16
1.0858654e-16
1.0969078e-16
1.1141103e-16
1.1363866e-16
1.162014e-16
1.1880604e-16
1.2112581e-16
1.229166e-16
1.2412903e-16
1.2391135e-16
1.2374711e-16
1.2207538e-16
1.1931149e-16
1.15714e-16
1.1202966e-16
1.0875552e-16
1.0636079e-16
1.0509814e-16
1.0497215e-16
1.0575449e-16
1.0681414e-16
1.0816533e-16
1.0941292e-16
1.0998887e-16
1.1008977e-16
1.0983144e-16
1.0932175e-16
1.0862313e-16
1.0775659e-16
1.0672113e-16
1.0553147e-16
1.0427863e-16
1.0310008e-16
1.0215766e-16
1.0158794e-16
1.0144726e-16
1.0169514e-16
1.0221111e-16
1.0285845e-16
1.0358479e-16
1.0436621e-16
1.0518171e-16
1.060123e-16
1.0684304e-16
1.0766278e-16
1.0846417e-16
1.0924238e-16
1.099943e-16
1.1071943e-16
1.1142002e-16
1.1210157e-16
1.12774e-16
1.1345181e-16
1.1415366e-16
1.1490337e-16
1.1572959e-16
1.1666141e-16
1.1768548e-16
1.1881014e-16
1.2001274e-16
1.2123553e-16
1.2237221e-16
1.2325826e-16
1.236732e-16
1.2337013e-16
1.2215083e-16
1.1999651e-16
1.1722346e-16
1.1451656e-16
1.125896e-16
1.1207858e-16
1.1338183e-16
1.1632164e-16
1.1994043e-16
1.1806323e-16
1.1111862e-16
1.1221798e-16
1.2123614e-16
1.3836641e-16
1.6605562e-16
2.0886404e-16
2.7639902e-16
3.8513093e-16
5.6529457e-16
8.7014376e-16
9.0700658e-16
8.747009e-16
8.4550661e-16
8.1837339e-16
7.9220035e-16
7.6658955e-16
7.4133737e-16
7.1680699e-16
6.9360694e-16
6.7228422e-16
7.1828613e-16
8.6079876e-16
1.0306234e-15
1.2218233e-15
1.4338722e-15
1.6600163e-15
1.8818138e-15
2.0555836e-15
2.0804374e-15
1.8346738e-15
2.7818601e-15
5.7048481e-15
9.5902954e-15
1.410046e-14
1.8311057e-14
2.1452489e-14
2.1231835e-14
1.9004995e-14
1.1890671e-14
6.4083996e-15
1.9070821e-15
2.0988213e-16
7.4055837e-18
1.1904526e-20
2.0945014e-27
6.8542844e-31
5.8039899e-31
2.0785073e-24
3.7580137e-22
3.6635019e-25
1.5513905e-21
2.8537174e-17
1.1348945e-16
4.1364115e-16
3.0976351e-16
5.6548883e-16
5.7472669e-16
6.3602859e-16
6.0077387e-16
5.2872732e-16
4.2629371e-16
4.4901381e-16
4.7641507e-16
5.0125421e-16
5.2357789e-16
5.4455798e-16
5.6488293e-16
5.8497764e-16
6.0532008e-16
6.261562e-16
6.48028e-16
6.7129168e-16
6.9728669e-16
7.26251e-16
7.5793977e-16
7.9183664e-16
8.2756826e-16
5.6591094e-16
3.7082766e-16
2.3922896e-16
1.5329501e-16
9.9059828e-17
6.6186114e-17
4.6732586e-17
3.4986611e-17
2.7730905e-17
2.314446e-17
2.0168498e-17
1.8172033e-17
1.6776089e-17
1.5713791e-17
1.4860339e-17
1.3844756e-17
1.2757301e-17
1.2069081e-17
1.1619486e-17
1.1317803e-17
1.1091518e-17
1.0916211e-17
1.0777046e-17
1.0664521e-17
1.0575314e-17
1.0506638e-17
1.0456196e-17
1.0421911e-17
1.039936e-17
1.038504e-17
1.0377172e-17
1.0374464e-17
1.0377228e-17
1.0384042e-17
1.0387844e-17
1.0383799e-17
1.0370847e-17
1.0342764e-17
1.0293438e-17
1.0217832e-17
1.0113208e-17
9.9811475e-18
9.8295873e-18
9.6790431e-18
9.5428108e-18
9.4358905e-18
9.3699189e-18
9.3514611e-18
9.3857169e-18
9.4828388e-18
9.6481425e-18
9.870659e-18
1.013237e-17
1.0402062e-17
1.0644266e-17
1.0831728e-17
1.0952418e-17
1.0952942e-17
1.0908507e-17
1.0724368e-17
1.0423328e-17
1.0031743e-17
9.6302507e-18
9.2734726e-18
9.0098889e-18
8.8649166e-18