/*--------------------------------*- C++ -*----------------------------------*\
| =========                 |                                                 |
| \\      /  F ield         | OpenFOAM: The Open Source CFD Toolbox           |
|  \\    /   O peration     | Version:  2.4.0                                 |
|   \\  /    A nd           | Web:      www.OpenFOAM.org                      |
|    \\/     M anipulation  |                                                 |
\*---------------------------------------------------------------------------*/
FoamFile
{
    version     2.0;
    format      ascii;
    class       volScalarField;
    location    "260";
    object      v2;
}
// * * * * * * * * * * * * * * * * * * * * * * * * * * * * * * * * * * * * * //

dimensions      [0 2 -2 0 0 0 0];

internalField   nonuniform List<scalar> 
32000
(
3.3297519e-06
4.6322271e-07
1.9773731e-06
3.3888542e-07
1.6920763e-07
2.6603009e-09
9.5943166e-09
8.5759051e-10
1.7027192e-09
7.9417517e-10
6.9804006e-10
5.2404475e-10
4.2690334e-10
3.4271375e-10
2.8162126e-10
2.3672544e-10
2.0323114e-10
1.7993604e-10
1.6447125e-10
1.5090294e-10
1.3904794e-10
1.2851436e-10
1.1763388e-10
1.059961e-10
9.274276e-11
7.7238169e-11
6.659318e-11
8.1967284e-11
9.7022819e-11
1.116072e-10
1.2475029e-10
1.3588026e-10
1.4442195e-10
1.5012719e-10
1.5310095e-10
1.5388412e-10
1.5307218e-10
1.5032723e-10
1.4545023e-10
1.3878814e-10
1.308772e-10
1.2226585e-10
1.1358424e-10
1.0500215e-10
9.7083796e-11
8.9232947e-11
8.4103215e-11
7.4187753e-11
7.1370014e-11
9.243148e-11
1.1340535e-10
1.3355734e-10
1.5316009e-10
1.7140783e-10
1.8919721e-10
2.0610217e-10
2.2140064e-10
2.3432758e-10
2.4384453e-10
2.4895865e-10
2.4875257e-10
2.4237513e-10
2.2895165e-10
2.0861972e-10
1.8074548e-10
1.4365017e-10
9.842036e-11
1.0660749e-10
1.618737e-10
2.170463e-10
2.6704964e-10
3.0616078e-10
3.2885926e-10
3.3126258e-10
3.13318e-10
2.7858284e-10
2.3535353e-10
1.9426624e-10
1.649297e-10
1.5485063e-10
1.7088865e-10
2.2071345e-10
3.1246572e-10
4.5301302e-10
6.4492336e-10
8.8365525e-10
1.1581959e-09
1.4536608e-09
1.7516385e-09
2.0292832e-09
2.2541338e-09
2.3871085e-09
2.3930476e-09
2.2585387e-09
2.0103614e-09
1.7121768e-09
1.4272766e-09
1.1987635e-09
1.0458082e-09
9.6928692e-10
9.5743928e-10
9.9093444e-10
1.0460751e-09
1.1047509e-09
1.1575176e-09
1.2019425e-09
1.2389778e-09
1.269829e-09
1.292706e-09
1.3031753e-09
1.2938839e-09
1.256334e-09
1.1828189e-09
1.0681231e-09
9.1326346e-10
7.2482687e-10
5.1339484e-10
2.9099395e-10
1.1615657e-10
3.3343702e-10
5.4529084e-10
7.4656465e-10
9.3440129e-10
1.1070855e-09
1.2636952e-09
1.4038076e-09
1.5274789e-09
1.6350792e-09
1.7271492e-09
1.8044039e-09
1.8676032e-09
1.9173132e-09
1.9537915e-09
1.9769179e-09
1.9860484e-09
1.9800532e-09
1.9572555e-09
1.9152176e-09
1.8519866e-09
1.7666619e-09
1.6605171e-09
1.5384335e-09
1.4101994e-09
1.2906798e-09
1.1975157e-09
1.1456007e-09
1.1393946e-09
1.1681091e-09
1.2120613e-09
1.2520954e-09
1.2807227e-09
1.2803784e-09
1.2468964e-09
1.0466834e-09
8.2642531e-10
7.1629224e-10
6.3101479e-10
5.7004798e-10
5.301784e-10
5.1098104e-10
5.1269494e-10
5.3632007e-10
5.7878203e-10
6.3738906e-10
7.0968353e-10
7.9695007e-10
8.9110862e-10
9.7835554e-10
1.0534865e-09
1.1155663e-09
1.1641861e-09
1.2001567e-09
1.2235681e-09
1.2294862e-09
1.2081863e-09
1.158146e-09
1.0860227e-09
1.0006069e-09
9.0055884e-10
7.8790302e-10
6.6354698e-10
5.2512646e-10
3.7012243e-10
1.7036337e-10
2.1276674e-10
5.2584139e-10
9.6445734e-10
1.6021563e-09
2.5840661e-09
3.9902226e-09
6.6885681e-09
8.8227221e-09
1.9247779e-08
7.9475724e-09
6.6736791e-08
2.1470326e-08
3.8841795e-07
4.9774545e-07
2.2613684e-06
4.8141259e-07
1.389645e-06
3.671131e-07
9.7085329e-07
2.5132049e-07
1.4193984e-07
3.3086491e-09
1.0287137e-08
1.5458672e-09
2.2476491e-09
1.1737651e-09
9.957655e-10
7.5636037e-10
6.102419e-10
4.8532446e-10
3.9219646e-10
3.2275417e-10
2.7014239e-10
2.3286832e-10
2.075615e-10
1.856643e-10
1.6670235e-10
1.5002082e-10
1.3328125e-10
1.1589815e-10
9.6728366e-11
7.4918164e-11
5.9957128e-11
7.8420924e-11
9.6544547e-11
1.1377752e-10
1.2882729e-10
1.4094637e-10
1.4944306e-10
1.5408622e-10
1.5511522e-10
1.5331709e-10
1.4958527e-10
1.4379902e-10
1.3593447e-10
1.2652309e-10
1.1623922e-10
1.0571056e-10
9.5598608e-11
8.6076114e-11
7.7693816e-11
6.9932442e-11
6.5535778e-11
5.7164516e-11
5.5987704e-11
7.7186009e-11
9.8005179e-11
1.1774208e-10
1.3669988e-10
1.5417636e-10
1.7102446e-10
1.8687605e-10
2.0108676e-10
2.1296932e-10
2.2159955e-10
2.2609714e-10
2.2566027e-10
2.1954037e-10
2.0699881e-10
1.8818634e-10
1.625268e-10
1.2859898e-10
8.7671499e-11
9.6629098e-11
1.470285e-10
1.9744103e-10
2.4315248e-10
2.7898985e-10
2.9999627e-10
3.0271219e-10
2.8713116e-10
2.5647351e-10
2.1819375e-10
1.8181907e-10
1.55931e-10
1.4722609e-10
1.6182523e-10
2.0660401e-10
2.8891571e-10
4.1502088e-10
5.8732763e-10
8.0179356e-10
1.0484483e-09
1.3138302e-09
1.5808585e-09
1.8293852e-09
2.0297051e-09
2.1470151e-09
2.150332e-09
2.0284786e-09
1.8062203e-09
1.5404622e-09
1.2873445e-09
1.0848492e-09
9.4973907e-10
8.8260421e-10
8.7290355e-10
9.0336013e-10
9.529182e-10
1.0055482e-09
1.0529282e-09
1.092908e-09
1.1262813e-09
1.1539718e-09
1.1742307e-09
1.182957e-09
1.173503e-09
1.1382705e-09
1.070472e-09
9.6572074e-10
8.2511405e-10
6.5466755e-10
4.6394823e-10
2.6404426e-10
1.2125886e-10
3.1422592e-10
5.0392316e-10
6.8462975e-10
8.5362957e-10
1.0093225e-09
1.1508405e-09
1.2777691e-09
1.3901245e-09
1.4882083e-09
1.5724824e-09
1.6435693e-09
1.7021369e-09
1.7486843e-09
1.7834371e-09
1.8062814e-09
1.8166274e-09
1.8134334e-09
1.7951304e-09
1.7594325e-09
1.7044413e-09
1.6291452e-09
1.5344457e-09
1.4244947e-09
1.3079629e-09
1.1983453e-09
1.1120615e-09
1.0635409e-09
1.0580575e-09
1.0868602e-09
1.1321339e-09
1.175737e-09
1.210116e-09
1.2189345e-09
1.1972795e-09
1.0177766e-09
8.1063661e-10
7.0591268e-10
6.2591559e-10
5.6988314e-10
5.3515673e-10
5.2196884e-10
5.3156073e-10
5.6613219e-10
6.237919e-10
7.0272161e-10
8.0107135e-10
9.2049251e-10
1.0509719e-09
1.1753896e-09
1.2861345e-09
1.3807752e-09
1.4578739e-09
1.5176407e-09
1.5596603e-09
1.5774137e-09
1.5594026e-09
1.5042385e-09
1.420292e-09
1.3173365e-09
1.193262e-09
1.0499269e-09
8.8769522e-10
7.0254498e-10
4.8958451e-10
2.1235246e-10
2.878961e-10
7.4236789e-10
1.3722385e-09
2.2725382e-09
3.6125967e-09
5.4991922e-09
8.7941909e-09
1.1681323e-08
2.1825463e-08
1.1764378e-08
5.5071931e-08
1.6279941e-08
2.3766519e-07
3.1656328e-07
1.0512449e-06
4.0223788e-07
9.3126136e-08
6.5165425e-08
1.0541716e-07
7.0766528e-08
4.7147175e-08
1.4812242e-09
5.156142e-09
1.3937523e-09
1.5278556e-09
9.2318983e-10
7.6481198e-10
5.9852346e-10
4.8496701e-10
3.8823906e-10
3.1351952e-10
2.5664045e-10
2.12603e-10
1.8064074e-10
1.5842032e-10
1.3948338e-10
1.2328513e-10
1.0923179e-10
9.5607916e-11
8.1965122e-11
6.7519748e-11
5.1679395e-11
4.0754949e-11
5.1692901e-11
6.2340688e-11
7.2113606e-11
8.0148482e-11
8.5977317e-11
8.9222923e-11
8.9841798e-11
8.8102522e-11
8.4608578e-11
8.0054198e-11
7.4608667e-11
6.8411567e-11
6.1834549e-11
5.5260933e-11
4.8999826e-11
4.3335375e-11
3.8313951e-11
3.4130391e-11
3.0554909e-11
2.8694728e-11
2.5412511e-11
2.5326813e-11
3.4321236e-11
4.3011261e-11
5.1118589e-11
5.8795194e-11
6.5786875e-11
7.244993e-11
7.8652856e-11
8.4154516e-11
8.869756e-11
9.1935933e-11
9.3542414e-11
9.3221057e-11
9.0696018e-11
8.5699697e-11
7.8302589e-11
6.8294067e-11
5.5158869e-11
3.9482911e-11
4.311405e-11
6.248082e-11
8.1874585e-11
9.9442237e-11
1.1320683e-10
1.2129321e-10
1.2241394e-10
1.1660356e-10
1.051075e-10
9.0761354e-11
7.7162236e-11
6.7533195e-11
6.4381908e-11
7.0008603e-11
8.7015634e-11
1.182197e-10
1.6604895e-10
2.3147263e-10
3.1297998e-10
4.0675748e-10
5.0766747e-10
6.0885355e-10
7.029978e-10
7.7833891e-10
8.2178689e-10
8.2190677e-10
7.7494879e-10
6.9056168e-10
5.9030305e-10
4.9520402e-10
4.193448e-10
3.6885758e-10
3.4386754e-10
3.4043824e-10
3.5209527e-10
3.708998e-10
3.9084736e-10
4.0881898e-10
4.240011e-10
4.3667235e-10
4.4714322e-10
4.5471915e-10
4.5782596e-10
4.5396095e-10
4.4028671e-10
4.142994e-10
3.744119e-10
3.2106313e-10
2.5650958e-10
1.8433926e-10
1.088071e-10
5.6377371e-11
1.2855518e-10
2.0018465e-10
2.6868266e-10
3.329543e-10
3.9236328e-10
4.4655891e-10
4.9536532e-10
5.38771e-10
5.7687454e-10
6.0983726e-10
6.3788355e-10
6.6125719e-10
6.8013959e-10
6.9460887e-10
7.0461363e-10
7.0991822e-10
7.1010942e-10
7.0455988e-10
6.9234125e-10
6.7265578e-10
6.450279e-10
6.0970574e-10
5.6820029e-10
5.2381649e-10
4.8182515e-10
4.4877343e-10
4.3058032e-10
4.2969507e-10
4.430297e-10
4.6377125e-10
4.8484997e-10
5.0333374e-10
5.1280992e-10
5.1082454e-10
4.4327018e-10
3.5879743e-10
3.1608744e-10
2.8461111e-10
2.638701e-10
2.5296703e-10
2.5240289e-10
2.6347096e-10
2.8810907e-10
3.2653497e-10
3.7887177e-10
4.4509978e-10
5.2657567e-10
6.1745672e-10
7.0744253e-10
7.9101612e-10
8.655773e-10
9.2926101e-10
9.8133599e-10
1.0209041e-09
1.0433987e-09
1.0420738e-09
1.0164427e-09
9.7179214e-10
9.130189e-10
8.3830279e-10
7.4806691e-10
6.4168266e-10
5.1538587e-10
3.6427018e-10
1.6298926e-10
2.2901501e-10
5.7906166e-10
1.0593227e-09
1.7328984e-09
2.6976167e-09
4.0237407e-09
6.0997673e-09
8.0772954e-09
1.2792257e-08
8.5146882e-09
2.2436319e-08
5.2354783e-09
6.7355846e-08
8.4271127e-08
1.0715301e-07
7.4137207e-08
7.0939228e-10
2.2334285e-09
1.8041132e-09
9.9032007e-09
8.8298825e-09
3.5255652e-10
1.6141362e-09
8.1630048e-10
6.8523044e-10
4.9209779e-10
4.0108461e-10
3.2685372e-10
2.674115e-10
2.1639438e-10
1.749696e-10
1.424748e-10
1.1655631e-10
9.7172456e-11
8.3374303e-11
7.1858766e-11
6.2196582e-11
5.3991512e-11
4.6387686e-11
3.9135545e-11
3.1877012e-11
2.433797e-11
1.9078259e-11
2.2804159e-11
2.6318968e-11
2.9287065e-11
3.1365317e-11
3.2402188e-11
3.2317299e-11
3.1182477e-11
2.9191561e-11
2.665175e-11
2.3902122e-11
2.1111938e-11
1.8373567e-11
1.5804614e-11
1.3493535e-11
1.1488031e-11
9.8164921e-12
8.4528703e-12
7.4021599e-12
6.5991744e-12
6.2179886e-12
5.618212e-12
5.6677369e-12
7.3938302e-12
9.0311047e-12
1.0530255e-11
1.1926487e-11
1.3180277e-11
1.436025e-11
1.5446222e-11
1.6398265e-11
1.7173895e-11
1.7715424e-11
1.7968891e-11
1.7885202e-11
1.7418849e-11
1.6525438e-11
1.5219427e-11
1.3468033e-11
1.1186886e-11
8.4961659e-12
9.099354e-12
1.2435836e-11
1.5783719e-11
1.8811262e-11
2.1177719e-11
2.2565069e-11
2.2761679e-11
2.1784786e-11
1.9852442e-11
1.7449502e-11
1.5183201e-11
1.3593207e-11
1.3097679e-11
1.4084877e-11
1.6998461e-11
2.2329355e-11
3.0509931e-11
4.1723801e-11
5.5721114e-11
7.1842803e-11
8.9202073e-11
1.0650409e-10
1.2261096e-10
1.3532911e-10
1.4244703e-10
1.4211453e-10
1.3384794e-10
1.1934096e-10
1.0228843e-10
8.622477e-11
7.3470523e-11
6.5009933e-11
6.0832962e-11
6.0294383e-11
6.2313704e-11
6.5530178e-11
6.8935341e-11
7.2001955e-11
7.4590569e-11
7.6744493e-11
7.8510811e-11
7.9767068e-11
8.0246037e-11
7.9531031e-11
7.7153493e-11
7.270735e-11
6.5935658e-11
5.6912664e-11
4.6008396e-11
3.3815145e-11
2.1054593e-11
1.1904364e-11
2.3932381e-11
3.6035746e-11
4.7677093e-11
5.8653179e-11
6.8847652e-11
7.8194908e-11
8.6659992e-11
9.4236442e-11
1.0093706e-10
1.067858e-10
1.118179e-10
1.1607254e-10
1.1957869e-10
1.2234788e-10
1.2436948e-10
1.2560079e-10
1.25968e-10
1.2536112e-10
1.2360446e-10
1.2054346e-10
1.1607685e-10
1.102276e-10
1.0324304e-10
9.5697005e-11
8.8529696e-11
8.2929929e-11
7.9992657e-11
8.0217589e-11
8.3096935e-11
8.7469818e-11
9.2155289e-11
9.6720061e-11
1.000686e-10
1.0165143e-10
9.0496925e-11
7.4541373e-11
6.6727111e-11
6.1571711e-11
5.8886756e-11
5.85598e-11
6.0852178e-11
6.6377368e-11
7.6033157e-11
9.0482645e-11
1.1041454e-10
1.3651399e-10
1.6968189e-10
2.0819244e-10
2.485725e-10
2.8844604e-10
3.2623695e-10
3.6057945e-10
3.9055573e-10
4.1529028e-10
4.3258436e-10
4.4003108e-10
4.3764794e-10
4.2750767e-10
4.1059522e-10
3.8579591e-10
3.5265863e-10
3.1020165e-10
2.5587593e-10
1.8622103e-10
8.8914302e-11
1.2682446e-10
3.124561e-10
5.6476053e-10
9.1058435e-10
1.3823132e-09
2.0079449e-09
2.8554895e-09
3.7209752e-09
4.8980415e-09
3.8383385e-09
5.8069012e-09
9.4189795e-10
1.1726089e-08
1.2287701e-08
1.7657385e-09
2.6405657e-09
4.6521649e-13
9.6572533e-12
1.9372792e-12
6.7614831e-10
1.0493698e-09
5.7465871e-11
3.5702128e-10
3.0952523e-10
2.1051026e-10
1.8000343e-10
1.4584367e-10
1.2443734e-10
1.0309249e-10
8.4362931e-11
6.8149277e-11
5.4932741e-11
4.4027104e-11
3.563545e-11
2.9572125e-11
2.4669851e-11
2.0680509e-11
1.7401877e-11
1.4530986e-11
1.1957525e-11
9.5629728e-12
7.2559367e-12
5.6317581e-12
6.2185214e-12
6.7201943e-12
7.035884e-12
7.0985522e-12
6.8985388e-12
6.4524436e-12
5.8133225e-12
5.0550228e-12
4.26418e-12
3.5227838e-12
2.8705634e-12
2.3135952e-12
1.8535207e-12
1.4849757e-12
1.1975489e-12
9.8026568e-13
8.1972128e-13
7.0822379e-13
6.3588861e-13
6.1313241e-13
5.7853276e-13
5.9563265e-13
7.4259267e-13
8.8042465e-13
1.004941e-12
1.1193599e-12
1.2211358e-12
1.3158946e-12
1.4023339e-12
1.4775715e-12
1.5385374e-12
1.5810154e-12
1.6010962e-12
1.5951226e-12
1.5597211e-12
1.4915405e-12
1.391754e-12
1.258186e-12
1.0848529e-12
8.8307526e-13
9.263632e-13
1.1814574e-12
1.4393252e-12
1.6728541e-12
1.8557198e-12
1.963843e-12
1.9817972e-12
1.9118442e-12
1.7708155e-12
1.5954229e-12
1.431013e-12
1.3175658e-12
1.2859879e-12
1.3656537e-12
1.5905103e-12
1.9993417e-12
2.6273634e-12
3.4908708e-12
4.5720078e-12
5.8198588e-12
7.1655934e-12
8.4964409e-12
9.7388349e-12
1.070258e-11
1.1221188e-11
1.116284e-11
1.0507029e-11
9.3876283e-12
8.08894e-12
6.8760438e-12
5.9186029e-12
5.2860719e-12
4.9742773e-12
4.9377719e-12
5.0962516e-12
5.3440219e-12
5.6058382e-12
5.8416481e-12
6.0405453e-12
6.2052553e-12
6.3386251e-12
6.4306984e-12
6.4611029e-12
6.3986486e-12
6.2092063e-12
5.8640677e-12
5.3453303e-12
4.6591119e-12
3.832706e-12
2.9098602e-12
1.945994e-12
1.2172256e-12
2.0995873e-12
3.0070492e-12
3.8862081e-12
4.7193693e-12
5.4966994e-12
6.2125516e-12
6.8637517e-12
7.4493707e-12
7.9700118e-12
8.4271786e-12
8.8232905e-12
9.1611299e-12
9.4427603e-12
9.6689544e-12
9.838826e-12
9.9490594e-12
9.9939912e-12
9.9654875e-12
9.8487978e-12
9.6311241e-12
9.3035704e-12
8.8667324e-12
8.3388499e-12
7.7642834e-12
7.2170324e-12
6.7913308e-12
6.5740646e-12
6.6069208e-12
6.8510242e-12
7.2197081e-12
7.6300631e-12
8.0589739e-12
8.428102e-12
8.6855409e-12
7.8603142e-12
6.5205658e-12
5.9187589e-12
5.6204174e-12
5.5974229e-12
5.8524672e-12
6.4392479e-12
7.4812727e-12
9.1691105e-12
1.1725772e-11
1.5430975e-11
2.0624567e-11
2.7685875e-11
3.6502816e-11
4.6568937e-11
5.7400612e-11
6.8547198e-11
7.9516277e-11
8.9870575e-11
9.9180337e-11
1.0672647e-10
1.1198122e-10
1.1501484e-10
1.1633184e-10
1.1576952e-10
1.1286987e-10
1.072128e-10
9.8158409e-11
8.4491605e-11
6.448535e-11
3.3830498e-11
4.8670629e-11
1.168544e-10
2.0904411e-10
3.3222439e-10
4.906678e-10
6.9032794e-10
9.1454337e-10
1.1520302e-09
1.2658517e-09
1.0663254e-09
1.0823114e-09
1.2685834e-10
1.3993553e-09
1.0439323e-09
2.1519274e-12
1.1548073e-11
1e-15
4.2770954e-15
1e-15
1.7008862e-11
7.9549654e-11
7.580846e-12
6.2330398e-11
7.4681431e-11
4.6929215e-11
4.54901e-11
3.7163278e-11
3.2920665e-11
2.7562841e-11
2.2686163e-11
1.8194563e-11
1.4398687e-11
1.1188974e-11
8.6894246e-12
6.8932484e-12
5.5057913e-12
4.4248853e-12
3.5751249e-12
2.876687e-12
2.2916586e-12
1.7884539e-12
1.3430253e-12
1.0285232e-12
1.033675e-12
1.0263673e-12
9.9147034e-13
9.2458397e-13
8.3013958e-13
7.1606354e-13
5.9338191e-13
4.7316719e-13
3.6525769e-13
2.7652315e-13
2.0776067e-13
1.5563837e-13
1.1699902e-13
8.8931844e-14
6.890649e-14
5.4961852e-14
4.5516145e-14
3.9638109e-14
3.6684733e-14
3.7271632e-14
3.7643352e-14
3.9922124e-14
4.7961817e-14
5.5522076e-14
6.2345674e-14
6.8583854e-14
7.4135651e-14
7.9272798e-14
8.3942585e-14
8.8011368e-14
9.133528e-14
9.3716671e-14
9.4971649e-14
9.4920919e-14
9.3400545e-14
9.0244212e-14
8.5505201e-14
7.9091968e-14
7.0745737e-14
6.1174474e-14
6.3294406e-14
7.596343e-14
8.8963664e-14
1.0082577e-13
1.1021812e-13
1.1594356e-13
1.1725008e-13
1.1427322e-13
1.0784476e-13
9.976024e-14
9.2219427e-14
8.7155029e-14
8.6063833e-14
9.0401862e-14
1.0187741e-13
1.2249681e-13
1.5413487e-13
1.9773038e-13
2.5247686e-13
3.1583445e-13
3.8432607e-13
4.5165866e-13
5.1492162e-13
5.6340721e-13
5.8894106e-13
5.8509022e-13
5.5144764e-13
4.9512676e-13
4.3041962e-13
3.703676e-13
3.2316271e-13
2.9207918e-13
2.7674729e-13
2.7516576e-13
2.8337225e-13
2.9597976e-13
3.0932828e-13
3.2140127e-13
3.3161762e-13
3.4006268e-13
3.4681633e-13
3.5132148e-13
3.5251092e-13
3.4880704e-13
3.3857626e-13
3.2049515e-13
2.9378837e-13
2.5884481e-13
2.1705656e-13
1.7061782e-13
1.2243311e-13
8.4833904e-14
1.2673873e-13
1.711221e-13
2.1442725e-13
2.5560654e-13
2.9410313e-13
3.295961e-13
3.6189946e-13
3.9094517e-13
4.16746e-13
4.3936272e-13
4.5890424e-13
4.7550026e-13
4.8924776e-13
5.0018235e-13
5.0825971e-13
5.1331882e-13
5.150886e-13
5.1315373e-13
5.067827e-13
4.9535339e-13
4.7843463e-13
4.5607312e-13
4.2919991e-13
4.0004491e-13
3.7228879e-13
3.5055014e-13
3.3897816e-13
3.3940448e-13
3.498057e-13
3.6593014e-13
3.8389597e-13
4.0267104e-13
4.1842676e-13
4.2799235e-13
3.8281272e-13
3.1314337e-13
2.8458874e-13
2.7522095e-13
2.8292088e-13
3.0874044e-13
3.5749484e-13
4.4016995e-13
5.7494664e-13
7.8816844e-13
1.1184722e-12
1.6213319e-12
2.3667134e-12
3.3863091e-12
4.6710896e-12
6.1964934e-12
7.9215642e-12
9.7791064e-12
1.1690514e-11
1.3564258e-11
1.5261131e-11
1.6704698e-11
1.7917752e-11
1.8987283e-11
1.9819232e-11
2.0308126e-11
2.0320506e-11
1.9652526e-11
1.7945149e-11
1.4647507e-11
8.7044291e-12
1.2650238e-11
2.9601987e-11
5.2650092e-11
8.2809524e-11
1.1945302e-10
1.6279963e-10
2.0263914e-10
2.4241196e-10
2.3532811e-10
1.8680556e-10
1.6568283e-10
1.639406e-11
1.1408857e-10
4.8253749e-11
1e-15
4.6626855e-15
1e-15
1e-15
1e-15
8.1141897e-14
3.4359158e-12
8.0038012e-13
8.9659674e-12
1.2561058e-11
8.4046107e-12
8.6200342e-12
7.1998969e-12
6.4825202e-12
5.4469943e-12
4.4629018e-12
3.5264435e-12
2.7211051e-12
2.0389544e-12
1.5141385e-12
1.1463995e-12
8.7645592e-13
6.7578703e-13
5.2503738e-13
4.078791e-13
3.1523179e-13
2.4048363e-13
1.7877173e-13
1.3523531e-13
1.2480751e-13
1.1433874e-13
1.0228028e-13
8.8619882e-14
7.4103581e-14
5.964119e-14
4.6182655e-14
3.4461342e-14
2.4951741e-14
1.7802377e-14
1.2694677e-14
9.0903033e-15
6.5798656e-15
4.8535124e-15
3.6803711e-15
2.899153e-15
2.3955175e-15
2.103736e-15
1.9900745e-15
2.0930367e-15
2.1986193e-15
2.3679267e-15
2.7878069e-15
3.1837695e-15
3.5410776e-15
3.8665173e-15
4.1561654e-15
4.4227725e-15
4.6643124e-15
4.8747262e-15
5.0473994e-15
5.1732801e-15
5.2438316e-15
5.250495e-15
5.1855411e-15
5.0410755e-15
4.8195339e-15
4.5170626e-15
4.1229056e-15
3.6775087e-15
3.7848516e-15
4.3986627e-15
5.0361223e-15
5.6210332e-15
6.0878468e-15
6.3785885e-15
6.4574913e-15
6.3324667e-15
6.0440981e-15
5.6783946e-15
5.3397297e-15
5.1193499e-15
5.0880334e-15
5.3159114e-15
5.8868115e-15
6.9009161e-15
8.4540941e-15
1.0596995e-14
1.3293596e-14
1.6419918e-14
1.9803972e-14
2.3110621e-14
2.6233007e-14
2.8594176e-14
2.9804437e-14
2.9555236e-14
2.7857388e-14
2.5087477e-14
2.1945817e-14
1.9055606e-14
1.6799358e-14
1.5324455e-14
1.4601512e-14
1.4545548e-14
1.4963441e-14
1.5587905e-14
1.62475e-14
1.6844537e-14
1.7349856e-14
1.7765601e-14
1.8092712e-14
1.8301382e-14
1.8336468e-14
1.8121831e-14
1.7582181e-14
1.6659392e-14
1.5322607e-14
1.3594938e-14
1.154495e-14
9.2787895e-15
6.9425266e-15
5.1278139e-15
7.0736935e-15
9.1895359e-15
1.1268147e-14
1.325172e-14
1.5110359e-14
1.6826733e-14
1.8390524e-14
1.9797372e-14
2.1047036e-14
2.2141765e-14
2.3086278e-14
2.3886459e-14
2.454679e-14
2.5068938e-14
2.5450849e-14
2.5685e-14
2.5758885e-14
2.5649726e-14
2.5323827e-14
2.475104e-14
2.3910238e-14
2.280339e-14
2.1475324e-14
2.0033666e-14
1.8655636e-14
1.7562109e-14
1.6948875e-14
1.6896022e-14
1.7308289e-14
1.798429e-14
1.8740578e-14
1.9521791e-14
2.0131796e-14
2.0381263e-14
1.795323e-14
1.4475963e-14
1.3127285e-14
1.2820577e-14
1.343122e-14
1.5047474e-14
1.7985189e-14
2.2956866e-14
3.118807e-14
4.4631526e-14
6.6406938e-14
1.0145906e-13
1.5669815e-13
2.3748694e-13
3.4700268e-13
4.8718447e-13
6.5796147e-13
8.5585114e-13
1.0746453e-12
1.3048172e-12
1.5302371e-12
1.7429829e-12
1.9473547e-12
2.1563882e-12
2.3564277e-12
2.5345464e-12
2.6711041e-12
2.7325101e-12
2.6563263e-12
2.3360619e-12
1.5967838e-12
2.3560522e-12
5.3624408e-12
9.5337169e-12
1.4957439e-11
2.1329421e-11
2.8415433e-11
3.4122344e-11
3.8472774e-11
3.5621526e-11
2.4493497e-11
2.1877013e-11
2.008499e-12
5.6277645e-12
9.7737984e-13
1e-15
1e-15
1e-15
1e-15
1e-15
1e-15
6.8646951e-14
6.3983019e-14
1.0387689e-12
1.7235986e-12
1.2790992e-12
1.366893e-12
1.1783208e-12
1.0689223e-12
8.9936069e-13
7.3019106e-13
5.6731253e-13
4.2682375e-13
3.0916327e-13
2.2064115e-13
1.604545e-13
1.1816001e-13
8.7937035e-14
6.6070431e-14
4.9786494e-14
3.7449818e-14
2.7946077e-14
2.0478443e-14
1.5253779e-14
1.3254884e-14
1.1440776e-14
9.6512537e-15
7.895849e-15
6.2394363e-15
4.747583e-15
3.4751645e-15
2.4498464e-15
1.6750522e-15
1.1300489e-15
1e-15
1e-15
1e-15
1e-15
1e-15
1e-15
1e-15
1e-15
1e-15
1e-15
1e-15
1e-15
1e-15
1e-15
1e-15
1e-15
1e-15
1e-15
1e-15
1e-15
1e-15
1e-15
1e-15
1e-15
1e-15
1e-15
1e-15
1e-15
1e-15
1e-15
1e-15
1e-15
1e-15
1e-15
1e-15
1e-15
1e-15
1e-15
1e-15
1e-15
1e-15
1e-15
1e-15
1e-15
1e-15
1e-15
1e-15
1e-15
1e-15
1e-15
1e-15
1.0487605e-15
1.1861419e-15
1.287801e-15
1.3371597e-15
1.3213851e-15
1.2429662e-15
1.1198349e-15
1e-15
1e-15
1e-15
1e-15
1e-15
1e-15
1e-15
1e-15
1e-15
1e-15
1e-15
1e-15
1e-15
1e-15
1e-15
1e-15
1e-15
1e-15
1e-15
1e-15
1e-15
1e-15
1e-15
1e-15
1e-15
1e-15
1e-15
1e-15
1e-15
1e-15
1e-15
1e-15
1e-15
1e-15
1.0327659e-15
1.068361e-15
1.0979264e-15
1.1215363e-15
1.1391115e-15
1.1503426e-15
1.1547079e-15
1.1511095e-15
1.1380964e-15
1.1142794e-15
1.0786224e-15
1.0310627e-15
1e-15
1e-15
1e-15
1e-15
1e-15
1e-15
1e-15
1e-15
1e-15
1e-15
1e-15
1e-15
1e-15
1e-15
1e-15
1e-15
1e-15
1e-15
1e-15
1.1880082e-15
1.6821277e-15
2.5177986e-15
3.9320885e-15
6.3268394e-15
1.0303277e-14
1.6438894e-14
2.5231494e-14
3.7123502e-14
5.2397512e-14
7.1031581e-14
9.2689857e-14
1.1660415e-13
1.4124902e-13
1.6595751e-13
1.9140448e-13
2.1935288e-13
2.4845649e-13
2.7761974e-13
3.0487011e-13
3.2631248e-13
3.3403484e-13
3.1306365e-13
2.4159409e-13
3.6428501e-13
8.0836742e-13
1.439677e-12
2.2630829e-12
3.2166323e-12
4.2162489e-12
4.9526582e-12
5.2622887e-12
4.7030455e-12
2.8351457e-12
2.4030929e-12
2.1730264e-13
1.3480177e-13
6.3889844e-15
1e-15
1e-15
1e-15
1e-15
1e-15
1e-15
1e-15
3.6214773e-15
9.3120418e-14
2.0100265e-13
1.62877e-13
1.858883e-13
1.6657999e-13
1.5385095e-13
1.3040835e-13
1.0540614e-13
8.0783533e-14
5.9414602e-14
4.1663783e-14
2.8588515e-14
1.9968306e-14
1.4150798e-14
1.0149529e-14
7.3603761e-15
5.365724e-15
3.9146936e-15
2.8437936e-15
2.039023e-15
1.4862387e-15
1.230255e-15
1.0095287e-15
1e-15
1e-15
1e-15
1e-15
1e-15
1e-15
1e-15
1e-15
1e-15
1e-15
1e-15
1e-15
1e-15
1e-15
1e-15
1e-15
1e-15
1e-15
1e-15
1e-15
1e-15
1e-15
1e-15
1e-15
1e-15
1e-15
1e-15
1e-15
1e-15
1e-15
1e-15
1e-15
1e-15
1e-15
1e-15
1e-15
1e-15
1e-15
1e-15
1e-15
1e-15
1e-15
1e-15
1e-15
1e-15
1e-15
1e-15
1e-15
1e-15
1e-15
1e-15
1e-15
1e-15
1e-15
1e-15
1e-15
1e-15
1e-15
1e-15
1e-15
1e-15
1e-15
1e-15
1e-15
1e-15
1e-15
1e-15
1e-15
1e-15
1e-15
1e-15
1e-15
1e-15
1e-15
1e-15
1e-15
1e-15
1e-15
1e-15
1e-15
1e-15
1e-15
1e-15
1e-15
1e-15
1e-15
1e-15
1e-15
1e-15
1e-15
1e-15
1e-15
1e-15
1e-15
1e-15
1e-15
1e-15
1e-15
1e-15
1e-15
1e-15
1e-15
1e-15
1e-15
1e-15
1e-15
1e-15
1e-15
1e-15
1e-15
1e-15
1e-15
1e-15
1e-15
1e-15
1e-15
1e-15
1e-15
1e-15
1e-15
1e-15
1e-15
1e-15
1e-15
1e-15
1e-15
1e-15
1e-15
1e-15
1e-15
1e-15
1e-15
1e-15
1e-15
1e-15
1e-15
1e-15
1.0205576e-15
1.6565993e-15
2.5698526e-15
3.8102009e-15
5.4047048e-15
7.3504485e-15
9.5985329e-15
1.2023397e-14
1.4584089e-14
1.7378632e-14
2.0630369e-14
2.4232133e-14
2.8127595e-14
3.2160809e-14
3.5946722e-14
3.8606174e-14
3.8276728e-14
3.2520625e-14
5.0480183e-14
1.1035487e-13
1.9681476e-13
3.0913628e-13
4.3597857e-13
5.5910119e-13
6.3504071e-13
6.3203801e-13
5.2743094e-13
2.8632025e-13
2.0797702e-13
1.9943758e-14
1.1353797e-15
1e-15
1e-15
1e-15
1e-15
1e-15
1e-15
1e-15
1e-15
1e-15
6.1543489e-15
1.9089048e-14
1.6798054e-14
2.0980746e-14
1.9719585e-14
1.8767127e-14
1.613997e-14
1.3058087e-14
9.9003601e-15
7.1254411e-15
4.8311257e-15
3.1778988e-15
2.1250327e-15
1.4443607e-15
1e-15
1e-15
1e-15
1e-15
1e-15
1e-15
1e-15
1e-15
1e-15
1e-15
1e-15
1e-15
1e-15
1e-15
1e-15
1e-15
1e-15
1e-15
1e-15
1e-15
1e-15
1e-15
1e-15
1e-15
1e-15
1e-15
1e-15
1e-15
1e-15
1e-15
1e-15
1e-15
1e-15
1e-15
1e-15
1e-15
1e-15
1e-15
1e-15
1e-15
1e-15
1e-15
1e-15
1e-15
1e-15
1e-15
1e-15
1e-15
1e-15
1e-15
1e-15
1e-15
1e-15
1e-15
1e-15
1e-15
1e-15
1e-15
1e-15
1e-15
1e-15
1e-15
1e-15
1e-15
1e-15
1e-15
1e-15
1e-15
1e-15
1e-15
1e-15
1e-15
1e-15
1e-15
1e-15
1e-15
1e-15
1e-15
1e-15
1e-15
1e-15
1e-15
1e-15
1e-15
1e-15
1e-15
1e-15
1e-15
1e-15
1e-15
1e-15
1e-15
1e-15
1e-15
1e-15
1e-15
1e-15
1e-15
1e-15
1e-15
1e-15
1e-15
1e-15
1e-15
1e-15
1e-15
1e-15
1e-15
1e-15
1e-15
1e-15
1e-15
1e-15
1e-15
1e-15
1e-15
1e-15
1e-15
1e-15
1e-15
1e-15
1e-15
1e-15
1e-15
1e-15
1e-15
1e-15
1e-15
1e-15
1e-15
1e-15
1e-15
1e-15
1e-15
1e-15
1e-15
1e-15
1e-15
1e-15
1e-15
1e-15
1e-15
1e-15
1e-15
1e-15
1e-15
1e-15
1e-15
1e-15
1e-15
1e-15
1e-15
1e-15
1e-15
1.1002538e-15
1.356643e-15
1.6716813e-15
2.0409389e-15
2.46753e-15
2.9459286e-15
3.4482957e-15
3.8951076e-15
4.0883286e-15
3.7877223e-15
6.0791902e-15
1.3204077e-14
2.3577801e-14
3.6869354e-14
5.1234707e-14
6.3733281e-14
6.8960962e-14
6.3612787e-14
4.8081893e-14
2.3839567e-14
1.3362262e-14
1.5156587e-15
1e-15
1e-15
1e-15
1e-15
1e-15
1e-15
1e-15
1e-15
1e-15
1e-15
1e-15
1.4259047e-15
1.3656472e-15
1.9083576e-15
1.9012746e-15
1.8843382e-15
1.6555189e-15
1.347296e-15
1.013472e-15
1e-15
1e-15
1e-15
1e-15
1e-15
1e-15
1e-15
1e-15
1e-15
1e-15
1e-15
1e-15
1e-15
1e-15
1e-15
1e-15
1e-15
1e-15
1e-15
1e-15
1e-15
1e-15
1e-15
1e-15
1e-15
1e-15
1e-15
1e-15
1e-15
1e-15
1e-15
1e-15
1e-15
1e-15
1e-15
1e-15
1e-15
1e-15
1e-15
1e-15
1e-15
1e-15
1e-15
1e-15
1e-15
1e-15
1e-15
1e-15
1e-15
1e-15
1e-15
1e-15
1e-15
1e-15
1e-15
1e-15
1e-15
1e-15
1e-15
1e-15
1e-15
1e-15
1e-15
1e-15
1e-15
1e-15
1e-15
1e-15
1e-15
1e-15
1e-15
1e-15
1e-15
1e-15
1e-15
1e-15
1e-15
1e-15
1e-15
1e-15
1e-15
1e-15
1e-15
1e-15
1e-15
1e-15
1e-15
1e-15
1e-15
1e-15
1e-15
1e-15
1e-15
1e-15
1e-15
1e-15
1e-15
1e-15
1e-15
1e-15
1e-15
1e-15
1e-15
1e-15
1e-15
1e-15
1e-15
1e-15
1e-15
1e-15
1e-15
1e-15
1e-15
1e-15
1e-15
1e-15
1e-15
1e-15
1e-15
1e-15
1e-15
1e-15
1e-15
1e-15
1e-15
1e-15
1e-15
1e-15
1e-15
1e-15
1e-15
1e-15
1e-15
1e-15
1e-15
1e-15
1e-15
1e-15
1e-15
1e-15
1e-15
1e-15
1e-15
1e-15
1e-15
1e-15
1e-15
1e-15
1e-15
1e-15
1e-15
1e-15
1e-15
1e-15
1e-15
1e-15
1e-15
1e-15
1e-15
1e-15
1e-15
1e-15
1e-15
1e-15
1e-15
1e-15
1e-15
1e-15
1e-15
1e-15
1.3344281e-15
2.3831508e-15
3.6973619e-15
5.0325066e-15
6.0203204e-15
6.1308518e-15
5.1867319e-15
3.4467005e-15
1.5884654e-15
1e-15
1e-15
1e-15
1e-15
1e-15
1e-15
1e-15
1e-15
1e-15
1e-15
1e-15
1e-15
1e-15
1e-15
1e-15
1e-15
1e-15
1e-15
1e-15
1e-15
1e-15
1e-15
1e-15
1e-15
1e-15
1e-15
1e-15
1e-15
1e-15
1e-15
1e-15
1e-15
1e-15
1e-15
1e-15
1e-15
1e-15
1e-15
1e-15
1e-15
1e-15
1e-15
1e-15
1e-15
1e-15
1e-15
1e-15
1e-15
1e-15
1e-15
1e-15
1e-15
1e-15
1e-15
1e-15
1e-15
1e-15
1e-15
1e-15
1e-15
1e-15
1e-15
1e-15
1e-15
1e-15
1e-15
1e-15
1e-15
1e-15
1e-15
1e-15
1e-15
1e-15
1e-15
1e-15
1e-15
1e-15
1e-15
1e-15
1e-15
1e-15
1e-15
1e-15
1e-15
1e-15
1e-15
1e-15
1e-15
1e-15
1e-15
1e-15
1e-15
1e-15
1e-15
1e-15
1e-15
1e-15
1e-15
1e-15
1e-15
1e-15
1e-15
1e-15
1e-15
1e-15
1e-15
1e-15
1e-15
1e-15
1e-15
1e-15
1e-15
1e-15
1e-15
1e-15
1e-15
1e-15
1e-15
1e-15
1e-15
1e-15
1e-15
1e-15
1e-15
1e-15
1e-15
1e-15
1e-15
1e-15
1e-15
1e-15
1e-15
1e-15
1e-15
1e-15
1e-15
1e-15
1e-15
1e-15
1e-15
1e-15
1e-15
1e-15
1e-15
1e-15
1e-15
1e-15
1e-15
1e-15
1e-15
1e-15
1e-15
1e-15
1e-15
1e-15
1e-15
1e-15
1e-15
1e-15
1e-15
1e-15
1e-15
1e-15
1e-15
1e-15
1e-15
1e-15
1e-15
1e-15
1e-15
1e-15
1e-15
1e-15
1e-15
1e-15
1e-15
1e-15
1e-15
1e-15
1e-15
1e-15
1e-15
1e-15
1e-15
1e-15
1e-15
1e-15
1e-15
1e-15
1e-15
1e-15
1e-15
1e-15
1e-15
1e-15
1e-15
1e-15
1e-15
1e-15
1e-15
1e-15
1e-15
1e-15
1e-15
6.6427465e-15
1e-15
1e-15
3.4076544e-14
3.5015179e-14
1e-15
1e-15
1e-15
1e-15
1e-15
1e-15
1e-15
1e-15
1e-15
1e-15
1e-15
1e-15
1e-15
1e-15
1e-15
1e-15
1e-15
1e-15
1e-15
1e-15
1e-15
1e-15
1e-15
1e-15
1e-15
1e-15
1e-15
1e-15
1e-15
1e-15
1e-15
1e-15
1e-15
1e-15
1e-15
1e-15
1e-15
1e-15
1e-15
1e-15
1e-15
1e-15
1e-15
1e-15
1e-15
1e-15
1e-15
1e-15
1e-15
1e-15
1e-15
1e-15
1e-15
1e-15
1e-15
1e-15
1e-15
1e-15
1e-15
1e-15
1e-15
1e-15
1e-15
1e-15
1e-15
1e-15
1e-15
1e-15
1e-15
1e-15
1e-15
1e-15
1e-15
1e-15
1e-15
1e-15
1e-15
1e-15
1e-15
1e-15
1e-15
1e-15
1e-15
1e-15
1e-15
1e-15
1e-15
1e-15
1e-15
1e-15
1e-15
1e-15
1e-15
1e-15
1e-15
1e-15
1e-15
1e-15
1e-15
1e-15
1e-15
1e-15
1e-15
1e-15
1e-15
1e-15
1e-15
1e-15
1e-15
1e-15
1e-15
1e-15
1e-15
1e-15
1e-15
1e-15
1e-15
1e-15
1e-15
1e-15
1e-15
1e-15
1e-15
1e-15
1e-15
1e-15
1e-15
1e-15
1e-15
1e-15
1e-15
1e-15
1e-15
1e-15
1e-15
1e-15
1e-15
1e-15
1e-15
1e-15
1e-15
1e-15
1e-15
1e-15
1e-15
1e-15
1e-15
1e-15
1e-15
1e-15
1e-15
1e-15
1e-15
1e-15
1e-15
1e-15
1e-15
1e-15
1e-15
1e-15
1e-15
1e-15
1e-15
1e-15
1e-15
1e-15
1e-15
1e-15
1e-15
1e-15
1e-15
1e-15
1e-15
1e-15
1e-15
1e-15
1e-15
1e-15
1e-15
1e-15
1e-15
1e-15
1e-15
1e-15
1e-15
1e-15
1e-15
1e-15
1e-15
1e-15
1e-15
1e-15
1e-15
1e-15
1e-15
1.2731131e-13
2.2081256e-14
1e-15
3.5656397e-13
2.5092258e-13
1e-15
1e-15
1e-15
1e-15
1e-15
1e-15
1e-15
1e-15
1e-15
1e-15
1e-15
1e-15
1e-15
1e-15
1e-15
1e-15
1e-15
1e-15
1e-15
1e-15
1e-15
1e-15
1e-15
1e-15
1e-15
1e-15
1e-15
1e-15
1e-15
1e-15
1e-15
1e-15
1e-15
1e-15
1e-15
1e-15
1e-15
1e-15
1e-15
1e-15
1e-15
1e-15
1e-15
1e-15
1e-15
1e-15
1e-15
1e-15
1e-15
1e-15
1e-15
1e-15
1e-15
1e-15
1e-15
1e-15
1e-15
1e-15
1e-15
1e-15
1e-15
1e-15
1e-15
1e-15
1e-15
1e-15
1e-15
1e-15
1e-15
1e-15
1e-15
1e-15
1e-15
1e-15
1e-15
1e-15
1e-15
1e-15
1e-15
1e-15
1e-15
1e-15
1e-15
1e-15
1e-15
1e-15
1e-15
1e-15
1e-15
1e-15
1e-15
1e-15
1e-15
1e-15
1e-15
1e-15
1e-15
1e-15
1e-15
1e-15
1e-15
1e-15
1e-15
1e-15
1e-15
1e-15
1e-15
1e-15
1e-15
1e-15
1e-15
1e-15
1e-15
1e-15
1e-15
1e-15
1e-15
1e-15
1e-15
1e-15
1e-15
1e-15
1e-15
1e-15
1e-15
1e-15
1e-15
1e-15
1e-15
1e-15
1e-15
1e-15
1e-15
1e-15
1e-15
1e-15
1e-15
1e-15
1e-15
1e-15
1e-15
1e-15
1e-15
1e-15
1e-15
1e-15
1e-15
1e-15
1e-15
1e-15
1e-15