0.44815628 	0 	0 	0 	0 	0 	0
0.44909187 	0.00075011693 	2.357219e-05 	1.3090337e-21 	0.00056408978 	2.3110616e-21 	0.00065713322
0.45009717 	0.0012743059 	6.1729515e-05 	-2.156538e-21 	0.00078677328 	-5.992063e-21 	0.0010305905
0.45117744 	0.0018662592 	0.00011533804 	-3.5173727e-20 	0.00095445863 	-3.7370172e-20 	0.0014103591
0.45233828 	0.002434043 	0.00016997574 	3.8405061e-20 	0.0010867401 	4.1768729e-20 	0.0017603774
0.45358568 	0.0029237835 	0.00021501712 	2.8829249e-20 	0.0012126182 	1.2116072e-20 	0.0020681975
0.4549261 	0.0033286462 	0.0002479476 	-1.3338446e-19 	0.0013447857 	-1.4336567e-19 	0.0023367183
0.45636646 	0.0036622384 	0.00027024974 	1.8749752e-20 	0.0014848655 	6.7585025e-20 	0.002573554
0.45791423 	0.0039406587 	0.00028407351 	9.2200827e-20 	0.0016317032 	1.0407931e-19 	0.0027861824
0.4595774 	0.0041771181 	0.00029118144 	-2.5541902e-20 	0.0017843238 	-4.0404372e-20 	0.0029807229
0.46136458 	0.0043815172 	0.00029282877 	-4.0142462e-20 	0.0019423942 	5.4454012e-20 	0.0031619583
0.46328499 	0.0045611434 	0.00028986327 	4.8439392e-20 	0.0021061042 	3.8018491e-20 	0.0033336269
0.46534857 	0.0047213936 	0.0002828367 	1.2444563e-19 	0.0022759994 	-9.4961371e-20 	0.0034987001
0.46756597 	0.0048663318 	0.00027208879 	-1.0738365e-19 	0.0024528652 	-8.7527735e-20 	0.0036596027
0.46994866 	0.0049990795 	0.00025780262 	1.5636816e-20 	0.0026376581 	1.2430471e-19 	0.0038183735
0.47250895 	0.0051220846 	0.00024004005 	8.5443211e-20 	0.0028314689 	3.8786284e-20 	0.0039767822
0.47526006 	0.0052373154 	0.00021876353 	-1.7335164e-19 	0.0030355111 	-1.1465282e-19 	0.0041364195
0.47821618 	0.005346399 	0.00019384717 	2.9114228e-20 	0.0032511217 	8.0262385e-20 	0.0042987675
0.4813926 	0.0054507191 	0.0001650809 	1.3391094e-19 	0.0034797715 	1.9625253e-20 	0.0044652536
0.48480569 	0.0055514926 	0.00013216923 	-3.1282356e-20 	0.003723082 	-5.7850509e-20 	0.0046372966
0.48847307 	0.0056498283 	9.4722685e-05 	6.3419358e-20 	0.0039828476 	-6.9833039e-20 	0.0048163482
0.49241365 	0.0057467786 	5.2245004e-05 	-9.1130813e-20 	0.0042610663 	-3.9629593e-20 	0.0050039341
0.49664777 	0.0058433858 	4.116463e-06 	-1.4096528e-19 	0.0045599747 	8.9288573e-21 	0.0052016932
0.50119723 	0.0059407235 	-5.043319e-05 	-8.3141579e-20 	0.0048820912 	-4.5882884e-20 	0.0054114207
0.5060855 	0.006039945 	-0.00011236176 	1.9189928e-20 	0.0052302729 	2.3209593e-19 	0.0056351223
0.51133774 	0.0061423363 	-0.00018285938 	1.8885141e-19 	0.0056077804 	-4.045283e-21 	0.0058750715
0.51698101 	0.0062493647 	-0.00026340911 	-1.8545062e-19 	0.006018348 	-9.3075163e-20 	0.006133868
0.52304435 	0.006362736 	-0.00035586997 	7.2333128e-20 	0.0064662711 	2.7837279e-19 	0.0064145125
0.52955895 	0.0064844687 	-0.00046258054 	3.1125636e-19 	0.0069565147 	-1.6398288e-19 	0.0067204969
0.5365583 	0.0066169746 	-0.00058649172 	-1.83948e-19 	0.0074948396 	-2.6669296e-19 	0.0070559066
0.54407839 	0.0067631247 	-0.00073133309 	-1.758491e-19 	0.0080879127 	1.4465594e-19 	0.0074255091
0.55215783 	0.0069263511 	-0.00090182988 	9.8991686e-20 	0.008743448 	1.1490683e-19 	0.0078348763
0.56083809 	0.0071108224 	-0.001103994 	8.4851398e-20 	0.0094704142 	-6.5615446e-20 	0.0082905757
0.57016371 	0.0073216396 	-0.0013455038 	-7.7703561e-20 	0.010279235 	-6.5210646e-20 	0.0088003673
0.58018248 	0.0075650298 	-0.0016362086 	-6.050354e-20 	0.011181929 	8.3568932e-20 	0.0093733775
0.59094573 	0.0078485589 	-0.0019887896 	1.0849228e-19 	0.012192166 	-6.7187549e-21 	0.010020237
0.60250854 	0.0081812694 	-0.0024195939 	-1.1413206e-20 	0.013325194 	-5.0463431e-20 	0.010753138
0.61493003 	0.0085738792 	-0.0029493487 	-1.6824139e-20 	0.014597659 	2.3054263e-20 	0.011585667
0.62827366 	0.0090376949 	-0.0036030276 	1.3081713e-19 	0.01602653 	8.6252155e-20 	0.012532016
0.64260754 	0.0095881997 	-0.0044047295 	-1.2596308e-20 	0.017622187 	-5.3858432e-20 	0.013605091
0.65800475 	0.010249903 	-0.0053674539 	-1.7187603e-19 	0.019376439 	-2.0881739e-19 	0.014813109
0.6745437 	0.011061072 	-0.0064785909 	-3.9717651e-20 	0.021247732 	-3.1659287e-20 	0.016154566
0.69230851 	0.012062587 	-0.0076987717 	7.685094e-20 	0.023161885 	1.693025e-19 	0.017612581
0.71138943 	0.013266371 	-0.0089800327 	3.9073731e-20 	0.025032952 	1.1299435e-19 	0.019150212
0.73188325 	0.014647672 	-0.010268731 	-4.3862398e-21 	0.026767234 	-8.3225999e-20 	0.020708248
0.7538938 	0.016154837 	-0.011492773 	-1.6037966e-22 	0.028253227 	4.2748336e-20 	0.022204813
0.77753238 	0.017711238 	-0.012561983 	-6.5305979e-20 	0.02937141 	6.2495426e-20 	0.02354192
0.80291836 	0.019223621 	-0.01338628 	-3.1463307e-21 	0.030025129 	-1.0517746e-19 	0.024624722
0.8301797 	0.020602213 	-0.013901144 	-8.8468727e-20 	0.030176309 	-6.8936689e-20 	0.025389227
0.85945355 	0.021779884 	-0.014083847 	-3.7236472e-20 	0.029859638 	6.2716584e-21 	0.025819195
0.8908869 	0.02272115 	-0.013952917 	2.170523e-19 	0.02916719 	1.5394814e-20 	0.025943067
0.92463724 	0.023430164 	-0.01356441 	8.4469152e-21 	0.028229986 	-1.1286369e-20 	0.025828557
0.96087331 	0.023952214 	-0.013001391 	2.8369161e-20 	0.027197531 	1.0178219e-20 	0.025573129
0.99977583 	0.024370178 	-0.01236347 	-3.0002255e-19 	0.026220928 	9.5586901e-20 	0.025293816
1.0415383 	0.024764576 	-0.011732543 	-1.1597281e-19 	0.025407545 	-1.3833653e-20 	0.02508465
1.0863681 	0.025161232 	-0.011135624 	3.3931431e-19 	0.024775064 	-6.0990937e-20 	0.024967255
1.1344869 	0.025544152 	-0.010569235 	-7.2054223e-21 	0.024285728 	3.7312763e-20 	0.024914394
1.1861322 	0.0258823 	-0.010025879 	-4.0910998e-19 	0.023887958 	4.6661386e-20 	0.024884638
1.241558 	0.026137409 	-0.0094983125 	-6.7226582e-20 	0.02352897 	-4.324952e-20 	0.024832607
1.3010361 	0.026251248 	-0.0089715092 	5.7427013e-20 	0.02314578 	-4.4510736e-20 	0.024697997
1.3648571 	0.026144134 	-0.0084207797 	-3.3753163e-19 	0.022665579 	3.4184703e-20 	0.024404511
1.4333318 	0.025772829 	-0.0078400795 	-1.8664674e-19 	0.02205063 	8.6973241e-21 	0.023911443
1.5067924 	0.025127085 	-0.0072345894 	7.5155937e-19 	0.021290908 	-6.1465644e-20 	0.02320856
1.585594 	0.024193989 	-0.0065997141 	4.2549388e-19 	0.020367047 	8.6587134e-21 	0.022280686
1.670116 	0.022978479 	-0.0059228188 	1.5498777e-19 	0.019260695 	1.3925409e-20 	0.021120096
1.7201551 	0.022168885 	-0.0055332722 	-2.3821175e-19 	0.01856095 	1.6825712e-20 	0.020364151
1.7607692 	0.021507972 	-0.0052161583 	-5.6543468e-19 	0.017992773 	2.0006685e-20 	0.019748556
1.851244 	0.019874373 	-0.0045616005 	-3.1681793e-19 	0.016671404 	2.1108308e-20 	0.018271029
1.9352734 	0.018221697 	-0.0040000125 	5.4513238e-19 	0.015402823 	-4.0359713e-20 	0.016812909
2.0133292 	0.016650736 	-0.0034858094 	-1.016252e-19 	0.014207999 	-1.4029544e-20 	0.015429769
2.0858467 	0.015201866 	-0.0029886327 	1.1567836e-19 	0.013085582 	3.1054771e-20 	0.014143351
2.153228 	0.013886257 	-0.0025039987 	-4.6778583e-20 	0.012047901 	-3.624232e-21 	0.012966916
2.2158443 	0.012708226 	-0.0020295388 	8.0275986e-20 	0.011106968 	-4.4938801e-20 	0.011907499
2.2740391 	0.01166732 	-0.0015657343 	3.0844415e-19 	0.010268109 	8.2649689e-21 	0.010967637
2.3281301 	0.010760196 	-0.0011139532 	-7.0890112e-20 	0.009533233 	2.3393845e-20 	0.010146656
2.3784113 	0.0099815726 	-0.00067588231 	-3.7327605e-20 	0.0089018103 	-8.6712186e-21 	0.0094416505
2.4251549 	0.0093248887 	-0.00025341021 	8.4831713e-20 	0.0083715204 	-5.0128666e-22 	0.0088481726
2.4686132 	0.0087827014 	0.00015135489 	1.5119864e-19 	0.0079386902 	2.2211786e-20 	0.0083606671
2.5090199 	0.0083469278 	0.00053611981 	-1.8970038e-19 	0.0075984426 	-5.8538658e-21 	0.0079726593
2.5465917 	0.0080088791 	0.00089858439 	-5.4118194e-20 	0.0073446609 	-3.190126e-20 	0.0076767478
2.5815297 	0.0077591565 	0.0012366695 	6.6701872e-20 	0.0071699108 	1.2653151e-20 	0.0074645123
2.6140201 	0.0075876048 	0.001548662 	-6.8210473e-21 	0.007065451 	2.6011286e-20 	0.0073265133
2.6442361 	0.0074835272 	0.0018334248 	-5.253528e-20 	0.0070215557 	-3.4167609e-21 	0.0072525248
2.672338 	0.0074353497 	0.0020902822 	3.6639154e-20 	0.007027307 	-2.6464247e-20 	0.0072313
2.698475 	0.007431214 	0.0023185955 	5.1494412e-20 	0.0070711725 	-4.1012716e-21 	0.0072511834
2.7227854 	0.007464308 	0.0025204285 	-8.0018371e-20 	0.0071459451 	2.4944061e-20 	0.00730513
2.7453976 	0.0075281662 	0.0026986483 	-5.0290964e-20 	0.0072447582 	-5.0350173e-21 	0.0073864582
2.766431 	0.0076144516 	0.0028555982 	1.0612471e-19 	0.0073593088 	-8.2881687e-21 	0.0074868787
2.7859964 	0.0077181741 	0.0029952243 	7.5855091e-21 	0.0074845996 	2.553188e-20 	0.0076013896
2.8041967 	0.0078361397 	0.0031218274 	-8.484696e-20 	0.0076175448 	-1.1667043e-20 	0.0077268455
2.8211278 	0.0079665045 	0.0032398327 	2.7143913e-20 	0.0077566062 	-1.5290279e-20 	0.0078615593
2.8368784 	0.0081085068 	0.0033535639 	-4.3386587e-20 	0.0079015215 	1.7277409e-20 	0.0080050185
2.8515312 	0.0082621534 	0.0034670038 	-7.388591e-20 	0.0080529757 	-1.3753236e-20 	0.0081575681
2.8651631 	0.0084279043 	0.0035835776 	5.2652444e-20 	0.0082122594 	-8.8836782e-21 	0.0083200846
2.8778453 	0.0086063808 	0.0037059906 	5.7243696e-20 	0.008380931 	9.0352231e-21 	0.0084936577
2.8896443 	0.0087980848 	0.0038361168 	2.4998194e-20 	0.0085604963 	3.7001278e-21 	0.0086792912
2.9006217 	0.009003155 	0.0039749339 	2.4487322e-20 	0.0087521172 	3.3088927e-21 	0.0088776356
2.910835 	0.0092211703 	0.0041225186 	-3.3384967e-20 	0.0089563698 	-3.7560483e-21 	0.0090887689
2.9203374 	0.009451017 	0.0042781001 	2.5114011e-21 	0.0091730661 	-3.5731979e-21 	0.0093120399
2.9291785 	0.0096908303 	0.0044401653 	2.3475205e-20 	0.009401158 	5.313369e-22 	0.0095459923
2.9374045 	0.0099380218 	0.0046066154 	-2.7696562e-20 	0.0096387327 	7.1788508e-21 	0.0097883758
2.9450582 	0.010189368 	0.004774938 	-2.4488903e-20 	0.0098830789 	4.2368456e-21 	0.010036222
2.9521795 	0.010441206 	0.0049424262 	-8.3411195e-21 	0.010130874 	-1.206383e-20 	0.01028604
2.9588056 	0.010689632 	0.005106368 	2.6586732e-20 	0.010378387 	-4.3081905e-21 	0.01053401
2.9649709 	0.010930682 	0.0052641869 	1.7471826e-20 	0.010621668 	9.0761485e-21 	0.010776176
2.9707075 	0.011160525 	0.0054135809 	-1.3203133e-20 	0.010856771 	1.4561161e-21 	0.01100865
2.9760453 	0.011375613 	0.0055525913 	-8.864202e-21 	0.011079922 	-5.7848815e-21 	0.01122777
2.981012 	0.011572769 	0.0056796354 	-4.8005554e-21 	0.011287639 	1.0721415e-21 	0.011430206
2.9856335 	0.011749228 	0.0057935014 	-1.9272823e-21 	0.011476801 	4.2525154e-21 	0.011613017
2.9899337 	0.011902632 	0.0058933081 	6.8985886e-21 	0.01164467 	-1.7648289e-21 	0.011773653
2.9939351 	0.012030986 	0.0059784507 	5.9088343e-21 	0.011788863 	9.053338e-22 	0.011909927
2.9976584 	0.012132587 	0.006048531 	5.6829674e-21 	0.0119073 	3.9777741e-21 	0.012019946
3.001123 	0.012205931 	0.0061032798 	-5.6673115e-21 	0.011998127 	-1.416743e-21 	0.012102031
3.0043468 	0.012249608 	0.0061424779 	-2.8950894e-21 	0.012059612 	-3.5530477e-21 	0.012154612
3.0073466 	0.012262188 	0.0061658615 	9.1780361e-22 	0.012090038 	-4.1977167e-22 	0.012176115
3.0101381 	0.012242144 	0.0061730956 	-5.4324016e-21 	0.012087627 	-2.1867581e-22 	0.012164887
3.0127355 	0.01218757 	0.0061635759 	2.5427425e-21 	0.012050262 	4.8236565e-22 	0.012118917
3.0151526 	0.012096067 	0.0061363291 	9.0423065e-23 	0.011975366 	1.2638e-21 	0.012035717
3.0174017 	0.011964674 	0.0060899558 	-4.0071064e-21 	0.011859829 	-1.5830286e-21 	0.011912252
3.0194946 	0.011789494 	0.006022326 	2.9655952e-21 	0.011699635 	-2.1253787e-21 	0.011744566
3.0214421 	0.011565342 	0.0059302803 	2.2453048e-21 	0.011489507 	1.9699871e-21 	0.011527425
3.0232543 	0.011285278 	0.0058091605 	-1.3843764e-21 	0.011222432 	2.405371e-21 	0.011253855
3.0249407 	0.010939918 	0.0056520321 	-1.3347969e-21 	0.010888968 	-1.2152664e-21 	0.010914443
3.0265099 	0.010516416 	0.0054483814 	2.6610845e-22 	0.010476228 	-1.3046285e-21 	0.010496322
3.0279701 	0.0099969894 	0.0051818626 	4.0472424e-22 	0.0099663952 	2.7454562e-24 	0.0099816914
3.029329 	0.0093568792 	0.0048263119 	1.6485522e-23 	0.0093346823 	8.0859423e-23 	0.0093457796
3.0305934 	0.0085622407 	0.0043391012 	-1.9929368e-23 	0.0085472145 	3.1491898e-22 	0.0085547268
3.0317701 	0.0075717382 	0.0036548688 	-1.0575572e-22 	0.0075626086 	3.6907067e-22 	0.0075671746
3.032865 	0.0063608655 	0.0027150304 	-3.4407415e-23 	0.0063562424 	3.7288179e-23 	0.0063585554
3.0338839 	0.0050294796 	0.0016334827 	-6.2466466e-24 	0.0050277522 	-9.2615504e-23 	0.005028613
3.034832 	0.0040083688 	0.00080004182 	5.5096655e-24 	0.0040079638 	-1.8559312e-23 	0.0040081646
3.0357143 	0 	0 	0 	0 	0 	0
