/*--------------------------------*- C++ -*----------------------------------*\
| =========                 |                                                 |
| \\      /  F ield         | OpenFOAM: The Open Source CFD Toolbox           |
|  \\    /   O peration     | Version:  2.4.0                                 |
|   \\  /    A nd           | Web:      www.OpenFOAM.org                      |
|    \\/     M anipulation  |                                                 |
\*---------------------------------------------------------------------------*/
FoamFile
{
    version     2.0;
    format      ascii;
    class       volScalarField;
    location    "100";
    object      nut;
}
// * * * * * * * * * * * * * * * * * * * * * * * * * * * * * * * * * * * * * //

dimensions      [0 2 -1 0 0 0 0];

internalField   nonuniform List<scalar> 
32000
(
4.468663e-07
1.2429661e-07
4.7971742e-07
4.8968604e-08
2.0127893e-08
3.7473648e-09
4.3523309e-09
1.7064293e-09
1.603224e-09
1.0886182e-09
8.9737236e-10
7.2359729e-10
6.1535926e-10
5.3413562e-10
4.7585073e-10
4.3281982e-10
4.0175639e-10
3.8007606e-10
3.6340121e-10
3.4954944e-10
3.3756642e-10
3.2696013e-10
3.1726546e-10
3.0822138e-10
2.9946451e-10
2.9081097e-10
2.8176595e-10
2.7274429e-10
2.644874e-10
2.5720122e-10
2.5087536e-10
2.4546347e-10
2.4093347e-10
2.3726051e-10
2.3451067e-10
2.3284639e-10
2.3221293e-10
2.3213349e-10
2.3240966e-10
2.3303169e-10
2.3402689e-10
2.3546193e-10
2.3750307e-10
2.4041372e-10
2.4479831e-10
2.5178624e-10
2.6655989e-10
2.8490573e-10
2.9751569e-10
3.0796943e-10
3.169202e-10
3.2486508e-10
3.3198549e-10
3.3843817e-10
3.4432197e-10
3.4971592e-10
3.5468064e-10
3.5926548e-10
3.635106e-10
3.6745035e-10
3.7111391e-10
3.7452631e-10
3.7770912e-10
3.8068145e-10
3.8346008e-10
3.8605982e-10
3.88494e-10
3.9077461e-10
3.9291209e-10
3.949161e-10
3.9679537e-10
3.9855788e-10
4.0021071e-10
4.017606e-10
4.0321357e-10
4.0457527e-10
4.0585161e-10
4.0704747e-10
4.0816925e-10
4.0922061e-10
4.1020738e-10
4.1112915e-10
4.1198423e-10
4.1277686e-10
4.1350913e-10
4.1418486e-10
4.148063e-10
4.1535956e-10
4.1582566e-10
4.1637129e-10
4.167975e-10
4.1717646e-10
4.1750955e-10
4.1779773e-10
4.180419e-10
4.182431e-10
4.1840196e-10
4.1851903e-10
4.1859466e-10
4.1862898e-10
4.1862302e-10
4.1857566e-10
4.1848668e-10
4.1835674e-10
4.1818506e-10
4.1797121e-10
4.1771445e-10
4.1741415e-10
4.170694e-10
4.1667915e-10
4.1624227e-10
4.1575742e-10
4.1522318e-10
4.146379e-10
4.139998e-10
4.1330691e-10
4.12557e-10
4.1174778e-10
4.1087655e-10
4.0994053e-10
4.0893667e-10
4.0786154e-10
4.0671142e-10
4.0548248e-10
4.0417016e-10
4.0276983e-10
4.0127632e-10
3.9968381e-10
3.979863e-10
3.9617696e-10
3.9424823e-10
3.9219209e-10
3.8999963e-10
3.8766075e-10
3.8516458e-10
3.8249894e-10
3.7964998e-10
3.7660267e-10
3.7333974e-10
3.6984178e-10
3.6608662e-10
3.6204898e-10
3.5769924e-10
3.5300281e-10
3.4791885e-10
3.4239779e-10
3.3637902e-10
3.2978351e-10
3.2251247e-10
3.1441027e-10
3.0529705e-10
2.9467841e-10
2.8191258e-10
2.6346068e-10
2.4856695e-10
2.4140348e-10
2.3678267e-10
2.3359185e-10
2.312971e-10
2.2955843e-10
2.2819462e-10
2.2725709e-10
2.2666554e-10
2.2644275e-10
2.2669456e-10
2.2782274e-10
2.3006983e-10
2.3316483e-10
2.3704198e-10
2.4172019e-10
2.4720529e-10
2.5354033e-10
2.6069914e-10
2.6847611e-10
2.7611048e-10
2.8323557e-10
2.8991249e-10
2.9696293e-10
3.0424828e-10
3.1205932e-10
3.2072573e-10
3.3063304e-10
3.4250402e-10
3.5835392e-10
3.8156756e-10
4.138505e-10
4.5758066e-10
5.1605651e-10
5.9749045e-10
7.0410307e-10
8.7684584e-10
1.0543546e-09
1.5406817e-09
1.5107186e-09
3.7041803e-09
2.5822458e-09
1.5425781e-08
2.8739239e-08
1.6761992e-07
1.49051e-07
2.1401399e-07
1.1537559e-07
2.1174463e-07
6.4691769e-08
2.530745e-08
3.5502949e-09
7.1187396e-09
3.7115154e-09
2.9642993e-09
2.1413057e-09
1.7118044e-09
1.3825556e-09
1.1602859e-09
9.9592708e-10
8.7420639e-10
7.8198966e-10
7.119956e-10
6.5928933e-10
6.1674357e-10
5.8065466e-10
5.491871e-10
5.2131179e-10
4.9613441e-10
4.7308437e-10
4.5153564e-10
4.3109206e-10
4.1096446e-10
3.914095e-10
3.7318177e-10
3.5643514e-10
3.4109034e-10
3.2707174e-10
3.1429481e-10
3.0269383e-10
2.9231908e-10
2.8337033e-10
2.7586969e-10
2.693948e-10
2.6375325e-10
2.5896604e-10
2.5509316e-10
2.5221956e-10
2.5052819e-10
2.5031825e-10
2.5219108e-10
2.5737452e-10
2.7040993e-10
2.8657055e-10
2.9770641e-10
3.068533e-10
3.1448859e-10
3.2119404e-10
3.2740898e-10
3.3340278e-10
3.3878276e-10
3.4321361e-10
3.4717073e-10
3.5083743e-10
3.5427919e-10
3.5751139e-10
3.6053236e-10
3.6332892e-10
3.6588697e-10
3.6819587e-10
3.7027308e-10
3.7214105e-10
3.7381658e-10
3.753469e-10
3.7679999e-10
3.7825998e-10
3.7992806e-10
3.8180821e-10
3.8352825e-10
3.8489899e-10
3.8615868e-10
3.8748048e-10
3.8871234e-10
3.8971993e-10
3.9054704e-10
3.9127583e-10
3.9194171e-10
3.9257725e-10
3.9319167e-10
3.9378637e-10
3.9436072e-10
3.9491419e-10
3.9544655e-10
3.9594582e-10
3.9624331e-10
3.9691495e-10
3.9735667e-10
3.9777073e-10
3.9815775e-10
3.9851829e-10
3.98853e-10
3.9916246e-10
3.9944657e-10
3.9970471e-10
3.9993472e-10
4.0012762e-10
4.0028587e-10
4.0041227e-10
4.005096e-10
4.0058454e-10
4.0062745e-10
4.0062242e-10
4.0054585e-10
4.0036202e-10
4.000195e-10
3.9945711e-10
3.9862603e-10
3.975323e-10
3.9631052e-10
3.9506245e-10
3.9392792e-10
3.9306452e-10
3.9253351e-10
3.921982e-10
3.9177727e-10
3.9107976e-10
3.9015319e-10
3.8925342e-10
3.8850128e-10
3.8779266e-10
3.8700969e-10
3.8610197e-10
3.8500961e-10
3.8373016e-10
3.8229047e-10
3.8069957e-10
3.7896438e-10
3.7711324e-10
3.7515876e-10
3.7310308e-10
3.7094585e-10
3.6867829e-10
3.6627543e-10
3.636955e-10
3.6088652e-10
3.5779295e-10
3.5436449e-10
3.5059758e-10
3.4660114e-10
3.4257232e-10
3.3853671e-10
3.3424814e-10
3.295449e-10
3.2435486e-10
3.1856908e-10
3.1203382e-10
3.0457199e-10
2.9570382e-10
2.8471631e-10
2.675617e-10
2.5293268e-10
2.4659834e-10
2.4372946e-10
2.4298846e-10
2.4379329e-10
2.4572702e-10
2.4858879e-10
2.5240128e-10
2.5706463e-10
2.625505e-10
2.6894209e-10
2.7663751e-10
2.8580061e-10
2.9609303e-10
3.0745321e-10
3.1992771e-10
3.3355295e-10
3.4841645e-10
3.6451169e-10
3.8161774e-10
3.9889058e-10
4.1605103e-10
4.3337419e-10
4.5197244e-10
4.7177258e-10
4.933016e-10
5.1717816e-10
5.4417137e-10
5.7539183e-10
6.1464456e-10
6.6659999e-10
7.3486597e-10
8.2360227e-10
9.3868271e-10
1.0939213e-09
1.3003339e-09
1.6069328e-09
1.9809652e-09
2.7262775e-09
3.056079e-09
5.826031e-09
2.6040461e-09
1.7892249e-08
3.4289986e-08
1.3317865e-07
1.4242446e-07
1.5269783e-08
2.377262e-08
2.3942326e-08
2.6949304e-08
1.6870357e-08
1.8573435e-09
6.2495543e-09
3.9875594e-09
2.9861279e-09
2.2995651e-09
1.8225751e-09
1.4821833e-09
1.2378287e-09
1.0574574e-09
9.2038752e-10
8.1435088e-10
7.3115401e-10
6.6593477e-10
6.1239262e-10
5.6691967e-10
5.2746452e-10
4.9280449e-10
4.6192773e-10
4.341253e-10
4.0874971e-10
3.8531699e-10
3.6308747e-10
3.4194205e-10
3.2223036e-10
3.0396978e-10
2.8706079e-10
2.7146102e-10
2.5708757e-10
2.4387756e-10
2.3184401e-10
2.2110714e-10
2.1170779e-10
2.0343446e-10
1.9615915e-10
1.8986665e-10
1.8454829e-10
1.801885e-10
1.7682299e-10
1.7456991e-10
1.7367533e-10
1.7480572e-10
1.7989043e-10
1.8661668e-10
1.9147111e-10
1.9552415e-10
1.9878935e-10
2.0164334e-10
2.0452272e-10
2.0765666e-10
2.1041486e-10
2.1226115e-10
2.1380771e-10
2.1526367e-10
2.1668262e-10
2.1805787e-10
2.193627e-10
2.2055871e-10
2.2160958e-10
2.2248611e-10
2.2319751e-10
2.2376417e-10
2.2419947e-10
2.2455803e-10
2.2492238e-10
2.2539656e-10
2.2623829e-10
2.274465e-10
2.2852232e-10
2.292101e-10
2.29821e-10
2.3058032e-10
2.3128292e-10
2.3174556e-10
2.320221e-10
2.3221952e-10
2.3238084e-10
2.3254926e-10
2.3273841e-10
2.3294731e-10
2.3317341e-10
2.3341322e-10
2.3366467e-10
2.33924e-10
2.3398339e-10
2.3446577e-10
2.3473908e-10
2.3501037e-10
2.3527957e-10
2.3554672e-10
2.3581208e-10
2.3607566e-10
2.3633692e-10
2.3659471e-10
2.3684568e-10
2.370753e-10
2.3729211e-10
2.3749806e-10
2.3769412e-10
2.3789152e-10
2.3807726e-10
2.3823079e-10
2.3832093e-10
2.3830019e-10
2.3810023e-10
2.3764013e-10
2.3685643e-10
2.3575994e-10
2.3452769e-10
2.3329983e-10
2.3226254e-10
2.3162173e-10
2.3145951e-10
2.3160217e-10
2.3168222e-10
2.3144388e-10
2.3095112e-10
2.3054362e-10
2.3038753e-10
2.303495e-10
2.3027652e-10
2.3010284e-10
2.2975082e-10
2.2922306e-10
2.2855886e-10
2.2777575e-10
2.2688859e-10
2.2594115e-10
2.2495794e-10
2.2394906e-10
2.2292245e-10
2.2187595e-10
2.2078704e-10
2.1961157e-10
2.182932e-10
2.1677227e-10
2.149986e-10
2.1298796e-10
2.1090921e-10
2.0905459e-10
2.0749797e-10
2.0594585e-10
2.0424194e-10
2.0235417e-10
2.0022235e-10
1.9777315e-10
1.9493273e-10
1.9147012e-10
1.8701872e-10
1.7906693e-10
1.7187701e-10
1.6928101e-10
1.689723e-10
1.7010992e-10
1.7240948e-10
1.7566038e-10
1.7980275e-10
1.8489046e-10
1.9092334e-10
1.9789713e-10
2.0587614e-10
2.1511487e-10
2.2566997e-10
2.3732909e-10
2.5006434e-10
2.639196e-10
2.7893525e-10
2.951849e-10
3.1264338e-10
3.3121431e-10
3.5040659e-10
3.7020547e-10
3.9102924e-10
4.1375382e-10
4.3846793e-10
4.6575595e-10
4.9631734e-10
5.3104468e-10
5.7092985e-10
6.2021636e-10
6.8220544e-10
7.6102673e-10
8.6030312e-10
9.853868e-10
1.1497451e-09
1.3686742e-09
1.6730179e-09
2.0785567e-09
2.7259097e-09
3.1647815e-09
5.1134236e-09
1.3658538e-09
1.1737175e-08
2.0698456e-08
2.0039157e-08
2.5684909e-08
2.3206427e-10
1.1265453e-09
6.4744001e-10
5.6372881e-09
5.8533448e-09
7.3244376e-10
3.171987e-09
2.4701601e-09
2.0881503e-09
1.8268039e-09
1.494183e-09
1.232184e-09
1.0325365e-09
8.8300533e-10
7.6562868e-10
6.7225539e-10
5.9646033e-10
5.3516527e-10
4.8453779e-10
4.4177588e-10
4.0500365e-10
3.7306549e-10
3.4502489e-10
3.2017828e-10
2.9797869e-10
2.7795185e-10
2.595182e-10
2.4229478e-10
2.2630257e-10
2.1150547e-10
1.9784212e-10
1.8532745e-10
1.7391384e-10
1.6356323e-10
1.5426424e-10
1.4604697e-10
1.3890394e-10
1.3271661e-10
1.2739975e-10
1.2288302e-10
1.1907769e-10
1.1587571e-10
1.1318902e-10
1.1097566e-10
1.092133e-10
1.0809228e-10
1.0777683e-10
1.081294e-10
1.0878313e-10
1.0948528e-10
1.0996345e-10
1.1039841e-10
1.1111464e-10
1.1225807e-10
1.132254e-10
1.1350507e-10
1.136394e-10
1.1379764e-10
1.1401154e-10
1.142675e-10
1.1453291e-10
1.1476687e-10
1.1493192e-10
1.1499797e-10
1.1496736e-10
1.1485577e-10
1.1467256e-10
1.1446217e-10
1.1429226e-10
1.1424844e-10
1.1454501e-10
1.1517864e-10
1.1572346e-10
1.1596239e-10
1.1615641e-10
1.1649194e-10
1.1679859e-10
1.1691884e-10
1.1689769e-10
1.1682565e-10
1.1673804e-10
1.1667104e-10
1.1663668e-10
1.1663338e-10
1.1665837e-10
1.1670777e-10
1.1677924e-10
1.1687256e-10
1.1684053e-10
1.1709956e-10
1.1723296e-10
1.1737548e-10
1.175268e-10
1.1768679e-10
1.1785545e-10
1.180326e-10
1.1821769e-10
1.1840972e-10
1.1860547e-10
1.1879124e-10
1.1897775e-10
1.1916528e-10
1.1935295e-10
1.1955192e-10
1.1975075e-10
1.199327e-10
1.2007123e-10
1.2012597e-10
1.2003889e-10
1.1974145e-10
1.1918052e-10
1.1836639e-10
1.1744504e-10
1.1653947e-10
1.158061e-10
1.1541502e-10
1.1543726e-10
1.1573513e-10
1.1600267e-10
1.1601722e-10
1.1583044e-10
1.1572943e-10
1.1585927e-10
1.1610994e-10
1.1635287e-10
1.1653091e-10
1.1657757e-10
1.1649676e-10
1.1631948e-10
1.1606616e-10
1.1575106e-10
1.1541356e-10
1.1507772e-10
1.1475415e-10
1.1445252e-10
1.1417435e-10
1.1390412e-10
1.1360787e-10
1.132413e-10
1.1275738e-10
1.12118e-10
1.1134384e-10
1.1058779e-10
1.1011299e-10
1.1000513e-10
1.1001965e-10
1.1005183e-10
1.1009746e-10
1.1013951e-10
1.1016787e-10
1.101882e-10
1.1016148e-10
1.1001398e-10
1.0866499e-10
1.0708854e-10
1.0688902e-10
1.0760071e-10
1.0886558e-10
1.1064914e-10
1.1293593e-10
1.1578406e-10
1.1929241e-10
1.2355616e-10
1.2862292e-10
1.3455401e-10
1.4153622e-10
1.4960364e-10
1.5868176e-10
1.68771e-10
1.7989964e-10
1.9209157e-10
2.0536146e-10
2.1953132e-10
2.3473864e-10
2.5081934e-10
2.6794665e-10
2.8658256e-10
3.072884e-10
3.3027002e-10
3.5609089e-10
3.8542362e-10
4.1913046e-10
4.5795453e-10
5.0580628e-10
5.6399908e-10
6.3614494e-10
7.2312813e-10
8.2831528e-10
9.6179809e-10
1.1366268e-09
1.364052e-09
1.677614e-09
2.0981832e-09
2.1374062e-09
2.909422e-09
5.7985035e-10
5.2504975e-09
5.6115035e-09
5.8857566e-10
1.2063451e-09
2.291374e-13
1.3348905e-11
1.6391539e-12
6.1067506e-10
1.2003176e-09
2.2915809e-10
1.2131218e-09
1.1124712e-09
1.0016531e-09
9.401525e-10
8.1494153e-10
7.1401329e-10
6.24345e-10
5.5010172e-10
4.8545852e-10
4.2934511e-10
3.8017046e-10
3.3847357e-10
3.0392374e-10
2.7492715e-10
2.5013605e-10
2.2877759e-10
2.1020633e-10
1.9390882e-10
1.7957796e-10
1.6686423e-10
1.5538245e-10
1.4465614e-10
1.3459985e-10
1.2528227e-10
1.1675779e-10
1.0912692e-10
1.0240867e-10
9.6606079e-11
9.1704436e-11
8.7663128e-11
8.4392611e-11
8.1742598e-11
7.9670179e-11
7.8063553e-11
7.6780261e-11
7.5664779e-11
7.4568607e-11
7.3373762e-11
7.192499e-11
7.0162955e-11
6.738194e-11
6.4807232e-11
6.3637107e-11
6.2940564e-11
6.2316863e-11
6.1826127e-11
6.1694293e-11
6.2004001e-11
6.2240982e-11
6.1969212e-11
6.1633308e-11
6.1362284e-11
6.117512e-11
6.1053102e-11
6.0965694e-11
6.0877017e-11
6.0754911e-11
6.0573811e-11
6.0332501e-11
6.0043281e-11
5.9713201e-11
5.9376077e-11
5.9083011e-11
5.8898584e-11
5.8985277e-11
5.934044e-11
5.9634521e-11
5.9701422e-11
5.9733349e-11
5.9856089e-11
5.9964823e-11
5.9937325e-11
5.9808215e-11
5.964738e-11
5.9481381e-11
5.9337505e-11
5.922521e-11
5.9143014e-11
5.9088496e-11
5.9058263e-11
5.9050236e-11
5.9064667e-11
5.9026352e-11
5.9135334e-11
5.9193146e-11
5.9262817e-11
5.9343978e-11
5.943644e-11
5.9540129e-11
5.9654828e-11
5.978009e-11
5.9915199e-11
6.0057298e-11
6.0196211e-11
6.0340307e-11
6.0489389e-11
6.0643031e-11
6.0810135e-11
6.0981508e-11
6.1145099e-11
6.1280468e-11
6.1356688e-11
6.1329295e-11
6.1145848e-11
6.0766023e-11
6.0198027e-11
5.954939e-11
5.8917761e-11
5.8420906e-11
5.8184762e-11
5.826543e-11
5.8567137e-11
5.886095e-11
5.8970316e-11
5.8931039e-11
5.8962852e-11
5.9179556e-11
5.9499046e-11
5.9823487e-11
6.0107398e-11
6.0298855e-11
6.0395175e-11
6.0401584e-11
6.0357797e-11
6.0275289e-11
6.0185562e-11
6.0108827e-11
6.0053837e-11
6.0029372e-11
6.0038125e-11
6.0069747e-11
6.009945e-11
6.0094176e-11
6.0018624e-11
5.9844843e-11
5.959265e-11
5.9384776e-11
5.9442056e-11
5.9839986e-11
6.0388121e-11
6.1025426e-11
6.1761587e-11
6.2604619e-11
6.3579459e-11
6.4734269e-11
6.6136343e-11
6.787334e-11
6.9754212e-11
7.0988614e-11
7.1668836e-11
7.2311725e-11
7.2838041e-11
7.3347976e-11
7.3934351e-11
7.471412e-11
7.5815887e-11
7.7395995e-11
7.9545524e-11
8.2307027e-11
8.5894703e-11
9.037741e-11
9.5781782e-11
1.0212028e-10
1.093957e-10
1.1759201e-10
1.2657295e-10
1.3555414e-10
1.4536113e-10
1.5600253e-10
1.676947e-10
1.8083426e-10
1.9573307e-10
2.1259318e-10
2.319021e-10
2.5421781e-10
2.8024599e-10
3.1049659e-10
3.480074e-10
3.926162e-10
4.4675625e-10
5.04073e-10
5.6578098e-10
6.3586488e-10
7.179593e-10
8.0695183e-10
9.1352385e-10
1.0229508e-09
9.5704808e-10
1.1747977e-09
2.1803431e-10
1.2358864e-09
8.2679858e-10
1.6967181e-12
1.41634e-11
2.064758e-17
5.5911867e-15
4.2995715e-17
2.6315067e-11
1.5294027e-10
5.8715728e-11
3.8440053e-10
4.202571e-10
3.9664609e-10
3.9596902e-10
3.5719822e-10
3.2530139e-10
2.9177331e-10
2.614938e-10
2.3294517e-10
2.0672615e-10
1.827301e-10
1.6191313e-10
1.4480295e-10
1.3071108e-10
1.189174e-10
1.0900422e-10
1.0059859e-10
9.3385004e-11
8.7291677e-11
8.2132081e-11
7.7750222e-11
7.3891082e-11
7.0466689e-11
6.7494267e-11
6.4995135e-11
6.3032779e-11
6.1608306e-11
6.0706885e-11
6.0290188e-11
6.0248181e-11
6.0447909e-11
6.01625e-11
4.783611e-11
3.8658017e-11
3.1927249e-11
2.7080033e-11
2.371521e-11
2.1566844e-11
2.0480129e-11
2.0468288e-11
2.1586133e-11
2.2576951e-11
2.3398797e-11
2.4170962e-11
2.4687596e-11
2.5130788e-11
2.5826275e-11
2.6943394e-11
2.7886879e-11
2.8110321e-11
2.8189616e-11
2.8287391e-11
2.8441269e-11
2.8632422e-11
2.8828892e-11
2.8989117e-11
2.907437e-11
2.9053957e-11
2.89296e-11
2.871988e-11
2.8440878e-11
2.8142248e-11
2.7894475e-11
2.7786094e-11
2.8037548e-11
2.862643e-11
2.9105025e-11
2.9273628e-11
2.9427159e-11
2.9738021e-11
2.9995235e-11
3.0042673e-11
2.9949968e-11
2.9812408e-11
2.9662238e-11
2.9535529e-11
2.9445072e-11
2.9389298e-11
2.9365094e-11
2.936844e-11
2.9397228e-11
2.9466801e-11
2.9468152e-11
2.9606402e-11
2.9708865e-11
2.9825339e-11
2.9955468e-11
3.0099121e-11
3.0256311e-11
3.0426922e-11
3.0610446e-11
3.0806219e-11
3.1013347e-11
3.1200245e-11
3.1417645e-11
3.1656953e-11
3.1886592e-11
3.2132558e-11
3.2388595e-11
3.2637433e-11
3.2852911e-11
3.2992621e-11
3.2994185e-11
3.2778362e-11
3.2274648e-11
3.1472142e-11
3.0490515e-11
2.9510217e-11
2.8680875e-11
2.8179337e-11
2.8117529e-11
2.843373e-11
2.8841107e-11
2.9009093e-11
2.8889903e-11
2.8801165e-11
2.8976452e-11
2.932951e-11
2.9712e-11
3.0037232e-11
3.022002e-11
3.0250964e-11
3.0171106e-11
3.0004518e-11
2.9769007e-11
2.9514142e-11
2.9270019e-11
2.9045133e-11
2.8848396e-11
2.8681612e-11
2.8530696e-11
2.8361682e-11
2.8129129e-11
2.7784916e-11
2.7289872e-11
2.6661565e-11
2.6035266e-11
2.5677692e-11
2.5688947e-11
2.5823145e-11
2.5978669e-11
2.6140185e-11
2.628259e-11
2.6382915e-11
2.6422115e-11
2.6324368e-11
2.5931189e-11
2.404534e-11
2.1453777e-11
2.0618679e-11
2.1101865e-11
2.2697497e-11
2.5470492e-11
2.9572968e-11
3.5363332e-11
4.330879e-11
5.4043504e-11
5.6919193e-11
5.6569024e-11
5.6546251e-11
5.6948151e-11
5.7870302e-11
5.9337944e-11
6.1366549e-11
6.395623e-11
6.7066046e-11
7.0478038e-11
7.4354013e-11
7.8737319e-11
8.3772999e-11
8.970968e-11
9.6652756e-11
1.0465137e-10
1.1405358e-10
1.2519477e-10
1.3847095e-10
1.5419975e-10
1.7394663e-10
1.9676535e-10
2.2316763e-10
2.5054629e-10
2.7781274e-10
3.0616452e-10
3.3612316e-10
3.6248418e-10
3.8874264e-10
4.0374248e-10
3.5334446e-10
3.885875e-10
7.7019206e-11
1.8126928e-10
6.481932e-11
8.0368898e-17
5.4474083e-15
4.6458803e-22
3.0972877e-19
4.5460733e-23
1.8199379e-13
1.1194759e-11
8.6451076e-12
1.0396673e-10
1.403738e-10
1.37101e-10
1.4649244e-10
1.3723059e-10
1.2987441e-10
1.1966445e-10
1.0957281e-10
9.9259557e-11
8.9360465e-11
8.002692e-11
7.1857058e-11
6.5284154e-11
6.0074393e-11
5.5912343e-11
5.2607388e-11
4.9994514e-11
4.7930687e-11
4.6399548e-11
4.5329831e-11
4.4696705e-11
4.4429871e-11
4.4484396e-11
4.1631876e-11
3.362967e-11
2.6622825e-11
2.0647439e-11
1.5689205e-11
1.1688276e-11
8.5749714e-12
6.2696419e-12
4.6301823e-12
3.4696617e-12
2.6530084e-12
2.0840042e-12
1.6919079e-12
1.4288866e-12
1.264059e-12
1.1785036e-12
1.1685412e-12
1.2335729e-12
1.2877086e-12
1.3342801e-12
1.3808123e-12
1.4099007e-12
1.4349185e-12
1.4804441e-12
1.5595269e-12
1.6265537e-12
1.6372996e-12
1.6375549e-12
1.6397818e-12
1.6468276e-12
1.6571865e-12
1.668347e-12
1.6770617e-12
1.6802979e-12
1.6756554e-12
1.6630522e-12
1.6440865e-12
1.6201022e-12
1.5949262e-12
1.5738574e-12
1.5634847e-12
1.5804333e-12
1.6236414e-12
1.6588034e-12
1.6705428e-12
1.6811709e-12
1.7039027e-12
1.722661e-12
1.7251329e-12
1.7167135e-12
1.7049042e-12
1.6922328e-12
1.6814478e-12
1.6735554e-12
1.6684546e-12
1.6658918e-12
1.6655416e-12
1.6672266e-12
1.671897e-12
1.6719585e-12
1.682091e-12
1.6896718e-12
1.6983884e-12
1.7082177e-12
1.7191545e-12
1.7312051e-12
1.7443673e-12
1.7586098e-12
1.7738954e-12
1.790123e-12
1.804686e-12
1.8218931e-12
1.841018e-12
1.8593534e-12
1.8791037e-12
1.8996737e-12
1.9198381e-12
1.9375059e-12
1.9492847e-12
1.9501944e-12
1.9339353e-12
1.8949978e-12
1.8327467e-12
1.7564854e-12
1.6807969e-12
1.6171911e-12
1.5783601e-12
1.5723832e-12
1.5955073e-12
1.6270853e-12
1.6412919e-12
1.6334815e-12
1.6280142e-12
1.6427229e-12
1.6711811e-12
1.7021819e-12
1.7288977e-12
1.744513e-12
1.7485284e-12
1.7440627e-12
1.7329376e-12
1.7165336e-12
1.6987973e-12
1.682115e-12
1.6670773e-12
1.6543743e-12
1.6441558e-12
1.6353582e-12
1.6253933e-12
1.6107762e-12
1.5878257e-12
1.553646e-12
1.5098411e-12
1.4667106e-12
1.4447668e-12
1.4508772e-12
1.4659547e-12
1.4835588e-12
1.5023008e-12
1.5203941e-12
1.5361861e-12
1.548219e-12
1.5507505e-12
1.5316954e-12
1.408982e-12
1.2367794e-12
1.1852851e-12
1.2261144e-12
1.3478749e-12
1.5609282e-12
1.8854995e-12
2.3627167e-12
3.0498012e-12
4.0299303e-12
5.4157898e-12
7.3684558e-12
1.0056124e-11
1.3564412e-11
1.7988397e-11
2.3432729e-11
2.9968711e-11
3.7630276e-11
4.2535773e-11
4.2785683e-11
4.3326981e-11
4.4182052e-11
4.5383899e-11
4.7017919e-11
4.9109696e-11
5.169477e-11
5.49298e-11
5.8972822e-11
6.4018148e-11
7.0171198e-11
7.8167326e-11
8.7309679e-11
9.7689097e-11
1.0819027e-10
1.1777959e-10
1.2679085e-10
1.3515899e-10
1.3988773e-10
1.4281818e-10
1.3788806e-10
1.1511146e-10
1.0995266e-10
2.1041191e-11
1.5631582e-11
2.3271528e-12
4.7709227e-22
2.213196e-19
1.0946481e-27
3.644423e-24
9.7032533e-30
5.3787136e-17
2.2684177e-13
5.9132276e-13
1.6135376e-11
4.4596782e-11
4.3763314e-11
5.0924338e-11
4.9748588e-11
4.9544483e-11
4.7567522e-11
4.5368361e-11
4.2800162e-11
4.024438e-11
3.7783971e-11
3.5665791e-11
3.4096652e-11
2.9726829e-11
2.3981812e-11
1.9482367e-11
1.5941916e-11
1.3129304e-11
1.089316e-11
9.093747e-12
7.6266478e-12
6.331192e-12
5.1455308e-12
4.0819531e-12
3.1535067e-12
2.3769982e-12
1.7474726e-12
1.2531868e-12
8.773897e-13
6.0288012e-13
4.1257992e-13
2.8590079e-13
2.0169948e-13
1.4581429e-13
1.0889337e-13
8.4600618e-14
6.8895459e-14
5.9278697e-14
5.4239452e-14
5.3314937e-14
5.6261717e-14
5.8533759e-14
6.0575184e-14
6.2784243e-14
6.4057042e-14
6.5159773e-14
6.7530251e-14
7.1952826e-14
7.5726235e-14
7.6073344e-14
7.5824913e-14
7.5719325e-14
7.5924119e-14
7.6347189e-14
7.6836813e-14
7.7197705e-14
7.724701e-14
7.6840125e-14
7.5959618e-14
7.4710527e-14
7.3179969e-14
7.1595295e-14
7.0262059e-14
6.9553937e-14
7.0433333e-14
7.2892372e-14
7.4905632e-14
7.5559289e-14
7.6146355e-14
7.7446595e-14
7.8520329e-14
7.8617649e-14
7.8058636e-14
7.7300782e-14
7.6497694e-14
7.5810769e-14
7.5300805e-14
7.4963238e-14
7.4782237e-14
7.4737449e-14
7.4817254e-14
7.506596e-14
7.5077729e-14
7.5654219e-14
7.6093631e-14
7.6603125e-14
7.7181673e-14
7.782932e-14
7.8546858e-14
7.9334626e-14
8.0191369e-14
8.111582e-14
8.2098908e-14
8.2981542e-14
8.4033232e-14
8.5211325e-14
8.6343449e-14
8.7568773e-14
8.8843957e-14
9.0105213e-14
9.122261e-14
9.1985962e-14
9.2087128e-14
9.1137606e-14
8.880344e-14
8.5060241e-14
8.0471514e-14
7.5954172e-14
7.2188045e-14
6.9862233e-14
6.9412645e-14
7.067384e-14
7.2524573e-14
7.3423784e-14
7.3037522e-14
7.2790651e-14
7.3721758e-14
7.5464893e-14
7.7372792e-14
7.9032419e-14
8.0025854e-14
8.0335729e-14
8.0143749e-14
7.9554778e-14
7.8651329e-14
7.7677499e-14
7.6776805e-14
7.5980539e-14
7.53297e-14
7.4833532e-14
7.4429822e-14
7.39661e-14
7.3235572e-14
7.2020208e-14
7.0155796e-14
6.7752477e-14
6.5424207e-14
6.4387026e-14
6.4971673e-14
6.6054343e-14
6.7324558e-14
6.8689913e-14
7.0050008e-14
7.1308699e-14
7.2371e-14
7.2889353e-14
7.2138178e-14
6.5822202e-14
5.6902975e-14
5.4401512e-14
5.6876069e-14
6.3884717e-14
7.6326301e-14
9.5905527e-14
1.2595944e-13
1.7146221e-13
2.4015288e-13
3.4348679e-13
4.9902401e-13
7.278956e-13
1.0465219e-12
1.4739121e-12
2.0313849e-12
2.7378126e-12
3.6082515e-12
4.6506663e-12
5.8616025e-12
7.2221862e-12
8.7786912e-12
1.0651028e-11
1.3028758e-11
1.5982026e-11
1.9691201e-11
2.439593e-11
3.0404837e-11
3.4232415e-11
3.5681192e-11
3.7832991e-11
4.0335219e-11
4.3260936e-11
4.6133807e-11
4.8348993e-11
5.0049247e-11
5.12334e-11
5.0393324e-11
4.8998665e-11
4.3448897e-11
3.6235766e-11
2.1312294e-11
2.1932952e-12
4.6123519e-13
1.4495667e-14
3.8706974e-27
1.444921e-24
2.8250807e-31
1.3707333e-29
5.5016919e-27
3.9551389e-22
1.4777047e-15
2.9141121e-14
1.2975179e-12
6.4790885e-12
6.9745178e-12
1.1493698e-11
1.2520503e-11
1.4000551e-11
1.3946184e-11
1.3182136e-11
1.1676114e-11
9.7984107e-12
7.7466965e-12
5.8930137e-12
4.4789881e-12
3.4354314e-12
2.656884e-12
2.072725e-12
1.6317837e-12
1.295214e-12
1.0378033e-12
8.3827125e-13
6.8153554e-13
5.4780532e-13
4.2947068e-13
3.2721688e-13
2.4159316e-13
1.7329497e-13
1.2073183e-13
8.1730253e-14
5.3823338e-14
3.470309e-14
2.2297255e-14
1.4562412e-14
9.7281403e-15
6.6955664e-15
4.7907854e-15
3.5903837e-15
2.8399723e-15
2.3895841e-15
2.1510503e-15
2.0926114e-15
2.1927446e-15
2.2591824e-15
2.3259226e-15
2.4088963e-15
2.4507546e-15
2.4876993e-15
2.5888474e-15
2.7929847e-15
2.9684708e-15
2.9718508e-15
2.9476026e-15
2.9315753e-15
2.9318278e-15
2.9437313e-15
2.959781e-15
2.970388e-15
2.9665589e-15
2.9411932e-15
2.8928656e-15
2.8271481e-15
2.7486645e-15
2.6684104e-15
2.6006376e-15
2.5623308e-15
2.598437e-15
2.712014e-15
2.805962e-15
2.8360922e-15
2.8628576e-15
2.9235864e-15
2.9738534e-15
2.976547e-15
2.9469473e-15
2.9078484e-15
2.8668809e-15
2.8317419e-15
2.8053993e-15
2.7877063e-15
2.7778567e-15
2.774809e-15
2.7779392e-15
2.788831e-15
2.7901817e-15
2.8167097e-15
2.8375452e-15
2.8618744e-15
2.8896666e-15
2.9209463e-15
2.9557755e-15
2.9941986e-15
3.0361902e-15
3.0817459e-15
3.1302078e-15
3.1740595e-15
3.2263688e-15
3.2853028e-15
3.3423058e-15
3.404266e-15
3.4686568e-15
3.5329629e-15
3.5905802e-15
3.6308771e-15
3.6382658e-15
3.5931354e-15
3.4789054e-15
3.2951082e-15
3.0698616e-15
2.850444e-15
2.6693892e-15
2.5563906e-15
2.5297258e-15
2.583804e-15
2.6703952e-15
2.7158659e-15
2.7013143e-15
2.693499e-15
2.7410269e-15
2.8272209e-15
2.9219954e-15
3.0051097e-15
3.0558519e-15
3.0738936e-15
3.0677849e-15
3.0423508e-15
3.0016195e-15
2.9579524e-15
2.9182425e-15
2.8838424e-15
2.8567366e-15
2.8373866e-15
2.8228282e-15
2.8057355e-15
2.7760766e-15
2.7232854e-15
2.639821e-15
2.5317346e-15
2.4294167e-15
2.3917231e-15
2.4293537e-15
2.4900222e-15
2.5613092e-15
2.6385995e-15
2.7172873e-15
2.7927486e-15
2.859825e-15
2.9012496e-15
2.8817135e-15
2.6206963e-15
2.246958e-15
2.1465498e-15
2.2621092e-15
2.5812667e-15
3.1574347e-15
4.0928964e-15
5.5888746e-15
7.9661139e-15
1.1758315e-14
1.7822505e-14
2.7571786e-14
4.2919547e-14
6.5739409e-14
9.8352948e-14
1.4352472e-13
2.0406649e-13
2.8264113e-13
3.8131395e-13
5.0093096e-13
6.4059207e-13
8.0651803e-13
1.014094e-12
1.2888111e-12
1.6438994e-12
2.1088682e-12
2.7244365e-12
3.5459298e-12
4.6499312e-12
6.1136296e-12
8.1150617e-12
1.0366181e-11
1.2705179e-11
1.4740139e-11
1.580873e-11
1.5980858e-11
1.5311873e-11
1.3071039e-11
1.0621035e-11
6.772355e-12
4.0890011e-12
1.8516649e-12
1.9308399e-13
3.8026085e-15
2.2796915e-17
3.1131807e-31
2.2141755e-30
4.1113206e-31
6.756837e-31
4.5203076e-31
7.7733305e-29
2.587574e-18
9.6094078e-16
7.6740068e-14
5.5261255e-13
6.6570176e-13
1.2075573e-12
1.3909549e-12
1.6128419e-12
1.6365106e-12
1.5510782e-12
1.35863e-12
1.1136104e-12
8.4839525e-13
6.1629148e-13
4.4696013e-13
3.2770221e-13
2.4270051e-13
1.8167806e-13
1.3753739e-13
1.0519042e-13
8.1404425e-14
6.3647672e-14
5.0206182e-14
3.9122262e-14
2.9639358e-14
2.1743339e-14
1.5394967e-14
1.0559731e-14
7.0200993e-15
4.5303168e-15
2.845629e-15
1.7553387e-15
1.0864876e-15
6.9056791e-16
4.5388891e-16
3.1066961e-16
2.2314798e-16
1.6896109e-16
1.3529111e-16
1.1485058e-16
1.0336169e-16
9.9131038e-17
1.0029468e-16
9.9641737e-17
1.0044503e-16
1.0281265e-16
1.033779e-16
1.0396571e-16
1.0810022e-16
1.1776827e-16
1.2608062e-16
1.2520792e-16
1.2303808e-16
1.2140101e-16
1.2069129e-16
1.2065412e-16
1.2089498e-16
1.2092088e-16
1.2027257e-16
1.1859066e-16
1.1577877e-16
1.1214071e-16
1.0793078e-16
1.0369552e-16
1.0011096e-16
9.7951126e-17
9.9333621e-17
1.0460807e-16
1.0902529e-16
1.1040583e-16
1.1161111e-16
1.1445813e-16
1.1681518e-16
1.168148e-16
1.1519337e-16
1.1311397e-16
1.1096469e-16
1.0911857e-16
1.0772119e-16
1.0676817e-16
1.0621691e-16
1.0601233e-16
1.0611977e-16
1.0658394e-16
1.0672479e-16
1.0790862e-16
1.0890163e-16
1.1007199e-16
1.1141919e-16
1.1294573e-16
1.1465604e-16
1.1655395e-16
1.1864032e-16
1.2091914e-16
1.2334115e-16
1.2559047e-16
1.2823243e-16
1.312043e-16
1.341299e-16
1.3732407e-16
1.4064019e-16
1.4398849e-16
1.4702709e-16
1.4920738e-16
1.4972342e-16
1.4756112e-16
1.4187525e-16
1.3267984e-16
1.2142126e-16
1.1059724e-16
1.0178723e-16
9.6252733e-17
9.4724605e-17
9.7017067e-17
1.01083e-16
1.0341634e-16
1.0295706e-16
1.0282787e-16
1.0532048e-16
1.0968138e-16
1.1450303e-16
1.1877762e-16
1.2146311e-16
1.2256164e-16
1.2247913e-16
1.2143579e-16
1.196341e-16
1.1771641e-16
1.1601556e-16
1.1459353e-16
1.135505e-16
1.1291198e-16
1.1253451e-16
1.1205592e-16
1.1097167e-16
1.0874756e-16
1.0502365e-16
1.0013392e-16
9.5672163e-17
9.4613692e-17
9.7182519e-17
1.0094935e-16
1.0539076e-16
1.1030158e-16
1.1548305e-16
1.2072854e-16
1.257792e-16
1.2978577e-16
1.3101124e-16
1.2171771e-16
1.0660334e-16
1.0227907e-16
1.0696939e-16
1.2019214e-16
1.4439351e-16
1.8435023e-16
2.4972424e-16
3.5673953e-16
5.3403191e-16
8.3091125e-16
1.3345427e-15
2.1750559e-15
3.5014815e-15
5.5130331e-15
8.4641021e-15
1.2641649e-14
1.8349269e-14
2.5864889e-14
3.5373778e-14
4.6915348e-14
6.1155713e-14
7.9682031e-14
1.0523816e-13
1.3964024e-13
1.8664736e-13
2.5167385e-13
3.4247264e-13
4.7037313e-13
6.4794961e-13
9.0276519e-13
1.1996067e-12
1.5153515e-12
1.7890427e-12
1.9186075e-12
1.9134267e-12
1.7800256e-12
1.4461227e-12
1.0884727e-12
6.2719138e-13
3.4060499e-13
1.1888829e-13
1.4091557e-14
7.7331369e-18
1.2180366e-20
2.1545966e-27
6.6247881e-31
5.9181641e-31
2.0246933e-24
3.7925615e-22
3.5056389e-25
1.4790664e-21
2.0627118e-17
3.1670891e-15
3.6765685e-14
5.0008645e-14
1.0158945e-13
1.2498332e-13
1.5143827e-13
1.5739178e-13
1.501556e-13
1.3039617e-13
1.0456808e-13
7.6827917e-14
5.3323985e-14
3.6931546e-14
2.5916483e-14
1.8415112e-14
1.3260285e-14
9.6840904e-15
7.16494e-15
5.3810338e-15
4.0959051e-15
3.1561204e-15
2.4048287e-15
1.7807758e-15
1.2770289e-15
8.8468787e-16
5.9622059e-16
3.9236185e-16
2.5367978e-16
1.6251943e-16
1.0476089e-16
6.9687247e-17
4.8867819e-17
3.6208075e-17
2.8311155e-17
2.3285429e-17
1.9998118e-17
1.7785585e-17
1.625676e-17
1.5138739e-17
1.4296738e-17
1.3362264e-17
1.2224146e-17
1.1717195e-17
1.1600212e-17
1.1324123e-17
1.1116213e-17
1.1414482e-17
1.2451275e-17
1.3321975e-17
1.2996787e-17
1.2540654e-17
1.2177058e-17
1.1948073e-17
1.1817079e-17
1.1733063e-17
1.1635716e-17
1.1470387e-17
1.1195463e-17
1.0797966e-17
1.0316131e-17
9.7821836e-18
9.257843e-18
8.8146666e-18
8.5296464e-18
8.6220922e-18
9.1532657e-18
9.6043816e-18
9.7341165e-18
9.843596e-18
1.0129309e-17
1.0364045e-17
1.0339636e-17
1.0134732e-17
9.8820498e-18
9.6256423e-18
9.4054228e-18
9.236859e-18
9.1195036e-18
9.0481511e-18
9.016189e-18
9.0192448e-18
9.0565657e-18
9.0896715e-18
9.190534e-18
9.2917321e-18
9.4129401e-18
9.5541893e-18
9.7159135e-18
9.8987663e-18
1.0103373e-17
1.0330095e-17
1.0579908e-17