/*--------------------------------*- C++ -*----------------------------------*\
| =========                 |                                                 |
| \\      /  F ield         | OpenFOAM: The Open Source CFD Toolbox           |
|  \\    /   O peration     | Version:  2.4.0                                 |
|   \\  /    A nd           | Web:      www.OpenFOAM.org                      |
|    \\/     M anipulation  |                                                 |
\*---------------------------------------------------------------------------*/
FoamFile
{
    version     2.0;
    format      ascii;
    class       volScalarField;
    location    "100";
    object      p;
}
// * * * * * * * * * * * * * * * * * * * * * * * * * * * * * * * * * * * * * //

dimensions      [0 2 -2 0 0 0 0];

internalField   nonuniform List<scalar> 
32000
(
-0.011824103
0.0005340761
-0.0034424402
-0.0038447329
-0.0021672846
0.0047962134
0.013025841
0.018422545
0.021117269
0.022659158
0.023868358
0.024931469
0.025933484
0.026764909
0.027432516
0.027956388
0.028398744
0.028795448
0.029188918
0.029619562
0.030055475
0.030535921
0.03104646
0.031589107
0.032158729
0.032727216
0.033261664
0.033700794
0.033972664
0.034056241
0.033933347
0.033564465
0.032943745
0.032083408
0.031025614
0.029832575
0.028575182
0.027333678
0.026215848
0.025327084
0.024755809
0.024552598
0.024711171
0.025163612
0.025834075
0.026602618
0.027412987
0.02808878
0.028688273
0.029063248
0.029291831
0.029448217
0.029809809
0.030377243
0.030676443
0.030257223
0.029081451
0.027447938
0.025429283
0.023051297
0.020280929
0.017140749
0.01374603
0.01035711
0.0073747407
0.0052614734
0.0043902248
0.0048905583
0.0065183593
0.0085999239
0.010264536
0.010955637
0.010958365
0.010535974
0.010044066
0.009292504
0.007963433
0.006164558
0.0041070332
0.0019362457
-0.00027267133
-0.0024710316
-0.0046543166
-0.0068468069
-0.0090764014
-0.011347555
-0.013638795
-0.015907026
-0.018095221
-0.020136935
-0.02196323
-0.023503829
-0.024688436
-0.025449808
-0.025725021
-0.0254584
-0.024608882
-0.023153321
-0.021084116
-0.01841834
-0.015214885
-0.01157588
-0.0077004558
-0.0038159137
-6.8904981e-05
0.003216659
0.0055587864
0.0064750884
0.0053971868
0.0017749099
-0.0047265684
-0.013852091
-0.024377611
-0.034151344
-0.041133933
-0.044560317
-0.045240659
-0.044569017
-0.043466403
-0.042471057
-0.042789871
-0.044772864
-0.046695715
-0.046817053
-0.044501121
-0.04028159
-0.035298166
-0.030626901
-0.026796215
-0.023927645
-0.021923279
-0.02062565
-0.019836052
-0.01936765
-0.019085214
-0.018913492
-0.018815407
-0.018840829
-0.019088979
-0.019716839
-0.020956694
-0.02312362
-0.026641868
-0.031859117
-0.038627226
-0.046066723
-0.05315675
-0.059087314
-0.063259396
-0.065160398
-0.064427527
-0.0603586
-0.052885796
-0.041610877
-0.036934238
-0.033667128
-0.031563215
-0.030139166
-0.029225459
-0.028551605
-0.028119956
-0.02774243
-0.027363378
-0.026894774
-0.026344699
-0.025564494
-0.024067869
-0.021602733
-0.0180028
-0.013116119
-0.006849709
0.00086361407
0.010049257
0.02076796
0.032740669
0.045531958
0.058607834
0.071832461
0.084968856
0.09779323
0.11011364
0.12176085
0.13253226
0.14224808
0.15079565
0.15767232
0.16247572
0.16429857
0.16131245
0.15226722
0.13582463
0.11023547
0.075253263
0.032935513
-0.0045187715
-0.028872128
-0.039329945
-0.04069458
-0.034445367
-0.030186399
-0.011825855
0.00053305223
-0.0034397643
-0.003837927
-0.0021644627
0.0047825918
0.013001774
0.018401465
0.021103048
0.02264874
0.0238591
0.024922524
0.025924858
0.026757457
0.027426321
0.027951361
0.028394416
0.028791549
0.029185027
0.029615498
0.030051299
0.03053138
0.031041623
0.031583948
0.032153322
0.032721788
0.033256521
0.03369654
0.033969833
0.034055056
0.033934097
0.033567357
0.032948738
0.032090224
0.03103371
0.029841265
0.028583813
0.027341618
0.026222524
0.025332142
0.024759201
0.024554603
0.024712336
0.025164502
0.02583525
0.026604246
0.027414985
0.028090503
0.028689104
0.029063288
0.029292066
0.029449187
0.029810476
0.030375375
0.030672437
0.030253036
0.029077598
0.027444237
0.025425385
0.023047087
0.020276462
0.017136355
0.013742259
0.010354669
0.0073743911
0.0052637381
0.0043950744
0.0048971671
0.0065252676
0.0086053037
0.010266789
0.010955176
0.010956949
0.010534992
0.0100427
0.0092897915
0.0079603725
0.006162031
0.004105104
0.0019348378
-0.00027359231
-0.0024715486
-0.0046545562
-0.006846831
-0.0090762148
-0.011347149
-0.013638157
-0.015906173
-0.018094183
-0.020135735
-0.0219619
-0.023502402
-0.024686972
-0.025448352
-0.025723647
-0.025457175
-0.024607911
-0.023152686
-0.021083936
-0.01841872
-0.01521598
-0.011577823
-0.0077032918
-0.0038197351
-7.3800927e-05
0.0032105672
0.0055515515
0.0064668644
0.0053885328
0.0017667731
-0.0047325716
-0.013854078
-0.024374133
-0.034142253
-0.041121084
-0.044547062
-0.045230074
-0.044562629
-0.043464408
-0.042471849
-0.042789343
-0.044768063
-0.046688743
-0.046811873
-0.044499933
-0.040284334
-0.035303315
-0.030632868
-0.026801959
-0.023932649
-0.02192726
-0.020628579
-0.01983814
-0.019369145
-0.019086351
-0.018914475
-0.018816477
-0.018841986
-0.019090096
-0.019717664
-0.020956714
-0.023121786
-0.026636806
-0.031849605
-0.038613946
-0.046051741
-0.053141709
-0.059073457
-0.0632477
-0.065151546
-0.064422743
-0.060358613
-0.052896454
-0.04162681
-0.0369421
-0.033668539
-0.031562757
-0.030137392
-0.02922323
-0.02854912
-0.028117296
-0.027739059
-0.027359047
-0.026889199
-0.026337338
-0.025552176
-0.024047359
-0.021572342
-0.017960901
-0.013061587
-0.0067818991
0.00094486187
0.010144053
0.020874586
0.032855203
0.045649851
0.058726622
0.071950802
0.085084608
0.097904768
0.11021948
0.12185934
0.1326217
0.14232721
0.1508608
0.15771878
0.16249741
0.16428402
0.16125237
0.15215637
0.13565894
0.11002439
0.075025363
0.032758523
-0.0046040008
-0.028889378
-0.039319503
-0.040680247
-0.034434907
-0.030184324
-0.01182728
0.0005321603
-0.0034366037
-0.0038297443
-0.0021608186
0.0047683023
0.012975947
0.018378494
0.02108732
0.022637163
0.023848815
0.024912588
0.025915278
0.026749177
0.027419445
0.027945791
0.028389643
0.028787266
0.029180773
0.029611061
0.030046742
0.030526428
0.031036345
0.031578316
0.032147412
0.032715845
0.033250881
0.033691857
0.0339667
0.034053727
0.033934907
0.033570526
0.032954221
0.032097714
0.031042605
0.029850801
0.028593272
0.027350303
0.026229806
0.025337637
0.024762878
0.024556772
0.024713618
0.025165521
0.025836623
0.026606139
0.027417306
0.028092508
0.028690094
0.029063362
0.029292341
0.029450265
0.029811174
0.030373216
0.030667917
0.030248365
0.029073279
0.027440087
0.02542102
0.023042381
0.020271467
0.017131429
0.013737998
0.010351855
0.0073738648
0.0052661229
0.0044003897
0.0049045464
0.0065331332
0.0086116078
0.010269591
0.010954808
0.010955397
0.0105339
0.010041175
0.0092867624
0.0079569509
0.0061591945
0.0041029303
0.0019332532
-0.0002746157
-0.0024721098
-0.0046547917
-0.0068468097
-0.0090759477
-0.011346637
-0.013637383
-0.015905167
-0.01809298
-0.020134364
-0.021960398
-0.023500805
-0.024685355
-0.02544676
-0.025722166
-0.025455875
-0.024606912
-0.023152075
-0.021083848
-0.01841926
-0.015217323
-0.011580106
-0.0077065581
-0.0038241147
-7.9348472e-05
0.0032037325
0.0055434947
0.0064577424
0.0053789885
0.0017578022
-0.0047392432
-0.01385648
-0.02437075
-0.034132783
-0.041107255
-0.044532341
-0.045217949
-0.044555111
-0.043461898
-0.042472408
-0.042788466
-0.044762594
-0.046681068
-0.046806353
-0.044498881
-0.040287572
-0.03530911
-0.030639512
-0.026808344
-0.02393822
-0.021931697
-0.020631851
-0.019840484
-0.019370834
-0.019087648
-0.01891559
-0.018817695
-0.018843283
-0.019091309
-0.019718504
-0.020956579
-0.023119422
-0.02663071
-0.031838445
-0.038598642
-0.046034729
-0.053124797
-0.059058021
-0.063234808
-0.065141973
-0.064417893
-0.060359369
-0.052909384
-0.04164532
-0.036952098
-0.033671193
-0.031563157
-0.030136215
-0.02922148
-0.028547016
-0.028114975
-0.027735913
-0.027354816
-0.026883563
-0.026329697
-0.025539027
-0.024025113
-0.021539127
-0.017914921
-0.013001586
-0.0067071612
0.0010345259
0.010248753
0.020992343
0.03298164
0.045779955
0.058857686
0.072081368
0.085212307
0.098027808
0.11033622
0.12196797
0.13272034
0.14241445
0.15093255
0.15776975
0.16252085
0.16426725
0.16118524
0.15203321
0.13547558
0.10979189
0.074776504
0.032568755
-0.0046911626
-0.028902878
-0.039304507
-0.040662728
-0.034422426
-0.030181744
-0.01182793
0.00053157113
-0.0034328409
-0.0038209841
-0.0021569785
0.004753961
0.012950227
0.018355552
0.021071401
0.022625354
0.023838292
0.024902414
0.025905478
0.02674071
0.027412427
0.027940111
0.028384797
0.028782931
0.02917648
0.02960659
0.030042148
0.030521438
0.031031027
0.031572641
0.032141454
0.032709856
0.033245205
0.03368716
0.03396358
0.034052443
0.033935816
0.033573846
0.032959902
0.032105431
0.031051735
0.029860546
0.028602883
0.027359056
0.026237056
0.025343001
0.024766352
0.024558715
0.024714701
0.02516641
0.02583795
0.026608069
0.027419729
0.028094623
0.028691188
0.02906351
0.029292635
0.029451304
0.029811805
0.030371069
0.0306635
0.030243824
0.029069012
0.027435955
0.025416669
0.023037691
0.020266473
0.017126457
0.013733602
0.010348782
0.007372953
0.0052680446
0.0044052672
0.0049116456
0.0065410016
0.0086182336
0.010272815
0.010954733
0.010953949
0.010532846
0.010039703
0.009283828
0.007953605
0.0061563742
0.0041007369
0.0019316368
-0.00027566819
-0.0024726884
-0.0046550259
-0.0068467674
-0.009075651
-0.011346099
-0.013636591
-0.01590416
-0.0180918
-0.020133039
-0.021958965
-0.023499297
-0.024683856
-0.025445309
-0.02572085
-0.025454757
-0.024606112
-0.02315167
-0.021083974
-0.018420001
-0.015218849
-0.011582525
-0.0077099084
-0.0038285501
-8.4862509e-05
0.0031970576
0.0055357443
0.006449059
0.0053700344
0.0017494604
-0.0047454346
-0.013858861
-0.024368075
-0.034124649
-0.041094841
-0.044518506
-0.045206038
-0.04454746
-0.043459131
-0.042472424
-0.042787054
-0.044757048
-0.046673888
-0.046801633
-0.044498548
-0.040291219
-0.035314977
-0.03064605
-0.026814567
-0.02394364
-0.021936008
-0.020635031
-0.019842782
-0.019372506
-0.019088945
-0.018916697
-0.018818902
-0.01884453
-0.019092389
-0.019719116
-0.020956074
-0.02311644
-0.026623807
-0.031826423
-0.038582703
-0.046017476
-0.053107968
-0.059042981
-0.063222574
-0.065133355
-0.064414319
-0.06036194
-0.052924599
-0.041666068
-0.036964362
-0.033675929
-0.031565293
-0.030136604
-0.029221179
-0.028546273
-0.028113975
-0.027734043
-0.027351816
-0.026879093
-0.026323158
-0.025526836
-0.024003548
-0.021506234
-0.01786884
-0.012941005
-0.0066313339
0.001125799
0.010355519
0.021112607
0.033110838
0.045912907
0.058991653
0.072214848
0.085342882
0.098153649
0.11045565
0.12207913
0.13282132
0.14250379
0.15100605
0.15782194
0.16254483
0.16425017
0.16111673
0.15190767
0.13528935
0.10955736
0.074528913
0.032386367
-0.0047668882
-0.028906223
-0.039283302
-0.040642232
-0.03440899
-0.030178528
-0.011827819
0.00053132428
-0.0034280295
-0.0038111275
-0.0021525934
0.0047389841
0.012923647
0.018331902
0.021054805
0.022612941
0.023827186
0.024891659
0.02589512
0.02673176
0.027405013
0.027934111
0.028379688
0.028778363
0.029171962
0.029601888
0.030037315
0.030516191
0.031025434
0.031566672
0.032135193
0.032703568
0.033239259
0.03368226
0.033960351
0.034051155
0.033936855
0.033577438
0.032965987
0.03211365
0.031061413
0.029870815
0.028612934
0.027368107
0.026244423
0.025348293
0.024769597
0.024560346
0.024715485
0.025167092
0.025839203
0.026610065
0.027422324
0.028096919
0.028692431
0.029063754
0.029292964
0.029452323
0.029812377
0.03036891
0.0306591
0.030239311
0.029064692
0.027431739
0.025412225
0.023032898
0.020261341
0.017121278
0.013728893
0.010345269
0.007371495
0.0052693857
0.004409659
0.0049185118
0.0065490093
0.008625377
0.010276625
0.010955018
0.010952593
0.010531808
0.010038278
0.0092809744
0.00795028
0.0061534961
0.004098459
0.001929935
-0.00027679147
-0.0024733115
-0.004655273
-0.0068467066
-0.0090753199
-0.011345524
-0.013635768
-0.015903142
-0.018090633
-0.020131752
-0.021957599
-0.023497886
-0.024682492
-0.025444027
-0.025719742
-0.025453878
-0.024605586
-0.023151566
-0.021084432
-0.018421087
-0.015220722
-0.011585258
-0.0077135321
-0.0038332343
-9.0562146e-05
0.0031903075
0.0055280649
0.0064406089
0.0053615238
0.0017417149
-0.0047510492
-0.01386103
-0.02436592
-0.034117789
-0.041083978
-0.044505809
-0.045194596
-0.044539876
-0.043456209
-0.042471808
-0.042784793
-0.044751165
-0.046667233
-0.046797968
-0.044499264
-0.040295573
-0.035321141
-0.030652637
-0.026820744
-0.023948995
-0.021940251
-0.020638163
-0.019845074
-0.019374193
-0.019090274
-0.018917829
-0.018820126
-0.018845749
-0.019093345
-0.019719475
-0.020955102
-0.023112639
-0.026615725
-0.03181307
-0.038565695
-0.045999642
-0.053090972
-0.059028198
-0.063210987
-0.065125819
-0.064412328
-0.060366984
-0.05294342
-0.041691535
-0.036980707
-0.033684165
-0.031570338
-0.030139586
-0.029223255
-0.028547766
-0.028115124
-0.027734227
-0.027350763
-0.026876443
-0.026318276
-0.025515901
-0.023982566
-0.021473079
-0.01782151
-0.012878076
-0.0065519884
0.0012217879
0.01046819
0.021239701
0.033247415
0.046053444
0.059133301
0.072356006
0.085481001
0.098286802
0.11058206
0.12219685
0.13292832
0.14259853
0.15108403
0.15787729
0.16257031
0.16423227
0.16104452
0.15177549
0.13509414
0.10931365
0.074276398
0.032209798
-0.0048276787
-0.028894151
-0.039251732
-0.04061627
-0.034393682
-0.03017432
-0.011826905
0.00053153983
-0.0034217573
-0.0037996255
-0.0021471321
0.0047235051
0.012896152
0.018307592
0.021037535
0.022599903
0.023815464
0.024880285
0.02588416
0.026722283
0.027397161
0.027927752
0.028374277
0.028773521
0.029167177
0.02959691
0.030032196
0.030510637
0.03101951
0.031560352
0.032128568
0.03269692
0.033232982
0.033677103
0.033956969
0.034049833
0.033938005
0.033581297
0.03297248
0.032122378
0.03107164
0.029881596
0.028623383
0.027377381
0.026251796
0.025353369
0.02477245
0.024561503
0.024715827
0.02516746
0.025840324
0.026612111
0.027425104
0.02809942
0.028693848
0.029064109
0.029293336
0.029453312
0.029812869
0.030366735
0.030654699
0.030234801
0.029060296
0.027427422
0.025407677
0.023027986
0.020256047
0.017115847
0.013723798
0.010341209
0.0073693442
0.0052699715
0.0044133848
0.0049250053
0.0065570935
0.0086330802
0.010281116
0.01095573
0.01095135
0.010530785
0.010036917
0.0092782399
0.0079469854
0.0061505443
0.0040960799
0.0019281333
-0.00027799728
-0.0024739852
-0.0046555323
-0.0068466197
-0.0090749446
-0.011344902
-0.013634907
-0.015902114
-0.018089487
-0.020130517
-0.021956322
-0.023496606
-0.024681305
-0.02544297
-0.025718905
-0.02545332
-0.024605422
-0.023151868
-0.021085336
-0.018422646
-0.015223076
-0.011588438
-0.0077175601
-0.0038382846
-9.6571845e-05
0.0031833536
0.0055203354
0.0064322985
0.0053533991
0.0017345713
-0.0047560398
-0.013862968
-0.024364409
-0.034112577
-0.041075268
-0.04449489
-0.045184119
-0.044532661
-0.043453239
-0.042470442
-0.04278142
-0.044744841
-0.046661315
-0.046795721
-0.044501359
-0.040300843
-0.035327694
-0.030659295
-0.026826868
-0.023954269
-0.021944407
-0.020641234
-0.01984736
-0.0193759
-0.019091642
-0.018919
-0.01882137
-0.018846942
-0.019094166
-0.019719546
-0.020953587
-0.023107897
-0.026606268
-0.031798248
-0.038547622
-0.045981381
-0.053074045
-0.05901398
-0.063200401
-0.065119767
-0.064412385
-0.060375222
-0.052967062
-0.041724137
-0.037003196
-0.033697676
-0.03157986
-0.030146585
-0.029229028
-0.028552745
-0.028119617
-0.02773762
-0.027352772
-0.026876691
-0.026316067
-0.025507126
-0.023962924
-0.021440258
-0.017773345
-0.012813015
-0.0064691395
0.0013226791
0.010587108
0.021374095
0.033391883
0.046202063
0.059283142
0.072505351
0.085627163
0.098427746
0.11071592
0.12232154
0.13304173
0.14269903
0.15116678
0.15793596
0.16259731
0.16421337
0.16096815
0.15163607
0.1348894
0.10906089
0.07402083
0.032043994
-0.0048664726
-0.028859922
-0.039205074
-0.040582212
-0.034375555
-0.030168775
-0.011825152
0.00053237366
-0.0034135084
-0.0037858703
-0.0021399704
0.0047077345
0.012867711
0.018282747
0.021019652
0.02258626
0.023803126
0.02486828
0.025872579
0.026712256
0.027388846
0.027921008
0.028368536
0.028768376
0.029162092
0.029591623
0.030026755
0.030504735
0.031013214
0.031553636
0.032121531
0.032689865
0.033226332
0.033671652
0.033953406
0.034048458
0.033939253
0.033585416
0.032979377
0.032131612
0.031082401
0.029892846
0.028634158
0.027386766
0.026259022
0.025358039
0.024774697
0.024561966
0.024715531
0.025167365
0.025841215
0.026614166
0.027428067
0.028102139
0.028695459
0.029064598
0.02929376
0.029454256
0.029813246
0.030364549
0.030650284
0.030230281
0.029055809
0.027422996
0.025403025
0.023022959
0.020250581
0.017110133
0.013718244
0.010336478
0.0073663178
0.0052695642
0.0044161754
0.004930883
0.0065650921
0.0086413222
0.01028636
0.010956948
0.010950252
0.010529782
0.010035642
0.0092756753
0.0079437443
0.0061475125
0.0040935894
0.0019262216
-0.00027929542
-0.0024747156
-0.0046558044
-0.0068465026
-0.0090745203
-0.011344229
-0.013634011
-0.015901088
-0.018088381
-0.020129361
-0.021955172
-0.023495505
-0.024680354
-0.025442206
-0.02571842
-0.025453173
-0.024605721
-0.023152684
-0.021086806
-0.018424804
-0.015226044
-0.011592191
-0.0077221127
-0.0038438054
-0.00010299968
0.0031760833
0.0055124476
0.0064240398
0.0053455945
0.0017280001
-0.0047604352
-0.013864794
-0.024363878
-0.034109671
-0.041069627
-0.044486654
-0.045175266
-0.04452618
-0.043450328
-0.042468196
-0.042776686
-0.044738043
-0.046656446
-0.046795335
-0.0445052
-0.040307242
-0.035334715
-0.03066603
-0.026832918
-0.02395943
-0.02194844
-0.02064422
-0.019849634
-0.019377628
-0.019093054
-0.018920214
-0.018822631
-0.018848098
-0.019094829
-0.019719284
-0.020951437
-0.023102082
-0.026595271
-0.031781945
-0.038528659
-0.045963047
-0.053057643
-0.05900085
-0.063191376
-0.065115787
-0.064415135
-0.060387598
-0.052996994
-0.041766645
-0.037034249
-0.033718615
-0.031595802
-0.030159395
-0.029240171
-0.028562812
-0.028128988
-0.027745709
-0.027359285
-0.026881231
-0.026317849
-0.025501694
-0.02394565
-0.021408629
-0.017725009
-0.012746292
-0.0063830501
0.0014284018
0.010712403
0.021515979
0.033544451
0.04635895
0.059441377
0.072663083
0.085781566
0.098576681
0.11085741
0.12245342
0.13316175
0.14280549
0.15125443
0.15799798
0.16262578
0.16419329
0.16088732
0.15148909
0.13467508
0.10879984
0.073764763
0.031894402
-0.0048758506
-0.028796343
-0.039138076
-0.040536991
-0.034353472
-0.03016142
-0.011822522
0.00053401316
-0.0034026447
-0.0037691392
-0.0021303328
0.0046919679
0.012838283
0.018257475
0.02100122
0.02257203
0.023790169
0.024855628
0.025860351
0.026701651
0.027380038
0.027913848
0.028362435
0.028762894
0.029156674
0.029585989
0.030020953
0.030498443
0.031006498
0.031546474
0.032114033
0.032682355
0.033219264
0.03366587
0.033949632
0.034047011
0.033940586
0.033589792
0.032986682
0.03214135
0.031093684
0.029904531
0.028645181
0.027396142
0.026265929
0.025362083
0.024776085
0.024561472
0.024714352
0.025166609
0.025841746
0.026616167
0.027431201
0.02810509
0.028697289
0.029065242
0.029294246
0.029455136
0.029813467
0.030362348
0.030645828
0.030225719
0.029051197
0.027418439
0.025398262
0.023017808
0.020244928
0.017104089
0.013712142
0.010330928
0.007362196
0.0052678745
0.0044176941
0.0049358237
0.0065727669
0.0086500348
0.0102924
0.010958757
0.010949338
0.010528804
0.010034468
0.009273328
0.007940576
0.0061443901
0.0040909745
0.0019241879
-0.00028069702
-0.0024755103
-0.0046560912
-0.0068463528
-0.0090740444
-0.011343504
-0.013633091
-0.015900086
-0.018087344
-0.020128322
-0.021954197
-0.023494642
-0.024679706
-0.025441816
-0.025718375
-0.025453537
-0.024606588
-0.023154132
-0.021088966
-0.018427697
-0.015229765
-0.011596657
-0.0077273218
-0.0038499168
-0.00010997463
0.0031683534
0.0055042526
0.0064156896
0.0053379726
0.001721879
-0.0047643796
-0.013866772
-0.024364852
-0.034109962
-0.041068228
-0.044482236
-0.045168839
-0.044520849
-0.043447584
-0.042464933
-0.042770358
-0.044730788
-0.046653
-0.046797295
-0.044511179
-0.040314995
-0.035342297
-0.030672861
-0.026838889
-0.02396446
-0.021952322
-0.020647111
-0.019851898
-0.019379383
-0.019094516
-0.018921481
-0.018823904
-0.018849202
-0.019095305
-0.019718635
-0.020948557
-0.023095063
-0.026582583
-0.031764294
-0.038509141
-0.045945154
-0.053042406
-0.058989509
-0.063184625
-0.065114623
-0.064421376
-0.060405271
-0.053034978
-0.041822286
-0.037076733
-0.033749586
-0.03162055
-0.030180238
-0.029258776
-0.028579974
-0.028145164
-0.02776036
-0.027372106
-0.026891804
-0.02632525
-0.025501052
-0.023931985
-0.021379208
-0.017677281
-0.012678433
-0.0062939967
0.0015389147
0.010844221
0.021665622
0.033705406
0.046524377
0.059608289
0.07282949
0.0859445
0.098733888
0.11100683
0.12259274
0.13328864
0.14291815
0.15134716
0.15806341
0.16265565
0.16417182
0.16080162
0.15133411
0.13445094
0.10853106
0.073510486
0.03176611
-0.0048486306
-0.028696027
-0.039044975
-0.040477009
-0.034325995
-0.030151621
-0.011818995
0.00053669393
-0.0033883799
-0.0037485699
-0.0021172667
0.0046765982
0.01280782
0.018231866
0.020982315
0.022557239
0.023776589
0.024842309
0.025847448
0.026690436
0.027370704
0.027906242
0.028355942
0.028757041
0.029150885
0.029579969
0.030014748
0.030491718
0.030999318
0.03153882
0.032106026
0.032674343
0.033211733
0.033659718
0.033945621
0.034045473
0.033941996
0.033594426
0.032994399
0.032151598
0.031105476
0.029916609
0.028656372
0.027405373
0.026272323
0.025365251
0.024776317
0.024559702
0.024711987
0.025164943
0.025841741
0.026618021
0.02743448
0.028108281
0.02869936
0.029066067
0.029294804
0.029455927
0.029813476
0.03036012
0.030641279
0.03022106
0.029046412
0.02741372
0.025393369
0.023012519
0.02023906
0.01709766
0.013705384
0.010324382
0.0073567194
0.0052645569
0.0044175285
0.0049394152
0.0065797896
0.0086590894
0.010299237
0.010961242
0.010948653
0.010527858
0.010033403
0.0092712397
0.0079374964
0.0061411623
0.004088219
0.0019220189
-0.00028221372
-0.0024763776
-0.0046563958
-0.0068461699
-0.0090735167
-0.011342731
-0.013632165
-0.015899133
-0.018086409
-0.020127444
-0.02195345
-0.023494083
-0.024679438
-0.025441884
-0.025718866
-0.025454516
-0.024608135
-0.023156334
-0.02109195
-0.018431468
-0.01523439
-0.011601993
-0.0077333357
-0.003856761
-0.00011765481
0.0031599818
0.0054955524
0.0064070415
0.0053303186
0.00171599
-0.0047681305
-0.013869307
-0.024368037
-0.034114584
-0.041072533
-0.044483049
-0.045165825
-0.044517161
-0.043445119
-0.042460515
-0.042762219
-0.044723146
-0.04665142
-0.046802137
-0.04451971
-0.040324343
-0.035350547
-0.03067983
-0.026844797
-0.023969357
-0.021956036
-0.020649906
-0.019854164
-0.019381178
-0.019096041
-0.018922809
-0.018825187
-0.018850238
-0.019095564
-0.019717543
-0.020944848
-0.023086705
-0.026568091
-0.031745572
-0.038489685
-0.045928402
-0.053029202
-0.058980868
-0.063181052
-0.065117182
-0.064432082
-0.060429625
-0.053083076
-0.041894754
-0.037134008
-0.033793702
-0.031656997
-0.030211839
-0.029287427
-0.028606718
-0.028170537
-0.027783888
-0.027393468
-0.026910549
-0.026340255
-0.025506944
-0.023923413
-0.021353201
-0.017631069
-0.012610048
-0.0062022966
0.001654171
0.010982738
0.021823317
0.033875072
0.046698648
0.059784214
0.073004907
0.08611629
0.098899698
0.11116449
0.12273981
0.13342268
0.14303729
0.15144514
0.15813228
0.16268682
0.16414867
0.16071055
0.15117054
0.1342166
0.10825492
0.073259998
0.031663644
-0.0047781521
-0.028551662
-0.038919657
-0.040398168
-0.034291346
-0.030138548
-0.011814545
0.0005407088
-0.0033697623
-0.0037231421
-0.0020996109
0.0046621346
0.012776269
0.018205971
0.020963033
0.022541921
0.023762386
0.024828303
0.025833839
0.026678578
0.02736081
0.027898155
0.028349022
0.028750785
0.029144692
0.029573529
0.030008105
0.03048452
0.030991632
0.03153063
0.032097465
0.032665784
0.033203698
0.033653164
0.033941348
0.034043831
0.033943474
0.033599319
0.033002535
0.032162357
0.031117767
0.029929038
0.028667638
0.02741431
0.026277984
0.025367253
0.024775049
0.02455628
0.024708069
0.025162053
0.02584097
0.0266196
0.027437855
0.028111717
0.028701695
0.029067102
0.029295445
0.029456599
0.029813209
0.030357845
0.030636567
0.030216227
0.029041387
0.027408789
0.025388319
0.02300707
0.020232942
0.017090775
0.013697844
0.010316636
0.0073495857
0.0052592041
0.0044151804
0.0049411382
0.0065857255
0.0086682811
0.010306806
0.010964498
0.010948245
0.01052695
0.010032452
0.0092694443
0.0079345157
0.0061378142
0.004085305
0.001919701
-0.00028385672
-0.002477326
-0.0046567218
-0.0068459552
-0.0090729403
-0.011341919
-0.013631262
-0.015898269
-0.018085617
-0.020126783
-0.021953001
-0.023493908
-0.024679638
-0.025442511
-0.02572
-0.025456226
-0.024610487
-0.023159426
-0.021095904
-0.018436272
-0.015240086
-0.011608376
-0.0077403232
-0.0038645072
-0.00012623372
0.003150743
0.005486096
0.0063978236
0.0053223409
0.001710025
-0.0047720474
-0.013872931
-0.024374305
-0.03412491
-0.041084317
-0.044490834
-0.045167454
-0.04451571
-0.043443067
-0.042454813
-0.042752075
-0.044715246
-0.046652217
-0.04681044
-0.044531229
-0.040335538
-0.035359584
-0.030686991
-0.026850676
-0.023974131
-0.021959572
-0.020652624
-0.019856454
-0.019383033
-0.019097645
-0.018924209
-0.018826472
-0.018851187
-0.01909557
-0.019715943
-0.020940207
-0.023076877
-0.026551807
-0.031726149
-0.038471279
-0.045913773
-0.053019179
-0.058976088
-0.06318177
-0.065124568
-0.064448419
-0.060462279
-0.053143655
-0.041988216
-0.037209958
-0.033854637
-0.031708616
-0.030257501
-0.029329276
-0.028646089
-0.028208033
-0.02781912
-0.027426089
-0.026940058
-0.026365247
-0.025521443
-0.023921679
-0.021332015
-0.017587428
-0.012541847
-0.0061083209
0.0017740912
0.011128116
0.021989358
0.034053764
0.046882067
0.059969479
0.073189666
0.086297274
0.099074438
0.11133071
0.12289495
0.13356418
0.14316316
0.15154851
0.15820456
0.16271914
0.16412348
0.16061349
0.15099772
0.13397158
0.10797162
0.07301491
0.031590787
-0.0046585893
-0.028356354
-0.038755859
-0.040295952
-0.034247393
-0.030121144
-0.011809142
0.00054642829
-0.0033456454
-0.0036916525
-0.0020759674
0.0046492428
0.012743615
0.018179771
0.020943486
0.022526121
0.023747568
0.024813594
0.025819491
0.02666604
0.027350321
0.027889556
0.028341646
0.028744092
0.029138055
0.029566633
0.030000986
0.03047681
0.030983399
0.031521861
0.032088307
0.032656637
0.033195121
0.033646175
0.033936792
0.03404207
0.033945015
0.033604473
0.033011097
0.032173631
0.031130542
0.029941771
0.028678881
0.027422789
0.026282671
0.025367769
0.024771888
0.024550768
0.02470216
0.025157552
0.025839138
0.026620723
0.02744125
0.02811539
0.028704314
0.029068379
0.029296181
0.02945712
0.029812585
0.030355492
0.030631595
0.030211113
0.029036033
0.027403584
0.02538307
0.023001426
0.020226529
0.017083351
0.013689379
0.010307455
0.0073404488
0.0052513436
0.0044100587
0.0049403535
0.0065900242
0.0086772909
0.010314963
0.010968635
0.010948176
0.010526087
0.010031611
0.0092679684
0.0079316387
0.0061343306
0.0040822131
0.0019172215
-0.00028563571
-0.0024783632
-0.004657073
-0.006845712
-0.0090723214
-0.011341089
-0.013630417
-0.015897543
-0.018085022
-0.020126406
-0.021952929
-0.023494207
-0.024680407
-0.025443805
-0.025721897
-0.025458796
-0.02461378
-0.023163554
-0.021100984
-0.018442286
-0.015247044
-0.011616017
-0.0077484799
-0.0038733574
-0.00013594861
0.0031403611
0.0054755744
0.0063876951
0.0053136715
0.0017035912
-0.0047765774
-0.013878275
-0.024384668
-0.034142537
-0.041105673
-0.0445077
-0.045175255
-0.044517239
-0.04344159
-0.042447719
-0.04273977
-0.044707283
-0.046655976
-0.046822827
-0.044546186
-0.040348838
-0.03536954
-0.030694421
-0.026856584
-0.023978809
-0.021962925
-0.020655304
-0.019858801
-0.019384979
-0.019099351
-0.018925692
-0.018827756
-0.018852024
-0.019095283
-0.019713767
-0.020934531
-0.023065454
-0.026534012
-0.031706549
-0.038455229
-0.04590264
-0.053013814
-0.058976614
-0.063188129
-0.065138088
-0.064471757
-0.060505096
-0.053219393
-0.042107311
-0.037309027
-0.033936685
-0.03177952
-0.030321175
-0.029388115
-0.028701764
-0.02826119
-0.027869463
-0.02747323
-0.02698341
-0.026403025
-0.025546956
-0.023928794
-0.021317249
-0.017547548
-0.012474619
-0.0060124886
0.0018985307
0.011280516
0.022164031
0.0342418
0.04707495
0.060164427
0.073384117
0.086487799
0.099258453
0.11150582
0.12305846
0.13371343
0.14329602
0.15165739
0.15828021
0.16275237
0.16409582
0.16050976
0.15081488
0.13371525
0.10768113
0.072776345
0.031550365
-0.0044852728
-0.028103954
-0.038547456
-0.040165553
-0.034191653
-0.030098102
-0.011802725
0.00055430381
-0.0033146724
-0.0036526891
-0.0020446719
0.0046387851
0.012709939
0.018153124
0.020923807
0.022509898
0.023732145
0.024798164
0.025804371
0.026652787
0.0273392
0.027880408
0.028333779
0.028736932
0.029130944
0.029559249
0.029993357
0.030468553
0.030974583
0.031512475
0.032078512
0.032646864
0.033185964
0.033638721
0.033931933
0.034040176
0.03394661
0.03360989
0.033020089
0.032185423
0.03114379
0.029954761
0.028689997
0.027430637
0.026286123
0.025366447
0.024766395
0.024542667
0.024693744
0.02515097
0.02583587
0.026621152
0.027444551
0.028119283
0.028707228
0.029069934
0.029297025
0.029457446
0.029811515
0.030353012
0.030626254
0.030205582
0.029030243
0.027398024
0.02537757
0.022995544
0.020219761
0.017075291
0.013679821
0.010296573
0.0073289177
0.0052404366
0.004401476
0.0049362918
0.006592006
0.0086855796
0.010323546
0.010973764
0.010948514
0.010525273
0.010030869
0.00926683
0.0079288653
0.0061306965
0.0040789236
0.0019145696
-0.00028755739
-0.0024794948
-0.0046574528
-0.0068454454
-0.0090716699
-0.011340277
-0.013629675
-0.015897008
-0.018084696
-0.020126399
-0.021953331
-0.023495089
-0.024681862
-0.025445893
-0.025724692
-0.025462368
-0.024618169
-0.023168886
-0.021107371
-0.018449707
-0.015255484
-0.011625164
-0.0077580376
-0.0038835518
-0.00014708857
0.0031285026
0.0054636145
0.0063762432
0.0053038661
0.0016962191
-0.0047822369
-0.013886038
-0.024400226
-0.034169246
-0.041139006
-0.044536158
-0.045191115
-0.044522679
-0.04344091
-0.042439173
-0.042725201
-0.044699523
-0.046663348
-0.046839957
-0.044565041
-0.040364507
-0.035380553
-0.030702212
-0.026862605
-0.02398343
-0.021966102
-0.020658013
-0.019861256
-0.019387058
-0.01910119