/*--------------------------------*- C++ -*----------------------------------*\
| =========                 |                                                 |
| \\      /  F ield         | OpenFOAM: The Open Source CFD Toolbox           |
|  \\    /   O peration     | Version:  2.4.0                                 |
|   \\  /    A nd           | Web:      www.OpenFOAM.org                      |
|    \\/     M anipulation  |                                                 |
\*---------------------------------------------------------------------------*/
FoamFile
{
    version     2.0;
    format      ascii;
    class       volVectorField;
    location    "100";
    object      U;
}
// * * * * * * * * * * * * * * * * * * * * * * * * * * * * * * * * * * * * * //

dimensions      [0 1 -1 0 0 0 0];

internalField   nonuniform List<vector> 
32000
(
(0.0081006751 4.0471831e-05 -5.9066497e-22)
(0.0067319163 1.5356529e-06 5.0329121e-24)
(0.0085195481 -0.00023378747 -6.6449244e-23)
(0.0064593554 -0.00050083814 -2.2902197e-21)
(0.0039257536 -0.00059465199 3.3709172e-21)
(0.00033033257 -8.9607577e-05 -2.8880309e-20)
(-0.0021570798 0.00075852513 3.0701571e-20)
(-0.0026263302 0.0012390572 2.7195377e-20)
(-0.0020641723 0.0011825061 2.6463914e-19)
(-0.0016373115 0.0010722698 -1.4980482e-19)
(-0.0013903126 0.0010004135 -1.6447376e-19)
(-0.0012226478 0.00094018978 -3.8245409e-19)
(-0.0010734789 0.0008655409 -3.9831673e-19)
(-0.00091061585 0.00075794846 -2.4559192e-19)
(-0.00076694847 0.00065061554 2.1066245e-21)
(-0.00065166 0.00055633651 -1.349997e-19)
(-0.00057861067 0.00049128036 -1.9443704e-20)
(-0.00053687439 0.00044894539 1.1557387e-19)
(-0.00052779831 0.00043425051 1.3315454e-19)
(-0.0005334365 0.00043247265 2.0215107e-19)
(-0.00054026802 0.00043198879 1.2862498e-19)
(-0.00055787845 0.0004406998 -1.2168555e-19)
(-0.00056483829 0.00044138456 -4.6407035e-19)
(-0.00056361686 0.00043629163 1.3640187e-19)
(-0.0005428692 0.00041698561 1.8392177e-19)
(-0.00049052883 0.00037436497 -4.882017e-19)
(-0.00039729337 0.00030167195 2.75754e-19)
(-0.00024705474 0.00018581652 3.0904941e-19)
(-3.58363e-05 2.5004155e-05 -2.5346969e-19)
(0.00022281269 -0.00016647036 6.0759583e-19)
(0.00051286933 -0.00037167721 -7.4710329e-20)
(0.00084381051 -0.00059184059 4.1235206e-19)
(0.0012018329 -0.00081028229 5.4524392e-19)
(0.0015736108 -0.0010109582 -3.159294e-19)
(0.0019404146 -0.001174936 -5.9602077e-19)
(0.0022855879 -0.0012874692 2.5970311e-19)
(0.002588248 -0.0013392988 -8.5698971e-20)
(0.0028124287 -0.0013230475 -1.9443315e-19)
(0.0029207032 -0.0012334027 2.8249343e-19)
(0.0028880342 -0.00107717 -9.3761685e-20)
(0.0027037488 -0.00087199469 -7.7882818e-20)
(0.0023663658 -0.00064094026 -2.6167385e-19)
(0.0019092061 -0.00041613001 -7.9844183e-20)
(0.0013751475 -0.00022535074 2.0291229e-20)
(0.00084685201 -9.1903551e-05 -1.3231585e-19)
(0.00034219826 -1.7185196e-05 -4.7105208e-21)
(-2.0359347e-05 1.8124201e-06 1.982105e-21)
(-0.00033771525 1.4156938e-06 -1.3039519e-24)
(-0.0005489713 5.4403316e-07 1.6611167e-23)
(-0.00047552667 -2.535292e-08 -1.6917377e-23)
(-0.00038842661 3.7276388e-07 1.0376567e-23)
(-0.00054343242 1.2317242e-06 -2.4834584e-24)
(-0.00084338284 7.1583805e-07 -1.7508887e-23)
(-0.00069051809 -1.9425547e-06 1.0643507e-23)
(0.00041212249 -4.1132974e-06 -1.598671e-25)
(0.0015337596 -4.288446e-06 3.9422405e-24)
(0.0024066736 -3.9843793e-06 -3.9823826e-24)
(0.0030690884 -3.9610076e-06 1.2705528e-23)
(0.003690011 -4.1778064e-06 -1.1761168e-24)
(0.0043197401 -4.5030043e-06 -1.0995584e-23)
(0.0049805574 -4.6961008e-06 2.3617931e-24)
(0.0056125179 -4.4969908e-06 -1.7447795e-24)
(0.006113056 -3.6551224e-06 -2.2385728e-24)
(0.0063371384 -2.0308509e-06 1.2729719e-25)
(0.0061450512 2.8027519e-07 -8.3940457e-25)
(0.005428333 2.9206308e-06 -4.5250259e-25)
(0.0041819397 5.2686138e-06 1.0845976e-24)
(0.0025498234 6.5923434e-06 -9.1070127e-25)
(0.00083696816 6.345752e-06 2.4627245e-24)
(-0.00060012439 4.3251624e-06 1.5297666e-25)
(-0.0013697116 1.2532787e-06 7.9071879e-25)
(-0.0013222905 -9.8915379e-07 -7.4823823e-25)
(-0.00088867866 -1.5157277e-06 6.590803e-25)
(-0.00057095663 -9.583324e-07 -1.2461532e-25)
(-0.0004404121 -1.5972745e-06 -1.6109357e-24)
(4.9297928e-05 -2.8339023e-06 -1.3472042e-24)
(0.00076932525 -3.0247069e-06 1.1976612e-24)
(0.0013500902 -2.5243557e-06 -3.2843215e-25)
(0.0017290351 -1.9567576e-06 6.2643009e-25)
(0.0019515521 -1.4494009e-06 -6.4535364e-26)
(0.0020438115 -9.7303515e-07 -4.1968654e-26)
(0.0020181243 -6.1564845e-07 -9.7176011e-25)
(0.0019180642 -3.7551812e-07 6.0210854e-25)
(0.0017660793 -1.880869e-07 2.7545971e-25)
(0.0015682608 1.2531259e-08 3.0998271e-25)
(0.0013167768 2.3813294e-07 -1.7051385e-24)
(0.0010106047 4.8751953e-07 1.0060813e-24)
(0.00065283638 7.3228066e-07 1.3175508e-24)
(0.00025298794 9.5878795e-07 -6.4524679e-25)
(-0.0001789767 1.1651817e-06 3.5134087e-25)
(-0.00063290847 1.3440601e-06 3.7233343e-25)
(-0.0010976845 1.4916811e-06 -1.6727662e-24)
(-0.0015609886 1.5856587e-06 1.5080017e-24)
(-0.0020089724 1.6311162e-06 -3.0475855e-24)
(-0.0024267886 1.6045346e-06 4.2504157e-25)
(-0.0027964952 1.4994339e-06 3.1904113e-25)
(-0.0030971469 1.288377e-06 4.3723661e-26)
(-0.0033080882 9.8534795e-07 3.1251881e-25)
(-0.0034075534 5.5953309e-07 4.0474201e-25)
(-0.0033659152 2.155106e-09 -2.7993701e-26)
(-0.0031545432 -7.2387637e-07 -5.1755838e-26)
(-0.0027313237 -1.63137e-06 -6.9868874e-26)
(-0.00207505 -2.5962271e-06 2.4971495e-25)
(-0.0011840233 -3.5909223e-06 -7.119479e-26)
(-1.680328e-05 -4.7720097e-06 -1.320132e-25)
(0.0014918466 -6.1443715e-06 -1.4911117e-25)
(0.0033708713 -7.4644463e-06 -8.5768386e-26)
(0.0056106138 -8.6409354e-06 3.2522687e-25)
(0.0081522966 -9.2846744e-06 2.353792e-25)
(0.010814007 -8.8863548e-06 -3.4613019e-25)
(0.013231043 -6.6737515e-06 1.0130225e-24)
(0.014845729 -2.2394497e-06 9.434262e-25)
(0.015064368 3.9487725e-06 1.3340477e-24)
(0.013515159 1.0183001e-05 -4.3485997e-24)
(0.010410152 1.4030538e-05 1.420796e-25)
(0.0066660981 1.3911981e-05 4.824582e-25)
(0.0033539094 1.0636681e-05 6.7494391e-24)
(0.0011267041 6.2783547e-06 -6.0709842e-24)
(5.2680339e-05 2.0925748e-06 -5.6519787e-24)
(7.913422e-05 -1.0801224e-06 6.4525529e-24)
(0.00051045217 -4.7510656e-07 2.5361553e-25)
(-4.6494179e-05 3.9469135e-06 -6.0419839e-24)
(-0.0017645613 7.0356186e-06 1.3529192e-25)
(-0.0036791392 6.1398298e-06 4.3183148e-25)
(-0.0049746274 2.4021438e-06 7.4408407e-24)
(-0.0052948485 -1.9693075e-06 -5.7867133e-25)
(-0.0047713763 -5.0943679e-06 2.1658196e-25)
(-0.0037740238 -6.3333379e-06 -1.6010829e-25)
(-0.0026251372 -6.2353238e-06 -1.7699958e-25)
(-0.0015096021 -5.4590662e-06 -1.1812886e-25)
(-0.00053132892 -4.3554737e-06 -5.9514285e-24)
(0.00022991374 -3.1947084e-06 6.1542646e-24)
(0.00079402196 -2.2439717e-06 -5.6668769e-24)
(0.0012038992 -1.5671483e-06 3.0772062e-24)
(0.0015086285 -1.1587344e-06 -2.7489295e-24)
(0.0017619242 -9.7503863e-07 2.0214878e-17)
(0.0020239969 -1.0362186e-06 2.0135971e-17)
(0.0023486156 -1.1546404e-06 2.9248748e-24)
(0.0027461484 -1.1690867e-06 -2.0399853e-17)
(0.0032025819 -9.5192098e-07 -2.1100101e-17)
(0.0036677922 -2.5400442e-07 -1.1849234e-23)
(0.0040325245 1.3309125e-06 3.368765e-24)
(0.004056364 4.1554529e-06 -7.7543772e-24)
(0.0033520389 8.2809338e-06 3.8296787e-24)
(0.001742412 1.2293835e-05 1.2487728e-23)
(-0.00047034208 1.464898e-05 -2.6736651e-23)
(-0.0030072798 1.5251386e-05 2.279201e-23)
(-0.0056669057 1.4417516e-05 -3.4638388e-23)
(-0.0083160885 1.2516246e-05 6.4655923e-23)
(-0.010830014 9.6597407e-06 -3.6926318e-23)
(-0.01321777 5.9881682e-06 -8.2782829e-24)
(-0.015160738 4.1546344e-07 1.1412042e-24)
(-0.016710757 -6.8928525e-06 1.5721659e-24)
(-0.015078894 -0.00011378513 2.5719168e-21)
(-0.011859152 -0.00065437146 1.5890125e-19)
(-0.010563827 -0.0011613203 2.2082373e-20)
(-0.0094693089 -0.0015549555 -4.1525205e-20)
(-0.0087860258 -0.0019166077 3.2472013e-20)
(-0.0083269184 -0.0022577539 -1.8663325e-19)
(-0.0080396265 -0.0025964344 -1.3456659e-19)
(-0.0078698518 -0.0029444251 2.6544577e-19)
(-0.007824852 -0.0033185111 -5.631084e-20)
(-0.0078577292 -0.0037154672 -1.0582055e-19)
(-0.0079506496 -0.0041362337 -9.8320501e-20)
(-0.0081128287 -0.0045929545 3.273286e-19)
(-0.0084411654 -0.0051377166 1.4243874e-19)
(-0.0089009778 -0.0057427281 2.9855317e-20)
(-0.0093883235 -0.0063467375 2.9956559e-19)
(-0.0098689516 -0.0069260108 2.3782815e-19)
(-0.0103168 -0.0074561527 -9.8251371e-20)
(-0.010714194 -0.0079182496 9.1943801e-20)
(-0.011048829 -0.0082963811 -3.2623401e-22)
(-0.01131552 -0.0085810704 1.7936832e-19)
(-0.011463145 -0.0087318437 -1.8620525e-19)
(-0.011410492 -0.0087125747 9.8932762e-20)
(-0.011127198 -0.0085273293 3.7613331e-19)
(-0.010666433 -0.0082317832 -1.1531564e-18)
(-0.010098025 -0.0078560266 -1.2346773e-19)
(-0.0094183613 -0.0073976216 -1.1924167e-18)
(-0.0086497181 -0.0068704737 -1.6731014e-19)
(-0.0078084438 -0.006281677 -4.2035558e-20)
(-0.0069019462 -0.0056307258 8.3994645e-19)
(-0.0059364735 -0.0049180246 1.353766e-18)
(-0.0049352305 -0.004149157 3.4894946e-19)
(-0.0038719508 -0.0032726747 -1.9380333e-18)
(-0.0027062748 -0.0022733987 -5.4826217e-19)
(-0.0011329413 -0.00093400112 1.1970117e-18)
(0.0010166277 0.00081411629 -1.276712e-18)
(0.0034080628 0.0025941469 3.2976795e-19)
(0.0063192811 0.004495584 4.4700687e-19)
(0.010005875 0.0064822224 1.0726621e-18)
(0.014469644 0.0082152617 -6.8437319e-19)
(0.019407102 0.0091166143 2.372251e-19)
(0.022916248 0.0081202022 -9.1414498e-20)
(0.022915488 0.005580563 -4.3147365e-22)
(0.019952698 0.0030062405 2.876725e-20)
(0.015931219 0.0012534867 1.7330472e-20)
(0.011439921 0.00032256829 -1.9070811e-21)
(0.0090548804 2.16731e-06 9.5017092e-23)
(0.0055757779 -2.8206651e-05 2.4075456e-22)
(0.024568515 0.00011335603 1.4008939e-21)
(0.020839934 5.5683604e-07 -1.0327762e-23)
(0.025728162 -0.00070301232 1.5807551e-21)
(0.01982457 -0.0014930206 6.2374935e-21)
(0.012353364 -0.0017942219 -9.5450575e-22)
(0.0016377178 -0.00032065799 5.276238e-20)
(-0.00608345 0.0022266443 1.9764906e-20)
(-0.0077763067 0.0037128137 -9.9030589e-20)
(-0.0062052166 0.0035716097 -1.6532014e-19)
(-0.0049438232 0.0032499077 8.1746972e-20)
(-0.0041999725 0.0030351299 2.7303557e-19)
(-0.0036925491 0.0028531408 4.8423865e-19)
(-0.0032428554 0.0026270742 8.1860099e-19)
(-0.0027536452 0.0023019469 5.995946e-20)
(-0.0023209051 0.0019768392 -1.6577296e-19)
(-0.0019722653 0.0016908164 4.0055379e-19)
(-0.0017497027 0.0014925519 6.3210847e-19)
(-0.0016209592 0.001362979 6.2897249e-20)
(-0.0015899609 0.0013168405 3.464526e-19)
(-0.0016042735 0.0013101064 2.1700742e-19)
(-0.0016223188 0.0013075928 6.1407946e-19)
(-0.0016723769 0.0013324738 -3.6316043e-19)
(-0.0016908098 0.0013332379 6.0034135e-19)
(-0.0016843859 0.0013163061 1.5642184e-19)
(-0.0016199289 0.0012564423 2.6126013e-19)
(-0.0014617398 0.0011263933 1.7542948e-19)
(-0.0011828049 0.00090595226 -1.0549079e-18)
(-0.00073578179 0.00055616385 -1.1534515e-18)
(-0.00010659424 7.0928933e-05 4.89963e-19)
(0.00066620519 -0.00050756119 -8.5311233e-19)
(0.0015314199 -0.0011267856 -1.4544566e-19)
(0.0025179578 -0.0017905638 -1.4648665e-19)
(0.0035861991 -0.0024491134 -3.0294394e-19)
(0.0046975612 -0.0030543724 3.3979402e-19)
(0.0057975958 -0.0035497122 1.4088414e-19)
(0.0068373923 -0.0038906662 -6.7265715e-19)
(0.0077553001 -0.0040489628 3.5812101e-19)
(0.0084455692 -0.0040024175 1.8629866e-19)
(0.0087971112 -0.003734948 2.3321876e-20)
(0.0087332913 -0.0032662888 -6.5741548e-20)
(0.0082190717 -0.0026487342 1.3525739e-19)
(0.0072440431 -0.0019509313 3.3398811e-19)
(0.0059000034 -0.0012690928 3.008374e-20)
(0.0043109035 -0.00068799399 -3.4075645e-20)
(0.0027207286 -0.00027852191 7.024362e-20)
(0.0011885926 -4.7900081e-05 4.8713281e-21)
(6.8131201e-05 1.2515269e-05 4.5864623e-22)
(-0.00092063773 1.016162e-05 -8.1573544e-24)
(-0.0015929834 2.4491942e-06 2.6979915e-23)
(-0.001404441 -3.0090243e-06 -3.1808327e-23)
(-0.0011631004 1.5586699e-06 8.2319006e-24)
(-0.0016272431 9.2559561e-06 2.3649182e-23)
(-0.0024992502 2.9734836e-06 -1.8214093e-23)
(-0.0020314434 -2.4388531e-05 1.2815698e-24)
(0.0012559596 -4.3063195e-05 1.2968719e-24)
(0.0045553792 -3.8490423e-05 4.2210033e-24)
(0.0071252448 -2.966655e-05 -1.9098299e-24)
(0.0090847239 -2.5183362e-05 3.5565303e-24)
(0.010921714 -2.4626625e-05 -2.1302708e-23)
(0.012783791 -2.5472774e-05 2.1846017e-23)
(0.01473756 -2.5479667e-05 1.6273716e-24)
(0.01661319 -2.2328715e-05 -1.4816745e-23)
(0.018116808 -1.4323764e-05 4.612699e-24)
(0.018830256 -7.5305559e-07 -1.5309279e-24)
(0.018345509 1.7566651e-05 3.7855187e-24)
(0.016334473 3.7923046e-05 -1.1270136e-24)
(0.012753523 5.5464183e-05 -1.4272887e-24)
(0.0079864328 6.4339289e-05 -2.1556103e-26)
(0.00289276 6.0453806e-05 3.3344192e-24)
(-0.0014918518 4.2053777e-05 9.3556821e-25)
(-0.0039691906 1.3421276e-05 -7.6158006e-24)
(-0.0039714997 -9.2937266e-06 9.04715e-24)
(-0.0027512809 -1.4381715e-05 -9.2745259e-24)
(-0.0018230829 -8.3443079e-06 6.2963793e-24)
(-0.0014399829 -1.2152203e-05 -4.0207866e-24)
(-2.3045272e-05 -2.3446071e-05 6.3364525e-25)
(0.0020842879 -2.4935276e-05 1.3466958e-24)
(0.0038047922 -1.8501988e-05 -1.6498104e-25)
(0.0049362358 -1.1727442e-05 7.655098e-26)
(0.0056049123 -6.2564476e-06 2.5634025e-25)
(0.0058851234 -1.4611251e-06 4.7171788e-25)
(0.0058094898 2.2293215e-06 -6.5696608e-25)
(0.0055041079 4.6694664e-06 1.346879e-24)
(0.0050350645 6.5680377e-06 1.1507573e-25)
(0.00442293 8.5111766e-06 6.9507446e-25)
(0.0036483091 1.0620609e-05 -1.4245617e-24)
(0.0027120177 1.2684383e-05 -2.0790596e-24)
(0.0016265313 1.449979e-05 7.1175355e-25)
(0.00042277735 1.5939672e-05 3.0878253e-24)
(-0.0008677384 1.6987556e-05 -7.7912074e-24)
(-0.0022137923 1.7624296e-05 6.6559207e-24)
(-0.0035812885 1.7807788e-05 -3.2714736e-24)
(-0.0049328368 1.7485543e-05 1.4548024e-24)
(-0.0062268147 1.6607631e-05 -1.0625839e-24)
(-0.0074187641 1.509681e-05 4.9447155e-26)
(-0.0084556076 1.2828178e-05 5.0136351e-26)
(-0.0092763452 9.7561938e-06 -2.1540314e-25)
(-0.0098209085 5.8676029e-06 -6.9920419e-25)
(-0.010025875 9.9543517e-07 6.6176836e-25)
(-0.0098064127 -5.0081903e-06 -6.3983537e-26)
(-0.0090815768 -1.2339005e-05 1.8106755e-25)
(-0.0077351317 -2.0934086e-05 7.9519188e-26)
(-0.0057121543 -2.9979295e-05 -3.501079e-25)
(-0.0030004789 -3.9680737e-05 6.4834004e-26)
(0.00051535829 -5.1525649e-05 4.0986786e-26)
(0.0050049782 -6.5198336e-05 -4.210299e-25)
(0.010546628 -7.9085881e-05 7.1100684e-25)
(0.017103799 -9.1666891e-05 -3.493044e-25)
(0.024491781 -9.9624993e-05 5.2914836e-25)
(0.032175702 -9.7146788e-05 -2.3592709e-25)
(0.039109577 -7.7067015e-05 -2.2997804e-24)
(0.04371853 -3.4962094e-05 3.6482588e-24)
(0.044344143 2.5870422e-05 2.5486587e-24)
(0.039927197 8.991857e-05 -4.0956034e-25)
(0.030999615 0.00013228593 -1.1338364e-23)
(0.020102315 0.00013612197 6.767193e-24)
(0.010318138 0.00010677745 -4.9447366e-24)
(0.0036440124 6.3931233e-05 -6.1992464e-24)
(0.00038175626 2.1362952e-05 1.363913e-24)
(0.00033311744 -8.0838261e-06 -6.0350469e-24)
(0.0013619988 1.8866165e-06 1.7339693e-23)
(-0.00050078378 4.3144899e-05 -1.6302814e-23)
(-0.0055803753 6.957244e-05 3.3333131e-23)
(-0.011047789 6.1858206e-05 -6.9594473e-24)
(-0.014628642 3.1328486e-05 -2.5707033e-24)
(-0.015393491 -3.966418e-06 -2.4939423e-24)
(-0.013774809 -2.9818346e-05 -5.4508288e-24)
(-0.010834919 -4.1969464e-05 1.6443278e-24)
(-0.007477681 -4.4195478e-05 -3.8563248e-24)
(-0.0042199027 -4.0799883e-05 -7.8537532e-25)
(-0.0013581852 -3.3889625e-05 1.4407534e-24)
(0.00087048028 -2.5798188e-05 -2.8383466e-24)
(0.0025282932 -1.8935114e-05 -7.0493413e-25)
(0.003741165 -1.3873456e-05 -7.2514464e-25)
(0.004649391 -1.0824468e-05 1.3761064e-23)
(0.005409231 -9.9419994e-06 -1.7790361e-23)
(0.0061945839 -1.1258197e-05 1.6112426e-23)
(0.0071572513 -1.3806773e-05 -8.6386658e-24)
(0.0083214935 -1.6219413e-05 -8.7540579e-25)
(0.0096336081 -1.7311151e-05 -3.0618657e-24)
(0.010927619 -1.5197206e-05 -1.447284e-24)
(0.011852041 -6.387398e-06 8.3016253e-24)
(0.011664763 1.4239247e-05 1.2974843e-23)
(0.0092300962 4.5537961e-05 -1.5655344e-23)
(0.0041179034 7.4819865e-05 -6.4574366e-24)
(-0.0026708382 9.2904593e-05 1.4552728e-24)
(-0.010296327 0.00010139696 1.806436e-23)
(-0.018181616 0.00010313776 -1.5953923e-24)
(-0.025941303 9.9872294e-05 -2.2522246e-24)
(-0.033219649 9.3675265e-05 1.7638738e-23)
(-0.040012192 8.2507915e-05 -3.5681119e-24)
(-0.045410121 6.368389e-05 1.3191223e-24)
(-0.049458522 4.9643343e-06 -5.751205e-23)
(-0.044751055 -0.0003846705 -1.1515802e-22)
(-0.035675615 -0.0020285602 5.8066262e-21)
(-0.031878329 -0.0035454317 2.8003338e-19)
(-0.028701243 -0.0047487323 -1.152613e-19)
(-0.026709041 -0.0058533531 1.6710384e-19)
(-0.025370071 -0.006899297 2.8095036e-19)
(-0.02453296 -0.0079381696 5.0003046e-19)
(-0.024041672 -0.0090055464 -4.1429285e-19)
(-0.023912284 -0.010149162 -4.3109042e-20)
(-0.024011835 -0.011361322 4.9138121e-19)
(-0.02429133 -0.012645373 8.8679439e-20)
(-0.024779497 -0.014037562 2.6802434e-19)
(-0.02574023 -0.015683247 -5.5823884e-19)
(-0.027065041 -0.017497559 1.2436978e-19)
(-0.028458962 -0.019302334 -2.8524085e-19)
(-0.02982337 -0.021026091 -2.1925662e-19)
(-0.031083026 -0.022596666 2.0633447e-19)
(-0.032187592 -0.023958198 -1.4683442e-19)
(-0.033101951 -0.025063743 -7.3027824e-21)
(-0.033807729 -0.02588363 -2.4484947e-19)
(-0.034158976 -0.026300604 7.5669448e-21)
(-0.033929029 -0.026213891 -2.5504918e-19)
(-0.033038068 -0.025639966 -1.5520682e-19)
(-0.031636559 -0.024740864 -2.5198011e-19)
(-0.029920874 -0.023601949 2.4084229e-19)
(-0.027882796 -0.022218205 -8.9448958e-19)
(-0.025586748 -0.020629868 1.6216398e-19)
(-0.023078961 -0.018857271 7.4096649e-19)
(-0.020380736 -0.016898649 -2.1923315e-18)
(-0.017510336 -0.014754688 -9.0427046e-19)
(-0.014531772 -0.012438969 -1.2009965e-18)
(-0.011369105 -0.0097991694 3.0852459e-19)
(-0.0078996687 -0.0067896894 1.8923548e-18)
(-0.0031994325 -0.0027500333 -1.1969008e-18)
(0.0031856693 0.002502612 -9.2754144e-19)
(0.010223372 0.0078185722 2.5817828e-18)
(0.018776401 0.013481869 -2.8634849e-18)
(0.029572029 0.019369591 -2.1260786e-18)
(0.042598739 0.024472478 1.8559268e-19)
(0.056961202 0.027087157 -4.2315871e-19)
(0.067295072 0.024145494 -3.539555e-19)
(0.067734369 0.016706724 3.625532e-20)
(0.059647432 0.0091170985 2.8309106e-20)
(0.048222031 0.0038834023 -6.9244762e-20)
(0.035206242 0.0010542356 -3.1102895e-21)
(0.028004035 5.9569228e-05 -8.512791e-22)
(0.017869576 -7.8008264e-05 2.5142692e-21)
(0.041920655 0.00017935043 2.1690298e-22)
(0.036048726 -5.8008384e-06 -5.6246134e-24)
(0.04365086 -0.0011833275 1.5001096e-22)
(0.034078032 -0.0024937169 -1.0502002e-20)
(0.021660773 -0.0030417302 -4.6890811e-21)
(0.0037262817 -0.00066099357 -4.9866854e-20)
(-0.0096810823 0.0036170405 -8.2197019e-20)
(-0.01296778 0.0062023772 -4.454869e-20)
(-0.010489019 0.0060243661 -8.8531715e-20)
(-0.0083889403 0.0055041649 -5.2740726e-20)
(-0.0071301712 0.0051462003 5.094786e-20)
(-0.0062683477 0.0048385825 -3.0564285e-19)
(-0.0055065728 0.0044554425 -6.1883901e-19)
(-0.0046800906 0.0039064381 4.8820057e-20)
(-0.0039469075 0.0033563465 5.6849048e-19)
(-0.0033543395 0.0028717397 3.4996736e-20)
(-0.0029735209 0.0025342131 -3.307701e-19)
(-0.0027511495 0.0023127092 -6.939364e-19)
(-0.0026936345 0.0022317679 -2.6839594e-19)
(-0.0027141842 0.0022178419 -1.8970073e-20)
(-0.0027415548 0.0022116656 -5.3787612e-19)
(-0.0028224166 0.0022508639 4.1406152e-19)
(-0.0028505975 0.0022495509 6.6110672e-19)
(-0.0028364698 0.0022178564 -3.4304495e-19)
(-0.0027251825 0.0021136009 -1.2515029e-19)
(-0.0024571521 0.0018912884 -1.101547e-19)
(-0.0019877534 0.0015171811 8.3470879e-19)
(-0.001238494 0.00092678374 4.8565386e-19)
(-0.00018297347 0.0001087159 -4.5506158e-19)
(0.0011171039 -0.00086781091 -1.0410424e-19)
(0.0025704627 -0.0019111646 -4.1906144e-19)
(0.0042262506 -0.0030282503 8.6543493e-20)
(0.0060198877 -0.0041361263 -5.3008013e-19)
(0.0078878504 -0.0051545311 -3.5664592e-19)
(0.0097405565 -0.0059891214 3.3536408e-19)
(0.011496994 -0.0065652863 -5.4898422e-20)
(0.013054899 -0.0068349791 2.19649e-19)
(0.014239612 -0.0067610992 3.340153e-19)
(0.014866375 -0.0063164569 -1.8117208e-19)
(0.01480454 -0.0055326637 5.9520738e-19)
(0.013991861 -0.0044958591 -2.8682843e-19)
(0.012403556 -0.0033196341 -2.2888626e-19)
(0.010182368 -0.0021644069 -6.2713538e-20)
(0.0075294493 -0.0011745024 -8.9362056e-20)
(0.0048466304 -0.00047051387 5.1114215e-20)
(0.0022427241 -7.0570159e-05 -5.3954412e-20)
(0.00030736258 3.8156547e-05 3.1762166e-21)
(-0.0014118452 3.1741254e-05 -3.1471295e-23)
(-0.0026023669 8.6731284e-06 8.8268943e-24)
(-0.0023354864 -8.4208115e-06 1.5981744e-23)
(-0.0019621323 4.4367058e-06 1.316753e-24)
(-0.0027425345 2.6480074e-05 -3.6222265e-24)
(-0.004163915 8.002763e-06 -1.9949396e-23)
(-0.0033597144 -7.3111274e-05 3.8282221e-23)
(0.0021457657 -0.00012792389 -2.7583332e-23)
(0.007601008 -0.00011359878 -1.1797133e-23)
(0.011859377 -8.7248656e-05 1.6006209e-23)
(0.015122185 -7.3426964e-05 7.9267107e-24)
(0.018179089 -7.1512054e-05 -1.0696037e-23)
(0.021275163 -7.3795706e-05 6.56943e-25)
(0.024521383 -7.3895814e-05 -1.2226055e-23)
(0.027646996 -6.4981141e-05 1.369058e-23)
(0.03017726 -4.2180624e-05 -3.3144914e-24)
(0.031433668 -3.348703e-06 6.6022709e-25)
(0.030745937 4.9627911e-05 -2.5991471e-25)
(0.027562577 0.00010939626 -4.7268106e-24)
(0.021770108 0.00016220282 5.9611293e-24)
(0.01394282 0.00019074523 -7.0252427e-24)
(0.005443309 0.00018248499 2.5266979e-24)
(-0.0020366867 0.00013101349 4.7596652e-24)
(-0.0064581892 4.6086721e-05 -3.4758731e-24)
(-0.0066776448 -2.4096093e-05 4.4660592e-25)
(-0.0047492974 -4.1603643e-05 8.1373471e-25)
(-0.0032266527 -2.4758442e-05 3.183e-24)
(-0.0025875756 -3.5030451e-05 -4.410318e-24)
(-0.00028043957 -6.8511507e-05 -3.3838725e-24)
(0.0031895395 -7.3759924e-05 2.8908226e-24)
(0.0060581463 -5.4830453e-05 -5.8877866e-25)
(0.0079574834 -3.4581891e-05 1.4440662e-24)
(0.0090853433 -1.8188314e-05 -3.1616705e-25)
(0.0095622487 -3.7965372e-06 -1.895336e-25)
(0.0094373522 7.4744622e-06 5.7552894e-25)
(0.008915681 1.5032938e-05 -2.0965e-25)
(0.0081068556 2.092919e-05 3.1007785e-24)
(0.0070489905 2.6839127e-05 -2.3621054e-24)
(0.0057156434 3.3118064e-05 2.1441323e-24)
(0.0041137114 3.91511e-05 -1.2312839e-25)
(0.0022688166 4.4341572e-05 -9.1529025e-25)
(0.00023644481 4.8327894e-05 -1.7293752e-24)
(-0.0019278745 5.1096893e-05 3.0252031e-24)
(-0.0041709516 5.2604236e-05 3.6342531e-24)
(-0.0064343083 5.2733326e-05 -1.6313191e-24)
(-0.0086544785 5.1328212e-05 -3.1166025e-24)
(-0.010761448 4.8267798e-05 2.3491737e-24)
(-0.012680647 4.3322277e-05 1.0999914e-24)
(-0.014324016 3.6166984e-05 -1.9658245e-24)
(-0.015591795 2.6664066e-05 1.0272245e-24)
(-0.016385833 1.4786708e-05 -2.5515209e-25)
(-0.016602267 4.6817343e-08 -4.2022737e-25)
(-0.016104055 -1.7914817e-05 -3.2896982e-25)
(-0.014762072 -3.965571e-05 -2.1561979e-25)
(-0.012395101 -6.4852485e-05 -3.480861e-26)
(-0.0089207902 -9.1375534e-05 7.9305568e-27)
(-0.0043073046 -0.00012003815 2.4333793e-25)
(0.0016209238 -0.00015445858 1.1799677e-25)
(0.0091121854 -0.00019385388 2.5521248e-26)
(0.018290364 -0.0002338625 -5.0370323e-25)
(0.029083828 -0.00026980998 7.5701091e-25)
(0.041173892 -0.00029199789 1.0936211e-25)
(0.053682506 -0.00028384421 -4.7941614e-25)
(0.0649249 -0.00022500271 1.6234067e-24)
(0.072391523 -0.00010317485 3.0317865e-25)
(0.073450956 7.2338272e-05 -1.1985227e-24)
(0.066394174 0.00025858535 -8.903279e-24)
(0.051959758 0.00038499468 5.7102804e-24)
(0.034106542 0.00040132513 -3.5273136e-24)
(0.017833904 0.00031900724 7.2163833e-24)
(0.0065725075 0.00019299422 1.743672e-23)
(0.00099327698 6.5867804e-05 -3.7474261e-24)
(0.00070628768 -1.9033441e-05 -3.070229e-23)
(0.0020410918 1.3386374e-05 6.6397217e-24)
(-0.001363743 0.00013257572 -7.0097262e-24)
(-0.0097853404 0.00020435721 2.1335685e-23)
(-0.018578623 0.00017696782 7.2251549e-24)
(-0.024171917 8.6404862e-05 -1.2836245e-24)
(-0.025196115 -1.4943591e-05 -2.4466728e-23)
(-0.022417912 -8.7822371e-05 9.2280102e-24)
(-0.01755071 -0.00012196211 -8.4463997e-24)
(-0.01202767 -0.00012827479 1.1526141e-23)
(-0.0066684247 -0.00011868378 9.1993396e-24)
(-0.0019524698 -9.8785012e-05 -1.2268977e-23)
(0.0017226319 -7.540882e-05 -1.0907275e-23)
(0.0044660487 -5.5650581e-05 3.1422577e-23)
(0.0064853887 -4.1073822e-05 -2.9052516e-23)
(0.0080067498 -3.2280567e-05 8.9781566e-24)
(0.0092860419 -2.9808921e-05 7.5159466e-24)
(0.010606374 -3.3729858e-05 -5.8950007e-24)
(0.012209159 -4.1077296e-05 3.0418016e-24)
(0.014125898 -4.7852792e-05 1.2297082e-23)
(0.016250075 -5.0423032e-05 -5.7134555e-24)
(0.018279872 -4.3015282e-05 -1.6632106e-23)
(0.019588324 -1.4778108e-05 -8.931222e-24)
(0.018892415 4.9134271e-05 8.4517891e-24)
(0.014317498 0.00014339063 3.9375018e-23)
(0.0052912203 0.00022801766 -7.1973576e-24)
(-0.0063479857 0.00027745785 2.3557521e-23)
(-0.019199674 0.00029926517 -7.7535346e-23)
(-0.032333105 0.00030223316 -2.1870799e-23)
(-0.045117749 0.00029107815 2.2715881e-23)
(-0.056984691 0.00027209712 2.9636626e-23)
(-0.06787392 0.00023749196 2.4627045e-23)
(-0.076345302 0.00018266491 -1.9783065e-23)
(-0.082262055 4.2662397e-06 1.7965333e-23)
(-0.074613556 -0.00075289866 -6.1469929e-21)
(-0.060224769 -0.0035263549 -4.0888914e-20)
(-0.053943672 -0.0060573052 -3.2340905e-19)
(-0.048764959 -0.0081117505 1.7355286e-19)
(-0.045496872 -0.0099987543 -7.2474608e-20)
(-0.043302019 -0.011793817 -4.9684603e-19)
(-0.04193072 -0.013577934 -7.6266491e-20)
(-0.041132024 -0.015411115 6.0459906e-19)
(-0.040923873 -0.017367766 7.1304487e-20)
(-0.041095047 -0.019438832 -3.1890643e-19)
(-0.041569278 -0.021630759 -1.297421e-19)
(-0.042397207 -0.024003671 -1.7153319e-19)
(-0.043985185 -0.026779199 -5.4109026e-19)
(-0.046147562 -0.029812955 -4.098158e-19)
(-0.048411214 -0.032817837 3.1280325e-20)
(-0.050614053 -0.035673521 3.6579783e-19)
(-0.052633137 -0.038261334 8.1770954e-20)
(-0.054386489 -0.040489557 -1.0931821e-19)
(-0.055816628 -0.042281183 8.7357679e-22)
(-0.05688796 -0.043584379 -4.3077705e-20)
(-0.057362858 -0.04421114 1.3530781e-19)
(-0.056881728 -0.044007795 -5.6597823e-20)
(-0.055325536 -0.043010049 -1.065777e-19)
(-0.052936682 -0.041479438 1.512284e-18)
(-0.050028965 -0.039549551 1.7069149e-19)
(-0.046592386 -0.03721665 7.2364037e-20)
(-0.042731776 -0.034545017 2.3690651e-18)
(-0.038521388 -0.031566923 -1.0942668e-18)
(-0.033995794 -0.028279023 1.5206753e-19)
(-0.029184823 -0.024681503 -5.5151215e-19)
(-0.024188132 -0.020791314 1.6199188e-18)
(-0.018880279 -0.016357914 3.302363e-18)
(-0.013049428 -0.011305721 -1.9063562e-18)
(-0.0051252674 -0.0045117274 -2.7811224e-18)
(0.0055780314 0.0042826153 -5.0323328e-19)
(0.017285808 0.013118616 -4.3693735e-18)
(0.031485336 0.022500339 2.4820166e-18)
(0.049332767 0.032196828 3.7735122e-18)
(0.070772065 0.040540208 9.3976065e-19)
(0.094290752 0.044747131 -4.3995929e-19)
(0.11134769 0.039937047 2.4508525e-19)
(0.11265514 0.027858468 -8.6025357e-21)
(0.1001634 0.015429859 -1.8069286e-19)
(0.081843174 0.0067261894 5.270309e-20)
(0.060636388 0.0019267449 -1.649826e-20)
(0.048416066 0.00019612739 -1.0218639e-22)
(0.031790746 -0.00011575265 -4.7099381e-21)
(0.060206763 0.00024055814 -3.6589657e-21)
(0.052420639 -1.6504283e-05 1.4134977e-23)
(0.062249386 -0.0016726135 -1.6037435e-21)
(0.049277629 -0.0034990418 8.3387266e-21)
(0.031928982 -0.004336088 -1.3693174e-22)
(0.0067249734 -0.0011232699 1.7121545e-20)
(-0.01285406 0.0049095153 -4.5045752e-20)
(-0.018168693 0.0086956383 1.1844302e-19)
(-0.014910211 0.0085351411 -8.6502543e-20)
(-0.011973364 0.0078328393 -9.1362579e-20)
(-0.010182003 0.0073325331 -4.6519538e-19)
(-0.0089508256 0.0068956587 5.7164261e-19)
(-0.0078650989 0.0063498376 -2.3373092e-19)
(-0.0066908292 0.0055709774 9.6480592e-20)
(-0.0056459601 0.0047890054 -8.326213e-20)
(-0.0047989755 0.0040992196 -8.0406958e-19)
(-0.0042508066 0.0036163713 -7.5397992e-20)
(-0.0039278669 0.0032981614 1.4271859e-19)
(-0.0038387714 0.0031788295 -1.6226236e-20)
(-0.0038626572 0.0031552121 -7.0460307e-19)
(-0.0038973102 0.0031435648 3.576393e-19)
(-0.0040069123 0.0031949268 1.0337552e-19)
(-0.0040429451 0.003189137 -6.7288973e-19)
(-0.0040184312 0.0031394813 3.2001742e-19)
(-0.0038571188 0.0029867408 -5.2316768e-19)
(-0.0034754197 0.0026671914 -6.9695609e-19)
(-0.0028111824 0.0021335397 -1.7773539e-19)
(-0.0017552523 0.0012962551 2.6839012e-19)
(-0.00026666314 0.00013772782 2.4646608e-19)
(0.0015726216 -0.0012472021 6.1684858e-19)
(0.0036252625 -0.0027236487 8.1374109e-20)
(0.0059615069 -0.0043023056 2.7885209e-19)
(0.0084929628 -0.0058671912 6.2453404e-19)
(0.011131645 -0.0073058375 1.2623886e-18)
(0.01375378 -0.0084864202 4.190478e-19)
(0.016246686 -0.0093039059 1.8505465e-19)
(0.018467909 -0.0096897748 -3.4749659e-19)
(0.020175405 -0.009591972 -4.5674865e-19)
(0.021111405 -0.0089719346 -8.4724623e-20)
(0.021088844 -0.0078718158 -3.6262976e-19)
(0.020015512 -0.0064104642 2.3697934e-19)
(0.017846777 -0.0047455526 2.7496615e-19)
(0.014767412 -0.0031013246 2.6635806e-20)
(0.011050438 -0.0016841101 9.3304522e-20)
(0.0072488648 -0.00066625602 -9.2573452e-20)
(0.0035311187 -8.264978e-05 8.1145912e-20)
(0.0007205352 8.2083718e-05 -4.850909e-22)
(-0.0017926661 6.913972e-05 -3.8998511e-24)
(-0.0035654565 2.0742502e-05 4.0331032e-24)
(-0.0032657848 -1.6018625e-05 -3.9916941e-24)
(-0.0027887086 9.7052205e-06 -4.0410388e-24)
(-0.0038911685 5.4211444e-05 7.3826997e-24)
(-0.0058292881 1.5653661e-05 2.5860323e-23)
(-0.0046634811 -0.00015272634 -3.4218215e-23)
(0.0030844574 -0.00026571713 2.6186967e-23)
(0.010652973 -0.00023539173 -3.3966781e-23)
(0.016580816 -0.00018147267 7.9440378e-24)
(0.021147919 -0.00015284347 4.396926e-24)
(0.025422367 -0.00014883077 1.4493895e-23)
(0.029746704 -0.00015354254 -1.9387003e-23)
(0.034275614 -0.00015406229 1.7433166e-23)
(0.038648363 -0.00013634428 -1.653361e-24)
(0.042222317 -9.0383867e-05 5.1898229e-25)
(0.044075129 -1.1546929e-05 -8.1407732e-24)
(0.043282578 9.6792726e-05 -2.6709533e-24)
(0.039070229 0.00022047797 5.283935e-24)
(0.031222464 0.00033193185 1.152738e-24)
(0.02044765 0.00039546001 -4.5125123e-24)
(0.0085476027 0.0003842086 5.5507986e-24)
(-0.0021628118 0.00028269647 -1.0045926e-23)