/*--------------------------------*- C++ -*----------------------------------*\
| =========                 |                                                 |
| \\      /  F ield         | OpenFOAM: The Open Source CFD Toolbox           |
|  \\    /   O peration     | Version:  2.4.0                                 |
|   \\  /    A nd           | Web:      www.OpenFOAM.org                      |
|    \\/     M anipulation  |                                                 |
\*---------------------------------------------------------------------------*/
FoamFile
{
    version     2.0;
    format      ascii;
    class       surfaceScalarField;
    location    "130";
    object      phi;
}
// * * * * * * * * * * * * * * * * * * * * * * * * * * * * * * * * * * * * * //

dimensions      [0 3 -1 0 0 0 0];

internalField   nonuniform List<scalar> 
63640
(
6.4778582e-07
-5.322513e-08
6.6253161e-07
-1.4745746e-08
6.5083801e-07
1.1693691e-08
4.3655288e-07
2.1428524e-07
1.6461077e-07
2.7194221e-07
-9.9647052e-08
2.6425791e-07
-2.1800709e-07
1.1836015e-07
-2.1114109e-07
-6.8659546e-09
-1.6944033e-07
-4.1700677e-08
-1.4161559e-07
-2.7824711e-08
-1.246036e-07
-1.7011944e-08
-1.0949981e-07
-1.5103801e-08
-9.4620957e-08
-1.487884e-08
-7.9387243e-08
-1.523373e-08
-6.2753693e-08
-1.6633067e-08
-4.6657765e-08
-1.6096323e-08
-3.2444029e-08
-1.4213467e-08
-1.9875859e-08
-1.2568588e-08
-7.9239713e-09
-1.1951802e-08
3.446542e-09
-1.1370663e-08
1.4084972e-08
-1.0638375e-08
2.3854937e-08
-9.7699371e-09
3.2620018e-08
-8.7650546e-09
4.0434069e-08
-7.8140649e-09
4.7253384e-08
-6.8193202e-09
5.3618047e-08
-6.3647075e-09
6.0172246e-08
-6.5542318e-09
6.750614e-08
-7.3339586e-09
7.5528536e-08
-8.0224407e-09
8.3381095e-08
-7.8526268e-09
8.9916241e-08
-6.5352026e-09
9.4007818e-08
-4.0916521e-09
9.4717572e-08
-7.0971573e-10
9.1494249e-08
3.2231792e-09
8.4292368e-08
7.2019571e-09
7.3488936e-08
1.08033e-08
5.9650653e-08
1.3838387e-08
4.3469543e-08
1.6180928e-08
2.6003586e-08
1.7466036e-08
8.2521807e-09
1.7751207e-08
-8.9153857e-09
1.7167608e-08
-2.459316e-08
1.5677553e-08
-3.7913037e-08
1.3319929e-08
-4.8299595e-08
1.0386366e-08
-5.4925082e-08
6.6255071e-09
-5.7759195e-08
2.8339099e-09
-5.7827441e-08
6.8261551e-11
-5.4002931e-08
-3.8246949e-09
-4.6896789e-08
-7.1061487e-09
-3.6310402e-08
-1.0586593e-08
-1.990475e-08
-1.6405695e-08
3.0233412e-09
-2.2928264e-08
3.0437957e-08
-2.7414794e-08
5.9166536e-08
-2.8728637e-08
8.7974732e-08
-2.880838e-08
1.1591149e-07
-2.7936783e-08
1.4134627e-07
-2.5435065e-08
1.6364851e-07
-2.2302201e-08
1.821484e-07
-1.8500163e-08
1.9590357e-07
-1.3755011e-08
2.0381125e-07
-7.9077923e-09
2.0473387e-07
-9.2263658e-10
1.9804875e-07
6.6850565e-09
1.8353145e-07
1.4517204e-08
1.6155424e-07
2.1977012e-08
1.3422044e-07
2.7333786e-08
1.0545409e-07
2.8766096e-08
8.1873397e-08
2.3580766e-08
7.2327177e-08
9.5459909e-09
7.5689583e-08
-3.3622601e-09
8.2580305e-08
-6.8908259e-09
8.9326364e-08
-6.7460016e-09
9.5417602e-08
-6.0912094e-09
9.9890298e-08
-4.4728465e-09
1.0154687e-07
-1.6566849e-09
9.9057469e-08
2.4893126e-09
9.1220197e-08
7.837096e-09
7.7051364e-08
1.4168794e-08
5.5927713e-08
2.1123484e-08
2.7488664e-08
2.843905e-08
-8.4019377e-09
3.5890397e-08
-5.1703369e-08
4.3301459e-08
-1.0221441e-07
5.0510857e-08
-1.5957698e-07
5.7362603e-08
-2.2318491e-07
6.3607856e-08
-2.9219118e-07
6.9006276e-08
-3.6556814e-07
7.3376967e-08
-4.4200793e-07
7.643961e-08
-5.1999002e-07
7.7981892e-08
-5.9782769e-07
7.7837497e-08
-6.7359609e-07
7.5768161e-08
-7.452205e-07
7.1623972e-08
-8.1034804e-07
6.5127321e-08
-8.6633596e-07
5.5986909e-08
-9.10614e-07
4.4278338e-08
-9.4048467e-07
2.9869902e-08
-9.5275488e-07
1.2270794e-08
-9.4373178e-07
-9.0243278e-09
-9.0926774e-07
-3.4463379e-08
-8.448512e-07
-6.441754e-08
-7.4558567e-07
-9.9264325e-08
-6.0685606e-07
-1.3872987e-07
-4.2997964e-07
-1.7687621e-07
-2.267913e-07
-2.0318891e-07
-4.3097348e-10
-2.2635989e-07
2.4955028e-07
-2.4998188e-07
5.0872162e-07
-2.5917071e-07
7.5373648e-07
-2.4501563e-07
9.5350841e-07
-1.9977108e-07
1.0761685e-06
-1.2266037e-07
1.1027576e-06
-2.6588556e-08
1.0359053e-06
6.6852029e-08
9.0221239e-07
1.3369313e-07
7.4458781e-07
1.5762433e-07
6.030289e-07
1.4155929e-07
5.0087833e-07
1.021503e-07
4.4395184e-07
5.6926672e-08
4.3095918e-07
1.2992396e-08
4.6557314e-07
-3.461378e-08
5.5693854e-07
-9.1365689e-08
7.0186501e-07
-1.4492613e-07
8.7113629e-07
-1.6927158e-07
1.0174491e-06
-1.463127e-07
1.0901903e-06
-7.2741232e-08
1.0521211e-06
3.8069228e-08
8.9389672e-07
1.5822436e-07
6.4333331e-07
2.5056329e-07
3.6000056e-07
2.8333113e-07
1.0454394e-07
2.5545796e-07
-8.7967567e-08
1.9251033e-07
-2.1259164e-07
1.2462553e-07
-2.6111987e-07
4.8527492e-08
-1.8457961e-07
-7.6539526e-08
3.3503431e-08
-2.1808365e-07
2.9318311e-07
-2.5967861e-07
4.7565792e-07
-1.8247447e-07
5.625146e-07
-8.6856613e-08
6.0448065e-07
-4.1966397e-08
6.4493932e-07
-4.0458124e-08
6.9375524e-07
-4.8815889e-08
7.4173853e-07
-4.7982923e-08
7.709504e-07
-2.921184e-08
7.5279179e-07
1.8158851e-08
6.5206214e-07
1.0073048e-07
4.4733401e-07
2.0472759e-07
1.5521542e-07
2.9211915e-07
-1.8609818e-07
3.4131309e-07
-5.4917914e-07
3.6308075e-07
-9.1512064e-07
3.659418e-07
-1.2703931e-06
3.5527237e-07
-1.5921251e-06
3.2173227e-07
-1.8564704e-06
2.6434522e-07
-1.9113042e-06
5.4834043e-08
-1.6211189e-06
-2.9018468e-07
-1.3817746e-06
-2.3934467e-07
-1.259381e-06
-1.2239379e-07
-1.1708505e-06
-8.8530197e-08
-1.1182263e-06
-5.2624077e-08
-1.0877683e-06
-3.0458008e-08
-1.0714939e-06
-1.6274244e-08
-1.0674278e-06
-4.0660687e-09
-1.0718427e-06
4.4149026e-09
-1.0806852e-06
8.842582e-09
-1.092841e-06
1.2155897e-08
-1.1148219e-06
2.1981008e-08
-1.150663e-06
3.5841149e-08
-1.1906519e-06
3.9988972e-08
-1.2267329e-06
3.60811e-08
-1.2558856e-06
2.9152706e-08
-1.2761675e-06
2.0281995e-08
-1.2866955e-06
1.0528032e-08
-1.287124e-06
4.2857256e-10
-1.2756613e-06
-1.1462624e-08
-1.2464001e-06
-2.9261134e-08
-1.1956275e-06
-5.077261e-08
-1.1257726e-06
-6.9854874e-08
-1.0445897e-06
-8.1182856e-08
-9.5554538e-07
-8.9044264e-08
-8.6003813e-07
-9.5507221e-08
-7.5997407e-07
-1.0006403e-07
-6.5660071e-07
-1.0337332e-07
-5.5040573e-07
-1.0619491e-07
-4.4207574e-07
-1.0832989e-07
-3.3088562e-07
-1.1119004e-07
-2.1055778e-07
-1.2032769e-07
-5.3077593e-08
-1.5747971e-07
1.3841374e-07
-1.914914e-07
3.5054856e-07
-2.1213395e-07
6.030038e-07
-2.5245587e-07
9.1552469e-07
-3.1252081e-07
1.2971863e-06
-3.8166158e-07
1.7296857e-06
-4.3249928e-07
2.1099132e-06
-3.8022754e-07
2.2375714e-06
-1.2765813e-07
2.0515807e-06
1.859907e-07
1.6859201e-06
3.6566052e-07
1.2599592e-06
4.2596085e-07
9.2721886e-07
3.3274023e-07
6.4913538e-07
2.7808339e-07
5.4574611e-08
2.1120483e-06
-1.8937446e-07
2.131035e-06
-3.373239e-08
2.1046738e-06
3.8055031e-08
1.4341111e-06
8.8484813e-07
5.8256235e-07
1.1234911e-06
-2.697095e-07
1.1165299e-06
-6.7370551e-07
5.223563e-07
-6.6974295e-07
-1.0828451e-08
-5.4195804e-07
-1.6948546e-07
-4.535583e-07
-1.1622441e-07
-3.9875633e-07
-7.1813849e-08
-3.5053729e-07
-6.3322857e-08
-3.0292397e-07
-6.2492145e-08
-2.5443797e-07
-6.371975e-08
-2.0169053e-07
-6.937993e-08
-1.5055929e-07
-6.7228021e-08
-1.0540608e-07
-5.9366372e-08
-6.5441051e-08
-5.2534132e-08
-2.7648322e-08
-4.9744438e-08
8.3614352e-09
-4.7380604e-08
4.1946804e-08
-4.4223667e-08
7.2771095e-08
-4.059419e-08
1.0038014e-07
-3.6374066e-08
1.2488426e-07
-3.2318198e-08
1.4621952e-07
-2.8154593e-08
1.660105e-07
-2.6155749e-08
1.864389e-07
-2.6982673e-08
2.0941199e-07
-3.030714e-08
2.3475907e-07
-3.3369582e-08
2.5980114e-07
-3.2894798e-08
2.8094211e-07
-2.7676248e-08
2.9459238e-07
-1.7742035e-08
2.9775088e-07
-3.8681766e-09
2.8859162e-07
1.2382255e-08
2.668562e-07
2.8937462e-08
2.3360564e-07
4.4053701e-08
1.9052941e-07
5.6914727e-08
1.397581e-07
6.6952013e-08
8.4575856e-08
7.2648362e-08
2.816226e-08
7.4164559e-08
-2.6700749e-08
7.2030647e-08
-7.7106431e-08
6.608296e-08
-1.2018305e-07
5.639659e-08
-1.5408879e-07
4.4291868e-08
-1.7607684e-07
2.8613561e-08
-1.8603457e-07
1.2791387e-08
-1.8675259e-07
7.8627861e-10
-1.7498227e-07
-1.559525e-08
-1.5258163e-07
-2.9506814e-08
-1.1913616e-07
-4.4032325e-08
-6.7311927e-08
-6.823001e-08
5.1497874e-09
-9.5390202e-08
9.2118009e-08
-1.1438326e-07
1.834427e-07
-1.2005342e-07
2.7495821e-07
-1.2032413e-07
3.637665e-07
-1.1674511e-07
4.4476611e-07
-1.0643504e-07
5.1592401e-07
-9.3460061e-08
5.7517189e-07
-7.7748382e-08
6.1958197e-07
-5.8164914e-08
6.4571687e-07
-3.4042841e-08
6.5001296e-07
-5.2187354e-09
6.3040623e-07
2.629169e-08
5.8602733e-07
5.8895991e-08
5.1777216e-07
9.023191e-08
4.3193248e-07
1.1317344e-07
3.4037965e-07
1.2031858e-07
2.6378117e-07
1.0017933e-07
2.2962656e-07
4.3700313e-08
2.3467121e-07
-8.4067213e-09
2.5073859e-07
-2.2958339e-08
2.6673079e-07
-2.2738124e-08
2.8100901e-07
-2.0369454e-08
2.9045617e-07
-1.3920167e-08
2.9134731e-07
-2.5479762e-09
2.7945621e-07
1.4380281e-08
2.5095816e-07
3.6334914e-08
2.0269001e-07
6.2436862e-08
1.3262789e-07
9.1185404e-08
3.9638894e-08
1.2142802e-07
-7.6634187e-08
1.5216324e-07
-2.1596836e-07
1.8263559e-07
-3.7756349e-07
2.1210574e-07
-5.6010055e-07
2.3989965e-07
-7.6148715e-07
2.6499436e-07
-9.7886847e-07
2.8638755e-07
-1.2088133e-06
3.0332176e-07
-1.4470759e-06
3.1470201e-07
-1.6887405e-06
3.1964616e-07
-1.9284171e-06
3.175139e-07
-2.1600094e-06
3.0736008e-07
-2.3769819e-06
2.8859584e-07
-2.5719918e-06
2.6013694e-07
-2.7369098e-06
2.209037e-07
-2.8638056e-06
1.7117436e-07
-2.944382e-06
1.1044534e-07
-2.9688791e-06
3.676862e-08
-2.9260278e-06
-5.1877171e-08
-2.8032515e-06
-1.5723892e-07
-2.5870196e-06
-2.8065063e-07
-2.2628589e-06
-4.2342354e-07
-1.8175088e-06
-5.8408026e-07
-1.2570717e-06
-7.3731309e-07
-6.1366864e-07
-8.4659267e-07
1.006926e-07
-9.4072062e-07
8.8193677e-07
-1.0312268e-06
1.6873432e-06
-1.0645764e-06
2.4445268e-06
-1.0022002e-06
3.058916e-06
-8.1415925e-07
3.43422e-06
-4.9796478e-07
3.5138165e-06
-1.0618428e-07
3.3053087e-06
2.7535953e-07
2.8880955e-06
5.5090656e-07
2.3925851e-06
6.5313443e-07
1.9428269e-06
5.9131791e-07
1.6135522e-06
4.3142471e-07
1.4258254e-06
2.4465361e-07
1.3784131e-06
6.0404447e-08
1.4841179e-06
-1.4031843e-07
1.7688823e-06
-3.7613045e-07
2.2196063e-06
-5.956497e-07
2.7459392e-06
-6.9560476e-07
3.2043939e-06
-6.0476726e-07
3.4415318e-06
-3.0987919e-07
3.3426768e-06
1.3692422e-07
2.8736497e-06
6.2725141e-07
2.1115234e-06
1.0126895e-06
1.2332393e-06
1.1616133e-06
4.2681849e-07
1.0618803e-06
-1.9102681e-07
8.1035424e-07
-5.9237631e-07
5.2597681e-07
-7.4185878e-07
1.9800909e-07
-4.9362875e-07
-3.247687e-07
1.8440133e-07
-8.9611439e-07
9.7924639e-07
-1.0545224e-06
1.5375138e-06
-7.4074144e-07
1.8075943e-06
-3.5693701e-07
1.9408028e-06
-1.7517525e-07
2.0645747e-06
-1.6422932e-07
2.2069522e-06
-1.9119335e-07
2.3383688e-06
-1.7939907e-07
2.4007543e-06
-9.1597237e-08
2.3033564e-06
1.15557e-07
1.9385788e-06
4.6550922e-07
1.248473e-06
8.9483271e-07
2.9693049e-07
1.2436623e-06
-7.9137981e-07
1.4296228e-06
-1.9331211e-06
1.5048218e-06
-3.0703891e-06
1.5032103e-06
-4.1611666e-06
1.4460498e-06
-5.1305597e-06
1.2911256e-06
-5.9043665e-06
1.038152e-06
-6.0228217e-06
1.7328959e-07
-5.1768339e-06
-1.1361717e-06
-4.4391295e-06
-9.7704958e-07
-4.0587333e-06
-5.0279014e-07
-3.7837518e-06
-3.6351132e-07
-3.620303e-06
-2.1607275e-07
-3.5247248e-06
-1.2603617e-07
-3.4741899e-06
-6.6808961e-08
-3.4605923e-06
-1.7663636e-08
-3.4732531e-06
1.7075817e-08
-3.4993416e-06
3.4931193e-08
-3.5363991e-06
4.921344e-08
-3.603488e-06
8.9070023e-08
-3.7104365e-06
1.427898e-07
-3.8286232e-06
1.5817568e-07
-3.933671e-06
1.4112903e-07
-4.0163259e-06
1.1180775e-07
-4.0708783e-06
7.4834458e-08
-4.0947161e-06
3.4365938e-08
-4.0867599e-06
-7.5275173e-09
-4.0410195e-06
-5.7202989e-08
-3.9405183e-06
-1.297623e-07
-3.7743967e-06
-2.1689416e-07
-3.5506327e-06
-2.9361874e-07
-3.2917711e-06
-3.4004441e-07
-3.0088706e-06
-3.7194473e-07
-2.706169e-06
-3.9820883e-07
-2.3895431e-06
-4.1668986e-07
-2.0626582e-06
-4.3025821e-07
-1.7271477e-06
-4.4170522e-07
-1.38482e-06
-4.5065747e-07
-1.033289e-06
-4.6272089e-07
-6.5203018e-07
-5.0158637e-07
-1.5215558e-07
-6.573537e-07
4.5119152e-07
-7.9483855e-07
1.1149438e-06
-8.7588521e-07
1.9040027e-06
-1.0415154e-06
2.8771777e-06
-1.2856958e-06
4.060106e-06
-1.5645898e-06
5.3958148e-06
-1.768208e-06
6.5684491e-06
-1.5528618e-06
6.9948468e-06
-5.540558e-07
6.4738724e-06
7.0696515e-07
5.3874917e-06
1.4520411e-06
4.0807749e-06
1.7326776e-06
3.0492854e-06
1.3642296e-06
2.1481106e-06
1.179258e-06
2.2678614e-07
3.8553548e-06
-3.8786006e-07
3.8630415e-06
-4.1418979e-08
3.8134039e-06
8.7692746e-08
2.6375075e-06
2.0607447e-06
1.1304381e-06
2.6305606e-06
-4.0937328e-07
2.6563413e-06
-1.1737674e-06
1.2867506e-06
-1.1943172e-06
9.7214307e-09
-9.7389983e-07
-3.8990275e-07
-8.1627864e-07
-2.7384557e-07
-7.1746239e-07
-1.7063004e-07
-6.309276e-07
-1.4985766e-07
-5.4542879e-07
-1.4799094e-07
-4.5858593e-07
-1.5056263e-07
-3.6429374e-07
-1.6367159e-07
-2.7276319e-07
-1.5875898e-07
-1.9190592e-07
-1.4022337e-07
-1.2033992e-07
-1.241006e-07
-5.2897534e-08
-1.1718674e-07
1.1370543e-08
-1.1164884e-07
7.1210262e-08
-1.0406332e-07
1.2608354e-07
-9.5467435e-08
1.7517513e-07
-8.5465619e-08
2.1862012e-07
-7.5763206e-08
2.5635936e-07
-6.5893846e-08
2.9122013e-07
-6.1016566e-08
3.2722445e-07
-6.2987039e-08
3.6785233e-07
-7.0935098e-08
4.1293888e-07
-7.8456184e-08
4.577792e-07
-7.7735196e-08
4.9600315e-07
-6.5900269e-08
5.2119561e-07
-4.2934588e-08
5.2797062e-07
-1.0643151e-08
5.1298008e-07
2.7372636e-08
4.7563019e-07
6.6287429e-08
4.1765686e-07
1.0202689e-07
3.4194783e-07
1.3262386e-07
2.5220884e-07
1.566908e-07
1.541938e-07
1.7066348e-07
5.3560678e-08
1.7479746e-07
-4.4729108e-08
1.7032047e-07
-1.3545675e-07
1.5681035e-07
-2.1337716e-07
1.3431705e-07
-2.7516183e-07
1.0607632e-07
-3.1582339e-07
6.927513e-08
-3.3504033e-07
3.2008096e-08
-3.3722883e-07
2.9747858e-09
-3.1684588e-07
-3.5978403e-08
-2.7721951e-07
-6.9133209e-08
-2.1787881e-07
-1.0337326e-07
-1.2593676e-07
-1.6017211e-07
2.7206291e-09
-2.2404779e-07
1.576187e-07
-2.6928153e-07
3.205729e-07
-2.8300769e-07
4.8378147e-07
-2.8353292e-07
6.4221996e-07
-2.7518364e-07
7.8693142e-07
-2.5114683e-07
9.1425621e-07
-2.2078482e-07
1.0205831e-06
-1.840756e-07
1.1007954e-06
-1.3837701e-07
1.1488695e-06
-8.2117117e-08
1.1585255e-06
-1.4874682e-08
1.125974e-06
5.8843082e-08
1.04943e-06
1.3543982e-07
9.3009083e-07
2.0957089e-07
7.7854908e-07
2.6471516e-07
6.1513931e-07
2.8372808e-07
4.7602482e-07
2.3929388e-07
4.0927156e-07
1.1045332e-07
4.0973358e-07
-8.8685938e-09
4.2953073e-07
-4.2755606e-08
4.4979909e-07
-4.3006424e-08
4.6756737e-07
-3.8137701e-08
4.7723443e-07
-2.3587406e-08
4.7223941e-07
2.4469232e-09
4.4505729e-07
4.1562285e-08
3.8884201e-07
9.2549993e-08
2.9789109e-07
1.5338773e-07
1.6853631e-07
2.2054e-07
-1.2161661e-09
2.9118049e-07
-2.1189336e-07
3.628402e-07
-4.6294653e-07
4.336888e-07
-7.5271202e-07
5.0187101e-07
-1.0785654e-06
5.6575305e-07
-1.4365162e-06
6.229451e-07
-1.8212262e-06
6.7109761e-07
-2.2263427e-06
7.0843828e-07
-2.6441474e-06
7.325065e-07
-3.0657629e-06
7.4126137e-07
-3.4815377e-06
7.3328847e-07
-3.8806415e-06
7.0646361e-07
-4.2515175e-06
6.5947139e-07
-4.5812973e-06
5.8991643e-07
-4.8558982e-06
4.9550349e-07
-5.0615748e-06
3.7685126e-07
-5.1839751e-06
2.3284482e-07
-5.2062763e-06
5.907035e-08
-5.1091038e-06
-1.4905094e-07
-4.8710167e-06
-3.9532536e-07
-4.4691889e-06
-6.8247954e-07
-3.8793886e-06
-1.0132225e-06
-3.0802461e-06
-1.383223e-06
-2.083706e-06
-1.733853e-06
-9.4079462e-07
-1.9895046e-06
3.2363712e-07
-2.2051519e-06
1.6959787e-06
-2.403569e-06
3.1042926e-06
-2.4728896e-06
4.4232497e-06
-2.321158e-06
5.4905008e-06
-1.8814095e-06
6.1415699e-06
-1.1490342e-06
6.2799079e-06
-2.4452159e-07
5.9172379e-06
6.3802921e-07
5.1870979e-06
1.2810468e-06
4.3128475e-06
1.5273846e-06
3.5112096e-06
1.3929561e-06
2.9167236e-06
1.0259105e-06
2.5713559e-06
5.9002147e-07
2.4773966e-06
1.543635e-07
2.6589341e-06
-3.2185576e-07
3.157563e-06
-8.7475967e-07
3.9456555e-06
-1.3837418e-06
4.86578e-06
-1.6157297e-06
5.6723228e-06
-1.4113098e-06
6.1029402e-06
-7.4049664e-07
5.9592035e-06
2.8066088e-07
5.1745535e-06
1.4119014e-06
3.8691228e-06
2.31812e-06
2.3386135e-06
2.6921209e-06
9.1011393e-07
2.4903813e-06
-2.0067342e-07
1.9211404e-06
-9.2543411e-07
1.2507391e-06
-1.1875157e-06
4.600899e-07
-7.4129095e-07
-7.709927e-07
4.4261104e-07
-2.080017e-06
1.8146091e-06
-2.4265192e-06
2.7792386e-06
-1.7053705e-06
3.253031e-06
-8.307293e-07
3.4898908e-06
-4.1203542e-07
3.7024754e-06
-3.7681334e-07
3.9365264e-06
-4.2524434e-07
4.1386623e-06
-3.815345e-07
4.2037359e-06
-1.5667085e-07
3.9700254e-06
3.4926775e-07
3.2520163e-06
1.1835193e-06
1.9613775e-06
2.1854709e-06
2.2921237e-07
2.9758281e-06
-1.7169621e-06
3.3757967e-06
-3.7341219e-06
3.5219813e-06
-5.7229838e-06
3.4920725e-06
-7.608363e-06
3.3314289e-06
-9.2573162e-06
2.940079e-06
-1.0533435e-05
2.3142711e-06
-1.0677301e-05
3.1715533e-07
-9.2610345e-06
-2.5524374e-06
-7.9918857e-06
-2.2461988e-06
-7.325835e-06
-1.1688409e-06
-6.847047e-06
-8.42299e-07
-6.5615441e-06
-5.0157557e-07
-6.393869e-06
-2.9371121e-07
-6.3055416e-06
-1.5513621e-07
-6.2807841e-06
-4.2421082e-08
-6.3015129e-06
3.7804684e-08
-6.3455248e-06
7.8943176e-08
-6.409554e-06
1.1324273e-07
-6.5252676e-06
2.0478365e-07
-6.706891e-06
3.2441334e-07
-6.9058908e-06
3.5717555e-07
-7.0805634e-06
3.1580174e-07
-7.2148812e-06
2.4612565e-07
-7.2991878e-06
1.5914108e-07
-7.3290211e-06
6.4199367e-08
-7.3022972e-06
-3.4251364e-08
-7.2081254e-06
-1.5137472e-07
-7.0182652e-06
-3.1962249e-07
-6.7148165e-06
-5.2034275e-07
-6.3122355e-06
-6.9619977e-07
-5.8484713e-06
-8.0380854e-07
-5.3429639e-06
-8.7745212e-07
-4.8030698e-06
-9.3810287e-07
-4.2389416e-06
-9.8081806e-07
-3.6567962e-06
-1.0124035e-06
-3.0595254e-06
-1.0389759e-06
-2.4498855e-06
-1.0602973e-06
-1.8233239e-06
-1.0892823e-06
-1.1420672e-06
-1.1828429e-06
-2.478644e-07
-1.5515559e-06
8.2519417e-07
-1.8678972e-06
1.999121e-06
-2.0498111e-06
3.3920948e-06
-2.4344898e-06
5.1031083e-06
-2.9967092e-06
7.1724328e-06
-3.6339142e-06
9.4973229e-06
-4.093098e-06
1.1535285e-05
-3.590824e-06
1.2315842e-05
-1.3346124e-06
1.1483831e-05
1.538976e-06
9.6556314e-06
3.2802406e-06
7.4034192e-06
3.9848896e-06
5.5947279e-06
3.1729208e-06
3.9828012e-06
2.7911847e-06
5.5271798e-07
5.9168762e-06
-6.2222438e-07
5.9017892e-06
-2.6331924e-08
5.8071385e-06
1.8234359e-07
4.0830897e-06
3.7847937e-06
1.836827e-06
4.8768234e-06
-5.0057695e-07
4.9937454e-06
-1.7146059e-06
2.5007797e-06
-1.7890482e-06
8.4163836e-08
-1.4711101e-06
-7.0784078e-07
-1.2351945e-06
-5.0976113e-07
-1.0854781e-06
-3.2034632e-07
-9.5479296e-07
-2.8054282e-07
-8.2576898e-07
-2.7701491e-07
-6.949746e-07
-2.8135702e-07
-5.5323443e-07
-3.0541123e-07
-4.1550667e-07
-2.9648714e-07
-2.9378584e-07
-2.6194395e-07
-1.8609689e-07
-2.3179003e-07
-8.4888099e-08
-2.1839545e-07
1.1505962e-08
-2.0804308e-07
1.0116183e-07
-1.9371909e-07
1.8328962e-07
-1.7759518e-07
2.5668612e-07
-1.5886208e-07
3.2147792e-07
-1.4055503e-07
3.7760934e-07
-1.2202527e-07
4.292658e-07
-1.126731e-07
4.8261626e-07
-1.1633755e-07
5.4303164e-07
-1.3135058e-07
6.1045806e-07
-1.4588268e-07
6.7796568e-07
-1.4524293e-07
7.3606777e-07
-1.2400245e-07
7.7513466e-07
-8.2001594e-08
7.8703271e-07
-2.2541186e-08
7.6661316e-07
4.7792013e-08
7.1278673e-07
1.2011392e-07
6.2792795e-07
1.8688552e-07
5.1617895e-07
2.4437295e-07
3.8294748e-07
2.8992206e-07
2.3670924e-07
3.1690178e-07
8.5916781e-08
3.2558968e-07
-6.2013009e-08
3.1825026e-07
-1.991998e-07
2.9399687e-07
-3.1762068e-07
2.5273795e-07
-4.1218952e-07
2.0064493e-07
-4.7536762e-07
1.324532e-07
-5.0639898e-07
6.3039198e-08
-5.1119253e-07
7.7683111e-09
-4.8162076e-07
-6.5550409e-08
-4.2280421e-07
-1.2794982e-07
-3.3437462e-07
-1.9180311e-07
-1.9735045e-07
-2.9719638e-07
-5.4075644e-09
-4.1599091e-07
2.2640948e-07
-5.0109882e-07
4.7074992e-07
-5.2734824e-07
7.1534774e-07
-5.2813098e-07
9.5285094e-07
-5.126869e-07
1.1700709e-06
-4.6836718e-07
1.3614849e-06
-4.121988e-07
1.5217839e-06
-3.443749e-07
1.64346e-06
-2.6005299e-07
1.7176515e-06
-1.5630873e-07
1.7350571e-06
-3.2280381e-08
1.6898549e-06
1.0404517e-07
1.5790218e-06
2.462728e-07
1.4037802e-06
3.8481221e-07
1.1790278e-06
4.8946754e-07
9.3402774e-07
5.2872783e-07
7.2178383e-07
4.5153784e-07
6.1285734e-07
2.1937955e-07
6.0061638e-07
3.3725146e-09
6.1681469e-07
-5.8954036e-08
6.3465889e-07
-6.0850555e-08
6.4961561e-07
-5.3094467e-08
6.5326302e-07
-2.7234966e-08
6.3585594e-07
1.9853835e-08
5.8614215e-07
9.1275924e-08
4.9380622e-07
1.8488568e-07
3.5020486e-07
2.9698898e-07
1.4976111e-07
4.2098355e-07
-1.1044945e-07
5.51391e-07
-4.31062e-07
6.8345251e-07
-8.1102603e-07
8.1365275e-07
-1.2474826e-06
9.3832729e-07
-1.7360916e-06
1.054362e-06
-2.2704758e-06
1.1573292e-06
-2.8422656e-06
1.2428873e-06
-3.4416064e-06
1.307779e-06
-4.0567084e-06
1.3476082e-06
-4.6741242e-06
1.3586769e-06
-5.2793472e-06
1.3385111e-06
-5.8562339e-06
1.2833499e-06
-6.3876426e-06
1.1908795e-06
-6.8546699e-06
1.0569434e-06
-7.2368582e-06
8.7769057e-07
-7.5142579e-06
6.5425111e-07
-7.6660837e-06
3.8466972e-07
-7.6679932e-06
6.0980471e-08
-7.4920953e-06
-3.2495031e-07
-7.1078809e-06
-7.7953917e-07
-6.4831797e-06
-1.3071818e-06
-5.5840306e-06
-1.9123702e-06
-4.3817545e-06
-2.5854994e-06
-2.8940764e-06
-3.2215309e-06
-1.1899638e-06
-3.6936178e-06
6.8742253e-07
-4.0825378e-06
2.7103153e-06
-4.4264625e-06
4.7775712e-06
-4.5401449e-06
6.7080012e-06
-4.2515888e-06
8.2678958e-06
-3.4413032e-06
9.2212123e-06
-2.1023509e-06
9.4285176e-06
-4.5182624e-07
8.9036315e-06
1.162915e-06
7.8340866e-06
2.3505919e-06
6.5403321e-06
2.8211389e-06
5.3403944e-06
2.5928943e-06
4.4383468e-06
1.9279578e-06
3.9044432e-06
1.1239253e-06
3.7491681e-06
3.0963833e-07
4.0100466e-06
-5.8273408e-07
4.7423032e-06
-1.6070166e-06
5.8983054e-06
-2.5397437e-06
7.2477536e-06
-2.9651782e-06
8.4381017e-06
-2.6016577e-06
9.0933483e-06
-1.3957433e-06
8.9257255e-06
4.4828365e-07
7.8283484e-06
2.5092784e-06
5.9554886e-06
4.1909796e-06
3.7193044e-06
4.9283032e-06
1.5958998e-06
4.6137872e-06
-8.1080237e-08
3.5981192e-06
-1.181721e-06
2.3513815e-06
-1.5707669e-06
8.4913499e-07
-9.0114659e-07
-1.4406122e-06
8.3139156e-07
-3.8125556e-06
2.8183169e-06
-4.4134434e-06
4.2184477e-06
-3.1055008e-06
4.917277e-06
-1.5295584e-06
5.2703817e-06
-7.6514045e-07
5.575525e-06
-6.8195607e-07
5.895422e-06
-7.4514111e-07
6.148996e-06
-6.3510807e-07
6.1762612e-06
-1.8393591e-07
5.7349365e-06
7.9059273e-07
4.556404e-06
2.3620528e-06
2.5305905e-06
4.2112839e-06
-1.1767962e-07
5.6240988e-06
-3.040012e-06
6.2981286e-06
-6.0320414e-06
6.5140105e-06
-8.9507538e-06
6.4107852e-06
-1.168206e-05
6.0627348e-06
-1.4031276e-05
5.2892957e-06
-1.5785288e-05
4.0682828e-06
-1.591665e-05
4.4851843e-07
-1.3914661e-05
-4.5544263e-06
-1.2093868e-05
-4.0669925e-06
-1.1114975e-05
-2.1477334e-06
-1.0417048e-05
-1.5402253e-06
-9.9986898e-06
-9.1993418e-07
-9.7524977e-06
-5.3990319e-07
-9.6227943e-06
-2.8483951e-07
-9.5851435e-06
-8.0071803e-08
-9.6132031e-06
6.5864431e-08
-9.6752952e-06
1.4103535e-07
-9.7676058e-06
2.0555351e-07
-9.934012e-06
3.7118989e-07
-1.0191658e-05
5.8205979e-07
-1.0471143e-05
6.3666076e-07
-1.071278e-05
5.5743878e-07
-1.0893353e-05
4.2669835e-07
-1.0999176e-05
2.6496441e-07
-1.1023851e-05
8.8874113e-08
-1.0963906e-05
-9.4196102e-08
-1.0803199e-05
-3.1208183e-07
-1.0502158e-05
-6.2066306e-07
-1.0036324e-05
-9.8617644e-07
-9.4272723e-06
-1.3052518e-06
-8.7290684e-06
-1.5020123e-06
-7.9699872e-06
-1.6365333e-06
-7.1608456e-06
-1.7472445e-06
-6.3163062e-06
-1.8253573e-06
-5.4452641e-06
-1.8834456e-06
-4.5518808e-06
-1.9323591e-06
-3.6397186e-06
-1.9724593e-06
-2.7014319e-06
-2.0275689e-06
-1.6785192e-06
-2.2057554e-06
-3.3488161e-07
-2.8951929e-06
1.2678182e-06
-3.470597e-06
3.0111588e-06
-3.7931507e-06
5.0754012e-06
-4.4987329e-06
7.6002549e-06
-5.5215627e-06
1.0638778e-05
-6.6724377e-06
1.4035562e-05
-7.4898817e-06
1.7015254e-05
-6.5705161e-06
1.8215808e-05
-2.5351661e-06
1.7114998e-05
2.6397862e-06
1.4539772e-05
5.8554666e-06
1.129199e-05
7.2326713e-06
8.6224882e-06
5.8424222e-06
6.2197697e-06
5.1939031e-06
1.0899756e-06
8.3432686e-06
-8.5593366e-07
8.2900453e-06
2.6891468e-08
8.122629e-06
3.4975996e-07
5.8099074e-06
6.0975154e-06
2.7367255e-06
7.9500055e-06
-5.2039113e-07
8.2508621e-06
-2.2909834e-06
4.2713721e-06
-2.458785e-06
2.519655e-07
-2.04041e-06
-1.1262156e-06
-1.7166681e-06
-8.3350302e-07
-1.5084405e-06
-5.2857392e-07
-1.3271528e-06
-4.6183046e-07
-1.1483936e-06
-4.5577415e-07
-9.6750101e-07
-4.6224961e-07
-7.7185911e-07
-5.0105271e-07
-5.8157965e-07
-4.867669e-07
-4.1332101e-07
-4.3020239e-07
-2.6453841e-07
-3.8057301e-07
-1.2505349e-07
-3.5788031e-07
7.6950024e-09
-3.407917e-07
1.3106515e-07
-3.1708917e-07
2.4395643e-07
-2.9048643e-07
3.4474685e-07
-2.5965246e-07
4.3351576e-07
-2.2932396e-07
5.1020388e-07
-1.9871339e-07
5.8051594e-07
-1.8298523e-07
6.5310188e-07
-1.8892352e-07
7.3558709e-07
-2.1383587e-07
8.2816808e-07
-2.3846372e-07
9.2150211e-07
-2.3857704e-07
1.0026129e-06
-2.0511331e-07
1.0582432e-06
-1.37632e-07
1.0771148e-06
-4.1412762e-08
1.051963e-06
7.2943666e-08
9.8100751e-07
1.9106947e-07
8.6720109e-07
3.0069182e-07
7.1597826e-07
3.9559586e-07
5.3456756e-07
4.7133259e-07
3.3441969e-07
5.1704969e-07
1.2711638e-07
5.3289281e-07
-7.7186503e-08
5.2255314e-07
-2.6757036e-07
4.8438051e-07
-4.3277537e-07
4.1794298e-07
-5.6565227e-07
3.3352164e-07
-6.5577674e-07
2.2257766e-07
-7.0167615e-07
1.0893841e-07
-7.1054479e-07
1.6636929e-08
-6.7136705e-07
-1.0472833e-07
-5.9140199e-07
-2.0791492e-07
-4.7056375e-07
-3.1264156e-07
-2.8324709e-07
-4.8451311e-07
-2.0548054e-08
-6.7869012e-07
2.9775201e-07
-8.1939907e-07
6.3393136e-07
-8.6352768e-07
9.7028861e-07
-8.6448841e-07
1.2969379e-06
-8.3933625e-07
1.5960942e-06
-7.6752379e-07
1.8601219e-06
-6.7622649e-07
2.081853e-06
-5.6610623e-07
2.2511868e-06
-4.2938669e-07
2.3561681e-06
-2.6129017e-07
2.3841575e-06
-6.0269809e-08
2.3269604e-06
1.612422e-07
2.1799453e-06
3.9328779e-07
1.9440154e-06
6.2074192e-07
1.6382738e-06
7.9520914e-07
1.3012757e-06
8.657257e-07
1.0041291e-06
7.4868441e-07
8.4173613e-07
3.8177235e-07
8.065384e-07
3.8570332e-08
8.0963379e-07
-6.2049509e-08
8.1634526e-07
-6.7562002e-08
8.2034577e-07
-5.7094939e-08
8.1003276e-07
-1.692213e-08
7.7210074e-07
5.7785742e-08
6.9110301e-07
1.7227354e-07
5.5275802e-07
3.2323049e-07
3.4503743e-07
5.0470951e-07
6.0189084e-08
7.0583174e-07
-3.0570259e-07
9.1728265e-07
-7.5330916e-07
1.1310589e-06
-1.2808529e-06
1.3411965e-06
-1.8838759e-06
1.5413502e-06
-2.5558354e-06
1.7263215e-06
-3.2874001e-06
1.8888938e-06
-4.0665454e-06
2.0220328e-06
-4.8792667e-06
2.1205003e-06
-5.7090518e-06
2.1773932e-06
-6.5372361e-06
2.1868609e-06
-7.3438424e-06
2.1451172e-06
-8.1068347e-06
2.0463419e-06
-8.8029446e-06
1.886989e-06
-9.4067759e-06
1.6607743e-06
-9.8911425e-06
1.3620563e-06
-1.0229583e-05
9.9269187e-07
-1.039462e-05
5.4970552e-07
-1.0353966e-05
2.0327271e-08
-1.0070982e-05
-6.0793565e-07
-9.5062136e-06
-1.3443069e-06
-8.6183145e-06
-2.1950816e-06
-7.3639001e-06
-3.1667836e-06
-5.7077744e-06
-4.2416253e-06
-3.6726207e-06
-5.2566845e-06
-1.3441927e-06
-6.0220462e-06
1.208585e-06
-6.6353152e-06
3.939436e-06
-7.1573141e-06
6.7200913e-06
-7.3207996e-06
9.3114088e-06
-6.8429069e-06
1.1405786e-05
-5.5356794e-06
1.269254e-05
-3.3891056e-06
1.2985431e-05
-7.4471615e-07
1.2296807e-05
1.851538e-06
1.0866214e-05
3.7811853e-06
9.1135909e-06
4.573762e-06
7.4666978e-06
4.2397878e-06
6.2103216e-06
3.1843337e-06
5.4525012e-06
1.8817458e-06
5.2180765e-06
5.4406278e-07
5.5602688e-06
-9.2492621e-07
6.5447402e-06
-2.5914883e-06
8.0973546e-06
-4.0923577e-06
9.9095789e-06
-4.7774028e-06
1.1518613e-05
-4.210692e-06
1.2431599e-05
-2.3087287e-06
1.226643e-05
6.1345264e-07
1.0867372e-05
3.9083359e-06
8.4116327e-06
6.646719e-06
5.4218029e-06
7.9181317e-06
2.530413e-06
7.5051782e-06
2.0928865e-07
5.9192427e-06
-1.3255126e-06
3.886184e-06
-1.8588429e-06
1.3824647e-06
-9.4130534e-07
-2.3581493e-06
1.3779727e-06
-6.1318341e-06
4.0111495e-06
-7.0466192e-06
5.8730754e-06
-4.9674263e-06
6.8182965e-06
-2.4747794e-06
7.300122e-06
-1.2469662e-06
7.6994359e-06
-1.0812696e-06
8.094641e-06
-1.1403461e-06
8.3726412e-06
-9.1310795e-07
8.3098977e-06
-1.211923e-07
7.5731192e-06
1.5273714e-06
5.8056464e-06
4.1295263e-06
2.8876893e-06
7.1292406e-06
-8.2591778e-07
9.3377063e-06
-4.8475338e-06
1.0319744e-05
-8.9144519e-06
1.0580928e-05
-1.2836061e-05
1.0332395e-05
-1.6454016e-05
9.6806892e-06
-1.9509364e-05
8.3446445e-06
-2.1701415e-05
6.2603333e-06
-2.1777563e-05
5.2466698e-07
-1.9184587e-05
-7.1474015e-06
-1.6801477e-05
-6.4501029e-06
-1.5485446e-05
-3.4637647e-06
-1.4555309e-05
-2.4703618e-06
-1.3994375e-05
-1.4808685e-06
-1.3663827e-05
-8.7045153e-07
-1.3489333e-05
-4.5933334e-07
-1.3436827e-05
-1.3257739e-07
-1.3470854e-05
9.9891366e-08
-1.355041e-05
2.2059116e-07
-1.3671384e-05
3.2652768e-07
-1.3888907e-05
5.887133e-07
-1.4221431e-05
9.1458353e-07
-1.457798e-05
9.9321023e-07
-1.4880589e-05
8.6004784e-07
-1.5098497e-05
6.4460604e-07
-1.5213934e-05
3.8040183e-07
-1.5218508e-05
9.3448488e-08
-1.5106903e-05
-2.0580158e-07
-1.4857521e-05
-5.6146335e-07
-1.4419699e-05
-1.0584852e-06
-1.3763124e-05
-1.6427517e-06
-1.2917143e-05
-2.1512327e-06
-1.1952354e-05
-2.4668008e-06
-1.0906259e-05
-2.6826288e-06
-9.7934642e-06
-2.860039e-06
-8.6333055e-06
-2.985516e-06
-7.4374312e-06
-3.0793198e-06
-6.211247e-06
-3.1585433e-06
-4.9588847e-06
-3.2248215e-06
-3.669459e-06
-3.3169945e-06
-2.2595895e-06
-3.6156248e-06
-4.0689109e-07
-4.7478908e-06
1.7885474e-06
-5.6660354e-06
4.1622779e-06
-6.1668805e-06
6.9663517e-06
-7.3028072e-06
1.0380449e-05
-8.9356602e-06
1.4467838e-05
-1.0759826e-05
1.9013977e-05
-1.203602e-05
2.3009619e-05
-1.0566158e-05
2.4704025e-05
-4.2295725e-06
2.3395015e-05
3.9487962e-06
2.0087881e-05
9.1626007e-06
1.5810838e-05
1.1509714e-05
1.2199971e-05
9.4532888e-06
8.9270403e-06
8.4668337e-06
1.9074566e-06
1.1189136e-05
-1.0413119e-06
1.1077227e-05
1.3880002e-07
1.0802295e-05
6.2469234e-07
7.8619595e-06
9.0378512e-06
3.8710568e-06
1.1940908e-05
-4.3994496e-07
1.2561864e-05
-2.8943524e-06
6.7257797e-06
-3.2078239e-06
5.6543715e-07
-2.6889102e-06
-1.6451291e-06
-2.2674922e-06
-1.2549211e-06
-1.9923862e-06
-8.0367977e-07
-1.7533889e-06
-7.0082783e-07
-1.5180903e-06
-6.9107269e-07
-1.2803839e-06
-6.9995605e-07