/*--------------------------------*- C++ -*----------------------------------*\
| =========                 |                                                 |
| \\      /  F ield         | OpenFOAM: The Open Source CFD Toolbox           |
|  \\    /   O peration     | Version:  2.4.0                                 |
|   \\  /    A nd           | Web:      www.OpenFOAM.org                      |
|    \\/     M anipulation  |                                                 |
\*---------------------------------------------------------------------------*/
FoamFile
{
    version     2.0;
    format      ascii;
    class       volSymmTensorField;
    location    "210";
    object      R;
}
// * * * * * * * * * * * * * * * * * * * * * * * * * * * * * * * * * * * * * //

dimensions      [0 2 -2 0 0 0 0];

internalField   nonuniform List<symmTensor> 
32000
(
(0.027284755 -1.1076623e-05 -3.7501112e-25 0.027284542 -8.9454505e-25 0.027284647)
(0.0088225824 -2.8024026e-06 -1.7425536e-21 0.008822581 -1.4020449e-25 0.0088225813)
(0.022699964 -1.2668308e-05 -7.8801221e-21 0.022701347 2.090764e-22 0.022700656)
(0.0082943974 -1.0115729e-06 -3.1626679e-22 0.0082947074 2.2698676e-23 0.0082945527)
(0.0062027587 -2.5403646e-07 -8.1052999e-23 0.0062029114 1.1247855e-23 0.0062028351)
(0.00036209587 -7.06747e-09 -2.2267844e-24 0.00036210231 8.7759084e-25 0.00036209908)
(0.00084044095 2.2360643e-08 8.1155026e-24 0.00084040344 -2.6365973e-24 0.00084042213)
(7.8230464e-05 1.0154309e-08 -3.4358303e-26 7.8205343e-05 -7.2726319e-26 7.8217873e-05)
(0.00023035422 6.4771245e-09 3.005084e-24 0.00023033186 -1.6218227e-24 0.00023034302)
(0.00012757667 2.8617912e-09 1.5193504e-24 0.00012756339 -1.0424614e-24 0.00012757002)
(0.00012797411 1.6517425e-09 2.4414309e-27 0.0001279641 3.8672099e-26 0.0001279691)
(0.00010358055 9.9556043e-10 1.5412387e-26 0.0001035729 1.162172e-26 0.00010357672)
(9.2633644e-05 6.5288533e-10 4.593175e-26 9.2627469e-05 5.3772772e-26 9.2630553e-05)
(8.1832612e-05 4.3484734e-10 -2.0851368e-26 8.1827766e-05 -1.6856598e-26 8.1830187e-05)
(7.4009491e-05 3.0681334e-10 -9.7143869e-27 7.4005673e-05 -1.412177e-26 7.400758e-05)
(6.7686265e-05 2.3454608e-10 1.1189777e-26 6.7683231e-05 1.893741e-26 6.7684747e-05)
(6.2860078e-05 1.9425325e-10 4.6796542e-25 6.2857658e-05 -3.4276519e-25 6.2858867e-05)
(5.9404462e-05 1.6949358e-10 3.6382316e-25 5.9402536e-05 -2.9090019e-25 5.9403498e-05)
(5.681434e-05 1.4788976e-10 1.5957413e-25 5.6812801e-05 -9.9922517e-26 5.681357e-05)
(5.4659017e-05 1.2540487e-10 1.2690025e-25 5.4657805e-05 -7.8892287e-26 5.4658411e-05)
(5.2734584e-05 1.00505e-10 1.812768e-26 5.2733675e-05 2.2892143e-26 5.2734129e-05)
(5.0970042e-05 7.6597048e-11 -1.1958041e-26 5.0969387e-05 -1.288083e-26 5.0969715e-05)
(4.9283241e-05 4.8918318e-11 1.3580058e-27 4.9282844e-05 3.4784882e-27 4.9283043e-05)
(4.7636968e-05 1.9661368e-11 5.8008118e-27 4.7636821e-05 7.1874889e-27 4.7636895e-05)
(4.5968894e-05 -1.1364332e-11 7.8302512e-27 4.5968994e-05 1.0167202e-26 4.5968944e-05)
(4.4252879e-05 -4.2599288e-11 -5.0880445e-27 4.4253217e-05 -7.8900196e-27 4.4253049e-05)
(4.238383e-05 -6.9669946e-11 -1.2853637e-26 4.2384367e-05 -1.5502297e-26 4.2384099e-05)
(4.0377313e-05 -9.4073641e-11 -1.3419266e-26 4.0378018e-05 -1.7142177e-26 4.0377666e-05)
(3.837272e-05 -1.1512953e-10 2.8813836e-27 3.8373545e-05 5.1442481e-27 3.8373133e-05)
(3.6453379e-05 -1.3286485e-10 -1.7319929e-27 3.6454271e-05 -5.4364309e-27 3.6453825e-05)
(3.4640241e-05 -1.4548405e-10 -1.3325472e-27 3.4641141e-05 -6.3144409e-27 3.4640691e-05)
(3.2940304e-05 -1.5088461e-10 3.91866e-27 3.2941151e-05 6.699023e-27 3.2940727e-05)
(3.1360972e-05 -1.4678827e-10 3.6927839e-27 3.1361708e-05 5.9401963e-27 3.136134e-05)
(2.9908031e-05 -1.327837e-10 -4.439361e-28 2.990862e-05 1.4254438e-28 2.9908325e-05)
(2.8603607e-05 -1.1087032e-10 -7.4674813e-26 2.8604035e-05 3.0955737e-26 2.8603821e-05)
(2.7506401e-05 -8.7149347e-11 -5.3848627e-26 2.750669e-05 1.9073499e-26 2.7506545e-05)
(2.6667561e-05 -6.762667e-11 -2.9280762e-26 2.6667753e-05 2.2672382e-26 2.6667657e-05)
(2.6028431e-05 -5.3900782e-11 -2.4336514e-26 2.6028561e-05 1.0998589e-26 2.6028496e-05)
(2.5527542e-05 -4.7345556e-11 3.1493183e-27 2.552764e-05 7.6800137e-27 2.5527591e-05)
(2.5159432e-05 -5.0143616e-11 -1.5563926e-27 2.5159519e-05 -4.1069974e-27 2.5159475e-05)
(2.4944543e-05 -6.2233972e-11 4.2377918e-28 2.4944633e-05 1.3390254e-27 2.4944588e-05)
(2.4912449e-05 -8.1935867e-11 4.2320143e-28 2.4912546e-05 1.5181013e-27 2.4912497e-05)
(2.511115e-05 -1.1099169e-10 -5.5291237e-29 2.5111253e-05 -1.5526826e-27 2.5111201e-05)
(2.559803e-05 -1.5042872e-10 -2.8023124e-28 2.5598133e-05 -3.3033072e-28 2.5598081e-05)
(2.6508991e-05 -2.0010335e-10 -2.791284e-30 2.6509081e-05 -2.1359204e-27 2.6509036e-05)
(2.8018048e-05 -2.6035129e-10 -1.8559418e-25 2.8018107e-05 1.0564506e-26 2.8018077e-05)
(3.1255547e-05 -3.4630539e-10 -2.4632103e-25 3.1255559e-05 2.2791939e-27 3.1255553e-05)
(3.5049009e-05 -4.499907e-10 -1.3565367e-30 3.5049012e-05 -3.1844333e-31 3.5049011e-05)
(3.7558278e-05 -5.3757656e-10 1.8498856e-32 3.755828e-05 2.0019046e-30 3.7558279e-05)
(3.9675033e-05 -6.0873028e-10 -6.8745777e-32 3.9675034e-05 -2.3977594e-30 3.9675033e-05)
(4.1483973e-05 -6.5479112e-10 6.3206051e-32 4.1483974e-05 1.015887e-30 4.1483973e-05)
(4.3094828e-05 -6.7004228e-10 -1.0121576e-31 4.3094828e-05 1.3026188e-30 4.3094828e-05)
(4.4539116e-05 -6.5006236e-10 9.9906817e-32 4.4539115e-05 -2.3391779e-30 4.4539115e-05)
(4.5849246e-05 -5.9460264e-10 1.5712351e-33 4.5849243e-05 8.4409292e-31 4.5849244e-05)
(4.7044295e-05 -5.0539255e-10 8.0272373e-34 4.7044291e-05 8.8467824e-32 4.7044293e-05)
(4.8140063e-05 -3.9224725e-10 -2.8780708e-33 4.8140058e-05 7.0683532e-31 4.8140061e-05)
(4.9148575e-05 -2.6958981e-10 -1.914898e-25 4.914857e-05 -8.7049119e-28 4.9148573e-05)
(5.0079693e-05 -1.3321511e-10 -9.4692982e-26 5.0079688e-05 -9.6226481e-28 5.0079691e-05)
(5.0941447e-05 1.711342e-11 -6.0892221e-27 5.0941441e-05 5.1603306e-28 5.0941444e-05)
(5.1740674e-05 1.748674e-10 -6.2140816e-26 5.1740668e-05 5.4137732e-28 5.1740671e-05)
(5.2483274e-05 3.3766713e-10 -2.3990961e-25 5.2483268e-05 1.1126122e-27 5.2483271e-05)
(5.3174283e-05 5.028345e-10 -3.5749019e-25 5.3174277e-05 1.1213753e-27 5.317428e-05)
(5.3818101e-05 6.6675138e-10 1.0371024e-32 5.3818095e-05 3.8215628e-31 5.3818098e-05)
(5.4418627e-05 8.2547466e-10 2.2331065e-33 5.4418621e-05 -7.2419553e-31 5.4418624e-05)
(5.4979291e-05 9.7519603e-10 -9.1784285e-33 5.4979285e-05 1.1505213e-30 5.4979288e-05)
(5.5503135e-05 1.1124327e-09 6.6142173e-32 5.550313e-05 -1.2088599e-30 5.5503133e-05)
(5.5992929e-05 1.2341341e-09 -1.1615377e-32 5.5992925e-05 -2.5368258e-31 5.5992927e-05)
(5.645113e-05 1.3376411e-09 4.7497169e-25 5.6451127e-05 -3.6195769e-28 5.6451129e-05)
(5.6879933e-05 1.4212427e-09 1.0100413e-24 5.687993e-05 -5.9623064e-28 5.6879932e-05)
(5.7281353e-05 1.4843853e-09 5.2782948e-25 5.7281351e-05 -2.3713641e-28 5.7281352e-05)
(5.7657211e-05 1.5275087e-09 -9.1668536e-33 5.765721e-05 -2.2502421e-30 5.7657211e-05)
(5.8009208e-05 1.5518937e-09 3.8208858e-32 5.8009207e-05 2.2960979e-30 5.8009207e-05)
(5.8338813e-05 1.559398e-09 3.430687e-33 5.8338812e-05 -2.2531656e-30 5.8338813e-05)
(5.8647455e-05 1.5520696e-09 3.605774e-32 5.8647455e-05 1.4871713e-30 5.8647455e-05)
(5.8936386e-05 1.5317214e-09 -6.1128748e-32 5.8936386e-05 -1.2831877e-30 5.8936386e-05)
(5.9206757e-05 1.4994958e-09 -4.9447942e-32 5.9206758e-05 -1.1084323e-31 5.9206757e-05)
(5.9459798e-05 1.4552874e-09 -5.1677616e-25 5.94598e-05 -9.3193031e-29 5.9459799e-05)
(5.9696384e-05 1.3981385e-09 -4.9669863e-25 5.9696386e-05 -1.4611952e-28 5.9696385e-05)
(5.9917798e-05 1.3249037e-09 6.1083668e-33 5.9917801e-05 1.400742e-31 5.99178e-05)
(6.0124586e-05 1.2293307e-09 4.0877726e-32 6.012459e-05 8.3714595e-32 6.0124588e-05)
(6.0318041e-05 1.1048116e-09 -2.8818102e-33 6.0318046e-05 3.0529185e-32 6.0318044e-05)
(6.0498111e-05 9.4430614e-10 3.3533484e-25 6.0498118e-05 5.9722208e-28 6.0498115e-05)
(6.0664607e-05 7.4004788e-10 2.6289029e-25 6.0664616e-05 7.8158639e-28 6.0664611e-05)
(6.0818759e-05 4.8527698e-10 -1.290351e-32 6.081877e-05 8.8449661e-32 6.0818764e-05)
(6.0960955e-05 1.7632618e-10 1.3959374e-33 6.0960968e-05 2.1498068e-31 6.0960961e-05)
(6.1092054e-05 -1.8487638e-10 -6.9199865e-34 6.1092068e-05 -6.9622556e-31 6.1092061e-05)
(6.1212443e-05 -5.9148681e-10 1.5025842e-32 6.1212459e-05 -1.8140532e-31 6.1212451e-05)
(6.1323131e-05 -1.0293169e-09 6.5436978e-33 6.1323148e-05 4.1713377e-31 6.1323139e-05)
(6.1421384e-05 -1.4752434e-09 -1.5371397e-32 6.1421401e-05 3.8107616e-31 6.1421392e-05)
(6.1513711e-05 -1.8976153e-09 -5.2130982e-33 6.1513726e-05 -1.2591625e-30 6.1513718e-05)
(6.1595272e-05 -2.2556249e-09 -1.4123933e-32 6.1595284e-05 1.1009302e-30 6.1595277e-05)
(6.1667843e-05 -2.5060732e-09 -8.9080887e-25 6.166785e-05 6.3033194e-28 6.1667847e-05)
(6.1731707e-05 -2.6101021e-09 -9.2791643e-25 6.1731708e-05 3.8562744e-29 6.1731707e-05)
(6.178705e-05 -2.5474144e-09 4.0297363e-32 6.1787044e-05 -6.2224013e-31 6.1787047e-05)
(6.183403e-05 -2.3194574e-09 -1.3112856e-32 6.1834018e-05 6.6927178e-32 6.1834024e-05)
(6.1872828e-05 -1.9549446e-09 7.5736104e-33 6.1872811e-05 5.3127943e-32 6.187282e-05)
(6.1903544e-05 -1.5168186e-09 -5.3918946e-25 6.1903526e-05 -1.6657623e-27 6.1903535e-05)
(6.1926278e-05 -1.0742325e-09 -3.8188289e-25 6.1926262e-05 -1.5722694e-27 6.1926271e-05)
(6.194111e-05 -6.7753122e-10 -8.6594861e-35 6.1941097e-05 2.4787295e-31 6.1941104e-05)
(6.1948025e-05 -3.6758116e-10 -2.1171757e-33 6.1948016e-05 -2.5482872e-32 6.1948021e-05)
(6.1946973e-05 -1.7889915e-10 -9.6594103e-34 6.1946968e-05 5.9245883e-32 6.1946971e-05)
(6.1938354e-05 -1.3713446e-10 5.064302e-33 6.1938356e-05 3.2641698e-32 6.1938355e-05)
(6.1921921e-05 -2.8295847e-10 1.00592e-25 6.1921932e-05 -9.8732895e-28 6.1921926e-05)
(6.1897423e-05 -6.6040193e-10 2.3475602e-25 6.1897443e-05 -1.9082025e-27 6.1897433e-05)
(6.1864936e-05 -1.2980428e-09 1.6014839e-32 6.1864966e-05 1.7259784e-31 6.186495e-05)
(6.1824352e-05 -2.1673194e-09 4.262056e-33 6.182439e-05 8.3569385e-31 6.182437e-05)
(6.177554e-05 -3.2232082e-09 -1.1448876e-24 6.1775585e-05 4.2447467e-27 6.1775561e-05)
(6.1718345e-05 -4.4273761e-09 1.5640478e-27 6.1718395e-05 -4.2616647e-30 6.1718369e-05)
(6.1652598e-05 -5.7487619e-09 2.0434268e-24 6.1652652e-05 -5.104514e-27 6.1652623e-05)
(6.1578083e-05 -7.1483261e-09 -5.6215358e-32 6.1578139e-05 2.0478429e-30 6.1578109e-05)
(6.149455e-05 -8.5596798e-09 2.1658502e-31 6.1494604e-05 -1.1738564e-30 6.1494575e-05)
(6.1401745e-05 -9.880895e-09 -1.1343847e-31 6.1401793e-05 1.2243039e-30 6.1401767e-05)
(6.1299359e-05 -1.0980002e-08 5.6427884e-32 6.1299395e-05 -1.6761588e-31 6.1299376e-05)
(6.1187047e-05 -1.1712625e-08 -3.6071577e-31 6.1187066e-05 -4.7558563e-31 6.1187057e-05)
(6.1064452e-05 -1.1953456e-08 4.4248946e-31 6.106445e-05 3.0594168e-31 6.1064451e-05)
(6.0931154e-05 -1.1654307e-08 -2.8951094e-31 6.093113e-05 -2.185534e-31 6.0931143e-05)
(6.0786704e-05 -1.0799885e-08 -8.1588471e-32 6.078666e-05 -1.7806776e-31 6.0786684e-05)
(6.0630619e-05 -9.490043e-09 1.8397497e-31 6.0630561e-05 1.5398146e-30 6.0630592e-05)
(6.0462342e-05 -7.908223e-09 1.1675607e-31 6.0462278e-05 8.8382746e-31 6.0462313e-05)
(6.0281294e-05 -6.2675458e-09 -2.3257168e-31 6.0281232e-05 5.8930818e-32 6.0281265e-05)
(6.0086846e-05 -4.762886e-09 1.6920653e-24 6.0086792e-05 5.1001365e-27 6.0086821e-05)
(5.9878287e-05 -3.5301687e-09 1.2536469e-24 5.9878245e-05 3.9701885e-27 5.9878267e-05)
(5.9654873e-05 -2.620769e-09 -9.3107878e-25 5.9654843e-05 -2.8188222e-27 5.9654859e-05)
(5.941579e-05 -2.0085961e-09 -7.1328503e-25 5.9415771e-05 -1.8285147e-27 5.9415781e-05)
(5.9160112e-05 -1.6360424e-09 -3.3996301e-32 5.9160101e-05 -9.2024286e-31 5.9160107e-05)
(5.8886877e-05 -1.4700033e-09 5.2224889e-25 5.8886875e-05 2.4214025e-28 5.8886876e-05)
(5.8595037e-05 -1.5121251e-09 5.3694597e-25 5.8595042e-05 -5.4895426e-28 5.8595039e-05)
(5.8283399e-05 -1.7641839e-09 -1.2540419e-24 5.8283413e-05 2.632897e-27 5.8283405e-05)
(5.7950728e-05 -2.2040631e-09 -1.5659058e-24 5.7950748e-05 3.8557631e-27 5.7950737e-05)
(5.7595644e-05 -2.7681698e-09 8.8433593e-32 5.7595668e-05 2.2955551e-31 5.7595655e-05)
(5.7216592e-05 -3.3480346e-09 1.1904814e-24 5.7216614e-05 -2.0587589e-27 5.7216602e-05)
(5.6811947e-05 -3.8284941e-09 1.3605634e-24 5.6811964e-05 -1.5554129e-27 5.6811955e-05)
(5.6379905e-05 -4.1504164e-09 1.2891097e-31 5.6379916e-05 2.386127e-30 5.6379911e-05)
(5.5918402e-05 -4.3337416e-09 1.5573314e-31 5.5918408e-05 -7.2167513e-31 5.5918405e-05)
(5.5425255e-05 -4.4454832e-09 -1.5604075e-25 5.542526e-05 -5.4835807e-27 5.5425258e-05)
(5.4898013e-05 -4.558329e-09 1.456224e-24 5.4898019e-05 -8.8367757e-24 5.4898016e-05)
(5.4333912e-05 -4.72905e-09 1.83379e-24 5.433392e-05 -9.3429388e-24 5.4333917e-05)
(5.3729942e-05 -4.931199e-09 3.5284012e-25 5.372995e-05 1.3291337e-26 5.3729947e-05)
(5.3082665e-05 -5.083758e-09 2.0825961e-25 5.3082669e-05 1.0747859e-23 5.3082667e-05)
(5.2388203e-05 -5.0745503e-09 -1.8604526e-25 5.2388198e-05 1.1786441e-23 5.2388202e-05)
(5.1642174e-05 -4.7406739e-09 -2.0486294e-25 5.1642154e-05 -8.2137772e-27 5.1642166e-05)
(5.0839558e-05 -3.9581545e-09 2.1700892e-31 5.0839519e-05 -6.5891585e-30 5.0839541e-05)
(4.9974528e-05 -2.7086251e-09 -1.0441414e-31 4.9974472e-05 -2.4796227e-30 4.9974503e-05)
(4.9040311e-05 -1.1402288e-09 -3.3339443e-31 4.9040245e-05 5.8961763e-30 4.9040282e-05)
(4.8028817e-05 5.2391781e-10 3.5849472e-31 4.8028747e-05 -3.1442789e-30 4.8028786e-05)
(4.6930249e-05 2.1757747e-09 -8.9992694e-32 4.693018e-05 1.0753349e-29 4.6930219e-05)
(4.5732744e-05 3.7578085e-09 2.853283e-31 4.5732678e-05 -1.6054286e-29 4.5732715e-05)
(4.442053e-05 5.2281149e-09 -5.9549545e-31 4.4420468e-05 1.3411594e-29 4.4420502e-05)
(4.2974619e-05 6.573242e-09 1.1970193e-31 4.297456e-05 -2.1887384e-29 4.2974592e-05)
(4.1362758e-05 7.7537803e-09 -2.1864949e-31 4.1362704e-05 6.9085099e-30 4.1362733e-05)
(3.9553608e-05 8.7834112e-09 1.2168861e-30 3.9553563e-05 3.725499e-30 3.9553587e-05)
(3.7437302e-05 9.4533772e-09 -8.2573591e-31 3.7437268e-05 -1.0310237e-30 3.7437285e-05)
(3.4929432e-05 9.772371e-09 -1.8573158e-29 3.4929435e-05 1.7861319e-29 3.4929433e-05)
(3.1147805e-05 8.2240188e-09 -1.427007e-27 3.1148072e-05 -9.7826224e-28 3.1147935e-05)
(2.7925982e-05 6.1321743e-09 4.6344912e-27 2.7927369e-05 -6.256325e-26 2.7926675e-05)
(2.642964e-05 5.251547e-09 1.7428508e-26 2.6431998e-05 -1.1302745e-25 2.6430819e-05)
(2.5519199e-05 4.5530442e-09 -7.7455979e-27 2.5522291e-05 6.195051e-26 2.5520745e-05)
(2.5026205e-05 4.0827197e-09 1.3746221e-26 2.502996e-05 -8.10307e-26 2.5028083e-05)
(2.4830501e-05 3.7285987e-09 8.4774191e-27 2.4834878e-05 -3.424201e-26 2.4832689e-05)
(2.4853218e-05 3.4548769e-09 3.6254004e-26 2.4858211e-05 -1.5069422e-25 2.4855714e-05)
(2.5055232e-05 3.2274618e-09 -1.0898618e-26 2.5060857e-05 5.9868436e-26 2.5058045e-05)
(2.5426584e-05 3.0456711e-09 -8.5316466e-27 2.5432891e-05 4.7142417e-26 2.5429737e-05)
(2.5928697e-05 2.8861399e-09 8.0349308e-26 2.5935736e-05 -1.64909e-25 2.5932216e-05)
(2.6573077e-05 2.7421016e-09 -1.7930461e-26 2.6580911e-05 1.3379e-27 2.6576994e-05)
(2.740472e-05 2.6151127e-09 1.7547055e-25 2.7413449e-05 -2.7482569e-25 2.7409085e-05)
(2.848351e-05 2.5390131e-09 -1.1475936e-25 2.8493355e-05 1.9798957e-25 2.8488433e-05)
(2.9784243e-05 2.5126967e-09 4.4011123e-26 2.9795409e-05 -8.5372205e-26 2.9789829e-05)
(3.122123e-05 2.5063779e-09 3.1748611e-27 3.1233821e-05 -2.295396e-26 3.1227529e-05)
(3.2780846e-05 2.5143293e-09 1.1002194e-27 3.2794937e-05 -3.6621867e-26 3.2787897e-05)
(3.4458011e-05 2.5370653e-09 3.185401e-26 3.4473641e-05 -1.2524105e-25 3.4465834e-05)
(3.6243963e-05 2.5777571e-09 -5.5428627e-26 3.6261145e-05 9.7273965e-26 3.6252565e-05)
(3.8135863e-05 2.6423316e-09 4.0953952e-26 3.8154578e-05 -1.0561476e-25 3.8145234e-05)
(4.0108293e-05 2.737225e-09 -1.9848196e-24 4.0128492e-05 -1.6071871e-24 4.0118409e-05)
(4.208476e-05 2.8537197e-09 -2.1002889e-24 4.2106269e-05 -1.7536067e-24 4.2095534e-05)
(4.3918263e-05 2.9412616e-09 2.6783886e-26 4.3940719e-05 -4.2896471e-26 4.3929513e-05)
(4.5583624e-05 2.9566488e-09 -2.5763815e-26 4.5606589e-05 4.018822e-26 4.559513e-05)
(4.7159703e-05 2.8897157e-09 5.7814979e-26 4.7182846e-05 -1.5012747e-25 4.71713e-05)
(4.8783928e-05 2.7838811e-09 -2.2945788e-24 4.8807032e-05 -1.797891e-24 4.8795506e-05)
(5.0411678e-05 2.6306838e-09 -2.2205626e-24 5.0434482e-05 -1.7780386e-24 5.0423107e-05)
(5.2115927e-05 2.4370125e-09 -2.0976417e-26 5.2138201e-05 -1.6128247e-26 5.2127091e-05)
(5.396622e-05 2.2104607e-09 5.3450608e-26 5.3987744e-05 -6.8252475e-27 5.3977009e-05)
(5.6032792e-05 1.9579474e-09 -8.8919862e-26 5.605333e-05 6.7539891e-26 5.6043087e-05)
(5.8509952e-05 1.6852301e-09 7.5622727e-26 5.8529261e-05 -1.0868948e-26 5.8519633e-05)
(6.1836835e-05 1.4219839e-09 -1.0509933e-25 6.1854714e-05 4.8277143e-26 6.18458e-05)
(6.6524227e-05 1.2298656e-09 -1.6435796e-25 6.6540325e-05 2.1896089e-25 6.65323e-05)
(7.2571145e-05 1.0691962e-09 1.5264776e-25 7.2584679e-05 -1.8616462e-25 7.2577933e-05)
(8.0340039e-05 8.1895532e-10 -5.1336596e-27 8.0349517e-05 -2.7251362e-26 8.0344793e-05)
(8.9900109e-05 1.4006359e-10 -3.7695356e-25 8.9901878e-05 4.7146027e-25 8.9901e-05)
(0.00010322647 -1.3037633e-09 5.7082836e-25 0.00010321696 -7.3858599e-25 0.00010322171)
(0.00011685144 -4.4593408e-09 -5.8781915e-25 0.00011682501 7.095344e-25 0.00011683819)
(0.00014662901 -1.1652355e-08 -1.4013595e-25 0.00014657552 4.6341981e-25 0.00014660219)
(0.00014840674 -2.5475435e-08 -3.0413852e-25 0.00014831932 1.5751108e-25 0.00014836291)
(0.00026010916 -6.0511296e-08 2.4193552e-23 0.00025996043 1.1597703e-23 0.0002600346)
(9.5196364e-05 -8.1974427e-08 2.9470106e-23 9.5061418e-05 1.0619107e-23 9.5128733e-05)
(0.00082178872 -2.2440113e-07 2.1094013e-26 0.00082155333 -6.3340652e-25 0.0008216708)
(0.00035563075 -1.468233e-07 -1.0515066e-25 0.00035553912 -2.1755075e-25 0.00035558488)
(0.005917406 -7.3601952e-07 3.4735129e-25 0.0059171693 9.4081569e-25 0.0059172877)
(0.0087127517 -1.0333425e-06 -3.3597932e-25 0.0087126306 1.6122285e-25 0.0087126913)
(0.024069111 -4.8101399e-06 2.9908633e-21 0.024069084 4.5937786e-24 0.024069098)
(0.0090055032 -2.9163728e-06 1.8131373e-21 0.0090055571 -8.7639147e-24 0.0090055307)
(0.0073580476 -5.2751987e-06 -1.4681724e-25 0.0073579593 -4.8311197e-25 0.0073580033)
(0.0034326644 -2.6225717e-06 1.5263689e-21 0.0034326672 4.3437755e-26 0.0034326655)
(0.0069649482 -5.4945177e-06 9.9819579e-21 0.0069655384 -2.7100673e-22 0.0069652433)
(0.0033059505 -1.3403089e-06 2.021934e-21 0.0033063414 -1.4739094e-22 0.0033061457)
(0.0025900186 -3.3212398e-07 9.6943247e-23 0.0025902063 -1.1760869e-23 0.0025901125)
(0.00016568581 -1.0012725e-08 2.0146438e-24 0.00016569333 -6.969621e-25 0.00016568961)
(0.00042547697 3.1412426e-08 -1.2758606e-23 0.00042542112 3.6018061e-24 0.00042544915)
(6.4226035e-05 2.0956344e-08 -4.8783519e-26 6.4173727e-05 -1.8870527e-25 6.4199924e-05)
(0.00013902334 1.170169e-08 -5.5077468e-24 0.00013898316 2.5554568e-24 0.00013900327)
(8.537546e-05 5.555798e-09 -2.8886841e-24 8.5349839e-05 2.014255e-24 8.536266e-05)
(8.354335e-05 3.1088355e-09 1.2772808e-25 8.3524556e-05 9.0137821e-26 8.353396e-05)
(6.9183122e-05 1.8712863e-09 5.4266293e-26 6.9168733e-05 2.9806043e-26 6.9175933e-05)
(6.1900194e-05 1.2110409e-09 8.9964577e-27 6.1888751e-05 -6.9420756e-26 6.1894478e-05)
(5.4878795e-05 8.0061756e-10 4.8830532e-24 5.4869909e-05 -3.989596e-24 5.4874357e-05)
(4.9552357e-05 5.5790654e-10 3.7585937e-24 4.9545457e-05 -3.0674848e-24 4.9548911e-05)
(4.5145629e-05 4.2011664e-10 1.0044209e-26 4.5140234e-05 3.0993596e-26 4.5142935e-05)
(4.1640897e-05 3.4209324e-10 -7.5140272e-25 4.1636677e-05 5.979694e-25 4.1638789e-05)
(3.8997609e-05 2.9264884e-10 -6.3415948e-25 3.8994319e-05 4.3009264e-25 3.8995966e-05)
(3.693706e-05 2.5009944e-10 -2.4398205e-25 3.6934489e-05 1.6097614e-25 3.6935776e-05)
(3.519284e-05 2.0845501e-10 -1.9006577e-25 3.5190859e-05 1.3533788e-25 3.5191851e-05)
(3.3630953e-05 1.6459344e-10 -1.864713e-26 3.3629496e-05 -3.4461875e-26 3.3630225e-05)
(3.2202801e-05 1.2419652e-10 2.0426144e-26 3.2201772e-05 1.8988846e-26 3.2202287e-05)
(3.0856015e-05 8.0058592e-11 3.6940074e-26 3.0855403e-05 4.3295843e-26 3.0855709e-05)
(2.9564548e-05 3.5095455e-11 -1.2944741e-26 2.9564323e-05 -1.6523561e-26 2.9564436e-05)
(2.8291248e-05 -1.0951555e-11 -7.0795516e-27 2.8291392e-05 -1.0143911e-26 2.829132e-05)
(2.7017115e-05 -5.6244134e-11 9.7183911e-27 2.7017603e-05 1.2076805e-26 2.7017359e-05)
(2.5677775e-05 -9.4378001e-11 9.6948968e-27 2.5678541e-05 1.4082362e-26 2.5678158e-05)
(2.4265937e-05 -1.2773205e-10 1.7097151e-27 2.4266928e-05 3.3384528e-27 2.4266432e-05)
(2.2850869e-05 -1.5564902e-10 -7.2052934e-28 2.285201e-05 -6.1681131e-27 2.2851439e-05)
(2.1482101e-05 -1.7829123e-10 -2.07273e-26 2.1483316e-05 -1.8657358e-26 2.1482708e-05)
(2.0174129e-05 -1.9351294e-10 -1.2018262e-26 2.0175334e-05 -5.3617451e-27 2.0174731e-05)
(1.8932724e-05 -1.9882489e-10 -6.4159967e-27 1.8933838e-05 -9.9459598e-27 1.8933281e-05)
(1.7763207e-05 -1.9162628e-10 -2.2270367e-26 1.7764159e-05 -2.8214582e-26 1.7763683e-05)
(1.6669572e-05 -1.7176994e-10 2.4858172e-27 1.667032e-05 -1.5004576e-27 1.6669946e-05)
(1.5664031e-05 -1.4207673e-10 9.3593831e-26 1.5664566e-05 -2.3109366e-26 1.5664299e-05)
(1.4778707e-05 -1.1026491e-10 5.1636325e-26 1.4779063e-05 -4.1441084e-26 1.4778885e-05)
(1.4044501e-05 -8.3801778e-11 4.0305687e-26 1.4044733e-05 -1.0212128e-26 1.4044617e-05)
(1.3438733e-05 -6.4579093e-11 1.4311009e-25 1.3438887e-05 -5.0351498e-26 1.343881e-05)
(1.2931437e-05 -5.3800245e-11 8.3757142e-26 1.2931547e-05 -4.9713259e-26 1.2931492e-05)
(1.2519538e-05 -5.3515802e-11 -8.183775e-26 1.2519632e-05 5.1155203e-26 1.2519585e-05)
(1.2212047e-05 -6.3336454e-11 -1.040454e-25 1.2212141e-05 2.8360472e-26 1.2212094e-05)
(1.2022012e-05 -8.1021917e-11 2.3994908e-28 1.202211e-05 1.9068989e-27 1.2022061e-05)
(1.1971015e-05 -1.0794377e-10 -1.6295404e-25 1.1971118e-05 3.7083581e-26 1.1971066e-05)
(1.2087279e-05 -1.4487235e-10 -2.1410916e-25 1.2087381e-05 3.299416e-26 1.208733e-05)
(1.243352e-05 -1.9140944e-10 -1.6682064e-28 1.2433611e-05 5.8306851e-27 1.2433565e-05)
(1.3101308e-05 -2.479685e-10 1.7969313e-25 1.3101368e-05 -1.1730269e-26 1.3101338e-05)
(1.4577452e-05 -3.2774675e-10 2.3555564e-25 1.4577469e-05 -2.0467914e-27 1.4577461e-05)
(1.6296653e-05 -4.2262442e-10 -2.8192865e-31 1.629666e-05 -1.1348012e-30 1.6296657e-05)
(1.7449533e-05 -5.0277147e-10 6.9342121e-32 1.744954e-05 -3.417326e-31 1.7449537e-05)
(1.8413346e-05 -5.6705565e-10 -1.8159558e-31 1.841335e-05 1.4597289e-30 1.8413348e-05)
(1.9237735e-05 -6.0766093e-10 2.218557e-31 1.9237736e-05 -4.4079053e-31 1.9237735e-05)
(1.9970312e-05 -6.1916395e-10 4.4173662e-25 1.997031e-05 2.2584603e-28 1.9970311e-05)
(2.0626795e-05 -5.9754601e-10 4.2729011e-25 2.0626789e-05 6.480344e-28 2.0626792e-05)
(2.122175e-05 -5.424427e-10 -1.0399903e-31 2.1221741e-05 1.7670996e-30 2.1221745e-05)
(2.1764109e-05 -4.5544098e-10 4.0953322e-32 2.1764097e-05 -1.8072921e-30 2.1764103e-05)
(2.2261107e-05 -3.4558794e-10 3.3918446e-32 2.2261093e-05 -1.1989542e-30 2.22611e-05)
(2.2718287e-05 -2.2560112e-10 1.764425e-25 2.2718273e-05 8.0368077e-28 2.271828e-05)
(2.3140176e-05 -9.2210495e-11 8.6744898e-26 2.3140161e-05 8.834922e-28 2.3140169e-05)
(2.3530469e-05 5.324769e-11 5.6307824e-27 2.3530452e-05 -4.7719641e-28 2.3530461e-05)
(2.3892302e-05 2.0446115e-10 -2.0205961e-25 2.3892285e-05 3.4883314e-27 2.3892293e-05)
(2.4228373e-05 3.5903558e-10 -7.2901135e-25 2.4228355e-05 7.0558349e-27 2.4228364e-05)
(2.4540992e-05 5.1405129e-10 -3.6576892e-25 2.4540975e-05 2.997917e-27 2.4540983e-05)
(2.4832171e-05 6.6596161e-10 1.3310983e-31 2.4832155e-05 -2.3270551e-32 2.4832163e-05)
(2.5103691e-05 8.1099095e-10 -6.6697457e-33 2.5103676e-05 3.3781773e-31 2.5103683e-05)
(2.5357119e-05 9.4561902e-10 4.315644e-32 2.5357105e-05 7.8013932e-31 2.5357112e-05)
(2.5593848e-05 1.066714e-09 -4.7778363e-33 2.5593835e-05 -2.4290294e-30 2.5593841e-05)
(2.5815133e-05 1.1716199e-09 1.9902976e-32 2.5815123e-05 3.2959459e-30 2.5815128e-05)
(2.6022105e-05 1.2581406e-09 -4.3145306e-25 2.6022096e-05 3.2455334e-28 2.6022101e-05)
(2.6215759e-05 1.3250053e-09 -3.6993109e-24 2.6215752e-05 3.0172932e-27 2.6215755e-05)
(2.6397012e-05 1.3720028e-09 -3.3739504e-24 2.6397008e-05 1.9416221e-27 2.639701e-05)
(2.6566694e-05 1.3998286e-09 -7.0428137e-32 2.6566692e-05 -1.3999401e-30 2.6566693e-05)
(2.6725575e-05 1.409944e-09 1.1586077e-31 2.6725575e-05 5.0283569e-31 2.6725575e-05)
(2.6874328e-05 1.4043316e-09 -1.7906948e-31 2.6874329e-05 -8.5487854e-32 2.6874328e-05)
(2.7013601e-05 1.3851432e-09 4.9962877e-32 2.7013603e-05 7.9496248e-31 2.7013602e-05)
(2.714397e-05 1.3543081e-09 1.7536407e-31 2.7143973e-05 -6.1105357e-31 2.7143971e-05)
(2.7265968e-05 1.3131063e-09 -9.8673872e-32 2.7265973e-05 -3.327924e-31 2.726597e-05)
(2.7380154e-05 1.2616899e-09 4.6700065e-25 2.7380161e-05 8.5031298e-29 2.7380157e-05)
(2.7486962e-05 1.1992653e-09 4.4789487e-25 2.7486969e-05 1.3167927e-28 2.7486965e-05)
(2.7586967e-05 1.1229855e-09 1.4617318e-32 2.7586977e-05 1.2384645e-31 2.7586972e-05)
(2.7680459e-05 1.027488e-09 1.215165e-31 2.7680472e-05 3.4314187e-32 2.7680465e-05)
(2.7767956e-05 9.0698201e-10 1.9951239e-32 2.7767971e-05 -1.7995523e-31 2.7767963e-05)
(2.7849412e-05 7.5504818e-10 -3.0250884e-25 2.7849432e-05 -5.3886807e-28 2.7849422e-05)
(2.7924726e-05 5.6460306e-10 -2.3678528e-25 2.792475e-05 -7.0380246e-28 2.7924738e-05)
(2.7994379e-05 3.2947141e-10 1.8774931e-32 2.7994409e-05 5.8803728e-31 2.7994394e-05)
(2.8058584e-05 4.6332195e-11 -2.1848616e-25 2.8058619e-05 -1.2439248e-26 2.8058601e-05)
(2.8117725e-05 -2.8297594e-10 4.7927471e-25 2.8117765e-05 -1.4234674e-26 2.8117745e-05)
(2.8172009e-05 -6.5252854e-10 5.5604047e-32 2.8172053e-05 -2.8153907e-31 2.8172031e-05)
(2.822345e-05 -1.0497666e-09 -5.9831241e-32 2.8223496e-05 -4.0919231e-31 2.8223473e-05)
(2.8263745e-05 -1.4536831e-09 1.9761781e-24 2.8263789e-05 -1.0688369e-26 2.8263767e-05)
(2.8307786e-05 -1.8379138e-09 2.5202171e-24 2.8307826e-05 -9.5955104e-27 2.8307807e-05)
(2.8344541e-05 -2.1648498e-09 8.9932125e-32 2.8344572e-05 5.1892078e-31 2.8344557e-05)
(2.8377247e-05 -2.3967964e-09 8.0223501e-25 2.8377266e-05 -5.6828743e-28 2.8377257e-05)
(2.8406031e-05 -2.4990646e-09 8.3483353e-25 2.8406033e-05 -3.4818628e-29 2.8406032e-05)
(2.8430977e-05 -2.4530906e-09 2.1802979e-32 2.8430962e-05 7.2033049e-31 2.8430969e-05)
(2.8452156e-05 -2.2587593e-09 -1.3767924e-33 2.8452126e-05 1.055043e-31 2.8452141e-05)
(2.8469648e-05 -1.9392489e-09 1.8705575e-32 2.8469606e-05 -3.0759041e-31 2.8469627e-05)
(2.8483496e-05 -1.5486994e-09 4.846318e-25 2.8483451e-05 1.4973786e-27 2.8483473e-05)
(2.8493749e-05 -1.1481421e-09 3.4309699e-25 2.8493706e-05 1.4124414e-27 2.8493727e-05)
(2.8500441e-05 -7.8379563e-10 -3.0120086e-33 2.8500404e-05 -1.4892631e-31 2.8500422e-05)
(2.850333e-05 -4.9452944e-10 -8.098797e-34 2.8503304e-05 -7.4195316e-32 2.8503317e-05)
(2.8502685e-05 -3.1407537e-10 1.9749211e-33 2.8502673e-05 -6.3284207e-32 2.8502679e-05)
(2.8499045e-05 -2.6851538e-10 -8.3115104e-33 2.8499051e-05 -3.1867105e-33 2.8499048e-05)
(2.8491832e-05 -3.9686831e-10 -9.0452067e-26 2.8491858e-05 8.8743085e-28 2.8491845e-05)
(2.8480804e-05 -7.3722001e-10 2.6169863e-25 2.8480856e-05 -4.5493603e-27 2.8480831e-05)
(2.8466178e-05 -1.3122514e-09 8.8120925e-25 2.8466255e-05 -9.3197507e-27 2.8466217e-05)
(2.8447906e-05 -2.0939567e-09 -6.0098228e-33 2.8448005e-05 3.0827476e-31 2.8447956e-05)
(2.842593e-05 -3.0408125e-09 1.0318095e-24 2.8426047e-05 -3.8260295e-27 2.8425989e-05)
(2.8400181e-05 -4.1178993e-09 -5.7926793e-28 2.8400311e-05 8.9929138e-31 2.8400247e-05)
(2.8370578e-05 -5.2967203e-09 -1.8441382e-24 2.8370719e-05 4.6054501e-27 2.8370649e-05)
(2.8337029e-05 -6.5420471e-09 4.0743366e-32 2.8337174e-05 9.9838351e-31 2.8337103e-05)
(2.8299421e-05 -7.7954633e-09 -3.0128234e-31 2.8299563e-05 -2.6013492e-31 2.8299493e-05)
(2.8257639e-05 -8.9686028e-09 4.2072673e-31 2.8257765e-05 -2.5163343e-31 2.8257703e-05)
(2.8211546e-05 -9.9477853e-09 4.0201246e-32 2.8211643e-05 -1.5227827e-31 2.8211595e-05)
(2.8160986e-05 -1.0608469e-08 5.9891814e-32 2.8161039e-05 1.1330247e-31 2.8161012e-05)
(2.8105794e-05 -1.0841558e-08 5.1317455e-31 2.8105794e-05 8.5795884e-32 2.8105793e-05)
(2.8045779e-05 -1.0604214e-08 -9.4921155e-31 2.8045724e-05 2.8289706e-31 2.8045751e-05)
(2.7980734e-05 -9.8762529e-09 5.2065353e-32 2.7980627e-05 1.6662686e-31 2.7980679e-05)
(2.7910438e-05 -8.7349215e-09 -6.1346501e-31 2.7910292e-05 -2.4792657e-30 2.7910363e-05)
(2.7834634e-05 -7.3330586e-09 1.6654757e-31 2.7834471e-05 -6.0361171e-31 2.7834551e-05)
(2.7753061e-05 -5.8559815e-09 6.6199185e-31 2.7752901e-05 5.0044113e-30 2.7752979e-05)
(2.7665435e-05 -4.4810098e-09 -1.5202518e-24 2.7665295e-05 -4.5855556e-27 2.7665364e-05)
(2.7571438e-05 -3.3401e-09 -1.1287122e-24 2.7571329e-05 -3.5712409e-27 2.7571383e-05)
(2.7470736e-05 -2.4922488e-09 8.3750304e-25 2.7470658e-05 2.5280081e-27 2.7470697e-05)
(2.7362963e-05 -1.9237238e-09 6.4338882e-25 2.7362913e-05 1.6494801e-27 2.7362937e-05)
(2.7247699e-05 -1.5857178e-09 -9.3461192e-32 2.7247672e-05 1.1916668e-30 2.7247685e-05)
(2.7124508e-05 -1.4453093e-09 -4.7106086e-25 2.7124502e-05 -2.1472485e-28 2.7124505e-05)
(2.6992913e-05 -1.4974661e-09 -4.8573632e-25 2.6992928e-05 4.9577346e-28 2.6992921e-05)
(2.6852373e-05 -1.7363639e-09 1.1328783e-24 2.685241e-05 -2.3767582e-27 2.6852392e-05)
(2.6702328e-05 -2.1373626e-09 1.4186954e-24 2.6702381e-05 -3.4945248e-27 2.6702355e-05)
(2.6542155e-05 -2.6417838e-09 -3.3238506e-32 2.6542215e-05 -2.1746918e-30 2.6542185e-05)
(2.6371148e-05 -3.1543768e-09 -5.4744529e-24 2.6371205e-05 1.5529971e-26 2.6371177e-05)
(2.6188567e-05 -3.5767929e-09 -6.237871e-24 2.618861e-05 1.1962978e-26 2.6188589e-05)
(2.5993587e-05 -3.8605453e-09 -3.1694161e-31 2.5993616e-05 -1.1361801e-29 2.5993601e-05)
(2.5785272e-05 -4.0241192e-09 4.2993195e-31 2.578529e-05 1.0506967e-29 2.5785281e-05)
(2.5562625e-05 -4.1253952e-09 1.2271763e-31 2.556264e-05 -4.294589e-30 2.5562632e-05)