/*--------------------------------*- C++ -*----------------------------------*\
| =========                 |                                                 |
| \\      /  F ield         | OpenFOAM: The Open Source CFD Toolbox           |
|  \\    /   O peration     | Version:  2.4.0                                 |
|   \\  /    A nd           | Web:      www.OpenFOAM.org                      |
|    \\/     M anipulation  |                                                 |
\*---------------------------------------------------------------------------*/
FoamFile
{
    version     2.0;
    format      ascii;
    class       volVectorField;
    location    "20000";
    object      U;
}
// * * * * * * * * * * * * * * * * * * * * * * * * * * * * * * * * * * * * * //

dimensions      [0 1 -1 0 0 0 0];

internalField   nonuniform List<vector> 
32000
(
(0.012297406 5.9608047e-05 1.3057079e-28)
(0.0083099571 -4.8706125e-06 -6.5574978e-17)
(0.014007 -0.00037857414 -3.1781503e-17)
(0.0096661048 -0.00075980763 -2.5835291e-17)
(0.0072499427 -0.0010990646 -2.3673603e-17)
(0.00064602833 -0.00018944521 -3.145712e-17)
(-0.0033886568 0.0011771345 -3.7478667e-17)
(-0.0046553061 0.0021903246 0)
(-0.0035319797 0.0020220621 -3.8546571e-17)
(-0.0026772177 0.0017519719 -3.6397679e-17)
(-0.0020174261 0.0014529484 9.2043786e-19)
(-0.0017175635 0.001322925 9.2352864e-19)
(-0.0015379878 0.0012422424 3.7700222e-23)
(-0.0014083892 0.0011743423 1.789039e-24)
(-0.0012960588 0.0011011782 9.5727198e-19)
(-0.0011871603 0.0010154723 9.7656836e-19)
(-0.0010848546 0.00092354125 -7.5325202e-17)
(-0.0010175688 0.00085416534 -7.750517e-17)
(-0.00098079317 0.00081112487 -3.8718045e-17)
(-0.00096180246 0.00078476667 -3.9716935e-17)
(-0.00096756255 0.00077976716 1.0927758e-18)
(-0.00099338984 0.00079179304 1.6984348e-23)
(-0.0010416951 0.00082232869 1.1322908e-18)
(-0.0011132469 0.00087146267 1.1507357e-18)
(-0.0012040673 0.00093620527 2.3368716e-18)
(-0.0013138437 0.0010160689 1.1858029e-18)
(-0.0014293851 0.0011011134 3.8449897e-24)
(-0.0015382495 0.0011778295 1.8668696e-23)
(-0.0016418191 0.0012427899 -1.2443449e-18)
(-0.00174088 0.0012949863 1.2694797e-18)
(-0.0018315154 0.0013303064 1.2973244e-18)
(-0.0019108896 0.0013457458 -1.3285364e-18)
(-0.0019754127 0.0013382195 1.3626016e-18)
(-0.0020210206 0.0013049461 4.2622716e-23)
(-0.0020454858 0.0012449121 -7.5055421e-17)
(-0.0020540713 0.0011630234 -7.8087767e-17)
(-0.0020611511 0.0010718867 -7.4428966e-17)
(-0.0020594856 0.00097335297 -7.8031445e-17)
(-0.0020385548 0.00086450517 -1.594762e-18)
(-0.0019940787 0.0007465161 8.1400976e-19)
(-0.0019295434 0.00062433236 -5.0573805e-23)
(-0.0018294276 0.00049713506 1.6805542e-18)
(-0.0017272401 0.00037796524 -1.035696e-22)
(-0.0015833635 0.00026126337 -4.2682232e-19)
(-0.0015312851 0.00016878871 8.5345586e-19)
(-0.0014439366 7.9136122e-05 -1.9078803e-16)
(-0.0019458203 1.3878127e-05 -1.887884e-16)
(-0.0027117176 1.1968719e-06 5.9290803e-33)
(-0.0031772944 1.1337883e-06 5.0565091e-23)
(-0.0036617891 1.0937115e-06 -5.0563655e-23)
(-0.0040354444 1.1178447e-06 5.0421389e-23)
(-0.0043908063 1.1163049e-06 -5.0419963e-23)
(-0.0046909052 1.1448566e-06 5.0547908e-23)
(-0.0049697145 1.1619461e-06 -5.0546664e-23)
(-0.005217364 1.1915629e-06 0)
(-0.0054473197 1.2154331e-06 0)
(-0.0056574067 1.2431018e-06 -1.8886988e-16)
(-0.0058532576 1.2665869e-06 -1.903428e-16)
(-0.0060346582 1.289451e-06 9.5650826e-17)
(-0.006204021 1.3082306e-06 9.6536271e-17)
(-0.0063614917 1.3241641e-06 1.9450668e-16)
(-0.006508094 1.3356892e-06 1.9655982e-16)
(-0.006643937 1.3431889e-06 -2.6930374e-25)
(-0.0067694223 1.3459576e-06 -2.8743125e-25)
(-0.006884578 1.3440701e-06 2.7333803e-23)
(-0.0069895139 1.3371694e-06 -5.5921892e-23)
(-0.0070841994 1.3253743e-06 5.5921043e-23)
(-0.0071686923 1.3087617e-06 -1.0482889e-16)
(-0.0072430489 1.2875959e-06 -2.1253718e-16)
(-0.0073073842 1.2620601e-06 -1.0776151e-16)
(-0.0073618094 1.23234e-06 -2.9405594e-23)
(-0.0074064605 1.1986271e-06 0)
(-0.0074414794 1.1611195e-06 -3.0634924e-23)
(-0.0074670334 1.120059e-06 3.0634397e-23)
(-0.0074833182 1.0756729e-06 0)
(-0.0074905442 1.0279577e-06 7.3892295e-33)
(-0.0074887262 9.7691631e-07 1.1855414e-16)
(-0.0074779796 9.2308278e-07 1.2037313e-16)
(-0.0074585218 8.6687397e-07 -3.2898801e-23)
(-0.0074306153 8.0870022e-07 3.3860671e-23)
(-0.0073945164 7.4868248e-07 -3.3861674e-23)
(-0.0073504778 6.8719799e-07 -1.2740967e-16)
(-0.007298838 6.2465035e-07 -1.2932309e-16)
(-0.0072398671 5.6098986e-07 1.7923042e-23)
(-0.0071738293 4.967419e-07 -1.7921035e-23)
(-0.0071011226 4.3220917e-07 0)
(-0.0070220064 3.6728538e-07 -1.8681358e-23)
(-0.0069367946 3.0264496e-07 1.8679286e-23)
(-0.0068459014 2.3836794e-07 0)
(-0.0067496167 1.7457253e-07 0)
(-0.0066483293 1.117757e-07 -9.846553e-24)
(-0.0065423794 4.9716757e-08 -1.4612043e-16)
(-0.0064320602 -1.1078358e-08 -1.4800827e-16)
(-0.006317806 -7.0470214e-08 1.0096782e-23)
(-0.0061999183 -1.2859311e-07 0)
(-0.0060786825 -1.8509698e-07 0)
(-0.0059545066 -2.398134e-07 -1.5522945e-16)
(-0.0058276646 -2.9297507e-07 -1.5701857e-16)
(-0.0056984327 -3.4402214e-07 0)
(-0.0055672835 -3.928935e-07 0)
(-0.0054344675 -4.4019268e-07 0)
(-0.0053001192 -4.8550787e-07 0)
(-0.0051646191 -5.2860953e-07 1.655715e-16)
(-0.0050282158 -5.6985089e-07 1.671954e-16)
(-0.004891106 -6.0893348e-07 -5.6955398e-24)
(-0.0047536012 -6.4594408e-07 0)
(-0.0046158877 -6.8109725e-07 -1.7185577e-16)
(-0.0044781325 -7.142137e-07 1.953405e-19)
(-0.0043405901 -7.4533346e-07 1.7501051e-16)
(-0.0042034074 -7.7465887e-07 -2.4038129e-23)
(-0.0040667459 -8.019936e-07 2.403624e-23)
(-0.0039307954 -8.2754847e-07 0)
(-0.0037956913 -8.5121174e-07 2.4613145e-23)
(-0.0036616341 -8.7298674e-07 -4.9417554e-23)
(-0.0035287725 -8.9308827e-07 2.4801849e-23)
(-0.0033972315 -9.1136212e-07 0)
(-0.0032671834 -9.2804602e-07 -2.5335893e-23)
(-0.003138738 -9.4318891e-07 2.5336364e-23)
(-0.0030119826 -9.5684927e-07 2.5671501e-23)
(-0.0028870453 -9.6907115e-07 -2.5674648e-23)
(-0.0027639976 -9.8004837e-07 1.9103967e-16)
(-0.0026428878 -9.8966662e-07 1.9206519e-16)
(-0.0025238131 -9.9807118e-07 -1.9336536e-16)
(-0.0024068635 -1.0052483e-06 -1.9432584e-16)
(-0.0022920779 -1.0112594e-06 -5.291651e-23)
(-0.0021795915 -1.0160746e-06 1.9667298e-16)
(-0.0020694069 -1.0200433e-06 1.975393e-16)
(-0.0019616322 -1.0227448e-06 -3.9769507e-16)
(-0.0018563002 -1.0247451e-06 -3.9930643e-16)
(-0.0017535125 -1.0255771e-06 0)
(-0.0016532391 -1.0258206e-06 2.0190529e-16)
(-0.0015556565 -1.0249269e-06 2.0262259e-16)
(-0.0014606428 -1.0235236e-06 0)
(-0.0013685763 -1.0207171e-06 5.5600992e-23)
(-0.0012791159 -1.0179258e-06 -5.5602859e-23)
(-0.0011929077 -1.013098e-06 3.9136734e-19)
(-0.0011093455 -1.0089208e-06 -1.4746452e-19)
(-0.0010295382 -1.0017384e-06 0)
(-0.00095236951 -9.9627663e-07 2.0853763e-16)
(-0.0008797347 -9.863911e-07 2.0962664e-16)
(-0.00080957747 -9.7975179e-07 0)
(-0.00074529458 -9.6628057e-07 1.1473487e-22)
(-0.00068301906 -9.588923e-07 4.0096076e-25)
(-0.00062885234 -9.4025859e-07 -1.1513926e-22)
(-0.00057570009 -9.3274929e-07 -1.1591665e-22)
(-0.0005344752 -9.0629182e-07 1.1591622e-22)
(-0.00049228936 -8.9976617e-07 0)
(-0.00046859727 -8.6076365e-07 1.1703905e-22)
(-0.00044020285 -8.5766385e-07 -1.1703841e-22)
(-0.00044142446 -7.9728823e-07 1.1776506e-22)
(-0.00043170675 -8.0200914e-07 -1.1776235e-22)
(-0.00047002206 -7.0602695e-07 0)
(-0.00048768702 -7.3540893e-07 1.1883603e-22)
(-0.00057708841 -4.1315364e-06 3.0349123e-20)
(-0.00066366869 -3.612307e-05 -4.8963315e-19)
(-0.00066889786 -7.2441051e-05 9.7954231e-19)
(-0.0006805447 -0.0001099648 -1.1942756e-22)
(-0.00063996688 -0.0001369219 -4.1012868e-25)
(-0.00059603439 -0.0001580286 1.9234293e-18)
(-0.00051776481 -0.00016270234 -1.8739393e-16)
(-0.00043107397 -0.00015588887 -3.7792743e-16)
(-0.00031648996 -0.00012803646 -1.8802282e-16)
(-0.00018838345 -8.2193871e-05 0)
(-3.4052554e-05 -1.0301514e-05 1.9400592e-16)
(0.00014086969 8.7544803e-05 3.662437e-16)
(0.00035195827 0.00022214918 1.7770738e-16)
(0.00059688511 0.00039307522 0)
(0.00087008365 0.00059633861 -3.2596077e-18)
(0.0011723196 0.00083117583 1.950171e-22)
(0.0015002204 0.0010932886 3.1349841e-18)
(0.0018557475 0.001381427 0)
(0.0022317697 0.0016871636 3.0215161e-18)
(0.002630387 0.0020079411 1.1443057e-16)
(0.0030307893 0.002324315 1.1207005e-16)
(0.0034165255 0.002627136 -2.8613935e-18)
(0.0037747985 0.0029141419 -2.8027589e-18)
(0.0041334278 0.0032138438 -4.1618269e-23)
(0.0045135174 0.003537712 1.0239924e-16)
(0.0049010192 0.0038784901 9.9266958e-17)
(0.005319372 0.0042566194 3.8677138e-23)
(0.0057698028 0.0046756137 0)
(0.0062832088 0.0051621615 -2.3418945e-18)
(0.0068666287 0.0057272838 0)
(0.00763784 0.0064607088 -8.0343839e-17)
(0.0086777133 0.0073740489 -1.4962008e-16)
(0.0099407834 0.0083873549 -1.402359e-16)
(0.011489205 0.0095084618 -6.4201923e-17)
(0.013380619 0.010721756 -3.159731e-24)
(0.015793533 0.012063882 5.4724058e-17)
(0.018784002 0.013421378 9.1962799e-17)
(0.022695005 0.014761297 7.3288825e-17)
(0.027159883 0.015483058 2.1543445e-17)
(0.032173059 0.015158014 3.262676e-18)
(0.034579175 0.012291997 -2.2819053e-17)
(0.032571146 0.0079636435 8.5359573e-19)
(0.02629782 0.0039908882 2.764579e-19)
(0.020541455 0.0016240737 -1.2461442e-19)
(0.013027531 0.0003773218 6.378756e-20)
(0.01155171 -3.2906884e-06 -5.7501799e-17)
(0.0048945534 -2.1768708e-05 -7.6575041e-17)
(0.037544962 0.00015315243 -2.49887e-25)
(0.026768544 -3.4024794e-05 1.0311217e-16)
(0.042267734 -0.0011540948 1.000074e-16)
(0.03025695 -0.0022985433 1.2165525e-16)
(0.022849144 -0.0033415846 3.7430637e-17)
(0.0034690465 -0.00072154141 4.9484391e-17)
(-0.0092017059 0.0033784882 5.9629853e-17)
(-0.013622285 0.0065137764 0)
(-0.010559859 0.006081331 6.0665449e-17)
(-0.0080594476 0.0052954291 6.020963e-17)
(-0.0061054761 0.0044091504 1.3713613e-24)
(-0.0051994071 0.0040188213 -1.4539345e-18)
(-0.0046571999 0.0037759903 1.4650669e-18)
(-0.0042666312 0.0035713153 -1.6688761e-16)
(-0.0039296058 0.0033507932 -1.6902989e-16)
(-0.0036047568 0.0030927602 -9.7687265e-23)
(-0.0033009599 0.0028162809 1.1870437e-16)
(-0.0031010813 0.0026072941 1.2195142e-16)
(-0.0029927792 0.0024778463 5.9380839e-17)
(-0.0029389215 0.0023994189 6.2474534e-17)
(-0.0029591873 0.0023856183 -1.7207675e-18)
(-0.003040152 0.0024235838 -2.6739816e-23)
(-0.0031884705 0.0025175651 -1.7828372e-18)
(-0.0034061656 0.0026676333 -1.811839e-18)
(-0.003681197 0.0028646936 -2.0144875e-23)
(-0.0040117605 0.0031067889 2.8497871e-23)
(-0.0043589456 0.0033641117 1.8943241e-18)
(-0.0046863469 0.0035962713 -5.8781797e-23)
(-0.0049976889 0.0037926637 1.9590282e-18)
(-0.005295279 0.0039501052 -1.9984465e-18)
(-0.0055678168 0.0040563124 -2.0423403e-18)
(-0.0058069388 0.0041022386 2.0913449e-18)
(-0.0060023357 0.004078711 -6.534253e-23)
(-0.0061425037 0.0039775652 0)
(-0.0062214509 0.0037959928 1.1842718e-16)
(-0.0062546746 0.0035487023 1.2494047e-16)
(-0.0062831216 0.0032727946 1.1742852e-16)
(-0.0062860004 0.0029740378 3.6633654e-16)
(-0.0062328498 0.0026439527 2.5744229e-16)
(-0.0061112957 0.0022861705 -2.7323157e-16)
(-0.0059311095 0.0019151101 -2.8222992e-16)
(-0.0056491968 0.0015291631 -1.3224423e-18)
(-0.0053612441 0.001166091 -2.9232483e-16)
(-0.0049601498 0.0008118088 -2.9757685e-16)
(-0.0048290857 0.00052811798 -1.3430228e-18)
(-0.0046339738 0.00025969469 3.0152178e-16)
(-0.0061447774 6.4355439e-05 2.9646578e-16)
(-0.0084063601 2.2539644e-05 -9.3278689e-33)
(-0.0098096762 1.8302318e-05 7.9544166e-23)
(-0.011248235 1.5994556e-05 -7.9534837e-23)
(-0.012366055 1.391241e-05 3.6923694e-32)
(-0.013422248 1.2331063e-05 1.4594977e-16)
(-0.014317193 1.1018617e-05 1.4637017e-16)
(-0.015146094 9.9644947e-06 0)
(-0.015883246 9.0951135e-06 0)
(-0.016566533 8.3666171e-06 0)
(-0.017190784 7.74586e-06 2.9744087e-16)
(-0.017771933 7.2001697e-06 2.9878765e-16)
(-0.018309815 6.711438e-06 -1.5061237e-16)
(-0.018811297 6.2604859e-06 1.5153868e-16)
(-0.019276988 5.8370869e-06 3.055054e-16)
(-0.019709827 5.4307628e-06 3.2624848e-19)
(-0.020110216 5.0358822e-06 -8.4188428e-23)
(-0.020479323 4.647164e-06 0)
(-0.020817277 4.261455e-06 0)
(-0.021124421 3.8761704e-06 0)
(-0.021400709 3.4912651e-06 -4.4482242e-23)
(-0.021646342 3.1078252e-06 1.6497127e-16)
(-0.021861525 2.7272932e-06 8.3464344e-16)
(-0.022046622 2.3505211e-06 6.7689686e-16)
(-0.022201994 1.9780018e-06 0)
(-0.022328071 1.6103081e-06 2.1960658e-32)
(-0.022425303 1.2480469e-06 0)
(-0.02249422 8.9226177e-07 1.1289043e-32)
(-0.022535436 5.4374354e-07 -4.9529559e-23)
(-0.022549606 1.9927434e-07 4.9529085e-23)
(-0.022536763 -1.4317418e-07 -1.8649828e-16)
(-0.022497271 -4.7965505e-07 -1.8903499e-16)
(-0.022431808 -8.0749144e-07 5.2459936e-23)
(-0.022341167 -1.1256152e-06 -1.0568143e-22)
(-0.022226128 -1.4344947e-06 5.3223094e-23)
(-0.022087468 -1.7324155e-06 2.0039632e-16)
(-0.021926188 -2.0188899e-06 2.0313484e-16)
(-0.021743117 -2.2957092e-06 2.8171913e-23)
(-0.021539061 -2.5599254e-06 6.2686647e-16)
(-0.021315189 -2.811798e-06 6.3601398e-16)
(-0.021072304 -3.0533116e-06 2.8967034e-23)
(-0.02081135 -3.2806395e-06 -2.9760792e-23)
(-0.020533546 -3.4949825e-06 4.4142627e-16)
(-0.020239781 -3.6967703e-06 4.4748651e-16)
(-0.0199312 -3.8843309e-06 -3.9590188e-25)
(-0.019608825 -4.060363e-06 2.2977888e-16)
(-0.019273542 -4.2222013e-06 2.3261422e-16)
(-0.018926621 -4.3703315e-06 0)
(-0.018568976 -4.5074017e-06 0)
(-0.018201466 -4.63108e-06 0)
(-0.017825279 -4.7418717e-06 2.4408883e-16)
(-0.017441248 -4.8424283e-06 2.4685375e-16)
(-0.017050204 -4.9283709e-06 -2.1271125e-24)
(-0.016653521 -5.0006333e-06 2.1269378e-24)
(-0.016251962 -5.0657357e-06 5.2501876e-28)
(-0.015845939 -5.1206146e-06 0)
(-0.015436557 -5.1636412e-06 -2.6033833e-16)
(-0.015024567 -5.1983339e-06 -2.2524019e-19)
(-0.014610562 -5.2228213e-06 2.6524229e-16)
(-0.014195448 -5.2380747e-06 1.8087958e-23)
(-0.013779789 -5.2465523e-06 2.7021231e-16)
(-0.01336409 -5.2466351e-06 -1.544608e-19)
(-0.01294909 -5.2391719e-06 -2.7534379e-16)
(-0.012535239 -5.2259119e-06 3.7494722e-23)
(-0.012123019 -5.2054038e-06 -3.8115634e-23)
(-0.011712986 -5.1788976e-06 3.8120498e-23)
(-0.011305558 -5.1458081e-06 0)
(-0.010901317 -5.1060249e-06 0)
(-0.010500713 -5.0610996e-06 3.9301763e-23)
(-0.010104121 -5.0099206e-06 -3.9298245e-23)
(-0.0097120446 -4.9537472e-06 0)
(-0.0093248156 -4.893566e-06 -8.0258595e-23)
(-0.0089426983 -4.8290773e-06 -5.2655843e-25)
(-0.0085660662 -4.7608268e-06 8.0790071e-23)
(-0.0081951395 -4.6902697e-06 -3.0034457e-16)
(-0.0078300674 -4.6163945e-06 -3.024388e-16)
(-0.0074711366 -4.5393752e-06 3.0399471e-16)
(-0.0071186188 -4.4595829e-06 3.0603829e-16)
(-0.0067726373 -4.3764583e-06 4.6363107e-25)
(-0.0064335852 -4.2903751e-06 -3.0918465e-16)
(-0.0061014855 -4.2028104e-06 -3.1115772e-16)
(-0.0057766552 -4.1114309e-06 6.251909e-16)
(-0.0054591982 -4.0186495e-06 6.2905289e-16)
(-0.0051494165 -3.9231398e-06 8.5512053e-23)
(-0.0048472356 -3.8260372e-06 -9.5236855e-16)
(-0.0045531695 -3.7262343e-06 -9.5646881e-16)
(-0.0042668874 -3.623895e-06 8.6736607e-23)
(-0.003989483 -3.5173334e-06 0)
(-0.0037199985 -3.4096587e-06 -2.0420129e-32)
(-0.0034603032 -3.2947972e-06 -3.2451024e-16)
(-0.0032086802 -3.1788362e-06 -3.2630252e-16)
(-0.0029683392 -3.0517448e-06 7.0058227e-25)
(-0.0027360938 -2.9245202e-06 -1.7793623e-22)
(-0.0025174384 -2.7811392e-06 -4.1668043e-32)
(-0.0023064705 -2.6375157e-06 0)
(-0.0021130424 -2.4695498e-06 0)
(-0.0019260244 -2.3032224e-06 -2.1063024e-32)
(-0.0017631128 -2.0972449e-06 -6.693935e-16)
(-0.0016038564 -1.896649e-06 -6.7055296e-16)
(-0.0014799215 -1.6302783e-06 1.8307467e-22)
(-0.0013540935 -1.3769013e-06 -1.8308224e-22)
(-0.0012828411 -1.0116311e-06 -3.3913954e-16)
(-0.0011991403 -6.7916128e-07 -3.3960732e-16)
(-0.0012025952 -1.4214659e-07 5.6970186e-25)
(-0.001175906 3.163462e-07 -1.8538727e-22)
(-0.0012903479 1.1535507e-06 -1.8650986e-22)
(-0.0013475067 1.7111731e-06 6.8891124e-16)
(-0.0016167656 -6.835171e-06 6.8943345e-16)
(-0.0018739913 -0.00010066378 1.5415358e-18)
(-0.0018896614 -0.00020691864 1.8856471e-22)
(-0.0019202049 -0.00031606339 -1.5379628e-18)
(-0.001796399 -0.00039355504 1.8620469e-22)
(-0.0016605648 -0.00045282262 -3.0278208e-18)
(-0.0014230706 -0.00046273971 2.9914158e-18)
(-0.0011592535 -0.00043760507 6.4485604e-16)
(-0.00081268176 -0.00034920492 6.2736357e-16)
(-0.00042507438 -0.00020630966 2.8484649e-18)
(4.0348314e-05 1.4928721e-05 -5.583998e-18)
(0.00056762506 0.00031449678 5.4662823e-18)
(0.0012018578 0.00072426642 5.0475055e-16)
(0.0019357831 0.0012427785 4.888571e-16)
(0.0027532281 0.0018581571 5.1317672e-18)
(0.0036562092 0.0025679627 0)
(0.0046350796 0.0033594078 0)
(0.0056951758 0.0042284896 -4.8445602e-18)
(0.0068162561 0.0051502634 -4.7560809e-18)
(0.0080035967 0.0061166133 -1.7977496e-16)
(0.0091970785 0.0070700902 -1.7673752e-16)
(0.010348956 0.0079839841 -4.5031824e-18)
(0.011423019 0.008852405 0)
(0.012498458 0.0097593196 6.5494916e-23)
(0.013635142 0.010738016 -1.6093691e-16)
(0.014795129 0.011768609 -1.5235214e-16)
(0.016044529 0.012910909 0)
(0.017389021 0.014176491 0)
(0.018916702 0.015643945 2.7793539e-23)
(0.020653509 0.017348453 -2.719874e-23)
(0.022936816 0.019552648 -3.3535488e-18)
(0.025999006 0.022286562 -3.1654051e-18)
(0.029723358 0.025317923 2.9619833e-18)
(0.034286646 0.028665566 -2.7388444e-18)
(0.039863044 0.032282511 4.9645924e-24)
(0.046956776 0.036266158 -3.1846125e-21)
(0.055747488 0.040280177 0)
(0.067172088 0.044196494 -2.7314556e-18)
(0.080234865 0.046262125 0)
(0.094770155 0.045182941 -5.0625363e-18)
(0.10209214 0.036716215 3.5433983e-17)
(0.097047923 0.023997026 -1.2836281e-16)
(0.079780652 0.012243775 -1.6942875e-16)
(0.063158545 0.0051018864 3.1597458e-24)
(0.041555588 0.0012716518 -1.00233e-19)
(0.036357815 5.9668818e-05 9.0414101e-17)
(0.017421426 -7.4390202e-05 1.2045509e-16)
(0.064244934 0.00021281518 0)
(0.04780701 -9.2368004e-05 1.0829505e-21)
(0.071608713 -0.0019621206 -5.2939824e-17)
(0.052823679 -0.0039106937 -8.586052e-17)
(0.040121642 -0.0057108294 -2.0181477e-19)
(0.0080885694 -0.0015642996 5.3443793e-17)
(-0.014103691 0.0053125326 6.1059898e-17)
(-0.022484572 0.01077054 -6.5874887e-17)
(-0.017768277 0.010199028 -6.7279978e-17)
(-0.013644094 0.0089342964 -6.3780867e-17)
(-0.01038097 0.0074758377 -6.1294175e-17)
(-0.008842718 0.0068237052 1.5411646e-18)
(-0.0079227678 0.0064162363 2.9742485e-24)
(-0.0072611041 0.0060718164 1.7698176e-16)
(-0.0066919351 0.0057006351 -1.5779395e-18)
(-0.0061454111 0.0052670163 -1.2447619e-16)
(-0.0056355947 0.0048034237 6.12476e-17)
(-0.0052997255 0.0044527062 1.3026446e-23)
(-0.0051187844 0.004236096 1.750379e-18)
(-0.0050312775 0.0041067677 0)
(-0.0050688681 0.004086621 1.8241162e-18)
(-0.005209651 0.0041544293 0)
(-0.0054640886 0.0043169241 1.8899117e-18)
(-0.0058352563 0.0045737899 0)
(-0.0063026739 0.0049095628 -1.9500346e-18)
(-0.0068622502 0.0053198979 6.0412021e-23)
(-0.007449189 0.0057548162 7.7192052e-17)
(-0.0080030909 0.0061470354 7.8659015e-17)
(-0.0085295857 0.0064782938 -1.3506586e-25)
(-0.0090324889 0.0067429797 -2.117823e-18)
(-0.009493284 0.0069206518 0)
(-0.0098980193 0.0069961276 0)
(-0.010229897 0.0069542527 -6.9480572e-23)
(-0.010470445 0.0067817687 -2.3334596e-18)
(-0.010610534 0.0064745196 0)
(-0.010676053 0.0060572074 -2.4664099e-18)
(-0.010733369 0.0055904827 1.5464079e-22)
(-0.010748831 0.0050843081 -2.589956e-16)
(-0.010672618 0.0045249613 -2.7076766e-16)
(-0.010484685 0.0039187415 2.8884171e-16)
(-0.010200669 0.0032889365 2.969157e-16)
(-0.0097529797 0.0026343513 -1.5377513e-16)
(-0.0092959995 0.0020155668 1.5308127e-16)
(-0.0086661796 0.0014134746 3.1456103e-16)
(-0.0084839033 0.00092547918 3.1847079e-16)
(-0.0082540393 0.00047332164 3.1763492e-16)
(-0.01080634 0.00014454379 -8.5832605e-23)
(-0.014563056 6.9540238e-05 8.4592779e-23)
(-0.016935924 5.5824732e-05 -1.5540842e-16)
(-0.019336745 4.9063791e-05 -4.6493956e-16)
(-0.021214516 4.2374255e-05 -3.0955981e-16)
(-0.022978717 3.7624783e-05 -1.5479913e-16)
(-0.024477947 3.3475172e-05 -3.095601e-16)
(-0.025862807 3.0261936e-05 -1.5558662e-16)
(-0.027095656 2.753222e-05 -8.4381095e-23)
(-0.02823665 2.5287041e-05 3.1246882e-16)
(-0.029279042 2.3341411e-05 1.5788418e-16)
(-0.030248269 2.1646071e-05 -1.5803026e-16)
(-0.03114474 2.0114613e-05 -8.6798975e-23)
(-0.031979482 1.8707517e-05 -4.813056e-16)
(-0.032753774 1.7381991e-05 -6.4702168e-16)
(-0.03347237 1.6113454e-05 -1.6263174e-16)
(-0.034136057 1.4880372e-05 0)
(-0.03474675 1.3669577e-05 -1.6616835e-16)
(-0.035304736 1.2469916e-05 -1.6821714e-16)
(-0.035810606 1.1274866e-05 -9.3006443e-23)
(-0.036264355 1.0083659e-05 9.3001575e-23)
(-0.036666363 8.8999404e-06 9.5301477e-23)
(-0.037017024 7.7276724e-06 -5.3026126e-16)
(-0.037316984 6.5694635e-06 -5.3649391e-16)
(-0.037566891 5.4266914e-06 -3.624444e-16)
(-0.037767498 4.3010832e-06 -4.2665019e-19)
(-0.037919603 3.1945341e-06 7.4539709e-16)
(-0.038024136 2.110237e-06 3.7814323e-16)
(-0.038082176 1.0505644e-06 1.9188568e-16)
(-0.038094859 4.4977779e-09 1.9483788e-16)
(-0.038062166 -1.0339322e-06 -5.3923308e-23)
(-0.0379848 -2.0519801e-06 -3.9996414e-16)
(-0.037863934 -3.0417543e-06 -4.0613842e-16)
(-0.037700917 -4.0005982e-06 -5.5501141e-23)
(-0.037497077 -4.9295234e-06 2.0847614e-16)
(-0.037253747 -5.823865e-06 2.1165293e-16)
(-0.036972601 -6.6825195e-06 5.8776913e-23)
(-0.036655053 -7.5100206e-06 -5.8777879e-23)
(-0.036302483 -8.2985944e-06 -6.6363025e-16)
(-0.035916828 -9.0490221e-06 -6.7252618e-16)
(-0.035499469 -9.7663357e-06 3.1069869e-23)
(-0.035052007 -1.0440518e-05 -6.2556678e-23)
(-0.034576455 -1.1074568e-05 -2.3334799e-16)
(-0.034074341 -1.1669689e-05 -2.3613893e-16)
(-0.033547561 -1.2221926e-05 -4.7950461e-16)
(-0.032997835 -1.2738014e-05 -4.8586829e-16)
(-0.032426671 -1.3211324e-05 0)
(-0.031836156 -1.3643118e-05 -1.7003768e-23)
(-0.031227841 -1.4040693e-05 3.4214073e-23)
(-0.03060318 -1.4397938e-05 -1.7208162e-23)
(-0.029964123 -1.4716526e-05 -2.5850274e-16)
(-0.029312083 -1.5003395e-05 -2.6150108e-16)
(-0.028648464 -1.5246582e-05 0)
(-0.027975519 -1.5448899e-05 0)
(-0.027294549 -1.5628943e-05 0)
(-0.026606257 -1.5778682e-05 0)
(-0.02591245 -1.589314e-05 2.758313e-16)
(-0.025214406 -1.5981942e-05 4.7457592e-19)
(-0.024513123 -1.6040643e-05 -2.8083047e-16)
(-0.023810085 -1.6071851e-05 3.5834296e-32)
(-0.023106255 -1.6082404e-05 1.9503388e-23)
(-0.022402481 -1.6068138e-05 -1.9502332e-23)
(-0.021699975 -1.6031599e-05 0)
(-0.020999511 -1.5977382e-05 4.0031502e-23)
(-0.020301892 -1.5901941e-05 2.9673144e-16)
(-0.019608041 -1.5808385e-05 2.9900841e-16)
(-0.018918672 -1.5695335e-05 -4.0682649e-23)
(-0.018234743 -1.5562607e-05 3.0384889e-16)
(-0.017557014 -1.5414222e-05 6.1208385e-16)
(-0.016886117 -1.5247681e-05 3.0817697e-16)
(-0.016222879 -1.5066233e-05 -6.2007345e-16)
(-0.015567865 -1.4872867e-05 -6.2392388e-16)
(-0.014921523 -1.4666788e-05 0)
(-0.014284466 -1.4449803e-05 -8.6114766e-23)
(-0.013657073 -1.4225796e-05 8.612155e-23)
(-0.013039601 -1.3992309e-05 6.4069766e-16)
(-0.012432527 -1.3749344e-05 6.4398154e-16)
(-0.01183631 -1.3498188e-05 -1.7592158e-22)
(-0.011251168 -1.3237051e-05 -3.2659662e-16)
(-0.010677745 -1.2967631e-05 -3.2807652e-16)
(-0.010116101 -1.2693015e-05 -6.592728e-16)
(-0.0095667604 -1.2407925e-05 -1.3247699e-15)
(-0.0090299059 -1.2117822e-05 -6.6539259e-16)
(-0.0085060417 -1.1820579e-05 -9.0597225e-23)
(-0.0079950657 -1.1517374e-05 1.0088937e-15)
(-0.0074978203 -1.1207491e-05 1.0140914e-15)
(-0.0070138006 -1.0887851e-05 -1.8463008e-22)
(-0.0065447874 -1.0558319e-05 3.7008615e-22)
(-0.0060892641 -1.0221173e-05 -1.8546204e-22)
(-0.005650279 -9.8676897e-06 -8.6915603e-32)
(-0.005225088 -9.503163e-06 2.1819101e-32)
(-0.0048189276 -9.1147029e-06 0)
(-0.0044266666 -8.7123843e-06 -3.4885738e-16)
(-0.0040572825 -8.277699e-06 -3.4964135e-16)
(-0.0037012204 -7.8195832e-06 0)
(-0.0033745833 -7.3162875e-06 -1.9140074e-22)
(-0.0030593119 -6.7784759e-06 7.0698002e-16)
(-0.002784326 -6.170997e-06 7.0693539e-16)
(-0.0025163935 -5.510016e-06 1.2895788e-18)
(-0.0023072845 -4.7390342e-06 0)
(-0.002096437 -3.8846295e-06 -1.9466057e-22)
(-0.0019761911 -2.8493012e-06 3.5875919e-16)
(-0.0018374084 -1.6960651e-06 3.6062556e-16)
(-0.0018429496 -2.0454234e-07 6.038535e-25)
(-0.0018016273 1.4315041e-06 -1.9648778e-22)
(-0.0019936751 3.7288978e-06 0)
(-0.0020960047 5.860362e-06 -7.2861042e-16)
(-0.0025506682 -5.5045866e-06 -7.3230471e-16)
(-0.0029798037 -0.00015752384 -7.3451301e-16)
(-0.0030063763 -0.00032876544 -7.2818847e-16)
(-0.0030521745 -0.00050362906 1.6297872e-18)
(-0.0028417511 -0.00062550437 1.6191445e-18)
(-0.0026086196 -0.00071575263 3.2092541e-18)
(-0.002206418 -0.00072337104 -3.1705485e-18)
(-0.0017585668 -0.00067132964 -6.8181305e-16)
(-0.0011726504 -0.00051324973 -6.6354506e-16)
(-0.00051689741 -0.00026310351 -3.0193511e-18)
(0.00026896348 0.00011834636 2.7914088e-22)
(0.0011595022 0.00063159723 -3.5363683e-22)
(0.0022288295 0.0013289015 -5.3365212e-16)
(0.0034645493 0.0022076055 -5.1944287e-16)
(0.0048401697 0.0032480352 -5.4388476e-18)
(0.0063587456 0.004445828 0)
(0.0080045764 0.005779829 0)
(0.0097858934 0.0072428613 5.1337499e-18)
(0.011669873 0.0087939151 1.5364566e-22)
(0.013663939 0.010418595 -1.5119346e-22)
(0.015669274 0.0120226 0)
(0.017607393 0.013562478 4.7711637e-18)
(0.019420176 0.015029881 4.6727539e-18)
(0.021236269 0.016562022 -6.9381262e-23)
(0.023152181 0.018212624 -4.4523903e-18)
(0.025109197 0.019952074 -4.3304302e-18)
(0.027213929 0.021877174 6.4462254e-23)
(0.02947857 0.024009286 6.1327368e-23)
(0.032046569 0.026476554 -6.0081818e-23)
(0.034968162 0.029341554 -3.7319083e-18)
(0.038794072 0.033030079 2.6567951e-23)
(0.043902005 0.037584026 2.5243281e-16)
(0.050116233 0.042630464 2.3318125e-16)
(0.05772171 0.04819036 0)
(0.067010412 0.054184881 2.3461113e-24)
(0.07878966 0.060751464 -3.4803299e-21)
(0.093366185 0.067338175 -1.5881119e-24)
(0.11219088 0.07367341 1.4413445e-18)
(0.13369601 0.076933888 -8.9716612e-25)
(0.15740891 0.074935503 -5.8737619e-20)
(0.16977328 0.06106383 2.0793689e-24)
(0.1625424 0.040325211 1.3553336e-16)
(0.13564385 0.021009246 1.7836321e-16)
(0.10861771 0.0089793371 -2.0649325e-19)
(0.073625471 0.0024041177 -1.9261437e-24)
(0.063779326 0.00022754081 9.4740408e-22)
(0.03340073 -0.00013554083 -1.0125594e-20)
(0.092548113 0.0002424678 -2.5600512e-24)
(0.07168752 -0.00017492107 -1.1451176e-21)
(0.10210671 -0.0028067154 0)
(0.077520494 -0.0055979024 -1.6999983e-24)
(0.059239481 -0.0082131946 8.290309e-17)
(0.014774782 -0.0027373731 5.5285365e-17)
(-0.017862784 0.0069470912 6.6460463e-19)
(-0.03114256 0.014945069 1.3951833e-16)
(-0.025125847 0.014368559 6.9683688e-17)
(-0.019420732 0.012667321 6.5947376e-17)
(-0.014843179 0.010655209 6.4965544e-17)
(-0.012648136 0.0097409055 1.5651089e-24)
(-0.011335694 0.0091667115 1.6457484e-18)
(-0.010393127 0.0086797628 1.6661124e-18)
(-0.0095848838 0.0081547619 1.9165254e-16)
(-0.0088118139 0.007542494 1.3006776e-16)
(-0.0080925847 0.0068895142 -6.6646973e-17)
(-0.0076181571 0.0063951734 0)
(-0.0073641118 0.0060908556 1.8554891e-18)
(-0.0072449217 0.005912083 -1.8957242e-18)
(-0.0073032705 0.0058883464 -2.9498383e-23)
(-0.0075091479 0.0059902432 0)
(-0.0078762911 0.0062266666 4.1152187e-23)
(-0.0084085538 0.0065965087 2.0357092e-18)
(-0.0090766379 0.0070776522 0)
(-0.0098732125 0.0076623722 6.4027866e-23)
(-0.010707571 0.0082802416 -8.4114639e-17)
(-0.01149553 0.0088371455 -8.3182055e-17)
(-0.012244149 0.0093066639 6.722368e-23)
(-0.012958725 0.0096804946 -7.6918002e-23)
(-0.01361379 0.009930072 6.9891393e-23)
(-0.014189793 0.010034 0)
(-0.014663783 0.0099712811 0)
(-0.015010937 0.0097239011 2.4724962e-18)
(-0.015219759 0.0092868413 -2.5415626e-18)
(-0.01532665 0.0086949554 7.9630258e-23)
(-0.015421835 0.0080313579 0)
(-0.015459617 0.0073105098 1.3766317e-18)
(-0.015371607 0.0065137756 -2.8681447e-16)
(-0.015130668 0.0056503663 -2.9753322e-16)
(-0.014757822 0.0047517713 2.9263469e-18)
(-0.01416464 0.0038185045 1.647782e-16)
(-0.013559976 0.0029318569 3.325066e-16)
(-0.012736632 0.0020715469 1.7003903e-16)
(-0.012536915 0.0013657376 -3.3738641e-16)
(-0.012356066 0.00072509932 -3.363857e-16)
(-0.015979111 0.00025813297 -9.0868322e-23)
(-0.021221402 0.00014556634 8.9540669e-23)
(-0.024593337 0.00011636145 1.6483388e-16)
(-0.027959807 0.00010252134 4.9237003e-16)
(-0.030610384 8.8307193e-05 3.2688519e-16)
(-0.033086263 7.8505712e-05 -8.8888153e-23)
(-0.035196491 6.975907e-05 1.6422502e-16)
(-0.037140363 6.3092075e-05 1.6427857e-16)
(-0.038872637 5.7357886e-05 -1.6425591e-16)
(-0.040473269 5.2677897e-05 -4.9643566e-16)
(-0.041935485 4.8592576e-05 -2.5519995e-19)
(-0.043293303 4.5044418e-05 3.3400143e-16)
(-0.044548271 4.182617e-05 2.1291666e-32)
(-0.045715238 3.8872706e-05 3.3944439e-16)
(-0.046796366 3.6084927e-05 1.7070087e-16)
(-0.047798111 3.3418478e-05 -1.7283395e-16)
(-0.048721744 3.0824841e-05 -9.4201038e-23)
(-0.049569902 2.8279388e-05 1.7597572e-16)
(-0.050343091 2.575773e-05 1.7760233e-16)
(-0.051042174 2.3247717e-05 2.2761613e-32)
(-0.051667249 2.0747255e-05 0)
(-0.052218915 1.8264186e-05 0)
(-0.052697801 1.5806299e-05 1.1803803e-32)
(-0.053104874 1.3379027e-05 0)
(-0.053441102 1.0985179e-05 3.8366248e-16)
(-0.053707602 8.628393e-06 -4.7811388e-19)
(-0.053905559 6.312794e-06 -7.8804443e-16)
(-0.054036345 4.0451717e-06 -3.9933264e-16)
(-0.054101555 1.8305122e-06 -2.0308013e-16)
(-0.05410283 -3.5688018e-07 2.0506965e-16)
(-0.05403997 -2.5280773e-06 4.172006e-16)
(-0.053914199 -4.6542903e-06 4.2323743e-16)
(-0.053727209 -6.7205145e-06 4.2897752e-16)
(-0.053480928 -8.7217338e-06 5.9527294e-23)
(-0.053177261 -1.0659436e-05 -2.2057974e-16)
(-0.052818127 -1.2524613e-05 -2.2358561e-16)
(-0.052405876 -1.4315232e-05 0)
(-0.051942543 -1.6039456e-05 -6.3024121e-23)
(-0.051430112 -1.7682629e-05 6.301982e-23)
(-0.050871275 -1.9246166e-05 0)
(-0.050268036 -2.073914e-05 -3.2849994e-23)
(-0.049622667 -2.2142766e-05 3.2848344e-23)
(-0.048937969 -2.3462342e-05 -2.4745534e-16)
(-0.048216144 -2.4700177e-05 -2.5063991e-16)
(-0.047459829 -2.584927e-05 5.0722077e-16)
(-0.046671462 -2.6921779e-05 5.1357993e-16)
(-0.045853193 -2.7905698e-05 3.5519412e-23)
(-0.045007905 -2.8803353e-05 -1.7545757e-23)