/*--------------------------------*- C++ -*----------------------------------*\
| =========                 |                                                 |
| \\      /  F ield         | OpenFOAM: The Open Source CFD Toolbox           |
|  \\    /   O peration     | Version:  2.4.0                                 |
|   \\  /    A nd           | Web:      www.OpenFOAM.org                      |
|    \\/     M anipulation  |                                                 |
\*---------------------------------------------------------------------------*/
FoamFile
{
    version     2.0;
    format      ascii;
    class       volScalarField;
    location    "8252";
    object      nut;
}
// * * * * * * * * * * * * * * * * * * * * * * * * * * * * * * * * * * * * * //

dimensions      [0 2 -1 0 0 0 0];

internalField   nonuniform List<scalar> 
32000
(
2.0515075e-12
2.2653579e-12
2.0340279e-12
1.65602e-12
1.0671629e-12
5.3363406e-13
1.596529e-13
4.0026803e-14
4.7672379e-14
6.2891502e-14
5.5650634e-14
4.6630952e-14
3.9183906e-14
3.4293068e-14
3.1099425e-14
2.8477106e-14
2.6557074e-14
2.5090387e-14
2.4282054e-14
2.3580244e-14
2.3226699e-14
2.3308523e-14
2.3911358e-14
2.5079375e-14
2.6874769e-14
2.9468533e-14
3.2969994e-14
3.7269912e-14
4.239561e-14
4.869407e-14
5.6460539e-14
6.5997187e-14
7.7601378e-14
9.159276e-14
1.0827409e-13
1.2801319e-13
1.5134199e-13
1.7860658e-13
2.0954327e-13
2.4365197e-13
2.8030108e-13
3.1819777e-13
3.5577031e-13
3.904303e-13
4.2054319e-13
4.4469637e-13
4.8881889e-13
6.3389897e-13
7.6210238e-13
8.6714209e-13
9.675507e-13
1.0589489e-12
1.1464635e-12
1.2281162e-12
1.3058982e-12
1.3789802e-12
1.4481476e-12
1.513116e-12
1.5741922e-12
1.6311867e-12
1.6842099e-12
1.7332137e-12
1.778265e-12
1.8193792e-12
1.8566204e-12
1.890051e-12
1.9197692e-12
1.9458518e-12
1.9684295e-12
1.9876141e-12
2.0035512e-12
2.016368e-12
2.0262092e-12
2.0332925e-12
2.0378304e-12
2.03975e-12
2.0391704e-12
2.0361094e-12
2.0315399e-12
2.0254395e-12
2.0172151e-12
2.0074385e-12
1.9961985e-12
1.983638e-12
1.9698751e-12
1.9550246e-12
1.9392031e-12
1.9224837e-12
1.9050924e-12
1.8868968e-12
1.8681279e-12
1.8488037e-12
1.8290095e-12
1.8087826e-12
1.7881631e-12
1.7671529e-12
1.7457203e-12
1.7238353e-12
1.7015488e-12
1.6790571e-12
1.6565798e-12
1.6342393e-12
1.6120859e-12
1.5901394e-12
1.5683866e-12
1.5467922e-12
1.5253458e-12
1.5040457e-12
1.4828873e-12
1.4618687e-12
1.4409936e-12
1.4202563e-12
1.3996559e-12
1.3791886e-12
1.3588481e-12
1.3386343e-12
1.3185377e-12
1.2985494e-12
1.2786657e-12
1.2588762e-12
1.2391677e-12
1.2195336e-12
1.1999596e-12
1.1804309e-12
1.1609371e-12
1.1414602e-12
1.1219818e-12
1.1024872e-12
1.0829538e-12
1.0633603e-12
1.0436832e-12
1.0238979e-12
1.0039711e-12
9.8387965e-13
9.6357669e-13
9.4303985e-13
9.2220256e-13
9.0105614e-13
8.7950422e-13
8.5754473e-13
8.3498212e-13
8.1186478e-13
7.8789919e-13
7.6323905e-13
7.3730985e-13
7.1074028e-13
6.8227407e-13
6.5308669e-13
6.2073576e-13
5.8788225e-13
5.4904922e-13
5.1090336e-13
4.5634928e-13
3.9619557e-13
4.0369046e-13
4.3680069e-13
4.6654207e-13
4.9164031e-13
5.1038568e-13
5.2337284e-13
5.3212853e-13
5.3732211e-13
5.3973601e-13
5.4020067e-13
5.4118336e-13
5.4516786e-13
5.5074402e-13
5.5746567e-13
5.6541844e-13
5.7446468e-13
5.8431383e-13
5.9465602e-13
6.0709548e-13
6.1466506e-13
6.1571888e-13
6.0994105e-13
6.0579665e-13
6.010374e-13
5.9557793e-13
5.9026332e-13
5.8592874e-13
5.8457983e-13
5.8548626e-13
6.0546428e-13
6.490131e-13
7.0383368e-13
7.7830626e-13
8.8856411e-13
1.0529033e-12
1.2947918e-12
1.6366478e-12
2.0853409e-12
2.5491509e-12
2.8656685e-12
2.8757008e-12
2.6308962e-12
2.201826e-12
1.9537501e-12
1.721869e-12
1.824848e-12
4.0300256e-10
4.4499525e-10
3.9954898e-10
3.2533112e-10
2.0975856e-10
1.0504417e-10
3.1538123e-11
7.9021596e-12
9.339478e-12
1.2342368e-11
1.0938368e-11
9.1680057e-12
7.7023556e-12
6.7382355e-12
6.1088753e-12
5.5923655e-12
5.2136998e-12
4.9238941e-12
4.7636334e-12
4.6246296e-12
4.5538144e-12
4.568446e-12
4.6854012e-12
4.9133747e-12
5.264476e-12
5.7722616e-12
6.458544e-12
7.3019454e-12
8.3073555e-12
9.542708e-12
1.1066117e-11
1.2937041e-11
1.5213985e-11
1.7959909e-11
2.123439e-11
2.5109517e-11
2.9689859e-11
3.5044303e-11
4.1121785e-11
4.7824213e-11
5.5027668e-11
6.2478207e-11
6.9866699e-11
7.6683547e-11
8.2606432e-11
8.735365e-11
9.6021843e-11
1.2452588e-10
1.4970883e-10
1.7034323e-10
1.9006887e-10
2.080244e-10
2.2521714e-10
2.4125836e-10
2.5653923e-10
2.7089687e-10
2.8448553e-10
2.972494e-10
3.0924784e-10
3.2044433e-10
3.3086077e-10
3.4048764e-10
3.4933814e-10
3.5741526e-10
3.647316e-10
3.7129938e-10
3.7713794e-10
3.8226234e-10
3.8669823e-10
3.9046757e-10
3.9359897e-10
3.9611737e-10
3.9805125e-10
3.9944333e-10
4.0033536e-10
4.0071301e-10
4.0059962e-10
3.9999877e-10
3.9910159e-10
3.9790358e-10
3.9628825e-10
3.94368e-10
3.9216017e-10
3.8969291e-10
3.869894e-10
3.8407218e-10
3.8096417e-10
3.7767971e-10
3.7426324e-10
3.706887e-10
3.6700151e-10
3.6320517e-10
3.593165e-10
3.5534276e-10
3.5129188e-10
3.4716419e-10
3.4295352e-10
3.3865391e-10
3.3427544e-10
3.2985661e-10
3.2544062e-10
3.2105146e-10
3.1669906e-10
3.1238731e-10
3.0811357e-10
3.0387094e-10
2.9965741e-10
2.954726e-10
2.9131561e-10
2.8718609e-10
2.8308475e-10
2.790105e-10
2.7496312e-10
2.709419e-10
2.6694558e-10
2.6297418e-10
2.5902577e-10
2.5509865e-10
2.511921e-10
2.4730404e-10
2.4343188e-10
2.3957437e-10
2.3572867e-10
2.3189185e-10
2.2806192e-10
2.2423529e-10
2.2040838e-10
2.1657831e-10
2.1274061e-10
2.0889109e-10
2.0502518e-10
2.0113802e-10
1.9722305e-10
1.9327577e-10
1.8928692e-10
1.8525215e-10
1.8115835e-10
1.7700383e-10
1.727695e-10
1.6845511e-10
1.6402224e-10
1.5948039e-10
1.5477192e-10
1.4992701e-10
1.4483278e-10
1.3961276e-10
1.3402015e-10
1.2828591e-10
1.2193017e-10
1.1547584e-10
1.0784669e-10
1.0035336e-10
8.9638034e-11
7.7820043e-11
7.9299178e-11
8.5814246e-11
9.1665147e-11
9.6602445e-11
1.0028968e-10
1.0284516e-10
1.045692e-10
1.0559317e-10
1.0607125e-10
1.0616813e-10
1.0636991e-10
1.0716101e-10
1.082621e-10
1.0958744e-10
1.1115429e-10
1.1293506e-10
1.1487235e-10
1.1690694e-10
1.1934781e-10
1.2082424e-10
1.2101983e-10
1.1988188e-10
1.1907068e-10
1.1813616e-10
1.1706485e-10
1.1602383e-10
1.1517834e-10
1.1492092e-10
1.1512181e-10
1.1908665e-10
1.2767181e-10
1.3846374e-10
1.5313369e-10
1.7485464e-10
2.0721794e-10
2.5481936e-10
3.2202267e-10
4.1007936e-10
5.0088536e-10
5.6267254e-10
5.6434313e-10
5.1627124e-10
4.3219079e-10
3.8362748e-10
3.3819172e-10
3.5849503e-10
9.4649981e-09
1.0451047e-08
9.3804064e-09
7.6391818e-09
4.9288193e-09
2.4728349e-09
7.4544461e-10
1.8685232e-10
2.1903232e-10
2.8991015e-10
2.5740043e-10
2.1586091e-10
1.8137052e-10
1.5864746e-10
1.4382412e-10
1.3166832e-10
1.2275023e-10
1.1591231e-10
1.1212076e-10
1.0883611e-10
1.0714882e-10
1.0746796e-10
1.1019146e-10
1.1552408e-10
1.2374763e-10
1.3565006e-10
1.5175385e-10
1.7156183e-10
1.9517742e-10
2.2419119e-10
2.599724e-10
3.0392187e-10
3.574186e-10
4.2194802e-10
4.989135e-10
5.9000068e-10
6.9766054e-10
8.235332e-10
9.6644123e-10
1.1240804e-09
1.2935409e-09
1.4688528e-09
1.6427445e-09
1.8032033e-09
1.9426138e-09
2.0541739e-09
2.2574358e-09
2.9271265e-09
3.5185987e-09
4.0033631e-09
4.466821e-09
4.8886699e-09
5.2926208e-09
5.6695169e-09
6.0285689e-09
6.3659391e-09
6.6852611e-09
6.9852189e-09
7.2671715e-09
7.5302998e-09
7.7751183e-09
8.0014017e-09
8.2094594e-09
8.3993599e-09
8.571398e-09
8.7258587e-09
8.8631948e-09
8.9837579e-09
9.0881486e-09
9.1768814e-09
9.2506262e-09
9.3099673e-09
9.3555721e-09
9.3884423e-09
9.4095587e-09
9.4185859e-09
9.4160627e-09
9.4020795e-09
9.3811254e-09
9.3530941e-09
9.3152466e-09
9.2702247e-09
9.2184354e-09
9.1605401e-09
9.0970839e-09
9.028596e-09
8.9556156e-09
8.8784796e-09
8.7982331e-09
8.7142635e-09
8.6276389e-09
8.5384418e-09
8.4470679e-09
8.353688e-09
8.2584893e-09
8.1614795e-09
8.0625139e-09
7.9614532e-09
7.8585344e-09
7.7546631e-09
7.6508552e-09
7.5476752e-09
7.4453562e-09
7.3439904e-09
7.243516e-09
7.1437709e-09
7.0447082e-09
6.9463193e-09
6.8485831e-09
6.7514918e-09
6.6550625e-09
6.5592689e-09
6.4641071e-09
6.3695597e-09
6.2755978e-09
6.1822215e-09
6.0893861e-09
5.9970512e-09
5.9052005e-09
5.8137848e-09
5.7227436e-09
5.6320475e-09
5.5416294e-09
5.4514212e-09
5.3613758e-09
5.2714088e-09
5.1814364e-09
5.0913906e-09
5.0011666e-09
4.910666e-09
4.8197812e-09
4.7283979e-09
4.6363624e-09
4.5435685e-09
4.4497989e-09
4.3549511e-09
4.2587172e-09
4.1610572e-09
4.0615165e-09
3.9600953e-09
3.8558901e-09
3.7491251e-09
3.6384437e-09
3.5245577e-09
3.4048105e-09
3.2821105e-09
3.1506498e-09
3.0158668e-09
2.866468e-09
2.7147652e-09
2.5354312e-09
2.3593274e-09
2.1075421e-09
1.8299568e-09
1.8651569e-09
2.0186437e-09
2.1564048e-09
2.2726557e-09
2.3594627e-09
2.4196502e-09
2.4602828e-09
2.4844399e-09
2.4957594e-09
2.4981498e-09
2.5030568e-09
2.521756e-09
2.5476445e-09
2.57878e-09
2.6155805e-09
2.6573822e-09
2.702825e-09
2.7505592e-09
2.8076948e-09
2.8419991e-09
2.8462431e-09
2.8194149e-09
2.8004093e-09
2.7784226e-09
2.7532475e-09
2.7288255e-09
2.7090654e-09
2.7031564e-09
2.7083643e-09
2.8022978e-09
3.0043059e-09
3.257835e-09
3.6026657e-09
4.1132754e-09
4.8735712e-09
5.9904279e-09
7.5639816e-09
9.6199109e-09
1.1730821e-08
1.3163281e-08
1.3198305e-08
1.2084358e-08
1.0127776e-08
9.0016764e-09
7.9402817e-09
8.4240534e-09
8.2660555e-08
9.1284539e-08
8.1833276e-08
6.6692591e-08
4.3098986e-08
2.1697793e-08
6.5755478e-09
1.6487291e-09
1.9155603e-09
2.5400563e-09
2.2599728e-09
1.8965491e-09
1.59378e-09
1.3939717e-09
1.2637237e-09
1.1569874e-09
1.0786351e-09
1.0184162e-09
9.8491984e-10
9.5593612e-10
9.4091212e-10
9.4346651e-10
9.670997e-10
1.0136115e-09
1.0854455e-09
1.1895014e-09
1.3304597e-09
1.5040134e-09
1.7109515e-09
1.9651565e-09
2.2786648e-09
2.663788e-09
3.1326504e-09
3.6983214e-09
4.3731283e-09
5.1717379e-09
6.1155197e-09
7.2190557e-09
8.4722455e-09
9.854888e-09
1.1341518e-08
1.2879807e-08
1.4405946e-08
1.5814355e-08
1.7037674e-08
1.8014004e-08
1.9784653e-08
2.5649236e-08
3.0819892e-08
3.5060611e-08
3.9115421e-08
4.2805811e-08
4.6340189e-08
4.9638022e-08
5.2780347e-08
5.5733402e-08
5.852918e-08
6.1156017e-08
6.362567e-08
6.5931222e-08
6.8077176e-08
7.0061499e-08
7.1886874e-08
7.3553829e-08
7.5064892e-08
7.6422482e-08
7.7630496e-08
7.8691933e-08
7.9611979e-08
8.0395062e-08
8.1046981e-08
8.1572778e-08
8.1978239e-08
8.2272046e-08
8.2462784e-08
8.2547575e-08
8.2530804e-08
8.2413433e-08
8.2234723e-08
8.1993743e-08
8.1666448e-08
8.1275971e-08
8.0825874e-08
8.0321944e-08
7.9768962e-08
7.9171563e-08
7.853448e-08
7.7860665e-08
7.7159305e-08
7.6425018e-08
7.5667192e-08
7.488656e-08
7.4086602e-08
7.3268831e-08
7.2434899e-08
7.1584891e-08
7.0717546e-08
6.9831662e-08
6.8929327e-08
6.8018501e-08
6.7108108e-08
6.620311e-08
6.5305562e-08
6.4416288e-08
6.3534752e-08
6.2659545e-08
6.1790267e-08
6.092685e-08
6.0069118e-08
5.9217012e-08
5.8370686e-08
5.752992e-08
5.6694683e-08
5.5864829e-08
5.5040112e-08
5.4220535e-08
5.3405711e-08
5.2595291e-08
5.1789135e-08
5.0986815e-08
5.0187806e-08
4.939185e-08
4.8598362e-08
4.7806749e-08
4.7016597e-08
4.6227171e-08
4.5437737e-08
4.4647699e-08
4.3856142e-08
4.3062203e-08
4.226494e-08
4.1463352e-08
4.0656092e-08
3.984223e-08
3.9019862e-08
3.8188091e-08
3.7344213e-08
3.6487886e-08
3.561506e-08
3.4725799e-08
3.3812167e-08
3.2876154e-08
3.1905835e-08
3.090749e-08
2.9857765e-08
2.8782247e-08
2.7629883e-08
2.644853e-08
2.5138913e-08
2.3809332e-08
2.2237195e-08
2.0693902e-08
1.8487577e-08
1.6056033e-08
1.6369787e-08
1.7719245e-08
1.8929678e-08
1.9951123e-08
2.071381e-08
2.1242889e-08
2.1600362e-08
2.1813115e-08
2.1913185e-08
2.1935173e-08
2.1979583e-08
2.214409e-08
2.2370471e-08
2.2642481e-08
2.2963815e-08
2.3328525e-08
2.3724566e-08
2.4140505e-08
2.4637153e-08
2.4931972e-08
2.4963925e-08
2.4726615e-08
2.4559316e-08
2.4364984e-08
2.4143078e-08
2.3928079e-08
2.3754444e-08
2.3702187e-08
2.3750377e-08
2.4576773e-08
2.6340649e-08
2.8550343e-08
3.1555061e-08
3.6002904e-08
4.2615165e-08
5.2300357e-08
6.5880735e-08
8.3511139e-08
1.0142649e-07
1.1349756e-07
1.1377871e-07
1.0447142e-07
8.7867465e-08
7.8407812e-08
6.9288642e-08
7.367698e-08
4.2420404e-07
4.6856432e-07
4.1913253e-07
3.4226684e-07
2.2204358e-07
1.1258318e-07
3.4397177e-08
8.6288374e-09
9.9248355e-09
1.3188318e-08
1.1762876e-08
9.8793321e-09
8.3040159e-09
7.2624654e-09
6.5840944e-09
6.0284561e-09
5.6204831e-09
5.3059984e-09
5.1304563e-09
4.9787398e-09
4.8993156e-09
4.9111743e-09
5.0325497e-09
5.2728278e-09
5.6445421e-09
6.1834668e-09
6.9145233e-09
7.8155876e-09
8.8900365e-09
1.0209623e-08
1.1837018e-08
1.3836318e-08
1.6270625e-08
1.9208045e-08
2.2712664e-08
2.6859851e-08
3.1759598e-08
3.7488654e-08
4.3995712e-08
5.1175814e-08
5.8896888e-08
6.6887469e-08
7.4815573e-08
8.2131951e-08
8.8480806e-08
9.3526867e-08
1.0260096e-07
1.3297842e-07
1.5963296e-07
1.8152653e-07
2.0246215e-07
2.2151381e-07
2.397661e-07
2.5680062e-07
2.730398e-07
2.8830819e-07
3.027728e-07
3.1637244e-07
3.2916904e-07
3.4112628e-07
3.5226738e-07
3.6258112e-07
3.7208084e-07
3.807684e-07
3.8865607e-07
3.9575533e-07
4.0208538e-07
4.0766067e-07
4.1250705e-07
4.1664637e-07
4.201077e-07
4.2291618e-07
4.2510089e-07
4.2670568e-07
4.2777475e-07
4.2829398e-07
4.282819e-07
4.2774551e-07
4.268873e-07
4.2570259e-07
4.2406612e-07
4.2209753e-07
4.1981528e-07
4.1724929e-07
4.1442433e-07
4.1136447e-07
4.0809433e-07
4.0462923e-07
4.010173e-07
3.9723026e-07
3.9331733e-07
3.8928238e-07
3.8514369e-07
3.809093e-07
3.7658797e-07
3.7218034e-07
3.6768004e-07
3.6308101e-07
3.5839431e-07
3.5366151e-07
3.489292e-07
3.4422334e-07
3.3955481e-07
3.3492805e-07
3.3034041e-07
3.2578471e-07
3.2125904e-07
3.1676317e-07
3.1229629e-07
3.0785823e-07
3.0344988e-07
2.990702e-07
2.9471911e-07
2.9039596e-07
2.8609952e-07
2.818299e-07
2.7758514e-07
2.7336349e-07
2.6916428e-07
2.6498534e-07
2.6082397e-07
2.566789e-07
2.5254711e-07
2.4842556e-07
2.4431214e-07
2.4020304e-07
2.3609448e-07
2.3198341e-07
2.2786507e-07
2.2373501e-07
2.1958835e-07
2.1541991e-07
2.112227e-07
2.0699192e-07
2.0271766e-07
1.983953e-07
1.9401078e-07
1.8956235e-07
1.8502888e-07
1.8041082e-07
1.7566684e-07
1.7080745e-07
1.6577047e-07
1.6058884e-07
1.5514076e-07
1.4955977e-07
1.4357965e-07
1.3745029e-07
1.3065396e-07
1.2375588e-07
1.155956e-07
1.0758867e-07
9.6141243e-08
8.3522888e-08
8.5186333e-08
9.2219262e-08
9.8524771e-08
1.0384454e-07
1.0781584e-07
1.1057102e-07
1.1243306e-07
1.1354066e-07
1.1406137e-07
1.1417668e-07
1.1440952e-07
1.1525975e-07
1.1642285e-07
1.1781909e-07
1.1946746e-07
1.213361e-07
1.233616e-07
1.254869e-07
1.2801842e-07
1.2949149e-07
1.2960423e-07
1.2834152e-07
1.2745158e-07
1.2641555e-07
1.2523907e-07
1.2409971e-07
1.2317669e-07
1.2287939e-07
1.2311734e-07
1.2737659e-07
1.363976e-07
1.476735e-07
1.6297617e-07
1.8560245e-07
2.1912789e-07
2.6794617e-07
3.3574142e-07
4.2264239e-07
5.0912754e-07
5.6628605e-07
5.6737578e-07
5.2376514e-07
4.4390939e-07
3.9953329e-07
3.5478121e-07
3.7900029e-07
1.5602024e-06
1.7233033e-06
1.5381652e-06
1.2607769e-06
8.2441988e-07
4.2364262e-07
1.3124178e-07
3.2994063e-08
3.750706e-08
4.9961594e-08
4.4690926e-08
3.7571705e-08
3.1590184e-08
2.7627144e-08
2.5048596e-08
2.2936912e-08
2.1386976e-08
2.0187627e-08
1.9515532e-08
1.8935273e-08
1.8628124e-08
1.8666868e-08
1.9120719e-08
2.002542e-08
2.142774e-08
2.3462866e-08
2.6227841e-08
2.9639613e-08
3.3707597e-08
3.8702084e-08
4.4860776e-08
5.2426732e-08
6.1639103e-08
7.2756237e-08
8.6020184e-08
1.0171151e-07
1.202406e-07
1.4190106e-07
1.6650226e-07
1.9364576e-07
2.2283133e-07
2.5303306e-07
2.8298991e-07
3.1062016e-07
3.3453828e-07
3.5340547e-07
3.8688208e-07
5.0122742e-07
6.0056343e-07
6.8239177e-07
7.6063495e-07
8.3183227e-07
9.0007932e-07
9.6380872e-07
1.0246183e-06
1.0818514e-06
1.1361407e-06
1.187258e-06
1.2354417e-06
1.2805479e-06
1.322662e-06
1.3617377e-06
1.3978205e-06
1.4309111e-06
1.4610493e-06
1.4882708e-06
1.5126406e-06
1.5342051e-06
1.5530537e-06
1.5692609e-06
1.5829286e-06
1.5941445e-06
1.6030109e-06
1.609685e-06
1.6143291e-06
1.6168985e-06
1.6174305e-06
1.6159664e-06
1.6132605e-06
1.6092963e-06
1.6035981e-06
1.5966139e-06
1.5884131e-06
1.5791074e-06
1.5687904e-06
1.5575528e-06
1.5454877e-06
1.5326528e-06
1.519234e-06
1.5051208e-06
1.4905031e-06
1.4753962e-06
1.4598706e-06
1.443958e-06
1.427693e-06
1.4110794e-06
1.3940947e-06
1.3767173e-06
1.3589907e-06
1.3410738e-06
1.3231446e-06
1.3053028e-06
1.287591e-06
1.2700274e-06
1.2526029e-06
1.2352916e-06
1.2180875e-06
1.2009906e-06
1.1839991e-06
1.1671131e-06
1.1503369e-06
1.1336672e-06
1.1171046e-06
1.1006472e-06
1.084291e-06
1.0680371e-06
1.0518784e-06
1.0358091e-06
1.0198268e-06
1.0039239e-06
9.8809057e-07
9.7232222e-07
9.5660784e-07
9.4093622e-07
9.2529957e-07
9.096838e-07
8.9407484e-07
8.7846125e-07
8.6282526e-07
8.4715024e-07
8.3141778e-07
8.1560849e-07
7.9969602e-07
7.8366229e-07
7.6746992e-07
7.5110154e-07
7.3450392e-07
7.1767062e-07
7.005223e-07
6.8306014e-07
6.6512737e-07
6.4676444e-07
6.2773503e-07
6.0816495e-07
5.875913e-07
5.6652172e-07
5.4394399e-07
5.2080913e-07
4.9514814e-07
4.6911124e-07
4.3828638e-07
4.0805495e-07
3.6482181e-07
3.171016e-07
3.2358405e-07
3.5032891e-07
3.7429955e-07
3.9450727e-07
4.0958374e-07
4.2003535e-07
4.2709205e-07
4.3127389e-07
4.3322152e-07
4.3362901e-07
4.3447963e-07
4.3763039e-07
4.4191772e-07
4.4705922e-07
4.531245e-07
4.5998764e-07
4.6740408e-07
4.7516816e-07
4.8439612e-07
4.8957245e-07
4.8961679e-07
4.8458639e-07
4.8101361e-07
4.7686286e-07
4.7219565e-07
4.6767257e-07
4.6396729e-07
4.6258577e-07
4.6326842e-07
4.789514e-07
5.1192497e-07
5.5303067e-07
6.0854784e-07
6.9045265e-07
8.1112308e-07
9.8512392e-07
1.2229391e-06
1.5214411e-06
1.8084551e-06
1.990141e-06
1.9889597e-06
1.8479988e-06
1.5851517e-06
1.4467887e-06
1.2977051e-06
1.3967664e-06
4.5141772e-06
4.9830777e-06
4.4485651e-06
3.668052e-06
2.4314323e-06
1.2773104e-06
4.0509671e-07
1.0257709e-07
1.1503203e-07
1.5363931e-07
1.3790474e-07
1.1607607e-07
9.7637072e-08
8.5391617e-08
7.7433926e-08
7.0914408e-08
6.6135328e-08
6.2418392e-08
6.0326064e-08
5.8521105e-08
5.7553224e-08
5.7649039e-08
5.9021448e-08
6.1780994e-08
6.6068661e-08
7.2303626e-08
8.0772889e-08
9.1253094e-08
1.0373933e-07
1.1906142e-07
1.3794911e-07
1.611481e-07
1.8939065e-07
2.2346807e-07
2.6411566e-07
3.1216945e-07
3.688587e-07
4.3508784e-07
5.1027533e-07
5.9318788e-07
6.822832e-07
7.7441692e-07
8.6570002e-07
9.4973561e-07
1.022114e-06
1.0784078e-06
1.1764974e-06
1.5234132e-06
1.8194801e-06
2.0645941e-06
2.2988642e-06
2.512049e-06
2.7165349e-06
2.9076751e-06
3.0903037e-06
3.262482e-06
3.4261257e-06
3.5805724e-06
3.7265412e-06
3.863584e-06
3.9919476e-06
4.1114751e-06
4.2222819e-06
4.324344e-06
4.4177519e-06
4.5025804e-06
4.5789916e-06
4.6470902e-06
4.7071103e-06
4.7592412e-06
4.8037564e-06
4.8408871e-06
4.8709107e-06
4.8942658e-06
4.9114084e-06
4.922279e-06
4.926798e-06
4.9251794e-06
4.9196578e-06
4.9101889e-06
4.8953167e-06
4.8763808e-06
4.8535894e-06
4.8272763e-06
4.7977229e-06
4.7652036e-06
4.7300021e-06
4.6922901e-06
4.6526563e-06
4.6107391e-06
4.5671409e-06
4.5219078e-06
4.4752617e-06
4.4273059e-06
4.3781521e-06
4.3278192e-06
4.2762453e-06
4.2233723e-06
4.1693409e-06
4.1146442e-06
4.059832e-06
4.0052161e-06
3.9509341e-06
3.8970471e-06
3.8435331e-06
3.7903203e-06
3.7373966e-06
3.6847677e-06
3.6324331e-06
3.5803982e-06
3.5286805e-06
3.4772748e-06
3.4261864e-06
3.3754134e-06
3.3249476e-06
3.2747946e-06
3.2249367e-06
3.1753582e-06
3.1260549e-06
3.0770056e-06
3.0281828e-06
2.9795741e-06
2.931148e-06
2.8828721e-06
2.8347238e-06
2.7866617e-06
2.7386441e-06
2.6906372e-06
2.6425878e-06
2.5944462e-06
2.5461569e-06
2.4976616e-06
2.4488804e-06
2.3997588e-06
2.3501831e-06
2.3001007e-06
2.2493493e-06
2.1979093e-06
2.1455402e-06
2.0922441e-06
2.037541e-06
1.9815559e-06
1.9235639e-06
1.8639509e-06
1.8012976e-06
1.7371581e-06
1.6684244e-06
1.5980141e-06
1.5198772e-06
1.4406135e-06
1.3466613e-06
1.2545402e-06
1.1227257e-06
9.7671664e-07
9.9748273e-07
1.0799738e-06
1.1538502e-06
1.2160279e-06
1.2623593e-06
1.2944093e-06
1.3159832e-06
1.3286556e-06
1.3344165e-06
1.3354138e-06
1.3377323e-06
1.346925e-06
1.3593866e-06
1.3743144e-06
1.3919078e-06
1.4117589e-06
1.4331015e-06
1.4553432e-06
1.4817479e-06
1.495605e-06
1.4937108e-06
1.4769021e-06
1.4647576e-06
1.4507615e-06
1.4352492e-06
1.4201905e-06
1.4076073e-06
1.4018951e-06
1.4025734e-06
1.4479236e-06
1.5426735e-06
1.6605639e-06
1.8183488e-06
2.050469e-06
2.3896202e-06
2.8721162e-06
3.5171205e-06
4.3036453e-06
5.0247514e-06
5.4470342e-06
5.4101066e-06
5.0488107e-06
4.3915275e-06
4.0783367e-06
3.7171629e-06
4.0389305e-06
1.0761999e-05
1.1868672e-05
1.0649173e-05
8.8589341e-06
5.9936284e-06
3.2516052e-06
1.0699091e-06
2.7562301e-07
3.0430079e-07
4.0754977e-07
3.6729562e-07
3.0960402e-07
2.6056796e-07
2.2791618e-07
2.0673049e-07
1.8935129e-07
1.7664594e-07
1.666957e-07
1.6106442e-07
1.5620845e-07
1.5356333e-07
1.5373807e-07
1.572958e-07
1.6453124e-07
1.7580815e-07
1.9226893e-07
2.145607e-07
2.4228448e-07
2.7526994e-07
3.1570773e-07
3.6552558e-07
4.2668505e-07
5.0110318e-07
5.9084853e-07
6.9781466e-07
8.2410137e-07
9.7282859e-07
1.1463555e-06
1.3431109e-06
1.5597704e-06
1.7922048e-06
2.0321022e-06
2.2691337e-06
2.4864123e-06
2.6719466e-06
2.812989e-06
3.0555904e-06
3.9498319e-06
4.696009e-06
5.3172692e-06
5.9103192e-06
6.450056e-06
6.967986e-06
7.4527396e-06
7.9165804e-06
8.3548119e-06
8.7722974e-06
9.1675094e-06
9.5422065e-06
9.8952522e-06
1.0227237e-05
1.0537727e-05
1.0826952e-05
1.1094781e-05
1.1341358e-05
1.1566781e-05
1.1771364e-05
1.1955269e-05
1.2118985e-05
1.2262889e-05
1.2387571e-05
1.2493518e-05
1.2581338e-05
1.2652043e-05
1.2706609e-05
1.2745295e-05
1.2767128e-05
1.2772978e-05
1.2768381e-05
1.2753248e-05
1.2723819e-05
1.2683437e-05
1.2632627e-05
1.2572219e-05
1.2502921e-05
1.2425428e-05
1.2340463e-05
1.224845e-05
1.2150976e-05
1.204702e-05
1.1938211e-05
1.1824658e-05
1.170696e-05
1.1585401e-05
1.1460284e-05
1.1331684e-05
1.1199465e-05
1.1063501e-05
1.0924185e-05
1.0782814e-05
1.0640831e-05
1.0499067e-05
1.0357899e-05
1.0217506e-05
1.0077852e-05
9.938781e-06
9.8002851e-06
9.6624005e-06
9.5251459e-06
9.3885556e-06
9.2526911e-06
9.1175572e-06
8.9831829e-06
8.8495788e-06
8.7167378e-06
8.5846868e-06
8.4533931e-06
8.3228277e-06
8.1929894e-06
8.0638339e-06
7.9352992e-06
7.8073616e-06
7.6799473e-06
7.5529798e-06
7.4264068e-06
7.3001274e-06
7.1740396e-06
7.0480599e-06
6.9220555e-06
6.7959021e-06
6.6694586e-06
6.5425778e-06
6.4150551e-06
6.2867514e-06
6.1573737e-06
6.0267872e-06
5.8945716e-06
5.7606747e-06
5.6244791e-06
5.4859834e-06
5.3439386e-06
5.1986653e-06
5.048276e-06
4.8937633e-06
4.7314333e-06
4.5653086e-06
4.3872769e-06
4.2049152e-06
4.0024059e-06
3.7969373e-06
3.5529752e-06
3.3136546e-06
2.9709273e-06
2.5884893e-06
2.6465156e-06
2.8651193e-06
3.0605879e-06
3.2246487e-06
3.3466197e-06
3.4306678e-06
3.4869119e-06
3.5194438e-06
3.53357e-06
3.5349918e-06
3.5396689e-06
3.561732e-06
3.5915966e-06
3.6273121e-06
3.6693519e-06
3.7165762e-06
3.766933e-06
3.8189889e-06
3.880883e-06
3.909651e-06
3.8962205e-06
3.8463465e-06
3.8094807e-06
3.7675241e-06
3.7218341e-06
3.6774028e-06
3.6393383e-06
3.6183707e-06
3.6142829e-06
3.7224478e-06
3.9470505e-06
4.2273139e-06
4.5967487e-06
5.1391232e-06
5.9240431e-06
7.0234434e-06
8.4558594e-06
1.0145016e-05
1.1607751e-05
1.2361714e-05
1.2149989e-05
1.1328873e-05
9.970788e-06
9.4084657e-06
8.7453518e-06
9.5805726e-06
2.1744067e-05
2.3977431e-05
2.1744707e-05
1.8308786e-05
1.2719142e-05
7.191211e-06
2.492794e-06
6.6411237e-07
7.2096744e-07
9.6807639e-07
8.7656666e-07
7.4013583e-07
6.2336016e-07
5.453684e-07
4.9486674e-07
4.5332978e-07
4.2311182e-07
3.9921738e-07
3.8560612e-07
3.7386572e-07
3.6734487e-07
3.6750922e-07
3.75686e-07
3.9257694e-07
4.1904605e-07
4.5779081e-07
5.1017262e-07
5.7550763e-07
6.5330207e-07
7.4845238e-07
8.6555127e-07
1.0091734e-06
1.183747e-06
1.3940237e-06
1.6442405e-06
1.9389468e-06
2.2850415e-06
2.6878488e-06
3.1434006e-06
3.6435531e-06
4.1783054e-06
4.7279984e-06
5.2682317e-06
5.7595529e-06
6.1737831e-06
6.4787705e-06
7.0058479e-06
9.021546e-06
1.0663026e-05
1.2036214e-05
1.334377e-05
1.4533672e-05
1.5674999e-05
1.6744406e-05
1.7768577e-05
1.8738062e-05
1.9663459e-05
2.0541997e-05
2.137719e-05
2.2166709e-05
2.2911779e-05
2.3611454e-05
2.4266125e-05
2.4875418e-05
2.5439506e-05
2.5958454e-05
2.643278e-05
2.6862662e-05
2.7248977e-05
2.7592358e-05
2.7893904e-05
2.8154491e-05
2.8375247e-05
2.8558188e-05
2.8705005e-05
2.881722e-05
2.889129e-05
2.8929275e-05
2.8943258e-05
2.8933057e-05
2.8890371e-05
2.8822282e-05
2.8729933e-05
2.8615072e-05
2.8479217e-05
2.8323857e-05
2.8150555e-05
2.7960215e-05
2.775641e-05
2.7536787e-05
2.730503e-05
2.7061348e-05
2.6807154e-05
2.6543069e-05
2.6269814e-05
2.5987598e-05
2.5696169e-05
2.5395308e-05
2.5085948e-05
2.4771031e-05
2.445381e-05
2.4136182e-05
2.3819031e-05
2.3502796e-05
2.3187469e-05
2.2872778e-05
2.2558771e-05
2.2245585e-05
2.193332e-05
2.1622106e-05
2.1312128e-05
2.1003449e-05
2.0696177e-05
2.0390382e-05
2.008609e-05
1.9783399e-05
1.9482274e-05
1.9182688e-05
1.8884668e-05
1.8588148e-05
1.8293019e-05
1.7999253e-05
1.7706712e-05
1.7415249e-05
1.7124766e-05
1.6835059e-05
1.6545918e-05
1.6257171e-05
1.5968536e-05
1.5679747e-05
1.53905e-05
1.5100474e-05
1.4809218e-05
1.4516426e-05
1.4221445e-05
1.3923972e-05
1.3623067e-05
1.3318598e-05
1.3009201e-05
1.2694843e-05
1.2372698e-05
1.204345e-05
1.1702835e-05
1.1353016e-05
1.0985656e-05
1.0609727e-05
1.0206816e-05
9.7939111e-06
9.3349946e-06
8.8688638e-06
8.31417e-06
7.7689879e-06
6.9875747e-06
6.1037611e-06
6.2493914e-06
6.7628001e-06
7.2205436e-06
7.6032422e-06
7.8867383e-06
8.0810251e-06
8.209877e-06
8.2827778e-06
8.3122021e-06
8.311541e-06
8.3176124e-06
8.3619353e-06
8.422001e-06
8.4935935e-06
8.5776864e-06
8.6714795e-06
8.770179e-06
8.8708313e-06
8.9915435e-06
9.0350855e-06
8.9771637e-06
8.8423059e-06
8.7412829e-06
8.6276551e-06
8.5061159e-06
8.3878287e-06
8.2840007e-06
8.2172629e-06
8.1899844e-06
8.4090663e-06
8.8591451e-06
9.4305776e-06
1.0165632e-05
1.1246434e-05
1.2798411e-05
1.4939827e-05
1.7662888e-05
2.0772146e-05
2.3309109e-05
2.4386959e-05
2.3631291e-05
2.1855045e-05
1.9345491e-05
1.8428599e-05
1.7450697e-05
1.9183278e-05
3.8198355e-05
4.2220856e-05
3.8855726e-05
3.319782e-05
2.3753386e-05
1.4068508e-05
5.2090602e-06
1.4666406e-06
1.5678832e-06
2.1097127e-06
1.9205971e-06
1.6248325e-06
1.3697178e-06
1.1987448e-06
1.0882819e-06
9.9713574e-07
9.3126398e-07
8.7849581e-07
8.4819696e-07
8.2203222e-07
8.0714204e-07
8.0676072e-07
8.2373718e-07
8.5959577e-07
9.1633679e-07
9.9938362e-07
1.111899e-06
1.2519879e-06
1.4195835e-06
1.6236728e-06
1.8744204e-06
2.1814666e-06
2.5539778e-06
3.0016696e-06
3.5328267e-06
4.1559766e-06
4.8845657e-06
5.7290166e-06
6.6796814e-06
7.7179845e-06
8.8215257e-06
9.9479183e-06
1.1045185e-05
1.2030945e-05
1.2848308e-05
1.342836e-05
1.4465587e-05
1.8506357e-05
2.172113e-05
2.4417282e-05
2.6973977e-05
2.9299003e-05
3.1524871e-05
3.3611081e-05
3.5608161e-05
3.7500279e-05
3.9307638e-05
4.1026306e-05
4.2662181e-05
4.4211506e-05
4.5676617e-05
4.7055944e-05
4.8350215e-05
4.955879e-05
5.0681941e-05
5.1719746e-05
5.2673102e-05
5.3542245e-05
5.4328696e-05
5.5033513e-05
5.5658617e-05
5.6205503e-05
5.6676103e-05
5.7074016e-05
5.7401867e-05
5.7663607e-05
5.7852239e-05
5.7969311e-05
5.8039126e-05
5.8061224e-05
5.8019835e-05
5.7927849e-05
5.7787456e-05
5.7601836e-05
5.7373786e-05
5.7106052e-05
5.6801532e-05
5.6461988e-05
5.609378e-05
5.5693041e-05
5.5266341e-05
5.4814157e-05
5.4339277e-05
5.384285e-05
5.3326304e-05
5.2790083e-05
5.2233765e-05
5.1657009e-05
5.1061709e-05
5.0453608e-05
4.9839011e-05
4.9221579e-05
4.860306e-05
4.7984379e-05
4.7365646e-05
4.6746488e-05
4.6127121e-05
4.5507912e-05
4.4889166e-05
4.4271239e-05
4.3654581e-05
4.3039422e-05
4.2426056e-05
4.1814716e-05
4.1205544e-05
4.0598807e-05
3.9994529e-05
3.9392734e-05
3.8793542e-05
3.8196909e-05
3.7602686e-05
3.7010881e-05
3.6421291e-05
3.5833687e-05
3.5247926e-05
3.4663668e-05
3.4080547e-05
3.3498265e-05
3.2916316e-05
3.2334215e-05
3.175139e-05
3.1167245e-05
3.0580919e-05
2.9991821e-05
2.9398691e-05
2.8800926e-05
2.8196689e-05
2.7585681e-05
2.6965278e-05
2.6335347e-05
2.5690276e-05
2.5031254e-05
2.4349866e-05
2.3650093e-05
2.2915513e-05
2.2163442e-05
2.1357283e-05
2.0530042e-05
1.960979e-05
1.8672775e-05
1.7555023e-05
1.645194e-05
1.4870724e-05
1.3042468e-05
1.337313e-05
1.4456953e-05
1.5418731e-05
1.6219231e-05
1.6809418e-05
1.7211454e-05
1.7475157e-05
1.7620588e-05
1.7673815e-05
1.7663089e-05
1.7664014e-05
1.7739121e-05
1.7841148e-05
1.7961765e-05
1.8102786e-05
1.8258167e-05
1.8418129e-05
1.8577604e-05
1.8774221e-05
1.8805671e-05
1.8622452e-05
1.8288681e-05
1.8041038e-05
1.7764469e-05
1.7473211e-05
1.7189844e-05
1.6936209e-05
1.6754807e-05
1.6656303e-05
1.7043165e-05
1.7818545e-05
1.884239e-05
2.0121254e-05
2.2013457e-05
2.4724597e-05
2.8422182e-05
3.304275e-05
3.8189292e-05
4.2173342e-05
4.3472913e-05
4.1433447e-05
3.7733682e-05
3.3306665e-05
3.1731059e-05
3.0440859e-05
3.3363831e-05
6.0021392e-05
6.6656614e-05
6.2358193e-05
5.4137126e-05
3.9875338e-05
2.4724947e-05
9.8657302e-06
2.9974686e-06
3.1809526e-06
4.286759e-06
3.9265963e-06
3.3293909e-06
2.8098771e-06
2.460282e-06
2.2347955e-06
2.0483883e-06
1.9145934e-06
1.8055684e-06
1.7423687e-06
1.687668e-06
1.6555892e-06
1.6527788e-06
1.684884e-06
1.7549584e-06
1.867647e-06
2.0320084e-06
2.2561946e-06
2.533023e-06
2.8677234e-06
3.2723669e-06
3.768274e-06
4.3739889e-06
5.1065984e-06
5.9838026e-06
7.0196038e-06
8.2276326e-06
9.631046e-06
1.1247355e-05
1.3054068e-05
1.5011564e-05
1.7073335e-05
1.9155762e-05
2.1159011e-05
2.2929777e-05
2.437031e-05
2.5361351e-05
2.7259921e-05
3.4552448e-05
4.0246414e-05
4.5017626e-05
4.9516301e-05
5.3600515e-05
5.7496306e-05
6.1143938e-05
6.4628187e-05
6.7927087e-05
7.107512e-05
7.4067867e-05
7.6914483e-05
7.9610393e-05
8.2159926e-05
8.4561334e-05
8.6816266e-05
8.8924258e-05
9.0886144e-05
9.270246e-05
9.4375038e-05
9.5904548e-05
9.7293745e-05
9.8544574e-05
9.9660378e-05
0.00010064374
0.00010149788
0.00010222877
0.00010284048
0.00010333959
0.00010371832
0.00010397182
0.0001041441
0.00010423478
0.00010421751
0.00010411284
0.00010392458
0.00010365782
0.00010331713
0.00010290694
0.00010243196
0.00010189535
0.0001013063
0.00010066031
9.9966915e-05
9.9227166e-05
9.8445706e-05
9.7624435e-05
9.6765713e-05
9.5870277e-05