/*--------------------------------*- C++ -*----------------------------------*\
| =========                 |                                                 |
| \\      /  F ield         | OpenFOAM: The Open Source CFD Toolbox           |
|  \\    /   O peration     | Version:  2.4.0                                 |
|   \\  /    A nd           | Web:      www.OpenFOAM.org                      |
|    \\/     M anipulation  |                                                 |
\*---------------------------------------------------------------------------*/
FoamFile
{
    version     2.0;
    format      ascii;
    class       surfaceScalarField;
    location    "8252";
    object      phi;
}
// * * * * * * * * * * * * * * * * * * * * * * * * * * * * * * * * * * * * * //

dimensions      [0 3 -1 0 0 0 0];

internalField   nonuniform List<scalar> 
63640
(
1.4956694e-06
-2.8730759e-07
1.8243054e-06
-3.2863419e-07
1.8024553e-06
2.1849647e-08
1.5306757e-06
2.7178489e-07
9.1601883e-07
6.1465743e-07
1.6986488e-07
7.4615561e-07
-4.0720443e-07
5.7706863e-07
-6.2114708e-07
2.1394394e-07
-5.9002579e-07
-3.1120535e-08
-5.2704643e-07
-6.2978774e-08
-4.6352555e-07
-6.3520463e-08
-4.1466712e-07
-4.8858714e-08
-3.8065381e-07
-3.4013512e-08
-3.558929e-07
-2.476128e-08
-3.3592781e-07
-1.9964207e-08
-3.1812584e-07
-1.7802782e-08
-3.0393368e-07
-1.4191615e-08
-2.9486833e-07
-9.0660877e-09
-2.8965548e-07
-5.2124583e-09
-2.8719654e-07
-2.4597875e-09
-2.8810073e-07
9.0446281e-10
-2.9255505e-07
4.454485e-09
-3.0103155e-07
8.4765987e-09
-3.1392054e-07
1.2888787e-08
-3.3122265e-07
1.7301902e-08
-3.5228149e-07
2.1058516e-08
-3.7474361e-07
2.2461879e-08
-3.9773016e-07
2.2986266e-08
-4.2188813e-07
2.4157778e-08
-4.4698506e-07
2.5096666e-08
-4.7240966e-07
2.5424362e-08
-4.9736924e-07
2.4959275e-08
-5.2089869e-07
2.3529604e-08
-5.420097e-07
2.1110659e-08
-5.6075256e-07
1.8743161e-08
-5.7924071e-07
1.8488031e-08
-5.9888533e-07
1.9644918e-08
-6.171311e-07
1.8245651e-08
-6.3246285e-07
1.5332112e-08
-6.4415363e-07
1.1690717e-08
-6.5156706e-07
7.4138857e-09
-6.5438084e-07
2.8135407e-09
-6.5339621e-07
-9.8394011e-10
-6.5099485e-07
-2.4016462e-09
-6.5465673e-07
3.6627012e-09
-7.0398306e-07
4.9325679e-08
-8.6440946e-07
1.6042809e-07
-9.9420085e-07
1.2979143e-07
-1.0848821e-06
9.0682693e-08
-1.1510885e-06
6.6205809e-08
-1.2021912e-06
5.1105183e-08
-1.2406092e-06
3.841784e-08
-1.2702852e-06
2.9677653e-08
-1.2919715e-06
2.1685251e-08
-1.3074886e-06
1.5518137e-08
-1.3172844e-06
9.794162e-09
-1.3223467e-06
5.0640936e-09
-1.3229905e-06
6.4265128e-10
-1.319703e-06
-3.2862479e-09
-1.3127182e-06
-6.9868453e-09
-1.3024095e-06
-1.0306964e-08
-1.2890194e-06
-1.3391882e-08
-1.2728323e-06
-1.618509e-08
-1.2540696e-06
-1.876421e-08
-1.2329672e-06
-2.1100437e-08
-1.209729e-06
-2.3239662e-08
-1.1845584e-06
-2.51684e-08
-1.1576435e-06
-2.6916223e-08
-1.1291673e-06
-2.8474678e-08
-1.0993019e-06
-2.9867462e-08
-1.0682122e-06
-3.1088823e-08
-1.0360532e-06
-3.216153e-08
-1.0029755e-06
-3.307647e-08
-9.6911844e-07
-3.3859198e-08
-9.3461139e-07
-3.4505812e-08
-8.9957148e-07
-3.5041943e-08
-8.641093e-07
-3.5460816e-08
-8.2834934e-07
-3.5761501e-08
-7.9239409e-07
-3.5954447e-08
-7.5631899e-07
-3.6077218e-08
-7.2020616e-07
-3.6111577e-08
-6.8413375e-07
-3.6073885e-08
-6.4818459e-07
-3.5948732e-08
-6.1241534e-07
-3.5771379e-08
-5.7688278e-07
-3.5532656e-08
-5.4165244e-07
-3.523285e-08
-5.0676297e-07
-3.4889229e-08
-4.7225614e-07
-3.4508822e-08
-4.3817773e-07
-3.407776e-08
-4.0455179e-07
-3.3625735e-08
-3.7141718e-07
-3.3134541e-08
-3.3879641e-07
-3.2619972e-08
-3.0670671e-07
-3.2090801e-08
-2.7517393e-07
-3.1531645e-08
-2.4420228e-07
-3.0972406e-08
-2.1379311e-07
-3.040872e-08
-1.8396238e-07
-2.9831851e-08
-1.5473141e-07
-2.923054e-08
-1.2615834e-07
-2.857389e-08
-9.8316559e-08
-2.7841843e-08
-7.123962e-08
-2.7078171e-08
-4.4927131e-08
-2.6311866e-08
-1.9381528e-08
-2.5546191e-08
5.421632e-09
-2.48027e-08
2.9516876e-08
-2.4096063e-08
5.2913845e-08
-2.3396826e-08
7.5620751e-08
-2.2707971e-08
9.76493e-08
-2.2028133e-08
1.1899637e-07
-2.1347722e-08
1.3966641e-07
-2.0669646e-08
1.596682e-07
-2.0002475e-08
1.7899881e-07
-1.93301e-08
1.9766618e-07
-1.8667892e-08
2.1566889e-07
-1.8002413e-08
2.3300739e-07
-1.7339337e-08
2.4969006e-07
-1.6682153e-08
2.6571198e-07
-1.6022405e-08
2.8107288e-07
-1.5360286e-08
2.9577823e-07
-1.4705799e-08
3.0982194e-07
-1.4043438e-08
3.2320074e-07
-1.3379758e-08
3.3591727e-07
-1.271586e-08
3.4796258e-07
-1.2045718e-08
3.5932981e-07
-1.136677e-08
3.7001714e-07
-1.068809e-08
3.8001153e-07
-9.994258e-09
3.8930128e-07
-9.2908875e-09
3.9787764e-07
-8.5756494e-09
4.0572256e-07
-7.8454767e-09
4.1281534e-07
-7.0924284e-09
4.1914013e-07
-6.3258493e-09
4.2466621e-07
-5.5254767e-09
4.2936716e-07
-4.7018258e-09
4.332048e-07
-3.837439e-09
4.3614387e-07
-2.9404289e-09
4.3812718e-07
-1.9832134e-09
4.3911434e-07
-9.8890519e-10
4.3903239e-07
8.3061766e-11
4.3784629e-07
1.1852329e-09
4.3541009e-07
2.436728e-09
4.3166069e-07
3.7476761e-09
4.2635126e-07
5.3102484e-09
4.1945178e-07
6.8976316e-09
4.1057154e-07
8.8817016e-09
3.9975637e-07
1.0813608e-08
3.863105e-07
1.3446466e-08
3.7048442e-07
1.5823038e-08
3.5091843e-07
1.9567416e-08
3.2825591e-07
2.2659521e-08
2.9977976e-07
2.847822e-08
2.6680574e-07
3.2970689e-08
2.2372397e-07
4.308319e-08
1.714755e-07
5.2242653e-08
9.7900056e-08
7.3577853e-08
7.9886595e-08
1.800573e-08
8.5694817e-08
-5.8072357e-09
1.0369285e-07
-1.8002767e-08
1.2678299e-07
-2.309001e-08
1.5459396e-07
-2.7813808e-08
1.8404948e-07
-2.9456233e-08
2.16653e-07
-3.2605384e-08
2.512089e-07
-3.4559036e-08
2.883977e-07
-3.7192031e-08
3.2832391e-07
-3.9934524e-08
3.7323888e-07
-4.4919676e-08
4.2425174e-07
-5.1025314e-08
4.7857229e-07
-5.4324125e-08
5.3496111e-07
-5.6402323e-08
5.9335175e-07
-5.8391526e-08
6.5332066e-07
-5.9972558e-08
7.1468275e-07
-6.1364294e-08
7.7639573e-07
-6.1713429e-08
8.3683033e-07
-6.0435635e-08
8.9028844e-07
-5.3457279e-08
9.3543956e-07
-4.5151878e-08
9.7403166e-07
-3.8592676e-08
1.0137726e-06
-3.9741715e-08
1.0530056e-06
-3.9233263e-08
1.0930828e-06
-4.0079452e-08
1.1359127e-06
-4.2836691e-08
1.1837344e-06
-4.7832011e-08
1.2404097e-06
-5.6662269e-08
1.3145317e-06
-7.4113776e-08
1.4238472e-06
-1.0931515e-07
1.5633313e-06
-1.3948564e-07
1.7304833e-06
-1.6716786e-07
1.9328146e-06
-2.0232656e-07
2.1820001e-06
-2.4919649e-07
2.4962694e-06
-3.1425514e-07
2.8914007e-06
-3.9513388e-07
3.3797466e-06
-4.883457e-07
3.9062001e-06
-5.2644819e-07
4.3233973e-06
-4.1718721e-07
4.2476149e-06
7.579279e-08
3.7225441e-06
5.2508749e-07
2.9289385e-06
7.9361066e-07
2.2058736e-06
7.2307489e-07
1.5698855e-06
6.3598441e-07
1.2917523e-06
2.7814198e-07
8.3380752e-08
5.0011664e-06
-1.1109049e-06
5.7958709e-06
-1.1233365e-06
5.888107e-06
-7.0386977e-08
4.9692557e-06
1.1906427e-06
3.1236558e-06
2.4602582e-06
7.5699585e-07
3.1128178e-06
-1.1326048e-06
2.4666688e-06
-1.9085533e-06
9.8989402e-07
-1.8467907e-06
-9.288198e-08
-1.6608698e-06
-2.4889881e-07
-1.4673553e-06
-2.5703435e-07
-1.3165907e-06
-1.9962346e-07
-1.2107515e-06
-1.3985283e-07
-1.1336748e-06
-1.0183826e-07
-1.0714997e-06
-8.213817e-08
-1.0165708e-06
-7.2732374e-08
-9.7298156e-07
-5.7780274e-08
-9.4529745e-07
-3.6750948e-08
-9.2970577e-07
-2.0803705e-08
-9.2300751e-07
-9.1588874e-09
-9.2686298e-07
4.7604127e-09
-9.4204242e-07
1.9634228e-08
-9.6992064e-07
3.6355049e-08
-1.0116698e-06
5.4637832e-08
-1.0672771e-06
7.2909002e-08
-1.1344218e-06
8.820286e-08
-1.2060734e-06
9.4113215e-08
-1.2795028e-06
9.6415355e-08
-1.3565402e-06
1.0119505e-07
-1.436559e-06
1.0511513e-07
-1.5176228e-06
1.0648792e-07
-1.5973271e-06
1.0466324e-07
-1.6727037e-06
9.8906291e-08
-1.7408912e-06
8.9297866e-08
-1.8021515e-06
8.000382e-08
-1.8629442e-06
7.9280611e-08
-1.9269458e-06
8.3646863e-08
-1.9870037e-06
7.8303438e-08
-2.0379331e-06
6.6261965e-08
-2.0780785e-06
5.1835994e-08
-2.1046172e-06
3.3953115e-08
-2.1184334e-06
1.6629489e-08
-2.1194075e-06
-9.0670153e-12
-2.1210197e-06
-7.8965859e-10
-2.1392395e-06
2.1883364e-08
-2.3141272e-06
2.2421272e-07
-2.796207e-06
6.4250985e-07
-3.2037514e-06
5.3733598e-07
-3.4810739e-06
3.6800687e-07
-3.6879507e-06
2.7308202e-07
-3.8439959e-06
2.0715319e-07
-3.9628117e-06
1.5723357e-07
-4.0527225e-06
1.1959019e-07
-4.1186434e-06
8.7605002e-08
-4.1645669e-06
6.1442767e-08
-4.193003e-06
3.8228305e-08
-4.2063115e-06
1.8374599e-08
-4.2059588e-06
2.8879877e-10
-4.1931407e-06
-1.6103134e-08
-4.1688112e-06
-3.1318775e-08
-4.134001e-06
-4.5115245e-08
-4.0895697e-06
-5.7825177e-08
-4.0363483e-06
-6.9404333e-08
-3.9750762e-06
-8.0037961e-08
-3.9064669e-06
-8.9707517e-08
-3.8311803e-06
-9.8527786e-08
-3.7498445e-06
-1.0650177e-07
-3.6630578e-06
-1.1370436e-07
-3.5713902e-06
-1.2014059e-07
-3.4753853e-06
-1.2587468e-07
-3.3755589e-06
-1.3091438e-07
-3.2723987e-06
-1.3532481e-07
-3.1663759e-06
-1.3909796e-07
-3.0579276e-06
-1.4231003e-07
-2.9474604e-06
-1.4497174e-07
-2.8353402e-06
-1.4716441e-07
-2.7219167e-06
-1.4888285e-07
-2.6075761e-06
-1.5010372e-07
-2.4926421e-06
-1.5088772e-07
-2.3773516e-06
-1.5137005e-07
-2.2619626e-06
-1.5149924e-07
-2.1467199e-06
-1.513182e-07
-2.0318821e-06
-1.5078608e-07
-1.9176295e-06
-1.5002637e-07
-1.8041394e-06
-1.4902306e-07
-1.6916159e-06
-1.4775916e-07
-1.5801837e-06
-1.4632127e-07
-1.4699716e-06
-1.4472328e-07
-1.3611244e-06
-1.4292412e-07
-1.2537186e-06
-1.4103133e-07
-1.1478751e-06
-1.3897796e-07
-1.0436657e-06
-1.3682856e-07
-9.4114414e-07
-1.3461362e-07
-8.4039158e-07
-1.3228295e-07
-7.414233e-07
-1.299415e-07
-6.4424559e-07
-1.2758597e-07
-5.4891387e-07
-1.2516482e-07
-4.5550382e-07
-1.2264012e-07
-3.6419916e-07
-1.1987944e-07
-2.7522855e-07
-1.1681256e-07
-1.8868952e-07
-1.1361859e-07
-1.0458253e-07
-1.1041816e-07
-2.2914014e-08
-1.0721531e-07
5.6394337e-08
-1.0411055e-07
1.3345217e-07
-1.0115478e-07
2.0828923e-07
-9.8233776e-08
2.8093194e-07
-9.5351876e-08
3.5141506e-07
-9.2510803e-08
4.1972874e-07
-8.9662122e-08
4.8588787e-07
-8.682836e-08
5.499178e-07
-8.4033179e-08
6.1181044e-07
-8.1222171e-08
6.7159009e-07
-7.8448105e-08
7.2925086e-07
-7.5662908e-08
7.8479624e-07
-7.2885682e-08
8.3824976e-07
-7.0135116e-08
8.8959663e-07
-6.7369819e-08
9.3883649e-07
-6.4599477e-08
9.8598482e-07
-6.1854628e-08
1.0310223e-06
-5.9080664e-08
1.0739396e-06
-5.629818e-08
1.1147429e-06
-5.3518416e-08
1.153404e-06
-5.0707248e-08
1.1899021e-06
-4.7864508e-08
1.2242291e-06
-4.5015953e-08
1.2563445e-06
-4.2109509e-08
1.2862109e-06
-3.9158572e-08
1.3137999e-06
-3.6163966e-08
1.3390526e-06
-3.3098687e-08
1.3619068e-06
-2.9946316e-08
1.382306e-06
-2.6726213e-08
1.4001593e-06
-2.337818e-08
1.4153741e-06
-1.9917561e-08
1.4278406e-06
-1.6303844e-08
1.4374289e-06
-1.2530227e-08
1.4439837e-06
-8.5379667e-09
1.4473369e-06
-4.3440429e-09
1.4473147e-06
1.0648788e-10
1.4437231e-06
4.7759276e-09
1.436222e-06
9.9383623e-09
1.4244314e-06
1.55364e-08
1.4078316e-06
2.1910968e-08
1.3859453e-06
2.8781889e-08
1.3580843e-06
3.6744306e-08
1.3235884e-06
4.5307836e-08
1.2814273e-06
5.5608146e-08
1.2306666e-06
6.6580276e-08
1.1695072e-06
8.0728298e-08
1.0963256e-06
9.5837917e-08
1.0078219e-06
1.1698411e-07
9.0044326e-07
1.4034574e-07
7.6758773e-07
1.7594e-07
5.9597163e-07
2.2385225e-07
3.7316533e-07
2.9638642e-07
3.0768821e-07
8.3474233e-08
3.2756571e-07
-2.5684051e-08
3.8038503e-07
-7.082755e-08
4.5391499e-07
-9.6620465e-08
5.3946227e-07
-1.133646e-07
6.3257854e-07
-1.2257392e-07
7.3413027e-07
-1.3415931e-07
8.4291686e-07
-1.4334902e-07
9.5934148e-07
-1.5361907e-07
1.0848786e-06
-1.6547901e-07
1.2258114e-06
-1.8585559e-07
1.3854553e-06
-2.1068013e-07
1.5556277e-06
-2.2449873e-07
1.7324995e-06
-2.3328681e-07
1.9156231e-06
-2.4151621e-07
2.1039741e-06
-2.4832724e-07
2.2964847e-06
-2.5387692e-07
2.4906191e-06
-2.5584792e-07
2.6801957e-06
-2.5001328e-07
2.8493583e-06
-2.2261909e-07
2.9924981e-06
-1.882931e-07
3.1164919e-06
-1.6258693e-07
3.2420119e-06
-1.6526226e-07
3.3665477e-06
-1.6376867e-07
3.4931605e-06
-1.6669353e-07
3.627982e-06
-1.7766135e-07
3.7783731e-06
-1.9823118e-07
3.9554112e-06
-2.3369059e-07
4.1879083e-06
-3.0660694e-07
4.5252271e-06
-4.466341e-07
4.9572111e-06
-5.71472e-07
5.4768222e-06
-6.867957e-07
6.1054526e-06
-8.3095141e-07
6.881563e-06
-1.0253174e-06
7.8551598e-06
-1.287835e-06
9.0825896e-06
-1.6225651e-06
1.058149e-05
-1.9872441e-06
1.2214497e-05
-2.159447e-06
1.3484864e-05
-1.6875418e-06
1.3375356e-05
1.8531423e-07
1.1851769e-05
2.0486942e-06
9.5458759e-06
3.0995097e-06
7.2530564e-06
3.0159062e-06
5.3921374e-06
2.4968987e-06
4.2914614e-06
1.3788289e-06
1.9726131e-07
9.253976e-06
-2.4528827e-06
1.0452853e-05
-2.3222108e-06
1.0704571e-05
-3.2210542e-07
9.0690212e-06
2.8261992e-06
5.8880197e-06
5.6412608e-06
1.6866622e-06
7.314178e-06
-1.7840891e-06
5.9374198e-06
-3.3083704e-06
2.5141769e-06
-3.261003e-06
-1.4024791e-07
-2.9511062e-06
-5.5879445e-07
-2.6176608e-06
-5.9047879e-07
-2.3546663e-06
-4.626177e-07
-2.1687012e-06
-3.2581784e-07
-2.0330227e-06
-2.3751688e-07
-1.9235266e-06
-1.9163295e-07
-1.8272283e-06
-1.6903125e-07
-1.7509963e-06
-1.3401142e-07
-1.7027639e-06
-8.4984039e-08
-1.6760405e-06
-4.7526537e-08
-1.6653838e-06
-1.9816389e-08
-1.673512e-06
1.2889272e-08
-1.7019284e-06
4.8051061e-08
-1.7529694e-06
8.73965e-08
-1.8286351e-06
1.303036e-07
-1.9288379e-06
1.7311175e-07
-2.0492409e-06
2.0860571e-07
-2.1777323e-06
2.2260444e-07
-2.3095082e-06
2.2819096e-07
-2.4475832e-06
2.3926994e-07
-2.5909361e-06
2.4846784e-07
-2.7361294e-06
2.5168101e-07
-2.878999e-06
2.4753257e-07
-3.0144135e-06
2.3432104e-07
-3.1375989e-06
2.1248287e-07
-3.2491963e-06
1.9160174e-07
-3.360329e-06
1.9041326e-07
-3.476813e-06
2.001313e-07
-3.5868024e-06
1.8829275e-07
-3.680972e-06
1.6043205e-07
-3.7568178e-06
1.2768174e-07
-3.8090447e-06
8.6180628e-08
-3.8405355e-06
4.8120116e-08
-3.84995e-06
9.4062641e-09
-3.8651677e-06
1.4427742e-08
-3.9120517e-06
6.876841e-08
-4.2421744e-06
5.5433469e-07
-5.0707954e-06
1.471133e-06
-5.7838879e-06
1.2504286e-06
-6.2651254e-06
8.4924615e-07
-6.6264422e-06
6.3439809e-07
-6.8962352e-06
4.7694915e-07
-7.1021567e-06
3.6315495e-07
-7.2562343e-06
2.736698e-07
-7.3687433e-06
2.0011267e-07
-7.4455928e-06
1.3829346e-07
-7.4919144e-06
8.4547841e-08
-7.5113882e-06
3.7850589e-08
-7.506887e-06
-4.2137345e-09
-7.4802959e-06
-4.2692963e-08
-7.4334634e-06
-7.8153801e-08
-7.3681173e-06
-1.1045934e-07
-7.2858404e-06
-1.4010422e-07
-7.1880605e-06
-1.6718195e-07
-7.0761134e-06
-1.9198683e-07
-6.9512419e-06
-2.1457672e-07
-6.8146245e-06
-2.3514678e-07
-6.6673638e-06
-2.5375984e-07
-6.5105214e-06
-2.7054839e-07
-6.3451009e-06
-2.8555929e-07
-6.1720634e-06
-2.9891458e-07
-5.9923183e-06
-3.1065862e-07
-5.8067261e-06
-3.2092021e-07
-5.6161178e-06
-3.2970491e-07
-5.4212631e-06
-3.3716729e-07
-5.2228805e-06
-3.43353e-07
-5.0216138e-06
-3.4843358e-07
-4.8180814e-06
-3.5241358e-07
-4.6129609e-06
-3.5522607e-07
-4.4068244e-06
-3.5702334e-07
-4.2000911e-06
-3.5810595e-07
-3.9932158e-06
-3.5837306e-07
-3.7866298e-06
-3.579059e-07
-3.5807884e-06
-3.5662703e-07
-3.3760121e-06
-3.548053e-07
-3.1726122e-06
-3.5242314e-07
-2.9709484e-06
-3.4942609e-07
-2.7712433e-06
-3.4602611e-07
-2.5737222e-06
-3.4224685e-07
-2.3786425e-06
-3.3800303e-07
-2.1861394e-06
-3.3353415e-07
-1.9964259e-06
-3.2869128e-07
-1.8096297e-06
-3.2362385e-07
-1.6258452e-06
-3.1839942e-07
-1.4452163e-06
-3.1291055e-07
-1.2677725e-06
-3.0738614e-07
-1.0935285e-06
-3.0182941e-07
-9.2259105e-07
-2.9610362e-07
-7.5510592e-07
-2.9012474e-07
-5.9140071e-07
-2.8358562e-07
-4.318754e-07
-2.76338e-07
-2.7669184e-07
-2.6880366e-07
-1.2585112e-07
-2.6125814e-07
2.0633562e-08
-2.5370068e-07
1.6290537e-07
-2.4638184e-07
3.0116337e-07
-2.3941375e-07
4.3545744e-07
-2.3252773e-07
5.6583352e-07
-2.2572925e-07
6.9235074e-07
-2.1902754e-07
8.149913e-07
-2.1230348e-07
9.337823e-07
-2.0561891e-07
1.0487662e-06
-1.9901791e-07
1.1599294e-06
-1.9238473e-07
1.267314e-06
-1.8583339e-07
1.3709081e-06
-1.7925673e-07
1.4707197e-06
-1.7269833e-07
1.5667875e-06
-1.6620228e-07
1.6590855e-06
-1.5966844e-07
1.7476138e-06
-1.5312699e-07
1.8323974e-06
-1.4663885e-07
1.9134019e-06
-1.4008489e-07
1.9906118e-06
-1.3350922e-07
2.0640352e-06
-1.2694104e-07
2.1336221e-06
-1.2029461e-07
2.1993366e-06
-1.135785e-07
2.2611611e-06
-1.0684142e-07
2.319024e-06
-9.9972317e-08
2.3728591e-06
-9.2995054e-08
2.4226143e-06
-8.5918353e-08
2.4681829e-06
-7.866789e-08
2.5094572e-06
-7.1220242e-08
2.546331e-06
-6.3601301e-08
2.5786469e-06
-5.5693411e-08
2.6062337e-06
-4.7505396e-08
2.628903e-06
-3.8972907e-08
2.6464106e-06
-3.0039498e-08
2.6584972e-06
-2.0624491e-08
2.6648361e-06
-1.0685033e-08
2.6651545e-06
-2.1064105e-10
2.6590526e-06
1.0876885e-08
2.6460082e-06
2.2983393e-08
2.6252237e-06
3.6318795e-08
2.5959507e-06
5.1184881e-08
2.5570825e-06
6.7647947e-08
2.5077597e-06
8.6068871e-08
2.4462686e-06
1.0679711e-07
2.3715589e-06
1.303185e-07
2.280804e-06
1.5733146e-07
2.1724851e-06
1.8904891e-07
2.0412455e-06
2.2707394e-07
1.884784e-06
2.7344807e-07
1.6915742e-06
3.3355156e-07
1.4573596e-06
4.1015599e-07
1.1476264e-06
5.3357848e-07
7.6071373e-07
6.833016e-07
6.3658591e-07
2.0759272e-07
6.7071015e-07
-5.9807497e-08
7.6013974e-07
-1.602632e-07
8.8962657e-07
-2.2610781e-07
1.038607e-06
-2.6234902e-07
1.2028173e-06
-2.8678565e-07
1.3810438e-06
-3.1238804e-07
1.5729524e-06
-3.3526116e-07
1.7780718e-06
-3.587401e-07
1.9998576e-06
-3.8727205e-07
2.2487658e-06
-4.3476547e-07
2.5304356e-06
-4.9236036e-07
2.8310628e-06
-5.2512678e-07
3.1439691e-06
-5.4620554e-07
3.4681272e-06
-5.6567443e-07
3.8018968e-06
-5.8209978e-07
4.143014e-06
-5.9499511e-07
4.4874781e-06
-6.0031098e-07
4.8235452e-06
-5.8608046e-07
5.1249041e-06
-5.2397629e-07
5.3807392e-06
-4.441288e-07
5.604018e-06
-3.8586557e-07
5.8281213e-06
-3.8936533e-07
6.0508069e-06
-3.8645301e-07
6.2767151e-06
-3.926022e-07
6.5167111e-06
-4.1765848e-07
6.7840919e-06
-4.656189e-07
7.0978925e-06
-5.4748207e-07
7.5101524e-06
-7.1886312e-07
8.1024712e-06
-1.0389522e-06
8.861622e-06
-1.3306242e-06
9.7761109e-06
-1.6013008e-06
1.0881704e-05
-1.9365366e-06
1.2246279e-05
-2.3899019e-06
1.3951526e-05
-2.9930609e-06
1.6097776e-05
-3.7688143e-06
1.8698853e-05
-4.5883174e-06
2.1535263e-05
-4.9958472e-06
2.3733143e-05
-3.8854074e-06
2.3683237e-05
2.3523161e-07
2.1198364e-05
4.5335865e-06
1.7361554e-05
6.9363251e-06
1.3362052e-05
7.0154194e-06
1.0175356e-05
5.6835902e-06
8.0628295e-06
3.4913665e-06
3.4808026e-07
1.4349644e-05
-4.2766362e-06
1.5951369e-05
-3.9239335e-06
1.632357e-05
-6.9430681e-07
1.3948737e-05
5.2010392e-06
9.3064601e-06
1.0283539e-05
3.057346e-06
1.3563295e-05
-2.3060276e-06
1.1300793e-05
-4.8024331e-06
5.0105842e-06
-4.8361411e-06
-1.0653856e-07
-4.4064521e-06
-9.8848236e-07
-3.9251174e-06
-1.0718126e-06
-3.5403101e-06
-8.4742493e-07
-3.2661633e-06
-5.9996458e-07
-3.0656095e-06
-4.3807098e-07
-2.9037517e-06
-3.5348968e-07
-2.7619018e-06
-3.1088171e-07
-2.6499253e-06
-2.4598734e-07
-2.5794274e-06
-1.5548264e-07
-2.5411125e-06
-8.5841027e-08
-2.5271184e-06
-3.3811229e-08
-2.5413022e-06
2.7073686e-08
-2.5859959e-06
9.274514e-08
-2.6645904e-06
1.6599137e-07
-2.7799393e-06
2.4565239e-07
-2.9317528e-06
3.2492512e-07
-3.1133635e-06
3.9021608e-07
-3.307127e-06
4.1636772e-07
-3.5059407e-06
4.2700433e-07
-3.714037e-06
4.4736605e-07
-3.9299404e-06
4.6437085e-07
-4.1485994e-06
4.7033983e-07
-4.3639153e-06
4.6284811e-07
-4.5684707e-06
4.3887652e-07
-4.7555933e-06
3.996052e-07
-4.9265129e-06
3.6252167e-07
-5.0972282e-06
3.6112853e-07
-5.2756695e-06
3.7857301e-07
-5.4450085e-06
3.5763162e-07
-5.5915678e-06
3.069918e-07
-5.7118214e-06
2.4793531e-07
-5.7982323e-06
1.7259194e-07
-5.8557402e-06
1.0562785e-07
-5.8831098e-06
3.6776578e-08
-5.9235484e-06
5.4866202e-08
-6.0193922e-06
1.6461302e-07
-6.5329045e-06
1.0678464e-06
-7.7361068e-06
2.6743371e-06
-8.7780858e-06
2.292408e-06
-9.4813494e-06
1.5525113e-06
-1.0009023e-05
1.1620714e-06
-1.0401187e-05
8.6911538e-07
-1.0699652e-05
6.6162054e-07
-1.0921203e-05
4.9522218e-07
-1.1081542e-05
3.6045024e-07
-1.1188971e-05
2.4572428e-07
-1.1251328e-05
1.4690268e-07
-1.1273873e-05
6.0397952e-08
-1.1260919e-05
-1.7169571e-08
-1.1215166e-05
-8.8444833e-08
-1.1139464e-05
-1.5385792e-07
-1.1036342e-05
-2.1357999e-07
-1.0908174e-05
-2.6827338e-07
-1.0757067e-05
-3.182876e-07
-1.0585014e-05
-3.6404073e-07
-1.0393855e-05
-4.0573393e-07
-1.0185344e-05
-4.4365946e-07
-9.9611141e-06
-4.7798721e-07
-9.7227424e-06
-5.0892134e-07
-9.4717165e-06
-5.3658368e-07
-9.2094615e-06
-5.6117175e-07
-8.9373244e-06
-5.8279509e-07
-8.6565802e-06
-6.0166737e-07
-8.3684592e-06
-6.1782489e-07
-8.0741005e-06
-6.3152831e-07
-7.7745688e-06
-6.4288364e-07
-7.4708168e-06
-6.5218781e-07
-7.1637611e-06
-6.5946785e-07
-6.8544012e-06
-6.6458764e-07
-6.5435861e-06
-6.6783769e-07
-6.2319379e-06
-6.6975653e-07
-5.9201307e-06
-6.7017903e-07
-5.6088019e-06
-6.6923618e-07
-5.2986253e-06
-6.668033e-07
-4.9900786e-06
-6.6335443e-07
-4.6836215e-06
-6.5888065e-07
-4.3797861e-06
-6.5326436e-07
-4.0789056e-06
-6.4690652e-07
-3.7813119e-06
-6.3984289e-07
-3.4873882e-06
-6.3192585e-07
-3.197336e-06
-6.2358611e-07
-2.9114707e-06
-6.1455653e-07
-2.6299822e-06
-6.0511162e-07
-2.3530102e-06
-5.953726e-07
-2.080769e-06
-5.8515055e-07
-1.8133065e-06
-5.7484933e-07
-1.5506503e-06
-5.6448524e-07
-1.2929731e-06
-5.5378204e-07
-1.0405091e-06
-5.4258834e-07
-7.937506e-07
-5.3034497e-07
-5.5328406e-07
-5.1680472e-07
-3.193349e-07
-5.027542e-07
-9.1904918e-08
-4.8868747e-07
1.2897569e-07
-4.7458186e-07
3.4353984e-07
-4.6094554e-07
5.5209704e-07
-4.479718e-07
7.547068e-07
-4.3513745e-07
9.5143645e-07
-4.224601e-07
1.1423709e-06
-4.0996154e-07
1.3274827e-06
-3.9741599e-07
1.5068128e-06
-3.849487e-07
1.6804216e-06
-3.7262743e-07
1.8482889e-06
-3.6025152e-07
2.0104766e-06
-3.4802161e-07
2.1669648e-06
-3.3574468e-07
2.3177671e-06
-3.2350149e-07
2.4629375e-06
-3.1137217e-07
2.6024372e-06
-2.9916872e-07
2.7362671e-06
-2.8695617e-07
2.8644615e-06
-2.7483374e-07
2.9869684e-06
-2.6259158e-07
3.1037656e-06
-2.5030749e-07
3.214862e-06
-2.3803672e-07
3.3201824e-06
-2.2561541e-07
3.4196741e-06
-2.1306983e-07
3.5133075e-06
-2.0047566e-07
3.6009752e-06
-1.8764001e-07
3.6825786e-06
-1.7459976e-07
3.7580372e-06
-1.6137614e-07
3.82719e-06
-1.4782123e-07
3.8898775e-06
-1.3390745e-07
3.9459363e-06
-1.1966133e-07
3.9951325e-06
-1.0488903e-07
4.0372069e-06
-8.958066e-08
4.0718788e-06
-7.3644687e-08
4.0987771e-06
-5.6939353e-08
4.1175198e-06
-3.9367291e-08
4.1276054e-06
-2.0772476e-08
4.1286364e-06
-1.2404286e-09
4.1199927e-06
1.9519695e-08
4.1009326e-06
4.204389e-08
4.0702109e-06
6.703873e-08
4.0267839e-06
9.4612585e-08
3.9688841e-06
1.2554582e-07
3.8953761e-06
1.5957837e-07
3.8034701e-06
1.9870158e-07
3.6919199e-06
2.4186895e-07
3.5559936e-06
2.9325447e-07
3.3941348e-06
3.5090893e-07
3.1972631e-06
4.2394257e-07
2.9634707e-06
5.0724246e-07
2.6732684e-06
6.2375048e-07
2.3234597e-06
7.5996545e-07
1.8579172e-06
9.991146e-07
1.2887246e-06
1.2524959e-06
1.0960722e-06
4.0023674e-07
1.1421763e-06
-1.0591146e-07
1.2706146e-06
-2.8870704e-07
1.460612e-06
-4.1610624e-07
1.6791516e-06
-4.8089247e-07
1.9215553e-06
-5.2919128e-07
2.1845425e-06
-5.7537748e-07
2.468473e-06
-6.1919497e-07
2.772103e-06
-6.6237155e-07
3.1010196e-06
-7.1619445e-07
3.4702146e-06
-8.0396188e-07
3.8876956e-06
-9.0984987e-07
4.3338504e-06
-9.712826e-07
4.7989124e-06
-1.0112784e-06
5.281122e-06
-1.0478855e-06
5.7780683e-06
-1.0790497e-06
6.2861655e-06
-1.103094e-06
6.7996728e-06
-1.1138181e-06
7.3007516e-06
-1.0871602e-06
7.7518278e-06
-9.7505195e-07
8.1365647e-06
-8.2886749e-07
8.4740643e-06
-7.2336556e-07
8.8109227e-06
-7.2622398e-07
9.145493e-06
-7.2102231e-07
9.4843731e-06
-7.3148259e-07
9.84356e-06
-7.7684493e-07
1.02429e-05
-8.6496422e-07
1.0710595e-05
-1.0151714e-06
1.1323844e-05
-1.332113e-06
1.2198334e-05
-1.9134422e-06
1.3318966e-05
-2.4512599e-06
1.4670522e-05
-2.9528717e-06
1.6303859e-05
-3.569869e-06
1.8317314e-05
-4.4033652e-06
2.0825957e-05
-5.501686e-06
2.3972003e-05
-6.914861e-06
2.7764627e-05
-8.3809376e-06
3.1889851e-05
-9.1210609e-06
3.5107818e-05
-7.1033594e-06
3.5222058e-05
1.2100566e-07
3.1867775e-05
7.8878911e-06
2.6497567e-05
1.2306539e-05
2.071795e-05
1.2795049e-05
1.6055815e-05
1.034572e-05
1.2822862e-05
6.7243313e-06
6.450393e-07
2.0423256e-05
-6.5161878e-06
2.2411488e-05
-5.912162e-06
2.2849331e-05
-1.1321506e-06
1.9719604e-05
8.3307738e-06
1.3495705e-05
1.6507439e-05
4.9833805e-06
2.2075622e-05
-2.6243102e-06
1.8908484e-05
-6.3673902e-06
8.7536659e-06
-6.5736618e-06
9.9734576e-08
-6.0353147e-06
-1.5268281e-06
-5.4009479e-06
-1.7061782e-06
-4.8858846e-06
-1.3624879e-06
-4.5158872e-06
-9.6996175e-07
-4.2443117e-06
-7.0964659e-07
-4.0251434e-06
-5.7265672e-07
-3.8337082e-06
-5.0231736e-07
-3.6830928e-06
-3.9660196e-07
-3.5888529e-06
-2.4972307e-07
-3.5388007e-06
-1.3589281e-07
-3.5225001e-06
-5.0112469e-08
-3.5450258e-06
4.9600052e-08
-3.6096435e-06
1.5736337e-07
-3.7208811e-06
2.772295e-07
-3.8824554e-06
4.0722675e-07
-4.0937088e-06
5.361786e-07
-4.3452944e-06
6.4180137e-07
-4.6135967e-06
6.8466996e-07
-4.8889958e-06
7.0240309e-07
-5.1769491e-06
7.3531926e-07
-5.4755056e-06
7.6292714e-07
-5.7778335e-06
7.7266752e-07
-6.0757719e-06
7.6078622e-07
-6.3595398e-06
7.2264467e-07
-6.6206436e-06
6.6070869e-07
-6.8611419e-06
6.0302047e-07
-7.1020615e-06
6.0204814e-07
-7.3533411e-06
6.2985303e-07
-7.5929297e-06
5.9722019e-07
-7.8026646e-06
5.1672717e-07
-7.9778203e-06
4.2309103e-07
-8.1089614e-06
3.0373357e-07
-8.2031814e-06
1.9984772e-07
-8.2609832e-06
9.4579154e-08
-8.3417462e-06
1.3562904e-07
-8.5114328e-06
3.3430053e-07
-9.238293e-06
1.794706e-06
-1.0841081e-05
4.2771269e-06
-1.2232477e-05
3.6838043e-06
-1.3174304e-05
2.4943404e-06
-1.3878579e-05
1.8663452e-06
-1.4400301e-05
1.3908405e-06
-1.4795273e-05
1.0565926e-06
-1.5086194e-05
7.8614543e-07
-1.5294169e-05
5.6842411e-07
-1.5430417e-05
3.8197285e-07
-1.5505525e-05
2.2200865e-07
-1.5526603e-05
8.147823e-08
-1.5499406e-05
-4.4367746e-08
-1.5427608e-05
-1.6024144e-07
-1.5315182e-05
-2.6628669e-07
-1.5165566e-05
-3.6319384e-07
-1.4981999e-05
-4.5184262e-07
-1.4767344e-05
-5.3293995e-07
-1.4524322e-05
-6.070647e-07
-1.4255432e-05
-6.7462155e-07
-1.3963064e-05
-7.3602919e-07
-1.364944e-05
-7.9160932e-07
-1.3316702e-05
-8.4166046e-07
-1.2966873e-05
-8.8641108e-07
-1.2601888e-05
-9.2615879e-07
-1.2223576e-05
-9.6110636e-07
-1.1833667e-05
-9.9157937e-07
-1.1433829e-05
-1.0176613e-06
-1.1025608e-05
-1.0397522e-06
-1.0610448e-05
-1.0580429e-06
-1.018964e-05
-1.0729974e-06
-9.7644291e-06
-1.0846776e-06
-9.336165e-06
-1.0928534e-06
-8.9060021e-06
-1.0979999e-06
-8.4747858e-06
-1.1009753e-06
-8.0434316e-06
-1.1015319e-06
-7.6128022e-06
-1.0998671e-06
-7.1838115e-06
-1.0957937e-06
-6.757111e-06
-1.0900574e-06
-6.3333226e-06
-1.0826695e-06
-5.9131682e-06
-1.0734217e-06
-5.497104e-06
-1.0629706e-06
-5.0855781e-06
-1.0513712e-06
-4.6791138e-06
-1.0383893e-06
-4.2779853e-06
-1.0247142e-06
-3.8826212e-06
-1.0099206e-06
-3.4932803e-06
-9.9445167e-07
-3.1101519e-06
-9.7850224e-07
-2.7335291e-06
-9.6177205e-07
-2.3634826e-06
-9.4489657e-07
-2.0000586e-06
-9.2790883e-07
-1.6435139e-06
-9.1032795e-07
-1.2941933e-06
-8.9190857e-07
-9.5277641e-07
-8.7176273e-07
-6.2005025e-07
-8.4953111e-07
-2.963001e-07
-8.2650584e-07
1.845406e-08
-8.0344099e-07
3.2417025e-07
-7.8029868e-07
6.2121912e-07
-7.57994e-07
9.10027e-07
-7.3678061e-07
1.1906479e-06
-7.1575832e-07
1.4631722e-06
-6.9498572e-07
1.7277115e-06
-6.745004e-07
1.9842268e-06
-6.5393204e-07
2.2327745e-06
-6.3349602e-07
2.4734329e-06
-6.132867e-07
2.7061746e-06
-5.9299264e-07
2.9310822e-06
-5.7292985e-07
3.148126e-06
-5.5278827e-07
3.357326e-06
-5.3270255e-07
3.5587519e-06
-5.1279749e-07
3.7523496e-06
-4.9276698e-07
3.938121e-06
-4.7272696e-07
4.1161092e-06
-4.5282244e-07
4.2862418e-06
-4.3272396e-07
4.4484894e-06
-4.1255623e-07
4.6028597e-06
-3.9240632e-07
4.7492489e-06
-3.7200504e-07
4.8875857e-06
-3.5140616e-07
5.0178248e-06
-3.3071566e-07
5.1398181e-06
-3.0963338e-07
5.2534312e-06
-2.8821418e-07
5.358549e-06
-2.664932e-07
5.4549498e-06
-2.4422261e-07
5.5424152e-06
-2.2137256e-07
5.6207165e-06
-1.9796386e-07
5.6895319e-06
-1.7370384e-07
5.7485044e-06
-1.4855415e-07
5.7972461e-06
-1.2238634e-07
5.8352456e-06
-9.4940425e-08
5.8619773e-06
-6.6099126e-08
5.876748e-06
-3.5545227e-08
5.8790025e-06
-3.4936623e-09
5.8678876e-06
3.0633737e-08
5.8424015e-06
6.753041e-08
5.8008243e-06
1.0861395e-07
5.7417402e-06
1.5369744e-07
5.6626974e-06
2.0458659e-07
5.5621559e-06
2.6012148e-07
5.4362491e-06
3.2460671e-07
5.2833126e-06
3.9480578e-07
5.0967427e-06
4.7982089e-07
4.8745332e-06
5.7311968e-07
4.6039965e-06
6.9447598e-07
4.2828134e-06
8.2842761e-07
3.8837845e-06
1.0227758e-06
3.4030396e-06
1.2407111e-06
2.7630239e-06
1.6391236e-06
1.9932421e-06
2.0222794e-06
1.721245e-06
6.7222497e-07
1.775809e-06
-1.6047523e-07
1.9450288e-06
-4.5793276e-07
2.1995101e-06
-6.7058847e-07
2.4934173e-06
-7.7480369e-07
2.8208592e-06
-8.5663495e-07
3.1765775e-06
-9.3109808e-07
3.5613578e-06
-1.0039786e-06
3.9733457e-06
-1.0743605e-06
4.42039e-06
-1.163245e-06
4.9223221e-06
-1.3058949e-06
5.4895715e-06
-1.4771082e-06
6.0966167e-06
-1.5783283e-06
6.7304111e-06
-1.645084e-06
7.3882725e-06
-1.7057477e-06
8.0668113e-06
-1.7575914e-06
8.7610346e-06
-1.7973182e-06
9.4631533e-06
-1.8159355e-06
1.0148733e-05
-1.77274e-06
1.0768229e-05
-1.5945459e-06
1.1299474e-05
-1.3601134e-06
1.1767589e-05
-1.1914808e-06
1.2232602e-05
-1.1912358e-06
1.2693885e-05
-1.1823043e-06
1.3160434e-05
-1.1980306e-06
1.3653724e-05
-1.2701346e-06
1.4200742e-05
-1.4119875e-06
1.4840095e-05
-1.6545179e-06
1.5675802e-05
-2.1678191e-06
1.6859199e-05
-3.0968384e-06
1.8374991e-05
-3.9670537e-06
2.0205078e-05
-4.7829738e-06
2.2416034e-05
-5.7808174e-06
2.5136698e-05
-7.1240362e-06
2.8516516e-05
-8.8814846e-06
3.2735553e-05
-1.1133897e-05
3.7797459e-05
-1.3442838e-05
4.3284038e-05
-1.4607629e-05
4.7614662e-05
-1.143397e-05
4.8020174e-05
-2.8449267e-07
4.3931588e-05
1.1976496e-05
3.7075054e-05
1.9163079e-05
2.9484557e-05
2.0385558e-05
2.3212752e-05
1.6617521e-05
1.8759697e-05
1.1177399e-05
1.221018e-06
2.7608743e-05
-9.0712098e-06
2.994579e-05
-8.2492063e-06
3.0382584e-05
-1.5689453e-06
2.6490835e-05
1.2222531e-05
1.8579605e-05
2.441867e-05
7.594824e-06
3.3060406e-05
-2.6459591e-06
2.9149266e-05
-7.9686424e-06
1.4076351e-05
-8.4708395e-06
6.0193327e-07
-7.8442694e-06