y,R_0,R_1,R_2,R_3,R_4,R_5
0,6.6666667e-11,0,0,6.6666667e-11,0,6.6666667e-11
0.00048240845,1.9591149e-08,2.9320558e-12,-3.3260679e-34,1.9591158e-08,7.4107756e-34,1.9591154e-08
0.00098049384,1.0548319e-07,5.6399486e-11,-4.2490732e-33,1.0548356e-07,1.509209e-31,1.0548337e-07
0.0014947656,4.364769e-07,4.6917198e-10,3.4278336e-32,4.3648146e-07,6.8949409e-31,4.3647918e-07
0.0020257498,1.2645289e-06,2.3159619e-09,-8.0872877e-32,1.2645591e-06,-2.2365384e-30,1.264544e-06
0.0025739895,2.9321172e-06,8.2228491e-09,2.2412104e-31,2.9322556e-06,1.2878266e-29,2.9321864e-06
0.0031400454,5.8729777e-06,2.3342439e-08,3.0918435e-30,5.8734708e-06,7.6843317e-29,5.8732244e-06
0.0037244966,1.0621662e-05,5.6414634e-08,4.1477173e-30,1.0623131e-05,-1.1822374e-28,1.0622397e-05
0.0043279408,1.782591e-05,1.2075632e-07,-4.9328316e-30,1.7829741e-05,-5.9261946e-28,1.7827826e-05
0.0049509953,2.8260344e-05,2.3492352e-07,-5.0616437e-29,2.8269356e-05,-4.1883893e-28,2.8264852e-05
0.0055942973,4.2840239e-05,4.2263645e-07,-8.620963e-29,4.2859775e-05,1.7695234e-27,4.2850012e-05
0.0062585048,6.263348e-05,7.1133967e-07,2.2146014e-28,6.2673108e-05,6.2897747e-27,6.2653303e-05
0.0069442972,8.8867635e-05,1.1284859e-06,5.3229982e-28,8.8943707e-05,-4.1911741e-27,8.8905687e-05
0.007652376,0.00012292728,1.6943306e-06,-8.6444615e-28,0.00012306666,-1.140335e-26,0.000122997
0.0083834654,0.00016633437,2.4098554e-06,1.7672038e-28,0.00016657967,-1.0210294e-26,0.00016645707
0.0091383131,0.00022070204,3.2387501e-06,-2.5346134e-27,0.00022111877,-3.337528e-27,0.00022091047
0.0099176913,0.00028765081,4.0837745e-06,-1.5863864e-27,0.00028833663,4.3225038e-26,0.00028799382
0.010722397,0.00036867828,4.7609495e-06,1.5743175e-27,0.00036977451,3.2706384e-26,0.00036922651
0.011553254,0.00046498192,4.979901e-06,4.3843923e-27,0.00046668682,-8.4690155e-26,0.00046583448
0.012411111,0.00057725262,4.34342e-06,-1.0736039e-26,0.0005798353,-1.2582567e-25,0.000578544
0.013296846,0.0007054807,2.3792243e-06,-4.924022e-27,0.00070929406,1.3208424e-25,0.00070738726
0.014211364,0.00084883623,-1.3929311e-06,8.8345296e-27,0.00085432651,-3.4533309e-25,0.00085158097
0.015155603,0.0010056817,-7.3742338e-06,-6.3565158e-26,0.0010133927,-4.3198878e-25,0.0010095364
0.016130526,0.0011737377,-1.5811341e-05,-3.2097837e-26,0.0011843088,8.0411168e-25,0.0011790222
0.017137132,0.0013503655,-2.6762924e-05,3.8104879e-26,0.0013645234,5.3594768e-25,0.0013574431
0.018176449,0.0015328845,-4.0118217e-05,-2.6245067e-26,0.0015514311,-1.0292844e-24,0.0015421562
0.019249542,0.0017188399,-5.5652257e-05,-1.6549326e-25,0.0017426379,-9.6480622e-25,0.0017307373
0.020357507,0.0019061714,-7.3090891e-05,-1.4838678e-25,0.0019361305,2.376485e-25,0.0019211494
0.021501477,0.002093277,-9.2163773e-05,-2.3132849e-25,0.0021303413,5.3527914e-25,0.0021118077
0.022682624,0.0022789961,-0.00011263634,-2.9750731e-25,0.0023241346,4.2723322e-25,0.002301564
0.023902154,0.0024625491,-0.0001343227,-2.6129253e-25,0.0025167486,4.777297e-25,0.0024896476
0.025161316,0.0026434597,-0.00015708578,-1.3852434e-25,0.0027077201,2.2968765e-24,0.0026755887
0.026461397,0.0028214795,-0.00018083113,2.4930871e-25,0.0028968113,6.234776e-25,0.0028591443
0.027803728,0.0029965239,-0.00020549872,5.8978117e-26,0.0030839467,-1.9490801e-24,0.0030402343
0.02918968,0.0031686207,-0.0002310551,6.4660015e-26,0.0032691634,-1.5415611e-24,0.0032188912
0.030620672,0.0033378723,-0.00025748639,-4.3328886e-25,0.0034525732,-1.6310789e-24,0.003395222
0.032098167,0.003504428,-0.00028479315,-3.0629143e-25,0.0036343359,2.0404733e-24,0.0035693813
0.033623676,0.0036684641,-0.00031298663,-7.1146963e-26,0.0038146394,1.8109407e-24,0.0037415511
0.03519876,0.0038301707,-0.00034208577,-5.3845294e-25,0.0039936868,-1.5089789e-24,0.0039119283
0.03682503,0.0039897431,-0.00037211517,-5.6552067e-25,0.0041716876,-1.7474359e-24,0.004080715
0.03850415,0.0041473758,-0.00040310398,-8.9056833e-25,0.0043488515,2.8840072e-24,0.0042481134
0.040237836,0.0043032586,-0.00043508458,3.0325919e-25,0.0045253849,7.1363783e-24,0.0044143217
0.042027862,0.0044575746,-0.00046809186,9.9727352e-25,0.0047014888,-1.8947129e-24,0.0045795318
0.043876059,0.0046104996,-0.00050216288,-4.235592e-26,0.0048773573,-7.533878e-24,0.0047439286
0.045784317,0.0047622006,-0.00053733688,-6.0084732e-25,0.005053177,2.7997288e-24,0.0049076892
0.047754588,0.0049128369,-0.00057365463,5.3498923e-27,0.0052291271,5.7524905e-24,0.0050709825
0.049788888,0.0050625596,-0.0006111585,5.311121e-25,0.0054053796,6.2810176e-24,0.0052339703
0.051889297,0.0052115124,-0.00064989245,1.5257052e-24,0.0055820992,1.2708846e-23,0.0053968067
0.054057963,0.0053598322,-0.00068990175,1.5111489e-24,0.005759444,-5.3651384e-24,0.0055596392
0.056297104,0.0055076499,-0.00073123202,-8.0674323e-25,0.0059375655,-2.1184834e-23,0.005722609
0.058609012,0.0056550918,-0.00077392776,-1.5350277e-24,0.0061166082,1.4264923e-24,0.0058858515
0.06099605,0.0058022808,-0.00081803001,9.238975e-25,0.0062967099,1.9851026e-23,0.0060494973
0.06346066,0.0059493361,-0.00086357198,2.0091542e-24,0.0064780031,8.577644e-24,0.006213672
0.066005363,0.0060963731,-0.00091058813,4.4825844e-25,0.0066606159,-6.4848426e-25,0.0063784973
0.068632762,0.006243503,-0.00095912759,1.1163756e-25,0.0068446734,2.556739e-24,0.0065440913
0.071345544,0.0063908307,-0.00100925,-2.8084526e-24,0.0070303008,-1.1592944e-23,0.0067105689
0.074146484,0.0065384558,-0.0010610278,-2.4461974e-24,0.0072176228,-2.4209754e-23,0.0068780425
0.077038447,0.0066864752,-0.0011145447,-7.6023157e-26,0.0074067613,-1.308779e-23,0.0070466216
0.08002439,0.0068349846,-0.0011698731,2.2185665e-24,0.0075978364,-1.5238156e-23,0.0072164143
0.083107369,0.0069840805,-0.0012270754,7.6636424e-24,0.0077909641,1.7244178e-24,0.0073875266
0.086290535,0.0071338614,-0.0012862155,4.4867656e-24,0.0079862556,2.6155543e-23,0.0075600631
0.089577146,0.0072844255,-0.0013473598,1.9747186e-24,0.0081838191,8.3947444e-24,0.0077341272
0.092970562,0.0074358712,-0.0014105766,2.9024123e-24,0.0083837607,1.1155091e-24,0.0079098212
0.096474255,0.0075882983,-0.0014759357,-3.9005167e-24,0.0085861852,1.0763874e-23,0.0080872472
0.10009181,0.007741807,-0.0015435093,-7.4000096e-24,0.0087911946,-6.2346858e-25,0.0082665065
0.10382692,0.0078964991,-0.0016133711,-4.7753824e-24,0.008998889,-7.6548464e-24,0.0084477
0.10768342,0.0080524782,-0.0016855967,-5.4302764e-24,0.0092093663,1.9025306e-23,0.0086309284
0.11166524,0.0082098503,-0.0017602639,-2.4938705e-23,0.0094227221,1.2311454e-23,0.0088162925
0.11577645,0.008368724,-0.0018374523,-1.0401817e-23,0.0096390504,-2.8602681e-23,0.0090038937
0.12002127,0.0085292107,-0.001917243,1.1735103e-23,0.0098584422,-8.6301154e-24,0.0091938331
0.12440404,0.0086914248,-0.0019997189,5.7867495e-24,0.010080986,-4.5011498e-24,0.0093862122
0.12892923,0.008855485,-0.0020849652,1.9369225e-23,0.010306767,-3.3615488e-23,0.0095811331
0.13360148,0.0090215135,-0.002173069,2.8742961e-23,0.010535869,-2.5850198e-23,0.0097786984
0.13842557,0.0091896372,-0.002264118,3.6466424e-23,0.010768371,-3.1683647e-23,0.0099790111
0.14340642,0.0093599874,-0.0023582022,6.2468318e-23,0.011004347,-3.1266098e-23,0.010182175
0.14854914,0.0095327011,-0.0024554127,6.5024898e-23,0.011243871,6.0607077e-23,0.010388294
0.15385898,0.0097079204,-0.0025558425,-5.9505885e-23,0.011487009,9.6018102e-23,0.010597472
0.15934138,0.0098857932,-0.0026595856,-5.3298682e-23,0.011733823,-2.641233e-23,0.010809816
0.16500194,0.010066474,-0.0027667363,1.9582745e-23,0.01198437,-4.2396807e-23,0.01102543
0.17084645,0.010250125,-0.0028773903,1.9277828e-24,0.012238699,3.7438059e-23,0.01124442
0.17688089,0.010436914,-0.0029916449,-7.5268555e-23,0.012496855,2.8831653e-23,0.011466892
0.18311143,0.010627017,-0.0031095964,-5.2235473e-23,0.012758873,-6.6463221e-23,0.011692953
0.18954445,0.010820617,-0.0032313414,9.4141939e-23,0.013024782,-1.0136768e-22,0.011922708
0.19618653,0.011017906,-0.0033569772,1.6642336e-22,0.013294601,-1.385715e-23,0.012156262
0.20304445,0.011219086,-0.0034866,3.5419855e-23,0.013568337,7.6575336e-23,0.012393719
0.21012524,0.011424365,-0.0036203048,-4.6163381e-23,0.013845987,1.3929489e-23,0.012635184
0.21743614,0.011633963,-0.003758186,4.2641089e-23,0.014127537,-3.6642999e-23,0.012880758
0.22498461,0.011848108,-0.0039003357,3.3815512e-23,0.014412959,-6.4003071e-24,0.013130541
0.23277839,0.012067037,-0.0040468436,8.6148523e-23,0.014702207,6.4219208e-23,0.01338463
0.24082545,0.012290996,-0.0041977963,-2.4615746e-22,0.014995224,9.9309487e-23,0.013643118
0.24913402,0.012520244,-0.0043532774,-3.7970837e-23,0.01529193,-1.7539554e-22,0.013906095
0.25771259,0.012755046,-0.0045133647,4.121656e-22,0.015592231,-1.5072607e-22,0.014173646
0.26656994,0.012995676,-0.0046781319,8.2680085e-23,0.015896006,1.80277e-22,0.014445848
0.27571513,0.013242418,-0.0048476466,-4.0763463e-22,0.016203115,1.8354929e-22,0.014722774
0.28515751,0.01349556,-0.0050219674,-2.4276303e-22,0.016513393,-1.2346785e-22,0.015004484
0.29490674,0.0137554,-0.0052011443,4.1031932e-22,0.016826646,-2.5172121e-22,0.01529103
0.3049728,0.014022237,-0.0053852176,5.0965287e-22,0.017142649,-1.3198215e-23,0.01558245
0.31536597,0.014296373,-0.0055742179,3.9779629e-24,0.017461144,8.6826111e-23,0.015878767
0.3260969,0.014578121,-0.0057681403,1.9701989e-22,0.017781839,-1.3508015e-22,0.016179987
0.33717655,0.014867763,-0.0059669992,5.8495159e-22,0.018104415,-6.4315464e-23,0.016486095
0.34861625,0.015165574,-0.0061707844,-1.1625432e-22,0.018428507,1.8179574e-22,0.016797047
0.36042772,0.015471832,-0.0063794302,-6.876204e-23,0.018753698,1.7712535e-23,0.017112772
0.37262303,0.015786782,-0.0065928705,7.506712e-23,0.019079526,-6.3725112e-23,0.017433161
0.38521464,0.016110636,-0.0068110047,2.4815644e-22,0.019405477,1.4094701e-23,0.017758063
0.39821546,0.016443564,-0.0070336968,-2.5396334e-22,0.01973098,1.8942663e-22,0.018087279
0.41163876,0.016785676,-0.0072607716,-9.5014455e-22,0.020055404,2.3430159e-22,0.018420548
0.42549828,0.017137013,-0.0074919993,-8.6618743e-22,0.020378048,8.3569739e-23,0.018757538
0.4398082,0.017497516,-0.0077270936,-4.1030365e-22,0.020698135,-1.243719e-23,0.019097834
0.45458315,0.017867016,-0.0079657115,-1.2723292e-22,0.021014806,2.9424417e-22,0.01944092
0.46983824,0.018245197,-0.0082074278,-2.5585026e-21,0.02132711,5.9579262e-22,0.019786163
0.48558908,0.01863157,-0.008451723,-1.8424563e-21,0.021633989,-5.5273125e-24,0.020132789
0.50185179,0.019025434,-0.0086979794,1.7635067e-22,0.021934267,-1.7463321e-22,0.020479861
0.51864298,0.019425834,-0.008945459,-3.8187457e-22,0.022226636,-5.2542487e-23,0.020826246
0.53597984,0.01983151,-0.0091932822,1.1170743e-21,0.022509639,-2.2463949e-22,0.021170586
0.5538801,0.02024085,-0.0094404166,3.8450697e-22,0.02278164,1.3832297e-22,0.021511258
0.57236207,0.020651827,-0.0096856481,-6.001571e-22,0.023040749,1.3738056e-22,0.021846334
0.59144465,0.021061925,-0.0099275522,-5.3352949e-22,0.023285177,3.4081355e-22,0.02217354
0.61114736,0.021468083,-0.010164838,-4.1935604e-21,0.023513985,7.0283015e-22,0.022490206
0.63149036,0.02186662,-0.010398274,-2.6157089e-21,0.02372155,-3.8085428e-22,0.022793218
0.65249445,0.022260738,-0.010639434,4.6645409e-21,0.023894337,-1.0250582e-21,0.023079018
0.67418111,0.022666984,-0.010831296,3.3925202e-21,0.02401669,1.9548948e-22,0.02334413
0.69657252,0.023081366,-0.010954963,-3.0193709e-21,0.024088235,1.0171398e-21,0.023584764
0.7196916,0.023467889,-0.011058975,-6.5828748e-21,0.02412237,8.0030274e-22,0.023793879
0.74356198,0.023793661,-0.011140128,-5.5079005e-21,0.02412853,5.2719264e-22,0.023960457
0.76820808,0.024038102,-0.011192841,-6.0270907e-21,0.02410415,4.8745741e-22,0.024070937
0.79365511,0.02418995,-0.011212839,-3.8544942e-21,0.024038132,1.5632428e-22,0.024114012
0.8199291,0.024242347,-0.011196503,-2.6349413e-21,0.02391798,5.7281077e-22,0.024080211
0.84705692,0.024189361,-0.011140147,-1.0201823e-20,0.023731255,8.887299e-22,0.023960383
0.87506632,0.024028091,-0.011041559,-4.7727676e-22,0.023469494,-4.0350873e-22,0.023748849
0.90398595,0.023757656,-0.01089979,-9.0290463e-23,0.023127844,5.6639733e-22,0.02344278
0.93384539,0.023379241,-0.010715128,-1.3394685e-20,0.022704826,1.5743112e-21,0.02304204
0.94954502,0.02313341,-0.010600053,-1.3889396e-20,0.022448777,8.0907457e-22,0.022791092
0.96467517,0.022896588,-0.010489197,-1.3733525e-20,0.022202122,3.5858891e-23,0.022549346
0.99650683,0.022316209,-0.010224933,7.053272e-21,0.021624223,-1.0669296e-21,0.021970197
1.0293729,0.021647402,-0.0099265469,4.6958424e-21,0.020978115,5.1087921e-22,0.021312734
1.0633071,0.020902073,-0.0095994298,-1.561153e-20,0.020272946,1.0669132e-21,0.020587483
1.098344,0.020093998,-0.0092498778,-3.8921953e-21,0.019519337,-8.2606094e-23,0.019806638
1.1345196,0.019236969,-0.0088843032,-8.6831607e-21,0.018727671,5.9049896e-22,0.018982282
1.1718707,0.018344531,-0.0085092245,-7.761166e-21,0.01790784,1.6231987e-22,0.018126143
1.2104356,0.01742994,-0.0081314901,1.0557405e-21,0.017069173,-6.0744225e-22,0.017249517
1.2502538,0.016504503,-0.0077576445,1.1970351e-20,0.016218768,-6.7862826e-22,0.016361596
1.291366,0.015576373,-0.0073935745,6.4444925e-21,0.015360339,-5.7121187e-24,0.015468324
1.3338142,0.014650248,-0.007044812,-1.5089584e-21,0.014494175,1.6090684e-22,0.014572213
1.3776419,0.013727577,-0.0067172803,2.1502868e-21,0.013618481,-3.6852134e-22,0.013673055
1.4228938,0.012805897,-0.0064180152,1.1669528e-20,0.012730348,-4.9537876e-22,0.012768216
1.4696163,0.011875932,-0.0061551805,3.2438723e-21,0.011825733,5.7897632e-22,0.011850814
1.5178571,0.010915743,-0.0058572339,-2.2791941e-20,0.010892818,1.3048697e-21,0.010904179
1.566098,0.009905114,-0.0054331724,-2.2337828e-20,0.0099111226,3.9160689e-22,0.0099082785
1.6128205,0.0088415432,-0.0049392443,-5.4568775e-21,0.008865916,-3.2033101e-22,0.0088541039
1.6580724,0.0077281131,-0.0044469309,8.3221962e-21,0.0077638625,-3.8364917e-22,0.0077458956
1.7019001,0.0065622672,-0.0039335996,1.93992e-21,0.0066213453,-1.0514597e-22,0.0065913323
1.7443483,0.0053440706,-0.003344273,7.7239876e-21,0.0054400356,-1.6422216e-22,0.0053920563
1.7854605,0.0040883266,-0.002679884,5.0516158e-22,0.0042152303,2.1413858e-22,0.0041518698
1.8252786,0.0028208169,-0.0019650529,-5.7017634e-21,0.0029556717,2.0372657e-22,0.0028880211
1.8638436,0.0016018503,-0.0012049478,-1.0918476e-21,0.001708341,4.3295894e-23,0.0016550357
1.9011947,0.000657554,-0.00055991437,-2.3294157e-21,0.00070921901,6.3652364e-23,0.00068347455
1.9373703,0.00017539683,-0.00018552953,-2.0426102e-22,0.00018563748,-1.7261217e-23,0.00018052251
1.9724072,2.8362493e-05,-3.6661016e-05,1.2813254e-22,2.6902661e-05,-7.5534984e-26,2.7630565e-05
2.0063413,2.7464568e-06,-3.0464905e-06,-3.253337e-23,2.0983795e-06,1.9175305e-24,2.4226198e-06
2.0163351,1.9669967e-06,-2.1619275e-06,-2.3770222e-23,1.4957559e-06,1.3576523e-24,1.7315106e-06
2.0392075,1.9783922e-07,-1.5600956e-07,-2.4016702e-24,1.287046e-07,1.8245222e-26,1.632567e-07
2.0710391,2.242385e-08,-1.2771374e-08,-8.5756757e-26,1.331681e-08,1.1330507e-27,1.7871132e-08
2.1018689,1.8063312e-08,-7.6727305e-09,-1.346196e-25,1.0199098e-08,7.2666238e-28,1.4131342e-08
2.1317283,5.2037712e-08,-1.7431063e-08,-6.0749071e-27,2.8730161e-08,-1.1223366e-26,4.0383414e-08
2.160648,1.8447742e-07,-4.8186933e-08,5.5934661e-25,1.006712e-07,-2.3042468e-26,1.4257312e-07
2.1886574,6.5279488e-07,-1.1832193e-07,1.6328292e-24,3.5564334e-07,-1.9600765e-26,5.0420335e-07
2.2157852,2.2446294e-06,-1.8706663e-07,5.3409692e-24,1.2438586e-06,-1.6706377e-25,1.7441966e-06
2.2420592,7.287704e-06,2.5661162e-07,2.1693828e-23,4.2633167e-06,-4.0685713e-25,5.7753963e-06
2.2675062,2.1510564e-05,3.2627465e-06,2.9277617e-23,1.3881249e-05,-1.9991509e-24,1.7695594e-05
2.2921523,5.605115e-05,1.3156411e-05,2.1347824e-22,4.0255902e-05,-3.2394728e-24,4.8153231e-05
2.3160227,0.00012700394,3.5996451e-05,1.1126077e-22,9.8630235e-05,5.924278e-24,0.00011281878
2.3391418,0.00024785438,7.8144227e-05,-1.2462061e-23,0.00020112901,5.6743679e-24,0.00022449671
2.3615332,0.00041709095,0.00014200583,-5.4260398e-23,0.00034597422,-3.6350848e-24,0.00038153826
2.3832198,0.00061741834,0.00022241029,2.453535e-22,0.00051818521,-7.9424405e-24,0.00056780334
2.4042239,0.00082994636,0.00031110516,1.7077968e-22,0.00070195431,2.9323515e-24,0.00076594783
2.4245669,0.0010435242,0.00040272939,4.9505564e-23,0.00088796238,2.6565247e-24,0.00096574035
2.4442696,0.001253387,0.00049488587,7.7699019e-23,0.0010721149,-1.8886393e-23,0.0011627484
2.4633522,0.0014578051,0.00058636105,7.6116221e-22,0.0012528527,-1.211392e-23,0.0013553264
2.4818342,0.0016558637,0.00067638614,1.7299507e-22,0.0014292732,4.9371763e-23,0.001542566
2.4997344,0.0018469417,0.00076447984,-1.1135754e-21,0.0016006998,5.5186649e-23,0.0017238184
2.5170713,0.0020309401,0.00085036992,-1.3555829e-21,0.001766936,1.2738272e-23,0.0018989352
2.5338625,0.00220812,0.00093390553,-1.2952181e-21,0.0019281314,1.890747e-23,0.0020681217
2.5501252,0.0023789021,0.0010150194,-1.8686992e-21,0.0020845815,1.4875437e-23,0.0022317438
2.565876,0.0025437911,0.0010936985,-1.3117002e-21,0.0022367136,-5.4878001e-23,0.0023902556
2.5811311,0.0027033293,0.0011708638,3.1566354e-22,0.0023850248,-7.0046603e-23,0.0025441584
2.5959061,0.0028578452,0.0012454691,7.596269e-22,0.0025304778,-2.6338636e-23,0.0026941317
2.610216,0.0030080601,0.0013148786,1.0442061e-21,0.0026742249,-2.8178465e-23,0.0028411377
2.6240755,0.0031555614,0.001381116,1.5429698e-21,0.002816304,-4.0822025e-23,0.0029859523
2.6374988,0.0033013123,0.0014467642,2.1050175e-21,0.0029561814,-1.0290222e-23,0.0031287601
2.6504996,0.0034452703,0.0015117069,1.4587862e-21,0.0030938627,7.3580039e-23,0.0032695637
2.6630913,0.0035873025,0.0015759767,-4.4553239e-22,0.00322979,6.5998452e-23,0.0034085372
2.6752866,0.0037274076,0.001639679,-4.5454167e-22,0.003364534,1.3887625e-23,0.0035459611
2.687098,0.0038656611,0.0017029075,-7.6060197e-22,0.0034985215,-1.4510384e-23,0.0036820833
2.6985377,0.0040021106,0.0017656973,1.1022148e-23,0.0036319531,-7.2048995e-23,0.0038170258
2.7096174,0.004136702,0.0018280098,1.3185553e-21,0.003764808,-2.8474526e-23,0.0039507503
2.7203483,0.0042692483,0.0018897365,6.6967121e-22,0.0038968816,1.0052409e-24,0.004083061
2.7307415,0.0043994351,0.0019507097,1.1931457e-21,0.0040278278,3.4977386e-23,0.0042136279
2.7408075,0.0045268425,0.0020107156,-3.5284998e-22,0.0041571961,1.0400611e-22,0.0043420157
2.7505568,0.0046509723,0.0020695077,-1.5317546e-21,0.0042844629,1.9719647e-23,0.004467714
2.7599992,0.0047712801,0.0021268196,-7.7013057e-22,0.0044090592,-4.2890376e-23,0.0045901657
2.7691443,0.0048872025,0.0021823762,-3.7784291e-22,0.004530393,-5.8823665e-23,0.0047087935
2.7780017,0.004998184,0.0022359049,6.8312832e-22,0.0046478707,-7.9909872e-23,0.0048230237
2.7865803,0.0051037026,0.0022871445,1.5247917e-21,0.0047609145,-3.8677214e-23,0.0049323067
2.7948888,0.0052032909,0.0023358536,1.5623497e-21,0.0048689796,-5.036847e-24,0.0050361358
2.8029359,0.0052965459,0.0023818175,1.6065471e-21,0.004971571,3.807604e-23,0.0051340613
2.8107297,0.0053831323,0.0024248533,6.3044486e-22,0.005068269,6.86648e-23,0.0052256989
2.8182781,0.0054627265,0.0024648124,-3.0781822e-24,0.0051587488,4.9859956e-23,0.0053107328
2.825589,0.0055350758,0.0025015777,-4.9010598e-22,0.0052427691,1.5876285e-23,0.0053889122
2.8326698,0.0055999936,0.0025350744,-3.6833661e-22,0.005320188,-2.356245e-23,0.0054600765
2.8395278,0.0056573343,0.0025652436,2.4275681e-23,0.0053908807,-3.596146e-24,0.0055241012
2.8461698,0.005707111,0.0025920479,-2.8645272e-22,0.0054547274,3.2415249e-23,0.0055809154
2.8526028,0.0057494138,0.0026154944,-6.8612702e-22,0.0055116746,-5.890744e-24,0.005630544
2.8588334,0.0057843941,0.0026356087,-2.0531964e-22,0.0055617045,-3.2017794e-23,0.0056730512
2.8648678,0.0058122321,0.0026524377,-2.0799577e-23,0.0056048573,-4.0251805e-24,0.0057085439
2.8707123,0.0058330911,0.0026660486,-1.2382837e-22,0.0056412471,-5.0092422e-23,0.0057371679
2.8763729,0.0058471626,0.0026765273,9.8625302e-22,0.005671056,-3.6282178e-23,0.0057591068
2.8818553,0.0058546529,0.0026839798,6.79532e-22,0.0056945293,4.7856258e-23,0.005774587
2.8871651,0.0058558084,0.0026885356,5.0948908e-23,0.0057119758,2.296907e-23,0.0057838852
2.8923079,0.0058509382,0.0026903517,2.0788558e-22,0.0057237606,1.0000471e-23,0.0057873386
2.8972887,0.0058404523,0.0026896176,-1.3007677e-22,0.0057302919,9.9718567e-24,0.005785357
2.9021128,0.005824876,0.0026865456,-2.4362749e-24,0.00573197,-2.2884799e-23,0.0057784013
2.9067851,0.005804876,0.0026813652,3.2068612e-22,0.0057291143,3.9711564e-24,0.0057669716
2.9113102,0.005781259,0.0026743092,-5.1258684e-23,0.0057218367,3.8173378e-23,0.0057515751
2.915693,0.0057549431,0.0026648261,-4.3178462e-22,0.0057102103,-1.0349332e-23,0.0057326382
2.9199378,0.0057264631,0.0026503244,1.0130092e-22,0.0056944579,-5.2620086e-23,0.0057104587
2.924049,0.0056956879,0.0026325683,5.7916516e-22,0.0056748673,-5.1536404e-24,0.0056852414
2.9280309,0.0056624584,0.0026144013,2.4623091e-22,0.0056518663,2.1714723e-23,0.0056571514
2.9318874,0.0056268628,0.0025950164,1.7528113e-22,0.0056258051,2.9119835e-25,0.005626333
2.9356225,0.0055890361,0.0025745048,2.4714544e-22,0.0055968092,1.0310007e-23,0.005592921
2.93924,0.0055491012,0.0025529684,1.0501186e-23,0.0055649836,2.655303e-23,0.0055570405
2.9427437,0.0055071695,0.0025305016,-2.2784679e-22,0.0055304466,1.6794314e-23,0.0055188063
2.9461371,0.0054633401,0.0025071916,-2.9823142e-22,0.005493309,-1.3675299e-23,0.0054783229
2.9494237,0.0054176997,0.0024831167,-1.0405018e-23,0.0054536713,-2.9537462e-23,0.005435684
2.9526069,0.0053703224,0.0024583481,2.0852244e-22,0.0054116246,-8.6718946e-24,0.0053909721
2.9556899,0.0053212705,0.0024329466,1.4769371e-22,0.0053672499,1.072672e-23,0.0053442589
2.9586758,0.0052705933,0.0024069633,3.5331651e-23,0.0053206182,1.9867311e-23,0.0052956046
2.9615678,0.0052183278,0.0023804447,-1.6503117e-22,0.0052717896,3.4831169e-24,0.0052450577
2.9643687,0.0051644986,0.0023534285,-3.5218537e-23,0.0052208135,-1.8530172e-23,0.0051926551
2.9670815,0.0051091173,0.0023259411,1.1649906e-22,0.0051677278,-3.589249e-24,0.0051384216
2.9697089,0.0050521822,0.0022980006,2.7703385e-23,0.0051125583,7.6008317e-24,0.0050823694
2.9722536,0.0049936784,0.0022696181,1.164864e-24,0.0050553188,5.9011211e-24,0.0050244978
2.9747182,0.0049335775,0.0022407945,-5.3664865e-23,0.00499601,2.2866067e-24,0.0049647931
2.9771053,0.0048718366,0.0022115217,-3.3286743e-23,0.0049346188,-2.164366e-24,0.0049032272
2.9794172,0.004808398,0.0021817819,-2.2140097e-23,0.0048711177,-4.3025272e-25,0.0048397574
2.9816563,0.0047431882,0.002151545,-2.5960933e-23,0.0048054638,2.9406712e-24,0.0047743256
2.983825,0.004676117,0.0021207712,-5.5748467e-23,0.0047375976,1.5690112e-24,0.0047068569
2.9859254,0.004607077,0.0020894092,-4.496067e-23,0.0046674419,-5.1575778e-24,0.0046372591
2.9879597,0.0045359415,0.0020573957,6.2937208e-24,0.0045949005,-2.5741589e-25,0.0045654208
2.98993,0.0044625635,0.0020246515,-3.3324615e-23,0.0045198567,2.5299895e-24,0.0044912099
2.9918382,0.0043867745,0.0019910827,-2.2882551e-23,0.0044421713,-3.1932755e-24,0.0044144728
2.9936864,0.0043083824,0.0019565819,1.9906882e-24,0.0043616812,-3.1376676e-24,0.0043350317
2.9954764,0.0042271694,0.001921023,1.026444e-23,0.0042781972,-1.8110843e-24,0.0042526832
2.9972101,0.0041428903,0.00188426,1.8022899e-23,0.004191502,-2.1873502e-24,0.0041671962
2.9988893,0.0040552711,0.001846126,2.7499478e-23,0.0041013483,-7.5136293e-26,0.0040783097
3.0005155,0.0039640061,0.0018064325,1.7237806e-23,0.0040074567,3.5445668e-24,0.0039857314
3.0020906,0.0038687568,0.0017649655,-4.1723848e-24,0.0039095137,3.7874821e-24,0.0038891354
3.0036161,0.0037691511,0.0017214843,-1.4096489e-23,0.0038071713,1.8397228e-24,0.0037881613
3.0050936,0.0036647825,0.0016757211,-1.6927331e-23,0.0037000462,-2.7430608e-24,0.0036824145
3.0065246,0.0035552118,0.001627378,5.5900087e-24,0.0035877212,-1.9773962e-24,0.0035714667
3.0079106,0.0034399702,0.0015761278,1.0582578e-25,0.0034697485,1.2410726e-24,0.0034548595
3.0092529,0.0033185664,0.0015216157,-2.9604334e-24,0.0033456563,-9.7059446e-25,0.0033321116
3.010553,0.0031904975,0.0014634621,4.7799642e-24,0.0032149602,-7.0176722e-25,0.0032027291
3.0118121,0.0030552668,0.0014012702,1.7321406e-24,0.0030771809,2.1374319e-25,0.0030662241
3.0130317,0.0029124109,0.0013346403,2.435361e-24,0.0029318709,-3.2319989e-25,0.0029221411
3.0142128,0.0027615379,0.0012631909,2.6442826e-24,0.0027786532,1.0560373e-24,0.0027700958
3.0153568,0.0026023811,0.0011865924,-2.2058888e-24,0.0026172746,5.6476541e-25,0.0026098281
3.0164647,0.0024348709,0.0011046177,-5.1477533e-25,0.0024476776,-6.276312e-25,0.0024412744
3.0175378,0.0022592264,0.0010172131,6.0475521e-25,0.0022700926,-2.0295643e-25,0.0022646596
3.0185772,0.0020760664,0.00092459268,2.3078715e-25,0.0020851479,-7.3743701e-25,0.0020806072
3.0195838,0.0018865319,0.00082735512,2.3009528e-24,0.0018939928,-5.1201813e-25,0.0018902624
3.0205587,0.0016923987,0.00072660885,1.5030326e-24,0.0016984094,5.7894609e-25,0.0016954041
3.0215029,0.001496157,0.00062407765,1.4817645e-25,0.0015008923,6.1339841e-25,0.0014985246
3.0224174,0.0013010152,0.00052214104,-3.8014977e-25,0.0013046518,-1.2537079e-26,0.0013028334
3.0233032,0.0011107668,0.00042373717,5.6906939e-26,0.0011134798,-2.4729209e-25,0.0011121232
3.024161,0.00092949914,0.00033208278,2.0336899e-25,0.00093145749,3.5174913e-26,0.00093047822
3.0249919,0.00076117142,0.00025022352,-9.7524755e-29,0.00076253353,8.507447e-26,0.00076185241
3.0257966,0.00060913707,0.00018050999,-2.1306893e-26,0.00061004595,-8.3996944e-26,0.00060959146
3.026576,0.00047573269,0.00012416789,8.6705954e-26,0.00047631175,-3.6927377e-26,0.00047602219
3.0273308,0.00036205593,8.1123104e-05,3.2678351e-26,0.00036240643,5.7654585e-26,0.00036223116
3.0280619,0.00026798167,5.013852e-05,-1.728859e-26,0.00026818215,2.8870295e-26,0.00026808189
3.02877,0.00019237677,2.9189948e-05,-1.1927779e-26,0.00019248448,-2.358521e-27,0.00019243061
3.0294558,0.00013341556,1.593147e-05,-3.9585281e-27,0.00013346956,-6.9378397e-27,0.00013344255
3.03012,8.8894357e-05,8.1065078e-06,9.6203689e-28,8.8919427e-05,-2.8106758e-27,8.8906888e-05
3.0307633,5.6480597e-05,3.819862e-06,5.6244127e-28,5.6491282e-05,4.1433852e-28,5.6485938e-05
3.0313863,3.3879078e-05,1.6524614e-06,2.8083002e-29,3.3883212e-05,5.4174362e-28,3.3881144e-05
3.0319898,1.893135e-05,6.4843735e-07,-9.6766739e-29,1.893278e-05,1.0569606e-28,1.8932065e-05
3.0325742,9.6785525e-06,2.2672077e-07,-2.392328e-29,9.6789854e-06,-3.1120934e-29,9.6787688e-06
3.0331403,4.4130838e-06,6.8645504e-08,-2.1952442e-30,4.4131946e-06,-1.6981784e-29,4.4131392e-06
3.0336885,1.7274907e-06,1.7148141e-08,5.319053e-31,1.7275133e-06,-4.9359935e-30,1.727502e-06
3.0342195,5.5077747e-07,3.256884e-09,2.9631871e-31,5.5078082e-07,4.0456775e-31,5.5077914e-07
3.0347338,1.6178791e-07,4.496376e-10,-8.6956771e-33,1.6178823e-07,5.9157666e-32,1.6178806e-07
3.0352319,3.0596649e-07,1.2665016e-10,1.1539728e-33,3.0596652e-07,5.1533527e-33,3.059665e-07
3.0357122,1.3704546e-09,5.3980183e-13,4.9183642e-36,1.3704548e-09,2.1982783e-35,1.3704547e-09
