y,U_0,U_1,U_2
0,0,0,0
0.00048240845,-0.00074641552,3.9256489e-07,-2.4284914e-17
0.00098049384,-0.0014862771,1.3432403e-06,2.0706642e-24
0.0014947656,-0.0022214229,2.8225362e-06,-4.4959989e-25
0.0020257498,-0.0029488844,4.975827e-06,-7.08115e-24
0.0025739895,-0.0036661305,7.8911724e-06,-6.6249949e-24
0.0031400454,-0.0043703162,1.1635943e-05,-5.5170076e-24
0.0037244966,-0.0050582378,1.6286966e-05,1.269768e-23
0.0043279408,-0.0057262795,2.1926627e-05,1.5678535e-24
0.0049509953,-0.006370352,2.8642529e-05,-7.0400707e-24
0.0055942973,-0.0069858226,3.6527404e-05,7.4931277e-24
0.0062585048,-0.0075674425,4.5679129e-05,-2.3600407e-24
0.0069442972,-0.0081092759,5.6200485e-05,-4.6913238e-24
0.007652376,-0.0086046454,6.8198673e-05,1.8404492e-23
0.0083834654,-0.0090461173,8.1784555e-05,5.5565181e-24
0.0091383131,-0.0094255597,9.7071335e-05,1.5596723e-23
0.0099176913,-0.009734322,0.00011417282,1.6473436e-23
0.010722397,-0.00996359,0.00013320092,2.3446923e-23
0.011553254,-0.010104964,0.00015426245,1.584507e-23
0.012411111,-0.010151266,0.0001774553,-1.4156384e-23
0.013296846,-0.010097497,0.00020286415,-9.7949891e-25
0.014211364,-0.0099417633,0.00023055634,-1.4200971e-24
0.015155603,-0.0096858916,0.00026057881,1.2075475e-23
0.016130526,-0.0093354867,0.00029295685,5.5399666e-25
0.017137132,-0.0088993254,0.00032769543,-4.6282084e-24
0.018176449,-0.0083882374,0.00036478268,1.3535595e-23
0.019249542,-0.0078137898,0.00040419464,1.2012811e-23
0.020357507,-0.0071871186,0.00044590025,-3.8457007e-23
0.021501477,-0.0065181199,0.00048986554,-1.2189969e-23
0.022682624,-0.0058150473,0.00053605698,2.5913479e-23
0.023902154,-0.0050844371,0.00058444357,-2.5017167e-24
0.025161316,-0.0043312428,0.00063499811,-1.2737721e-25
0.026461397,-0.0035590685,0.00068769779,-1.0720145e-23
0.027803728,-0.0027704256,0.00074252436,-1.8850571e-23
0.02918968,-0.0019669711,0.00079946362,-1.4043486e-23
0.030620672,-0.0011497141,0.00085850435,-1.625265e-23
0.032098167,-0.00031919137,0.00091963783,-2.2542969e-23
0.033623676,0.00052440779,0.0009828573,-1.539542e-23
0.03519876,0.0013811582,0.0010481579,1.6309863e-23
0.03682503,0.0022513518,0.0011155371,5.4595905e-23
0.03850415,0.0031354516,0.0011849945,9.4934619e-24
0.040237836,0.0040340443,0.001256532,-1.9667855e-23
0.042027862,0.0049478095,0.0013301524,2.4565207e-23
0.043876059,0.0058774894,0.0014058588,2.3549223e-23
0.045784317,0.0068238747,0.0014836536,3.7787047e-23
0.047754588,0.0077877943,0.0015635384,3.1557176e-23
0.049788888,0.0087701096,0.0016455136,1.9123522e-23
0.051889297,0.0097717093,0.001729578,2.7171885e-23
0.054057963,0.010793507,0.0018157289,-2.6512142e-23
0.056297104,0.011836441,0.0019039611,-4.3102613e-23
0.058609012,0.012901468,0.0019942671,-8.415701e-24
0.06099605,0.013989572,0.0020866368,-1.4799737e-24
0.06346066,0.015101758,0.0021810568,-2.5573211e-25
0.066005363,0.016239053,0.0022775108,2.2377028e-23
0.068632762,0.017402511,0.0023759786,1.1889211e-23
0.071345544,0.018593211,0.0024764362,-1.7040444e-24
0.074146484,0.019812261,0.0025788554,-1.4376987e-24
0.077038447,0.021060796,0.0026832034,-1.3286653e-23
0.08002439,0.022339983,0.0027894429,-6.0064048e-23
0.083107369,0.023651022,0.0028975311,-6.6919645e-23
0.086290535,0.024995146,0.00300742,-5.5643222e-23
0.089577146,0.026373629,0.0031190557,-7.9880884e-23
0.092970562,0.02778778,0.0032323782,-1.3416408e-23
0.096474255,0.029238952,0.0033473212,-4.4225646e-25
0.10009181,0.030728541,0.0034638113,-3.6146496e-23
0.10382692,0.032257991,0.0035817681,-1.5227234e-23
0.10768342,0.033828794,0.0037011036,1.0234642e-23
0.11166524,0.035442496,0.0038217217,3.6420733e-23
0.11577645,0.037100696,0.003943518,8.7863703e-23
0.12002127,0.038805055,0.0040663793,3.670415e-23
0.12440404,0.040557293,0.0041901832,-5.4880294e-23
0.12892923,0.042359197,0.0043147977,-4.3215688e-23
0.13360148,0.044212622,0.0044400809,6.0720767e-25
0.13842557,0.0461195,0.0045658801,6.5089212e-23
0.14340642,0.048081837,0.004692032,6.2662072e-23
0.14854914,0.050101723,0.0048183621,-3.4653472e-23
0.15385898,0.052181336,0.0049446841,-6.1178308e-23
0.15934138,0.054322946,0.0050707997,-3.641945e-23
0.16500194,0.056528922,0.0051964983,-3.4403888e-23
0.17084645,0.05880174,0.0053215567,1.9961426e-23
0.17688089,0.061143984,0.0054457387,1.749492e-23
0.18311143,0.06355836,0.0055687949,3.9761767e-24
0.18954445,0.066047701,0.0056904625,1.6807878e-22
0.19618653,0.068614972,0.0058104653,1.8699398e-22
0.20304445,0.071263286,0.0059285133,5.0505134e-23
0.21012524,0.073995909,0.0060443031,-1.3363228e-22
0.21743614,0.076816271,0.0061575179,-2.1354619e-22
0.22498461,0.07972798,0.0062678281,-2.4822175e-23
0.23277839,0.082734834,0.0063748914,1.081337e-22
0.24082545,0.085840833,0.0064783538,-1.5222784e-23
0.24913402,0.089050196,0.0065778509,-2.1627193e-22
0.25771259,0.092367378,0.0066730084,-5.6865788e-22
0.26656994,0.095797084,0.0067634447,-2.4882986e-22
0.27571513,0.099344295,0.0068487725,1.8297365e-22
0.28515751,0.10301428,0.0069286012,-2.2369205e-22
0.29490674,0.10681264,0.0070025404,-3.4353315e-22
0.3049728,0.11074531,0.0070702032,-1.8473009e-22
0.31536597,0.1148186,0.0071312105,-2.6501444e-22
0.3260969,0.11903921,0.0071851968,-3.3976386e-22
0.33717655,0.12341431,0.0072318155,-5.2884632e-22
0.34861625,0.12795153,0.0072707463,-1.2369233e-22
0.36042772,0.13265902,0.0073017041,1.4329951e-22
0.37262303,0.13754549,0.0073244481,-2.3762166e-22
0.38521464,0.14262028,0.0073387932,6.4953193e-23
0.39821546,0.1478934,0.0073446237,6.8682778e-22
0.41163876,0.15337558,0.0073419088,9.7227725e-22
0.42549828,0.15907836,0.007330721,1.1465388e-21
0.4398082,0.16501412,0.0073112592,6.1395419e-22
0.45458315,0.17119623,0.0072838735,-2.653262e-22
0.46983824,0.17763902,0.0072490963,-3.3861476e-22
0.48558908,0.184358,0.0072076729,8.3565227e-22
0.50185179,0.19136987,0.0071605985,7.0436331e-22
0.5088074,0.19440323,0.0071390478,-3.5036831e-22
0.51864298,0.19869123,0.0071093651,-1.8144686e-21
0.53597984,0.20634196,0.0070556846,-2.6470281e-21
0.5538801,0.21434393,0.0070014788,-1.7332054e-22
0.57236207,0.22271961,0.006949242,1.1482715e-21
0.59144465,0.23149302,0.0069020009,3.034409e-24
0.61114736,0.24068982,0.0068633877,9.0056547e-23
0.63149036,0.25033722,0.0068376907,7.8019635e-22
0.65249445,0.26046388,0.0068305169,8.7796526e-22
0.67418111,0.27109974,0.0068488645,6.8524362e-23
0.69657252,0.28229496,0.0068932989,-7.6107742e-22
0.7196916,0.29415893,0.0069619124,-4.2250702e-22
0.74356198,0.30684811,0.0070534123,-3.3327338e-21
0.76820808,0.32051135,0.007171854,-2.9736997e-21
0.79365511,0.33527241,0.0073339015,1.0298318e-21
0.8199291,0.35123328,0.0075603177,1.1900235e-21
0.84705692,0.36847099,0.007871275,1.9425007e-21
0.87506632,0.38703675,0.0082836632,-9.4935665e-22
0.90398595,0.40695715,0.0088091343,1.8468229e-22
0.93384538,0.42823511,0.0094531002,3.9687501e-21
0.96467516,0.45084878,0.010214112,1.277257e-21
0.99650683,0.4747481,0.011083338,-1.986384e-21
1.0293729,0.49985065,0.012044224,-2.3057225e-22
1.0633071,0.52603998,0.01307284,1.2757266e-21
1.098344,0.55316878,0.014139087,4.7660731e-21
1.1345196,0.581069,0.015208744,9.5052805e-21
1.1668559,0.60574045,0.016107251,-3.3309894e-22
1.1718726,0.60956899,0.016246865,-1.9445054e-21
1.2104523,0.63850991,0.017222508,-7.5836146e-21
1.250285,0.66771568,0.01810745,5.9032611e-22
1.2914115,0.69702482,0.018881407,-1.8004247e-21
1.3338737,0.72627412,0.019532741,-8.2689729e-21
1.3777151,0.75528543,0.020054734,-3.864715e-21
1.4229805,0.78388512,0.020448618,-4.2000699e-22
1.4697159,0.812029,0.020694968,-1.6907272e-21
1.5179692,0.83984514,0.020795307,2.8023967e-21
1.5662215,0.86743851,0.020809724,3.0110276e-21
1.6129542,0.89488526,0.020831615,3.5754774e-21
1.6582152,0.92232087,0.020909335,2.965399e-21
1.7020508,0.94990128,0.021026716,-6.5238478e-21
1.7445059,0.97789165,0.021163744,-4.6671973e-21
1.7856241,1.0068052,0.021309181,-3.1885742e-21
1.80701,1.022988,0.021378495,-2.1359926e-21
1.8254639,1.0369511,0.021438616,-1.1453008e-21
1.8640662,1.0656252,0.021489584,4.5917779e-21
1.9014509,1.0872259,0.021471095,-1.6239247e-21
1.9376564,1.1000607,0.021470125,-1.255334e-20
1.97272,1.1073857,0.021509929,-4.6137248e-21
2.0066779,1.1121627,0.021570146,4.09596e-21
2.0395648,1.1156315,0.021644523,1.3084864e-21
2.0714147,1.11824,0.021728496,-1.1725891e-22
2.1022603,1.1202087,0.021819332,-4.1821158e-22
2.1321334,1.1216695,0.021914528,-1.2158302e-21
2.1610646,1.1226999,0.022010977,-3.2976664e-21
2.1890837,1.1233272,0.0221054,-6.0265011e-22
2.2162195,1.1235234,0.022192595,-1.160843e-21
2.2424998,1.1231801,0.022265411,7.9714464e-22
2.2679518,1.122077,0.022312634,-4.6265941e-22
2.2926015,1.1198874,0.022320417,-2.7098156e-21
2.3164742,1.116278,0.022276399,3.9844084e-21
2.3395945,1.1111258,0.022177275,-4.6318245e-22
2.3619861,1.1046704,0.022030903,5.5822399e-22
2.3836721,1.0973441,0.021850487,-2.9127669e-22
2.4046746,1.089509,0.021647263,-4.4273305e-21
2.4250153,1.0813848,0.021428332,3.7410607e-22
2.4298487,1.0793501,0.021371999,3.9843015e-22
2.4447218,1.0730911,0.021197531,5.5410449e-22
2.463809,1.0646994,0.020957834,-4.1327454e-21
2.4822943,1.056256,0.020711258,-3.2601939e-21
2.5001966,1.0477935,0.020459111,1.9756163e-21
2.5175344,1.0393374,0.020202093,8.8275522e-22
2.5343255,1.0309088,0.019940054,2.1021885e-21
2.5505871,1.0225245,0.019673138,1.4658646e-21
2.5663361,1.0141732,0.019402503,-4.7476732e-21
2.5815885,1.0058103,0.019130459,-1.7627838e-21
2.5963601,0.99739865,0.01885944,8.9413551e-22
2.610666,0.98892536,0.018589844,-3.1857019e-21
2.624521,0.98039133,0.018321039,-2.8380438e-21
2.6379393,0.9718059,0.018052586,1.2643255e-21
2.6509346,0.96318259,0.017784364,2.0113739e-21
2.6635203,0.95453543,0.01751648,-7.2794271e-22
2.6757094,0.94587647,0.017249019,-4.4633898e-22
2.6875143,0.93721521,0.016981976,2.1340858e-23
2.6989472,0.92855913,0.016715241,-7.7250818e-22
2.7100198,0.91991474,0.016448618,1.1738741e-21
2.7207435,0.91128849,0.016181814,2.1904359e-21
2.7311293,0.90268742,0.015914429,5.3885577e-22
2.7411879,0.89411934,0.015646019,-8.3448006e-22
2.7509295,0.88559292,0.015376221,1.4462136e-22
2.7603642,0.87711762,0.015104794,-5.5820292e-22
2.7695016,0.86870327,0.014831583,-3.905653e-22
2.7783512,0.86035969,0.014556508,1.6002189e-22
2.7869219,0.85209634,0.014279561,-7.2017582e-22
2.7952227,0.84392193,0.014000796,2.3128605e-22
2.8032619,0.83584433,0.013720321,3.0655028e-22
2.8110479,0.82787061,0.013438292,-1.6866004e-21
2.8185886,0.82000749,0.013154895,1.0414027e-22
2.8258918,0.81226196,0.012870311,1.1996072e-21
2.832965,0.80464216,0.012584675,-5.5185137e-23
2.8398154,0.79715818,0.012298041,-1.7675805e-22
2.8464499,0.78982237,0.012010379,-1.5400413e-22
2.8528756,0.78264878,0.011721592,6.3300154e-22
2.8590988,0.77565109,0.011431595,9.6396092e-22
2.865126,0.76883861,0.011140442,3.2173427e-22
2.8709634,0.76221016,0.010848644,-1.2506115e-21
2.876617,0.75574585,0.010557228,2.953649e-22
2.8820925,0.7494124,0.010266963,3.1421348e-22
2.8873956,0.7431849,0.0099787142,-2.4868242e-22
2.8925316,0.73705357,0.0096933031,1.3878332e-22
2.897506,0.73101352,0.0094108922,-4.6790328e-22
2.9023236,0.72505962,0.0091316215,3.0572802e-22
2.9069896,0.71918651,0.0088557,-4.9271774e-22
2.9115086,0.71338871,0.0085833187,-8.2854172e-22
2.9158853,0.70766056,0.0083146474,4.8806547e-22
2.9201242,0.70199628,0.0080498385,2.9820685e-22
2.9242297,0.69638996,0.0077890277,2.1036761e-22
2.9282058,0.69083559,0.0075323353,-9.2688945e-23
2.9320568,0.68532702,0.0072798675,-2.0584552e-22
2.9357865,0.67985803,0.0070317164,4.4741735e-22
2.9393987,0.67442226,0.006787962,-7.2757563e-22
2.9428972,0.66901324,0.0065486721,-3.4111514e-22
2.9462856,0.66362436,0.0063139039,5.9354936e-22
2.9495673,0.65824888,0.0060837044,-3.7230806e-22
2.9527456,0.6528799,0.005858111,3.2045773e-22
2.9558239,0.64751034,0.0056371528,-4.3237301e-22
2.9588052,0.64213294,0.0054208506,-8.1664738e-22
2.9616927,0.6367402,0.0052092182,5.2075362e-22
2.9644893,0.63132441,0.0050022625,2.3873783e-22
2.9671978,0.62587755,0.0047999845,-4.0578581e-23
2.9698211,0.62039133,0.0046023797,-5.7439536e-23
2.9723618,0.6148571,0.0044094385,-1.0876433e-22
2.9748224,0.60926585,0.004221147,2.6353586e-22
2.9772057,0.60360815,0.0040374873,6.7031273e-22
2.9795138,0.59787411,0.0038584378,-9.8407254e-23
2.9817494,0.59205332,0.003683974,-6.597515e-22
2.9839145,0.58613482,0.0035140683,1.0793938e-22
2.9860115,0.58010702,0.0033486908,4.3282369e-23
2.9880424,0.57395767,0.0031878094,1.2413327e-22
2.9900094,0.56767373,0.0030313901,5.1619079e-22
2.9919145,0.56124138,0.0028793974,-1.2096824e-22
2.9937597,0.55464588,0.0027317946,-3.6049196e-22
2.9955467,0.54787153,0.0025885436,-2.9417997e-23
2.9972775,0.54090154,0.0024496054,-3.2178651e-23
2.9989538,0.53371799,0.0023149402,1.7290416e-23
3.0005773,0.52630171,0.0021845074,-1.6174405e-22
3.0021497,0.51863218,0.0020582661,-4.455495e-22
3.0036726,0.51068745,0.001936175,-9.7775337e-24
3.0051476,0.50244402,0.0018181927,4.1485453e-22
3.0065761,0.49387681,0.0017042775,-2.6225869e-23
3.0079597,0.48495908,0.0015943876,-4.9523148e-23
3.0092997,0.47566238,0.0014884808,3.4815174e-22
3.0105976,0.46595659,0.0013865152,-2.8801188e-22
3.0118546,0.45581005,0.0012884492,-5.2831476e-22
3.013072,0.44518977,0.0011942426,-1.8355882e-22
3.0142511,0.43406178,0.0011038565,3.6265869e-22
3.015393,0.42239186,0.0010172536,6.7849429e-22
3.0164991,0.41014646,0.00093439904,-2.5595092e-23
3.0175703,0.39729418,0.00085526101,-1.9781763e-23
3.0186078,0.38380785,0.00077981179,-1.3509673e-22
3.0196126,0.36966731,0.00070802893,-3.2152414e-22
3.0205858,0.354863,0.00063989637,1.9660203e-22
3.0215284,0.3394003,0.00057540546,-3.0036976e-22
3.0224413,0.32330416,0.00051455545,-2.6205399e-22
3.0233255,0.30662334,0.00045735313,4.048475e-22
3.0241818,0.28943295,0.0004038103,1.1359527e-22
3.0250112,0.27183412,0.00035393937,-1.2354145e-22
3.0258144,0.25394942,0.00030774688,1.0422008e-23
3.0265924,0.23591423,0.00026522496,4.8223624e-23
3.0273459,0.21786537,0.00022634402,8.6597643e-23
3.0280757,0.19992951,0.00019104731,1.8978017e-23
3.0287825,0.1822141,0.00015924971,4.7426477e-23
3.0294671,0.16480241,0.00013084056,5.9458996e-25
3.0301301,0.14775305,0.00010568875,-1.1389864e-22
3.0307722,0.13110299,8.364919e-05,-1.5934412e-23
3.0313942,0.11487225,6.456869e-05,6.7722096e-24
3.0319965,0.099069002,4.8290806e-05,2.7103137e-23
3.0325799,0.083693829,3.4659161e-05,1.8010264e-23
3.033145,0.06874291,2.3519087e-05,-4.3082733e-23
3.0336922,0.054210021,1.4716905e-05,-2.4363543e-24
3.0342222,0.040087714,8.0965832e-06,2.9142156e-23
3.0347356,0.026367948,3.6008275e-06,5.7486014e-24
3.0352328,0.013042282,1.1476373e-06,-1.090476e-23
3.0357133,2.7197039e-05,2.3931672e-09,-2.2737276e-26
