y,U_0,U_1,U_2
1.0002541,0,0,0
1.0008359,0.029850654,2.7083328e-05,4.5373675e-21
1.0014527,0.061706648,8.9863767e-06,8.6950064e-21
1.0021064,0.096202601,-5.8804254e-05,-1.5572952e-20
1.0027994,0.13356321,-0.00017028764,-1.5067665e-20
1.0035339,0.17395158,-0.00031852304,1.5795287e-21
1.0043126,0.21731994,-0.00049636896,1.1829073e-20
1.005138,0.26318167,-0.00069702735,1.4968955e-20
1.006013,0.31045826,-0.00090892364,1.5725437e-21
1.0069405,0.3576555,-0.0011103693,-6.9771105e-21
1.0079236,0.40335765,-0.0012775137,-9.0175053e-22
1.0089658,0.44663588,-0.0013954163,-4.232515e-21
1.0100705,0.48708751,-0.0014554387,-1.3506856e-21
1.0112415,0.52463984,-0.0014487242,2.3174512e-21
1.0124829,0.5593542,-0.0013668907,-3.4561359e-21
1.0137987,0.59131892,-0.0012053881,-1.8404641e-21
1.0151935,0.62061284,-0.00096453247,1.2059229e-21
1.0166721,0.64730463,-0.00064865184,6.14109e-21
1.0182393,0.67146838,-0.00026488298,1.5011956e-21
1.0199007,0.69320198,0.00017813874,-1.65968e-21
1.0216618,0.71263322,0.00067115466,4.8247751e-22
1.0235286,0.72992478,0.0012053702,-1.0765489e-21
1.0255075,0.74527146,0.001773547,-1.0728616e-21
1.0276052,0.75888095,0.002370012,1.983059e-21
1.0298287,0.77095948,0.0029905513,-2.3487067e-21
1.0321858,0.78170316,0.0036324162,-7.6317392e-23
1.0346843,0.79129177,0.0042941311,8.2341786e-22
1.0373328,0.79988571,0.0049752638,-6.8153291e-22
1.0401402,0.80762706,0.0056762937,8.0187353e-22
1.0431162,0.81464041,0.0063983994,-9.4706351e-22
1.0462709,0.82103318,0.0071432391,6.1098054e-22
1.0496148,0.8268974,0.0079128556,4.4973296e-22
1.0531596,0.83231176,0.0087095751,-1.4725893e-21
1.0569171,0.83734342,0.0095359087,-3.0451041e-22
1.0609001,0.84204969,0.010394473,9.0554269e-22
1.0651222,0.84647955,0.011287923,4.6868134e-22
1.0695978,0.85067484,0.012218879,-3.2766093e-22
1.074342,0.8546714,0.013189864,1.337907e-22
1.079371,0.85849991,0.014203231,4.5160591e-23
1.0847018,0.86218671,0.015261089,-4.016691e-22
1.0903526,0.86575443,0.016365225,-5.6568058e-23
1.0963427,0.86922257,0.017517026,1.0611348e-21
1.1026923,0.87260796,0.018717391,-2.288958e-22
1.109423,0.87592516,0.019966646,-2.3407262e-22
1.1165578,0.87918685,0.021264456,5.4412721e-22
1.1241208,0.88240412,0.022609741,-5.8154894e-22
1.1321378,0.88558677,0.024000589,-1.0243831e-21
1.140636,0.88874359,0.025434182,1.8757397e-22
1.1496443,0.89188257,0.026906731,9.0804965e-22
1.1591934,0.89501118,0.028413417,5.8273032e-23
1.1693157,0.89813652,0.029948359,-4.883689e-22
1.1800455,0.90126559,0.031504584,-2.5189e-22
1.1914194,0.90440543,0.033074033,-5.6414662e-23
1.2034761,0.90756332,0.034647585,6.5645888e-22
1.2162565,0.91074695,0.036215097,3.8059567e-22
1.229804,0.91396458,0.037765483,-5.9517767e-22
1.2441647,0.91722514,0.039286811,-4.6191371e-22
1.2593874,0.92053834,0.040766424,2.1231421e-22
1.2755239,0.9239148,0.042191087,3.5034243e-22
1.292629,0.92736605,0.043547158,1.478117e-22
1.3107609,0.93090462,0.044820765,-1.920708e-22
1.3299811,0.93454397,0.045998014,8.6961413e-23
1.350355,0.9382985,0.047065209,-1.2930912e-22
1.3719519,0.94218342,0.048009079,6.9155674e-24
1.3948452,0.94621469,0.048817017,8.9021326e-23
1.4191127,0.95040874,0.04947733,-3.9353696e-22
1.4448368,0.95478225,0.049979481,-2.4786493e-22
1.472105,0.95935176,0.050314313,7.669478e-23
1.5010101,0.96413322,0.050474245,2.5536594e-22
1.5316502,0.96914135,0.050453418,3.6208942e-22
1.5641295,0.974389,0.050247767,-2.23164e-23
1.5985584,0.97988625,0.04985499,-3.8282423e-22
1.6350539,0.98563962,0.049274418,-1.4067757e-22
1.67374,0.99165111,0.048506783,2.1998641e-22
1.7147484,0.99791753,0.04755389,8.8067522e-23
1.7582183,1.0044299,0.04641819,-2.0259778e-22
1.8042975,1.011173,0.045102323,3.5424155e-23
1.8531427,1.0181258,0.043608572,7.7500574e-23
1.9049198,1.0252603,0.041937956,-2.5826585e-23
1.9598049,1.0325398,0.040088845,-5.1174494e-23
2.0179846,1.0398136,0.038090778,4.126556e-23
2.0761642,1.0467225,0.036053553,3.7069733e-23
2.1310493,1.0529825,0.03408822,6.5703013e-24
2.1828264,1.0585625,0.032224858,-1.1078706e-22
2.2316716,1.06351,0.030458908,-1.6154219e-22
2.2777508,1.0678666,0.028785894,9.5338593e-23
2.3212207,1.0716709,0.027201527,1.1482075e-22
2.362229,1.0749579,0.025701391,-5.7109832e-23
2.4009152,1.0777591,0.02428109,-4.4555672e-23
2.4374107,1.0801026,0.022936355,-7.9034734e-24
2.4718395,1.0820127,0.021663009,2.9685736e-23
2.5043188,1.0835098,0.020457032,2.1546039e-23
2.5349589,1.084611,0.019314583,-4.0543976e-23
2.5638639,1.0853293,0.018231955,9.2591705e-25
2.5911321,1.085675,0.017205577,-1.0677909e-23
2.6168562,1.0856552,0.016232002,-6.7960364e-23
2.6411237,1.0852744,0.015307906,7.336416e-23
2.6640169,1.084535,0.014430079,3.4464302e-23
2.6856138,1.0834376,0.013595422,-8.6502295e-23
2.7059877,1.0819813,0.012800951,9.6895257e-24
2.7252079,1.0801645,0.012043815,3.8745072e-23
2.7433397,1.0779851,0.011321305,-5.5417682e-23
2.7604448,1.0754412,0.010630869,4.4328899e-23
2.7765813,1.0725315,0.0099701382,-8.9153031e-24
2.791804,1.0692555,0.0093369432,-7.9719689e-23
2.8061647,1.0656141,0.0087293389,-9.0036967e-24
2.8197122,1.0616098,0.0081456194,3.7036908e-23
2.8324926,1.0572465,0.0075843297,4.1720659e-23
2.8445492,1.0525301,0.0070442662,5.850189e-24
2.8559231,1.0474672,0.0065244699,-1.7350709e-23
2.866653,1.042066,0.0060242122,-2.5881949e-23
2.8767752,1.0363348,0.0055429719,-1.8097173e-23
2.8863243,1.0302821,0.005080407,-2.7217121e-24
2.8953326,1.0239157,0.0046363243,5.0282252e-23
2.9038308,1.017242,0.0042106486,5.8982573e-24
2.9118478,1.0102656,0.0038033861,-2.0228643e-24
2.9194108,1.0029891,0.0034145911,-7.0978831e-24
2.9265456,0.99541181,0.0030443425,1.0704536e-23
2.9332763,0.98753041,0.0026927295,3.12645e-23
2.9396259,0.97933819,0.0023598478,-4.0891491e-23
2.9456159,0.97082494,0.0020457882,-1.8470661e-23
2.9512667,0.96197681,0.0017506227,-5.7446763e-24
2.9565976,0.95277619,0.0014744136,-2.0370561e-23
2.9616265,0.94320237,0.0012171787,3.6009207e-24
2.9663707,0.93323253,0.00097880612,-1.7832886e-24
2.9708463,0.92284037,0.00075903909,9.8914627e-24
2.9750684,0.9119954,0.00055754047,9.2460469e-24
2.9790514,0.90066442,0.0003739135,-1.4465353e-23
2.9828089,0.88881171,0.00020770415,-1.6703863e-23
2.9863536,0.87639915,5.8421725e-05,2.1463094e-23
2.9896976,0.8633862,-7.4463959e-05,3.8301107e-23
2.9928523,0.84972982,-0.00019153464,-7.2907057e-24
2.9958282,0.83538441,-0.00029343212,-3.7358793e-23
2.9986357,0.82030144,-0.00038085949,-6.760064e-24
3.0012842,0.804429,-0.0004545824,1.9406066e-23
3.0037827,0.78771112,-0.0005154209,7.2395956e-24
3.0061397,0.77008701,-0.00056424426,7.1216608e-24
3.0083633,0.75149002,-0.0006019596,-8.0170322e-24
3.010461,0.73184606,-0.00062948747,-1.5252083e-23
3.0124398,0.71107172,-0.00064771717,-1.9918726e-23
3.0143066,0.68907232,-0.00065747832,3.9060101e-24
3.0160677,0.6657409,-0.00065954477,2.5388018e-23
3.0177291,0.64095484,-0.00065457943,-1.1172234e-24
3.0192964,0.61457351,-0.00064310147,-2.4519701e-24
3.0207749,0.58644007,-0.0006255027,3.4432036e-24
3.0221698,0.5563868,-0.0006019665,-1.0015275e-23
3.0234856,0.524249,-0.00057237482,7.5816733e-24
3.0247269,0.48989405,-0.00053648965,9.1040034e-24
3.0258979,0.45327354,-0.00049469885,-9.7510835e-24
3.0270027,0.41450137,-0.00044881341,-3.9161177e-24
3.0280448,0.37393781,-0.00040106268,-1.1068978e-24
3.029028,0.33222173,-0.00035150612,-8.3640702e-25
3.0299554,0.29018389,-0.00029818028,4.9210017e-24
3.0308304,0.24865219,-0.0002408341,4.9856858e-24
3.0316558,0.20826536,-0.00018262025,-2.3802414e-24
3.0324345,0.1694037,-0.00012786791,-3.9901264e-24
3.0331691,0.13223321,-8.0075762e-05,3.5489671e-25
3.033862,0.096789179,-4.1912358e-05,1.3994206e-24
3.0345158,0.063043931,-1.5648289e-05,9.6367081e-25
3.0351325,0.030945322,-2.1553814e-06,2.5864033e-25
3.0357143,0,0,0
