y,R_0,R_1,R_2,R_3,R_4,R_5
0.44812865,6.6666667e-11,0,0,6.6666667e-11,0,6.6666667e-11
0.44889173,1.0426181e-05,6.1713613e-11,-1.3608104e-27,1.0425713e-05,-6.0050785e-28,1.0425947e-05
0.44970062,5.452801e-06,6.7756657e-11,1.7820636e-26,5.4523038e-06,2.0641897e-26,5.4525526e-06
0.45055804,2.6859202e-06,5.5481943e-11,6.424603e-27,2.6855279e-06,7.5686932e-27,2.6857241e-06
0.4514669,1.2647828e-06,3.5235699e-11,-1.3411607e-26,1.2645426e-06,-1.5231611e-26,1.2646627e-06
0.4524303,5.4860482e-07,1.6410838e-11,2.6508963e-26,5.484969e-07,-2.6582051e-26,5.4855086e-07
0.4534515,2.018342e-07,5.1702364e-12,2.4467662e-26,2.0180132e-07,-1.5439652e-26,2.0181776e-07
0.45453396,5.7907826e-08,1.202267e-12,-7.0230957e-27,5.7900391e-08,5.0080901e-27,5.7904109e-08
0.45568137,1.4613852e-08,2.809735e-13,2.7846351e-29,1.4612163e-08,-4.4773168e-30,1.4613008e-08
0.45689761,5.1807187e-09,3.375531e-14,2.0885046e-28,5.1805213e-09,-1.3824053e-28,5.18062e-09
0.45818681,2.6208477e-09,8.6322653e-15,-3.9742141e-29,2.6207992e-09,2.8464327e-29,2.6208234e-09
0.45955335,1.4998633e-09,2.9062461e-15,5.1265468e-30,1.4998476e-09,-4.2101264e-30,1.4998554e-09
0.46100186,9.1629158e-10,1.1111766e-15,-2.6960895e-30,9.1628589e-10,1.9669375e-30,9.1628874e-10
0.46253725,6.4469265e-10,5.592382e-16,5.0974044e-32,6.4468997e-10,1.0765888e-31,6.4469131e-10
0.46416474,5.9833284e-10,5.0958291e-16,-2.4830425e-31,5.9833057e-10,-1.3811066e-31,5.983317e-10
0.46588984,7.6541438e-10,9.3185326e-16,8.1515146e-30,7.6541049e-10,-5.8461697e-30,7.6541244e-10
0.46771841,1.2330992e-09,2.7198768e-15,-1.4451991e-29,1.2330886e-09,1.2703126e-29,1.2330939e-09
0.46965663,2.247565e-09,1.0028154e-14,-2.6439846e-29,2.2475279e-09,1.4345183e-29,2.2475465e-09
0.47171109,4.3844259e-09,4.2158416e-14,4.2471096e-28,4.3842788e-09,-3.1432585e-28,4.3843524e-09
0.47388874,9.1541314e-09,2.0525565e-13,-1.6844847e-27,9.1534561e-09,1.3033517e-27,9.1537939e-09
0.47619696,2.159076e-08,1.3098316e-12,-1.0213119e-26,2.15867e-08,7.5168641e-27,2.158873e-08
0.47864358,6.1679727e-08,1.2420671e-11,8.3306376e-26,6.1643133e-08,-6.1532182e-26,6.1661433e-08
0.48123688,1.9851625e-07,1.4163225e-10,5.8744072e-26,1.981152e-07,-1.4546944e-25,1.9831577e-07
0.48398565,5.8240863e-07,9.1550876e-10,1.0634544e-25,5.7991386e-07,3.3124689e-25,5.8116153e-07
0.48689919,1.4070691e-06,4.4049849e-09,-1.3356577e-23,1.3955593e-06,1.0329304e-23,1.4013156e-06
0.48998737,2.8400877e-06,1.6598098e-08,1.410599e-23,2.7986524e-06,-5.9049728e-24,2.8193753e-06
0.49326063,5.0201716e-06,5.0024672e-08,5.7396117e-23,4.9008701e-06,-5.803506e-23,4.9605364e-06
0.49673006,8.0820657e-06,1.2583043e-07,4.3849171e-22,7.7943334e-06,-3.3781264e-22,7.9382373e-06
0.50040738,1.2198187e-05,2.7557306e-07,5.2874161e-22,1.1589809e-05,-2.4363747e-22,1.1894077e-05
0.50430504,1.7551402e-05,5.3781814e-07,-3.5950049e-22,1.6394423e-05,3.721745e-22,1.6973063e-05
0.50843621,2.431984e-05,9.4630316e-07,-2.5304782e-21,2.2315745e-05,1.3342773e-21,2.331805e-05
0.51281485,3.2695226e-05,1.5290208e-06,-1.9642771e-21,2.9476225e-05,1.2255577e-21,3.1086083e-05
0.51745575,4.2957075e-05,2.3379799e-06,1.3948974e-20,3.8025319e-05,-7.953657e-21,4.0491577e-05
0.5223746,5.5409403e-05,3.4511583e-06,-5.9245542e-21,4.8075282e-05,3.2003256e-21,5.1742642e-05
0.52758798,7.033084e-05,4.9429824e-06,-1.9237659e-20,5.9716517e-05,1.1395487e-20,6.5023775e-05
0.5331135,8.7825128e-05,6.8420932e-06,7.8000764e-22,7.2962174e-05,1.0021931e-21,8.0393693e-05
0.5389698,0.00010793256,9.1361346e-06,2.1412462e-22,8.7853581e-05,-3.0273135e-22,9.7893478e-05
0.54517662,0.00013034604,1.176246e-05,-2.337406e-21,0.00010422837,-1.7714247e-21,0.00011728505
0.55175487,0.00015468249,1.4831314e-05,-3.5521758e-20,0.00012157115,2.344642e-20,0.00013811689
0.55872671,0.00018117432,1.9127968e-05,1.2916816e-20,0.00013856448,-4.3652466e-21,0.00015985415
0.56611562,0.00020895512,2.4616636e-05,4.6889339e-20,0.00015456552,-3.1652669e-20,0.00018174357
0.57394645,0.00023613508,3.0384193e-05,-1.4657627e-21,0.00016972665,-7.9049738e-22,0.00020290538
0.58224554,0.00026162256,3.608116e-05,-8.8711807e-23,0.00018371742,1.2328941e-21,0.00022262968
0.59104077,0.00028469945,4.1501215e-05,-1.4955575e-21,0.00019639856,2.0346638e-21,0.00024049438
0.60036169,0.00030481205,4.6436972e-05,3.4847503e-20,0.00020792946,-1.9054352e-20,0.00025630102
0.61023957,0.00032159817,5.0569092e-05,-3.8029563e-21,0.00021877002,-1.6155937e-21,0.00027013398
0.62070753,0.00033525391,5.3378863e-05,-1.0613302e-19,0.00022962727,5.6860269e-20,0.00028245991
0.63180065,0.00034674306,5.4018526e-05,5.1533021e-21,0.00024139188,-1.2134715e-21,0.00029413417
0.64355608,0.00035738213,5.2100115e-05,6.5274324e-20,0.00025456095,-3.8548443e-20,0.00030600216
0.65601313,0.00036793451,4.770802e-05,-4.0294371e-19,0.0002696772,2.1980382e-19,0.00031878606
0.66921344,0.00038019039,4.1522654e-05,1.8475232e-20,0.0002884807,4.1588809e-22,0.00033431364
0.68320109,0.00039355783,3.3540778e-05,4.509256e-19,0.00031186775,-2.4300291e-19,0.00035270968
0.69802271,0.0004203395,2.3782291e-05,-5.7640353e-20,0.00035234342,2.2988337e-20,0.00038640917
0.71372771,0.00046606648,1.1131986e-05,-6.4072201e-19,0.00041708084,3.4266549e-19,0.00044170799
0.73036835,0.00052900097,-6.7133852e-06,2.9981909e-20,0.00050720607,-1.6546795e-20,0.00051824772
0.74799993,0.00065572232,-3.5008705e-05,6.5724316e-19,0.000671646,-3.5231997e-19,0.00066395773
0.76668101,0.00090364838,-8.9262006e-05,3.0652265e-22,0.00097915912,-2.5006858e-21,0.00094121096
0.78647352,0.0012629665,-0.0002096216,6.7999657e-22,0.0014510765,8.0841578e-22,0.0013547997
0.80744298,0.0016736409,-0.00046089876,3.9280703e-21,0.0020484399,3.7406776e-22,0.0018606292
0.82965874,0.0021930364,-0.00075901434,-9.1120418e-20,0.0027078699,-4.0093982e-20,0.002452663
0.85319413,0.0029391702,-0.00092778066,-3.5177259e-21,0.0034554608,2.7093663e-21,0.0031966509
0.87812672,0.0039133305,-0.0010544584,1.400773e-19,0.0044097568,4.7967156e-20,0.0041620462
0.90453854,0.005099628,-0.0012755444,6.6658183e-19,0.0055968636,1.4113955e-20,0.0053493024
0.93251635,0.0063851892,-0.0015314053,6.9186334e-18,0.0068561606,-4.6141963e-20,0.0066207428
0.96215187,0.0076010173,-0.0017240086,-1.9915068e-18,0.0080058029,-1.7275417e-20,0.007803581
0.99354207,0.0087141683,-0.0018412959,-8.6462472e-18,0.0090371061,4.5006737e-20,0.0088759716
1.0138311,0.0093869474,-0.0019026613,-3.4129349e-18,0.0096669512,1.811047e-20,0.0095272933
1.0267912,0.0098185521,-0.0019428431,3.7905691e-21,0.010071347,-1.3531947e-22,0.0099452876
1.0620087,0.011008118,-0.0021011583,-1.4438516e-20,0.011213069,-4.3591446e-22,0.01111088
1.0993063,0.012295707,-0.0023673374,2.2731556e-20,0.012470215,-1.1019205e-22,0.012383183
1.1388048,0.013613691,-0.0027673763,-1.9131699e-17,0.013760713,3.22928e-19,0.013687333
1.1806322,0.014838543,-0.0032960922,-9.3581699e-18,0.014941127,1.490299e-19,0.014889834
1.2249233,0.015828165,-0.0039070033,5.5706711e-17,0.015852004,-9.1152804e-19,0.015839935
1.2718207,0.016461798,-0.0045104602,-2.3542024e-17,0.016370628,3.1547479e-19,0.016416031
1.321475,0.016673973,-0.0049970566,-2.5202077e-17,0.01645196,4.118689e-19,0.016562995
1.3740452,0.016470652,-0.0052834564,9.4254381e-17,0.016133713,-1.346038e-18,0.016302567
1.4296989,0.01592268,-0.0053494133,-8.9733877e-17,0.015507498,1.1246871e-18,0.015715699
1.4886134,0.015143141,-0.0052378655,6.80386e-18,0.014684937,-7.5755432e-21,0.014914638
1.5509756,0.014263076,-0.0050251545,9.9176142e-17,0.013780644,-1.247555e-18,0.014022221
1.6169826,0.013420803,-0.0047880099,-5.152667e-17,0.01290707,6.1854177e-19,0.013164271
1.6868426,0.01276779,-0.0045768817,-3.6595495e-19,0.012170321,4.5777356e-21,0.012469924
1.760775,0.012456421,-0.0044225281,9.8153772e-20,0.01168703,-7.1082926e-22,0.01207203
1.8345848,0.012585539,-0.004363727,4.7145123e-20,0.011587417,-1.2083045e-21,0.012085942
1.9041042,0.013197962,-0.0044158118,-2.3606252e-16,0.011957762,1.7862027e-18,0.012577747
1.9695896,0.014316744,-0.004540453,2.1069704e-16,0.01281251,-1.4452675e-18,0.013564647
2.0312813,0.015908122,-0.0046784568,2.89028e-16,0.014113213,-2.1975496e-18,0.015010338
2.0894046,0.017880399,-0.004783678,-2.042578e-16,0.015794949,1.3551211e-18,0.016836824
2.0951232,0.018114379,-0.0047876684,-1.8383387e-16,0.016001546,1.2196038e-18,0.017057192
2.1441731,0.020129216,-0.0048241593,1.7372908e-17,0.017774427,-7.1609144e-20,0.018951733
2.1957821,0.022665069,-0.0048306789,-3.7615099e-18,0.020019055,1.585325e-20,0.021343514
2.244417,0.025508247,-0.0048291628,-6.6552914e-16,0.02248526,2.1975514e-18,0.023997177
2.2902523,0.028391261,-0.0047330945,-6.7217664e-16,0.024970804,1.7862548e-18,0.026679957
2.3334521,0.031022653,-0.0045012199,4.8936772e-15,0.027297231,-1.2652999e-17,0.029159409
2.3741702,0.033274942,-0.0041638423,3.1613792e-16,0.029399373,-9.7100263e-19,0.031337015
2.4125513,0.035052348,-0.003746458,-4.6243159e-15,0.031214017,1.1312304e-17,0.033132847
2.4487314,0.036300625,-0.0032806134,8.4360074e-19,0.032690389,-2.8195055e-21,0.034495224
2.4828384,0.037008806,-0.0027971558,6.738671e-19,0.033793485,-3.6529007e-21,0.035400922
2.5149925,0.037201439,-0.0023220291,4.5203735e-16,0.034502052,-2.2719265e-19,0.035851565
2.5453067,0.036928254,-0.0018738128,3.7048988e-15,0.034809497,-3.6211622e-18,0.035868782
2.5738875,0.036254117,-0.001463296,-3.6697301e-16,0.034724406,1.7174877e-19,0.035489243
2.6008349,0.035249834,-0.0010947594,-4.9194723e-15,0.034270134,4.7331221e-18,0.034760025
2.6262432,0.033985759,-0.00076787263,-9.7290489e-17,0.033483114,8.7261959e-20,0.033734507
2.650201,0.032527604,-0.00047965103,9.1704084e-16,0.032410102,-7.3604315e-19,0.032468923
2.6727917,0.030934226,-0.00022621259,-2.7117589e-17,0.031104727,3.2237043e-20,0.031019564
2.6940941,0.029257124,-3.6919892e-06,-2.5417573e-15,0.02962383,2.3028452e-18,0.029440583
2.714182,0.027540399,0.00019094123,-4.1399223e-16,0.028023903,3.7953496e-19,0.027782245
2.7331252,0.025820854,0.00035944587,2.395939e-15,0.026357876,-2.240615e-18,0.026089448
2.7509893,0.024128198,0.00050258343,-2.6171634e-20,0.024672327,-2.734423e-22,0.024400336
2.7678362,0.022484701,0.00062039745,-1.557169e-19,0.023005188,-2.7241888e-22,0.022745007
2.7837241,0.020904687,0.00071248824,1.4564156e-16,0.021384107,-1.5229554e-19,0.021144443
2.7987078,0.019394541,0.00077852702,3.0940246e-17,0.019825931,-3.1892617e-20,0.01961025
2.812839,0.017954154,0.00081902717,-1.2015336e-16,0.018338047,1.2629558e-19,0.018146085
2.8261666,0.016580858,0.0008359934,1.1099819e-20,0.016922284,3.9305011e-24,0.01675154
2.8387363,0.015274738,0.00083286877,-2.6104849e-20,0.015580425,4.1619471e-22,0.015427554
2.8505915,0.014041924,0.00081355221,-7.5594351e-21,0.014318003,1.4137608e-23,0.01417995
2.8617729,0.012892293,0.00078134415,2.5300832e-17,0.013142901,-7.6620418e-20,0.013017601
2.872319,0.011832611,0.00073877427,3.3904774e-17,0.012059577,-8.0164029e-20,0.011946108
2.8822659,0.010860165,0.00068802309,3.0944051e-17,0.0110636,-8.7152261e-20,0.010961898
2.8916478,0.0099612296,0.00063117961,-1.2414264e-16,0.010140504,3.8647447e-19,0.010050877
2.900497,0.0091147189,0.00057008233,-4.2368596e-17,0.0092692892,1.1660395e-19,0.0091920058
2.9088436,0.0082981233,0.0005061024,3.6593848e-17,0.0084278868,-9.1304881e-20,0.0083630111
2.9167165,0.007492135,0.00044005668,-2.0771943e-17,0.0075973339,8.1043689e-20,0.0075447595
2.9241424,0.0066820336,0.00037196639,4.4409556e-17,0.006763158,-1.735515e-19,0.0067226221
2.9311469,0.0058576263,0.00030310028,-6.1472266e-21,0.0059161211,-2.1852338e-22,0.0058868834
2.9377539,0.0050149569,0.00023601452,-1.1921322e-17,0.0050537752,5.3949106e-20,0.0050343667
2.943986,0.0041584516,0.00017286538,-6.2979141e-18,0.0041816248,2.9198088e-20,0.0041700384
2.9498645,0.0033035168,0.00011623381,1.2410112e-17,0.0033155406,-5.8229989e-20,0.0033095264
2.9554096,0.0024832696,6.9540809e-05,3.9695397e-18,0.0024884836,-1.9559329e-20,0.0024858689
2.9606401,0.0017428385,3.9028669e-05,-4.8609954e-18,0.0017448068,2.4479226e-20,0.0017438179
2.965574,0.0011190358,2.1741447e-05,-1.7410628e-18,0.0011197678,8.9885727e-21,0.001119403
2.970228,0.00063384874,9.9701796e-06,1.2149537e-18,0.00063406674,-6.2981459e-21,0.00063395866
2.9746182,0.00029864764,3.2695791e-06,6.3929963e-19,0.0002986866,-3.3776934e-21,0.00029866705
2.9787594,0.0001097206,6.7609402e-07,-7.93241e-20,0.00010972234,4.1788529e-22,0.00010972146
2.9826658,3.3255124e-05,1.099989e-07,-4.5392333e-22,3.3254274e-05,2.331441e-24,3.3254701e-05
2.9863508,1.2889259e-05,4.4348851e-08,-9.5071054e-22,1.2888517e-05,5.161531e-24,1.2888888e-05
2.9898268,8.269484e-06,2.8460469e-08,5.269806e-26,8.2688064e-06,-2.4155169e-27,8.2691453e-06
2.9931058,6.4424294e-06,2.1546831e-08,-2.6768315e-26,6.4418009e-06,-5.1033541e-27,6.4421152e-06
2.996199,4.9994493e-06,1.6137361e-08,-3.9900387e-27,4.9989169e-06,1.8258771e-27,4.9991831e-06
2.9991168,3.6114464e-06,1.0480247e-08,-1.2909238e-22,3.6110739e-06,6.6767879e-25,3.6112602e-06
3.0018692,2.3628575e-06,5.5889973e-09,-3.8107396e-23,2.3626507e-06,2.0335987e-25,2.3627541e-06
3.0044657,1.3838942e-06,2.384203e-09,7.947315e-23,1.3838047e-06,-4.0562178e-25,1.3838495e-06
3.006915,7.2409205e-07,8.0619925e-10,-9.7880497e-24,7.2406197e-07,4.9391758e-26,7.2407701e-07
3.0092255,3.4010865e-07,2.1694392e-10,1.767701e-24,3.4010075e-07,-8.1257335e-27,3.401047e-07
3.0114051,1.4456912e-07,4.6982898e-11,-1.5533269e-25,1.4456747e-07,7.7124902e-28,1.4456829e-07
3.0134612,5.61468e-08,8.3008669e-12,-5.6455922e-26,5.6146522e-08,2.4948485e-28,5.6146661e-08
3.0154008,2.0172761e-08,1.2230663e-12,6.5657339e-32,2.0172722e-08,5.2346985e-32,2.0172742e-08
3.0172305,6.7816706e-09,1.5329694e-13,9.565261e-33,6.7816661e-09,2.1408386e-33,6.7816684e-09
3.0189565,2.1649709e-09,1.6765152e-14,2.1258409e-29,2.1649705e-09,-6.5174056e-32,2.1649707e-09
3.0205847,6.7271104e-10,1.673505e-15,2.2704794e-29,6.72711e-10,-6.8380377e-32,6.7271103e-10
3.0221207,2.1218039e-10,1.6446293e-16,1.054609e-30,2.1218039e-10,-2.3856409e-33,2.1218039e-10
3.0235696,7.4349699e-11,1.8569918e-17,-3.8703246e-31,7.4349699e-11,1.0793666e-33,7.4349699e-11
3.0249365,3.6260225e-11,3.6963402e-18,-1.7019524e-37,3.6260225e-11,-9.852607e-38,3.6260225e-11
3.026226,3.5207895e-11,3.1648713e-18,-3.3094771e-32,3.5207895e-11,5.8955376e-35,3.5207895e-11
3.0274424,7.7395263e-11,1.6497105e-17,2.0539044e-31,7.7395263e-11,-3.6556217e-34,7.7395263e-11
3.0285899,3.6720257e-10,4.1049481e-16,2.3863049e-31,3.6720257e-10,-4.2154223e-34,3.6720257e-10
3.0296724,4.0808368e-09,5.4212517e-14,6.1357954e-29,4.0808363e-09,-6.7873435e-32,4.0808365e-09
3.0306935,1.0737312e-07,1.6560393e-11,-1.3456299e-25,1.0737299e-07,1.2444082e-28,1.0737305e-07
3.0316569,2.2597108e-06,5.4231556e-10,2.208484e-24,2.2597073e-06,-2.3398456e-27,2.2597091e-06
3.0325656,1.3465338e-05,6.4066279e-09,2.1870688e-23,1.3465306e-05,-1.6200287e-26,1.3465322e-05
3.0334229,4.2243256e-05,2.5371716e-08,1.9508153e-23,4.2243161e-05,-1.3695115e-26,4.2243208e-05
3.0342316,9.5642356e-05,5.2143682e-08,-3.0590217e-23,9.5642225e-05,5.7976086e-27,9.564229e-05
3.0349946,0.0001823905,5.898607e-08,-4.6961641e-24,0.00018239042,8.6721688e-28,0.00018239046
3.0357143,6.6666667e-11,0,0,6.6666667e-11,0,6.6666667e-11
