y,R_0,R_1,R_2,R_3,R_4,R_5
-2.7950884e-17,6.6666667e-11,0,0,6.6666667e-11,0,6.6666667e-11
0.00086769924,9.3369371e-05,-7.8857588e-09,8.1517973e-24,9.3369444e-05,-1.753553e-26,9.3369408e-05
0.0017874829,6.0039545e-05,-5.8313693e-09,6.9195931e-24,6.0039638e-05,-1.3050545e-26,6.0039592e-05
0.0027624773,2.3946757e-05,-1.859513e-09,-3.2084263e-24,2.3946803e-05,6.97326e-27,2.394678e-05
0.0037959966,4.5849389e-06,-1.9925308e-10,2.9005844e-32,4.584946e-06,7.3153045e-32,4.5849424e-06
0.0048915537,2.6412765e-07,-1.1315389e-11,-6.1021136e-28,2.641282e-07,4.4938618e-30,2.6412793e-07
0.0060528726,2.3417531e-08,-4.6261785e-13,-5.7410244e-28,2.3417561e-08,4.2041194e-30,2.3417546e-08
0.0072839007,3.6855441e-09,-1.1767905e-14,3.6505408e-29,3.685545e-09,-3.0847843e-31,3.6855446e-09
0.0085888223,5.1619919e-10,-2.1470698e-16,1.0631817e-30,5.1619922e-10,-1.2594477e-32,5.1619919e-10
0.0099720729,8.3033293e-11,-4.5955392e-18,-2.9825935e-32,8.3033293e-11,3.3608111e-34,8.3033293e-11
0.011438354,2.27545e-11,-2.7730086e-19,-2.8643519e-35,2.27545e-11,6.0012989e-37,2.27545e-11
0.01299265,1.0109554e-11,-4.212672e-20,-1.7728156e-35,1.0109554e-11,3.7297345e-37,1.0109554e-11
0.014640245,7.2459469e-12,-1.4661895e-20,-5.9317334e-35,7.2459469e-12,1.4748105e-36,7.2459469e-12
0.016386737,9.1780696e-12,-1.0907992e-20,-7.7275029e-35,9.1780696e-12,2.5650697e-36,9.1780696e-12
0.018238064,2.0080437e-11,3.4861942e-20,1.4467406e-33,2.0080437e-11,-3.9269924e-35,2.0080437e-11
0.020200518,7.620882e-11,2.4782475e-18,-9.8322514e-33,7.620882e-11,3.8107967e-34,7.620882e-11
0.022280771,5.5167963e-10,2.8783506e-16,1.3655185e-30,5.516797e-10,-5.4825148e-32,5.5167967e-10
0.024485892,4.037763e-09,2.4258771e-14,-3.9130816e-29,4.0377651e-09,1.6946846e-30,4.037764e-09
0.026823378,1.6899086e-08,5.2206631e-13,-4.0435918e-29,1.6899092e-08,1.7445097e-30,1.6899089e-08
0.029301173,4.5772184e-08,4.5628255e-12,2.3343411e-33,4.577198e-08,3.6462845e-32,4.5772082e-08
0.0319277,9.4597616e-08,2.3986277e-11,2.6572084e-26,9.4595352e-08,-1.1756878e-27,9.4596486e-08
0.034711887,1.6544927e-07,9.1297239e-11,-5.4756552e-26,1.6543649e-07,2.4314207e-27,1.6544289e-07
0.037663197,2.5783524e-07,2.753214e-10,-1.1544819e-25,2.5778512e-07,1.0350226e-26,2.5781021e-07
0.040791661,3.6622923e-07,6.8589936e-10,4.2715878e-26,3.6607864e-07,-8.552551e-27,3.6615405e-07
0.044107915,4.7803151e-07,1.4308479e-09,-1.8723271e-25,4.7767146e-07,-3.8851876e-26,4.7785169e-07
0.047623229,5.7385978e-07,2.4934456e-09,1.1694786e-24,5.7316434e-07,5.0454381e-26,5.7351237e-07
0.051349553,6.3116477e-07,3.6047396e-09,-1.421937e-24,6.300779e-07,-7.0736812e-26,6.3062207e-07
0.055299553,6.318105e-07,4.2771726e-09,-1.0661414e-24,6.3044461e-07,-4.4270589e-26,6.311288e-07
0.059486654,5.7090297e-07,4.099374e-09,1.6268494e-24,5.6954141e-07,1.3216135e-25,5.7022366e-07
0.06392509,4.6148327e-07,3.1201349e-09,3.7331037e-24,4.6042549e-07,-1.589031e-25,4.6095584e-07
0.068629948,3.3000776e-07,1.8483429e-09,2.8013025e-24,3.2938109e-07,-1.352405e-25,3.2969557e-07
0.073617218,2.057166e-07,8.2787558e-10,-1.4058203e-24,2.0544144e-07,6.7272913e-26,2.0557968e-07
0.078903853,1.1006778e-07,2.7097151e-10,-1.4353729e-25,1.0998084e-07,-2.8294583e-27,1.1002458e-07
0.084507823,5.0123385e-08,6.2947224e-11,1.6658729e-25,5.0103957e-08,-1.1400341e-26,5.0113745e-08
0.090448176,1.9827428e-08,1.0522528e-11,-3.6892641e-26,1.9824253e-08,2.8938865e-27,1.9825855e-08
0.096745104,7.3580639e-09,1.4562989e-12,4.2505006e-28,7.3576218e-09,-7.8500641e-29,7.3578449e-09
0.10342001,2.8662182e-09,2.1446187e-13,8.1699649e-34,2.8661516e-09,2.025162e-32,2.8661852e-09
0.11049558,1.2581875e-09,3.9947246e-14,7.9725789e-35,1.2581748e-09,-1.3521413e-33,1.2581812e-09
0.11799587,6.2822076e-10,9.6412661e-15,1.3967844e-34,6.2821759e-10,1.3607491e-34,6.2821919e-10
0.12594638,3.5255978e-10,2.9384204e-15,7.3942804e-31,3.5255877e-10,-1.2442003e-31,3.5255928e-10
0.13437411,2.1939894e-10,1.0991058e-15,4.2529591e-31,2.1939854e-10,-7.190113e-32,2.1939874e-10
0.14330773,1.4944644e-10,4.9141087e-16,-3.3314928e-31,1.4944625e-10,5.60543e-32,1.4944635e-10
0.1527776,1.0986661e-10,2.5506965e-16,-1.2352392e-35,1.0986651e-10,7.3001574e-36,1.0986656e-10
0.1628159,8.5838029e-11,1.4858716e-16,-5.7537689e-31,8.583797e-11,5.1361725e-32,8.5837999e-11
0.17345677,7.0220063e-11,9.400729e-17,-1.4198366e-31,7.0220023e-11,7.7864544e-33,7.0220043e-11
0.18473635,5.9382306e-11,6.291581e-17,3.859385e-31,5.9382277e-11,-3.624813e-32,5.9382292e-11
0.19669301,5.1373775e-11,4.3616917e-17,-4.6490777e-32,5.1373755e-11,7.5237789e-33,5.1373765e-11
0.20936737,4.5100257e-11,3.0786903e-17,-4.2801754e-38,4.5100241e-11,-1.0586988e-36,4.5100249e-11
0.22280253,3.99372e-11,2.1828571e-17,1.8397615e-37,3.9937188e-11,-5.6960964e-37,3.9937194e-11
0.23704414,3.553089e-11,1.5380645e-17,5.2477587e-37,3.5530882e-11,-3.4061089e-37,3.5530886e-11
0.25214061,3.1695463e-11,1.0677332e-17,-7.1596126e-37,3.1695457e-11,-4.0404697e-37,3.169546e-11
0.26814327,2.8349831e-11,7.2432329e-18,-1.3425392e-36,2.8349826e-11,3.8108234e-37,2.8349828e-11
0.28510649,2.547883e-11,4.7510899e-18,-2.660203e-32,2.5478826e-11,3.1208764e-33,2.5478828e-11
0.30308795,2.3098938e-11,2.9489273e-18,-4.9677561e-33,2.3098935e-11,5.8374749e-34,2.3098937e-11
0.32214876,2.123186e-11,1.630281e-18,2.135729e-32,2.1231858e-11,-2.5139169e-33,2.1231859e-11
0.34235371,1.9882248e-11,6.2250252e-19,4.0386511e-37,1.9882245e-11,-2.8252596e-38,1.9882247e-11
0.36377149,1.9025389e-11,-2.1375341e-19,1.0198606e-36,1.9025387e-11,-9.7592376e-38,1.9025388e-11
0.38647488,1.8606951e-11,-9.8555564e-19,3.941038e-37,1.8606949e-11,3.0454891e-37,1.860695e-11
0.41054106,1.8557731e-11,-1.7716083e-18,4.2423689e-37,1.8557729e-11,-1.1444117e-38,1.855773e-11
0.43605183,1.88181e-11,-2.6317817e-18,1.3057484e-32,1.8818098e-11,-2.5059187e-33,1.8818099e-11
0.46309391,1.9367024e-11,-3.6284573e-18,2.7021267e-34,1.9367021e-11,-4.2222867e-35,1.9367022e-11
0.49175922,2.0243511e-11,-4.8791472e-18,-1.1991678e-32,2.0243508e-11,2.2577903e-33,2.024351e-11
0.52214518,2.1552976e-11,-6.6289385e-18,-6.6513503e-37,2.1552974e-11,-4.3600304e-37,2.1552975e-11
0.55435509,2.3456813e-11,-9.3184074e-18,-2.2614194e-33,2.345681e-11,2.7132768e-33,2.3456811e-11
0.58849842,2.6139922e-11,-1.3573801e-17,5.2339653e-34,2.613992e-11,-6.1261402e-34,2.613992e-11
0.62469124,2.9734243e-11,-2.016447e-17,2.4496165e-32,2.9734242e-11,2.5430275e-32,2.9734243e-11
0.66305656,3.485817e-11,-3.0821684e-17,1.2549535e-32,3.4858172e-11,-3.1321953e-34,3.4858171e-11
0.70372479,4.2060113e-11,-4.633598e-17,-4.1634154e-32,4.206012e-11,-4.8622502e-32,4.2060116e-11
0.74683417,5.147896e-11,-6.1422143e-17,-3.0729604e-32,5.1478975e-11,-1.7052841e-32,5.1478967e-11
0.79253123,6.3637287e-11,-5.8700204e-17,-1.4917014e-35,6.3637306e-11,-5.9804222e-37,6.3637296e-11
0.84097128,7.9375257e-11,-3.9237532e-17,-3.6610551e-35,7.9375266e-11,-6.7154151e-36,7.9375262e-11
0.892319,9.9791253e-11,-2.6821874e-17,-1.4375921e-35,9.9791254e-11,-2.7302451e-36,9.9791254e-11
0.9467489,1.2640422e-10,-2.5654127e-17,-3.9240852e-36,1.2640422e-10,-3.8914852e-37,1.2640422e-10
1.004446,1.6183541e-10,-2.8281477e-17,-2.0000164e-31,1.6183541e-10,-1.1112218e-32,1.6183541e-10
1.0656064,2.1108329e-10,-3.338587e-17,1.4498607e-31,2.1108329e-10,7.3331204e-33,2.1108329e-10
1.1304381,2.8436096e-10,-4.373092e-17,2.8681941e-31,2.8436097e-10,1.6411404e-32,2.8436096e-10
1.1668475,3.4799836e-10,-5.7069463e-17,9.7073858e-32,3.4799837e-10,6.2437051e-33,3.4799836e-10
1.1991613,4.1574994e-10,-7.8008528e-17,-7.5147281e-32,4.1574997e-10,-3.0174469e-33,4.1574995e-10
1.2720096,9.2468893e-10,-1.2074839e-15,2.3193105e-32,9.2468937e-10,5.2417049e-34,9.2468913e-10
1.3492308,1.035745e-07,-6.0321238e-11,1.4350938e-27,1.036009e-07,1.9594331e-29,1.035877e-07
1.4310872,2.5169662e-06,-4.1593841e-09,9.1220174e-23,2.5189646e-06,1.1878931e-24,2.5179648e-06
1.5178571,1.4265614e-05,-4.1993685e-08,-3.706963e-22,1.4286079e-05,-4.808364e-24,1.4275845e-05
1.6046271,3.1887989e-05,-1.3949568e-07,-6.0334494e-22,3.1953229e-05,-7.8538636e-24,3.19206e-05
1.6864835,4.6988339e-05,-2.9145984e-07,4.0095956e-24,4.7111696e-05,3.4797241e-26,4.7050013e-05
1.7637046,5.853493e-05,-4.7840363e-07,-4.1894085e-20,5.8712483e-05,-2.3885435e-22,5.86237e-05
1.836553,6.0349239e-05,-5.5677236e-07,-1.6833734e-20,6.0534262e-05,-9.6104925e-23,6.0441739e-05
1.9052762,5.8795108e-05,-5.1254046e-07,2.4523612e-20,5.8950866e-05,1.3972777e-22,5.8872983e-05
1.9701079,6.7393276e-05,-5.1509856e-07,3.8205202e-20,6.7541294e-05,1.3948953e-22,6.7467279e-05
2.0312683,7.8921259e-05,-5.382602e-07,-6.6767542e-21,7.9073512e-05,-2.4621418e-23,7.8997386e-05
2.0889654,6.2226921e-05,-4.8758702e-07,-7.3838591e-21,6.2367801e-05,-6.9100291e-23,6.229736e-05
2.1433953,2.1697644e-05,-2.2565136e-07,4.4645176e-20,2.1764371e-05,1.1921185e-22,2.1731007e-05
2.194743,1.2467063e-06,-1.0396604e-09,-2.6526089e-22,1.2470356e-06,-7.0856797e-25,1.246871e-06
2.2431831,2.1166342e-08,-2.35277e-13,-8.6659646e-30,2.1166425e-08,-9.1237902e-32,2.1166384e-08
2.2888801,2.0185307e-10,-1.2198138e-17,1.2018581e-32,2.0185308e-10,1.8895626e-35,2.0185307e-10
2.3319895,3.9745687e-11,-1.1518437e-19,1.6439619e-36,3.9745687e-11,1.7546762e-38,3.9745687e-11
2.3726577,3.4059989e-11,-7.1698848e-20,1.4489534e-36,3.4059989e-11,1.964495e-38,3.4059989e-11
2.411023,3.0000235e-11,-4.9248813e-20,-5.6539098e-37,3.0000235e-11,-8.0810253e-40,3.0000235e-11
2.4472159,2.6544877e-11,-3.4822715e-20,-6.9563958e-33,2.6544877e-11,-1.184633e-36,2.6544877e-11
2.4813592,2.3596986e-11,-2.5284102e-20,-1.6765175e-33,2.3596986e-11,-2.7166593e-37,2.3596986e-11
2.5135691,2.1032567e-11,-1.8731737e-20,5.4820643e-33,2.1032567e-11,9.3398051e-37,2.1032567e-11
2.5439551,1.8745877e-11,-1.4028315e-20,-2.791425e-37,1.8745877e-11,-1.3271178e-39,1.8745877e-11
2.5726204,1.6666014e-11,-1.0542254e-20,4.3436955e-33,1.6666014e-11,-2.8584164e-36,1.6666014e-11
2.5826559,1.5959064e-11,-9.5598294e-21,1.3702034e-33,1.5959064e-11,-6.1179504e-37,1.5959064e-11
2.5996625,1.4784824e-11,-7.9435281e-21,-3.7035406e-33,1.4784824e-11,3.2168882e-36,1.4784824e-11
2.6251732,1.3055158e-11,-5.9283299e-21,-9.6113962e-33,1.3055158e-11,8.3820981e-36,1.3055158e-11
2.6492394,1.1462036e-11,-4.3363195e-21,2.283916e-33,1.1462036e-11,-1.6253419e-36,1.1462036e-11
2.6719428,1.0046785e-11,-3.1000596e-21,4.1799661e-33,1.0046785e-11,-4.2149983e-36,1.0046785e-11
2.6933606,8.9040369e-12,-2.1912858e-21,3.7681822e-35,8.9040369e-12,2.6311393e-40,8.9040369e-12
2.7135655,8.1932528e-12,-1.5738574e-21,-8.6455962e-34,8.1932528e-12,1.4025066e-36,8.1932528e-12
2.7326263,8.1269076e-12,-1.1764835e-21,2.262587e-34,8.1269076e-12,-3.5494669e-37,8.1269076e-12
2.7506078,8.9822477e-12,-8.4349276e-22,8.7909643e-34,8.9822477e-12,-1.4297332e-36,8.9822477e-12
2.767571,1.1138754e-11,-1.2276024e-22,9.4420604e-34,1.1138754e-11,-1.9731324e-36,1.1138754e-11
2.7835737,1.5068764e-11,2.4638421e-21,1.6064504e-34,1.5068764e-11,-3.2541466e-37,1.5068764e-11
2.7986701,2.1361591e-11,1.137881e-20,-2.2141196e-33,2.1361591e-11,4.715993e-36,2.1361591e-11
2.8129118,3.0909691e-11,3.9027614e-20,9.2723363e-33,3.0909691e-11,-2.0713198e-35,3.0909691e-11
2.8263469,4.5265611e-11,1.1894242e-19,-8.3301818e-32,4.5265611e-11,1.9583485e-34,4.5265611e-11
2.8390213,6.7172097e-11,3.4313008e-19,1.368477e-31,6.7172097e-11,-3.3300727e-34,6.7172097e-11
2.8509779,1.0146252e-10,9.7458955e-19,5.8835863e-32,1.0146252e-10,-1.3377378e-34,1.0146252e-10
2.8622575,1.5689232e-10,2.8135333e-18,-5.3918079e-32,1.5689232e-10,1.0115116e-34,1.5689232e-10
2.8728984,2.5002971e-10,8.502723e-18,-6.3538825e-31,2.5002971e-10,1.6035177e-33,2.5002971e-10
2.8829367,4.1368874e-10,2.7648528e-17,-1.4548733e-30,4.1368874e-10,4.4539136e-33,4.1368874e-10
2.8924066,7.1609162e-10,9.9158774e-17,3.0917217e-29,7.1609163e-10,-8.7490604e-32,7.1609163e-10
2.9013402,1.3059486e-09,4.0024384e-16,-5.9920456e-29,1.3059486e-09,1.7053242e-31,1.3059486e-09
2.9097679,2.5225419e-09,1.8434771e-15,-9.148459e-29,2.522542e-09,2.6042198e-31,2.5225419e-09
2.9177184,5.1662972e-09,9.7073653e-15,-1.2964584e-27,5.1662975e-09,3.9501913e-30,5.1662973e-09
2.9252187,1.1126177e-08,5.7246077e-14,-3.5483871e-27,1.1126178e-08,1.0939407e-29,1.1126178e-08
2.9322943,2.4589983e-08,3.5741838e-13,4.5207001e-26,2.4589986e-08,-1.3829547e-28,2.4589984e-08
2.9389692,5.3503652e-08,2.157156e-12,-2.2358206e-25,5.3503655e-08,7.0354984e-28,5.3503653e-08
2.9452661,1.0930951e-07,1.1405862e-11,1.0446975e-24,1.0930944e-07,-3.2825351e-27,1.0930947e-07
2.9512065,2.0231533e-07,4.930308e-11,3.2606099e-24,2.0231475e-07,-1.0268303e-26,2.0231504e-07
2.9568104,3.3404607e-07,1.6969548e-10,-4.6778718e-24,3.3404335e-07,1.4829054e-26,3.3404471e-07
2.9620971,4.8790153e-07,4.5566212e-10,-3.3565641e-23,4.8789282e-07,1.0484742e-25,4.8789718e-07
2.9670843,6.2893698e-07,9.5082196e-10,1.6726677e-23,6.2891687e-07,-5.2075021e-26,6.2892693e-07
2.9717892,7.1895937e-07,1.554272e-09,4.3827147e-23,7.1892465e-07,-1.3645345e-25,7.1894201e-07
2.9762276,7.3565831e-07,2.0227797e-09,6.0272824e-24,7.356121e-07,-1.7700321e-26,7.3563521e-07
2.9804147,6.8328118e-07,2.1483277e-09,8.5222953e-25,6.8323213e-07,-2.5062495e-27,6.8325666e-07
2.9843647,5.8550467e-07,1.9161241e-09,-5.2876559e-24,5.8546171e-07,1.5525482e-26,5.8548319e-07
2.9880911,4.6834496e-07,1.4656643e-09,6.1472994e-30,4.6831312e-07,1.2513133e-30,4.6832904e-07
2.9916064,3.505746e-07,9.6604317e-10,8.6441717e-30,3.5055447e-07,4.3782313e-31,3.5056453e-07
2.9949226,2.4401188e-07,5.4256891e-10,1.3405105e-24,2.4400113e-07,-2.9601462e-27,2.440065e-07
2.9980511,1.5591043e-07,2.5372007e-10,-1.760344e-25,1.5590568e-07,2.6031718e-28,1.5590806e-07
3.0010024,8.9839117e-08,9.5677012e-11,-1.2056749e-24,8.9837434e-08,2.5737859e-27,8.9838278e-08
3.0037866,4.557558e-08,2.7863938e-11,3.0135554e-25,4.5575121e-08,-6.2613697e-28,4.557535e-08
3.0064131,1.9700243e-08,5.9004732e-12,3.6348253e-32,1.9700152e-08,1.5022986e-33,1.9700197e-08
3.0088909,6.9700735e-09,8.3876415e-13,-7.0999775e-34,6.9700614e-09,-3.3840054e-34,6.9700674e-09
3.0112284,1.9565057e-09,7.3600868e-14,1.0375232e-34,1.9565047e-09,4.9640616e-36,1.9565052e-09
3.0134335,4.5203769e-10,4.11768e-15,2.5075357e-30,4.5203764e-10,-3.2034965e-33,4.5203767e-10
3.0155138,1.0248239e-10,2.0535725e-16,2.4397259e-30,1.0248239e-10,-3.1055557e-33,1.0248239e-10
3.0174762,2.88766e-11,1.486721e-17,-5.6030265e-32,2.88766e-11,8.8318901e-35,2.88766e-11
3.0193275,1.2199972e-11,2.3176345e-18,2.6625641e-33,1.2199972e-11,-1.0456949e-36,1.2199972e-11
3.021074,9.4915983e-12,1.2946115e-18,-8.254005e-33,9.4915983e-12,8.8739473e-36,9.4915983e-12
3.0227216,2.1746131e-11,8.522881e-18,-1.1053826e-32,2.1746131e-11,9.3623217e-36,2.1746131e-11
3.0242759,3.0619745e-09,2.5205834e-13,-1.2155416e-32,3.0619731e-09,-3.8372809e-35,3.0619738e-09
3.0257422,1.2729065e-07,4.0537536e-10,1.1835138e-24,1.2728873e-07,-6.2748312e-28,1.2728969e-07
3.0271255,6.007072e-07,4.0799619e-09,2.2978716e-24,6.0069041e-07,-5.280707e-28,6.0069881e-07
3.0284304,1.5018261e-06,1.4408512e-08,-3.6103677e-23,1.501775e-06,1.766273e-26,1.5018005e-06
3.0296614,2.763334e-06,3.0033886e-08,-3.7367302e-23,2.7632443e-06,1.7635139e-26,2.7632892e-06
3.0308227,4.3981314e-06,4.5535473e-08,7.4914349e-23,4.3980208e-06,-1.7737945e-26,4.3980762e-06
3.0319183,6.6896141e-06,5.5753179e-08,-1.4402872e-23,6.6895085e-06,3.408545e-27,6.6895613e-06
3.0329518,1.0516153e-05,5.7945687e-08,-6.7514123e-23,1.0516072e-05,1.8783265e-26,1.0516112e-05
3.0339268,1.7911879e-05,5.0854661e-08,2.5740234e-23,1.7911833e-05,-1.7836635e-27,1.7911856e-05
3.0348466,3.2851545e-05,3.2548048e-08,-6.5847877e-24,3.2851528e-05,1.2533968e-27,3.2851536e-05
3.0357143,6.6666667e-11,0,0,6.6666667e-11,0,6.6666667e-11
