/*--------------------------------*- C++ -*----------------------------------*\
| =========                 |                                                 |
| \\      /  F ield         | OpenFOAM: The Open Source CFD Toolbox           |
|  \\    /   O peration     | Version:  2.4.0                                 |
|   \\  /    A nd           | Web:      www.OpenFOAM.org                      |
|    \\/     M anipulation  |                                                 |
\*---------------------------------------------------------------------------*/
FoamFile
{
    version     2.0;
    format      ascii;
    class       volScalarField;
    location    "20000";
    object      p;
}
// * * * * * * * * * * * * * * * * * * * * * * * * * * * * * * * * * * * * * //

dimensions      [0 2 -2 0 0 0 0];

internalField   nonuniform List<scalar> 
9742
(
0.13351198
0.13385672
0.13422714
0.13462372
0.13504679
0.13549659
0.13597326
0.13647681
0.13700721
0.13443212
0.1347832
0.13515884
0.13555949
0.13598547
0.13643702
0.13691427
0.13741727
0.13794596
0.1353103
0.13566605
0.13604547
0.13644895
0.1368768
0.13732921
0.13780634
0.13830824
0.1388349
0.13614831
0.1365073
0.13688921
0.13729438
0.13772308
0.13817551
0.1386518
0.139152
0.13967612
0.13694685
0.13730797
0.13769134
0.13809728
0.13852602
0.13897773
0.13945254
0.1399505
0.14047162
0.13770626
0.13806864
0.13845268
0.13885865
0.13928678
0.13973722
0.14021008
0.14070541
0.14122321
0.13842709
0.13879
0.13917405
0.1395795
0.14000652
0.14045527
0.14092583
0.14141826
0.14193254
0.14246864
0.14302646
0.14360588
0.14420673
0.1448288
0.14547187
0.13911025
0.13947311
0.13985665
0.1402611
0.14068663
0.14113336
0.14160136
0.14209068
0.14260131
0.14313319
0.14368623
0.14426031
0.14485526
0.14547089
0.14610696
0.13975692
0.14011923
0.14050184
0.14090493
0.14132864
0.1417731
0.14223835
0.14272443
0.14323131
0.14375894
0.14430723
0.14487604
0.14546523
0.14607458
0.14670388
0.14036843
0.14072981
0.14111112
0.14151255
0.14193421
0.14237619
0.14283854
0.14332127
0.14382436
0.14434774
0.14489133
0.14545498
0.14603853
0.1466418
0.14726456
0.14094622
0.14130632
0.14168606
0.14208557
0.14250497
0.14294432
0.14340366
0.14388299
0.14438227
0.14490143
0.14544037
0.14599896
0.14657704
0.14717441
0.14779086
0.14149172
0.14185028
0.1422282
0.14262561
0.14304259
0.14347919
0.14393544
0.14441133
0.1449068
0.14542178
0.14595617
0.14650982
0.14708258
0.14767425
0.14828461
0.14891342
0.14956041
0.14200638
0.14236317
0.14273909
0.14313423
0.14354868
0.14398246
0.14443557
0.144908
0.14539969
0.14591055
0.14644047
0.14698932
0.14755691
0.14814307
0.14874757
0.14937018
0.15001062
0.15066862
0.15134386
0.15203603
0.15274477
0.15346974
0.14249162
0.14284646
0.14322023
0.143613
0.14402483
0.14445572
0.14490568
0.14537466
0.1458626
0.14636942
0.14689498
0.14743914
0.14800174
0.14858259
0.14918145
0.1497981
0.15043227
0.15108368
0.15175202
0.15243699
0.15313823
0.1538554
0.15458813
0.15533603
0.1560987
0.15687573
0.1576667
0.15847118
0.15928871
0.16011885
0.16096113
0.1420021
0.1422992
0.14261474
0.14294884
0.14330161
0.14367312
0.14406343
0.14447257
0.14490055
0.14534734
0.14581291
0.14629716
0.1468
0.14732131
0.14786094
0.14841871
0.14899443
0.14958788
0.15019881
0.15082698
0.15147209
0.15213386
0.15281196
0.15350606
0.15421582
0.15494086
0.15568082
0.1564353
0.15720389
0.15798618
0.15878174
0.15959014
0.16041093
0.16124366
0.14243846
0.14273373
0.14304734
0.14337941
0.14372999
0.14409916
0.14448696
0.14489339
0.14531845
0.1457621
0.14622428
0.14670491
0.14720387
0.14772105
0.14825628
0.14880938
0.14938017
0.14996841
0.15057387
0.15119629
0.15183539
0.15249088
0.15316244
0.15384975
0.15455246
0.15527021
0.15600263
0.15674933
0.15750992
0.15828398
0.1590711
0.15987085
0.16068279
0.16150647
0.14284981
0.14314313
0.14345471
0.14378465
0.14413299
0.14449977
0.14488501
0.14528872
0.14571086
0.1461514
0.14661025
0.14708733
0.14758252
0.14809568
0.14862666
0.14917526
0.1497413
0.15032455
0.15092476
0.15154169
0.15217505
0.15282455
0.15348989
0.15417073
0.15486674
0.15557755
0.15630282
0.15704214
0.15779514
0.15856141
0.15934053
0.16013208
0.16093564
0.16175075
0.14323735
0.14352863
0.14383812
0.14416586
0.1445119
0.14487626
0.14525895
0.14565994
0.14607919
0.14651666
0.14697225
0.14744587
0.14793738
0.14844665
0.14897352
0.14951779
0.15007926
0.15065771
0.15125291
0.15186458
0.15249246
0.15313626
0.15379566
0.15447035
0.15515999
0.15586422
0.15658269
0.15731501
0.15806081
0.15881969
0.15959123
0.16037503
0.16117064
0.16197765
0.14360227
0.14389144
0.14419878
0.14452429
0.14486802
0.14522995
0.14561007
0.14600837
0.14642477
0.14685922
0.14731162
0.14778187
0.14826981
0.14877532
0.14929822
0.14983831
0.1503954
0.15096926
0.15155965
0.15216631
0.15278896
0.15342732
0.15408107
0.15474991
0.15543349
0.15613146
0.15684348
0.15756917
0.15830814
0.15906001
0.15982437
0.16060081
0.16138892
0.16218825
0.16299838
0.16381887
0.16464926
0.16548911
0.16633795
0.16719531
0.16806074
0.14394569
0.14423272
0.14453788
0.14486115
0.14520255
0.14556205
0.14593965
0.14633528
0.14674888
0.14718038
0.14762967
0.14809663
0.14858112
0.14908299
0.14960207
0.15013815
0.15069104
0.15126049
0.15184629
0.15244815
0.15306581
0.15369898
0.15434736
0.15501062
0.15568845
0.15638048
0.15708638
0.15780576
0.15853826
0.15928349
0.16004105
0.16081052
0.16159151
0.16238358
0.1631863
0.16399925
0.16482197
0.16565401
0.16649493
0.16734427
0.16820155
0.1435219
0.14375258
0.14400182
0.14426872
0.14455361
0.14485657
0.1451776
0.14551668
0.14587378
0.14624887
0.14664188
0.14705274
0.14748136
0.14792762
0.1483914
0.14887255
0.14937091
0.14988631
0.15041853
0.15096738
0.15153263
0.15211402
0.15271131
0.15332421
0.15395244
0.1545957
0.15525367
0.15592602
0.15661241
0.15731249
0.1580259
0.15875226
0.15949119
0.1602423
0.16100518
0.16177942
0.16256461
0.16336033
0.16416613
0.16498159
0.16580626
0.16663969
0.16748142
0.16833102
0.14383212
0.14406066
0.1443077
0.14457245
0.14485518
0.14515595
0.14547475
0.14581153
0.14616626
0.14653889
0.14692933
0.14733751
0.14776333
0.14820665
0.14866735
0.14914527
0.14964026
0.15015211
0.15068063
0.15122562
0.15178683
0.15236402
0.15295694
0.15356531
0.15418883
0.15482721
0.15548014
0.15614729
0.15682832
0.15752288
0.15823062
0.15895116
0.15968412
0.16042911
0.16118574
0.1619536
0.16273227
0.16352135
0.1643204
0.16512898
0.16594667
0.16677301
0.16760757
0.16844988
0.14412405
0.14435045
0.14459529
0.14485789
0.14513847
0.14543708
0.14575367
0.14608819
0.14644059
0.1468108
0.14719874
0.14760431
0.1480274
0.14846787
0.14892559
0.1494004
0.14989213
0.15040058
0.15092556
0.15146684
0.15202419
0.15259737
0.15318612
0.15379016
0.1544092
0.15504294
0.15569108
0.15635329
0.15702922
0.15771854
0.1584209
0.15913591
0.15986321
0.16060241
0.16135311
0.16211492
0.16288743
0.16367022
0.16446287
0.16526495
0.16607603
0.16689568
0.16772343
0.16855886
0.16940152
0.17025094
0.17110667
0.17196825
0.17283523
0.17370714
0.17458352
0.17546391
0.17634784
0.17723484
0.17812446
0.17901623
0.17990968
0.18080436
0.1816998
0.18259555
0.18349114
0.18438613
0.18528006
0.18617247
0.18706292
0.18795097
0.18883617
0.18971808
0.19059626
0.19147029
0.19233972
0.19320413
0.19406309
0.19491619
0.195763
0.1966031
0.14439863
0.14462289
0.14486557
0.14512603
0.14540449
0.14570096
0.14601537
0.14634767
0.14669779
0.14706564
0.14745114
0.14785418
0.14827462
0.14871234
0.14916719
0.14963901
0.1501276
0.15063279
0.15115436
0.1516921
0.15224576
0.15281511
0.15339988
0.15399979
0.15461457
0.1552439
0.15588748
0.15654499
0.15721609
0.15790044
0.15859768
0.15930746
0.16002939
0.1607631
0.1615082
0.16226428
0.16303095
0.16380779
0.16459439
0.16539032
0.16619515
0.16700845
0.16782978
0.1686587
0.16949477
0.17033753
0.17118653
0.17204132
0.17290145
0.17376646
0.17463588
0.17550926
0.17638614
0.17726606
0.17814856
0.17903318
0.17991945
0.18080693
0.18169515
0.18258367
0.18347201
0.18435974
0.18524641
0.18613156
0.18701474
0.18789553
0.18877347
0.18964812
0.19051906
0.19138585
0.19224806
0.19310527
0.19395704
0.19480297
0.19564262
0.1964756
0.14465678
0.14487893
0.14511946
0.14537783
0.14565421
0.14594857
0.14626085
0.14659098
0.14693887
0.14730443
0.14768756
0.14808814
0.14850603
0.14894109
0.14939318
0.1498621
0.1503477
0.15084975
0.15136807
0.15190241
0.15245256
0.15301825
0.15359922
0.15419521
0.15480592
0.15543106
0.15607031
0.15672335
0.15738986
0.15806949
0.15876189
0.1594667
0.16018354
0.16091205
0.16165183
0.16240249
0.16316363
0.16393484
0.1647157
0.16550581
0.16630473
0.16711203
0.16792729
0.16875005
0.16957989
0.17041635
0.171259
0.17210737
0.17296102
0.17381949
0.17468234
0.1755491
0.17641932
0.17729255
0.17816832
0.17904618
0.17992567
0.18080635
0.18168775
0.18256943
0.18345093
0.18433181
0.18521161
0.18608989
0.18696622
0.18784014
0.18871122
0.18957903
0.19044313
0.19130309
0.19215848
0.19300888
0.19385387
0.19469303
0.19552593
0.19635217
0.14489939
0.14511946
0.14535789
0.1456142
0.14588853
0.14618085
0.14649105
0.14681906
0.14716479
0.14752812
0.14790895
0.14830715
0.14872258
0.14915508
0.1496045
0.15007066
0.15055337
0.15105242
0.15156762
0.15209873
0.15264551
0.15320771
0.15378507
0.15437731
0.15498416
0.1556053
0.15624043
0.15688924
0.15755139
0.15822654
0.15891434
0.15961444
0.16032646
0.16105004
0.16178478
0.1625303
0.1632862
0.16405208
0.16482753
0.16561212
0.16640545
0.16720707
0.16801658
0.16883352
0.16965747
0.17048798
0.1713246
0.17216691
0.17301443
0.17386674
0.17472337
0.17558388
0.1764478
0.1773147
0.17818411
0.17905559
0.17992868
0.18080293
0.18167789
0.18255311
0.18342815
0.18430255
0.18517587
0.18604768
0.18691752
0.18778496
0.18864957
0.18951091
0.19036855
0.19122206
0.19207102
0.192915
0.19375358
0.19458634
0.19541287
0.19623276
0.1451273
0.14534532
0.1455817
0.14583601
0.14610835
0.14639866
0.14670684
0.1470328
0.14737642
0.1477376
0.14811621
0.14851211
0.14892516
0.1493552
0.14980206
0.15026556
0.15074551
0.15124169
0.15175391
0.15228192
0.15282549
0.15338436
0.15395828
0.15454696
0.15515013
0.15576747
0.1563987
0.15704347
0.15770148
0.15837238
0.15905582
0.15975145
0.16045891
0.16117781
0.16190778
0.16264844
0.16339938
0.16416021
0.16493052
0.1657099
0.16649793
0.16729419
0.16809826
0.16890969
0.16972807
0.17055295
0.17138389
0.17222045
0.1730622
0.17390867
0.17475942
0.17561402
0.176472
0.17733292
0.17819632
0.17906177
0.17992881
0.18079699
0.18166586
0.18253499
0.18340392
0.1842722
0.18513941
0.18600509
0.18686881
0.18773014
0.18858864
0.18944387
0.19029541
0.19114284
0.19198572
0.19282364
0.19365617
0.1944829
0.19530342
0.19611731
0.14534132
0.14555735
0.14579173
0.14604409
0.14631449
0.14660286
0.14690908
0.14723304
0.14757464
0.14793373
0.1483102
0.14870389
0.14911465
0.14954232
0.14998673
0.15044767
0.15092497
0.15141842
0.15192778
0.15245284
0.15299334
0.15354905
0.15411968
0.15470498
0.15530464
0.15591838
0.15654588
0.15718684
0.15784092
0.15850778
0.15918709
0.15987848
0.1605816
0.16129608
0.16202153
0.16275758
0.16350382
0.16425988
0.16502533
0.16579977
0.1665828
0.16737398
0.1681729
0.16897913
0.16979224
0.17061179
0.17143736
0.1722685
0.17310477
0.17394573
0.17479093
0.17563994
0.1764923
0.17734757
0.1782053
0.17906506
0.17992638
0.18078882
0.18165195
0.18251531
0.18337847
0.18424099
0.18510241
0.18596232
0.18682026
0.18767581
0.18852854
0.18937801
0.19022379
0.19106547
0.19190262
0.19273482
0.19356165
0.19438269
0.19519753
0.19600576
0.14554223
0.14575632
0.14598876
0.14623924
0.14650776
0.14679425
0.14709857
0.14742061
0.14776024
0.14811733
0.14849173
0.14888329
0.14929186
0.14971725
0.1501593
0.15061781
0.15109258
0.15158339
0.15209004
0.15261227
0.15314986
0.15370254
0.15427006
0.15485212
0.15544846
0.15605877
0.15668274
0.15732007
0.15797042
0.15863346
0.15930884
0.15999622
0.16069523
0.16140551
0.16212669
0.16285837
0.16360017
0.1643517
0.16511255
0.16588233
0.16666061
0.16744699
0.16824105
0.16904235
0.16985048
0.170665
0.17148549
0.1723115
0.1731426
0.17397835
0.17481831
0.17566203
0.17650908
0.17735902
0.17821139
0.17906576
0.17992168
0.18077871
0.18163641
0.18249433
0.18335205
0.18420911
0.18506508
0.18591952
0.18677201
0.18762211
0.18846939
0.18931342
0.19015377
0.19099003
0.19182177
0.19264857
0.19347001
0.19428568
0.19509517
0.19589807
0.14573078
0.14594299
0.14617356
0.14642221
0.14668892
0.14697358
0.14727608
0.14759626
0.147934
0.14828916
0.14866158
0.1490511
0.14945755
0.14988077
0.15032056
0.15077673
0.15124908
0.15173739
0.15224144
0.15276099
0.15329579
0.1538456
0.15441014
0.15498914
0.15558231
0.15618936
0.15680998
0.15744386
0.15809067
0.15875008
0.15942175
0.16010532
0.16080044
0.16150675
0.16222387
0.16295142
0.16368901
0.16443626
0.16519276
0.16595812
0.16673192
0.16751376
0.16830321
0.16909986
0.16990328
0.17071304
0.17152872
0.17234988
0.1731761
0.17400692
0.17484192
0.17568066
0.1765227
0.17736759
0.1782149
0.17906418
0.179915
0.18076692
0.18161949
0.18247228
0.18332485
0.18417676
0.18502758
0.18587687
0.18672421
0.18756916
0.18841129
0.18925019
0.19008541
0.19091655
0.19174319
0.19256489
0.19338125
0.19419186
0.1949963
0.19579416
0.14590768
0.14611807
0.14634684
0.14659372
0.14685868
0.1471416
0.14744233
0.14776073
0.14809666
0.14844996
0.14882047
0.14920803
0.14961247
0.1500336
0.15047123
0.15092517
0.15139521
0.15188113
0.1523827
0.15289968
0.15343184
0.15397891
0.15454062
0.1551167
0.15570687
0.15631083
0.15692827
0.15755887
0.15820233
0.15885829
0.15952644
0.1602064
0.16089784
0.16160038
0.16231366
0.1630373
0.16377091
0.1645141
0.16526649
0.16602767
0.16679723
0.16757477
0.16835987
0.16915211
0.16995108
0.17075634
0.17156748
0.17238406
0.17320566
0.17403183
0.17486215
0.17569617
0.17653347
0.1773736
0.17821612
0.1790606
0.17990661
0.18075369
0.18160142
0.18244936
0.18329707
0.18414412
0.18499007
0.1858345
0.18667698
0.18751707
0.18835435
0.1891884
0.19001878
0.19084509
0.19166691
0.19248381
0.19329538
0.1941012
0.19490088
0.195694
0.1460736
0.14628224
0.14650928
0.14675447
0.14701775
0.14729899
0.14759802
0.14791471
0.14824889
0.14860041
0.1489691
0.14935479
0.14975729
0.15017642
0.150612
0.15106381
0.15153164
0.15201527
0.15251449
0.15302903
0.15355866
0.15410313
0.15466215
0.15523547
0.15582278
0.1564238
0.15703822
0.15766572
0.15830599
0.1589587
0.1596235
0.16030005
0.16098799
0.16168697
0.16239661
0.16311654
0.16384638
0.16458574
0.16533424
0.16609146
0.16685701
0.16763048
0.16841147
0.16919955
0.1699943
0.17079532
0.17160216
0.17241442
0.17323164
0.17405342
0.17487931
0.17570888
0.1765417
0.17737733
0.17821534
0.17905528
0.17989674
0.18073926
0.18158241
0.18242577
0.18326889
0.18411135
0.18495272
0.18579256
0.18663044
0.18746595
0.18829864
0.18912812
0.18995394
0.19077569
0.19159296
0.19240532
0.19321237
0.19401369
0.19480887
0.19559751
0.1462292
0.14643615
0.14666152
0.14690509
0.14716677
0.14744639
0.14774381
0.14805885
0.14839137
0.14874118
0.14910812
0.14949201
0.14989267
0.1503099
0.15074351
0.15119328
0.15165901
0.15214048
0.15263744
0.15314966
0.1536769
0.15421889
0.15477536
0.15534604
0.15593064
0.15652887
0.15714042
0.15776498
0.15840224
0.15905185
0.15971348
0.16038679
0.16107143
0.16176703
0.16247323
0.16318966
0.16391593
0.16465167
0.16539647
0.16614996
0.16691171
0.16768134
0.16845844
0.16924258
0.17003336
0.17083035
0.17163314
0.1724413
0.17325441
0.17407203
0.17489373
0.1757191
0.17654769
0.17737907
0.1782128
0.17904847
0.17988562
0.18072383
0.18156267
0.1824017
0.1832405
0.18407862
0.18491565
0.18575116
0.18658471
0.18741588
0.18824426
0.18906941
0.18989092
0.19070838
0.19152135
0.19232944
0.19313222
0.19392929
0.19472024
0.19550465
0.14637507
0.14658041
0.1468042
0.14704621
0.14730635
0.14758443
0.1478803
0.14819377
0.14852469
0.14887288
0.14923816
0.14962033
0.15001923
0.15043464
0.15086637
0.15131421
0.15177794
0.15225733
0.15275215
0.15326217
0.15378712
0.15432676
0.15488081
0.15544899
0.15603102
0.1566266
0.15723543
0.15785721
0.1584916
0.15913828
0.15979691
0.16046716
0.16114867
0.16184107
0.16254402
0.16325712
0.16398002
0.16471232
0.16545364
0.16620359
0.16696176
0.16772776
0.16850117
0.16928159
0.17006861
0.1708618
0.17166076
0.17246505
0.17327426
0.17408795
0.17490571
0.1757271
0.17655169
0.17737906
0.17820876
0.17904038
0.17987348
0.18070762
0.18154238
0.18237733
0.18321203
0.18404607
0.184879
0.18571041
0.18653988
0.18736696
0.18819126
0.18901234
0.18982978
0.19064318
0.19145211
0.19225616
0.19305492
0.19384797
0.19463492
0.19541536
0.14651181
0.14671561
0.14693788
0.14717842
0.14743708
0.14771369
0.14800808
0.14832006
0.14864946
0.14899609
0.14935978
0.14974032
0.15013754
0.15055122
0.15098116
0.15142715
0.15188898
0.1523664
0.15285919
0.15336711
0.1538899
0.1544273
0.15497904
0.15554485
0.15612444
0.15671751
0.15732377
0.1579429
0.15857458
0.15921849
0.15987428
0.16054162
0.16122016
0.16190955
0.16260941
0.16331938
0.16403908
0.16476814
0.16550616
0.16625276
0.16700754
0.1677701
0.16854003
0.16931694
0.1701004
0.17089001
0.17168534
0.17248598
0.1732915
0.17410149
0.17491551
0.17573315
0.17655396
0.17737754
0.17820344
0.17903123
0.17986049
0.1806908
0.18152171
0.1823528
0.18318364
0.18401381
0.18484289
0.18567043
0.18649603
0.18731927
0.18813971
0.18895694
0.18977055
0.19058012
0.19138523
0.19218547
0.19298043
0.19376971
0.19455289
0.19532957
0.14663996
0.14684229
0.14706312
0.14730225
0.14755952
0.14783473
0.14812771
0.14843827
0.14876622
0.14911137
0.14947354
0.14985253
0.15024814
0.15066018
0.15108842
0.15153266
0.15199267
0.15246822
0.15295908
0.15346501
0.15398574
0.15452102
0.15507057
0.15563413
0.15621141
0.1568021
0.15740592
0.15802254
0.15865165
0.15929293
0.15994604
0.16061063
0.16128637
0.16197289
0.16266983
0.16337683
0.16409351
0.1648195
0.16555441
0.16629784
0.16704942
0.16780873
0.16857538
0.16934896
0.17012906
0.17091527
0.17170718
0.17250436
0.17330641
0.17411289
0.17492339
0.17573748
0.17655473
0.17737472
0.17819703
0.17902121
0.17984686
0.18067353
0.18150081
0.18232826
0.18315546
0.18398198
0.18480741
0.18563131
0.18645326
0.18727286
0.18808966
0.18890327
0.18971325
0.19051921
0.19132072
0.19211737
0.19290875
0.19369446
0.19447408
0.19524722
0.14676006
0.14696098
0.14718045
0.14741824
0.14767418
0.14794807
0.14823971
0.14854891
0.14887548
0.14921923
0.14957996
0.14995747
0.15035156
0.15076203
0.15118866
0.15163123
0.15208952
0.15256329
0.15305232
0.15355635
0.15407513
0.15460839
0.15515588
0.15571731
0.15629239
0.15688083
0.15748233
0.15809658
0.15872326
0.15936205
0.16001261
0.1606746
0.16134768
0.1620315
0.16272568
0.16342987
0.1641437
0.16486679
0.16559874
0.16633919
0.16708773
0.16784397
0.16860752
0.16937795
0.17015488
0.17093789
0.17172656
0.17252048
0.17331924
0.17412241
0.17492958
0.17574032
0.17655421
0.17737082
0.17818972
0.1790105
0.17983273
0.18065598
0.18147982
0.18230383
0.18312759
0.18395067
0.18477265
0.18559311
0.18641163
0.18722779
0.18804116
0.18885134
0.18965791
0.19046046
0.19125857
0.19205183
0.19283984
0.19362218
0.19439845
0.19516825
0.14687258
0.14707218
0.14729035
0.14752689
0.14778157
0.14805419
0.14834456
0.14865247
0.14897774
0.14932015
0.14967951
0.15005562
0.15044827
0.15085725
0.15128234
0.15172333
0.15217998
0.15265208
0.15313936
0.1536416
0.15415852
0.15468988
0.1552354
0.15579481
0.15636781
0.15695412
0.15755343
0.15816543
0.15878981
0.15942625
0.1600744
0.16073393
0.1614045
0.16208575
0.16277733
0.16347886
0.16418999
0.16491033
0.1656395
0.16637712
0.1671228
0.16787614
0.16863675
0.16940421
0.17017814
0.17095812
0.17174373
0.17253458
0.17333023
0.17413028
0.1749343
0.17574187
0.17655258
0.177366
0.1781817
0.17899926
0.17981826
0.18063827
0.18145887
0.18227964
0.18310015
0.18391998
0.18473871
0.18555592
0.18637119
0.18718411
0.18799425
0.1888012
0.18960454
0.19040387
0.19119877
0.19198884
0.19277366
0.19355282
0.19432594
0.19509259
0.146978
0.14717635
0.1473933
0.14762864
0.14788213
0.14815356
0.14844273
0.14874943
0.14907345
0.1494146
0.14977267
0.15014744
0.15053872
0.15094629
0.15136993
0.15180941
0.15226452
0.15273501
0.15322065
0.15372118
0.15423635
0.1547659
0.15530956
0.15586705
0.15643809
0.15702238
0.15761961
0.15822949
0.15885169
0.1594859
0.16013177
0.16078898
0.16145717
0.162136
0.16282511
0.16352414
0.16423271
0.16495045
0.16567699
0.16641194
0.16715491
0.16790551
0.16866334
0.16942801
0.1701991
0.17097621
0.17175894
0.17254688
0.1733396
0.17413669
0.17493774
0.17574233
0.17655003
0.17736043
0.1781731
0.17898762
0.17980358
0.18062053
0.18143808
0.18225578
0.18307322
0.18388999
0.18470565
0.1855198
0.186332
0.18714185
0.18794894
0.18875284
0.18955314
0.19034943
0.19114131
0.19192836
0.19271017
0.19348635
0.19425648
0.19502016
0.14707677
0.14727394
0.14748974
0.14772395
0.14797632
0.14824663
0.14853466
0.1488402
0.14916306
0.149503
0.14985984
0.15023336
0.15062334
0.15102957
0.15145183
0.15188989
0.15234353
0.1528125
0.15329658
0.1537955
0.15430901
0.15483685
0.15537875
0.15593443
0.1565036
0.15708597
0.15768125
0.15828911
0.15890925
0.15954135
0.16018507
0.16084007
0.16150602
0.16218256
0.16286934
0.163566
0.16427216
0.16498745
0.1657115
0.16644393
0.16718434
0.16793235
0.16868756
0.16944957
0.17021798
0.1709924
0.1717724
0.17255758
0.17334753
0.17414184
0.17494008
0.17574185
0.17654671
0.17735426
0.17816408
0.17897573
0.17978881
0.18060288
0.18141753
0.18223235
0.18304689
0.18386076
0.18467353
0.18548478
0.18629409
0.18710106
0.18790526
0.18870628
0.18950371
0.19029714
0.19108616
0.19187036
0.19264934
0.19342269
0.19419001
0.1949509
0.14716929
0.14736535
0.14758007
0.14781323
0.14806454
0.14833378
0.14862074
0.1489252
0.14924695
0.14958576
0.14994144
0.15031376
0.15070251
0.15110748
0.15152843
0.15196515
0.1524174
0.15288494
0.15336753
0.15386493
0.15437687
0.15490309
0.15544332
0.15599728
0.15656469
0.15714526
0.15773867
0.15834464
0.15896283
0.15959293
0.16023462
0.16088754
0.16155137
0.16222575
0.16291032
0.16360473
0.16430861
0.16502159
0.16574329
0.16647333
0.16721132
0.16795688
0.16870962
0.16946913
0.17023501
0.17100687
0.1717843
0.17256689
0.17335422
0.17414589
0.17494149
0.17574059
0.17654278
0.17734764
0.17815475
0.17896369
0.17977405
0.18058541
0.18139733
0.18220941
0.18302123
0.18383236
0.18464239
0.18545091
0.18625749
0.18706173
0.18786321
0.18866151
0.18945624
0.19024697
0.19103329
0.19181481
0.19259112
0.1933618
0.19412647
0.19488471
0.14692251
0.14707889
0.14725596
0.14745098
0.14766469
0.14789686
0.14814718
0.14841542
0.14870138
0.14900481
0.14932551
0.14966326
0.15001784
0.15038903
0.15077662
0.15118039
0.15160011
0.15203555
0.15248649
0.15295267
0.15343387
0.15392982
0.15444027
0.15496496
0.15550361
0.15605595
0.1566217
0.15720055
0.15779221
0.15839638
0.15901273
0.15964095
0.16028071
0.16093167
0.16159349
0.16226582
0.16294831
0.1636406
0.16434233
0.16505312
0.1657726
0.16650038
0.1672361
0.16797935
0.16872974
0.16948689
0.17025038
0.17101983
0.17179483
0.17257496
0.17335982
0.17414901
0.1749421
0.17573868
0.17653834
0.17734066
0.17814523
0.17895162
0.17975941
0.18056819
0.18137754
0.18218704
0.18299628
0.18380483
0.18461228
0.18541822
0.18622223
0.18702389
0.1878228
0.18861854
0.18941071
0.19019889
0.19098267
0.19176166
0.19253544
0.19330361
0.19406578
0.19482153
0.14700567
0.1471609
0.14733716
0.1475312
0.14774397
0.1479752
0.14822459
0.14849191
0.14877691
0.14907938
0.1493991
0.14973584
0.15008939
0.15045952
0.15084601
0.15124865
0.1516672
0.15210144
0.15255113
0.15301603
0.1534959
0.15399049
0.15449954
0.15502277
0.15555994
0.15611075
0.15667491
0.15725215
0.15784216
0.15844462
0.15905923
0.15968567
0.16032361
0.16097271
0.16163264
0.16230304
0.16298356
0.16367385
0.16437355
0.16508227
0.16579965
0.16652531
0.16725887
0.16799993
0.16874812
0.16950303
0.17026427
0.17103144
0.17180414
0.17258195
0.17336449
0.17415132
0.17494205
0.17573626
0.17653353
0.17733345
0.17813561
0.17893958
0.17974495
0.18055131
0.18135823
0.1821653
0.1829721
0.18377821
0.18458323
0.18538673
0.1861883
0.18698754
0.18778402
0.18857735
0.1893671
0.19015287
0.19093426
0.19171086
0.19248226
0.19324806
0.19400786
0.19476127
0.14708356
0.14723771
0.14741322
0.14760635
0.14781824
0.14804861
0.14829713
0.14856357
0.14884768
0.14914925
0.14946804
0.14980384
0.15015641
0.15052553
0.150911
0.15131257
0.15173002
0.15216312
0.15261164
0.15307533
0.15355395
0.15404725
0.15455496
0.15507683
0.15561259
0.15616195
0.15672463
0.15730034
0.15788877
0.15848963
0.1591026
0.15972736
0.16036358
0.16101093
0.16166906
0.16233764
0.16301631
0.16370471
0.16440248
0.16510925
0.16582465
0.1665483
0.16727982
0.16801882
0.16876492
0.16951772
0.17027683
0.17104185
0.17181238
0.17258801
0.17336834
0.17415296
0.17494145
0.17573342
0.17652844
0.17732609
0.17812598
0.17892767
0.17973076
0.18053482
0.18133945
0.18214422
0.18294871
0.18375253
0.18455524
0.18535645
0.18615573
0.18695267
0.18774687
0.18853791
0.18932538
0.19010888
0.19088801
0.19166235
0.19243151
0.19319507
0.19395265
0.19470384
0.1471565
0.14730964
0.14748447
0.14767675
0.14788783
0.1481174
0.1483651
0.14863072
0.14891401
0.14921473
0.14953265
0.14986755
0.15021921
0.15058739
0.15097188
0.15137244
0.15178886
0.15222089
0.1526683
0.15313084
0.15360828
0.15410036
0.15460682
0.1551274
0.15566183
0.15620982
0.15677109
0.15734536
0.15793232
0.15853166
0.15914308
0.15976625
0.16040084
0.16104653
0.16170298
0.16236983
0.16304675
0.16373336
0.16442932
0.16513424
0.16584777
0.16656952
0.16729912
0.16803618
0.16878031
0.16953112
0.17028822
0.17105121
0.17181969
0.17259325
0.1733715
0.17415402
0.17494041
0.17573026
0.17652315
0.17731867
0.17811641
0.17891595
0.17971687
0.18051877
0.18132123
0.18212383
0.18292616
0.1837278
0.18452835
0.18532738
0.18612449
0.18691927
0.18771131
0.18850019
0.18928552
0.19006688
0.19084387
0.19161608
0.19238312
0.19314458
0.19390005
0.19464915
0.14722481
0.14737702
0.14755122
0.14774272
0.14795304
0.14818186
0.14842881
0.14869367
0.14897618
0.1492761
0.14959321
0.14992728
0.15027807
0.15064537
0.15102894
0.15142856
0.15184399
0.15227501
0.15272137
0.15318284
0.15365917
0.1541501
0.15465538
0.15517474
0.1557079
0.1562546
0.15681455
0.15738745
0.15797302
0.15857093
0.15918088
0.15980255
0.16043561
0.16107974
0.16173459
0.16239982
0.16307507
0.16376
0.16445425
0.16515743
0.16586919
0.16658916
0.16731694
0.16805216
0.16879443
0.16954336
0.17029855
0.17105963
0.17182617
0.17259779
0.17337407
0.17415461
0.17493901
0.17572686
0.17651774
0.17731124
0.17810695
0.17890446
0.17970335
0.18050321
0.18130362
0.18210417
0.18290445
0.18370404
0.18450254
0.18529952
0.18609459
0.18688732
0.18767732
0.18846417
0.18924747
0.19002681
0.19080179
0.19157199
0.19233703
0.1930965
0.19384999
0.19459712
0.14728878
0.14744012
0.14761376
0.14780453
0.14801416
0.14824228
0.14848853
0.14875268
0.14903446
0.14933364
0.14964999
0.14998328
0.15033326
0.15069972
0.15108243
0.15148116
0.15189567
0.15232574
0.15277112
0.15323157
0.15370685
0.1541967
0.15470085
0.15521906
0.15575104
0.15629653
0.15685522
0.15742684
0.15801108
0.15860764
0.15921621
0.15983646
0.16046808
0.16111073
0.16176407
0.16242777
0.16310146
0.1637848
0.16447742
0.16517897
0.16588906
0.16660733
0.1673334
0.16806688
0.1688074
0.16955455
0.17030796
0.17106722
0.17183193
0.17260171
0.17337614
0.17415482
0.17493734
0.17572329
0.17651228
0.17730387
0.17809767
0.17889326
0.17969023
0.18048816
0.18128664
0.18208526
0.1828836
0.18368126
0.18447781
0.18527286
0.186066
0.18685681
0.18764488
0.18842981
0.1892112
0.18998863
0.1907617
0.19153001
0.19229316
0.19305075
0.19380238
0.19454765
0.14734868
0.14749922
0.14767235
0.14786245
0.14807144
0.14829892
0.14854452
0.148808
0.14908911
0.14938761
0.14970324
0.15003579
0.15038502
0.1507507
0.1511326
0.15153049
0.15194414
0.15237331
0.15281776
0.15327725
0.15375154
0.15424037
0.15474347
0.15526059
0.15579146
0.15633579
0.1568933
0.15746371
0.15804671
0.15864199
0.15924925
0.15986817
0.16049843
0.16113968
0.1617916
0.16245385
0.16312607
0.1638079
0.164499
0.16519899
0.16590751
0.16662419
0.16734864
0.16808048
0.16881933
0.16956481
0.17031652
0.17107407
0.17183707
0.1726051
0.17337778
0.1741547
0.17493545
0.17571962
0.17650681
0.17729661
0.1780886
0.17888238
0.17967753
0.18047364
0.18127029
0.18206709
0.1828636
0.18365943
0.18445416
0.18524739
0.1860387
0.18682769
0.18761394
0.18839706
0.18917664
0.18995227
0.19072355
0.19149008
0.19225145
0.19300726
0.19375713
0.19450064
0.14740476
0.14755458
0.14772725
0.14791673
0.14812513
0.14835202
0.14859702
0.14885989
0.14914037
0.14943822
0.1497532
0.15008506
0.15043358
0.15079852
0.15117966
0.15157677
0.1519896
0.15241793
0.15286151
0.1533201
0.15379345
0.15428132
0.15478343
0.15529953
0.15582934
0.15637259
0.15692898
0.15749824
0.15808007
0.15867415
0.15928018
0.15989784
0.16052681
0.16116675
0.16181733
0.1624782
0.16314903
0.16382945
0.16451911
0.16521763
0.16592467
0.16663983
0.16736275
0.16809305
0.16883034
0.16957424
0.17032435
0.17108029
0.17184165
0.17260805
0.17337907
0.17415432
0.17493339
0.17571589
0.17650138
0.17728948
0.17807977
0.17887184
0.17966527
0.18045966
0.1812546
0.18204967
0.18284446
0.18363856
0.18443157
0.18522307
0.18601266
0.18679993
0.18758447
0.18836588
0.18914376
0.18991769
0.19068727
0.19145211
0.1922118
0.19296595
0.19371415
0.19445601
0.14745727
0.14760642
0.14777869
0.1479676
0.14817546
0.14840181
0.14864626
0.14890856
0.14918846
0.14948571
0.14980006
0.15013129
0.15047914
0.1508434
0.15122383
0.15162019
0.15203226
0.15245979
0.15290256
0.1533603
0.15383277
0.15431973
0.15482091
0.15533604
0.15586486
0.15640708
0.15696243
0.15753061
0.15811133
0.15870428
0.15930914
0.15992562
0.16055337
0.16119207
0.16184138
0.16250097
0.16317048
0.16384956
0.16453786
0.16523501
0.16594064
0.16665438
0.16737586
0.16810469
0.16884051
0.16958291
0.17033151
0.17108592
0.17184575
0.17261059
0.17338006
0.17415374
0.17493123
0.17571213
0.17649603
0.17728253
0.17807121
0.17886166
0.17965347
0.18044624
0.18123955
0.18203299
0.18282615
0.18361863
0.18441001
0.18519988
0.18598784
0.18677349
0.18755642
0.18833621
0.18911248
0.18988481
0.19065279
0.19141604
0.19217415
0.19292672
0.19367335
0.19441365
0.14750642
0.14765497
0.14782688
0.14801528
0.14822264
0.1484485
0.14869243
0.14895421
0.14923358
0.14953027
0.14984405
0.15017467
0.15052191
0.15088552
0.15126528
0.15166095
0.1520723
0.15249909
0.15294108
0.15339803
0.15386968
0.15435578
0.15485608
0.1553703