/*--------------------------------*- C++ -*----------------------------------*\
| =========                 |                                                 |
| \\      /  F ield         | OpenFOAM: The Open Source CFD Toolbox           |
|  \\    /   O peration     | Version:  2.4.0                                 |
|   \\  /    A nd           | Web:      www.OpenFOAM.org                      |
|    \\/     M anipulation  |                                                 |
\*---------------------------------------------------------------------------*/
FoamFile
{
    version     2.0;
    format      ascii;
    class       volScalarField;
    location    "180";
    object      f;
}
// * * * * * * * * * * * * * * * * * * * * * * * * * * * * * * * * * * * * * //

dimensions      [0 0 -1 0 0 0 0];

internalField   nonuniform List<scalar> 
32000
(
0.19403064
0.066150628
0.13571264
0.048904278
0.032787405
0.010791205
0.012865456
0.0080137626
0.0066229255
0.0044885603
0.0036074311
0.0029408461
0.0024653294
0.0020707599
0.0017205216
0.001418112
0.0011697714
0.00097852392
0.00082405326
0.00069052215
0.00058011028
0.00062273932
0.00066485696
0.00070543565
0.00074321141
0.00077788487
0.000804769
0.00081090504
0.00079678615
0.00076126908
0.000703089
0.0006229086
0.00052750294
0.00042977347
0.00046386133
0.00051609269
0.00054433246
0.00055431822
0.00054895753
0.00053215382
0.00050726231
0.00047372465
0.00043273131
0.0003852986
0.00035392999
0.00042125678
0.00051611976
0.00063270321
0.00074270242
0.00084338062
0.00093266335
0.0010008165
0.0010416678
0.001044922
0.0010049353
0.00091952164
0.0007942618
0.0006457194
0.00080180727
0.0010188085
0.0011996091
0.0013132368
0.0013431736
0.0012779008
0.001118384
0.00096320403
0.0008170357
0.00075532698
0.00088958117
0.0010240975
0.0011457555
0.0012575933
0.0013566831
0.0014478959
0.0015332052
0.001617843
0.0017056817
0.0018012056
0.0019063417
0.0020171218
0.0021163874
0.0021765107
0.0021514429
0.0019916651
0.0016225498
0.0010449616
0.0012949676
0.0019902128
0.0024460266
0.0027958942
0.0031420345
0.0035003528
0.0038334302
0.0041093533
0.0043203786
0.004484997
0.004632412
0.0047909736
0.0049794076
0.0052052519
0.0054668456
0.0057563816
0.0060622067
0.0063709543
0.0066682822
0.0069388493
0.0071682429
0.0073434618
0.0074516086
0.0074792445
0.0074116249
0.0072328662
0.0069261771
0.0064701652
0.0058450148
0.0050240393
0.0040086965
0.0028631657
0.0015622282
0.0009140478
0.0026877257
0.0046595895
0.0067419121
0.0087888832
0.010610116
0.011985914
0.012713772
0.012685338
0.011875111
0.010410958
0.0085647312
0.0066693233
0.0050096422
0.0037351393
0.0028125544
0.0020312752
0.0011093836
0.0019387198
0.0028168429
0.0032271188
0.0030052777
0.0022315561
0.0011212372
0.0016113022
0.0027130022
0.0035464984
0.0040482993
0.0043808665
0.0046861662
0.0050421961
0.0051783931
0.0049511639
0.0040901343
0.0033591308
0.0027816393
0.0020006515
0.0014670932
0.00089219754
0.00060841239
0.0011288035
0.0016528533
0.0022045181
0.0027723826
0.0033622672
0.003988023
0.0047172641
0.0055317524
0.006364515
0.0071889992
0.0079786304
0.0087126427
0.0093739567
0.0099510187
0.010392711
0.010628839
0.010638053
0.010481159
0.010211715
0.0098221562
0.0093299814
0.008745186
0.0080662512
0.0072950126
0.0064413202
0.0054625467
0.0042332294
0.0026894362
0.00068486289
0.0039278947
0.0078832923
0.013074132
0.018428523
0.027300804
0.024177002
0.040697542
0.029235058
0.059736448
0.062588068
0.14651523
0.067791332
0.44781012
0.14827002
0.28965041
0.099230832
0.070010205
0.031798966
0.031590365
0.018941265
0.014099902
0.0095403507
0.0074303337
0.0059453691
0.0049409133
0.0041709702
0.0035523212
0.0030538122
0.0026628199
0.0023673332
0.0021315935
0.0019303595
0.0017609551
0.0017476956
0.0017401136
0.0017349541
0.0017301146
0.001725808
0.0017183375
0.0016960052
0.0016595077
0.0016082784
0.0015411525
0.0014577029
0.00136225
0.0012640896
0.001291068
0.001332861
0.0013484879
0.0013437256
0.0013217229
0.0012873419
0.0012451272
0.0011961386
0.0011435736
0.001090752
0.0010626575
0.0011435569
0.001275432
0.0014385073
0.0015847704
0.0017179978
0.0018391112
0.0019405076
0.0020175247
0.0020615609
0.0020683431
0.002036608
0.0019722973
0.0018931648
0.0021154842
0.0023992476
0.0026417269
0.0028037544
0.0028613631
0.0027977974
0.0026238131
0.0024495547
0.002280808
0.0021970343
0.0023120971
0.0024361623
0.0025534104
0.0026631003
0.0027593816
0.0028445819
0.002919481
0.0029889641
0.0030575616
0.0031309862
0.0032130372
0.0033024844
0.0033861251
0.0034408579
0.0034271467
0.0033050101
0.0030148366
0.0025783047
0.0030033571
0.0038613541
0.004425618
0.0048092071
0.0051233449
0.0054048586
0.0056388806
0.0058123885
0.0059307999
0.0060194329
0.0061087986
0.0062244555
0.0063801408
0.0065780838
0.0068121664
0.0070718711
0.0073445767
0.0076171348
0.0078762327
0.0081078913
0.0082989866
0.0084375827
0.0085115757
0.0085079392
0.0084121969
0.0082086544
0.0078806784
0.0074071965
0.0067687596
0.0059395883
0.0049217343
0.0037788289
0.0024939212
0.0018655176
0.0036103025
0.0055731878
0.007654746
0.0097102319
0.011552942
0.01296891
0.013762852
0.01383287
0.013157475
0.011862448
0.010208287
0.0085070944
0.0070174029
0.0058637548
0.0049968514
0.0042039361
0.0032253361
0.003913792
0.0046497262
0.0049397059
0.0046300911
0.0038039084
0.002684122
0.0031544782
0.0042577431
0.005124891
0.005679762
0.006067874
0.0064081546
0.0067437593
0.0067805352
0.0063878039
0.005362903
0.0044984811
0.0038448387
0.0030357911
0.002481086
0.0018974877
0.0016066873
0.0021017888
0.0026051626
0.0031353237
0.0036803427
0.0042459292
0.0048465286
0.005548656
0.0063344936
0.0071385459
0.0079350737
0.0086983089
0.0094079526
0.010047162
0.010604044
0.011027765
0.01124878
0.011246384
0.011080437
0.010803612
0.010408165
0.0099112469
0.0093225596
0.0086405341
0.007867156
0.0070121659
0.0060341397
0.0048078209
0.0032669739
0.0013493733
0.0046281068
0.0086360035
0.013910884
0.019372747
0.028472125
0.025703944
0.044113471
0.033863669
0.085906311
0.10721795
0.31126607
0.15790953
0.6648255
0.22396236
0.41182564
0.14237242
0.10277153
0.053939426
0.051093894
0.03056334
0.022007631
0.014898337
0.011476813
0.0091258304
0.0075600385
0.0063924435
0.005489304
0.0047829645
0.0042407076
0.0038345987
0.0035126108
0.0032395783
0.0030076489
0.002935266
0.0028750865
0.0028215454
0.0027716593
0.0027261664
0.002682445
0.002630136
0.0025701151
0.0025024005
0.0024259488
0.002339205
0.0022439118
0.0021455504
0.0021653345
0.0021962817
0.0021986615
0.0021783293
0.0021387112
0.0020856841
0.0020250531
0.001959592
0.0018946278
0.0018359161
0.0018110507
0.0019060362
0.0020762038
0.0022873877
0.0024714434
0.0026386653
0.0027930831
0.0029293234
0.0030443205
0.0031312573
0.0031873093
0.003212186
0.003212207
0.0032062729
0.0034986663
0.0038530324
0.004160706
0.0043738419
0.0044605796
0.0043986155
0.0042090658
0.0040144098
0.0038215406
0.0037141983
0.0038088853
0.0039217825
0.0040342625
0.0041415859
0.0042347992
0.004313539
0.0043773192
0.0044306596
0.0044787889
0.004528724
0.0045862502
0.0046530423
0.0047200881
0.0047690842
0.0047673892
0.0046851357
0.0044785861
0.0041911312
0.0048018968
0.0058327135
0.0065118857
0.0069311549
0.0072113385
0.0074114383
0.007540468
0.0076054187
0.0076256553
0.0076337377
0.0076615672
0.0077317475
0.0078527294
0.0080211153
0.0082260613
0.0084541754
0.0086918094
0.0089260451
0.0091446602
0.009335117
0.0094856567
0.0095854719
0.0096232991
0.0095865486
0.0094610269
0.0092312384
0.0088807173
0.0083887254
0.0077362029
0.0068983162
0.0058777324
0.0047375542
0.0034692793
0.0028612063
0.0045763965
0.0065300258
0.0086110497
0.010675834
0.012541559
0.014000303
0.014864407
0.015038818
0.014506287
0.013390401
0.011939685
0.010444273
0.0091347897
0.0081093935
0.0073017585
0.0064967806
0.0054575424
0.0059975652
0.0065831983
0.0067459074
0.0063433553
0.0054615698
0.004331161
0.0047812564
0.0058867941
0.0067899459
0.0074013442
0.0078486712
0.0082264814
0.0085411
0.0084731099
0.0079055402
0.0067071925
0.0057025305
0.0049692516
0.0041305553
0.0035536752
0.002960769
0.0026622751
0.0031308428
0.003612265
0.0041195669
0.0046402833
0.0051800147
0.0057537975
0.0064270076
0.0071823
0.0079557501
0.008722487
0.009457586
0.010141233
0.010756822
0.011292113
0.011696593
0.011901422
0.01188656
0.011710853
0.01142603
0.011024154
0.010522002
0.0099289561
0.0092433819
0.0084673821
0.0076104932
0.0066324386
0.0054080678
0.003869479
0.0020409599
0.0053554294
0.009416229
0.014773229
0.020347777
0.029655697
0.027308171
0.047388229
0.038669887
0.10745656
0.14376638
0.44265551
0.24171874
0.86210942
0.29531703
0.51418965
0.1799401
0.13198628
0.077235116
0.071446793
0.0429238
0.030376154
0.020582857
0.015761455
0.012493392
0.010331641
0.0087426053
0.0075378244
0.0066111498
0.0059084502
0.0053849176
0.0049713785
0.0046221924
0.0043239854
0.0041890463
0.0040731888
0.003968457
0.0038709412
0.003781917
0.0036999286
0.0036160435
0.0035312889
0.0034462729
0.0033600985
0.0032700465
0.0031751525
0.0030768618
0.0030893918
0.0031090833
0.0030975582
0.0030607938
0.0030025337
0.0029297287
0.0028495204
0.0027664981
0.002688249
0.002623106
0.0026014104
0.0027110125
0.002920787
0.0031817469
0.0034051945
0.0036079322
0.0037972091
0.0039699838
0.0041248788
0.0042569574
0.004364927
0.0044495214
0.004517457
0.0045887265
0.0049552771
0.0053843263
0.0057609288
0.0060280505
0.0061454644
0.006084985
0.0058786931
0.005662235
0.0054435962
0.0053110816
0.0053841427
0.0054851132
0.0055924463
0.0056971714
0.0057870409
0.0058588439
0.0059107513
0.0059468997
0.0059732581
0.0059982283
0.0060297027
0.006072438
0.0061218618
0.0061647555
0.0061757751
0.0061357789
0.006017808
0.0058878996
0.0066957334
0.0079101057
0.0087110453
0.0091680639
0.0094122105
0.0095259953
0.0095437261
0.009493599
0.0094097594
0.0093324479
0.0092950437
0.0093170211
0.0094012277
0.0095383008
0.0097123862
0.0099070438
0.010107537
0.010301189
0.010476934
0.010623761
0.010731356
0.010790109
0.010789645
0.010717837
0.01056079
0.010303217
0.0099288279
0.0094172352
0.0087497908
0.0079026456
0.0068791039
0.0057417623
0.0044907303
0.0039035215
0.0055884498
0.0075325378
0.0096132668
0.011688165
0.013578512
0.015082763
0.016021312
0.016306384
0.015925205
0.014999065
0.013763862
0.012486513
0.011368111
0.010478854
0.0097343322
0.0089168648
0.0078127709
0.0081964103
0.0086231648
0.0086512167
0.0081502457
0.0072095029
0.0060671697
0.0064964387
0.007605022
0.00854667
0.0092182567
0.0097286951
0.010146757
0.010439828
0.010261416
0.0095090992
0.0081271295
0.006975054
0.0061585148
0.0052884836
0.0046883413
0.0040854627
0.0037785175
0.0042192331
0.0046773228
0.00516029
0.0056551118
0.0061672806
0.0067124166
0.0073547143
0.0080773641
0.0088181149
0.0095530248
0.010258054
0.010913896
0.011504182
0.012016325
0.012400176
0.012587659
0.012559414
0.012373195
0.012079724
0.011670856
0.011162964
0.010565086
0.0098755032
0.0090963984
0.0082370033
0.0072581406
0.0060346695
0.0044977671
0.0027606097
0.0061106111
0.010224416
0.015661311
0.021353379
0.030851868
0.028988494
0.050537045
0.043642147
0.12526304
0.17400894
0.55304779
0.32150602
1.0499691
0.36399708
0.60424198
0.2132308
0.15841689
0.10171362
0.092726537
0.056069802
0.039238381
0.026616028
0.020300176
0.016060214
0.013265452
0.01122953
0.0097047785
0.0085444078
0.0076714591
0.007023236
0.0065124838
0.006082501
0.0057140206
0.0055128818
0.0053380742
0.0051791688
0.0050312811
0.0048962337
0.0047738362
0.0046566778
0.0045459062
0.0044427231
0.0043464066
0.0042530375
0.004158811
0.0040609033
0.0040661524
0.0040741804
0.0040480689
0.0039939682
0.0039159826
0.0038222007
0.0037211806
0.0036194355
0.0035269533
0.003454794
0.0034361939
0.003560961
0.0038116946
0.0041241545
0.0043886689
0.0046285272
0.0048543055
0.0050654026
0.0052622252
0.0054418188
0.0056045104
0.0057521136
0.0058917599
0.0060444689
0.0064895184
0.0069975884
0.0074470897
0.0077712562
0.0079209924
0.0078618688
0.0076375737
0.0073978182
0.0071516525
0.0069922559
0.0070423718
0.0071306136
0.0072323995
0.0073342815
0.0074205144
0.0074848742
0.007524108
0.0075419494
0.007545154
0.0075435938
0.007547397
0.0075645905
0.0075953045
0.007631709
0.0076561825
0.0076609566
0.0076368054
0.0076733859
0.0086903814
0.010099765
0.01102976
0.011526713
0.011732596
0.011754852
0.011654581
0.011482452
0.011288272
0.011120429
0.01101387
0.010984754
0.011029989
0.011133888
0.011275284
0.011434506
0.011595662
0.011746335
0.011876682
0.011977308
0.012039432
0.01205471
0.012013713
0.011904801
0.01171439
0.011427415
0.011027773
0.010495438
0.0098121998
0.0089552314
0.007928496
0.0067941096
0.005560936
0.0049950998
0.0066491375
0.0085833872
0.010664065
0.01274992
0.014666555
0.016219163
0.017236648
0.01763898
0.017418116
0.01669295
0.015686062
0.014639833
0.013724091
0.012979395
0.012302115
0.011471736
0.010298261
0.010517147
0.010775953
0.010661525
0.010056316
0.0090530299
0.0078973053
0.0083051642
0.0094176313
0.010400412
0.01113606
0.011713745
0.012174963
0.012445927
0.012151103
0.011203515
0.0096271071
0.0083200738
0.007416507
0.0065133505
0.0058887938
0.005275209
0.0049589666
0.0053704372
0.0058037085
0.0062607499
0.0067279598
0.0072107247
0.0077252366
0.00833447
0.0090222194
0.0097280187
0.010428919
0.011101809
0.011727911
0.012291097
0.012778431
0.013140178
0.013309089
0.013266494
0.013068969
0.012766161
0.012349705
0.01183554
0.011232325
0.010538241
0.0097555077
0.0088929429
0.0079124192
0.0066887113
0.0051529302
0.0035094199
0.0068947473
0.011061587
0.01657613
0.022390257
0.032062496
0.030744682
0.053579864
0.048771799
0.1400476
0.19936059
0.65053876
0.3990462
1.235132
0.43124101
0.68683542
0.24325045
0.18269197
0.12740841
0.1150171
0.070052089
0.048630275
0.033021856
0.02511027
0.019839458
0.016371987
0.013861925
0.01199759
0.01058923
0.0095355422
0.0087548572
0.0081408408
0.0076251074
0.0071820956
0.0069108868
0.0066736513
0.0064574029
0.0062562295
0.0060725097
0.0059074234
0.0057551867
0.0056170346
0.0054947641
0.0053878596
0.0052911682
0.0051979088
0.0051007426
0.005098722
0.005094683
0.0050532811
0.0049808961
0.004882042
0.0047660125
0.0046428674
0.00452116
0.004413429
0.0043336219
0.0043180272
0.0044585266
0.0047516132
0.0051173597
0.0054246989
0.0057033729
0.0059673904
0.006218703
0.0064596032
0.006689226
0.006909612
0.0071237126
0.0073390936
0.0075777245
0.0081058911
0.008697596
0.0092242192
0.0096086865
0.0097924986
0.0097345898
0.0094909397
0.0092262951
0.0089507275
0.0087626257
0.0087884049
0.0088630704
0.0089588871
0.0090576678
0.0091399538
0.0091963326
0.0092220417
0.0092203922
0.0091989746
0.0091692231
0.0091436383
0.0091337163
0.0091445689
0.0091740753
0.0092127841
0.0092649868
0.0093401957
0.0095527066
0.010791751
0.012408379
0.013475172
0.014014364
0.0141796
0.014104772
0.013879372
0.013577881
0.01326671
0.013002883
0.012823011
0.012739738
0.012743672
0.012812421
0.012919186
0.01304087
0.01316036
0.013265511
0.01334778
0.013399484
0.013413465
0.013382723
0.013298829
0.013150658
0.012924957
0.012606889
0.012180547
0.011626285
0.010926351
0.01005898
0.0090288131
0.0078975139
0.0066828179
0.0061388288
0.0077613816
0.0096854692
0.011766319
0.01386397
0.015808591
0.017412495
0.018513594
0.019040117
0.018989033
0.018476743
0.017711784
0.016910591
0.016209876
0.015618757
0.015013168
0.014169466
0.01292176
0.012967078
0.013048343
0.012783151
0.012067525
0.010997862
0.0098270932
0.010212931
0.011330181
0.012356874
0.013160674
0.013809989
0.014317465
0.014565763
0.014148183
0.012994143
0.0112118
0.0097418756
0.0087473665
0.0078091808
0.0071589815
0.0065338734
0.0062073832
0.0065881279
0.0069949743
0.0074243677
0.0078621077
0.0083134778
0.0087952272
0.0093690719
0.010019491
0.01068792
0.011352472
0.011991009
0.012585306
0.013119475
0.013580238
0.013918328
0.014067379
0.014009419
0.013799753
0.013486889
0.013062219
0.012541218
0.011932132
0.011233024
0.010446098
0.0095796431
0.0085965341
0.0073713665
0.0058361683
0.0042886044
0.0077090828
0.011928974
0.017519079
0.023459793
0.033291325
0.032577903
0.056541046
0.054053269
0.15242007
0.22091909
0.74038828
0.47566448
1.4224158
0.49802368
0.76536179
0.27077541
0.20532108
0.15435966
0.13840888
0.084925331
0.058591081
0.039826393
0.030210536
0.023845388
0.019662625
0.016649195
0.014424264
0.012752604
0.011506944
0.010585477
0.0098617236
0.0092549486
0.0087328644
0.0083874715
0.0080841088
0.007807147
0.0075495896
0.0073143772
0.0071041723
0.0069149347
0.0067479508
0.0066056105
0.0064876412
0.0063876255
0.0062956656
0.0061996488
0.0061904137
0.0061739111
0.0061164915
0.0060248283
0.0059038992
0.0057642741
0.0056176066
0.0054746127
0.0053505441
0.0052624066
0.0052497097
0.0054065286
0.0057434082
0.0061642981
0.0065163092
0.0068355929
0.0071396907
0.0074332256
0.0077204825
0.0080027999
0.008284032
0.0085683298
0.0088637123
0.0091930099
0.0098092089
0.01048946
0.011097701
0.011545937
0.011765697
0.011708849
0.011444394
0.011153167
0.010846196
0.010627445
0.01062742
0.010687614
0.010777018
0.010872426
0.010950436
0.010998263
0.011009543
0.010987145
0.010939547
0.010879842
0.010823049
0.010784344
0.010774116
0.010796291
0.01085006
0.010952501
0.011132924
0.011531333
0.013006168
0.014843108
0.016054929
0.016638785
0.01676081
0.016582971
0.01622485
0.015786171
0.01535094
0.01498534
0.014727741
0.01458706
0.014547221
0.014578721
0.014648789
0.0147307
0.014806046
0.014862975
0.014894322
0.014894221
0.014857235
0.014777788
0.014648513
0.014458827
0.014195823
0.013844905
0.013390371
0.012812966
0.01209542
0.011217065
0.010183236
0.0090551744
0.0078595722
0.0073378531
0.0089283427
0.01084188
0.012923058
0.015033287
0.017007565
0.018665749
0.0198553
0.020513283
0.020641987
0.020355224
0.01984672
0.019305451
0.018833022
0.018405173
0.017876092
0.017018687
0.015691552
0.015554016
0.015447598
0.01502287
0.014190266
0.013050119
0.011862443
0.012225611
0.013348604
0.014422138
0.015298409
0.016024003
0.016581053
0.016806144
0.016259089
0.014886709
0.012886192
0.011245024
0.0101555
0.0091802541
0.0085030993
0.0078655581
0.0075277518
0.0078761843
0.0082548452
0.0086546822
0.0090608703
0.0094786719
0.0099253486
0.010461304
0.011071791
0.011700271
0.012325993
0.012927837
0.013488151
0.01399129
0.014423638
0.014736453
0.014864315
0.014789942
0.014567273
0.014243607
0.013810073
0.013281644
0.012666126
0.011961431
0.011169701
0.010298571
0.0093118724
0.0080839342
0.0065488166
0.005099523
0.0085550621
0.012828084
0.018492017
0.024563969
0.034543291
0.034489996
0.059447472
0.059484281
0.16288337
0.23952298
0.82625513
0.55241235
1.6155041
0.5651425
0.84231348
0.29641415
0.22671746
0.18261516
0.16299875
0.10074851
0.069163593
0.047057945
0.035621422
0.028093473
0.023149693
0.019601508
0.016993442
0.015042065
0.013592386
0.01252122
0.011680797
0.010977324
0.010371321
0.0099473657
0.0095739379
0.0092326758
0.0089154365
0.0086257258
0.0083678086
0.0081395185
0.0079421535
0.0077786909
0.0076491432
0.0075458013
0.0074555068
0.0073611003
0.0073447533
0.0073153992
0.0072412094
0.0071292232
0.0069849405
0.006820285
0.0066486011
0.0064828998
0.0063413201
0.0062441093
0.0062341804
0.0064079241
0.0067900869
0.007268054
0.0076666806
0.0080284754
0.0083746072
0.0087124942
0.0090485263
0.0093863652
0.0097317855
0.010090203
0.010470111
0.010895097
0.01160456
0.012378587
0.013073236
0.013588941
0.013846648
0.013790695
0.013503878
0.013184265
0.012843755
0.01259228
0.012564902
0.012609684
0.012692208
0.012783958
0.012857346
0.012896015
0.012891906
0.012847424
0.012771992
0.012680466
0.012590536
0.012521284
0.012488688
0.012503076
0.012572775
0.01272842
0.013020233
0.013615053
0.015340338
0.017411574
0.018777194
0.019408288
0.019484373
0.019197229
0.018698334
0.01811417
0.017547393
0.017073892
0.0167339
0.016532376
0.016446156
0.016438196
0.016469393
0.016509176
0.016537771
0.016543637
0.016521072
0.016466135
0.016375208
0.016244228
0.016066952
0.015833366
0.015530927
0.01514529
0.014660966
0.014059108
0.013322955
0.012432974
0.011395219
0.010270544
0.0090946624
0.0085956408
0.010153629
0.012056346
0.01413818
0.016261992
0.01826787
0.019983619
0.021266788
0.022063867
0.022382791
0.022334716
0.022097802
0.021832035
0.021601839
0.021347516
0.020900073
0.020028576
0.018616435
0.018286269
0.017981449
0.017387894
0.016431337
0.015216307
0.014009648
0.014349488
0.015479287
0.016602782
0.01755611
0.018362933
0.018973111
0.019174463
0.01849077
0.016887324
0.01465554
0.012834316
0.011645547
0.010631085
0.0099255843
0.0092746224
0.0089243387
0.0092388131
0.0095874406
0.0099557259
0.010328198
0.010710106
0.011119191
0.011614512
0.012182196
0.012767862
0.013351972
0.013914479
0.014438335
0.014908256
0.015310327
0.015596247
0.015701596
0.015609781
0.015373259
0.015038056
0.014595009
0.014058556
0.013436026
0.012725159
0.011927972
0.011051316
0.010059947
0.008827844
0.0072923624
0.0059437057
0.0094343471
0.013760699
0.019497213
0.025705236
0.035824195
0.036483341
0.062327375
0.065066501
0.17184993
0.25581463
0.91082296
0.63015951
1.8157447
0.63324604
0.90197293
0.32064281
0.24721931
0.21223124
0.18889035
0.11758533
0.080394464
0.054747287
0.041365182
0.032600513
0.026846552
0.022729868
0.019714462
0.017465738
0.015799108
0.014568674
0.01360415
0.012797927
0.012102823
0.011595643
0.011147954
0.01073857
0.010358134
0.010010717
0.0097023128
0.0094327745
0.0092033687
0.0090176509
0.0088759644
0.008769286
0.0086810509
0.0085887658
0.0085654535
0.0085228577
0.0084311021
0.0082976719
0.0081286544
0.0079374097
0.0077390787
0.0075491098
0.0073887194
0.0072815969
0.0072742574
0.0074655347
0.007894516
0.0084315676
0.0088788489
0.0092851658
0.0096754006
0.010059896
0.010447265
0.01084362
0.011256769
0.011693463
0.012162687
0.012688678
0.013496969
0.014370341
0.015156503
0.015743624
0.016041423
0.015986184
0.015675333
0.015325415
0.014949081
0.014662667
0.014606306
0.014634679
0.014709834
0.014797627
0.014866025
0.014894893
0.014874375
0.014806391
0.014701369
0.014576042
0.014450933
0.014349268
0.014292943
0.014299061
0.014385608
0.014597582
0.015007292
0.01580961
0.017800988
0.020121487
0.021650246
0.022331299
0.022358522
0.021955369
0.021307141
0.020568684
0.01986242
0.019274525
0.0188472
0.018581201
0.018445842
0.018396082
0.018386107
0.018381274
0.018360362
0.018312164
0.01823253
0.018119558
0.01797156
0.017786073
0.017558043
0.017278054
0.016933945
0.016511629
0.015995845
0.015368167
0.014612371
0.013710102
0.012668152
0.011547034
0.010391513
0.0099155999
0.011440749
0.013332414
0.01541529
0.017553778
0.019593316
0.021370079
0.022752268
0.02369643
0.024216498
0.024420924
0.024471539
0.024497745
0.024524592
0.024454737
0.024094456
0.023208508
0.021705392
0.021172305
0.020657759
0.019885549
0.018797636
0.017503016
0.016275057
0.01659088
0.017728632
0.018905385
0.019940615
0.020833917
0.021501024
0.021678115
0.020850151
0.019002044
0.016525031
0.014514498
0.013222099
0.012166142
0.011430835
0.010765397
0.010401393
0.010680216
0.010996878
0.011331519
0.011668006
0.012011578
0.012380431
0.012832253
0.013354159
0.013894061
0.01443372
0.014954208
0.01543911
0.015873513
0.016243213
0.016500413
0.016581751
0.0164713
0.016219921
0.015872312
0.015418986
0.014873812
0.014243608
0.013525954
0.012722647
0.011839576
0.010842393
0.0096046684
0.0080684658
0.0068228793
0.010348845
0.014728892
0.020537322
0.026886463
0.037140514
0.038560856
0.065210107
0.070805956
0.17965939
0.2702897
0.99531731
0.70961368
1.9323368
0.69322253
0.96177518
0.34384797
0.26710685
0.24327388
0.21619436
0.13550469
0.092334528
0.06292791
0.047466057
0.037384759
0.030767704
0.026046196
0.022597421
0.020032395
0.018134913
0.016734928
0.015638325
0.014722862
0.013933113
0.013337733
0.012811301
0.012329713
0.011882325
0.011473767
0.011111897
0.010798748
0.010535508
0.010326297
0.010171838
0.010061776
0.00997599
0.0098863475
0.0098562078
0.0097999011
0.0096896337
0.0095334268
0.0093380255
0.0091183167
0.0088913566
0.0086751953
0.008494348
0.0083761814
0.0083710461
0.008580369
0.0090576853
0.0096558315
0.010153855
0.010606774
0.011043263
0.01147672
0.011918105
0.01237611
0.012860702
0.01338004
0.013943623
0.014576208
0.015489223
0.016467847
0.01735095
0.018013698
0.018353889
0.018299181
0.017962503
0.017580226
0.017165623
0.016841902
0.016754829
0.016765737
0.016833
0.016916512
0.016979525
0.0169979
0.016959884
0.01686689
0.016730418
0.016569193
0.01640675
0.016270705
0.016189222
0.016186565
0.016290918
0.016562497
0.017096926
0.018118376
0.020392487
0.022978239
0.024680071
0.025413965
0.025389198
0.024862904
0.024056257
0.023154178
0.022300029
0.021590882
0.021071008
0.020736698
0.020549284
0.020455247
0.020401664
0.020349586
0.02027626
0.02017084
0.020030823
0.019856469
0.019648132
0.019405042
0.019123408
0.018794433
0.018406354
0.017945357
0.017396416
0.016741542
0.015965075
0.015049878
0.014003506
0.012886177
0.011751699
0.011299305
0.012791388
0.014671795
0.016756114
0.018910383
0.020985661
0.022826932
0.024313645
0.025413098
0.026145626
0.026616961
0.026971843
0.027307433
0.027607095
0.027733465
0.027466374
0.026565729
0.024965343
0.024218589
0.023482442
0.022521258
0.021294191
0.019914971
0.018663135
0.018954192
0.020101091
0.021334538
0.022456753
0.023442075
0.02417014
0.024322422
0.023342032
0.021234789
0.018497836
0.016288445
0.014887915
0.013788107
0.013021582
0.012340713
0.011961863
0.012203509
0.012486396
0.012785392
0.013083673
0.01338648
0.013712422
0.014117805
0.014590865
0.015081958
0.015574234
0.01604994
0.01649332
0.01688984
0.017225024
0.017451641
0.017507435
0.017377122
0.017109847
0.01674892
0.016284498
0.015729848
0.01509124
0.014366063
0.013555824
0.01266531
0.011661054
0.010416164
0.0088789871
0.0077389967
0.011300746
0.015735093
0.021615521
0.028111223
0.038499885
0.04072722
0.068125034
0.07671159
0.18659293
0.28331125
0.99152795
0.76707647
1.9830847
0.71205901
0.95699099
0.36239255
0.28660918
0.2758195
0.24502887
0.15458113
0.1050391
0.071636262
0.053950448
0.042466054
0.034928888
0.029563401
0.025653233
0.022751494
0.020608186
0.01902758
0.017790308
0.016758628
0.015868276
0.01517936
0.014569374
0.014011195
0.013492809
0.013019396
0.012600822
0.012241472
0.011942402
0.011708264
0.011540218
0.011426549
0.011343415
0.011256705
0.011219542
0.011148532
0.01101807
0.010836821
0.010612275
0.010360968
0.01010205
0.0098564103
0.0096521699
0.0095206912
0.0095164481
0.0097436607
0.010270219
0.010930821
0.011481267
0.011982557
0.012467205
0.012951771
0.013449675
0.013972322
0.014531965
0.015138253
0.015801226
0.016546032
0.01756978
0.018659735
0.019645416
0.020388225
0.020773285
0.02071899
0.020354591
0.019937694
0.019482149
0.019118555
0.018998891
0.01899115
0.019049887
0.019128695
0.019185822
0.019192908
0.019136192
0.019016565
0.018846673
0.018647362
0.018445358
0.018272922
0.018164831
0.018152895
0.018276028
0.018610528
0.019276586
0.020529004
0.023103079
0.025970865
0.027856225
0.028646066
0.028566038
0.027909141
0.026934608
0.025859226
0.024848507
0.024011025
0.023393208
0.022986596
0.022744067
0.022603115
0.02250336
0.022401305
0.022272566
0.022106704
0.02190297
0.021663907
0.021392028
0.021088354
0.020750419
0.020370061
0.01993593
0.019434491
0.018850958
0.018167788
0.01736991
0.016441437
0.015390715
0.014277723
0.013165236
0.012736949
0.014195973
0.016064959
0.01815103
0.020321938
0.022434613
0.024343294
0.025939321
0.027201588
0.028157365
0.028909789
0.029585873
0.030248934
0.030838238
0.031173781
0.031006936
0.03009201
0.028388334
0.027417363
0.026447808
0.025287397
0.023913382
0.022444463
0.021165939
0.021431315
0.022588405
0.023881899
0.025096227
0.026179231
0.026972318
0.027098985
0.025957399
0.023576111
0.020564972
0.018148146
0.01663526
0.015489473
0.014690919
0.0139945
0.013600724
0.013804886
0.014053423
0.014315947
0.014574848
0.014835326
0.015116352
0.015472834
0.015894285
0.016333707
0.016775776
0.017203993
0.017603306
0.017959583
0.0182581
0.018452269
0.01848099
0.018329589
0.018045374
0.017670212
0.017193862
0.016628959
0.015981186
0.01524771
0.014429669
0.013530606
0.012517932
0.011264274
0.0097259987
0.0086942571
0.01229257
0.016782134
0.022735476
0.029383576
0.039910222
0.042987337
0.071100516
0.082794837
0.19288477
0.29518476
0.98482345
0.78251964
1.9809889
0.73020509
0.95096157
0.38014191
0.30591828
0.30995486
0.27551938
0.17489514
0.11856816
0.080911925
0.060847024
0.047865895
0.039347112
0.033295395
0.028893613
0.02563314
0.023227831
0.021454625
0.02006737
0.018911893
0.017914446
0.017126171
0.016427348
0.015787726
0.015193836
0.014651387
0.014172405
0.013763796
0.013426386
0.013165299
0.012982144
0.012863785
0.012782429
0.012697575
0.01265145
0.012562516
0.012407548
0.012196214
0.011937064
0.011648599
0.011352351
0.011072283
0.010840317
0.010691954
0.010685814
0.010928831
0.011502151
0.012222726
0.012824579
0.013373761
0.013906528
0.01444258
0.014997854
0.015586545
0.01622333
0.01691943
0.017685479
0.018546906
0.019686363
0.020892906
0.021986257
0.022813322
0.023245712
0.023191846
0.022797667
0.022343235
0.021843505
0.021436991
0.021282367
0.021254281
0.021303331
0.021376493
0.021426751
0.021421318
0.02134434
0.021196188
0.020990739
0.020751099
0.020507366
0.020296673
0.020160674
0.020139021
0.020281773
0.02068206
0.021485762
0.022979603
0.025869434
0.029035466
0.031114939
0.031964195
0.031825821
0.031031058
0.029879511
0.028621621
0.027446165
0.026473697
0.025752802
0.025269968
0.024969187
0.024778512
0.024629933
0.024475236
0.024288283
0.024059152
0.023788953
0.023482629
0.023144947
0.022778805
0.022383089
0.02195024
0.021469324
0.020927072
0.020308925
0.019597777
0.018779144
0.017838389
0.016784693
0.015677882
0.014589466
0.014186769
0.01561346
0.017471052
0.019558795
0.0217461
0.023895896
0.025872057
0.027578535
0.029007024
0.030192748
0.031236902
0.032248761
0.033256698
0.034153605
0.034713784
0.034657306
0.033731506
0.031921436
0.030718756
0.029506736
0.02813928
0.026612293
0.025049542
0.023741713
0.02398029
0.025148111
0.026504479
0.027815784
0.029002077
0.029864081
0.029963883
0.028652272
0.025984154
0.022689997
0.020063141
0.018436314
0.017243345
0.016412633
0.015701108
0.015293137
0.015460839
0.015676382
0.015904162
0.016125552
0.016345388
0.016582658
0.016890562
0.017259855
0.017646429
0.018036717
0.018415654
0.018769024
0.019083183
0.019343243
0.019503371