/*--------------------------------*- C++ -*----------------------------------*\
| =========                 |                                                 |
| \\      /  F ield         | OpenFOAM: The Open Source CFD Toolbox           |
|  \\    /   O peration     | Version:  2.4.0                                 |
|   \\  /    A nd           | Web:      www.OpenFOAM.org                      |
|    \\/     M anipulation  |                                                 |
\*---------------------------------------------------------------------------*/
FoamFile
{
    version     2.0;
    format      ascii;
    class       volVectorField;
    location    "180";
    object      U;
}
// * * * * * * * * * * * * * * * * * * * * * * * * * * * * * * * * * * * * * //

dimensions      [0 1 -1 0 0 0 0];

internalField   nonuniform List<vector> 
32000
(
(0.0060832862 3.0717637e-05 -7.9766286e-22)
(0.0048333939 1.3246395e-06 -6.1390094e-23)
(0.0062015814 -0.00017026015 -1.7534125e-22)
(0.0046196258 -0.00035827608 -5.2567649e-21)
(0.0028883823 -0.00043746385 1.188857e-20)
(0.00029853154 -7.855511e-05 1.8053113e-20)
(-0.0014853671 0.00052287685 5.7796365e-21)
(-0.0019245563 0.00090897082 9.0883393e-21)
(-0.0015187255 0.00087090167 1.0054971e-19)
(-0.0011469519 0.00075179286 -5.9449837e-20)
(-0.00094596832 0.00068160152 -6.6400042e-20)
(-0.00082096097 0.00063253329 -1.5659139e-19)
(-0.00070580487 0.00057013653 -1.6399998e-19)
(-0.00059907026 0.00049986949 -1.0152431e-19)
(-0.00048393792 0.00041197766 8.6848399e-22)
(-0.00037261945 0.00032001163 -5.5026036e-20)
(-0.00027311483 0.00023416122 -7.7605868e-21)
(-0.00019183991 0.0001631064 4.4708345e-20)
(-0.00012168385 0.00010318583 4.9525055e-20)
(-5.6934441e-05 4.9473586e-05 7.1626734e-20)
(-8.5026696e-07 4.1804622e-06 4.310986e-20)
(5.3834543e-05 -3.9011267e-05 -3.8279547e-20)
(0.00010250433 -7.6657262e-05 -1.360391e-19)
(0.00015064124 -0.00011341823 3.7010703e-20)
(0.00019726488 -0.00014874054 4.5952817e-20)
(0.00024180022 -0.00018238326 -1.119145e-19)
(0.00028026916 -0.00021150419 5.7894137e-20)
(0.00030220212 -0.00022736953 5.9515258e-20)
(0.00030713851 -0.00022899439 -4.5102984e-20)
(0.00029244396 -0.00021468963 1.0103576e-19)
(0.00025507807 -0.0001831423 -1.1799154e-20)
(0.00019363473 -0.0001349386 6.3223555e-20)
(0.00011257718 -7.5403331e-05 8.3110581e-20)
(2.2779123e-05 -1.4170417e-05 -4.8943492e-20)
(-6.0221857e-05 3.7066234e-05 -9.5330231e-20)
(-0.00012257481 6.9761193e-05 4.3232389e-20)
(-0.00016493549 8.6105472e-05 -1.4901554e-20)
(-0.00019052867 9.0364383e-05 -3.5320076e-20)
(-0.00020041429 8.5266483e-05 5.3335732e-20)
(-0.00019688605 7.3921168e-05 -1.8219956e-20)
(-0.00018205103 5.9047104e-05 -1.536265e-20)
(-0.00015342939 4.173652e-05 -5.152115e-20)
(-0.00011073656 2.4196255e-05 -1.542515e-20)
(-5.3868088e-05 8.7903338e-06 3.7918924e-21)
(1.1051989e-05 -1.3699926e-06 -2.3662427e-20)
(8.8696346e-05 -5.1278324e-06 -8.0187362e-22)
(0.00018202865 -1.6117251e-06 3.1970805e-22)
(0.00029033496 -4.8865856e-07 -2.0408079e-25)
(0.00039522699 -4.5889263e-07 2.3498689e-24)
(0.00048944549 -4.0279312e-07 -2.3900998e-24)
(0.00056969029 -2.9503315e-07 1.356755e-24)
(0.00062401335 -1.3615456e-07 -3.5058827e-25)
(0.00064529897 7.9194788e-08 -2.2046791e-24)
(0.0006216424 3.4954893e-07 1.3319546e-24)
(0.00054674453 6.3842928e-07 -1.6670704e-26)
(0.00041841147 9.1856436e-07 5.9802503e-25)
(0.00024332954 1.1429278e-06 -5.8553379e-25)
(3.9705193e-05 1.2947932e-06 2.708956e-24)
(-0.00017665548 1.3311807e-06 3.5382806e-25)
(-0.00037922775 1.2538947e-06 -2.8185429e-24)
(-0.00054329285 1.0425733e-06 1.105867e-24)
(-0.00063994932 7.3623464e-07 -5.2205454e-25)
(-0.00065585823 3.6847844e-07 -1.4235194e-24)
(-0.0005819869 -3.7268155e-08 -8.559863e-26)
(-0.00041494172 -2.7698873e-07 -1.6905159e-24)
(-0.00025597425 -3.5528353e-07 -1.8207347e-24)
(-0.00010937263 -4.7849902e-07 2.3586878e-24)
(5.4190697e-05 -5.7851181e-07 -1.4488063e-24)
(0.00020852788 -6.5292428e-07 4.3929701e-24)
(0.00035797761 -6.900544e-07 -8.2118478e-26)
(0.00049003397 -7.2476823e-07 6.1717152e-25)
(0.00061004629 -7.5053116e-07 -8.0976926e-25)
(0.00071648893 -7.8990216e-07 5.2499788e-25)
(0.00081596638 -8.4200904e-07 -1.6444978e-25)
(0.0009112495 -9.059709e-07 -1.3231824e-24)
(0.0010081255 -9.7791655e-07 -1.0087326e-24)
(0.0011103848 -1.0618839e-06 9.0040949e-25)
(0.0012221601 -1.1301481e-06 -2.4736345e-25)
(0.001344519 -1.1761732e-06 4.7002481e-25)
(0.0014718316 -1.1304974e-06 -4.9050637e-26)
(0.0015838727 -9.4966879e-07 -3.270952e-26)
(0.0016491073 -5.5272445e-07 -7.5170468e-25)
(0.0016155618 1.0874907e-07 4.8127855e-25)
(0.0014261524 1.0687327e-06 2.106952e-25)
(0.00099453663 2.2090129e-06 1.8649668e-25)
(0.0003112613 2.8088726e-06 -7.7866059e-25)
(-0.00048562257 2.4803699e-06 5.0065023e-25)
(-0.0011360367 1.6664531e-06 3.7784129e-25)
(-0.0015608844 1.1655491e-06 -2.1395848e-25)
(-0.0019119886 1.1731058e-06 3.6502329e-26)
(-0.0022926727 1.3440117e-06 3.77747e-26)
(-0.0027089771 1.4008834e-06 -2.7605171e-25)
(-0.0031099278 1.2769841e-06 2.0398967e-25)
(-0.0034522922 1.0678781e-06 -3.9139759e-25)
(-0.0037212598 8.7654684e-07 6.9141624e-26)
(-0.0039328828 7.8225533e-07 4.7809771e-26)
(-0.0041172947 7.8860495e-07 2.1684106e-26)
(-0.0043058015 8.7780992e-07 3.1846583e-26)
(-0.0045206819 1.0061855e-06 6.5223335e-27)
(-0.0047726005 1.1355608e-06 1.0275326e-27)
(-0.0050621085 1.2349167e-06 1.5335125e-26)
(-0.0053823901 1.2833055e-06 6.1881368e-26)
(-0.0057217092 1.2655095e-06 -2.6990718e-25)
(-0.0060659191 1.1850493e-06 -1.4784199e-25)
(-0.006399423 1.021626e-06 -3.7732595e-25)
(-0.0067053948 7.8538972e-07 -2.4847638e-25)
(-0.0069680115 4.7211541e-07 -2.3146465e-25)
(-0.0071730332 1.0035645e-07 1.2700504e-24)
(-0.0073064468 -3.3954455e-07 2.258433e-24)
(-0.0073538344 -8.3164821e-07 1.9643306e-25)
(-0.0072994409 -1.4066226e-06 -6.9917428e-24)
(-0.0071263102 -2.0434343e-06 -5.6850432e-25)
(-0.0068164932 -2.7527481e-06 -1.3528349e-24)
(-0.0063470317 -3.536283e-06 8.3930137e-24)
(-0.0056965355 -4.3858117e-06 -2.944315e-25)
(-0.0048359645 -5.2837542e-06 -7.7603505e-25)
(-0.0037660846 -6.0483699e-06 -1.2843068e-23)
(-0.0025546431 -6.4384665e-06 1.1593742e-23)
(-0.0011696229 -7.0779353e-06 1.281172e-23)
(0.00047225918 -7.9571367e-06 -1.4780341e-23)
(0.0023695161 -8.4628858e-06 -6.2967324e-25)
(0.0044700332 -8.5953691e-06 1.4313476e-23)
(0.0066878593 -8.1438298e-06 -5.5912767e-25)
(0.0088681345 -6.957899e-06 -9.5026161e-25)
(0.010806586 -4.8653307e-06 -1.7498513e-23)
(0.012265686 -2.0752565e-06 1.0173066e-24)
(0.013024183 1.2061549e-06 -1.0381554e-24)
(0.012960517 4.4324508e-06 -1.9150864e-26)
(0.012041978 7.1336597e-06 1.4202702e-25)
(0.010402811 8.8295208e-06 7.1667775e-26)
(0.0083370924 9.2558574e-06 1.9145749e-23)
(0.0062111093 8.4455916e-06 -2.0218251e-23)
(0.0043448051 6.8894064e-06 1.9004825e-23)
(0.0029135702 5.1859271e-06 -1.03861e-23)
(0.001892031 3.8965374e-06 9.3220228e-24)
(0.0010548891 3.6045726e-06 -6.8357738e-17)
(8.3619107e-05 4.0414398e-06 -6.7459952e-17)
(-0.0010633366 4.0807873e-06 -9.7758549e-24)
(-0.0021035151 2.3549419e-06 6.8499119e-17)
(-0.0026255757 -9.6429874e-07 7.1939705e-17)
(-0.0024380199 -4.4304389e-06 4.033122e-23)
(-0.0016201585 -6.8680064e-06 -1.1017647e-23)
(-0.00039756477 -7.7382297e-06 2.2255298e-23)
(0.00095662834 -7.155615e-06 -1.1775587e-23)
(0.0021974124 -5.5262832e-06 -2.6193632e-23)
(0.0031327861 -3.3602627e-06 4.909796e-23)
(0.0036941313 -1.3688018e-06 -3.8059921e-23)
(0.0040709862 -2.2730608e-07 4.8323862e-23)
(0.004437624 2.0262616e-07 -8.5304686e-23)
(0.004906921 1.0198333e-06 4.7188162e-23)
(0.0051800561 2.988924e-06 9.9855057e-24)
(0.0050773136 5.8397576e-06 -1.1832667e-24)
(0.0042171033 8.5821501e-06 -1.27041e-24)
(0.0035079033 3.08158e-05 -3.6872298e-21)
(0.0029073469 0.00016181984 -2.2569939e-19)
(0.0019371793 0.0002089874 -3.0254302e-20)
(0.0012583088 0.00019748055 5.2848732e-20)
(0.00051782675 9.9209276e-05 -3.749111e-20)
(-0.00015097387 -5.8135477e-05 1.9030994e-19)
(-0.00080343769 -0.00027937915 1.1899579e-19)
(-0.0014209481 -0.0005532822 -1.9866199e-19)
(-0.0020295853 -0.00088349716 3.4937107e-20)
(-0.0026106577 -0.0012575837 5.3036208e-20)
(-0.0031667717 -0.0016705149 3.8772001e-20)
(-0.0037080136 -0.00212161 -9.74697e-20)
(-0.0043011392 -0.0026393339 -3.0537884e-20)
(-0.0049283266 -0.0032001172 -4.7044652e-21)
(-0.0055289811 -0.0037572763 -4.055212e-20)
(-0.0060851315 -0.0042893641 -3.9027358e-20)
(-0.0065820721 -0.0047753245 2.9985895e-20)
(-0.0070119937 -0.0052001584 -8.1799616e-20)
(-0.0073710008 -0.0055525815 -2.1532026e-21)
(-0.0076607006 -0.0058272139 2.3920738e-19)
(-0.0078519995 -0.0059988551 -1.6813233e-19)
(-0.0078928636 -0.0060442432 7.5521706e-20)
(-0.0077629033 -0.0059663157 2.6331112e-19)
(-0.0075033624 -0.0058073869 -7.6830994e-19)
(-0.007163945 -0.0055894073 -7.9816931e-20)
(-0.0067439402 -0.0053123149 -7.5638278e-19)
(-0.0062585324 -0.0049856078 -1.0484248e-19)
(-0.0057188559 -0.0046141779 -2.614423e-20)
(-0.0051292188 -0.004196981 5.2012717e-19)
(-0.0044938352 -0.0037342457 8.3652189e-19)
(-0.0038259244 -0.0032265794 2.1555327e-19)
(-0.0031208392 -0.0026467847 -1.1982889e-18)
(-0.002314871 -0.0019512004 -3.3984948e-19)
(-0.0013715297 -0.0011372216 7.4373253e-19)
(0.00020458974 0.00016133782 -7.9615558e-19)
(0.0020102572 0.0015303744 2.0671171e-19)
(0.0041873525 0.0029815251 2.8042237e-19)
(0.0069104122 0.0044818741 6.7142385e-19)
(0.010245036 0.0058244445 -4.2397056e-19)
(0.013969073 0.006570726 1.4212079e-19)
(0.016699473 0.0059244757 -4.6211829e-20)
(0.01685907 0.0041095882 -6.4602013e-22)
(0.014776881 0.00222766 2.5992258e-20)
(0.01190036 0.00093645073 1.4878234e-20)
(0.0085707189 0.00024151064 -1.6592807e-21)
(0.0068896216 1.6260605e-06 8.6804491e-23)
(0.004196577 -2.1056287e-05 2.3322607e-22)
(0.018435068 8.8075016e-05 1.8940024e-21)
(0.014993745 2.5626222e-06 1.2516533e-22)
(0.018761035 -0.00051222593 4.1721611e-21)
(0.014201026 -0.0010689998 1.4353379e-20)
(0.0090667827 -0.0013191347 -3.3617206e-21)
(0.001332945 -0.0002686115 -3.3182201e-20)
(-0.0041949777 0.0015380923 3.6848452e-21)
(-0.0057078576 0.0027271739 -3.3063266e-20)
(-0.0045741443 0.0026327776 -6.2878106e-20)
(-0.003474335 0.0022822991 3.2481141e-20)
(-0.0028676841 0.0020718222 1.103069e-19)
(-0.0024889914 0.0019233653 1.984136e-19)
(-0.0021419457 0.0017349825 3.3729313e-19)
(-0.0018211806 0.0015225334 2.4804972e-20)
(-0.0014769993 0.0012574343 -6.8423996e-20)
(-0.001144565 0.00098010953 1.6341768e-19)
(-0.00084713881 0.00072098891 2.5238958e-19)
(-0.0006042506 0.00050640974 2.4388937e-20)
(-0.00039493099 0.0003255151 1.2903811e-19)
(-0.00020175638 0.00016342852 7.7000749e-20)
(-3.4435359e-05 2.6724756e-05 2.0618285e-19)
(0.00012912614 -0.00010376251 -1.1446293e-19)
(0.00027519552 -0.00021775819 1.7618506e-19)
(0.00042010927 -0.00032925098 4.25171e-20)
(0.0005613068 -0.00043673798 6.5406209e-20)
(0.00069708644 -0.00053945615 4.0287188e-20)
(0.00081587655 -0.00062887651 -2.2174543e-19)
(0.0008859151 -0.00067852655 -2.2246098e-19)
(0.00090544504 -0.00068529355 8.728175e-20)
(0.00086654051 -0.00064400507 -1.4209847e-19)
(0.00075980728 -0.00055053568 -2.3018073e-20)
(0.00058035404 -0.00040642924 -2.2492034e-20)
(0.00034042109 -0.00022743759 -4.6256495e-20)
(7.1477143e-05 -4.2427884e-05 5.2739047e-20)
(-0.00018017741 0.00011324167 2.2588093e-20)
(-0.00037134639 0.0002131279 -1.1222486e-19)
(-0.00050239373 0.00026334164 6.2422501e-20)
(-0.00058262481 0.00027666506 3.3924435e-20)
(-0.0006150738 0.00026136754 4.4008005e-21)
(-0.00060645916 0.00022686235 -1.2797264e-20)
(-0.00056315104 0.0001813733 2.6747656e-20)
(-0.00047778616 0.00012828364 6.5925361e-20)
(-0.00034936596 7.4308727e-05 5.8262878e-21)
(-0.00017746652 2.6762051e-05 -6.3850244e-21)
(1.9737146e-05 -4.9508227e-06 1.2594497e-20)
(0.00025575601 -1.7262432e-05 8.3135694e-22)
(0.00053875279 -7.3590198e-06 7.4230556e-23)
(0.00086697533 -4.1329348e-06 -1.2004045e-24)
(0.0011863867 -3.8602934e-06 3.8983519e-24)
(0.0014752598 -3.3922663e-06 -4.4165189e-24)
(0.0017237528 -2.6053429e-06 1.1481709e-24)
(0.0018965684 -1.4571771e-06 3.0349719e-24)
(0.0019724794 7.1546886e-08 -2.3168456e-24)
(0.0019159117 1.9439067e-06 1.6067055e-25)
(0.0017073854 3.973598e-06 1.743128e-25)
(0.0013390067 5.897551e-06 6.5503728e-25)
(0.00082887455 7.3412847e-06 -1.9415252e-25)
(0.00022950484 8.1346241e-06 8.8948345e-25)
(-0.00041345672 8.1133021e-06 -5.2455213e-24)
(-0.0010216662 7.0992173e-06 6.2879689e-24)
(-0.0015206476 5.0697557e-06 1.4522459e-24)
(-0.0018220721 2.2192631e-06 -7.1560025e-24)
(-0.0018843263 -1.0455168e-06 2.4554067e-24)
(-0.0016796363 -4.5618882e-06 -2.0602854e-24)
(-0.0011950787 -6.1716412e-06 5.0969449e-24)
(-0.00073290174 -5.7947308e-06 -1.7374099e-24)
(-0.00030796974 -5.927297e-06 -3.3800464e-24)
(0.00016872953 -6.0845685e-06 4.6688767e-25)
(0.00061813625 -5.8503805e-06 5.4380317e-24)
(0.0010530435 -5.4332948e-06 3.8961039e-25)
(0.001435618 -4.8952698e-06 -7.9687133e-24)
(0.0017812172 -4.4147103e-06 8.5242755e-24)
(0.0020849778 -4.0394359e-06 -8.1845771e-24)
(0.0023663314 -3.8357198e-06 5.370527e-24)
(0.0026337303 -3.8008211e-06 -3.2118194e-24)
(0.0029048047 -3.945362e-06 5.5190376e-25)
(0.0031915028 -4.2456377e-06 1.0170651e-24)
(0.0035070631 -4.6440034e-06 -1.272343e-25)
(0.0038563106 -4.9511015e-06 4.9933233e-26)
(0.0042249305 -4.755742e-06 1.9404202e-25)
(0.0045565817 -3.5522187e-06 3.6584298e-25)
(0.0047611591 -7.3921924e-07 -5.1189874e-25)
(0.0046896183 4.204497e-06 1.0120378e-24)
(0.0041735894 1.1886569e-05 1.8010179e-26)
(0.0029572269 2.1575177e-05 2.9411669e-25)
(0.00098771935 2.8494477e-05 -8.2989643e-25)
(-0.001378868 2.7735661e-05 -7.2196394e-25)
(-0.0033688776 2.0623764e-05 3.2870636e-25)
(-0.0047087774 1.4960925e-05 5.908246e-25)
(-0.0058199063 1.4198011e-05 -1.5326312e-24)
(-0.0069974567 1.5458011e-05 1.1579628e-24)
(-0.0082635802 1.5820253e-05 -5.3646612e-25)
(-0.0094730104 1.4369609e-05 2.0048192e-25)
(-0.010501004 1.1806307e-05 -1.4793679e-25)
(-0.011304344 9.2745851e-06 1.4226702e-27)
(-0.011930225 7.631938e-06 -1.2046438e-27)
(-0.012468051 7.1757374e-06 -2.0636344e-26)
(-0.013011535 7.7496855e-06 -1.7781041e-26)
(-0.013628214 8.9579439e-06 9.622594e-27)
(-0.014351059 1.0380816e-05 2.3560424e-27)
(-0.01518241 1.1682171e-05 -5.3752941e-26)
(-0.016102035 1.2622697e-05 -1.1195343e-25)
(-0.017074676 1.3062519e-05 3.0042577e-25)
(-0.018057639 1.2923629e-05 1.267356e-26)
(-0.019003918 1.2156561e-05 9.5459548e-27)
(-0.019863292 1.0753245e-05 -1.9061181e-24)
(-0.020588721 8.7681501e-06 2.9374035e-24)
(-0.021137918 6.2311467e-06 -1.3921273e-24)
(-0.021469644 3.1470267e-06 4.7481265e-24)
(-0.021541706 -5.1322248e-07 -1.1151456e-23)
(-0.021307769 -4.815772e-06 1.6614551e-23)
(-0.02071906 -9.7849202e-06 -1.4348859e-23)
(-0.019724096 -1.5524192e-05 -3.982946e-24)
(-0.018258091 -2.2109442e-05 1.7941827e-24)
(-0.016261754 -2.9624017e-05 1.9444125e-23)
(-0.013656215 -3.7683676e-05 -1.1428098e-23)
(-0.010452413 -4.4608416e-05 9.6129668e-24)
(-0.00682764 -5.0404268e-05 1.4012291e-23)
(-0.0026774685 -5.852946e-05 -9.3277418e-25)
(0.0022000408 -6.8423559e-05 1.5894213e-23)
(0.0077891494 -7.6924352e-05 -4.1691695e-23)
(0.013941534 -8.2868129e-05 3.8507858e-23)
(0.020401655 -8.4145547e-05 -7.7738416e-23)
(0.026723858 -7.8549665e-05 1.5948617e-23)
(0.032324634 -6.4526212e-05 5.2770821e-24)
(0.036529404 -4.1780611e-05 5.1741119e-24)
(0.038710202 -1.2579216e-05 1.3825326e-23)
(0.038521513 1.9592078e-05 -4.7878907e-24)
(0.03585611 4.9793953e-05 1.1431381e-23)
(0.031075543 7.1755578e-05 2.7231812e-24)
(0.025008695 8.0996314e-05 -4.4238061e-24)
(0.018712042 7.7031722e-05 9.5460004e-24)
(0.013130206 6.3649058e-05 2.5800041e-24)
(0.008798929 4.7470528e-05 2.5719648e-24)
(0.0056640265 3.5995761e-05 -4.6793897e-23)
(0.0030869568 3.468617e-05 6.0225316e-23)
(0.0001706134 4.0204246e-05 -5.4205476e-23)
(-0.0031472883 4.1659267e-05 2.8942717e-23)
(-0.0060380243 3.0033167e-05 3.0523537e-24)
(-0.0073787497 6.5135744e-06 1.0563319e-23)
(-0.0066822041 -1.9363843e-05 4.5196971e-24)
(-0.0042073417 -3.9391088e-05 -2.7775282e-23)
(-0.00061345618 -4.9745951e-05 -3.6260048e-23)
(0.003312142 -5.0201192e-05 4.3278704e-23)
(0.0068802904 -4.2267013e-05 1.2365621e-23)
(0.0095590834 -2.925615e-05 -4.9998816e-24)
(0.011168668 -1.801415e-05 -2.8893296e-23)
(0.01225377 -1.3763938e-05 3.8009774e-24)
(0.013288372 -1.4907646e-05 3.7653656e-24)
(0.014552737 -1.3301353e-05 -2.1326853e-23)
(0.015157358 -1.8269289e-06 4.7842473e-24)
(0.014581569 1.8996617e-05 -2.1546374e-24)
(0.011785952 3.1607232e-05 7.4843679e-23)
(0.0095515723 8.6775357e-05 1.7116173e-22)
(0.0077661038 0.00045471442 -8.2681012e-21)
(0.0049224108 0.00057041899 -3.8513292e-19)
(0.002926849 0.00050616693 1.4725138e-19)
(0.00075645709 0.00018863105 -1.935732e-19)
(-0.0012071395 -0.00030617333 -2.8739095e-19)
(-0.0031243323 -0.00099009822 -4.4350982e-19)
(-0.0049415913 -0.0018313968 3.1081975e-19)
(-0.0067327674 -0.0028397238 2.6778694e-20)
(-0.008443152 -0.0039789323 -2.4682232e-19)
(-0.010080999 -0.0052337683 -3.5014884e-20)
(-0.011677942 -0.0066027533 -7.9774139e-20)
(-0.013420573 -0.0081657731 1.2011607e-19)
(-0.015251038 -0.00985063 -1.9622616e-20)
(-0.016994695 -0.011519626 3.8766149e-20)
(-0.018599703 -0.013108124 3.6263856e-20)
(-0.020024015 -0.014553784 -6.2974634e-20)
(-0.021246067 -0.01581235 1.3109896e-19)
(-0.022255511 -0.016850619 -6.4632941e-20)
(-0.023055265 -0.017651729 -3.2639182e-19)
(-0.023562291 -0.018142727 6.8737143e-21)
(-0.023630039 -0.018258292 -1.9474899e-19)
(-0.023204317 -0.018010028 -1.0876935e-19)
(-0.022403187 -0.017521882 -1.6787171e-19)
(-0.021367883 -0.016856847 1.5593078e-19)
(-0.0200976 -0.016016039 -5.6804352e-19)
(-0.018636471 -0.015027147 1.0177975e-19)
(-0.017016263 -0.013904277 4.613769e-19)
(-0.015249399 -0.012644194 -1.3590631e-18)
(-0.013348159 -0.011247081 -5.5933571e-19)
(-0.011349517 -0.0097130806 -7.4262877e-19)
(-0.0092390216 -0.0079604311 1.9089866e-19)
(-0.0068310675 -0.0058609206 1.1739617e-18)
(-0.0040080447 -0.0034045219 -7.4424882e-19)
(0.00071352945 0.00051611256 -5.7892454e-19)
(0.0060566714 0.0046177496 1.6199642e-18)
(0.012477209 0.0089515009 -1.798197e-18)
(0.020486758 0.013413091 -1.3322579e-18)
(0.030261278 0.01738115 1.1511055e-19)
(0.041139554 0.019560222 -2.5396828e-19)
(0.049190024 0.017646858 -1.7868196e-19)
(0.049939776 0.012316159 7.146228e-20)
(0.044215585 0.0067567749 2.5614075e-20)
(0.036001974 0.0028980124 -5.9539359e-20)
(0.026323718 0.00078686255 -2.7101975e-21)
(0.021237798 4.4219056e-05 -7.786915e-22)
(0.013387061 -5.7205768e-05 2.4386868e-21)
(0.031436004 0.00014277727 2.9331119e-22)
(0.02597763 2.1250172e-06 6.8147274e-23)
(0.031877826 -0.00086310148 3.9874138e-22)
(0.024446464 -0.0017874801 -2.4212505e-20)
(0.015866872 -0.0022342892 -1.6600992e-20)
(0.0029005383 -0.0005298856 3.1514592e-20)
(-0.0066845279 0.0025050105 -1.5361231e-20)
(-0.0095308371 0.0045629807 -1.4811838e-20)
(-0.0077430956 0.0044455873 -3.3652145e-20)
(-0.0059107757 0.0038730536 -2.0927466e-20)
(-0.0048818151 0.0035211439 2.0576029e-20)
(-0.0042375563 0.0032699136 -1.2524812e-19)
(-0.0036499123 0.0029519465 -2.5504153e-19)
(-0.0031074885 0.0025927942 2.0199868e-20)
(-0.0025276614 0.0021460307 2.3470911e-19)
(-0.0019678536 0.0016790117 1.4295632e-20)
(-0.001466552 0.0012423767 -1.3210991e-19)
(-0.0010571764 0.00088063253 -2.6882849e-19)
(-0.00070486717 0.00057574051 -1.0002227e-19)
(-0.00037983009 0.00030266351 -6.7230186e-21)
(-9.8294023e-05 7.2241296e-05 -1.8068204e-19)
(0.00017731905 -0.00014797088 1.3046399e-19)
(0.0004241372 -0.00034089677 1.9434153e-19)
(0.00066946461 -0.00052995948 -9.3396943e-20)
(0.00090955207 -0.00071292045 -3.1358742e-20)
(0.0011415657 -0.00088841919 -2.532675e-20)
(0.0013464885 -0.0010421088 1.7570875e-19)
(0.0014702772 -0.001129153 9.3725652e-20)
(0.0015093662 -0.0011440551 -8.1227487e-20)
(0.0014504037 -0.0010779819 -1.7404172e-20)
(0.0012772417 -0.00092367877 -6.6408094e-20)
(0.00098081804 -0.0006833652 1.3311557e-20)
(0.00058034685 -0.00038303612 -8.1011678e-20)
(0.00012743621 -7.0967228e-05 -5.5384194e-20)
(-0.0003004347 0.00019316907 5.3781457e-20)
(-0.00062832349 0.00036365014 -9.1668229e-21)
(-0.00085464089 0.00044985594 3.8304696e-20)
(-0.00099458461 0.00047316209 6.0855336e-20)
(-0.0010531496 0.00044754209 -3.4324443e-20)
(-0.0010414254 0.00038890548 1.1606617e-19)
(-0.00097018892 0.00031114425 -5.6782656e-20)
(-0.00082723281 0.0002201097 -4.5237995e-20)
(-0.00061061721 0.00012723427 -1.2161714e-20)
(-0.00031946352 4.5146659e-05 -1.6761902e-20)
(1.6142072e-05 -1.0269817e-05 9.1735241e-21)
(0.00041806675 -3.2859153e-05 -9.2119663e-21)
(0.00089910827 -1.7542861e-05 5.1358685e-22)
(0.0014565826 -1.2475144e-05 -4.854025e-24)
(0.0020010538 -1.1698598e-05 1.3427745e-24)
(0.0024961147 -1.0336496e-05 2.1896957e-24)
(0.0029251531 -8.0656987e-06 1.1289815e-25)
(0.0032296916 -4.7224299e-06 -5.0999228e-25)
(0.0033740942 -2.6964369e-07 -2.5226037e-24)
(0.00329884 5.2310883e-06 4.8438659e-24)
(0.002970444 1.1234221e-05 -3.4944418e-24)
(0.002373886 1.7004372e-05 -1.7604968e-24)
(0.0015367325 2.1398231e-05 2.5412231e-24)
(0.00054412708 2.3897887e-05 1.8779713e-24)
(-0.00052944282 2.4000206e-05 -2.1599666e-24)
(-0.0015541926 2.1161106e-05 3.8299358e-25)
(-0.002404201 1.5215032e-05 -4.9758946e-24)
(-0.002928522 6.7736367e-06 6.5464453e-24)
(-0.0030547504 -2.9626079e-06 -1.6454906e-24)
(-0.0027352381 -1.3499578e-05 1.1738545e-24)
(-0.0019446408 -1.8382428e-05 5.4062588e-25)
(-0.0011876952 -1.7187376e-05 -9.8145194e-24)
(-0.00049344123 -1.7499245e-05 1.3877527e-23)
(0.00028912022 -1.7927025e-05 -1.4946325e-23)
(0.0010265731 -1.7140438e-05 5.7612596e-24)
(0.0017397719 -1.5818567e-05 5.974163e-24)
(0.0023648539 -1.4110538e-05 -3.9050335e-24)
(0.0029264938 -1.2574186e-05 4.3581282e-25)
(0.0034162391 -1.1343451e-05 7.0090285e-25)
(0.0038661887 -1.0638193e-05 2.5962902e-24)
(0.0042908416 -1.0443583e-05 -3.6243741e-24)
(0.0047201944 -1.0808931e-05 -2.5354675e-24)
(0.0051752095 -1.1669806e-05 2.1837954e-24)
(0.0056792188 -1.286236e-05 -4.483272e-25)
(0.0062424094 -1.3870027e-05 1.0845319e-24)
(0.0068440354 -1.3487032e-05 -2.4318714e-25)
(0.0073951861 -1.0247996e-05 -1.5786967e-25)
(0.0077501601 -2.3781983e-06 4.5503308e-25)
(0.007667864 1.1704702e-05 -1.565549e-25)
(0.0068691855 3.3901514e-05 2.0785145e-24)
(0.0049305552 6.2334592e-05 -1.6345638e-24)
(0.0017332956 8.413454e-05 8.824466e-25)
(-0.0022111902 8.3870456e-05 -3.3646969e-25)
(-0.0056138611 6.3821834e-05 -4.3953858e-25)
(-0.0079635594 4.6993699e-05 -2.8078702e-25)
(-0.0099184087 4.414558e-05 6.4309159e-25)
(-0.011952596 4.7277479e-05 6.0543856e-25)
(-0.014108278 4.7907498e-05 -2.9180553e-25)
(-0.016152224 4.3272352e-05 -4.4722601e-25)
(-0.017882112 3.5402339e-05 3.0674132e-25)
(-0.019227805 2.7636995e-05 9.9670299e-26)
(-0.020267825 2.2532472e-05 -2.0337678e-25)
(-0.021151446 2.0976085e-05 5.9381382e-26)
(-0.022035987 2.2531679e-05 -4.2483424e-26)
(-0.023035867 2.6022435e-05 -2.7117213e-26)
(-0.024207677 3.018926e-05 1.2134229e-26)
(-0.025556078 3.4008537e-05 6.4031334e-26)
(-0.027047156 3.6752522e-05 9.5218721e-26)
(-0.028621375 3.7990997e-05 2.0584874e-25)
(-0.030206451 3.7502268e-05 -3.6908278e-25)
(-0.031722958 3.5130196e-05 1.1475997e-24)
(-0.033086838 3.0881032e-05 -5.1945253e-25)
(-0.034219682 2.4905143e-05 -2.0216385e-24)
(-0.035051063 1.7319404e-05 3.2904229e-24)
(-0.035512826 8.1200662e-06 2.8635956e-24)
(-0.035535501 -2.7803971e-06 -5.4599292e-24)
(-0.035042519 -1.5521007e-05 -7.3699846e-24)
(-0.033955271 -3.019925e-05 2.7564252e-24)
(-0.032190678 -4.7114644e-05 3.7984409e-24)
(-0.029645904 -6.6447138e-05 1.5800474e-23)
(-0.026227712 -8.8435994e-05 -1.0118045e-23)
(-0.021815542 -0.00011184261 6.4650586e-24)
(-0.016437123 -0.00013196762 -1.3001072e-23)
(-0.010353781 -0.00014969565 -3.6781794e-23)
(-0.0033827982 -0.0001737486 5.1491752e-24)
(0.0047434617 -0.00020209141 7.1877355e-23)
(0.013992727 -0.00022667554 -1.5786106e-23)
(0.024126022 -0.00024379584 1.5973892e-23)
(0.034719718 -0.00024738447 -5.0039157e-23)
(0.045054096 -0.00023117111 -1.6791456e-23)
(0.054191378 -0.00019055132 2.0433888e-24)
(0.061050785 -0.00012470917 6.0543987e-23)
(0.064623575 -3.9790895e-05 -2.2739409e-23)
(0.064346603 5.409261e-05 2.5053772e-23)
(0.060025119 0.00014323603 -3.3074414e-23)
(0.052202719 0.00020939539 -2.8885235e-23)
(0.042191487 0.00023901209 3.9086436e-23)
(0.031706631 0.00022972927 3.6561375e-23)
(0.022320767 0.00019177337 -1.0540372e-22)
(0.014957608 0.0001444286 9.8489903e-23)
(0.0095654166 0.00011015453 -3.0592885e-23)
(0.0051265381 0.00010545824 -2.5463884e-23)
(0.00021308845 0.00011982675 1.985645e-23)
(-0.0051968996 0.00012081091 -1.0199924e-23)
(-0.0097406911 8.4098432e-05 -4.1781926e-23)
(-0.011691943 1.5041719e-05 1.9181409e-23)
(-0.010347445 -5.9138706e-05 5.644475e-23)
(-0.0061659427 -0.00011595338 2.6422664e-23)
(-0.00022939022 -0.00014478633 -3.0027084e-23)
(0.0061795312 -0.00014513241 -9.8702317e-23)
(0.011968982 -0.00012166082 2.5887815e-23)
(0.016304453 -8.4053398e-05 -3.4070181e-23)
(0.018918664 -5.2530195e-05 1.277858e-22)
(0.020684853 -4.0849201e-05 2.560558e-23)
(0.022331852 -4.3970801e-05 -3.412479e-23)
(0.024249219 -3.6957445e-05 -3.8227875e-23)
(0.024961948 -1.6793715e-06 -3.0006712e-23)
(0.023609969 6.1536884e-05 2.4002843e-23)
(0.018612814 9.5259253e-05 -2.4613878e-23)
(0.014698138 0.00016869567 8.8898585e-21)
(0.011710285 0.00072982084 5.8552846e-20)
(0.0070273458 0.00086593266 4.4606159e-19)
(0.0037220608 0.0006956977 -2.2231098e-19)
(0.00014361847 0.00011505104 8.4124724e-20)
(-0.0031005302 -0.00076105187 5.0922016e-19)
(-0.0062696602 -0.001948215 6.7910126e-20)
(-0.0092785424 -0.0033968828 -4.5399238e-19)
(-0.012244174 -0.005120941 -4.4360454e-20)
(-0.015077721 -0.0070620661 1.6029624e-19)
(-0.017793502 -0.0091946255 5.1194821e-20)
(-0.020447328 -0.011517056 5.1195786e-20)
(-0.023333515 -0.014152087 1.1609462e-19)
(-0.026350187 -0.016976368 6.4929138e-20)
(-0.029213406 -0.019764212 -4.2087943e-21)
(-0.031837583 -0.022406889 -6.0869039e-20)
(-0.034154511 -0.024801647 -2.5445194e-20)
(-0.036129689 -0.026875927 1.008974e-19)
(-0.037746887 -0.028575394 1.6963779e-20)
(-0.039007733 -0.029870512 -5.6387351e-20)
(-0.03977753 -0.030644581 1.2184664e-19)
(-0.039820752 -0.030796682 -4.3002197e-20)
(-0.03905629 -0.030351803 -7.4656186e-20)
(-0.03767598 -0.029511548 1.009409e-18)
(-0.03590761 -0.028375955 1.105547e-19)
(-0.033751762 -0.026949569 4.6073303e-20)
(-0.031280688 -0.025277059 1.4873083e-18)
(-0.028545749 -0.023380973 -6.8176241e-19)
(-0.025567218 -0.021255735 9.4321407e-20)
(-0.022365029 -0.018900894 -3.4129827e-19)
(-0.018997518 -0.016313624 1.0020718e-18)
(-0.015438383 -0.013357007 2.0445685e-18)
(-0.011381593 -0.0098219919 -1.1831632e-18)
(-0.0066148451 -0.005689002 -1.7300215e-18)
(0.0013564573 0.00091556254 -3.1426011e-19)
(0.010281695 0.0077600179 -2.7430297e-18)
(0.020974527 0.014964119 1.5595445e-18)
(0.034267767 0.022344337 2.366164e-18)
(0.050418774 0.028863876 5.8322469e-19)
(0.068303796 0.032398712 -2.6410165e-19)
(0.081613761 0.02925936 1.2375936e-19)
(0.08322218 0.020571747 -1.6820275e-20)
(0.074317414 0.011442405 -1.6365269e-19)
(0.061081025 0.0050160837 4.5360764e-20)
(0.045266132 0.0014346161 -1.4389474e-20)
(0.036619636 0.00014602706 -9.3584815e-23)
(0.023727009 -8.3110432e-05 -4.5710281e-21)
(0.045120472 0.00019627297 -4.9527854e-21)
(0.037832463 8.3284309e-07 -1.7202841e-22)
(0.045526938 -0.001221235 -4.2429933e-21)
(0.03540338 -0.0025107594 1.9262687e-20)
(0.023345981 -0.0031815755 -4.9980531e-22)
(0.0050892378 -0.00087008985 -1.086929e-20)
(-0.0088888088 0.0034106362 -8.3155205e-21)
(-0.013370918 0.0064082236 3.953894e-20)
(-0.011022532 0.0063057352 -3.2851265e-20)
(-0.0084589156 0.0055235425 -3.6257918e-20)
(-0.006991137 0.0050300847 -1.8798996e-19)
(-0.0060688324 0.0046729179 2.3429501e-19)
(-0.00523195 0.0042219971 -9.6339534e-20)
(-0.0044601577 0.0037117955 3.9929221e-20)
(-0.0036382885 0.0030792682 -3.4386714e-20)
(-0.0028451213 0.0024186208 -3.2827379e-19)
(-0.0021342415 0.0018005743 -3.0128828e-20)
(-0.0015536454 0.0012882397 5.5299104e-20)
(-0.0010546249 0.00085647419 -6.063072e-21)
(-0.00059441945 0.0004699024 -2.5045413e-19)
(-0.00019573669 0.00014349471 1.2030155e-19)
(0.00019501889 -0.00016885257 3.2589786e-20)
(0.00054598349 -0.0004433575 -1.9788646e-19)
(0.00089539231 -0.00071292767 8.7165634e-20)
(0.0012387844 -0.00097482019 -1.3134933e-19)
(0.0015721956 -0.0012269954 -1.605458e-19)
(0.0018693759 -0.0014491708 -3.7387178e-20)
(0.0020530747 -0.0015775584 5.1900673e-20)
(0.0021172899 -0.0016039891 4.3977648e-20)
(0.0020431499 -0.0015157768 1.0297947e-19)
(0.0018073456 -0.001302213 1.2861306e-20)
(0.001395933 -0.00096586899 4.2932515e-20)
(0.00083417676 -0.00054274625 9.5529856e-20)
(0.00019321786 -0.00010063975 1.9624307e-19)
(-0.00041814289 0.0002758944 6.7247823e-20)
(-0.00089076498 0.00052039334 3.0915769e-20)
(-0.0012191563 0.0006447773 -6.0677082e-20)
(-0.0014241273 0.00067905254 -8.3317591e-20)
(-0.0015126235 0.00064305411 -1.6069372e-20)
(-0.0015000068 0.00055936765 -7.0807382e-20)
(-0.0014015699 0.00044769568 4.6986849e-20)
(-0.0012003765 0.00031654683 5.4423899e-20)
(-0.00089328885 0.00018227843 5.1730278e-21)
(-0.00047884044 6.3230733e-05 1.7526466e-20)
(1.3277818e-06 -1.8082543e-05 -1.6631133e-20)
(0.00057673797 -5.2722318e-05 1.3869933e-20)
(0.0012641294 -3.3028692e-05 -7.8686156e-23)
(0.0020599034 -2.6441231e-05 -5.7274136e-25)
(0.0028396785 -2.4892662e-05 6.0956685e-25)
(0.00355228 -2.2102552e-05 -5.3568005e-25)
(0.0041740418 -1.7443648e-05 -5.0544436e-25)
(0.0046237261 -1.0539722e-05 9.7315057e-25)
(0.0048510105 -1.3188812e-06 3.249856e-24)
(0.0047723649 1.0122184e-05 -4.3125222e-24)
(0.0043395718 2.268949e-05 3.4520392e-24)
(0.0035290669 3.4883927e-05 -4.863342e-24)
(0.0023756621 4.4314291e-05 9.4451459e-25)
(0.00099489413 4.9860739e-05 5.7503586e-25)
(-0.00051100501 5.0457583e-05 3.5555947e-24)
(-0.0019620144 4.4886918e-05 -5.8510175e-24)
(-0.0031790584 3.2713673e-05 6.5220107e-24)
(-0.0039454917 1.5195402e-05 6.5086669e-26)
(-0.004155455 -5.1316002e-06 1.6217153e-24)
(-0.0037402378 -2.7231087e-05 -7.2836921e-24)