/*--------------------------------*- C++ -*----------------------------------*\
| =========                 |                                                 |
| \\      /  F ield         | OpenFOAM: The Open Source CFD Toolbox           |
|  \\    /   O peration     | Version:  2.4.0                                 |
|   \\  /    A nd           | Web:      www.OpenFOAM.org                      |
|    \\/     M anipulation  |                                                 |
\*---------------------------------------------------------------------------*/
FoamFile
{
    version     2.0;
    format      ascii;
    class       volScalarField;
    location    "350";
    object      p;
}
// * * * * * * * * * * * * * * * * * * * * * * * * * * * * * * * * * * * * * //

dimensions      [0 2 -2 0 0 0 0];

internalField   nonuniform List<scalar> 
19477
(
-0.02501879
0.015415836
0.010977273
0.0097989374
0.0089750286
0.0081687866
0.0074149655
0.0066815713
0.0059627937
0.005245512
0.0046348243
0.0041481244
0.0037736309
0.0035128281
0.0033573516
0.0033016347
0.0033338987
0.0034448788
0.0036246642
0.0038626429
0.0041479217
0.0044700906
0.0048208876
0.0051899706
0.0055465685
0.0058853837
0.0062001157
0.0064839504
0.0067314635
0.0069375657
0.0070971963
0.0072053072
0.0072580785
0.0072534721
0.0071909877
0.0070688937
0.096271254
0.091516603
0.086494488
0.081214598
0.075692435
0.069949692
0.06401454
0.057922819
0.051717481
0.045448712
0.039175769
0.032934344
0.026782756
0.020776159
0.014957328
0.009357646
0.0039936945
-0.0011169751
-0.00606583
-0.010997613
-0.015896889
-0.02060025
-0.025123434
-0.029524252
-0.033839706
-0.03798548
-0.041973177
-0.045694717
-0.049285426
-0.05227751
-0.055662147
-0.057092485
-0.062791413
-0.023106856
0.017121552
0.012894592
0.011473326
0.010626313
0.0097293781
0.0089011684
0.0080894462
0.0072940162
0.0065016048
0.0058131084
0.0052463571
0.0047901503
0.004446252
0.0042070594
0.0040676518
0.0040172281
0.0040473529
0.0041490642
0.0043127166
0.0045284444
0.0047867485
0.0050802575
0.0053990511
0.0057132937
0.0060174949
0.0063051495
0.0065690242
0.0068033651
0.0070031018
0.0071634153
0.0072789721
0.0073446824
0.0073566722
0.0073128911
0.0072109174
0.0070554094
0.0068618258
0.0066326354
0.0063704451
0.0060787343
0.0057600627
0.0054176016
0.094233081
0.08950446
0.084527078
0.079312321
0.073877147
0.068244331
0.062442609
0.056507672
0.050481423
0.044412036
0.038355123
0.032342821
0.026427287
0.020656793
0.015067099
0.0096820234
0.0045162363
-0.00041863993
-0.0052415188
-0.010047399
-0.014794796
-0.019349031
-0.02374023
-0.028019657
-0.032221327
-0.036266767
-0.040160895
-0.043812624
-0.047327189
-0.050307465
-0.053603336
-0.055171646
-0.060652651
-0.021202044
0.018825254
0.014809252
0.013157964
0.012285979
0.011306739
0.010407348
0.0095223546
0.0086545639
0.0077913836
0.0070292393
0.0063863477
0.0058520987
0.0054284863
0.0051086219
0.0048881724
0.0047572456
0.004708158
0.0047327953
0.0048223697
0.004967912
0.0051607388
0.0053942868
0.0056591238
0.0059264579
0.0061907597
0.0064455488
0.0066833916
0.0068982354
0.0070848835
0.0072387168
0.0073546661
0.0074273371
0.0074516324
0.0074238026
0.007340138
0.0072042783
0.0070301555
0.0068201199
0.006576913
0.0063042319
0.0060050753
0.0056827931
0.092189892
0.087497961
0.082576079
0.077437061
0.072098994
0.06658537
0.060925091
0.055153268
0.049310332
0.043442026
0.037599982
0.03181257
0.026125815
0.020581564
0.01520936
0.010027123
0.0050505477
0.00028304687
-0.0044126269
-0.0091008183
-0.013697718
-0.01810932
-0.022372652
-0.026533534
-0.030623762
-0.034569981
-0.038371977
-0.041952693
-0.045392525
-0.048355587
-0.051566065
-0.053261932
-0.05852737
-0.019306156
0.02052521
0.016719263
0.014850762
0.013952313
0.012898785
0.011931735
0.010978445
0.010042721
0.0091131943
0.0082816745
0.0075666779
0.0069582023
0.0064584242
0.0060611249
0.005762507
0.0055535262
0.0054271875
0.0053761434
0.0053923776
0.0054677144
0.0055942006
0.005765994
0.0059741662
0.006191024
0.006411074
0.0066280019
0.0068343618
0.0070239272
0.0071913275
0.007331959
0.0074411198
0.0075137731
0.0075445342
0.0075285004
0.0074605314
0.0073426872
0.0071869323
0.0069952063
0.0067701506
0.0065154637
0.0062344035
0.0059305132
0.090147925
0.085503239
0.08064732
0.075594126
0.070362544
0.064976418
0.059464426
0.053860701
0.048203818
0.042536737
0.036906892
0.031338828
0.025872709
0.020544697
0.015379114
0.010389593
0.0055931999
0.00098158703
-0.0035866205
-0.0081570939
-0.012607599
-0.016882807
-0.021021834
-0.025066868
-0.029047852
-0.032896008
-0.036607208
-0.040115973
-0.043482304
-0.046423247
-0.0495515
-0.051364857
-0.056417231
-0.017421023
0.022219692
0.018622593
0.016549548
0.015623508
0.014503341
0.013472418
0.012455728
0.011456598
0.010465199
0.0095686668
0.0087857096
0.0081069514
0.007534709
0.0070633897
0.0066896858
0.0064053451
0.0062040076
0.0060790259
0.0060230879
0.0060287316
0.0060886646
0.0061976842
0.0063473581
0.0065111156
0.0066835235
0.0068585042
0.0070287298
0.0071879407
0.0073306468
0.0074521585
0.0075479896
0.0076136148
0.0076440549
0.007634139
0.0075777636
0.0074752872
0.0073364027
0.0071620841
0.006954509
0.0067171315
0.0064532943
0.0061666857
0.088113336
0.083526182
0.078746215
0.073788245
0.068671628
0.06342021
0.058062079
0.05263003
0.047160464
0.041693295
0.036271685
0.030916471
0.025662438
0.020540938
0.015571928
0.010766073
0.0061407365
0.0016716973
-0.0027748629
-0.0072205117
-0.011527627
-0.015671057
-0.019688841
-0.023620606
-0.027494437
-0.031245733
-0.034867393
-0.038303509
-0.041597422
-0.044511815
-0.047560812
-0.049481929
-0.054323954
-0.015548436
0.023906959
0.020517182
0.01825207
0.017297673
0.016118138
0.015027348
0.013952077
0.012894137
0.011845375
0.010888263
0.010041581
0.0092965974
0.0086557293
0.0081139683
0.007668453
0.007311673
0.0070378555
0.0068409972
0.0067144366
0.0066513631
0.0066450917
0.0066909897
0.0067811051
0.00689
0.007012299
0.0071421815
0.0072725097
0.0073970999
0.0075104478
0.0076077987
0.0076847251
0.007737048
0.0077603877
0.0077499889
0.0076996115
0.0076084349
0.0074838724
0.0073254519
0.0071344723
0.0069138695
0.0066668343
0.0063970007
0.086092061
0.081572294
0.076877635
0.072023452
0.067029258
0.061918566
0.056718545
0.051460349
0.046177967
0.040908127
0.035689781
0.030540326
0.025489782
0.020565467
0.015783523
0.011153255
0.0066904875
0.0023490833
-0.0019794653
-0.0062939362
-0.010459907
-0.014475197
-0.018374645
-0.022195652
-0.025964353
-0.029620032
-0.03315336
-0.036516345
-0.039738805
-0.042622662
-0.045595175
-0.047614668
-0.052249284
-0.013690198
0.025585245
0.022400955
0.019956013
0.018972832
0.017740829
0.016594344
0.01546523
0.014353113
0.013251517
0.012238305
0.01133221
0.010525152
0.0098196178
0.0092111403
0.0086972645
0.0082711733
0.0079276394
0.0076612533
0.0074659604
0.007335552
0.0072639103
0.0072469161
0.0072770828
0.0073301142
0.0074006812
0.0074832114
0.0075707872
0.0076573627
0.0077375089
0.0078064762
0.0078598502
0.0078936124
0.0079038412
0.007886405
0.0078355724
0.0077501909
0.0076359304
0.007490842
0.0073149929
0.007110459
0.0068799318
0.0066266947
0.084089704
0.079646589
0.075045816
0.070303026
0.065437594
0.060472399
0.055433417
0.050349928
0.045253359
0.040177233
0.03515648
0.03020541
0.02534995
0.020613934
0.016010174
0.011549202
0.0072428645
0.0030158546
-0.0011995419
-0.0053781799
-0.009405511
-0.013296145
-0.017080168
-0.020792878
-0.02445843
-0.02801978
-0.03146595
-0.034755518
-0.037907398
-0.040757155
-0.04365577
-0.045764609
-0.050194983
-0.011848118
0.027252761
0.024271827
0.021659006
0.020646935
0.019368994
0.018171107
0.016992806
0.015831149
0.014681248
0.013616441
0.012655297
0.011790394
0.011024255
0.010352915
0.0097742872
0.0092822017
0.0088719378
0.0085386344
0.0082768054
0.0080808039
0.0079450479
0.0078658867
0.0078362887
0.0078331122
0.0078510667
0.0078848067
0.0079276411
0.0079736872
0.0080176415
0.0080548221
0.0080808582
0.0080918157
0.0080840323
0.0080538684
0.0079962843
0.0079104043
0.0078010825
0.0076654166
0.0075021789
0.007312289
0.0070975914
0.0068607237
0.082111439
0.077753514
0.073254307
0.068629472
0.063897975
0.059081811
0.054205543
0.049296422
0.044383271
0.039496481
0.034667232
0.029907177
0.025238839
0.020682934
0.016249843
0.01195338
0.0077963534
0.0036786469
-0.00043115277
-0.0044718143
-0.0083649311
-0.012134735
-0.015806281
-0.019413123
-0.022977486
-0.026445838
-0.029806015
-0.033022061
-0.036104166
-0.038916656
-0.041743783
-0.043933297
-0.04816281
-0.010024015
0.028907696
0.026127711
0.023358637
0.022317869
0.021000156
0.019755235
0.01853231
0.017325725
0.016132027
0.015020133
0.014008338
0.013089873
0.012267275
0.011537036
0.010897403
0.010342808
0.009869001
0.0094716277
0.0091457341
0.0088862013
0.0086879565
0.0085477812
0.0084590933
0.0083999235
0.0083650204
0.0083492466
0.0083461317
0.0083499616
0.0083555776
0.0083584053
0.0083541567
0.0083389744
0.0083093403
0.0082619147
0.0081922324
0.0080998928
0.0079896175
0.0078582556
0.007703742
0.0075258477
0.0073253549
0.0071041135
0.080161944
0.075896912
0.071505979
0.067004574
0.062411029
0.057746251
0.053033239
0.048297144
0.04356422
0.038861892
0.034217916
0.029641757
0.025153148
0.020769927
0.016501284
0.012362946
0.0083405947
0.0043331507
0.00032962612
-0.003574669
-0.0073393159
-0.010991935
-0.01455386
-0.018057207
-0.021522323
-0.024899053
-0.02817441
-0.031316994
-0.034330085
-0.037102515
-0.039860402
-0.042122289
-0.046154519
-0.0082197034
0.030548224
0.027966527
0.025052464
0.023983465
0.02263179
0.021344234
0.020081148
0.018834194
0.017601164
0.016446671
0.015388632
0.014420925
0.013546072
0.012760987
0.012064212
0.01145074
0.010916756
0.010458372
0.010071132
0.0097504151
0.0094916331
0.0092919686
0.0091452864
0.0090308116
0.0089433424
0.0088779369
0.0088283418
0.0087890064
0.0087549203
0.0087216316
0.0086849583
0.0086411316
0.0085867406
0.0085186249
0.0084327118
0.0083290061
0.0082123021
0.0080796906
0.0079289431
0.0077591108
0.0075700343
0.007362704
0.11176496
0.10915961
0.10638233
0.10343341
0.10031411
0.097026533
0.093573295
0.08995772
0.086192433
0.082286271
0.078245398
0.074080056
0.069803095
0.065429517
0.060976836
0.056464729
0.051914542
0.047349327
0.042792873
0.038269855
0.033804949
0.029405891
0.025089973
0.020872296
0.016762746
0.012774799
0.0088667211
0.0049669615
0.0010802493
-0.0026893498
-0.0063301103
-0.0098686412
-0.013323716
-0.016725899
-0.020093716
-0.023380249
-0.026571977
-0.029641315
-0.032586131
-0.035316065
-0.038006812
-0.040333141
-0.044171847
-0.0064369967
0.032172516
0.029786214
0.026738027
0.025641513
0.024261335
0.022935538
0.021636643
0.020353802
0.019085838
0.017893187
0.016793301
0.015780681
0.014857818
0.014022005
0.013272045
0.012603452
0.01201281
0.011496661
0.011051015
0.010671715
0.010354636
0.010097334
0.009894117
0.0097254279
0.0095861352
0.0094714861
0.0093754478
0.0092926287
0.0092181638
0.0091477241
0.0090772425
0.0090030529
0.0089218458
0.0088305799
0.0087254378
0.008606662
0.008479085
0.0083402138
0.0081880388
0.0080215049
0.0078399973
0.0076437219
0.10952342
0.10690501
0.10412363
0.10118042
0.098077472
0.09481764
0.091404276
0.087841419
0.08414172
0.080314262
0.076365532
0.072305741
0.068147448
0.063905066
0.059595151
0.055236061
0.050847461
0.046450361
0.042066236
0.037717238
0.033425321
0.029196889
0.025046846
0.020988174
0.017033896
0.01318917
0.0093807907
0.0055778671
0.0018193617
-0.0018169648
-0.0053379236
-0.0087654949
-0.012116541
-0.015419907
-0.018692397
-0.021890215
-0.02499954
-0.027995995
-0.030873273
-0.033558609
-0.036184185
-0.038567401
-0.042216499
-0.0046776959
0.033778751
0.031584746
0.028412866
0.027289778
0.025886217
0.024526528
0.023196052
0.0218817
0.020583112
0.019356676
0.018219299
0.017166084
0.016199468
0.015317087
0.014517972
0.013798113
0.013154462
0.012583957
0.012083035
0.011647978
0.011275098
0.010962297
0.010704324
0.010482857
0.010292863
0.01012978
0.0099878036
0.0098617061
0.0097467634
0.0096387667
0.0095337628
0.0094281901
0.0093188415
0.0092027714
0.0090763443
0.0089399024
0.0087982119
0.008649165
0.0084910791
0.0083231394
0.0081447349
0.0079556938
0.10724099
0.104618
0.10184123
0.098912612
0.095834913
0.092611638
0.089246717
0.085744745
0.082118234
0.078376348
0.07452574
0.070576432
0.066540546
0.062431773
0.058265624
0.054059092
0.049830185
0.045597966
0.041381766
0.037201452
0.03307663
0.02901262
0.025021958
0.021117363
0.017313555
0.013593715
0.0098837582
0.0061770187
0.0025511908
-0.00095759898
-0.0043632932
-0.0076831432
-0.010932994
-0.014139892
-0.017319052
-0.020429695
-0.023457889
-0.026381964
-0.029192454
-0.031831413
-0.034393674
-0.036826597
-0.040290148
-0.0029435754
0.035365147
0.033360142
0.030074533
0.028926019
0.027503859
0.02611455
0.024756587
0.023414974
0.022089957
0.020834015
0.019663439
0.018573909
0.017567786
0.016643011
0.015798813
0.015031618
0.014338712
0.013717391
0.013164491
0.012676698
0.012250739
0.011884831
0.01157416
0.011301651
0.011062399
0.010852045
0.010665022
0.010496277
0.010341231
0.010195791
0.010056116
0.0099187419
0.009780561
0.0096387156
0.0094897133
0.0093339138
0.0091759246
0.0090139293
0.0088465528
0.0086732689
0.0084936765
0.0083076466
0.10492525
0.1023062
0.09954274
0.096637414
0.093593589
0.090415276
0.08710685
0.0836733
0.080126854
0.076476606
0.072729232
0.06889444
0.06498379
0.061010165
0.056987977
0.052932852
0.048861198
0.044790248
0.04073737
0.036720399
0.032756939
0.028851224
0.025013863
0.021259637
0.017597893
0.013979741
0.010363915
0.0067686925
0.003274295
-0.00011297883
-0.0034070613
-0.0066222674
-0.0097736859
-0.012886452
-0.015974314
-0.018999382
-0.021947767
-0.024800098
-0.027544583
-0.030135692
-0.032636405
-0.03511223
-0.038394418
-0.0012363741
0.036930007
0.035110486
0.031720603
0.03054801
0.029111707
0.027696945
0.026315437
0.024950664
0.023603277
0.022321987
0.021122414
0.020000778
0.018959352
0.017996347
0.017111155
0.016300599
0.015562268
0.014893781
0.014292336
0.013754997
0.013278874
0.012862475
0.01250141
0.012179858
0.011893072
0.011636905
0.011406047
0.011195634
0.011001238
0.010818889
0.010644853
0.010475761
0.010308595
0.010140575
0.0099683375
0.0097922144
0.0096165983
0.0094398827
0.0092609041
0.0090793542
0.0088950612
0.0087080746
0.10258444
0.099977803
0.097236153
0.094362565
0.091360865
0.088235443
0.084990983
0.081632718
0.07817246
0.074619101
0.070979218
0.067262098
0.063478653
0.059640898
0.055762127
0.051856631
0.047939298
0.044025661
0.040131307
0.036272306
0.032464467
0.028710905
0.025021962
0.021413379
0.017875083
0.014348335
0.010821851
0.0073528596
0.0039870516
0.00071632827
-0.0024695791
-0.0055833149
-0.0086390875
-0.011660098
-0.014658739
-0.017599897
-0.020469854
-0.023251199
-0.025930507
-0.028472586
-0.030913468
-0.033425762
-0.036530894
0.00044223974
0.038471804
0.036833937
0.033348664
0.032153579
0.030707255
0.029271072
0.027869801
0.026485795
0.025119937
0.023817311
0.022592821
0.021443194
0.0203706
0.019373483
0.018451372
0.017601447
0.016821566
0.016109636
0.015463186
0.014879626
0.014356417
0.013892331
0.01348339
0.013115021
0.012782667
0.012482399
0.012209186
0.011958368
0.011725683
0.01150729
0.011299567
0.011099237
0.010903363
0.010709235
0.01051361
0.010316766
0.010122845
0.0099304005
0.0097384077
0.0095466881
0.009355227
0.0091642245
0.0089736863
0.0087852435
0.0086001297
0.0084194596
0.0082473356
0.0080869229
0.0079337795
0.0077901752
0.0076593686
0.0075444784
0.0074492902
0.10022742
0.097641534
0.094929975
0.092096241
0.08914449
0.086079365
0.082905724
0.0796289
0.076260175
0.072808129
0.069279136
0.06568198
0.062026867
0.058324916
0.054588317
0.050830075
0.047063657
0.043303032
0.039562212
0.035855739
0.032197642
0.028590669
0.025047089
0.021574748
0.018134102
0.014692121
0.011270537
0.0079322963
0.0046889476
0.0015301391
-0.001551155
-0.0045666656
-0.0075295915
-0.010461256
-0.013372808
-0.016231788
-0.019024755
-0.021735985
-0.024350994
-0.02684314
-0.029225903
-0.031768629
-0.034701134
0.00209076
0.039989253
0.038528767
0.034956261
0.033740666
0.032288073
0.030834346
0.029416911
0.028017405
0.026636787
0.02531666
0.024071178
0.022897542
0.021797808
0.020770625
0.019815625
0.018930309
0.018112771
0.017361172
0.016673337
0.016046986
0.015479908
0.014971104
0.014516993
0.014104237
0.013728494
0.013386065
0.013072209
0.012782491
0.012512832
0.012259531
0.012019084
0.011788313
0.011564354
0.011344564
0.011125808
0.010908291
0.01069588
0.010487268
0.01028153
0.010078566
0.0098784704
0.0096815715
0.0094880879
0.0092997543
0.0091178352
0.0089433307
0.0087799391
0.0086304185
0.0084905348
0.008362303
0.0082486237
0.0081522781
0.0080766787
0.0080248421
0.09786374
0.095306693
0.092633183
0.089846997
0.086952497
0.083954445
0.080857747
0.077667706
0.074394983
0.071047753
0.067632108
0.064156277
0.060629729
0.057062687
0.053466275
0.049852291
0.046232889
0.042620639
0.039028211
0.035468712
0.031954727
0.028490841
0.025087517
0.021727831
0.018369093
0.01501533
0.011717526
0.0085063319
0.0053789581
0.0023279743
-0.00065227287
-0.0035727719
-0.0064456297
-0.0092903664
-0.012116977
-0.014895542
-0.017612992
-0.020255057
-0.022806687
-0.025248263
-0.027574656
-0.03014238
-0.032906686
0.0037083233
0.041482633
0.040192313
0.036540935
0.03530752
0.033851821
0.032384267
0.030954085
0.029542602
0.028150736
0.026816748
0.025554019
0.024360194
0.023237207
0.022183885
0.021199937
0.020283147
0.019431815
0.018644321
0.017918748
0.017253096
0.016645445
0.016094999
0.015598558
0.015143998
0.014727213
0.01434474
0.01399214
0.01366522
0.013360099
0.013073232
0.012801246
0.012541064
0.012289904
0.012045179
0.01180386
0.011566053
0.011335331
0.011110521
0.010890777
0.010676048
0.010466507
0.010262572
0.010064528
0.0098741302
0.0096927394
0.009521429
0.0093636398
0.0092218447
0.0090920934
0.0089761902
0.0088767038
0.0087960824
0.0087373346
0.0087031907
0.0086965779
0.095505111
0.092984597
0.090356571
0.087624979
0.084794261
0.081869177
0.07885457
0.075755601
0.072582251
0.069342221
0.066041268
0.062687039
0.059288269
0.055854314
0.052395289
0.048921884
0.045445067
0.041976216
0.038526801
0.035108542
0.031734021
0.028408961
0.025126969
0.021853419
0.018576682
0.015333316
0.012163831
0.0090729068
0.0060564357
0.0031093878
0.00022659121
-0.0026020846
-0.0053876528
-0.0081479013
-0.010891743
-0.013591681
-0.016235089
-0.018808949
-0.021298091
-0.023688668
-0.025960562
-0.028548287
-0.031150378
0.0052954282
0.042966727
0.041812207
0.038100628
0.036853677
0.035396229
0.033918454
0.032478767
0.031058576
0.029658721
0.028314277
0.02703784
0.025827471
0.024684984
0.023609347
0.022600327
0.021655947
0.020774683
0.019955095
0.019195492
0.018494112
0.017849292
0.017260406
0.016724622
0.016231003
0.015775699
0.015355484
0.014966229
0.014603997
0.01426512
0.013946226
0.013644088
0.013355738
0.013078484
0.012809798
0.012546751
0.012289332
0.012040787
0.011800064
0.01156639
0.01133974
0.011120324
0.010908596
0.01070487
0.010510897
0.010328065
0.010157526
0.010002616
0.0098656499
0.009742948
0.0096361821
0.0095476691
0.00947959
0.0094346053
0.0094150555
0.0094235744
0.0094629745
0.093185311
0.090708771
0.088133156
0.085462461
0.082701103
0.079853755
0.076925124
0.073920181
0.07084822
0.067716445
0.064530241
0.061296674
0.058023767
0.054720053
0.051394708
0.048057417
0.044718128
0.041387204
0.038074898
0.034792261
0.03155295
0.028352628
0.025160668
0.021960608
0.018783866
0.015667611
0.012621141
0.0096432077
0.0067321951
0.003883996
0.0010938161
-0.0016475523
-0.0043500605
-0.0070297775
-0.0096944768
-0.01231877
-0.014890532
-0.0173977
-0.019825529
-0.02216463
-0.024385282
-0.026980365
-0.029448509
0.0068274671
0.044464702
0.043332958
0.039609163
0.038357111
0.036895415
0.035410926
0.033964699
0.032538418
0.031132904
0.0297804
0.028492786
0.027268552
0.026109456
0.025014576
0.023983729
0.023015137
0.022107421
0.021259293
0.020469247
0.01973573
0.01905729
0.018433446
0.01786172
0.017332243
0.016841444
0.016386313
0.015963024
0.015567902
0.015197501
0.014848631
0.01451822
0.014203428
0.013901654
0.013610445
0.013326963
0.013051074
0.012785712
0.012529924
0.012283013
0.012044965
0.011816
0.011596577
0.011387012
0.011189005
0.011003936
0.01083299
0.010679433
0.010545481
0.010427695
0.010327674
0.010247525
0.010189206
0.010155101
0.010147235
0.01016788
0.010219577
0.090969674
0.088543306
0.086025419
0.083419991
0.080731358
0.077964067
0.075122666
0.072211915
0.069240485
0.066215095
0.063140764
0.060024005
0.056872175
0.053693044
0.05049496
0.04728675
0.044077523
0.040876809
0.037694025
0.034540743
0.031422969
0.028310662
0.025186121
0.022078907
0.019023335
0.016027847
0.013092976
0.010219273
0.0074059096
0.0046491002
0.0019445049
-0.00071621533
-0.0033419828
-0.0059472106
-0.0085385885
-0.011092396
-0.013597076
-0.016041087
-0.018410898
-0.020698826
-0.022876225
-0.025438958
-0.027871688
0.0082615335
0.04593302
0.044711444
0.041021733
0.039772832
0.038303534
0.036815052
0.035364534
0.033934001
0.032524414
0.031165577
0.0298687
0.028632674
0.027459273
0.026347683
0.02529779
0.024307988
0.023377035
0.022503778
0.021686878
0.020924961
0.020216759
0.019561898
0.018958204
0.018396695
0.017874071
0.017387521
0.0169335
0.016508585
0.016109547
0.015733376
0.015377161
0.015038191
0.014713969
0.014402128
0.014099932
0.013807157
0.013526478
0.013257021
0.012998159
0.012749901
0.01251247
0.012286317
0.012071749
0.011870398
0.011683608
0.011512531
0.011360338
0.011229174
0.011115799
0.011021701
0.010948773
0.010898787
0.010873901
0.010875892
0.010906737
0.010968649
0.08890073
0.086527076
0.084068521
0.081528984
0.078912698
0.076224056
0.073467425
0.07064733
0.067771865
0.064847287
0.061878267
0.058870823
0.055831721
0.052768086
0.049687624
0.046598414
0.043508907
0.040429075
0.037366849
0.034326021
0.031289346
0.0282411
0.025205441
0.022213238
0.019272324
0.016383771
0.013549483
0.01077043
0.0080457938
0.0053721264
0.0027455657
0.000158553
-0.0023968871
-0.0049337076
-0.0074577847
-0.0099468581
-0.01239004
-0.014776024
-0.017093059
-0.01933201
-0.021475083
-0.023967601
-0.026462622
0.009584067
0.04730988
0.045964787
0.042324267
0.041082338
0.039605045
0.038114653
0.036661815
0.035229039
0.033817545
0.032454896
0.031151578
0.029906771
0.02872226
0.027597326
0.026531928
0.025524613
0.024574268
0.023679861
0.022840198
0.022054064
0.021320339
0.020638725
0.020007289
0.019417823
0.018867283
0.018353055
0.017871854
0.017420496
0.016995957
0.016595409
0.016216097
0.015855445
0.015511062
0.015180678
0.014861678
0.014553777
0.014259422
0.013977791
0.013708316
0.013451009
0.013206093
0.012974002
0.012755028
0.012550755
0.012362488
0.012191327
0.012040306
0.011911509
0.011801866
0.011712715
0.011645762
0.011602626
0.011585273
0.011595278
0.011634396
0.011704595
0.086978676
0.084657681
0.082257636
0.079782359
0.07723595
0.074622622
0.071946538
0.069211966
0.066426437
0.063595764
0.060724311
0.057817657
0.054882105
0.051924323
0.048951512
0.045970976
0.042991946
0.040023178
0.037061273
0.034093416
0.031121546
0.028162083
0.025235812
0.022351482
0.019511537
0.016718661
0.013974995
0.011281314
0.0086368854
0.0060386213
0.003483085
0.00096340658
-0.001527569
-0.0040015443
-0.0064637902
-0.0088934697
-0.011280411
-0.013613448
-0.015882769
-0.018076073
-0.020190216
-0.022603785
-0.025188222
0.010804042
0.048589768
0.0471148
0.04352731
0.042294279
0.040810028
0.039319594
0.037866323
0.036433383
0.035022276
0.033658444
0.032351628
0.031101206
0.029908931
0.028774156
0.027696889
0.026675814
0.025709922
0.024798286
0.02393983
0.023133469
0.022378204
0.021673786
0.021018488
0.020404812
0.019829957
0.019291497
0.018786393
0.018311686
0.017864552
0.017442337
0.017042445
0.016662434
0.016300028
0.015953061
0.015619043
0.015297635
0.014991069
0.014698574
0.014419613
0.014154185
0.013902491
0.013664951
0.01344184
0.013234676
0.013044708
0.012873009
0.012722487
0.01259514
0.012488068
0.012402527
0.01234006
0.012302122
0.012290509
0.012306619
0.012352025
0.012428495
0.085193236
0.082924121
0.080581143
0.07816798
0.07568856
0.073146898
0.070546944
0.067892711
0.065191182
0.062447758
0.059666595
0.056852965
0.054012767
0.051152134
0.048279489
0.045400536
0.04252304
0.039638932
0.036742781
0.033844289
0.030963677
0.028107256
0.025281553
0.02249205
0.019742541
0.017035889
0.014373924
0.011757345
0.009185543
0.0066557414
0.0041648735
0.0017066775
-0.00072529415
-0.0031416539
-0.0055471874
-0.0079224151
-0.010257882
-0.012542446
-0.014768376
-0.016919195
-0.019008515
-0.021342618
-0.024021514
0.01193085
0.049780668
0.04817241
0.044640751
0.043417496
0.041927453
0.040438508
0.03898629
0.037554781
0.03614575
0.034782653
0.033474521
0.032220878
0.031023417
0.029881546
0.028795304
0.027763486
0.026785176
0.025859528
0.024985569
0.024162319
0.023388879
0.022665026
0.021989215
0.021354588
0.02075857
0.020198912
0.019672804
0.019177497
0.018710361
0.018268906
0.017850691
0.01745341
0.017074905
0.016713116
0.016365682
0.016032226
0.01571477
0.015412589
0.015125178
0.014852524
0.014594808
0.014352425
0.014125633
0.013915864
0.013724285
0.013551911
0.013401521
0.01327504
0.013169762
0.013086881
0.0130278
0.012993831
0.012986603
0.013007358
0.013057503
0.013138623
0.083535896
0.081317265
0.079029333
0.076675625
0.074259899
0.071785952
0.069257499
0.066678342
0.064054991
0.061392515
0.058694835
0.05596702
0.053215941
0.050446042
0.047667895
0.044879289
0.042072653
0.03925233
0.036431012
0.033625499
0.030839883
0.028075478
0.025338163
0.022633747
0.019965875
0.017337057
0.014748937
0.012202187
0.0096962965
0.0072287671
0.0047968574
0.0023948467
1.6903929e-05
-0.0023466172
-0.0047000969
-0.0070253213
-0.0093135615
-0.011553546
-0.013739862
-0.015850856
-0.017919208
-0.02017324
-0.022950247
0.012973316
0.050890815
0.049146336
0.045673254
0.044460007
0.04296522
0.041479019
0.040029018
0.03860017
0.037194476
0.035833541
0.034525735
0.033270702
0.032070062
0.030923263
0.02983036
0.028790246
0.027802076
0.026865076
0.025978355
0.025141022
0.024352257
0.023611857
0.022918425
0.022265689
0.021651279
0.021073108
0.020528579
0.020015142
0.019530343
0.019071853
0.018637379
0.018224746
0.017831913
0.017456924
0.01709755
0.016753379
0.01642624
0.016115443
0.015820514
0.015541435
0.015278368
0.015031681
0.014801606
0.014589493
0.014396434
0.014223368
0.014072918
0.013946923
0.013842868
0.013761889
0.013705264
0.013674195
0.01367017
0.013694293
0.013747821
0.013832176
0.081996742
0.079826851
0.077591631
0.075294441
0.072938921
0.070528673
0.068067184
0.065558096
0.063007324
0.060420214
0.057801085
0.055153906
0.052488828
0.049806134
0.047098899
0.044373821
0.041635121
0.038896911
0.036165777
0.033446406
0.03074392
0.028061136
0.025403463
0.022775991
0.020181928
0.017623539
0.015102338
0.012618969
0.010173011
0.0077622149
0.005384127
0.0030335129
0.00070508405
-0.0016099366
-0.0039155832
-0.0061948062
-0.0084396234
-0.010638456
-0.012788535
-0.014861957
-0.016912993
-0.019086096
-0.02196483
0.013939335
0.051927591
0.050044288
0.046632389
0.04542897
0.043930352
0.042447906
0.041001023
0.039575782
0.038174366
0.036816659
0.035510422
0.034255405
0.033053148
0.031903133
0.030805422
0.029758989
0.02876305
0.027816888
0.026919683
0.026070615
0.025268933
0.024514439
0.02380587
0.023137479
0.022507082
0.021912746
0.021352065
0.020822676
0.02032229
0.019848729
0.019399839
0.018973574
0.018568001
0.018181271
0.017811277
0.017457584
0.01712184
0.016803384
0.01650177
0.016216969
0.015949126
0.015698578
0.015465534
0.015251264
0.015056793
0.014882997
0.014732335
0.014606546
0.014503289
0.014423635
0.014368748
0.014339728
0.014337948
0.014364397
0.014420198
0.014506629
0.080565335
0.078442222
0.076257268
0.074013651
0.071714952
0.06936447
0.066965713
0.064523061
0.062041118
0.059525788
0.056984557
0.054417289
0.051820437
0.049201095
0.046558534
0.043905347
0.041250669
0.038594045
0.035940827
0.033297297
0.030669972
0.02806129
0.025475815
0.022918048
0.020390887
0.0178964
0.015435989
0.013010275
0.010618919
0.0082598974
0.0059310153
0.0036274785
0.0013444804
-0.00092596391
-0.0031875898
-0.0054244082
-0.0076292175
-0.0097899361
-0.011906829
-0.013944598
-0.015981791
-0.01807304
-0.021056893
0.014835912
0.052897611
0.050873091
0.047524837
0.046330769
0.044829104
0.043351219
0.04190814
0.040487225
0.039090782
0.037737089
0.036433355
0.035179424
0.03397676
0.032824875
0.031723831
0.030672672
0.029670664
0.028717139
0.027811335
0.026952494
0.026139919
0.025373415
0.024651829
0.023969895
0.023325597
0.022717136
0.022142289
0.021598859
0.021084714
0.020597815
0.020136142
0.019697768
0.019280867
0.018883691
0.018504252
0.018142096
0.017798701
0.017473438
0.017165879
0.016875985
0.016603878
0.01634987
0.016114143
0.015897888
0.015702064
0.015527486
0.01537646
0.015250627
0.01514781
0.015069011
0.015015284
0.014987636
0.014987328
0.015015246
0.015072403
0.01515995
0.079232367
0.077154012
0.075016714
0.072823844
0.070579584
0.068286518
0.065947772
0.063570497
0.061159347
0.058713863
0.056235867
0.0537304
0.051195768
0.048642189
0.046077707
0.043500648
0.040916977
0.038330546
0.035747354
0.033173513
0.030614927
0.028073644
0.025553742
0.023059295
0.02059294
0.018156576
0.015751511
0.013378351
0.011036833
0.0087251409
0.0064413114
0.0041809541
0.0019396955
-0.00028972025
-0.0025107709
-0.0047084246
-0.0068763092
-0.0090016219
-0.011088122
-0.013091867
-0.015118552
-0.017126985
-0.020219108
0.015669257
0.053806763
0.051638804
0.048356521
0.047171092
0.045667062
0.044194368
0.042755606
0.041339555
0.039948587
0.038599481
0.037298942
0.036046908
0.034844768
0.033692064
0.032588856
0.031534248
0.030527551
0.029568135
0.02865529
0.027788309
0.026966541
0.026189788
0.025456994
0.024763329
0.024106926
0.023486113
0.022898828
0.022343031
0.021816732
0.021318024
0.02084501
0.020395877
0.0199689
0.019562426
0.019174583
0.018804902
0.018454705
0.018123388
0.01781054
0.01751611
0.017240198
0.016983086
0.016744933
0.016526853
0.016329737
0.016154343
0.016002827
0.015876737
0.015774047
0.015695698
0.015642643
0.015615802
0.01561633
0.015645021
0.015702784
0.015790657
0.077990148
0.075955722
0.073864617
0.071720497
0.069530341
0.067297392
0.065020893
0.06270262
0.060349434
0.057963745
0.055545057
0.053101233