/*--------------------------------*- C++ -*----------------------------------*\
| =========                 |                                                 |
| \\      /  F ield         | OpenFOAM: The Open Source CFD Toolbox           |
|  \\    /   O peration     | Version:  2.4.0                                 |
|   \\  /    A nd           | Web:      www.OpenFOAM.org                      |
|    \\/     M anipulation  |                                                 |
\*---------------------------------------------------------------------------*/
FoamFile
{
    version     2.0;
    format      ascii;
    class       volVectorField;
    location    "350";
    object      U;
}
// * * * * * * * * * * * * * * * * * * * * * * * * * * * * * * * * * * * * * //

dimensions      [0 1 -1 0 0 0 0];

internalField   nonuniform List<vector> 
19477
(
(0.97503413 0.048558772 -2.746753e-22)
(0.96635082 0.045157539 -1.2094239e-22)
(0.9704917 0.041532088 -8.5837579e-24)
(0.97012278 0.038327494 -2.2616438e-22)
(0.96939001 0.035136038 -4.104307e-22)
(0.96814504 0.032109764 -8.8153397e-22)
(0.96624415 0.029199069 1.0686538e-21)
(0.96360763 0.026414997 -1.8036577e-22)
(0.96016946 0.023751893 1.554463e-21)
(0.95587214 0.021212228 7.4758091e-22)
(0.95076001 0.018803287 4.4802284e-22)
(0.9449621 0.016532519 -1.6280484e-21)
(0.938591 0.014406717 -1.6675318e-22)
(0.9317415 0.012433225 7.0057023e-23)
(0.92449304 0.010617049 -2.2766749e-21)
(0.91691504 0.0089617812 -2.3357481e-22)
(0.90906654 0.0074682851 -7.6645625e-23)
(0.90099572 0.0061340874 -4.6128486e-22)
(0.89274248 0.0049528222 -7.6112891e-22)
(0.88433748 0.0039141784 -6.5761547e-22)
(0.87580062 0.0030041297 -1.6734139e-22)
(0.86714046 0.0022058154 -1.7517123e-21)
(0.85835517 0.0015003133 -2.2796714e-21)
(0.8494351 0.00086821671 3.6894209e-21)
(0.84033762 0.00029039892 -1.0278423e-21)
(0.83099216 -0.00025004393 -1.0215892e-21)
(0.82132091 -0.00076781036 3.3203558e-21)
(0.81123831 -0.0012749676 -1.8079061e-21)
(0.80065145 -0.0017807907 -4.3382078e-21)
(0.78946235 -0.0022915699 2.9858622e-21)
(0.77757159 -0.0028101358 -5.1601786e-21)
(0.76488273 -0.0033354527 -9.323983e-21)
(0.75130681 -0.0038624146 2.4770025e-21)
(0.73676502 -0.0043820293 -9.7101323e-21)
(0.72119073 -0.0048819553 -3.9183015e-21)
(0.70452769 -0.0053466054 2.6050381e-21)
(0.64655728 0.1022143 -3.7033756e-20)
(0.66019233 0.10545407 -2.3672984e-21)
(0.67404814 0.10845592 -6.901521e-20)
(0.6881147 0.11117925 -5.1673378e-20)
(0.70237455 0.11358309 4.0438739e-20)
(0.71680246 0.11562732 -4.4512653e-20)
(0.73136453 0.11727421 -4.8777325e-20)
(0.74601776 0.11848996 1.2268166e-20)
(0.76071067 0.11924676 -3.8256733e-20)
(0.775383 0.11952559 2.4551934e-20)
(0.78997329 0.11932064 1.7678397e-20)
(0.80439802 0.11864371 -9.0102918e-21)
(0.81855438 0.11752193 5.6933358e-21)
(0.83235121 0.1159928 -4.2257947e-21)
(0.84571271 0.11410202 6.6546423e-21)
(0.85857724 0.11190002 5.6234528e-21)
(0.87089775 0.10943191 2.1284904e-21)
(0.88265782 0.10672068 -1.9875999e-23)
(0.89381568 0.10374874 -2.0666945e-22)
(0.90434555 0.10056412 4.4277113e-21)
(0.91423869 0.097198004 1.0723442e-20)
(0.92340049 0.093706701 -1.2261733e-20)
(0.93177787 0.090130702 9.8311099e-21)
(0.93930019 0.086497511 -1.1865249e-20)
(0.94586124 0.08282361 -2.3302814e-20)
(0.95144673 0.079118718 -5.9501408e-21)
(0.95608545 0.075368142 -5.6871452e-21)
(0.95990033 0.071589117 -1.2277319e-21)
(0.96282987 0.067740735 4.7881697e-21)
(0.96532301 0.063911234 -9.1715296e-22)
(0.96663292 0.059959096 -3.8001165e-22)
(0.96893089 0.05620119 -2.0425733e-22)
(0.96472106 0.052198176 -3.6252494e-22)
(0.98112809 0.048263751 2.363553e-22)
(0.97246502 0.044996255 9.1310354e-24)
(0.97660885 0.041515759 5.3806978e-23)
(0.97643074 0.038414936 2.0140157e-22)
(0.97576093 0.035335414 7.8049153e-22)
(0.97464684 0.032398949 4.6767463e-22)
(0.97288422 0.029572313 4.4909214e-22)
(0.97041248 0.026860532 -7.5986971e-22)
(0.9671621 0.024260774 -5.1343285e-21)
(0.96307829 0.021774539 -2.6304785e-21)
(0.95820254 0.019408608 -6.2852375e-22)
(0.95265775 0.017169536 1.6246151e-21)
(0.94655164 0.015063478 5.7648601e-22)
(0.93997479 0.01309743 1.9231367e-21)
(0.93300328 0.011276525 -8.033447e-23)
(0.9257041 0.0096049767 -5.5630822e-22)
(0.91813502 0.0080848856 -1.1406848e-21)
(0.91034446 0.0067156501 3.6815243e-23)
(0.90237424 0.0054934097 -1.4880946e-22)
(0.89425897 0.0044108708 1.355575e-22)
(0.8860249 0.0034573478 1.8770469e-21)
(0.87768922 0.0026193013 -1.6840072e-21)
(0.86926102 0.0018808265 1.9734681e-21)
(0.86074283 0.0012248078 -2.5318713e-21)
(0.85210633 0.0006336658 8.3564282e-22)
(0.84329694 9.1182819e-05 -6.6237361e-22)
(0.834253 -0.00041743663 -4.2845283e-21)
(0.82490522 -0.00090505352 -8.7859598e-22)
(0.81517659 -0.0013823668 -1.259349e-21)
(0.80498394 -0.0018578223 8.9163679e-23)
(0.79423993 -0.0023373577 -1.6854736e-21)
(0.78285568 -0.0028240593 3.7706198e-21)
(0.77074484 -0.0033176973 -1.7843441e-21)
(0.75782693 -0.0038144846 7.6285804e-21)
(0.74403004 -0.0043071849 2.5497156e-21)
(0.72928899 -0.0047852344 3.9798331e-21)
(0.71355219 -0.0052340791 -1.0219391e-22)
(0.69680996 -0.0056358927 -4.9627072e-21)
(0.67909211 -0.0059731291 3.1210489e-21)
(0.66045729 -0.0062290681 4.2390416e-21)
(0.6409953 -0.0063894358 8.8752479e-21)
(0.62082869 -0.0064440122 -1.439208e-21)
(0.60011353 -0.0063867484 3.7515171e-21)
(0.66460974 0.10071287 3.9635419e-20)
(0.67789403 0.10373321 4.7632681e-20)
(0.69137005 0.10651302 1.5588905e-20)
(0.70502624 0.10901507 7.21497e-20)
(0.71884396 0.11120229 -5.1554544e-20)
(0.73279745 0.11303897 4.8377953e-20)
(0.74685301 0.11449221 4.3520486e-20)
(0.76096888 0.11553336 2.4792412e-20)
(0.77509591 0.11613982 3.2252532e-20)
(0.78917769 0.11629757 -4.8153163e-20)
(0.80315762 0.11600498 -1.5569367e-20)
(0.81695943 0.11527661 1.7667723e-20)
(0.83048995 0.11414056 1.989704e-21)
(0.843668 0.1126335 -6.9066982e-21)
(0.85642802 0.11079805 -2.5254684e-21)
(0.86871699 0.10867901 -2.3589091e-22)
(0.88049659 0.10631352 1.2440488e-21)
(0.89175541 0.10372092 7.2389914e-23)
(0.90244004 0.10088128 4.5906299e-21)
(0.91253516 0.097829676 5.26824e-23)
(0.92202472 0.094621178 -8.7452341e-21)
(0.93081745 0.091297103 2.1139785e-21)
(0.93886653 0.08789384 -1.3307463e-20)
(0.94610133 0.084436342 6.8787245e-21)
(0.95242054 0.080940686 1.1429659e-20)
(0.95780836 0.077414897 3.6840062e-21)
(0.96229551 0.073846877 1.0970586e-20)
(0.96599284 0.07024874 1.4576969e-21)
(0.96885683 0.066587331 -2.0655003e-21)
(0.97128738 0.06293461 1.4289211e-21)
(0.9726286 0.059171743 -1.1655113e-22)
(0.97485541 0.055575834 -8.6534355e-23)
(0.97070395 0.051752608 -3.7011251e-22)
(0.98728419 0.047929003 1.6891765e-23)
(0.97864099 0.044793079 2.3056698e-22)
(0.98278209 0.041455326 -5.9560604e-23)
(0.98279027 0.038458844 8.3554154e-23)
(0.9821829 0.035490381 3.4726111e-23)
(0.98119519 0.032645268 -2.6897872e-22)
(0.97956977 0.029903814 -4.7980291e-21)
(0.9772613 0.027266589 -1.1254331e-22)
(0.97419859 0.024732761 4.4313152e-21)
(0.97032897 0.022303204 -1.8133608e-21)
(0.9656913 0.019984065 -1.1678429e-21)
(0.96040224 0.017781053 2.2208235e-22)
(0.95456456 0.01569963 -2.8326536e-21)
(0.94826449 0.013746351 -1.812031e-21)
(0.94157454 0.011926311 4.0164599e-21)
(0.93455895 0.010244102 -1.318433e-22)
(0.92727364 0.0087027308 -1.1417025e-21)
(0.91976645 0.0073030543 -1.2036787e-22)
(0.91208 0.006043243 7.3277137e-22)
(0.90425138 0.0049185317 -3.0820261e-23)
(0.89631123 0.0039211364 -8.4936433e-22)
(0.88828319 0.0030405394 2.029286e-21)
(0.8801848 0.0022637533 -6.9929661e-24)
(0.87202835 0.001576118 -3.0669946e-21)
(0.86379749 0.00096195883 -3.2727904e-21)
(0.85545145 0.00040626629 5.0485784e-21)
(0.84694281 -0.00010522518 -1.9560655e-21)
(0.83821686 -0.0005854899 1.003934e-21)
(0.82921131 -0.0010458912 3.281261e-21)
(0.81985747 -0.001496071 -1.8992826e-21)
(0.8100814 -0.0019438524 1.9550374e-21)
(0.79980519 -0.002395066 2.2362673e-21)
(0.78894949 -0.0028531355 -5.7839151e-21)
(0.77743675 -0.0033186278 8.561797e-22)
(0.76519437 -0.0037889458 2.3455221e-21)
(0.75215375 -0.0042581613 -4.7018305e-21)
(0.73825619 -0.004716413 -4.1498665e-21)
(0.72347698 -0.0051503554 6.0821912e-21)
(0.70782337 -0.0055457735 -4.5382904e-21)
(0.69132538 -0.0058883096 3.54799e-21)
(0.67403843 -0.0061646329 -4.2449049e-21)
(0.65604599 -0.0063638843 6.4819374e-22)
(0.63746124 -0.0064781671 -3.7871935e-21)
(0.68284647 0.0991303 -1.0115864e-20)
(0.69574783 0.10193524 -4.1535065e-20)
(0.70881334 0.10449896 2.5795608e-20)
(0.72203021 0.10678763 -2.5141225e-20)
(0.73537908 0.10876802 9.7262592e-21)
(0.74883405 0.11040871 -6.9465536e-20)
(0.76236209 0.11168137 -4.2087955e-20)
(0.77592314 0.11256212 -2.8365774e-21)
(0.78947082 0.11303307 1.6748802e-20)
(0.8029529 0.11308457 6.5945791e-21)
(0.81631794 0.1127184 -1.9710868e-20)
(0.82949699 0.11195101 1.5089935e-21)
(0.8424063 0.11081061 1.050126e-20)
(0.85497404 0.10933222 -1.1895084e-21)
(0.86714365 0.107555 -2.6796896e-21)
(0.87886885 0.10551807 6.7250455e-22)
(0.89011819 0.10325083 -1.4192455e-21)
(0.90088037 0.10076758 1.814405e-22)
(0.91110084 0.09805949 -2.1382572e-21)
(0.92077144 0.09514013 2.8673224e-22)
(0.9298592 0.092082598 -3.5690877e-21)
(0.93828691 0.088919714 7.7222376e-21)
(0.94601116 0.085682603 1.3223476e-20)
(0.95296183 0.082394125 -1.5695403e-21)
(0.95904228 0.07906982 1.4424376e-21)
(0.96423547 0.075716441 1.0820094e-20)
(0.96857316 0.072323913 -6.0806523e-21)
(0.97215537 0.06890032 1.7584919e-21)
(0.9749539 0.065418735 5.7428598e-22)
(0.9773237 0.061937401 -2.2811582e-22)
(0.97869391 0.058357008 2.7636624e-22)
(0.98084851 0.054919081 -3.9680666e-23)
(0.97675473 0.051270616 4.8050489e-22)
(0.9934894 0.047554114 -4.2573044e-23)
(0.98486683 0.044547504 -7.8230311e-23)
(0.98900002 0.041350018 5.9397586e-23)
(0.98918994 0.038458201 -1.4795268e-22)
(0.98864466 0.035599818 -7.5995498e-22)
(0.98777898 0.032847308 -7.8251114e-22)
(0.98628959 0.030192026 3.8958707e-21)
(0.98414294 0.027631376 -1.0311449e-22)
(0.98126765 0.025165879 3.346372e-22)
(0.9776128 0.022796037 5.0823239e-21)
(0.97321475 0.020527284 1.7900963e-21)
(0.96818392 0.018364516 -5.6815064e-21)
(0.96261806 0.016312473 1.1173579e-21)
(0.95659895 0.014377197 4.4323138e-21)
(0.95019542 0.012563613 -9.3276779e-22)
(0.94346864 0.010876489 4.0470807e-22)
(0.93647231 0.0093194574 1.5329596e-23)
(0.92925306 0.0078944773 -4.4375908e-22)
(0.92185339 0.0066013292 -1.3145296e-21)
(0.91431161 0.0054373242 1.672076e-22)
(0.90666123 0.0043971442 1.4000906e-21)
(0.89893042 0.003472946 -8.2279174e-22)
(0.89114303 0.0026544572 -8.6351834e-22)
(0.88331896 0.001929482 1.1144168e-21)
(0.87545164 0.0012844352 3.1387446e-21)
(0.86751195 0.00070586321 -3.4449289e-21)
(0.85946475 0.00018050366 6.9099409e-21)
(0.85126821 -0.0003041853 -1.2500155e-21)
(0.84287323 -0.00075963991 -6.6887302e-22)
(0.83422448 -0.001196027 4.4319551e-21)
(0.82526115 -0.0016221713 -1.3314332e-21)
(0.81591757 -0.002045504 2.6901247e-21)
(0.8061244 -0.0024718408 3.9461366e-21)
(0.7958108 -0.0029049623 1.8309631e-22)
(0.78490746 -0.0033461074 -2.1399845e-21)
(0.77334638 -0.0037934974 -3.5194037e-21)
(0.76106669 -0.0042416447 2.9977203e-21)
(0.74803546 -0.0046814942 -3.1728678e-21)
(0.73424545 -0.0051024745 -1.1872709e-22)
(0.71970692 -0.0054931221 -6.031817e-22)
(0.70445038 -0.0058419846 -3.1368335e-21)
(0.68852953 -0.0061388142 2.478578e-21)
(0.67202333 -0.0063751723 3.3898755e-21)
(0.70121294 0.097468159 2.1342825e-20)
(0.71370103 0.10006281 8.1845673e-21)
(0.72632743 0.10241742 -2.08623e-20)
(0.73907849 0.10450152 -3.4079792e-20)
(0.75193449 0.10628563 -4.6773223e-21)
(0.76486981 0.10774241 6.9615534e-20)
(0.77785255 0.10884782 2.2149946e-20)
(0.7908447 0.10958231 -1.6961286e-20)
(0.80380303 0.10993216 -5.908052e-21)
(0.81667976 0.10989142 1.8812424e-20)
(0.82942873 0.10946451 3.0484465e-20)
(0.84198821 0.10866897 2.7908709e-21)
(0.85428333 0.10753238 -1.5855549e-20)
(0.86625081 0.10608754 1.0791404e-20)
(0.8778416 0.10437005 4.8141936e-22)
(0.88901481 0.10241384 -1.7814682e-21)
(0.89974474 0.10024155 -1.7865112e-21)
(0.91001709 0.097860381 -3.0038523e-22)
(0.91978349 0.095275206 6.6240542e-22)
(0.92903458 0.092491112 -2.2281423e-21)
(0.9377244 0.089580006 5.1929919e-21)
(0.94579206 0.086572372 -1.0188725e-20)
(0.95319567 0.083494884 -1.489414e-20)
(0.9598662 0.080368883 1.6459518e-20)
(0.96571146 0.077209266 -1.9827501e-21)
(0.97071338 0.074021812 -8.4539255e-21)
(0.97490407 0.07079801 2.3845971e-21)
(0.97837381 0.067542791 6.4526956e-22)
(0.98110734 0.064234192 -1.4093806e-21)
(0.98341851 0.060918936 1.000256e-21)
(0.98481564 0.057514439 -4.2331442e-25)
(0.98689751 0.054230461 -4.2254413e-22)
(0.98286092 0.050751677 1.1572039e-22)
(0.99973066 0.047138468 -5.0262001e-23)
(0.99112967 0.044258797 -2.8315733e-23)
(0.99525026 0.041198981 1.1351171e-23)
(0.99561733 0.038411929 1.1134819e-22)
(0.99513392 0.035662549 -6.0806838e-23)
(0.99438611 0.033003611 -1.4261772e-22)
(0.99303148 0.03043535 -6.730227e-22)
(0.99104519 0.027953049 -5.7789126e-22)
(0.9883569 0.025558094 9.8112182e-22)
(0.98491723 0.023250781 -4.0106765e-21)
(0.98076014 0.0210358 -2.2317752e-21)
(0.97598982 0.018917258 4.7974453e-21)
(0.97069897 0.016899164 8.0654857e-22)
(0.9649649 0.014986994 -7.2127014e-21)
(0.95885266 0.013185399 9.8161131e-22)
(0.95242018 0.011499156 -1.2206966e-21)
(0.94571861 0.00993229 4.3625394e-21)
(0.9387929 0.0084875584 2.5314983e-21)
(0.93168469 0.0071659836 1.0901054e-21)
(0.92443257 0.0059665448 -3.0404074e-21)
(0.91707158 0.0048859741 -4.5034582e-21)
(0.90963288 0.0039187374 1.0012098e-21)
(0.90214482 0.0030570102 -2.4250202e-21)
(0.89463293 0.002290954 2.2744855e-21)
(0.88709843 0.001609117 -5.4259099e-21)
(0.87952188 0.00099979534 -1.8983122e-21)
(0.87187852 0.00045105147 -1.1151066e-21)
(0.86413759 -4.8811144e-05 4.7277849e-21)
(0.85626158 -0.00051083888 -5.7091424e-22)
(0.84820709 -0.00094521544 -4.4207317e-21)
(0.83992543 -0.0013611475 2.521794e-21)
(0.83136291 -0.0017668511 -5.7260252e-21)
(0.82246136 -0.0021694765 1.7765462e-21)
(0.81315922 -0.0025748516 -4.8951311e-21)
(0.80339367 -0.0029870054 5.4884557e-22)
(0.79310066 -0.0034075415 6.0227007e-21)
(0.78222073 -0.003834826 -9.1645922e-22)
(0.77071748 -0.0042638467 7.7409888e-21)
(0.75857519 -0.0046876852 -4.5776671e-21)
(0.74579151 -0.005097973 -2.1501879e-21)
(0.7323798 -0.0054856494 2.6983642e-21)
(0.71837226 -0.0058418774 3.222585e-21)
(0.7038219 -0.0061587315 -2.6080736e-21)
(0.71964964 0.09572797 -3.5574723e-20)
(0.73169657 0.098118483 2.5317497e-20)
(0.74385799 0.10027191 -5.3908387e-20)
(0.75611974 0.10216104 3.0797864e-20)
(0.76846209 0.10376002 5.4357886e-20)
(0.78086011 0.10504533 -6.2243773e-20)
(0.79328335 0.10599687 -3.691804e-20)
(0.80569624 0.10659897 -2.6235514e-21)
(0.81805894 0.1068415 -1.8724568e-20)
(0.83032828 0.10672152 -1.9933738e-20)
(0.84246331 0.10624539 -2.1878983e-20)
(0.85440921 0.10543102 -6.8546011e-21)
(0.86609932 0.1043048 1.1028979e-20)
(0.8774779 0.10289699 3.8563763e-21)
(0.88850202 0.10123967 6.4482825e-21)
(0.89913551 0.099362178 4.1256312e-21)
(0.90935827 0.097281848 9.6051136e-22)
(0.91914962 0.094998178 4.1729779e-22)
(0.92846775 0.092529013 -3.5858447e-22)
(0.93730292 0.089879303 2.5791475e-22)
(0.94560134 0.087110516 3.0764133e-21)
(0.95331526 0.084252276 7.9888957e-21)
(0.96040339 0.081328191 1.6605004e-20)
(0.96679844 0.078358393 -5.7118573e-23)
(0.97241253 0.075357087 6.2266106e-21)
(0.97722686 0.07232931 3.8468729e-21)
(0.98127332 0.069267763 -5.7502829e-21)
(0.98463343 0.066174928 2.9197352e-21)
(0.98730272 0.063032774 -9.2980952e-22)
(0.98955756 0.059878373 4.3018602e-22)
(0.99097978 0.056643414 -7.1856938e-23)
(0.99298888 0.053509358 3.7812014e-22)
(0.98900908 0.050195228 2.2859094e-23)
(1.0059941 0.046681311 3.2356329e-23)
(0.99741573 0.043926132 7.4607545e-23)
(1.0015196 0.041001278 -2.4437466e-22)
(1.0020591 0.038318878 2.4499654e-22)
(1.0016375 0.035677331 -7.6022781e-22)
(1.0010035 0.033112665 1.389727e-21)
(0.99978226 0.030632122 5.0122458e-22)
(0.99795481 0.028229706 -1.0530532e-21)
(0.99545293 0.025907296 -5.3060086e-21)
(0.99222861 0.023665101 -3.3109452e-21)
(0.98831352 0.021507054 7.2692903e-21)
(0.98380567 0.019436501 -2.6402768e-21)
(0.97879272 0.017456721 2.6337975e-21)
(0.97334752 0.015572589 2.9575271e-21)
(0.96753127 0.013788404 1.2521147e-21)
(0.96139858 0.012108821 -1.2458879e-21)
(0.95499783 0.010538062 -4.7227738e-23)
(0.94837189 0.0090794278 -2.8754263e-21)
(0.94156103 0.0077348656 1.9180018e-21)
(0.93460332 0.0065046612 1.7126308e-21)
(0.92753432 0.005387213 2.9742585e-21)
(0.92038686 0.004378934 5.8513963e-24)
(0.91319226 0.0034741451 -3.215384e-22)
(0.90597999 0.0026651792 3.9688069e-22)
(0.89875731 0.0019426545 3.2556124e-21)
(0.8915126 0.0012966818 2.9788971e-21)
(0.88422967 0.00071683515 -5.0305503e-21)
(0.87688711 0.00019254921 -4.1539477e-21)
(0.8694574 -0.00028647969 2.0634756e-21)
(0.86190753 -0.00073005792 2.545068e-21)
(0.85419958 -0.0011473343 -8.9242074e-22)
(0.84629084 -0.0015467606 6.3152734e-21)
(0.83813407 -0.0019360687 -1.7107262e-21)
(0.82967797 -0.0023221609 6.4256456e-22)
(0.82086835 -0.0027107905 -2.8775454e-21)
(0.81164776 -0.0031059711 -1.1377077e-21)
(0.80196094 -0.0035091502 -1.4135907e-21)
(0.79177149 -0.0039189271 -3.7451703e-21)
(0.78105961 -0.0043318426 7.078375e-22)
(0.76981555 -0.0047426296 -4.5421108e-21)
(0.75804164 -0.005144811 4.792652e-21)
(0.74575521 -0.0055314831 -4.8752633e-21)
(0.7329905 -0.0058959431 -5.3871437e-21)
(0.73809266 0.09391107 -2.4345101e-20)
(0.74967363 0.09610458 4.174459e-21)
(0.76134753 0.09806558 4.4727554e-20)
(0.77309999 0.099770028 -1.1632184e-21)
(0.78491166 0.10119547 -2.85594e-20)
(0.79675858 0.10232192 6.0590937e-20)
(0.80861211 0.10313285 -7.5417541e-21)
(0.82043934 0.10361597 -6.3653391e-21)
(0.83220401 0.10376416 1.5451287e-20)
(0.84386753 0.10357683 6.8628744e-21)
(0.85539398 0.10306162 2.286722e-20)
(0.86673493 0.10223626 2.8550646e-21)
(0.87783114 0.10112557 5.112825e-21)
(0.88863348 0.099757196 -1.8046509e-21)
(0.89910383 0.098159704 -1.6522876e-21)
(0.90921073 0.096358118 -2.7526873e-21)
(0.91893924 0.094366675 1.4177197e-21)
(0.92825799 0.092178073 -2.627137e-22)
(0.93713255 0.089820072 -6.4720797e-24)
(0.94555679 0.087301607 4.2402333e-22)
(0.95347182 0.084670765 -1.7785025e-21)
(0.96083906 0.081956379 -3.713886e-21)
(0.96761754 0.079179873 -2.6429227e-21)
(0.97374228 0.076360309 -5.7135104e-21)
(0.97912963 0.073511229 8.8786597e-21)
(0.98376033 0.07063712 -2.7798732e-21)
(0.98766558 0.067731638 4.766264e-21)
(0.99091902 0.064795375 -3.1293377e-21)
(0.99352506 0.061813401 2.8890197e-21)
(0.99572601 0.058814726 -1.5119694e-21)
(0.99717164 0.055743161 -4.5741168e-22)
(0.99910836 0.052755015 6.1522686e-23)
(0.99518499 0.049600574 -1.5716656e-22)
(1.0122652 0.046181797 -5.2240537e-23)
(1.0037105 0.043548591 -1.0750795e-22)
(1.0077939 0.040755898 4.0303529e-22)
(1.0085013 0.038177827 -5.8102049e-22)
(1.0081414 0.035642854 -9.9099995e-23)
(1.0076174 0.033172898 2.1750515e-21)
(1.006528 0.030780613 -1.9391056e-21)
(1.0048577 0.028459379 2.0146991e-21)
(1.0025414 0.026211307 4.3946928e-21)
(0.9995323 0.024036581 1.3297865e-20)
(0.99585986 0.021938395 6.6730073e-22)
(0.99161603 0.019919353 6.8185234e-21)
(0.98688342 0.017982023 3.3752709e-22)
(0.9817305 0.016130658 1.126797e-21)
(0.9762146 0.014369146 -1.8911101e-21)
(0.97038696 0.01270192 -1.2324821e-21)
(0.96429304 0.01113324 -1.9758608e-21)
(0.9579734 0.0096667372 2.346186e-21)
(0.95146651 0.0083050171 3.3859415e-22)
(0.94480933 0.0070493563 -1.8593079e-21)
(0.9380371 0.0058994743 -1.155936e-21)
(0.93118332 0.0048533862 -1.0523015e-21)
(0.92428093 0.003907246 7.4652643e-22)
(0.91736199 0.0030553231 -4.5525346e-21)
(0.91043818 0.0022901652 -3.0206286e-21)
(0.90350407 0.0016036627 9.9646557e-22)
(0.89655038 0.00098697272 6.5003169e-22)
(0.88956345 0.00043083152 2.5806595e-22)
(0.88252413 -7.4074166e-05 -3.3886387e-21)
(0.87540833 -0.00053687318 -8.060723e-22)
(0.86818746 -0.0009663275 9.0675605e-22)
(0.86082848 -0.0013707477 -5.1332448e-21)
(0.85329413 -0.0017579533 3.2151486e-21)
(0.84554306 -0.0021352365 -9.3739265e-22)
(0.83753049 -0.0025091938 -2.752432e-21)
(0.82920723 -0.002885279 1.3656471e-21)
(0.82052444 -0.0032671287 1.5099828e-21)
(0.81144833 -0.0036562055 3.0534944e-22)
(0.80195827 -0.0040520697 3.6902671e-21)
(0.79204086 -0.0044524204 7.105549e-21)
(0.78169191 -0.00485344 -7.7541824e-21)
(0.770919 -0.005250425 3.5227247e-21)
(0.75974334 -0.0056383329 4.4333996e-21)
(0.75647456 0.092018516 3.0742853e-20)
(0.76756847 0.094023055 -7.2522805e-21)
(0.7787362 0.09580113 -1.9663143e-20)
(0.78996346 0.097331705 -2.0809154e-20)
(0.80123157 0.098595486 -7.1554022e-21)
(0.81251785 0.099575714 -1.7169231e-20)
(0.8237957 0.10025898 3.6217051e-21)
(0.83503504 0.10063589 2.641898e-20)
(0.84620322 0.10070178 1.2751528e-21)
(0.85726607 0.10045783 2.1392605e-20)
(0.86819236 0.099912364 -1.0216414e-20)
(0.87893945 0.099082548 1.0845245e-21)
(0.88945476 0.097991412 -1.9600321e-20)
(0.89969474 0.096664037 -7.1715842e-21)
(0.90962496 0.095125478 -6.9843783e-21)
(0.9192189 0.093396615 -1.8403228e-21)
(0.92846464 0.091491092 -4.2781401e-22)
(0.93731779 0.089399873 -1.5339196e-21)
(0.94575836 0.087146673 3.0082064e-22)
(0.9537784 0.084755149 1.9066524e-21)
(0.96131851 0.08225764 -1.5556668e-21)
(0.96834643 0.079681836 2.0548835e-21)
(0.9748215 0.077047349 2.9906262e-21)
(0.98068142 0.074372287 -9.476479e-22)
(0.98584675 0.071669598 -1.0851922e-20)
(0.99029797 0.068943368 3.6145268e-21)
(0.99406525 0.066188012 -2.6406641e-21)
(0.99721506 0.063402683 -5.6039719e-21)
(0.99975903 0.060574875 -1.2548657e-21)
(1.0019086 0.057726891 1.0302616e-21)
(1.0033761 0.054812782 7.1820022e-23)
(1.0052411 0.051966558 -2.0855177e-22)
(1.0013738 0.048966901 -1.3135031e-23)
(1.0185291 0.045638995 -2.3163511e-23)
(1.0099991 0.043125178 1.6359415e-23)
(1.0140587 0.040461758 -1.7656026e-22)
(1.0149293 0.037987492 -2.3278165e-22)
(1.0146309 0.035557746 2.3169516e-21)
(1.0142132 0.033182684 -3.5563872e-21)
(1.0132539 0.030879029 -2.1180104e-21)
(1.0117391 0.028640037 -2.5864187e-22)
(1.0096072 0.026467868 -3.8094048e-21)
(1.0068128 0.024362722 -3.2661415e-21)
(1.0033832 0.022327073 -8.2692781e-21)
(0.99940438 0.020362812 -3.8188578e-21)
(0.99495401 0.018471816 -4.6540896e-21)
(0.99009619 0.01665771 -2.533281e-22)
(0.98488446 0.014923935 -7.3658213e-22)
(0.97936666 0.01327462 8.906531e-22)
(0.97358529 0.011713943 2.8698297e-21)
(0.96757841 0.010245692 -2.3331106e-21)
(0.96138241 0.0088729034 -3.0723208e-21)
(0.95503267 0.0075975772 3.9252372e-21)
(0.94856351 0.0064204493 1.6577933e-21)
(0.94200822 0.0053408206 -2.2360445e-21)
(0.93540039 0.0043563715 8.7229069e-22)
(0.92877339 0.0034630501 4.1825275e-21)
(0.92214205 0.0026551433 2.4011836e-21)
(0.91550565 0.0019262124 1.948845e-21)
(0.90886036 0.0012689776 2.4014967e-21)
(0.90219871 0.00067554595 1.7808585e-22)
(0.89550846 0.00013774331 3.4009126e-21)
(0.88877302 -0.00035267107 -3.977344e-21)
(0.8819717 -0.00080382027 -3.4938938e-21)
(0.87507983 -0.0012235974 9.6865389e-22)
(0.86806882 -0.0016195904 -4.0727456e-21)
(0.86090634 -0.0019990545 1.428202e-21)
(0.85355665 -0.0023688192 3.5371447e-21)
(0.84597931 -0.0027349894 -3.7061975e-21)
(0.83813322 -0.0031024959 -2.9592093e-21)
(0.82998928 -0.0034747539 -1.6391859e-21)
(0.8215284 -0.0038537327 -1.5416386e-21)
(0.81273638 -0.0042397423 -5.2201409e-21)
(0.80360571 -0.0046314889 6.7893996e-21)
(0.79413807 -0.0050265356 -4.1553282e-21)
(0.78434592 -0.0054217028 1.1815534e-21)
(0.77472552 0.090051027 -3.7156386e-20)
(0.78531554 0.091875422 -3.5874681e-20)
(0.79596285 0.093480686 3.1103201e-20)
(0.80665352 0.094848584 5.4594214e-20)
(0.81736977 0.095962709 -2.7925631e-20)
(0.82809043 0.09680917 -6.9202236e-21)
(0.83879108 0.097377265 2.6438286e-20)
(0.84944454 0.097660015 1.1238615e-20)
(0.86002168 0.097654684 2.637221e-21)
(0.87049249 0.097363675 -2.8261029e-20)
(0.88082997 0.096795607 -4.3422937e-21)
(0.89099661 0.095966754 9.3438596e-22)
(0.90094569 0.094898308 3.4941037e-23)
(0.91063827 0.093612967 -5.1704414e-21)
(0.92004283 0.09213248 -3.3522374e-21)
(0.92913766 0.090473868 7.4688312e-21)
(0.93790902 0.088649143 1.9071058e-21)
(0.94630715 0.086659291 2.1339547e-21)
(0.95432857 0.084508625 -3.4032691e-22)
(0.96195102 0.082237771 -1.2085387e-23)
(0.96912452 0.079868628 2.8040085e-21)
(0.9758205 0.077426118 -3.7855884e-22)
(0.98199866 0.074928183 -1.387204e-20)
(0.98759957 0.072392047 -5.1619777e-21)
(0.99254786 0.069830114 3.2060848e-21)
(0.99682395 0.067246163 -1.4609756e-21)
(1.0004566 0.06463522 5.7402824e-21)
(1.0035059 0.061995344 4.570541e-21)
(1.0059891 0.059315919 1.1434891e-21)
(1.0080897 0.05661368 -1.4887218e-21)
(1.0095776 0.053851281 3.4518566e-22)
(1.011372 0.051143012 5.7102898e-22)
(1.0075601 0.048293301 -6.6209248e-23)
(1.0247705 0.045051912 9.7292411e-24)
(1.016266 0.042654835 -1.5881764e-22)
(1.020299 0.040117723 1.8405444e-22)
(1.021328 0.037746537 1.1014643e-22)
(1.0210911 0.035420576 -2.8886554e-21)
(1.020776 0.033140345 -7.8114983e-22)
(1.0199449 0.030925511 4.1167883e-21)
(1.0185836 0.028769585 8.3489762e-22)
(1.0166346 0.026674652 4.9656241e-21)
(1.0140539 0.024640944 4.844127e-22)
(1.0108667 0.022670249 -8.7653048e-22)
(1.0071533 0.020763769 -2.7312136e-21)
(1.0029864 0.01892272 1.7596213e-21)
(0.99842576 0.017150102 6.008918e-21)
(0.9935213 0.015448886 -9.9252376e-22)
(0.98831749 0.013822846 6.2498193e-21)
(0.98285381 0.012275977 -6.1276684e-21)
(0.97716575 0.010812086 1.7265464e-21)
(0.97128743 0.0094344586 2.8687425e-21)
(0.96525232 0.00814559 -8.4601398e-22)
(0.95909336 0.00694697 3.1904728e-22)
(0.95284299 0.0058389021 2.6817137e-21)
(0.9465346 0.0048203054 2.8566853e-21)
(0.94020192 0.0038885444 -5.1698453e-22)
(0.93386176 0.0030394288 -7.407089e-22)
(0.92751691 0.002268033 -7.6987596e-22)
(0.92116764 0.0015685515 -2.8448015e-22)
(0.91481135 0.00093445018 -3.3362281e-22)
(0.90844133 0.00035875441 3.2143227e-21)
(0.90204709 -0.00016576347 -9.0132624e-22)
(0.89561458 -0.00064641304 4.0824579e-21)
(0.88912614 -0.0010904661 -3.4173868e-21)
(0.88256061 -0.0015050593 2.2214888e-21)
(0.87589347 -0.0018971405 4.8538549e-21)
(0.86909704 -0.0022733942 -6.3190312e-22)
(0.8621392 -0.0026400355 -1.06705e-21)
(0.85498681 -0.0030025289 2.0577089e-21)
(0.84761666 -0.0033654397 -1.6991647e-21)
(0.84001312 -0.0037324081 -1.7109175e-21)
(0.83216326 -0.0041057314 2.9674777e-21)
(0.82405872 -0.0044863308 -4.6040641e-22)
(0.81569804 -0.0048739176 -8.3769058e-22)
(0.8070882 -0.005267157 2.481909e-21)
(0.79277484 0.088008967 6.9333367e-20)
(0.80284893 0.089662733 1.6778256e-20)
(0.81296644 0.091105773 -3.1868639e-20)
(0.82311401 0.092322425 -2.9650861e-20)
(0.83327496 0.093298873 2.4079677e-20)
(0.84342977 0.094023729 5.8972306e-21)
(0.85355627 0.094488591 -2.70469e-20)
(0.86363011 0.094688431 8.4135996e-22)
(0.87362549 0.094621981 -5.4680018e-21)
(0.88351622 0.094292457 2.1130588e-20)
(0.89327897 0.093708426 1.681801e-21)
(0.9028807 0.092885119 -8.7543837e-21)
(0.91227982 0.091841937 -1.9597755e-21)
(0.92144101 0.090599376 7.3852303e-21)
(0.93033582 0.08917635 1.3625381e-20)
(0.93894691 0.087587146 -7.9756722e-21)
(0.94725265 0.085838515 7.9447051e-22)
(0.95520986 0.083946484 -5.4293736e-22)
(0.96282373 0.081902192 -3.1713343e-22)
(0.97005647 0.079746925 -1.9116092e-21)
(0.97687233 0.077501295 3.5741966e-22)
(0.9832442 0.075186763 -4.0611607e-21)
(0.98913243 0.072819999 6.9139285e-21)
(0.99448051 0.070417357 1.190461e-20)
(0.99921703 0.067990724 -3.9219824e-21)
(1.0033225 0.065543629 -2.2068955e-21)
(1.0068241 0.063071585 -3.7515882e-21)
(1.0097759 0.06057183 1.9625894e-22)
(1.0121998 0.05803521 -3.2762155e-23)
(1.0142539 0.05547385 5.6370754e-22)
(1.0157606 0.052857599 2.6769031e-22)
(1.0174855 0.050283338 -4.1562031e-22)
(1.0137285 0.0475788 2.1101653e-22)
(1.0309742 0.044419522 4.0211524e-24)
(1.0224957 0.042136465 1.3906093e-22)
(1.0264997 0.039722621 -6.5685308e-23)
(1.0276823 0.03745359 2.764744e-23)
(1.0275067 0.035229872 3.0140698e-21)
(1.0272905 0.033044163 3.0840009e-21)
(1.0265854 0.030918154 2.7409757e-21)
(1.0253754 0.028845874 4.2721007e-21)
(1.0236074 0.026829269 -6.2415834e-21)
(1.0212389 0.024868597 2.1454996e-21)
(1.0182931 0.022965001 8.917399e-21)
(1.0148447 0.021119018 4.1804258e-22)
(1.0109616 0.019331238 2.7839083e-22)
(1.0066994 0.01760405 -1.0098421e-20)
(1.0021044 0.015939943 4.019388e-21)
(0.99721786 0.014342298 -1.9240734e-21)
(0.99207619 0.012814861 -2.2299657e-21)
(0.98671232 0.011361345 -2.1146366e-21)
(0.98115797 0.0099851373 -7.7030886e-22)
(0.97544451 0.0086890422 -2.2170757e-21)
(0.96960314 0.007475081 2.3931778e-21)
(0.96366497 0.0063443119 -2.4488482e-21)
(0.95766254 0.0052966313 -6.5720147e-21)
(0.95162917 0.0043305681 -1.1755979e-21)
(0.94558274 0.0034432297 3.8316993e-21)
(0.93952848 0.0026310186 -1.668025e-21)
(0.93346964 0.0018894687 -2.9950786e-21)
(0.92740728 0.0012133306 1.0991506e-21)
(0.92133899 0.00059681719 -3.646731e-21)
(0.91525916 3.3762561e-05 2.1844065e-21)
(0.90915909 -0.00048222912 3.3303623e-21)
(0.90302695 -0.00095766954 4.1386291e-21)
(0.89684778 -0.0013990809 3.5572375e-21)
(0.89060366 -0.0018129222 -5.1800901e-21)
(0.88427384 -0.0022055094 -3.4657506e-21)
(0.87783353 -0.0025828445 -2.0769828e-22)
(0.87125699 -0.0029504429 4.3378987e-21)
(0.86452716 -0.0033133542 6.2860502e-21)
(0.85763289 -0.0036761325 -5.8263996e-22)
(0.85056417 -0.0040424237 1.6498106e-21)
(0.84331357 -0.0044148078 -4.5176115e-21)
(0.83587865 -0.0047947613 4.0470068e-21)
(0.82826329 -0.0051827485 -1.798589e-21)
(0.71877492 0.0632099 -5.5119183e-20)
(0.72743394 0.065898831 -1.8058791e-20)
(0.73626013 0.068529097 -4.00716e-20)
(0.74523165 0.071088191 -5.1521796e-20)
(0.75432799 0.073563376 -3.1337689e-20)
(0.76352983 0.075941787 -6.6659643e-20)
(0.77281834 0.078210329 -2.0609183e-20)
(0.7821735 0.080355266 1.503393e-20)
(0.79158269 0.082361357 -5.4971275e-21)
(0.80104332 0.08421244 -3.7767606e-20)
(0.81055275 0.085892396 3.2618821e-21)
(0.82010414 0.087385605 8.4074078e-21)
(0.8296877 0.088677349 -1.686981e-21)
(0.83929084 0.089754285 3.5329032e-20)
(0.8488981 0.090604881 4.2492232e-20)
(0.85849167 0.091219902 -3.5007149e-20)