/*--------------------------------*- C++ -*----------------------------------*\
| =========                 |                                                 |
| \\      /  F ield         | OpenFOAM: The Open Source CFD Toolbox           |
|  \\    /   O peration     | Version:  2.4.0                                 |
|   \\  /    A nd           | Web:      www.OpenFOAM.org                      |
|    \\/     M anipulation  |                                                 |
\*---------------------------------------------------------------------------*/
FoamFile
{
    version     2.0;
    format      ascii;
    class       volScalarField;
    location    "20000";
    object      nut;
}
// * * * * * * * * * * * * * * * * * * * * * * * * * * * * * * * * * * * * * //

dimensions      [0 2 -1 0 0 0 0];

internalField   nonuniform List<scalar> 
15600
(
1.0853147e-10
8.2453489e-11
9.6758858e-11
2.0183919e-12
1.7260252e-11
1.9660159e-11
6.7312697e-12
4.5431869e-12
2.9334202e-12
2.4310477e-12
1.8275714e-12
1.7034904e-12
1.7430775e-12
1.9944403e-12
2.5014274e-12
3.3178132e-12
4.290193e-12
5.290637e-12
6.3088897e-12
7.2091358e-12
7.7700989e-12
8.0479559e-12
8.1503755e-12
7.9882212e-12
7.113738e-12
6.2599386e-12
4.485178e-12
5.6332885e-12
1.3866883e-11
2.366999e-11
3.1937997e-11
4.0136034e-11
4.7443185e-11
5.4334912e-11
6.0655315e-11
6.6539865e-11
7.191183e-11
7.677618e-11
8.1065083e-11
8.4741834e-11
8.7762296e-11
9.0107619e-11
9.1764258e-11
9.2740515e-11
9.3054687e-11
9.2713159e-11
9.1743932e-11
9.0189335e-11
8.8098527e-11
8.5527979e-11
8.2533234e-11
7.9183518e-11
7.5546386e-11
7.1685363e-11
6.7665161e-11
6.3541462e-11
5.9368342e-11
5.5201041e-11
5.1089376e-11
4.7067474e-11
4.3157882e-11
3.939679e-11
3.5802337e-11
3.2392185e-11
2.917816e-11
2.616526e-11
2.335804e-11
2.075644e-11
1.8360727e-11
1.6167865e-11
1.4173052e-11
1.2369136e-11
1.0746462e-11
9.2945538e-12
8.0026443e-12
6.8602931e-12
5.8573773e-12
4.9819456e-12
4.2239079e-12
3.5710146e-12
3.0136753e-12
2.5413449e-12
2.1459514e-12
1.8159604e-12
1.5456396e-12
1.3232517e-12
1.1474309e-12
1.006621e-12
9.0696161e-13
8.3533618e-13
8.1882047e-13
8.1460355e-13
1.1278374e-12
1.3179522e-12
1.2234302e-12
1.0842955e-12
8.1963317e-13
5.7212146e-13
6.4825719e-13
1.1839379e-12
2.2557198e-12
4.0885278e-12
6.8516737e-12
1.070151e-11
1.5225019e-11
1.975491e-11
2.4846332e-11
3.0604429e-11
3.802731e-11
4.7536149e-11
6.5509797e-11
9.7434699e-11
1.5411418e-10
2.5756448e-10
4.6542958e-10
7.8679055e-10
9.0175297e-10
4.6191288e-10
1.9650231e-10
3.1469233e-11
3.8831526e-10
3.5779268e-10
2.6809708e-10
4.8200212e-11
2.1760443e-11
1.9062957e-11
7.6813541e-12
5.3466248e-12
3.704867e-12
3.1745787e-12
2.600735e-12
2.571172e-12
2.7631608e-12
3.1985301e-12
3.9665702e-12
5.2236799e-12
6.9468945e-12
8.8076889e-12
1.0940163e-11
1.3418708e-11
1.6106604e-11
1.9093749e-11
2.2487024e-11
2.6083181e-11
2.8975445e-11
3.1183232e-11
3.0924401e-11
3.3168282e-11
4.7719527e-11
7.5204246e-11
9.3958886e-11
1.1484742e-10
1.3351409e-10
1.5218715e-10
1.7004592e-10
1.8757719e-10
2.0454366e-10
2.2095566e-10
2.3666512e-10
2.5155305e-10
2.6550071e-10
2.7840351e-10
2.901751e-10
3.0075529e-10
3.1011683e-10
3.1821257e-10
3.2501705e-10
3.3053511e-10
3.3477543e-10
3.3781031e-10
3.3959422e-10
3.4030094e-10
3.3996123e-10
3.3866864e-10
3.3654036e-10
3.3355352e-10
3.2982939e-10
3.2547257e-10
3.2076834e-10
3.1576547e-10
3.1018624e-10
3.0437909e-10
2.9833844e-10
2.9212586e-10
2.8580222e-10
2.7939167e-10
2.7292085e-10
2.6640435e-10
2.5986345e-10
2.5332669e-10
2.4682034e-10
2.403701e-10
2.3398299e-10
2.276551e-10
2.2136911e-10
2.1511011e-10
2.0887895e-10
2.02664e-10
1.964579e-10
1.9024944e-10
1.8395238e-10
1.7764112e-10
1.7123105e-10
1.646808e-10
1.5794895e-10
1.5090145e-10
1.434656e-10
1.354016e-10
1.2661842e-10
1.1660061e-10
1.0537166e-10
8.8624022e-11
8.0490188e-11
8.4629412e-11
8.9261142e-11
9.2606744e-11
9.4604956e-11
9.5213586e-11
9.6076829e-11
9.8192042e-11
1.0137865e-10
1.0524552e-10
1.0986512e-10
1.1596803e-10
1.2010074e-10
1.2233586e-10
1.2486329e-10
1.2852706e-10
1.3424651e-10
1.4286034e-10
1.7072364e-10
2.1809461e-10
3.0263553e-10
4.5912536e-10
7.5087696e-10
1.2389376e-09
1.4022825e-09
8.1631136e-10
4.3909175e-10
2.7435774e-10
7.2613882e-09
7.0488536e-09
4.565882e-09
1.1379935e-09
1.4833851e-10
3.1922495e-11
3.7193252e-11
2.9270547e-11
2.4821058e-11
2.304944e-11
2.2339968e-11
2.4328923e-11
2.827542e-11
3.4476879e-11
4.4129129e-11
5.9251864e-11
8.2046788e-11
1.0705606e-10
1.3831483e-10
1.8041574e-10
2.3457796e-10
3.0187122e-10
3.8270099e-10
4.7392729e-10
5.6258772e-10
6.3413753e-10
6.6421042e-10
6.9530173e-10
8.8222518e-10
1.3530048e-09
1.6420092e-09
1.9845701e-09
2.2910553e-09
2.6061734e-09
2.9130706e-09
3.2208693e-09
3.5253486e-09
3.8266633e-09
4.1225889e-09
4.4109742e-09
4.6898255e-09
4.9569768e-09
5.2105989e-09
5.4490535e-09
5.6712862e-09
5.8759983e-09
6.0620292e-09
6.2286309e-09
6.3750095e-09
6.5017726e-09
6.6066755e-09
6.6925482e-09
6.7587391e-09
6.8062475e-09
6.836606e-09
6.8481135e-09
6.8426238e-09
6.8215577e-09
6.7908626e-09
6.7510333e-09
6.6948215e-09
6.6299971e-09
6.5560523e-09
6.4741301e-09
6.3854739e-09
6.2905725e-09
6.1899825e-09
6.084063e-09
5.9733274e-09
5.8585364e-09
5.7404295e-09
5.6197817e-09
5.4969627e-09
5.3720916e-09
5.2449664e-09
5.1154369e-09
4.9837312e-09
4.8498102e-09
4.7137009e-09
4.5753811e-09
4.4329395e-09
4.2884106e-09
4.1398929e-09
3.9866121e-09
3.8276746e-09
3.6600455e-09
3.481979e-09
3.2878522e-09
3.0753199e-09
2.8320454e-09
2.558082e-09
2.1491806e-09
1.9444325e-09
2.0422517e-09
2.1576563e-09
2.2425179e-09
2.2969853e-09
2.3171445e-09
2.3369444e-09
2.3777997e-09
2.4336374e-09
2.4903827e-09
2.5464652e-09
2.6163226e-09
2.6242325e-09
2.5860347e-09
2.543712e-09
2.515521e-09
2.5034716e-09
2.5199733e-09
2.8328467e-09
3.3357525e-09
4.2391315e-09
5.938236e-09
8.79849e-09
1.260535e-08
1.3997975e-08
1.043956e-08
6.688247e-09
6.0539833e-09
6.5285146e-08
6.3533341e-08
4.0902899e-08
1.0394622e-08
1.226471e-09
1.5409267e-10
2.8569539e-10
2.3079409e-10
2.0193963e-10
1.8952588e-10
1.8719602e-10
2.0573402e-10
2.4102388e-10
2.9673993e-10
3.8338033e-10
5.1773134e-10
7.2044215e-10
9.4230045e-10
1.2208785e-09
1.5991444e-09
2.0898529e-09
2.7023577e-09
3.4396426e-09
4.2738683e-09
5.0897315e-09
5.7494622e-09
6.0358685e-09
6.3096388e-09
7.9590703e-09
1.2184707e-08
1.4763242e-08
1.7829626e-08
2.0572374e-08
2.3395833e-08
2.6147666e-08
2.8910156e-08
3.1645539e-08
3.4355313e-08
3.7019844e-08
3.9619931e-08
4.2137865e-08
4.4554182e-08
4.6852428e-08
4.9017708e-08
5.1040183e-08
5.2908064e-08
5.4610756e-08
5.6141152e-08
5.7491639e-08
5.8667332e-08
5.9647303e-08
6.0456764e-08
6.1089224e-08
6.1553161e-08
6.1862195e-08
6.2000324e-08
6.1983613e-08
6.1824848e-08
6.1577724e-08
6.1246567e-08
6.0765028e-08
6.020361e-08
5.9557569e-08
5.8837175e-08
5.8053677e-08
5.7211498e-08
5.6315687e-08
5.5369526e-08
5.4377704e-08
5.3347195e-08
5.2284794e-08
5.1197643e-08
5.0089202e-08
4.8960658e-08
4.7810258e-08
4.6636729e-08
4.5442235e-08
4.4226523e-08
4.2989928e-08
4.1732357e-08
4.0436433e-08
3.9120827e-08
3.7768257e-08
3.6371746e-08
3.4923206e-08
3.3395032e-08
3.1771331e-08
3.0000882e-08
2.8062289e-08
2.5842957e-08
2.3343573e-08
1.9614416e-08
1.7748283e-08
1.8645696e-08
1.9702752e-08
2.0481221e-08
2.0982882e-08
2.1171428e-08
2.1355266e-08
2.1726829e-08
2.2229182e-08
2.2733216e-08
2.3224527e-08
2.3831191e-08
2.3866885e-08
2.3485972e-08
2.3066455e-08
2.2772157e-08
2.2614499e-08
2.2712996e-08
2.5453294e-08
2.982249e-08
3.766332e-08
5.2373958e-08
7.6708836e-08
1.0601535e-07
1.1695576e-07
9.0923068e-08
5.9227171e-08
5.484251e-08
3.4848133e-07
3.3951329e-07
2.1903302e-07
5.6318871e-08
6.6176539e-09
7.671404e-10
1.5020182e-09
1.2206387e-09
1.0717288e-09
1.0069557e-09
9.9612106e-10
1.0950872e-09
1.2841626e-09
1.586381e-09
2.058063e-09
2.7862658e-09
3.8833405e-09
5.0818372e-09
6.5861238e-09
8.6305888e-09
1.1286229e-08
1.4603002e-08
1.8596444e-08
2.3117981e-08
2.7545434e-08
3.1127778e-08
3.2685706e-08
3.4141744e-08
4.3004987e-08
6.5752523e-08
7.9604602e-08
9.6075771e-08
1.1079591e-07
1.2594361e-07
1.4070182e-07
1.5551428e-07
1.7018057e-07
1.8471066e-07
1.9900173e-07
2.1295272e-07
2.2647087e-07
2.3945341e-07
2.5181345e-07
2.6347189e-07
2.7437605e-07
2.8446361e-07
2.9367726e-07
3.0197805e-07
3.0932374e-07
3.1574081e-07
3.2111424e-07
3.2557783e-07
3.2909464e-07
3.3170736e-07
3.3348813e-07
3.343519e-07
3.3437523e-07
3.3363093e-07
3.3240569e-07
3.3072304e-07
3.2822298e-07
3.2528467e-07
3.2188247e-07
3.1807127e-07
3.1391162e-07
3.0942743e-07
3.0464595e-07
2.9958508e-07
2.9427031e-07
2.8873962e-07
2.8303007e-07
2.7718073e-07
2.7121075e-07
2.6512704e-07
2.5892052e-07
2.5258473e-07
2.4613176e-07
2.3956067e-07
2.3287363e-07
2.2607067e-07
2.1905769e-07
2.1193656e-07
2.0461381e-07
1.97052e-07
1.8920762e-07
1.8093146e-07
1.7213775e-07
1.6254926e-07
1.5205048e-07
1.4003139e-07
1.2649819e-07
1.0631334e-07
9.6227462e-08
1.0111843e-07
1.0686378e-07
1.1109959e-07
1.1383476e-07
1.1487352e-07
1.158893e-07
1.1790969e-07
1.2061884e-07
1.2331986e-07
1.2593932e-07
1.2915251e-07
1.2925939e-07
1.271369e-07
1.2481891e-07
1.2317737e-07
1.2226497e-07
1.2278342e-07
1.3744869e-07
1.6069898e-07
2.0225631e-07
2.7965354e-07
4.0537585e-07
5.4600248e-07
5.965877e-07
4.7339174e-07
3.1248306e-07
2.9311892e-07
1.3324898e-06
1.3014855e-06
8.4597301e-07
2.2172385e-07
2.6487709e-08
3.0100997e-09
5.8678776e-09
4.7899588e-09
4.2089984e-09
3.9555009e-09
3.9123969e-09
4.2981352e-09
5.0398537e-09
6.2358914e-09
8.1077093e-09
1.0989008e-08
1.5330914e-08
2.0067962e-08
2.600695e-08
3.4080652e-08
4.4575003e-08
5.7683867e-08
7.346615e-08
9.1344199e-08
1.0886365e-07
1.2303897e-07
1.2917496e-07
1.3476332e-07
1.6943426e-07
2.5843266e-07
3.1242814e-07
3.7657274e-07
4.3379609e-07
4.9262295e-07
5.4988888e-07
6.0733574e-07
6.6420371e-07
7.2054792e-07
7.7598749e-07
8.3014701e-07
8.8268295e-07
9.3320949e-07
9.8139996e-07
1.0269544e-06
1.0696781e-06
1.1093291e-06
1.1456793e-06
1.1785715e-06
1.2078312e-06
1.2335549e-06
1.2552748e-06
1.2735e-06
1.2880714e-06
1.2991349e-06
1.3069591e-06
1.3112295e-06
1.3121626e-06
1.3100762e-06
1.3060707e-06
1.3002401e-06
1.2911592e-06
1.2803042e-06
1.2675745e-06
1.2531815e-06
1.2373617e-06
1.2202087e-06
1.2018298e-06
1.1822966e-06
1.1617103e-06
1.1402227e-06
1.1179822e-06
1.095146e-06
1.0717928e-06
1.0479535e-06
1.0235956e-06
9.9869665e-07
9.7330748e-07
9.4742741e-07
9.2106798e-07
8.9423335e-07
8.6655091e-07
8.3843054e-07
8.0950252e-07
7.7962175e-07
7.4861869e-07
7.1590544e-07
6.81145e-07
6.4324286e-07
6.0174434e-07
5.5423885e-07
5.00762e-07
4.2101823e-07
3.8122253e-07
4.0067107e-07
4.2347395e-07
4.4030298e-07
4.5118415e-07
4.5535397e-07
4.594402e-07
4.6743653e-07
4.7805358e-07
4.8854254e-07
4.9862924e-07
5.1089183e-07
5.1079809e-07
5.0201791e-07
4.9252976e-07
4.8569646e-07
4.8168102e-07
4.8350132e-07
5.4010463e-07
6.2921189e-07
7.8720781e-07
1.0779132e-06
1.5371501e-06
2.0116311e-06
2.1627954e-06
1.7418817e-06
1.1719771e-06
1.1194206e-06
3.9939806e-06
3.9213669e-06
2.590822e-06
7.0079325e-07
8.6656918e-08
9.7292311e-09
1.8699351e-08
1.5343357e-08
1.3491082e-08
1.2681002e-08
1.2537784e-08
1.3760477e-08
1.612683e-08
1.9966127e-08
2.5991648e-08
3.5222852e-08
4.9180596e-08
6.4383751e-08
8.3412214e-08
1.0928225e-07
1.4292435e-07
1.8493901e-07
2.3549904e-07
2.9277986e-07
3.4892283e-07
3.9427678e-07
4.1364331e-07
4.3053127e-07
5.3962745e-07
8.1953361e-07
9.8823716e-07
1.1882769e-06
1.3661947e-06
1.5487844e-06
1.7262903e-06
1.9042201e-06
2.0803225e-06
2.2548466e-06
2.4267139e-06
2.594847e-06
2.7582577e-06
2.9158153e-06
3.0665577e-06
3.2095903e-06
3.3443553e-06
3.4700811e-06
3.5860402e-06
3.6917136e-06
3.7865046e-06
3.8706861e-06
3.9426897e-06
4.0040475e-06
4.0541884e-06
4.0934682e-06
4.1226269e-06
4.1408501e-06
4.1483116e-06
4.1462179e-06
4.1379011e-06
4.1236677e-06
4.0989632e-06
4.068375e-06
4.0315868e-06
3.9892425e-06
3.9420786e-06
3.8903896e-06
3.8345138e-06
3.7746811e-06
3.7112178e-06
3.6446139e-06
3.5753531e-06
3.5039505e-06
3.4306723e-06
3.3556361e-06
3.2787552e-06
3.1999752e-06
3.1194725e-06
3.0372624e-06
2.9533968e-06
2.8679127e-06
2.7796073e-06
2.6898423e-06
2.5974254e-06
2.5019103e-06
2.402766e-06
2.2981223e-06
2.186909e-06
2.0656289e-06
1.9328285e-06
1.7807864e-06
1.6096315e-06
1.3543485e-06
1.2270544e-06
1.2897469e-06
1.3631267e-06
1.4173193e-06
1.4523534e-06
1.4658659e-06
1.4790829e-06
1.5045386e-06
1.537921e-06
1.5704202e-06
1.6011947e-06
1.6381331e-06
1.6351305e-06
1.6047754e-06
1.5723814e-06
1.5483417e-06
1.5329733e-06
1.5367806e-06
1.709792e-06
1.9800269e-06
2.4530146e-06
3.3088983e-06
4.6116851e-06
5.8403479e-06
6.1377981e-06
4.9761109e-06
3.4213997e-06
3.3364848e-06
9.8076007e-06
9.7121399e-06
6.6058846e-06
1.8743314e-06
2.4537321e-07
2.7259941e-08
5.1505418e-08
4.253776e-08
3.7437697e-08
3.5201533e-08
3.4788006e-08
3.8134664e-08
4.4653607e-08
5.5275759e-08
7.2002762e-08
9.7453834e-08
1.3611316e-07
1.7819582e-07
2.3070494e-07
3.0207949e-07
3.9490308e-07
5.1072346e-07
6.4991962e-07
8.074843e-07
9.6171382e-07
1.0856637e-06
1.1370202e-06
1.1788227e-06
1.4708435e-06
2.217952e-06
2.6636627e-06
3.1905589e-06
3.6571559e-06
4.1347898e-06
4.5982933e-06
5.0624711e-06
5.5217784e-06
5.9772491e-06
6.4263941e-06
6.8666963e-06
7.2958419e-06
7.711101e-06
8.1101296e-06
8.4907312e-06
8.8515838e-06
9.1905434e-06
9.5056614e-06
9.7954729e-06
1.0058225e-05
1.0294576e-05
1.0499986e-05
1.0678327e-05
1.0827845e-05
1.0949163e-05
1.1043734e-05
1.1110323e-05
1.1147415e-05
1.115889e-05
1.1153203e-05
1.1131202e-05
1.1080579e-05
1.1013235e-05
1.0928346e-05
1.0827525e-05
1.0712689e-05
1.0584603e-05
1.0444157e-05
1.0291967e-05
1.0128914e-05
9.956334e-06
9.7755605e-06
9.588028e-06
9.394498e-06
9.1953597e-06
8.9904433e-06
8.7796467e-06
8.5635057e-06
8.3421201e-06
8.1156851e-06
7.8843972e-06
7.6448978e-06
7.4011457e-06
7.1498112e-06
6.8897523e-06
6.6195564e-06
6.3341543e-06
6.0306358e-06
5.6994495e-06
5.3365766e-06
4.9208185e-06
4.4524013e-06
3.7527358e-06
3.403732e-06
3.5769549e-06
3.7793915e-06
3.9288441e-06
4.0252601e-06
4.0625058e-06
4.0986483e-06
4.1672399e-06
4.2557798e-06
4.3400186e-06
4.4177235e-06
4.509319e-06
4.4899509e-06
4.3969844e-06
4.299174e-06
4.223588e-06
4.1704452e-06
4.1710476e-06
4.610512e-06
5.293475e-06
6.4677554e-06
8.5530446e-06
1.1599503e-05
1.4205351e-05
1.4532647e-05
1.1718974e-05
8.2003883e-06
8.117095e-06
2.02905e-05
2.0320316e-05
1.4414992e-05
4.3632587e-06
6.2131399e-07
6.8613407e-08
1.2713706e-07
1.0587608e-07
9.3315096e-08
8.7790597e-08
8.6716998e-08
9.4919169e-08
1.1100236e-07
1.3731311e-07
1.7881193e-07
2.4151534e-07
3.3710778e-07
4.4131863e-07
5.7065511e-07
7.463281e-07
9.746126e-07
1.2588208e-06
1.599389e-06
1.9837712e-06
2.3582985e-06
2.6557733e-06
2.7719297e-06
2.8574504e-06
3.5448996e-06
5.28843e-06
6.314763e-06
7.5225087e-06
8.5864496e-06
9.6719012e-06
1.0723064e-05
1.1774523e-05
1.2814926e-05
1.3847389e-05
1.4867158e-05
1.5869234e-05
1.6848996e-05
1.780078e-05
1.8719671e-05
1.9601124e-05
2.0442259e-05
2.1237871e-05
2.1983477e-05
2.2675527e-05
2.3309621e-05
2.3887237e-05
2.4397023e-05
2.484751e-05
2.5234199e-05
2.5557815e-05
2.5820397e-05
2.602152e-05
2.6153661e-05
2.622592e-05
2.6257546e-05
2.6250493e-05
2.6176233e-05
2.6060987e-05
2.5902994e-05
2.5705637e-05
2.5473144e-05
2.5207185e-05
2.490972e-05
2.4582122e-05
2.4226387e-05
2.3845592e-05
2.344286e-05
2.3021597e-05
2.2583595e-05
2.2130005e-05
2.1660481e-05
2.1174913e-05
2.0674664e-05
2.0160092e-05
1.963177e-05
1.9090426e-05
1.8527769e-05
1.7953964e-05
1.736078e-05
1.6745709e-05
1.6105441e-05
1.5427981e-05
1.4706321e-05
1.3917589e-05
1.3051786e-05
1.2057682e-05
1.0934634e-05
9.250553e-06
8.4081125e-06
8.8295589e-06
9.3213618e-06
9.6836605e-06
9.9165019e-06
1.0005965e-05
1.0091507e-05
1.0251692e-05
1.0454335e-05
1.064068e-05
1.0805564e-05
1.099507e-05
1.0912283e-05
1.0655441e-05
1.0389378e-05
1.0174665e-05
1.0010536e-05
9.9794078e-06
1.0930226e-05
1.2415722e-05
1.4916169e-05
1.9282964e-05
2.5434182e-05
3.0248064e-05
3.0128971e-05
2.3851677e-05
1.6799779e-05
1.6649784e-05
3.6386621e-05
3.6878101e-05
2.750673e-05
8.9917577e-06
1.4307314e-06
1.5902454e-07
2.879488e-07
2.4231108e-07
2.1400046e-07
2.015011e-07
1.9892938e-07
2.1734374e-07
2.5370765e-07
3.1351591e-07
4.0756701e-07
5.4896976e-07
7.6466026e-07
1.000946e-06
1.291638e-06
1.6857673e-06
2.1967244e-06
2.829975e-06
3.5844448e-06
4.4303216e-06
5.2461105e-06
5.8798756e-06
6.1020966e-06
6.2452499e-06
7.7012591e-06
1.1320215e-05
1.3420589e-05
1.5876317e-05
1.8028659e-05
2.0215476e-05
2.2329193e-05
2.4440416e-05
2.6529211e-05
2.8602982e-05
3.0653746e-05
3.2672554e-05
3.465108e-05
3.6578779e-05
3.844646e-05
4.0246028e-05
4.1971073e-05
4.361087e-05
4.5156493e-05
4.6600641e-05
4.7934078e-05
4.9159895e-05
5.0254158e-05
5.1233527e-05
5.2088648e-05
5.2820029e-05
5.342989e-05
5.3920452e-05
5.4275137e-05
5.4505305e-05
5.4653122e-05
5.4722235e-05
5.4655839e-05
5.4503376e-05
5.4261953e-05
5.3937614e-05
5.3538376e-05
5.3067343e-05
5.2528164e-05
5.1923392e-05
5.1256806e-05
5.0534382e-05
4.9762272e-05
4.8947265e-05
4.8092904e-05
4.7201817e-05
4.6273286e-05
4.5307215e-05
4.4306422e-05
4.3271754e-05
4.2204463e-05
4.1106423e-05
3.9959927e-05
3.8787128e-05
3.75704e-05
3.6304777e-05
3.4983278e-05
3.3580939e-05
3.20826e-05
3.0439948e-05
2.8630231e-05
2.6543725e-05
2.4173703e-05
2.0593266e-05
1.8788914e-05
1.9698542e-05
2.0758636e-05
2.1536497e-05
2.2034047e-05
2.2223342e-05
2.2400747e-05
2.2728316e-05
2.3132334e-05
2.3486885e-05
2.3781815e-05
2.4109627e-05
2.3841232e-05
2.3206587e-05
2.2560228e-05
2.2017895e-05
2.1577148e-05
2.1432691e-05
2.3212132e-05
2.6067242e-05
3.076569e-05
3.8884655e-05
5.0040673e-05
5.8250106e-05
5.6725013e-05
4.3731374e-05
3.0534967e-05
2.979842e-05
5.8409943e-05
5.9825817e-05
4.6961336e-05
1.6632796e-05
3.0160937e-06
3.4549775e-07
6.0803179e-07
5.1822678e-07
4.5893594e-07
4.3262708e-07
4.2682519e-07
4.6523576e-07
5.4169287e-07
6.684419e-07
8.659829e-07
1.1622494e-06
1.6126504e-06
2.110418e-06
2.7146929e-06
3.5310665e-06
4.5842925e-06
5.8790097e-06
7.4061681e-06
9.0973329e-06
1.0698482e-05
1.1898809e-05
1.2247249e-05
1.2440648e-05
1.5269179e-05
2.2031558e-05
2.5916486e-05
3.0417948e-05
3.43498e-05
3.8324818e-05
4.2160695e-05
4.5984014e-05
4.9763966e-05
5.3514366e-05
5.7222671e-05
6.0873618e-05
6.4453101e-05
6.7943095e-05
7.1328033e-05
7.459511e-05
7.7730511e-05
8.0715952e-05
8.3536117e-05
8.6178487e-05
8.8627164e-05
9.0887398e-05
9.2918036e-05
9.4747465e-05
9.6360142e-05
9.775649e-05
9.8939424e-05
9.9913251e-05
0.00010065811
0.00010117486
0.00010154467
0.00010177674
0.00010177213
0.00010161191
0.00010129282
0.00010082434
0.00010021987
9.9484502e-05
9.8624181e-05
9.7642987e-05
9.654705e-05
9.5346312e-05
9.4051106e-05
9.2672998e-05
9.1217985e-05
8.969054e-05
8.8089507e-05
8.64145e-05
8.4670313e-05
8.2858343e-05
8.0980648e-05
7.9040432e-05
7.700668e-05
7.4917739e-05
7.274263e-05
7.0471888e-05
6.8092167e-05
6.555771e-05
6.2839159e-05
5.9846619e-05
5.6533353e-05
5.2691784e-05
4.8294193e-05
4.1583914e-05
3.8158187e-05
3.989602e-05
4.1921598e-05
4.3401684e-05
4.4345037e-05
4.4702672e-05
4.5031286e-05
4.562549e-05
4.6336035e-05
4.6924799e-05
4.7375567e-05
4.7858261e-05
4.7168621e-05
4.5788165e-05
4.4410606e-05
4.3217542e-05
4.2208718e-05
4.1798846e-05
4.4738349e-05
4.9707389e-05
5.7723944e-05
7.1504877e-05
9.018497e-05
0.00010351412
9.9396257e-05
7.4610326e-05
5.1005319e-05
4.8249426e-05
8.6564062e-05
8.9368955e-05
7.3495399e-05
2.8035945e-05
5.8316779e-06
7.1271575e-07
1.210734e-06
1.0473719e-06
9.3075073e-07
8.7863229e-07
8.6609081e-07
9.4113627e-07
1.0922856e-06
1.3444805e-06
1.7331102e-06
2.3149234e-06
3.193416e-06
4.1764871e-06
5.3475213e-06
6.9197136e-06
8.9311053e-06
1.1371555e-05
1.4205734e-05
1.728362e-05
2.0116446e-05
2.213775e-05
2.2553335e-05
2.2771587e-05
2.7907311e-05
3.9420286e-05
4.6031513e-05
5.3592897e-05
6.0190202e-05
6.6817331e-05
7.3200478e-05
7.9540517e-05
8.5795222e-05
9.1985519e-05
9.8092798e-05
0.00010409238
0.00010996224
0.00011567449
0.00012120586
0.0001265375
0.00013164438
0.00013650065
0.00014108382
0.00014537606
0.00014935504
0.0001530267
0.00015633446
0.0001593195
0.00016196114
0.00016426068
0.00016622315
0.00016785476
0.00016913916
0.00017005952
0.00017073946
0.00017120859
0.00017131124
0.00017116603
0.0001707714
0.00017014081
0.00016929458
0.0001682404
0.00016698701
0.00016554032
0.0001639092
0.00016210834
0.00016015312
0.0001580608
0.00015584079
0.00015349885
0.00015103362
0.00014844383
0.00014573645
0.00014291326
0.00013997693
0.00013693079
0.00013373147
0.00013042993
0.00012698266
0.00012337209
0.00011957517
0.00011551751
0.00011114844
0.00010631984
0.00010094655
9.4681219e-05
8.7449079e-05
7.6306893e-05
7.0517547e-05
7.3462438e-05
7.6909815e-05
7.9423561e-05
8.1029221e-05
8.1649509e-05
8.2213517e-05
8.3196604e-05
8.4330929e-05
8.5216883e-05
8.583492e-05
8.6484555e-05
8.5031966e-05
8.2397864e-05
7.9844184e-05
7.7575706e-05
7.5612015e-05
7.4750177e-05
7.9201279e-05
8.7133713e-05
9.9889019e-05
0.00012164968
0.00015088941
0.00017156342
0.00016398794
0.00012092118
8.0560786e-05
7.3057386e-05
0.00012156733
0.00012603509
0.00010781722
4.378994e-05
1.0361438e-05
1.4083092e-06
2.293001e-06
2.0162378e-06
1.7990826e-06
1.7009297e-06
1.6745908e-06
1.8123697e-06
2.095571e-06
2.5680391e-06
3.2888937e-06
4.3668655e-06
5.9756246e-06
7.804372e-06
9.9309036e-06
1.2756262e-05
1.6324763e-05
2.0574784e-05
2.5406051e-05
3.0514729e-05
3.5043936e-05
3.8082405e-05
3.8388914e-05
3.8640802e-05
4.7496701e-05
6.5597174e-05
7.6118515e-05
8.7930137e-05
9.8240159e-05
0.00010850811
0.00011836937
0.00012811146
0.00013768511
0.00014711816
0.0001563863
0.00016545345
0.00017428941
0.00018285613
0.00019112352
0.00019906525
0.00020664476
0.00021383098
0.00022059519
0.00022691599
0.00023276673
0.00023815152
0.00024300516
0.00024738066
0.00025125514
0.00025463222
0.00025752097
0.00025993016
0.00026185191
0.00026324895
0.00026428748
0.00026503025
0.00026525635
0.00026512383
0.00026463596
0.00026381053
0.00026267608
0.00026124351
0.00025952481
0.00025752795
0.00025526483
0.00025275546
0.00025002086
0.00024708469
0.00024396019
0.0002406546
0.00023716566
0.00023349084
0.00022963948
0.00022561334
0.00022141535
0.00021704737
0.00021245659
0.00020770018
0.00020272478
0.00019750064
0.00019199187
0.00018608895
0.00017971308
0.00017264407
0.00016474368
0.00015548954
0.00014472836
0.00012804009
0.00011918723
0.00012367542
0.00012898938
0.00013287548
0.00013538628
0.00013640763
0.00013734022
0.00013887747
0.0001405861
0.00014185994
0.00014268609
0.00014356259
0.00014098373
0.00013653016
0.00013235482
0.00012858743
0.00012528606
0.00012383981
0.00013024897
0.00014199334
0.00016122277
0.00019351757
0.00023651868
0.00026696325
0.00025580867
0.0001879098
0.00012255277
0.00010607218
0.00016556658
0.00017099287
0.00015094843
6.4457317e-05
1.7001641e-05
2.6790671e-06
4.1579034e-06
3.7177367e-06
3.3324877e-06
3.1549285e-06
3.1007003e-06
3.3381352e-06
3.8439212e-06
4.6775515e-06
5.9441352e-06
7.8365817e-06
1.0615794e-05
1.3817974e-05
1.7456111e-05
2.2205272e-05
2.8099211e-05
3.4956351e-05
4.2550227e-05
5.0328095e-05
5.6930955e-05
6.1060183e-05
6.1008253e-05
6.1451469e-05
7.6047875e-05
0.000102677
0.0001185125
0.00013585662
0.00015100725
0.0001659358
0.00018021565
0.00019422729
0.00020792711
0.00022135088
0.00023447286
0.00024724632
0.00025963574
0.00027159524
0.00028309062
0.00029408757
0.00030454122
0.00031441878
0.00032368725
0.00033232429
0.00034030115
0.00034761966
0.00035421085
0.00036013991
0.00036538478
0.00036995264
0.00037385857
0.00037711523
0.00037972458
0.00038162999
0.00038304133
0.00038405994
0.0003843982
0.00038425218
0.0003836336
0.00038256468
0.00038108335
0.00037920429
0.00037694313
0.00037431012
0.00037132042
0.00036799979
0.00036437541
0.00036047786
0.0003563247
0.00035192448
0.00034727368
0.00034236854
0.00033722014
0.00033183025
0.00032620172
0.00032033387
0.00031416589
0.00030775757
0.00030104632
0.00029398709
0.00028652835
0.00027852056
0.00026985079
0.00026021628
0.00024941228
0.00023671556
0.00022186322
0.00019876906
0.00018622955
0.00019251332
0.00020010285
0.00020570691
0.00020940454
0.00021103412
0.00021254546
0.00021487491
0.00021737633
0.00021919894
0.00022035739
0.00022160711
0.00021759375
0.000210835
0.00020462729
0.00019904267
0.00019412569
0.00019209755
0.00020107876
0.00021736703
0.00024503922
0.00029041835
0.00035019995
0.00039274551
0.00037858311
0.00028067444
0.00018126006
0.00014940351
0.00022108974
0.00022607639
0.0002043645
9.0810291e-05
2.5983199e-05
4.9103357e-06
7.2575969e-06
6.5924881e-06
5.9378419e-06
5.6255211e-06
5.5158285e-06
5.8977917e-06
6.7600243e-06
8.1491058e-06
1.0263876e-05
1.3419895e-05
1.7965342e-05
2.3243887e-05
2.9138105e-05
3.6626594e-05
4.572292e-05
5.6027428e-05
6.7116492e-05
7.8093315e-05
8.7007742e-05
9.2176233e-05
9.158621e-05
9.2767066e-05
0.00011551978
0.00015267786
0.00017535973
0.00019948968
0.00022058201
0.00024112532
0.00026068839
0.00027974681
0.00029828301
0.00031634327
0.000333908
0.00035092272
0.00036735143
0.00038314409
0.00039826509
0.00041267333
0.00042631969
0.00043917308
0.0004511981
0.00046237406
0.00047267169
0.00048209075
0.00049056167
0.00049816267
0.00050487513
0.00051071066
0.00051569199
0.0005198372
0.00052315691
0.0005255782
0.00052735769
0.00052863452
0.00052905765
0.00052885788
0.00052805909
0.00052668797
0.00052479288
0.0005223928
0.00051950737
0.00051614934
0.0005123373
0.00050810321
0.00050348086
0.00049850827
0.00049320777
0.00048758909
0.00048164723
0.00047537698
0.00046879093
0.00046189077
0.00045467887
0.0004471515
0.00043924078
0.00043100626
0.00042237596
0.00041328719
0.00040367015
0.00039333129
0.00038211813
0.00036963706
0.00035560419
0.00033907627
0.00031965229
0.00028947184
0.00027265756
0.00028090583
0.00029115726
0.00029885338
0.00030407691
0.00030660633
0.00030899829
0.00031244839
0.00031605104
0.00031867858
0.00032040845
0.00032224959
0.00031658375
0.00030724354
0.00029856634
0.00029099922
0.00028433634
0.00028188965
0.00029416702
0.00031565011
0.00035380417
0.00041465102
0.00049390335
0.00055065974
0.00053443139
0.0004032736
0.00026138809
0.00020615779
0.00029099426
0.00029367099
0.0002699697
0.00012414715
3.7202119e-05
8.6373657e-06
1.2242476e-05
1.1274075e-05
1.0204444e-05
9.6627684e-06
9.4458407e-06
1.0016259e-05
1.1416345e-05
1.3608222e-05
1.6979708e-05
2.198664e-05
2.9053373e-05
3.7252332e-05
4.6350567e-05
5.7475731e-05
7.0668873e-05
8.5203396e-05
0.00010039985
0.00011494948
0.00012631029
0.00013237104
0.00013132066
0.00013427547
0.00016779578
0.00021739462
0.00024844494
0.00028048646
0.0003085172
0.00033551593
0.00036111861
0.00038589604
0.00040987922
0.00043312815
0.00045563764
0.00047734869
0.00049822992
0.00051823053
0.00053731531
0.00055543851
0.00057255007
0.00058862341
0.00060362187
0.00061752857
0.00063031465
0.00064197779
0.00065245007
0.00066182347
0.00067008522
0.00067725173
0.00068335485
0.00068841922
0.0006924628
0.00069539826
0.00069753549
0.00069904571
0.00069952073
0.00069922189
0.00069818884
0.0006964528
0.00069407355
0.0006910749
0.00068748081
0.00068330677
0.00067857499
0.00067332403
0.00066759481
0.00066143331
0.00065486705
0.00064790688
0.00064054609
0.00063277791
0.00062461612
0.00061606234
0.00060711815
0.00059777626
0.00058796288
0.00057773406
0.00056700826
0.0005557031
0.00054372784
0.00053084158
0.00051684641
0.00050125067
0.00048367956
0.00046295269
0.00043850596
0.00040064575
0.00037894933
0.0003892612
0.00040255483
0.00041276359
0.00041992051
0.0004237299
0.00042739749
0.00043239039
0.00043749814
0.00044128842
0.00044395477
0.00044661691
0.00043917179
0.00042716759
0.00041568977
0.00040599756
0.0003975928
0.00039503044
0.00041137391
0.00043859714
0.00048927841
0.00056775663
0.00066885759
0.00074170172
0.00072449023
0.00055844951
0.00036743378
0.0002800508
0.00037833424
0.00037653663
0.00034995924
0.00016627937
5.1372093e-05
1.4463517e-05
1.997989e-05
1.8632317e-05
1.6945277e-05
1.6009516e-05
1.5594042e-05
1.6381248e-05
1.8536901e-05
2.1825576e-05
2.69889e-05
3.4562644e-05
4.50554e-05
5.7085181e-05
7.0529999e-05
8.6201699e-05
0.00010430817
0.00012371937
0.00014347324
0.00016182447
0.00017570455
0.00018254419
0.00018147225
0.00018773298
0.0002345776
0.00029829511
0.00033911754
0.00038003761
0.00041587906
0.00045006896
0.00048237536
0.00051346572
0.00054343812
0.00057236949
0.00060027571
0.00062709591
0.00065280756
0.00067736143
0.00070072396
0.00072284695
0.00074368139
0.00076320756
0.00078138794
0.00079821128
0.00081364947
0.00082769785
0.00084029162
0.00085153737
0.00086143051
0.00086999214
0.00087726464
0.00088328009
0.00088806237
0.00089151088
0.00089399782
0.00089571742
0.00089621227
0.00089576995
0.00089444915
0.00089228588
0.0008893522
0.00088567729
0.00088128983
0.00087620823
0.00087045853
0.00086408634
0.00085714021
0.00084967463
0.00084172275
0.00083329649
0.00082438724
0.00081498653
0.00080510908
0.00079475642
0.00078392906
0.00077261587
0.00076073805
0.00074834455
0.00073534432
0.00072163323
0.00070709682
0.00069144344
0.00067442405
0.00065544267
0.00063401884
0.00060871871
0.00057879748
0.00053269302
0.00050545246
0.00051786648
0.00053458278
0.00054777816
0.00055734753
0.00056290408
0.00056833197
0.00057538047
0.00058249094
0.00058790354
0.00059200173
0.00059563734
0.00058637267
0.00057183386
0.00055740112
0.00054531526
0.00053527857
0.00053300787
0.00055417283
0.00058753616
0.00065279068
0.00075084035
0.00087592129
0.00096655784
0.00094946475
0.00074789799
0.00050323813
0.00037496485
0.00048631316
0.00047761127
0.00044657024
0.0002197345
6.8389625e-05
2.2541137e-05
3.1296432e-05
2.9791068e-05
2.7218251e-05
2.5618499e-05
2.4849871e-05
2.5847133e-05
2.8986273e-05
3.371408e-05
4.1332247e-05
5.2307593e-05
6.726741e-05
8.4021833e-05
0.00010301783
0.00012415442
0.00014783498
0.00017259146
0.00019719406
0.00021948004
0.00023593219
0.00024358883
0.00024331965
0.0002548608
0.00031730274
0.00039650882
0.0004483429
0.00049897819
0.00054339898
0.0005854486
0.00062506545
0.00066302205
0.00069949343
0.00073457742
0.0007683151
0.00080064557
0.00083155841
0.00086100722
0.00088896111
0.00091537137
0.00094019084
0.00096340888
0.0009849869
0.0010049209
0.0010231835
0.0010397673
0.0010546114
0.0010678382
0.0010794535
0.0010894829
0.0010979804
0.0011049865
0.0011105293