/*--------------------------------*- C++ -*----------------------------------*\
| =========                 |                                                 |
| \\      /  F ield         | OpenFOAM: The Open Source CFD Toolbox           |
|  \\    /   O peration     | Version:  2.4.0                                 |
|   \\  /    A nd           | Web:      www.OpenFOAM.org                      |
|    \\/     M anipulation  |                                                 |
\*---------------------------------------------------------------------------*/
FoamFile
{
    version     2.0;
    format      ascii;
    class       surfaceScalarField;
    location    "20000";
    object      phi;
}
// * * * * * * * * * * * * * * * * * * * * * * * * * * * * * * * * * * * * * //

dimensions      [0 3 -1 0 0 0 0];

internalField   nonuniform List<scalar> 
30950
(
1.7294454e-06
-3.6935623e-07
1.8042149e-06
-7.4768844e-08
9.5905654e-07
8.4515836e-07
-2.763104e-07
1.2353731e-06
-8.0222018e-07
5.2591239e-07
-6.3414187e-07
-1.6807832e-07
-4.3786258e-07
-1.9628532e-07
-3.5167368e-07
-8.6184968e-08
-3.0238464e-07
-4.9272864e-08
-2.6722256e-07
-3.5148652e-08
-2.4390794e-07
-2.3310953e-08
-2.4049801e-07
-3.4210151e-09
-2.4998391e-07
9.4740213e-09
-2.7369315e-07
2.3705599e-08
-3.1104264e-07
3.7348575e-08
-3.5621734e-07
4.5181124e-08
-3.9995174e-07
4.3731543e-08
-4.4039495e-07
4.0446897e-08
-4.754983e-07
3.5111379e-08
-5.0065257e-07
2.5147079e-08
-5.1355029e-07
1.2868418e-08
-5.1890223e-07
5.3471997e-09
-5.1653581e-07
-2.3661022e-09
-4.9865428e-07
-1.7882163e-08
-4.6565108e-07
-3.3002536e-08
-4.1677627e-07
-4.887437e-08
-3.9697592e-07
-1.9800257e-08
-5.4964215e-07
1.5266678e-07
-7.8053833e-07
2.3089712e-07
-9.5478944e-07
1.7425197e-07
-1.0899437e-06
1.3515573e-07
-1.2022824e-06
1.1234029e-07
-1.2968545e-06
9.4573106e-08
-1.378625e-06
8.1771409e-08
-1.4500928e-06
7.1467673e-08
-1.5128143e-06
6.2722465e-08
-1.5676125e-06
5.479768e-08
-1.6148881e-06
4.7275762e-08
-1.654815e-06
3.99265e-08
-1.6874837e-06
3.2668925e-08
-1.7130318e-06
2.5547877e-08
-1.7316094e-06
1.8577252e-08
-1.7434311e-06
1.1821725e-08
-1.7487622e-06
5.3301994e-09
-1.7477904e-06
-9.7174964e-10
-1.7406749e-06
-7.1152121e-09
-1.7276898e-06
-1.2985001e-08
-1.7091556e-06
-1.8534827e-08
-1.6854205e-06
-2.373538e-08
-1.6568356e-06
-2.8585931e-08
-1.6237908e-06
-3.3045719e-08
-1.5867343e-06
-3.705789e-08
-1.5460924e-06
-4.0642696e-08
-1.5022866e-06
-4.3806205e-08
-1.4557362e-06
-4.6550235e-08
-1.4068187e-06
-4.8917426e-08
-1.3559581e-06
-5.0860548e-08
-1.3035841e-06
-5.237408e-08
-1.2500594e-06
-5.3524476e-08
-1.1956421e-06
-5.441678e-08
-1.140642e-06
-5.499965e-08
-1.0853731e-06
-5.5268445e-08
-1.0300744e-06
-5.5298587e-08
-9.7500022e-07
-5.5074055e-08
-9.2032673e-07
-5.4673429e-08
-8.6622917e-07
-5.4097899e-08
-8.1285972e-07
-5.3369441e-08
-7.603756e-07
-5.2484423e-08
-7.089351e-07
-5.1440783e-08
-6.5867676e-07
-5.0258712e-08
-6.0972297e-07
-4.8954259e-08
-5.6215835e-07
-4.7565062e-08
-5.1603994e-07
-4.6118955e-08
-4.7141961e-07
-4.4620832e-08
-4.2835829e-07
-4.3061633e-08
-3.8693744e-07
-4.1421127e-08
-3.4721669e-07
-3.9721174e-08
-3.0925621e-07
-3.7961021e-08
-2.7311943e-07
-3.6137223e-08
-2.3887249e-07
-3.4247157e-08
-2.0664607e-07
-3.2226968e-08
-1.7657855e-07
-3.0067934e-08
-1.4886794e-07
-2.77107e-08
-1.2370371e-07
-2.5164352e-08
-1.01388e-07
-2.2315999e-08
-8.2292442e-08
-1.9095856e-08
-6.7042415e-08
-1.5250126e-08
-5.6447134e-08
-1.059538e-08
-5.1736864e-08
-4.7103652e-09
-5.479471e-08
3.0576349e-09
-6.7688162e-08
1.2893391e-08
-9.9967634e-08
3.2279397e-08
-1.3587119e-07
3.590341e-08
-1.358246e-07
-4.6827695e-11
-1.2040474e-07
-1.5419877e-08
-8.9833023e-08
-3.0571756e-08
-4.7251421e-08
-4.2581373e-08
7.6979635e-09
-5.4949217e-08
7.7484456e-08
-6.9786423e-08
1.665072e-07
-8.9022783e-08
2.7033605e-07
-1.0382882e-07
3.859386e-07
-1.156026e-07
5.0902174e-07
-1.2308305e-07
6.3381177e-07
-1.2479009e-07
7.457307e-07
-1.1191896e-07
8.4853524e-07
-1.0280438e-07
9.5186594e-07
-1.0333082e-07
1.0626333e-06
-1.1076737e-07
1.1919566e-06
-1.293235e-07
1.3694733e-06
-1.7751676e-07
1.6497859e-06
-2.8031254e-07
2.045639e-06
-3.9585321e-07
2.6166025e-06
-5.709632e-07
3.4461698e-06
-8.2956663e-07
4.5539192e-06
-1.1077491e-06
5.338955e-06
-7.8503546e-07
4.7457013e-06
5.9325384e-07
3.1662828e-06
1.5794189e-06
1.8540362e-06
1.3122466e-06
4.9394751e-07
5.8445458e-06
-1.3403897e-06
5.8725028e-06
-1.0272518e-07
3.3576834e-06
3.3599779e-06
-6.6522051e-07
5.2582845e-06
-2.4753917e-06
2.3360874e-06
-2.05097e-06
-5.924986e-07
-1.4195861e-06
-8.2767769e-07
-1.1482366e-06
-3.5753068e-07
-9.8510447e-07
-2.1238588e-07
-8.7546236e-07
-1.4477369e-07
-8.0124873e-07
-9.7517638e-08
-7.9171313e-07
-1.2967441e-08
-8.2408712e-07
4.1836099e-08
-9.0219322e-07
1.018071e-07
-1.0237205e-06
1.5887397e-07
-1.169445e-06
1.9091279e-07
-1.3110894e-06
1.8537195e-07
-1.4417914e-06
1.7115498e-07
-1.5556913e-06
1.4902261e-07
-1.6382942e-06
1.0774196e-07
-1.6837027e-06
5.8282336e-08
-1.7050431e-06
2.6683076e-08
-1.7026559e-06
-4.7512329e-09
-1.6512632e-06
-6.9274729e-08
-1.5561381e-06
-1.2812719e-07
-1.4098913e-06
-1.9512067e-07
-1.376419e-06
-5.3272412e-08
-1.8670823e-06
6.4333061e-07
-2.5996861e-06
9.6350202e-07
-3.1589497e-06
7.3351659e-07
-3.5898749e-06
5.6608274e-07
-3.9486432e-06
4.7111053e-07
-4.2496452e-06
3.9557635e-07
-4.5097317e-06
3.4185895e-07
-4.7363031e-06
2.9803903e-07
-4.9346507e-06
2.6107107e-07
-5.1072247e-06
2.2737114e-07
-5.2554455e-06
1.9549642e-07
-5.3798515e-06
1.6433197e-07
-5.4808315e-06
1.3364878e-07
-5.5588429e-06
1.0355887e-07
-5.6144332e-06
7.4167032e-08
-5.6483236e-06
4.5711987e-08
-5.6614129e-06
1.8418339e-08
-5.6543145e-06
-8.0701516e-09
-5.627559e-06
-3.3870403e-08
-5.582052e-06
-5.8491818e-08
-5.5188421e-06
-8.1745393e-08
-5.4390601e-06
-1.0351777e-07
-5.3438463e-06
-1.2380081e-07
-5.2344649e-06
-1.4242828e-07
-5.1123484e-06
-1.5917585e-07
-4.9788632e-06
-1.7412899e-07
-4.8353621e-06
-1.8730772e-07
-4.6831766e-06
-1.987356e-07
-4.5235256e-06
-2.0856834e-07
-4.3577497e-06
-2.1663655e-07
-4.1872187e-06
-2.2290507e-07
-4.0130842e-06
-2.2765865e-07
-3.8361781e-06
-2.3132233e-07
-3.6574813e-06
-2.3369584e-07
-3.4779876e-06
-2.3476171e-07
-3.2984711e-06
-2.3481493e-07
-3.1197238e-06
-2.3382132e-07
-2.9423234e-06
-2.3207385e-07
-2.7668197e-06
-2.2960196e-07
-2.5937079e-06
-2.2648133e-07
-2.423488e-06
-2.2270471e-07
-2.2566656e-06
-2.1826362e-07
-2.0936838e-06
-2.1324106e-07
-1.9349315e-06
-2.07707e-07
-1.7806815e-06
-2.0181558e-07
-1.6311201e-06
-1.9568091e-07
-1.4864181e-06
-1.8932341e-07
-1.346776e-06
-1.8270396e-07
-1.2124567e-06
-1.7574072e-07
-1.0836541e-06
-1.6852422e-07
-9.6057444e-07
-1.6104124e-07
-8.4341471e-07
-1.5329738e-07
-7.324231e-07
-1.4523908e-07
-6.2799419e-07
-1.3665641e-07
-5.3062452e-07
-1.2743806e-07
-4.4089666e-07
-1.1743858e-07
-3.5950985e-07
-1.0655128e-07
-2.873359e-07
-9.4490233e-08
-2.2574331e-07
-8.0688829e-08
-1.7654658e-07
-6.444693e-08
-1.4268293e-07
-4.4459121e-08
-1.2769752e-07
-1.9695856e-08
-1.3832446e-07
1.3684241e-08
-1.8049251e-07
5.5061403e-08
-2.8629203e-07
1.3807883e-07
-3.9842605e-07
1.4803731e-07
-3.9997133e-07
1.4982047e-09
-3.4713458e-07
-6.8256486e-08
-2.4863763e-07
-1.2906867e-07
-1.0921136e-07
-1.8200723e-07
6.820648e-08
-2.3236686e-07
2.9453928e-07
-2.961191e-07
5.8013256e-07
-3.7461599e-07
9.1331169e-07
-4.3700774e-07
1.2824153e-06
-4.8470611e-07
1.6759174e-06
-5.165848e-07
2.0733542e-06
-5.2222677e-07
2.4325798e-06
-4.7114438e-07
2.7634572e-06
-4.3368147e-07
3.0949665e-06
-4.3484007e-07
3.4508827e-06
-4.6668337e-07
3.8629875e-06
-5.4142814e-07
4.4312809e-06
-7.4580969e-07
5.311265e-06
-1.1602965e-06
6.5633289e-06
-1.6479171e-06
8.3560166e-06
-2.3636503e-06
1.0958272e-05
-3.4318216e-06
1.4372382e-05
-4.521859e-06
1.6832675e-05
-3.2453275e-06
1.5197122e-05
2.2288069e-06
1.0592835e-05
6.183706e-06
6.3283283e-06
5.5767532e-06
1.9487635e-06
1.1006073e-05
-2.8017674e-06
1.0858494e-05
4.485508e-08
6.4749746e-06
7.7434975e-06
-8.4707277e-07
1.2580338e-05
-4.3388599e-06
5.827878e-06
-3.7290046e-06
-1.2023514e-06
-2.5984992e-06
-1.9581859e-06
-2.1092538e-06
-8.467685e-07
-1.8093766e-06
-5.1224576e-07
-1.6129743e-06
-3.4116362e-07
-1.4794381e-06
-2.3105212e-07
-1.4637287e-06
-2.8688602e-08
-1.524946e-06
1.030423e-07
-1.6692139e-06
2.4607444e-07
-1.8917147e-06
3.8137563e-07
-2.157135e-06
4.5633688e-07
-2.415562e-06
4.437942e-07
-2.6537583e-06
4.0936001e-07
-2.8617428e-06
3.570196e-07
-3.0140519e-06
2.6003749e-07
-3.1015642e-06
1.4578496e-07
-3.146398e-06
7.151441e-08
-3.1498171e-06
-1.3314303e-09
-3.0673069e-06
-1.5178526e-07
-2.911407e-06
-2.840266e-07
-2.6690932e-06
-4.3743395e-07
-2.6497116e-06
-7.2653623e-08
-3.5416141e-06
1.5352341e-06
-4.8535462e-06
2.2754355e-06
-5.8616771e-06
1.7416489e-06
-6.6362939e-06
1.3407014e-06
-7.2808663e-06
1.115685e-06
-7.8206146e-06
9.3532605e-07
-8.2863532e-06
8.0759859e-07
-8.6910432e-06
7.0272899e-07
-9.04438e-06
6.1440916e-07
-9.3506754e-06
5.3366598e-07
-9.6125981e-06
4.574193e-07
-9.8311577e-06
3.828912e-07
-1.000717e-05
3.0966093e-07
-1.0141518e-05
2.3790653e-07
-1.0235278e-05
1.6792661e-07
-1.0289818e-05
1.0025164e-07
-1.030682e-05
3.5419574e-08
-1.0287404e-05
-2.7486431e-08
-1.0232567e-05
-8.8707178e-08
-1.0144005e-05
-1.4705342e-07
-1.0023644e-05
-2.0210722e-07
-9.8735496e-06
-2.5361257e-07
-9.6958034e-06
-3.0154831e-07
-9.4927069e-06
-3.4552591e-07
-9.2668425e-06
-3.8504177e-07
-9.0206737e-06
-4.2029876e-07
-8.7566416e-06
-4.5134021e-07
-8.4771347e-06
-4.782422e-07
-8.1843569e-06
-5.0134599e-07
-7.8807032e-06
-5.2029021e-07
-7.5686299e-06
-5.349784e-07
-7.2502007e-06
-5.460875e-07
-6.9269172e-06
-5.5460521e-07
-6.6005316e-06
-5.600807e-07
-6.2728206e-06
-5.6247213e-07
-5.9451836e-06
-5.6245166e-07
-5.6190242e-06
-5.5998053e-07
-5.2953933e-06
-5.5570468e-07
-4.9752733e-06
-5.4972219e-07
-4.6595627e-06
-5.4219194e-07
-4.3491602e-06
-5.3310747e-07
-4.0449744e-06
-5.2244975e-07
-3.7478026e-06
-5.1041332e-07
-3.4583425e-06
-4.9716769e-07
-3.1770874e-06
-4.8307121e-07
-2.9043794e-06
-4.6838956e-07
-2.6405341e-06
-4.5316936e-07
-2.3859215e-06
-4.3731698e-07
-2.1410186e-06
-4.2064398e-07
-1.9061826e-06
-4.0336066e-07
-1.6818007e-06
-3.8542384e-07
-1.4682317e-06
-3.6686692e-07
-1.2659605e-06
-3.4751049e-07
-1.0756902e-06
-3.2692744e-07
-8.9836271e-07
-3.0476605e-07
-7.3499907e-07
-2.8080233e-07
-5.8693654e-07
-2.5461394e-07
-4.5569295e-07
-2.2573416e-07
-3.4388365e-07
-1.9249849e-07
-2.5467344e-07
-1.5365728e-07
-1.9363555e-07
-1.0549712e-07
-1.6693021e-07
-4.6401327e-08
-1.8722405e-07
3.3977797e-08
-2.6508469e-07
1.3292193e-07
-4.5842325e-07
3.3141733e-07
-6.5799955e-07
3.4761344e-07
-6.615863e-07
5.0847113e-09
-5.6300135e-07
-1.6684138e-07
-3.8415313e-07
-3.0791686e-07
-1.2968416e-07
-4.3647585e-07
1.9229044e-07
-5.5434126e-07
6.036924e-07
-7.0752097e-07
1.1202643e-06
-8.9118782e-07
1.7228608e-06
-1.0396041e-06
2.3890959e-06
-1.1509411e-06
3.0997398e-06
-1.2272284e-06
3.8164534e-06
-1.2389403e-06
4.4674082e-06
-1.122099e-06
5.068581e-06
-1.034854e-06
5.670319e-06
-1.0365781e-06
6.3164555e-06
-1.1128197e-06
7.0621056e-06
-1.287078e-06
8.0904139e-06
-1.7741178e-06
9.6649278e-06
-2.7348102e-06
1.1907733e-05
-3.8907221e-06
1.5100798e-05
-5.5567144e-06
1.9709262e-05
-8.0402852e-06
2.5671457e-05
-1.0484054e-05
3.0005323e-05
-7.5791933e-06
2.7439198e-05
4.7949325e-06
1.9735438e-05
1.3887466e-05
1.2142604e-05
1.3169587e-05
4.5466723e-06
1.7412697e-05
-4.6027284e-06
1.6995078e-05
4.6247516e-07
1.045555e-05
1.4283026e-05
-7.0346572e-07
2.3739362e-05
-6.3758403e-06
1.1500257e-05
-5.6860612e-06
-1.8921276e-06
-4.0030173e-06
-3.641236e-06
-3.2568121e-06
-1.5929661e-06
-2.7970014e-06
-9.7203651e-07
-2.4994417e-06
-6.3871005e-07
-2.2983227e-06
-4.32168e-07
-2.2768588e-06
-5.0164614e-08
-2.3742689e-06
2.0044202e-07
-2.5984477e-06
4.7025356e-07
-2.9410208e-06
7.2394931e-07
-3.3478164e-06
8.6313714e-07
-3.744138e-06
8.4011033e-07
-4.1092624e-06
7.7449413e-07
-4.4285906e-06
6.7636114e-07
-4.6650697e-06
4.9650406e-07
-4.8064928e-06
2.8720317e-07
-4.8850745e-06
1.500937e-07
-4.9028871e-06
1.6484069e-08
-4.7955719e-06
-2.5909986e-07
-4.5839004e-06
-4.9569796e-07
-4.2560277e-06
-7.6530612e-07
-4.2857892e-06
-4.2891957e-08
-5.65156e-06
2.9010058e-06
-7.6258353e-06
4.2497122e-06
-9.1503743e-06
3.2661892e-06
-1.0320382e-05
2.5107117e-06
-1.1292288e-05
2.0875923e-06
-1.2104965e-05
1.7480051e-06
-1.2804832e-05
1.507467e-06
-1.341142e-05
1.3093164e-06
-1.3939369e-05
1.1423598e-06
-1.439521e-05
9.895063e-07
-1.4783063e-05
8.4527181e-07
-1.5104578e-05
7.0440553e-07
-1.5361138e-05
5.6622078e-07
-1.5554203e-05
4.3097077e-07
-1.568553e-05
2.9925293e-07
-1.5757309e-05
1.720309e-07
-1.5772161e-05
5.0269454e-08
-1.573179e-05
-6.7857462e-08
-1.5637802e-05
-1.8269439e-07
-1.5492887e-05
-2.9196905e-07
-1.5300014e-05
-3.9498042e-07
-1.506236e-05
-4.9126747e-07
-1.4783117e-05
-5.807922e-07
-1.4465805e-05
-6.6283964e-07
-1.4114336e-05
-7.3651188e-07
-1.3732442e-05
-8.0219461e-07
-1.3323817e-05
-8.5996557e-07
-1.2892066e-05
-9.0999241e-07
-1.2440528e-05
-9.5288479e-07
-1.1972798e-05
-9.8801991e-07
-1.1492571e-05
-1.0152051e-06
-1.1002958e-05
-1.0357003e-06
-1.0506227e-05
-1.0513359e-06
-1.0005006e-05
-1.0613002e-06
-9.5019679e-06
-1.0655099e-06
-8.9992257e-06
-1.0651936e-06
-8.4988787e-06
-1.0603275e-06
-8.0025215e-06
-1.0520619e-06
-7.5116356e-06
-1.0406084e-06
-7.0275847e-06
-1.0262429e-06
-6.5517286e-06
-1.008964e-06
-6.0854375e-06
-9.8874124e-07
-5.629916e-06
-9.6593538e-07
-5.1862153e-06
-9.4086892e-07
-4.7550854e-06
-9.1420165e-07
-4.3370538e-06
-8.8642184e-07
-3.932611e-06
-8.5761283e-07
-3.5423307e-06
-8.2759765e-07
-3.1669414e-06
-7.960336e-07
-2.8069988e-06
-7.6330376e-07
-2.4631075e-06
-7.2931569e-07
-2.1358298e-06
-6.9414508e-07
-1.8259424e-06
-6.5739821e-07
-1.5345232e-06
-6.1834729e-07
-1.2630394e-06
-5.7625036e-07
-1.0130389e-06
-5.308029e-07
-7.8660546e-07
-4.8104748e-07
-5.8604116e-07
-4.2629875e-07
-4.1542121e-07
-3.6311889e-07
-2.7954376e-07
-2.8953482e-07
-1.8704673e-07
-1.9799426e-07
-1.4725024e-07
-8.6197911e-08
-1.7963816e-07
6.6365324e-08
-3.0091516e-07
2.5419888e-07
-5.9677335e-07
6.2727544e-07
-8.9664663e-07
6.4748659e-07
-9.013863e-07
9.8241475e-09
-7.4819129e-07
-3.200362e-07
-4.7430406e-07
-5.8180401e-07
-8.4842807e-08
-8.259366e-07
4.0657833e-07
-1.0457622e-06
1.034149e-06
-1.3350915e-06
1.8195253e-06
-1.676564e-06
2.7347954e-06
-1.9548739e-06
3.7455161e-06
-2.1616616e-06
4.8235191e-06
-2.3052309e-06
5.9102967e-06
-2.3257177e-06
6.9014508e-06
-2.1132529e-06
7.8193711e-06
-1.952774e-06
8.7378305e-06
-1.9550373e-06
9.7229783e-06
-2.0979672e-06
1.0857838e-05
-2.421937e-06
1.2417741e-05
-3.3340203e-06
1.4786584e-05
-5.1036531e-06
1.8155681e-05
-7.2598187e-06
2.2929721e-05
-1.0330754e-05
2.9764627e-05
-1.4875191e-05
3.8506131e-05
-1.9225558e-05
4.4928485e-05
-1.4001547e-05
4.1634628e-05
8.0887899e-06
3.0805888e-05
2.4716207e-05
1.9648166e-05
2.4327309e-05
8.5831026e-06
2.5316209e-05
-6.5260585e-06
2.4501663e-05
1.2770228e-06
1.5493154e-05
2.3291535e-05
-8.7666332e-08
3.9320188e-05
-8.5484115e-06
1.9961006e-05
-7.9455553e-06
-2.4949795e-06
-5.662929e-06
-5.9238602e-06
-4.6171195e-06
-2.6387646e-06
-3.9720853e-06
-1.6170582e-06
-3.5577806e-06
-1.0530121e-06
-3.2807412e-06
-7.0921343e-07
-3.2546089e-06
-7.6308897e-08
-3.3971782e-06
3.4300489e-07
-3.7172781e-06
7.9036069e-07
-4.2016084e-06
1.2082836e-06
-4.7740876e-06
1.4356153e-06
-5.3319304e-06
1.3979481e-06
-5.845757e-06
1.2883323e-06
-6.2958999e-06
1.1265152e-06
-6.6334123e-06
8.3399656e-07
-6.843431e-06
4.9720577e-07
-6.9693761e-06
2.7603922e-07
-7.0139102e-06
6.1018702e-08
-6.8929435e-06
-3.8006685e-07
-6.6366242e-06
-7.5201683e-07
-6.2438442e-06
-1.1580856e-06
-6.3703897e-06
8.3654205e-08
-8.2896656e-06
4.8202832e-06
-1.1012291e-05
6.9723392e-06
-1.3124286e-05
5.3781861e-06
-1.4743804e-05
4.130232e-06
-1.6085994e-05
3.4297847e-06
-1.7206632e-05
2.8686445e-06
-1.8169383e-05
2.4702195e-06
-1.9001446e-05
2.1413791e-06
-1.9722962e-05
1.8638777e-06
-2.0343081e-05
1.6096248e-06
-2.0867606e-05
1.3697966e-06
-2.1299043e-05
1.135843e-06
-2.1639524e-05
9.0670183e-07
-2.1891275e-05
6.8272105e-07
-2.2056923e-05
4.6490069e-07
-2.2139699e-05
2.548063e-07
-2.2143283e-05
5.3852151e-08
-2.2070068e-05
-1.4107342e-07
-2.1922491e-05
-3.3027106e-07
-2.1704475e-05
-5.099854e-07
-2.1420229e-05
-6.7922692e-07
-2.1074232e-05
-8.3726477e-07
-2.0670979e-05
-9.840472e-07
-2.0215399e-05
-1.1184206e-06
-1.9712931e-05
-1.2389812e-06
-1.9168749e-05
-1.3463775e-06
-1.8587978e-05
-1.4407372e-06
-1.7975604e-05
-1.5223663e-06
-1.733625e-05
-1.592238e-06
-1.6674866e-05
-1.649404e-06
-1.5996534e-05
-1.6935367e-06
-1.5305551e-05
-1.7266832e-06
-1.4605051e-05
-1.7518346e-06
-1.3898647e-05
-1.767704e-06
-1.3190015e-05
-1.7741408e-06
-1.2482076e-05
-1.7731318e-06
-1.1777709e-05
-1.7646946e-06
-1.1079124e-05
-1.7506467e-06
-1.0388372e-05
-1.7313609e-06
-9.7073464e-06
-1.7072679e-06
-9.037934e-06
-1.6783766e-06
-8.3820276e-06
-1.6446479e-06
-7.7412935e-06
-1.6066699e-06
-7.1171841e-06
-1.5649789e-06
-6.5107437e-06
-1.5206427e-06
-5.9227189e-06
-1.4744474e-06
-5.3538106e-06
-1.4265218e-06
-4.8048354e-06
-1.3765734e-06
-4.2768147e-06
-1.3240547e-06
-3.7705438e-06
-1.2695753e-06
-3.2868876e-06
-1.2129726e-06
-2.8266622e-06
-1.1543711e-06
-2.3910015e-06
-1.0930592e-06
-1.9814367e-06
-1.0279128e-06
-1.6000497e-06
-9.5763797e-07
-1.2490165e-06
-8.8183626e-07
-9.3128687e-07
-7.9877723e-07
-6.5010857e-07
-7.0747741e-07
-4.1125008e-07
-6.0197777e-07
-2.2147198e-07
-4.793131e-07
-9.2937958e-08
-3.2652842e-07
-3.8760691e-08
-1.4037533e-07
-8.6162763e-08
1.1376713e-07
-2.5983383e-07
4.278698e-07
-6.7457292e-07
1.0420145e-06
-1.0880687e-06
1.0609822e-06
-1.092504e-06
1.4259213e-08
-8.7459825e-07
-5.3794198e-07
-4.8922746e-07
-9.6717477e-07
5.714034e-08
-1.3723041e-06
7.4525007e-07
-1.7338717e-06
1.6227502e-06
-2.2125915e-06
2.7176682e-06
-2.7714819e-06
3.9919106e-06
-3.2291161e-06
5.3977902e-06
-3.5675411e-06
6.896787e-06
-3.8042275e-06
8.4081616e-06
-3.8370921e-06
9.7922583e-06
-3.4973494e-06
1.1078029e-05
-3.2385443e-06
1.2364308e-05
-3.2413164e-06
1.3741559e-05
-3.4752181e-06
1.5325537e-05
-4.0059152e-06
1.7492164e-05
-5.500647e-06
2.0757203e-05
-8.368692e-06
2.5387625e-05
-1.189024e-05
3.1916881e-05
-1.6860009e-05
4.1175866e-05
-2.4134175e-05
5.2891616e-05
-3.0941307e-05
6.1618645e-05
-2.2728576e-05
5.7891471e-05
1.1815964e-05
4.4036573e-05
3.8571106e-05
2.918076e-05
3.9183122e-05
1.4370984e-05
3.499141e-05
-8.2915864e-06
3.3617104e-05
2.6513302e-06
2.1806454e-05
3.5102186e-05
1.1816727e-06
5.9944974e-05
-1.0793927e-05
3.193661e-05
-1.052898e-05
-2.7599234e-06
-7.6101977e-06
-8.8426451e-06
-6.2191168e-06
-4.029834e-06
-5.3615913e-06
-2.4745683e-06
-4.8138916e-06
-1.6007095e-06
-4.4527527e-06
-1.0703578e-06
-4.4239469e-06
-1.0512744e-07
-4.6225581e-06
5.4161065e-07
-5.0571355e-06
1.2249476e-06
-5.7077142e-06
1.8588661e-06
-6.4729398e-06
2.2008405e-06
-7.2185965e-06
2.1435988e-06
-7.9053791e-06
1.9751259e-06
-8.5082286e-06
1.7293751e-06
-8.9664375e-06
1.2921882e-06
-9.26323e-06
7.93988e-07
-9.4543779e-06
4.6718747e-07
-9.5428623e-06
1.495067e-07
-9.4258535e-06
-4.970748e-07
-9.1443099e-06
-1.0335602e-06
-8.7203099e-06
-1.5820851e-06
-9.0054465e-06
3.6879136e-07
-1.1563343e-05
7.3781812e-06
-1.5120733e-05
1.052973e-05
-1.7892528e-05
8.1499837e-06
-2.0015967e-05
6.2536729e-06
-2.1770786e-05
5.1846065e-06
-2.3233266e-05
4.3311266e-06
-2.4485962e-05
3.7229164e-06
-2.5564909e-05
3.2203256e-06
-2.6496319e-05
2.7952892e-06
-2.7292415e-05
2.4057199e-06
-2.7960959e-05
2.0383412e-06
-2.8505599e-05
1.6804822e-06
-2.892945e-05
1.3305522e-06
-2.9235755e-05
9.8902544e-07
-2.9428253e-05
6.5739813e-07
-2.9511486e-05
3.3803824e-07
-2.9490247e-05
3.2611388e-08
-2.936776e-05
-2.6356069e-07
-2.9147684e-05
-5.5034711e-07
-2.8835432e-05
-8.2223762e-07
-2.8436669e-05
-1.077991e-06
-2.7957391e-05
-1.3165437e-06
-2.7403596e-05
-1.5378439e-06
-2.6781829e-05
-1.7401887e-06
-2.6099248e-05
-1.9215635e-06
-2.5362646e-05
-2.0829806e-06
-2.4578746e-05
-2.2246382e-06
-2.3754078e-05
-2.3470341e-06
-2.2894699e-05
-2.4516168e-06
-2.200704e-05
-2.5370629e-06
-2.109771e-05
-2.6028662e-06
-2.0172321e-05
-2.6520718e-06
-1.9234972e-05
-2.6891829e-06
-1.8290352e-05
-2.712323e-06
-1.7343247e-05
-2.7212447e-06
-1.6397468e-05
-2.7189102e-06
-1.5456749e-05
-2.7054137e-06
-1.4523986e-05
-2.6834092e-06
-1.3601867e-05
-2.653481e-06
-1.2692879e-05
-2.6162556e-06
-1.1799499e-05
-2.5717565e-06
-1.0924204e-05
-2.5199442e-06
-1.0069173e-05
-2.4617007e-06
-9.2363072e-06
-2.3978455e-06
-8.4269841e-06
-2.3299664e-06
-7.6422069e-06
-2.2592253e-06
-6.882927e-06
-2.1858023e-06
-6.1502484e-06
-2.1092524e-06
-5.4455315e-06
-2.028772e-06
-4.7698586e-06
-1.9452487e-06
-4.1244051e-06
-1.8584267e-06
-3.510301e-06
-1.7684756e-06
-2.9291168e-06
-1.6742438e-06
-2.382928e-06
-1.5741023e-06
-1.8745298e-06
-1.4660367e-06
-1.4068429e-06
-1.3495232e-06
-9.8381266e-07
-1.2218076e-06
-6.0981873e-07
-1.0814717e-06
-2.9257549e-07
-9.1922146e-07
-4.1183316e-08
-7.3070539e-07
1.281826e-07
-4.9589446e-07
1.978892e-07
-2.1008206e-07
1.3204221e-07
1.7961375e-07
-1.0427067e-07
6.6418267e-07
-6.5533683e-07
1.5930806e-06
-1.1957499e-06
1.6013952e-06
-1.197717e-06
1.6226063e-08
-9.0376288e-07
-8.3189593e-07
-3.888284e-07
-1.4821092e-06
3.3798236e-07
-2.0991144e-06
1.251947e-06
-2.6478361e-06
2.4152492e-06
-3.3758935e-06
3.8625447e-06
-4.2187774e-06
5.5441963e-06
-4.9107675e-06
7.398179e-06
-5.4215237e-06
9.3742692e-06
-5.7803174e-06
1.1367615e-05
-5.8304373e-06
1.3201176e-05
-5.3309103e-06
1.491017e-05
-4.9475381e-06
1.6619643e-05
-4.9507898e-06
1.8446071e-05
-5.3016453e-06
2.0542652e-05
-6.1024961e-06
2.3392492e-05
-8.3504871e-06
2.7653238e-05
-1.2629438e-05
3.3671559e-05
-1.7908561e-05
4.211024e-05
-2.529869e-05
5.3944965e-05
-3.59689e-05
6.8766849e-05
-4.576319e-05
7.9998144e-05
-3.395987e-05
7.6223095e-05
1.5591014e-05
5.9597438e-05
5.5196763e-05
4.1061971e-05
5.7718588e-05
2.2207074e-05
4.6685747e-05
-9.5720132e-06
4.4561542e-05
4.7755377e-06
2.9628127e-05
5.0035602e-05
3.3217111e-06
8.6251393e-05
-1.3022615e-05
4.828094e-05
-1.34543e-05
-2.3282334e-06
-9.8785188e-06
-1.241842e-05
-8.0944241e-06
-5.8139179e-06
-6.9954573e-06
-3.5735356e-06
-6.2968848e-06
-2.2992923e-06
-5.8439835e-06
-1.5232727e-06
-5.815699e-06
-1.3342025e-07
-6.0834817e-06
8.0939626e-07
-6.6539177e-06
1.7953988e-06
-7.4981859e-06
2.7031389e-06
-8.4860964e-06
3.1887426e-06
-9.448578e-06
3.1060754e-06
-1.0335152e-05
2.8617119e-06
-1.1115149e-05
2.5093764e-06
-1.1716877e-05
1.8938907e-06
-1.2122776e-05
1.1998697e-06
-1.2402118e-05
7.4653357e-07
-1.2557977e-05
3.0536692e-07
-1.2470788e-05
-5.8426415e-07
-1.2194202e-05
-1.3101466e-06
-1.178853e-05
-1.987756e-06
-1.2308859e-05
8.8912172e-07
-1.5592823e-05
1.0662147e-05
-2.0066989e-05
1.5003899e-05
-2.3567462e-05
1.1650459e-05
-2.6244975e-05
8.9311886e-06
-2.8449787e-05
7.3894209e-06
-3.0282569e-05
6.1639105e-06
-3.1846379e-05
5.2867276e-06
-3.3187315e-05
4.561262e-06
-3.4338258e-05
3.9462335e-06
-3.5315031e-05
3.3824935e-06
-3.6127721e-05
2.8510316e-06
-3.6781494e-05
2.334255e-06
-3.7280791e-05
1.8298493e-06
-3.7630214e-05
1.3384482e-06
-3.7834935e-05
8.621182e-07
-3.7901169e-05
4.0427171e-07
-3.7834717e-05
-3.3842632e-08
-3.7639906e-05
-4.5837215e-07
-3.7322282e-05
-8.6797174e-07
-3.6888968e-05
-1.2555521e-06
-3.6347322e-05
-1.6196379e-06
-3.5705082e-05
-1.9587842e-06
-3.4969959e-05
-2.2729686e-06
-3.4150305e-05
-2.5598438e-06
-3.3255168e-05
-2.8167025e-06
-3.2293109e-05
-3.0450405e-06
-3.1272584e-05
-3.2451631e-06
-3.0201803e-05
-3.417814e-06
-2.9088377e-05
-3.565043e-06
-2.7940299e-05
-3.6851403e-06
-2.676578e-05
-3.7773854e-06
-2.5571833e-05
-3.8460186e-06
-2.4363615e-05
-3.8973994e-06
-2.3146959e-05
-3.9289784e-06
-2.1927814e-05
-3.940389e-06
-2.071094e-05
-3.9357829e-06
-1.9500978e-05
-3.9153753e-06
-1.830156e-05
-3.8828271e-06
-1.711606e-05
-3.8389804e-06
-1.5947616e-05
-3.7846995e-06
-1.4799346e-05
-3.7200266e-06
-1.3674356e-05
-3.6449346e-06
-1.2575386e-05
-3.5606709e-06
-1.150482e-05
-3.4684118e-06
-1.0464407e-05
-3.3703804e-06
-9.4554433e-06
-3.2681892e-06
-8.4791768e-06
-3.1620696e-06
-7.5370478e-06
-3.0513818e-06
-6.6308041e-06
-2.9350162e-06
-5.7618693e-06
-2.8141841e-06
-4.9317859e-06
-2.6885108e-06
-4.1420711e-06
-2.5581909e-06
-3.3948249e-06
-2.4214903e-06
-2.6927719e-06
-2.2761562e-06
-2.0395297e-06
-2.1192794e-06
-1.4388932e-06
-1.9501599e-06
-8.9594196e-07
-1.7647589e-06
-4.1639842e-07
-1.5610156e-06
-1.018856e-08
-1.3254317e-06
3.108171e-07
-1.0517113e-06
5.2596374e-07
-7.1104126e-07
6.1227935e-07
-2.9639785e-07
5.2422813e-07
2.6766477e-07
2.1410373e-07
9.7430695e-07
-4.9095526e-07
2.2981395e-06
-1.1706164e-06
2.2810561e-06
-1.1671897e-06
1.2799165e-08
-7.8482673e-07
-1.214259e-06
-1.21202e-07
-2.145734e-06
8.1038336e-07
-3.0306995e-06
1.9803318e-06
-3.8177843e-06
3.4660547e-06
-4.8616164e-06
5.3089661e-06
-6.0616887e-06
7.4466022e-06
-7.0484035e-06
9.8017542e-06
-7.7766757e-06
1.2311178e-05
-8.2897413e-06
1.4844589e-05
-8.3638477e-06
1.7186407e-05
-7.672729e-06
1.9377149e-05
-7.1382796e-06
2.1568447e-05
-7.1420877e-06
2.3903626e-05
-7.6368249e-06
2.6577919e-05
-8.7767888e-06
3.0184761e-05
-1.1957329e-05
3.5529886e-05
-1.7974562e-05
4.304099e-05
-2.5419665e-05
5.3498283e-05
-3.5755983e-05
6.7978748e-05
-5.0449365e-05
8.5931395e-05
-6.3715836e-05
9.982136e-05
-4.7849835e-05
9.6466613e-05
1.8945762e-05
7.7519112e-05
7.4144264e-05
5.552286e-05
7.971484e-05
3.2324615e-05
6.0526191e-05
-1.0022343e-05
5.7462913e-05
7.8388175e-06
3.9169575e-05
6.8328942e-05
6.580896e-06
0.00011884008
-1.511127e-05
6.997311e-05
-1.6733771e-05
-7.0572734e-07
-1.2502456e-05
-1.6649736e-05
-1.0277102e-05
-8.0392605e-06
-8.9065833e-06
-4.9440518e-06
-8.039221e-06
-3.1666668e-06
-7.4878921e-06
-2.0746148e-06
-7.4649187e-06
-1.5640222e-07
-7.8175786e-06
1.1620613e-06
-8.5483203e-06
2.5261604e-06
-9.6167627e-06
3.7715861e-06
-1.0860069e-05
4.4320412e-06
-1.2070997e-05
4.3169964e-06
-1.3186659e-05
3.9773852e-06
-1.4170828e-05
3.4935484e-06
-1.4942257e-05
2.6652983e-06
-1.5484208e-05
1.7418075e-06
-1.5880654e-05
1.1429837e-06
-1.6134606e-05
5.5932242e-07
-1.6112956e-05
-6.0591235e-07
-1.5884527e-05
-1.5385761e-06
-1.5564697e-05
-2.3075851e-06
-1.641039e-05
1.7348164e-06
-2.0504182e-05
1.4755941e-05
-2.5963655e-05
2.0463373e-05
-3.0248534e-05
1.5935341e-05
-3.3517064e-05
1.2199722e-05
-3.6195695e-05
1.0068054e-05
-3.8413633e-05
8.3818506e-06
-4.029594e-05
7.1690355e-06
-4.190005e-05
6.1653726e-06
-4.3266149e-05
5.3123341e-06
-4.4414311e-05
4.5306551e-06
-4.5357441e-05
3.7941612e-06
-4.6102767e-05
3.0795807e-06
-4.6656552e-05
2.3836335e-06
-4.7025236e-05
1.7071316e-06
-4.7215859e-05
1.0527404e-06
-4.7236692e-05
4.2510318e-07
-4.7094433e-05
-1.7610374e-07
-4.6795014e-05
-7.5779181e-07
-4.6346698e-05
-1.3162881e-06
-4.5758507e-05
-1.8437433e-06
-4.5039739e-05
-2.3384076e-06
-4.4200081e-05
-2.7984427e-06
-4.3249149e-05
-3.2239023e-06
-4.2197246e-05
-3.6117482e-06
-4.1055407e-05
-3.9585431e-06
-3.983405e-05
-4.266398e-06
-3.8543418e-05
-4.5357949e-06
-3.7193458e-05
-4.7677739e-06
-3.5793392e-05
-4.965109e-06
-3.4352763e-05
-5.125769e-06
-3.2881314e-05
-5.2488345e-06
-3.1387451e-05
-5.3398808e-06
-2.9877468e-05
-5.4073811e-06
-2.8358341e-05
-5.4481043e-06
-2.6837135e-05
-5.4615941e-06
-2.5319567e-05
-5.4533508e-06
-2.381117e-05
-5.423772e-06
-2.2316315e-05
-5.3776814e-06
-2.0839078e-05
-5.3162171e-06
-1.938326e-05
-5.2405175e-06
-1.7952643e-05
-5.1506444e-06
-1.6550976e-05
-5.0466013e-06
-1.5181576e-05
-4.9300716e-06
-1.3847325e-05
-4.8026637e-06
-1.2550363e-05
-4.6673429e-06
-1.1292314e-05
-4.5262388e-06
-1.0074762e-05
-4.3796226e-06
-8.8995322e-06
-4.2266115e-06
-7.7688062e-06
-4.0657427e-06
-6.6844057e-06
-3.8985851e-06
-5.6483017e-06
-3.7246154e-06
-4.6624791e-06
-3.5440138e-06
-3.7296758e-06
-3.354294e-06
-2.8533777e-06
-3.1524548e-06
-2.0381423e-06
-2.9345154e-06
-1.2887741e-06
-2.699528e-06
-6.1163193e-07
-2.4419012e-06
-1.4001128e-08
-2.1586467e-06
4.9165749e-07
-1.8310907e-06
8.9038226e-07
-1.4504361e-06
1.1566074e-06
-9.772665e-07
1.2610298e-06
-4.0082044e-07
1.1475301e-06
3.8116416e-07
7.5282575e-07
1.3690114e-06
-1.2197285e-07
3.1729381e-06
-9.5050268e-07
3.1095859e-06
-9.3825847e-07
5.5476761e-10
-4.5487625e-07
-1.697641e-06
3.7612884e-07
-2.9767391e-06
1.5358132e-06
-4.1903835e-06
2.9908022e-06
-5.2727731e-06
4.8336264e-06
-6.7044405e-06
7.1123099e-06
-8.3403722e-06
9.7507109e-06
-9.6868043e-06
1.2655908e-05
-1.0681873e-05
1.575068e-05
-1.1384514e-05
1.8878967e-05
-1.1492134e-05
2.178676e-05
-1.0580522e-05
2.451844e-05
-9.8699586e-06
2.7250798e-05
-9.8744463e-06
3.0154412e-05
-1.0540438e-05
3.3468745e-05
-1.2091122e-05
3.7896136e-05
-1.6384721e-05
4.4390129e-05
-2.4468555e-05
5.3455538e-05
-3.4485074e-05
6.5963862e-05
-4.8264306e-05
8.3036809e-05
-6.7522312e-05
0.00010400024
-8.4679263e-05
0.00012062541
-6.4475011e-05
0.00011821749
2.1353688e-05
9.7609322e-05
9.4752428e-05
7.2597643e-05
0.00010472652
4.4846397e-05
7.6438873e-05
-9.3193694e-06
7.2287365e-05
1.1990327e-05
5.0569475e-05
9.0046834e-05
1.1224655e-05
0.0001581849
-1.6898887e-05
9.8096656e-05
-2.0371401e-05
2.7667929e-06
-1.5516476e-05
-2.1504653e-05
-1.2803347e-05
-1.0752387e-05
-1.1130789e-05
-6.6166313e-06
-1.0076845e-05
-4.2206348e-06
-9.4220122e-06
-2.7294628e-06
-9.4111521e-06
-1.6725935e-07
-9.8673084e-06
1.6182362e-06
-1.0785986e-05
3.44486e-06
-1.211198e-05
5.0975813e-06
-1.3645836e-05
5.9658796e-06
-1.5139063e-05
5.8102192e-06
-1.651515e-05
5.3534832e-06
-1.7732655e-05
4.7110477e-06
-1.8703034e-05
3.6356502e-06
-1.9412436e-05
2.4511949e-06
-1.9960704e-05
1.6912584e-06
-2.0350965e-05
9.4958322e-07
-2.0440844e-05
-5.160336e-07
-2.0317709e-05
-1.6617114e-06
-2.0168981e-05
-2.4563119e-06
-2.1439436e-05
3.0052737e-06
-2.6413115e-05
1.9729622e-05
-3.2897162e-05
2.6947423e-05
-3.7992047e-05
2.1030229e-05
-4.1860644e-05
1.6068322e-05
-4.5009883e-05
1.3217295e-05
-4.7601949e-05
1.0973919e-05
-4.9785034e-05
9.3521215e-06
-5.1629202e-05
8.0095409e-06
-5.3182591e-05
6.865724e-06
-5.4470301e-05
5.8183654e-06
-5.5508723e-05
4.8325846e-06
-5.6307868e-05
3.8787253e-06
-5.6876485e-05
2.9522511e-06
-5.7223469e-05
2.0541155e-06
-5.7358265e-05
1.1875357e-06