/*--------------------------------*- C++ -*----------------------------------*\
| =========                 |                                                 |
| \\      /  F ield         | OpenFOAM: The Open Source CFD Toolbox           |
|  \\    /   O peration     | Version:  2.4.0                                 |
|   \\  /    A nd           | Web:      www.OpenFOAM.org                      |
|    \\/     M anipulation  |                                                 |
\*---------------------------------------------------------------------------*/
FoamFile
{
    version     2.0;
    format      ascii;
    class       volSymmTensorField;
    location    "20000";
    object      R;
}
// * * * * * * * * * * * * * * * * * * * * * * * * * * * * * * * * * * * * * //

dimensions      [0 2 -2 0 0 0 0];

internalField   nonuniform List<symmTensor> 
15600
(
(4.2957385e-06 -4.5333276e-09 2.9108472e-29 4.2956724e-06 1.0774705e-27 4.2957045e-06)
(3.2636486e-06 -3.0173256e-09 -4.9239251e-29 3.2640017e-06 4.7269169e-27 3.2638239e-06)
(3.868463e-06 -3.7189314e-09 -5.7442712e-27 3.8703394e-06 1.2589707e-26 3.8694033e-06)
(8.471855e-08 -1.1872975e-11 -3.0037909e-30 8.4732161e-08 -2.7771428e-32 8.4725267e-08)
(8.0323421e-07 2.0117863e-10 3.768155e-27 8.027361e-07 2.2049424e-27 8.0298407e-07)
(1.0065319e-06 1.9125392e-10 -6.5669212e-27 1.00573e-06 -4.2302631e-27 1.0061299e-06)
(3.635587e-07 2.7989434e-11 5.9832317e-28 3.6337687e-07 8.3062086e-28 3.6346767e-07)
(2.4881659e-07 1.1187587e-11 8.8248963e-28 2.4871197e-07 4.4705698e-28 2.4876421e-07)
(1.5771013e-07 4.4940617e-12 1.6409073e-28 1.5765623e-07 1.8993649e-28 1.5768315e-07)
(1.2475077e-07 3.0330875e-12 -4.5204692e-30 1.247119e-07 7.6047396e-32 1.2473131e-07)
(8.7534272e-08 2.0698703e-12 -5.200163e-29 8.7510622e-08 -2.0314503e-28 8.752244e-08)
(7.6024596e-08 1.9761111e-12 1.7373283e-30 7.6004838e-08 -4.3592778e-32 7.6014713e-08)
(7.2914595e-08 2.1160469e-12 -7.6809256e-31 7.2895489e-08 2.5482741e-32 7.290504e-08)
(7.8638272e-08 2.6233986e-12 2.3401468e-29 7.8616304e-08 3.0852421e-29 7.8627287e-08)
(9.3455063e-08 3.6682876e-12 -6.0099265e-29 9.3425926e-08 -7.8570923e-29 9.3440493e-08)
(1.1803603e-07 5.4955272e-12 3.9176587e-30 1.1799379e-07 -1.7053922e-31 1.1801491e-07)
(1.455447e-07 7.9330683e-12 -1.0255435e-29 1.454857e-07 3.6543097e-28 1.4551519e-07)
(1.6988805e-07 1.1080624e-11 2.0523907e-28 1.6981212e-07 2.7913039e-28 1.6985007e-07)
(1.9014588e-07 1.5270003e-11 9.9119912e-29 1.9005427e-07 1.3926491e-28 1.9010005e-07)
(2.0234093e-07 2.0274466e-11 3.7226349e-29 2.0223896e-07 5.4804682e-29 2.0228991e-07)
(2.016583e-07 2.5068022e-11 3.6451447e-28 2.0155649e-07 -2.2710487e-28 2.0160737e-07)
(1.9215161e-07 2.9366518e-11 -3.7961514e-29 1.9205856e-07 -7.1068858e-29 1.9210507e-07)
(1.795661e-07 3.2842645e-11 4.1378983e-29 1.7948616e-07 8.7379527e-29 1.7952612e-07)
(1.6384327e-07 3.4357238e-11 6.0697041e-29 1.6377994e-07 1.563214e-28 1.638116e-07)
(1.3739012e-07 3.0701405e-11 1.5089757e-29 1.3734876e-07 4.9251317e-29 1.3736944e-07)
(1.1547922e-07 2.6595309e-11 -1.0886554e-28 1.1545494e-07 2.3549291e-29 1.1546709e-07)
(8.0400751e-08 1.6833685e-11 -3.2299589e-31 8.0392005e-08 -2.5253151e-30 8.039638e-08)
(1.0008154e-07 2.4411944e-11 1.2014362e-29 1.0007773e-07 1.123836e-29 1.0007964e-07)
(2.4676825e-07 9.3719964e-11 1.7061377e-32 2.4676738e-07 -2.5814595e-32 2.4676783e-07)
(4.2121937e-07 2.0748106e-10 5.5987133e-34 4.2121823e-07 -4.6952218e-32 4.2121883e-07)
(5.6835253e-07 3.2445311e-10 2.3130693e-34 5.6835133e-07 1.7216742e-33 5.6835197e-07)
(7.142406e-07 4.5601744e-10 -2.7922715e-32 7.1423932e-07 1.0005446e-31 7.1424e-07)
(8.4427486e-07 5.8515938e-10 3.2319117e-32 8.4427357e-07 -2.6789391e-32 8.4427427e-07)
(9.6691645e-07 7.1618216e-10 3.9350386e-34 9.6691516e-07 -1.7766044e-35 9.6691587e-07)
(1.079391e-06 8.4370752e-10 -0 1.0793898e-06 -0 1.0793905e-06)
(1.1841094e-06 9.6833173e-10 -0 1.1841082e-06 -0 1.1841089e-06)
(1.2797061e-06 1.0867894e-09 -8.9350229e-34 1.2797048e-06 -6.4705134e-32 1.2797055e-06)
(1.3662695e-06 1.1976821e-09 -7.0039157e-32 1.3662683e-06 1.0477999e-31 1.366269e-06)
(1.4425926e-06 1.2981396e-09 7.596617e-32 1.4425915e-06 -3.7726931e-32 1.4425921e-06)
(1.508022e-06 1.3860946e-09 -1.0529035e-33 1.5080211e-06 3.6973319e-35 1.5080217e-06)
(1.5617726e-06 1.4594464e-09 -3.0971635e-33 1.5617718e-06 9.8399057e-35 1.5617723e-06)
(1.6035086e-06 1.5168753e-09 -8.6162408e-32 1.603508e-06 -2.4806846e-31 1.6035084e-06)
(1.6329892e-06 1.5573949e-09 8.9739884e-32 1.6329887e-06 2.5256095e-31 1.6329891e-06)
(1.6503621e-06 1.5807768e-09 -8.9006774e-32 1.6503618e-06 -3.5344604e-31 1.6503621e-06)
(1.6559529e-06 1.5872531e-09 1.4168061e-31 1.6559527e-06 -4.3725797e-32 1.6559529e-06)
(1.6498751e-06 1.5769305e-09 -5.3520159e-32 1.6498751e-06 3.9693196e-31 1.6498752e-06)
(1.6326272e-06 1.5506543e-09 6.1825576e-33 1.6326274e-06 -1.3869564e-34 1.6326274e-06)
(1.6049624e-06 1.5097797e-09 4.0581501e-32 1.6049627e-06 -1.325937e-31 1.6049626e-06)
(1.5677554e-06 1.4559468e-09 -4.65772e-32 1.5677558e-06 5.6944245e-31 1.5677557e-06)
(1.5220112e-06 1.3910461e-09 7.7434378e-33 1.5220118e-06 4.268217e-31 1.5220115e-06)
(1.4687182e-06 1.3169879e-09 3.4145593e-32 1.4687188e-06 3.2940907e-31 1.4687185e-06)
(1.4091083e-06 1.2359906e-09 -4.0863273e-32 1.4091091e-06 1.8759143e-31 1.4091087e-06)
(1.3443838e-06 1.1501862e-09 3.8656684e-33 1.3443846e-06 -4.8045973e-31 1.3443842e-06)
(1.2756751e-06 1.0615279e-09 -0 1.2756759e-06 -2.6035173e-31 1.2756755e-06)
(1.2041337e-06 9.7188824e-10 -0 1.2041345e-06 2.4576547e-31 1.2041341e-06)
(1.1307504e-06 8.8283026e-10 -1.1814117e-33 1.1307512e-06 7.9011352e-36 1.1307508e-06)
(1.0564877e-06 7.9574845e-10 -4.6580367e-33 1.0564885e-06 4.1277218e-32 1.0564881e-06)
(9.8232862e-07 7.1192546e-10 6.3837659e-33 9.8232941e-07 -3.8397247e-32 9.82329e-07)
(9.0915957e-07 6.3237998e-10 -9.4990613e-34 9.0916032e-07 3.1764273e-36 9.0915993e-07)
(8.3758793e-07 5.5771883e-10 -0 8.3758864e-07 -0 8.3758827e-07)
(7.6801489e-07 4.8826476e-10 -0 7.6801555e-07 -0 7.680152e-07)
(7.0108451e-07 4.2445922e-10 9.3675469e-34 7.0108512e-07 3.1333303e-36 7.010848e-07)
(6.3711949e-07 3.6636863e-10 1.7883489e-33 6.3712004e-07 -3.1876459e-32 6.3711975e-07)
(5.7643422e-07 3.1399069e-10 -3.1584266e-33 5.7643472e-07 2.8838411e-32 5.7643445e-07)
(5.1923913e-07 2.6718533e-10 6.9379177e-34 5.1923959e-07 4.6399934e-36 5.1923934e-07)
(4.6562317e-07 2.2568698e-10 -0 4.6562357e-07 1.5739976e-31 4.6562335e-07)
(4.1566734e-07 1.8920937e-10 -0 4.156677e-07 -1.4052316e-31 4.1566751e-07)
(3.6937066e-07 1.574e-10 -0 3.6937097e-07 2.631305e-31 3.693708e-07)
(3.2673781e-07 1.2991155e-10 -0 3.2673808e-07 5.6074016e-33 3.2673793e-07)
(2.8771479e-07 1.0636418e-10 -0 2.8771503e-07 -2.0992847e-31 2.877149e-07)
(2.5221616e-07 8.6373168e-11 -0 2.5221637e-07 -0 2.5221625e-07)
(2.2011462e-07 6.9550058e-11 -0 2.2011479e-07 -0 2.2011469e-07)
(1.9123837e-07 5.5510038e-11 -0 1.9123852e-07 -1.5155824e-31 1.9123844e-07)
(1.6540099e-07 4.389211e-11 -0 1.6540111e-07 -1.3581335e-31 1.6540104e-07)
(1.4241084e-07 3.4364608e-11 -2.0562586e-33 1.4241094e-07 2.2976772e-31 1.4241089e-07)
(1.2208216e-07 2.6628555e-11 2.0324912e-33 1.2208225e-07 -3.4099265e-31 1.220822e-07)
(1.042348e-07 2.0415326e-11 8.889955e-34 1.0423487e-07 4.1035805e-31 1.0423483e-07)
(8.8656082e-08 1.5473834e-11 -1.7971796e-33 8.8656139e-08 -2.0418509e-31 8.8656107e-08)
(7.516644e-08 1.1591797e-11 2.495058e-33 7.5166487e-08 1.7560345e-31 7.516646e-08)
(6.3547898e-08 8.572031e-12 -2.4617754e-33 6.3547936e-08 3.7364357e-32 6.3547914e-08)
(5.3629781e-08 6.2564531e-12 1.6479116e-33 5.3629811e-08 5.651653e-35 5.3629794e-08)
(4.5224439e-08 4.5018636e-12 -1.166532e-33 4.5224463e-08 5.5142134e-32 4.5224449e-08)
(3.8188224e-08 3.1968245e-12 -1.0040396e-33 3.8188243e-08 -9.3764105e-32 3.8188232e-08)
(3.2315879e-08 2.2350769e-12 1.5602982e-33 3.2315894e-08 -6.0106043e-32 3.2315885e-08)
(2.7505391e-08 1.5450554e-12 1.1418811e-34 2.7505403e-08 8.5161173e-32 2.7505396e-08)
(2.3547894e-08 1.0527455e-12 -3.7670836e-34 2.3547903e-08 -4.4431052e-32 2.3547897e-08)
(2.0419079e-08 7.2154665e-13 -0 2.0419085e-08 3.8514916e-32 2.0419081e-08)
(1.7913301e-08 5.015569e-13 -3.0053825e-34 1.7913305e-08 -6.8860956e-32 1.7913303e-08)
(1.6139815e-08 3.8579906e-13 -2.9189027e-35 1.6139818e-08 1.0349893e-31 1.6139816e-08)
(1.4865208e-08 3.3923352e-13 4.9940646e-34 1.4865208e-08 -5.7786717e-32 1.4865207e-08)
(1.4571303e-08 4.0204352e-13 -9.7545861e-34 1.4571301e-08 1.9179021e-32 1.4571302e-08)
(1.4496264e-08 5.3360609e-13 5.6539211e-34 1.4496257e-08 -1.3547994e-31 1.449626e-08)
(2.0036798e-08 1.2806824e-12 5.7182917e-30 2.0036975e-08 5.8434948e-31 2.0036887e-08)
(2.3623731e-08 1.6849153e-12 -3.6506098e-29 2.3624604e-08 5.2131961e-28 2.3624169e-08)
(2.2566038e-08 1.3521259e-12 -1.096651e-28 2.2567276e-08 4.9763423e-28 2.256666e-08)
(2.0937577e-08 9.5562927e-13 3.4100224e-28 2.0938869e-08 -1.2470769e-27 2.0938227e-08)
(1.6807542e-08 4.1305687e-13 1.2307438e-27 1.6808308e-08 -3.1027054e-27 1.6807929e-08)
(1.2601905e-08 6.0037847e-14 -1.0056925e-27 1.2602056e-08 2.1262183e-27 1.2601983e-08)
(1.5474285e-08 -2.1612524e-13 -2.4982717e-28 1.5473611e-08 4.591816e-28 1.5473952e-08)
(3.072107e-08 -9.4506863e-13 5.5709037e-28 3.0717275e-08 -8.162777e-28 3.0719179e-08)
(6.3303103e-08 -2.8811966e-12 -2.1626375e-27 6.3288773e-08 3.1799098e-27 6.3295947e-08)
(1.2321654e-07 -7.1682312e-12 1.6672289e-27 1.2317406e-07 -2.8452117e-27 1.2319531e-07)
(2.2001711e-07 -1.5399306e-11 7.3696139e-27 2.1991299e-07 -9.1508709e-27 2.1996503e-07)
(3.630845e-07 -3.0157976e-11 4.6638522e-27 3.6286342e-07 -7.5060992e-27 3.6297387e-07)
(5.417532e-07 -5.2726946e-11 -6.5990127e-27 5.413538e-07 1.0724074e-26 5.4155331e-07)
(7.3825797e-07 -7.993097e-11 3.7308475e-28 7.3763189e-07 1.5608737e-29 7.379446e-07)
(9.7999181e-07 -1.1366691e-10 2.0222846e-31 9.7905209e-07 -2.2767355e-31 9.795214e-07)
(1.2807349e-06 -1.5377168e-10 -2.4416137e-31 1.2793617e-06 2.783738e-31 1.2800475e-06)
(1.6979098e-06 -2.0630056e-10 -5.300961e-28 1.6958667e-06 -1.3557865e-29 1.6968868e-06)
(2.2780538e-06 -2.7205407e-10 -1.1652008e-26 2.2749692e-06 3.2339016e-26 2.2765091e-06)
(3.3638368e-06 -4.2207726e-10 9.4212029e-28 3.3584752e-06 1.8410805e-29 3.361151e-06)
(5.2426206e-06 -8.5561324e-10 1.0197831e-25 5.2324577e-06 -1.2013097e-25 5.2375283e-06)
(8.448771e-06 -2.193652e-09 -0 8.4283859e-06 -0 8.438554e-06)
(1.392888e-05 -6.5246517e-09 -1.4418012e-33 1.3886516e-05 4.2302352e-36 1.3907644e-05)
(2.3864978e-05 -2.1921818e-08 -3.0440825e-32 2.3773275e-05 -3.4107257e-31 2.3818999e-05)
(3.6681818e-05 -6.3974006e-08 7.3922328e-27 3.6525215e-05 -6.1347525e-29 3.6603297e-05)
(3.7911544e-05 -9.5558667e-08 -2.5262389e-25 3.7793927e-05 9.1228437e-25 3.7852599e-05)
(1.8482085e-05 -3.8796797e-08 -4.2886231e-26 1.8461882e-05 3.0703557e-25 1.8471985e-05)
(7.7790242e-06 -1.1192724e-08 8.2802225e-30 7.7776048e-06 -4.1202325e-26 7.778314e-06)
(1.2455557e-06 -7.6069598e-10 -4.3729775e-29 1.2455643e-06 -2.9785745e-28 1.2455605e-06)
(2.5389217e-06 -1.6403045e-08 1.5107563e-28 2.5387547e-06 -9.2796044e-27 2.5388367e-06)
(2.3384566e-06 -1.3520147e-08 1.2892983e-26 2.3400212e-06 -1.9404739e-26 2.3392329e-06)
(1.7684955e-06 -1.0238187e-08 2.7278936e-26 1.7735131e-06 6.7498245e-26 1.7710073e-06)
(3.3395801e-07 -4.1475012e-10 1.1435036e-28 3.3437892e-07 1.0568607e-30 3.3416977e-07)
(1.6062592e-07 2.1462587e-10 7.5131709e-27 1.6006913e-07 2.2660185e-26 1.603488e-07)
(1.5487027e-07 1.7494602e-10 1.1118614e-26 1.5413348e-07 5.737305e-28 1.5450259e-07)
(6.5800632e-08 3.157952e-11 -5.8993717e-28 6.5598475e-08 -8.8199426e-28 6.5699694e-08)
(4.644219e-08 1.2930037e-11 -1.1739919e-27 4.6322017e-08 7.0567623e-28 4.6382169e-08)
(3.1591319e-08 5.6227357e-12 1.0241975e-28 3.1524457e-08 1.3406735e-28 3.1557921e-08)
(2.5839573e-08 3.916686e-12 -1.8217633e-33 2.5789663e-08 1.8230492e-34 2.5814639e-08)
(1.9760366e-08 2.9413995e-12 3.8765606e-28 1.972704e-08 2.6126056e-28 1.9743712e-08)
(1.8210929e-08 2.9695896e-12 3.1265103e-33 1.8181311e-08 -3.5381313e-33 1.8196125e-08)
(1.83979e-08 3.3404111e-12 1.9403961e-30 1.8367721e-08 -6.3596673e-32 1.8382813e-08)
(2.0305475e-08 4.1816879e-12 -2.4390467e-28 2.0270316e-08 1.1805517e-28 2.0287897e-08)
(2.4205532e-08 5.7611997e-12 -5.6163843e-29 2.4159447e-08 -6.8631052e-29 2.4182491e-08)
(3.0632946e-08 8.5321836e-12 -3.3590925e-34 3.0566813e-08 3.3758122e-33 3.0599886e-08)
(3.897565e-08 1.2638501e-11 -7.5658583e-28 3.8880912e-08 -3.816997e-28 3.8928295e-08)
(4.6781242e-08 1.813868e-11 -1.0866664e-27 4.6656135e-08 1.4285917e-28 4.6718714e-08)
(5.4548075e-08 2.6036492e-11 -1.1539656e-27 5.4391114e-08 4.879031e-28 5.4469632e-08)
(6.2313964e-08 3.7150652e-11 -1.733523e-28 6.2126602e-08 -2.4860705e-28 6.2220332e-08)
(6.9166582e-08 5.1309443e-11 -7.0653073e-28 6.8958051e-08 4.3882528e-28 6.9062367e-08)
(7.5430613e-08 6.9061461e-11 -1.4859259e-27 7.5211927e-08 1.2421087e-27 7.5321313e-08)
(8.1965946e-08 9.0197525e-11 -9.6752989e-29 8.1746753e-08 -2.2488965e-28 8.185638e-08)
(8.8495362e-08 1.1227582e-10 1.8934232e-27 8.8289079e-08 -1.2861268e-27 8.839224e-08)
(9.2548119e-08 1.2655286e-10 -6.5217067e-29 9.2378485e-08 -1.8618791e-28 9.2463293e-08)
(9.5109958e-08 1.3575109e-10 -5.5192089e-28 9.4987125e-08 1.1900347e-28 9.504854e-08)
(9.1631296e-08 1.2330884e-10 -4.4369456e-28 9.1567486e-08 9.0982369e-29 9.1599347e-08)
(9.7384581e-08 1.536647e-10 -6.3096781e-29 9.7358146e-08 7.1264009e-30 9.737136e-08)
(1.4030907e-07 3.2992666e-10 -1.3660432e-30 1.403006e-07 2.2031857e-31 1.4030481e-07)
(2.2109896e-07 6.6269979e-10 2.3569876e-31 2.2108875e-07 -1.0699712e-32 2.2109378e-07)
(2.7623122e-07 9.5270501e-10 4.5086375e-32 2.7622147e-07 1.9055872e-34 2.7622628e-07)
(3.3763829e-07 1.295022e-09 -4.0886704e-31 3.3762838e-07 -4.4566476e-32 3.3763323e-07)
(3.9251312e-07 1.6282534e-09 -3.5462901e-33 3.9250351e-07 7.0338617e-32 3.9250821e-07)
(4.4740734e-07 1.9773158e-09 -0 4.4739792e-07 -0 4.4740249e-07)
(4.9990779e-07 2.3257525e-09 -0 4.9989868e-07 -0 4.9990308e-07)
(5.514455e-07 2.6781587e-09 -2.3269946e-33 5.5143675e-07 9.3386983e-35 5.5144095e-07)
(6.0132265e-07 3.0268695e-09 -5.1141893e-31 6.0131441e-07 -1.2877551e-32 6.0131833e-07)
(6.4956951e-07 3.368966e-09 1.1337393e-30 6.4956193e-07 5.5093257e-31 6.4956551e-07)
(6.957506e-07 3.6980523e-09 -6.2435323e-31 6.9574385e-07 -5.7512243e-31 6.95747e-07)
(7.3951604e-07 4.008657e-09 4.9696403e-33 7.395103e-07 -1.7450821e-34 7.3951293e-07)
(7.805168e-07 4.2952507e-09 -0 7.8051223e-07 -0 7.8051427e-07)
(8.1844536e-07 4.5531553e-09 -0 8.1844207e-07 7.1301912e-31 8.1844347e-07)
(8.5304787e-07 4.7783443e-09 -0 8.5304596e-07 -7.4316502e-31 8.5304667e-07)
(8.8414755e-07 4.967999e-09 -2.6791696e-32 8.8414707e-07 1.0671138e-30 8.8414707e-07)
(9.1166433e-07 5.1204067e-09 -8.4186988e-31 9.1166534e-07 -1.8701202e-30 9.116646e-07)
(9.3546096e-07 5.2334255e-09 9.2054083e-31 9.3546349e-07 7.8922296e-31 9.35462e-07)
(9.5546132e-07 5.3062868e-09 -4.9290977e-32 9.5546535e-07 -2.6550471e-30 9.5546313e-07)
(9.7167958e-07 5.3394038e-09 -4.0885044e-31 9.7168506e-07 1.6518711e-30 9.7168213e-07)
(9.841414e-07 5.3337811e-09 9.5350147e-31 9.8414826e-07 -4.8986414e-31 9.8414467e-07)
(9.930594e-07 5.29194e-09 -4.9991989e-31 9.9306755e-07 2.7094736e-31 9.9306333e-07)
(9.9829972e-07 5.2148303e-09 6.3959679e-33 9.9830904e-07 -3.1064199e-30 9.9830427e-07)
(1.0003734e-06 5.1074079e-09 4.0151816e-31 1.0003838e-06 1.4144171e-30 1.0003785e-06)
(9.9937105e-07 4.972547e-09 -4.7771009e-31 9.9938228e-07 -1.4957693e-31 9.993766e-07)
(9.9556752e-07 4.8140947e-09 -1.5637877e-31 9.9557949e-07 -2.5404739e-30 9.9557347e-07)
(9.8930753e-07 4.6363118e-09 2.1857294e-31 9.8932009e-07 2.5241076e-30 9.893138e-07)
(9.8052382e-07 4.4413458e-09 -6.8334955e-33 9.8053683e-07 1.3562799e-30 9.8053033e-07)
(9.6957298e-07 4.2333103e-09 7.9338169e-32 9.6958629e-07 -8.469898e-31 9.6957967e-07)
(9.5676254e-07 4.0160868e-09 -9.7534616e-32 9.5677602e-07 -4.8763192e-31 9.5676933e-07)
(9.429311e-07 3.7954077e-09 9.4834764e-33 9.4294463e-07 -3.7702188e-31 9.4293793e-07)
(9.2822203e-07 3.5733797e-09 -0 9.2823553e-07 3.7116376e-31 9.2822887e-07)
(9.1181895e-07 3.3482441e-09 -0 9.1183232e-07 3.9557576e-31 9.1182573e-07)
(8.9474618e-07 3.1256473e-09 -1.151155e-32 8.9475933e-07 -3.8826643e-31 8.9475287e-07)
(8.7698731e-07 2.9065896e-09 -4.97115e-32 8.7700018e-07 -5.7162363e-31 8.7699387e-07)
(8.5872334e-07 2.6927183e-09 7.0773418e-32 8.5873586e-07 -1.0939825e-30 8.5872973e-07)
(8.4013306e-07 2.4853781e-09 1.2881612e-32 8.4014519e-07 1.6183951e-30 8.4013927e-07)
(8.212876e-07 2.2852753e-09 7.2667604e-32 8.2129931e-07 1.1650024e-31 8.212936e-07)
(8.0226515e-07 2.0931048e-09 -6.8557353e-32 8.0227642e-07 -3.4823976e-30 8.0227093e-07)
(7.8310865e-07 1.909273e-09 1.8327848e-31 7.8311945e-07 6.8965061e-30 7.831142e-07)
(7.6388056e-07 1.7342525e-09 -1.026389e-31 7.6389087e-07 -3.2864009e-30 7.6388587e-07)
(7.4466488e-07 1.568404e-09 -1.4280259e-31 7.4467468e-07 3.1316546e-30 7.4466993e-07)
(7.2553874e-07 1.4119681e-09 4.4161727e-32 7.2554802e-07 -6.6178283e-30 7.2554353e-07)
(7.0657766e-07 1.2650406e-09 -4.6713325e-32 7.0658643e-07 3.2564068e-30 7.065822e-07)
(6.8780225e-07 1.12747e-09 -1.4173737e-31 6.8781052e-07 6.36353e-30 6.8780653e-07)
(6.6920104e-07 9.9901115e-10 5.8602517e-32 6.692088e-07 -1.317598e-29 6.6920507e-07)
(6.5072306e-07 8.7936829e-10 1.1719636e-31 6.5073034e-07 6.792508e-30 6.5072685e-07)
(6.3232453e-07 7.6830942e-10 -1.2646746e-31 6.3233132e-07 3.5680732e-30 6.3232807e-07)
(6.140079e-07 6.6569652e-10 2.1101012e-31 6.1401421e-07 -7.4168755e-30 6.1401119e-07)
(5.9573897e-07 5.7122554e-10 -8.2893352e-32 5.957448e-07 7.7273504e-30 5.9574202e-07)
(5.7749611e-07 4.8475244e-10 8.5020859e-32 5.7750148e-07 -1.3682862e-29 5.7749893e-07)
(5.5924634e-07 4.0593902e-10 6.9094134e-32 5.5925126e-07 4.0423519e-30 5.5924893e-07)
(5.4073618e-07 3.3460557e-10 -1.4641597e-31 5.4074064e-07 5.8440676e-30 5.4073853e-07)
(5.2218432e-07 2.7067265e-10 -0 5.2218832e-07 -3.523273e-30 5.2218643e-07)
(5.0334201e-07 2.1415916e-10 -7.7616699e-32 5.0334556e-07 7.0198482e-30 5.0334389e-07)
(4.8408768e-07 1.6470043e-10 4.5292243e-32 4.8409075e-07 -5.6944851e-30 4.8408932e-07)
(4.6429958e-07 1.2265502e-10 2.6698455e-32 4.6430218e-07 -2.9026673e-30 4.6430098e-07)
(4.4358361e-07 8.7473297e-11 -1.5500717e-32 4.435857e-07 9.7763637e-30 4.4358475e-07)
(4.2172615e-07 6.0121627e-11 -5.2792458e-32 4.2172771e-07 -9.2982743e-30 4.2172701e-07)
(3.9802226e-07 3.9827236e-11 1.7456134e-31 3.9802322e-07 -9.8929754e-30 3.9802281e-07)
(3.7220438e-07 2.8498088e-11 3.2887368e-32 3.7220471e-07 1.261e-29 3.7220462e-07)
(3.4275764e-07 2.4373091e-11 -2.3552225e-31 3.4275722e-07 -5.4732147e-31 3.4275749e-07)
(3.0975125e-07 3.0877207e-11 -2.6034355e-33 3.0975007e-07 -2.3032489e-30 3.0975071e-07)
(2.6054226e-07 4.0702484e-11 1.4856547e-31 2.6053989e-07 1.1322472e-30 2.605411e-07)
(2.3627254e-07 7.3880144e-11 8.5271056e-32 2.3628118e-07 -6.6225338e-31 2.3627687e-07)
(2.5065297e-07 8.9179748e-11 2.7763235e-27 2.5069939e-07 -3.1090148e-26 2.5067609e-07)
(2.7203885e-07 7.9339013e-11 2.8179249e-26 2.7211308e-07 -1.375453e-25 2.720758e-07)
(2.9547375e-07 6.2286151e-11 4.9756358e-28 2.9556109e-07 -7.5904316e-27 2.9551713e-07)
(3.2057211e-07 2.9609016e-11 -2.0992964e-25 3.2063233e-07 5.4722307e-25 3.2060185e-07)
(3.4659393e-07 -6.3784467e-12 6.1970738e-26 3.4658703e-07 -1.1757309e-25 3.4659001e-07)
(3.7906742e-07 -4.6444902e-11 -8.7000117e-26 3.7893398e-07 1.4490541e-25 3.790002e-07)
(4.211958e-07 -9.0670724e-11 8.9835004e-26 4.2084936e-07 -1.4441e-25 4.2102209e-07)
(4.703961e-07 -1.3937019e-10 -5.3207373e-26 4.6972748e-07 7.8758544e-26 4.7006143e-07)
(5.245354e-07 -1.9174294e-10 1.1231057e-25 5.2342988e-07 -1.4877674e-25 5.2398252e-07)
(5.8356714e-07 -2.5121194e-10 -2.6675552e-25 5.8190398e-07 3.6732661e-25 5.8273583e-07)
(6.5100527e-07 -3.2737068e-10 1.3478723e-25 6.4864061e-07 -1.568693e-25 6.498237e-07)
(7.0728823e-07 -4.121698e-10 -3.1645796e-25 7.0419461e-07 3.9602701e-25 7.0574273e-07)
(7.5686449e-07 -4.8802131e-10 -3.6805094e-27 7.5306504e-07 -1.502153e-28 7.5496653e-07)
(8.1555743e-07 -5.6115201e-10 -1.8515299e-25 8.1093788e-07 2.3485555e-25 8.1325e-07)
(8.9096257e-07 -6.3286498e-10 -2.0053215e-30 8.8532957e-07 2.4706426e-30 8.881492e-07)
(9.9325125e-07 -7.1149198e-10 2.9805724e-27 9.8622129e-07 7.3535221e-29 9.897406e-07)
(1.1348626e-06 -7.979996e-10 3.2097322e-26 1.1258447e-06 -8.9925889e-26 1.1303599e-06)
(1.4538248e-06 -1.0682342e-09 2.0555164e-25 1.4402985e-06 -2.4770816e-25 1.4470727e-06)
(1.9473942e-06 -1.8455131e-09 -3.1268375e-25 1.9255011e-06 6.2483456e-25 1.9364687e-06)
(2.7558203e-06 -4.1194026e-09 2.3212463e-25 2.7175359e-06 -2.8006573e-25 2.7367186e-06)
(4.1294624e-06 -1.1046439e-08 1.5081446e-25 4.0577393e-06 -2.0343891e-25 4.0936833e-06)
(6.4140153e-06 -3.3199911e-08 -2.6226854e-31 6.2749736e-06 3.6264469e-31 6.3446635e-06)
(9.3028653e-06 -9.3484717e-08 -4.9312774e-30 9.0731442e-06 2.8581855e-30 9.188284e-06)
(9.4673433e-06 -1.3861466e-07 3.7363128e-25 9.2951156e-06 -1.3202209e-24 9.38138e-06)
(5.4132062e-06 -6.7379016e-08 6.2154305e-26 5.3772104e-06 -5.0487284e-25 5.3952107e-06)
(2.8742999e-06 -2.5671201e-08 -2.5632551e-26 2.8706075e-06 8.4490852e-26 2.8724354e-06)
(1.7941138e-06 -7.9713769e-09 9.4185241e-28 1.7941297e-06 9.8023769e-27 1.7941275e-06)
(1.5111962e-05 -3.1079282e-07 -5.5941356e-26 1.5109824e-05 2.0455808e-25 1.5110837e-05)
(1.4652908e-05 -2.7518612e-07 -2.3453057e-25 1.4684347e-05 -3.9756648e-25 1.4668458e-05)
(9.5644234e-06 -1.7337068e-07 -1.9733498e-25 9.6466051e-06 -1.5842295e-24 9.6056187e-06)
(2.5060505e-06 -1.2932455e-08 1.6469804e-25 2.5185462e-06 5.5684464e-25 2.5122907e-06)
(3.5460916e-07 1.1965148e-09 -1.2028032e-25 3.5136346e-07 -1.3797045e-25 3.5298773e-07)
(8.4083924e-08 2.7746075e-10 -1.5901193e-26 8.2925749e-08 2.0151231e-26 8.3504847e-08)
(1.0315275e-07 1.5245965e-10 -5.3443868e-27 1.0220303e-07 -6.8418099e-27 1.026781e-07)
(8.2296682e-08 7.0557617e-11 -1.6834748e-27 8.1656649e-08 -9.5040833e-27 8.197668e-08)
(6.8486556e-08 3.7895725e-11 -5.5299456e-27 6.804752e-08 8.8287328e-28 6.8267087e-08)
(6.0704741e-08 2.8578116e-11 1.353952e-27 6.0349222e-08 1.5931244e-27 6.0526993e-08)
(5.4911395e-08 2.5446744e-11 -1.4462882e-27 5.4628288e-08 1.3726078e-27 5.4769856e-08)
(5.5733139e-08 2.8108468e-11 -1.0602129e-27 5.5455042e-08 -1.2672791e-27 5.5594097e-08)
(6.0827541e-08 3.410115e-11 -2.1341934e-29 6.0519982e-08 7.1322127e-31 6.0673765e-08)
(7.0434009e-08 4.4817599e-11 7.6681252e-28 7.0055935e-08 -3.2811597e-27 7.0244973e-08)
(8.6235714e-08 6.3493144e-11 5.9287412e-27 8.5724525e-08 -1.5342725e-27 8.598012e-08)
(1.1094395e-07 9.5549169e-11 5.3508635e-30 1.1019841e-07 -4.7735577e-32 1.1057119e-07)
(1.4685974e-07 1.4720051e-10 6.0634502e-27 1.4575124e-07 -5.0419958e-27 1.4630551e-07)
(1.8146415e-07 2.1741134e-10 6.1628273e-27 1.799611e-07 -9.8793364e-27 1.8071267e-07)
(2.201423e-07 3.2459841e-10 1.1669679e-26 2.1818471e-07 -8.3599874e-27 2.1916357e-07)
(2.6748654e-07 4.9288947e-10 2.509514e-26 2.6500431e-07 -1.4197724e-26 2.6624551e-07)
(3.2162643e-07 7.3895565e-10 1.0786704e-28 3.1863094e-07 -1.4448206e-29 3.2012877e-07)
(3.8072318e-07 1.0829541e-09 6.2514992e-26 3.7730362e-07 -3.421588e-26 3.7901351e-07)
(4.4523382e-07 1.5282199e-09 2.6202441e-27 4.4153061e-07 6.0309914e-27 4.4338229e-07)
(5.1301568e-07 2.0417871e-09 -3.5168563e-26 5.0927815e-07 1.3686395e-26 5.1114704e-07)
(5.7299702e-07 2.4871937e-09 1.931714e-27 5.696782e-07 5.7502113e-27 5.7133753e-07)
(6.1638532e-07 2.8306409e-09 -9.754748e-27 6.1384109e-07 1.0344837e-26 6.1511353e-07)
(6.2685389e-07 2.8128751e-09 2.3495968e-26 6.253964e-07 -2.1985358e-27 6.2612454e-07)
(6.5003095e-07 3.4393661e-09 -5.8591325e-29 6.4938669e-07 -1.3402384e-27 6.4970905e-07)
(8.2578684e-07 6.2409778e-09 -2.6635511e-30 8.2552363e-07 -1.0557757e-30 8.256552e-07)
(1.266167e-06 1.198333e-08 -2.7422507e-32 1.2658563e-06 2.4974283e-30 1.266011e-06)
(1.5365258e-06 1.6606542e-08 -0 1.5362371e-06 -8.2907917e-32 1.5363813e-06)
(1.8570489e-06 2.2185503e-08 -0 1.856758e-06 -3.5597885e-30 1.8569029e-06)
(2.1438181e-06 2.7588308e-08 -0 2.1435374e-06 -0 2.1436774e-06)
(2.4386869e-06 3.3322253e-08 -0 2.4384113e-06 -0 2.4385486e-06)
(2.7258704e-06 3.9101657e-08 -0 2.725603e-06 -0 2.7257362e-06)
(3.0139037e-06 4.5021237e-08 -0 3.0136456e-06 -0 3.0137741e-06)
(3.2988293e-06 5.0962923e-08 7.4698041e-32 3.2985845e-06 2.9505661e-30 3.2987063e-06)
(3.5807878e-06 5.6883e-08 1.5714279e-29 3.5805607e-06 -7.9351627e-30 3.5806736e-06)
(3.8576919e-06 6.2686068e-08 -1.7104203e-29 3.857488e-06 5.1014159e-30 3.8575893e-06)
(4.1275252e-06 6.8282476e-08 9.3454729e-32 4.1273497e-06 -1.1665837e-29 4.1274368e-06)
(4.3884193e-06 7.3582881e-08 -0 4.3882771e-06 1.2398523e-29 4.3883475e-06)
(4.6383451e-06 7.8502797e-08 -0 4.6382405e-06 -0 4.6382922e-06)
(4.8755901e-06 8.2967397e-08 -0 4.8755266e-06 -0 4.8755577e-06)
(5.0986208e-06 8.691579e-08 -0 5.0986009e-06 -0 5.0986103e-06)
(5.3064525e-06 9.0303636e-08 -0 5.3064787e-06 3.4117644e-29 5.3064651e-06)
(5.4978797e-06 9.3079064e-08 -7.1111241e-31 5.497954e-06 7.4021196e-30 5.4979163e-06)
(5.6718057e-06 9.5210831e-08 -2.5672397e-29 5.6719287e-06 -4.7546476e-29 5.6718668e-06)
(5.827533e-06 9.6684344e-08 2.7426218e-29 5.8277044e-06 2.9852344e-29 5.8276184e-06)
(5.9643215e-06 9.7493428e-08 -1.424325e-29 5.9645399e-06 -5.874751e-29 5.9644305e-06)
(6.0827423e-06 9.7662678e-08 2.7274676e-29 6.0830058e-06 -2.9991215e-29 6.0828739e-06)
(6.1806994e-06 9.7179609e-08 -1.3797859e-29 6.1810051e-06 -2.4959363e-30 6.1808522e-06)
(6.2608449e-06 9.6119481e-08 5.3852381e-31 6.2611891e-06 -3.9610672e-29 6.261017e-06)
(6.3225725e-06 9.4509673e-08 -7.2537619e-31 6.3229512e-06 4.0004732e-29 6.3227619e-06)
(6.3668209e-06 9.2404424e-08 -1.2065992e-29 6.3672298e-06 1.9565088e-29 6.3670255e-06)
(6.3950273e-06 8.9868403e-08 1.3998991e-29 6.395462e-06 -1.9671499e-29 6.3952449e-06)
(6.4056035e-06 8.6923031e-08 4.8694725e-30 6.4060594e-06 1.9455623e-30 6.4058318e-06)
(6.4002871e-06 8.3638532e-08 -6.4240718e-30 6.4007595e-06 -4.4790607e-29 6.4005237e-06)
(6.3804105e-06 8.0081379e-08 2.9205655e-31 6.3808943e-06 4.2731832e-29 6.3806529e-06)
(6.3515374e-06 7.6366091e-08 -1.2031879e-30 6.3520288e-06 -5.552436e-31 6.3517837e-06)
(6.3141312e-06 7.2530633e-08 1.5586287e-30 6.3146271e-06 5.5167324e-31 6.3143797e-06)
(6.2614148e-06 6.8528553e-08 9.4298897e-31 6.2619113e-06 5.9348586e-31 6.2616637e-06)
(6.2006566e-06 6.4482642e-08 -1.2996947e-30 6.2011501e-06 -5.882454e-31 6.200904e-06)
(6.1313814e-06 6.0415262e-08 -4.2579974e-31 6.1318692e-06 5.2565569e-29 6.131626e-06)
(6.0546588e-06 5.6364704e-08 -3.3624768e-30 6.0551383e-06 -9.1015733e-29 6.0548993e-06)
(5.9716512e-06 5.2364833e-08 4.3871679e-30 5.9721204e-06 3.8575832e-29 5.9718865e-06)
(5.8828154e-06 4.8437285e-08 -1.6772506e-30 5.8832725e-06 -3.5230814e-29 5.8830447e-06)
(5.7886716e-06 4.4603583e-08 -3.9005214e-30 5.7891152e-06 2.937014e-29 5.7888941e-06)
(5.6895553e-06 4.0880001e-08 1.1739085e-29 5.689984e-06 -1.3804927e-28 5.6897704e-06)
(5.5859466e-06 3.7283957e-08 -6.6164363e-30 5.5863589e-06 6.8501339e-29 5.5861535e-06)
(5.4785555e-06 3.3830947e-08 3.4863587e-30 5.4789506e-06 7.6167218e-29 5.4787538e-06)
(5.3680733e-06 3.0533673e-08 -8.8570551e-30 5.3684503e-06 -1.0695778e-29 5.3682625e-06)
(5.2552231e-06 2.740153e-08 8.7495026e-30 5.2555817e-06 5.3807222e-30 5.2554031e-06)
(5.14035e-06 2.4438249e-08 1.122678e-30 5.1406901e-06 8.2784568e-29 5.1405207e-06)
(5.0235645e-06 2.1644967e-08 -1.2749939e-29 5.023886e-06 5.182222e-29 5.0237259e-06)
(4.9046771e-06 1.9021171e-08 1.0364486e-29 4.9049799e-06 -1.2960767e-28 4.9048291e-06)
(4.7835469e-06 1.656715e-08 -2.1737094e-30 4.783831e-06 1.4123539e-28 4.7836895e-06)
(4.6603863e-06 1.4284642e-08 -0 4.6606517e-06 -1.3766015e-28 4.6605196e-06)
(4.5351582e-06 1.2171491e-08 -2.2250058e-30 4.5354049e-06 -6.6967904e-32 4.5352821e-06)
(4.4078872e-06 1.0228209e-08 -3.0000041e-30 4.4081154e-06 1.3570796e-28 4.4080018e-06)
(4.278552e-06 8.4509739e-09 4.6500038e-30 4.2787617e-06 -2.7531022e-28 4.2786573e-06)
(4.1453651e-06 6.8388295e-09 4.5084965e-30 4.1455563e-06 9.7952906e-30 4.1454612e-06)
(4.0102288e-06 5.3924769e-09 -2.3218493e-30 4.0104011e-06 4.1773092e-32 4.0103154e-06)
(3.8713647e-06 4.1144678e-09 -2.3080609e-30 3.8715179e-06 2.6526735e-32 3.8714417e-06)
(3.7280481e-06 2.9988111e-09 -1.2795405e-30 3.7281817e-06 1.1302666e-28 3.7281153e-06)
(3.5794434e-06 2.0547925e-09 5.6482895e-30 3.5795571e-06 -1.1694171e-28 3.5795006e-06)
(3.4227129e-06 1.272427e-09 -2.5569006e-30 3.4228054e-06 -1.1425499e-28 3.4227595e-06)
(3.2562239e-06 6.7424477e-10 -8.0150304e-30 3.256294e-06 1.0826318e-28 3.2562593e-06)
(3.0747198e-06 2.4586136e-10 6.0504158e-30 3.0747649e-06 1.9395386e-28 3.0747425e-06)
(2.8760058e-06 3.0114392e-11 3.625942e-30 2.8760242e-06 -3.7847127e-28 2.8760153e-06)
(2.6485537e-06 -7.9582224e-12 -2.8679941e-30 2.6485401e-06 1.8172136e-28 2.648547e-06)
(2.3924088e-06 2.0510232e-10 -2.7022292e-30 2.3923634e-06 -1.4007657e-31 2.3923863e-06)
(2.0103682e-06 5.3373427e-10 1.399752e-30 2.0102732e-06 2.8429305e-28 2.0103205e-06)
(1.8163157e-06 1.3281586e-09 1.0351649e-26 1.8164227e-06 -2.8314585e-25 1.8163696e-06)
(1.9246668e-06 1.6580782e-09 3.0812513e-25 1.9255241e-06 -2.383622e-24 1.9250947e-06)
(2.092275e-06 1.4192334e-09 -5.0858387e-25 2.0936247e-06 2.3317207e-24 2.0929497e-06)
(2.2766034e-06 1.0155703e-09 -5.7790526e-25 2.2780819e-06 2.4071703e-24 2.2773415e-06)
(2.4768979e-06 2.6611502e-10 1.9165925e-24 2.4775801e-06 -4.8140195e-24 2.4772382e-06)
(2.6848442e-06 -5.5603316e-10 2.0911401e-24 2.6837927e-06 -4.7969698e-24 2.684317e-06)
(2.9358886e-06 -1.4720291e-09 -1.9174993e-25 2.9317231e-06 3.4986937e-25 2.9338047e-06)
(3.2491259e-06 -2.4787209e-09 -2.8132128e-24 3.2398797e-06 4.731352e-24 3.2445014e-06)
(3.5990835e-06 -3.5703239e-09 3.0479699e-24 3.5823825e-06 -4.8294344e-24 3.5907324e-06)
(3.958486e-06 -4.7069985e-09 -3.4425664e-24 3.9320238e-06 4.7718761e-24 3.9452548e-06)
(4.3167765e-06 -5.9414332e-09 -4.9071383e-25 4.2784029e-06 1.9431299e-25 4.2975911e-06)