y,R_0,R_1,R_2,R_3,R_4,R_5
0,6.6666667e-11,0,0,6.6666667e-11,0,6.6666667e-11
0.00048240845,1.6394344e-08,1.4402296e-12,2.4505818e-29,1.6394341e-08,-5.4037548e-26,1.6394343e-08
0.00098049384,1.1588493e-07,2.9594636e-11,1.416127e-30,1.1588481e-07,-5.5613912e-26,1.1588487e-07
0.0014947656,4.8287697e-07,2.3967351e-10,-4.3037741e-30,4.8287549e-07,2.4772395e-30,4.8287623e-07
0.0020257498,1.3996778e-06,1.1412282e-09,1.435027e-29,1.3996678e-06,2.919475e-30,1.3996728e-06
0.0025739895,3.2458207e-06,3.8760317e-09,-2.288926e-29,3.2457743e-06,-8.1815345e-30,3.2457975e-06
0.0031400454,6.5017656e-06,1.0412922e-08,1.21972e-30,6.5015981e-06,-3.076769e-28,6.5016818e-06
0.0037244966,1.1759915e-05,2.3473873e-08,-1.4173867e-28,1.1759409e-05,1.474798e-28,1.1759662e-05
0.0043279408,1.9738685e-05,4.5919408e-08,1.0399027e-28,1.9737344e-05,1.2339176e-27,1.9738015e-05
0.0049509953,3.1298159e-05,7.9192565e-08,-5.3805779e-28,3.1294955e-05,-1.8415809e-27,3.1296557e-05
0.0055942973,4.7455942e-05,1.2025193e-07,1.2557746e-28,4.7448884e-05,5.5502085e-28,4.7452414e-05
0.0062585048,6.9401047e-05,1.5623224e-07,1.6027825e-26,6.9386497e-05,5.387345e-27,6.9393772e-05
0.0069442972,9.8502174e-05,1.5591575e-07,-2.1255134e-26,9.8473785e-05,-2.1587588e-26,9.8487982e-05
0.007652376,0.00013630458,5.7127896e-08,6.0822288e-27,0.00013625171,-3.2340645e-27,0.00013627815
0.0083834654,0.00018450685,-2.5031038e-07,1.6363588e-26,0.00018441233,-4.7712101e-27,0.0001844596
0.0091383131,0.00024490618,-9.4495726e-07,-1.6126312e-25,0.0002447432,-3.9427198e-26,0.00024482469
0.0099176913,0.00031929914,-2.2933932e-06,-5.3651001e-26,0.00031902732,-3.123954e-26,0.00031916323
0.010722397,0.00040932863,-4.6607477e-06,4.6412461e-25,0.00040888942,4.5711309e-26,0.00040910904
0.011553254,0.000516279,-8.4997771e-06,4.515075e-26,0.00051559093,3.7294061e-25,0.00051593499
0.012411111,0.00064084429,-1.4306822e-05,-4.527294e-25,0.00063979928,1.1322368e-25,0.00064032184
0.013296846,0.00078292306,-2.2543176e-05,2.2211169e-25,0.00078138497,-1.6033163e-25,0.00078215411
0.014211364,0.00094151147,-3.3539848e-05,8.2107006e-25,0.00093931829,-2.8077613e-25,0.00094041503
0.015155603,0.0011147536,-4.742133e-05,-1.8501371e-24,0.0011117235,-1.010905e-25,0.0011132387
0.016130526,0.0013001572,-6.4083063e-05,-3.2515273e-25,0.0012960974,5.5671893e-25,0.0012981275
0.017137132,0.0014949175,-8.3232575e-05,1.835154e-24,0.0014896347,-5.2031125e-25,0.0014922762
0.018176449,0.0016962544,-0.00010447354,7.0710567e-25,0.0016895633,-6.9896855e-25,0.0016929089
0.019249542,0.0019016751,-0.00012739624,1.0628281e-25,0.0018934056,3.5370185e-24,0.0018975404
0.020357507,0.0021091251,-0.00015164225,-2.3383211e-24,0.0020991266,1.2752808e-24,0.0021041259
0.021501477,0.0023170298,-0.00017693407,1.3342555e-24,0.0023051741,-5.6850153e-24,0.0023111019
0.022682624,0.0025242621,-0.00020307942,-2.8562023e-24,0.0025104441,-7.9766275e-25,0.002517353
0.023902154,0.002730072,-0.00022996085,-5.6429927e-25,0.0027142098,2.7617869e-24,0.0027221409
0.025161316,0.0029340057,-0.00025751918,-3.2995805e-26,0.0029160402,1.1022068e-24,0.002925023
0.026461397,0.0031358296,-0.00028573706,-1.418711e-24,0.0031157236,2.5730775e-24,0.0031257767
0.027803728,0.0033354674,-0.0003146257,5.5386202e-24,0.0033132056,7.2598309e-25,0.0033243367
0.02918968,0.0035329512,-0.00034421478,-1.0534735e-24,0.0035085391,-4.6564037e-25,0.0035207454
0.030620672,0.0037283847,-0.0003745456,4.0803555e-24,0.0037018484,1.9428083e-24,0.0037151169
0.032098167,0.0039219167,-0.00040566661,3.0280148e-24,0.0038933028,6.0934674e-27,0.0039076102
0.033623676,0.0041137232,-0.00043763048,-7.0403092e-24,0.0040830986,-9.2906748e-24,0.0040984115
0.03519876,0.0043039942,-0.00047049218,-5.8318315e-25,0.0042714464,-1.7191308e-23,0.0042877209
0.03682503,0.0044929248,-0.00050430797,2.8975898e-24,0.0044585621,2.3034013e-24,0.0044757442
0.03850415,0.0046807102,-0.00053913505,-8.5298609e-25,0.0046446619,2.0692183e-23,0.0046626869
0.040237836,0.0048675419,-0.00057503122,8.3442807e-25,0.0048299587,-4.6044956e-24,0.0048487512
0.042027862,0.0050536053,-0.00061205467,-4.0536382e-24,0.0050146602,-1.3682e-23,0.0050341337
0.043876059,0.0052390788,-0.00065026409,-9.6526899e-24,0.0051989673,-5.0910774e-24,0.0052190242
0.045784317,0.0054241335,-0.00068971905,5.575203e-24,0.0053830745,-2.6076257e-24,0.0054036052
0.047754588,0.0056089325,-0.00073047969,2.1821344e-23,0.0055671689,7.9348388e-24,0.005588052
0.049788888,0.005793632,-0.00077260686,8.6895919e-24,0.0057514311,1.9715099e-24,0.005772533
0.051889297,0.0059783809,-0.00081616289,1.0087257e-24,0.0059360352,1.7968375e-23,0.0059572095
0.054057963,0.0061633214,-0.00086121143,-1.9414939e-23,0.0061211496,2.7799879e-23,0.0061422371
0.056297104,0.0063485901,-0.00090781707,-2.6796295e-23,0.0063069372,-9.1058661e-24,0.0063277653
0.058609012,0.0065343179,-0.00095604605,4.6316817e-25,0.0064935562,-1.8359717e-23,0.0065139388
0.06099605,0.006720631,-0.0010059663,1.3299768e-23,0.0066811605,-3.3325423e-24,0.0067008975
0.06346066,0.0069076511,-0.0010576474,6.4766958e-24,0.0068699003,-1.1437178e-23,0.0068887775
0.066005363,0.0070954964,-0.0011111611,2.8158527e-24,0.0070599223,-6.1539809e-24,0.0070777111
0.068632762,0.0072842816,-0.001166581,2.6109243e-23,0.0072513704,1.3826726e-23,0.0072678278
0.071345544,0.0074741195,-0.0012239825,-2.7080328e-24,0.0074443867,6.9366813e-24,0.0074592548
0.074146484,0.0076651203,-0.0012834435,-2.3569594e-23,0.0076391107,5.2319868e-24,0.0076521171
0.077038447,0.0078573921,-0.0013450441,2.4696498e-24,0.00783568,3.348103e-23,0.0078465375
0.08002439,0.0080510425,-0.0014088671,-2.8717119e-23,0.0080342312,3.0516958e-23,0.0080426381
0.083107369,0.0082461786,-0.0014749971,-5.4266812e-23,0.0082349003,-3.3405937e-24,0.0082405404
0.086290535,0.0084429066,-0.0015435212,-5.0147774e-23,0.0084378214,7.5769523e-24,0.0084403646
0.089577146,0.0086413334,-0.0016145302,-3.9175853e-23,0.0086431286,-2.4842858e-23,0.0086422311
0.092970562,0.0088415666,-0.0016881167,-1.3842393e-23,0.0088509557,-5.0278044e-23,0.0088462608
0.096474255,0.0090437151,-0.0017643754,-1.6496263e-23,0.009061436,1.2616909e-23,0.0090525744
0.10009181,0.0092478887,-0.0018434051,-2.484687e-23,0.0092747022,9.9305531e-24,0.0092612935
0.10382692,0.0094541998,-0.0019253073,-4.080903e-24,0.0094908872,-2.8428245e-23,0.0094725406
0.10768342,0.0096627637,-0.0020101851,1.3874993e-23,0.009710124,-3.2906595e-23,0.0096864399
0.11166524,0.0098736981,-0.0020981422,2.6862678e-23,0.0099325459,-5.0750563e-23,0.0099031166
0.11577645,0.010087123,-0.0021892841,7.0048677e-23,0.010158286,2.2716397e-25,0.010122698
0.12002127,0.010303163,-0.0022837253,3.2909376e-23,0.01038748,9.860732e-23,0.010345312
0.12440404,0.010521945,-0.0023815831,-5.761146e-23,0.01062026,5.729225e-23,0.010571091
0.12892923,0.010743605,-0.0024829751,-7.5140059e-23,0.010856759,-3.9138057e-23,0.010800168
0.13360148,0.010968282,-0.0025880221,6.8759703e-24,0.011097111,-7.5424284e-23,0.01103268
0.13842557,0.011196119,-0.002696846,1.2904951e-22,0.011341449,-4.3229701e-23,0.011268763
0.14340642,0.011427269,-0.002809572,1.1375635e-22,0.011589903,7.0246791e-23,0.011508562
0.14854914,0.01166189,-0.0029263275,-1.0676141e-22,0.011842606,8.5581953e-23,0.011752219
0.15385898,0.011900147,-0.0030472412,-1.5186031e-22,0.012099686,-8.1081326e-25,0.011999882
0.15934138,0.012142213,-0.0031724446,-4.3320513e-23,0.012361272,-1.9497845e-23,0.012251702
0.16500194,0.01238827,-0.0033020707,-7.0330393e-23,0.01262749,-4.3591668e-23,0.012507832
0.17084645,0.012638509,-0.0034362536,-3.2343642e-23,0.012898463,-3.8519153e-23,0.01276843
0.17688089,0.01289313,-0.0035751291,-2.9879882e-23,0.013174312,1.0881095e-23,0.013033656
0.18311143,0.013152344,-0.0037188343,3.1381497e-23,0.013455153,-1.0850677e-22,0.013303672
0.18954445,0.013416369,-0.0038675073,4.6002034e-22,0.013741098,-1.365293e-22,0.013578645
0.19618653,0.013685437,-0.0040212854,5.425679e-22,0.014032254,9.442566e-23,0.013858743
0.20304445,0.01395979,-0.0041802856,9.6280353e-23,0.014328723,2.456568e-22,0.014144139
0.21012524,0.01423968,-0.0043446227,-5.1161988e-22,0.014630598,2.0339387e-22,0.014435003
0.21743614,0.01452537,-0.0045144469,-6.148845e-22,0.014937966,-6.8755998e-23,0.014731513
0.22498461,0.014817133,-0.0046899049,3.6179823e-23,0.015250907,-2.3047311e-22,0.015033842
0.23277839,0.015115257,-0.0048711211,3.725342e-22,0.015569484,2.9045651e-24,0.015342168
0.24082545,0.015420037,-0.0050582143,-1.6578216e-22,0.015893754,2.4409242e-22,0.015656664
0.24913402,0.01573178,-0.0052512949,-8.4914038e-22,0.016223756,4.1934591e-22,0.015977506
0.25771259,0.016050805,-0.0054504679,-2.0797749e-21,0.016559517,3.4641389e-23,0.016304863
0.26656994,0.016377437,-0.0056558253,-6.5652774e-22,0.016901043,-5.9491511e-22,0.016638903
0.27571513,0.01671201,-0.0058674497,9.3375153e-22,0.017248325,-4.4053942e-23,0.016979786
0.28515751,0.017054861,-0.0060854186,-8.020243e-22,0.017601329,4.0323341e-22,0.017327664
0.29490674,0.01740633,-0.0063097939,-1.3433001e-21,0.017959999,-5.5887201e-23,0.01768268
0.3049728,0.017766757,-0.0065406179,-6.9020824e-22,0.018324252,-7.9532016e-23,0.018044961
0.31536597,0.018136475,-0.0067779127,-1.148485e-21,0.01869398,1.1473771e-22,0.018414617
0.3260969,0.018515805,-0.0070216562,-1.5024073e-21,0.019069035,2.06622e-22,0.018791737
0.33717655,0.018905074,-0.007271787,-2.3141298e-21,0.01944922,-1.3059477e-22,0.019176386
0.34861625,0.019304601,-0.0075282568,-5.380765e-22,0.019834283,-5.0655157e-22,0.019568597
0.36042772,0.019714688,-0.0077910021,4.8555985e-22,0.020223922,7.690577e-23,0.019968366
0.37262303,0.02013559,-0.0080598967,-1.6085704e-21,0.020617789,7.5316669e-23,0.020375645
0.38521464,0.020567498,-0.0083347733,3.1842369e-22,0.021015486,-6.5374095e-22,0.020790335
0.39821546,0.021010561,-0.0086154138,3.9410114e-21,0.021416551,-6.3521322e-22,0.021212278
0.41163876,0.021464862,-0.0089015289,5.3370019e-21,0.021820446,-3.0611133e-22,0.021641243
0.42549828,0.0219304,-0.0091927683,6.0021712e-21,0.022226547,2.1470031e-22,0.022076918
0.4398082,0.022407079,-0.0094886982,2.6260411e-21,0.022634135,9.4973498e-22,0.022518898
0.45458315,0.022894695,-0.0097887929,-1.9067569e-21,0.023042392,7.0280462e-22,0.022966667
0.46983824,0.023392903,-0.01009243,-1.2708936e-21,0.023450383,-6.8692413e-22,0.023419589
0.48558908,0.02390121,-0.010398847,6.0579604e-21,0.023857047,-7.4315583e-22,0.023876887
0.50185179,0.024418948,-0.010707136,3.6194654e-21,0.024261191,1.576662e-21,0.024337628
0.5088074,0.024636949,-0.010835168,-2.9759036e-21,0.024427,1.8340075e-21,0.024529444
0.51864298,0.024944997,-0.011016155,-1.2123824e-20,0.024661478,2.1840803e-21,0.024800706
0.53597984,0.025478265,-0.011324575,-1.6238248e-20,0.02505652,-8.1269082e-22,0.025264824
0.5538801,0.026017541,-0.011630874,-1.1790208e-21,0.025443867,-2.3621153e-21,0.025728483
0.57236207,0.026560954,-0.011933224,7.5774491e-21,0.025820102,-1.7733014e-22,0.026189962
0.59144465,0.027105834,-0.012246913,-5.5850517e-22,0.026193059,4.7374974e-22,0.026647315
0.61114736,0.027631051,-0.012552543,1.3470286e-22,0.026579498,-5.7604267e-22,0.027099484
0.63149036,0.028112905,-0.012797321,6.1664462e-21,0.026989127,-4.4860025e-22,0.027547721
0.65249445,0.028569485,-0.013003897,6.3173373e-21,0.027416364,2.0816405e-22,0.027992896
0.67418111,0.029026952,-0.013206876,9.8711859e-22,0.02783564,7.6380483e-22,0.028430798
0.69657252,0.02948391,-0.013401184,-4.7000948e-21,0.028221469,2.7795335e-22,0.028851755
0.7196916,0.02992567,-0.01358085,-3.5914209e-21,0.028562024,1.1035904e-21,0.02924298
0.74356198,0.030332706,-0.013739611,-2.1448401e-20,0.028849718,1.1728427e-21,0.029590622
0.76820808,0.030685665,-0.013871532,-1.8439638e-20,0.029077553,-1.7147208e-21,0.029881397
0.79365511,0.03096798,-0.0139714,7.5743767e-21,0.029238768,-1.6550202e-21,0.03010356
0.8199291,0.031166365,-0.014034799,8.2579243e-21,0.029326515,-2.6542272e-22,0.030247172
0.84705692,0.031271238,-0.014057962,1.1187804e-20,0.029333736,6.5034126e-22,0.030303878
0.87506632,0.031275543,-0.014037675,-4.6079259e-21,0.02925382,4.8798675e-22,0.030266654
0.90398595,0.031172244,-0.013971106,3.1517834e-21,0.029080959,-1.437345e-21,0.030129225
0.93384538,0.030955436,-0.013855938,2.4622108e-20,0.028810681,-2.3944263e-22,0.029886398
0.96467516,0.030620991,-0.013690748,9.8083986e-21,0.028440703,1.7112565e-21,0.029534858
0.99650683,0.03016637,-0.013475187,-1.1134785e-20,0.027971318,2.1715313e-22,0.029073513
1.0293729,0.029592056,-0.013210313,-2.1319491e-21,0.027405921,-1.0363946e-21,0.02850429
1.0633071,0.028902335,-0.012898858,9.6785573e-21,0.026751396,-7.6852086e-22,0.027832776
1.098344,0.028105755,-0.012545342,3.1488018e-20,0.02601828,-8.6205106e-22,0.0270685
1.1345196,0.027214261,-0.012155569,6.2494041e-20,0.025219566,2.6981714e-21,0.026223922
1.1668559,0.026373535,-0.011792659,-4.3381304e-21,0.02448417,3.3064935e-21,0.025436274
1.1718726,0.026243341,-0.011736356,-1.5300198e-20,0.024370133,3.3691475e-21,0.0253141
1.2104523,0.025213154,-0.011295857,-5.5515266e-20,0.023487113,-1.5636016e-21,0.024357034
1.250285,0.024146367,-0.01084447,6.2308886e-21,0.022591318,-8.360182e-22,0.023375235
1.2914115,0.023068995,-0.010393086,-1.5357443e-20,0.021704752,1.2295075e-21,0.022392748
1.3338737,0.022001094,-0.00994952,-7.1387943e-20,0.020842831,-1.1727457e-21,0.021427367
1.3777151,0.020955884,-0.0095182275,-3.597863e-20,0.020012785,-1.8239333e-21,0.020489303
1.4229805,0.019943656,-0.0091019642,-6.2092456e-21,0.019217431,-2.5906334e-22,0.019585129
1.4697159,0.018971225,-0.0087018173,-1.988699e-20,0.018456048,-1.0982673e-21,0.018717753
1.5179692,0.018046935,-0.0083205433,3.2197399e-20,0.017732253,-1.3117468e-22,0.017893213
1.5662215,0.017184433,-0.0079632714,3.4279358e-20,0.017056191,6.0742745e-22,0.017123625
1.6129542,0.016389796,-0.0076322433,4.1482895e-20,0.016430105,7.7870509e-22,0.016412908
1.6582152,0.015656312,-0.0073251276,3.3029029e-20,0.015847371,2.1916218e-21,0.015754368
1.7020508,0.014974987,-0.007038568,-7.6563204e-20,0.015302709,-7.2790192e-22,0.015141031
1.7445059,0.014339599,-0.006770442,-5.315009e-20,0.014793687,-1.8412294e-21,0.014568526
1.7856241,0.013745627,-0.0065193328,-3.8444395e-20,0.014318838,-1.3614426e-21,0.014033858
1.80701,0.013446725,-0.0063928699,-2.6482091e-20,0.014081153,-1.4489523e-21,0.013765443
1.8254639,0.013188836,-0.0062836998,-1.5063389e-20,0.013876065,-1.4019229e-21,0.01353378
1.8640662,0.012665389,-0.0060620718,5.8634647e-20,0.013463077,1.3643072e-21,0.013065196
1.9014509,0.012172378,-0.0058533552,-2.1180593e-20,0.013078084,2.3881567e-21,0.012625815
1.9376564,0.011707973,-0.0056566353,-1.7138247e-19,0.012719378,-2.6994692e-21,0.012213702
1.97272,0.011272961,-0.0054713971,-6.3080288e-20,0.012380488,-3.9103692e-21,0.011826939
2.0066779,0.010874659,-0.0052963017,6.1599589e-20,0.012048978,1.1581012e-23,0.011462835
2.0395648,0.010521672,-0.0050872182,2.0676621e-20,0.011710072,9.7054553e-22,0.011116368
2.0714147,0.010200936,-0.0048479963,-1.3507571e-21,0.011364397,3.1827807e-22,0.010782088
2.1022603,0.0098925483,-0.0046150559,-7.7432151e-21,0.011024469,9.8053985e-23,0.010457927
2.1321334,0.0095927303,-0.0043785499,-1.9329584e-20,0.010695847,3.5303955e-22,0.010143992
2.1610646,0.0093021372,-0.0041396848,-5.1470381e-20,0.010379384,-7.0232418e-22,0.0098404306
2.1890837,0.0090212804,-0.0039005214,-1.0525701e-20,0.010074101,-4.9123276e-22,0.0095473191
2.2162195,0.0087504678,-0.0036627781,-1.8825898e-20,0.0097796443,-4.0263941e-22,0.0092646614
2.2424998,0.0084898531,-0.0034277755,1.1415467e-20,0.0094957289,1.1465121e-23,0.0089923958
2.2679518,0.0082395127,-0.0031965218,-6.8192594e-21,0.0092220723,4.9651943e-22,0.0087304035
2.2926015,0.007999409,-0.0029697707,-4.1076349e-20,0.0089584088,-1.3175405e-21,0.0084785259
2.3164742,0.0077694077,-0.0027480576,6.0606123e-20,0.0087044946,4.2392513e-22,0.0082365816
2.3395945,0.0075493486,-0.0025317979,-7.5468294e-21,0.0084600989,5.570631e-22,0.0080043695
2.3619861,0.0073390161,-0.0023212528,8.085982e-21,0.0082249913,8.8204428e-23,0.0077816707
2.3836721,0.0071381701,-0.0021165955,-3.6669181e-21,0.0079989577,8.9237503e-22,0.0075682601
2.4046746,0.0069465788,-0.0019179555,-6.5020088e-20,0.0077818035,-8.7563163e-22,0.0073639142
2.4250153,0.0067639824,-0.0017253402,5.1561343e-21,0.0075733478,-8.7663034e-22,0.0071684165
2.4298487,0.0067213221,-0.0016795584,5.3983242e-21,0.0075243067,-4.2537197e-22,0.007122572
2.4447218,0.006590049,-0.0015386616,7.3230767e-21,0.0073733775,9.8425372e-22,0.0069815037
2.463809,0.0064246157,-0.0013579404,-5.9571421e-20,0.0071817828,1.254211e-22,0.0068030286
2.4822943,0.0062675056,-0.0011830985,-4.7050426e-20,0.0069984474,-1.6588536e-21,0.0066328322
2.5001966,0.0061184751,-0.0010140528,2.7082747e-20,0.0068232611,-5.0904952e-22,0.0064707553
2.5175344,0.0059773567,-0.00085066284,1.2808829e-20,0.0066561286,6.1136843e-23,0.0063166553
2.5343255,0.0058439867,-0.00069279403,2.8659458e-20,0.0064969684,1.4863057e-22,0.0061704077
2.5505871,0.0057181995,-0.00054030034,2.0549826e-20,0.0063457188,1.5844131e-21,0.0060319096
2.5663361,0.0055998946,-0.00039300364,-6.1218371e-20,0.0062023377,7.7489183e-23,0.0059010792
2.5815885,0.0054889518,-0.0002507542,-2.32897e-20,0.0060667936,-1.3332578e-21,0.005777849
2.5963601,0.0053852859,-0.00011338053,1.1579681e-20,0.0059390662,4.1827703e-22,0.0056621661
2.610666,0.0052888427,1.9291452e-05,-3.7874809e-20,0.0058191511,4.0425277e-22,0.0055539967
2.624521,0.0051995838,0.0001474447,-3.3623818e-20,0.0057070588,-1.2037777e-21,0.0054533252
2.6379393,0.0051174677,0.0002712447,1.4209478e-20,0.0056028121,-8.4416763e-22,0.0053601512
2.6509346,0.0050424886,0.00039087409,2.2616606e-20,0.0055064413,5.8661601e-22,0.0052744856
2.6635203,0.0049746658,0.00050650915,-7.5501317e-21,0.0054179826,4.2770365e-22,0.0051963474
2.6757094,0.004913996,0.00061829146,-4.9331432e-21,0.0053374737,-1.8437401e-22,0.0051257608
2.6875143,0.0048604917,0.0007264007,3.5420423e-22,0.0052649507,7.5839252e-23,0.0050627507
2.6989472,0.004814174,0.00083101008,-7.7936338e-21,0.0052004434,-3.0961129e-22,0.0050073385
2.7100198,0.0047750458,0.00093226689,1.1230735e-20,0.0051439719,-5.1138392e-22,0.0049595387
2.7207435,0.0047431048,0.0010303094,2.0628787e-20,0.0050955419,2.8294531e-22,0.0049193536
2.7311293,0.0047183403,0.0011252804,4.8618779e-21,0.0050551403,6.2565725e-22,0.0048867695
2.7411879,0.0047007097,0.0012173237,-7.5314897e-21,0.0050227299,1.7812295e-23,0.0048617506
2.7509295,0.0046901635,0.0013065434,1.1843948e-21,0.004998245,-3.0445326e-23,0.0048442344
2.7603642,0.0046866179,0.0013930487,-4.6873744e-21,0.0049815937,7.461059e-23,0.0048341341
2.7695016,0.0046899348,0.0014769597,-3.5176307e-21,0.0049726307,-1.7013567e-22,0.0048313117
2.7783512,0.0046999519,0.0015583557,1.3641594e-21,0.0049711683,8.6697919e-23,0.0048355887
2.7869219,0.0047164807,0.0016373101,-5.8577052e-21,0.004976995,-6.8371288e-23,0.0048467639
2.7952227,0.0047392765,0.0017138961,1.7163411e-21,0.004989845,-1.9851229e-22,0.0048645839
2.8032619,0.004768046,0.0017881595,2.363496e-21,0.0050094024,4.2820957e-22,0.0048887457
2.8110479,0.0048024587,0.0018601361,-1.2485689e-20,0.0050353079,-4.9003687e-23,0.0049189042
2.8185886,0.0048421457,0.0019298673,6.5128605e-22,0.0050671602,-5.9601321e-22,0.0049546732
2.8258918,0.004886701,0.0019973726,8.8064194e-21,0.0051045187,9.8826167e-23,0.0049956282
2.832965,0.0049356801,0.0020626558,-4.8456055e-22,0.0051469085,2.8084859e-22,0.0050413112
2.8398154,0.0049886146,0.0021257221,-1.2484098e-21,0.0051938255,1.0594169e-23,0.0050912356
2.8464499,0.0050450127,0.0021865674,-1.118964e-21,0.0052447425,-1.9353411e-22,0.0051448917
2.8528756,0.005104366,0.0022451834,4.440482e-21,0.0052991148,-2.2234124e-22,0.0052017532
2.8590988,0.0051661558,0.0023015619,6.6251053e-21,0.0053563874,1.0749367e-22,0.0052612833
2.865126,0.0052298594,0.0023556933,2.1341106e-21,0.0054160036,5.2666525e-22,0.0053229417
2.8709634,0.0052949551,0.002407524,-8.6109678e-21,0.0054774093,-5.8859558e-23,0.0053861912
2.876617,0.0053609316,0.0024569783,1.9622049e-21,0.0055400587,-3.5130063e-22,0.0054505036
2.8820925,0.0054272933,0.0025040558,2.1546077e-21,0.0056034197,1.4388636e-22,0.0055153644
2.8873956,0.005493565,0.0025487974,-1.7188126e-21,0.0056669863,2.7092714e-23,0.0055802817
2.8925316,0.0055592916,0.00259121,9.6298275e-22,0.0057302746,6.7117099e-23,0.0056447843
2.897506,0.005624045,0.0026312802,-3.0595534e-21,0.0057927994,-6.4575532e-23,0.0057084253
2.9023236,0.0056874123,0.0026707749,1.8919231e-21,0.0058541428,2.2304409e-23,0.0057707889
2.9069896,0.0057491774,0.0027075816,-3.0293621e-21,0.0059138513,2.6703651e-22,0.0058315248
2.9115086,0.0058091768,0.0027378147,-5.1528226e-21,0.0059715492,-2.7282367e-22,0.005890367
2.9158853,0.0058669029,0.0027641812,2.9346593e-21,0.0060270493,-2.6095228e-22,0.0059469743
2.9201242,0.0059216298,0.0027892392,1.7645753e-21,0.0060799452,7.4807553e-23,0.0060007836
2.9242297,0.0059726419,0.0028126723,1.1926734e-21,0.0061295928,1.0147713e-22,0.0060511158
2.9282058,0.0060193281,0.0028341912,-5.0419629e-22,0.0061753673,1.0176257e-22,0.0060973477
2.9320568,0.006061228,0.0028535699,-1.1798259e-21,0.0062167542,-1.4239115e-22,0.0061389913
2.9357865,0.0060980333,0.0028706546,2.400953e-21,0.0062533957,1.4357648e-22,0.0061757141
2.9393987,0.0061295691,0.0028853586,-3.8622166e-21,0.0062850916,1.7513764e-22,0.0062073286
2.9428972,0.006155777,0.0028976535,-1.8493e-21,0.0063117812,-3.3731733e-22,0.0062337734
2.9462856,0.006176707,0.0029075609,3.1275661e-21,0.0063335157,2.5841496e-23,0.0062550951
2.9495673,0.0061925271,0.0029151471,-1.8979777e-21,0.0063503907,5.7606339e-23,0.0062714341
2.9527456,0.0062035854,0.0029205173,1.5514052e-21,0.0063624267,2.2182007e-23,0.006283007
2.9558239,0.0062104701,0.0029234444,-2.0373572e-21,0.0063695924,2.6504363e-22,0.0062900708
2.9588052,0.0062137832,0.0029213535,-3.9670483e-21,0.0063718936,-2.4623911e-22,0.0062928585
2.9616927,0.0062135716,0.0029157847,2.4448216e-21,0.0063695644,-2.3838631e-22,0.0062915479
2.9644893,0.0062095773,0.0029097122,1.1127892e-21,0.0063629545,1.3571774e-22,0.0062862483
2.9671978,0.0062017698,0.0029021722,-1.6602625e-22,0.0063522783,6.7928462e-23,0.0062770201
2.9698211,0.0061902028,0.0028930904,-2.1257396e-22,0.0063376367,1.4636521e-23,0.0062639175
2.9723618,0.0061749192,0.0028825216,-4.3332436e-22,0.0063190578,-7.3314213e-23,0.0062469858
2.9748224,0.0061559502,0.0028705122,9.9189177e-22,0.0062965738,-1.6645833e-22,0.0062262593
2.9772057,0.0061333135,0.0028570983,2.4553916e-21,0.0062702123,8.6047345e-23,0.0062017604
2.9795138,0.0061070116,0.0028423063,-2.8807742e-22,0.0062399863,2.782283e-22,0.0061734965
2.9817494,0.0060770292,0.0028261529,-2.2336674e-21,0.0062058935,-4.9511934e-23,0.006141459
2.9839145,0.0060433316,0.0028086399,3.1297791e-22,0.0061679131,-1.404739e-22,0.0061056201
2.9860115,0.0060058627,0.0027897537,1.8164036e-22,0.0061260043,-1.7548287e-24,0.0060659314
2.9880424,0.0059645423,0.0027694678,2.9821731e-22,0.0060801033,-8.7404185e-23,0.0060223208
2.9900094,0.0059192636,0.0027477392,1.3812685e-21,0.0060301208,4.8349551e-23,0.0059746903
2.9919145,0.0058698907,0.0027245039,-2.8186512e-22,0.0059759389,1.5453499e-22,0.0059229131
2.9937597,0.0058162552,0.0026996785,-8.6658051e-22,0.0059174081,-1.8132538e-23,0.00586683
2.9955467,0.0057581533,0.0026731591,-8.4529677e-23,0.0058543437,-5.5090967e-23,0.005806247
2.9972775,0.005695342,0.0026448153,-5.7074928e-23,0.0057865221,-7.342159e-24,0.0057409307
2.9989538,0.0056275349,0.0026144899,9.4379353e-24,0.0057136769,1.9222257e-23,0.0056706046
3.0005773,0.0055543978,0.0025819963,-2.5392928e-22,0.0056354944,6.5768504e-23,0.0055949449
3.0021497,0.0054755446,0.0025471139,-6.9791486e-22,0.0055516089,-2.1881209e-23,0.0055135757
3.0036726,0.0053905329,0.002509585,-2.6524707e-23,0.0054615977,-1.1338771e-22,0.0054260643
3.0051476,0.0052988588,0.0024691106,5.2855851e-22,0.0053649774,1.7719612e-24,0.0053319163
3.0065761,0.0051999529,0.0024253483,8.1944889e-25,0.0052611951,5.5999753e-23,0.0052305715
3.0079597,0.0050931746,0.0023785207,-8.042104e-23,0.0051496251,-4.1106185e-23,0.0051214001
3.0092997,0.0049777552,0.0023262744,3.2290484e-22,0.0050294471,2.3423368e-23,0.0050036036
3.0105976,0.004852711,0.0022673176,-2.0912186e-22,0.0048996783,8.6439364e-23,0.0048761947
3.0118546,0.0047169483,0.0022031373,-3.8731778e-22,0.0047593229,-9.014309e-24,0.0047381338
3.013072,0.0045694092,0.0021335217,-1.1041611e-22,0.0046073828,-7.5140086e-23,0.0045883949
3.0142511,0.0044090823,0.0020580125,1.7896363e-22,0.0044428803,-6.7390987e-23,0.0044259807
3.015393,0.0042350211,0.0019761718,3.1669074e-22,0.0042648855,2.6135639e-23,0.0042499528
3.0164991,0.0040463903,0.0018876131,2.7651621e-24,0.0040725725,4.7142365e-23,0.0040594807
3.0175703,0.0038425272,0.0017920297,-2.6516003e-23,0.003865283,6.1306256e-24,0.003853905
3.0186078,0.0036229902,0.0016892155,-2.4057586e-23,0.0036425749,1.6018357e-23,0.0036327827
3.0196126,0.0033874156,0.0015750828,-8.4207946e-23,0.0034040465,-1.4407016e-23,0.0033957306
3.0205858,0.0031356866,0.0014479538,3.5467294e-23,0.0031495768,-2.8463411e-24,0.0031426314
3.0215284,0.0028685412,0.0013107555,-3.5044313e-23,0.0028799426,1.7853652e-23,0.0028742419
3.0224413,0.0025879195,0.0011647714,-3.7137801e-23,0.0025970918,-2.0863078e-23,0.0025925054
3.0233255,0.0022971489,0.0010120792,3.6142905e-23,0.0023043573,-1.1681085e-23,0.0023007529
3.0241818,0.0020011357,0.00085614764,1.099664e-23,0.0020066503,1.1477118e-23,0.0020038928
3.0250112,0.0017063709,0.00070177111,-6.9693169e-24,0.0017104617,2.3814819e-24,0.0017084161
3.0258144,0.001420597,0.00055473897,3.7611999e-25,0.0014235277,-2.4555213e-24,0.0014220622
3.0265924,0.0011520567,0.00042104862,9.660373e-25,0.0011540766,-7.9358625e-25,0.0011530665
3.0273459,0.00090839381,0.00030577631,1.3608693e-24,0.00090972846,9.0071373e-26,0.00090906103
3.0280757,0.0006954738,0.00021198168,2.9494229e-25,0.00069631678,2.8531412e-25,0.00069589525
3.0287825,0.00051650917,0.00014012727,1.0194797e-25,0.00051701691,6.6517357e-27,0.00051676302
3.0294671,0.00037179163,8.8280581e-05,8.9399835e-26,0.00037208258,3.3601025e-25,0.0003719371
3.0301301,0.00025907348,5.2953431e-05,-2.7833112e-25,0.00025923157,9.164401e-26,0.00025915252
3.0307722,0.00017437686,3.0140727e-05,-4.0955144e-26,0.00017445781,-1.1398452e-25,0.00017441734
3.0313942,0.00011290473,1.6143282e-05,1.4511814e-26,0.00011294335,-1.9004131e-26,0.00011292404
3.0319965,6.9802259e-05,7.9962695e-06,1.5867179e-27,6.9819078e-05,-5.0297828e-27,6.9810668e-05
3.0325799,4.0664751e-05,3.5494991e-06,5.214881e-27,4.0671202e-05,5.2724263e-27,4.0667976e-05
3.033145,2.1801896e-05,1.3403938e-06,-1.7157635e-27,2.1803955e-05,2.7888966e-27,2.1802926e-05
3.0336922,1.031055e-05,3.9766347e-07,-1.5926045e-28,1.0311051e-05,-9.5398632e-28,1.03108e-05
3.0342222,3.9997788e-06,8.2493468e-08,4.2403922e-29,3.9998602e-06,-1.2863938e-28,3.9998194e-06
3.0347356,1.214918e-06,1.0290852e-08,3.7336826e-30,1.2149252e-06,1.5559052e-29,1.2149216e-06
3.0352328,1.0026502e-06,1.0736043e-09,-2.1527648e-31,1.0026506e-06,5.8604082e-31,1.0026504e-06
3.0357133,2.1573498e-09,2.2387842e-12,-4.489337e-34,2.1573506e-09,1.222371e-33,2.1573502e-09
