y,k
0.4481146,1e-10
0.44853879,1.5700455e-07
0.44897681,3.9350767e-07
0.44942906,1.5738201e-06
0.44989599,4.5496248e-06
0.4503781,1.0549054e-05
0.45087586,2.1133828e-05
0.4513898,3.8228945e-05
0.45192042,6.4164055e-05
0.45246829,0.00010171728
0.45303395,0.00015415457
0.45361798,0.0002252553
0.45422098,0.00031930891
0.45484357,0.00044106116
0.45548638,0.00059558133
0.45615006,0.00078801657
0.45683531,0.0010232066
0.4575428,0.0013051537
0.45827328,0.0016363938
0.45902747,0.0020173822
0.45980616,0.0024460692
0.46061014,0.0029178415
0.46144023,0.0034259212
0.46229727,0.0039621518
0.46318214,0.0045179636
0.46409575,0.0050852601
0.46503902,0.0056570446
0.46601292,0.006227726
0.46701845,0.0067931508
0.46805662,0.0073504573
0.46912849,0.0078978475
0.47023517,0.0084343424
0.47137778,0.0089595627
0.47255748,0.0094735478
0.47377548,0.0099766172
0.47503301,0.010469267
0.47633137,0.010952098
0.47767188,0.011425762
0.47905589,0.011890932
0.48048483,0.012348275
0.48196014,0.012798441
0.48348334,0.013242053
0.48505597,0.013679704
0.48667964,0.014111952
0.48835599,0.014539326
0.49008674,0.014962318
0.49187366,0.015381393
0.49371855,0.015796984
0.4956233,0.016209497
0.49758984,0.016619316
0.49962018,0.017026799
0.50171638,0.017432283
0.50388058,0.017836086
0.50611498,0.018238508
0.50842185,0.018639833
0.51080353,0.019040328
0.51326245,0.019440249
0.51580111,0.019839836
0.51842208,0.020239319
0.52112804,0.020638918
0.52392172,0.021038841
0.52680597,0.021439285
0.52978371,0.021840442
0.53285797,0.022242493
0.53603187,0.022645608
0.53930862,0.023049955
0.54269156,0.023455688
0.54618412,0.023862957
0.54978982,0.024271902
0.55351233,0.024682657
0.55735543,0.025095345
0.561323,0.025510083
0.56541906,0.025926979
0.56964776,0.026346129
0.57177618,0.02655161
0.57401366,0.026767626
0.57852116,0.027191546
0.58317458,0.027617951
0.5879786,0.028046891
0.5929381,0.028478404
0.59805807,0.02891251
0.60334368,0.029349213
0.60880029,0.029788498
0.61443337,0.03023038
0.62024863,0.030675534
0.62625192,0.031126619
0.63244929,0.031587797
0.63884698,0.032061996
0.64545143,0.032550008
0.65226929,0.03305179
0.65930742,0.033567194
0.66657289,0.034095965
0.67407299,0.034637723
0.68181526,0.03519197
0.68980747,0.035758083
0.69805763,0.036335294
0.70657401,0.036922679
0.71536515,0.037519141
0.72443983,0.038123388
0.73380715,0.038733928
0.74347646,0.039349042
0.75345743,0.039966776
0.76376001,0.040584929
0.77439449,0.041201039
0.78537146,0.041812384
0.79670186,0.042415967
0.80839697,0.043008527
0.8204684,0.043586532
0.83292817,0.044146193
0.84578863,0.044683476
0.85906255,0.045194115
0.87276307,0.045673631
0.88690376,0.04611736
0.9014986,0.046520478
0.91656202,0.046878029
0.93210888,0.047184963
0.94815452,0.04743615
0.96471474,0.047625928
0.98180582,0.047747535
0.99944458,0.047797549
1.0176483,0.047774062
1.0364349,0.047671501
1.0558227,0.047484565
1.0758308,0.047210115
1.0964785,0.046844476
1.1177862,0.046384566
1.1397745,0.045829485
1.1624649,0.045178904
1.1858794,0.044433729
1.2100408,0.043596318
1.2349723,0.042670637
1.2606983,0.041662367
1.2872435,0.040578955
1.3146335,0.039429569
1.3209788,0.039159207
1.3428965,0.038224678
1.3720585,0.036976628
1.4021469,0.035698459
1.4331904,0.034403499
1.4652188,0.033104842
1.4982627,0.031814663
1.5323536,0.030543527
1.567524,0.029299751
1.6038071,0.028088913
1.6412376,0.026913596
1.6798508,0.025773506
1.7196831,0.024665821
1.7607723,0.023593796
1.8018234,0.02257617
1.8415466,0.021629267
1.8799862,0.020752196
1.9171847,0.019938174
1.9531836,0.019182553
1.9880224,0.018483115
2.0217396,0.017838964
2.0543721,0.017245402
2.0859558,0.016691154
2.116525,0.016165431
2.13776,0.015804827
2.1461135,0.015662954
2.1747538,0.0151813
2.2024761,0.014718812
2.2293103,0.014274296
2.2552856,0.013846892
2.2804299,0.013435959
2.3047701,0.013040971
2.3283326,0.012661473
2.3511425,0.012297089
2.3732242,0.011947507
2.3946014,0.011612413
2.4152968,0.011291488
2.4353325,0.010984427
2.4547298,0.01069094
2.4735093,0.010410751
2.4916909,0.010143603
2.509294,0.0098892579
2.526337,0.0096475012
2.542838,0.0094181411
2.5588145,0.0092010099
2.5742833,0.0089959647
2.5892607,0.008802887
2.6037624,0.008621682
2.6178038,0.0084522772
2.6313994,0.0082946196
2.6445637,0.0081486737
2.6573104,0.0080144169
2.6696528,0.0078918359
2.6816039,0.0077809207
2.6931762,0.0076816594
2.7043818,0.0075940311
2.7152323,0.0075179989
2.7257392,0.0074535025
2.7359133,0.0074004505
2.7457652,0.0073587134
2.7553053,0.0073281167
2.7645435,0.0073086099
2.7734893,0.0072998425
2.782152,0.0073011712
2.7905408,0.0073122462
2.7986642,0.0073327008
2.8065307,0.0073619917
2.8141485,0.0073995145
2.8215254,0.0074446091
2.8286692,0.0074965663
2.8355872,0.0075546365
2.8422866,0.007618039
2.8487743,0.007685972
2.8550571,0.0077576227
2.8611414,0.0078321778
2.8670335,0.007908833
2.8727395,0.0079868021
2.8782654,0.0080653255
2.8836168,0.008143677
2.8887992,0.0082211703
2.893818,0.0082971644
2.8986784,0.0083710677
2.9033854,0.0084423415
2.9079439,0.0085105032
2.9123585,0.0085751277
2.9166338,0.008635849
2.9207742,0.0086923605
2.924784,0.008744416
2.9286673,0.0087918205
2.9324281,0.0088344299
2.9360703,0.0088721536
2.9395976,0.0089049473
2.9430137,0.0089328073
2.946322,0.0089557648
2.949526,0.0089738799
2.952629,0.0089872355
2.9556341,0.0089959116
2.9585445,0.0090000234
2.9613632,0.0089997227
2.964093,0.0089951235
2.9667367,0.0089863264
2.9692971,0.0089734402
2.9717768,0.0089565635
2.9741784,0.0089357813
2.9765042,0.0089111621
2.9787568,0.0088827545
2.9809383,0.0088505848
2.9830511,0.008814654
2.9850974,0.0087749344
2.9870791,0.0087313674
2.9889984,0.0086838595
2.9908573,0.0086322793
2.9926575,0.0085764539
2.9944011,0.0085161652
2.9960897,0.0084511458
2.9977251,0.0083810753
2.999309,0.0083055763
3.000843,0.0082242102
3.0023287,0.008136474
3.0037676,0.0080417969
3.0051611,0.0079394096
3.0065108,0.0078282784
3.0078179,0.007707235
3.0090839,0.0075750524
3.01031,0.0074304612
3.0114975,0.0072721581
3.0126476,0.0070988225
3.0137614,0.0069091414
3.0148402,0.0067018443
3.015885,0.0064757475
3.0168969,0.0062298127
3.017877,0.0059632185
3.0188261,0.005675447
3.0197454,0.0053663819
3.0206357,0.0050364102
3.021498,0.0046864756
3.0223332,0.0043177096
3.023142,0.003931974
3.0239254,0.0035330154
3.0246841,0.0031265275
3.0254189,0.002719843
3.0261306,0.0023215674
3.0268199,0.0019409338
3.0274874,0.0015868677
3.028134,0.0012669425
3.0287602,0.00098648866
3.0293667,0.00074809068
3.029954,0.00055158309
3.0305229,0.00039448746
3.0310739,0.00027271185
3.0316075,0.00018129085
3.0321244,0.00011500907
3.0326249,6.8843758e-05
3.0331097,3.8229511e-05
3.0335792,1.9184465e-05
3.034034,8.3461864e-06
3.0344744,2.9633009e-06
3.034901,9.1372488e-07
3.0353141,1.3184389e-06
3.0357143,1e-10
