y,U_0,U_1,U_2
1.0002541,0,0,0
1.0008359,4.2015831e-18,7.5452978e-21,-6.1840992e-40
1.0014527,8.5883761e-18,1.3374347e-20,-1.1612156e-39
1.0021064,1.3228927e-17,1.6985544e-20,1.8367105e-39
1.0027994,1.813271e-17,1.8015907e-20,1.6645573e-39
1.0035339,2.330945e-17,1.6041884e-20,-1.5336137e-40
1.0043126,2.8769115e-17,1.056918e-20,-1.3911467e-39
1.005138,3.4521918e-17,1.043232e-21,-1.8435173e-39
1.006013,4.0578318e-17,-1.3147827e-20,5.0581782e-41
1.0069405,4.6949011e-17,-3.26773e-20,1.0623596e-39
1.0079236,5.364494e-17,-5.828467e-20,1.6521863e-40
1.0089658,6.0677286e-17,-9.0779918e-20,9.6776859e-40
1.0100705,6.8057463e-17,-1.3104719e-19,-2.6136799e-40
1.0112415,7.5797109e-17,-1.800486e-19,-6.9653309e-40
1.0124829,8.3908083e-17,-2.3882746e-19,8.2285709e-40
1.0137987,9.2402457e-17,-3.0851119e-19,1.4521245e-39
1.0151935,1.012925e-16,-3.9031369e-19,-7.7068647e-40
1.0166721,1.1059065e-16,-4.8553674e-19,-2.7845953e-39
1.0182393,1.2030953e-16,-5.9557086e-19,-2.5924208e-40
1.0199007,1.3046188e-16,-7.2189443e-19,7.3311922e-40
1.0216618,1.4106057e-16,-8.6607213e-19,-6.4797935e-40
1.0235286,1.5211855e-16,-1.0297512e-18,1.2411973e-39
1.0255075,1.636488e-16,-1.2146561e-18,6.8694263e-40
1.0276052,1.7566431e-16,-1.422581e-18,-1.6715643e-39
1.0298287,1.8817802e-16,-1.6553798e-18,2.4189724e-39
1.0321858,2.0120274e-16,-1.9149529e-18,-3.7795634e-40
1.0346843,2.1475113e-16,-2.2032319e-18,-9.8819184e-40
1.0373328,2.2883558e-16,-2.5221596e-18,9.2380246e-40
1.0401402,2.4346814e-16,-2.8736676e-18,-1.4060863e-39
1.0431162,2.5866042e-16,-3.259649e-18,2.3088436e-39
1.0462709,2.7442347e-16,-3.6819272e-18,-1.8040923e-39
1.0496148,2.9076769e-16,-4.1422208e-18,-7.2522618e-40
1.0531596,3.0770266e-16,-4.6421033e-18,3.8350457e-39
1.0569171,3.2523699e-16,-5.1829595e-18,9.0542552e-40
1.0609001,3.4337817e-16,-5.7659373e-18,-3.296443e-39
1.0651222,3.6213243e-16,-6.3918952e-18,-1.4053495e-39
1.0695978,3.8150446e-16,-7.0613482e-18,1.0790423e-39
1.074342,4.0149728e-16,-7.7744096e-18,-4.0934383e-40
1.079371,4.2211202e-16,-8.530732e-18,-4.0142964e-40
1.0847018,4.4334767e-16,-9.3294488e-18,2.005102e-39
1.0903526,4.6520086e-16,-1.0169116e-17,2.622715e-40
1.0963427,4.8766561e-16,-1.1047659e-17,-5.3124293e-39
1.1026923,5.1073314e-16,-1.1962322e-17,1.0343852e-39
1.109423,5.3439157e-16,-1.2909627e-17,1.378556e-39
1.1165578,5.5862574e-16,-1.3885345e-17,-3.194889e-39
1.1241208,5.8341694e-16,-1.4884471e-17,3.3508259e-39
1.1321378,6.0874277e-16,-1.5901228e-17,5.9494283e-39
1.140636,6.345769e-16,-1.6929073e-17,-1.0185538e-39
1.1496443,6.6088894e-16,-1.7960738e-17,-4.9681766e-39
1.1591934,6.8764429e-16,-1.8988279e-17,-4.4928942e-40
1.1693157,7.1480406e-16,-2.0003157e-17,3.1451573e-39
1.1800455,7.4232496e-16,-2.0996338e-17,2.3142418e-39
1.1914194,7.7015933e-16,-2.1958415e-17,5.4789193e-40
1.2034761,7.9825507e-16,-2.2879753e-17,-5.7103326e-39
1.2162565,8.265557e-16,-2.3750651e-17,-4.2983994e-39
1.229804,8.5500038e-16,-2.4561515e-17,5.3326637e-39
1.2441647,8.8352398e-16,-2.5303052e-17,4.458229e-39
1.2593874,9.1205713e-16,-2.5966449e-17,-2.6155898e-39
1.2755239,9.4052621e-16,-2.6543568e-17,-4.1016993e-39
1.292629,9.6885338e-16,-2.7027115e-17,-1.1727629e-39
1.3107609,9.969565e-16,-2.7410804e-17,1.5083464e-39
1.3299811,1.0247489e-15,-2.7689488e-17,6.0998729e-40
1.350355,1.0521393e-15,-2.7859267e-17,2.0553069e-39
1.3719519,1.0790311e-15,-2.7917558e-17,-8.108034e-40
1.3948452,1.1053222e-15,-2.7863128e-17,-1.061036e-39
1.4191127,1.1309038e-15,-2.7696091e-17,2.8191505e-39
1.4448368,1.1556597e-15,-2.7417865e-17,1.1181976e-39
1.472105,1.1794651e-15,-2.7031099e-17,-2.6298145e-39
1.5010101,1.2021846e-15,-2.653956e-17,-1.6611537e-39
1.5316502,1.2236713e-15,-2.5948006e-17,-3.8804947e-39
1.5641295,1.2437636e-15,-2.5262038e-17,-7.1720774e-40
1.5985584,1.2622835e-15,-2.4487942e-17,6.1971696e-39
1.6350539,1.2790332e-15,-2.363253e-17,3.4944815e-39
1.67374,1.2937925e-15,-2.2702987e-17,-5.7547553e-39
1.7147484,1.3063145e-15,-2.1706735e-17,-1.9600207e-39
1.7582183,1.3163218e-15,-2.0651314e-17,5.3616227e-39
1.8042975,1.3235021e-15,-1.9544283e-17,-2.0614605e-40
1.8531427,1.3275029e-15,-1.8393146e-17,-3.4526085e-39
1.9049198,1.3279266e-15,-1.7205255e-17,-7.6074392e-40
1.9598049,1.3243242e-15,-1.5987641e-17,1.0335141e-39
2.0179846,1.3163174e-15,-1.4763346e-17,-8.5038548e-40
2.0761642,1.3040885e-15,-1.3588018e-17,-8.7697148e-40
2.1310493,1.2883986e-15,-1.2506471e-17,-5.0424908e-40
2.1828264,1.2698938e-15,-1.1521056e-17,3.2629003e-39
2.2316716,1.2490125e-15,-1.0619666e-17,5.2326298e-39
2.2777508,1.2261423e-15,-9.7923152e-18,-2.5089201e-39
2.3212207,1.2016242e-15,-9.0307782e-18,-3.4940185e-39
2.362229,1.1757567e-15,-8.3282873e-18,1.5035722e-39
2.4009152,1.1488028e-15,-7.6792672e-18,1.2627445e-39
2.4374107,1.1209969e-15,-7.0790235e-18,2.4572612e-40
2.4718395,1.0925467e-15,-6.5234833e-18,-7.9865748e-40
2.5043188,1.0636324e-15,-6.0090034e-18,-2.511795e-40
2.5349589,1.0344089e-15,-5.53233e-18,1.1506392e-39
2.5638639,1.0050109e-15,-5.0905864e-18,2.7590947e-40
2.5911321,9.7555536e-16,-4.6811922e-18,3.0165344e-40
2.6168562,9.4614361e-16,-4.3018131e-18,1.3864322e-39
2.6411237,9.1686343e-16,-3.9503223e-18,-1.1706244e-39
2.6640169,8.8779061e-16,-3.6247722e-18,-5.9340914e-40
2.6856138,8.5899039e-16,-3.3233708e-18,1.1452434e-39
2.7059877,8.3051878e-16,-3.0444629e-18,-8.9502841e-41
2.7252079,8.0242366e-16,-2.786515e-18,-5.2830307e-40
2.7433397,7.7474577e-16,-2.5481024e-18,5.0565509e-40
2.7604448,7.4751955e-16,-2.327898e-18,-4.4112942e-40
2.7765813,7.2077393e-16,-2.1246636e-18,8.5055305e-41
2.791804,6.9453299e-16,-1.9372416e-18,7.1421341e-40
2.8061647,6.688165e-16,-1.7645486e-18,7.8855673e-41
2.8197122,6.4364048e-16,-1.6055691e-18,-1.8896431e-40
2.8324926,6.1901762e-16,-1.4593507e-18,-2.4609683e-40
2.8445492,5.9495767e-16,-1.3249995e-18,-2.2537642e-41
2.8559231,5.7146782e-16,-1.201676e-18,7.9227478e-41
2.866653,5.4855296e-16,-1.0885917e-18,1.0707442e-40
2.8767752,5.2621597e-16,-9.8500631e-19,4.5144017e-41
2.8863243,5.0445797e-16,-8.9022453e-19,5.3114874e-42
2.8953326,4.8327849e-16,-8.0359373e-19,-1.5077485e-40
2.9038308,4.6267571e-16,-7.2450174e-19,5.2026655e-42
2.9118478,4.4264658e-16,-6.5237475e-19,-1.5896301e-41
2.9194108,4.2318699e-16,-5.8667539e-19,-5.4108198e-42
2.9265456,4.0429187e-16,-5.2690082e-19,3.1767777e-42
2.9332763,3.8595535e-16,-4.7258109e-19,-7.4552712e-41
2.9396259,3.6817083e-16,-4.2327746e-19,6.6630042e-41
2.9456159,3.5093108e-16,-3.7858092e-19,5.7441858e-41
2.9512667,3.3422833e-16,-3.381106e-19,1.8391972e-41
2.9565976,3.1805434e-16,-3.0151234e-19,2.270704e-41
2.9616265,3.0240046e-16,-2.6845731e-19,-1.1438358e-41
2.9663707,2.8725769e-16,-2.3864061e-19,-8.124668e-42
2.9708463,2.7261676e-16,-2.1177994e-19,-5.3509168e-42
2.9750684,2.5846812e-16,-1.8761425e-19,-1.245083e-41
2.9790514,2.4480204e-16,-1.6590252e-19,1.396456e-41
2.9828089,2.3160865e-16,-1.4642257e-19,2.0502918e-41
2.9863536,2.1887792e-16,-1.2896982e-19,-1.2723266e-41
2.9896976,2.0659974e-16,-1.1335619e-19,-3.7734846e-41
2.9928523,1.9476393e-16,-9.9409002e-20,2.3052988e-42
2.9958282,1.833603e-16,-8.6969966e-20,2.2777294e-41
2.9986357,1.7237859e-16,-7.5894128e-20,-1.8570801e-42
3.0012842,1.618086e-16,-6.6048947e-20,-5.781204e-42
3.0037827,1.5164014e-16,-5.7313385e-20,4.267523e-42
3.0061397,1.4186304e-16,-4.9577056e-20,-3.5771741e-42
3.0083633,1.3246721e-16,-4.2739403e-20,1.6325756e-42
3.010461,1.2344264e-16,-3.670893e-20,7.3640882e-42
3.0124398,1.1477937e-16,-3.1402498e-20,4.5530861e-42
3.0143066,1.0646758e-16,-2.6744666e-20,-1.1254163e-42
3.0160677,9.8497525e-17,-2.2667045e-20,-5.1741054e-42
3.0177291,9.0859587e-17,-1.9107704e-20,-7.2822991e-43
3.0192964,8.3544269e-17,-1.6010644e-20,1.1686011e-42
3.0207749,7.6542205e-17,-1.332529e-20,-6.1273794e-43
3.0221698,6.9844167e-17,-1.1006014e-20,3.1441574e-46
3.0234856,6.3441066e-17,-9.0116904e-21,-1.9574178e-42
3.0247269,5.7323962e-17,-7.3052991e-21,-9.0027213e-43
3.0258979,5.1484065e-17,-5.8535684e-21,2.3460153e-42
3.0270027,4.5912739e-17,-4.6266368e-21,7.4690764e-43
3.0280448,4.0601505e-17,-3.5977165e-21,-4.2488404e-43
3.029028,3.5542045e-17,-2.7428068e-21,2.587137e-43
3.0299554,3.0726205e-17,-2.0404401e-21,-5.792346e-43
3.0308304,2.6145989e-17,-1.4714423e-21,-5.7012657e-43
3.0316558,2.1793567e-17,-1.0187142e-21,2.2021207e-43
3.0324345,1.7661275e-17,-6.6701405e-22,1.3052476e-43
3.0331691,1.3741611e-17,-4.0276217e-22,-6.9633878e-45
3.033862,1.0027236e-17,-2.1400084e-22,-2.3841315e-44
3.0345158,6.5109755e-18,-9.0510616e-23,-1.5448268e-44
3.0351325,3.1858164e-18,-2.3441556e-23,-2.2916924e-44
3.0357143,0,0,0
