/*--------------------------------*- C++ -*----------------------------------*\
| =========                 |                                                 |
| \\      /  F ield         | OpenFOAM: The Open Source CFD Toolbox           |
|  \\    /   O peration     | Version:  2.4.0                                 |
|   \\  /    A nd           | Web:      www.OpenFOAM.org                      |
|    \\/     M anipulation  |                                                 |
\*---------------------------------------------------------------------------*/
FoamFile
{
    version     2.0;
    format      ascii;
    class       volSymmTensorField;
    location    "8247";
    object      T08;
}
// * * * * * * * * * * * * * * * * * * * * * * * * * * * * * * * * * * * * * //

dimensions      [0 0 0 0 0 0 0];

internalField   nonuniform List<symmTensor> 
32000
(
(-1.7590603e-14 -1.4668851e-16 -3.578492e-33 1.7590603e-14 -2.9984863e-35 -7.279799e-52)
(-8.7998207e-15 1.2832028e-17 1.7231126e-33 8.7998207e-15 5.4718803e-30 3.4025051e-45)
(-3.7024255e-14 2.0454759e-15 6.0404116e-31 3.7024255e-14 2.302814e-29 1.4310891e-44)
(-1.5426036e-14 2.3953833e-15 3.3218278e-31 1.5426036e-14 4.8281779e-30 1.5001302e-45)
(-7.0099435e-15 2.1353482e-15 3.0587178e-31 7.0099435e-15 2.2437086e-30 6.9954248e-46)
(-1.5970975e-16 8.0834608e-17 1.8373615e-32 1.5970975e-16 5.1333512e-32 1.6210978e-47)
(-4.0636394e-19 3.636045e-19 3.465221e-36 4.0636394e-19 1.6850752e-34 4.0217832e-50)
(-1.8401774e-16 2.290782e-16 4.6420263e-33 1.8401774e-16 -2.0495162e-33 -8.7459283e-50)
(-1.5976253e-16 2.7682582e-16 3.584083e-32 1.5976253e-16 7.5502585e-32 2.1572237e-47)
(-9.4503519e-17 2.1957759e-16 3.633332e-32 9.4503519e-17 4.9180855e-32 1.5549048e-47)
(-4.608857e-17 1.3944429e-16 -2.0223051e-33 4.608857e-17 1.3985583e-33 -4.1129902e-50)
(-2.3124472e-17 8.8630308e-17 -1.0181579e-33 2.3124472e-17 7.4490406e-34 -1.7351492e-50)
(-1.3046747e-17 6.1530687e-17 -3.1557288e-33 1.3046747e-17 3.0923086e-33 -3.048505e-49)
(-8.3375961e-18 4.6436424e-17 1.2660022e-33 8.3375961e-18 -1.00998e-33 -5.553321e-50)
(-5.8910564e-18 3.6679411e-17 8.2490681e-34 5.8910564e-18 -6.9060025e-34 -3.1150426e-50)
(-4.5708346e-18 2.9633896e-17 -1.1935276e-33 4.5708346e-18 7.7142479e-34 -6.4912169e-50)
(-3.8600303e-18 2.4135546e-17 5.4289804e-33 3.8600303e-18 1.0692806e-32 5.2387512e-48)
(-3.6188155e-18 2.0687157e-17 5.8913679e-33 3.6188155e-18 8.1748125e-33 4.7813958e-48)
(-3.6078261e-18 1.8922534e-17 1.4550446e-33 3.6078261e-18 4.6357888e-33 8.7628679e-49)
(-3.6677554e-18 1.7884032e-17 1.5069578e-33 3.6677554e-18 4.2879702e-33 8.7081372e-49)
(-3.8439709e-18 1.7620019e-17 -2.0686904e-33 3.8439709e-18 1.6474937e-33 -3.8777454e-49)
(-4.1907356e-18 1.824015e-17 1.3907948e-33 4.1907356e-18 -1.1399676e-33 -1.7272136e-49)
(-4.7626403e-18 1.9868353e-17 -4.1854181e-34 4.7626403e-18 1.8051006e-34 -8.8188008e-51)
(-5.6931629e-18 2.2944444e-17 -1.0963434e-33 5.6931629e-18 7.1196749e-34 -7.1173907e-50)
(-7.1013721e-18 2.7881106e-17 -1.8712271e-33 7.1013721e-18 1.174011e-33 -1.6620039e-49)
(-9.2062267e-18 3.545451e-17 1.5543177e-33 9.2062267e-18 -1.1938061e-33 -1.0485827e-49)
(-1.205405e-17 4.5815312e-17 4.4271491e-33 1.205405e-17 -2.9374423e-33 -5.8986348e-49)
(-1.5678573e-17 5.8308267e-17 5.4830673e-33 1.5678573e-17 -4.271894e-33 -8.0006113e-49)
(-2.061736e-17 7.3531954e-17 -1.47899e-33 2.061736e-17 1.7728502e-33 -6.2740478e-50)
(-2.7477557e-17 9.2147143e-17 1.6912892e-33 2.7477557e-17 -1.9763528e-33 -6.3517621e-50)
(-3.6834941e-17 1.1407757e-16 2.1224444e-33 3.6834941e-17 -2.5290964e-33 -8.0375111e-50)
(-4.9355717e-17 1.3889993e-16 -3.4093385e-33 4.9355717e-17 3.7313804e-33 -1.5741704e-49)
(-6.5640583e-17 1.6544746e-16 -4.4775209e-33 6.5640583e-17 2.7829025e-33 -1.5563432e-49)
(-8.6004477e-17 1.915638e-16 -2.0132523e-34 8.6004477e-17 -3.5616258e-34 7.9140723e-52)
(-1.1058112e-16 2.1477386e-16 5.287138e-32 1.1058112e-16 6.137616e-32 2.5727377e-47)
(-1.4035252e-16 2.3473299e-16 5.6129989e-32 1.4035252e-16 7.3275959e-32 2.9978132e-47)
(-1.7895008e-16 2.5576708e-16 3.5771152e-32 1.7895008e-16 9.0025025e-32 2.9439826e-47)
(-2.2546834e-16 2.7489864e-16 4.8780376e-32 2.2546834e-16 1.0154499e-31 3.5692752e-47)
(-2.7642759e-16 2.861242e-16 -1.4212479e-32 2.7642759e-16 7.483875e-33 -6.3951184e-49)
(-3.2786165e-16 2.855059e-16 8.1136969e-33 3.2786165e-16 -4.8708939e-33 -1.9243759e-49)
(-3.7843786e-16 2.7330326e-16 -3.1682945e-33 3.7843786e-16 8.3222503e-34 -2.2844048e-50)
(-4.159188e-16 2.4360206e-16 -4.1796516e-33 4.159188e-16 -4.4934538e-34 -2.6974032e-50)
(-4.5070929e-16 2.0656206e-16 3.4339018e-33 4.5070929e-16 -4.0619011e-34 -2.3662859e-50)
(-4.5432193e-16 1.5351139e-16 9.2919634e-34 4.5432193e-16 5.594156e-34 -3.9349415e-52)
(-4.8798953e-16 1.0847104e-16 4.2432061e-33 4.8798953e-16 -1.2912534e-33 -3.6659294e-50)
(-4.8215763e-16 5.3482292e-17 1.9028421e-32 4.8215763e-16 3.4391061e-31 2.4455365e-46)
(-9.2269755e-16 1.52876e-17 5.0896424e-33 9.2269755e-16 6.5632972e-31 4.668217e-46)
(-2.0101688e-15 5.2830427e-18 1.2578222e-36 2.0101688e-15 -6.3477716e-36 1.9237117e-56)
(-2.8510521e-15 4.6376176e-18 -9.4538106e-36 2.8510521e-15 -3.4602565e-37 -3.1302102e-56)
(-3.7952411e-15 4.3888382e-18 1.2860688e-35 3.7952411e-15 3.2200117e-37 -4.3550276e-56)
(-4.5070521e-15 3.8201611e-18 -5.4871282e-36 4.5070521e-15 -3.6823571e-37 -6.6494753e-57)
(-5.1955552e-15 3.3451999e-18 -6.3226133e-36 5.1955552e-15 3.4422225e-37 -7.6718917e-57)
(-5.7032989e-15 2.8050872e-18 1.1640459e-35 5.7032989e-15 -4.8601153e-37 -2.3717784e-56)
(-6.139791e-15 2.3001753e-18 -4.029587e-36 6.139791e-15 6.9992578e-37 -2.5651991e-57)
(-6.4341675e-15 1.7947445e-18 -3.4587413e-37 6.4341675e-15 -4.3624716e-38 -1.8295664e-59)
(-6.6434129e-15 1.321231e-18 -2.6088095e-36 6.6434129e-15 -2.1589459e-38 -1.0243828e-57)
(-6.7409832e-15 8.7635204e-19 1.1572462e-34 6.7409832e-15 4.7886997e-30 3.4018249e-45)
(-6.7592101e-15 4.6289353e-19 -2.9152371e-35 6.7592101e-15 4.8054401e-30 3.4164132e-45)
(-6.6892781e-15 7.8754601e-20 8.4411735e-35 6.6892781e-15 -2.3750108e-30 8.432414e-46)
(-6.5504275e-15 -2.6596998e-19 1.2877625e-34 6.5504275e-15 -2.3274625e-30 8.2698139e-46)
(-6.346112e-15 -5.6702119e-19 3.5999374e-34 6.346112e-15 -4.5083428e-30 3.2027728e-45)
(-6.0909825e-15 -8.2349886e-19 4.4568613e-34 6.0909825e-15 -4.3302004e-30 3.0784254e-45)
(-5.7923798e-15 -1.0349785e-18 -7.795622e-37 5.7923798e-15 5.8802605e-39 -1.0491042e-58)
(-5.4619796e-15 -1.2029482e-18 9.7498272e-37 5.4619796e-15 -7.6882521e-40 -1.7403769e-58)
(-5.1078796e-15 -1.3291273e-18 -1.5685445e-36 5.1078796e-15 -2.6274312e-37 -4.6820057e-58)
(-4.7394273e-15 -1.4166435e-18 1.2696273e-36 4.7394273e-15 4.8802699e-37 -2.8994081e-58)
(-4.3638774e-15 -1.4686041e-18 1.4029463e-37 4.3638774e-15 -4.2937252e-37 3.7745952e-59)
(-3.9884308e-15 -1.4889167e-18 -3.0065034e-34 3.9884308e-15 1.4161933e-30 5.0285528e-46)
(-3.6188229e-15 -1.481538e-18 -5.9082266e-34 3.6188229e-15 2.5717772e-30 1.8276766e-45)
(-3.2601713e-15 -1.4506769e-18 -2.8409056e-34 3.2601713e-15 1.1592685e-30 4.1221867e-46)
(-2.9164461e-15 -1.400339e-18 1.1006223e-36 2.9164461e-15 1.4349165e-37 -4.083501e-58)
(-2.5908778e-15 -1.3346437e-18 -9.0376851e-37 2.5908778e-15 -4.0086446e-40 -3.1525899e-58)
(-2.2857209e-15 -1.2574193e-18 7.473964e-37 2.2857209e-15 1.1186244e-37 -2.3895305e-58)
(-2.0025371e-15 -1.1720908e-18 -3.8574359e-37 2.0025371e-15 -1.0228262e-37 -6.9103598e-59)
(-1.7421645e-15 -1.0817508e-18 2.5620955e-37 1.7421645e-15 -1.3889257e-40 -3.7679131e-59)
(-1.5048769e-15 -9.8863303e-19 -1.0788012e-38 1.5048769e-15 1.8739269e-39 -7.4984859e-62)
(-1.2906155e-15 -8.9471274e-19 1.6429049e-34 1.2906155e-15 -4.5830296e-31 1.6274528e-46)
(-1.0988639e-15 -8.0278776e-19 1.4654319e-34 1.0988639e-15 -3.9037743e-31 1.386837e-46)
(-9.285176e-16 -7.143557e-19 -1.1116587e-38 9.285176e-16 4.6583211e-38 2.2048183e-60)
(-7.7844708e-16 -6.3004731e-19 -5.0084425e-38 7.7844708e-16 -3.7386854e-38 -1.4306729e-60)
(-6.4735512e-16 -5.5093703e-19 3.9409037e-38 6.4735512e-16 3.1286073e-38 -8.9031818e-61)
(-5.3375835e-16 -4.77581e-19 -8.5282333e-35 5.3375835e-16 1.8954852e-31 6.7312549e-47)
(-4.3617717e-16 -4.1031809e-19 -7.3165988e-35 4.3617717e-16 1.5494723e-31 5.5043316e-47)
(-3.5307049e-16 -3.4939942e-19 -1.046768e-38 3.5307049e-16 -8.9725265e-39 -8.2850182e-62)
(-2.8291186e-16 -2.9471437e-19 -2.2309764e-38 2.8291186e-16 6.3108935e-39 -1.6174803e-60)
(-2.2424836e-16 -2.4616944e-19 6.3196375e-38 2.2424836e-16 2.3547964e-40 -1.7809514e-59)
(-1.756736e-16 -2.0350526e-19 1.3648665e-38 1.756736e-16 5.0482548e-39 -9.1624804e-61)
(-1.3587145e-16 -1.6640624e-19 -2.5254089e-38 1.3587145e-16 -3.8645439e-39 -4.5857494e-60)
(-1.0361599e-16 -1.344698e-19 -2.0642667e-38 1.0361599e-16 -1.774854e-40 -4.1122709e-60)
(-7.779853e-17 -1.0727073e-19 5.3293552e-38 7.779853e-17 1.4079983e-40 -3.6507093e-59)
(-5.7403556e-17 -8.4369396e-20 -3.9202442e-38 5.7403556e-17 4.8242285e-40 -2.6767328e-59)
(-4.1532286e-17 -6.531452e-20 -1.1249042e-35 4.1532286e-17 1.476294e-32 5.2475864e-48)
(-2.9381777e-17 -4.9678062e-20 -8.5573731e-36 2.9381777e-17 1.0445531e-32 3.7134933e-48)
(-2.0253306e-17 -3.7017577e-20 1.1028024e-38 2.0253306e-17 -3.1765765e-40 -5.9991788e-60)
(-1.3544717e-17 -2.6945377e-20 -8.8907583e-40 1.3544717e-17 1.1785256e-40 -5.7302535e-62)
(-8.7353003e-18 -1.9076776e-20 -5.2180176e-40 8.7353003e-18 -1.0295875e-41 -3.1160147e-62)
(-5.3909506e-18 -1.305788e-20 -2.2214024e-36 5.3909506e-18 1.916342e-33 6.8120842e-49)
(-3.1500752e-18 -8.5741589e-21 -1.4545702e-36 3.1500752e-18 1.1198346e-33 3.9809428e-49)
(-1.716265e-18 -5.3376976e-21 -6.2673918e-40 1.716265e-18 -2.9145588e-42 -2.288697e-61)
(-8.5273083e-19 -3.0951912e-21 3.6487306e-41 8.5273083e-19 -3.1007168e-42 -1.5489886e-63)
(-3.7343486e-19 -1.6285024e-21 -4.2173051e-41 3.7343486e-19 -6.4257887e-43 -4.7621582e-63)
(-1.359298e-19 -7.4433152e-22 -1.0023872e-41 1.359298e-19 1.5331456e-42 -7.2063842e-64)
(-3.6643914e-20 -2.712117e-22 4.5448876e-38 3.6643914e-20 -1.3026814e-35 4.6309267e-51)
(-5.5368343e-21 -6.3964306e-23 1.0688878e-38 5.5368343e-21 -1.968221e-36 6.9963244e-52)
(-1.6231624e-22 -4.4096827e-24 -3.2584578e-43 1.6231624e-22 8.6827483e-46 -6.5354554e-64)
(-3.2340517e-24 2.2776402e-25 8.6793383e-44 3.2340517e-24 -1.3882344e-46 -2.3183246e-63)
(-1.3878353e-21 2.0869968e-23 3.4482677e-39 1.3878353e-21 4.9295046e-37 1.7508161e-52)
(-1.3244849e-20 1.1023687e-22 -1.5595009e-41 1.3244849e-20 -4.5643867e-39 1.5729227e-57)
(-5.358838e-20 3.0573672e-22 -5.0725122e-38 5.358838e-20 -1.9048457e-35 6.7708775e-51)
(-1.4649569e-19 6.3142288e-22 8.3660569e-40 1.4649569e-19 -8.1835542e-42 -4.7775341e-60)
(-3.1962691e-19 1.1004635e-21 -1.0884125e-39 3.1962691e-19 -5.8972897e-42 -3.7060358e-60)
(-6.0205554e-19 1.7161327e-21 2.462548e-39 6.0205554e-19 2.1195775e-41 -1.0071075e-59)
(-1.022397e-18 2.4739867e-21 9.105339e-40 1.022397e-18 6.6176424e-42 -8.1083396e-61)
(-1.6075945e-18 3.3632309e-21 -3.2454138e-39 1.6075945e-18 7.6906981e-41 -6.5487872e-60)
(-2.3812226e-18 4.366575e-21 -6.4706982e-39 2.3812226e-18 -1.1641616e-40 -1.7576466e-59)
(-3.3631274e-18 5.4650678e-21 5.328698e-39 3.3631274e-18 -8.5064598e-41 -8.441305e-60)
(-4.568719e-18 6.634417e-21 1.8486662e-39 4.568719e-18 2.1852744e-40 -7.3732532e-61)
(-6.0072486e-18 7.8470445e-21 -1.4278011e-38 6.0072486e-18 1.2411045e-40 -3.3934085e-59)
(-7.6833338e-18 9.0789142e-21 -7.0645573e-39 7.6833338e-18 -5.0084526e-40 -6.4618685e-60)
(-9.5958303e-18 1.0299534e-20 5.9952337e-40 9.5958303e-18 3.8301594e-41 -3.7298654e-62)
(-1.1736494e-17 1.1478662e-20 -1.7849464e-36 1.1736494e-17 -4.1693417e-33 1.4811413e-48)
(-1.4092429e-17 1.259237e-20 -2.036303e-36 1.4092429e-17 -5.004417e-33 1.7771374e-48)
(-1.6645468e-17 1.3610254e-20 2.2191595e-36 1.6645468e-17 5.9133469e-33 2.1007319e-48)
(-1.9369503e-17 1.4502435e-20 2.2448839e-36 1.9369503e-17 6.878253e-33 2.4425179e-48)
(-2.2235712e-17 1.5251191e-20 1.9641887e-38 2.2235712e-17 1.0633296e-39 -1.729849e-59)
(-2.5209752e-17 1.5826802e-20 -2.4419528e-36 2.5209752e-17 -8.9560797e-33 3.1817589e-48)
(-2.8251254e-17 1.6205859e-20 -2.4920518e-36 2.8251254e-17 -1.0031965e-32 3.5623305e-48)
(-3.1316502e-17 1.6375216e-20 4.9577422e-36 3.1316502e-17 2.226108e-32 1.5824105e-47)
(-3.436104e-17 1.6313173e-20 4.8343522e-36 3.436104e-17 2.4413069e-32 1.7345165e-47)
(-3.7330036e-17 1.5999606e-20 -8.4291248e-39 3.7330036e-17 1.1625312e-39 -1.8673181e-60)
(-4.0175308e-17 1.5434105e-20 -2.281101e-36 4.0175308e-17 -1.4285642e-32 5.0797258e-48)
(-4.2837379e-17 1.4596118e-20 -2.0134306e-36 4.2837379e-17 -1.5223797e-32 5.4103215e-48)
(-4.5266383e-17 1.3483354e-20 -9.2090502e-38 4.5266383e-17 6.6947549e-40 -1.8734097e-58)
(-4.739447e-17 1.2094617e-20 3.3097497e-38 4.739447e-17 -2.9648505e-39 -2.292892e-59)
(-4.9183358e-17 1.0430201e-20 2.0267561e-34 4.9183358e-17 -5.7633409e-33 6.745071e-49)
(-5.0550094e-17 8.494485e-21 3.3545417e-31 5.0550094e-17 -2.3950244e-32 -2.2148047e-45)
(-5.1482357e-17 6.3053268e-21 3.4333242e-31 5.1482357e-17 -1.2347799e-32 -2.2867197e-45)
(-5.1872875e-17 3.8952946e-21 -4.6066313e-34 5.1872875e-17 1.2233185e-32 2.8808457e-48)
(-5.1770281e-17 1.3084335e-21 -3.5131973e-31 5.1770281e-17 6.2572325e-33 -2.3833463e-45)
(-5.1022794e-17 -1.4593542e-21 -3.5080527e-31 5.1022794e-17 -6.0780682e-33 -2.4112265e-45)
(-4.9766982e-17 -4.4317604e-21 2.4257998e-34 4.9766982e-17 -6.046291e-33 7.3339891e-49)
(-4.7724318e-17 -7.5082115e-21 1.5968653e-37 4.7724318e-17 -6.1373313e-39 -5.3351862e-58)
(-4.5234232e-17 -1.0666516e-20 4.6191021e-38 4.5234232e-17 6.1760042e-41 -4.7167991e-59)
(-4.1822914e-17 -1.3607245e-20 -1.0484859e-37 4.1822914e-17 1.0155363e-39 -2.6282545e-58)
(-3.8215434e-17 -1.6499582e-20 4.6607366e-38 3.8215434e-17 7.075257e-39 -5.5539645e-59)
(-3.3556635e-17 -1.8759691e-20 -1.3194423e-37 3.3556635e-17 -3.8682649e-39 -5.1837385e-58)
(-2.9179073e-17 -2.090088e-20 1.778038e-37 2.9179073e-17 4.7865009e-41 -1.083454e-57)
(-2.3635599e-17 -2.167854e-20 -1.2279312e-37 2.3635599e-17 -4.2722816e-39 -6.3721032e-58)
(-1.9113883e-17 -2.2563507e-20 1.7031895e-37 1.9113883e-17 1.8582826e-39 -1.5175252e-57)
(-1.338827e-17 -2.0880865e-20 -4.114512e-38 1.338827e-17 1.4938506e-39 -1.2626676e-58)
(-9.5640434e-18 -2.0027512e-20 -1.7848924e-38 9.5640434e-18 -1.0636398e-40 -3.3310109e-59)
(-4.8446504e-18 -1.4749432e-20 4.0839283e-39 4.8446504e-18 -1.5179679e-40 -3.43709e-60)
(-2.6106822e-18 -1.2248546e-20 -4.2057377e-38 2.6106822e-18 -4.4715735e-38 8.159656e-59)
(-4.05597e-19 -9.2607422e-21 6.4230642e-37 4.05597e-19 -7.988738e-37 6.1377094e-55)
(-4.0399684e-20 -4.6346488e-21 8.2229686e-36 4.0399684e-20 4.582462e-37 -1.6679575e-51)
(-7.1919328e-20 -1.59249e-20 2.5102888e-35 7.1919328e-20 3.0744431e-36 -8.6801845e-51)
(-9.0358007e-20 -3.0305394e-20 -1.7026531e-35 9.0358007e-20 -2.8491202e-36 -3.1269259e-51)
(-2.4463793e-19 -1.1149174e-19 4.8767603e-35 2.4463793e-19 1.1450325e-35 -9.3286578e-51)
(-4.7928375e-19 -2.7946389e-19 3.6882465e-35 4.7928375e-19 1.1431063e-35 -2.6801892e-51)
(-1.0181842e-18 -7.3202156e-19 2.8415078e-34 1.0181842e-18 8.5121677e-35 -7.0104916e-50)
(-1.8181995e-18 -1.5778558e-18 -1.7533174e-34 1.8181995e-18 -6.7679303e-35 -1.4668701e-50)
(-3.218344e-18 -3.3207196e-18 -2.1526885e-34 3.218344e-18 -6.0059819e-35 -1.0446536e-50)
(-5.1881175e-18 -6.3063536e-18 1.1721864e-33 5.1881175e-18 5.5868951e-34 -2.064747e-49)
(-8.1222621e-18 -1.156627e-17 -4.2137523e-35 8.1222621e-18 -1.1030099e-34 -1.1574163e-52)
(-1.2138305e-17 -2.0200668e-17 3.9314862e-33 1.2138305e-17 2.3713978e-33 -8.9308279e-49)
(-1.8331743e-17 -3.5446265e-17 -3.9437591e-33 1.8331743e-17 -2.3570713e-33 -5.288998e-49)
(-2.7364893e-17 -6.0652964e-17 2.2559258e-33 2.7364893e-17 1.3989665e-33 -1.058236e-49)
(-3.9553781e-17 -9.913018e-17 6.1980952e-34 3.9553781e-17 3.0310595e-34 -4.2846727e-51)
(-5.5947775e-17 -1.5643892e-16 1.0211277e-33 5.5947775e-17 1.0165037e-33 -1.1784397e-50)
(-7.7528105e-17 -2.3836315e-16 6.5739561e-33 7.7528105e-17 4.7764494e-33 -2.6343595e-49)
(-1.0625188e-16 -3.5350658e-16 -7.9315671e-33 1.0625188e-16 -6.0746867e-33 -2.7028865e-49)
(-1.4356424e-16 -5.0773264e-16 1.1597163e-32 1.4356424e-16 5.4816462e-33 -2.8573447e-49)
(-1.9303291e-16 -7.1156915e-16 1.1834154e-31 1.9303291e-16 -1.3593688e-31 4.3704896e-47)
(-2.5288062e-16 -9.5254492e-16 1.6390285e-31 2.5288062e-16 -1.7686648e-31 5.8009039e-47)
(-3.1691281e-16 -1.209542e-15 1.0148057e-32 3.1691281e-16 8.6195512e-33 -1.4115956e-49)
(-3.7580975e-16 -1.4593378e-15 -1.2697663e-32 3.7580975e-16 -1.0928821e-32 -1.8527091e-49)
(-4.3307126e-16 -1.7334841e-15 6.4109537e-32 4.3307126e-16 4.9526679e-32 -3.6728825e-48)
(-4.9698881e-16 -2.0608584e-15 3.1370104e-31 4.9698881e-16 -4.061644e-31 1.2421642e-46)
(-5.5863704e-16 -2.4187446e-15 4.4441834e-31 5.5863704e-16 -4.1283681e-31 1.4157158e-46)
(-6.2473728e-16 -2.8503026e-15 3.3005041e-34 6.2473728e-16 1.10609e-33 -1.6264244e-52)
(-6.9361746e-16 -3.3683599e-15 -1.8141853e-32 6.9361746e-16 -1.4329398e-32 -1.5533641e-49)
(-7.7676909e-16 -4.0577998e-15 3.0425244e-32 7.7676909e-16 2.5627082e-32 -3.829565e-49)
(-8.7486276e-16 -4.9808404e-15 -1.0623595e-32 8.7486276e-16 -9.25515e-33 -3.9229482e-50)
(-1.0560859e-15 -6.5711021e-15 4.238618e-32 1.0560859e-15 -2.0551301e-32 2.2568729e-49)
(-1.4594457e-15 -9.4071543e-15 2.4488741e-32 1.4594457e-15 2.0837973e-32 -1.0860599e-49)
(-2.2444351e-15 -1.3889624e-14 -7.7038928e-33 2.2444351e-15 -5.9766774e-33 -6.7291325e-51)
(-3.8313591e-15 -2.1225967e-14 8.7980322e-32 3.8313591e-15 -1.0271952e-31 8.4781156e-49)
(-7.1246814e-15 -3.3457334e-14 -1.1828733e-31 7.1246814e-15 -9.584355e-32 -6.7756651e-49)
(-1.4530631e-14 -5.5537312e-14 6.4218582e-31 1.4530631e-14 3.3427059e-32 -2.5369512e-48)
(-3.1501361e-14 -9.5156315e-14 -8.8419035e-31 3.1501361e-14 -6.477006e-31 -1.198385e-47)
(-7.4274403e-14 -1.7225833e-13 -3.2901567e-31 7.4274403e-14 -1.6159339e-30 7.7859148e-50)
(-1.7208985e-13 -2.9722556e-13 -1.4861807e-30 1.7208985e-13 -8.4287329e-31 -8.498691e-48)
(-3.825178e-13 -4.7199985e-13 7.1683335e-29 3.825178e-13 -1.5391902e-28 4.7445307e-44)
(-5.7687394e-13 -4.7637041e-13 6.0448847e-29 5.7687394e-13 -2.1272832e-28 6.4763639e-44)
(-5.0866571e-13 -2.6767278e-13 -8.4056799e-30 5.0866571e-13 -2.1298019e-31 -1.1161169e-46)
(-2.4332635e-13 -7.6280387e-14 -1.2999381e-30 2.4332635e-13 2.1427099e-31 -5.4980216e-48)
(-9.9306779e-14 -1.6043497e-14 3.8265732e-31 9.9306779e-14 2.5977432e-32 -1.4618801e-48)
(-2.058059e-14 -1.221846e-15 1.1129205e-32 2.058059e-14 7.9696983e-33 -3.4316704e-51)
(-1.279053e-14 -2.6091889e-17 1.1280057e-32 1.279053e-14 -7.9527492e-30 4.9447673e-45)
(-1.3894234e-15 1.4824703e-17 -6.0393432e-33 1.3894234e-15 -8.6376001e-31 5.3696467e-46)
(-2.2874966e-11 -1.1367519e-13 -5.185662e-30 2.2874966e-11 -1.1416598e-31 -1.175227e-48)
(-1.3770463e-11 5.7215103e-14 -2.8405115e-30 1.3770463e-11 -7.7116084e-27 4.3185222e-42)
(-4.3529661e-11 2.4511961e-12 -2.2471422e-27 4.3529661e-11 -7.9509905e-26 1.4511639e-40)
(-2.1126135e-11 3.1824117e-12 -2.3039048e-27 2.1126135e-11 -3.1709179e-26 4.7310752e-41)
(-9.8015569e-12 2.8850473e-12 -3.2152902e-28 9.8015569e-12 -2.9462187e-27 8.5763734e-43)
(-3.916946e-13 1.8427091e-13 -3.2687441e-29 3.916946e-13 -9.8712147e-29 2.4481467e-44)
(-2.4682746e-18 7.1156384e-18 2.4491263e-33 2.4682746e-18 -7.9805209e-33 -2.3932234e-48)
(-1.5183712e-13 1.9572597e-13 4.6281653e-30 1.5183712e-13 -2.3711319e-30 -1.0909573e-46)
(-1.636315e-13 2.8614306e-13 -2.455836e-29 1.636315e-13 -8.9915558e-29 2.2898108e-44)
(-1.0177521e-13 2.3759158e-13 -4.1635992e-29 1.0177521e-13 -5.4590468e-29 1.8065611e-44)
(-5.1329451e-14 1.55673e-13 -5.3283723e-30 5.1329451e-14 4.0098951e-30 -2.7110514e-46)
(-2.6343235e-14 1.0119166e-13 -9.4896575e-31 2.6343235e-14 2.5089642e-30 -3.1073938e-47)
(-1.5069447e-14 7.1304149e-14 1.1693558e-30 1.5069447e-14 -1.6113615e-30 -4.7104354e-47)
(-9.7187545e-15 5.4357677e-14 4.7319369e-29 9.7187545e-15 6.1141941e-29 1.0793137e-43)
(-6.9243223e-15 4.3291506e-14 3.640288e-29 6.9243223e-15 4.9339382e-29 8.4902865e-44)
(-5.4222516e-15 3.5256467e-14 -1.1008022e-30 5.4222516e-15 7.2485694e-31 -4.714289e-47)
(-4.6301613e-15 2.899491e-14 -7.6259508e-30 4.6301613e-15 -1.1228134e-29 6.1241003e-45)
(-4.3803153e-15 2.5075817e-14 -4.5679414e-30 4.3803153e-15 -1.1435821e-29 4.7860429e-45)
(-4.396534e-15 2.3097804e-14 -1.848122e-30 4.396534e-15 -4.9161259e-30 9.2423983e-46)
(-4.5023295e-15 2.1989971e-14 -2.4545108e-30 4.5023295e-15 -4.4627083e-30 1.0803023e-45)
(-4.7498193e-15 2.1815998e-14 2.249152e-30 4.7498193e-15 -1.4989876e-30 -3.2188319e-46)
(-5.2064867e-15 2.2720575e-14 -1.7517243e-30 5.2064867e-15 1.393274e-30 -2.1492295e-46)
(-5.9417646e-15 2.4873489e-14 -4.1704366e-30 5.9417646e-15 3.5280036e-30 -1.164121e-45)
(-7.1164356e-15 2.8810712e-14 2.0231545e-30 7.1164356e-15 -1.3874207e-30 -2.0117091e-46)
(-8.8748217e-15 3.5040742e-14 1.259717e-30 8.8748217e-15 -1.2669489e-30 -8.5478571e-47)
(-1.1470595e-14 4.4466077e-14 -2.2745488e-30 1.1470595e-14 1.6014032e-30 -1.6780125e-46)
(-1.4956783e-14 5.7240345e-14 -3.4145736e-30 1.4956783e-14 1.9871293e-30 -2.5487403e-46)
(-1.9396403e-14 7.261898e-14 -7.1802377e-31 1.9396403e-14 8.2556413e-31 -1.4668581e-47)
(-2.5432867e-14 9.1293403e-14 1.1654482e-30 2.5432867e-14 -1.5292821e-30 -3.3457127e-47)
(-3.3793504e-14 1.1401958e-13 9.3452434e-30 3.3793504e-14 -6.2426242e-30 -1.0562447e-45)
(-4.5181046e-14 1.4070094e-13 5.2754283e-30 4.5181046e-14 -2.5172444e-30 -2.1558638e-46)
(-6.04077e-14 1.7082534e-13 5.1256161e-30 6.04077e-14 -5.0226314e-30 -2.6982977e-46)
(-8.0230425e-14 2.0303247e-13 2.1859233e-29 8.0230425e-14 -1.4641682e-29 -3.1704326e-45)
(-1.0512497e-13 2.3488215e-13 1.5960923e-31 1.0512497e-13 1.3620218e-31 1.4322329e-49)
(-1.354444e-13 2.6366976e-13 -7.5471922e-29 1.354444e-13 -6.4400014e-29 2.6782789e-44)
(-1.7256106e-13 2.8912883e-13 -4.2821947e-29 1.7256106e-13 -1.0334553e-28 3.6037122e-44)
(-2.2061866e-13 3.1584211e-13 -6.5573945e-29 2.2061866e-13 -9.3855761e-29 3.2894261e-44)
(-2.78659e-13 3.4021557e-13 -3.1303331e-28 2.78659e-13 -5.956374e-28 1.0260078e-42)
(-3.4286615e-13 3.5523887e-13 -2.1742848e-28 3.4286615e-13 -5.8473161e-28 7.8501519e-43)
(-4.0882994e-13 3.5622534e-13 2.0623623e-28 4.0882994e-13 6.8254574e-28 9.2967696e-43)
(-4.7473087e-13 3.4288961e-13 2.5412572e-28 4.7473087e-13 7.3884944e-28 1.041746e-42)
(-5.2730753e-13 3.0874858e-13 -4.2151542e-30 5.2730753e-13 2.8869424e-30 -3.3446999e-47)
(-5.7720121e-13 2.6429324e-13 1.803322e-28 5.7720121e-13 8.3411641e-28 1.1471773e-42)
(-5.9488691e-13 2.0083324e-13 1.470823e-28 5.9488691e-13 8.4002645e-28 1.1580623e-42)
(-6.4856678e-13 1.4415578e-13 -1.5098376e-29 6.4856678e-13 4.7552816e-30 -3.4860691e-46)
(-6.7482632e-13 7.676942e-14 -2.0924618e-29 6.7482632e-13 -4.4762338e-28 2.955995e-43)
(-1.2342894e-12 2.8136369e-14 -6.9779327e-30 1.2342894e-12 -8.2033906e-28 5.4510623e-43)
(-2.5080765e-12 1.7993627e-14 6.1514232e-33 2.5080765e-12 -1.7911794e-33 -1.3870386e-53)
(-3.5023673e-12 1.5096926e-14 1.6000069e-33 3.5023673e-12 -1.1352733e-33 -3.6741213e-55)
(-4.5733727e-12 1.3792439e-14 -9.5569435e-33 4.5733727e-12 1.1331241e-33 -1.9704429e-53)
(-5.3842624e-12 1.1333208e-14 3.0521707e-33 5.3842624e-12 3.5991905e-34 -1.7052547e-54)
(-6.1462472e-12 9.4297731e-15 -2.7549699e-30 6.1462472e-12 -4.288283e-27 2.9919651e-42)
(-6.7063054e-12 7.2709261e-15 -2.2365549e-30 6.7063054e-12 -4.6889531e-27 3.278448e-42)
(-7.1741285e-12 5.3917673e-15 -9.630612e-33 7.1741285e-12 1.4652074e-34 -1.2925512e-53)
(-7.4829309e-12 3.5168989e-15 9.983985e-33 7.4829309e-12 1.976172e-35 -1.3320898e-53)
(-7.6903531e-12 1.855419e-15 5.5433192e-33 7.6903531e-12 -2.191721e-35 -3.9956506e-54)
(-7.773169e-12 3.148503e-16 -9.6786785e-31 7.773169e-12 -5.3757851e-27 3.7177971e-42)
(-7.7649443e-12 -1.0517329e-15 -7.8154772e-31 7.7649443e-12 -5.3616606e-27 3.7022033e-42)
(-7.6587706e-12 -2.2918682e-15 3.0437033e-31 7.6587706e-12 2.651768e-27 9.1814637e-43)
(-7.4754789e-12 -3.3535323e-15 7.8752661e-31 7.4754789e-12 -7.8945539e-27 8.3371211e-42)
(-7.2205912e-12 -4.2462658e-15 2.4070337e-30 7.2205912e-12 -1.5252507e-26 3.2218819e-41)
(-6.9102194e-12 -4.9629127e-15 1.6016925e-30 6.9102194e-12 -4.9175347e-27 3.4994755e-42)
(-6.5533691e-12 -5.5155302e-15 1.641934e-34 6.5533691e-12 1.9847372e-33 5.9689465e-55)
(-6.1629962e-12 -5.9101503e-15 -5.0832253e-34 6.1629962e-12 1.5365859e-35 -4.1885546e-56)
(-5.7484764e-12 -6.1608045e-15 -1.0372697e-33 5.7484764e-12 3.6918373e-36 -1.8716358e-55)
(-5.3201718e-12 -6.2803335e-15 3.3270698e-33 5.3201718e-12 -6.956735e-35 -2.0796306e-54)
(-4.8862513e-12 -6.2843528e-15 -3.7236206e-33 4.8862513e-12 7.1222417e-34 -2.7324103e-54)
(-4.4546334e-12 -6.1880894e-15 1.7696485e-31 4.4546334e-12 -1.5515606e-27 5.4041175e-43)
(-4.0316415e-12 -6.0077787e-15 4.0343451e-30 4.0316415e-12 -1.1312185e-26 3.1740267e-41)
(-3.6228251e-12 -5.758956e-15 3.7644419e-30 3.6228251e-12 -8.9126215e-27 2.192618e-41)
(-3.232469e-12 -5.4565174e-15 8.1250792e-34 3.232469e-12 2.4007722e-35 -2.040721e-55)
(-2.8639899e-12 -5.1147764e-15 -2.5950335e-34 2.8639899e-12 4.5080637e-36 -2.3504717e-56)
(-2.5197321e-12 -4.7468428e-15 2.2199951e-35 2.5197321e-12 -1.0131196e-35 -1.5451956e-58)
(-2.2012596e-12 -4.3640873e-15 -2.40993e-34 2.2012596e-12 1.1034935e-35 -2.6323603e-56)
(-1.9093334e-12 -3.9764979e-15 1.562149e-34 1.9093334e-12 2.6337978e-34 2.3460671e-56)
(-1.6440959e-12 -3.5909474e-15 4.2906524e-35 1.6440959e-12 -2.3758727e-34 3.3240768e-56)
(-1.4053184e-12 -3.2135681e-15 -1.5193083e-31 1.4053184e-12 4.9247143e-28 1.7257809e-43)
(-1.1922761e-12 -2.852574e-15 -1.3838556e-31 1.1922761e-12 4.1762546e-28 1.4628347e-43)
(-1.0036198e-12 -2.512041e-15 1.8536677e-36 1.0036198e-12 -1.4094613e-34 1.9791916e-56)
(-8.3796607e-13 -2.1933617e-15 -8.4102835e-35 8.3796607e-13 2.4126948e-34 6.1152296e-56)
(-6.9376053e-13 -1.8990556e-15 1.6341317e-34 6.9376053e-13 -1.0518461e-34 -2.2408084e-56)
(-5.6926297e-13 -1.6301466e-15 8.6633646e-32 5.6926297e-13 -2.0049859e-28 7.0616653e-44)
(-4.627363e-13 -1.3869559e-15 7.5191598e-32 4.627363e-13 -1.6302389e-28 5.7433613e-44)
(-3.7239767e-13 -1.1694283e-15 -9.4235155e-35 3.7239767e-13 -2.7192852e-35 -2.1903538e-56)
(-2.9648853e-13 -9.7655541e-16 6.8448529e-31 2.9648853e-13 -6.3026613e-28 1.3397937e-42)
(-2.3333835e-13 -8.0731986e-16 5.6853724e-31 2.3333835e-13 -4.9668253e-28 1.0572296e-42)
(-1.8134329e-13 -6.6028545e-16 2.4113704e-35 1.8134329e-13 -1.2930258e-35 -2.2719513e-57)
(-1.3900549e-13 -5.3386996e-16 2.8212353e-35 1.3900549e-13 1.1015603e-35 -4.870099e-57)
(-1.0493713e-13 -4.2627927e-16 2.0272142e-31 1.0493713e-13 -1.4936089e-28 2.125893e-43)
(-7.7886018e-14 -3.3571531e-16 1.6030902e-31 7.7886018e-14 -1.1105435e-28 1.5834636e-43)
(-5.6711148e-14 -2.6037346e-16 -2.0408935e-35 5.6711148e-14 1.8614968e-37 -7.3432882e-57)
(-4.0405654e-14 -1.9848549e-16 1.2280387e-32 4.0405654e-14 -1.4570341e-29 5.2540006e-45)
(-2.8075038e-14 -1.4837954e-16 9.2979116e-33 2.8075038e-14 -1.0164824e-29 3.6801974e-45)
(-1.8944244e-14 -1.0841425e-16 -1.3698565e-35 1.8944244e-14 -6.6956471e-38 -9.905412e-57)
(-1.2348571e-14 -7.7136922e-17 -1.4983065e-36 1.2348571e-14 4.0145339e-38 -1.8159767e-58)
(-7.7180908e-15 -5.3156405e-17 3.0659459e-36 7.7180908e-15 -7.7061791e-39 -1.2178133e-57)
(-4.5803402e-15 -3.5212016e-17 2.3027333e-33 4.5803402e-15 -1.7083411e-30 6.3713872e-46)
(-2.5455027e-15 -2.2192664e-17 1.4679313e-33 2.5455027e-15 -9.6121765e-31 3.6295054e-46)
(-1.29775e-15 -1.31001e-17 3.5214972e-37 1.29775e-15 1.1406773e-38 -9.5509747e-59)
(-5.8818825e-16 -7.067027e-18 9.1287357e-38 5.8818825e-16 -4.9584417e-39 -1.4105554e-59)
(-2.2503578e-16 -3.3491926e-18 3.4743314e-38 2.2503578e-16 1.0396308e-39 -5.3628133e-60)
(-6.5889964e-17 -1.2961535e-18 4.2571877e-40 6.5889964e-17 -1.3881539e-39 2.6837182e-62)
(-1.1799927e-17 -3.4647561e-19 -2.4540411e-35 1.1799927e-17 5.6093781e-33 2.6648887e-48)
(-6.1812804e-19 -3.6829417e-20 6.645586e-36 6.1812804e-19 -2.1921836e-34 7.7679167e-50)
(-1.5358288e-23 1.479936e-23 -2.8600489e-39 1.5358288e-23 5.9847079e-38 1.0950877e-52)
(-8.6819855e-19 4.4688099e-20 2.3206025e-39 8.6819855e-19 1.6112139e-40 -6.1122948e-60)
(-1.1713357e-17 3.0498614e-19 -2.0900564e-35 1.1713357e-17 -2.4578979e-33 5.1559992e-49)
(-5.3876389e-17 9.288492e-19 -6.3708294e-38 5.3876389e-17 5.2180054e-36 5.0493313e-55)
(-1.5761852e-16 2.0134965e-18 1.4307636e-34 1.5761852e-16 4.3103485e-32 1.1786333e-47)
(-3.5867106e-16 3.6121019e-18 9.2952742e-37 3.5867106e-16 7.5648842e-39 -2.4081529e-57)
(-6.9550861e-16 5.7431352e-18 -2.7394101e-37 6.9550861e-16 4.5397616e-38 -1.0522246e-58)
(-1.2068587e-15 8.3928727e-18 -7.6442773e-37 1.2068587e-15 -1.9194319e-37 -4.5195051e-58)
(-1.9296015e-15 1.1523757e-17 -1.7243892e-36 1.9296015e-15 1.3295516e-37 -1.5332047e-57)
(-2.8974972e-15 1.5078524e-17 -2.8614316e-36 2.8974972e-15 1.8433108e-37 -2.8159068e-57)
(-4.1391471e-15 1.8979587e-17 4.9394194e-36 4.1391471e-15 -4.2615964e-37 -5.8550822e-57)
(-5.6778344e-15 2.3146965e-17 -3.7779855e-36 5.6778344e-15 2.0994398e-37 -2.5071757e-57)
(-7.5306698e-15 2.7482909e-17 -1.7499372e-37 7.5306698e-15 3.5172523e-37 1.2301343e-59)
(-9.7064894e-15 3.1881045e-17 3.8426037e-35 9.7064894e-15 1.1483858e-36 -1.5195357e-55)
(-1.2208062e-14 3.6249444e-17 5.8129227e-36 1.2208062e-14 1.0373179e-37 -2.7666496e-57)
(-1.5030526e-14 4.0474644e-17 -9.0978041e-35 1.5030526e-14 -2.7520029e-36 -5.5008202e-55)
(-1.8159871e-14 4.4445385e-17 3.6493165e-33 1.8159871e-14 5.821181e-30 1.8659843e-45)
(-2.1576151e-14 4.8075928e-17 3.9867238e-33 2.1576151e-14 6.943188e-30 2.2343062e-45)
(-2.5252519e-14 5.1255737e-17 -4.2415911e-33 2.5252519e-14 -8.1342844e-30 2.6201914e-45)
(-2.915214e-14 5.3880447e-17 -4.6079924e-33 2.915214e-14 -9.4219429e-30 3.045157e-45)
(-3.3234679e-14 5.588561e-17 -3.640648e-35 3.3234679e-14 -5.2841755e-37 -3.9870526e-56)
(-3.745268e-14 5.7171027e-17 4.9952616e-33 3.745268e-14 1.2126452e-29 3.9263052e-45)
(-4.1751157e-14 5.7651525e-17 5.3691695e-33 4.1751157e-14 1.3556813e-29 4.4019619e-45)
(-4.6070868e-14 5.7288551e-17 -1.0974822e-32 4.6070868e-14 -2.9918021e-29 1.9428488e-44)
(-5.035136e-14 5.6001385e-17 -1.0945084e-32 5.035136e-14 -3.2784103e-29 2.1345933e-44)