/*--------------------------------*- C++ -*----------------------------------*\
| =========                 |                                                 |
| \\      /  F ield         | OpenFOAM: The Open Source CFD Toolbox           |
|  \\    /   O peration     | Version:  2.4.0                                 |
|   \\  /    A nd           | Web:      www.OpenFOAM.org                      |
|    \\/     M anipulation  |                                                 |
\*---------------------------------------------------------------------------*/
FoamFile
{
    version     2.0;
    format      ascii;
    class       volScalarField;
    location    "10";
    object      k;
}
// * * * * * * * * * * * * * * * * * * * * * * * * * * * * * * * * * * * * * //

dimensions      [0 2 -2 0 0 0 0];

internalField   nonuniform List<scalar> 
19698
(
1.3277129e-05
1.3117094e-05
1.2552754e-05
1.1679783e-05
1.0606589e-05
9.4324728e-06
8.2441403e-06
7.1048851e-06
6.0874657e-06
5.2054624e-06
4.4287902e-06
3.7512613e-06
3.1621014e-06
2.6538595e-06
2.2155589e-06
1.8392034e-06
1.5144791e-06
1.2351026e-06
9.9193832e-07
7.8167418e-07
5.9652361e-07
4.3453928e-07
2.8732704e-07
1.5350503e-07
5.6966276e-08
8.2007092e-09
1.7671579e-09
2.8431421e-08
7.9826253e-08
1.4879665e-07
2.2888211e-07
3.1512451e-07
4.0328669e-07
4.9039421e-07
5.74124e-07
6.5300803e-07
7.2605931e-07
7.9279867e-07
8.5304339e-07
9.068806e-07
9.5454515e-07
9.9638416e-07
1.0328097e-06
1.064276e-06
1.0912513e-06
1.1141977e-06
1.1335578e-06
1.1497471e-06
1.1631483e-06
1.1741077e-06
1.1829323e-06
1.1898954e-06
1.1952365e-06
1.1991596e-06
1.201838e-06
1.2034171e-06
1.2040175e-06
1.2037333e-06
1.20264e-06
1.2007965e-06
1.1982438e-06
1.195005e-06
1.1910864e-06
1.186484e-06
1.1811811e-06
1.1751479e-06
1.168346e-06
1.1607325e-06
1.1522629e-06
1.1428878e-06
1.1325588e-06
1.121232e-06
1.1088689e-06
1.0954352e-06
1.0809062e-06
1.0652671e-06
1.048514e-06
1.0306544e-06
1.0117077e-06
9.9170779e-07
9.7070373e-07
9.4875646e-07
9.259409e-07
9.0234681e-07
8.7807911e-07
8.5325126e-07
8.2798349e-07
8.0240282e-07
7.7663631e-07
7.5079926e-07
7.2499301e-07
6.9930457e-07
6.738154e-07
6.4859371e-07
6.2369347e-07
5.9917233e-07
5.751845e-07
5.5193604e-07
5.2943591e-07
5.0753999e-07
4.8614706e-07
4.6522214e-07
4.4478379e-07
4.2488501e-07
4.0558547e-07
3.869362e-07
3.6896928e-07
3.517001e-07
3.3511814e-07
3.1918307e-07
3.0383453e-07
2.8900204e-07
2.7461946e-07
2.6062975e-07
2.4698761e-07
2.3366344e-07
2.2064235e-07
2.079177e-07
1.9550321e-07
1.8343475e-07
1.7175666e-07
1.6051712e-07
2.0407512e-06
2.0163255e-06
1.9300065e-06
1.7963848e-06
1.632058e-06
1.4522171e-06
1.2701395e-06
1.0954904e-06
9.394248e-07
8.0411143e-07
6.8496108e-07
5.8099851e-07
4.905319e-07
4.1241439e-07
3.4485197e-07
2.8676523e-07
2.3698945e-07
1.9416442e-07
1.5691813e-07
1.2475905e-07
9.64121e-08
7.1849609e-08
4.9522152e-08
2.8895405e-08
1.4035727e-08
5.5906273e-09
4.3156112e-09
7.7750277e-09
1.5968391e-08
2.6261638e-08
3.8286057e-08
5.1276676e-08
6.4593164e-08
7.7775947e-08
9.0469421e-08
1.0245744e-07
1.1357419e-07
1.237537e-07
1.3298994e-07
1.4129697e-07
1.4867662e-07
1.5517067e-07
1.6084029e-07
1.6575452e-07
1.6998579e-07
1.7360803e-07
1.7669871e-07
1.7933403e-07
1.8157198e-07
1.8345391e-07
1.8502439e-07
1.8632479e-07
1.8739132e-07
1.8825378e-07
1.8893843e-07
1.894676e-07
1.8986012e-07
1.9013004e-07
1.9028834e-07
1.9034338e-07
1.9030081e-07
1.9016351e-07
1.8993178e-07
1.89604e-07
1.8917725e-07
1.8864594e-07
1.8800401e-07
1.8724365e-07
1.863579e-07
1.8533783e-07
1.841757e-07
1.8286393e-07
1.8139536e-07
1.7976378e-07
1.7796403e-07
1.759916e-07
1.7384385e-07
1.7151795e-07
1.6901265e-07
1.6632781e-07
1.6346469e-07
1.6042579e-07
1.5721692e-07
1.5384621e-07
1.5032763e-07
1.4667836e-07
1.429202e-07
1.3908108e-07
1.3519284e-07
1.3128702e-07
1.2738851e-07
1.2351408e-07
1.196692e-07
1.1584197e-07
1.1201308e-07
1.0815236e-07
1.0424807e-07
1.0031065e-07
9.6333424e-08
9.2298195e-08
8.8201938e-08
8.4057485e-08
7.9890671e-08
7.5735774e-08
7.1630753e-08
6.7612949e-08
6.3716754e-08
5.9973427e-08
5.640707e-08
5.3031195e-08
4.9849192e-08
4.6856156e-08
4.4043004e-08
4.1398246e-08
3.8903389e-08
3.6535206e-08
3.4349045e-08
3.2221397e-08
3.0172827e-08
2.8215571e-08
2.6349325e-08
2.4574093e-08
7.6921403e-07
7.589163e-07
7.2748436e-07
6.7977094e-07
6.2158353e-07
5.5804409e-07
4.9369041e-07
4.3167067e-07
3.7588252e-07
3.2740283e-07
2.8467215e-07
2.472513e-07
2.1429764e-07
1.8533754e-07
1.5933984e-07
1.366268e-07
1.1871793e-07
1.0328663e-07
9.0039522e-08
7.890431e-08
6.8891829e-08
6.1803901e-08
5.5393589e-08
4.7191347e-08
4.0309934e-08
3.2463719e-08
2.9665624e-08
2.8040675e-08
3.0708865e-08
3.2516913e-08
3.515988e-08
3.8320402e-08
4.1823319e-08
4.5474129e-08
4.9144516e-08
5.2813706e-08
5.6322204e-08
5.9694122e-08
6.3034342e-08
6.6350172e-08
6.9472119e-08
7.2352622e-08
7.4998919e-08
7.7429181e-08
7.9671524e-08
8.176628e-08
8.3789532e-08
8.5827308e-08
8.7891996e-08
8.994177e-08
9.1983629e-08
9.4029674e-08
9.608945e-08
9.8164321e-08
1.0026161e-07
1.0238979e-07
1.0455819e-07
1.0676946e-07
1.0902369e-07
1.113194e-07
1.1365456e-07
1.1602568e-07
1.1842865e-07
1.2085596e-07
1.2330411e-07
1.2576451e-07
1.2823365e-07
1.3070046e-07
1.3316148e-07
1.3560432e-07
1.3802423e-07
1.4041228e-07
1.4275788e-07
1.4505206e-07
1.4728381e-07
1.4943617e-07
1.5149464e-07
1.5343131e-07
1.5521721e-07
1.5681624e-07
1.5818677e-07
1.5928351e-07
1.6007017e-07
1.6051177e-07
1.6059899e-07
1.6033643e-07
1.5975454e-07
1.5892023e-07
1.5792837e-07
1.5688373e-07
1.5585863e-07
1.5488251e-07
1.5391052e-07
1.5278791e-07
1.5132221e-07
1.4923941e-07
1.4629589e-07
1.4235285e-07
1.3735447e-07
1.3131986e-07
1.2433151e-07
1.1651623e-07
1.0803795e-07
9.9085219e-08
8.9865982e-08
8.0592885e-08
7.1477299e-08
6.2725373e-08
5.4519061e-08
4.6996501e-08
4.0246476e-08
3.4308696e-08
2.9181387e-08
2.4830537e-08
2.1185477e-08
1.8143665e-08
1.5966937e-08
1.3955649e-08
1.2228798e-08
1.0798384e-08
9.6116657e-09
8.6192148e-09
8.0443024e-07
7.9060405e-07
7.6071968e-07
7.181107e-07
6.6760645e-07
6.1289363e-07
5.5742508e-07
5.0312968e-07
4.5324229e-07
4.0959074e-07
3.7103195e-07
3.3698236e-07
3.0613608e-07
2.7821393e-07
2.5231842e-07
2.2923873e-07
2.117778e-07
1.9668647e-07
1.8420563e-07
1.7458583e-07
1.6535378e-07
1.6344478e-07
1.6186227e-07
1.5173899e-07
1.3907682e-07
1.2049281e-07
1.1089445e-07
1.0203482e-07
1.013939e-07
9.7709496e-08
9.54534e-08
9.4191519e-08
9.3911135e-08
9.433868e-08
9.5347345e-08
9.7079757e-08
9.9094175e-08
1.0154555e-07
1.0463489e-07
1.0834954e-07
1.1236542e-07
1.1654077e-07
1.2083406e-07
1.2522832e-07
1.2973942e-07
1.3439791e-07
1.3931555e-07
1.4460855e-07
1.5026811e-07
1.5620442e-07
1.6243064e-07
1.6895158e-07
1.7576672e-07
1.8285056e-07
1.90204e-07
1.978365e-07
2.057646e-07
2.1398408e-07
2.2248398e-07
2.3125008e-07
2.4026876e-07
2.4952374e-07
2.589989e-07
2.6866707e-07
2.7851786e-07
2.8852403e-07
2.9867845e-07
3.0894654e-07
3.193223e-07
3.2976733e-07
3.4027136e-07
3.5080798e-07
3.6134391e-07
3.7185118e-07
3.8229295e-07
3.9260875e-07
4.027458e-07
4.1259999e-07
4.2206145e-07
4.3099179e-07
4.3923002e-07
4.4659943e-07
4.5295478e-07
4.5815264e-07
4.6214265e-07
4.6492286e-07
4.6658838e-07
4.6736582e-07
4.675865e-07
4.6762061e-07
4.6772163e-07
4.6798743e-07
4.6824325e-07
4.679074e-07
4.6626232e-07
4.6228648e-07
4.5505134e-07
4.4400909e-07
4.289488e-07
4.099599e-07
3.8736052e-07
3.6162325e-07
3.3335034e-07
3.0323047e-07
2.7202354e-07
2.4050881e-07
2.0946402e-07
1.7965044e-07
1.5174483e-07
1.2626664e-07
1.0355735e-07
8.3777572e-08
6.6928407e-08
5.2886699e-08
4.1407761e-08
3.2168945e-08
2.5361603e-08
1.9693662e-08
1.5217601e-08
1.1800151e-08
9.2202399e-09
7.2863109e-09
1.5438406e-06
1.514435e-06
1.4601855e-06
1.3857647e-06
1.299181e-06
1.2058584e-06
1.1111475e-06
1.0174043e-06
9.3000008e-07
8.5316139e-07
7.8521014e-07
7.2493719e-07
6.6949781e-07
6.1874552e-07
5.7184294e-07
5.3011794e-07
4.9744581e-07
4.691501e-07
4.4624873e-07
4.2953854e-07
4.12826e-07
4.1450171e-07
4.1645637e-07
3.9553121e-07
3.6288397e-07
3.2094238e-07
2.9558917e-07
2.7293603e-07
2.648431e-07
2.5221093e-07
2.429001e-07
2.3596325e-07
2.3154286e-07
2.2904181e-07
2.2821889e-07
2.2951297e-07
2.3179769e-07
2.3549799e-07
2.4096989e-07
2.4816139e-07
2.5648993e-07
2.6563289e-07
2.7545559e-07
2.8588076e-07
2.9691842e-07
3.0859179e-07
3.2109417e-07
3.3459702e-07
3.4905708e-07
3.6432086e-07
3.8044052e-07
3.9741893e-07
4.1524524e-07
4.3384339e-07
4.5320778e-07
4.7335713e-07
4.9433059e-07
5.1611355e-07
5.3867403e-07
5.61972e-07
5.8596973e-07
6.1062324e-07
6.3588981e-07
6.6169761e-07
6.8801987e-07
7.1478572e-07
7.4197807e-07
7.6950713e-07
7.97359e-07
8.2543421e-07
8.5370742e-07
8.82111e-07
9.1055864e-07
9.3897787e-07
9.6727276e-07
9.952843e-07
1.0228736e-06
1.0497656e-06
1.0756692e-06
1.1002173e-06
1.1229827e-06
1.1434946e-06
1.1613648e-06
1.1762083e-06
1.1878852e-06
1.1963828e-06
1.2019442e-06
1.2051606e-06
1.2069032e-06
1.2081463e-06
1.2095634e-06
1.2114183e-06
1.2132586e-06
1.2135428e-06
1.2103766e-06
1.2010554e-06
1.1830935e-06
1.1550158e-06
1.1162485e-06
1.067023e-06
1.0081779e-06
9.4096025e-07
8.6696048e-07
7.8799806e-07
7.0608328e-07
6.2328038e-07
5.416519e-07
4.6321957e-07
3.8978562e-07
3.2273941e-07
2.6300146e-07
2.1101106e-07
1.6677558e-07
1.2996739e-07
9.9956472e-08
7.5945047e-08
5.7790653e-08
4.3159756e-08
3.1838404e-08
2.3319872e-08
1.700095e-08
1.2370949e-08
3.1089618e-06
3.0481625e-06
2.9408405e-06
2.7952308e-06
2.6266999e-06
2.445273e-06
2.2610273e-06
2.077977e-06
1.9064579e-06
1.7554144e-06
1.6218072e-06
1.5031831e-06
1.3937202e-06
1.2935204e-06
1.2021021e-06
1.1214293e-06
1.0556778e-06
9.9869376e-07
9.5284717e-07
9.1989146e-07
8.8657316e-07
8.9273079e-07
8.9922521e-07
8.5635892e-07
7.823519e-07
6.9957012e-07
6.4441808e-07
5.9763295e-07
5.7333231e-07
5.4483157e-07
5.2336333e-07
5.06942e-07
4.9594572e-07
4.8913107e-07
4.8600755e-07
4.8756196e-07
4.9135366e-07
4.9831813e-07
5.0902876e-07
5.233595e-07
5.4034932e-07
5.5936208e-07
5.8008941e-07
6.0234131e-07
6.261209e-07
6.5143092e-07
6.7859525e-07
7.0785264e-07
7.3909423e-07
7.7208573e-07
8.0696996e-07
8.4375182e-07
8.824054e-07
9.2276224e-07
9.6480516e-07
1.0085715e-06
1.0541457e-06
1.1014959e-06
1.1505521e-06
1.2012265e-06
1.2534367e-06
1.3070869e-06
1.3620849e-06
1.4182745e-06
1.4755979e-06
1.5339018e-06
1.5931503e-06
1.6531488e-06
1.7138683e-06
1.7750939e-06
1.8367709e-06
1.8987546e-06
1.9608585e-06
2.0229264e-06
2.084752e-06
2.1459917e-06
2.2063456e-06
2.2652192e-06
2.321981e-06
2.3758362e-06
2.4258581e-06
2.4710225e-06
2.510484e-06
2.5433995e-06
2.5694565e-06
2.5886185e-06
2.6013997e-06
2.6090733e-06
2.6135244e-06
2.6168691e-06
2.6205852e-06
2.62527e-06
2.6299788e-06
2.6313719e-06
2.625344e-06
2.6060346e-06
2.5679818e-06
2.5079241e-06
2.4245705e-06
2.318392e-06
2.1911879e-06
2.045652e-06
1.8852278e-06
1.7138625e-06
1.5359248e-06
1.3559078e-06
1.1783059e-06
1.0075317e-06
8.4753245e-07
7.0136318e-07
5.7106331e-07
4.576205e-07
3.6106632e-07
2.8069222e-07
2.1515882e-07
1.6280227e-07
1.2263224e-07
9.0716952e-08
6.6202747e-08
4.7814812e-08
3.4219999e-08
2.4302278e-08
5.7904121e-06
5.6761967e-06
5.4777721e-06
5.2094624e-06
4.8992722e-06
4.5653519e-06
4.2260612e-06
3.8884698e-06
3.5714975e-06
3.292104e-06
3.0449238e-06
2.8254108e-06
2.6227852e-06
2.4376868e-06
2.2706045e-06
2.1240487e-06
2.0010595e-06
1.8944354e-06
1.8087874e-06
1.7474057e-06
1.6852345e-06
1.6979695e-06
1.7109924e-06
1.6306112e-06
1.4846408e-06
1.33672e-06
1.2314899e-06
1.1456797e-06
1.0916116e-06
1.0368789e-06
9.9546126e-07
9.6359707e-07
9.4204107e-07
9.2845625e-07
9.2191755e-07
9.2433604e-07
9.3105227e-07
9.4385864e-07
9.636168e-07
9.9006932e-07
1.0217433e-06
1.0575076e-06
1.0967605e-06
1.139118e-06
1.1845711e-06
1.2330726e-06
1.2851322e-06
1.3410581e-06
1.40063e-06
1.4635158e-06
1.5300275e-06
1.6001785e-06
1.6739215e-06
1.7509338e-06
1.8311759e-06
1.9147155e-06
2.0017161e-06
2.0921197e-06
2.1857938e-06
2.2825707e-06
2.3822936e-06
2.4847798e-06
2.5898553e-06
2.6972214e-06
2.8067689e-06
2.9182053e-06
3.0314642e-06
3.1461745e-06
3.2622822e-06
3.3793789e-06
3.4973596e-06
3.6159521e-06
3.7348026e-06
3.8536143e-06
3.971999e-06
4.0893039e-06
4.2049627e-06
4.3178475e-06
4.4267577e-06
4.5301826e-06
4.6263606e-06
4.7133353e-06
4.789491e-06
4.8532053e-06
4.9038648e-06
4.9413809e-06
4.966705e-06
4.9822423e-06
4.9915748e-06
4.9987442e-06
5.0066062e-06
5.016363e-06
5.0263054e-06
5.0300987e-06
5.0199073e-06
4.9846082e-06
4.9136347e-06
4.8006186e-06
4.6429908e-06
4.4415666e-06
4.1997196e-06
3.9225489e-06
3.6165987e-06
3.289388e-06
2.9492583e-06
2.6048066e-06
2.2646439e-06
1.9372433e-06
1.6302168e-06
1.3494842e-06
1.0990296e-06
8.8081749e-07
6.9495668e-07
5.4011793e-07
4.1379313e-07
3.1288793e-07
2.3475019e-07
1.7316533e-07
1.2603446e-07
9.0709407e-08
6.4608105e-08
4.5582457e-08
9.9586057e-06
9.7611821e-06
9.4218599e-06
8.9637897e-06
8.434241e-06
7.8639483e-06
7.2841027e-06
6.706545e-06
6.1634559e-06
5.6843073e-06
5.2602603e-06
4.8835605e-06
4.5358493e-06
4.2188326e-06
3.9348895e-06
3.6866142e-06
3.4739582e-06
3.2895431e-06
3.1414694e-06
3.0353117e-06
2.9278252e-06
2.9501421e-06
2.9721907e-06
2.8328347e-06
2.5738699e-06
2.327811e-06
2.1448737e-06
1.999483e-06
1.8969083e-06
1.8017087e-06
1.7295977e-06
1.6740326e-06
1.6363481e-06
1.6125135e-06
1.600915e-06
1.6049157e-06
1.616401e-06
1.638488e-06
1.6724172e-06
1.7177106e-06
1.7722301e-06
1.8341144e-06
1.9023041e-06
1.9761068e-06
2.055492e-06
2.1403137e-06
2.2313291e-06
2.3289138e-06
2.4326771e-06
2.5421683e-06
2.6579785e-06
2.7801427e-06
2.9085855e-06
3.042745e-06
3.1825407e-06
3.3280841e-06
3.4796667e-06
3.6371948e-06
3.8004405e-06
3.9691131e-06
4.1429407e-06
4.3216058e-06
4.5048099e-06
4.6920319e-06
4.8830835e-06
5.0774561e-06
5.2750379e-06
5.4751833e-06
5.6778008e-06
5.8821824e-06
6.0881443e-06
6.2952204e-06
6.502799e-06
6.7103662e-06
6.9172568e-06
7.1223419e-06
7.3246463e-06
7.5222216e-06
7.7129858e-06
7.8943222e-06
8.0631776e-06
8.2161415e-06
8.3503955e-06
8.463087e-06
8.5531111e-06
8.6202744e-06
8.6661699e-06
8.6949367e-06
8.7127765e-06
8.7267427e-06
8.74188e-06
8.7604131e-06
8.7795652e-06
8.7884212e-06
8.7732585e-06
8.7148855e-06
8.5946012e-06
8.4009755e-06
8.129314e-06
7.7808515e-06
7.3613306e-06
6.8795404e-06
6.3468179e-06
5.7762308e-06
5.1823178e-06
4.580103e-06
3.9846612e-06
3.4108657e-06
2.8721518e-06
2.3790258e-06
1.9386245e-06
1.5545427e-06
1.2270908e-06
9.5402299e-07
7.3104787e-07
5.5285862e-07
4.1399701e-07
3.0510617e-07
2.2193623e-07
1.5960214e-07
1.1353799e-07
7.9958166e-08
1.6032715e-05
1.5713712e-05
1.5171363e-05
1.4440138e-05
1.3594412e-05
1.2682907e-05
1.1755258e-05
1.0830133e-05
9.9587967e-06
9.1891309e-06
8.5075544e-06
7.901719e-06
7.3423708e-06
6.833144e-06
6.3795264e-06
5.983179e-06
5.6387508e-06
5.3399359e-06
5.1000045e-06
4.9277201e-06
4.7534044e-06
4.7891037e-06
4.8227738e-06
4.5957603e-06
4.1712799e-06
3.7835641e-06
3.4868524e-06
3.2544872e-06
3.0790849e-06
2.9247855e-06
2.8079058e-06
2.7178049e-06
2.6566713e-06
2.6180057e-06
2.5991645e-06
2.6056775e-06
2.6243443e-06
2.6602146e-06
2.7150323e-06
2.7879674e-06
2.8760341e-06
2.9763464e-06
3.0871729e-06
3.2073608e-06
3.336844e-06
3.4753049e-06
3.6238157e-06
3.7828202e-06
3.9516885e-06
4.1298178e-06
4.3182262e-06
4.5169924e-06
4.726009e-06
4.9443643e-06
5.1719052e-06
5.4088012e-06
5.6555401e-06
5.9119844e-06
6.1777699e-06
6.4524268e-06
6.7355154e-06
7.0265214e-06
7.3249681e-06
7.6300066e-06
7.9413349e-06
8.2581274e-06
8.580211e-06
8.9065366e-06
9.2369614e-06
9.5703408e-06
9.9063738e-06
1.0244319e-05
1.058319e-05
1.0922158e-05
1.1260162e-05
1.1595382e-05
1.1926253e-05
1.2249637e-05
1.2562164e-05
1.2859604e-05
1.313702e-05
1.3388857e-05
1.361052e-05
1.3797314e-05
1.3947371e-05
1.40603e-05
1.4138566e-05
1.4188807e-05
1.4221039e-05
1.4246764e-05
1.4274333e-05
1.4307597e-05
1.4342427e-05
1.4361392e-05
1.4341819e-05
1.4252952e-05
1.4063815e-05
1.3755064e-05
1.3318648e-05
1.2756204e-05
1.2076808e-05
1.1294576e-05
1.0427833e-05
9.4977876e-06
8.5281199e-06
7.5433818e-06
6.5682617e-06
5.6271971e-06
4.742411e-06
3.9313946e-06
3.2061542e-06
2.5728879e-06
2.0323598e-06
1.581076e-06
1.2121793e-06
9.1710603e-07
6.8609755e-07
5.0555072e-07
3.6778482e-07
2.6449934e-07
1.8813921e-07
1.3244999e-07
2.4454414e-05
2.396716e-05
2.3148793e-05
2.2046462e-05
2.0770211e-05
1.9392935e-05
1.798931e-05
1.6587186e-05
1.5263864e-05
1.40931e-05
1.305532e-05
1.2131972e-05
1.1278878e-05
1.0502918e-05
9.8141949e-06
9.2117436e-06
8.6827335e-06
8.2234847e-06
7.8546371e-06
7.589188e-06
7.3207367e-06
7.3742788e-06
7.4217095e-06
7.069794e-06
6.4146607e-06
5.8296357e-06
5.3736252e-06
5.0189508e-06
4.7403792e-06
4.5034091e-06
4.323948e-06
4.1855862e-06
4.0917224e-06
4.0324183e-06
4.0035549e-06
4.013775e-06
4.0426958e-06
4.0980692e-06
4.1823211e-06
4.2940781e-06
4.4292893e-06
4.583682e-06
4.7545867e-06
4.9401919e-06
5.1403794e-06
5.3545581e-06
5.5841875e-06
5.8297918e-06
6.090427e-06
6.3652806e-06
6.6559885e-06
6.9627107e-06
7.2853096e-06
7.6223837e-06
7.9736591e-06
8.339374e-06
8.7203065e-06
9.1162722e-06
9.5267214e-06
9.9509355e-06
1.0388243e-05
1.0837854e-05
1.1299049e-05
1.1770519e-05
1.2251807e-05
1.2741644e-05
1.3239779e-05
1.3744599e-05
1.4255895e-05
1.4771918e-05
1.52922e-05
1.5815629e-05
1.6340703e-05
1.6866158e-05
1.7390396e-05
1.791064e-05
1.8424518e-05
1.8927243e-05
1.941365e-05
1.9877263e-05
2.0310517e-05
2.0704827e-05
2.1053087e-05
2.1347957e-05
2.1586422e-05
2.1767733e-05
2.1895471e-05
2.1979696e-05
2.203573e-05
2.2081349e-05
2.2129714e-05
2.2187165e-05
2.2247965e-05
2.2286126e-05
2.2265517e-05
2.2139789e-05
2.186027e-05
2.1395522e-05
2.0732418e-05
1.9872788e-05
1.8830128e-05
1.7625877e-05
1.628809e-05
1.4849393e-05
1.3346385e-05
1.181716e-05
1.0300128e-05
8.8334578e-06
7.4521342e-06
6.1839021e-06
5.0480329e-06
4.0547519e-06
3.2057432e-06
2.4959379e-06
1.9149636e-06
1.4496552e-06
1.0840995e-06
7.990029e-07
5.8152354e-07
4.1838325e-07
2.9769596e-07
2.0962318e-07
3.5656639e-05
3.4948103e-05
3.3773921e-05
3.2192773e-05
3.0358822e-05
2.8375787e-05
2.6350774e-05
2.4323352e-05
2.2404809e-05
2.0703955e-05
1.9194191e-05
1.7849021e-05
1.6604653e-05
1.5473094e-05
1.4470866e-05
1.3591986e-05
1.2814287e-05
1.2138504e-05
1.1595472e-05
1.1203577e-05
1.0807216e-05
1.0883457e-05
1.0945479e-05
1.0421455e-05
9.4567422e-06
8.6053322e-06
7.9341553e-06
7.4129645e-06
6.9943885e-06
6.6457275e-06
6.3817353e-06
6.1781761e-06
6.0401081e-06
5.952976e-06
5.9106114e-06
5.9260071e-06
5.9689501e-06
6.0508512e-06
6.1750764e-06
6.3394376e-06
6.5385574e-06
6.7663403e-06
7.0188577e-06
7.2933911e-06
7.5897514e-06
7.9069407e-06
8.2468775e-06
8.6102044e-06
8.995584e-06
9.4018994e-06
9.8316425e-06
1.0285114e-05
1.0762157e-05
1.1260714e-05
1.1780314e-05
1.2321269e-05
1.2884772e-05
1.3470598e-05
1.4077957e-05
1.4705799e-05
1.5353145e-05
1.6018832e-05
1.670183e-05
1.7400203e-05
1.8113293e-05
1.8839237e-05
1.9577696e-05
2.0326296e-05
2.1084753e-05
2.1850511e-05
2.2622882e-05
2.3400277e-05
2.4180513e-05
2.496175e-05
2.57417e-05
2.6516314e-05
2.7282158e-05
2.8032253e-05
2.8759027e-05
2.945299e-05
3.0103053e-05
3.0696502e-05
3.1222801e-05
3.1670933e-05
3.2036208e-05
3.2317273e-05
3.2519031e-05
3.2656037e-05
3.2750707e-05
3.2829353e-05
3.291189e-05
3.3008372e-05
3.3111452e-05
3.3183999e-05
3.317109e-05
3.3005434e-05
3.2614313e-05
3.1947951e-05
3.0985833e-05
2.9729421e-05
2.8197762e-05
2.6421933e-05
2.4443011e-05
2.2309064e-05
2.0074304e-05
1.7795437e-05
1.5529836e-05
1.3334757e-05
1.1263185e-05
9.3575012e-06
7.6475396e-06
6.149611e-06
4.8671313e-06
3.7932066e-06
2.9128559e-06
2.206646e-06
1.650295e-06
1.2169172e-06
8.8625121e-07
6.3801261e-07
4.5422674e-07
3.2000076e-07
5.0027213e-05
4.9042095e-05
4.7432471e-05
4.5263153e-05
4.2739544e-05
4.0002868e-05
3.7200575e-05
3.438654e-05
3.1714708e-05
2.9339896e-05
2.7227956e-05
2.5342734e-05
2.3595539e-05
2.2006098e-05
2.0599441e-05
1.9361602e-05
1.8259766e-05
1.7301051e-05
1.6530055e-05
1.5971768e-05
1.5406636e-05
1.5510324e-05
1.5585125e-05
1.4830304e-05
1.3462206e-05
1.2261035e-05
1.1307815e-05
1.0566335e-05
9.9639667e-06
9.4687026e-06
9.0937228e-06
8.8045047e-06
8.6083175e-06
8.4845943e-06
8.4243895e-06
8.446648e-06
8.5080244e-06
8.6247661e-06
8.8015475e-06
9.0349878e-06
9.3180677e-06
9.6423541e-06
1.0002282e-05
1.0393924e-05
1.0817001e-05
1.1269944e-05
1.1755193e-05
1.2273588e-05
1.2823321e-05
1.3402819e-05
1.401572e-05
1.4662554e-05
1.5343176e-05
1.6054669e-05
1.6796268e-05
1.7568337e-05
1.8372653e-05
1.9208973e-05
2.0076209e-05
2.097288e-05
2.1897621e-05
2.2848782e-05
2.3824944e-05
2.4823355e-05
2.5843105e-05
2.6881563e-05
2.7938306e-05
2.900997e-05
3.0096195e-05
3.1193395e-05
3.2300596e-05
3.3415632e-05
3.4535456e-05
3.5657504e-05
3.6778632e-05
3.7893168e-05
3.8996337e-05
4.0078349e-05
4.1128513e-05
4.2133434e-05
4.3077451e-05
4.3942396e-05
4.4713188e-05
4.537384e-05
4.5917285e-05
4.634117e-05
4.6651852e-05
4.6869563e-05
4.7025869e-05
4.7158339e-05
4.7296096e-05
4.7454575e-05
4.7625123e-05
4.7756894e-05
4.7769428e-05
4.7567398e-05
4.7047714e-05
4.6132608e-05
4.4791255e-05
4.3023603e-05
4.0855249e-05
3.8329453e-05
3.5504113e-05
3.2447499e-05
2.9237122e-05
2.5954545e-05
2.2682634e-05
1.9504504e-05
1.649792e-05
1.3725711e-05
1.1232761e-05
9.0444154e-06
7.1671719e-06
5.5922588e-06
4.2989105e-06
3.2594484e-06
2.4386521e-06
1.7995608e-06
1.3116255e-06
9.4496468e-07
6.7324701e-07
4.7461383e-07
6.7870844e-05
6.6557915e-05
6.4443158e-05
6.1585898e-05
5.8247035e-05
5.4611497e-05
5.0875229e-05
4.7108928e-05
4.3518136e-05
4.0316388e-05
3.7462291e-05
3.4908511e-05
3.2535721e-05
3.0374765e-05
2.8461591e-05
2.6770982e-05
2.5258815e-05
2.3940708e-05
2.2879463e-05
2.2107887e-05
2.1325431e-05
2.1460296e-05
2.1541382e-05
2.0483885e-05
1.8602886e-05
1.6953917e-05
1.5640434e-05
1.4614951e-05
1.3777675e-05
1.3094682e-05
1.2577448e-05
1.2178301e-05
1.1907381e-05
1.1736497e-05
1.1653018e-05
1.16839e-05
1.1768585e-05
1.1929598e-05
1.2173436e-05
1.2495009e-05
1.2885275e-05
1.3332865e-05
1.3830146e-05
1.4371626e-05
1.4956922e-05
1.5583694e-05
1.6254954e-05
1.6971871e-05
1.7732104e-05
1.8533389e-05
1.9380853e-05
2.0275385e-05
2.1216904e-05
2.2201412e-05
2.3227706e-05
2.4296155e-05
2.540933e-05
2.6567023e-05
2.7767789e-05
2.9009613e-05
3.0290654e-05
3.1608656e-05
3.2961731e-05
3.4346089e-05
3.576053e-05
3.720146e-05
3.8668396e-05
4.0156732e-05
4.1666054e-05
4.3191504e-05
4.4731763e-05
4.6283999e-05
4.7844122e-05
4.9408684e-05
5.0973546e-05
5.2531035e-05
5.4074749e-05
5.5591423e-05
5.706645e-05
5.8481538e-05
5.9815278e-05
6.1042502e-05
6.2142274e-05
6.3092061e-05
6.3881487e-05
6.4506629e-05
6.4975272e-05
6.531454e-05
6.5567413e-05
6.5785878e-05
6.601127e-05
6.6266654e-05
6.6542798e-05
6.6772754e-05
6.6843126e-05
6.6619643e-05
6.5964489e-05
6.4757718e-05
6.2953972e-05
6.0549814e-05
5.7578004e-05
5.4096565e-05
5.0184376e-05
4.5935327e-05
4.145689e-05
3.6862974e-05
3.2269912e-05
2.7795051e-05
2.3549605e-05
1.9624448e-05
1.6085582e-05
1.2971569e-05
1.029416e-05
8.0430477e-06
6.1905399e-06
4.6984904e-06
3.5178291e-06
2.5983411e-06
1.8956312e-06
1.3669573e-06
9.7474366e-07
6.877098e-07
8.9374692e-05
8.7695061e-05
8.5027202e-05
8.1405235e-05
7.7145218e-05
7.2481038e-05
6.7665276e-05
6.2787742e-05
5.8114204e-05
5.3931232e-05
5.0191614e-05
4.6835722e-05
4.3707556e-05
4.0853335e-05
3.8322739e-05
3.6076062e-05
3.4057888e-05
3.2294593e-05
3.0872604e-05
2.9833656e-05
2.8776982e-05
2.8944217e-05
2.9017346e-05
2.7570169e-05
2.5050658e-05
2.2841515e-05
2.1078329e-05
1.9695217e-05
1.8564442e-05
1.7646246e-05
1.6950497e-05
1.6413129e-05
1.6047913e-05
1.5817227e-05
1.5703627e-05
1.5744703e-05
1.5857699e-05
1.6073153e-05
1.6400106e-05
1.6831049e-05
1.7354465e-05
1.7955363e-05
1.8623565e-05
1.9351607e-05
2.0138987e-05
2.0982387e-05
2.1885395e-05
2.2849725e-05
2.3872455e-05
2.4950291e-05
2.6090244e-05
2.7293739e-05
2.8560844e-05
2.9886243e-05
3.1268109e-05
3.2706708e-05
3.4205678e-05
3.576493e-05
3.7382616e-05
3.9056073e-05
4.0782892e-05
4.2560113e-05
4.4385289e-05
4.6253352e-05
4.8162779e-05
5.0108817e-05
5.2090983e-05
5.4103167e-05
5.6144949e-05
5.8209971e-05
6.0296512e-05
6.2401029e-05
6.4518226e-05
6.6643639e-05
6.8772021e-05
7.0893335e-05
7.2999297e-05
7.5072483e-05
7.7093544e-05
7.9038229e-05
8.0878142e-05
8.2579367e-05
8.4113626e-05
8.5449984e-05
8.6573559e-05
8.7478052e-05
8.8172406e-05
8.8691787e-05
8.9092934e-05
8.9445786e-05
8.9807445e-05
9.0211559e-05
9.0649737e-05
9.1036284e-05
9.1219937e-05
9.1007356e-05
9.0228037e-05
8.8699786e-05
8.6355836e-05
8.318675e-05
7.9232279e-05
7.4567489e-05
6.9296488e-05
6.3544629e-05
5.745685e-05
5.118811e-05
4.4897702e-05
3.8747338e-05
3.2892576e-05
2.7462174e-05
2.2551362e-05
1.8217804e-05
1.4481905e-05
1.1332862e-05
8.735161e-06
6.6378666e-06
4.9748433e-06
3.6786686e-06
2.6867733e-06
1.9395014e-06
1.384401e-06
9.7764868e-07
0.00011458269
0.00011251917
0.0001092844
0.00010485826
9.960508e-05
9.381163e-05
8.7795122e-05
8.1666531e-05
7.5759382e-05
7.0448858e-05
6.5684787e-05
6.1394721e-05
5.7379771e-05
5.3706683e-05
5.0442203e-05
4.7529273e-05
4.490181e-05
4.2599327e-05
4.0738377e-05
3.9370496e-05
3.7973547e-05
3.8169393e-05
3.8208154e-05
3.6266975e-05
3.2967531e-05
3.0072734e-05
2.7759956e-05
2.5936235e-05
2.4446132e-05
2.3239065e-05
2.2323566e-05
2.1615576e-05
2.1133363e-05
2.0827881e-05
2.0675516e-05
2.0727777e-05
2.0873699e-05
2.1153887e-05
2.1580924e-05
2.2143921e-05
2.2828353e-05
2.3614832e-05
2.4490117e-05
2.5444332e-05
2.6476845e-05
2.758315e-05
2.8767356e-05
3.0032025e-05
3.1373659e-05
3.2787453e-05
3.4282731e-05
3.5861704e-05
3.7524704e-05
3.9264858e-05
4.1079491e-05
4.2968565e-05
4.4937119e-05
4.6985323e-05
4.9110893e-05
5.131041e-05
5.3580808e-05
5.5918327e-05
5.8319932e-05
6.0778986e-05
6.3293638e-05
6.5857784e-05
6.8471057e-05
7.1125589e-05
7.3821048e-05
7.6549379e-05
7.9308426e-05
8.2093952e-05
8.4899356e-05
8.7719052e-05
9.0546657e-05
9.3369462e-05
9.6177096e-05
9.8947367e-05
0.00010165537
0.00010426984
0.00010675416
0.00010906381
0.00011116153
0.00011300589
0.00011457602
0.00011586214
0.00011687377
0.00011765502
0.00011827866
0.00011883635
0.000119405
0.00012003259
0.0001207139
0.00012134318
0.00012172549
0.00012158359
0.00012071969
0.00011886606
0.00011592182
0.00011186852
0.00010675138
0.000100664
9.3739571e-05
8.6140751e-05
7.8057945e-05
6.9696881e-05
6.1270763e-05
5.299759e-05
4.5090702e-05
3.7729302e-05
3.1048583e-05
2.5133509e-05
2.0018326e-05
1.5693944e-05
1.2116713e-05
9.2207614e-06
6.9194534e-06
5.1234199e-06
3.7467581e-06
2.7079383e-06
1.9351238e-06
1.3680239e-06
0.00014338264
0.00014094916
0.00013717916
0.00013196008
0.00012568905
0.00011870792
0.00011140649
0.00010391878
9.6651574e-05
9.0085074e-05
8.4170611e-05
7.8823083e-05
7.379448e-05
6.9178051e-05
6.5061616e-05
6.1368541e-05
5.80232e-05
5.5080711e-05
5.2695363e-05
5.0928953e-05
4.9115364e-05
4.9327485e-05
4.928716e-05
4.6727951e-05
4.2492596e-05
3.8775981e-05
3.5804912e-05
3.3449532e-05
3.1527846e-05
2.9972646e-05
2.8791522e-05
2.7876556e-05
2.7251442e-05
2.6853594e-05
2.6651622e-05
2.6714966e-05
2.6897391e-05
2.725186e-05
2.7795925e-05
2.8514001e-05
2.9387937e-05
3.0393094e-05
3.1512625e-05
3.273379e-05
3.4055804e-05
3.5472809e-05
3.6989276e-05
3.8609032e-05
4.0328076e-05
4.2139441e-05
4.4055217e-05
4.6078716e-05
4.8210706e-05
5.0442526e-05
5.2770394e-05
5.5193642e-05
5.77191e-05
6.0347407e-05
6.307584e-05
6.5900124e-05
6.8816465e-05
7.1820188e-05
7.4907798e-05
7.807071e-05
8.1306769e-05
8.4608358e-05
8.7975412e-05
9.1398085e-05
9.4876286e-05
9.8400138e-05
0.00010196706
0.00010557221
0.00010920768
0.00011286675
0.00011654197
0.00012021774
0.00012388155
0.00012750594
0.00013105975
0.00013450376
0.00013779204
0.00014086753
0.00014368237
0.00014618233
0.0001483388
0.00015013711
0.00015158632
0.00015274004
0.00015368899
0.00015455037
0.00015542525
0.00015638054
0.00015741767
0.00015841053
0.00015911723
0.00015914638
0.00015827535
0.00015613546
0.00015256533
0.00014753529
0.00014109239
0.00013334883
0.00012446958
0.00011465978
0.00010416317
9.3246472e-05
8.2188922e-05
7.127832e-05
6.0801967e-05
5.1005247e-05
4.2077327e-05
3.4141736e-05
2.7254308e-05
2.1411697e-05
1.6562927e-05
1.2625655e-05
9.4892772e-06
7.0370474e-06
5.1537162e-06
3.7299151e-06
2.6689041e-06
1.889047e-06
0.0001755079
0.00017275813
0.00016853861
0.00016259924
0.00015534389
0.00014716967
0.00013854714
0.00012963539
0.00012091685
0.00011299337
0.00010582392
9.9311722e-05
9.3153466e-05
8.7475566e-05
8.2391741e-05
7.7804316e-05
7.3629611e-05
6.9940826e-05
6.6938679e-05
6.4695034e-05
6.2376509e-05
6.2578874e-05
6.2388308e-05
5.906495e-05
5.3725752e-05
4.9044436e-05
4.5300317e-05
4.2316405e-05
3.9886038e-05
3.7919083e-05
3.6422643e-05
3.5260914e-05
3.4463984e-05
3.3953549e-05
3.3688612e-05
3.3761253e-05
3.3982017e-05
3.4418491e-05
3.5095318e-05
3.5990392e-05
3.7081251e-05
3.8337076e-05
3.9736864e-05
4.1264586e-05
4.2919254e-05
4.4693602e-05
4.6592141e-05
4.8620505e-05
5.0774379e-05
5.3043781e-05
5.5444e-05
5.7979865e-05
6.0652793e-05
6.3452143e-05
6.6372755e-05
6.9412814e-05
7.2581399e-05
7.5879909e-05
7.9305219e-05
8.2852115e-05
8.6516035e-05
9.0291259e-05
9.4174107e-05
9.8153718e-05
0.0001022276
0.0001063865
0.00011063095
0.00011494895
0.00011934088
0.00012379503
0.00012830844
0.00013287592
0.00013748832
0.00014213789
0.00014681637
0.00015150521
0.00015618982
0.00016083727
0.00016540964
0.00016985904
0.00017412938
0.00017814928
0.00018185875
0.00018518838
0.00018809984
0.00019057189
0.00019261162
0.00019428205
0.00019569322
0.0001969914
0.00019830629
0.00019972916
0.0002012729
0.00020279284
0.00020399673
0.00020435572
0.00020360132
0.00020127727
0.00019711102
0.00019106126
0.00018317052
0.00017356742
0.00016244934
0.00015006738
0.00013672535
0.00012276087
0.00010853179
9.4410256e-05
8.0776332e-05
6.7960849e-05
5.6224864e-05
4.5745683e-05
3.6611995e-05
2.8832994e-05
2.235308e-05
1.7073185e-05
1.2855611e-05
9.5503525e-06
7.0060082e-06
5.0783477e-06
3.6390803e-06
2.5792377e-06
0.0002105531
0.00020758797
0.0002030628
0.0001965437
0.00018840286
0.00017909013
0.00016916592
0.00015881703
0.0001485997
0.00013925354
0.00013075307
0.00012299143
0.00011560412
0.00010875778
0.00010259774
9.700454e-05
9.1888194e-05
8.7342335e-05
8.362372e-05
8.0813169e-05
7.788727e-05
7.8032224e-05
7.7585947e-05
7.3327147e-05