/*--------------------------------*- C++ -*----------------------------------*\
| =========                 |                                                 |
| \\      /  F ield         | OpenFOAM: The Open Source CFD Toolbox           |
|  \\    /   O peration     | Version:  2.4.0                                 |
|   \\  /    A nd           | Web:      www.OpenFOAM.org                      |
|    \\/     M anipulation  |                                                 |
\*---------------------------------------------------------------------------*/
FoamFile
{
    version     2.0;
    format      ascii;
    class       volScalarField;
    location    "320";
    object      omega;
}
// * * * * * * * * * * * * * * * * * * * * * * * * * * * * * * * * * * * * * //

dimensions      [0 0 -1 0 0 0 0];

internalField   nonuniform List<scalar> 
19650
(
1.7249513
1.7228459
1.7209417
1.7192442
1.7177573
1.7164841
1.7154269
1.7145875
1.7139673
1.7135678
1.7133898
1.7134343
1.7137018
1.7141927
1.7149074
1.7158457
1.7170074
1.7183919
1.7199985
1.721826
1.7238731
1.726138
1.7286186
1.7313125
1.7342167
1.7373281
1.7406428
1.7441565
1.7478641
1.7517583
1.7558292
1.7600616
1.7644319
1.7688882
1.7734858
1.7782185
1.7830769
1.7880515
1.7931323
1.7983096
1.8035737
1.8089149
1.8143215
1.8197768
1.825253
1.8304908
1.834833
1.8380582
1.8402169
1.8413289
1.8414054
1.8404934
1.8386246
1.8358264
1.8321156
1.8275423
1.8221209
1.815854
1.8087473
1.8008077
1.7920557
1.7825442
1.7723366
1.7614889
1.7500542
1.6540803
1.6520583
1.6502477
1.6486469
1.6472555
1.6460742
1.6451041
1.6443467
1.6438034
1.6434758
1.6433655
1.6434739
1.6438026
1.644353
1.6451263
1.6461236
1.6473459
1.6487941
1.6504687
1.6523701
1.6544986
1.6568539
1.6594358
1.6622434
1.6652756
1.668531
1.6720077
1.675703
1.6796133
1.6837327
1.6880515
1.6925535
1.6971997
1.7020022
1.7069869
1.712144
1.7174643
1.7229386
1.7285569
1.7343092
1.7401857
1.746176
1.7522681
1.7584445
1.764675
1.770688
1.7756867
1.7795071
1.7821739
1.7836492
1.7839907
1.7832387
1.7814317
1.7786071
1.7747957
1.7700593
1.7644086
1.757859
1.7504253
1.742134
1.7330161
1.7231381
1.7125753
1.7013975
1.6896656
1.5845852
1.5826447
1.5809012
1.5793555
1.5780083
1.5768608
1.5759143
1.5751705
1.5746311
1.5742981
1.5741735
1.5742592
1.5745574
1.5750701
1.5757993
1.5767469
1.577915
1.5793053
1.5809196
1.5827594
1.5848262
1.5871213
1.5896457
1.5924002
1.5953853
1.5986014
1.6020481
1.6057246
1.6096288
1.6137562
1.6180981
1.6226382
1.6273371
1.6322512
1.6373752
1.6427016
1.6482223
1.6539277
1.6598082
1.6658542
1.6720568
1.6784064
1.6848918
1.6914964
1.6981884
1.7046715
1.7101214
1.7143855
1.7173802
1.7191263
1.7196796
1.7190814
1.7173744
1.7146044
1.7108191
1.7060644
1.7003512
1.6937141
1.686183
1.6777916
1.6685806
1.6586252
1.6480098
1.6368118
1.6250981
1.5170444
1.5151744
1.5134819
1.5119691
1.5106381
1.5094912
1.5085306
1.5077585
1.5071772
1.5067891
1.5065966
1.5066019
1.5068076
1.5072162
1.50783
1.5086518
1.509684
1.510929
1.5123895
1.5140677
1.5159661
1.518087
1.5204325
1.5230046
1.5258051
1.5288358
1.5320977
1.5355916
1.5393167
1.5432699
1.5474422
1.5518047
1.5563833
1.5611942
1.5662328
1.5714932
1.5769663
1.5826399
1.5885034
1.5945499
1.6007741
1.6071699
1.6137288
1.6204377
1.627278
1.6339556
1.6396349
1.6441006
1.6472653
1.6491932
1.6499173
1.6494764
1.647915
1.6452901
1.6416542
1.6370068
1.6314011
1.6248753
1.6174665
1.6092149
1.6001668
1.5904013
1.5800141
1.5690789
1.5576679
1.4519317
1.4501138
1.4484535
1.4469549
1.4456213
1.4444554
1.44346
1.4426375
1.4419903
1.4415209
1.4412318
1.4411255
1.4412046
1.4414717
1.4419295
1.4425807
1.4434283
1.4444749
1.4457236
1.4471772
1.4488386
1.4507106
1.4527963
1.4550983
1.4576194
1.4603621
1.4633288
1.4665212
1.4699398
1.4735824
1.4774419
1.481494
1.4857854
1.4903157
1.495082
1.500078
1.5052893
1.5106824
1.5162405
1.5219762
1.5278977
1.5340096
1.5403145
1.5468157
1.5535414
1.5601675
1.565834
1.5703205
1.5735717
1.5756251
1.5765008
1.5762307
1.5748634
1.572467
1.5690586
1.5646516
1.5593063
1.5530654
1.5459699
1.5380631
1.529394
1.5200422
1.5101101
1.4996713
1.4887973
1.3895745
1.3877716
1.3861203
1.3846209
1.3832745
1.3820825
1.3810464
1.380168
1.3794492
1.3788923
1.3784993
1.3782726
1.3782146
1.378328
1.3786153
1.3790793
1.3797227
1.3805486
1.3815599
1.3827596
1.3841508
1.3857367
1.3875204
1.3895052
1.3916942
1.3940905
1.396697
1.3995161
1.402549
1.4057937
1.409238
1.4128947
1.4167863
1.4209134
1.4252759
1.42987
1.4346826
1.4396737
1.4448437
1.4501994
1.4557484
1.461497
1.4674506
1.4736153
1.4800192
1.4863005
1.4916289
1.4958484
1.4989421
1.5009153
1.5017858
1.5015875
1.5003933
1.4982125
1.4950628
1.4909769
1.4859953
1.4801591
1.4735089
1.4660885
1.4579466
1.449165
1.4398586
1.4300864
1.4199161
1.3380224
1.3358493
1.3337918
1.3318407
1.3299485
1.3281943
1.3265774
1.3250976
1.3237555
1.322552
1.3214884
1.3205662
1.3197871
1.319153
1.3186658
1.3183277
1.3181409
1.3181078
1.3182308
1.3185126
1.3189558
1.3195632
1.3203377
1.3212821
1.3223995
1.3236932
1.3251661
1.3268216
1.3286629
1.3306933
1.3329158
1.3353332
1.3379471
1.3407565
1.3437483
1.3469564
1.3503852
1.3540383
1.3579197
1.3620339
1.3663875
1.3709896
1.3758032
1.3808128
1.3860199
1.3914258
1.3970312
1.4028351
1.4088516
1.4146169
1.4194748
1.4232822
1.4260473
1.4277831
1.4285133
1.4282752
1.4271466
1.4250808
1.4221203
1.418297
1.4136472
1.4082085
1.402019
1.3951192
1.3875488
1.3794187
1.370794
1.3617497
1.3523447
1.2877255
1.285353
1.2830709
1.2808427
1.2787361
1.2767467
1.2748701
1.2730995
1.2714392
1.2698926
1.2684621
1.2671501
1.2659585
1.2648892
1.263944
1.2631248
1.2624335
1.261872
1.2614424
1.2611467
1.2609872
1.2609662
1.2610859
1.2613488
1.2617574
1.2623144
1.2630225
1.2638845
1.2649033
1.2660818
1.2674231
1.2689303
1.2706065
1.2724546
1.2744774
1.2766766
1.2790521
1.2815989
1.2843446
1.2872931
1.290449
1.2938182
1.2974097
1.3012413
1.3053517
1.3097275
1.3143143
1.3190951
1.3240739
1.3292538
1.3346568
1.3401609
1.3454031
1.349801
1.3532272
1.3556969
1.3572234
1.3578385
1.3576039
1.3564627
1.354461
1.351633
1.348016
1.343648
1.3385663
1.3328077
1.3264107
1.3194121
1.3119165
1.3039666
1.2956452
1.2869936
1.2353213
1.2329658
1.2307105
1.2285517
1.2264841
1.2245113
1.2226357
1.2208583
1.2191797
1.2176007
1.2161228
1.2147474
1.213476
1.2123103
1.211252
1.2103025
1.2094637
1.2087373
1.208125
1.2076287
1.2072503
1.2069916
1.2068548
1.2068418
1.2069548
1.2071961
1.2075679
1.2080727
1.208713
1.2094912
1.21041
1.2114722
1.2126805
1.2140377
1.2155466
1.2172094
1.2190276
1.2209989
1.2231338
1.2254461
1.2279396
1.2306188
1.2334894
1.2365597
1.239843
1.2433629
1.2471635
1.2512403
1.2555604
1.260066
1.2647463
1.269558
1.2743537
1.2789799
1.2828621
1.2858751
1.288035
1.2893504
1.2898745
1.2895763
1.2884281
1.2864991
1.2838213
1.2804283
1.2763552
1.2716375
1.2663103
1.2604113
1.2539949
1.2471064
1.2398129
1.2321696
1.2242342
1.1830167
1.18084
1.1787455
1.1767343
1.174807
1.1729646
1.171208
1.1695385
1.167957
1.1664645
1.165062
1.1637507
1.1625318
1.1614065
1.1603761
1.159442
1.1586055
1.1578682
1.1572314
1.1566968
1.156266
1.1559405
1.1557222
1.1556127
1.1556139
1.1557278
1.1559562
1.1563013
1.156765
1.1573497
1.1580576
1.158891
1.1598524
1.1609441
1.1621685
1.1635279
1.1650236
1.1666522
1.1684323
1.170368
1.1724631
1.174722
1.1771495
1.1797521
1.1825385
1.1855228
1.1887289
1.1922008
1.1959471
1.1999457
1.2041388
1.2084129
1.2127045
1.2167756
1.2201178
1.2226454
1.224397
1.2253892
1.2256826
1.225226
1.2240519
1.2221792
1.2196324
1.2164401
1.2126345
1.2082483
1.2033157
1.1978593
1.1919632
1.1856378
1.1789455
1.1719289
1.1646573
1.1331432
1.1311347
1.1291996
1.1273387
1.1255528
1.1238428
1.1222094
1.1206536
1.1191763
1.1177783
1.1164606
1.1152242
1.1140701
1.1129992
1.1120127
1.1111116
1.1102972
1.1095706
1.108933
1.1083858
1.1079303
1.1075678
1.1072998
1.1071278
1.1070532
1.1070777
1.1072029
1.1074306
1.1077624
1.1082002
1.108746
1.1094017
1.1101693
1.1110509
1.1120486
1.1131644
1.1143999
1.1157539
1.1172415
1.1188659
1.1206304
1.1225386
1.1245944
1.1268025
1.1291687
1.1317011
1.1344118
1.1373197
1.1404502
1.1438484
1.1474934
1.1513357
1.1552748
1.1590073
1.1620465
1.1643278
1.1658928
1.1667445
1.1668489
1.1662595
1.1650027
1.1631089
1.1606092
1.1575355
1.1539208
1.1498
1.145224
1.1401972
1.1347365
1.128898
1.1227432
1.116287
1.1095737
1.0859367
1.0840933
1.0823151
1.0806027
1.078957
1.0773787
1.0758688
1.0744279
1.0730569
1.0717566
1.0705278
1.0693713
1.068288
1.0672788
1.0663446
1.0654863
1.064705
1.0640017
1.0633773
1.062833
1.0623699
1.0619891
1.0616919
1.0614793
1.0613528
1.0613137
1.0613633
1.061503
1.0617343
1.0620587
1.0624779
1.0629934
1.063607
1.0643204
1.0651354
1.0660538
1.0670772
1.0682065
1.0694536
1.0708209
1.0723113
1.0739276
1.0756727
1.0775502
1.0795641
1.0817194
1.0840228
1.0864838
1.0891158
1.0919383
1.0949791
1.0982502
1.1016997
1.1050697
1.1078681
1.1100113
1.1115193
1.1123778
1.1125272
1.1120093
1.1108629
1.1091239
1.1068254
1.1039987
1.1006744
1.09688
1.0926406
1.0880027
1.0829529
1.0775335
1.0717952
1.0657895
1.0595464
1.0419939
1.040305
1.0386739
1.0371012
1.0355877
1.034134
1.032741
1.0314093
1.0301396
1.0289326
1.0277891
1.0267098
1.0256955
1.0247469
1.0238649
1.0230503
1.0223039
1.0216267
1.0210195
1.0204833
1.0200189
1.0196274
1.0193098
1.0190671
1.0189004
1.0188108
1.0187995
1.0188676
1.0190164
1.0192471
1.0195612
1.01996
1.0204448
1.0210172
1.0216788
1.0224309
1.0232755
1.024215
1.0252585
1.0264079
1.0276655
1.0290333
1.0305139
1.0321098
1.0338239
1.0356596
1.037621
1.0397134
1.041944
1.0443226
1.0468623
1.0495778
1.0524718
1.0553317
1.0577148
1.059542
1.0608235
1.0615461
1.0616979
1.0612819
1.0603099
1.0588001
1.0567738
1.0542544
1.0512666
1.0478325
1.0439579
1.0396969
1.0350732
1.030105
1.0248302
1.0193191
1.0136082
1.0018356
1.0002857
0.99878675
0.99733939
0.9959443
0.99460216
0.99331361
0.99207929
0.99089985
0.98977594
0.9887082
0.9876973
0.98674391
0.98584873
0.98501248
0.98423592
0.9835198
0.98286488
0.98227195
0.98174179
0.98127524
0.98087314
0.98053637
0.98026583
0.98006245
0.9799272
0.97986107
0.97986507
0.97994028
0.98008777
0.98030868
0.98060419
0.98097552
0.98142392
0.98195069
0.98255722
0.98324516
0.9840187
0.98488417
0.98584315
0.98689731
0.98804845
0.98929846
0.99064937
0.9921034
0.99366296
0.99533086
0.99711041
0.99900571
1.0010219
1.003165
1.0054391
1.0078342
1.0101813
1.0120985
1.0135273
1.0144923
1.0149833
1.0149922
1.0145171
1.0135612
1.0121358
1.0102552
1.0079368
1.0052002
1.0020653
0.99855163
0.99468456
0.99048889
0.98600089
0.98126138
0.97631002
0.97118257
0.9671119
0.96563981
0.96421163
0.96282802
0.96148968
0.96019734
0.95895168
0.95775331
0.95660282
0.95550081
0.95444787
0.95344457
0.9524915
0.95158923
0.95073839
0.94993962
0.94919359
0.94850096
0.94786241
0.94727862
0.9467503
0.94627819
0.94586304
0.94550563
0.94520676
0.94496726
0.94478797
0.94466978
0.94461357
0.94462026
0.9446908
0.94482618
0.94502741
0.94529557
0.94563175
0.94603708
0.94651283
0.94706061
0.94768553
0.94839187
0.94918088
0.95005396
0.95101259
0.95205833
0.95319285
0.95441786
0.95573526
0.95714707
0.95865559
0.96026345
0.96197361
0.96378882
0.96570885
0.96771955
0.96966259
0.97119082
0.97226456
0.97292101
0.97315896
0.97297823
0.97238153
0.97137481
0.96996686
0.96816908
0.96599504
0.96346098
0.96058398
0.95738172
0.95387492
0.95008665
0.94605189
0.94180833
0.93738966
0.9328271
0.93601615
0.93461749
0.93325704
0.93193505
0.93065202
0.92940876
0.92820612
0.92704473
0.92592511
0.92484775
0.92381315
0.9228218
0.92187418
0.92097078
0.9201121
0.91929868
0.91853112
0.91781005
0.91713607
0.91650976
0.91593177
0.91540272
0.91492329
0.91449414
0.91411597
0.9137895
0.91351546
0.9132946
0.91312769
0.91301553
0.91295891
0.91295866
0.91301565
0.91313077
0.91330498
0.91353923
0.91383456
0.91419213
0.91461338
0.9151044
0.91566739
0.91630356
0.91701416
0.91780048
0.91866387
0.9196057
0.92062742
0.92173053
0.92291663
0.92418745
0.92554483
0.92699065
0.92852622
0.93014964
0.93184597
0.93347103
0.9347134
0.93553916
0.93597934
0.93603754
0.93571955
0.9350335
0.93399001
0.93259986
0.93087525
0.92882963
0.92647829
0.92383704
0.92092208
0.91775151
0.91434569
0.91073583
0.90695509
0.9030322
0.89899372
0.9081907
0.90687916
0.90559654
0.904344
0.90312265
0.90193374
0.9007798
0.89966213
0.89858064
0.8975355
0.89652705
0.89555569
0.89462187
0.89372606
0.89286874
0.89205043
0.8912718
0.89053354
0.88983627
0.8891805
0.88856678
0.88799561
0.88746753
0.88698312
0.88654294
0.88614759
0.88579768
0.88549386
0.88523678
0.88502712
0.88486557
0.88475283
0.88468963
0.88467672
0.88471493
0.88480512
0.88494818
0.88514506
0.88539691
0.8857052
0.88607604
0.88651057
0.8870099
0.88757521
0.88820763
0.88890835
0.88967856
0.89051946
0.8914323
0.89241842
0.89347918
0.89461596
0.89583009
0.89712222
0.89848989
0.89991875
0.90127946
0.90229493
0.90293618
0.9032307
0.90318246
0.90279819
0.90208685
0.90105927
0.89972782
0.89810568
0.8962067
0.89404596
0.89163858
0.88899969
0.88614568
0.88309469
0.87987421
0.87651329
0.87303689
0.86946802
0.88689126
0.88561847
0.88436942
0.88314393
0.88194026
0.88075811
0.8795992
0.87846491
0.87735634
0.87627454
0.87522041
0.87419458
0.87319774
0.87223064
0.87129398
0.87038841
0.86951454
0.86867298
0.8678643
0.86708921
0.86634913
0.86564511
0.86497724
0.86434573
0.86375094
0.86319326
0.8626731
0.86219094
0.86174724
0.8613425
0.86097726
0.86065206
0.86036746
0.86012407
0.85992249
0.85976335
0.85964733
0.85957521
0.85954785
0.85956609
0.85963074
0.85974271
0.8599031
0.86011357
0.86037927
0.86070117
0.86108025
0.86151754
0.86201407
0.86257087
0.86318897
0.8638694
0.86461324
0.86542163
0.86629574
0.86723674
0.8682457
0.86932301
0.87046621
0.87166206
0.87279577
0.87362271
0.87411849
0.87430753
0.8741935
0.87378275
0.87308381
0.87210698
0.87086419
0.86936814
0.86763213
0.86567043
0.86349725
0.86112664
0.85857356
0.85585436
0.85299348
0.85001691
0.84694727
0.84380533
0.86279991
0.8616453
0.86051417
0.85940621
0.85832095
0.85725813
0.85621785
0.8552004
0.85420612
0.85323521
0.85228667
0.85136055
0.85045812
0.84958039
0.84872816
0.84790216
0.84710304
0.84633139
0.84558778
0.84487276
0.84418689
0.84353061
0.84290437
0.84230867
0.84174401
0.84121088
0.84070975
0.84024107
0.83980531
0.83940292
0.83903439
0.83870018
0.83840079
0.83813672
0.8379085
0.83771669
0.83756195
0.83744565
0.83736889
0.83733206
0.83733569
0.83738046
0.83746732
0.83759786
0.83777635
0.83800361
0.8382805
0.83860792
0.83898679
0.83941805
0.83990263
0.8404415
0.84103575
0.84168663
0.84239534
0.84316296
0.84399043
0.84487807
0.84582357
0.84681496
0.84775124
0.84841805
0.848795
0.84890357
0.8487469
0.84833063
0.84766239
0.84675154
0.84560898
0.84424642
0.84267613
0.84091131
0.83896509
0.83685041
0.83458099
0.83217166
0.82964451
0.82702391
0.82433057
0.82158276
0.84116332
0.84011199
0.83908321
0.83807677
0.83709247
0.83613013
0.83518959
0.83427079
0.83337371
0.83249837
0.83164462
0.83081248
0.83000219
0.82921409
0.82844859
0.82770614
0.82698717
0.82629213
0.82562142
0.82497532
0.82435348
0.82375584
0.82318324
0.82263635
0.82211577
0.82162201
0.82115556
0.82071689
0.82030647
0.81992472
0.81957209
0.81924903
0.81895597
0.81869336
0.81846167
0.81826135
0.8180929
0.81795682
0.81785361
0.81778378
0.81774793
0.81774672
0.81778101
0.81785229
0.81796412
0.81811727
0.81831252
0.8185507
0.81883261
0.81915912
0.8195311
0.81994953
0.820416
0.82093291
0.82150083
0.82212038
0.82279221
0.82351647
0.82429103
0.8251052
0.82587064
0.82640067
0.82667809
0.82672163
0.82653422
0.826121
0.82548896
0.82464661
0.82360387
0.82237141
0.8209604
0.8193828
0.81765054
0.8157754
0.81376984
0.81164712
0.80942729
0.80713566
0.80478877
0.80240018
0.82175676
0.8207991
0.81986249
0.81894684
0.81805205
0.81717801
0.81632459
0.81549168
0.81467917
0.81388702
0.8131152
0.81236368
0.81163251
0.81092176
0.81023159
0.80956219
0.80891381
0.80828668
0.80768106
0.80709717
0.80653515
0.80599512
0.80547737
0.80498223
0.80451006
0.80406125
0.80363617
0.80323524
0.80285884
0.80250736
0.8021812
0.80188075
0.80160643
0.80135864
0.8011378
0.80094429
0.80077846
0.80064002
0.80052902
0.80044615
0.80039206
0.80036741
0.80037301
0.80041015
0.80048193
0.80058906
0.80073226
0.80091225
0.80112977
0.80138557
0.80168041
0.80201508
0.80239041
0.80280721
0.80326635
0.80376867
0.8043149
0.80490531
0.80553828
0.80620449
0.80682648
0.80724193
0.80743606
0.8074259
0.80721507
0.80680883
0.80621387
0.80543808
0.8044905
0.80338067
0.80211854
0.80071467
0.79917957
0.7975236
0.79575768
0.79389335
0.79194692
0.78993509
0.78787259
0.78577271
0.80439471
0.80352406
0.80267264
0.80184045
0.80102746
0.80023361
0.79945884
0.79870304
0.79796614
0.79724809
0.79654883
0.79586836
0.79520664
0.79456368
0.79393952
0.79333423
0.7927479
0.79218064
0.79163261
0.79110395
0.79059482
0.79010538
0.7896358
0.78918628
0.78875705
0.78834836
0.78796049
0.78759373
0.7872484
0.78692482
0.78662331
0.7863442
0.78608786
0.78585462
0.78564485
0.78545889
0.78529707
0.78515964
0.78504683
0.78495898
0.7848965
0.78485988
0.78484979
0.78486732
0.78491525
0.78499417
0.78510466
0.78524736
0.7854229
0.78563192
0.78587509
0.78615298
0.78646566
0.78681255
0.78719475
0.78761327
0.78806891
0.78856198
0.78909117
0.78964834
0.79016566
0.79050113
0.79064182
0.79060224
0.79038621
0.78999887
0.7894465
0.78873636
0.78787664
0.78687592
0.78574307
0.78448752
0.78311858
0.78164545
0.78007781
0.77842588
0.77670319
0.77492003
0.77308991
0.77122617
0.78892574
0.78813707
0.78736572
0.7866117
0.78587502
0.78515566
0.78445361
0.78376879
0.78310117
0.78245069
0.78181732
0.78120102
0.78060177
0.78001955
0.77945434
0.77890616
0.77837503
0.777861
0.77736414
0.77688452
0.77642227
0.77597751
0.77555035
0.77514094
0.77474944
0.77437601
0.77402086
0.7736842
0.77336626
0.7730673
0.77278757
0.77252736
0.77228694
0.77206663
0.77186671
0.77168751
0.77152932
0.77139247
0.77127727
0.77118403
0.7711131
0.77106491
0.77104001
0.77103942
0.77106561
0.77111909
0.77120035
0.77130991
0.77144832
0.77161612
0.77181386
0.77204205
0.77230112
0.77259135
0.7729132
0.77326721
0.77365389
0.77407336
0.77452424
0.77499938
0.7754393
0.7757187
0.77582679
0.77577539
0.77556774
0.77520843
0.77470313
0.77405844
0.77328178
0.77238095
0.77136403
0.77023958
0.7690161
0.76770194
0.76630591
0.76483716
0.76330826
0.76173163
0.76011854
0.75847962
0.7759527
0.7752267
0.774516
0.77382067
0.77314072
0.77247619
0.77182708
0.77119338
0.77057506
0.76997209
0.76938444
0.76881208
0.76825498
0.76771311
0.76718643
0.76667494
0.7661786
0.76569741
0.7652314
0.76478056
0.76434496
0.76392466
0.76351973
0.76313025
0.76275634
0.7623981
0.76205565
0.76172914
0.76141872
0.76112458
0.7608469
0.76058589
0.76034179
0.76011481
0.75990522
0.75971327
0.75953923
0.7593834
0.75924605
0.7591275
0.75902807
0.75894809
0.75888795
0.75884817
0.75882972
0.75883486
0.75886399
0.75891757
0.75899605
0.75909989
0.75922957
0.75938555
0.75956832
0.75977834
0.76001605
0.76028191
0.76057636
0.76089979
0.76125225
0.76163245
0.76203409
0.76240462
0.76263336
0.76271201
0.76265105
0.76245329
0.76212277
0.76166456
0.7610846
0.7603896
0.75958663
0.75868305
0.75768665
0.75660519
0.75544628
0.75421796
0.75292858
0.75158964
0.75021295
0.74880877
0.74738649
0.76451003
0.76384719
0.76319768
0.76256156
0.76193887
0.76132965
0.76073391
0.76015166
0.7595829
0.75902762
0.75848578
0.75795737
0.75744236
0.75694072
0.75645242
0.75597742
0.7555157
0.75506724
0.754632
0.75420999
0.75380119
0.75340564
0.75302335
0.75265438
0.75229877
0.7519566
0.75162795
0.7513129
0.75101156
0.75072405
0.75045051
0.75019109
0.74994595
0.74971527
0.74949926
0.74929812
0.74911207
0.74894136
0.74878623
0.74864696
0.74852382
0.74841711
0.74832716
0.74825432
0.74819912
0.74816253
0.74814657
0.74815162
0.74817808
0.74822637
0.74829689
0.74839007
0.74850634
0.74864615
0.74880993
0.74899815
0.74921126
0.74944968
0.74971378
0.75000362
0.7503181
0.7506517
0.75095825
0.75114057
0.7511926
0.75112391
0.75093694
0.75063532
0.75022357
0.74970703
0.74909176
0.74838416
0.74759093
0.74671915
0.7457759
0.74476817
0.74370327
0.74258887
0.74143536
0.74025342
0.73905231
0.73784045
0.75452042
0.75392139
0.75333383
0.75275777
0.75219325
0.75164029
0.7510989
0.75056911
0.7500509
0.74954428
0.74904921
0.74856568
0.74809366
0.74763312
0.74718403
0.74674635
0.74632005
0.74590509
0.74550145
0.74510909
0.74472798
0.74435813
0.74399951
0.74365214
0.74331605
0.74299126
0.74267782
0.74237579
0.74208522
0.74180619
0.7415388
0.74128316
0.74103939
0.74080761
0.74058798
0.74038067
0.74018586
0.74000374
0.73983451
0.73967841
0.73953568
0.73940657
0.73929136
0.73919035
0.73910388
0.73903248
0.73897716
0.73893971
0.73892049
0.73891986
0.73893821
0.73897592
0.7390334
0.73911103
0.73920925
0.73932846
0.73946912
0.73963166
0.73981649
0.74002399
0.74025425
0.74050636
0.7407756
0.74102183
0.74116068
0.74118814
0.74111298
0.74093737
0.74066452
0.74029846
0.73984397
0.73930651
0.73869188
0.73800612
0.73725569
0.73644704
0.73558654
0.73468091
0.73373715
0.73276454
0.7317726
0.73076957
0.72976297
0.74538698
0.74486215
0.74434705
0.7438417
0.74334611
0.74286028
0.7423842
0.74191787
0.74146126
0.74101436
0.74057712
0.74014953
0.73973154
0.73932312
0.73892421
0.73853479
0.7381548
0.73778421
0.73742298
0.73707106
0.73672843
0.73639505
0.73607092
0.73575602
0.73545036
0.73515395
0.73486681
0.73458899
0.73432052
0.73406147
0.7338119
0.73357191
0.73334158
0.73312103
0.73291039
0.7327098
0.73251942
0.73233942
0.73216998
0.73201131
0.73186363
0.73172717
0.73160219
0.73148898
0.73138786
0.73129936
0.73122457
0.73116504
0.7311211
0.7310931
0.73108142
0.7310864
0.73110844
0.73114793
0.73120525
0.73128082
0.73137507
0.73148841
0.73162127
0.731774
0.73194675
0.73213881
0.7323462
0.73253461
0.73263197
0.73263615
0.73255531
0.73239127
0.73214685
0.73182562
0.73143185
0.73097041
0.73044651
0.72986562
0.72923359
0.72855627
0.72783951
0.72708942
0.72631237
0.7255166
0.72471048
0.72390125
0.72309556
0.73773278
0.73727953
0.73683436
0.73639726
0.73596821
0.73554719
0.73513415
0.73472907
0.7343319
0.7339426
0.73356113
0.73318744
0.73282146
0.73246315
0.73211245
0.73176931
0.73143367
0.73110548
0.73078469
0.73047125
0.73016511
0.72986623
0.7295746
0.72929018
0.72901296
0.72874295
0.72848014
0.72822457
0.72797625
0.72773524
0.72750159
0.72727535
0.72705662
0.72684549
0.72664207
0.72644648
0.72625887
0.72607938
0.72590818
0.72574547
0.72559144
0.72544631
0.72531034
0.72518377
0.72506695
0.72496039
0.72486531
0.72478298
0.72471373
0.7246579
0.72461583
0.72458789
0.72457445
0.72457588
0.72459257
0.72462494
0.72467338
0.72473833
0.72482018
0.72491931
0.72503592
0.72516948
0.72531672
0.72544898
0.72550613
0.72548781
0.72540162
0.7252491
0.72503264
0.72475536
0.72442103
0.72403397
0.72359883
0.72312054
0.72260435
0.72205556
0.72147951
0.72088177
0.72026812
0.71964575
0.71902191
0.71840292
0.71779456
0.73151589
0.73113188
0.73075437
0.73038333
0.73001868
0.72966038
0.72930837
0.72896257
0.72862294
0.72828939
0.72796186
0.72764027
0.72732456
0.72701464
0.72671045
0.7264119
0.72611894
0.7258315
0.7255495
0.72527288
0.72500159
0.72473557
0.72447479
0.72421921
0.72396879
0.72372353
0.72348342
0.72324847
0.72301868
0.72279409
0.72257473
0.72236067
0.72215196
0.72194869
0.72175096
0.72155886
0.72137254
0.72119213
0.72101778
0.72084967
0.720688
0.72053296
0.72038479
0.72024375
0.72011017
0.71998458
0.71986831
0.71976239
0.71966712
0.71958284
0.71950989
0.71944861
0.71939939
0.71936259
0.71933861
0.71932785
0.71933071
0.71934762
0.71937897
0.71942517
0.71948645
0.71956246
0.71965064
0.71972781
0.71974551
0.71970504
0.71961356
0.71947229
0.71928322
0.71904902
0.71877297
0.71845885
0.71811078
0.71773315
0.71733066
0.71690809
0.71647029
0.7160223
0.71556933
0.71511759
0.71467324
0.71424169
0.71382789
0.72702591
0.72670402
0.7263872
0.72607536
0.72576842
0.7254663
0.7251689
0.72487613
0.7245879
0.72430412
0.72402468
0.7237495
0.72347846
0.72321148
0.72294846
0.72268929
0.7224339
0.72218219
0.72193406
0.72168945
0.72144826
0.72121042
0.72097588
0.72074456
0.72051642
0.72029142
0.72006953
0.71985072
0.71963499
0.71942234
0.71921278
0.71900635
0.71880307
0.71860302
0.71840625
0.71821284
0.71802291
0.71783656
0.71765392
0.71747514
0.71730039
0.71712985
0.71696371
0.71680219
0.71664557
0.71649416
0.71634854
0.71621016
0.71607978
0.7159577
0.71584423
0.71573974
0.71564456
0.71555907
0.71548366
0.7154187
0.71536461
0.71532179
0.71529067
0.71527167
0.71526518
0.7152715
0.71529046
0.71532014
0.71534278
0.71532139
0.71525882
0.71516189
0.71503147
0.71486918
0.71467724
0.71445844
0.71421604
0.71395364
0.71367512
0.71338463
0.71308646
0.71278499
0.71248477
0.71219046
0.7119073
0.71164039
0.71139428
0.71117309
0.72378729
0.72352851
0.72327348
0.72302208
0.72277419
0.7225297
0.72228848
0.72205041
0.72181536
0.72158321
0.72135383
0.7211271
0.72090288
0.72068105
0.72046149
0.72024407
0.72002867
0.71981518
0.71960348
0.71939346
0.71918502
0.71897806
0.71877248
0.71856821
0.71836517
0.71816328
0.7179625
0.71776278
0.71756407
0.71736637
0.71716964
0.71697391
0.71677918
0.71658548
0.71639285
0.71620135
0.71601107
0.71582207
0.71563448
0.71544841
0.71526401
0.71508142
0.71490083
0.71472243
0.71454644
0.71437311
0.71420281
0.71403615
0.71387469
0.7137189
0.7135691
0.71342561
0.71328878
0.71315898
0.71303657
0.71292194
0.71281548
0.71271762
0.71262876
0.71254935
0.7124798
0.71242053
0.7123719
0.71233389
0.71230522
0.71227349
0.71221302
0.71212815
0.71202543
0.7119054
0.71176927
0.71161885
0.71145643
0.71128477
0.71110695
0.71092635
0.71074662
0.71057155
0.71040507
0.71025127
0.71011428
0.70999838
0.70990766
0.70984579
0.70981613
0.72178475
0.72159015
0.72139809
0.72120842
0.72102098
0.72083563
0.7206522
0.72047054
0.72029049
0.7201119
0.71993459
0.71975841
0.7195832
0.71940879
0.71923505
0.7190618
0.7188889
0.7187162
0.71854355
0.71837082
0.71819788
0.71802459
0.71785083
0.71767649
0.71750148
0.71732568
0.71714902
0.71697142
0.71679282
0.71661317
0.71643242
0.71625056
0.71606756
0.71588344
0.71569821
0.7155119
0.71532456
0.71513625
0.71494706
0.71475708
0.71456644
0.71437525
0.71418368
0.7139919
0.71380009
0.71360848
0.71341733
0.71322702
0.71303833
0.7128527
0.71267046
0.71249194
0.71231746
0.71214739
0.71198208
0.71182191
0.71166729
0.71151862
0.71137631
0.7112408
0.71111254
0.71099197
0.71087953
0.71077561
0.71068036
0.71059312
0.71050679
0.71040698
0.71029941
0.71019043
0.71008027
0.70996974
0.70986019
0.70975347
0.70965182
0.70955782
0.70947438
0.70940461
0.70935187
0.70931964
0.70931156
0.70933124
0.70938205
0.70946705
0.70958909
0.70975075
0.7210094
0.72088017
0.72075237
0.72062583
0.72050035
0.72037574
0.72025182
0.72012838
0.72000524
0.7198822
0.71975905
0.71963561
0.71951168
0.71938706
0.71926156
0.719135
0.71900718
0.71887792
0.71874705
0.71861439
0.71847978
0.71834305
0.71820405
0.71806265
0.71791869
0.71777206
0.71762263
0.7174703
0.71731499
0.7171566
0.71699506
0.71683033
0.71666237
0.71649113
0.71631663
0.71613885
0.71595782
0.71577359
0.7155862
0.71539572
0.71520226
0.71500592
0.71480683
0.71460513
0.714401
0.71419462
0.71398622
0.71377607
0.71356461
0.71335281
0.71314185
0.71293203
0.71272368
0.71251713
0.71231275
0.71211091
0.71191199
0.71171641
0.71152458
0.71133694
0.71115393
0.71097602
0.71080367
0.71063735
0.7104775
0.71032442
0.71017803
0.71003655
0.70989687
0.70976602
0.70965022
0.70954938
0.70946392
0.70939475
0.70934324
0.70931115
0.70930057
0.70931391
0.70935382
0.70942317
0.70952506
0.70966265
0.7098391
0.71005683
0.71031791
0.71062438
0.71097805
0.72863354
0.72843788
0.72824254
0.7280477
0.72785356
0.72766029
0.72746807
0.72727709
0.72708751
0.72689952
0.72671328
0.72652894
0.72634668
0.72616663
0.72598895
0.72581378
0.72564125
0.72547149
0.72530461
0.72514072
0.72497993
0.72482234
0.72466802
0.72451705
0.72436951
0.72422545
0.72408492
0.72394795
0.72381458
0.72368482
0.72355869
0.72343617
0.72331727
0.72320194
0.72309016
0.72298189
0.72287707
0.72277563
0.7226775
0.7225826
0.72249082
0.72240206
0.7223162
0.72223313
0.7221527
0.72207477
0.72199919
0.72192579
0.72185442
0.7217849
0.72171703
0.72165064
0.72158553
0.72152148
0.72145831
0.72139579
0.72133371
0.72127185
0.72120998
0.72114787
0.7210853
0.72102204
0.72095784
0.72089248
0.72082571
0.72075732
0.72068705
0.72061469
0.72053999
0.72046273
0.72038269
0.72029964
0.72021337
0.72012368
0.72003035
0.71993319
0.71983201
0.71972664
0.71961689
0.7195026
0.71938364
0.71925985
0.7191311
0.7189973
0.71885832
0.71871409
0.71856453
0.71840959
0.71824923
0.71808342
0.71791215
0.71773543
0.7175533
0.7173658
0.71717299
0.71697496
0.71677181
0.71656368
0.7163507
0.71613305
0.7159109
0.7156845
0.71545412
0.71522028
0.71498417
0.71474665
0.71450802
0.71426862
0.71402879
0.7137889
0.71354932
0.71331047
0.71307277
0.71283665
0.71260255
0.71237096
0.71214235
0.7119172
0.71169602
0.71147928
0.71126745
0.711061
0.71086348
0.71068316
0.71052828
0.71040503
0.71031295
0.7102521
0.71022296
0.71022641
0.71026372
0.7103365
0.7104467
0.71059648
0.71078826
0.71102474
0.71130867
0.7116427
0.71202837
0.71246674
0.71295904
0.71350635
0.7260544
0.72593073
0.72580819
0.72568694
0.72556715
0.72544898
0.72533256
0.72521806
0.72510562
0.72499539
0.7248875
0.72478208
0.72467926
0.72457916
0.7244819
0.72438758
0.7242963
0.72420816
0.72412324
0.72404162
0.72396337
0.72388854
0.72381718
0.72374935
0.72368506
0.72362434
0.72356721
0.72351366
0.72346368
0.72341726
0.72337436
0.72333496
0.72329898
0.72326638
0.72323707
0.72321098
0.72318802
0.72316806
0.72315101
0.72313673
0.72312508
0.72311593
0.72310911
0.72310445
0.72310179
0.72310093
0.72310168
0.72310385
0.72310721
0.72311156
0.72311666
0.72312229
0.72312821
0.72313417
0.72313993
0.72314522
0.72314979
0.72315338
0.72315573
0.72315655
0.72315558
0.72315254
0.72314716
0.72313917
0.72312829
0.72311425
0.72309676
0.72307557
0.72305039
0.72302097
0.72298705
0.72294836
0.72290467
0.72285572
0.72280127
0.72274111
0.72267501
0.72260275
0.72252414
0.722439
0.72234713
0.72224839
0.72214261
0.72202966
0.72190942
0.72178178
0.72164665
0.72150396
0.72135364
0.72119567
0.72103002
0.72085669
0.72067569
0.72048707
0.72029089
0.72008722
0.71987616
0.71965784
0.71943239
0.71919999
0.71896083
0.71871515
0.71846325
0.7182057
0.71794398
0.71767858
0.71740981