/*--------------------------------*- C++ -*----------------------------------*\
| =========                 |                                                 |
| \\      /  F ield         | OpenFOAM: The Open Source CFD Toolbox           |
|  \\    /   O peration     | Version:  2.4.0                                 |
|   \\  /    A nd           | Web:      www.OpenFOAM.org                      |
|    \\/     M anipulation  |                                                 |
\*---------------------------------------------------------------------------*/
FoamFile
{
    version     2.0;
    format      ascii;
    class       volVectorField;
    location    "230";
    object      U;
}
// * * * * * * * * * * * * * * * * * * * * * * * * * * * * * * * * * * * * * //

dimensions      [0 1 -1 0 0 0 0];

internalField   nonuniform List<vector> 
78300
(
(-0.017605351 -3.7116541e-05 4.9412336e-20)
(-0.015998425 -3.7818006e-05 -5.7944056e-20)
(-0.0086402078 -6.6418455e-05 2.4359387e-20)
(-0.0070634536 -4.750974e-05 -3.8339591e-19)
(-0.0022768965 -0.00010591144 -3.911425e-20)
(-0.0026409695 0.0001276145 2.5970856e-20)
(-0.0013109259 8.8232589e-05 1.8417355e-21)
(-0.0025512407 0.00050126557 5.3856051e-20)
(-0.0021017412 0.0007233577 3.7862796e-20)
(-0.0026461878 0.0011288348 -3.496825e-20)
(-0.0012797997 7.0475434e-05 -5.9057506e-20)
(0.00050996043 -0.00068538895 4.3484897e-19)
(0.0012375948 -0.00057513033 -5.3037192e-20)
(-0.0020593488 0.0010883507 1.6470098e-19)
(-0.0046191757 0.0028930937 -6.5488286e-19)
(-0.003854537 0.0029299437 1.6868573e-18)
(-0.0047097024 0.001594917 7.1830794e-19)
(-0.0033700657 0.00063715124 -8.4489659e-19)
(7.3315161e-05 0.0011103404 2.9036287e-18)
(-0.00057957892 0.00093919267 -2.2973679e-18)
(-0.00098356218 0.00057549901 -3.5960186e-18)
(-0.00081919772 0.0003647742 3.97636e-18)
(-0.00055759568 0.00028588406 1.7726175e-18)
(-0.00039033422 0.00024411445 -9.9530778e-19)
(-0.00032811909 0.00020149668 -2.7995398e-18)
(-0.00023198329 0.00017350566 -7.8108376e-19)
(-0.00022674992 0.00015775092 -1.0977094e-18)
(-0.00017675781 0.00011797108 3.9815162e-18)
(-0.00012225983 0.00013108558 3.2588769e-18)
(-0.00011555694 0.00010536087 2.1892014e-18)
(-5.7658551e-05 0.00013892676 -2.1645922e-18)
(-0.00013667524 0.00013729708 -4.3834657e-18)
(-7.5148481e-05 0.00013043254 -1.5836142e-18)
(-7.8491577e-07 0.00014283838 -2.0782858e-18)
(7.9031086e-05 0.00026122309 2.2062457e-18)
(-4.2977597e-05 0.00037201997 -1.4701262e-18)
(-0.00017277142 0.00022769823 2.5370702e-18)
(0.00021127628 0.00013257012 9.5877065e-20)
(0.0015936847 0.00065977442 5.4689494e-18)
(0.0044569039 0.0011132845 -9.9223211e-19)
(-0.0020027561 0.0018246805 2.5399005e-20)
(-0.0062861243 -0.00072485968 -1.2401146e-18)
(2.6013378e-05 0.00023828767 -1.8336323e-18)
(-0.00096321793 0.0004566001 -2.1063997e-18)
(-0.0011935129 0.00010959651 3.4787447e-18)
(-0.00096838147 4.4437943e-05 4.12121e-18)
(-0.00058765729 0.0003515889 -1.4156209e-18)
(-0.00065771588 0.00035123654 -3.8445919e-18)
(-0.0006607547 0.00030516153 3.7270391e-18)
(-0.00067895259 0.00029101762 -2.9748669e-18)
(-0.00067786763 0.00027878713 -6.5175504e-18)
(-0.00065045415 0.00022673319 8.5874091e-19)
(-0.00061290646 0.00019413855 -1.2206614e-18)
(-0.00054398381 0.00016646091 -4.7684662e-18)
(-0.00047502239 0.00013401501 -1.5965519e-18)
(-0.00040141734 0.00010156508 1.4558703e-18)
(-0.00032527933 7.3003837e-05 1.1765277e-18)
(-0.00024636843 4.8855468e-05 2.7698866e-18)
(-0.00020440852 3.3743402e-05 5.0756031e-20)
(-0.0001516289 1.9339047e-05 -2.9458767e-18)
(-0.00017500372 1.5084586e-05 7.0109327e-19)
(-0.00018269336 1.125016e-05 1.0280235e-19)
(-0.0003776021 7.1168688e-06 1.1660373e-19)
(-0.00071945307 5.2233316e-06 -1.5529052e-23)
(-0.00098078907 6.269403e-06 3.8585431e-23)
(-0.0012660415 8.4130068e-06 1.2062694e-22)
(-0.0015142094 8.1735012e-06 -1.278148e-22)
(-0.0017628093 9.2264408e-06 1.2181735e-22)
(-0.0019867465 9.6290777e-06 -7.7812675e-23)
(-0.0022013787 1.0375768e-05 9.955002e-23)
(-0.0023883424 9.0676098e-06 -6.2865806e-23)
(-0.0025644163 8.4091722e-06 -1.3192981e-22)
(-0.0027261584 7.5225758e-06 1.7793114e-22)
(-0.0028788527 7.529596e-06 7.0823433e-16)
(-0.0030160135 5.9836192e-06 7.1093186e-16)
(-0.0031443907 5.1274317e-06 -3.4696826e-22)
(-0.0032663247 4.1184707e-06 1.3121308e-22)
(-0.0033811573 4.2100293e-06 1.1925884e-22)
(-0.0034850145 2.8478457e-06 -1.356982e-22)
(-0.0035840763 2.6800639e-06 1.0952852e-22)
(-0.003681766 2.3301477e-06 -6.3216552e-23)
(-0.0037750651 3.5894613e-06 1.7447422e-22)
(-0.0038607787 3.3578762e-06 -9.1101244e-23)
(-0.0039366721 3.9687197e-06 -1.3721278e-22)
(-0.004011722 4.3325489e-06 1.3876985e-22)
(-0.0040836894 5.1540987e-06 -1.8263236e-23)
(-0.0041325543 5.2983439e-06 1.0332052e-22)
(-0.0041523377 3.8094756e-06 -1.3896238e-22)
(-0.0041557721 2.8253064e-06 -8.4427341e-23)
(-0.0041427419 5.2191753e-07 1.3226121e-22)
(-0.0041203747 -7.1968812e-09 -9.3420084e-23)
(-0.0040938472 -2.2825041e-06 7.3289008e-23)
(-0.0040696865 -1.809373e-06 -3.4165044e-23)
(-0.0040500214 -2.3870524e-06 -3.6593246e-24)
(-0.0040288779 -2.0604475e-06 5.2351783e-24)
(-0.0040085556 -1.5613686e-06 4.243246e-23)
(-0.0039870358 -9.0235065e-07 -3.7243869e-24)
(-0.0039583944 1.1456471e-07 5.1304099e-23)
(-0.0039260419 2.01642e-07 -3.6498879e-24)
(-0.0038674205 -1.3104728e-07 -9.2858465e-23)
(-0.0037930325 -4.1349388e-07 4.2528285e-23)
(-0.0037092953 -1.8757946e-06 -3.7354247e-24)
(-0.003629734 -1.1772247e-06 5.1341416e-23)
(-0.0035824415 -2.4599258e-06 -3.7998714e-24)
(-0.0035449416 6.2374693e-07 -9.2581513e-23)
(-0.0035143015 -1.3414258e-07 -3.7779956e-24)
(-0.0034752738 1.5832714e-06 5.0551659e-24)
(-0.0034298822 4.4327266e-07 4.2495483e-23)
(-0.0033752456 1.2849594e-06 -3.769752e-24)
(-0.0033136879 -5.5342916e-09 -4.7144514e-23)
(-0.0032462857 1.2684802e-06 8.6426254e-23)
(-0.0031886376 -8.333093e-07 -9.4436045e-23)
(-0.0030787099 -1.6576253e-06 8.6956897e-23)
(-0.0029099024 -5.6846421e-06 -1.6616549e-23)
(-0.002733789 -6.1046345e-06 8.8102602e-24)
(-0.0025805939 -9.3626015e-06 -3.7739991e-23)
(-0.0024071746 -9.7756581e-06 2.0954095e-23)
(-0.0022621433 -1.0726248e-05 5.1057661e-24)
(-0.002167358 -8.5655093e-06 -3.7627495e-24)
(-0.0021072064 -7.9577191e-06 -3.3315426e-24)
(-0.0020483428 -6.7607215e-06 6.7446712e-16)
(-0.0019980204 -5.89849e-06 6.6097895e-16)
(-0.0019731331 -4.3392586e-06 3.7337279e-23)
(-0.0019685231 -3.1399713e-06 -3.2172837e-24)
(-0.0019705971 -1.5972573e-06 -3.3689464e-24)
(-0.0019812308 -1.134063e-06 -2.2961739e-24)
(-0.002031042 1.9693427e-06 -2.024007e-25)
(-0.0021080661 1.6191842e-06 -7.027144e-24)
(-0.002184716 3.5354777e-06 -3.0660267e-24)
(-0.0022309197 1.0221993e-06 1.0998187e-23)
(-0.0022604518 3.8260103e-06 5.7901073e-25)
(-0.0022868762 6.6515961e-07 5.8928269e-24)
(-0.0023169425 2.1262535e-06 -9.7727771e-24)
(-0.0023439112 -1.2432019e-06 1.3655957e-24)
(-0.0023717202 1.7370493e-06 3.17219e-25)
(-0.0024075257 -1.8689583e-06 6.2731876e-25)
(-0.0024409042 -1.07413e-06 6.70327e-26)
(-0.0024409131 -5.4368829e-06 4.1058257e-24)
(-0.0023703636 -4.0743552e-06 -1.7902145e-24)
(-0.0022394255 -7.8280859e-06 -9.9059823e-24)
(-0.0020756859 -6.4006178e-06 1.9050518e-23)
(-0.0018884583 -8.3016247e-06 -2.7476016e-23)
(-0.0016501571 -6.5080471e-06 6.6026124e-25)
(-0.0013909234 -4.887667e-06 1.4425199e-23)
(-0.0011673477 -2.5805306e-06 -3.8851506e-24)
(-0.0010810078 3.1955307e-06 9.1539683e-24)
(-0.0011615383 3.5323081e-06 -3.839984e-24)
(-0.0013566397 4.0541867e-06 -2.5555684e-25)
(-0.0016123772 1.7194441e-06 -4.0826149e-24)
(-0.0018854597 -3.198769e-06 -4.1871613e-24)
(-0.0022121962 -3.1527478e-06 -4.1056514e-24)
(-0.0025086969 -1.489188e-05 1.5353629e-23)
(-0.002716562 -1.5150463e-05 1.0558488e-23)
(-0.0028336502 -2.653704e-05 1.810889e-23)
(-0.0029260471 -2.0841788e-05 -6.2096499e-24)
(-0.0029538012 -3.2612098e-05 -2.0262036e-23)
(-0.0028480978 -2.7546335e-05 -5.2157171e-23)
(-0.0026694429 -3.2068344e-05 1.0434047e-15)
(-0.0024722316 -2.3018274e-05 5.0671503e-19)
(-0.0022434297 -2.3448189e-05 -1.0946518e-15)
(-0.0019756307 -1.5188412e-05 -8.3406872e-23)
(-0.0019613454 -8.3789328e-06 1.2380228e-23)
(-0.0024413681 -1.3008879e-05 -1.4570137e-22)
(-0.0033099042 -3.108889e-05 1.5342513e-22)
(-0.0040383849 -6.10841e-05 1.8534173e-23)
(-0.0041095092 -8.2293339e-05 -1.5243521e-22)
(-0.0036108404 -6.9475533e-05 8.7557555e-23)
(-0.0030162488 -5.5735121e-05 -1.0023865e-22)
(-0.0028835139 -3.7062642e-05 1.4937084e-22)
(-0.0031978591 -5.2132631e-05 -3.785511e-23)
(-0.0034627143 -6.2605549e-05 -7.8262003e-23)
(-0.0032737308 -7.419879e-05 2.4975982e-23)
(-0.0024510303 -5.1489222e-05 1.0535449e-22)
(-0.0012443276 -1.5858808e-05 -1.2176521e-22)
(-2.1717702e-05 2.733678e-05 1.0271705e-22)
(0.00069876867 7.1226775e-05 -1.0825012e-22)
(0.0011069686 7.8633669e-05 5.3067613e-23)
(0.0015127218 0.00011152056 5.2577513e-23)
(0.0021737421 0.00012349833 7.2623283e-23)
(0.0027608332 0.00017798558 -9.5201533e-23)
(0.0027611098 0.00017200801 -5.2816897e-23)
(0.0022048602 0.0001752603 5.5091022e-23)
(0.0015087917 0.00013411661 -1.0564714e-22)
(0.00086407937 0.00012402272 9.0478021e-23)
(-1.0937345e-05 8.4313146e-05 -4.8058736e-23)
(-0.00096955531 4.5248166e-05 3.9398681e-23)
(-0.0018133706 1.722343e-06 -4.5292693e-23)
(-0.002332197 -2.8428142e-05 -3.3308653e-23)
(-0.002696889 -4.333247e-05 2.3973057e-23)
(-0.0029485298 -6.3973473e-05 -3.8502804e-23)
(-0.0030636474 -6.9062543e-05 9.4984921e-23)
(-0.0030388069 -7.6688115e-05 -6.2583847e-23)
(-0.0029108801 -6.9436353e-05 5.6486183e-23)
(-0.0027422878 -6.7236763e-05 -1.0364406e-22)
(-0.0024907942 -5.8312033e-05 7.3176768e-24)
(-0.0022710522 -4.5257287e-05 3.627374e-23)
(-0.002176252 -4.0969708e-05 4.2664574e-23)
(-0.0021006776 -3.7761535e-05 -1.6797972e-22)
(-0.0018930332 -2.8345622e-05 9.8655759e-16)
(-0.0015901752 -1.6672005e-05 9.9673909e-16)
(-0.0014589455 -1.8505477e-05 -5.0315607e-23)
(-0.0014335498 -3.6199366e-05 -7.6085118e-23)
(-0.0014220364 -4.9647246e-05 6.839193e-23)
(-0.0010127181 -5.3340132e-05 1.3401604e-23)
(-0.00043768924 -1.1158186e-05 -2.3100934e-23)
(2.6984817e-05 1.4939435e-05 -1.0714663e-15)
(0.00022235169 4.2500091e-05 -1.050031e-15)
(0.0001769827 3.3928277e-05 -1.8312298e-19)
(0.00011763412 2.0000637e-06 1.8469809e-18)
(0.00018568558 -3.3779563e-05 8.1124191e-19)
(0.00038310042 -8.9971927e-05 -5.0425055e-18)
(0.00042196478 -0.00013058496 -7.9097531e-19)
(0.00010909023 -0.00020866004 -5.0274364e-18)
(0.00023269147 -0.00021995228 3.2004172e-19)
(0.00080994579 -0.00031196828 -4.7121491e-20)
(0.0016153127 -0.00033228727 1.4905931e-18)
(0.0017794536 -0.00048971355 -1.0131759e-18)
(0.0016309112 -0.00056209535 2.7063489e-18)
(0.00026255234 -0.00075390747 -1.5151912e-18)
(-0.0018531214 -0.00059630536 -3.7531756e-19)
(-0.00509024 -0.00010998773 -8.2454574e-19)
(-0.0073395955 0.00072029785 7.0841936e-18)
(-0.0056184859 0.00086125568 2.2644139e-18)
(-0.0006156903 0.0012889076 -1.0036632e-17)
(0.012751072 0.00027840479 -1.1261596e-17)
(0.015138706 -0.00060834554 -4.9560833e-19)
(0.02017742 -0.0030727503 -3.2444099e-20)
(0.017651638 -0.0024943718 1.3619828e-17)
(0.016631398 -0.0040021024 1.1443964e-18)
(0.017997464 -0.0027529606 5.2958681e-18)
(0.012577207 -0.00167538 4.1829545e-17)
(0.010086963 0.00056201224 -7.3821281e-18)
(0.0059344487 0.0023104184 -4.2586273e-17)
(0.0054597898 0.0039234051 -3.1346261e-17)
(0.0065313556 0.0049528441 1.1981253e-17)
(0.012331136 0.0034467915 6.0553641e-18)
(0.027624615 0.00039704859 6.5369402e-18)
(0.022887672 0.0031395103 -1.8081598e-17)
(-0.022703547 0.0098205328 -6.5327201e-17)
(-0.10727208 0.011745708 4.2156996e-17)
(-0.2149789 0.015328555 1.0933303e-17)
(-0.23708799 0.02308046 5.198364e-18)
(-0.16401013 0.017861312 8.0971256e-17)
(-0.094313157 0.0086083746 5.9268282e-17)
(0.086253094 0.002619247 -3.1946313e-17)
(0.16633397 -0.016066411 1.1488696e-16)
(0.12718972 -0.025291628 -1.067e-17)
(0.081801355 0.0025599092 -1.1204788e-16)
(-0.02457914 0.033165771 -2.7759416e-18)
(-0.050271149 0.043803403 -1.2443501e-16)
(-0.01980123 0.032461505 1.5319714e-16)
(-0.048613702 -0.0052268549 1.537274e-17)
(0.040829427 -0.042500436 2.9935702e-17)
(0.22893488 -0.050456233 -4.7356161e-17)
(0.23156722 -0.050319634 -1.2762628e-17)
(0.21123127 -0.052083835 -5.505426e-17)
(0.21841869 -0.010978916 3.476524e-16)
(0.1308717 0.025250618 3.9774278e-16)
(0.041645363 0.034487518 -1.4083008e-16)
(-0.018426035 0.037817848 -2.8821462e-16)
(-0.065312729 0.022790338 -2.1856986e-16)
(-0.084594608 0.013223037 -2.7387706e-17)
(-0.087967793 0.0075574709 2.9448131e-17)
(-0.084263892 0.0029290641 -2.6223256e-17)
(-0.072340667 0.0014210641 -1.2632045e-17)
(-0.060858611 0.00068185097 -1.9801894e-18)
(-0.048808719 0.00014175369 -2.3744343e-18)
(-0.03898467 6.4823778e-05 -1.0919229e-18)
(-0.02831639 2.9737516e-05 -5.4450055e-19)
(-0.026293314 4.6386205e-05 -6.6329544e-20)
(-0.027578477 -0.00010280445 5.4576804e-20)
(-0.027417806 -0.0001453684 1.674221e-19)
(-0.010422101 -0.00015638611 -8.992204e-20)
(-0.010946531 -9.8968522e-05 4.5211688e-19)
(-0.0015497709 -0.00034668894 2.3570527e-21)
(-0.0054827483 0.00035339825 9.5941905e-20)
(-0.0027186546 0.00029733537 -4.8997576e-21)
(-0.006863382 0.0015941966 -7.6828903e-20)
(-0.0063754822 0.002221741 -1.1438577e-19)
(-0.0078175566 0.0033446632 8.2754369e-20)
(-0.0025483594 0.00080910237 7.132974e-20)
(0.0020596575 -0.0012831588 -6.0321909e-20)
(0.0029329167 -0.0013501243 -1.1811057e-18)
(-0.0055081261 0.0026179551 -1.238223e-19)
(-0.012697243 0.006854179 1.7896354e-18)
(-0.011325495 0.0070800207 -1.514068e-18)
(-0.010204241 0.0040418717 1.1704394e-18)
(-0.0064746398 0.0032760425 1.1093547e-18)
(-0.0017165745 0.0035242525 3.0246053e-18)
(-0.0024482531 0.0026494785 -9.5639313e-19)
(-0.0024980421 0.0016322961 1.6631566e-18)
(-0.0018921809 0.0010871437 -1.9339895e-18)
(-0.0013542331 0.00087860328 -2.8636614e-18)
(-0.0010293253 0.00073696511 -7.940492e-18)
(-0.00086217684 0.00059248184 2.537848e-18)
(-0.00067069945 0.00052793423 4.1082784e-18)
(-0.00063088401 0.00042654749 6.2359745e-18)
(-0.0004956607 0.00036672443 -3.3668167e-18)
(-0.00042681315 0.00036149885 -1.4362781e-18)
(-0.00038512057 0.00034392849 -7.2669593e-18)
(-0.00035067272 0.00038294363 1.0926285e-17)
(-0.00047915337 0.00041138868 6.4769348e-18)
(-0.00037851667 0.00039811508 1.1500364e-18)
(-0.00029721953 0.00044086505 2.2264739e-18)
(-0.00040063177 0.0007851704 6.2963804e-20)
(-0.00078498489 0.0010905805 -7.0517622e-18)
(-0.00072539338 0.00070410349 -6.0282702e-18)
(-1.2068617e-05 0.00049294233 -2.9930628e-19)
(0.0010148749 0.0021610372 -5.401724e-18)
(0.0043208883 0.0032202789 -4.9399451e-19)
(-0.0053137899 -0.00051941286 1.9282837e-22)
(-0.008169267 -0.0021746049 -7.0707555e-18)
(-0.00042383023 0.0006323217 -1.1763321e-18)
(-0.0024105957 0.0012751213 -8.4912885e-19)
(-0.0020503668 0.00024045658 1.8357744e-18)
(-0.0016646992 0.00027350042 -1.0585028e-17)
(-0.0017573561 0.0010450913 3.1647372e-18)
(-0.00190658 0.0010202829 -2.2534746e-18)
(-0.001830719 0.00086465166 -2.3055847e-19)
(-0.0018743091 0.00083070597 -1.9415514e-18)
(-0.0018940222 0.00079725981 1.3144704e-18)
(-0.0017535465 0.00065076859 -6.8384896e-18)
(-0.0016544358 0.00056468883 -4.7985877e-19)
(-0.0015141329 0.00048610569 1.5510476e-18)
(-0.0013469506 0.00039392916 -4.3378805e-19)
(-0.0011575706 0.00030199734 4.4921256e-18)
(-0.00096321193 0.00022022712 -4.5480299e-18)
(-0.00075562755 0.00014648175 3.6857815e-18)
(-0.0006408481 0.00010074634 -1.1009448e-18)
(-0.00047724202 5.566636e-05 9.9830292e-20)
(-0.00053824992 4.5951623e-05 2.565332e-19)
(-0.00055191481 3.1052927e-05 2.253338e-18)
(-0.0011300351 2.6585759e-05 -1.7919197e-19)
(-0.0021416139 1.65174e-05 3.2409833e-22)
(-0.0028967368 1.7337514e-05 3.6950188e-25)
(-0.0037199514 1.8586145e-05 6.3600732e-23)
(-0.0044441374 1.9179405e-05 -2.1163601e-22)
(-0.0051741546 1.9332694e-05 1.2709639e-22)
(-0.0058240203 1.9725054e-05 -4.2967951e-23)
(-0.0064516124 1.9708494e-05 -4.352609e-23)
(-0.0070185268 1.8572732e-05 -4.4066869e-23)
(-0.0075652046 1.6862483e-05 1.5318222e-22)
(-0.0080628829 1.539961e-05 -6.6982585e-23)
(-0.0085303808 1.4058692e-05 -4.4461725e-23)
(-0.0089652293 1.1974871e-05 -4.4830346e-23)
(-0.0093807987 9.8323405e-06 2.6792657e-22)
(-0.0097646634 8.2698603e-06 -1.7972781e-22)
(-0.010118514 7.0874905e-06 9.0807137e-23)
(-0.010447772 5.5616202e-06 -4.4857386e-23)
(-0.01076319 4.1640488e-06 1.347547e-22)
(-0.011054212 3.7199877e-06 -4.4882809e-23)
(-0.011315016 3.8184431e-06 -4.502207e-23)
(-0.011555533 3.8322816e-06 -4.5220537e-23)
(-0.011772598 3.6664918e-06 -4.5461043e-23)
(-0.011973752 4.4080188e-06 -4.5760081e-23)
(-0.01215991 4.83265e-06 -4.6151953e-23)
(-0.012293798 4.1304641e-06 1.3699754e-22)
(-0.012371419 2.8708363e-06 2.2586504e-23)
(-0.012416749 9.5651238e-07 1.6279098e-22)
(-0.012426296 -1.226214e-06 -2.5538095e-22)
(-0.012409853 -3.5795356e-06 1.6295661e-22)
(-0.012380486 -5.5833604e-06 -4.6405496e-23)
(-0.012336935 -6.6587769e-06 -1.3931439e-22)
(-0.012278081 -6.6949045e-06 -4.5896478e-23)
(-0.012205762 -6.34805e-06 5.8143614e-23)
(-0.01211664 -5.3034035e-06 3.379442e-23)
(-0.012009526 -3.9126345e-06 8.1905982e-23)
(-0.011875536 -2.4296495e-06 5.7877794e-23)
(-0.011755139 -2.2979035e-06 -1.7404253e-22)
(-0.011591664 -3.1430059e-06 5.7905121e-23)
(-0.011395824 -4.2839499e-06 3.3808702e-23)
(-0.011185587 -5.4554246e-06 8.2146451e-23)
(-0.010974466 -5.7452873e-06 -1.7419585e-22)
(-0.010835039 -5.0342703e-06 8.2033048e-23)
(-0.010677238 -3.8631805e-06 3.3675599e-23)
(-0.010523982 -2.2649963e-06 5.7878203e-23)
(-0.010364525 -1.3527526e-06 -1.499079e-22)
(-0.010195468 -3.0968605e-07 3.371861e-23)
(-0.010011519 5.2636253e-08 9.5916575e-24)
(-0.0098126053 7.0795574e-07 1.0738375e-22)
(-0.0096017241 8.2461562e-07 -9.1451491e-23)
(-0.009455585 3.7169538e-07 3.4407457e-23)
(-0.0092436549 -3.9143381e-06 -1.6451075e-24)
(-0.0089224619 -7.2177374e-06 -1.0338152e-22)
(-0.0085465872 -8.5647977e-06 2.1525169e-23)
(-0.0082305283 -1.0828649e-05 2.2971034e-23)
(-0.0078738462 -1.2747418e-05 1.3624522e-23)
(-0.007564522 -1.3620087e-05 3.2651115e-23)
(-0.0073104786 -1.1894998e-05 1.6859409e-24)
(-0.0071004628 -1.1506405e-05 -1.7295859e-23)
(-0.0069032997 -1.0364082e-05 8.545429e-24)
(-0.0067260194 -9.800217e-06 -1.2984047e-23)
(-0.0065796512 -7.0262348e-06 4.9079315e-24)
(-0.0064610049 -6.1188386e-06 -7.7901442e-24)
(-0.0063659283 -4.4014919e-06 1.6099726e-23)
(-0.0062945022 -3.4200012e-06 -2.9456652e-23)
(-0.0062791246 -6.288157e-07 -5.7647036e-24)
(-0.0062985172 7.1917369e-07 1.1269196e-23)
(-0.0063293097 1.7828287e-06 2.0465663e-23)
(-0.0063210579 1.7892241e-06 -2.8056399e-24)
(-0.0063018444 1.4051863e-06 -5.9039166e-24)
(-0.0062825156 1.9793253e-06 -1.0935942e-23)
(-0.006273636 2.131062e-06 1.0072523e-23)
(-0.0062610948 2.1464726e-06 -2.4493611e-24)
(-0.0062613438 7.0473393e-07 -1.9765458e-25)
(-0.0062745712 1.1175608e-06 -1.2663877e-24)
(-0.0062792703 2.2169097e-08 1.6060406e-25)
(-0.0062244599 -8.661512e-07 6.1267086e-24)
(-0.0060761747 -4.5665766e-06 -1.1206282e-23)
(-0.0058525113 -4.2760542e-06 -1.8898654e-24)
(-0.0055681067 -4.543917e-06 -7.7591863e-24)
(-0.0052479356 -3.9396782e-06 2.2835012e-23)
(-0.0048602656 -3.8866143e-06 1.8887287e-23)
(-0.0044654421 -1.5142568e-06 -3.9590866e-24)
(-0.004129328 3.4131891e-06 -4.5907036e-23)
(-0.0040004887 6.9341064e-06 -2.5360427e-23)
(-0.0040939989 1.0196519e-05 3.8601671e-23)
(-0.0043512795 7.0856376e-06 5.6682318e-23)
(-0.0047153887 3.9669728e-06 -9.5020363e-23)
(-0.0051232981 -1.2603837e-06 2.3359973e-23)
(-0.005599997 -6.7587145e-06 -2.4475361e-24)
(-0.0060263662 -1.557376e-05 4.7777715e-23)
(-0.006346545 -2.2740354e-05 -3.5956909e-23)
(-0.0065480233 -2.6854798e-05 1.8020049e-23)
(-0.0066983255 -3.0723298e-05 2.6849716e-23)
(-0.0067430078 -3.4916011e-05 6.1498933e-23)
(-0.0066131755 -3.5422881e-05 -1.5355529e-22)
(-0.0063860456 -3.1153825e-05 6.2503481e-23)
(-0.0061045069 -2.6120055e-05 -2.419039e-24)
(-0.005772619 -2.2657108e-05 -9.8932127e-23)
(-0.0054390989 -1.2430389e-05 -3.3862814e-24)
(-0.0055064475 -2.6029932e-06 1.7732464e-22)
(-0.0062218979 -6.7301186e-06 5.3413028e-23)
(-0.0073989378 -3.9409619e-05 -1.3184804e-22)
(-0.0083722528 -7.9961674e-05 1.6559211e-22)
(-0.008448432 -9.864073e-05 2.5307158e-23)
(-0.0077998525 -8.8735295e-05 -1.6535047e-22)
(-0.0070852724 -5.6597983e-05 2.9882392e-22)
(-0.0069291986 -3.5770443e-05 -2.2267082e-22)
(-0.0073369635 -5.0533746e-05 2.9539661e-23)
(-0.0076696219 -6.9841183e-05 4.3238734e-23)
(-0.0073592435 -7.6274299e-05 -2.283117e-22)
(-0.0061792058 -5.0759414e-05 2.5555343e-22)
(-0.0044762956 6.2407749e-06 4.875119e-23)
(-0.0027729008 7.7040017e-05 -1.2781378e-22)
(-0.0017608449 0.00013146283 -1.1778068e-22)
(-0.0011451364 0.00015495998 -2.0727698e-22)
(-0.00053214756 0.00017538997 3.9063567e-22)
(0.00039087582 0.00020671791 2.2697773e-22)
(0.001176105 0.00025567904 -4.7226034e-22)
(0.00121278 0.00027572157 4.0993799e-22)
(0.00052366707 0.00024922458 -1.2541568e-22)
(-0.00040899303 0.00020160541 -1.4631084e-22)
(-0.0013322591 0.00016699258 -9.4157824e-23)
(-0.0025541918 0.00011760096 8.6932433e-24)
(-0.0038330186 5.2237939e-05 2.1013851e-22)
(-0.0049792912 -1.3654063e-05 -1.5286435e-22)
(-0.005716902 -5.4852097e-05 9.6523499e-23)
(-0.006248274 -8.1351058e-05 -1.6739133e-22)
(-0.0065920606 -0.00010311273 1.8740137e-22)
(-0.0067493693 -0.00011649614 -1.1427017e-22)
(-0.0066924975 -0.00011867909 6.7477725e-23)
(-0.0064855477 -0.00011454728 2.4300744e-23)
(-0.0061814025 -0.00010498803 -1.3517025e-22)
(-0.0058034731 -9.191927e-05 1.4057374e-22)
(-0.0055316038 -6.7633233e-05 -2.0127826e-24)
(-0.0054594948 -5.5789334e-05 5.8513764e-23)
(-0.0053427321 -4.8373055e-05 -2.7651174e-22)
(-0.0049780865 -4.5944154e-05 1.8723954e-22)
(-0.0043486663 -2.7581739e-05 6.0690326e-23)
(-0.0038377112 -3.246447e-05 -2.8658576e-22)
(-0.00339779 -5.1384447e-05 2.8292452e-22)
(-0.0029884554 -7.6263518e-05 2.0293592e-22)
(-0.0021638322 -6.7542716e-05 -3.0047497e-22)
(-0.0013117433 -1.0665851e-05 2.3868587e-22)
(-0.00073252313 3.6340634e-05 -3.354925e-22)
(-0.00064807151 8.1553889e-05 -3.3977829e-22)
(-0.00081449341 5.8517602e-05 4.8186301e-19)
(-0.0011069629 -4.7193688e-05 2.0387507e-19)
(-0.0011942617 -0.00018291869 9.5450464e-20)
(-0.0011807688 -0.00036253966 6.071855e-18)
(-0.0011728807 -0.00051227044 2.8579146e-18)
(-0.0017323852 -0.00072757936 1.2485161e-17)
(-0.0013582099 -0.00080070415 1.050469e-17)
(-0.00073757385 -0.0010723577 -2.5765635e-18)
(0.0004947451 -0.001156184 -2.8531603e-18)
(0.00043595749 -0.0015193385 5.4371438e-19)
(0.00019308993 -0.0017060881 -1.4443426e-18)
(-0.0021455724 -0.0021380106 9.5087206e-19)
(-0.0046134323 -0.0017065195 -9.6527071e-19)
(-0.0079988524 -0.00050795565 -5.1557562e-19)
(-0.0091762251 0.0016697643 -5.6733904e-18)
(-0.0062688919 0.001895542 1.9430698e-17)
(0.0020569257 0.0034021586 8.3598332e-18)
(0.02009254 0.0015462568 5.5983331e-19)
(0.020543832 -0.0029443164 -1.6134028e-18)
(0.024429725 -0.0061874851 3.6079298e-19)
(0.02048369 -0.0083799276 -1.6472825e-17)
(0.01756632 -0.0087954932 3.8102489e-17)
(0.021181 -0.0092505276 -1.4212969e-17)
(0.015750073 -0.0045281883 8.5216919e-18)
(0.016011627 0.00044277128 -1.6166706e-17)
(0.013121645 0.005474877 3.9263001e-17)
(0.015430399 0.0099135113 1.1334694e-17)
(0.018991444 0.012391871 2.6189447e-17)
(0.025564172 0.0085389952 -1.6991145e-17)
(0.043567362 -0.00092259574 4.288791e-17)
(0.039953446 0.0058187725 3.1790702e-17)
(-0.018113195 0.022205967 5.8616474e-17)
(-0.14451622 0.030317489 -1.7943287e-18)
(-0.3035807 0.043003453 4.0766452e-17)
(-0.32292736 0.0747449 -7.1731355e-17)
(-0.21848376 0.055174343 1.4311806e-16)
(-0.12835884 0.030763987 -1.1279296e-16)
(0.14363503 0.013835155 -6.3214653e-16)
(0.23136941 -0.043099929 8.3897793e-17)
(0.15822397 -0.060503542 3.952242e-17)
(0.13154738 0.0026840507 1.996438e-16)
(0.014217746 0.091553813 -3.600241e-17)
(-0.0096331852 0.11849143 6.0959616e-17)
(0.019515136 0.089713986 -1.3398052e-17)
(-0.086304196 -0.0071922139 -5.9027406e-17)
(-0.0018438798 -0.10293997 -2.094234e-16)
(0.28154874 -0.12401807 1.9957959e-17)
(0.2822857 -0.12213226 1.1527836e-17)
(0.24695174 -0.11879088 -8.6483009e-17)
(0.32306855 -0.032715778 -1.1961095e-16)
(0.2525875 0.057780806 -4.8344685e-16)
(0.13901949 0.093098561 3.6080439e-16)
(0.059083826 0.094236717 7.7253781e-17)
(-0.041015975 0.054601763 2.6449372e-16)
(-0.089877623 0.031546863 -8.6720299e-17)
(-0.10782486 0.017747588 6.2068676e-17)
(-0.11860887 0.0060870395 -2.0586443e-17)
(-0.10524971 0.0027333763 -4.6881308e-17)
(-0.089791474 0.0012496444 -8.7992412e-18)
(-0.077016185 9.9705785e-05 6.6941845e-19)
(-0.066677622 -7.7261177e-05 1.7406086e-18)
(-0.045528229 -2.7134624e-05 2.8564951e-19)
(-0.046425728 -3.4790806e-05 2.4171948e-19)
(-0.028584517 -0.00021261479 5.1139128e-20)
(-0.031386692 -0.00024021893 -5.7384305e-20)
(-0.0066780946 -0.00027920345 -9.6320304e-21)
(-0.010965732 -0.00017860228 -2.2776378e-19)
(0.001202514 -0.00057000814 2.4006846e-19)
(-0.0072063739 0.00055767241 -6.3998748e-20)
(-0.0035677921 0.00044737527 4.8988433e-21)
(-0.010844726 0.002588377 1.6116232e-19)
(-0.01069606 0.0036574404 -1.5701772e-19)
(-0.01294082 0.0055265901 -3.5378195e-21)
(-0.0037269335 0.0011472323 -9.5616388e-20)
(0.0032657235 -0.0022994717 3.523014e-19)
(0.004040199 -0.0021461926 1.1690326e-18)
(-0.0082985832 0.0048034972 -2.6357998e-19)
(-0.019067965 0.012097796 -1.9849861e-18)
(-0.017455387 0.012407439 4.0477941e-19)
(-0.013742724 0.00712753 -4.8820866e-19)
(-0.0095368681 0.0049738064 -2.4492949e-18)
(-0.0043801267 0.0057556408 -6.4688647e-18)
(-0.0044418491 0.0044550278 3.9204404e-18)
(-0.0037996554 0.0027539267 4.7045023e-18)
(-0.0027859099 0.0018141893 1.0946564e-18)
(-0.0020761942 0.0014585689 -3.312808e-18)
(-0.0016366118 0.0012329474 8.7806832e-18)
(-0.0013547586 0.00099841851 -2.7789913e-19)
(-0.0011165321 0.00088315182 4.8863083e-18)
(-0.0009864733 0.00073569459 -4.7202143e-18)
(-0.00082189521 0.00061445473 -3.1921275e-18)
(-0.00072959873 0.00062743499 -1.5890389e-19)
(-0.00069674832 0.00057652908 -3.4554535e-18)
(-0.00067941855 0.00067143815 1.2461672e-18)
(-0.00085098322 0.00070824081 1.0877285e-18)
(-0.00074423854 0.00069328981 4.0690742e-18)
(-0.00070552561 0.00077481393 -1.6096581e-19)
(-0.0010927419 0.0013646898 8.6518267e-18)
(-0.0017252534 0.0018785565 6.3502662e-18)
(-0.0013726056 0.0012181714 1.3795538e-18)
(-0.00052246788 0.0009005277 -4.4304197e-19)
(-0.00089525772 0.0037362883 -7.5001268e-19)
(0.0013702986 0.0056426805 2.2044473e-18)
(-0.0042285349 0.00084656398 -5.1601164e-20)
(-0.0067752264 -0.003993806 1.128238e-17)
(-0.00096642629 0.001126067 5.2718813e-18)
(-0.0036666931 0.0021495785 2.3988233e-20)
(-0.0024103656 0.00043871033 -1.4703486e-17)
(-0.0021043674 0.00041599627 5.3676795e-18)
(-0.0029460058 0.0017860274 6.1725869e-18)
(-0.003150528 0.0017516539 4.9586819e-18)
(-0.0029640814 0.0014952354 7.5025083e-19)
(-0.0030374021 0.0014331709 -1.9204428e-18)
(-0.0030908579 0.0013753677 6.9222996e-18)
(-0.0028294034 0.0011258956 1.8044486e-18)
(-0.0026808967 0.00097681138 8.3754915e-19)
(-0.0024942953 0.0008447248 7.6307531e-18)
(-0.0022464077 0.00068833598 -4.630924e-18)
(-0.0019557017 0.00053164182 -5.3754193e-18)
(-0.0016578011 0.00039207908 1.6583358e-18)
(-0.0013335029 0.00026783606 -2.1630911e-18)
(-0.001152384 0.00018794744 2.2555311e-18)
(-0.00088090968 0.00010993878 4.8976268e-18)
(-0.00098154809 8.7725711e-05 2.8957715e-19)
(-0.0010082885 6.1486086e-05 -1.3895573e-19)
(-0.0019780349 5.0527283e-05 2.5881993e-19)
(-0.0036616184 3.3809291e-05 -2.8937035e-22)
(-0.0049118603 3.2603855e-05 1.7164859e-23)
(-0.0062691325 3.4753829e-05 6.106445e-23)
(-0.0074694779 3.347476e-05 -1.339295e-22)
(-0.0086799273 3.3821362e-05 6.1209915e-23)
(-0.0097530538 3.3031121e-05 6.1856361e-23)
(-0.010791634 3.2815748e-05 -1.364532e-22)
(-0.01174346 2.9928373e-05 6.2158995e-23)
(-0.012668204 2.7921649e-05 6.2977211e-23)
(-0.013507334 2.5359439e-05 6.3703015e-23)
(-0.014294006 2.40408e-05 -5.0022496e-23)
(-0.015034953 2.0619417e-05 -2.5179858e-23)
(-0.01574732 1.8389639e-05 -5.3303814e-23)
(-0.016398412 1.5829195e-05 6.4662675e-23)
(-0.016993915 1.4733612e-05 -2.5397916e-23)
(-0.017553482 1.189596e-05 1.5844668e-22)
(-0.018089194 1.0736524e-05 -1.4429152e-22)
(-0.018570417 9.3832384e-06 6.5473926e-23)
(-0.018990203 9.9652058e-06 1.8528798e-22)
(-0.019377309 8.872368e-06 -1.4489643e-22)
(-0.01972889 8.9275427e-06 -5.1355393e-23)
(-0.020045451 9.2992154e-06 1.8685377e-22)
(-0.020332346 9.4851541e-06 -1.4612557e-22)
(-0.020543683 7.8873756e-06 6.6978009e-23)
(-0.020682173 5.1286629e-06 -5.4562845e-23)
(-0.020777631 2.7664359e-06 -2.592899e-23)
(-0.02082237 -1.0992818e-06 6.7379399e-23)
(-0.020825401 -3.0255629e-06 6.7356634e-23)
(-0.02080643 -6.7486059e-06 -2.6828529e-22)
(-0.020750149 -6.8597762e-06 1.894608e-22)
(-0.020649976 -8.0739442e-06 -5.2350629e-23)
(-0.020520908 -7.88786e-06 -1.4755243e-22)
(-0.020350975 -7.279982e-06 6.6927657e-23)
(-0.020140845 -6.4437402e-06 1.8819588e-22)
(-0.019881565 -4.6876916e-06 -4.0180477e-23)
(-0.019661877 -5.0919387e-06 -5.2001715e-23)
(-0.019394966 -6.4599442e-06 -4.0363268e-23)
(-0.019084104 -7.7011684e-06 -4.042264e-23)
(-0.018757767 -9.9485949e-06 8.1450537e-23)
(-0.018421759 -8.4695761e-06 -4.0394145e-23)
(-0.018189367 -9.063715e-06 -5.2019759e-23)
(-0.017894163 -5.3879734e-06 8.1164378e-23)
(-0.017597054 -5.9250527e-06 -4.0267956e-23)
(-0.017301988 -3.6228922e-06 -4.0413094e-23)
(-0.016997845 -4.3932363e-06 4.0699628e-23)
(-0.016677905 -3.4203742e-06 6.4678827e-23)
(-0.016337217 -4.4202244e-06 5.8946623e-24)
(-0.015978649 -2.2010547e-06 -5.2690413e-23)
(-0.015751858 -3.9724541e-06 -4.1096953e-23)
(-0.015480587 -9.1413022e-06 1.3067562e-22)
(-0.015074622 -1.5936359e-05 -2.0056564e-22)
(-0.014549571 -1.5591936e-05 1.6443939e-22)
(-0.014116197 -2.0432684e-05 -1.3334881e-22)
(-0.013629268 -2.1280145e-05 5.2587722e-23)
(-0.013195184 -2.2350194e-05 2.3076259e-23)
(-0.012791434 -1.7487757e-05 5.2358451e-24)
(-0.01242213 -1.7586502e-05 -3.7401859e-23)
(-0.012079309 -1.5261788e-05 2.3238329e-23)
(-0.011765204 -1.4580551e-05 -1.9421707e-23)