0 	0 	0 	0 	0 	0 	0
0.00048240845 	2.8374124e-08 	4.6284798e-12 	-9.1016191e-33 	2.8374083e-08 	-3.3508162e-33 	2.8374103e-08
0.00098049384 	3.7863715e-08 	4.3329329e-11 	2.4784233e-31 	3.786292e-08 	7.2900506e-32 	3.7863317e-08
0.0014947656 	1.4270637e-07 	3.623142e-10 	-7.8360841e-31 	1.4269712e-07 	-1.3673477e-31 	1.4270174e-07
0.0020257498 	4.1055407e-07 	1.8854608e-09 	-1.4031856e-30 	4.1049284e-07 	-4.1857194e-30 	4.1052345e-07
0.0025739895 	9.5119707e-07 	7.1154005e-09 	-1.5904441e-30 	9.5091676e-07 	-4.7008558e-30 	9.5105692e-07
0.0031400454 	1.9054241e-06 	2.157992e-08 	-5.3541569e-30 	1.904425e-06 	-4.4538652e-30 	1.9049246e-06
0.0037244966 	3.4474907e-06 	5.6003113e-08 	-2.0201757e-29 	3.4445129e-06 	1.2126794e-28 	3.4460018e-06
0.0043279408 	5.789516e-06 	1.2942589e-07 	-3.1741246e-28 	5.7817524e-06 	3.2245935e-28 	5.7856343e-06
0.0049509953 	9.1867764e-06 	2.7353375e-07 	4.0671862e-28 	9.1685254e-06 	-1.4424831e-28 	9.1776511e-06
0.0055942973 	1.3943628e-05 	5.3845504e-07 	2.0950971e-27 	1.3904118e-05 	-1.420194e-27 	1.3923873e-05
0.0062585048 	2.0419777e-05 	1.000241e-06 	-1.8285876e-27 	2.0339812e-05 	-8.928896e-28 	2.0379795e-05
0.0069442972 	2.9036425e-05 	1.7700816e-06 	-3.2269472e-27 	2.8883426e-05 	1.1976606e-27 	2.8959927e-05
0.007652376 	4.0281365e-05 	3.0049694e-06 	-8.9771864e-28 	4.0002313e-05 	9.332625e-28 	4.014184e-05
0.0083834654 	5.4711832e-05 	4.9189434e-06 	-1.4355775e-26 	5.4223609e-05 	5.0468351e-27 	5.4467723e-05
0.0091383131 	7.2953424e-05 	7.7931467e-06 	8.1259302e-27 	7.2130126e-05 	1.9002311e-26 	7.2541778e-05
0.0099176913 	9.569253e-05 	1.1981709e-05 	3.221266e-26 	9.4349547e-05 	1.0361839e-26 	9.5021041e-05
0.010722397 	0.00012365945 	1.790916e-05 	9.2550918e-27 	0.00012153453 	-3.7034832e-27 	0.00012259699
0.011553254 	0.00015759949 	2.6054181e-05 	2.3531808e-26 	0.00015433173 	9.8851766e-27 	0.00015596562
0.012411111 	0.00019823066 	3.6914918e-05 	2.3183459e-26 	0.00019333914 	4.9514684e-27 	0.00019578492
0.013296846 	0.00024618894 	5.09538e-05 	3.9641949e-26 	0.00023905376 	-1.1289946e-25 	0.00024262139
0.014211364 	0.0003019664 	6.852535e-05 	1.8186369e-25 	0.00029181528 	-2.0060631e-25 	0.00029689092
0.015155603 	0.00036585152 	8.9797983e-05 	1.6264907e-25 	0.00035175533 	6.8831142e-26 	0.00035880356
0.016130526 	0.00043788456 	0.00011468757 	-4.0539588e-25 	0.00041876398 	4.1723519e-25 	0.00042832446
0.017137132 	0.00051783997 	0.00014282207 	-6.5931155e-25 	0.00049248365 	-1.9408329e-25 	0.00050516206
0.018176449 	0.00060524531 	0.00017355173 	-2.78539e-26 	0.00057233737 	-9.5547006e-25 	0.00058879165
0.019249542 	0.00069943168 	0.00020600562 	1.981311e-25 	0.00065758469 	-2.2668857e-25 	0.00067850854
0.020357507 	0.0007996041 	0.00023918083 	3.7376458e-25 	0.00074739303 	2.9789928e-26 	0.00077349895
0.021501477 	0.00090491976 	0.00027204461 	2.5249483e-25 	0.00084091243 	1.3315377e-24 	0.0008729165
0.022682624 	0.001014558 	0.00030362802 	9.4029734e-25 	0.00093733924 	1.8745526e-24 	0.000975949
0.023902154 	0.0011277715 	0.00033309547 	-2.254294e-24 	0.0010359601 	-3.0008822e-25 	0.0010818662
0.025161316 	0.0012439164 	0.00035978537 	-3.212813e-24 	0.001136174 	-1.5320789e-24 	0.0011900457
0.026461397 	0.0013624613 	0.00038322059 	8.062394e-25 	0.0012374976 	-3.69694e-26 	0.00129998
0.027803728 	0.0014829833 	0.00040309958 	5.3354251e-24 	0.0013395566 	1.9735898e-24 	0.0014112705
0.02918968 	0.0016051548 	0.00041927672 	2.0170168e-24 	0.0014420714 	-6.4295309e-25 	0.0015236137
0.030620672 	0.0017287285 	0.00043173278 	2.4176309e-25 	0.0015448393 	-1.8674661e-24 	0.0016367845
0.032098167 	0.0018535203 	0.00044054459 	2.9462191e-24 	0.0016477184 	-2.0654441e-24 	0.0017506199
0.033623676 	0.0019793955 	0.00044585795 	-7.0287642e-24 	0.0017506126 	-6.1749308e-25 	0.0018650046
0.03519876 	0.0021062565 	0.0004478618 	-4.8691729e-24 	0.001853461 	-1.548367e-24 	0.0019798594
0.03682503 	0.0022340338 	0.00044676644 	-9.1560793e-24 	0.001956229 	-7.6442443e-24 	0.002095132
0.03850415 	0.0023626787 	0.00044279144 	-2.6903185e-23 	0.0020589016 	2.0618854e-24 	0.0022107908
0.040237836 	0.002492158 	0.00043615359 	-1.5546898e-23 	0.0021614789 	1.144247e-23 	0.0023268192
0.042027862 	0.0026224501 	0.00042705774 	4.7666219e-24 	0.0022639726 	4.3240231e-24 	0.0024432122
0.043876059 	0.0027535418 	0.00041569414 	-2.3218991e-25 	0.0023664038 	1.24205e-26 	0.0025599737
0.045784317 	0.0028854264 	0.0004022362 	-5.0225109e-24 	0.0024688006 	2.8769927e-25 	0.0026771146
0.047754588 	0.0030181019 	0.00038683963 	5.9397832e-24 	0.002571197 	-4.6052207e-24 	0.0027946506
0.049788888 	0.0031515693 	0.00036964076 	-1.2092981e-23 	0.0026736318 	-9.9144308e-24 	0.0029126019
0.051889297 	0.0032858319 	0.00035075898 	-5.3535667e-23 	0.0027761475 	4.0412088e-24 	0.0030309913
0.054057963 	0.0034208942 	0.00033029944 	-2.5324716e-23 	0.0028787899 	2.1584815e-23 	0.0031498439
0.056297104 	0.0035567608 	0.00030834976 	3.3954091e-23 	0.0029816078 	4.9493446e-24 	0.0032691864
0.058609012 	0.0036934364 	0.00028498442 	1.2336262e-23 	0.0030846523 	-1.3050214e-23 	0.0033890467
0.06099605 	0.0038309246 	0.00026026857 	-1.0645692e-23 	0.0031879766 	-8.4720751e-24 	0.0035094533
0.06346066 	0.0039692281 	0.00023425369 	-2.5007909e-23 	0.0032916358 	-9.8792311e-25 	0.0036304351
0.066005363 	0.0041083476 	0.00020698145 	-4.20895e-23 	0.0033956874 	1.5329707e-23 	0.0037520209
0.068632762 	0.0042482819 	0.0001784858 	3.6548081e-23 	0.0035001896 	1.0182287e-23 	0.0038742396
0.071345544 	0.0043890282 	0.00014879172 	4.4625239e-23 	0.0036052024 	-3.2253317e-25 	0.0039971197
0.074146484 	0.0045305807 	0.00011791844 	3.6179672e-23 	0.003710788 	-1.6052846e-25 	0.0041206893
0.077038447 	0.0046729315 	8.5877031e-05 	4.4939433e-23 	0.0038170093 	-1.3393879e-23 	0.0042449758
0.08002439 	0.0048160697 	5.2672315e-05 	6.1264081e-24 	0.0039239304 	-2.4038647e-23 	0.0043700061
0.083107369 	0.0049599815 	1.8305301e-05 	-6.4128807e-23 	0.0040316174 	-1.2276001e-24 	0.0044958062
0.086290535 	0.0051046504 	-1.7230343e-05 	-5.3665785e-23 	0.0041401376 	4.2864394e-23 	0.0046224015
0.089577146 	0.0052500566 	-5.3943802e-05 	1.4546836e-22 	0.0042495595 	-7.318284e-25 	0.0047498163
0.092970562 	0.0053961767 	-9.1847453e-05 	3.6566055e-23 	0.0043599534 	-3.8288293e-23 	0.0048780741
0.096474255 	0.0055429843 	-0.00013096085 	-3.044252e-23 	0.0044713911 	-5.0449099e-25 	0.0050071976
0.10009181 	0.0056904497 	-0.00017130822 	7.4306236e-23 	0.0045839453 	-2.1099522e-23 	0.0051372083
0.10382692 	0.005838539 	-0.00021291588 	-1.4199089e-22 	0.0046976906 	-9.3856614e-24 	0.0052681269
0.10768342 	0.0059872144 	-0.00025581328 	-1.1646171e-22 	0.0048127048 	3.6220246e-23 	0.005399973
0.11166524 	0.0061364352 	-0.00030003353 	3.5117196e-23 	0.004929067 	-3.2414672e-24 	0.0055327654
0.11577645 	0.0062861561 	-0.00034561383 	-1.1612212e-22 	0.0050468568 	-3.2406182e-23 	0.0056665221
0.12002127 	0.0064363279 	-0.00039259373 	-2.8716713e-22 	0.0051661567 	3.644752e-23 	0.0058012598
0.12440404 	0.0065868983 	-0.00044101554 	-4.3958768e-23 	0.005287052 	8.5500416e-23 	0.0059369946
0.12892923 	0.0067378106 	-0.00049092904 	3.1252874e-22 	0.0054096287 	1.6445239e-23 	0.0060737411
0.13360148 	0.0068890033 	-0.000542382 	2.8706921e-22 	0.0055339748 	-3.2364802e-24 	0.0062115129
0.13842557 	0.0070404111 	-0.0005954239 	5.5298988e-22 	0.0056601805 	-4.7621705e-23 	0.0063503222
0.14340642 	0.0071919641 	-0.0006501157 	4.2464668e-22 	0.0057883368 	-1.0371507e-22 	0.0064901799
0.14854914 	0.0073435883 	-0.00070651792 	2.2894039e-22 	0.0059185362 	-6.1630871e-23 	0.0066310952
0.15385898 	0.0074952049 	-0.00076469197 	2.9556124e-22 	0.0060508728 	1.205413e-23 	0.0067730757
0.15934138 	0.0076467291 	-0.00082470404 	5.0913216e-22 	0.006185442 	-4.4459523e-23 	0.0069161269
0.16500194 	0.0077980715 	-0.00088662189 	2.8765989e-22 	0.0063223422 	-1.0241182e-22 	0.0070602531
0.17084645 	0.0079491317 	-0.00095051727 	-1.0408067e-23 	0.0064616781 	1.703327e-23 	0.0072054565
0.17688089 	0.0080998003 	-0.0010164601 	4.6008956e-22 	0.0066035611 	-5.4218709e-23 	0.0073517385
0.18311143 	0.0082499642 	-0.0010845203 	-3.5802985e-23 	0.006748107 	-1.3544335e-22 	0.0074991004
0.18954445 	0.0083995046 	-0.0011547693 	-6.6563533e-22 	0.0068954352 	-2.255881e-24 	0.0076475425
0.19618653 	0.0085482995 	-0.001227279 	-6.5050896e-22 	0.0070456673 	1.9803932e-22 	0.0077970654
0.20304445 	0.0086962233 	-0.0013021283 	3.0514753e-22 	0.007198928 	1.6913438e-22 	0.007947668
0.21012524 	0.0088431422 	-0.0013793936 	1.2169652e-21 	0.0073553474 	-2.1893287e-22 	0.0080993489
0.21743614 	0.0089889168 	-0.0014591501 	4.5723667e-23 	0.0075150609 	-1.8254117e-22 	0.0082521063
0.22498461 	0.0091334014 	-0.0015414756 	-1.5894369e-22 	0.0076782104 	4.6633731e-23 	0.008405938
0.23277839 	0.0092764401 	-0.0016264447 	2.9875903e-22 	0.0078449458 	2.2678564e-24 	0.0085608416
0.24082545 	0.0094178718 	-0.0017141376 	3.2556745e-22 	0.0080154253 	-1.4564216e-22 	0.0087168155
0.24913402 	0.0095575278 	-0.0018046313 	-3.1233217e-22 	0.0081898174 	-1.7430463e-22 	0.0088738598
0.25771259 	0.0096952318 	-0.0018979987 	-1.4645846e-21 	0.0083683016 	1.9296876e-22 	0.0090319762
0.26656994 	0.0098308007 	-0.0019943135 	-8.530232e-22 	0.0085510707 	3.8819276e-22 	0.0091911701
0.27571513 	0.0099640468 	-0.0020936484 	1.6630953e-23 	0.0087383324 	-1.024198e-23 	0.0093514518
0.28515751 	0.010094778 	-0.00219608 	-1.2376203e-21 	0.0089303119 	4.8524252e-23 	0.0095128375
0.29490674 	0.010222798 	-0.0023016789 	-1.3828183e-21 	0.0091272557 	3.7081739e-22 	0.0096753528
0.3049728 	0.010347911 	-0.0024105123 	-3.6576149e-22 	0.0093294348 	1.9819727e-22 	0.0098390342
0.31536597 	0.01046992 	-0.0025226565 	-3.2533454e-22 	0.0095371479 	3.4552115e-22 	0.010003934
0.3260969 	0.010588634 	-0.0026381863 	-2.9717696e-22 	0.009750726 	3.2496775e-22 	0.010170123
0.33717655 	0.010703876 	-0.0027571781 	-6.1744571e-22 	0.0099705406 	-9.9141827e-23 	0.010337698
0.34861625 	0.010815489 	-0.0028797242 	1.1588063e-22 	0.010197009 	1.3505569e-23 	0.010506788
0.36042772 	0.010923341 	-0.0030059256 	1.6697388e-21 	0.010430602 	1.5541162e-22 	0.010677563
0.37262303 	0.011027344 	-0.0031358962 	3.5763415e-21 	0.010671846 	-3.6624241e-22 	0.010850244
0.38521464 	0.011127478 	-0.0032697879 	1.9891816e-21 	0.010921341 	-7.4502925e-22 	0.011025121
0.39821546 	0.011223803 	-0.0034078284 	2.4128017e-21 	0.011179778 	-1.7073135e-21 	0.011202564
0.41163876 	0.011316472 	-0.0035502266 	2.8347794e-21 	0.011447948 	-1.2565421e-21 	0.011383051
0.42549828 	0.011405819 	-0.0036972795 	-1.9977881e-21 	0.011726749 	8.4813935e-22 	0.0115672
0.4398082 	0.011492421 	-0.0038494648 	-2.0109333e-21 	0.0120172 	1.4196026e-21 	0.011755803
0.45458315 	0.011577161 	-0.0040073593 	6.9911472e-22 	0.012320439 	3.1557424e-22 	0.011949872
0.46983824 	0.011661338 	-0.0041717337 	9.7898229e-23 	0.012637752 	-1.0357724e-21 	0.012150699
0.48558908 	0.011746836 	-0.0043436139 	-2.7137254e-22 	0.012970574 	-7.0901405e-22 	0.012359944
0.50185179 	0.011836335 	-0.0045243531 	3.7507819e-22 	0.013320478 	-5.3871709e-22 	0.012579733
0.50880893 	0.011876706 	-0.0046036833 	-6.6773231e-23 	0.013473287 	-1.0442522e-22 	0.012676356
0.51864298 	0.01193377 	-0.0047157457 	-6.6864157e-22 	0.013689165 	5.1767922e-22 	0.012812807
0.53597984 	0.012044455 	-0.0049200176 	-4.811742e-22 	0.014078352 	5.6012411e-22 	0.013062692
0.5538801 	0.012175649 	-0.0051399434 	-1.6166257e-22 	0.01448968 	-5.1598556e-22 	0.013333945
0.57236207 	0.012337482 	-0.0053788037 	-4.221424e-22 	0.014924519 	8.7017282e-22 	0.013632502
0.59144465 	0.012543593 	-0.0056393298 	-5.3671969e-22 	0.01538527 	6.3866399e-22 	0.013966047
0.61114736 	0.012808513 	-0.0059234467 	-5.5745442e-22 	0.01587681 	-8.0056629e-22 	0.014343138
0.63149036 	0.013140474 	-0.0062382619 	1.5473627e-22 	0.01639987 	-5.5486388e-22 	0.014771342
0.65249445 	0.01354096 	-0.0066503137 	4.6164011e-22 	0.016969892 	4.7999357e-22 	0.015257606
0.67418111 	0.014057969 	-0.0070955262 	3.0293166e-23 	0.017573845 	-7.5078522e-23 	0.015816456
0.69657252 	0.014746629 	-0.0074896096 	5.6996229e-22 	0.018213382 	-1.1341781e-21 	0.016481483
0.7196916 	0.01561494 	-0.0079322108 	1.487265e-21 	0.0189576 	-1.3153987e-22 	0.017288106
0.74356198 	0.016628458 	-0.0084918318 	4.9080814e-22 	0.019834916 	7.7707236e-22 	0.018231435
0.76820808 	0.017697401 	-0.0091621986 	-2.7886221e-21 	0.020804885 	2.4159722e-22 	0.019249601
0.79365511 	0.018704938 	-0.0099055485 	-2.0461907e-21 	0.021782062 	1.2174694e-22 	0.020242393
0.8199291 	0.019563595 	-0.010664335 	-1.174619e-21 	0.022660201 	2.7265434e-22 	0.021111826
0.84705692 	0.020249914 	-0.011395036 	-1.9569963e-21 	0.023365288 	4.783836e-23 	0.021803623
0.87506632 	0.020775423 	-0.012077597 	-4.5171974e-22 	0.023843611 	-2.7837617e-22 	0.022306157
0.90398595 	0.021193603 	-0.012630874 	-3.0676538e-22 	0.024031877 	-1.498432e-22 	0.022617025
0.93384538 	0.021560282 	-0.012853651 	-7.6689579e-21 	0.023903592 	1.0627078e-21 	0.022731467
0.96467516 	0.021812682 	-0.012735679 	-1.4027526e-20 	0.023517885 	1.1132268e-21 	0.02265709
0.99650683 	0.021874561 	-0.012404263 	-1.6437098e-20 	0.023000376 	-9.3614715e-22 	0.022430291
1.0293729 	0.02177796 	-0.011907668 	1.6006643e-20 	0.022474539 	-3.0376623e-21 	0.022119682
1.0633071 	0.021603682 	-0.011320518 	4.7620437e-20 	0.022023296 	-1.2398809e-21 	0.021806382
1.098344 	0.021428999 	-0.010716371 	2.1797368e-20 	0.021691753 	7.9453705e-22 	0.021552974
1.1345196 	0.021300505 	-0.01014712 	3.1280172e-20 	0.021485772 	1.6703704e-22 	0.021385578
1.1668571 	0.021237551 	-0.0097079956 	2.0778849e-21 	0.021393231 	1.7197331e-21 	0.021307698
1.1718726 	0.021227876 	-0.009640119 	-2.4260933e-21 	0.021379174 	1.9312896e-21 	0.021295943
1.2104522 	0.021193558 	-0.0092042197 	-2.9628063e-20 	0.021330045 	8.2652516e-22 	0.021255001
1.250285 	0.02117104 	-0.0088375891 	-2.0624322e-21 	0.021295202 	-6.8373349e-22 	0.021227028
1.2914115 	0.021131713 	-0.0085324623 	7.1018218e-22 	0.021237267 	-5.4480174e-22 	0.02117902
1.3338737 	0.021050347 	-0.0082776704 	2.670749e-20 	0.021125209 	-4.7305073e-22 	0.021082909
1.3777151 	0.02090672 	-0.0080598043 	-9.24504e-21 	0.020933749 	1.2028373e-21 	0.020915954
1.4229805 	0.020687268 	-0.0078634061 	-5.1282172e-20 	0.020645082 	1.0813404e-21 	0.020662482
1.4697159 	0.020383886 	-0.0076727416 	-2.50421e-20 	0.020251395 	9.8218894e-22 	0.020314342
1.5179692 	0.019993163 	-0.0074760673 	-9.742786e-20 	0.019759637 	2.7642169e-21 	0.019873414
1.5662215 	0.019526504 	-0.0072719606 	-1.2275346e-19 	0.019192834 	1.1843419e-21 	0.019357246
1.6129542 	0.019008446 	-0.0070639858 	-2.6357238e-20 	0.018575815 	-1.3281348e-21 	0.018790147
1.6582152 	0.018458798 	-0.0068489684 	1.3767815e-20 	0.017926667 	-2.9064456e-23 	0.018191024
1.7020508 	0.017890947 	-0.0066214312 	-5.3452922e-20 	0.017262502 	1.594799e-21 	0.01757532
1.7445059 	0.017315209 	-0.0063809752 	-5.134974e-20 	0.016597861 	1.4359944e-22 	0.016955388
1.785624 	0.01673874 	-0.0061301392 	-9.5054757e-22 	0.015942554 	-7.4640157e-22 	0.016339744
1.8070113 	0.016432009 	-0.00599133 	2.3534816e-21 	0.015599501 	-9.3289663e-22 	0.016014975
1.8254639 	0.016167248 	-0.0058714285 	3.7475194e-21 	0.015303401 	-9.9065387e-22 	0.015734669
1.8640662 	0.015605936 	-0.0056073516 	6.9386479e-20 	0.014685716 	-1.2672926e-21 	0.015145389
1.9014509 	0.015059213 	-0.0053405043 	2.3332249e-20 	0.01409364 	-8.7384029e-22 	0.014576172
1.9376564 	0.014530109 	-0.0050730634 	1.0261989e-19 	0.013529555 	-3.3449644e-21 	0.014029736
1.97272 	0.014020617 	-0.0048069286 	1.7583453e-19 	0.012994552 	-2.2032233e-21 	0.013507614
2.0066778 	0.013531784 	-0.0045437079 	8.130656e-20 	0.012488759 	1.2264734e-21 	0.01301041
2.0395648 	0.013064056 	-0.0042847175 	-2.5775766e-20 	0.012011659 	1.750299e-21 	0.01253808
2.0714147 	0.012617388 	-0.0040309758 	-5.2959889e-20 	0.011562314 	8.3220841e-24 	0.012090135
2.1022603 	0.012191406 	-0.0037832237 	5.003412e-21 	0.011139509 	1.2031002e-22 	0.011665787
2.1321334 	0.011785533 	-0.0035420468 	-7.1212635e-20 	0.010741857 	1.5327349e-21 	0.011264051
2.1610646 	0.011399037 	-0.0033078386 	-6.211635e-20 	0.010367887 	-7.2282474e-22 	0.010883827
2.1890837 	0.011031087 	-0.0030808331 	2.4227744e-20 	0.010016099 	-1.2287169e-21 	0.010523963
2.2162195 	0.010680813 	-0.0028611737 	3.4482627e-21 	0.0096850185 	-5.5985188e-22 	0.010183293
2.2424998 	0.010347387 	-0.0026488874 	6.4459913e-20 	0.0093732231 	-2.5544778e-22 	0.0098606784
2.2679518 	0.010029967 	-0.0024438832 	-3.3258803e-20 	0.0090793662 	2.1356343e-21 	0.0095550201
2.2926015 	0.0097276831 	-0.002246017 	-8.9564902e-20 	0.0088021873 	1.023798e-21 	0.0092652758
2.3164742 	0.009439755 	-0.0020551658 	-5.5441221e-20 	0.0085405198 	-3.8288992e-22 	0.0089904675
2.3395945 	0.0091654693 	-0.0018711086 	-2.893495e-20 	0.0082932911 	-6.5083199e-22 	0.0087296856
2.3619861 	0.0089040951 	-0.0016935629 	1.3456982e-20 	0.0080595267 	-2.3741808e-22 	0.0084820918
2.3836721 	0.0086549577 	-0.0015223302 	-1.6207763e-20 	0.007838348 	5.0012111e-22 	0.0082469195
2.4046746 	0.0084174842 	-0.0013571667 	-1.531747e-20 	0.0076289664 	3.7993353e-23 	0.0080234684
2.4250153 	0.0081911128 	-0.0011977951 	-1.7502941e-20 	0.0074306641 	1.2345733e-21 	0.0078110953
2.4298497 	0.0081381432 	-0.0011600524 	-3.511805e-20 	0.0073845585 	1.024292e-21 	0.0077615526
2.4447218 	0.0079752166 	-0.001043923 	-8.7128147e-20 	0.0072427079 	3.1184026e-22 	0.0076091363
2.463809 	0.0077693904 	-0.00089537657 	2.1387236e-21 	0.0070645682 	-2.6086852e-21 	0.007417127
2.4822943 	0.0075732504 	-0.00075193792 	7.8694984e-20 	0.0068957461 	-3.4854889e-22 	0.0072346173
2.5001966 	0.0073863983 	-0.00061341609 	-8.7640781e-21 	0.0067357763 	1.3819139e-21 	0.0070611803
2.5175344 	0.007208486 	-0.00047959604 	-4.2836311e-21 	0.0065842448 	1.9339283e-22 	0.0068964343
2.5343255 	0.0070391954 	-0.00035028189 	-1.5809021e-20 	0.0064407839 	7.7522021e-22 	0.0067400384
2.5505871 	0.006878239 	-0.00022533911 	-4.4182707e-20 	0.0063050674 	-8.8574369e-23 	0.0065916888
2.5663361 	0.0067253845 	-0.00010457567 	4.8757728e-21 	0.0061768067 	-1.4342781e-21 	0.0064511159
2.5815885 	0.0065803916 	1.215411e-05 	3.7609704e-20 	0.0060557464 	5.6796884e-22 	0.0063180799
2.5963601 	0.006443072 	0.00012494358 	-3.7302027e-20 	0.0059416609 	1.2491174e-21 	0.0061923684
2.610666 	0.0063132405 	0.00023395747 	-2.1601083e-20 	0.0058343508 	-7.6527463e-22 	0.0060737929
2.624521 	0.0061907371 	0.00033929687 	1.0922584e-20 	0.0057336393 	-4.1575779e-22 	0.0059621858
2.6379393 	0.006075448 	0.00044101629 	6.8693644e-22 	0.0056393696 	-2.623094e-22 	0.0058573973
2.6509346 	0.005967214 	0.00053925359 	2.2808106e-20 	0.0055514015 	3.2092404e-22 	0.0057592922
2.6635203 	0.0058659204 	0.00063410713 	-1.8034892e-20 	0.0054696077 	9.336355e-22 	0.005667747
2.6757094 	0.0057714517 	0.00072560652 	-1.7961897e-20 	0.005393871 	-6.3740169e-22 	0.0055826466
2.6875143 	0.0056837111 	0.00081383387 	1.4782711e-20 	0.005324081 	-3.4031915e-22 	0.0055038816
2.6989472 	0.0056025878 	0.00089889051 	-2.2824422e-21 	0.0052601305 	2.9316503e-22 	0.0054313447
2.7100198 	0.0055279716 	0.00098081388 	3.9193481e-22 	0.0052019135 	2.5206348e-22 	0.0053649279
2.7207435 	0.0054597552 	0.0010596513 	-1.2753467e-20 	0.0051493201 	5.253524e-22 	0.005304518
2.7311293 	0.0053977915 	0.001135496 	-1.6775453e-20 	0.0051022362 	-9.5966704e-22 	0.0052499967
2.7411879 	0.0053419686 	0.0012084016 	2.6811827e-20 	0.0050605417 	-8.572349e-22 	0.0052012383
2.7509295 	0.0052921399 	0.0012784142 	1.3349481e-20 	0.0050241051 	1.4127465e-21 	0.0051581048
2.7603642 	0.0052481357 	0.0013456018 	-2.8449845e-20 	0.0049927811 	7.2745952e-23 	0.0051204439
2.7695016 	0.0052097959 	0.0014100441 	1.197851e-20 	0.0049664127 	-1.0996505e-21 	0.0050880905
2.7783512 	0.0051769261 	0.0014718114 	1.16506e-20 	0.00494483 	6.5303079e-22 	0.0050608667
2.7869219 	0.0051493316 	0.0015309796 	-1.2533396e-20 	0.0049278465 	4.5471085e-22 	0.0050385782
2.7952227 	0.005126795 	0.0015876315 	-3.5830132e-21 	0.0049152631 	-9.8109991e-23 	0.0050210176
2.8032619 	0.0051090747 	0.0016418313 	-7.4860597e-21 	0.0049068728 	6.5452323e-22 	0.0050079648
2.8110479 	0.0050959324 	0.0016936712 	-2.27294e-20 	0.0049024608 	-1.677337e-22 	0.0049991895
2.8185886 	0.0050871168 	0.001743266 	-1.2193492e-22 	0.0049018017 	-1.2323733e-21 	0.0049944532
2.8258918 	0.0050823721 	0.0017907173 	1.6257003e-20 	0.0049046592 	6.0108832e-23 	0.0049935102
2.832965 	0.0050814412 	0.0018361217 	-2.5997027e-21 	0.0049107949 	4.5368227e-22 	0.0049961123
2.8398154 	0.0050840695 	0.0018796045 	1.848618e-21 	0.0049199821 	-5.8894636e-22 	0.0050020228
2.8464499 	0.0050900175 	0.0019212749 	1.3513339e-20 	0.0049319935 	3.8407484e-23 	0.0050110039
2.8528756 	0.0050990363 	0.0019612325 	1.8285626e-22 	0.0049465995 	9.7736294e-22 	0.0050228151
2.8590988 	0.0051108781 	0.0019996063 	-1.3355847e-20 	0.004963584 	-1.1370765e-22 	0.0050372296
2.865126 	0.0051253209 	0.0020365299 	3.3348311e-21 	0.0049827426 	-7.8112412e-22 	0.005054032
2.8709634 	0.0051421559 	0.0020721155 	7.6170189e-21 	0.0050038842 	-1.5446978e-22 	0.0050730197
2.876617 	0.0051611766 	0.0021064671 	6.6871146e-21 	0.005026832 	4.6930589e-22 	0.0050940047
2.8820925 	0.0051821991 	0.0021397069 	-4.7754555e-21 	0.0050514242 	2.3722231e-22 	0.005116814
2.8873956 	0.005205058 	0.0021719506 	3.7468665e-22 	0.0050775146 	-2.96585e-22 	0.0051412902
2.8925316 	0.0052295999 	0.0022033087 	2.4726549e-21 	0.0051049727 	1.4949143e-22 	0.0051672909
2.897506 	0.0052556861 	0.0022338748 	-3.0601505e-21 	0.005133683 	-1.0269304e-22 	0.0051946884
2.9023236 	0.0052831853 	0.0022637422 	4.8043442e-21 	0.0051635443 	-2.5665861e-22 	0.0052233684
2.9069896 	0.0053119825 	0.002292998 	2.5609352e-21 	0.0051944679 	5.9708229e-24 	0.0052532294
2.9115086 	0.0053419747 	0.0023217079 	4.0997196e-21 	0.0052263757 	1.0147272e-22 	0.0052841802
2.9158853 	0.0053730683 	0.0023499446 	2.6820774e-22 	0.0052591956 	3.5688266e-22 	0.0053161371
2.9201242 	0.005405175 	0.0023777747 	-3.6173523e-21 	0.0052928638 	7.2963195e-23 	0.0053490242
2.9242297 	0.0054382078 	0.0024052324 	-1.1606027e-21 	0.0053273228 	-8.4061509e-23 	0.0053827712
2.9282058 	0.0054720909 	0.0024323321 	-1.6338889e-21 	0.0053625175 	-1.5012023e-22 	0.0054173101
2.9320568 	0.0055067456 	0.0024591084 	1.8333194e-21 	0.0053983972 	-7.5690111e-23 	0.0054525774
2.9357864 	0.0055420925 	0.0024855787 	6.4997213e-25 	0.005434907 	2.9275282e-22 	0.0054885059
2.9393987 	0.0055780484 	0.002511724 	-3.7489474e-21 	0.005471986 	-3.2341825e-23 	0.005525023
2.9428972 	0.0056145268 	0.0025375254 	5.1415546e-22 	0.0055095721 	-1.4014221e-22 	0.0055620555
2.9462856 	0.0056514409 	0.0025629566 	-8.6585305e-22 	0.0055475974 	-1.4082216e-22 	0.0055995251
2.9495673 	0.0056886968 	0.0025879756 	2.991802e-21 	0.0055859872 	-4.6749454e-22 	0.0056373479
2.9527456 	0.0057261953 	0.0026125303 	7.2504377e-21 	0.0056246592 	8.0377341e-23 	0.0056754334
2.9558239 	0.0057638313 	0.0026365429 	1.2861849e-21 	0.0056635253 	5.8005688e-22 	0.0057136844
2.9588052 	0.0058014924 	0.0026599075 	-3.1009144e-21 	0.0057024967 	2.5241084e-22 	0.0057519981
2.9616927 	0.0058390609 	0.0026825598 	-2.8862839e-21 	0.0057414774 	-1.6121219e-22 	0.0057902674
2.9644893 	0.0058764566 	0.0027056509 	-2.2315935e-22 	0.0057802968 	-2.6624498e-22 	0.0058283827
2.9671978 	0.0059136155 	0.0027268748 	1.4857635e-21 	0.0058188095 	7.2196502e-23 	0.0058662308
2.9698211 	0.0059504782 	0.0027448193 	-1.2084456e-21 	0.0058568935 	1.7913556e-22 	0.0059036953
2.9723618 	0.0059868225 	0.0027619839 	-1.302333e-21 	0.0058943436 	1.1233206e-22 	0.0059405829
2.9748224 	0.0060222179 	0.0027787282 	-2.5625076e-21 	0.0059309108 	4.6759112e-23 	0.0059765663
2.9772057 	0.0060562044 	0.0027948592 	-1.7375563e-21 	0.005966245 	-2.3746092e-22 	0.0060112285
2.9795138 	0.0060882977 	0.0028101587 	8.544304e-22 	0.0059998935 	-6.1637518e-24 	0.0060440999
2.9817494 	0.0061179927 	0.0028243936 	1.1330195e-21 	0.0060313574 	2.2222729e-22 	0.0060746793
2.9839145 	0.0061447685 	0.0028373211 	5.7878741e-22 	0.006060113 	-1.7080677e-22 	0.0061024447
2.9860115 	0.0061680917 	0.0028486913 	8.4316752e-22 	0.0060856196 	-2.5294861e-22 	0.0061268595
2.9880424 	0.0061874192 	0.0028582489 	1.1073879e-21 	0.0061073229 	1.508248e-22 	0.0061473748
2.9900094 	0.0062021983 	0.0028657335 	-9.8589452e-22 	0.0061246564 	2.0947497e-22 	0.0061634309
2.9919145 	0.0062118652 	0.0028708792 	-1.3867702e-21 	0.0061370414 	-1.5028434e-22 	0.0061744567
2.9937597 	0.0062158454 	0.0028734151 	5.0311141e-22 	0.0061438867 	-3.2955001e-22 	0.0061798693
2.9955467 	0.0062135523 	0.0028730638 	2.2150056e-21 	0.0061445873 	1.1056533e-22 	0.0061790729
2.9972775 	0.0062043811 	0.00286954 	-4.7067915e-22 	0.00613852 	3.7566759e-22 	0.0061714535
2.9989538 	0.0061877058 	0.0028625481 	-1.6827199e-21 	0.0061250401 	-4.7540305e-23 	0.0061563758
3.0005773 	0.0061628758 	0.0028517817 	-1.0267112e-23 	0.0061034788 	-2.0893283e-22 	0.0061331799
3.0021497 	0.0061292107 	0.0028369206 	4.2361974e-22 	0.006073137 	-4.5957729e-23 	0.0061011764
3.0036726 	0.0060859949 	0.0028176282 	3.5867352e-22 	0.0060332796 	9.3830478e-23 	0.0060596396
3.0051476 	0.0060324727 	0.0027935496 	-3.7632936e-22 	0.005983131 	8.3714967e-23 	0.006007804
3.0065761 	0.0059678432 	0.0027643102 	-3.4840899e-22 	0.0059218707 	-2.4613006e-23 	0.005944859
3.0079597 	0.0058912572 	0.0027295137 	-1.2863626e-22 	0.0058486304 	-3.2811939e-23 	0.0058699457
3.0092997 	0.0058018153 	0.002688743 	-6.1993237e-23 	0.0057624919 	-9.4181958e-23 	0.0057821554
3.0105976 	0.0056985686 	0.0026415616 	5.0911297e-22 	0.0056624885 	-3.9833378e-23 	0.0056805302
3.0118546 	0.0055805214 	0.0025875042 	2.1210056e-22 	0.0055476084 	8.8041542e-23 	0.0055640664
3.013072 	0.0054466345 	0.0025259314 	-1.183449e-22 	0.0054167985 	1.0594728e-22 	0.0054317179
3.0142511 	0.005295852 	0.0024563848 	-4.2358524e-22 	0.005268986 	-1.5901082e-23 	0.0052824204
3.015393 	0.0051271374 	0.0023785414 	-2.4231796e-23 	0.0051031174 	-1.022572e-22 	0.0051151286
3.0164991 	0.0049395122 	0.0022919068 	1.9042436e-22 	0.0049182014 	-3.5332689e-24 	0.0049288578
3.0175703 	0.0047321164 	0.0021960591 	3.613647e-24 	0.0047133669 	4.8969187e-23 	0.0047227427
3.0186078 	0.0045042886 	0.0020906792 	-7.1674726e-23 	0.0044879427 	1.7893321e-23 	0.0044961166
3.0196126 	0.0042556688 	0.0019755939 	-6.5003157e-23 	0.0042415607 	-4.3607156e-23 	0.0042486156
3.0205858 	0.0039863198 	0.0018508296 	1.0278502e-22 	0.0039742783 	-3.0468845e-23 	0.0039802998
3.0215284 	0.0036968321 	0.0017166601 	6.1132358e-23 	0.0036866833 	4.727647e-23 	0.0036917582
3.0224413 	0.0033881618 	0.0015692212 	-7.3405412e-23 	0.0033797534 	1.342524e-23 	0.003383958
3.0233255 	0.0030616859 	0.001401961 	-3.3871316e-24 	0.0030548939 	-2.4682538e-23 	0.0030582902
3.0241818 	0.0027204591 	0.0012198087 	1.9657338e-23 	0.002715128 	4.3274478e-24 	0.0027177939
3.0250112 	0.0023700875 	0.0010319373 	-9.8456954e-24 	0.0023660233 	-2.3759832e-24 	0.0023680558
3.0258144 	0.0020184388 	0.0008434883 	1.2282676e-23 	0.0020154454 	-7.1327472e-24 	0.0020169423
3.0265924 	0.001675181 	0.00066191332 	7.5925724e-24 	0.0016730627 	8.9681654e-24 	0.0016741221
3.0273459 	0.0013508882 	0.00049540451 	-6.7983229e-24 	0.0013494566 	1.605961e-24 	0.0013501725
3.0280757 	0.0010556271 	0.00035138071 	5.458788e-25 	0.0010547092 	-5.2356006e-24 	0.0010551682
3.0287825 	0.0007973644 	0.00023479277 	3.042376e-24 	0.00079680955 	6.6591159e-25 	0.00079708703
3.0294671 	0.00058072936 	0.00014699501 	-4.8171097e-25 	0.00058041539 	1.1427678e-24 	0.0005805724
3.0301301 	0.00040658094 	8.5746788e-05 	-9.9093397e-26 	0.00040641588 	-4.9042939e-26 	0.00040649842
3.0307722 	0.00027245537 	4.6292464e-05 	-4.5231592e-26 	0.0002723755 	4.4205352e-25 	0.00027241544
3.0313942 	0.00017358742 	2.2910557e-05 	-2.7036448e-25 	0.00017355231 	-4.6469325e-26 	0.00017356986
3.0319965 	0.00010405789 	1.0242855e-05 	1.9917933e-26 	0.00010404411 	-1.2594651e-25 	0.000104051
3.0325799 	5.7734435e-05 	4.0420847e-06 	9.0797727e-27 	5.7729741e-05 	1.0524377e-26 	5.7732089e-05
3.033145 	2.8883308e-05 	1.3567581e-06 	-1.6020781e-27 	2.8881979e-05 	-2.4149596e-27 	2.8882643e-05
3.0336922 	1.2485553e-05 	3.6468827e-07 	1.1378494e-27 	1.2485261e-05 	-2.5428689e-28 	1.2485407e-05
3.0342222 	4.3578731e-06 	7.1071831e-08 	-6.4956695e-29 	4.3578287e-06 	2.6407457e-28 	4.3578509e-06
3.0347356 	1.2099637e-06 	8.8018995e-09 	3.8310975e-30 	1.2099597e-06 	3.1490788e-30 	1.2099617e-06
3.0352328 	1.2149723e-06 	1.1959244e-09 	-4.2999073e-31 	1.214972e-06 	3.4226664e-31 	1.2149721e-06
3.035714 	7.7141909e-10 	7.5932499e-13 	-2.7314303e-34 	7.7141893e-10 	2.1756017e-34 	7.7141901e-10
