y,k
0,1e-10
0.00048240845,5.9441579e-08
0.00098049384,3.1756895e-07
0.0014947656,1.3137367e-06
0.0020257498,3.8058843e-06
0.0025739895,8.8244091e-06
0.0031400454,1.7673662e-05
0.0037244966,3.1959491e-05
0.0043279408,5.3623625e-05
0.0049509953,8.4978586e-05
0.0055942973,0.00012873615
0.0062585048,0.00018801843
0.0069442972,0.00026633425
0.007652376,0.00036749574
0.0083834654,0.00049544294
0.0091383131,0.00065394459
0.0099176913,0.00084616075
0.010722397,0.0010740997
0.011553254,0.0013380755
0.012411111,0.001636344
0.013296846,0.0019650985
0.014211364,0.0023189035
0.015155603,0.0026914584
0.016130526,0.0030764468
0.017137132,0.0034682213
0.018176449,0.0038621942
0.019249542,0.0042549396
0.020357507,0.0046440989
0.021501477,0.0050281907
0.022682624,0.0054064009
0.023902154,0.005778394
0.025161316,0.0061441612
0.026461397,0.0065039076
0.027803728,0.0068579695
0.02918968,0.0072067593
0.030620672,0.0075507269
0.032098167,0.007890335
0.033623676,0.0082260438
0.03519876,0.0085583011
0.03682503,0.0088875373
0.03850415,0.0092141623
0.040237836,0.0095385647
0.042027862,0.009861112
0.043876059,0.010182152
0.045784317,0.010502012
0.047754588,0.010821003
0.049788888,0.01113942
0.051889297,0.011457543
0.054057963,0.011775638
0.056297104,0.012093962
0.058609012,0.012412757
0.06099605,0.012732261
0.06346066,0.013052701
0.066005363,0.013374298
0.068632762,0.013697266
0.071345544,0.014021816
0.074146484,0.014348154
0.077038447,0.014676482
0.08002439,0.015007
0.083107369,0.015339905
0.086290535,0.015675396
0.089577146,0.016013666
0.092970562,0.016354913
0.096474255,0.016699334
0.10009181,0.017047123
0.10382692,0.017398481
0.10768342,0.017753607
0.11166524,0.018112705
0.11577645,0.018475981
0.12002127,0.018843642
0.12440404,0.019215902
0.12892923,0.019592976
0.13360148,0.019975084
0.13842557,0.020362449
0.14340642,0.020755299
0.14854914,0.021153865
0.15385898,0.021558385
0.15934138,0.021969098
0.16500194,0.022386248
0.17084645,0.022810085
0.17688089,0.02324086
0.18311143,0.023678828
0.18954445,0.024124249
0.19618653,0.02457738
0.20304445,0.025038484
0.21012524,0.025507821
0.21743614,0.025985649
0.22498461,0.026472225
0.23277839,0.026967797
0.24082545,0.027472608
0.24913402,0.027986891
0.25771259,0.028510859
0.26656994,0.029044713
0.27571513,0.029588625
0.28515751,0.030142742
0.29490674,0.030707174
0.3049728,0.031281987
0.31536597,0.031867197
0.3260969,0.032462757
0.33717655,0.033068543
0.34861625,0.033684347
0.36042772,0.034309858
0.37262303,0.034944647
0.38521464,0.035588148
0.39821546,0.036239633
0.41163876,0.036898194
0.42549828,0.03756271
0.4398082,0.038231822
0.45458315,0.038903902
0.46983824,0.039577014
0.48558908,0.040248883
0.50185179,0.040916852
0.51864298,0.041577846
0.53597984,0.042228329
0.5538801,0.042864266
0.57236207,0.043481072
0.59144465,0.044073612
0.61114736,0.044638253
0.63149036,0.045172687
0.65249445,0.045668
0.67418111,0.046106158
0.69657252,0.04646608
0.7196916,0.046727555
0.74356198,0.046873806
0.76820808,0.046893976
0.79365511,0.046778682
0.8199291,0.046518767
0.84705692,0.046108355
0.87506632,0.045543995
0.90398595,0.044825537
0.93384539,0.043957086
0.94954502,0.043443014
0.96467517,0.042947791
0.99650683,0.041812214
1.0293729,0.040570155
1.0633071,0.039245888
1.098344,0.037866695
1.1345196,0.036459447
1.1718707,0.035049533
1.2104356,0.033661647
1.2502538,0.032316372
1.291366,0.031027219
1.3338142,0.029800125
1.3776419,0.028635707
1.4228938,0.027531525
1.4696163,0.026481398
1.5178571,0.025480942
1.566098,0.024535596
1.6128205,0.023650358
1.6580724,0.022820972
1.7019001,0.022041084
1.7443483,0.02130594
1.7854605,0.020611547
1.8252786,0.019954563
1.8638436,0.01933171
1.9011947,0.018737623
1.9373703,0.018165764
1.9724072,0.017612318
2.0063413,0.017076557
2.0163351,0.016919049
2.0392075,0.016558579
2.0710391,0.016058363
2.1018689,0.015575784
2.1317283,0.01511063
2.160648,0.014662611
2.1886574,0.014231388
2.2157852,0.013816579
2.2420592,0.013417778
2.2675062,0.013034564
2.2921523,0.012666511
2.3160227,0.012313195
2.3391418,0.011974203
2.3615332,0.011649131
2.3832198,0.011337591
2.4042239,0.011039213
2.4245669,0.010753648
2.4442696,0.010480569
2.4633522,0.010219676
2.4818342,0.0099706922
2.4997344,0.0097333701
2.5170713,0.009507488
2.5338625,0.0092928523
2.5501252,0.0090892967
2.565876,0.0088966824
2.5811311,0.0087148969
2.5959061,0.008543853
2.610216,0.0083834877
2.6240755,0.00823376
2.6374988,0.0080946491
2.6504996,0.0079661509
2.6630913,0.0078482757
2.6752866,0.0077410439
2.687098,0.0076444823
2.6985377,0.007558619
2.7096174,0.0074834784
2.7203483,0.0074190761
2.7307415,0.0073654124
2.7408075,0.0073224671
2.7505568,0.0072901929
2.7599992,0.0072685156
2.7691443,0.0072573197
2.7780017,0.007256429
2.7865803,0.007265631
2.7948888,0.0072846743
2.8029359,0.0073132463
2.8107297,0.0073509804
2.8182781,0.0073974562
2.825589,0.0074522018
2.8326698,0.0075146962
2.8395278,0.0075843737
2.8461698,0.0076606298
2.8526028,0.0077428266
2.8588334,0.0078303005
2.8648678,0.0079223692
2.8707123,0.0080183399
2.8763729,0.008117517
2.8818553,0.0082192092
2.8871651,0.0083227378
2.8923079,0.0084274431
2.8972887,0.0085326903
2.9021128,0.0086378766
2.9067851,0.0087425765
2.9113102,0.0088465706
2.915693,0.0089492684
2.9199378,0.0090495113
2.924049,0.0091460013
2.9280309,0.0092375396
2.9318874,0.0093231337
2.9356225,0.00940202
2.93924,0.0094736441
2.9427437,0.0095376315
2.9461371,0.0095937361
2.9494237,0.0096418121
2.9526069,0.0096818
2.9556899,0.0097136964
2.9586758,0.00973754
2.9615678,0.009753399
2.9643687,0.0097613614
2.9670815,0.0097615284
2.9697089,0.0097540064
2.9722536,0.0097389019
2.9747182,0.0097163217
2.9771053,0.0096863713
2.9794172,0.0096491499
2.9816563,0.0096047428
2.983825,0.0095531953
2.9859254,0.0094944714
2.9879597,0.0094284605
2.98993,0.0093550068
2.9918382,0.0092739121
2.9936864,0.0091849362
2.9954764,0.0090877929
2.9972101,0.0089821435
2.9988893,0.0088675918
3.0005155,0.0087436767
3.0020906,0.0086098664
3.0036161,0.0084655509
3.0050936,0.0083100338
3.0065246,0.0081424613
3.0079106,0.0079617961
3.0092529,0.0077668998
3.010553,0.0075565804
3.0118121,0.0073296057
3.0130317,0.0070847251
3.0142128,0.0068207091
3.0153568,0.0065364002
3.0164647,0.0062307585
3.0175378,0.0059027856
3.0185772,0.0055515148
3.0195838,0.0051764265
3.0205587,0.0047779399
3.0215029,0.0043577293
3.0224174,0.0039191073
3.0233032,0.0034674474
3.024161,0.003010471
3.0249919,0.0025582065
3.0257966,0.002122419
3.026576,0.0017154063
3.0273308,0.0013483012
3.0280619,0.0010293269
3.02877,0.00076259202
3.0294558,0.00054784308
3.03012,0.00038116581
3.0307633,0.00025625588
3.0313863,0.00016576925
3.0319898,0.00010240701
3.0325742,5.9615337e-05
3.0331403,3.1935281e-05
3.0336885,1.5084685e-05
3.0342195,5.8337103e-06
3.0347338,1.7328195e-06
3.0352319,1.2445443e-06
3.0357122,5.4039799e-09
