y,k
0.44811458,1e-10
0.44853872,1.4398169e-08
0.44897673,4.5531676e-09
0.44942898,9.583162e-09
0.44989591,2.5624793e-08
0.45037802,5.8501595e-08
0.45087578,1.1656165e-07
0.45138972,2.102697e-07
0.45192035,3.5236144e-07
0.45246821,5.5811408e-07
0.45303387,8.4567501e-07
0.4536179,1.2364416e-06
0.4542209,1.7554963e-06
0.45484349,2.4321038e-06
0.4554863,3.3002783e-06
0.45614998,4.3994582e-06
0.45683523,5.7752167e-06
0.45754272,7.4800508e-06
0.4582732,9.5743067e-06
0.45902739,1.2127165e-05
0.45980608,1.5217704e-05
0.46061006,1.8936027e-05
0.46144015,2.3384435e-05
0.46229719,2.8678571e-05
0.46318206,3.4948468e-05
0.46409567,4.2339322e-05
0.46503894,5.1011902e-05
0.46601284,6.1142591e-05
0.46701837,7.2922548e-05
0.46805654,8.6555902e-05
0.46912841,0.00010225667
0.47023509,0.00012024374
0.4713777,0.00014073137
0.4725574,0.00016392176
0.4737754,0.00018999491
0.47503293,0.00021911906
0.47633129,0.0002514197
0.4776718,0.000286954
0.47905581,0.00032573526
0.48048475,0.00036772797
0.48196006,0.00041284694
0.48348326,0.0004609645
0.48505589,0.00051191967
0.48667956,0.00056552588
0.48835591,0.00062157682
0.49008666,0.00067985388
0.49187358,0.0007401344
0.49371847,0.00080219805
0.49562322,0.00086583193
0.49758976,0.00093083567
0.4996201,0.00099702499
0.5017163,0.0010642327
0.5038805,0.0011323094
0.5061149,0.0012011267
0.50842177,0.0012705786
0.51080345,0.0013405816
0.51326237,0.0014110728
0.51580103,0.0014820092
0.518422,0.0015533655
0.52112796,0.0016251331
0.52392164,0.0016973174
0.52680589,0.0017699358
0.52978363,0.0018430161
0.53285789,0.001916594
0.53603179,0.0019907122
0.53930855,0.0020654187
0.54269148,0.0021407661
0.54618404,0.0022168103
0.54978974,0.0022936102
0.55351226,0.0023712274
0.55735535,0.0024497254
0.56132292,0.0025291698
0.56541898,0.0026096285
0.56964768,0.002691171
0.57177824,0.0027315292
0.57401358,0.0027739017
0.57852108,0.0028578993
0.5831745,0.0029432122
0.58797853,0.0030299215
0.59293802,0.0031181117
0.59805799,0.0032078722
0.60334361,0.003299297
0.60880021,0.0033924863
0.6144333,0.0034875478
0.62024856,0.0035845982
0.62625185,0.0036837657
0.63244922,0.0037851936
0.63884691,0.0038890452
0.64545136,0.0039955108
0.65226923,0.0041048184
0.65930735,0.0042172493
0.66657282,0.0043331608
0.67407292,0.0044530206
0.6818152,0.0045774589
0.68980741,0.0047073475
0.69805757,0.0048439243
0.70657395,0.0049889993
0.71536509,0.0051452266
0.72443978,0.0053164226
0.73380709,0.0055076344
0.74347641,0.0057246911
0.75345737,0.0059752778
0.76375996,0.0062731361
0.77439444,0.0066433128
0.78537141,0.0071272277
0.79670181,0.0077938582
0.80839692,0.0087639112
0.82046836,0.010190731
0.83292813,0.012104239
0.84578859,0.014239302
0.85906251,0.016153133
0.87276303,0.017546897
0.88690372,0.018391436
0.90149857,0.018818728
0.91656199,0.019005233
0.93210885,0.019129251
0.94815449,0.01935492
0.96471471,0.019830986
0.9818058,0.02068029
0.99944456,0.02194216
1.0176483,0.02355374
1.0364349,0.025392267
1.0558227,0.027321502
1.0758308,0.029223702
1.0964785,0.031006297
1.1177862,0.032598614
1.1397745,0.033948781
1.1624649,0.035024474
1.1858794,0.035818715
1.2100408,0.036354178
1.2349723,0.036667285
1.2606983,0.036792579
1.2872435,0.036763466
1.3146335,0.036588778
1.3209797,0.036517224
1.3428965,0.036266687
1.3720585,0.035815128
1.4021469,0.035247721
1.4331904,0.034573838
1.4652188,0.033802079
1.4982627,0.032941359
1.5323536,0.032001281
1.567524,0.030992182
1.6038071,0.029925045
1.6412376,0.028811332
1.6798508,0.027662743
1.7196831,0.026490972
1.7607723,0.025316448
1.8018234,0.024177237
1.8415466,0.023105424
1.8799862,0.022108057
1.9171848,0.021180599
1.9531836,0.02031784
1.9880224,0.019515352
2.0217396,0.018768511
2.0543721,0.018072342
2.0859558,0.017422167
2.116525,0.016813705
2.1377609,0.016404135
2.1461135,0.016243105
2.1747538,0.01570692
2.2024761,0.015202052
2.2293103,0.0147258
2.2552856,0.014275802
2.2804299,0.013850001
2.3047701,0.013446618
2.3283326,0.01306412
2.3511425,0.012701203
2.3732242,0.012356764
2.3946014,0.012029865
2.4152968,0.011719526
2.4353325,0.011424647
2.4547298,0.011144151
2.4735093,0.010877047
2.4916909,0.010622434
2.5092939,0.010379519
2.526337,0.010147627
2.542838,0.0099262117
2.5588145,0.0097148534
2.5742833,0.0095132462
2.5892607,0.0093211854
2.6037624,0.0091385477
2.6178038,0.0089652715
2.6313994,0.0088013386
2.6445637,0.0086467564
2.6573104,0.0085015428
2.6696528,0.0083657145
2.6816039,0.0082392761
2.6931762,0.0081222123
2.7043818,0.0080144807
2.7152323,0.0079160056
2.7257392,0.0078266725
2.7359133,0.0077463219
2.7457652,0.007674743
2.7553053,0.0076116668
2.7645435,0.0075567589
2.7734893,0.0075096133
2.782152,0.0074697471
2.7905407,0.0074366001
2.7986642,0.0074095405
2.8065307,0.0073878784
2.8141485,0.0073708828
2.8215254,0.0073577923
2.8286692,0.0073478157
2.8355872,0.0073400766
2.8422866,0.0073344987
2.8487743,0.0073317693
2.8550571,0.0073311407
2.8611414,0.0073330164
2.8670335,0.0073385661
2.8727395,0.0073473083
2.8782654,0.0073591649
2.8836168,0.0073744132
2.8887992,0.0073932439
2.893818,0.0074156409
2.8986784,0.0074414013
2.9033854,0.0074702953
2.9079439,0.0074998714
2.9123585,0.0075283224
2.9166338,0.0075565895
2.9207742,0.0075853501
2.924784,0.0076136507
2.9286673,0.0076396403
2.9324281,0.0076634653
2.9360703,0.0076863585
2.9395976,0.007709383
2.9430137,0.0077331122
2.946322,0.0077577239
2.949526,0.0077834405
2.952629,0.007810411
2.9556341,0.0078386506
2.9585445,0.0078679727
2.9613632,0.0078979557
2.964093,0.0079283441
2.9667367,0.0079591585
2.9692971,0.0079904357
2.9717768,0.0080221666
2.9741784,0.0080542543
2.9765042,0.0080865247
2.9787568,0.0081186685
2.9809383,0.0081502207
2.9830511,0.0081805547
2.9850974,0.0082087541
2.9870791,0.0082345174
2.9889984,0.0082573683
2.9908573,0.0082757596
2.9926575,0.0082882851
2.9944011,0.0082932574
2.9960897,0.0082884162
2.9977251,0.0082712132
2.999309,0.008239003
3.000843,0.0081893364
3.0023287,0.0081184329
3.0037676,0.0080221396
3.0051611,0.007897608
3.0065108,0.0077425383
3.0078179,0.007555035
3.0090839,0.0073332594
3.01031,0.0070754621
3.0114975,0.006780056
3.0126476,0.0064455169
3.0137614,0.0060705799
3.0148402,0.0056548746
3.015885,0.0052002135
3.0168969,0.0047123895
3.017877,0.0042012577
3.0188261,0.0036807426
3.0197454,0.0031687218
3.0206357,0.0026828322
3.021498,0.0022371726
3.0223332,0.0018422812
3.023142,0.0015040826
3.0239254,0.0012224585
3.0246841,0.00099237618
3.0254189,0.00080639827
3.0261306,0.00065717559
3.0268199,0.00053817957
3.0274874,0.00044295124
3.028134,0.0003657056
3.0287602,0.00030225026
3.0293667,0.00024970257
3.029954,0.00020583529
3.0305229,0.00016886753
3.0310739,0.00013737957
3.0316075,0.00011024522
3.0321244,8.6585977e-05
3.0326249,6.5753355e-05
3.0331097,4.7351956e-05
3.0335792,3.1316917e-05
3.034034,1.8018069e-05
3.0344744,8.2347019e-06
3.034901,2.6744705e-06
3.0353141,1.4521395e-06
3.0357143,1e-10
