/*--------------------------------*- C++ -*----------------------------------*\
| =========                 |                                                 |
| \\      /  F ield         | OpenFOAM: The Open Source CFD Toolbox           |
|  \\    /   O peration     | Version:  2.4.0                                 |
|   \\  /    A nd           | Web:      www.OpenFOAM.org                      |
|    \\/     M anipulation  |                                                 |
\*---------------------------------------------------------------------------*/
FoamFile
{
    version     2.0;
    format      ascii;
    class       volScalarField;
    location    "40000";
    object      p;
}
// * * * * * * * * * * * * * * * * * * * * * * * * * * * * * * * * * * * * * //

dimensions      [0 2 -2 0 0 0 0];

internalField   nonuniform List<scalar> 
15600
(
1.7266865e-10
-0.11278084
-5.1630096e-05
-0.11276687
-9.9608618e-05
-0.11275204
-0.00014667222
-0.11272938
-0.0001808374
-0.11268894
-0.00018173267
-0.11260864
-0.00013412812
-0.11246794
-4.5787018e-05
-0.11226777
6.0748143e-05
-0.11202755
0.0001687461
-0.11176514
0.00027213476
-0.11148733
0.00037058268
-0.11119273
0.0004676049
-0.11087561
0.00056937008
-0.11052846
0.00068291615
-0.11014355
0.0008147258
-0.10971394
0.00097008003
-0.1092345
0.0011523732
-0.10870175
0.0013638655
-0.10811165
0.001600904
-0.10744891
0.081908021
0.080309362
0.082680671
0.082225627
0.082270802
0.081088992
0.079841005
0.078327825
0.076902967
0.075555745
0.074159412
0.073012929
0.071569182
0.07058665
0.068804154
0.068117284
0.06534782
0.064524944
0.059133321
0.057963451
0.047060672
0.04421458
0.022990854
0.026411327
-0.020435032
-0.045549031
-0.083488553
0.081909729
0.080310254
0.082681945
0.082224399
0.082269583
0.081086967
0.079839358
0.078326592
0.07690205
0.075554904
0.07415867
0.073012282
0.07156851
0.070585905
0.068803341
0.068115958
0.065345815
0.064522027
0.059129196
0.057953433
0.047046925
0.044186844
0.022978247
0.026374868
-0.020421782
-0.045495287
-0.083459916
0.08191122
0.080310866
0.082683016
0.082223096
0.082268307
0.081084923
0.079837669
0.07832529
0.076901063
0.075554029
0.074157914
0.073011658
0.071567884
0.070585259
0.068802619
0.068114814
0.065343988
0.064519467
0.059125422
0.057944488
0.047034748
0.044162596
0.022969024
0.026346529
-0.020401718
-0.04543011
-0.083422293
0.08191224
0.080311131
0.082683743
0.082221456
0.082266622
0.081082413
0.079835507
0.078323552
0.076899694
0.075552838
0.074156915
0.073010863
0.07156716
0.070584564
0.06880191
0.068113683
0.065342216
0.064516927
0.059121729
0.057935379
0.047022566
0.044137961
0.022962471
0.026321766
-0.020372637
-0.045335943
-0.083364594
0.081912481
0.08031088
0.082683802
0.082219197
0.082264212
0.081079145
0.079832605
0.07832115
0.07689775
0.075551174
0.074155556
0.073009814
0.071566293
0.070583802
0.068801219
0.068112557
0.065340481
0.064514361
0.059118051
0.057926019
0.047010163
0.044113125
0.022959137
0.026301751
-0.020329136
-0.045192554
-0.08327147
0.081911587
0.080309874
0.082682826
0.082215973
0.082260723
0.081074781
0.079828661
0.078317826
0.076895011
0.075548862
0.074153705
0.073008426
0.071565239
0.070582967
0.068800567
0.068111454
0.065338798
0.064511772
0.059114379
0.057916373
0.046997496
0.044088343
0.022959938
0.026286544
-0.020263173
-0.044973377
-0.083116403
0.081909201
0.080307871
0.082680384
0.082211374
0.082255743
0.081068945
0.07982335
0.078313304
0.076891247
0.075545722
0.074151236
0.073006622
0.07156397
0.070582075
0.068800002
0.068110424
0.06533722
0.064509215
0.059110768
0.057906497
0.046984621
0.044064055
0.022965886
0.026275291
-0.020162954
-0.044647622
-0.082874357
0.081905085
0.080304708
0.082676042
0.082204952
0.082248827
0.08106124
0.079816344
0.078307322
0.076886252
0.075541602
0.074148055
0.073004361
0.071562505
0.070581194
0.068799629
0.068109575
0.065335866
0.064506813
0.059107345
0.057896485
0.046971549
0.044040616
0.02297793
0.026265626
-0.020013306
-0.044190917
-0.082537031
0.081899216
0.080300392
0.082669435
0.082196278
0.08223954
0.081051287
0.079807354
0.078299672
0.076879883
0.075536422
0.074144144
0.073001689
0.071560947
0.070580483
0.068799647
0.068109112
0.065334961
0.064504798
0.0591043
0.057886363
0.046957948
0.044017907
0.022996865
0.02625351
-0.019799731
-0.043594843
-0.082113629
0.081891732
0.080295084
0.082660277
0.082184937
0.082227445
0.081038705
0.079796114
0.078290192
0.076872061
0.075530178
0.074139572
0.072998741
0.071559504
0.070580211
0.068800372
0.068109357
0.065334833
0.064503441
0.059101688
0.057875712
0.046942614
0.04399493
0.023024018
0.026235665
-0.019513501
-0.042864862
-0.081617837
0.081882568
0.080288846
0.082648187
0.082170376
0.082211949
0.08102296
0.079782228
0.078278623
0.076862648
0.075522835
0.074134407
0.072995677
0.071558421
0.070580697
0.068802168
0.068110672
0.065335783
0.064502825
0.059099068
0.05786329
0.046923412
0.043970233
0.023063328
0.026220118
-0.019152747
-0.042010755
-0.081058787
0.081871024
0.080281241
0.082632354
0.082151631
0.082192043
0.081003112
0.079764921
0.078264363
0.076851208
0.075514112
0.074128512
0.072992486
0.071557803
0.070582133
0.068805274
0.068113263
0.065337817
0.064502541
0.059095296
0.057847248
0.046898306
0.04394362
0.023122364
0.026220822
-0.018720604
-0.041041989
-0.08044123
0.081855721
0.08027117
0.082611392
0.082127206
0.082166206
0.080977718
0.079742911
0.078246318
0.076836835
0.075503281
0.074121333
0.072988775
0.071557388
0.070584357
0.068809566
0.068116945
0.065340438
0.064501637
0.05908893
0.057826171
0.046866857
0.043917611
0.023212803
0.02624489
-0.018224903
-0.039965472
-0.079767773
0.081835167
0.080257227
0.082583653
0.082095395
0.08213272
0.080945122
0.079714651
0.078223078
0.076818267
0.07548923
0.074111912
0.072983735
0.071556493
0.070586777
0.068814493
0.0681211
0.06534277
0.064499106
0.059079143
0.057800093
0.046830667
0.043897176
0.023345367
0.026297222
-0.017674741
-0.038786519
-0.079039838
0.081808495
0.080238353
0.082547851
0.082054875
0.082090255
0.080904023
0.079678869
0.078193407
0.076794317
0.075470834
0.074099197
0.072976405
0.071554238
0.070588589
0.068819298
0.068124983
0.065344091
0.064494592
0.059066319
0.057770435
0.046792445
0.043888552
0.023522873
0.026382664
-0.017078367
-0.037509817
-0.078257902
0.081775762
0.080214263
0.082503497
0.082005132
0.082038285
0.080853898
0.079635003
0.078156705
0.076764344
0.075447415
0.0740825
0.072966107
0.071549976
0.070589198
0.068823466
0.068128213
0.065344358
0.06448868
0.059051752
0.057739065
0.04675497
0.043898947
0.023738947
0.026506597
-0.016442561
-0.036140333
-0.077421637
0.081737695
0.080185376
0.082450897
0.081946477
0.08197712
0.080795056
0.079583304
0.078113155
0.07672846
0.075419002
0.074061777
0.072952746
0.071543603
0.070588534
0.068827031
0.068131023
0.065344235
0.064482458
0.059036851
0.057707462
0.046720791
0.04393725
0.023979719
0.0266736
-0.015773189
-0.034684434
-0.076529996
0.081695228
0.080152425
0.082390774
0.081879606
0.081907441
0.080728185
0.07952443
0.078063392
0.076687271
0.075386165
0.074037564
0.072936837
0.071535634
0.070587168
0.068830671
0.068134305
0.065344875
0.064477299
0.059023035
0.057677314
0.046693196
0.044015415
0.024231073
0.026887515
-0.015072618
-0.033147692
-0.075581521
0.08164913
0.080116135
0.082324124
0.081805783
0.081830785
0.080655051
0.079460198
0.078009233
0.076642507
0.075350499
0.074011285
0.07291967
0.071527212
0.070586221
0.068835492
0.068139427
0.06534776
0.064475074
0.059012217
0.057651376
0.04667756
0.044151086
0.02448163
0.027166296
-0.014332154
-0.031529572
-0.074571078
0.081599267
0.080076667
0.08224845
0.081720829
0.081740602
0.08056865
0.079383561
0.077944208
0.076588634
0.075307991
0.073980529
0.072900612
0.071519413
0.070588414
0.068844956
0.0681504
0.065356826
0.064480561
0.059009543
0.057637097
0.046683313
0.044337107
0.024659857
0.02746811
-0.013584469
-0.029916165
-0.073553957
0.20487441
0.20211149
0.1987196
0.19560815
0.19199293
0.18851094
0.18464252
0.18079396
0.17664616
0.17244483
0.16800466
0.16347286
0.15874652
0.1539188
0.14893515
0.14386905
0.13868735
0.13346701
0.12817541
0.12291814
0.117638
0.11250238
0.10738715
0.10258287
0.09781361
0.093626054
0.08940942
0.086269959
0.082817693
0.081541103
0.07886475
0.20487363
0.20211068
0.19871884
0.19560742
0.19199225
0.18851032
0.18464196
0.18079347
0.17664575
0.17244452
0.16800446
0.16347277
0.15874655
0.15391897
0.14893546
0.14386953
0.13868799
0.13346783
0.12817641
0.12291932
0.11763936
0.11250393
0.10738887
0.10258478
0.097815658
0.093628302
0.089411767
0.086272598
0.082820317
0.081544637
0.078867242
0.20487287
0.20210992
0.19871811
0.19560672
0.19199158
0.1885097
0.1846414
0.18079297
0.17664533
0.17244418
0.1680042
0.16347262
0.15874651
0.15391905
0.14893568
0.14386988
0.13868849
0.13346848
0.12817722
0.1229203
0.1176405
0.11250524
0.10739034
0.10258643
0.09781743
0.093630267
0.089413819
0.086274938
0.08282264
0.081547826
0.078869397
0.20487212
0.20210916
0.19871737
0.19560603
0.19199093
0.1885091
0.18464085
0.18079249
0.17664492
0.17244386
0.16800398
0.1634725
0.1587465
0.15391917
0.14893593
0.14387028
0.13868903
0.13346918
0.12817808
0.12292133
0.11764168
0.1125066
0.10739184
0.1025881
0.097819222
0.093632236
0.089415864
0.086277239
0.082824915
0.081550861
0.07887133
0.20487133
0.20210837
0.19871662
0.19560531
0.19199025
0.18850848
0.1846403
0.18079201
0.17664452
0.17244355
0.16800377
0.16347241
0.15874653
0.15391933
0.14893623
0.14387073
0.13868964
0.13346995
0.12817901
0.12292243
0.11764295
0.11250804
0.10739343
0.10258984
0.097821086
0.09363426
0.089417952
0.086279545
0.082827184
0.081553772
0.078873089
0.20487046
0.20210751
0.19871579
0.19560453
0.19198952
0.18850781
0.1846397
0.1807915
0.17664411
0.17244325
0.1680036
0.16347237
0.15874664
0.1539196
0.14893667
0.14387134
0.13869044
0.13347094
0.12818018
0.1229238
0.11764449
0.11250975
0.10739529
0.10259186
0.097823208
0.093636514
0.08942024
0.086281989
0.08282955
0.081556617
0.078874695
0.20486938
0.20210643
0.19871474
0.19560353
0.19198859
0.18850697
0.18463895
0.18079088
0.17664363
0.17244293
0.16800345
0.16347241
0.1587469
0.15392009
0.1489374
0.14387234
0.13869169
0.13347245
0.12818195
0.12292581
0.11764673
0.11251221
0.10739792
0.10259465
0.097826079
0.093639468
0.089423168
0.086284961
0.082832341
0.081559639
0.078876288
0.20486781
0.20210482
0.19871315
0.19560198
0.1919871
0.18850559
0.1846377
0.1807898
0.17664275
0.17244229
0.16800309
0.16347236
0.15874719
0.15392075
0.14893846
0.1438738
0.13869358
0.13347477
0.12818468
0.12292894
0.11765022
0.11251603
0.107402
0.10259894
0.097830484
0.093643927
0.089427533
0.086289221
0.082836248
0.081563419
0.078878258
0.20486524
0.20210212
0.19871039
0.19559923
0.19198436
0.18850295
0.18463519
0.18078748
0.17664068
0.17244053
0.16800169
0.16347139
0.1587467
0.1539208
0.1489391
0.14387507
0.13869551
0.13347738
0.12818798
0.12293291
0.11765482
0.11252122
0.10740769
0.10260507
0.0978369
0.093650509
0.089434076
0.086295601
0.082842156
0.081568821
0.078881305
0.20486105
0.2020976
0.19870568
0.1955944
0.19197943
0.18849802
0.1846303
0.18078273
0.17663611
0.17243625
0.16799778
0.16346793
0.15874378
0.15391851
0.14893752
0.14387429
0.1386956
0.13347839
0.12818997
0.12293591
0.11765883
0.11252623
0.10741364
0.10261189
0.097844451
0.093658648
0.089442548
0.086304186
0.08285047
0.081576506
0.078886233
0.20485454
0.20209053
0.19869822
0.19558666
0.19197138
0.18848982
0.18462194
0.18077435
0.17662775
0.17242803
0.16798977
0.16346026
0.15873655
0.15391183
0.14893152
0.1438691
0.13869133
0.13347518
0.1281879
0.12293511
0.11765937
0.11252818
0.107417
0.1026167
0.097850638
0.093666144
0.089451106
0.08631361
0.08286036
0.081586196
0.078893431
0.20484509
0.20208027
0.19868741
0.19557539
0.1919596
0.18847769
0.18460944
0.18076164
0.17661484
0.17241506
0.16797681
0.16344743
0.15872395
0.15389961
0.14891982
0.14385808
0.13868114
0.13346599
0.12817987
0.12292842
0.11765415
0.11252462
0.10741519
0.10261681
0.097852679
0.093670245
0.089457102
0.086321485
0.082869824
0.081596425
0.07890241
0.20483222
0.20206639
0.19867285
0.19556023
0.19194377
0.18846139
0.1845926
0.18074443
0.17659726
0.17239725
0.16795883
0.16342942
0.15870601
0.15388189
0.14890246
0.14384127
0.13866504
0.13345079
0.12816576
0.12291561
0.11764282
0.11251501
0.10740745
0.10261121
0.097849309
0.093669426
0.089458773
0.086325889
0.082876853
0.08160528
0.07891192
0.20481566
0.20204865
0.19865433
0.19554103
0.19192377
0.18844084
0.18457139
0.18072276
0.17657513
0.1723748
0.16793612
0.1634066
0.15868317
0.15385922
0.1488801
0.14381941
0.13864384
0.13343048
0.12814651
0.12289767
0.11762638
0.11250033
0.10739469
0.10260068
0.09784113
0.093664022
0.089456134
0.086326457
0.082880647
0.081611554
0.078920688
0.20479529
0.20202694
0.19863176
0.1955177
0.19189955
0.188416
0.18454583
0.1806967
0.17654853
0.17234786
0.16790889
0.16337924
0.15865581
0.15383204
0.14885326
0.14379312
0.13861829
0.13340589
0.12812308
0.12287566
0.11760598
0.11248182
0.10737822
0.10258659
0.097829526
0.093655352
0.089450372
0.086324127
0.082881757
0.081615258
0.078928157
0.20477109
0.20200123
0.1986051
0.19549021
0.19187111
0.18838688
0.18451592
0.18066625
0.17651753
0.1723165
0.16787724
0.16334748
0.15862408
0.15380054
0.14882219
0.1437627
0.13858874
0.13337746
0.12809599
0.12285018
0.11758233
0.11246029
0.10735899
0.10256998
0.097815634
0.093644637
0.089442766
0.086320156
0.082881332
0.081617217
0.078934643
0.20474305
0.20197151
0.19857436
0.19545856
0.19183841
0.18835346
0.18448166
0.18063142
0.17648211
0.17228072
0.16784117
0.16331135
0.15858803
0.1537648
0.14878697
0.14372828
0.13855533
0.13334536
0.12806545
0.1228215
0.11755573
0.11243613
0.10733742
0.10255138
0.097800079
0.093632601
0.089434155
0.086315462
0.082880372
0.081618363
0.078940924
0.20471118
0.20193778
0.19853952
0.19542274
0.19180146
0.18831573
0.18444303
0.18059218
0.17644226
0.17224051
0.16780068
0.16327082
0.15854763
0.1537248
0.14874761
0.14368984
0.13851809
0.13330961
0.12803149
0.12278967
0.11752629
0.11240943
0.10731367
0.10253097
0.09778311
0.093619554
0.089424934
0.086310518
0.082879465
0.081619338
0.078947749
0.20467553
0.20190008
0.19850063
0.19538278
0.19176031
0.18827374
0.18440009
0.18054861
0.17639804
0.17219592
0.16775584
0.16322597
0.15850297
0.15368062
0.14870417
0.14364747
0.13847707
0.1332703
0.12799418
0.12275475
0.11749405
0.11238027
0.10728781
0.10250883
0.097764815
0.093605592
0.089415227
0.086305469
0.082878832
0.081620401
0.078955529
0.20463585
0.20185808
0.19845738
0.1953383
0.19171456
0.18822704
0.18435237
0.18050017
0.17634895
0.17214642
0.16770607
0.16317621
0.15845345
0.15363164
0.14865605
0.14360055
0.13843169
0.13322684
0.127953
0.12271625
0.11745858
0.11234824
0.10725952
0.10248471
0.097745065
0.093590632
0.089405155
0.086300411
0.082878964
0.081621808
0.078965396
0.10703835
0.19360838
0.13702044
0.15908336
0.14193718
0.14453273
0.13802395
0.13630999
0.13273079
0.13045403
0.12796922
0.12600221
0.12419742
0.1227064
0.12144493
0.12043262
0.1196537
0.11908085
0.11872805
0.11856053
0.1185933
0.11878726
0.11916071
0.11968292
0.12035403
0.12114759
0.12209439
0.12311339
0.12434213
0.12557658
0.12701892
0.12849806
0.13008674
0.13173837
0.13346485
0.13525113
0.13709531
0.13898971
0.14092932
0.14290778
0.14491973
0.14695899
0.14902048
0.15109805
0.15318719
0.15528157
0.15737696
0.1594666
0.16154795
0.16361248
0.16566145
0.16768041
0.16968193
0.17163154
0.17358022
0.17542312
0.17734223
0.17899278
0.18099254
0.18225966
0.10703883
0.19360951
0.13701879
0.15908505
0.14193676
0.14453343
0.13802408
0.13631043
0.13273112
0.13045446
0.12796965
0.12600268
0.1241979
0.12270692
0.12144546
0.12043316
0.11965425
0.1190814
0.11872861
0.1185611
0.11859387
0.11878784
0.11916129
0.11968348
0.1203546
0.12114816
0.12209496
0.12311397
0.12434269
0.12557715
0.12701947
0.1284986
0.13008727
0.13173889
0.13346536
0.13525164
0.1370958
0.1389902
0.1409298
0.14290825
0.14492018
0.14695943
0.14902092
0.15109848
0.1531876
0.15528197
0.15737734
0.15946696
0.1615483
0.16361281
0.16566177
0.16768071
0.16968222
0.17163181
0.17358048
0.17542335
0.17734246
0.17899298
0.18099274
0.18225996
0.10703872
0.19361139
0.13701669
0.15908655
0.14193631
0.14453397
0.13802413
0.13631074
0.13273134
0.13045477
0.12796997
0.12600304
0.12419828
0.12270732
0.12144587
0.12043359
0.11965469
0.11908186
0.11872907
0.11856156
0.11859434
0.11878831
0.11916177
0.11968396
0.12035508
0.12114864
0.12209544
0.12311446
0.12434318
0.12557764
0.12701996
0.12849907
0.13008773
0.13173935
0.13346581
0.13525208
0.13709624
0.13899063
0.14093022
0.14290867
0.14492059
0.14695983
0.14902131
0.15109885
0.15318797
0.15528232
0.15737768
0.15946729
0.16154862
0.16361312
0.16566206
0.16768099
0.16968248
0.17163206
0.17358071
0.17542356
0.17734266
0.17899315
0.18099293
0.18226021
0.10703833
0.19361245
0.13701615
0.15908706
0.1419366
0.14453434
0.13802449
0.13631112
0.13273175
0.13045521
0.12797045
0.12600355
0.12419882
0.12270787
0.12144645
0.12043418
0.11965529
0.11908246
0.11872968
0.11856218
0.11859496
0.11878894
0.11916239
0.11968458
0.1203557
0.12114925
0.12209606
0.12311507
0.12434378
0.12557825
0.12702055
0.12849965
0.13008831
0.13173991
0.13346636
0.13525262
0.13709677
0.13899115
0.14093073
0.14290917
0.14492108
0.14696031
0.14902177
0.15109931
0.15318841
0.15528275
0.1573781
0.15946769
0.161549
0.16361349
0.16566241
0.16768132
0.1696828
0.17163236
0.173581
0.17542383
0.17734293
0.17899339
0.18099318
0.18226049
0.10703917
0.19361453
0.13701903
0.15908829
0.14193955
0.14453637
0.13802707
0.13631349
0.13273429
0.13045774
0.12797304
0.12600617
0.12420146
0.12271053
0.12144912
0.12043685
0.11965795
0.11908512
0.11873232
0.1185648
0.11859755
0.1187915
0.11916492
0.11968708
0.12035816
0.12115167
0.12209844
0.12311741
0.12434609
0.12558051
0.12702277
0.12850182
0.13009042
0.13174197
0.13346838
0.13525459
0.13709869
0.13899302
0.14093256
0.14291095
0.14492281
0.146962
0.14902341
0.1511009
0.15318996
0.15528425
0.15737956
0.15946911
0.16155038
0.16361482
0.1656637
0.16768258
0.16968402
0.17163354
0.17358214
0.17542493
0.17734399
0.17899442
0.18099419
0.18226149
0.10704535
0.19362294
0.13703017
0.15909514
0.14195031
0.14454516
0.13803711
0.13632311
0.1327443
0.13046771
0.12798316
0.12601632
0.12421167
0.12272075
0.12145934
0.12044705
0.11966812
0.11909523
0.11874236
0.11857476
0.11860743
0.11880127
0.11917458
0.11969661
0.12036756
0.12116093
0.12210756
0.12312639
0.12435492
0.12558917
0.12703128
0.12851016
0.1300986
0.13174998
0.13347623
0.13526228
0.13710621
0.13900038
0.14093975
0.14291798
0.14492968
0.1469687
0.14902996
0.15110729
0.1531962
0.15529034
0.1573855
0.1594749
0.16155603
0.16362033
0.16566908
0.16768782
0.16968914
0.17163853
0.17358701
0.17542969
0.17734864
0.17899897
0.18099863
0.18226583
0.1070623
0.19364474
0.13705598
0.15911411
0.14197568
0.1445675
0.13806157
0.13634697
0.13276885
0.13049228
0.12800801
0.12604127
0.12423676
0.12274589
0.12148451
0.12047221
0.11969323
0.11912026
0.11876729
0.11859956
0.11863207
0.11882573
0.11919883
0.11972064
0.12039134
0.12118445
0.1221308
0.12314933
0.12437757
0.1256115
0.12705331
0.12853186
0.13011995
0.131771
0.1334969
0.1352826
0.13712619
0.13902001
0.14095902
0.1429369
0.14494825
0.14698691
0.14904782
0.1511248
0.15321336
0.15530716
0.15740199
0.15949105
0.16157187
0.16363584
0.16568429
0.16770272
0.16970375
0.17165284
0.17360106
0.17544346
0.17736215
0.17901223
0.18101166
0.18227855
0.10709222
0.19368283
0.1370994
0.15914774
0.14201865
0.14460619
0.1381034
0.13638797
0.1328109
0.1305344
0.12805061
0.12608408
0.12427983
0.1227891
0.12152785
0.1205156
0.11973664
0.11916362
0.11881058
0.11864274
0.1186751
0.11886857
0.11924145
0.11976301
0.12043342
0.12122622
0.12217222
0.12319039
0.12441828
0.12565178
0.1270932
0.12857133
0.13015896
0.13180956
0.13353499
0.13532021
0.13716331
0.13905662
0.14099514
0.1429725
0.14498334
0.14702148
0.14908187
0.15115833
0.15324639
0.15533967
0.15743399
0.15952255
0.16160287
0.16366634
0.16571432
0.16773225
0.16973283
0.17168145
0.17362923
0.17547118
0.17738945
0.17903913
0.18103816
0.18230453
0.10713107
0.19372999
0.13715674
0.15918991
0.14207442
0.1446555
0.13815716
0.13644043
0.13286486
0.13058844
0.12810538
0.12613923
0.12433547
0.1228451
0.1215842
0.12057223
0.11979353
0.11922069
0.11886778
0.11869992
0.11873224
0.1189256
0.11929836
0.11981974
0.12048992
0.12128248
0.12222818
0.12324605
0.12447365
0.12570675
0.12714785
0.12862558
0.13021278
0.13186294
0.13358791
0.13537265
0.13721526
0.13910807
0.14104607
0.1430229
0.1450332
0.14707079
0.14913064
0.15120655
0.15329406
0.15538678
0.15748056
0.15956854
0.16164832
0.16371122
0.16575867
0.16777603
0.1697761
0.17172416
0.17367145
0.17551286
0.17743063
0.17907983
0.18107835
0.18234409
0.10716936
0.19377238
0.13721678
0.15922744
0.14213064
0.1447024
0.1382099
0.13649116
0.13291748
0.13064105
0.12815892
0.12619324
0.12439017
0.12290033
0.12164001
0.12062855
0.11985037
0.119278
0.1189255
0.11875791
0.11879045
0.118984
0.11935692
0.11987843
0.1205487
0.12134132
0.12228705
0.12330493
0.12453257
0.1257656
0.12720672
0.12868437
0.13027145
0.13192149
0.13364631
0.13543088
0.1372733
0.1391659
0.14110368
0.14308026
0.1450903
0.14712761
0.14918709
0.15126254
0.15334959
0.15544184
0.15753515
0.15962264
0.16170194
0.16376434
0.16581131
0.16782816
0.16982776
0.1717753
0.17372212
0.17556303
0.17748032
0.17912907
0.18112707
0.18239218
0.10719744
0.19380343
0.13726949
0.15925174
0.14217807
0.144738
0.13825253
0.13653101
0.13295943
0.13068274
0.12820151
0.1262362
0.12443375
0.12294436
0.12168455
0.12067354
0.11989581
0.11932384
0.11897181
0.11880474
0.11883779
0.11903181
0.11940522
0.11992719
0.12059786
0.12139089
0.12233698
0.12335524
0.12458329
0.1258166
0.12725812
0.12873608
0.1303234
0.13197369
0.13369873
0.13548351
0.13732612
0.13921888
0.1411568
0.1431335
0.14514364
0.14718104
0.1492405
0.15131581
0.15340271
0.15549477
0.15758789
0.15967517
0.16175427
0.16381643
0.16586318
0.16787976
0.16987912
0.17182637
0.17377294
0.17561356
0.17753055
0.17917904
0.18117667
0.18244129
0.10721316
0.19382544
0.13731682
0.15926477
0.14221915
0.14476456
0.13828749
0.13656241
0.13299321
0.13071601
0.12823569
0.12627065
0.12446876
0.12297975
0.12172036
0.12070973
0.11993236
0.11936069
0.11900902
0.11884236
0.11887584
0.11907023
0.11944403
0.11996635
0.12063733
0.12143068
0.12237702
0.12339558
0.12462396
0.12585746
0.12729933
0.12877751
0.130365
0.13201547
0.13374065
0.13552558
0.1373683
0.13926117
0.14119919
0.14317596
0.14518616
0.14722361
0.1492832
0.15135869
0.15344575
0.15553795
0.1576312
0.15971857
0.16179776
0.16385996
0.16590676
0.16792335
0.16992273
0.17186995
0.1738165
0.17565706
0.17757396
0.17922242
0.18121983
0.18248414
0.10721953
0.19383954
0.13736288
0.15926873
0.14225724
0.14478481
0.13831785
0.13658834
0.13302198
0.13074409
0.1282648
0.12630002
0.12449878
0.12301018
0.1217513
0.1207411
0.11996417
0.11939286
0.11904156
0.11887523
0.11890901
0.11910366
0.11947774
0.1200003
0.12067146
0.121465
0.12241146
0.12343018
0.1246588
0.12589233
0.12733446
0.12881275
0.13040026
0.13205078
0.13377599
0.13556092
0.13740365
0.13929651
0.14123451
0.14321125
0.1452214
0.14725879
0.14931839
0.15139396
0.15348109
0.15557334
0.15766663
0.15975402
0.16183321
0.1638954
0.16594218
0.16795873
0.16995805
0.17190521
0.17385167
0.17569216
0.17760888
0.17925733
0.18125439
0.18251833
0.10721772
0.1938452
0.13740782
0.15926292
0.14229202
0.14479819
0.13834321
0.13660832
0.13304527
0.13076646
0.12828832
0.12632379
0.12452325
0.1230351
0.12177676
0.12076703
0.11999059
0.1194197
0.11906883
0.11890288
0.11893705
0.11913203
0.11950647
0.12002935
0.12070078
0.12149458
0.12244123
0.1234602
0.12468915
0.12592278
0.12736528
0.12884377
0.13043138
0.13208205
0.13380735
0.13559238
0.13743519
0.13932812
0.14126617
0.14324296
0.14525315
0.14729055
0.14935014
0.15142567
0.15351274
0.15560492
0.15769812
0.15978541
0.1618645
0.16392657
0.16597322
0.16798963
0.1699888
0.17193581
0.17388207
0.17572244
0.17763887
0.17928729
0.18128383
0.18254726
0.10720773
0.19384257
0.13745249
0.15924749
0.14232412
0.14480505
0.13836406
0.13662278
0.13306355
0.13078358
0.12830673
0.12634241
0.12454263
0.12305495
0.12179719
0.12078798
0.12001207
0.11944161
0.11909121
0.1189257
0.1189603
0.11915565
0.11953051
0.12005377
0.1207255
0.1215196
0.12246648
0.12348572
0.12471509
0.12594883
0.12739179
0.12887053
0.13045828
0.13210914
0.13383458
0.13561975
0.13746269
0.13935574
0.14129389
0.14327077
0.14528103
0.14731849
0.14937812
0.15145368
0.15354076
0.15563294
0.15772612
0.15981339
0.16189242
0.16395444
0.16600101
0.16801735
0.1700164
0.17196333
0.17390943
0.17574974
0.17766587
0.17931436
0.18131032
0.18257317
0.10718989
0.19383192
0.13749794
0.15922268
0.14235433
0.14480587
0.13838107
0.1366323
0.13307743
0.13079604
0.1283206
0.12635647
0.12455752
0.12307031
0.12181318
0.12080451
0.12002918
0.11945918
0.11910929
0.11894425
0.11897932
0.11917507
0.11955039
0.12007406
0.12074613
0.12154058
0.12248771
0.12350726
0.12473709
0.12597094
0.12741445
0.12889349
0.13048141
0.1321325
0.13385811
0.13564346
0.13748656
0.13937977
0.14131806
0.14329506
0.14530544
0.14734301
0.14940271
0.15147833
0.15356546
0.15565768
0.15775087
0.15983815
0.16191717
0.16397917
0.16602569
0.16804199
0.17004094
0.17198782
0.17393376
0.17577407
0.17768988
0.1793385
0.18133381
0.18259598
0.10716443
0.1938134
0.13754526
0.15918868
0.14238343
0.14480109
0.13839485
0.1366374
0.13308748
0.13080439
0.1283305
0.12636653
0.12456846
0.12308175
0.12182529
0.12081719
0.12004247
0.11947296
0.11912362
0.11895907
0.11899464
0.11919083
0.11956664
0.12009078
0.12076321
0.12155802
0.12250541
0.1235253
0.12475566
0.12598962
0.12743375
0.12891313
0.13050125
0.1321526
0.13387841
0.13566398
0.13750727
0.13940067
0.14133914
0.1433163
0.14532683
0.14736452
0.14942434
0.15150006
0.15358727
0.15567956
0.1577728
0.15986012
0.16193914
0.16400116
0.16604765
0.16806394
0.17006282
0.17200969
0.17395548
0.17579583
0.17771128
0.17936012
0.18135467
0.18261604
0.10713144
0.19378714
0.13759533
0.15914563
0.14241207
0.14479107
0.13840592
0.13663854
0.13309417
0.13080909
0.12833692
0.12637307
0.12457595
0.12308975
0.12183399
0.1208265
0.12005243
0.11948343
0.11913466
0.11897063
0.11900675
0.11920339
0.11957974
0.12010437
0.12077717
0.1215724
0.12252005
0.12354028
0.12477123
0.12600529
0.12745011
0.12892987
0.13051821
0.13216986
0.1338959
0.13568171
0.13752523
0.13941885
0.14135752
0.14333489
0.14534559
0.14738345
0.14944341
0.15151927
0.15360659
0.15569898
0.15779229
0.15987969
0.16195874
0.16402081
0.16606729
0.16808361
0.17008242
0.17202932
0.17397496
0.1758154
0.17773046
0.17937959
0.18137329
0.18263372
0.10709248
0.19375363
0.13764861
0.15909356
0.14244098
0.14477616
0.13841485
0.13663616
0.133098
0.13081061
0.1283403
0.12637652
0.12458042
0.12309475
0.12183972
0.12083287
0.12005948
0.11949101
0.11914285
0.11897938
0.11901607
0.11921318
0.11959012
0.12011529
0.12078849
0.12158414
0.12253206
0.12355267
0.12478426
0.1260184
0.127464
0.12894418
0.13053276
0.13218473
0.13391103
0.13569711
0.13754089
0.13943476
0.14137367
0.14335126
0.14536217
0.14740023
0.14946036
0.15153639
0.15362384
0.15571637
0.15780977
0.15989727
0.16197638
0.16403853
0.16608502
0.16810139
0.17010015
0.17204711
0.17399259
0.17583318
0.17774781
0.17939731
0.18139004
0.18264937
0.10705943
0.19371243
0.1377083
0.15903009
0.14247248
0.14475637
0.13842305
0.13663098
0.13309991
0.1308096
0.12834126
0.12637738
0.12458232
0.12309712
0.12184285
0.12083665
0.12006397
0.11949605
0.11914853
0.11898566
0.11902299
0.11922064
0.11959825
0.12012405
0.12079772
0.12159392
0.12254219
0.1235633
0.12479565
0.12602992
0.12747642
0.12895707
0.13054591
0.13219824
0.13392482
0.13571119
0.13755525
0.13944939
0.14138857
0.1433664
0.14537753
0.1474158
0.14947611
0.15155231
0.15363991
0.15573257
0.15782606
0.15991367
0.16199283
0.16405506
0.16610156
0.16811798
0.17011668
0.17206371
0.17400899
0.17584977
0.17776387
0.17941386
0.18140538
0.1826635
0.18267798
0.18269178
0.18270267
0.18271164
0.18271932
0.18272642
0.18273368
0.18274186
0.18275201
0.18276576
0.18278306
0.18279968
0.18281423
0.18283192
0.18285709
0.18289184
0.18293856
0.18299943
0.18307617
0.18317027
0.18328287
0.18341476
0.1835665
0.18373857
0.18393146
0.18414572
0.18438204
0.18464126
0.18492442
0.18523281
0.18556792
0.18593156
0.18632581
0.18675313
0.18721639
0.18771896
0.18826526
0.18886039
0.1895098
0.19022039
0.19100071
0.19186164
0.19280781
0.19387442
0.19499585
0.19608542
0.19704666
0.19783457
0.19845588
0.1989287
0.19927842
0.19952957
0.19970454
0.19982301
0.19990249
0.19995581
0.19999655
0.20003604
0.20008485
0.20010381
0.20007438
0.20004446
0.20005566
0.20010826
0.20019965
0.20032678
0.20048583
0.20067167
0.20087894
0.20110242
0.20133708
0.20157829
0.20182189
0.20206427
0.20230235
0.20253364
0.20275613
0.20296832
0.2031691
0.20335775
0.20353387
0.20369729
0.20384809
0.20398646
0.20411276
0.20422741
0.20433094
0.20442385
0.20450653
0.20457957
0.1814218
0.18143924
0.18145437
0.18146787
0.18148012
0.1814915
0.18150251
0.18151369
0.18152563
0.18153949
0.18155508
0.18156738
0.1815735
0.18157827
0.18158624
0.18159935
0.18162
0.18165078
0.18169402
0.18175167
0.18182546
0.18191685
0.18202711
0.18215738
0.18230872
0.18248218
0.18267885
0.18289983
0.18314628
0.18341946
0.18372069
0.18405147
0.18441351
0.18480882
0.18523985
0.18570946
0.18622176
0.18678118
0.18739264
0.18806296
0.18880041
0.1896145
0.19051266
0.19152566
0.19259498
0.19365711
0.19459225
0.19537495
0.19600282
0.19649112
0.19686041
0.19713097
0.19732151
0.19745024
0.19753396
0.19758475
0.19761583
0.19763858
0.19766281
0.19766961
0.19762339
0.19755623
0.19752594
0.1975383
0.1975915
0.19768282
0.19780903
0.19796538
0.19814667
0.19834775
0.19856355
0.19878929
0.1990206
0.1992536
0.19948493
0.19971177
0.19993181
0.20014324
0.20034468
0.20053513
0.20071395
0.20088078
0.20103547
0.20117817
0.20130913
0.20142862
0.20153694
0.20163442
0.20172134
0.20179835
0.17943209
0.17945167
0.17946922
0.17948557
0.17950108
0.17951611
0.17953106
0.17954648
0.17956307
0.1795821
0.17960266
0.17961911
0.17963015
0.17964145
0.17965685
0.17967846
0.17970858
0.17974957
0.17980358
0.17987244