/*--------------------------------*- C++ -*----------------------------------*\
  =========                 |
  \\      /  F ield         | OpenFOAM: The Open Source CFD Toolbox
   \\    /   O peration     | Website:  https://openfoam.org
    \\  /    A nd           | Version:  6
     \\/     M anipulation  |
\*---------------------------------------------------------------------------*/
FoamFile
{
    version     2.0;
    format      ascii;
    class       volScalarField;
    location    "0";
    object      nut;
}
// * * * * * * * * * * * * * * * * * * * * * * * * * * * * * * * * * * * * * //

dimensions      [0 2 -1 0 0 0 0];

internalField   nonuniform List<scalar> 
78300
(
4.9349377e-11
4.0286402e-11
4.1883683e-11
4.8803583e-11
3.5014048e-11
1.6071749e-11
1.7897039e-11
8.6556607e-12
1.8417696e-12
1e-10
2.3335173e-13
1.258044e-13
1.085526e-13
1e-10
8.5147314e-14
1.0005223e-13
6.7948402e-14
5.3955361e-14
6.748244e-14
8.5161805e-14
6.3898586e-14
5.4891321e-14
7.058408e-14
8.6454448e-14
7.0965189e-14
6.5963124e-14
9.1603844e-14
1.122462e-13
9.8743338e-14
9.9218486e-14
1.4272949e-13
1.734952e-13
1.5925701e-13
1.7291163e-13
2.4795798e-13
2.9896555e-13
2.7553616e-13
3.2335879e-13
3.8314391e-13
5.1989468e-13
4.6807102e-13
5.9496947e-13
8.306771e-13
8.4980639e-13
6.7420108e-13
1.0290888e-12
1.4916245e-12
1.3379951e-12
1.1552163e-12
1.7170591e-12
2.2522729e-12
1.996808e-12
1.8773966e-12
2.6767178e-12
3.1072175e-12
2.6205383e-12
2.6857188e-12
3.5563173e-12
3.5506694e-12
2.7786137e-12
3.1104649e-12
3.8029554e-12
3.7429647e-12
3.9336359e-12
4.8094432e-12
5.9269817e-12
7.1500183e-12
5.4441632e-12
8.2609513e-12
8.9041699e-12
9.9469353e-12
8.2088124e-12
1.1745532e-11
1.4029494e-11
1.2424543e-11
1.1093777e-11
1.5389723e-11
1.7321626e-11
1.4690659e-11
1.4177152e-11
1.9223369e-11
2.0207986e-11
1.6745136e-11
1.7459974e-11
2.3199015e-11
2.2817138e-11
1.8557999e-11
2.0916521e-11
2.689566e-11
2.5137493e-11
2.00751e-11
2.4487476e-11
2.5552772e-11
2.7122347e-11
2.0608813e-11
2.8100837e-11
2.7875019e-11
2.8728727e-11
2.3666575e-11
3.168146e-11
3.5755257e-11
2.9924626e-11
2.667529e-11
3.5152777e-11
3.7881934e-11
3.0693075e-11
2.9573031e-11
3.8421879e-11
3.8935141e-11
3.1029323e-11
3.2303414e-11
4.1324897e-11
3.9377005e-11
3.0942716e-11
3.4819947e-11
4.3238772e-11
3.9327259e-11
3.0454785e-11
3.7088079e-11
3.747166e-11
3.8849441e-11
2.947041e-11
3.9085509e-11
3.7918282e-11
3.8002138e-11
3.1255686e-11
4.0800159e-11
4.5146797e-11
3.6836095e-11
3.2785543e-11
4.2221454e-11
4.4675956e-11
3.5396891e-11
3.4053272e-11
4.3319065e-11
4.3197046e-11
3.3756525e-11
3.5089032e-11
4.402249e-11
4.1364263e-11
3.1942902e-11
3.5890003e-11
4.3754004e-11
3.9347085e-11
3.0004266e-11
3.6481365e-11
3.6236738e-11
3.7222381e-11
2.7973778e-11
3.6877433e-11
3.548202e-11
3.5031731e-11
2.8767128e-11
3.7090345e-11
4.0743605e-11
3.2805242e-11
2.915346e-11
3.712375e-11
3.9017229e-11
3.0571691e-11
2.9367227e-11
3.6971348e-11
3.6640674e-11
2.8351665e-11
2.9426814e-11
3.6550523e-11
3.4170522e-11
2.6153261e-11
2.9340465e-11
3.5400571e-11
3.171476e-11
2.398346e-11
2.9115313e-11
2.8619853e-11
2.9305439e-11
2.1847509e-11
2.8755086e-11
2.7596383e-11
2.6947895e-11
2.2094566e-11
2.825194e-11
3.0917888e-11
2.4633802e-11
2.1858705e-11
2.7580031e-11
2.8828503e-11
2.2345476e-11
2.1433294e-11
2.6691294e-11
2.6252385e-11
2.0062141e-11
2.0791961e-11
2.5461636e-11
2.3555149e-11
1.7732154e-11
1.9862782e-11
2.3496031e-11
2.0701101e-11
1.5287762e-11
1.8529242e-11
1.7654427e-11
1.7574144e-11
1.3263548e-11
1.6507925e-11
1.5145753e-11
1.3766429e-11
1.126628e-11
1.3134542e-11
1.4299842e-11
1.1974126e-11
1.0698102e-11
1.4224335e-11
1.5111601e-11
1.2389745e-11
1.2092554e-11
1.5864187e-11
1.5370559e-11
1.2286107e-11
1.3073885e-11
1.6997227e-11
1.5071632e-11
1.1870492e-11
1.37569e-11
1.8139451e-11
1.491185e-11
1.1703133e-11
1.4763019e-11
1.7337798e-11
1.4986127e-11
1.1797986e-11
1.5935085e-11
1.445849e-11
1.5093254e-11
1.2868766e-11
1.7111687e-11
1.727556e-11
1.44665e-11
1.3331855e-11
1.7315932e-11
1.6783361e-11
1.3524461e-11
1.3466252e-11
1.7494727e-11
1.6049667e-11
1.2809293e-11
1.3786283e-11
1.821047e-11
1.6217439e-11
1.3682915e-11
1.5935321e-11
2.3413609e-11
2.0535475e-11
1.8294952e-11
2.3053122e-11
3.7332452e-11
3.3802699e-11
1e-10
4.4597718e-11
5.6503346e-11
6.4681025e-11
1e-10
7.9494623e-11
8.3756262e-11
5.9509142e-11
5.3284932e-11
5.3735822e-11
4.8439009e-11
3.0726322e-11
2.9551205e-11
4.2982219e-11
4.9479313e-11
4.0300992e-11
4.190441e-11
8.1385443e-10
6.0607532e-10
1.6060422e-11
1.7927318e-11
1.3933538e-10
3.357089e-11
1.9911102e-13
4.3955424e-12
1.7615395e-12
1.081988e-13
8.0078352e-14
8.551676e-14
1.1070827e-13
6.7662649e-14
5.4271539e-14
6.7801978e-14
8.5368004e-14
6.3597795e-14
5.5209447e-14
7.0937201e-14
8.6287568e-14
7.0614624e-14
6.6328796e-14
9.2101056e-14
1.1191448e-13
9.8230634e-14
9.9751095e-14
1.4364319e-13
1.7289592e-13
1.5837298e-13
1.7382816e-13
2.5014491e-13
2.9782071e-13
2.7387371e-13
3.2508316e-13
3.8384294e-13
5.1779516e-13
4.6504914e-13
5.9816699e-13
1.0209795e-12
8.4642381e-13
6.7833033e-13
1.0347177e-12
1.5210047e-12
1.3332151e-12
1.1611965e-12
1.7270797e-12
2.2666892e-12
1.9912549e-12
1.8850196e-12
2.6959073e-12
3.1180745e-12
2.616185e-12
2.6933958e-12
3.597467e-12
3.5608543e-12
2.7781268e-12
3.1154073e-12
3.9142463e-12
3.7541314e-12
3.9384264e-12
4.8140361e-12
7.1203075e-12
7.1669716e-12
5.4433429e-12
8.2728686e-12
1.0455213e-11
9.9660194e-12
8.2088443e-12
1.1771133e-11
1.4442631e-11
1.2444531e-11
1.1095612e-11
1.544225e-11
1.7524121e-11
1.471103e-11
1.4182024e-11
1.9334374e-11
2.0336863e-11
1.6765597e-11
1.746961e-11
2.3461779e-11
2.2910539e-11
1.857834e-11
2.0933466e-11
2.771156e-11
2.5210327e-11
2.0095131e-11
2.4515651e-11
3.0559838e-11
2.7181675e-11
2.0611216e-11
2.814666e-11
3.2878822e-11
2.8778361e-11
2.3672551e-11
3.1756284e-11
3.6816885e-11
2.9966819e-11
2.6685918e-11
3.5278883e-11
3.832171e-11
3.0729252e-11
2.9589703e-11
3.8649786e-11
3.9177868e-11
3.1060438e-11
3.2328009e-11
4.179746e-11
3.9531672e-11
3.0969441e-11
3.4855143e-11
4.4543128e-11
3.9434262e-11
3.0477611e-11
3.7137925e-11
4.4622295e-11
3.8927243e-11
2.948174e-11
3.9156563e-11
4.4939292e-11
3.8060515e-11
3.1271349e-11
4.0903902e-11
4.6498386e-11
3.6880689e-11
3.280624e-11
4.23802e-11
4.5190911e-11
3.5431234e-11
3.4079953e-11
4.3582745e-11
4.3459917e-11
3.3782972e-11
3.512308e-11
4.4530092e-11
4.1519756e-11
3.1963065e-11
3.5933457e-11
4.5064646e-11
3.9447117e-11
3.0019302e-11
3.6537412e-11
4.2955134e-11
3.7290038e-11
2.7984531e-11
3.6951295e-11
4.2244066e-11
3.5078807e-11
2.8788691e-11
3.7191277e-11
4.1971979e-11
3.2838397e-11
2.9178642e-11
3.7269595e-11
3.9463243e-11
3.0594965e-11
2.9396677e-11
3.7201883e-11
3.6858039e-11
2.8367647e-11
2.9461499e-11
3.6975148e-11
3.4293114e-11
2.616368e-11
2.9381833e-11
3.645285e-11
3.1789668e-11
2.3989515e-11
2.9165616e-11
3.3770885e-11
2.9353228e-11
2.1850055e-11
2.8817988e-11
3.2989764e-11
2.6978898e-11
2.211661e-11
2.8333809e-11
3.1855221e-11
2.4653755e-11
2.188266e-11
2.7692953e-11
2.9154904e-11
2.2357806e-11
2.145948e-11
2.6861561e-11
2.6403936e-11
2.0069032e-11
2.082079e-11
2.5759404e-11
2.3635531e-11
1.7735084e-11
1.9894732e-11
2.418844e-11
2.0746213e-11
1.5287816e-11
1.8564788e-11
2.0734132e-11
1.7599491e-11
1.3279295e-11
1.6547063e-11
1.819014e-11
1.3779572e-11
1.1279981e-11
1.3173744e-11
1.4717806e-11
1.1993158e-11
1.0696235e-11
1.4265146e-11
1.528636e-11
1.2425192e-11
1.20725e-11
1.5919641e-11
1.5480741e-11
1.2336058e-11
1.3037563e-11
1.7106214e-11
1.5159671e-11
1.1932048e-11
1.3707813e-11
1.8496093e-11
1.4993482e-11
1.1774999e-11
1.4704309e-11
2.1314689e-11
1.5066792e-11
1.1721986e-11
1.5870861e-11
1.4448811e-11
1.5173951e-11
1.2791297e-11
1.7046374e-11
1.742589e-11
1.4543343e-11
1.3257962e-11
1.7255939e-11
1.6891118e-11
1.3597215e-11
1.339634e-11
1.7442857e-11
1.6136897e-11
1.2880449e-11
1.3718156e-11
1.8175173e-11
1.6298662e-11
1.3762364e-11
1.5860312e-11
2.3470164e-11
2.0632827e-11
1.840241e-11
2.2956189e-11
4.1330387e-11
3.3949547e-11
3.2892531e-11
4.4452568e-11
7.8738436e-10
1.1497075e-09
5.4145974e-11
1.4004751e-09
1.3386079e-09
5.9609392e-11
5.3246891e-11
9.2890694e-10
8.0785818e-10
3.074149e-11
2.9561886e-11
4.3095438e-11
8.210301e-10
7.5303757e-10
7.7234845e-10
8.2209499e-10
6.0779976e-10
3.0976288e-10
3.2466288e-10
1.4272991e-10
3.359422e-11
1.9850013e-13
4.4056865e-12
1.955219e-12
1.9508146e-12
1.5543173e-12
1.4960047e-12
1.9514511e-12
1.2365112e-12
1.0387729e-12
1.1638289e-12
1.5167815e-12
1.1756504e-12
1.0393707e-12
1.1947072e-12
1.517895e-12
1.3203948e-12
1.2305383e-12
1.5170377e-12
1.9706503e-12
1.8586918e-12
1.8225125e-12
2.2978046e-12
3.0628616e-12
3.0357134e-12
3.1271543e-12
3.806626e-12
5.3215212e-12
5.3257472e-12
5.7559345e-12
5.2969874e-12
9.3441705e-12
9.1862879e-12
1.0425397e-11
1.6039182e-11
1.5434656e-11
1.3020823e-11
1.7758055e-11
2.6380301e-11
2.4561322e-11
2.1947609e-11
2.9205258e-11
3.9131709e-11
3.7062744e-11
3.5128287e-11
4.4949605e-11
5.3864705e-11
4.923769e-11
4.9557927e-11
5.9168753e-11
6.1773654e-11
5.2934466e-11
5.6717605e-11
6.3283693e-11
6.5679686e-11
7.5610022e-11
8.678717e-11
1.044824e-10
1.2681037e-10
1.0737857e-10
1.4708236e-10
1.5274511e-10
1.7879008e-10
1.5903579e-10
2.0644246e-10
2.3359413e-10
2.2636636e-10
2.1150781e-10
2.6711235e-10
2.9170532e-10
2.7136132e-10
2.6625154e-10
3.2962164e-10
3.4482443e-10
3.1373145e-10
3.2324523e-10
3.9338042e-10
3.9452991e-10
3.5286765e-10
3.8194566e-10
4.5290796e-10
4.4040219e-10
3.876773e-10
4.4122547e-10
4.479525e-10
4.8146007e-10
4.0531352e-10
4.9977422e-10
4.8073375e-10
5.1676628e-10
4.5779426e-10
5.5628056e-10
5.9698507e-10
5.4555785e-10
5.080108e-10
6.0948359e-10
6.3902052e-10
5.6731718e-10
5.5492152e-10
6.5797231e-10
6.6516382e-10
5.8173583e-10
5.9762522e-10
6.9950625e-10
6.81495e-10
5.8875815e-10
6.3543072e-10
7.2606794e-10
6.8954165e-10
5.8855071e-10
6.6787094e-10
6.5345035e-10
6.9011964e-10
5.7917625e-10
6.9470953e-10
6.5761742e-10
6.84015e-10
6.0425065e-10
7.1589759e-10
7.5599911e-10
6.7197157e-10
6.2408365e-10
7.314265e-10
7.5499523e-10
6.5464777e-10
6.3873517e-10
7.4101399e-10
7.3893952e-10
6.3323001e-10
6.489229e-10
7.4396815e-10
7.166199e-10
6.0813177e-10
6.5471766e-10
7.3272206e-10
6.9046924e-10
5.801627e-10
6.5668023e-10
6.2856423e-10
6.6168195e-10
5.4987412e-10
6.5515647e-10
6.1878336e-10
6.3094133e-10
5.5599369e-10
6.5041249e-10
6.8427708e-10
5.9876835e-10
5.5480683e-10
6.4260788e-10
6.6056601e-10
5.6568417e-10
5.5069655e-10
6.3173668e-10
6.2758893e-10
5.3207691e-10
5.4405126e-10
6.1668413e-10
5.9256767e-10
4.9810864e-10
5.3505717e-10
5.91188e-10
5.5696717e-10
4.6391773e-10
5.2387251e-10
4.9376366e-10
5.2127858e-10
4.2960627e-10
5.1059116e-10
4.8380546e-10
4.8561014e-10
4.2692598e-10
4.9510229e-10
5.2074767e-10
4.4983362e-10
4.1586769e-10
4.7700327e-10
4.8892865e-10
4.1364884e-10
4.0178898e-10
4.5555255e-10
4.502109e-10
3.7666526e-10
3.8425858e-10
4.2886422e-10
4.0886444e-10
3.3788316e-10
3.6205415e-10
3.9127018e-10
3.638316e-10
2.9589344e-10
3.3320116e-10
3.0290808e-10
3.1282383e-10
2.6025601e-10
2.9291425e-10
2.6697654e-10
2.4829136e-10
2.1730034e-10
2.3027699e-10
2.3795549e-10
2.1835161e-10
2.0398051e-10
2.4755844e-10
2.5150434e-10
2.2854853e-10
2.2759711e-10
2.7520431e-10
2.5826834e-10
2.2967848e-10
2.4317098e-10
2.9562032e-10
2.5653233e-10
2.2519303e-10
2.5312611e-10
3.2136848e-10
2.5754808e-10
2.2550772e-10
2.6879592e-10
3.3530096e-10
2.6280264e-10
2.3284111e-10
2.8715818e-10
1.9940152e-10
2.6875247e-10
2.4998419e-10
3.0528379e-10
2.6555441e-10
2.6163579e-10
2.5512731e-10
3.0630291e-10
2.7065088e-10
2.4839632e-10
2.5423063e-10
3.0764291e-10
2.6613828e-10
2.3893508e-10
2.5701651e-10
3.2015512e-10
2.7481513e-10
2.5922484e-10
2.938701e-10
4.1754927e-10
3.5457229e-10
3.5207413e-10
4.202931e-10
7.2840464e-10
5.9387119e-10
6.3873927e-10
8.0225217e-10
8.7364417e-10
1.152829e-09
5.3964454e-11
1.4009277e-09
1.3713248e-09
1.0811454e-09
1.0085681e-09
9.3154596e-10
8.1603052e-10
5.7074116e-10
5.5597181e-10
7.1475254e-10
8.253873e-10
7.534654e-10
7.7291902e-10
7.7424657e-09
5.8173057e-09
3.097052e-10
3.252096e-10
1.3350746e-09
3.3839816e-10
4.5808455e-12
4.6275917e-11
1.7196343e-11
1.8948178e-11
1.5605074e-12
1.4521401e-11
1.5110848e-11
1.2331778e-12
1.042997e-12
1.1241706e-11
1.5236972e-12
1.1719724e-12
1.0435103e-12
1.1992544e-12
1.5182854e-12
1.3160223e-12
1.2352019e-12
1.524606e-12
1.9689183e-12
1.8521483e-12
1.8292581e-12
2.3172602e-12
3.0582735e-12
3.0241332e-12
3.1388073e-12
3.9000813e-12
5.3110871e-12
5.3033914e-12
5.7782873e-12
6.6589382e-12
9.3235005e-12
9.2688819e-11
1.0469347e-11
2.0387746e-11
1.5400819e-11
1.3154489e-10
1.7846153e-11
2.720413e-11
2.4515022e-11
2.1988611e-10
2.940305e-11
3.9659986e-11
3.701423e-11
3.4906876e-10
4.5449516e-11
5.4317432e-11
4.8744645e-10
4.9693778e-11
6.0488527e-11
6.2155505e-11
5.2832204e-10
5.6843162e-11
6.7048048e-11
6.6002937e-11
7.5711191e-11
8.697229e-11
1.4033642e-10
1.2727294e-10
1.0741064e-10
1.4752291e-10
2.0409191e-10
1.7929058e-10
1.5911195e-10
2.0734046e-10
2.4749611e-10
2.2687167e-10
2.1165339e-10
2.6889625e-10
2.9831523e-10
2.7185934e-10
2.6650212e-10
3.3332033e-10
3.4888542e-10
3.142168e-10
3.2365258e-10
4.0203578e-10
3.973723e-10
3.5333758e-10
3.825881e-10
4.7938977e-10
4.4254661e-10
3.8812993e-10
4.4222614e-10
6.0102567e-10
4.8315404e-10
4.0550793e-10
5.0133806e-10
6.4286391e-10
5.1814452e-10
4.5809148e-10
5.5877537e-10
6.3237605e-10
5.467009e-10
5.0844184e-10
6.1363917e-10
6.5340687e-10
5.6827686e-10
5.5552787e-10
6.6545525e-10
6.7291458e-10
5.8254751e-10
5.9846473e-10
7.1503587e-10
6.8632117e-10
5.8944713e-10
6.3658781e-10
7.6877653e-10
6.9281338e-10
5.8913582e-10
6.694757e-10
8.7612738e-10
6.9245921e-10
5.7956203e-10
6.9697569e-10
8.8054167e-10
6.8574925e-10
6.0474721e-10
7.1920334e-10
8.0065315e-10
6.7328754e-10
6.2471371e-10
7.3651316e-10
7.7188079e-10
6.5566142e-10
6.3952998e-10
7.4955088e-10
7.4745021e-10
6.3401783e-10
6.4992786e-10
7.6061321e-10
7.216025e-10
6.0874564e-10
6.5600005e-10
7.7602614e-10
6.9365698e-10
5.806394e-10
6.5834544e-10
8.4189561e-10
6.6384003e-10
5.5024035e-10
6.5737787e-10
8.2939532e-10
6.3245715e-10
5.565465e-10
6.5349911e-10
7.2450468e-10
5.9985855e-10
5.554561e-10
6.4715959e-10
6.7522589e-10
5.6647873e-10
5.5146492e-10
6.390997e-10
6.3472719e-10
5.3265826e-10
5.4497155e-10
6.3057812e-10
5.9660827e-10
4.9853123e-10
5.3617812e-10
6.2627542e-10
5.5946528e-10
4.6421883e-10
5.2526961e-10
6.6069268e-10
5.2290983e-10
4.2981216e-10
5.1238756e-10
6.4873832e-10
4.8671132e-10
4.2742392e-10
4.9751324e-10
5.5117791e-10
4.5059008e-10
4.1642098e-10
4.8044049e-10
4.9968236e-10
4.1416991e-10
4.0240995e-10
4.6091886e-10
4.5526139e-10
3.7701944e-10
3.8496317e-10
4.3858583e-10
4.1159456e-10
3.3811527e-10
3.628617e-10
4.1457318e-10
3.6541389e-10
2.9603445e-10
3.3413316e-10
4.0486825e-10
3.1376048e-10
2.605758e-10
2.9398181e-10
3.5845436e-10
2.4882046e-10
2.1758801e-10
2.3141189e-10
2.520918e-10
2.1883513e-10
2.0385238e-09
2.4908938e-10
2.5711031e-10
2.291781e-10
2.2587143e-09
2.775191e-10
2.6114304e-10
2.2777525e-09
2.4286043e-10
2.9961801e-10
2.5827563e-10
2.2490299e-09
2.5265902e-10
3.3137322e-10
2.5883629e-10
2.2675951e-09
2.6821722e-10
4.2639518e-10
2.6392456e-10
2.366285e-09
2.8653539e-10
2.5061863e-10
2.698165e-10
2.4896191e-10
3.0469656e-10
2.720032e-10
2.6263024e-10
2.5417391e-10
3.0584435e-10
2.7296038e-10
2.4933264e-10
2.5334792e-10
3.0737073e-10
2.6747321e-10
2.3985326e-10
2.5617155e-10
3.2023592e-10
2.7586546e-10
2.6026762e-10
2.9296032e-10
4.194503e-10
3.4237102e-09
3.5352627e-10
4.1917155e-10
5.6341057e-09
5.7509421e-09
6.4129012e-10
7.7830242e-09
7.6266475e-09
1.1139289e-08
1.0504065e-09
1.3380764e-08
1.2659168e-08
1.0829003e-09
1.0083046e-09
8.8869629e-09
7.6851234e-09
5.7115835e-10
5.5628541e-10
7.1854941e-10
7.7866508e-09
7.4254417e-09
7.5765385e-09
7.8231958e-09
5.8343781e-09
3.1440873e-09
3.1632213e-09
1.3694441e-09
3.388899e-10
5.6871713e-11
4.6344617e-11
1.9525316e-11
1.8925917e-11
1.5699205e-11
1.4559708e-11
1.8797271e-11
1.2058646e-11
1.0479976e-11
1.1272219e-11
1.4350803e-11
1.1508041e-11
1.0413929e-11
1.1524256e-11
1.4421429e-11
1.2983341e-11
1.2268795e-11
1.4562546e-11
1.8795377e-11
1.8353447e-11
1.8059719e-11
2.1972461e-11
2.9328969e-11
3.0119709e-11
3.0799271e-11
3.6396639e-11
5.1168533e-11
5.3154714e-11
5.6347345e-11
5.4271374e-11
9.0276308e-11
9.2362512e-11
1.0148911e-10
1.5958836e-10
1.4993855e-10
1.3196022e-10
1.7202808e-10
2.5111913e-10
2.3994997e-10
2.2052309e-10
2.8163661e-10
3.7304808e-10
3.6426328e-10
3.4999161e-10
4.3176066e-10
5.156513e-10
4.873832e-10
4.8974843e-10
5.671535e-10
5.9432498e-10
5.2863733e-10
5.5663623e-10
6.093474e-10
6.3655204e-10
7.5448079e-10
8.4781725e-10
1.0636001e-09
1.2297471e-09
1.093862e-09
1.42834e-09
1.5575331e-09
1.7422847e-09
1.6034118e-09
1.994584e-09
2.2461582e-09
2.2174202e-09
2.1149519e-09
2.5691137e-09
2.7913397e-09
2.672783e-09
2.6430421e-09
3.158593e-09
3.3050375e-09
3.1085079e-09
3.1879372e-09
3.7619516e-09
3.7940579e-09
3.5189604e-09
3.7444537e-09
4.350109e-09
4.2523573e-09
3.893708e-09
4.3019148e-09
4.5583357e-09
4.6697287e-09
4.1109682e-09
4.8480903e-09
4.8971605e-09
5.0366142e-09
4.6049379e-09
5.3710708e-09
5.7371477e-09
5.3451545e-09
5.0722186e-09
5.8600272e-09
6.1126478e-09
5.5897877e-09
5.5033858e-09
6.3041684e-09
6.374283e-09
5.7669515e-09
5.8905042e-09
6.6899188e-09
6.5536678e-09
5.8754924e-09
6.2277239e-09
6.9757938e-09
6.658985e-09
5.9163933e-09
6.5113635e-09
6.6535995e-09
6.6955739e-09
5.8705103e-09
6.7400311e-09
6.6985497e-09
6.6695463e-09
6.076052e-09
6.9142717e-09
7.2663865e-09
6.5872457e-09
6.2305491e-09
7.0354071e-09
7.2240438e-09
6.454323e-09
6.3352399e-09
7.1034569e-09
7.0838122e-09
6.2817861e-09
6.3976987e-09
7.1193413e-09
6.8942711e-09
6.0733246e-09
6.4190028e-09
7.0445183e-09
6.6708669e-09
5.8365328e-09
6.4049361e-09
6.4055514e-09
6.4225348e-09
5.576619e-09
6.3592087e-09
6.3032856e-09
6.1548078e-09
5.5917733e-09
6.2847601e-09
6.5783984e-09
5.8722094e-09
5.5402273e-09
6.1839984e-09
6.3220909e-09
5.579532e-09
5.4635109e-09
6.0587051e-09
6.0178229e-09
5.2804313e-09
5.3653014e-09
5.9040061e-09
5.7020951e-09
4.9764216e-09
5.2473021e-09
5.6865591e-09
5.3821369e-09
4.6687931e-09
5.1109822e-09
5.0351059e-09
5.0606362e-09
4.3584944e-09
4.9572566e-09
4.9267176e-09
4.7378917e-09
4.2939564e-09
4.7851887e-09
5.0059953e-09
4.4122868e-09
4.1529871e-09
4.5913756e-09
4.67938e-09
4.0806784e-09
3.9862903e-09
4.3699473e-09
4.3170258e-09
3.7389258e-09
3.7894259e-09
4.1067809e-09
3.9344574e-09
3.3768839e-09
3.5505236e-09
3.7646034e-09
3.516082e-09
2.9796007e-09
3.2503324e-09
3.09038e-09
3.0374119e-09
2.6348895e-09
2.8433297e-09
2.7181802e-09
2.4238701e-09
2.1802176e-09
2.2289788e-09
2.29105e-09
2.1430402e-09
2.0397522e-09
2.383005e-09
2.4115499e-09
2.2570097e-09
2.2585177e-09
2.6368003e-09
2.4819948e-09
2.2840062e-09
2.3967787e-09
2.821488e-09
2.4750621e-09
2.2559605e-09
2.4803417e-09
3.0637178e-09
2.495942e-09
2.2753922e-09
2.6188781e-09
3.3424882e-09
2.5585035e-09
2.3586265e-09
2.7825538e-09
2.0474023e-09
2.6285163e-09
2.5109051e-09
2.9420601e-09
2.5424821e-09
2.5727978e-09
2.5428767e-09
2.9376374e-09
2.5902385e-09
2.4565449e-09
2.5175761e-09
2.9368413e-09
2.5554606e-09
2.3773597e-09
2.530428e-09
3.0432799e-09
2.6509268e-09
2.5939407e-09
2.8815723e-09
3.9513942e-09
3.4331338e-09
3.5411977e-09
4.1017036e-09
7.0095214e-09
5.7662633e-09
6.4380427e-09
7.7744047e-09
8.6613244e-09
1.1165927e-08
1.0539719e-08
1.3387869e-08
1.2987151e-08
1.0542275e-08
9.9384192e-09
8.9129335e-09
7.7650454e-09
5.6623303e-09
5.5372872e-09
6.7750573e-09
4.3899746e-08
4.3538485e-08
4.422129e-08
4.4015142e-08
3.3342246e-08
3.1441512e-09
1.8363922e-08
7.6762817e-09
2.0299753e-09
5.6985606e-11
2.8767891e-10
1.0206145e-10
1.0982984e-10
1.5751005e-11
8.4568251e-11
8.8672201e-11
7.0343193e-11
6.269763e-11
6.5209715e-11
8.0185565e-11
6.7376807e-11
6.1961072e-11
6.6434711e-11
8.1729048e-11
7.6316427e-11
7.2707912e-11
8.3541168e-11
1.0715603e-10
1.0827536e-10
1.0647469e-10
1.2541116e-10
1.6799531e-10
1.7842898e-10
1.8063379e-10
2.0621506e-10
2.9436935e-10
3.1651476e-10
3.2872552e-10
2.8037865e-10
5.2178492e-10
5.5346364e-10
5.8910577e-10
7.2512296e-10
8.7096463e-10
7.9209931e-10
9.9371694e-10
1.3701231e-09
1.4006238e-09
1.3147398e-09
1.6177031e-09
3.7793948e-10
2.1367752e-09
2.0723847e-09
4.3667988e-10
5.2002833e-10
2.8754442e-09
2.8803911e-09
5.8033613e-10
5.9807354e-10
3.1405946e-09
3.2545268e-09
6.4620194e-10
3.6711114e-09
4.476203e-09
4.9346785e-09
5.1338608e-09
7.102197e-09
6.6017655e-09
8.2603869e-09
7.5999309e-09
1.0110519e-08
9.5927294e-09
1.1465326e-08
1.2244258e-08
1.2929907e-08
1.256301e-08
1.4671973e-08
1.5639967e-08
1.566149e-08
1.5598768e-08
1.789533e-08
1.8730297e-08
1.8308796e-08
1.8703157e-08
2.1050304e-08
2.1656456e-08
2.0840746e-08
2.1845438e-08
2.362893e-08
2.4411734e-08
2.3198058e-08
2.4963039e-08
2.2020236e-08
2.6947232e-08
2.4698402e-08
2.7983579e-08
2.3818078e-08
2.9211159e-08
2.7475961e-08
3.0833902e-08
3.1223007e-08
3.1158603e-08
3.0074288e-08
3.3439674e-08
3.422017e-08
3.2756254e-08
3.2441961e-08
3.5704897e-08
3.6111278e-08
3.3981286e-08
3.4536217e-08
3.7439399e-08
3.7410156e-08
3.4824269e-08
3.6326023e-08
3.7924601e-08
3.8243286e-08
3.5287771e-08
3.7791771e-08
3.2230464e-08
3.8665664e-08
3.5261412e-08
3.8925302e-08
3.2529673e-08
3.8719752e-08
3.6259733e-08
3.9726023e-08
3.9554725e-08
3.8444806e-08
3.6960494e-08
4.0189628e-08
4.0476058e-08
3.7873206e-08
3.7373431e-08
4.0282575e-08
4.0174163e-08
3.7068094e-08
3.7544575e-08
3.9901325e-08
3.9401165e-08
3.6050372e-08
3.7480806e-08
3.837194e-08
3.8358584e-08
3.486344e-08
3.7215229e-08
3.1133977e-08
3.713405e-08
3.3537286e-08
3.67675e-08
3.0574183e-08
3.5773665e-08
3.3395356e-08
3.6149382e-08
3.5824087e-08
3.4309946e-08
3.2891047e-08
3.5364253e-08
3.5449035e-08
3.2773962e-08
3.2255363e-08
3.4394211e-08
3.4155126e-08
3.1188946e-08
3.1508631e-08
3.3125841e-08
3.2611338e-08
2.956496e-08
3.0659398e-08
3.1018888e-08
3.0968233e-08
2.7910218e-08
2.9714489e-08
2.4539589e-08
2.9276484e-08
2.6230676e-08
2.8676803e-08
2.385615e-08
2.7551923e-08
2.5650923e-08
2.7536943e-08
2.7255229e-08
2.5791396e-08
2.466011e-08
2.6267825e-08
2.6240911e-08
2.3979636e-08
2.3537423e-08
2.4817825e-08
2.4505935e-08
2.2093102e-08
2.2255653e-08
2.3053578e-08
2.2505627e-08
2.0072027e-08
2.0745745e-08
2.0553484e-08
2.0235272e-08
1.7824022e-08
1.8895489e-08
1.509535e-08
1.7576545e-08
1.582563e-08
1.6446028e-08
1.3130954e-08
1.410455e-08
1.299814e-08
1.2845806e-08
2.4294607e-09
1.2532527e-08
1.2133177e-08
2.3980476e-09
2.4675613e-09
1.3268682e-08
1.3354929e-08
2.6592242e-09
2.5103348e-09
1.3505438e-08
1.4096886e-08
2.8585824e-09
1.4226358e-08
1.3419542e-08
1.4519345e-08
1.6743776e-08
1.4426153e-08
1.3611395e-08
1.5255439e-08
1.5215628e-08
1.4854609e-08
1.4221009e-08
1.6127848e-08
1.0605046e-08
1.5322852e-08
1.5030009e-08
1.6960455e-08
1.4425341e-08
1.5066189e-08
1.5118857e-08
1.6847508e-08
1.4790146e-08
1.4453077e-08
1.4882793e-08
1.6750201e-08
1.4655495e-08
1.4055595e-08
1.4880829e-08
1.7242086e-08
1.5269388e-08
1.5400977e-08
1.6877465e-08
2.2053362e-08
1.9823084e-08
2.1089104e-08
2.3890441e-08
3.2939348e-08
3.3303686e-08
6.4594349e-09
4.4843646e-08
4.466791e-08
6.4022987e-08
1.0523648e-08
7.5753136e-08
7.1181422e-08
6.0787195e-08
9.936832e-09
5.0547182e-08
4.3609356e-08
3.333638e-08
3.2714824e-08
3.8197102e-08
4.4137878e-08
4.3562841e-08
4.4253104e-08
4.4476585e-08
3.344085e-08
1.8910663e-08
1.8391583e-08
3.1355566e-08
2.0343291e-09
3.9460945e-10
2.8790711e-10
1.1765951e-10
1.0974489e-10
9.4241388e-11
8.4754146e-11
1.0733266e-10
7.0241065e-11
6.2849246e-11
6.5353984e-11
8.1138123e-11
6.7253288e-11
6.2105924e-11
6.6597859e-11
8.1958885e-11
7.6164831e-11
7.2862974e-11
8.3822891e-11
1.0724023e-10
1.0804003e-10
1.0669583e-10
1.2615266e-10
1.6797452e-10
1.7799912e-10
1.810189e-10
2.0963237e-10
2.9416329e-10
3.1566946e-10
3.2949338e-10
3.3845301e-10
5.2126467e-10
5.5188741e-10
5.9072551e-10
9.4076056e-10
8.7008224e-10
7.9388425e-10
9.9725953e-10
1.4284988e-09
1.3994916e-09
1.3176009e-09
1.6265221e-09
2.127903e-09
2.135873e-09
2.0768061e-09
2.4855151e-09
2.9545196e-09
2.8756719e-09
2.8865138e-09
3.2601749e-09
3.4220648e-09
3.1426403e-09
3.2612955e-09
3.5192815e-09
3.6887425e-09
4.4813806e-09
4.946021e-09
6.4602454e-09
7.1273935e-09
6.6047835e-09
8.2865586e-09
9.4918699e-09
1.0137653e-08
9.5985836e-09
1.1517517e-08
1.2943293e-08
1.2957119e-08
1.2573091e-08
1.4773806e-08
1.5990941e-08
1.5688081e-08
1.5615047e-08
1.8102873e-08
1.8950203e-08
1.8334429e-08
1.8728516e-08
2.1525277e-08
2.1811792e-08
2.0865228e-08
2.1884232e-08
2.5007805e-08
2.4529468e-08
2.3221238e-08
2.5022106e-08
2.765853e-08
2.7040428e-08
2.4711705e-08
2.8074255e-08
2.9779894e-08
2.9287014e-08
2.7495131e-08
3.0976433e-08
3.3015537e-08
3.1221451e-08
3.0101031e-08
3.3673913e-08
3.4989532e-08
3.2808903e-08
3.2478572e-08
3.6120651e-08
3.6534367e-08
3.4025656e-08
3.4585899e-08
3.8284189e-08
3.7676571e-08
3.4861734e-08
3.6393454e-08
4.0128567e-08
3.842528e-08
3.5319351e-08
3.7884141e-08
4.0426326e-08
3.8796601e-08
3.5284049e-08
3.9054381e-08
4.073546e-08
3.8817342e-08
3.628858e-08
3.9912515e-08
4.1840352e-08
3.8519258e-08
3.6996802e-08
4.0473755e-08
4.1388272e-08
3.7930881e-08
3.7418927e-08
4.0753561e-08
4.0643754e-08
3.7113205e-08
3.7601775e-08
4.0801004e-08
3.9679682e-08
3.6085781e-08
3.755343e-08
4.0590871e-08
3.853866e-08
3.4891179e-08
3.7309082e-08
3.8995939e-08
3.7257209e-08
3.3558824e-08
3.6892088e-08
3.8346497e-08
3.586113e-08
3.342527e-08
3.632153e-08
3.7905845e-08
3.4373663e-08
3.292646e-08
3.561629e-08
3.6249075e-08
3.2821136e-08
3.2297504e-08
3.4797516e-08
3.4553136e-08
3.1224164e-08
3.1559298e-08
3.3871617e-08
3.2839961e-08
2.959126e-08
3.0721261e-08
3.2802796e-08
3.1111511e-08
2.7929682e-08
2.9791674e-08
3.0695645e-08
2.9371434e-08
2.624477e-08
2.8776014e-08
2.9960519e-08
2.7617156e-08
2.5676479e-08
2.7669809e-08
2.8845917e-08
2.5837212e-08
2.4688989e-08
2.6456346e-08
2.68332e-08
2.4012134e-08
2.3570274e-08
2.5109392e-08
2.4790269e-08
2.2116109e-08
2.2293327e-08
2.3571333e-08
2.2661906e-08
2.0088042e-08
2.0789279e-08
2.1728184e-08
2.0327414e-08
1.7834751e-08
1.8946044e-08
1.8857697e-08
1.7632217e-08
1.5841066e-08
1.650416e-08
1.6521638e-08
1.4136872e-08
1.3012538e-08
1.2907877e-08
1.3233798e-08
1.2558619e-08
1.214119e-08
1.3729736e-08
1.3868838e-08
1.3297542e-08
1.3356875e-08
1.51232e-08
1.4298107e-08
1.3536353e-08
1.4092618e-08
1.6116091e-08
1.4305334e-08
1.3452499e-08
1.4509794e-08
1.7457213e-08
1.4479951e-08
1.3647772e-08
1.5242311e-08
1.9744473e-08
1.4898599e-08
1.4186635e-08
1.6114257e-08
1.280253e-08
1.5363084e-08
1.4995608e-08
1.695046e-08
1.4661866e-08
1.5102561e-08
1.5086649e-08
1.6846198e-08
1.4879835e-08
1.4486714e-08
1.4853161e-08
1.6763617e-08
1.4706252e-08
1.4088239e-08
1.4852693e-08
1.7290822e-08
1.5307787e-08
1.5439178e-08
1.6848689e-08
2.2315455e-08
1.9868076e-08
2.1144286e-08
2.3858344e-08
3.9870726e-08
3.3378051e-08
3.8399815e-08
4.4813742e-08
5.1519284e-08
6.4155057e-08
6.2259027e-08
7.5806311e-08
2.8046765e-07
6.0863805e-08
5.7896342e-08
5.0695463e-08
4.4064533e-08
3.3359271e-08
3.2732538e-08
3.8405252e-08
1.7980371e-07
1.8283297e-07
1.8511921e-07
1.8068646e-07
1.3779567e-07
8.0959342e-08
7.6858599e-08
3.2041536e-08
8.7375908e-09
3.9599604e-10
1.2705853e-09
4.4289431e-10
4.6026135e-10
9.4495627e-11
3.5593335e-10
3.7599394e-10
2.9571004e-10
2.6930037e-10
2.7369649e-10
3.2995931e-10
2.8389387e-10
2.6515161e-10
2.7825853e-10
3.3735271e-10
3.223569e-10
3.1018581e-10
3.4890326e-10
4.4350731e-10
4.5832258e-10
4.5250011e-10
5.2288113e-10
6.9712781e-10
7.5714866e-10
7.6479111e-10
8.616533e-10
1.2247255e-09
1.3473558e-09
1.3867666e-09
1.2408936e-09
2.1779478e-09
2.3660268e-09
2.4775827e-09
3.144003e-09
3.6489568e-09
3.4069604e-09
4.1678549e-09
5.6765783e-09
5.8902528e-09
5.6289076e-09
6.7676334e-09
8.670241e-09
9.0216093e-09
8.8307326e-09
1.0275054e-08
1.2160491e-08
1.2196775e-08
1.2216512e-08
1.332379e-08
1.4181101e-08
1.3393459e-08
1.3743819e-08
1.3961153e-08
1.5377222e-08
1.9070474e-08
2.0762147e-08
2.2608622e-08
2.97305e-08
2.8415367e-08
3.4589821e-08
3.3526949e-08
4.2415182e-08
4.1030401e-08
4.7828782e-08
5.1146874e-08
5.4379014e-08
5.3459585e-08
6.1006375e-08
6.4911373e-08
6.6048353e-08
6.6072382e-08
7.4222995e-08
7.7715636e-08
7.744977e-08
7.8891976e-08
8.7234423e-08
8.9983052e-08
8.846125e-08
9.1795243e-08
9.8442583e-08
1.0164701e-07
9.8841672e-08
1.0452994e-07
9.6693165e-08
1.1249213e-07
1.0578115e-07
1.1680709e-07
1.0474329e-07
1.2229631e-07
1.171424e-07
1.2834056e-07
1.3014551e-07
1.3086613e-07
1.2769572e-07
1.3885156e-07
1.4183274e-07
1.3805533e-07
1.3723954e-07
1.4800313e-07
1.4974446e-07
1.4375815e-07
1.4560765e-07
1.5517936e-07
1.5546046e-07
1.4792375e-07
1.5268304e-07
1.5814193e-07
1.5936437e-07
1.5055022e-07
1.5839559e-07
1.4176914e-07
1.6162885e-07
1.5114804e-07
1.6272375e-07
1.4320687e-07
1.6239856e-07
1.5480652e-07
1.6568041e-07
1.6517703e-07
1.6181801e-07
1.5722262e-07
1.6727323e-07
1.6812668e-07
1.6000604e-07
1.5844351e-07
1.6741785e-07
1.6698996e-07
1.572162e-07
1.5866908e-07
1.6584733e-07
1.6414188e-07
1.5352867e-07
1.5793233e-07
1.6046662e-07
1.6024388e-07
1.4911962e-07
1.5637619e-07
1.3734816e-07
1.5560274e-07
1.4411165e-07
1.540887e-07
1.3483372e-07
1.5038682e-07
1.4288118e-07
1.5112681e-07
1.4990381e-07
1.4472078e-07
1.401966e-07
1.4752332e-07
1.4752577e-07
1.3872934e-07
1.370053e-07
1.4324558e-07
1.4221484e-07
1.3250781e-07
1.3339148e-07
1.3795037e-07
1.3606135e-07
1.2609771e-07
1.2939013e-07
1.2994254e-07
1.295389e-07
1.1953307e-07
1.2502991e-07
1.0844721e-07
1.2281199e-07
1.1283879e-07
1.2032462e-07
1.0524427e-07
1.1592958e-07
1.0984504e-07
1.1523952e-07
1.1411847e-07
1.0887043e-07
1.0519043e-07
1.0967326e-07
1.0926033e-07
1.0156614e-07
1.0003554e-07
1.0343941e-07
1.020787e-07
9.391248e-08
9.4262967e-08
9.6068679e-08
9.3927836e-08
8.5652219e-08
8.7583551e-08
8.6153359e-08
8.466715e-08
7.6379005e-08
7.9525956e-08
6.6767756e-08
7.3753619e-08
6.802701e-08
6.9018725e-08
5.7921596e-08
5.9383135e-08
5.560624e-08
5.3832901e-08
5.2533035e-08
5.2954954e-08
5.1809373e-08
5.6944233e-08
5.672289e-08
5.6287261e-08
5.6765573e-08
6.2322358e-08
5.9169068e-08
5.7537e-08
5.9671793e-08
6.5773509e-08
5.9590963e-08
5.7421237e-08