/*--------------------------------*- C++ -*----------------------------------*\
  =========                 |
  \\      /  F ield         | OpenFOAM: The Open Source CFD Toolbox
   \\    /   O peration     | Website:  https://openfoam.org
    \\  /    A nd           | Version:  6
     \\/     M anipulation  |
\*---------------------------------------------------------------------------*/
FoamFile
{
    version     2.0;
    format      ascii;
    class       volScalarField;
    location    "0";
    object      p;
}
// * * * * * * * * * * * * * * * * * * * * * * * * * * * * * * * * * * * * * //

dimensions      [0 2 -2 0 0 0 0];

internalField   nonuniform List<scalar> 
78300
(
0.0039537079
0.053200612
0.058653696
0.037750538
0.055264093
0.056318144
0.057189608
0.0739617
0.090975355
0
0.10545786
0.11119046
0.11470567
0
0.11687495
0.11819565
0.1192468
0.11948985
0.12035008
0.12118549
0.12184117
0.12197476
0.12243821
0.12276491
0.1229717
0.12300993
0.12312764
0.12317875
0.12318185
0.12317844
0.12314699
0.12310756
0.12308207
0.12307788
0.12308529
0.12317188
0.12331408
0.12335654
0.1235676
0.12385543
0.12415484
0.1242439
0.1246201
0.12502063
0.12512303
0.12549216
0.12588089
0.12619257
0.12625795
0.12649129
0.12669455
0.12680599
0.12682407
0.12686575
0.1267953
0.12662739
0.12656853
0.12624183
0.12577324
0.12507192
0.12488488
0.12412977
0.1226199
0.12204175
0.12191315
0.12124394
0.12099584
0.12093782
0.12077396
0.1207902
0.12092942
0.12099374
0.12125492
0.12165173
0.12216336
0.12230454
0.12287915
0.12361793
0.12440826
0.12461417
0.12547466
0.12650442
0.12753877
0.12780554
0.12893197
0.13022473
0.13147281
0.13180181
0.1331818
0.13470634
0.13613955
0.13653514
0.1381528
0.1398719
0.14033603
0.14192627
0.14376102
0.1456318
0.14611297
0.14788502
0.14990399
0.15188853
0.15238461
0.1543132
0.1564757
0.15853837
0.15904955
0.16110688
0.16336944
0.16547557
0.1660039
0.16816124
0.17047971
0.17259666
0.17314546
0.17537428
0.17770569
0.17980369
0.18037703
0.18265001
0.18495396
0.18555644
0.1876089
0.18989886
0.192141
0.19270394
0.19476175
0.19703544
0.19919553
0.19972571
0.20176819
0.2039951
0.20605889
0.20656354
0.20857331
0.21072788
0.21268538
0.21317181
0.21513522
0.21719704
0.21904171
0.21951689
0.2214235
0.22337685
0.22510533
0.22557573
0.2274183
0.2292517
0.230863
0.23133444
0.23310625
0.2348138
0.23523857
0.23678649
0.23847664
0.24006173
0.24044815
0.24193148
0.24353207
0.24500024
0.24535754
0.24677505
0.24828138
0.24963889
0.24997515
0.25132725
0.25273676
0.25399008
0.25431225
0.2556003
0.25691233
0.25806795
0.25838201
0.25960867
0.2608236
0.26188821
0.26219941
0.2633661
0.26448736
0.26476578
0.2657796
0.26688513
0.26791938
0.26817154
0.26913898
0.27018054
0.27113721
0.27136964
0.27229077
0.27327316
0.27415513
0.27437417
0.27525835
0.27617378
0.27699835
0.27720985
0.27804732
0.27892418
0.27968187
0.27988802
0.28072785
0.2815223
0.28174585
0.28249174
0.28325474
0.28411511
0.28430223
0.28499837
0.28593497
0.28674397
0.28696341
0.28783539
0.28876032
0.28970481
0.28993495
0.2908524
0.29190245
0.29286363
0.29310677
0.29411231
0.29517189
0.29612706
0.29637347
0.29734437
0.29826092
0.29896794
0.29915532
0.299773
0.30013263
0.3001718
0.30025974
0.30005712
0.2994668
0.2992434
0.29833813
0.29699136
0.29530679
0.29485536
0.29300819
0.29053459
0.28778727
0.28705189
0.28388245
0.27977016
0.27525107
0.2740249
0.26847609
0.26123316
0.25252234
0.25007502
0.23845552
0.22282502
0.2053713
0.20036518
0.17745129
0.14728365
0
0.10570176
0.060596011
0.011108074
0
-0.055089472
-0.094721599
-0.11591121
-0.1158762
-0.10985069
-0.10930811
-0.074888743
-0.072887505
-0.083682263
0.0039442023
0.053204203
0.058658601
0.036973285
0.055903499
0.05632133
0.057172319
0.073947325
0.091207685
0.10257847
0.1055339
0.11118154
0.11469856
0.11519825
0.116873
0.11819463
0.11924445
0.11948638
0.12034881
0.12118484
0.12183931
0.12197304
0.12243799
0.12276451
0.12297102
0.12300958
0.1231277
0.12317863
0.12318182
0.12317857
0.12314703
0.12310763
0.12308219
0.12307782
0.12308507
0.12317182
0.12331347
0.12335596
0.12356734
0.12385491
0.12415341
0.12424305
0.12461965
0.12501974
0.12512149
0.12549153
0.12588063
0.12619181
0.12625723
0.1264911
0.12669436
0.12680574
0.126824
0.12686594
0.12679529
0.12662759
0.126569
0.12624207
0.12577332
0.12507231
0.12488507
0.12413063
0.12261932
0.12204155
0.12191301
0.12124362
0.12099577
0.12093773
0.12077397
0.12079018
0.12092943
0.12099383
0.12125496
0.1216517
0.12216351
0.1223047
0.1228792
0.123618
0.1244085
0.12461437
0.12547468
0.12650456
0.1275391
0.12780574
0.12893196
0.13022493
0.13147323
0.131802
0.13318173
0.1347066
0.13614004
0.13653529
0.13815279
0.13987221
0.14033639
0.14192638
0.14376114
0.14563215
0.14611328
0.14788508
0.14990417
0.15188891
0.15238486
0.1543132
0.15647592
0.15853876
0.15904973
0.16110683
0.16336969
0.16547597
0.16600401
0.16816115
0.17047997
0.17259704
0.17314552
0.17537415
0.17770595
0.17980405
0.18037703
0.18264994
0.1849542
0.18555652
0.18760885
0.18989897
0.19214122
0.19270394
0.19476166
0.19703563
0.19919572
0.19972566
0.20176807
0.20399527
0.20605903
0.20656344
0.20857317
0.21072803
0.21268548
0.21317168
0.21513507
0.21719715
0.21904176
0.21951673
0.22142336
0.22337693
0.22510533
0.22557555
0.22741819
0.22925174
0.23086294
0.23133426
0.23310628
0.23481381
0.23523831
0.23678631
0.23847674
0.24006169
0.24044788
0.2419313
0.24353214
0.24500016
0.24535727
0.24677489
0.24828141
0.24963877
0.24997489
0.2513271
0.25273676
0.25398992
0.254312
0.25560017
0.25691229
0.25806775
0.25838178
0.25960856
0.26082352
0.26188797
0.2621992
0.26336607
0.26448726
0.26476544
0.2657794
0.26688516
0.26791924
0.26817121
0.26913881
0.27018055
0.27113704
0.27136934
0.27229062
0.27327313
0.27415492
0.27437389
0.27525823
0.27617372
0.27699811
0.2772096
0.2780472
0.27892409
0.27968161
0.27988777
0.28072783
0.28152219
0.28174543
0.28249156
0.28325457
0.28411494
0.28430192
0.28499813
0.28593517
0.28674417
0.28696388
0.28783561
0.28876056
0.28970598
0.28993628
0.29085298
0.29190326
0.29286575
0.29310883
0.29411289
0.29517318
0.29613017
0.29637565
0.29734472
0.29826264
0.29897089
0.29915655
0.29977336
0.30013369
0.30017231
0.30025897
0.30005807
0.29946581
0.29923945
0.29833544
0.29699142
0.29530233
0.29484839
0.29300414
0.2905331
0.28777916
0.28704106
0.283877
0.2797664
0.27523613
0.27400769
0.26846846
0.26122581
0.25248995
0.25004257
0.23844233
0.22280316
0.20530113
0.20031258
0.17742745
0.14723535
0.11519209
0.10562297
0.060461507
0.010283168
-0.0034953064
-0.055288197
-0.09490892
-0.11593442
-0.11586777
-0.10953975
-0.10990486
-0.074883941
-0.072885778
-0.083685025
0.0026787886
0.058163237
0.062332193
0.036965647
0.055899092
0.055567936
0.056119819
0.073945649
0.091195964
0.10254908
0.10553157
0.11117935
0.11478309
0.11515108
0.11685556
0.11818784
0.11926184
0.11944325
0.1203378
0.12118192
0.1218563
0.12195562
0.12243679
0.12276464
0.12297862
0.12300726
0.12312813
0.12317939
0.12318314
0.12318083
0.12314745
0.12310755
0.12308029
0.12307685
0.12308435
0.12317071
0.12331812
0.12334952
0.12356619
0.12385626
0.12416704
0.12423461
0.12461736
0.12502497
0.12510152
0.12548579
0.12587937
0.12619965
0.12624823
0.12648934
0.12669493
0.12681034
0.12682387
0.12686791
0.12679645
0.12662728
0.12658412
0.12624461
0.12577721
0.12504098
0.12490147
0.12413962
0.12257855
0.12202837
0.12193307
0.12124316
0.12099243
0.12094868
0.12076842
0.12079063
0.1209286
0.12097788
0.12124923
0.12165176
0.12217391
0.12227942
0.12287239
0.12361944
0.12442982
0.12458261
0.12546914
0.12650878
0.12757376
0.1277714
0.12892842
0.13023387
0.1315232
0.13176776
0.13318042
0.13472226
0.13620716
0.13650349
0.13815314
0.13989659
0.14024928
0.14189877
0.1437618
0.14566702
0.14602843
0.1478628
0.14990628
0.15193575
0.1523052
0.15429675
0.15648145
0.15859858
0.15897755
0.16109609
0.16338041
0.16554928
0.16594086
0.16815538
0.17049739
0.17268384
0.17309227
0.17537208
0.17773124
0.17990378
0.1803339
0.1826498
0.18498813
0.18544516
0.18757551
0.18989921
0.19218414
0.19260642
0.19473732
0.1970378
0.19924764
0.19964219
0.20175156
0.20400098
0.20611963
0.20649367
0.2085631
0.21073836
0.21275417
0.21311478
0.21512986
0.21721281
0.21911776
0.21947159
0.22142135
0.22339828
0.22518769
0.22554084
0.22741764
0.22927885
0.2309506
0.23130856
0.23310605
0.23484656
0.23516501
0.23676819
0.23847806
0.2400998
0.24038727
0.24191932
0.24353601
0.24504321
0.24530801
0.24676765
0.24828844
0.24968629
0.2499356
0.2513233
0.25274727
0.2540414
0.25428135
0.25559856
0.25692643
0.25812262
0.25835848
0.25960793
0.26084129
0.2619457
0.26218209
0.26336567
0.26450858
0.26471726
0.26576732
0.26688581
0.26794386
0.26813143
0.26913084
0.27018282
0.27116499
0.27133725
0.27228563
0.27327762
0.27418535
0.27434775
0.27525573
0.27618007
0.27703239
0.27719001
0.27804577
0.27893409
0.27971585
0.27987041
0.28072749
0.2815316
0.28170157
0.28248258
0.2832539
0.28413549
0.28427496
0.28498267
0.28593725
0.28675983
0.28692399
0.28783107
0.28876314
0.28973665
0.28990746
0.29084954
0.29191146
0.29290158
0.29308192
0.2941144
0.29518514
0.2961746
0.29635775
0.29734887
0.29827901
0.29901146
0.29915181
0.29977574
0.30014561
0.30017242
0.30026843
0.30005651
0.29946045
0.29928759
0.29834922
0.29698524
0.29525729
0.2949178
0.29301753
0.29051773
0.287695
0.28714597
0.28388408
0.27973472
0.27507841
0.27416645
0.26846102
0.26117172
0.25214741
0.25032824
0.23839782
0.22263039
0.20447295
0.20073959
0.17728584
0.14677704
0.11356254
0.10635033
0.060430887
0.010231274
-0.0036280479
-0.055301074
-0.094920647
-0.11744691
-0.11726481
-0.10954116
-0.10991041
-0.071937636
-0.070535369
-0.084051475
0.0026801962
0.058162648
0.062332982
0.036976005
0.055905462
0.055571542
0.056106582
0.073904842
0.091145495
0.10330328
0.10547952
0.11114594
0.11476215
0.11514605
0.11684116
0.11817712
0.1192599
0.11944029
0.12032903
0.12118137
0.12185474
0.1219542
0.12243664
0.1227643
0.12297803
0.12300698
0.12312817
0.12317929
0.12318311
0.12318094
0.12314748
0.12310761
0.1230804
0.1230768
0.12308423
0.12317067
0.12331759
0.12334907
0.12356572
0.12385583
0.12416445
0.12423397
0.12461674
0.12502423
0.12509829
0.12548532
0.12587909
0.126199
0.12624572
0.1264892
0.12669475
0.12681011
0.12682284
0.12686802
0.12679642
0.12662758
0.12658448
0.12624473
0.12577724
0.12504146
0.12490158
0.12413963
0.12257835
0.12202821
0.1219329
0.12124352
0.1209924
0.1209486
0.12076846
0.12079089
0.12092862
0.12097797
0.1212493
0.12165183
0.122174
0.12227959
0.1228725
0.12361948
0.12442998
0.12458283
0.12546926
0.12650884
0.12757399
0.12777163
0.12892854
0.13023396
0.1315235
0.131768
0.13318056
0.13472238
0.13620753
0.13650372
0.13815341
0.13989673
0.14024967
0.14189897
0.14376202
0.1456672
0.14602877
0.14786298
0.14990633
0.15193595
0.1523055
0.15429691
0.15648148
0.1585988
0.15897781
0.16109622
0.16338045
0.16554951
0.16594108
0.16815549
0.17049744
0.17268407
0.17309244
0.17537216
0.17773129
0.179904
0.18033403
0.18264985
0.18498818
0.1854453
0.18757561
0.18989918
0.19218418
0.19260651
0.19473739
0.19703776
0.19924766
0.19964224
0.20175161
0.20400093
0.20611964
0.20649369
0.20856313
0.21073832
0.21275415
0.21311477
0.21512988
0.21721276
0.21911771
0.21947156
0.22142135
0.22339821
0.22518761
0.2255408
0.22741749
0.22927877
0.23095049
0.23130852
0.23310586
0.23484646
0.23516484
0.23676815
0.23847797
0.24009967
0.24038711
0.24191928
0.24353592
0.24504306
0.24530786
0.24676762
0.24828834
0.24968612
0.24993546
0.25132327
0.25274716
0.2540412
0.25428122
0.25559851
0.25692631
0.2581224
0.25835837
0.25960773
0.26084115
0.26194545
0.26218199
0.26336545
0.26450843
0.264717
0.26576724
0.26688572
0.26794368
0.2681312
0.26913077
0.27018274
0.2711648
0.27133704
0.27228557
0.27327752
0.27418514
0.27434757
0.27525568
0.27617997
0.27703215
0.27718985
0.27804572
0.27893395
0.27971559
0.27987026
0.28072732
0.28153147
0.28170123
0.28248247
0.28325379
0.28413528
0.28427472
0.28498258
0.28593725
0.28675996
0.28692484
0.2878313
0.28876331
0.28973757
0.28991073
0.29085008
0.29191201
0.29290691
0.29308369
0.29411495
0.29518606
0.29618069
0.29635958
0.29734926
0.29828028
0.29901511
0.29915281
0.29977612
0.30014643
0.30017219
0.30026777
0.30005547
0.2994597
0.29928404
0.298347
0.29698497
0.29525378
0.29491172
0.29301422
0.29051665
0.2876885
0.28713665
0.28387963
0.27973207
0.27506621
0.27415182
0.26845472
0.26116647
0.2521205
0.25030101
0.23838656
0.2224614
0.20441336
0.20069604
0.17705592
0.14650506
0.11345519
0.10605292
0.060098846
0.0099343573
-0.00083928271
-0.055504097
-0.094978126
-0.11746463
-0.1172561
-0.10949922
-0.10987177
-0.071936246
-0.07053567
-0.08405106
0.0026734526
0.058158978
0.062329039
0.036969701
0.055900309
0.05556747
0.056113316
0.073902957
0.091132898
0.10326751
0.105477
0.11114276
0.1147562
0.11512622
0.11683961
0.11817512
0.1192506
0.11943199
0.12032802
0.12117325
0.12184894
0.12194862
0.12243187
0.12276125
0.12297628
0.12300518
0.12312709
0.12317904
0.12318332
0.12318112
0.12314807
0.12310826
0.12308085
0.12307732
0.12308431
0.12316989
0.12331646
0.12334775
0.12356371
0.12385307
0.12416314
0.12423076
0.12461304
0.12502048
0.12509692
0.12548147
0.12587547
0.12619638
0.12624509
0.12648695
0.12669312
0.1268091
0.12682278
0.12686742
0.12679642
0.12662775
0.12658469
0.12624534
0.12577814
0.12504184
0.12490224
0.12414048
0.12257999
0.12203004
0.12193475
0.1212447
0.12099388
0.12095011
0.12076981
0.12079209
0.12092999
0.12097929
0.12125065
0.12165319
0.12217535
0.1222809
0.12287386
0.1236209
0.12443133
0.12458415
0.12547066
0.12651029
0.12757531
0.12777296
0.12892995
0.13023538
0.13152475
0.13176931
0.13318193
0.13472373
0.13620866
0.13650497
0.1381546
0.13989798
0.14025075
0.14190014
0.14376313
0.14566829
0.14602975
0.14786403
0.14990741
0.15193686
0.15230635
0.15429781
0.1564824
0.1585995
0.1589785
0.16109694
0.16338116
0.16555
0.1659416
0.16815602
0.17049793
0.17268434
0.17309277
0.1753725
0.17773155
0.17990406
0.18033417
0.18264999
0.18498823
0.1854453
0.18757557
0.18989915
0.19218402
0.19260633
0.19473716
0.19703754
0.19924733
0.1996419
0.20175121
0.20400054
0.20611914
0.2064932
0.20856258
0.21073776
0.21275352
0.21311415
0.21512919
0.21721207
0.21911696
0.21947081
0.22142055
0.22339741
0.22518677
0.22553995
0.2274167
0.22927788
0.23094958
0.23130758
0.233105
0.2348455
0.23516395
0.23676714
0.23847696
0.24009867
0.24038615
0.24191821
0.24353486
0.24504203
0.24530684
0.2467665
0.24828725
0.24968507
0.2499344
0.25132212
0.25274606
0.25404016
0.25428014
0.25559737
0.25692521
0.25812136
0.25835727
0.25960669
0.26084006
0.26194444
0.26218088
0.26336443
0.26450736
0.26471603
0.26576613
0.26688461
0.26794265
0.26813022
0.26912967
0.27018165
0.27116381
0.27133607
0.2722845
0.27327648
0.27418419
0.27434662
0.27525464
0.27617898
0.27703129
0.27718894
0.27804474
0.27893306
0.27971481
0.27986942
0.28072653
0.28153068
0.28170063
0.28248173
0.28325309
0.28413474
0.28427425
0.2849822
0.28593742
0.2867609
0.2869253
0.28783323
0.28876623
0.28974087
0.28991191
0.29085473
0.29191756
0.29290871
0.2930892
0.2941221
0.29519335
0.2961834
0.29636641
0.29735699
0.29828635
0.29901775
0.29915748
0.29977925
0.30014652
0.30017259
0.30026537
0.30004975
0.29944963
0.29927536
0.29833361
0.29696663
0.29523459
0.29489384
0.29299066
0.29048701
0.28765803
0.28710732
0.28384056
0.27968436
0.27501622
0.27410175
0.26838597
0.26107811
0.25202413
0.25020001
0.23824421
0.22244417
0.20424344
0.20050686
0.17701219
0.14646623
0.1131983
0.10598775
0.060059872
0.0098792786
-0.001073248
-0.055517726
-0.094989333
-0.11743211
-0.11723782
-0.10950091
-0.10987619
-0.07191975
-0.070520574
-0.084050488
0.0026729995
0.058154699
0.062324164
0.03698014
0.055909035
0.055571414
0.056123039
0.073861828
0.091082285
0.10324025
0.10542433
0.11110905
0.1147348
0.11512086
0.11682475
0.11816402
0.11924104
0.11942361
0.12031893
0.12116482
0.12184299
0.12194293
0.12242692
0.12275807
0.12297449
0.12300332
0.12312595
0.12317878
0.12318355
0.12318131
0.12314868
0.12310893
0.12308131
0.12307786
0.12308442
0.12316908
0.12331531
0.1233464
0.12356159
0.12385019
0.12416045
0.12422745
0.12460936
0.12501656
0.12509354
0.12547745
0.12587165
0.1261936
0.12624243
0.12648455
0.12669291
0.12680799
0.12682164
0.12686752
0.12679639
0.12662801
0.12658483
0.12624546
0.12577816
0.12504235
0.12490292
0.12414036
0.12258177
0.12203185
0.12193657
0.12124606
0.12099539
0.12095163
0.12077119
0.12079334
0.12093138
0.12098061
0.12125203
0.12165459
0.12217671
0.12228221
0.12287529
0.12362234
0.12443268
0.12458548
0.12547214
0.12651173
0.12757662
0.12777432
0.12893146
0.13023679
0.131526
0.13177067
0.13318341
0.13472505
0.13620981
0.13650629
0.13815586
0.13989918
0.14025178
0.14190139
0.14376424
0.14566934
0.1460307
0.14786517
0.14990845
0.15193773
0.1523072
0.15429881
0.15648324
0.15860017
0.15897921
0.16109777
0.16338178
0.16555047
0.16594215
0.16815666
0.17049833
0.1726846
0.17309315
0.17537292
0.17773173
0.17990412
0.18033438
0.18265015
0.18498819
0.18544523
0.18757559
0.18989907
0.19218379
0.19260612
0.194737
0.19703722
0.19924693
0.19964155
0.20175088
0.20400002
0.20611859
0.20649272
0.20856209
0.21073709
0.21275285
0.21311354
0.21512856
0.21721126
0.2191162
0.21947009
0.22141979
0.2233965
0.22518593
0.22553913
0.22741589
0.2292769
0.23094869
0.23130666
0.23310407
0.23484446
0.23516302
0.23676615
0.23847585
0.2400976
0.24038517
0.24191716
0.24353369
0.24504094
0.24530582
0.24676541
0.24828606
0.24968399
0.24993335
0.251321
0.25274485
0.25403909
0.25427907
0.25559623
0.25692402
0.25812032
0.25835617
0.25960564
0.26083889
0.26194344
0.26217978
0.26336335
0.26450622
0.26471502
0.26576503
0.26688342
0.26794155
0.26812922
0.26912858
0.27018048
0.27116277
0.27133509
0.27228342
0.27327536
0.27418322
0.27434566
0.27525359
0.27617793
0.27703041
0.27718802
0.27804378
0.27893211
0.27971403
0.27986858
0.2807257
0.28152984
0.2817
0.282481
0.28325243
0.28413416
0.28427377
0.28498185
0.28593739
0.28676183
0.28692615
0.28783349
0.28876641
0.28974422
0.28991526
0.29085533
0.29191814
0.29291418
0.29309484
0.29412271
0.29520081
0.29618966
0.29637342
0.29736493
0.29829253
0.29902148
0.29916229
0.29978226
0.30014653
0.30017234
0.30026289
0.30004357
0.29943924
0.29926655
0.29831974
0.29694744
0.29521492
0.29487558
0.29296621
0.29045624
0.28762684
0.28707727
0.28379991
0.27963495
0.27496513
0.27405032
0.26831435
0.26098663
0.25192604
0.25009628
0.23809653
0.2222694
0.20407241
0.20031337
0.17677581
0.14618828
0.11308405
0.10568787
0.059730392
0.0095926358
-0.001194145
-0.055697239
-0.095018555
-0.11737284
-0.11722837
-0.10944448
-0.10983152
-0.071901743
-0.070503753
-0.084047312
0.0026694784
0.058155686
0.062326891
0.036975628
0.055902996
0.05556851
0.056107897
0.073820279
0.091068735
0.10320501
0.10542161
0.11110496
0.11472841
0.1151006
0.1168231
0.11816192
0.11923893
0.11942032
0.12031786
0.12116422
0.12184128
0.12194134
0.12242675
0.12275771
0.12297384
0.12300301
0.123126
0.12317867
0.12318352
0.12318143
0.12314871
0.12310899
0.12308143
0.12307782
0.12308427
0.12316904
0.12331474
0.1233459
0.1235611
0.12384974
0.12415907
0.12422673
0.12460851
0.12501577
0.12509209
0.12547692
0.12587133
0.1261929
0.12624176
0.12648439
0.12669116
0.12680774
0.12682157
0.12686684
0.12679634
0.12662819
0.12658524
0.12624609
0.1257791
0.12504275
0.12490306
0.12414134
0.12258141
0.12203169
0.12193642
0.12124627
0.12099534
0.12095153
0.12077122
0.12079357
0.12093139
0.12098072
0.12125209
0.12165464
0.12217682
0.1222824
0.12287537
0.1236224
0.12443286
0.12458571
0.12547222
0.12651182
0.12757688
0.12777455
0.12893152
0.13023693
0.13152633
0.13177089
0.13318349
0.13472523
0.1362102
0.13650649
0.13815611
0.13989939
0.14025224
0.14190155
0.14376449
0.14566959
0.14603111
0.1478653
0.14990857
0.15193799
0.15230753
0.1542989
0.15648336
0.15860045
0.15897947
0.16109782
0.16338192
0.16555074
0.16594235
0.16815667
0.17049847
0.17268485
0.17309329
0.17537292
0.17773187
0.17990434
0.18033446
0.18265018
0.18498832
0.18544544
0.18757563
0.18989908
0.1921839
0.19260624
0.19473701
0.19703726
0.199247
0.19964161
0.20175086
0.20400007
0.20611863
0.20649272
0.20856205
0.21073713
0.21275285
0.2131135
0.2151285
0.21721128
0.21911615
0.21947002
0.22141972
0.2233965
0.22518583
0.22553904
0.22741571
0.22927686
0.23094853
0.23130657
0.23310389
0.2348444
0.23516286
0.23676605
0.23847582
0.2400975
0.24038499
0.24191706
0.24353367
0.2450408
0.24530564
0.24676531
0.24828602
0.24968381
0.24993317
0.25132091
0.25274479
0.25403887
0.25427889
0.25559613
0.25692393
0.25812006
0.25835601
0.25960541
0.26083878
0.26194313
0.26217963
0.26336313
0.26450608
0.26471474
0.26576489
0.26688336
0.26794138
0.26812896
0.26912846
0.27018043
0.27116257
0.27133485
0.27228332
0.2732753
0.274183
0.27434544
0.27525351
0.27617785
0.27703014
0.27718783
0.27804368
0.278932
0.27971374
0.27986839
0.28072553
0.28152972
0.28169964
0.28248086
0.28325226
0.28413397
0.28427351
0.2849817
0.28593757
0.28676198
0.28692665
0.28783547
0.28876943
0.28974524
0.28991653
0.29086012
0.29192389
0.2929161
0.29309676
0.29413011
0.29520188
0.29619254
0.2963754
0.29736543
0.29829397
0.29902428
0.29916336
0.29978289
0.30014744
0.30017275
0.30026216
0.30004258
0.29943838
0.29926265
0.29831735
0.29694722
0.29521099
0.29486892
0.29296266
0.290455
0.28761957
0.28706709
0.28379518
0.27963191
0.2749515
0.27403436
0.26830766
0.26098064
0.25189597
0.25006659
0.23808442
0.22225114
0.20400607
0.20026602
0.17672989
0.14614709
0.11282669
0.10561799
0.059684343
0.009534211
-0.0014120976
-0.055711634
-0.094999319
-0.11739311
-0.11718773
-0.1094465
-0.10983443
-0.071898888
-0.070503152
-0.084048324
0.002668843
0.058152826
0.062323557
0.036987154
0.055915005
0.055567922
0.056120166
0.073818211
0.091017662
0.10317591
0.10536828
0.11107122
0.11470651
0.11509486
0.11680775
0.11815034
0.11922902
0.11941162
0.12030841
0.12115544
0.1218351
0.12193542
0.12242159
0.1227544
0.12297198
0.12300108
0.12312481
0.1231784
0.12318375
0.12318163
0.12314933
0.12310968
0.1230819
0.12307837
0.12308437
0.12316818
0.12331352
0.12334447
0.12355893
0.1238467
0.12415622
0.12422322
0.12460463
0.12501161
0.12508849
0.12547264
0.12586724
0.12618989
0.12623887
0.12648176
0.12668918
0.12680646
0.12682026
0.12686599
0.12679617
0.12662839
0.12658532
0.12624664
0.12578001
0.12504328
0.12490378
0.12414189
0.12258303
0.12203341
0.12193816
0.12124753
0.12099679
0.12095301
0.12077256
0.12079478
0.12093277
0.12098202
0.12125345
0.12165602
0.12217818
0.12228371
0.12287679
0.12362385
0.12443422
0.12458705
0.1254737
0.12651328
0.12757821
0.12777592
0.12893303
0.13023836
0.13152759
0.13177226
0.13318496
0.13472658
0.13621135
0.13650782
0.13815737
0.13990062
0.14025329
0.1419028
0.14376561
0.14567066
0.14603207
0.14786643
0.14990964
0.15193888
0.15230838
0.15429989
0.15648424
0.15860113
0.15898018
0.16109864
0.16338257
0.1655512
0.1659429
0.1681573
0.17049889
0.17268511
0.17309366
0.17537333
0.17773206
0.17990439
0.18033465
0.18265033
0.1849883
0.18544538
0.18757562
0.18989901
0.19218367
0.19260603
0.19473682
0.19703695
0.1992466
0.19964125
0.2017505
0.20399956
0.20611807
0.20649221
0.20856152
0.21073645
0.21275215
0.21311286
0.21512783
0.21721048
0.21911535
0.21946927
0.22141892
0.22339558
0.22518495
0.22553818
0.22741489
0.22927587
0.2309476
0.23130561
0.23310296
0.23484334
0.2351619
0.23676501
0.23847469
0.2400964
0.24038398
0.24191596
0.24353247
0.24503969
0.24530459
0.24676417
0.2482848
0.2496827
0.24993208
0.25131973
0.25274357
0.25403777
0.25427777
0.25559494
0.25692272
0.25811898
0.25835487
0.25960433
0.26083758
0.2619421
0.26217849
0.26336203
0.26450492
0.26471371
0.26576374
0.26688215
0.26794026
0.26812793
0.26912732
0.27017923
0.27116151
0.27133384
0.2722822
0.27327415
0.274182
0.27434445
0.27525243
0.27617677
0.27702923
0.27718687
0.27804267
0.27893102
0.27971294
0.27986752
0.28072469
0.28152886
0.281699
0.28248009
0.28325156
0.28413338
0.28427301
0.2849813
0.28593765
0.28676294
0.28692752
0.28783754
0.28877252
0.28974872
0.28992001
0.29086515
0.2919298
0.29292181
0.29310263
0.29413784
0.29520966
0.29619906
0.29638271
0.29737373
0.29830043
0.29902818
0.29916838
0.29978604
0.30014746
0.3001725
0.30025959
0.30003642
0.29942756
0.2992535
0.29830293
0.29692736
0.2951905
0.29484993
0.29293718
0.29042297
0.28758702
0.28703578
0.28375276
0.27958035
0.27489815
0.27398071
0.26823281
0.26088519
0.25179383
0.24995872
0.23793063
0.22206998
0.20382976
0.20006661
0.17648536
0.14586346
0.11270509
0.1053171
0.059363214
0.0092660263
-0.0015407567
-0.055852795
-0.095012934
-0.11729496
-0.11711118
-0.10936735
-0.10977949
-0.0718763
-0.07048241
-0.084043228
0.002667246
0.05815319
0.06232567
0.036984947
0.05590793
0.055571976
0.056104349
0.073776441
0.090965008
0.10314086
0.10536533
0.11103516
0.11469963
0.11507407
0.11680601
0.11814812
0.11922675
0.11940812
0.12030728
0.12115479
0.12183327
0.12193372
0.1224214
0.12275401
0.12297128
0.12300074
0.12312486
0.12317828
0.12318371
0.12318175
0.12314937
0.12310975
0.12308202
0.12307832
0.12308422
0.12316813
0.12331291
0.12334394
0.12355834
0.12384621
0.12415474
0.12422246
0.12460365
0.12501075
0.12508695
0.12547208
0.12586688
0.12618913
0.12623816
0.12648159
0.12668896
0.12680619
0.12682019
0.12686612
0.12679614
0.12662858
0.12658575
0.12624681
0.12578006
0.12504371
0.12490392
0.1241421
0.12258271
0.12203324
0.12193799
0.12124782
0.12099674
0.12095291
0.12077259
0.12079504
0.12093278
0.12098214
0.12125353
0.12165609
0.1221783
0.12228391
0.12287689
0.12362391
0.12443441
0.12458729
0.1254738
0.12651337
0.12757849
0.12777618
0.12893313
0.13023849
0.13152794
0.13177251
0.13318508
0.13472675
0.13621177
0.13650805
0.13815766
0.13990083
0.14025376
0.14190301
0.14376588
0.1456709
0.14603249
0.1478666
0.14990974
0.15193915
0.15230874
0.15430002
0.15648434
0.15860141
0.15898047
0.16109873
0.16338268
0.16555148
0.16594312
0.16815736
0.170499
0.17268537
0.17309383
0.17537337
0.17773218
0.17990464
0.18033476
0.18265037
0.1849884
0.18544558
0.18757569
0.189899
0.19218376
0.19260615
0.19473686
0.19703695
0.19924666
0.1996413
0.2017505
0.20399957
0.2061181
0.20649222
0.20856151
0.21073646
0.21275215
0.21311283
0.2151278
0.21721046
0.2191153
0.21946921
0.22141887
0.22339555
0.22518485
0.2255381
0.2274147
0.22927581
0.23094744
0.23130553
0.23310275
0.23484325
0.23516172
0.23676493
0.23847461
0.24009628
0.24038379
0.24191588
0.24353242
0.24503954
0.2453044
0.24676409
0.24828473
0.2496825
0.2499319
0.25131966
0.25274348
0.25403754
0.2542776
0.25559485
0.25692261
0.25811871
0.25835471
0.25960407
0.26083745
0.26194178
0.26217834
0.26336178
0.26450476
0.26471342
0.26576362
0.26688205
0.26794007
0.26812766
0.26912721
0.27017915
0.27116129
0.27133359
0.27228211
0.27327406
0.27418175
0.27434422
0.27525235
0.27617666
0.27702895
0.27718668
0.27804258
0.27893088
0.27971263
0.27986733
0.28072449
0.28152872
0.28169861
0.28247995
0.2832514
0.28413316
0.28427273
0.28498115
0.2859377
0.28676309
0.28692805
0.28783779
0.28877275
0.28974981
0.28992136
0.29086576
0.29193049
0.29292384
0.29310468
0.29413849
0.29521078
0.29620212
0.29638483
0.29737428
0.29830195
0.29903114
0.29916953
0.29978673
0.30014842
0.30017293
0.3002588
0.30003508
0.29942664
0.29924931
0.29830035
0.296927
0.29518632
0.29484279
0.29293335
0.29042164
0.2875793
0.28702486
0.28374762
0.27957715
0.27488365
0.27396357
0.26822552
0.26087885
0.25176181
0.24992683
0.23791746
0.22205063
0.20375914
0.20001575
0.17643736
0.14581981
0.11244722
0.10524213
0.059035839
0.0092041241
-0.0017341809
-0.055941974
-0.094931635
-0.11731605
-0.11710122
-0.10936973
-0.1097804
-0.071873815
-0.070482156
-0.084043665
0.0026660218
0.058151894
0.062324123
0.036998384
0.055925042
0.055575211
0.056120841
0.073774112
0.090950756
0.1031098
0.10531068
0.11103185
0.11467692
0.11505272
0.11678994
0.11813588
0.11921632
0.11939894
0.12029731
0.12114551
0.12182674
0.12192747
0.12241595
0.1227505
0.12296931
0.12299869
0.12312361
0.12317799
0.12318396
0.12318195
0.12315002
0.12311048
0.12308251
0.12307889
0.1230843
0.12316721
0.12331159
0.1233424
0.12355605
0.12384294
0.12415164
0.12421867
0.12459948
0.12500623
0.12508301
0.12546741
0.1258624
0.12618577
0.12623492
0.12647862
0.12668668
0.12680464
0.12681861
0.12686505
0.1267958
0.12662863
0.12658569
0.1262473
0.12578093
0.12504421
0.12490461
0.12414263
0.12258413
0.12203486
0.12193965
0.12124897
0.12099815
0.12095435
0.1207739
0.12079622
0.12093415
0.12098343
0.12125489
0.12165748
0.12217967
0.12228523
0.12287832
0.12362539
0.1244358
0.12458866
0.12547529
0.12651488
0.12757984
0.12777757
0.12893465
0.13023997
0.13152922
0.1317739
0.13318656
0.13472815
0.13621294
0.1365094
0.13815893
0.13990211
0.14025486
0.14190427
0.14376703
0.14567201
0.14603349
0.14786775
0.14991085
0.15194007
0.15230961
0.15430101
0.15648526
0.15860212
0.1589812
0.16109954
0.16338338
0.16555197
0.16594367
0.16815796
0.17049946
0.17268563
0.17309419
0.17537376
0.17773239
0.17990467
0.18033492
0.18265051
0.18498839
0.18544552
0.18757566
0.18989893
0.19218354
0.19260593
0.19473663
0.19703665
0.19924624
0.19964092
0.20175009
0.20399906
0.20611752
0.20649168
0.20856092
0.21073578
0.21275142
0.21311215
0.21512706
0.21720964
0.21911446
0.2194684
0.22141801
0.22339461
0.22518392
0.22553718
0.22741382
0.22927477
0.23094645
0.2313045
0.23310178
0.23484215
0.23516073
0.23676382
0.23847345
0.24009514
0.24038273
0.24191471
0.24353119
0.24503837
0.24530328
0.24676287
0.24828347
0.24968133
0.24993074
0.2513184
0.25274221
0.25403637
0.25427641
0.25559359
0.25692135
0.25811757
0.2583535
0.25960294
0.2608362
0.26194068
0.26217712
0.26336064
0.26450354
0.26471233
0.2657624
0.2668808
0.2679389
0.26812658
0.269126
0.27017792
0.27116017
0.27133251
0.27228092
0.27327287
0.2741807
0.27434318
0.2752512
0.27617554
0.27702799
0.27718567
0.27804151
0.27892987
0.27971177
0.2798664
0.28072361
0.28152782
0.28169794
0.28247913
0.28325065
0.28413254
0.2842722
0.28498068
0.28593778
0.28676408
0.28692894
0.28783995
0.28877601
0.28975349
0.28992503
0.29087105
0.29193674
0.29292989
0.29311089
0.29414665
0.29521903
0.29620905
0.29639257
0.29738307
0.2983088
0.29903529
0.29917484
0.29979003
0.30014844
0.30017265
0.30025606
0.30002869
0.29941519
0.29923963
0.2982851
0.29690613
0.2951646
0.29482266
0.29290637
0.29038774
0.28754473
0.28699163
0.28370264