/*--------------------------------*- C++ -*----------------------------------*\
| =========                 |                                                 |
| \\      /  F ield         | OpenFOAM: The Open Source CFD Toolbox           |
|  \\    /   O peration     | Version:  2.4.0                                 |
|   \\  /    A nd           | Web:      www.OpenFOAM.org                      |
|    \\/     M anipulation  |                                                 |
\*---------------------------------------------------------------------------*/
FoamFile
{
    version     2.0;
    format      ascii;
    class       volScalarField;
    location    "370";
    object      f;
}
// * * * * * * * * * * * * * * * * * * * * * * * * * * * * * * * * * * * * * //

dimensions      [0 0 -1 0 0 0 0];

internalField   nonuniform List<scalar> 
32000
(
0.19394221
0.064437047
0.13322491
0.047856089
0.029153921
0.0027798528
0.0067237098
0.0036339785
0.0038273902
0.0026758367
0.0023542962
0.0020246735
0.001779376
0.001555424
0.0013406335
0.0011314005
0.00096383424
0.00083800256
0.00073662723
0.00064576839
0.00056694957
0.00048530338
0.00040270465
0.00031172938
0.0002057776
8.4765448e-05
0.00018621744
0.00032963777
0.00047750885
0.00062342533
0.00075993483
0.00087859281
0.00097133683
0.0010311378
0.0010537302
0.0010397593
0.00099295672
0.00091446004
0.00080719189
0.00068145554
0.00054908337
0.00042102923
0.00030598702
0.00020688618
0.0001265327
6.2089928e-05
9.7631886e-05
0.0001469762
0.00016587432
0.00016164101
0.00015285383
0.00012510173
8.9233008e-05
0.00011606421
0.00016798542
0.00022008418
0.00026971913
0.00031260538
0.00034629946
0.0003680578
0.00037618506
0.00036900869
0.0003449737
0.00030200816
0.00023743607
0.00014815158
0.00015770249
0.00031077834
0.00049705643
0.00071289298
0.00095099783
0.0012014829
0.0014537207
0.0016977356
0.0019246313
0.0021264655
0.0022962604
0.0024278966
0.0025165901
0.0025591037
0.0025526046
0.0024937521
0.0023777582
0.0021975962
0.0019425852
0.0016114937
0.0011931659
0.0006552188
0.00020924356
0.0010219519
0.0020016184
0.0031525943
0.0044644182
0.0058918105
0.0073336252
0.0086171776
0.009511817
0.009799887
0.0093896267
0.0083419085
0.0069149243
0.0054228965
0.0041041487
0.0030589348
0.0022802284
0.0017270832
0.0013725782
0.0012016003
0.0011904251
0.0012982659
0.0014858233
0.0017237204
0.0019950134
0.0022887158
0.0025927835
0.0028924237
0.0031712138
0.0034174603
0.0036268742
0.0038007243
0.003939775
0.0040376655
0.0040812392
0.0040575611
0.0039614267
0.0037996651
0.0035951886
0.0033772282
0.0031693199
0.0029839719
0.0028183093
0.0026568966
0.002476502
0.0022519702
0.0019627494
0.0015979228
0.0011577432
0.0006504359
0.000128512
0.00073908618
0.0014107458
0.0021458979
0.0029464753
0.0038077897
0.0047184794
0.00566236
0.0066225975
0.0075823946
0.0085299917
0.0094394027
0.010300068
0.010953069
0.011332603
0.0098190618
0.0076267146
0.0067140735
0.0060469137
0.0056487216
0.0054230085
0.0053186341
0.0053085474
0.0053929164
0.0055477218
0.0057666031
0.0060685015
0.0065168958
0.0070878934
0.0077071179
0.0083454786
0.0089771712
0.0095794444
0.010132681
0.010619494
0.010980677
0.011140119
0.011076007
0.01084381
0.01049437
0.01001756
0.0094297194
0.0087395451
0.0079441725
0.0070426086
0.0060393086
0.0048667933
0.0034317768
0.001260407
0.0017415537
0.0051662973
0.0094468943
0.015214341
0.021087462
0.030909037
0.027010771
0.045153628
0.03176645
0.063871911
0.065426539
0.1460836
0.065788215
0.4412325
0.14192073
0.2797898
0.093252507
0.059100882
0.0082902299
0.010962752
0.0049643687
0.0049350745
0.0033632497
0.0029036686
0.0024515629
0.0021336036
0.0018551115
0.0016017953
0.0013643832
0.001175995
0.0010350159
0.0009220495
0.00082163716
0.00073431156
0.00064511803
0.00055542492
0.00045778978
0.00034559962
0.0002189096
0.00031000451
0.00044486224
0.0005852183
0.00072451093
0.00085527104
0.00096906231
0.0010578306
0.0011145552
0.0011349869
0.0011197922
0.001072688
0.00099471087
0.00088862748
0.00076452203
0.00063409097
0.00050822807
0.00039568038
0.00029966134
0.00022349635
0.00016588009
0.00021125983
0.00027304209
0.00030126973
0.00030414601
0.00030037038
0.00027679665
0.00024484177
0.00027359914
0.00032689707
0.00038034504
0.00043123436
0.00047536665
0.00051032909
0.000533433
0.00054300578
0.00053740827
0.00051513146
0.00047420587
0.00041219403
0.0003270779
0.00033950525
0.0004931046
0.00068073519
0.00089796279
0.0011372583
0.0013885368
0.0016409892
0.0018845059
0.0021101467
0.0023100389
0.002477369
0.00260624
0.0026920891
0.0027318693
0.0027228923
0.0026619248
0.0025442723
0.0023630244
0.0021077689
0.001777307
0.0013611199
0.00083020335
0.000397754
0.0011951379
0.0021663654
0.0033092733
0.0046124213
0.0060304408
0.0074628529
0.0087387154
0.0096302619
0.0099229585
0.0095261968
0.0085003233
0.0070991099
0.0056313598
0.0043313455
0.0032979659
0.0025250455
0.0019732712
0.0016171019
0.0014424772
0.0014266256
0.0015297545
0.0017131718
0.0019477786
0.0022166572
0.0025087852
0.0028121322
0.0031119377
0.0033917827
0.0036397858
0.0038512397
0.0040268062
0.0041666133
0.0042638669
0.0043053104
0.0042782553
0.0041780349
0.0040121506
0.0038039125
0.0035826654
0.0033719166
0.0031840674
0.0030162398
0.002853097
0.0026715769
0.0024467036
0.0021580341
0.0017946495
0.0013568063
0.00085346895
0.00034230529
0.00093488188
0.0015950102
0.0023186346
0.0031070272
0.0039555717
0.0048531873
0.0057840119
0.0067314304
0.0076787708
0.0086140609
0.0095113393
0.010358496
0.010998562
0.011357173
0.0098628808
0.0077018209
0.0067871482
0.0061227935
0.0057257909
0.0055010186
0.0053975356
0.0053884393
0.0054734146
0.005628848
0.005848641
0.0061519211
0.006600543
0.0071704878
0.0077885162
0.0084255995
0.0090560386
0.0096571558
0.010209354
0.01069475
0.011054345
0.01121307
0.011149958
0.010919882
0.010572844
0.01009917
0.0095151217
0.0088293893
0.0080393773
0.007144532
0.0061493855
0.0049880136
0.003565885
0.0014562766
0.0019883402
0.0054333698
0.0097465427
0.015559728
0.021492176
0.031409397
0.027727029
0.047296961
0.034549795
0.088174117
0.10796102
0.30397784
0.15164456
0.65470711
0.21307998
0.39657397
0.13136137
0.084218852
0.014038314
0.015095262
0.0063762006
0.0060596787
0.0040733618
0.0034662091
0.0028898449
0.0024968597
0.0021625112
0.001869609
0.001603253
0.0013934272
0.0012367761
0.0011117829
0.001001458
0.00090531572
0.00080830634
0.00071128133
0.00060677618
0.00048817131
0.00035566455
0.00043614268
0.00056221973
0.00069490348
0.00082744651
0.00095235825
0.0010612101
0.0011459562
0.0011995844
0.001217859
0.0012014613
0.0011540892
0.0010766865
0.00097186596
0.00084948271
0.00072108527
0.00059749788
0.00048751467
0.00039463612
0.00032271297
0.00027198803
0.00032711019
0.00040118966
0.00043869758
0.00044858297
0.00044967033
0.00043010896
0.00040189973
0.0004323693
0.0004868217
0.00054141122
0.00059336251
0.00063856549
0.00067463868
0.0006989494
0.00070984809
0.0007057297
0.00068513303
0.00064619631
0.00058673415
0.00050582975
0.0005211459
0.00067522154
0.0008641787
0.001082785
0.001323257
0.0015752991
0.0018279083
0.0020708314
0.0022950808
0.002492857
0.0026575195
0.0027834062
0.0028661879
0.0029030191
0.0028913644
0.002828104
0.002708642
0.0025261911
0.0022706176
0.0019407641
0.0015267909
0.0010031679
0.0005845584
0.0013661532
0.002328512
0.0034629569
0.0047570093
0.0061651988
0.0075877425
0.0088555328
0.0097438495
0.010041455
0.0096589666
0.0086561358
0.0072820755
0.0058398941
0.0045596159
0.0035387128
0.0027718913
0.0022215513
0.0018636138
0.0016851401
0.0016643705
0.0017625552
0.0019416394
0.0021728157
0.0024391951
0.0027297184
0.0030323695
0.0033324199
0.003613451
0.0038633809
0.0040770599
0.004254509
0.004395185
0.0044918342
0.0045310908
0.004500525
0.0043960379
0.0042258436
0.0040136789
0.003789016
0.0035753351
0.0033849269
0.0032149089
0.003050046
0.0028674519
0.0026423367
0.0023543698
0.0019926288
0.0015573755
0.0010583455
0.00055831921
0.0011324701
0.001780638
0.0024923253
0.003268103
0.0041034278
0.0049875116
0.0059048281
0.0068389902
0.0077734542
0.0086960289
0.0095807737
0.010413999
0.01104077
0.01137824
0.0099048413
0.0077771286
0.006861042
0.0061998871
0.0058043217
0.0055806571
0.005478189
0.0054701777
0.0055558175
0.0057119233
0.0059326699
0.0062373534
0.0066861342
0.0072548704
0.0078715126
0.0085071037
0.0091360553
0.0097357659
0.010286652
0.010770324
0.011128022
0.011285796
0.011223563
0.010995565
0.010650903
0.010180375
0.009600154
0.0089189088
0.0081343164
0.0072462506
0.006259259
0.0051089077
0.0036998339
0.0016535628
0.0022372453
0.0057015246
0.010046426
0.015901225
0.021894811
0.031881878
0.028469949
0.04922553
0.03740027
0.10778879
0.14240005
0.42972187
0.23141912
0.84907755
0.27982008
0.49396676
0.16374528
0.10541116
0.019991702
0.019132401
0.0078716147
0.007201902
0.0048065211
0.004041866
0.0033393868
0.00286895
0.002477415
0.0021438642
0.0018478062
0.0016159337
0.0014430861
0.0013056282
0.0011850307
0.0010797616
0.00097466913
0.00087007772
0.00075849722
0.00063330875
0.00049485606
0.00056445624
0.00068152704
0.00080637724
0.00093204295
0.0010510076
0.0011548501
0.0012355331
0.0012860534
0.0013021862
0.0012846196
0.0012370268
0.0011602671
0.0010568012
0.00093624431
0.00080998427
0.00068876514
0.00058142134
0.00049174293
0.00042411128
0.00038032998
0.00044506872
0.00053126774
0.00057798368
0.00059475609
0.00060053717
0.00058480153
0.00056014848
0.00059209721
0.0006474631
0.00070296871
0.00075577323
0.00080185655
0.00083886933
0.00086423595
0.00087633021
0.00087358181
0.00085457932
0.00081757412
0.00076064685
0.00068399214
0.00070220534
0.00085670841
0.0010469628
0.001266933
0.001508565
0.0017613386
0.0020140435
0.002256273
0.0024789886
0.0026744673
0.0028362509
0.0029589258
0.003038409
0.0030720689
0.0030575307
0.0029917948
0.00287037
0.0026865982
0.0024306346
0.0021013734
0.0016896979
0.001173643
0.00076917647
0.0015345376
0.0024875905
0.0036131694
0.0048976959
0.0062955832
0.0077077738
0.0089670893
0.0098520207
0.010154808
0.0097873722
0.0088088044
0.0074633188
0.0060480471
0.0047885579
0.0037808153
0.0030204344
0.0024716071
0.0021118011
0.0019292735
0.0019033382
0.0019963392
0.0021708908
0.0023984919
0.002662285
0.0029511742
0.0032531571
0.0035535373
0.0038358931
0.0040879283
0.0043040253
0.0044835294
0.0046251895
0.0047212647
0.004758271
0.0047240494
0.0046151025
0.0044403992
0.0042241345
0.0039959219
0.003779216
0.0035861926
0.0034139622
0.003247394
0.0030637835
0.0028385334
0.0025514287
0.0021915427
0.0017591435
0.0012647701
0.00077624409
0.0013315545
0.001967317
0.0026666434
0.0034293628
0.0042510058
0.0051210892
0.0060244354
0.0069448942
0.0078660531
0.0087754952
0.0096472966
0.010466165
0.011079283
0.011395463
0.009944642
0.0078523811
0.0069355602
0.0062780142
0.0058841357
0.0056617371
0.0055603911
0.0055535357
0.0056398678
0.0057966533
0.0060183505
0.0063244022
0.0067732009
0.0073404886
0.0079554643
0.0085892546
0.0092163906
0.0098143538
0.010363572
0.01084514
0.011200575
0.011357135
0.011295657
0.011069698
0.0107274
0.010260055
0.0096837232
0.0090070462
0.0082279747
0.0073467946
0.0063680084
0.0052286198
0.0038329145
0.0018517387
0.0024876264
0.0059698069
0.010345236
0.016237184
0.022293277
0.032325264
0.02923607
0.050953913
0.040299731
0.12360397
0.17054318
0.53480739
0.30714229
1.0339582
0.3436182
0.57884504
0.19160048
0.12339614
0.026117908
0.023086604
0.0094528552
0.0083629425
0.0055632764
0.0046307868
0.0038002044
0.0032498097
0.0027997232
0.0024244407
0.0020979107
0.0018433729
0.0016537929
0.0015034207
0.0013721808
0.0012574682
0.0011440204
0.0010316253
0.0009127629
0.00078082261
0.00063629709
0.00069476495
0.00080260514
0.00091946478
0.0010381314
0.0011510567
0.0012498268
0.0013264133
0.0013738221
0.0013878367
0.0013691433
0.0013213847
0.0012453439
0.0011433323
0.0010247144
0.00090070335
0.0007819516
0.00067732618
0.00059090824
0.00052761409
0.00049081581
0.00056501469
0.00066311901
0.000718948
0.00074246406
0.00075274923
0.00074063227
0.00071932475
0.00075250082
0.00080852085
0.00086469952
0.00091813237
0.00096489093
0.0010026588
0.0010289184
0.0010420674
0.0010405707
0.0010230687
0.00098793164
0.00093352039
0.00086114764
0.00088226201
0.0010371423
0.0012286613
0.001449978
0.001692752
0.0019462229
0.0021989597
0.0024403919
0.0026614265
0.00285442
0.0030131071
0.0031323357
0.0032082831
0.0032385437
0.0032209123
0.0031525157
0.0030289733
0.0028437635
0.002587341
0.0022586634
0.0018493828
0.0013411841
0.00095115321
0.0016998634
0.0026431729
0.0037594852
0.0050340628
0.0064211898
0.0078225644
0.0090730278
0.0099544341
0.010262668
0.0099110351
0.0089579134
0.0076424056
0.0062553951
0.0050177791
0.0040239173
0.003270348
0.0027231293
0.0023613617
0.0021745745
0.0021432219
0.0022307936
0.0024006076
0.002624485
0.0028856041
0.0031728312
0.0034741782
0.0037749803
0.0040588079
0.0043131362
0.0045318528
0.0047135907
0.0048563517
0.0049518796
0.0049865618
0.0049485246
0.0048349082
0.0046554818
0.0044349323
0.0042030298
0.0039832042
0.0037875105
0.0036130494
0.003444796
0.0032602329
0.0030349617
0.0027488863
0.0023910747
0.0019618032
0.0014724455
0.00099576356
0.0015318342
0.0021547315
0.0028412619
0.0035904735
0.0043979739
0.0052535989
0.0061425349
0.0070488786
0.0079563523
0.0088523081
0.0097108325
0.01051501
0.011114206
0.011409061
0.0099823957
0.0079275526
0.0070106784
0.0063571308
0.0059651777
0.005744194
0.0056440685
0.0056384304
0.0057254729
0.0058829351
0.0061055682
0.0064129362
0.0068615931
0.0074271731
0.0080401807
0.0086718396
0.0092968092
0.0098926607
0.01043983
0.010918889
0.011271678
0.011426745
0.011365878
0.011141903
0.010801943
0.0103378
0.0097654076
0.0090933676
0.0083199057
0.0074457026
0.006475152
0.0053466458
0.0039646674
0.0020503518
0.0027389653
0.0062376345
0.010642304
0.016566966
0.022686719
0.032740366
0.030022974
0.052500148
0.043232472
0.13634205
0.19375773
0.62676261
0.38039498
1.2159552
0.4056381
0.65592057
0.21585215
0.13874714
0.032384404
0.026971239
0.011122214
0.0095444011
0.0063442785
0.0052332106
0.0042723521
0.0036393967
0.003129346
0.002711221
0.0023534322
0.0020755984
0.0018687361
0.0017049867
0.0015627245
0.0014382444
0.0013161637
0.0011957244
0.001069372
0.00093051225
0.00077978917
0.00082687785
0.000925264
0.0010339801
0.0011455315
0.0012523317
0.0013459733
0.0014184371
0.001462739
0.0014746673
0.0014548978
0.0014070361
0.0013317982
0.0012313488
0.0011147913
0.00099314944
0.00087697152
0.00077514833
0.00069205264
0.00063313888
0.00060334976
0.00068682211
0.00079658144
0.00086140627
0.00089150194
0.00090608179
0.0008973565
0.00087916288
0.00091329624
0.00096969314
0.0010262846
0.0010801051
0.0011273193
0.0011656447
0.0011926228
0.0012066754
0.0012063033
0.0011902007
0.0011568626
0.0011049446
0.0010368801
0.0010608954
0.0012161018
0.0014088491
0.0016314925
0.0018753879
0.00212952
0.0023822225
0.0026227506
0.0028419523
0.0030322681
0.0031876355
0.0033031782
0.0033753478
0.0034019785
0.0033810422
0.0033097997
0.0031839866
0.0029972259
0.0027402825
0.0024121906
0.0020054199
0.0015053821
0.00113007
0.0018617469
0.0027948787
0.0039015291
0.0051657423
0.0065416609
0.0079317685
0.0091730115
0.01005075
0.010364675
0.01002956
0.0091030298
0.0078188857
0.0064615001
0.005246876
0.0042676569
0.0035213057
0.0029758156
0.0026120052
0.0024207559
0.0023837326
0.0024656253
0.0026304918
0.0028504938
0.0031088499
0.0033943891
0.0036951367
0.0039964588
0.0042819128
0.0045387299
0.0047602744
0.0049444282
0.0050884061
0.0051834059
0.0052156771
0.0051736464
0.0050551315
0.0048707514
0.0046457216
0.004409984
0.0041869437
0.0039885281
0.0038118231
0.0036419107
0.0034564658
0.0032312945
0.0029464227
0.0025909122
0.0021650497
0.001681074
0.0012165559
0.0017330044
0.0023425615
0.0030158495
0.0037510994
0.0045440008
0.0053847248
0.0062588388
0.0071506975
0.0080441627
0.0089263503
0.0097713488
0.010560601
0.011145697
0.011419305
0.010018271
0.0080026597
0.0070864047
0.0064372188
0.0060474139
0.0058279824
0.0057291662
0.0057247973
0.0058125606
0.0059706888
0.0061942345
0.0065028556
0.0069511998
0.0075148042
0.0081255331
0.0087547201
0.0093771617
0.0099705239
0.010515248
0.010991375
0.011341115
0.011494386
0.011433961
0.011211882
0.010874204
0.010413251
0.00984482
0.009177459
0.0084096708
0.0075425108
0.0065801998
0.0054624753
0.0040946367
0.0022489578
0.0029907591
0.0065044688
0.010937057
0.016890153
0.023074584
0.033128758
0.03082864
0.053884098
0.046184887
0.14659313
0.21309015
0.71070145
0.45242996
1.3998594
0.46681468
0.72854239
0.23722338
0.15192373
0.038758754
0.030800313
0.01288207
0.010748319
0.0071503041
0.0058494866
0.0047559357
0.0040377022
0.003466211
0.0030040965
0.002614239
0.002312462
0.0020877516
0.0019101477
0.0017564715
0.0016218915
0.0014908941
0.0013621666
0.0012281147
0.0010821679
0.00092512436
0.0009605953
0.0010493046
0.0011497277
0.0012540532
0.0013546486
0.0014431123
0.0015114347
0.0015526417
0.0015625239
0.0015417372
0.0014938432
0.0014195004
0.0013207303
0.001206364
0.0010872211
0.00097373181
0.0008748007
0.00079509146
0.00074059852
0.00071783145
0.00081036092
0.00093148978
0.0010051718
0.0010416632
0.0010603092
0.0010547293
0.0010393974
0.0010742005
0.0011306797
0.001187407
0.0012413591
0.0012887954
0.001327468
0.0013549787
0.0013697739
0.0013703909
0.0013555796
0.0013239658
0.0012745147
0.0012107785
0.0012376901
0.0013931702
0.0015871058
0.0018110526
0.0020560465
0.0023108013
0.0025634008
0.0028029148
0.0030201285
0.00320757
0.0033593904
0.0034710042
0.0035391523
0.0035619222
0.0035374712
0.0034632006
0.0033349697
0.0031465532
0.0028890379
0.0025615502
0.002157427
0.0016658755
0.0013055572
0.0020198603
0.0029423869
0.0040389844
0.005292419
0.0066566765
0.0080350532
0.0092666843
0.010140578
0.010460396
0.010142475
0.0092436579
0.0079922618
0.0066658904
0.005475423
0.0045116606
0.0037729799
0.0032293705
0.0028634549
0.0026675495
0.0026246039
0.0027005649
0.0028602701
0.0030762416
0.0033317447
0.0036155709
0.0039157587
0.0042177035
0.0045049439
0.0047644504
0.0049890347
0.0051757867
0.0053210924
0.0054155728
0.0054453284
0.0053991053
0.0052754423
0.0050858619
0.0048561469
0.0046164263
0.0043900791
0.0041888955
0.0040099411
0.003838404
0.0036521559
0.0034272127
0.0031437255
0.0027907488
0.0023685827
0.0018903595
0.0014382952
0.0019347568
0.0025304815
0.003190067
0.0039108943
0.0046887406
0.0055141298
0.0063730267
0.0072500563
0.0081292229
0.0089974005
0.0098286693
0.010602813
0.011173684
0.011426209
0.010052234
0.0080775925
0.0071626492
0.0065181787
0.0061307387
0.0059129898
0.0058155647
0.0058125092
0.0059009968
0.0060597731
0.0062842001
0.0065939998
0.0070418496
0.0076032018
0.0082113331
0.0088377
0.0094572432
0.010047729
0.010589597
0.011062358
0.011408631
0.011559788
0.011499612
0.011279317
0.010943836
0.010486038
0.0099215615
0.0092588962
0.0084968216
0.0076367457
0.0066826531
0.0055755949
0.0042223815
0.002447133
0.0032425352
0.0067698365
0.01122902
0.017206515
0.023456496
0.033492464
0.031651007
0.055126727
0.049145877
0.15484168
0.22934739
0.79023367
0.52426287
1.5893358
0.5279122
0.79916955
0.25628525
0.1632957
0.045208752
0.034588155
0.01473492
0.011977216
0.0079822832
0.0064800948
0.0052511267
0.0044447609
0.0038102716
0.003302974
0.0028802076
0.0025538191
0.0023106757
0.0021187231
0.0019532283
0.0018082067
0.0016680021
0.0015307381
0.0013887747
0.0012355734
0.0010720879
0.0010957116
0.0011745215
0.001266505
0.0013634986
0.0014578152
0.0015410578
0.0016052266
0.001643358
0.0016512422
0.0016295055
0.0015816583
0.0015083113
0.0014113466
0.0012993128
0.001182809
0.0010721325
0.00097619049
0.00089993544
0.00084990219
0.00083415687
0.00093549849
0.0010676773
0.0011500574
0.0011927418
0.0012152076
0.0012125083
0.0011997659
0.0012349344
0.0012911851
0.0013477553
0.0014015682
0.0014489794
0.0014877769
0.0015156234
0.001530991
0.0015324535
0.0015188188
0.0014888498
0.0014418358
0.0013824414
0.0014122396
0.0015679402
0.0017630197
0.001988243
0.0022343093
0.0024896457
0.0027420708
0.0029804585
0.0031955263
0.0033798945
0.0035279391
0.0036353805
0.0036992645
0.0037179464
0.0036897763
0.0036123034
0.0034815173
0.0032913533
0.0030332315
0.0027063877
0.0023050781
0.0018223634
0.0014773079
0.0021739469
0.0030854523
0.004171613
0.0054138559
0.0067659905
0.0081321495
0.0093537387
0.010223558
0.010549409
0.010249309
0.0093792895
0.0081620179
0.0068680743
0.0057029769
0.0047555445
0.0040250415
0.0034835073
0.0031154514
0.0029147101
0.0028655964
0.0029353732
0.0030897006
0.003301484
0.0035540428
0.0038361317
0.0041358015
0.0044384748
0.0047276648
0.0049900641
0.0052179002
0.0054074294
0.0055541649
0.0056481188
0.0056752325
0.0056245933
0.0054955098
0.0053004657
0.0050658522
0.0048220006
0.0045922594
0.0043882706
0.0042070711
0.0040339534
0.0038469894
0.00362241
0.0033404939
0.0029902877
0.0025721088
0.0021000087
0.001660652
0.0021367801
0.0027181617
0.0033635701
0.0040695061
0.0048318416
0.0056414702
0.006484771
0.0073466488
0.0082112529
0.0090652089
0.009882575
0.010641462
0.011198012
0.011429692
0.010084172
0.0081521776
0.007239269
0.0065998622
0.0062149979
0.0059990543
0.005903093
0.0059013844
0.0059905892
0.0061499845
0.0063752485
0.0066861354
0.0071332917
0.0076920994
0.0082972984
0.0089204816
0.0095367419
0.01012395
0.010662538
0.011131484
0.011473863
0.011622578
0.011562449
0.011343811
0.011010429
0.010555733
0.0099951909
0.009337223
0.0085808862
0.0077279179
0.0067820056
0.0056854972
0.0043474876
0.0026444903
0.0034938709
0.0070333464
0.011517834
0.01751601
0.023832225
0.03383391
0.032487968
0.056249656
0.052107299
0.16148698
0.2431552
0.8680031
0.59673448
1.7857184
0.58954489
0.85339153
0.2734817
0.17316155
0.051702593
0.038349034
0.016683427
0.013234126
0.0088413312
0.0071256688
0.0057581791
0.0048606641
0.0041615167
0.0036077838
0.0031512292
0.0027995342
0.0025373501
0.0023305352
0.0021528021
0.0019969867
0.0018472763
0.0017012228
0.0015511334
0.0013905095
0.0012204613
0.0012320178
0.0013007055
0.0013841048
0.0014736647
0.0015616334
0.001639617
0.0016996259
0.0017347077
0.001740649
0.0017180373
0.0016703241
0.0015980823
0.0015030588
0.0013935093
0.0012797959
0.0011720671
0.0010792198
0.0010064915
0.00096095631
0.00095221953
0.0010621011
0.0012049775
0.0012958772
0.0013445345
0.0013705568
0.001370456
0.0013600118
0.0013952261
0.0014509217
0.001507027
0.0015604159
0.0016075421
0.0016462306
0.0016742062
0.0016899671
0.0016921241
0.0016795454
0.0016511371
0.0016065273
0.0015514811
0.0015841513
0.0017400179
0.0019361918
0.0021626601
0.002409769
0.0026656428
0.0029178202
0.0031549673
0.0033677305
0.0035488262
0.0036928671
0.0037958957
0.0038552786
0.0038696537
0.0038375702
0.0037567335
0.0036232703
0.0034312853
0.0031725443
0.002846412
0.0024481169
0.0019746194
0.0016450924
0.002323836
0.003223922
0.0042992731
0.005529914
0.0068694545
0.0082228829
0.0094339543
0.010299404
0.010631351
0.010349625
0.0095094304
0.0083276348
0.0070675457
0.0059290782
0.0049989135
0.0042771602
0.0037379485
0.0033677542
0.0031620193
0.0031065034
0.0031698467
0.003318579
0.0035260149
0.0037755374
0.0040558652
0.0043550601
0.0046585696
0.0049498739
0.0052153692
0.0054466662
0.0056391437
0.0057873971
0.0058807966
0.0059051145
0.0058498057
0.005715003
0.0055142144
0.0052744826
0.0050263546
0.0047931415
0.0045863223
0.0044028945
0.0042282521
0.0040406693
0.0038165965
0.0035364421
0.0031892449
0.0027753438
0.0023097329
0.0018832944
0.0023387606
0.0029052689
0.0035360106
0.0042265808
0.0049729531
0.0057664074
0.0065937525
0.0074401815
0.0082899885
0.0091295423
0.009932863
0.010676379
0.011218538
0.011429679
0.010113962
0.0082262228
0.0073161007
0.0066820972
0.0063000104
0.0060859841
0.0059915472
0.0059912053
0.0060811066
0.0062410772
0.0064671181
0.0067789805
0.0072252237
0.0077811758
0.008383089
0.0090027068
0.0096152821
0.010198794
0.010733663
0.011198333
0.011536382
0.011682322
0.011622031
0.011404916
0.01107353
0.010621877
0.010065241
0.0094119641
0.0086613808
0.0078155329
0.0068777543
0.005791694
0.0044695854
0.0028406972
0.0037444144
0.0072947177
0.011803288
0.017818823
0.024201773
0.034155993
0.033337763
0.057274697
0.055064144
0.166859
0.25499897
0.94519427
0.67052279
1.8985768
0.64245239
0.90735067
0.28916657
0.1817628
0.058209058
0.042096688
0.018730453
0.014522632
0.0097287837
0.0077870207
0.0062774477
0.0052855739
0.0045199826
0.0039184893
0.0034272179
0.0030494872
0.0027676273
0.0025454145
0.002355006
0.0021880323
0.0020285084
0.0018734065
0.0017149732
0.0015467573
0.0013700258
0.0013693057
0.0014276475
0.0015023187
0.0015843462
0.0016659021
0.0017385934
0.0017944411
0.0018265045
0.0018305645
0.0018071597
0.0017596753
0.0016886565
0.0015957194
0.0014888173
0.0013780578
0.0012734232
0.001183786
0.0011146633
0.0010736653
0.0010719115
0.0011900353
0.0013432257
0.0014424488
0.001496843
0.0015261431
0.0015283427
0.001519887
0.0015548131
0.0016096135
0.0016649317
0.001717599
0.0017641684
0.0018025034
0.001830392
0.0018463593
0.001849053
0.0018374044
0.0018104689
0.0017682276
0.0017175287
0.0017530504
0.0019090272
0.0021062405
0.0023339165
0.0025820333
0.0028383968
0.0030902508
0.0033260426
0.0035363432
0.0037139697
0.0038537839
0.0039521663
0.0040068216
0.0040166845
0.0039805095
0.0038961659
0.003759925
0.0035660704
0.0033067263
0.0029814076
0.00258637
0.0021225049
0.0018087721
0.0024694576
0.0033577497
0.0044219335
0.0056405681
0.0069670344
0.008307191
0.0095072165
0.010367924
0.010705932
0.010443035
0.009633613
0.0084885967
0.0072637864
0.0061532495
0.005241358
0.0045290009
0.0039924245
0.0036201423
0.003409288
0.0033471535
0.0034038218
0.0035467435
0.0037496723
0.0039960661
0.0042746093
0.0045733735
0.0048778273
0.0051714095
0.0054402003
0.0056751597
0.0058707436
0.0060205833
0.0061133729
0.0061347068
0.0060744398
0.0059335903
0.0057267585
0.005481684
0.0052291409
0.0049923911
0.0047827325
0.0045971095
0.0044210124
0.0042329186
0.0040095018
0.0037313023
0.0033873511
0.0029780136
0.0025192476
0.0021058873
0.0025403813
0.0030914665
0.0037070374
0.0043817633
0.0051117271
0.0058886108
0.0066996656
0.0075303792
0.0083651872
0.0091901918
0.0099793548
0.010707414
0.011235134
0.011426106
0.010141477
0.008299518
0.00739296
0.0067646871
0.0063855673
0.0061735563
0.0060806897
0.0060817182
0.00617228
0.0063327664
0.0065595062
0.0068722114
0.0073173013
0.0078700688
0.0084683247
0.0090839785
0.0096924513
0.010271836
0.010802533
0.011262456
0.011595736
0.01173857
0.011677905
0.011462175
0.011132677
0.010684005
0.010131242
0.0094826461
0.008737828
0.0078991076
0.0069694164
0.0058937343
0.0045883687
0.0030354978
0.0039939112
0.0075538075
0.012085359
0.01811541
0.024565457
0.034462097
0.034199288
0.058223388
0.058014654
0.17123041
0.26523414
0.93721985
0.72169747
1.945678
0.65310865
0.89651707
0.29965349
0.18928961
0.064697656
0.045843801
0.020879089
0.015846892
0.010646236
0.0084651673
0.0068094087
0.0057197388
0.0048857652
0.0042350969
0.0037081188
0.0033035809
0.0030013776
0.002763205
0.0025596642
0.0023811533
0.0022114976
0.0020470814
0.0018800822
0.0017041028
0.0015205669
0.0015073718
0.0015551423
0.0016209412
0.0016953395
0.0017704203
0.0018377894
0.001889478
0.0019185586
0.0019208035
0.0018966936
0.0018495398
0.0017798698
0.0016891738
0.0015850932
0.0014774637
0.0013760826
0.0012897823
0.001224352
0.0011879325
0.0011931244
0.0013191693
0.0014822605
0.0015895945
0.0016494755
0.001681761
0.0016859481
0.0016791546
0.001713446
0.001766998
0.0018211946
0.001872831
0.0019185612
0.0019562887
0.0019838656
0.0019998451
0.0020029124
0.0019920633
0.0019665096
0.0019265985
0.0018802382
0.0019185848
0.0020746145
0.0022728049
0.0025016446
0.0027507287
0.00300753
0.0032589828
0.0034933048
0.0037009875
0.003874954
0.0040103272
0.0041038429
0.0041535605
0.0041587257
0.0041183037
0.0040303353
0.0038912445
0.0036955035
0.0034356081
0.0031112475
0.0027197598
0.0022659827
0.001968313
0.0026108552
0.0034870094
0.0045396878
0.0057459202
0.0070588251
0.0083851394
0.0095735355
0.010429042
0.010772962
0.010529227
0.0097514123
0.0086444023
0.007456271
0.0063749953
0.0054824513
0.004780221
0.0042466712
0.003872414
0.0036563571
0.0035874138
0.0036371786
0.0037740793
0.0039723427
0.0042155161
0.004492252
0.0047906293
0.0050961341
0.0053921539
0.0056644324
0.0059032434
0.0061020726
0.0062535402
0.0063456283
0.0063637481
0.006298193
0.0061509366
0.0059377453
0.0056871025
0.0054300169
0.0051896847
0.0049771986
0.0047894336
0.0046119681
0.0044234832
0.0042008778
0.0039248266
0.0035843531
0.0031798555
0.002728273
0.0023280922
0.0027413221
0.0032764146
0.0038762979
0.0045347015
0.0052478248
0.0060077659
0.006802228
0.0076169964
0.0084366415
0.009246986
0.010021909
0.010734452
0.011247702
0.011418925
0.010166594
0.0083718435
0.0074696492
0.0068474172
0.0064714369
0.006261521
0.0061702516
0.0061726345
0.0062638018
0.0064247254
0.0066520663
0.0069654601
0.0074091377
0.0079583762
0.0085525892
0.0091638676
0.0097678095
0.010342625
0.010868692
0.011323394
0.011651469
0.011790866
0.011729619
0.011515135
0.011187418
0.010741664
0.01019274
0.0095488148
0.0088097725
0.007978187
0.0070565466
0.0059912228
0.0047036172
0.0032287346
0.0042422274
0.0078106434
0.012364239
0.018406529
0.02492397
0.034756069
0.035072276
0.059116594
0.060960101
0.17482646
0.27415781
0.92596226
0.72996168
1.93997
0.66246389
0.88398258
0.30878451
0.19589472
0.071138771
0.049601431
0.023132667
0.017211662
0.011595583
0.0091613572
0.0073546819
0.0061635108
0.0052590341
0.0045576681
0.0039939179
0.0035617492
0.0032384959
0.0029837712
0.0027666179
0.0025761742
0.0023960559
0.0022220512
0.0020462587
0.0018623415
0.0016718784
0.0016460215
0.0016829935
0.0017397737
0.0018064464
0.0018749913
0.0019370099
0.0019845439
0.0020106796
0.0020111791
0.0019864564
0.0019397406
0.0018715521
0.0017832604
0.0016821865
0.0015778759
0.0014799217
0.001397098
0.0013354564
0.0013036605
0.0013157502
0.0014493745
0.0016219248
0.0017371427
0.0018022481
0.0018372153
0.001843064
0.0018375907
0.0018708899
0.00192283
0.0019755591
0.002025845
0.0020704442
0.0021073019
0.0021343355
0.0021501273
0.0021533999
0.0021432165
0.0021189512
0.0020813299
0.0020392913
0.0020804296
0.0022364522
0.0024355498
0.0026655002
0.0029155037
0.0031726855
0.0034236572
0.0036563963
0.0038613115
0.0040314366
0.0041621688
0.0042506155