/*--------------------------------*- C++ -*----------------------------------*\
| =========                 |                                                 |
| \\      /  F ield         | OpenFOAM: The Open Source CFD Toolbox           |
|  \\    /   O peration     | Version:  2.4.0                                 |
|   \\  /    A nd           | Web:      www.OpenFOAM.org                      |
|    \\/     M anipulation  |                                                 |
\*---------------------------------------------------------------------------*/
FoamFile
{
    version     2.0;
    format      ascii;
    class       volSymmTensorField;
    location    "9343";
    object      Rx;
}
// * * * * * * * * * * * * * * * * * * * * * * * * * * * * * * * * * * * * * //

dimensions      [0 0 0 0 0 0 0];

internalField   nonuniform List<symmTensor> 
32000
(
(1.1709981e-06 -0.00012836888 8.1212862e-25 -1.1500385e-06 -2.6634774e-23 -2.0959618e-08)
(-6.6490505e-08 -0.00010535202 4.8697763e-25 1.2616643e-07 -2.6541688e-24 -5.9675929e-08)
(-8.3800419e-06 -0.00015367594 6.2202831e-24 8.3421181e-06 -1.5503754e-22 3.7923856e-08)
(-1.8635255e-05 -0.00012074132 -1.3247605e-23 1.8666167e-05 -3.1819492e-22 -3.0911698e-08)
(-2.9211565e-05 -9.6137921e-05 -1.303864e-22 2.9198017e-05 -3.8415351e-22 1.3547766e-08)
(-1.6583241e-05 -3.296693e-05 2.9179577e-22 1.6639942e-05 1.3475027e-21 -5.6700785e-08)
(8.598169e-06 9.7856968e-06 3.625043e-22 -8.5162399e-06 9.5538924e-22 -8.1929108e-08)
(3.6954369e-05 2.9654823e-05 -3.2631523e-22 -3.6868117e-05 -7.3641039e-22 -8.6251476e-08)
(4.0672435e-05 2.3445871e-05 3.3478953e-22 -4.0613415e-05 9.8187539e-22 -5.901962e-08)
(3.9840862e-05 1.712143e-05 -2.4680003e-22 -3.9788269e-05 -5.6966019e-22 -5.2592737e-08)
(3.64099e-05 1.2014048e-05 4.5642639e-22 -3.6366881e-05 4.9594222e-22 -4.3018588e-08)
(3.3052194e-05 8.6094185e-06 4.4112038e-22 -3.3016803e-05 2.802955e-22 -3.5390366e-08)
(3.0364037e-05 6.4277999e-06 1.5744104e-21 -3.033444e-05 1.6617268e-21 -2.9597155e-08)
(2.8406853e-05 5.0917875e-06 -6.4325678e-22 -2.8380932e-05 -8.2575655e-22 -2.5920307e-08)
(2.6813447e-05 4.2994613e-06 -4.8369556e-22 -2.6790529e-05 -6.8392516e-22 -2.2918003e-08)
(2.5364221e-05 3.9063108e-06 8.4822443e-22 -2.5344127e-05 9.6677895e-22 -2.0094114e-08)
(2.4024161e-05 3.8364655e-06 2.0162947e-21 -2.400732e-05 2.2299908e-21 -1.684084e-08)
(2.3059574e-05 4.0285342e-06 5.1943089e-22 -2.3045549e-05 7.4379881e-22 -1.4025e-08)
(2.2471313e-05 4.2791639e-06 1.539507e-21 -2.2459464e-05 1.7826442e-21 -1.1848752e-08)
(2.2121133e-05 4.5313037e-06 1.331032e-21 -2.2111113e-05 1.5805979e-21 -1.0020105e-08)
(2.2020663e-05 4.7983387e-06 2.2538975e-21 -2.2012333e-05 2.7777723e-21 -8.3298824e-09)
(2.2229789e-05 5.1014505e-06 -1.458818e-21 -2.2222755e-05 -1.8671318e-21 -7.0339513e-09)
(2.2741337e-05 5.4451413e-06 4.6021366e-22 -2.2735379e-05 3.3012276e-22 -5.9577257e-09)
(2.3624563e-05 5.855332e-06 9.455146e-22 -2.3619229e-05 1.0939706e-21 -5.3345649e-09)
(2.4871712e-05 6.3277494e-06 1.2922621e-21 -2.4866506e-05 1.6634804e-21 -5.2058788e-09)
(2.6493605e-05 6.8716015e-06 -9.3516113e-22 -2.6487841e-05 -1.260376e-21 -5.7639489e-09)
(2.8338336e-05 7.4471838e-06 -2.244467e-21 -2.8331299e-05 -2.6929558e-21 -7.0364528e-09)
(3.0178283e-05 8.1050536e-06 -2.4862903e-21 -3.0169929e-05 -2.9264783e-21 -8.3534517e-09)
(3.2029447e-05 8.9699034e-06 7.5704227e-22 -3.2019764e-05 7.3402253e-22 -9.6820378e-09)
(3.3893062e-05 1.0094708e-05 -7.0843906e-22 -3.3881908e-05 -7.0694385e-22 -1.1153887e-08)
(3.5690466e-05 1.1510969e-05 -6.4504072e-22 -3.5677861e-05 -8.4319372e-22 -1.2604362e-08)
(3.7339539e-05 1.3253314e-05 7.8335272e-22 -3.7325576e-05 1.1634729e-21 -1.3963008e-08)
(3.8728457e-05 1.5349293e-05 6.2845383e-22 -3.871342e-05 1.1450385e-21 -1.5037128e-08)
(3.9716521e-05 1.7813721e-05 9.1909043e-23 -3.9700915e-05 -6.5881768e-23 -1.5605546e-08)
(4.0167351e-05 2.0662405e-05 -1.1557003e-21 -4.0152028e-05 -2.3259482e-21 -1.532384e-08)
(4.0057468e-05 2.3931394e-05 -1.3317208e-21 -4.0043306e-05 -1.8521587e-21 -1.4162291e-08)
(3.956927e-05 2.7663481e-05 8.3006836e-22 -3.9556475e-05 1.3814552e-21 -1.2795442e-08)
(3.8602747e-05 3.16379e-05 9.6167246e-23 -3.8591005e-05 -1.4840677e-22 -1.1741569e-08)
(3.6939329e-05 3.5661878e-05 7.5508214e-22 -3.6929084e-05 2.0418305e-21 -1.0244673e-08)
(3.4479829e-05 3.9567265e-05 -3.5986542e-22 -3.4471192e-05 -1.1295104e-21 -8.6372986e-09)
(3.1266485e-05 4.3264089e-05 1.4613122e-22 -3.1259844e-05 3.6763299e-22 -6.6412258e-09)
(2.7170889e-05 4.6357848e-05 1.5351118e-22 -2.7165977e-05 4.36898e-22 -4.9115541e-09)
(2.2516163e-05 4.9092886e-05 -6.3811814e-23 -2.2513716e-05 -3.9319384e-22 -2.4467004e-09)
(1.7117854e-05 5.0615439e-05 -6.2297935e-23 -1.711597e-05 -8.9057007e-23 -1.8836854e-09)
(1.1707665e-05 5.2609202e-05 1.8723283e-23 -1.1709318e-05 -5.0667073e-22 1.652978e-09)
(5.9066248e-06 5.3076452e-05 2.088224e-23 -5.9041912e-06 -1.4274861e-24 -2.4335968e-09)
(1.0703594e-06 6.3097028e-05 6.5530348e-25 -1.0815226e-06 1.8053709e-23 1.1163124e-08)
(2.4230671e-07 7.7262639e-05 -2.5709902e-25 -2.4556033e-07 -5.1224422e-26 3.2536258e-09)
(1.8079501e-07 8.4732633e-05 -1.0208216e-26 -1.8660396e-07 2.9633572e-25 5.8089483e-09)
(1.5550295e-07 9.137525e-05 7.6367969e-27 -1.5814064e-07 -3.2557856e-25 2.6376917e-09)
(1.3345116e-07 9.5672732e-05 -3.9617859e-27 -1.3699865e-07 1.2229482e-25 3.5474907e-09)
(1.198736e-07 9.9342759e-05 -1.7290416e-27 -1.2203352e-07 1.2709899e-25 2.1599206e-09)
(1.077068e-07 0.00010185147 1.1336032e-26 -1.1012745e-07 -2.1826115e-25 2.4206536e-09)
(9.847044e-08 0.00010386216 -4.1933129e-27 -1.0019077e-07 7.15925e-26 1.7203283e-09)
(8.988403e-08 0.00010517762 -6.5405677e-28 -9.160196e-08 5.9628028e-27 1.7179296e-09)
(8.2544532e-08 0.00010608712 -2.7276246e-27 -8.385785e-08 4.3978934e-26 1.313318e-09)
(7.5613589e-08 0.00010652806 3.2535368e-27 -7.6829372e-08 -3.1976907e-26 1.2157828e-09)
(6.9197884e-08 0.00010664108 -8.2748726e-27 -7.0145659e-08 9.1893789e-26 9.4777533e-10)
(6.2856105e-08 0.00010640237 -2.3852656e-27 -6.36698e-08 -1.2286672e-25 8.1369475e-10)
(5.6757205e-08 0.00010587899 8.4441875e-27 -5.7366767e-08 6.1764726e-26 6.0956167e-10)
(5.0802099e-08 0.0001050762 -1.3767953e-27 -5.1274237e-08 3.1814024e-26 4.7213796e-10)
(4.5034346e-08 0.0001040356 6.5916464e-28 -4.5344144e-08 -1.1290298e-25 3.0979789e-10)
(3.9404357e-08 0.0001027696 2.9168542e-27 -3.9586438e-08 1.4780476e-26 1.820809e-10)
(3.393784e-08 0.00010130602 1.2545863e-28 -3.3985837e-08 -1.9710965e-26 4.7997026e-11)
(2.862171e-08 9.9659278e-05 2.3974594e-27 -2.8555856e-08 3.320149e-26 -6.5853823e-11)
(2.3472132e-08 9.7850159e-05 3.1771453e-27 -2.3293833e-08 -2.8862104e-26 -1.7829874e-10)
(1.8492306e-08 9.5892878e-05 -3.5606617e-27 -1.8214895e-08 -3.7041856e-27 -2.7741072e-10)
(1.3700592e-08 9.3804433e-05 2.1225055e-27 -1.3328665e-08 -3.7628483e-27 -3.7192732e-10)
(9.1045329e-09 9.1598674e-05 -6.0102718e-27 -8.6477582e-09 6.2618824e-26 -4.5677477e-10)
(4.7162226e-09 8.9290205e-05 -3.4517192e-28 -4.1803471e-09 -6.3179656e-28 -5.3587551e-10)
(5.3779091e-10 8.6891827e-05 -9.5419844e-28 6.9249582e-11 -3.8256428e-26 -6.0704049e-10)
(-3.4277607e-09 8.4415772e-05 1.1087335e-27 4.1009437e-09 3.5527024e-26 -6.7318306e-10)
(-7.1738822e-09 8.1873302e-05 -7.7926024e-28 7.9067722e-09 -3.3071954e-26 -7.3288998e-10)
(-1.0705674e-08 7.9275259e-05 2.6887123e-29 1.1493779e-08 1.9982036e-26 -7.881056e-10)
(-1.4024254e-08 7.6630763e-05 2.0334345e-27 1.4862738e-08 -1.5867454e-26 -8.3848422e-10)
(-1.7105679e-08 7.3949046e-05 2.0629493e-27 1.7990245e-08 -4.7851725e-28 -8.8456611e-10)
(-1.9939252e-08 7.1240472e-05 -1.6050355e-27 2.0864168e-08 5.6910906e-27 -9.2491647e-10)
(-2.2570985e-08 6.8513915e-05 8.0745277e-28 2.3533673e-08 -1.1234997e-28 -9.6268781e-10)
(-2.5010371e-08 6.577409e-05 -1.5032494e-27 2.6008752e-08 1.3936241e-27 -9.9838112e-10)
(-2.7231154e-08 6.3028298e-05 5.6739023e-29 2.8261262e-08 2.3035445e-27 -1.0301087e-09)
(-2.9247549e-08 6.0283139e-05 -2.3688927e-29 3.0307429e-08 -1.3046616e-27 -1.0598803e-09)
(-3.1065964e-08 5.7543898e-05 -2.4354881e-27 3.2153211e-08 -8.9040631e-27 -1.0872473e-09)
(-3.2690821e-08 5.4816122e-05 2.1583201e-27 3.3802922e-08 9.5436651e-27 -1.1121014e-09)
(-3.4137033e-08 5.2104556e-05 4.5131583e-28 3.5272974e-08 1.2606106e-27 -1.135941e-09)
(-3.5404095e-08 4.9412704e-05 1.6278594e-28 3.6562395e-08 3.1603462e-27 -1.1583002e-09)
(-3.649941e-08 4.6745241e-05 -1.0547936e-27 3.7677975e-08 -1.0405906e-26 -1.1785647e-09)
(-3.7439662e-08 4.4105204e-05 8.5487143e-28 3.8638598e-08 -2.8800795e-27 -1.1989354e-09)
(-3.8220401e-08 4.1495337e-05 4.8486593e-28 3.9437623e-08 6.2580176e-27 -1.2172216e-09)
(-3.8861347e-08 3.8919024e-05 -3.8015481e-28 4.0096817e-08 6.5683755e-27 -1.2354706e-09)
(-3.9368181e-08 3.637764e-05 9.7938772e-29 4.0621805e-08 -2.0747057e-26 -1.2536237e-09)
(-3.9742685e-08 3.3873985e-05 -5.9543214e-29 4.1012821e-08 1.943413e-26 -1.270136e-09)
(-4.0000758e-08 3.1409346e-05 -3.5616565e-28 4.1288695e-08 -1.3823664e-26 -1.2879368e-09)
(-4.0140746e-08 2.8985272e-05 2.1066249e-28 4.1444395e-08 8.5853558e-27 -1.3036487e-09)
(-4.017885e-08 2.6603188e-05 -6.1253347e-28 4.1499736e-08 -1.2166054e-26 -1.3208858e-09)
(-4.0112318e-08 2.4264053e-05 2.6500015e-28 4.1448908e-08 1.3187139e-27 -1.3365896e-09)
(-3.9958919e-08 2.1969151e-05 3.7311703e-29 4.1312051e-08 1.0846987e-27 -1.3531318e-09)
(-3.9729763e-08 1.9718148e-05 1.4798923e-29 4.1099539e-08 -7.595963e-28 -1.3697755e-09)
(-3.9419054e-08 1.7511928e-05 7.6271594e-29 4.0805362e-08 -1.8102389e-27 -1.3863079e-09)
(-3.9038193e-08 1.5350691e-05 3.2753669e-29 4.0441182e-08 4.495212e-27 -1.4029883e-09)
(-3.8575436e-08 1.3234565e-05 -4.1309966e-29 3.999498e-08 -4.4347603e-28 -1.4195439e-09)
(-3.7998595e-08 1.116585e-05 -2.1384596e-29 3.9432871e-08 9.5733287e-28 -1.4342764e-09)
(-3.7297867e-08 9.147813e-06 6.302963e-29 3.874417e-08 4.8895302e-28 -1.4463036e-09)
(-3.6490696e-08 7.1839625e-06 7.6638597e-29 3.7947759e-08 -6.2864219e-28 -1.4570637e-09)
(-3.5612199e-08 5.2765439e-06 -2.8872057e-29 3.7078269e-08 1.1481433e-27 -1.4660701e-09)
(-3.4696764e-08 3.4251914e-06 -4.8315545e-30 3.61729e-08 2.481124e-27 -1.4761358e-09)
(-3.3751138e-08 1.6292433e-06 -4.9480866e-29 3.5237445e-08 1.2461363e-26 -1.4863066e-09)
(-3.2792335e-08 -1.1171148e-07 -1.4205698e-28 3.4289456e-08 -1.660315e-26 -1.497121e-09)
(-3.183571e-08 -1.8001191e-06 -1.5312159e-28 3.3344571e-08 2.4888467e-28 -1.5088605e-09)
(-3.0865323e-08 -3.4376368e-06 1.6817294e-28 3.238665e-08 -2.6538724e-26 -1.5213266e-09)
(-2.9872277e-08 -5.0243235e-06 5.4950614e-28 3.1405439e-08 3.888849e-26 -1.5331621e-09)
(-2.8862991e-08 -6.5609523e-06 -1.7285543e-28 3.0408783e-08 -2.8224871e-26 -1.5457923e-09)
(-2.783193e-08 -8.0478316e-06 -3.747058e-28 2.9389444e-08 3.9764749e-26 -1.5575146e-09)
(-2.6784849e-08 -9.484909e-06 -3.8811544e-28 2.8354202e-08 9.9236283e-27 -1.5693529e-09)
(-2.5722531e-08 -1.0872749e-05 2.1568222e-28 2.7303568e-08 -2.5116029e-26 -1.5810374e-09)
(-2.4642821e-08 -1.2211021e-05 3.6917548e-28 2.6234736e-08 -3.737238e-26 -1.5919145e-09)
(-2.3555563e-08 -1.3500058e-05 3.5287894e-28 2.5158615e-08 2.3757044e-26 -1.6030518e-09)
(-2.245571e-08 -1.4740206e-05 -7.5174597e-28 2.4069392e-08 6.5578116e-27 -1.6136818e-09)
(-2.1342803e-08 -1.5930877e-05 -4.1116565e-28 2.2966259e-08 -4.1306133e-26 -1.623456e-09)
(-2.0226316e-08 -1.707238e-05 1.1349072e-27 2.1859798e-08 -1.7035662e-26 -1.6334816e-09)
(-1.9100131e-08 -1.8164788e-05 -6.2561999e-29 2.0742864e-08 1.1814213e-27 -1.6427332e-09)
(-1.7963982e-08 -1.9207455e-05 -8.0662007e-28 1.9615378e-08 6.1627756e-26 -1.6513954e-09)
(-1.6825821e-08 -2.0200375e-05 4.4806856e-28 1.8485603e-08 -7.6061834e-26 -1.6597824e-09)
(-1.5679719e-08 -2.1143501e-05 3.7339844e-28 1.7347462e-08 1.120439e-25 -1.6677426e-09)
(-1.4524181e-08 -2.2035851e-05 4.6741653e-28 1.6198678e-08 -2.0891374e-26 -1.6744974e-09)
(-1.3366733e-08 -2.2877256e-05 -6.6112956e-28 1.5048354e-08 2.1405577e-26 -1.6816209e-09)
(-1.2200369e-08 -2.3667172e-05 -4.1917579e-28 1.3887714e-08 -7.4079431e-27 -1.6873449e-09)
(-1.1023139e-08 -2.4404544e-05 -3.2539419e-29 1.2715984e-08 -2.0153043e-26 -1.6928445e-09)
(-9.8408714e-09 -2.5088444e-05 -7.314702e-29 1.153804e-08 1.0993022e-26 -1.6971683e-09)
(-8.6458413e-09 -2.5718335e-05 -3.2709418e-29 1.0347613e-08 -2.2708074e-26 -1.7017722e-09)
(-7.4355268e-09 -2.6292041e-05 -8.9123564e-28 9.1392768e-09 -6.2397573e-27 -1.7037501e-09)
(-6.2123631e-09 -2.6808954e-05 2.1033129e-27 7.9198842e-09 -3.8236357e-26 -1.7075211e-09)
(-4.9693446e-09 -2.7266529e-05 -1.3790819e-27 6.6764336e-09 2.781489e-26 -1.7070891e-09)
(-3.6997815e-09 -2.7663751e-05 8.753655e-28 5.4094107e-09 -5.9104338e-26 -1.7096292e-09)
(-2.4067319e-09 -2.7996526e-05 -2.8608475e-28 4.1125901e-09 2.0496154e-26 -1.7058582e-09)
(-1.0734047e-09 -2.8264845e-05 3.4793906e-21 2.7818076e-09 1.2221775e-22 -1.7084029e-09)
(2.9455409e-10 -2.8461427e-05 3.4879107e-21 1.4042068e-09 1.9839862e-19 -1.6987609e-09)
(1.7212951e-09 -2.8588403e-05 -3.517205e-21 -1.7838468e-11 2.0038548e-19 -1.7034566e-09)
(3.1784957e-09 -2.863321e-05 -7.1026667e-21 -1.4939707e-09 -2.671897e-22 -1.684525e-09)
(4.7131101e-09 -2.8604384e-05 -3.592876e-21 -3.0160789e-09 -2.043743e-19 -1.6970311e-09)
(6.3160869e-09 -2.8479065e-05 3.6229791e-21 -4.6554994e-09 -2.0640508e-19 -1.6605876e-09)
(8.1069654e-09 -2.8273966e-05 3.6245685e-21 -6.4187957e-09 1.4528e-22 -1.6881697e-09)
(9.9937786e-09 -2.7942537e-05 3.2146058e-28 -8.3787824e-09 9.8860442e-26 -1.6149961e-09)
(1.2157511e-08 -2.752641e-05 1.2223435e-27 -1.0479198e-08 2.980218e-26 -1.678313e-09)
(1.4375007e-08 -2.6937124e-05 1.4106972e-27 -1.2837674e-08 -7.1734723e-26 -1.5373335e-09)
(1.7060494e-08 -2.6271757e-05 -3.8800507e-27 -1.5378858e-08 3.4129302e-26 -1.6816362e-09)
(1.9717712e-08 -2.5351468e-05 2.8950992e-27 -1.8314311e-08 -1.0659052e-25 -1.4034004e-09)
(2.3219688e-08 -2.4392408e-05 -1.8631885e-27 -2.1496636e-08 1.5954906e-25 -1.7230525e-09)
(2.6573523e-08 -2.3026125e-05 4.3453444e-27 -2.5412219e-08 -1.2910488e-25 -1.1613039e-09)
(3.1583213e-08 -2.1714367e-05 -3.6323527e-27 -2.9742057e-08 2.100813e-25 -1.8411559e-09)
(3.6177893e-08 -1.9693954e-05 -2.4172277e-27 -3.5477851e-08 -6.6263211e-26 -7.0004167e-10)
(4.423165e-08 -1.7940083e-05 2.5139786e-27 -4.2122042e-08 -3.701042e-26 -2.1096073e-09)
(5.137986e-08 -1.4854945e-05 4.4522353e-28 -5.1602278e-08 1.4127787e-26 2.2241806e-10)
(6.7649603e-08 -1.2488063e-05 2.4477475e-25 -6.5041081e-08 -2.3121739e-25 -2.6085223e-09)
(1.8055005e-07 -7.2998634e-06 1.7119619e-23 -1.8302581e-07 1.4264242e-23 2.4757566e-09)
(3.9856552e-07 -3.3819437e-06 -5.4687384e-23 -3.9744012e-07 1.0256111e-21 -1.1254075e-09)
(8.7964322e-07 -3.9783881e-06 -2.3821384e-22 -8.8429995e-07 2.0061823e-21 4.6567302e-09)
(1.3856202e-06 -4.145074e-06 1.8464254e-22 -1.3910235e-06 -1.1220592e-21 5.4032367e-09)
(2.5436414e-06 -5.5976084e-06 -3.3755396e-22 -2.5526999e-06 1.4785588e-21 9.0584502e-09)
(3.8886578e-06 -6.6829322e-06 -1.9693959e-22 -3.8986801e-06 6.5016895e-22 1.0022331e-08)
(5.8013779e-06 -8.0815372e-06 -7.9619806e-22 -5.8132325e-06 2.7197185e-21 1.1854678e-08)
(7.9397071e-06 -9.1593676e-06 3.7803624e-22 -7.9518006e-06 -1.0348932e-21 1.2093493e-08)
(1.0561776e-05 -1.0244782e-05 2.669319e-22 -1.0574002e-05 -7.5245697e-22 1.222592e-08)
(1.342391e-05 -1.1050452e-05 -1.2800466e-21 -1.3435203e-05 2.7689444e-21 1.1293133e-08)
(1.6674789e-05 -1.1714815e-05 1.2169917e-22 -1.6684558e-05 -9.1571373e-23 9.7696978e-09)
(2.0217901e-05 -1.2152114e-05 -2.3829442e-21 -2.0225209e-05 4.2561816e-21 7.3078352e-09)
(2.4294629e-05 -1.2565852e-05 1.554797e-21 -2.429802e-05 -2.9075652e-21 3.3907616e-09)
(2.8728433e-05 -1.2960438e-05 -7.8266387e-22 -2.872701e-05 1.0384042e-21 -1.4221957e-09)
(3.3322319e-05 -1.3292186e-05 -1.2438932e-22 -3.3315599e-05 1.9871594e-22 -6.7197721e-09)
(3.8078419e-05 -1.361133e-05 -2.842861e-22 -3.8065763e-05 2.2744316e-22 -1.2655955e-08)
(4.2916262e-05 -1.394837e-05 -7.0214664e-22 -4.2897474e-05 1.3065668e-21 -1.8787792e-08)
(4.7842473e-05 -1.4365639e-05 6.0010783e-22 -4.7817065e-05 -1.2376146e-21 -2.5407901e-08)
(5.2726109e-05 -1.4890252e-05 -9.0718281e-22 -5.2694468e-05 9.4174848e-22 -3.1640557e-08)
(5.7587845e-05 -1.5599382e-05 -2.7245659e-22 -5.7549687e-05 9.3831945e-22 -3.8158002e-08)
(6.2043936e-05 -1.6444093e-05 -8.5931582e-22 -6.2000949e-05 1.1300614e-21 -4.2987617e-08)
(6.5884204e-05 -1.7231182e-05 -4.50715e-22 -6.5837471e-05 5.5923127e-22 -4.6733e-08)
(6.9056258e-05 -1.7749259e-05 5.4647354e-22 -6.9007647e-05 -5.688947e-22 -4.8611343e-08)
(7.2123562e-05 -1.7981339e-05 -2.3178557e-21 -7.2071666e-05 2.4255979e-21 -5.1895816e-08)
(7.5345188e-05 -1.8129931e-05 2.4946259e-23 -7.5289476e-05 -2.1567174e-22 -5.5712038e-08)
(7.8484246e-05 -1.8084069e-05 -1.8739105e-21 -7.8424565e-05 2.2228606e-21 -5.9681204e-08)
(8.1858638e-05 -1.7896188e-05 -2.0235895e-22 -8.1793773e-05 -1.2811142e-22 -6.4865462e-08)
(8.5465129e-05 -1.7550066e-05 3.4955629e-22 -8.5394362e-05 -4.6214243e-22 -7.0766725e-08)
(8.9674615e-05 -1.711298e-05 -4.6539389e-22 -8.9595376e-05 7.3879557e-22 -7.9239133e-08)
(9.4556951e-05 -1.6550737e-05 6.2907792e-22 -9.4468047e-05 1.8529178e-22 -8.8903543e-08)
(0.00010150832 -1.6248406e-05 -3.3069948e-22 -0.00010140187 9.2241636e-23 -1.0645616e-07)
(0.00011109713 -1.7157452e-05 -6.0673061e-22 -0.00011096709 -4.0063547e-23 -1.3004141e-07)
(0.0001223667 -1.9677543e-05 -3.667843e-22 -0.00012221208 -4.0935167e-22 -1.5461837e-07)
(0.00013571864 -2.4377472e-05 2.4539214e-22 -0.00013553567 2.1848756e-22 -1.8296595e-07)
(0.00015135211 -3.2075848e-05 4.985517e-22 -0.00015113851 -5.1108944e-22 -2.1360051e-07)
(0.00017038452 -4.437331e-05 -1.3721953e-21 -0.00017013089 1.0276251e-21 -2.5362988e-07)
(0.00019219337 -6.3344082e-05 1.8428741e-21 -0.00019189851 -1.4347302e-21 -2.9486017e-07)
(0.00021746177 -9.3360007e-05 1.0736983e-21 -0.00021710811 -1.0687747e-21 -3.5366624e-07)
(0.00023845422 -0.00013747654 6.02619e-22 -0.00023806606 -1.2450522e-21 -3.8816142e-07)
(0.0002469242 -0.00019923685 1.2603789e-21 -0.00024650214 -3.565e-22 -4.2205195e-07)
(0.00021304253 -0.00025684211 2.6793076e-21 -0.00021273449 -6.2779223e-21 -3.0804055e-07)
(0.00014554124 -0.0002752573 1.6833549e-21 -0.00014537724 -4.2082157e-21 -1.6399524e-07)
(7.6017305e-05 -0.0002412549 1.8369616e-22 -7.6006144e-05 -1.2442288e-21 -1.1161144e-08)
(3.2073166e-05 -0.00019704115 -9.0655777e-23 -3.206174e-05 7.6838629e-22 -1.1425391e-08)
(7.970529e-06 -0.00013286714 9.260771e-25 -8.0239585e-06 7.5200197e-23 5.3429565e-08)
(3.5252694e-07 -0.00011826177 -9.7890114e-25 -3.0653547e-07 1.1209169e-23 -4.5991467e-08)
(-6.9838111e-07 -6.5529367e-05 1.7142997e-24 6.5307463e-07 -5.0063206e-23 4.5306487e-08)
(7.1603615e-06 -0.00077046184 -4.7465056e-23 -6.9297728e-06 -1.786172e-22 -2.3058872e-07)
(-8.9395333e-08 -0.00066535003 -1.1937917e-23 6.6058044e-07 -3.4874457e-23 -5.7118511e-07)
(-4.6314945e-05 -0.00090002286 -2.5115075e-22 4.6258272e-05 -1.7876318e-22 5.6673234e-08)
(-0.00010740649 -0.00073670902 -3.3101678e-22 0.00010788205 3.6755169e-21 -4.7555966e-07)
(-0.00017130543 -0.00059072302 1.2115762e-21 0.00017135148 7.1089001e-21 -4.6049606e-08)
(-0.00011102842 -0.0002391863 -8.5290351e-23 0.00011082126 -5.8708831e-21 2.0716363e-07)
(3.108989e-05 2.2661803e-05 -4.6318763e-21 -3.1552344e-05 -1.1746929e-20 4.6245428e-07)
(0.00020292658 0.00015780834 -1.5353141e-21 -0.0002033053 -5.1176909e-21 3.7872364e-07)
(0.00023153898 0.00013226921 -9.2455041e-21 -0.00023183138 -1.6954088e-20 2.9239676e-07)
(0.00022902768 9.7859991e-05 3.0704211e-21 -0.00022927009 3.8804898e-21 2.4240572e-07)
(0.0002107697 6.9266117e-05 4.6104424e-21 -0.00021097103 8.2677015e-21 2.0133166e-07)
(0.00019230472 4.987539e-05 1.5990964e-21 -0.00019246976 4.4911425e-21 1.6504262e-07)
(0.00017730663 3.7325392e-05 -5.7566244e-21 -0.0001774463 -1.7937595e-21 1.3967236e-07)
(0.00016627536 2.9598851e-05 5.4799316e-21 -0.00016639714 7.3654462e-21 1.2177385e-07)
(0.00015725623 2.5041041e-05 1.149855e-20 -0.00015736449 1.1601693e-20 1.0825906e-07)
(0.00014906429 2.2829863e-05 2.9574607e-21 -0.00014915804 5.2319698e-21 9.3750904e-08)
(0.00014154392 2.2511372e-05 -6.4112269e-21 -0.00014162195 -4.5947224e-21 7.8029645e-08)
(0.00013617086 2.3699453e-05 -1.5103619e-20 -0.00013623505 -1.6626503e-20 6.4187992e-08)
(0.00013295113 2.5220261e-05 -7.3319562e-21 -0.00013300463 -7.6713091e-21 5.3497739e-08)
(0.00013112882 2.6756799e-05 -4.0066714e-21 -0.00013117248 -4.3319491e-21 4.3650784e-08)
(0.00013077707 2.8375583e-05 -1.2315395e-20 -0.00013081234 -1.2482757e-20 3.5269854e-08)
(0.00013222863 3.0194521e-05 9.8076599e-21 -0.00013225668 1.0172969e-20 2.8052525e-08)
(0.00013545476 3.2242016e-05 1.9397293e-20 -0.00013547689 2.5528463e-20 2.2124273e-08)
(0.00014082936 3.4657379e-05 -8.2309813e-21 -0.00014084764 -9.9087964e-21 1.827361e-08)
(0.00014830162 3.7415989e-05 -5.3465151e-21 -0.00014831802 -6.0381644e-21 1.6403491e-08)
(0.0001578884 4.0565545e-05 5.8154948e-21 -0.00015790693 8.8528441e-21 1.852858e-08)
(0.00016871159 4.3898403e-05 8.7996572e-21 -0.00016873483 8.7783422e-21 2.3243558e-08)
(0.00017951511 4.7738208e-05 4.2753691e-21 -0.00017954314 2.7514633e-22 2.8037347e-08)
(0.00019037367 5.2797533e-05 -2.978174e-21 -0.00019040691 -2.8924485e-21 3.3241361e-08)
(0.00020127975 5.9388414e-05 -1.1210526e-20 -0.00020131834 -1.7843805e-20 3.8591534e-08)
(0.00021178404 6.7706895e-05 -4.8047845e-21 -0.00021182794 -7.8211533e-21 4.3894169e-08)
(0.00022141245 7.7962198e-05 -5.5756252e-21 -0.00022146086 -7.9269787e-21 4.841639e-08)
(0.00022952773 9.033089e-05 -1.6845916e-20 -0.00022957935 -2.644515e-20 5.161885e-08)
(0.00023534228 0.00010492628 -1.5880589e-23 -0.00023539428 -6.5234518e-23 5.1995099e-08)
(0.00023810888 0.00012187315 1.5294379e-20 -0.00023815698 2.5093161e-20 4.8103148e-08)
(0.00023769818 0.00014138202 -4.6051111e-21 -0.00023773747 -1.0976101e-20 3.9283649e-08)
(0.00023501274 0.00016361953 5.0708542e-21 -0.00023504435 1.0450682e-20 3.1614539e-08)
(0.00022945753 0.00018733367 8.1343467e-21 -0.0002294797 1.8235429e-20 2.217423e-08)
(0.00021980149 0.0002114598 -8.1263219e-21 -0.00021981499 -1.6561008e-20 1.3495165e-08)
(0.00020548204 0.00023504415 1.0873538e-20 -0.0002054832 2.5874403e-20 1.1569433e-09)
(0.00018665104 0.00025751825 -2.7061855e-21 -0.00018664387 -7.8076941e-21 -7.1756247e-09)
(0.00016269194 0.00027679977 -9.8747602e-22 -0.00016266829 3.0468439e-21 -2.3647178e-08)
(0.00013521661 0.00029401682 -3.7163314e-22 -0.00013519163 1.0015371e-21 -2.498305e-08)
(0.00010353692 0.00030498454 -8.1865808e-22 -0.0001034876 -4.7394054e-21 -4.9313103e-08)
(7.1325854e-05 0.00031832817 1.0345537e-21 -7.1298662e-05 8.0564301e-21 -2.7192692e-08)
(3.771369e-05 0.00032556572 -1.7958707e-22 -3.7617676e-05 -1.9997836e-21 -9.6014528e-08)
(9.6804533e-06 0.00038247235 -6.7144639e-24 -9.6358709e-06 4.6800426e-23 -4.4582406e-08)
(4.6647688e-06 0.00045982979 -3.0539885e-25 -4.5100426e-06 -1.1913611e-24 -1.5472621e-07)
(3.7100459e-06 0.00050216829 -1.6693582e-25 -3.5855956e-06 -2.4226115e-25 -1.2445032e-07)
(3.3772218e-06 0.00053877941 1.7402622e-25 -3.2131523e-06 1.1825822e-24 -1.6406947e-07)
(3.0546371e-06 0.00056278439 -9.218838e-27 -2.8954069e-06 -3.343042e-25 -1.5923022e-07)
(2.8800772e-06 0.00058286004 -1.6628288e-25 -2.7020098e-06 1.060563e-26 -1.7806731e-07)
(2.7055058e-06 0.0005966108 9.9005403e-26 -2.5272017e-06 -9.8151749e-26 -1.7830414e-07)
(2.57848e-06 0.00060738567 8.0978625e-27 -2.3912171e-06 8.5761978e-25 -1.8726283e-07)
(2.4483737e-06 0.00061432191 -9.8713181e-27 -2.2606683e-06 -8.6132834e-25 -1.877054e-07)
(2.3351237e-06 0.00061889104 -3.1958812e-26 -2.1440011e-06 -4.7048837e-25 -1.911226e-07)
(2.2197163e-06 0.00062084539 1.3410967e-26 -2.0293864e-06 6.035683e-25 -1.9032992e-07)
(2.1085163e-06 0.00062091243 -4.1027916e-26 -1.9182369e-06 -1.5251916e-25 -1.9027946e-07)
(1.9919728e-06 0.00061899504 1.7885039e-25 -1.8040739e-06 -3.4680308e-25 -1.8789893e-07)
(1.8753464e-06 0.00061544896 -1.6776485e-25 -1.6899564e-06 4.3499377e-25 -1.8538995e-07)
(1.756364e-06 0.00061032453 -5.4677557e-26 -1.5748693e-06 -5.3630714e-25 -1.8149474e-07)
(1.6370563e-06 0.0006038453 1.6881457e-25 -1.4598288e-06 5.5968173e-25 -1.7722751e-07)
(1.5165877e-06 0.00059609105 -4.5256246e-26 -1.3445059e-06 -1.5419999e-26 -1.7208179e-07)
(1.396208e-06 0.00058721439 3.8537843e-26 -1.2296542e-06 5.3014037e-26 -1.6655381e-07)
(1.2759217e-06 0.00057730162 -8.9859103e-26 -1.115462e-06 1.1503261e-25 -1.6045971e-07)
(1.1565833e-06 0.00056646853 2.0934857e-26 -1.0025211e-06 -3.87916e-25 -1.5406226e-07)
(1.0385393e-06 0.00055479811 5.7680358e-26 -8.9121995e-07 4.6826783e-25 -1.4731935e-07)
(9.2254715e-07 0.000542386 -3.5172108e-27 -7.8216479e-07 -5.2644932e-25 -1.4038237e-07)
(8.0903961e-07 0.00052931178 -8.3349543e-26 -6.7577339e-07 6.7472477e-26 -1.3326623e-07)
(6.9857286e-07 0.00051565807 -1.3385143e-26 -5.7250299e-07 1.9709722e-25 -1.2606987e-07)
(5.9145756e-07 0.00050149788 1.2492534e-25 -4.7263296e-07 -1.4770762e-25 -1.188246e-07)
(4.8803441e-07 0.00048690064 -1.302025e-25 -3.7643393e-07 5.1956298e-26 -1.1160049e-07)
(3.8863855e-07 0.00047193053 1.2723022e-25 -2.8421074e-07 -6.2796969e-27 -1.0442781e-07)
(2.9340841e-07 0.00045664902 -8.4645017e-26 -1.9604966e-07 6.6283181e-26 -9.7358756e-08)
(2.0250084e-07 0.00044110802 5.5048941e-26 -1.1208195e-07 -4.9556414e-26 -9.0418895e-08)
(1.1649619e-07 0.00042535996 -5.4991545e-27 -3.2847645e-08 -2.1835931e-26 -8.3648543e-08)
(3.5718449e-08 0.00040946364 -1.9807223e-26 4.1354082e-08 2.2103169e-26 -7.7072531e-08)
(-4.0463206e-08 0.00039346942 6.6416363e-27 1.1117913e-07 7.249296e-28 -7.0715919e-08)
(-1.1214032e-07 0.00037740434 7.2717192e-27 1.76732e-07 5.7715969e-27 -6.4591676e-08)
(-1.7879968e-07 0.00036130975 2.1428914e-26 2.3751174e-07 1.65703e-26 -5.8712053e-08)
(-2.4059119e-07 0.00034522309 -3.3640944e-26 2.9368915e-07 -4.1769772e-26 -5.309796e-08)
(-2.9759327e-07 0.00032917477 -2.5599335e-26 3.4534391e-07 5.5306161e-26 -4.7750643e-08)
(-3.4985512e-07 0.00031319586 2.9613278e-26 3.9253242e-07 -2.3305692e-26 -4.2677303e-08)
(-3.9758257e-07 0.00029731363 -3.4995311e-27 4.3546981e-07 5.7376647e-26 -3.7887237e-08)
(-4.4078193e-07 0.00028154836 2.4746308e-27 4.7415653e-07 -5.5222527e-26 -3.3374595e-08)
(-4.7958458e-07 0.00026592601 -1.3637053e-26 5.0871934e-07 6.7730236e-26 -2.9134757e-08)
(-5.1426038e-07 0.00025046439 -1.0666464e-26 5.3944148e-07 -2.5566878e-26 -2.5181091e-08)
(-5.4478875e-07 0.00023517921 6.5290721e-27 5.6628043e-07 -3.8545621e-26 -2.1491679e-08)
(-5.7150493e-07 0.00022008925 7.6783324e-27 5.8957909e-07 -1.2568869e-26 -1.8074157e-08)
(-5.9454255e-07 0.00020520312 -2.5164178e-26 6.0946191e-07 3.5521015e-26 -1.4919362e-08)
(-6.1398691e-07 0.00019053622 2.0614329e-26 6.2599691e-07 5.728727e-26 -1.2009996e-08)
(-6.3012053e-07 0.00017609635 -1.0186102e-26 6.394804e-07 -1.2456282e-27 -9.3598653e-09)
(-6.4299599e-07 0.00016189228 3.6152905e-27 6.4992785e-07 -7.3734813e-26 -6.931863e-09)
(-6.5290293e-07 0.00014793204 -2.5734327e-27 6.5764879e-07 8.9410935e-26 -4.7458597e-09)
(-6.5987151e-07 0.00013422144 4.1652859e-28 6.6264116e-07 1.3788291e-26 -2.7696461e-09)
(-6.6423266e-07 0.00012076749 -8.4359972e-29 6.6524088e-07 -3.9497612e-26 -1.0082244e-09)
(-6.6623091e-07 0.00010756878 -6.6503614e-28 6.6567446e-07 2.1445846e-26 5.5645094e-10)
(-6.6581732e-07 9.4630573e-05 -5.7966428e-28 6.6388674e-07 -1.0002477e-26 1.9305833e-09)
(-6.6322123e-07 8.1954385e-05 1.1689416e-27 6.600955e-07 -1.7483605e-26 3.1257309e-09)
(-6.582787e-07 6.9542001e-05 -2.4305654e-28 6.5413538e-07 -8.2422056e-27 4.1433275e-09)
(-6.5051432e-07 5.7407828e-05 4.4279768e-28 6.4552453e-07 -6.4833403e-27 4.9897908e-09)
(-6.3983605e-07 4.5570321e-05 -5.0330786e-28 6.3416006e-07 -2.1449222e-28 5.6759831e-09)
(-6.2659582e-07 3.4049538e-05 -7.0986778e-28 6.2039243e-07 -3.3625306e-26 6.203387e-09)
(-6.1147132e-07 2.2857578e-05 6.0327482e-28 6.048702e-07 2.1033373e-26 6.6011282e-09)
(-5.9506994e-07 1.1991713e-05 1.3480414e-27 5.8820141e-07 -6.1973815e-26 6.8685285e-09)
(-5.7756479e-07 1.4485254e-06 -1.7652921e-27 5.7053924e-07 2.8115816e-26 7.025556e-09)
(-5.5930752e-07 -8.7742304e-06 -5.3535546e-28 5.5222466e-07 5.5661843e-26 7.082863e-09)
(-5.406075e-07 -1.8691488e-05 -2.5826036e-28 5.3355736e-07 -4.708342e-26 7.0501344e-09)
(-5.2122863e-07 -2.8312616e-05 4.6774981e-27 5.142989e-07 -1.0888837e-26 6.9297309e-09)
(-5.010671e-07 -3.7637809e-05 -6.6481308e-27 4.9433204e-07 1.241978e-25 6.7350554e-09)
(-4.8025668e-07 -4.6671286e-05 5.1358729e-27 4.7379206e-07 -2.2236356e-26 6.4646221e-09)
(-4.5876483e-07 -5.541462e-05 2.0116649e-27 4.5263023e-07 -4.1155254e-26 6.134598e-09)
(-4.3671668e-07 -6.3867665e-05 -6.3681788e-27 4.3097203e-07 -6.546085e-26 5.7446531e-09)
(-4.1416373e-07 -7.2033265e-05 -4.572533e-27 4.0885949e-07 -8.0236853e-26 5.3042385e-09)
(-3.9111541e-07 -7.9909702e-05 9.5216872e-27 3.8629215e-07 1.0587579e-25 4.8232634e-09)
(-3.6775715e-07 -8.7498765e-05 -1.2761847e-27 3.6345499e-07 -6.4055401e-26 4.302164e-09)
(-3.4404711e-07 -9.4802105e-05 -1.597966e-27 3.4029649e-07 -2.4718215e-27 3.7506263e-09)
(-3.2001682e-07 -0.00010181659 6.5840448e-27 3.1684142e-07 4.3614415e-25 3.1753954e-09)
(-2.9583883e-07 -0.00010854379 -3.954499e-28 2.9326098e-07 5.5849981e-26 2.5778574e-09)
(-2.7145385e-07 -0.00011498384 1.2480556e-26 2.694861e-07 -7.4485273e-25 1.9677487e-09)
(-2.4688613e-07 -0.00012113321 -1.8062767e-26 2.4553682e-07 1.5056551e-25 1.349302e-09)
(-2.2228904e-07 -0.00012699172 1.9499863e-26 2.2156193e-07 -2.6765204e-26 7.2710437e-10)
(-1.975946e-07 -0.00013255872 -2.5276173e-26 1.9749044e-07 4.4185334e-25 1.0415737e-10)
(-1.7281229e-07 -0.00013782882 -7.8309667e-27 1.7332009e-07 1.3257084e-25 -5.0779962e-10)
(-1.4807293e-07 -0.0001428008 3.3566561e-27 1.4918676e-07 -1.6475336e-25 -1.1138309e-09)
(-1.2330425e-07 -0.00014747124 2.6808317e-28 1.2500393e-07 -5.5974502e-25 -1.6996775e-09)
(-9.848702e-08 -0.00015183416 8.0840705e-27 1.0075624e-07 1.8409625e-25 -2.2692209e-09)
(-7.3744757e-08 -0.00015588413 -2.5774396e-27 7.6551945e-08 -2.9920077e-25 -2.807188e-09)
(-4.8961641e-08 -0.00015961753 4.6773916e-27 5.2288164e-08 3.5792816e-25 -3.3265221e-09)