y,U_0,U_1,U_2,UMean_0,UMean_1,UMean_2
0,0,0,0,0,0,0
0,0,0,0,0,0,0
0.00048240845,-0.0055159323,5.8138333e-06,2.2241207e-26,-0.0051771319,3.6460375e-06,1.555341e-25
0.00098049384,-0.011148692,1.7274098e-05,1.3504684e-26,-0.010473034,1.2866608e-05,1.6105857e-25
0.0014947656,-0.016941407,3.5201214e-05,-1.0055944e-28,-0.015928181,2.8377374e-05,-4.2159983e-28
0.0020257498,-0.022895635,6.0734103e-05,1.952711e-26,-0.021545588,5.090001e-05,5.9017644e-26
0.0025739895,-0.029013526,9.4279136e-05,2.2385292e-26,-0.027329144,8.0667778e-05,2.6117359e-25
0.0031400454,-0.035297115,0.00013640148,4.2378035e-27,-0.03328233,0.00011810511,2.7330532e-25
0.0037244966,-0.041748097,0.00018759582,2.896875e-26,-0.039407915,0.00016360162,2.8472665e-25
0.0043279408,-0.048367504,0.00024830189,5.0024885e-27,-0.045707484,0.00021753345,1.9020442e-26
0.0049509953,-0.055155234,0.00031895879,-1.6838794e-26,-0.052180773,0.00028026934,-1.3526965e-25
0.0055942973,-0.062109408,0.00040001578,9.624847e-27,-0.058824743,0.00035215324,1.2857786e-26
0.0062585048,-0.069225505,0.00049185449,3.9140352e-26,-0.065632389,0.00043349331,2.7276607e-25
0.0069442972,-0.076495269,0.0005947493,3.4343575e-26,-0.072591311,0.00052453832,2.5244828e-25
0.007652376,-0.083905343,0.00070896981,3.1079149e-27,-0.079682151,0.00062546592,1.360454e-25
0.0083834654,-0.091435657,0.00083473897,3.1076928e-27,-0.08687715,0.00073634924,1.3595277e-25
0.0091383131,-0.099057689,0.0009721421,3.8929814e-31,-0.094139118,0.00085712228,3.3417768e-28
0.0099176913,-0.10673292,0.0011211011,-5.2298102e-26,-0.10142122,0.00098751893,-2.7385115e-25
0.010722397,-0.11441187,0.0012812839,-5.9605134e-26,-0.10866785,0.0011270782,-2.6304188e-25
0.011553254,-0.12203413,0.0014521168,-5.805661e-26,-0.11581671,0.0012751358,-2.4253419e-25
0.012411111,-0.12953008,0.0016328152,-5.0623369e-26,-0.12280191,0.0014308392,-2.5319131e-25
0.013296846,-0.13682429,0.0018222749,-7.2603216e-27,-0.12955784,0.0015932325,-2.1596519e-25
0.014211364,-0.14384065,0.0020191308,4.01783e-26,-0.13602331,0.0017613382,3.6124628e-26
0.015155603,-0.15050837,0.002221923,4.7055741e-26,-0.14214539,0.0019340971,2.1429471e-25
0.016130526,-0.15676783,0.0024291809,-4.4361486e-27,-0.14788262,0.0021103332,-4.0848123e-26
0.017137132,-0.16257494,0.0026395206,-5.3724412e-26,-0.15320688,0.0022889117,-3.0132131e-25
0.018176449,-0.16790355,0.0028517156,-3.3756503e-26,-0.15810401,0.0024688328,5.5086571e-26
0.019249542,-0.17274528,0.0030647322,1.5783022e-26,-0.16257292,0.0026492536,3.5280637e-25
0.020357507,-0.17710754,0.0032777446,1.4868317e-26,-0.16662368,0.0028294882,2.519155e-25
0.021501477,-0.18101035,0.003490126,1.1044715e-26,-0.17027502,0.0030090125,2.2085486e-25
0.022682624,-0.18448249,0.0037014394,-6.9579083e-26,-0.1735515,0.0031874634,-2.4898368e-25
0.023902154,-0.18755778,0.0039114231,-6.5673429e-26,-0.17648097,0.0033646137,-2.1800526e-25
0.025161316,-0.19027207,0.0041199594,4.6809123e-26,-0.17909247,0.003540354,3.814813e-26
0.026461397,-0.19266103,0.0043270482,5.8984778e-26,-0.18141468,0.0037146713,1.437565e-25
0.027803728,-0.19475866,0.0045327812,-5.4249966e-28,-0.18347497,0.0038876232,-7.3524516e-26
0.02918968,-0.19659636,0.0047373106,-1.299585e-26,-0.18529875,0.0040593083,-1.8035954e-25
0.030620672,-0.19820254,0.0049408179,2.8564258e-31,-0.18690914,0.0042298682,5.0267242e-29
0.032098167,-0.19960245,0.0051435212,0,-0.18832696,0.0043994804,0
0.033623676,-0.20081822,0.0053456656,5.5891633e-27,-0.1895707,0.0045683171,-1.1371177e-26
0.03519876,-0.20186915,0.0055474781,5.1317616e-27,-0.19065669,0.0047365653,-5.3870161e-26
0.03682503,-0.20277196,0.0057491981,9.7903538e-26,-0.1915993,0.0049044125,3.7568925e-25
0.03850415,-0.20354109,0.0059510484,1.7845012e-25,-0.19241113,0.00507203,5.7902131e-25
0.040237836,-0.20418901,0.0061531292,8.0082565e-26,-0.19310317,0.0052395841,1.6026412e-25
0.042027862,-0.20472647,0.0063555225,0,-0.19368505,0.0054072282,0
0.043876059,-0.2051627,0.0065583566,-7.3457441e-31,-0.19416517,0.0055751028,-6.2540406e-29
0.045784317,-0.20550568,0.0067617508,5.374586e-31,-0.19455082,0.005743336,3.3988647e-30
0.047754588,-0.20576223,0.0069658564,1.8442158e-27,-0.19484834,0.0059120528,-6.9797838e-26
0.049788888,-0.20593823,0.0071708698,6.2308508e-26,-0.1950632,0.0060813564,7.1284271e-26
0.051889297,-0.20603871,0.0073769839,1.6658601e-25,-0.19520015,0.0062513334,5.7969452e-25
0.054057963,-0.20606801,0.0075842667,9.5328773e-26,-0.19526327,0.0064220541,4.5869772e-25
0.056297104,-0.20602981,0.0077926932,-1.1006379e-25,-0.19525608,0.0065935747,-2.7367995e-25
0.058609012,-0.20592726,0.0080022502,-9.9898518e-26,-0.19518157,0.0067659496,-2.5581901e-26
0.06099605,-0.20576302,0.0082128882,-1.2076602e-27,-0.19504229,0.0069392122,2.6461102e-25
0.06346066,-0.2055393,0.0084245534,9.8900696e-27,-0.1948404,0.0071133774,2.4550095e-25
0.066005363,-0.20525799,0.0086373345,9.8251213e-27,-0.19457768,0.0072884518,2.4467167e-25
0.068632762,-0.20492073,0.0088512725,-7.1193589e-27,-0.19425558,0.0074644233,-2.3230902e-25
0.071345544,-0.20452886,0.0090661685,-7.0639061e-27,-0.19387527,0.0076412645,-2.3118885e-25
0.074146484,-0.20408342,0.0092818984,-1.8051713e-26,-0.19343764,0.0078189408,-2.5512268e-25
0.077038447,-0.20358515,0.0094984571,-1.8200322e-26,-0.19294333,0.0079973984,-2.5548125e-25
0.08002439,-0.20303454,0.0097157642,1.3457225e-25,-0.19239273,0.0081765655,6.1365529e-26
0.083107369,-0.2024318,0.0099336128,1.2978614e-25,-0.19178604,0.0083563518,4.8277598e-25
0.086290535,-0.20177704,0.010151799,-2.9194784e-26,-0.19112322,0.0085366513,3.0840853e-25
0.089577146,-0.20107026,0.010370248,2.2398893e-27,-0.19040406,0.0087173383,-7.6060483e-25
0.092970562,-0.20031122,0.010588844,1.3807826e-25,-0.18962814,0.0088982693,-1.9696384e-25
0.096474255,-0.19949955,0.01080757,1.323348e-25,-0.18879486,0.0090792815,2.0548361e-25
0.10009181,-0.19863469,0.011026168,2.3409461e-26,-0.18790344,0.0092601935,-2.4331994e-25
0.10382692,-0.19771583,0.011244073,-6.6005018e-26,-0.18695291,0.0094408003,6.0651995e-25
0.10768342,-0.19674212,0.011461036,-7.16355e-26,-0.18594213,0.0096208761,4.8389456e-25
0.11166523,-0.19571263,0.011676854,1.1264677e-25,-0.1848698,0.009800175,-6.620011e-26
0.11577645,-0.19462621,0.011891178,1.3376355e-25,-0.1837344,0.0099784262,5.7130748e-25
0.12002127,-0.19348157,0.0121037,1.4692402e-25,-0.18253427,0.010155336,1.276913e-24
0.12440404,-0.19227728,0.012314183,-8.5934621e-26,-0.18126755,0.010330587,2.7296415e-25
0.12892923,-0.19101171,0.012522202,-9.7825859e-26,-0.17993218,0.010503835,-1.0761488e-24
0.13360148,-0.18968301,0.012727104,2.6412013e-25,-0.17852592,0.010674712,-1.0515709e-24
0.13842557,-0.18828916,0.012928392,2.6512825e-25,-0.17704634,0.010842819,-1.9480684e-24
0.14340642,-0.18682806,0.01312564,3.3576921e-25,-0.17549079,0.011007731,-1.379868e-24
0.14854914,-0.18529736,0.013318296,2.5074101e-25,-0.17385641,0.011168992,-6.3400823e-25
0.15385898,-0.18369447,0.013505771,-2.1446232e-25,-0.17214011,0.011326116,-8.9002528e-25
0.15934138,-0.18201659,0.013687418,2.1784439e-25,-0.17033856,0.011478589,-1.4581476e-24
0.16500194,-0.18026066,0.013862547,4.9462187e-25,-0.16844818,0.011625852,-7.5250802e-25
0.17084645,-0.17842341,0.014030417,1.1377816e-26,-0.16646514,0.011767326,1.3906515e-26
0.17688089,-0.17650128,0.014190234,2.2579152e-25,-0.16438531,0.011902378,-1.3525796e-24
0.18311143,-0.17449047,0.014341191,2.1722377e-25,-0.16220427,0.012030349,1.3643573e-25
0.18954445,-0.17238692,0.014482428,-6.8564169e-26,-0.1599173,0.012150534,1.8918783e-24
0.19618653,-0.1701863,0.014613059,-4.8081391e-25,-0.15751934,0.012262179,1.6149798e-24
0.20304445,-0.16788414,0.014732189,7.2503235e-25,-0.15500496,0.012364493,-6.2970232e-25
0.21012524,-0.16547574,0.01483886,1.6539464e-24,-0.15236834,0.012456607,-2.8679889e-24
0.21743614,-0.16295614,0.014932043,-9.520941e-26,-0.14960309,0.012537621,-2.7596305e-25
0.22498461,-0.16032001,0.015010635,2.5899188e-25,-0.1467022,0.012606624,7.0539856e-25
0.23277839,-0.15756158,0.015073433,8.5933041e-25,-0.14365817,0.012662638,-5.4739951e-25
0.24082545,-0.15467458,0.015119147,5.4580679e-25,-0.14046296,0.012704619,-6.4353263e-25
0.24913402,-0.15165225,0.015146395,-6.2107485e-25,-0.13710791,0.012731472,5.5024423e-25
0.25771259,-0.14848728,0.015153688,-3.9241007e-24,-0.1335837,0.012742052,1.5366766e-24
0.26656994,-0.14517174,0.015139429,-3.089923e-24,-0.12988016,0.01273515,8.6223941e-25
0.27571513,-0.14169706,0.015101905,3.3651127e-26,-0.12598627,0.012709507,4.5388386e-26
0.28515751,-0.13805397,0.015039278,-3.4564849e-24,-0.12189039,0.012663724,6.6611485e-25
0.29490674,-0.13423237,0.014949566,-3.4438257e-24,-0.11758054,0.012596176,1.4955055e-24
0.3049728,-0.13022128,0.0148306,2.3246904e-27,-0.11304452,0.012504982,7.5427252e-25
0.31536597,-0.12600868,0.01468,-4.6744922e-25,-0.1082695,0.012387988,4.4619104e-25
0.3260969,-0.12158143,0.014495131,-9.3748516e-25,-0.10324174,0.012242845,5.2499876e-26
0.33717655,-0.11692498,0.014273072,-1.3760965e-24,-0.097946206,0.012067005,2.9802762e-25
0.34861625,-0.11202328,0.014010585,1.3001537e-24,-0.092366598,0.011857713,3.4978178e-25
0.36042772,-0.10685841,0.013704081,8.8393059e-24,-0.086485217,0.011611948,1.8175944e-24
0.37262303,-0.1014104,0.013349585,1.9441494e-23,-0.08028291,0.011326358,4.328362e-24
0.38521464,-0.095656832,0.012942678,1.114689e-23,-0.073738817,0.010997223,2.3792473e-24
0.39821546,-0.089572474,0.012478453,1.4254986e-23,-0.066829989,0.010620329,3.9905298e-24
0.41163876,-0.083128695,0.011951425,1.3108309e-23,-0.059531193,0.010190938,2.4405161e-24
0.42549828,-0.076292833,0.011355468,-1.8211057e-23,-0.051814896,0.0097039102,-7.4238015e-24
0.4398082,-0.069027392,0.010683779,-1.2647929e-23,-0.043651247,0.0091538534,-3.6193249e-24
0.45458315,-0.061289087,0.0099288027,1.1732255e-23,-0.035007724,0.0085350705,6.2656315e-24
0.46983824,-0.053027738,0.0090821583,8.21805e-24,-0.025848453,0.0078413181,4.1018908e-24
0.48558908,-0.044184938,0.0081347455,-2.8713538e-25,-0.016133448,0.0070658019,-1.2281724e-25
0.50185179,-0.034692318,0.0070765332,1.1189793e-25,-0.0058176845,0.0062012968,4.1427139e-26
0.50880971,-0.030455066,0.0065875388,-5.9887101e-24,-0.0012720963,0.005803166,-2.7811229e-24
0.51864298,-0.0244691,0.0058994002,-1.4401228e-23,0.0051489524,0.0052421931,-6.6991434e-24
0.53597984,-0.013421028,0.0045916692,-1.5148189e-25,0.016824446,0.0041798098,-4.6187489e-26
0.5538801,-0.001436547,0.0031397199,9.4464298e-25,0.029275619,0.0030046227,4.7898864e-25
0.57236207,0.011608889,0.0015321457,-1.2818126e-23,0.042579174,0.0017090584,-5.9876885e-24
0.59144465,0.025856807,-0.00024037765,1.2472125e-23,0.056826332,0.00028610719,6.0193225e-24
0.61114736,0.041472667,-0.0021824737,1.3791275e-23,0.072130205,-0.0012712367,6.7556728e-24
0.63149036,0.058634575,-0.0042978431,-9.8862605e-25,0.08862985,-0.002968935,-7.1686388e-26
0.65249445,0.077530081,-0.0065880696,-3.2760937e-24,0.10648755,-0.0048094346,-1.3097097e-24
0.67418111,0.098352657,-0.0090452497,1.1783277e-23,0.12592083,-0.0067975528,5.6803388e-24
0.69657252,0.12156275,-0.011700619,5.173019e-24,0.14729241,-0.0089447524,3.0065892e-24
0.7196916,0.14805554,-0.014600978,-1.6927403e-23,0.17111513,-0.011260097,-6.5796226e-24
0.74356198,0.17848141,-0.017745728,2.6679045e-24,0.19784631,-0.013729032,-7.6950111e-25
0.76820808,0.21265658,-0.02105517,3.0696637e-23,0.22765354,-0.016296947,4.9316294e-24
0.79365511,0.24977305,-0.024378471,1.5542371e-23,0.26035117,-0.018880413,1.2962084e-24
0.8199291,0.28883378,-0.027585996,4.256696e-24,0.29547321,-0.021392859,-2.5780568e-24
0.84705692,0.32898065,-0.03061101,6.1073481e-24,0.33240093,-0.023764702,-2.1012345e-24
0.87506632,0.36968655,-0.033443095,-3.1783204e-29,0.37051846,-0.025953182,2.5514829e-29
0.90398595,0.41088713,-0.036035277,0,0.40939851,-0.027928595,0
0.93384538,0.45285937,-0.038273804,-9.0129852e-24,0.44895963,-0.029639739,-2.1095674e-23
0.96467516,0.49571191,-0.040008192,-1.7896367e-23,0.48928768,-0.031018469,-3.8287982e-23
0.99650683,0.53906274,-0.041096092,-2.7680484e-23,0.53019262,-0.03200905,-4.7695782e-23
1.0293729,0.58221817,-0.04148472,3.0865025e-23,0.57110389,-0.03260833,4.6117723e-23
1.0633071,0.62441721,-0.04119073,9.398177e-23,0.61128098,-0.032870959,1.3946583e-22
1.098344,0.66499997,-0.040263703,4.4232435e-23,0.65000563,-0.032868136,6.2543547e-23
1.1345196,0.70341109,-0.038781956,7.6899983e-23,0.68670803,-0.032666134,9.1560806e-23
1.1668578,0.73435532,-0.037140289,-4.8906912e-24,0.71639865,-0.032370285,1.6594481e-24
1.1718726,0.73915647,-0.036884876,-1.7466418e-23,0.7210036,-0.032325083,-1.2244889e-23
1.2104522,0.77192255,-0.034735996,-8.5187717e-23,0.75270047,-0.031899961,-9.3865317e-23
1.250285,0.80160808,-0.032489894,-6.4603535e-24,0.7817786,-0.031429587,-6.6975211e-24
1.2914115,0.82833704,-0.030273424,1.6219287e-24,0.80839404,-0.030938035,1.2776501e-24
1.3338737,0.85238173,-0.028179834,7.3496801e-23,0.83280916,-0.030436894,7.4175037e-23
1.3777151,0.87409285,-0.026269549,-1.5458059e-23,0.85533529,-0.029928819,-1.5980178e-23
1.4229805,0.89384461,-0.02457471,-1.1879539e-22,0.87628706,-0.029410795,-1.1957543e-22
1.4697159,0.91200381,-0.023103675,-6.3115796e-23,0.89595411,-0.028876714,-6.2551735e-23
1.5179692,0.9287914,-0.021856282,-2.4012723e-22,0.91446143,-0.028324807,-2.3801716e-22
1.5662215,0.94417338,-0.020836062,-2.9114343e-22,0.93165513,-0.02776982,-2.8956362e-22
1.6129542,0.95815325,-0.020021082,-6.3368244e-23,0.9474307,-0.027226272,-6.2837963e-23
1.6582152,0.97093768,-0.019361874,3.0661918e-23,0.9619368,-0.026692726,3.0530862e-23
1.7020508,0.98274547,-0.018812539,-1.2042806e-22,0.97536735,-0.026163879,-1.1983229e-22
1.7445059,0.99372868,-0.018338426,-1.1899685e-22,0.98786178,-0.025636058,-1.1828161e-22
1.785624,1.0039972,-0.01791412,-1.3378227e-24,0.99952365,-0.025107064,-1.4223992e-24
1.8070118,1.0091718,-0.017702395,8.8089087e-24,1.0053817,-0.02482166,8.8003767e-24
1.8254639,1.0136339,-0.017522903,1.4351826e-23,1.0104351,-0.024575869,1.4415174e-23
1.8640662,1.0226985,-0.017151973,1.7545266e-22,1.0206561,-0.024042562,1.7558293e-22
1.9014509,1.0312327,-0.016791238,6.457026e-23,1.0302294,-0.023508283,6.4619602e-23
1.9376564,1.0392702,-0.01643524,2.4324833e-22,1.0391939,-0.022974222,2.4424487e-22
1.97272,1.0468381,-0.016080661,4.2340196e-22,1.047583,-0.022441641,4.2531903e-22
2.0066778,1.0539592,-0.015725712,2.0352055e-22,1.0554262,-0.021911791,2.04669e-22
2.0395648,1.0606537,-0.01536968,-5.8571931e-23,1.0627508,-0.021385874,-5.8928258e-23
2.0714147,1.0669403,-0.015012595,-1.270315e-22,1.0695819,-0.020865023,-1.2787785e-22
2.1022603,1.0728363,-0.014654981,2.2147887e-23,1.0759429,-0.020350288,2.2379604e-23
2.1321334,1.0783587,-0.014297656,-1.7889775e-22,1.0818562,-0.019842612,-1.8062482e-22
2.1610646,1.0835236,-0.013941594,-1.602158e-22,1.0873433,-0.019342823,-1.6162512e-22
2.1890837,1.0883468,-0.013587827,6.297774e-23,1.0924245,-0.018851618,6.36001e-23
2.2162195,1.0928435,-0.013237372,1.9058951e-23,1.0971195,-0.018369576,1.929575e-23
2.2424998,1.0970286,-0.012891191,1.8381068e-22,1.1014468,-0.017897149,1.858429e-22
2.2679518,1.1009163,-0.012550153,-9.4648169e-23,1.1054237,-0.017434641,-9.5701853e-23
2.2926015,1.1045201,-0.012215016,-2.4867582e-22,1.1090662,-0.016982283,-2.5144669e-22
2.3164742,1.1078531,-0.011886429,-1.6335552e-22,1.1123899,-0.016540268,-1.6539546e-22
2.3395945,1.1109277,-0.011564931,-8.6566582e-23,1.1154125,-0.016108645,-8.7666251e-23
2.3619861,1.1137556,-0.011250958,3.6651003e-23,1.1181531,-0.01568753,3.7024953e-23
2.3836721,1.1163478,-0.010944851,-5.3156757e-23,1.1206291,-0.015277184,-5.3853882e-23
2.4046746,1.1187146,-0.010646868,-5.2160708e-23,1.122853,-0.014877621,-5.2838277e-23
2.4250153,1.1208657,-0.01035719,-5.51051e-23,1.1248349,-0.014488731,-5.5856031e-23
2.4298501,1.1213428,-0.010288101,-1.1911241e-22,1.1252642,-0.014395845,-1.2091116e-22
2.4447218,1.1228101,-0.010075936,-3.0840995e-22,1.1265843,-0.014110119,-3.1330995e-22
2.463809,1.1245556,-0.0098031416,1.8994508e-23,1.128109,-0.013741917,1.9483914e-23
2.4822943,1.1261099,-0.0095388204,2.9363507e-22,1.1294164,-0.013384082,2.9840606e-22
2.5001966,1.1274797,-0.0092829427,-3.0261579e-23,1.1305134,-0.013036435,-3.0835143e-23
2.5175344,1.1286714,-0.0090354414,-2.1625698e-23,1.1314061,-0.012698774,-2.2051094e-23
2.5343255,1.1296906,-0.0087962179,-7.2968275e-23,1.1320998,-0.012370873,-7.4331851e-23
2.5505871,1.1305424,-0.0085651471,-1.9432074e-22,1.1325994,-0.012052506,-1.9793908e-22
2.5663361,1.1312312,-0.0083420824,3.0295508e-23,1.132909,-0.011743416,3.0899076e-23
2.5815885,1.1317611,-0.0081268592,1.748726e-22,1.1330324,-0.011443344,1.7818837e-22
2.5963601,1.1321355,-0.0079192994,-1.8977231e-22,1.1329729,-0.011152045,-1.9352702e-22
2.610666,1.1323575,-0.0077192126,-1.0615213e-22,1.1327333,-0.01086924,-1.0826318e-22
2.624521,1.1324297,-0.0075263987,5.5900102e-23,1.1323162,-0.010594667,5.6978244e-23
2.6379393,1.1323542,-0.0073406506,4.2935161e-25,1.1317238,-0.010328064,3.5634588e-25
2.6509346,1.1321329,-0.007161756,1.3480014e-22,1.1309583,-0.010069165,1.3739123e-22
2.6635203,1.1317672,-0.0069894988,-1.2406922e-22,1.1300216,-0.009817713,-1.2638495e-22
2.6757094,1.1312583,-0.0068236602,-1.145464e-22,1.1289155,-0.009573453,-1.1678498e-22
2.6875143,1.1306072,-0.00666402,1.0095899e-22,1.1276418,-0.0093361363,1.0284136e-22
2.6989472,1.1298145,-0.0065103572,-2.042918e-23,1.1262024,-0.0091055195,-2.0855192e-23
2.7100198,1.1288808,-0.0063624502,4.9395165e-24,1.1245992,-0.0088813656,5.0407754e-24
2.7207435,1.1278065,-0.0062200796,-1.0303291e-22,1.122834,-0.0086634453,-1.0454514e-22
2.7311293,1.1265918,-0.0060830285,-1.4763546e-22,1.1209091,-0.0084515357,-1.4999689e-22
2.7411879,1.125237,-0.0059510822,2.4644771e-22,1.1188264,-0.0082454227,2.4966171e-22
2.7509295,1.1237422,-0.0058240274,1.1708065e-22,1.1165884,-0.0080448937,1.1885641e-22
2.7603642,1.1221075,-0.0057016502,-2.8551836e-22,1.1141974,-0.0078497378,-2.888067e-22
2.7695016,1.1203332,-0.005583742,1.3783301e-22,1.111656,-0.0076597462,1.3888681e-22
2.7783512,1.1184195,-0.0054700841,1.1985362e-22,1.1089669,-0.0074747132,1.2117384e-22
2.7869219,1.1163667,-0.0053604607,-1.4080769e-22,1.1061325,-0.0072944363,-1.4185633e-22
2.7952227,1.1141747,-0.0052546813,-4.3534979e-23,1.1031559,-0.0071187141,-4.3633686e-23
2.8032619,1.1118436,-0.005152554,-9.7331745e-23,1.1000396,-0.006947348,-9.7614001e-23
2.8110479,1.1093734,-0.0050538591,-3.1537679e-22,1.0967862,-0.0067801449,-3.1545196e-22
2.8185886,1.1067648,-0.0049583386,1.2418786e-23,1.0933985,-0.0066169154,1.1922377e-23
2.8258918,1.1040184,-0.0048657319,2.3532097e-22,1.0898788,-0.0064574712,2.349237e-22
2.832965,1.1011345,-0.004775794,-4.3827973e-23,1.0862297,-0.0063016233,-4.3718638e-23
2.8398154,1.0981137,-0.0046882809,3.0130465e-23,1.0824533,-0.006149181,2.9872608e-23
2.8464499,1.0949564,-0.004602954,2.4177264e-22,1.0785517,-0.0059999558,2.3930882e-22
2.8528756,1.0916629,-0.0045195799,-5.9813107e-24,1.0745269,-0.0058537643,-5.4472053e-24
2.8590988,1.0882335,-0.0044379303,-2.5223824e-22,1.0703804,-0.0057104311,-2.4890648e-22
2.865126,1.0846682,-0.0043577838,7.2284423e-23,1.0661138,-0.0055697887,7.1017062e-23
2.8709634,1.080967,-0.004278926,1.5638108e-22,1.061728,-0.0054316787,1.535558e-22
2.876617,1.0771298,-0.0042011509,1.4330845e-22,1.057224,-0.00529595,1.402659e-22
2.8820925,1.0731562,-0.0041242615,-1.1666676e-22,1.0526022,-0.0051624576,-1.1369313e-22
2.8873956,1.0690456,-0.0040480708,1.9545429e-23,1.0478629,-0.0050310648,1.857255e-23
2.8925316,1.0647973,-0.0039724022,5.5101539e-23,1.043006,-0.0049016427,5.4057597e-23
2.897506,1.0604103,-0.0038970913,-7.3470893e-23,1.0380313,-0.0047740731,-7.1652274e-23
2.9023236,1.0558835,-0.0038219859,1.2437895e-22,1.0329382,-0.0046482458,1.2057539e-22
2.9069896,1.0512156,-0.0037469474,7.6629218e-23,1.0277258,-0.0045240631,7.398337e-23
2.9115086,1.046405,-0.0036718514,1.2400774e-22,1.0223932,-0.0044014367,1.1959845e-22
2.9158853,1.0414502,-0.0035965878,3.3001004e-24,1.016939,-0.0042802904,3.3245856e-24
2.9201242,1.0363492,-0.0035210617,-1.1753125e-22,1.0113619,-0.0041605586,-1.1287593e-22
2.9242297,1.0311001,-0.0034451932,-3.8892981e-23,1.0056601,-0.0040421859,-3.7370704e-23
2.9282058,1.0257009,-0.0033689173,-5.8328753e-23,0.99983184,-0.0039251281,-5.5736899e-23
2.9320568,1.0201491,-0.0032921846,7.3402541e-23,0.99387526,-0.0038093492,6.9829644e-23
2.9357864,1.0144426,-0.0032149608,-6.7015439e-24,0.98778829,-0.0036948252,-6.0310943e-24
2.9393987,1.008579,-0.0031372265,-1.4983904e-22,0.98156874,-0.0035815374,-1.4239891e-22
2.9428972,1.0025559,-0.0030589804,2.5005117e-23,0.97521434,-0.0034694827,2.3356834e-23
2.9462856,0.99637098,-0.0029802406,-3.8064749e-23,0.96872273,-0.0033586628,-3.6243028e-23
2.9495673,0.99002154,-0.0029010405,1.425148e-22,0.96209142,-0.0032490924,1.3461337e-22
2.9527456,0.98350504,-0.0028214241,3.4767888e-22,0.95531787,-0.0031407932,3.2818164e-22
2.9558239,0.97681883,-0.0027414463,6.0865717e-23,0.94839941,-0.0030337937,5.8012261e-23
2.9588052,0.96996024,-0.0026611732,-1.6156552e-22,0.94133329,-0.0029281298,-1.5195977e-22
2.9616927,0.96292653,-0.0025806805,-1.5949499e-22,0.93411664,-0.0028238389,-1.4970662e-22
2.9644893,0.95571491,-0.0025000529,-9.592298e-24,0.92674646,-0.0027209628,-8.5363667e-24
2.9671978,0.94832251,-0.0024193827,9.2162396e-23,0.9192196,-0.002619544,8.560569e-23
2.9698211,0.94074629,-0.0023387688,-8.1461004e-23,0.91153274,-0.0025196302,-7.5942381e-23
2.9723618,0.93298312,-0.0022583144,-8.523293e-23,0.90368231,-0.0024212694,-7.9515277e-23
2.9748224,0.92502965,-0.0021781276,-1.9498642e-22,0.89566451,-0.0023245109,-1.8020963e-22
2.9772057,0.91688228,-0.0020983202,-1.3088429e-22,0.88747527,-0.0022294026,-1.199938e-22
2.9795138,0.90853715,-0.0020189911,6.4421836e-23,0.8791102,-0.0021359992,5.9888087e-23
2.9817494,0.89999001,-0.0019402566,1.0148657e-22,0.87056454,-0.0020443551,9.2814805e-23
2.9839145,0.89123624,-0.0018622308,4.5972772e-23,0.86183311,-0.0019545235,4.2096817e-23
2.9860115,0.88227068,-0.0017849537,8.818041e-23,0.8529102,-0.0018665577,8.1288251e-23
2.9880424,0.87308763,-0.001708437,1.1197168e-22,0.84378955,-0.0017805052,1.0224122e-22
2.9900094,0.86368075,-0.0016329596,-1.0842206e-22,0.83446422,-0.001696413,-9.9932229e-23
2.9919145,0.85404291,-0.0015589503,-1.6542733e-22,0.82492653,-0.0016143205,-1.5173869e-22
2.9937597,0.84416614,-0.0014864197,7.2622253e-23,0.81516792,-0.0015342631,6.626565e-23
2.9955467,0.83404143,-0.0014151716,2.9618598e-22,0.80517886,-0.0014562685,2.7197424e-22
2.9972775,0.82365865,-0.0013451929,-7.6635968e-23,0.7949487,-0.0013803608,-6.9805576e-23
2.9989538,0.81300641,-0.0012765896,-2.5523372e-22,0.78446552,-0.0013065624,-2.3408529e-22
3.0005773,0.80207191,-0.0012095064,6.0362273e-25,0.77371607,-0.0012348921,5.4493006e-25
3.0021497,0.79084077,-0.0011440447,7.2632532e-23,0.76268552,-0.0011653632,6.6756342e-23
3.0036726,0.77929681,-0.0010802572,7.4950681e-23,0.75135732,-0.0010979838,6.8350653e-23
3.0051476,0.76742187,-0.001018186,-8.8362602e-23,0.739713,-0.0010327616,-8.065753e-23
3.0065761,0.75519552,-0.00095787508,-7.2881188e-23,0.72773188,-0.00096969873,-6.6368783e-23
3.0079597,0.74259486,-0.00089936372,-4.2573112e-23,0.71539091,-0.00090879278,-3.9545803e-23
3.0092997,0.72959418,-0.0008426794,-7.9294243e-24,0.70266431,-0.0008500382,-7.1923488e-24
3.0105976,0.71616466,-0.00078784384,1.5164253e-22,0.68952332,-0.00079342651,1.393245e-22
3.0118546,0.70227404,-0.00073487605,7.4349141e-23,0.67593584,-0.00073894352,6.861686e-23
3.013072,0.68788622,-0.00068378902,-5.0253608e-23,0.66186612,-0.00068657169,-4.6180404e-23
3.0142511,0.67296088,-0.00063458977,-1.8179538e-22,0.64727437,-0.00063629051,-1.6792805e-22
3.015393,0.65745311,-0.00058728079,-2.5831972e-24,0.63211645,-0.00058807647,-2.3197707e-24
3.0164991,0.64131303,-0.00054186075,9.7985123e-23,0.61634358,-0.0005419031,9.0623666e-23
3.0175703,0.62448553,-0.00049832505,2.9296076e-24,0.59990209,-0.00049774804,2.7000498e-24
3.0186078,0.60691011,-0.00045666673,-5.8065273e-23,0.58273349,-0.00045558913,-5.38497e-23
3.0196126,0.58852112,-0.00041687786,-5.7603733e-23,0.56477473,-0.00041540117,-5.3269299e-23
3.0205858,0.56924835,-0.00037895133,1.1570544e-22,0.54595914,-0.00037716405,1.0745768e-22
3.0215284,0.54901859,-0.00034288345,6.3240561e-23,0.52621818,-0.00034086147,5.857865e-23
3.0224413,0.52775833,-0.0003086764,-1.1552375e-22,0.5054845,-0.00030648817,-1.0734826e-22
3.0233255,0.50539847,-0.00027633953,6.4135057e-24,0.48369701,-0.00027404568,5.9661101e-24
3.0241818,0.4818816,-0.00024588401,3.3580405e-23,0.46080847,-0.00024353386,3.125018e-23
3.0250112,0.45717268,-0.00021730596,-3.3311334e-23,0.43679613,-0.00021493895,-3.0929967e-23
3.0258144,0.43127326,-0.00019056723,7.1880794e-23,0.41167527,-0.00018821326,6.6623479e-23
3.0265924,0.40423798,-0.00016558498,3.4267414e-23,0.38551392,-0.00016328397,3.1857405e-23
3.0273459,0.37618977,-0.00014226374,-7.5502626e-23,0.35844517,-0.00014007616,-6.9649798e-23
3.0280757,0.34732744,-0.0001205663,3.4803956e-23,0.33067095,-0.00011856499,3.1842785e-23
3.0287825,0.31791829,-0.00010057188,7.0516479e-23,0.3024518,-9.8816116e-05,6.4756186e-23
3.0294671,0.28827255,-8.2494537e-05,-2.2072738e-23,0.27408078,-8.094484e-05,-2.0323933e-23
3.0301301,0.25870432,-6.6508297e-05,1.8104721e-23,0.24584734,-6.506375e-05,1.60213e-23
3.0307722,0.2294919,-5.2593644e-05,-4.6058884e-23,0.21800277,-5.122751e-05,-4.0617628e-23
3.0313942,0.20085078,-4.0612798e-05,-8.1252248e-23,0.19073819,-3.9363785e-05,-7.252917e-23
3.0319965,0.17292558,-3.0312332e-05,2.5345678e-23,0.16417953,-2.9319251e-05,2.2342568e-23
3.0325799,0.14579781,-2.1567548e-05,2.5947405e-24,0.13839592,-2.0966273e-05,2.3256112e-24
3.033145,0.11950172,-1.449565e-05,1.2533613e-23,0.11341456,-1.4181107e-05,1.094286e-23
3.0336922,0.094040894,-8.9830993e-06,2.2748133e-23,0.089235742,-8.8115893e-06,1.9943854e-23
3.0342222,0.06940153,-4.8325702e-06,-2.9720734e-26,0.065844731,-4.7626507e-06,-1.9904353e-25
3.0347356,0.045561439,-2.0285606e-06,-1.1478333e-24,0.043219723,-1.9881211e-06,-9.4626916e-25
3.0352328,0.022495,-4.2250166e-07,-1.0228365e-23,0.021335855,-3.9910005e-07,-8.7924462e-24
3.0357143,0,0,0,0,0,0
3.0357143,0,0,0,0,0,0
