/*--------------------------------*- C++ -*----------------------------------*\
| =========                 |                                                 |
| \\      /  F ield         | OpenFOAM: The Open Source CFD Toolbox           |
|  \\    /   O peration     | Version:  2.4.0                                 |
|   \\  /    A nd           | Web:      www.OpenFOAM.org                      |
|    \\/     M anipulation  |                                                 |
\*---------------------------------------------------------------------------*/
FoamFile
{
    version     2.0;
    format      ascii;
    class       volScalarField;
    location    "100";
    object      nut;
}
// * * * * * * * * * * * * * * * * * * * * * * * * * * * * * * * * * * * * * //

dimensions      [0 2 -1 0 0 0 0];

internalField   nonuniform List<scalar> 
78300
(
2.6065963e-12
2.9803065e-12
3.8296343e-12
3.7155656e-12
3.0292704e-12
1.4437777e-12
3.2860574e-13
2.0993428e-14
3.3512562e-13
4.902393e-13
4.0301848e-13
2.6378764e-13
1.6838752e-13
1.3453121e-13
1.1203658e-13
9.0766739e-14
6.9934835e-14
5.4174679e-14
4.3587114e-14
3.6136966e-14
3.0711122e-14
2.740083e-14
2.5954571e-14
2.5358926e-14
2.5889102e-14
2.7174656e-14
2.9581257e-14
3.2854485e-14
3.6742249e-14
4.1571013e-14
4.7593887e-14
5.4726405e-14
6.3577291e-14
7.3603099e-14
8.4952956e-14
9.8305459e-14
1.1185485e-13
1.2508648e-13
1.3870897e-13
1.4758976e-13
1.574559e-13
1.7613634e-13
1.9090735e-13
2.0406062e-13
2.1343343e-13
2.2191484e-13
2.2734061e-13
2.3022736e-13
2.326525e-13
2.3389078e-13
2.3232046e-13
2.3047963e-13
2.2725601e-13
2.175964e-13
2.0783327e-13
1.9287957e-13
1.7694749e-13
1.5801887e-13
1.4273329e-13
1.2355055e-13
1.1997271e-13
1.1260215e-13
1.5990702e-13
2.8181677e-13
3.8464219e-13
5.0070109e-13
6.1210773e-13
7.2568604e-13
8.3466317e-13
9.4827275e-13
1.0541095e-12
1.155925e-12
1.2527012e-12
1.3487626e-12
1.4411071e-12
1.5317004e-12
1.6203156e-12
1.706834e-12
1.7912858e-12
1.8740477e-12
1.9548688e-12
2.0339897e-12
2.111183e-12
2.1863123e-12
2.2594428e-12
2.3303644e-12
2.3989756e-12
2.4648873e-12
2.5281408e-12
2.5888862e-12
2.6467234e-12
2.7014373e-12
2.7527144e-12
2.8005357e-12
2.8448864e-12
2.8855943e-12
2.9227157e-12
2.9560955e-12
2.9857194e-12
3.0115802e-12
3.0335872e-12
3.0517713e-12
3.0660965e-12
3.0765429e-12
3.0832554e-12
3.0861783e-12
3.0854579e-12
3.0810884e-12
3.0732412e-12
3.0619838e-12
3.0473864e-12
3.0295897e-12
3.0087602e-12
2.9850206e-12
2.9584919e-12
2.9292959e-12
2.8975277e-12
2.8634208e-12
2.8267913e-12
2.7879916e-12
2.7473927e-12
2.7048938e-12
2.660622e-12
2.614781e-12
2.5676164e-12
2.5192025e-12
2.4695804e-12
2.418954e-12
2.3675403e-12
2.3154088e-12
2.2626497e-12
2.2094057e-12
2.1557835e-12
2.1018841e-12
2.0477733e-12
1.9934643e-12
1.9391552e-12
1.8850575e-12
1.8312025e-12
1.7776113e-12
1.724349e-12
1.6715037e-12
1.6191392e-12
1.5673631e-12
1.5161237e-12
1.4655876e-12
1.4154761e-12
1.366032e-12
1.3174343e-12
1.2696854e-12
1.2227291e-12
1.1768595e-12
1.1317161e-12
1.0878022e-12
1.0445798e-12
1.0027184e-12
9.6144892e-13
9.2169139e-13
8.8202399e-13
8.4440709e-13
8.0657355e-13
7.701427e-13
7.2857485e-13
6.9452571e-13
6.6383411e-13
6.3420963e-13
6.0413539e-13
5.7560192e-13
5.469125e-13
5.1977018e-13
4.9298645e-13
4.6742669e-13
4.4257218e-13
4.1881924e-13
3.9594356e-13
3.7408818e-13
3.5312385e-13
3.3310078e-13
3.1396732e-13
2.9558879e-13
2.7809927e-13
2.6148659e-13
2.4567985e-13
2.3067353e-13
2.1642004e-13
2.0296155e-13
1.9018562e-13
1.7815673e-13
1.6676802e-13
1.5611239e-13
1.4600739e-13
1.3650272e-13
1.2761456e-13
1.1936969e-13
1.116317e-13
1.0463688e-13
9.8040096e-14
9.2213343e-14
8.6527139e-14
8.1840744e-14
7.7434481e-14
7.3832593e-14
7.0529902e-14
6.8499626e-14
6.6643597e-14
6.6481733e-14
6.6972466e-14
6.837623e-14
7.1043726e-14
7.2361765e-14
7.4377511e-14
7.3665592e-14
7.2855421e-14
6.9041135e-14
6.5466919e-14
6.0166755e-14
5.4791369e-14
4.7709534e-14
4.0989124e-14
3.5543703e-14
2.8142527e-14
2.2140166e-14
2.2473003e-14
1.0229928e-14
2.4032808e-14
9.205495e-15
3.0829836e-14
1.0286766e-13
7.3122083e-13
8.7224301e-14
1.6431019e-12
6.9297626e-12
1.0082762e-12
1.5458937e-13
7.0715731e-14
2.3301094e-13
3.445387e-13
5.3104116e-13
4.7076361e-13
7.2034595e-12
2.3251194e-11
3.7711532e-13
1.6330724e-13
2.9078549e-12
6.9197909e-11
1.1050349e-12
1.2818626e-11
2.1510677e-12
4.6349606e-13
8.5987454e-11
1.3320598e-11
1.8201648e-11
2.9291107e-12
1.5693074e-12
1.8722626e-11
5.187593e-12
1.3787833e-11
1.0674213e-11
1.0179513e-11
1.8129564e-11
2.7025498e-11
3.1884806e-11
3.0896141e-11
2.2947176e-11
1.680224e-11
1.0748173e-11
6.110167e-12
3.8691672e-12
3.3866369e-12
2.1146011e-12
5.8202567e-12
6.4511973e-12
7.2214867e-12
6.8295273e-12
5.6021657e-12
3.4041114e-12
1.6167226e-12
6.9992992e-13
5.7731494e-13
5.3224554e-13
4.0998335e-13
2.6552626e-13
1.5935042e-13
1.2655319e-13
1.055422e-13
8.7195654e-14
6.8384691e-14
5.3501148e-14
4.4179415e-14
3.7710241e-14
3.310483e-14
3.0390515e-14
2.9359674e-14
2.9155389e-14
3.0021348e-14
3.163911e-14
3.4324213e-14
3.7888593e-14
4.2143045e-14
4.739297e-14
5.3896283e-14
6.1630087e-14
7.1185366e-14
8.2148838e-14
9.4714257e-14
1.0952529e-13
1.2503713e-13
1.4080751e-13
1.5753094e-13
1.7075716e-13
1.853842e-13
2.0871118e-13
2.2999978e-13
2.5103583e-13
2.6994165e-13
2.8928998e-13
3.07226e-13
3.2420134e-13
3.4217155e-13
3.6067094e-13
3.7808073e-13
3.9638967e-13
4.1454683e-13
4.2718381e-13
4.3905549e-13
4.448799e-13
4.4710153e-13
4.4291704e-13
4.3737098e-13
4.2312123e-13
4.1989702e-13
4.1348379e-13
4.6869839e-13
6.2705161e-13
7.8637894e-13
9.5448893e-13
1.118165e-12
1.2824939e-12
1.4418874e-12
1.6043336e-12
1.7594084e-12
1.91054e-12
2.0561565e-12
2.2001233e-12
2.3404597e-12
2.4787821e-12
2.6150276e-12
2.7491251e-12
2.8811563e-12
3.0114359e-12
3.13973e-12
3.26627e-12
3.390845e-12
3.513271e-12
3.633569e-12
3.751519e-12
3.8669839e-12
3.9795473e-12
4.0891711e-12
4.1960179e-12
4.2996543e-12
4.399764e-12
4.4960314e-12
4.5883679e-12
4.6766871e-12
4.7608148e-12
4.8407362e-12
4.9162981e-12
4.987425e-12
5.0540711e-12
5.1161477e-12
5.1736685e-12
5.2265929e-12
5.2748499e-12
5.3185197e-12
5.357507e-12
5.3918811e-12
5.4216127e-12
5.4468574e-12
5.4677244e-12
5.4842192e-12
5.4964371e-12
5.504546e-12
5.5086735e-12
5.5088844e-12
5.5052817e-12
5.4980506e-12
5.4875726e-12
5.4735993e-12
5.4561419e-12
5.4356885e-12
5.412416e-12
5.3863317e-12
5.357452e-12
5.3260838e-12
5.2924825e-12
5.2566168e-12
5.2185752e-12
5.1786092e-12
5.1369122e-12
5.0935385e-12
5.0485977e-12
5.0021959e-12
4.95446e-12
4.9053928e-12
4.8549456e-12
4.8037532e-12
4.7523115e-12
4.7003138e-12
4.6475919e-12
4.5940835e-12
4.5399254e-12
4.485406e-12
4.4306486e-12
4.375669e-12
4.3208008e-12
4.2657119e-12
4.2102997e-12
4.1548839e-12
4.0996339e-12
4.044397e-12
3.9895682e-12
3.9348844e-12
3.8808484e-12
3.826975e-12
3.7740711e-12
3.7216667e-12
3.6705498e-12
3.6190508e-12
3.5674889e-12
3.514855e-12
3.4619304e-12
3.3967446e-12
3.3381529e-12
3.2894211e-12
3.2440679e-12
3.1980529e-12
3.1524907e-12
3.1061298e-12
3.0603425e-12
3.0144963e-12
2.969125e-12
2.9238666e-12
2.8791511e-12
2.8347927e-12
2.7909653e-12
2.7476323e-12
2.704908e-12
2.6627917e-12
2.6209018e-12
2.5791769e-12
2.5380759e-12
2.4973526e-12
2.4569542e-12
2.4167525e-12
2.3768894e-12
2.3371237e-12
2.2976294e-12
2.2581294e-12
2.218927e-12
2.1796831e-12
2.1399751e-12
2.0995827e-12
2.0589837e-12
2.0173821e-12
1.9755147e-12
1.9325443e-12
1.8891321e-12
1.8432733e-12
1.7966568e-12
1.7477905e-12
1.6983769e-12
1.6452341e-12
1.5902796e-12
1.530762e-12
1.4723798e-12
1.4227305e-12
1.395267e-12
1.4122127e-12
1.4445222e-12
1.4790066e-12
1.5127128e-12
1.5433869e-12
1.5698776e-12
1.5843903e-12
1.5918462e-12
1.6005691e-12
1.6063681e-12
1.5879954e-12
1.5547055e-12
1.5748266e-12
1.5462386e-12
1.5725714e-12
1.510161e-12
1.6068673e-12
1.4951947e-12
1.2290694e-12
2.039247e-12
2.1708104e-12
8.0165089e-13
6.2078684e-12
1.0997712e-11
2.290715e-12
3.7586289e-13
1.0657707e-12
2.6165841e-12
7.7865891e-13
2.1116658e-12
9.0741522e-12
1.4834286e-11
2.8111133e-11
5.4621402e-12
5.4911722e-12
6.9144193e-12
6.9511528e-11
1.9921963e-12
1.2502527e-11
3.6069188e-12
3.7058463e-12
7.8258934e-11
2.3624781e-11
2.5801023e-11
4.7310611e-12
2.6745517e-12
1.8984679e-11
7.5720958e-12
1.5408331e-11
1.0711433e-11
1.1333791e-11
2.2616844e-11
2.9825886e-11
3.3817668e-11
3.2259402e-11
2.4903279e-11
1.9372183e-11
1.388189e-11
9.1959808e-12
6.8650347e-12
6.1010259e-12
5.0054312e-12
8.0588547e-11
8.7622501e-11
8.8990156e-11
8.2435935e-11
6.7956976e-11
4.8618041e-11
2.9684273e-11
1.5103144e-11
6.5984305e-12
2.7274425e-12
1.3284204e-12
7.3707749e-13
4.1648332e-13
3.1544706e-13
2.66001e-13
2.3373211e-13
2.0460184e-13
1.8208197e-13
1.7227613e-13
1.6698754e-13
1.6526566e-13
1.6639704e-13
1.7033488e-13
1.7673864e-13
1.8616291e-13
1.9821193e-13
2.1320389e-13
2.3163504e-13
2.5398583e-13
2.8100121e-13
3.1369426e-13
3.5312613e-13
4.0108828e-13
4.5853068e-13
5.2701718e-13
6.0824123e-13
7.0109083e-13
8.0565646e-13
9.2409653e-13
1.0527054e-12
1.1939545e-12
1.3649846e-12
1.5633404e-12
1.7856287e-12
2.0308457e-12
2.3021299e-12
2.5986705e-12
2.9207689e-12
3.2734325e-12
3.6597999e-12
4.0736277e-12
4.512416e-12
4.9736718e-12
5.4314375e-12
5.87383e-12
6.2783216e-12
6.6212952e-12
6.8783558e-12
7.0378944e-12
7.076787e-12
7.0715813e-12
7.0656226e-12
7.4133696e-12
8.6654219e-12
1.0291436e-11
1.1867539e-11
1.343117e-11
1.4969479e-11
1.6483342e-11
1.7978758e-11
1.9454997e-11
2.0917879e-11
2.2352582e-11
2.376381e-11
2.5162953e-11
2.6549999e-11
2.7927561e-11
2.9296367e-11
3.0657636e-11
3.2011315e-11
3.335693e-11
3.4695126e-11
3.6025437e-11
3.7346325e-11
3.8657038e-11
3.9956613e-11
4.1243848e-11
4.2516714e-11
4.3773612e-11
4.5015417e-11
4.623988e-11
4.7444014e-11
4.8626678e-11
4.9786261e-11
5.0921055e-11
5.2030344e-11
5.3112827e-11
5.4167951e-11
5.5194137e-11
5.6190713e-11
5.7157331e-11
5.8093771e-11
5.8999746e-11
5.9874005e-11
6.071601e-11
6.1524462e-11
6.2297994e-11
6.3036183e-11
6.3739295e-11
6.4408511e-11
6.5042736e-11
6.5641407e-11
6.620508e-11
6.6734496e-11
6.7228708e-11
6.7687642e-11
6.8113725e-11
6.8511319e-11
6.8878202e-11
6.9208155e-11
6.9505123e-11
6.9774775e-11
7.0014958e-11
7.0222226e-11
7.0398968e-11
7.0549373e-11
7.0671987e-11
7.0764984e-11
7.0830031e-11
7.0870002e-11
7.0884438e-11
7.0873139e-11
7.0836519e-11
7.0775503e-11
7.0688968e-11
7.0575566e-11
7.0445725e-11
7.030643e-11
7.0150332e-11
6.9973349e-11
6.9772876e-11
6.9550348e-11
6.9310918e-11
6.9055323e-11
6.8784867e-11
6.8503998e-11
6.821048e-11
6.7897597e-11
6.7569065e-11
6.7228495e-11
6.6873534e-11
6.6507495e-11
6.61313e-11
6.5746661e-11
6.5352891e-11
6.4955443e-11
6.4558023e-11
6.4161337e-11
6.3754364e-11
6.3307716e-11
6.2841031e-11
6.2342805e-11
6.1668832e-11
6.1001617e-11
6.049108e-11
6.0034999e-11
5.9572348e-11
5.9091179e-11
5.8595397e-11
5.8083694e-11
5.7564136e-11
5.7032502e-11
5.6490352e-11
5.5939914e-11
5.5381162e-11
5.4815295e-11
5.4243901e-11
5.3668605e-11
5.309032e-11
5.250314e-11
5.1903173e-11
5.1300843e-11
5.0691989e-11
5.0075542e-11
4.9449564e-11
4.8816393e-11
4.8172774e-11
4.7521356e-11
4.6857996e-11
4.6187697e-11
4.5506312e-11
4.4803621e-11
4.4074431e-11
4.332881e-11
4.2551645e-11
4.1754884e-11
4.092637e-11
4.0073938e-11
3.9164676e-11
3.8220351e-11
3.7221164e-11
3.6195031e-11
3.5080835e-11
3.3902992e-11
3.2621184e-11
3.1333064e-11
3.0225889e-11
2.9592244e-11
2.9917607e-11
3.0607845e-11
3.1333487e-11
3.2092277e-11
3.2785865e-11
3.3442301e-11
3.3829379e-11
3.4092571e-11
3.4385285e-11
3.4644369e-11
3.4362114e-11
3.3727765e-11
3.43105e-11
3.3789726e-11
3.4365739e-11
3.3215081e-11
3.5097457e-11
3.288255e-11
2.6574265e-11
4.2971962e-11
3.4584882e-11
1.6159518e-11
1.0810697e-10
1.1616934e-10
3.1835638e-11
5.4370286e-12
2.2319117e-11
5.3652114e-11
1.0818873e-11
3.7191476e-11
1.9177705e-10
1.9430778e-10
1.6218973e-10
1.1454412e-10
1.1783135e-10
9.9413251e-11
1.2541499e-10
2.2753364e-11
2.0872862e-11
3.9022157e-11
7.3451161e-11
9.0001229e-11
2.752038e-10
2.0329434e-10
5.3215399e-11
3.0953593e-11
6.0796299e-11
7.0625953e-11
6.8933413e-11
3.927734e-11
6.1921372e-11
1.3786919e-10
1.6166649e-10
1.5859013e-10
1.4260194e-10
1.2705375e-10
1.1683068e-10
1.0497255e-10
9.0588105e-11
8.0366882e-11
7.2404084e-11
7.1674521e-11
6.411162e-10
6.9616444e-10
7.0247692e-10
6.4979715e-10
5.358605e-10
3.8752157e-10
2.3982301e-10
1.2293117e-10
5.1910596e-11
1.9477066e-11
8.3758587e-12
4.3768851e-12
2.4432419e-12
1.8091209e-12
1.5328917e-12
1.3793368e-12
1.2623139e-12
1.1760346e-12
1.1563554e-12
1.1555292e-12
1.1720644e-12
1.199972e-12
1.2401755e-12
1.2955422e-12
1.3692733e-12
1.4600407e-12
1.5684386e-12
1.6999164e-12
1.8598175e-12
2.0523676e-12
2.2843688e-12
2.5649265e-12
2.90516e-12
3.3159245e-12
3.8091201e-12
4.3947733e-12
5.0737734e-12
5.8500617e-12
6.737181e-12
7.7338175e-12
8.8274561e-12
1.0113657e-11
1.1644691e-11
1.3379508e-11
1.5322614e-11
1.7482801e-11
1.9866004e-11
2.2471556e-11
2.5328489e-11
2.8466648e-11
3.1844054e-11
3.5426198e-11
3.9199519e-11
4.2980971e-11
4.6637676e-11
5.0015307e-11
5.2897983e-11
5.5098449e-11
5.6484144e-11
5.6909408e-11
5.6887406e-11
5.6879622e-11
5.9442276e-11
6.8946044e-11
8.1601274e-11
9.3774482e-11
1.058724e-10
1.1775214e-10
1.2945856e-10
1.4098825e-10
1.5240646e-10
1.6373831e-10
1.7486945e-10
1.8581354e-10
1.9667997e-10
2.0745781e-10
2.1816962e-10
2.288221e-10
2.3942487e-10
2.4997537e-10
2.6047122e-10
2.7091629e-10
2.8130807e-10
2.9163485e-10
3.0189012e-10
3.1206725e-10
3.2215702e-10
3.321451e-10
3.4201827e-10
3.5178276e-10
3.614226e-10
3.7091471e-10
3.8025161e-10
3.8942022e-10
3.9840671e-10
4.0720624e-10
4.1580789e-10
4.2420802e-10
4.323938e-10
4.4035992e-10
4.4810401e-10
4.5562413e-10
4.6291809e-10
4.6997579e-10
4.7679232e-10
4.8335714e-10
4.8965779e-10
4.956914e-10
5.0145921e-10
5.0697044e-10
5.1221568e-10
5.1718969e-10
5.2189587e-10
5.2633985e-10
5.3051289e-10
5.3441385e-10
5.38062e-10
5.414916e-10
5.4468553e-10
5.4759108e-10
5.5023844e-10
5.5267419e-10
5.5488007e-10
5.5682695e-10
5.5853284e-10
5.6003143e-10
5.6131067e-10
5.6235443e-10
5.6317528e-10
5.6379595e-10
5.6421249e-10
5.6442206e-10
5.6442782e-10
5.6423646e-10
5.6383859e-10
5.6322318e-10
5.6247389e-10
5.6164658e-10
5.6068103e-10
5.5954397e-10
5.5821384e-10
5.567018e-10
5.5504939e-10
5.5326209e-10
5.5135076e-10
5.4935081e-10
5.4724557e-10
5.4497879e-10
5.4257994e-10
5.4007822e-10
5.3745488e-10
5.3473522e-10
5.319286e-10
5.290464e-10
5.2608594e-10
5.2308786e-10
5.2008644e-10
5.1708239e-10
5.1399361e-10
5.1057049e-10
5.0698593e-10
5.0313775e-10
4.9788837e-10
4.926492e-10
4.8866699e-10
4.8512236e-10
4.8152662e-10
4.7777118e-10
4.7389809e-10
4.6988644e-10
4.6580887e-10
4.6162607e-10
4.5735372e-10
4.5300759e-10
4.4858878e-10
4.4410631e-10
4.3957385e-10
4.3500412e-10
4.3040514e-10
4.2572942e-10
4.2094463e-10
4.1613551e-10
4.1126879e-10
4.063357e-10
4.0132075e-10
3.9624272e-10
3.9107587e-10
3.8584123e-10
3.8050571e-10
3.7510949e-10
3.696201e-10
3.639538e-10
3.580683e-10
3.5204542e-10
3.4576287e-10
3.3931659e-10
3.3260957e-10
3.2570353e-10
3.1833406e-10
3.1067354e-10
3.0256509e-10
2.9423249e-10
2.8518144e-10
2.7560516e-10
2.6518181e-10
2.5469616e-10
2.4567891e-10
2.405094e-10
2.4314292e-10
2.4875606e-10
2.5465504e-10
2.6083922e-10
2.6649432e-10
2.7186196e-10
2.7503631e-10
2.7721429e-10
2.7963355e-10
2.8178249e-10
2.7952166e-10
2.7440565e-10
2.791952e-10
2.749906e-10
2.7967084e-10
2.7038063e-10
2.8561142e-10
2.6753944e-10
2.1630655e-10
3.4925348e-10
2.7714547e-10
1.3164591e-10
8.7259165e-10
9.0614282e-10
2.5137828e-10
4.3190717e-11
1.8193749e-10
4.3464439e-10
8.571633e-11
3.0013247e-10
1.5555913e-09
1.5345726e-09
1.1589583e-09
9.3326171e-10
9.574645e-10
7.9383403e-10
5.0770689e-10
1.7760612e-10
8.9310182e-11
3.0475042e-10
5.9444603e-10
2.3936439e-10
2.1581463e-09
1.5053087e-09
4.188676e-10
2.4420829e-10
3.8614549e-10
5.4362786e-10
4.7031437e-10
2.5877842e-10
4.4577036e-10
9.924276e-10
1.1634345e-09
1.1091977e-09
9.8470885e-10
9.0313592e-10
8.5348708e-10
7.8866542e-10
7.0241352e-10
6.3219303e-10
5.7021567e-10
5.7145574e-10
3.0788661e-09
3.3422423e-09
3.3699596e-09
3.1167257e-09
2.5703532e-09
1.8613506e-09
1.1540758e-09
5.9247919e-10
2.4953353e-10
9.2669748e-11
3.900797e-11
2.0171205e-11
1.1315397e-11
8.344379e-12
7.0734512e-12
6.375073e-12
5.8759291e-12
5.5142586e-12
5.4491454e-12
5.4659354e-12
5.56049e-12
5.7040567e-12
5.9015731e-12
6.1695772e-12
6.5230219e-12
6.9563642e-12
7.4714543e-12
8.0952208e-12
8.8541157e-12
9.7675548e-12
1.0867571e-11
1.219822e-11
1.3811302e-11
1.5760678e-11
1.8103246e-11
2.0885642e-11
2.4117012e-11
2.7817966e-11
3.2051898e-11
3.6826684e-11
4.2064841e-11
4.8204853e-11
5.5535719e-11
6.3852881e-11
7.3184297e-11
8.3563572e-11
9.5025912e-11
1.0756606e-10
1.2131784e-10
1.3642783e-10
1.5269773e-10
1.699545e-10
1.8813715e-10
2.0637833e-10
2.2401923e-10
2.4033139e-10
2.5426347e-10
2.6491794e-10
2.7163732e-10
2.7374069e-10
2.7364573e-10
2.736221e-10
2.8582099e-10
3.3124875e-10
3.9190742e-10
4.5020132e-10
5.0814628e-10
5.6503331e-10
6.210969e-10
6.7629622e-10
7.309825e-10
7.8526226e-10
8.3858818e-10
8.9101519e-10
9.4307827e-10
9.9471888e-10
1.0460469e-09
1.0970951e-09
1.1479092e-09
1.1984761e-09
1.2487852e-09
1.2988545e-09
1.3486725e-09
1.3981834e-09
1.4473556e-09
1.4961579e-09
1.5445463e-09
1.5924528e-09
1.6398134e-09
1.6866581e-09
1.7329111e-09
1.7784623e-09
1.8232763e-09
1.86729e-09
1.910437e-09
1.9526942e-09
1.9940093e-09
2.0343649e-09
2.0736995e-09
2.1119874e-09
2.1492179e-09
2.1853812e-09
2.2204668e-09
2.2544262e-09
2.2872356e-09
2.3188432e-09
2.3491864e-09
2.3782546e-09
2.4060532e-09
2.4326265e-09
2.4579289e-09
2.4819345e-09
2.5046592e-09
2.5261303e-09
2.5463043e-09
2.5651765e-09
2.5828402e-09
2.5994581e-09
2.6149477e-09
2.6290554e-09
2.6419258e-09
2.6537828e-09
2.6645372e-09
2.6740496e-09
2.6824059e-09
2.6897675e-09
2.696076e-09
2.7012539e-09
2.7053605e-09
2.7085056e-09
2.7106694e-09
2.7118379e-09
2.7120261e-09
2.7112661e-09
2.7095116e-09
2.7067101e-09
2.7032642e-09
2.6994419e-09
2.6949535e-09
2.6896378e-09
2.6833914e-09
2.6762677e-09
2.6684665e-09
2.6600137e-09
2.6509629e-09
2.641483e-09
2.6314946e-09
2.6207259e-09
2.6093187e-09
2.5974133e-09
2.5849195e-09
2.571959e-09
2.5585775e-09
2.544828e-09
2.5306993e-09
2.516386e-09
2.5020536e-09
2.4877032e-09
2.4729413e-09
2.4565671e-09
2.43942e-09
2.4210058e-09
2.3958568e-09
2.3707178e-09
2.3516261e-09
2.3346436e-09
2.3174146e-09
2.2994132e-09
2.2808458e-09
2.2616057e-09
2.2420476e-09
2.2219788e-09
2.2014764e-09
2.1806158e-09
2.1594018e-09
2.1378783e-09
2.1161112e-09
2.0941623e-09
2.0720696e-09
2.0496049e-09
2.0266121e-09
2.0034995e-09
1.9801072e-09
1.9563925e-09
1.9322816e-09
1.9078643e-09
1.8830172e-09
1.8578415e-09
1.8321779e-09
1.8062199e-09
1.7798114e-09
1.7525493e-09
1.7242295e-09
1.6952464e-09
1.665011e-09
1.6339847e-09
1.6017015e-09
1.5684577e-09
1.5329818e-09
1.4961009e-09
1.4570631e-09
1.416942e-09
1.3733606e-09
1.3272471e-09
1.2770547e-09
1.2265483e-09
1.1831077e-09
1.1581861e-09
1.1708631e-09
1.197901e-09
1.2263233e-09
1.2561261e-09
1.2833874e-09
1.3092583e-09
1.3245767e-09
1.3351088e-09
1.3468069e-09
1.3571752e-09
1.3463061e-09
1.3217774e-09
1.3448764e-09
1.324636e-09
1.3471315e-09
1.3024118e-09
1.3756425e-09
1.2880622e-09
1.0425865e-09
1.6828028e-09
1.3310456e-09
6.3582347e-10
4.2025294e-09
4.3327983e-09
1.1963698e-09
2.0658252e-10
8.7895881e-10
2.0862349e-09
4.0965126e-10
1.4467777e-09
7.4633303e-09
7.3264115e-09
5.4475122e-09
4.5029964e-09
4.6076738e-09
3.8239403e-09
2.1066031e-09
8.4881294e-10
3.8515009e-10
1.4619332e-09
2.852684e-09
9.1100973e-10
1.0339558e-08
7.0496602e-09
2.0096042e-09
1.1700292e-09
1.8144855e-09
2.5859758e-09
2.1976945e-09
1.214855e-09
2.1137098e-09
4.6621858e-09
5.5199652e-09
5.2421616e-09
4.6445738e-09
4.2734538e-09
4.0496131e-09
3.750492e-09
3.3613324e-09
3.0323533e-09
2.7361145e-09
2.7455939e-09
1.0808361e-08
1.1729771e-08
1.1823722e-08
1.0934609e-08
9.017984e-09
6.5340639e-09
4.0549764e-09
2.0842564e-09
8.7835814e-10
3.2580056e-10
1.3618251e-10
7.0189886e-11
3.9549072e-11
2.9127524e-11
2.4688076e-11
2.2234179e-11
2.0528324e-11
1.9299101e-11
1.9087962e-11
1.9159238e-11
1.9500284e-11
2.00103e-11
2.0706568e-11
2.1648801e-11
2.2889584e-11
2.4409992e-11
2.621573e-11
2.8401887e-11
3.1061859e-11
3.4263262e-11
3.8118205e-11
4.2781577e-11
4.8434346e-11
5.526689e-11
6.3478862e-11
7.3233691e-11
8.4566926e-11
9.75518e-11
1.1241054e-10
1.2917945e-10
1.4757153e-10
1.6911567e-10
1.9485537e-10
2.2406672e-10
2.5685142e-10
2.9332104e-10
3.3360483e-10
3.7768105e-10
4.2601533e-10
4.7912769e-10
5.3632192e-10
5.9698525e-10
6.6090945e-10
7.2505615e-10
7.8709358e-10
8.4447281e-10
8.9349023e-10
9.3098911e-10
9.5464609e-10
9.6207952e-10
9.6175582e-10
9.6164816e-10
1.0043766e-09
1.1638136e-09
1.3768355e-09
1.5814929e-09
1.7849332e-09
1.9846416e-09
2.1814556e-09
2.3752214e-09
2.5672037e-09
2.7577536e-09
2.9449521e-09
3.1289898e-09
3.3117529e-09
3.4930283e-09
3.6732072e-09
3.852405e-09
4.0307806e-09
4.208288e-09
4.3848917e-09
4.5606545e-09
4.7355374e-09
4.9093439e-09
5.0819632e-09
5.2532879e-09
5.4231632e-09
5.5913503e-09
5.757625e-09
5.9220926e-09
6.0844884e-09
6.244428e-09
6.4017869e-09
6.5563419e-09
6.7078603e-09
6.856262e-09
7.0013632e-09
7.1431028e-09
7.2812656e-09
7.415762e-09
7.5465542e-09
7.6736078e-09
7.7968854e-09
7.9162179e-09
8.0315203e-09
8.1426032e-09
8.2492433e-09
8.3514136e-09
8.4491342e-09
8.5425588e-09
8.6315281e-09
8.7159498e-09
8.7958796e-09
8.8714114e-09
8.9423943e-09
9.0088132e-09
9.0709958e-09
9.129511e-09
9.1840652e-09
9.2337701e-09
9.2791361e-09
9.3209453e-09
9.3588839e-09
9.3924628e-09
9.4219855e-09
9.4480154e-09
9.4703471e-09
9.4887092e-09
9.5033098e-09
9.5145324e-09
9.5223072e-09
9.5265878e-09
9.527424e-09
9.5249295e-09
9.518936e-09
9.5092632e-09
9.4973286e-09
9.4840675e-09
9.4684653e-09
9.4499567e-09
9.4281732e-09
9.4033049e-09
9.3760525e-09
9.3465074e-09
9.3148612e-09
9.2817056e-09
9.2467589e-09
9.2090656e-09
9.1691253e-09
9.1274281e-09
9.0836615e-09
9.0382513e-09
8.9913575e-09
8.9431656e-09
8.8936389e-09
8.8434583e-09
8.7932038e-09
8.7428772e-09
8.6910888e-09
8.6336464e-09
8.5735081e-09
8.508945e-09
8.4207072e-09
8.3323989e-09
8.2653595e-09
8.2057548e-09
8.1452789e-09
8.082086e-09
8.0169045e-09
7.9493531e-09
7.8806816e-09
7.8102107e-09
7.7382137e-09
7.6649514e-09
7.590445e-09
7.5148469e-09
7.4383894e-09
7.3612881e-09
7.2836819e-09
7.2047643e-09
7.1239842e-09
7.0427812e-09
6.9605929e-09
6.877268e-09
6.7925484e-09
6.7067483e-09
6.6194358e-09
6.5309656e-09
6.4407792e-09
6.3495523e-09
6.2567435e-09
6.1609313e-09
6.0613997e-09
5.9595338e-09
5.8532632e-09
5.7442103e-09
5.6307381e-09
5.5138865e-09
5.38919e-09
5.2595509e-09
5.1223328e-09
4.9812982e-09
4.8281027e-09
4.6660082e-09
4.4895798e-09
4.3120028e-09
4.1592448e-09
4.0715445e-09
4.1161068e-09
4.2111756e-09
4.3111474e-09
4.415977e-09
4.5118982e-09
4.6028804e-09
4.6568237e-09
4.6939642e-09
4.7352182e-09
4.7716707e-09
4.7335129e-09
4.6476759e-09
4.7289082e-09
4.6577033e-09
4.7365815e-09
4.5791834e-09
4.8362532e-09
4.5263611e-09
3.6682846e-09
5.9200256e-09
4.6713121e-09
2.2389511e-09
1.4779241e-08
1.5149233e-08
4.1567565e-09
7.216538e-10
3.0989416e-09
7.3022774e-09
1.429444e-09
5.0903788e-09
2.6096288e-08
2.553322e-08
1.897487e-08
1.5878655e-08
1.617926e-08
1.3492029e-08
7.0355005e-09
2.9662553e-09
1.3130949e-09
5.1361311e-09
9.9870527e-09
3.042423e-09
3.6316742e-08
2.4269384e-08
7.0252271e-09
4.0893608e-09
6.353034e-09
8.9848133e-09
7.6025548e-09
4.2433093e-09
7.3820749e-09
1.6156702e-08
1.9287346e-08
1.8301772e-08
1.6199547e-08
1.490867e-08
1.4133278e-08
1.3094523e-08
1.1776732e-08
1.0640579e-08
9.6057053e-09
9.6419321e-09
3.0821787e-08
3.3437767e-08
3.3696099e-08
3.1160659e-08
2.5700433e-08
1.8632307e-08
1.1574705e-08
5.9580881e-09
2.514462e-09
9.3293561e-10
3.8851054e-10
1.9985928e-10
1.1296512e-10
8.3133747e-11
7.0448208e-11
6.3403579e-11
5.856353e-11
5.5099312e-11
5.4505958e-11
5.4716273e-11
5.5694917e-11
5.715468e-11
5.914383e-11
6.1833885e-11
6.5375629e-11
6.9715718e-11
7.4869377e-11
8.1108645e-11
8.8700426e-11
9.783724e-11
1.0883901e-10
1.2214788e-10
1.3827995e-10
1.5778e-10
1.8121772e-10
2.0906112e-10
2.4141564e-10
2.7848991e-10
3.2092031e-10
3.6881554e-10
4.2133341e-10
4.8283753e-10
5.5634063e-10
6.3976909e-10
7.334147e-10
8.3758827e-10
9.5266709e-10
1.0785808e-09
1.2166525e-09
1.3683809e-09
1.5317717e-09
1.7050703e-09
1.8876972e-09
2.0709854e-09
2.2482487e-09
2.4122232e-09
2.5523213e-09
2.659511e-09
2.7271441e-09
2.7484249e-09
2.7475142e-09
2.7470528e-09
2.8687267e-09
3.3237951e-09
3.9320347e-09
4.516255e-09
5.0969979e-09
5.6670303e-09
6.2287666e-09
6.7817718e-09
7.3297019e-09
7.8735018e-09
8.4077057e-09
8.9328647e-09
9.4543756e-09
9.9716124e-09
1.0485711e-08
1.0997e-08
1.1505927e-08
1.2012366e-08
1.2516219e-08
1.3017665e-08
1.3516599e-08
1.4012457e-08
1.4504927e-08
1.4993706e-08
1.5478354e-08
1.5958189e-08
1.6432572e-08
1.6901806e-08
1.7365142e-08
1.7821489e-08
1.827049e-08
1.8711504e-08
1.914387e-08
1.956736e-08
1.9981452e-08
2.0385974e-08
2.078031e-08
2.1164209e-08
2.1537565e-08
2.1900277e-08
2.2252239e-08
2.2592969e-08
2.2922228e-08
2.3239431e-08
2.3543949e-08
2.3835737e-08
2.4114856e-08
2.4381734e-08
2.4635925e-08
2.4877157e-08
2.5105589e-08
2.532149e-08
2.5524426e-08
2.5714362e-08
2.5892238e-08
2.6059663e-08
2.6215791e-08
2.635809e-08
2.6488029e-08
2.6607825e-08
2.6716583e-08
2.6812904e-08
2.689766e-08
2.6972457e-08
2.7036699e-08
2.7089615e-08
2.7131798e-08
2.7164343e-08
2.7187045e-08
2.7199774e-08
2.7202671e-08
2.7196057e-08
2.7179448e-08
2.7152324e-08
2.7118742e-08
2.7081373e-08
2.7037317e-08
2.6984951e-08
2.6923232e-08
2.685269e-08
2.6775333e-08
2.669142e-08
2.6601506e-08
2.6507274e-08
2.6407921e-08
2.6300707e-08
2.6187056e-08
2.6068379e-08
2.594378e-08
2.581448e-08
2.5680924e-08
2.5543653e-08
2.5402556e-08
2.525958e-08
2.5116366e-08
2.4972913e-08
2.4825236e-08
2.4661461e-08
2.449006e-08
2.430614e-08
2.4054544e-08
2.3802376e-08
2.3611036e-08
2.3441009e-08
2.3268471e-08
2.3088174e-08
2.2902196e-08
2.270943e-08
2.2513457e-08
2.231233e-08
2.2106839e-08
2.1897715e-08
2.1685029e-08
2.146921e-08
2.1250934e-08
2.1030802e-08
2.0809229e-08
2.0583898e-08
2.0353227e-08
2.0121343e-08
1.988664e-08
1.9648679e-08
1.9406727e-08
1.9161681e-08
1.891231e-08
1.8659624e-08
1.8402027e-08
1.814145e-08
1.7876354e-08
1.760267e-08
1.7318357e-08
1.7027368e-08
1.672379e-08
1.6412257e-08
1.6088096e-08
1.5754273e-08
1.5398045e-08
1.5027684e-08
1.4635687e-08
1.4232756e-08
1.3795096e-08
1.3332026e-08
1.2828025e-08
1.2320582e-08
1.1883981e-08
1.1633102e-08
1.1760421e-08
1.2032071e-08
1.2317857e-08
1.2617512e-08
1.2891821e-08
1.3151828e-08
1.3306224e-08
1.3412689e-08
1.3530934e-08
1.3635044e-08
1.3526245e-08
1.3282227e-08
1.351429e-08
1.3310556e-08
1.3535155e-08
1.3084319e-08
1.3817734e-08
1.2926508e-08
1.0489718e-08
1.6927557e-08
1.3325072e-08
6.3984258e-09
4.2224818e-08
4.3021266e-08
1.1716227e-08
2.0462115e-09
8.8766312e-09
2.074763e-08
4.045066e-09
1.4505637e-08
7.4043126e-08
7.2188404e-08
5.3981777e-08
4.5617487e-08
4.6144183e-08
3.8754727e-08
1.9544248e-08
8.4142839e-09
3.6909961e-09
1.4671158e-08
2.8410195e-08
8.5096768e-09
1.0387625e-07
6.7886999e-08
1.9826168e-08
1.1611796e-08
1.796607e-08
2.531344e-08
2.1383442e-08
1.2066087e-08
2.0939041e-08
4.5522229e-08
5.4717105e-08
5.1899461e-08
4.5887028e-08
4.2217674e-08
4.0035292e-08
3.7122295e-08
3.3496188e-08
3.0322996e-08
2.7394861e-08
2.7506849e-08
7.5858623e-08
8.2260864e-08
8.2866696e-08
7.662768e-08
6.3209644e-08
4.5863251e-08
2.8529913e-08
1.471395e-08
6.2220751e-09
2.310104e-09
9.5954859e-10
4.9285887e-10
2.7919142e-10
2.0532379e-10
1.739531e-10
1.5648983e-10
1.4453423e-10
1.3605884e-10
1.345931e-10
1.3511235e-10
1.3752703e-10
1.411301e-10
1.4603727e-10
1.526724e-10
1.6140915e-10
1.7211737e-10
1.8483251e-10
2.0022682e-10
2.1895864e-10
2.4150194e-10
2.686465e-10
3.0148275e-10
3.4128353e-10
3.893947e-10
4.4722082e-10
5.1592159e-10
5.9576462e-10
6.8726106e-10
7.9198889e-10
9.1021722e-10
1.0398161e-09
1.1915704e-09
1.3729729e-09
1.5788923e-09
1.8100477e-09
2.0671917e-09
2.3512737e-09
2.6620948e-09
3.0029072e-09
3.3774512e-09
3.7807771e-09
4.2085454e-09
4.6593724e-09
5.1118866e-09
5.5495295e-09
5.9544093e-09
6.3003809e-09
6.5651092e-09
6.7321592e-09
6.7847703e-09
6.7825318e-09
6.7808019e-09
7.0798689e-09
8.2019509e-09
9.7023923e-09
1.1143184e-08
1.2575334e-08
1.398086e-08
1.5365791e-08
1.6729075e-08
1.8079825e-08
1.9420236e-08
2.0736874e-08
2.203111e-08
2.3316289e-08
2.4590823e-08
2.585757e-08
2.7117338e-08
2.8371219e-08
2.9618917e-08
3.0860204e-08
3.2095527e-08
3.3324634e-08
3.4546143e-08
3.5759289e-08
3.6963345e-08
3.8157227e-08
3.9339264e-08
4.0507879e-08
4.1663827e-08
4.2805287e-08
4.3929587e-08
4.5035848e-08
4.6122476e-08
4.7187857e-08
4.8231432e-08
4.9251922e-08
5.0248902e-08
5.1220869e-08
5.2167206e-08
5.3087659e-08
5.3981979e-08
5.4849896e-08
5.5690242e-08
5.6502425e-08
5.7284828e-08
5.8036018e-08
5.8755926e-08
5.9444714e-08
6.0103423e-08
6.0730954e-08
6.1326629e-08
6.1890849e-08
6.2424239e-08
6.2925758e-08
6.3395318e-08
6.3835264e-08
6.4249524e-08
6.463596e-08
6.4988368e-08
6.5310381e-08
6.5607442e-08
6.5877319e-08
6.6116568e-08
6.632736e-08
6.6513626e-08
6.6673894e-08
6.6806242e-08
6.6912162e-08
6.6994321e-08
6.7052211e-08
6.7085515e-08
6.7094591e-08
6.7080193e-08
6.7041135e-08
6.6976094e-08
6.6895136e-08
6.6804823e-08
6.6698e-08
6.6570663e-08
6.6420232e-08
6.6247987e-08
6.6058891e-08
6.5853596e-08
6.563348e-08
6.5402694e-08
6.5159225e-08
6.4896312e-08
6.4617458e-08
6.4326147e-08
6.4020197e-08
6.3702599e-08
6.3374456e-08
6.3037079e-08
6.2690225e-08
6.2338694e-08
6.1986475e-08
6.1633573e-08
6.1270071e-08
6.0867e-08
6.0445338e-08
5.999315e-08
5.9373742e-08
5.8751746e-08
5.828011e-08
5.786131e-08
5.7436241e-08
5.6992021e-08
5.6533754e-08
5.6058681e-08
5.5575669e-08
5.5079878e-08
5.4573283e-08
5.4057681e-08
5.3533229e-08
5.3001021e-08
5.2462704e-08
5.1919772e-08
5.1373267e-08
5.0817447e-08
5.0248394e-08
4.9676311e-08
4.9097254e-08
4.8510125e-08
4.791311e-08
4.7308434e-08
4.6693061e-08
4.6069474e-08
4.543375e-08
4.4790629e-08
4.4136355e-08
4.3460863e-08
4.2759102e-08
4.2040852e-08
4.1291496e-08
4.0522487e-08
3.9722288e-08
3.8898212e-08
3.8018845e-08
3.7104558e-08
3.6136896e-08
3.5142151e-08
3.4061711e-08
3.2918586e-08
3.1674462e-08
3.0421358e-08
2.934295e-08
2.8722605e-08
2.9036925e-08