/*--------------------------------*- C++ -*----------------------------------*\
| =========                 |                                                 |
| \\      /  F ield         | OpenFOAM: The Open Source CFD Toolbox           |
|  \\    /   O peration     | Version:  2.4.0                                 |
|   \\  /    A nd           | Web:      www.OpenFOAM.org                      |
|    \\/     M anipulation  |                                                 |
\*---------------------------------------------------------------------------*/
FoamFile
{
    version     2.0;
    format      ascii;
    class       volVectorField;
    location    "70";
    object      U;
}
// * * * * * * * * * * * * * * * * * * * * * * * * * * * * * * * * * * * * * //

dimensions      [0 1 -1 0 0 0 0];

internalField   nonuniform List<vector> 
78300
(
(0.0057315245 2.4752472e-05 1.2366012e-21)
(0.004350855 2.2148251e-05 -1.1863637e-21)
(0.0069805735 -4.4154114e-05 1.0322171e-21)
(0.0055895462 -0.00017210588 -2.8265467e-20)
(0.0061267338 -0.00041556909 -8.0600657e-21)
(0.0036375661 -0.00042640506 1.5405218e-20)
(0.0023791801 -0.00043080844 8.9890445e-21)
(-0.00050967713 0.0001215403 -3.072009e-20)
(-0.0015393122 0.00050411395 -1.0705182e-20)
(-0.0022552689 0.00095057223 1.0849206e-20)
(-0.0017186757 0.00086646324 6.5477946e-21)
(-0.0015236693 0.00088060016 -1.5843814e-20)
(-0.0010925282 0.00069807529 2.4605459e-21)
(-0.00095804115 0.00066345127 -1.0903093e-20)
(-0.00078024196 0.00057398387 8.1816764e-21)
(-0.00073902697 0.00057066243 -1.0897532e-20)
(-0.00064537536 0.00051664232 -3.3173327e-21)
(-0.00062354424 0.00051366606 1.3831216e-21)
(-0.00056413596 0.00047401583 -4.7234779e-21)
(-0.00053951879 0.00045950193 2.8526486e-21)
(-0.000494059 0.00042339693 3.1686713e-21)
(-0.0004692565 0.0004022435 -1.9155574e-21)
(-0.00043601263 0.00037127903 -5.1138197e-22)
(-0.00042074003 0.0003543048 1.1152021e-22)
(-0.00040500515 0.00033716065 1.0444515e-22)
(-0.00039931389 0.00032883993 -2.0800781e-23)
(-0.00039492316 0.00032195328 -4.4281952e-23)
(-0.00039858332 0.00032194855 1.052499e-22)
(-0.0004049152 0.00032421283 -2.6001153e-23)
(-0.00041874056 0.00033272399 -1.4277763e-22)
(-0.00043620309 0.00034412667 2.8491714e-22)
(-0.000460646 0.00036123753 9.1058245e-22)
(-0.00048924628 0.00038159874 4.5302415e-22)
(-0.00052383133 0.00040675271 7.3365377e-22)
(-0.00056178545 0.00043461064 -9.0253845e-22)
(-0.00060261097 0.00046492371 6.4191143e-22)
(-0.00064167954 0.00049358789 -1.0673192e-21)
(-0.00067973465 0.00051985345 -3.5663285e-23)
(-0.00071725666 0.00054361692 -1.6828832e-21)
(-0.00075343637 0.00056394372 2.7465305e-22)
(-0.00078844027 0.00058031478 -2.0739718e-24)
(-0.00082086952 0.00059248112 -3.6630348e-22)
(-0.00085027102 0.00060054187 -8.27372e-22)
(-0.00087656398 0.00060209867 -1.3634555e-21)
(-0.00089817166 0.00059739198 2.7970981e-21)
(-0.0009137602 0.00058492794 3.5775724e-21)
(-0.00092502438 0.00056601478 -1.498031e-21)
(-0.00093027578 0.0005405418 -4.6534439e-21)
(-0.00093647689 0.00051258051 5.0169414e-21)
(-0.00094110587 0.0004825454 -4.315154e-21)
(-0.00094341481 0.00045048423 -9.9622302e-21)
(-0.000939279 0.00041482155 1.3564158e-21)
(-0.00093226769 0.00037772586 -1.9369537e-21)
(-0.0009146224 0.00033661732 -7.4913502e-21)
(-0.00089606274 0.0002960201 -2.4006063e-21)
(-0.00086270305 0.00025193655 2.0500076e-21)
(-0.00083439406 0.00021127525 1.4559616e-21)
(-0.00078673449 0.00016818284 2.8773785e-21)
(-0.00075928094 0.0001320527 3.7009508e-23)
(-0.00070803881 9.4526029e-05 -1.1914727e-21)
(-0.00071253797 6.6094022e-05 -5.8353515e-23)
(-0.00069315512 3.5796883e-05 -5.7776254e-23)
(-0.00083950402 1.0062989e-05 -1.5025104e-22)
(-0.0011253419 3.470249e-07 5.3876464e-26)
(-0.0013210014 3.4507956e-07 -6.4556295e-26)
(-0.0015194666 3.1287372e-07 -2.9843232e-25)
(-0.0016808281 3.3031327e-07 3.3081485e-25)
(-0.0018405352 3.1503187e-07 -3.350447e-25)
(-0.0019752416 3.2783886e-07 2.1591676e-25)
(-0.0021059353 3.2111858e-07 -2.6989516e-25)
(-0.0022194664 3.3044446e-07 1.7573837e-25)
(-0.00232848 3.2767246e-07 3.2537262e-25)
(-0.0024254052 3.3497525e-07 -4.0889338e-25)
(-0.002517938 3.3605375e-07 -1.4538093e-18)
(-0.0026017805 3.4218759e-07 -1.2485513e-18)
(-0.0026816751 3.4369803e-07 4.7013942e-25)
(-0.0027549991 3.4938586e-07 -1.9676239e-25)
(-0.0028247377 3.5219166e-07 -8.5875214e-26)
(-0.0028892969 3.5700462e-07 2.2743e-27)
(-0.0029505684 3.5835488e-07 1.0581046e-26)
(-0.0030076151 3.6227324e-07 -7.0134654e-26)
(-0.003061618 3.6267261e-07 2.628959e-25)
(-0.0031120284 3.6562588e-07 -1.4159505e-25)
(-0.0031595935 3.6217431e-07 -3.8812605e-25)
(-0.0032040001 3.6151189e-07 4.2292221e-25)
(-0.0032456751 3.5628313e-07 -6.1299994e-26)
(-0.0032844977 3.5367827e-07 5.144851e-25)
(-0.003320599 3.4888608e-07 -7.0713118e-25)
(-0.0033542974 3.4570191e-07 -5.6020756e-25)
(-0.0033855754 3.4195488e-07 8.5776137e-25)
(-0.003414494 3.3823637e-07 -7.2638838e-25)
(-0.0034411416 3.3519231e-07 5.7981062e-25)
(-0.0034655451 3.330205e-07 -3.298949e-25)
(-0.0034877895 3.2937797e-07 -7.0090471e-26)
(-0.0035078844 3.2700096e-07 2.385799e-26)
(-0.0035259088 3.1938895e-07 4.9111499e-25)
(-0.0035418832 3.1527215e-07 -4.1840045e-26)
(-0.0035558967 3.0527508e-07 7.310349e-25)
(-0.0035679437 2.9882972e-07 -3.2817871e-27)
(-0.0035781671 2.8951093e-07 -1.4410165e-24)
(-0.0035866233 2.8077939e-07 6.8418604e-25)
(-0.0035935671 2.7198291e-07 -6.5631202e-26)
(-0.003598976 2.6319318e-07 9.7604926e-25)
(-0.0036031277 2.5720539e-07 -2.4749949e-26)
(-0.0036061079 2.4724535e-07 -1.909719e-24)
(-0.0036081803 2.4146655e-07 -1.3148947e-25)
(-0.0036093242 2.2918525e-07 6.6302896e-26)
(-0.0036091996 2.2165982e-07 9.8050193e-25)
(-0.0036072788 2.0567797e-07 -9.7824768e-26)
(-0.003601465 1.9774975e-07 -1.2353125e-24)
(-0.0035940218 1.8355401e-07 2.2829072e-24)
(-0.0035847196 1.7748105e-07 -2.6118844e-24)
(-0.0035739893 1.6525609e-07 2.4601447e-24)
(-0.0035618047 1.5849173e-07 -4.7297517e-25)
(-0.0035482828 1.4701714e-07 2.891987e-25)
(-0.0035334166 1.3889222e-07 -1.2233899e-24)
(-0.0035172483 1.2922385e-07 6.9346261e-25)
(-0.0034997593 1.1737479e-07 1.8726759e-25)
(-0.0034809859 1.0792778e-07 -1.3493961e-25)
(-0.0034609511 9.327258e-08 -1.3242677e-25)
(-0.0034397078 8.3024043e-08 2.8118395e-17)
(-0.0034172923 6.8149654e-08 2.8958462e-17)
(-0.0033937436 5.9119711e-08 1.6971386e-24)
(-0.003369098 4.4724566e-08 -1.3770397e-25)
(-0.0033433812 3.3896068e-08 -1.5907104e-25)
(-0.0033166171 1.9842535e-08 -1.1559048e-25)
(-0.0032888179 8.8917661e-09 -9.5576395e-27)
(-0.0032600325 -4.2147064e-09 -3.9156828e-25)
(-0.0032302953 -1.6400324e-08 -1.7993224e-25)
(-0.0031996554 -2.7948122e-08 6.2551855e-25)
(-0.0031681224 -4.0490954e-08 3.4252564e-26)
(-0.0031357363 -5.1166959e-08 3.4331347e-25)
(-0.0031025269 -6.3660966e-08 -5.6853038e-25)
(-0.0030685388 -7.3429787e-08 7.9569829e-26)
(-0.0030337912 -8.6251391e-08 1.8458e-26)
(-0.0029983131 -9.571783e-08 3.616715e-26)
(-0.0029621393 -1.0759886e-07 3.5422737e-27)
(-0.0029253144 -1.1618657e-07 2.3229734e-25)
(-0.0028878855 -1.2801039e-07 -1.0269356e-25)
(-0.0028498702 -1.3675841e-07 -5.5600629e-25)
(-0.0028112928 -1.4776129e-07 1.0693896e-24)
(-0.0027721645 -1.5737145e-07 -1.5493454e-24)
(-0.0027325372 -1.6723092e-07 2.5515128e-26)
(-0.0026924268 -1.7815856e-07 8.2728216e-25)
(-0.0026518558 -1.8686042e-07 -2.3534274e-25)
(-0.002610818 -1.9868104e-07 5.6368949e-25)
(-0.0025693696 -2.051206e-07 -2.3774624e-25)
(-0.0025275353 -2.1589876e-07 -1.5158387e-26)
(-0.0024853474 -2.228804e-07 -2.7058461e-25)
(-0.0024428482 -2.3079046e-07 -2.7865266e-25)
(-0.0024000801 -2.3834072e-07 -2.6475139e-25)
(-0.0023570829 -2.4329088e-07 1.0045812e-24)
(-0.0023138837 -2.5141884e-07 6.5544852e-25)
(-0.0022705407 -2.5437802e-07 1.0780907e-24)
(-0.0022270814 -2.6394487e-07 -4.2538373e-25)
(-0.0021835299 -2.6741796e-07 -1.2090898e-24)
(-0.0021398919 -2.7611507e-07 -2.934864e-24)
(-0.0020961965 -2.8153156e-07 5.7918198e-17)
(-0.0020524573 -2.8843224e-07 2.776809e-20)
(-0.0020086945 -2.962465e-07 -5.9359439e-17)
(-0.0019648957 -3.0095359e-07 -4.5304535e-24)
(-0.0019210706 -3.0704015e-07 6.5870441e-25)
(-0.0018772892 -3.076818e-07 -7.9142843e-24)
(-0.0018336925 -3.1097521e-07 8.1968596e-24)
(-0.0017902391 -3.1724059e-07 7.6419232e-25)
(-0.0017468837 -3.2148165e-07 -7.485397e-24)
(-0.0017036742 -3.2404092e-07 4.1549944e-24)
(-0.0016607034 -3.292456e-07 -4.5817687e-24)
(-0.0016179178 -3.3127475e-07 6.7617328e-24)
(-0.0015753432 -3.3616398e-07 -1.7300624e-24)
(-0.0015329178 -3.357363e-07 -3.4020679e-24)
(-0.001490815 -3.3488056e-07 1.0928107e-24)
(-0.0014489564 -3.3569183e-07 4.4213183e-24)
(-0.0014075269 -3.3272786e-07 -5.1306727e-24)
(-0.0013663702 -3.3383666e-07 4.4915237e-24)
(-0.0013257727 -3.3063666e-07 -4.9076026e-24)
(-0.0012855254 -3.3513494e-07 2.5192648e-24)
(-0.0012459078 -3.3722939e-07 2.880822e-24)
(-0.0012065095 -3.4229742e-07 4.6775883e-24)
(-0.0011677804 -3.4207077e-07 -5.3529474e-24)
(-0.0011293418 -3.476832e-07 -3.6862519e-24)
(-0.0010917234 -3.5292231e-07 4.7498801e-24)
(-0.0010542178 -3.5763533e-07 -1.0118517e-23)
(-0.0010175734 -3.5712137e-07 9.4236174e-24)
(-0.00098107195 -3.5813789e-07 -5.5929538e-24)
(-0.0009457302 -3.6090781e-07 4.8757666e-24)
(-0.00091036296 -3.6062926e-07 -5.6750313e-24)
(-0.00087631075 -3.5715523e-07 -3.9135328e-24)
(-0.00084214887 -3.5107146e-07 3.0957146e-24)
(-0.00080978578 -3.463417e-07 -3.9665988e-24)
(-0.00077717798 -3.4219974e-07 1.0212587e-23)
(-0.00074682697 -3.3672921e-07 -6.2109474e-24)
(-0.00071602417 -3.3555066e-07 5.4420439e-24)
(-0.0006881217 -3.3418452e-07 -9.3285069e-24)
(-0.00065940972 -3.3526158e-07 8.7062339e-25)
(-0.00063432041 -3.3193518e-07 3.2328997e-24)
(-0.00060796466 -3.2809659e-07 3.6320989e-24)
(-0.00058635435 -3.1746529e-07 -1.3862656e-23)
(-0.00056309516 -3.1605464e-07 8.0905465e-17)
(-0.00054608432 -3.0808049e-07 8.1417272e-17)
(-0.00052680534 -3.1283348e-07 -4.1367698e-24)
(-0.00051551401 -3.0346551e-07 -6.1624889e-24)
(-0.00050124709 -3.0859842e-07 5.3808193e-24)
(-0.0004971453 -2.9746102e-07 9.8106812e-25)
(-0.00048931649 -3.0339021e-07 -1.7793715e-24)
(-0.00049377653 -2.8923319e-07 -8.3711624e-17)
(-0.00049207703 -3.0327668e-07 -8.4238112e-17)
(-0.00050124761 -6.0095621e-06 -1.5092078e-20)
(-0.00050845085 -2.6196496e-05 1.5667113e-19)
(-0.00050979594 -4.6926095e-05 7.1116599e-20)
(-0.00051381138 -6.7996438e-05 -4.6136306e-19)
(-0.00050421063 -8.6802555e-05 -7.684479e-20)
(-0.00049670064 -0.00010509771 -5.1468825e-19)
(-0.000476772 -0.00011938931 3.4438936e-20)
(-0.00045751769 -0.00013210784 -5.3780812e-21)
(-0.00042770468 -0.00013958011 1.9119775e-19)
(-0.00039702549 -0.00014425437 -1.5043005e-19)
(-0.00035719355 -0.00014267348 4.9067254e-19)
(-0.00031484376 -0.00013687436 -3.3457269e-19)
(-0.00026401812 -0.00012375681 -9.1000047e-20)
(-0.00020912494 -0.00010480933 -1.6731672e-19)
(-0.00014571459 -7.7225556e-05 9.5138211e-19)
(-7.620743e-05 -4.1663853e-05 2.0840513e-19)
(4.2802551e-06 5.2582235e-06 -8.1356642e-19)
(9.1625915e-05 6.1201436e-05 -8.9345178e-19)
(0.00018901669 0.00012808691 -1.4287467e-19)
(0.00029373732 0.00020388053 6.8877246e-20)
(0.00040819977 0.00028998439 -9.6153047e-19)
(0.0005302859 0.00038451514 -6.4230199e-20)
(0.00066177363 0.0004883395 -1.7480668e-19)
(0.00080040077 0.00059933907 -1.1458646e-18)
(0.00094740367 0.00071762242 1.7396844e-19)
(0.0011004499 0.00084037354 9.4172847e-19)
(0.0012594153 0.00096649767 6.8299113e-19)
(0.0014183622 0.0010910028 -2.5582426e-19)
(0.0015700518 0.0012103173 -1.2672463e-19)
(0.001718745 0.001329327 -1.1754907e-19)
(0.001866197 0.0014494886 2.3997516e-19)
(0.0020154174 0.0015731514 8.4359884e-19)
(0.0021667058 0.0017010441 -9.1675296e-19)
(0.0023239329 0.0018359701 2.4576633e-19)
(0.0024854073 0.0019783438 2.5460212e-20)
(0.0026570752 0.0021323919 2.3141871e-19)
(0.0028373492 0.0022983224 1.3660366e-19)
(0.0030332157 0.0024826577 -6.3901924e-20)
(0.0032452545 0.0026864702 3.2134061e-19)
(0.0034851248 0.002921208 -3.8377512e-20)
(0.0037685015 0.0031980333 -6.7044721e-19)
(0.0041208191 0.003523416 -1.6110523e-20)
(0.0045195544 0.0038661285 -4.4133297e-19)
(0.0050202484 0.0042677767 4.162256e-19)
(0.0055717902 0.0046710831 3.489618e-20)
(0.0062739449 0.0051464898 5.2805327e-20)
(0.0070392979 0.0056028026 -1.2477826e-19)
(0.0080319116 0.0061544901 7.6383325e-20)
(0.0091100278 0.0066529742 5.1485842e-20)
(0.010550943 0.0072529523 -2.4527403e-20)
(0.012070945 0.0076736058 1.3219128e-19)
(0.014006319 0.0080623798 -9.7998038e-20)
(0.015768 0.0079585634 -3.52844e-19)
(0.017633354 0.0074542026 -4.1511781e-19)
(0.017850231 0.0059491574 -8.078099e-20)
(0.017047745 0.0042793366 1.2173236e-19)
(0.014684275 0.0026244938 -1.5305097e-19)
(0.0126766 0.0014928172 -9.3888142e-20)
(0.0094491397 0.0006471509 -1.9941648e-20)
(0.008034525 0.00025201528 -2.9545982e-20)
(0.0051335995 3.6260379e-05 -1.7916403e-20)
(0.0054234496 -2.9825806e-05 -1.0235714e-20)
(0.002932693 -1.3251107e-05 -1.7545686e-21)
(0.017334829 6.600299e-05 1.3571752e-21)
(0.013680966 5.8955767e-05 3.4060044e-21)
(0.021106179 -0.00014025718 -3.7864011e-21)
(0.017092903 -0.00051989083 3.3119172e-20)
(0.01860326 -0.0012446459 4.8371916e-22)
(0.011314302 -0.0012906443 5.6584264e-20)
(0.0075135153 -0.0013086527 -2.3590794e-20)
(-0.0011152433 0.00032183899 4.3470771e-20)
(-0.004369319 0.0014778696 3.2304629e-20)
(-0.0066494453 0.0028309782 -2.56112e-20)
(-0.0051317885 0.0025994704 -7.8489097e-21)
(-0.0045660983 0.0026461552 2.4002321e-21)
(-0.0032895224 0.0021054819 5.5594799e-20)
(-0.0028846507 0.0020011292 8.1822883e-21)
(-0.0023534556 0.0017343412 -2.2238107e-20)
(-0.0022275639 0.0017232166 9.6845136e-21)
(-0.0019475523 0.0015619637 -5.3669502e-21)
(-0.0018806067 0.0015522038 -1.8891374e-21)
(-0.0017031623 0.0014335848 -4.9215045e-21)
(-0.0016287838 0.0013894499 1.1868358e-21)
(-0.0014930515 0.0012812183 -1.4612247e-21)
(-0.0014186131 0.0012173566 9.2529677e-22)
(-0.0013194859 0.0011244655 8.2491811e-22)
(-0.0012737835 0.0010732705 9.0229419e-22)
(-0.0012271084 0.0010218496 -9.5176983e-23)
(-0.0012103316 0.00099686519 1.0899877e-22)
(-0.0011977684 0.00097644586 2.5038423e-22)
(-0.0012093105 0.00097658265 -8.8869702e-23)
(-0.0012289251 0.00098380108 1.1628803e-23)
(-0.0012710942 0.0010096596 4.7033566e-22)
(-0.0013241378 0.0010444239 -1.4278786e-21)
(-0.0013982173 0.001096232 -1.3356813e-21)
(-0.0014846461 0.0011579032 -3.2779755e-22)
(-0.0015889088 0.0012339254 -7.8147597e-22)
(-0.0017031 0.0013180703 -2.6480148e-23)
(-0.0018257891 0.0014095217 3.0559156e-21)
(-0.0019434041 0.0014960098 2.5193439e-21)
(-0.0020579735 0.0015752283 1.0810924e-22)
(-0.0021707681 0.0016468479 1.6518162e-21)
(-0.002279338 0.0017081523 1.3688749e-22)
(-0.0023832886 0.0017572213 4.4384342e-25)
(-0.0024808221 0.0017946076 -2.0495803e-21)
(-0.0025712269 0.0018182617 -5.2563346e-22)
(-0.0026503323 0.0018226185 -5.4582593e-22)
(-0.0027162348 0.0018083636 1.4524938e-21)
(-0.002763491 0.0017704941 -9.1017027e-21)
(-0.002797409 0.0017137343 3.3182453e-21)
(-0.0028144693 0.0016369676 -2.69073e-21)
(-0.0028340818 0.001552774 -3.0353028e-22)
(-0.0028493786 0.0014621782 -2.7881293e-21)
(-0.0028577929 0.0013653762 1.986918e-21)
(-0.0028472392 0.0012577643 -1.0682562e-20)
(-0.0028281452 0.0011457021 -7.5177571e-22)
(-0.0027775636 0.001021647 2.4078383e-21)
(-0.0027241819 0.00089889286 -6.4428517e-22)
(-0.0026272823 0.00076584634 6.2465962e-21)
(-0.0025452441 0.00064274647 -5.5560971e-21)
(-0.002406657 0.00051266679 3.7803097e-21)
(-0.002327921 0.00040304943 -7.9498296e-22)
(-0.0021806439 0.00028980142 3.9254992e-23)
(-0.0021990816 0.00020334864 -2.0954884e-23)
(-0.0021521568 0.0001124855 -1.2458976e-21)
(-0.0025955273 3.6224037e-05 2.2769691e-22)
(-0.0034473966 6.6723243e-06 -4.9460689e-25)
(-0.0040343452 5.618199e-06 -8.0764738e-27)
(-0.0046277486 5.0330387e-06 -1.644766e-25)
(-0.0051112938 4.5705082e-06 5.4985688e-25)
(-0.0055884525 4.1328975e-06 -3.3841838e-25)
(-0.0059915702 3.775579e-06 1.1780969e-25)
(-0.0063818616 3.4409956e-06 1.1380427e-25)
(-0.0067213188 3.1673676e-06 1.0209725e-25)
(-0.0070467963 2.9106762e-06 -3.8712359e-25)
(-0.0073364157 2.698787e-06 1.4945253e-25)
(-0.0076125608 2.5016904e-06 7.1661002e-26)
(-0.0078629421 2.33622e-06 4.2421612e-26)
(-0.0081013235 2.1809504e-06 -3.7074258e-25)
(-0.008320143 2.0475681e-06 1.9961908e-25)
(-0.0085281055 1.92184e-06 -5.3949006e-26)
(-0.0087206466 1.8096383e-06 1.7901476e-26)
(-0.0089032738 1.703405e-06 7.9507262e-26)
(-0.0090732894 1.6068033e-06 2.2567865e-26)
(-0.0092341404 1.5150158e-06 -2.4150182e-26)
(-0.0093842807 1.4276134e-06 -7.5417001e-26)
(-0.0095259042 1.3430828e-06 -1.3087062e-25)
(-0.0096581065 1.260759e-06 -1.9016549e-25)
(-0.0097821348 1.1806666e-06 -2.5300968e-25)
(-0.0098976188 1.1019367e-06 5.7522247e-25)
(-0.010004872 1.028167e-06 1.2639976e-25)
(-0.010104986 9.5928807e-07 1.0416304e-24)
(-0.010197828 8.9159856e-07 -1.6594978e-24)
(-0.010283576 8.270208e-07 1.2211705e-24)
(-0.010362487 7.6453601e-07 -3.2463627e-25)
(-0.010434635 7.055964e-07 -1.2812097e-24)
(-0.010500291 6.4851702e-07 -5.552619e-25)
(-0.010559508 5.9254834e-07 5.308221e-25)
(-0.010612557 5.36681e-07 3.3839486e-25)
(-0.010659493 4.8103745e-07 1.0282909e-24)
(-0.01070058 4.2604453e-07 8.4202869e-25)
(-0.010735806 3.7197914e-07 -2.5068866e-24)
(-0.010765587 3.1970668e-07 8.4188768e-25)
(-0.010790111 2.7119566e-07 5.463546e-25)
(-0.010810056 2.2732456e-07 1.4719593e-24)
(-0.010825375 1.8699343e-07 -3.1790567e-24)
(-0.010836914 1.5239209e-07 1.5434543e-24)
(-0.010844966 1.2213323e-07 7.0378447e-25)
(-0.01085032 9.4954122e-08 1.3001276e-24)
(-0.01085296 6.2323174e-08 -3.3320917e-24)
(-0.01085194 1.6185358e-08 7.4769787e-25)
(-0.010845501 -6.4571465e-08 2.1538367e-25)
(-0.010827122 -1.4442441e-07 2.7477047e-24)
(-0.010803816 -1.9390721e-07 -2.3486999e-24)
(-0.010774953 -2.4084877e-07 9.5238923e-25)
(-0.010741794 -2.8166634e-07 -8.6764993e-27)
(-0.010704265 -3.2186214e-07 -3.043696e-24)
(-0.010662688 -3.5914861e-07 5.8063774e-25)
(-0.010617056 -3.9637623e-07 6.8100337e-25)
(-0.010567504 -4.333273e-07 4.2789746e-25)
(-0.010514028 -4.7011694e-07 1.1613327e-24)
(-0.01045674 -5.0813016e-07 1.0819849e-25)
(-0.010395716 -5.4417138e-07 -6.4489612e-25)
(-0.010331092 -5.8093217e-07 3.7461778e-25)
(-0.010262967 -6.1570259e-07 -5.421489e-25)
(-0.010191442 -6.5138549e-07 2.3298115e-25)
(-0.010116619 -6.8446137e-07 -3.6225112e-25)
(-0.010038585 -7.1770469e-07 8.105393e-25)
(-0.0099574186 -7.4949483e-07 -1.5096939e-24)
(-0.0098731814 -7.8240658e-07 -3.3240079e-25)
(-0.0097860054 -8.1274082e-07 5.9630704e-25)
(-0.0096959809 -8.4274238e-07 1.1387182e-24)
(-0.009603236 -8.7126085e-07 -1.5104246e-25)
(-0.0095078219 -8.9972214e-07 -3.329218e-25)
(-0.009409862 -9.2664589e-07 -6.2646605e-25)
(-0.0093094334 -9.5263436e-07 5.7811197e-25)
(-0.009206662 -9.7765099e-07 -1.4076063e-25)
(-0.0091016116 -1.0014703e-06 -1.1345103e-26)
(-0.0089943858 -1.0249743e-06 -7.2022864e-26)
(-0.0088850787 -1.0467337e-06 9.6403037e-27)
(-0.0087738128 -1.0681502e-06 3.4304715e-25)
(-0.0086607061 -1.0870995e-06 -6.2388841e-25)
(-0.008545818 -1.106869e-06 -1.0346574e-25)
(-0.0084292439 -1.1254586e-06 -4.3066817e-25)
(-0.0083110294 -1.1434586e-06 1.2679864e-24)
(-0.0081913144 -1.1601258e-06 1.0745007e-24)
(-0.0080701586 -1.1759909e-06 -1.9575271e-25)
(-0.007947641 -1.1919809e-06 -2.6996408e-24)
(-0.0078237714 -1.2061734e-06 -1.6111631e-24)
(-0.0076986985 -1.219894e-06 2.3599168e-24)
(-0.0075724861 -1.2314617e-06 3.6600111e-24)
(-0.0074452609 -1.2425927e-06 -6.1951543e-24)
(-0.0073171217 -1.2510318e-06 1.5296385e-24)
(-0.0071881909 -1.2587801e-06 -1.4043554e-25)
(-0.0070585668 -1.2654831e-06 3.0737756e-24)
(-0.0069283509 -1.2710328e-06 -2.2572246e-24)
(-0.0067976761 -1.2753241e-06 1.1118356e-24)
(-0.0066666189 -1.2792542e-06 1.5641685e-24)
(-0.0065352692 -1.2835823e-06 3.4397475e-24)
(-0.0064036504 -1.2875565e-06 -8.6213867e-24)
(-0.0062718685 -1.2902864e-06 3.4608028e-24)
(-0.0061399454 -1.2935434e-06 -1.2939539e-25)
(-0.0060079773 -1.295024e-06 -5.2887812e-24)
(-0.0058759421 -1.2970126e-06 -1.9539825e-25)
(-0.0057439381 -1.2953943e-06 9.5219163e-24)
(-0.005612117 -1.2902914e-06 2.8831228e-24)
(-0.0054807185 -1.285059e-06 -6.8019454e-24)
(-0.0053497029 -1.2847606e-06 8.542067e-24)
(-0.0052190935 -1.2810493e-06 1.159137e-24)
(-0.0050889409 -1.2734612e-06 -7.6157026e-24)
(-0.0049594567 -1.2676175e-06 1.3521469e-23)
(-0.0048305342 -1.2633924e-06 -9.9776772e-24)
(-0.0047023153 -1.2563686e-06 1.32621e-24)
(-0.0045746477 -1.2462778e-06 1.8551913e-24)
(-0.0044479601 -1.2330536e-06 -9.5150693e-24)
(-0.0043220116 -1.2196392e-06 1.0615205e-23)
(-0.0041973429 -1.2057089e-06 2.0859965e-24)
(-0.0040735044 -1.1910172e-06 -5.4216624e-24)
(-0.0039512823 -1.1761502e-06 -5.5120392e-24)
(-0.0038300312 -1.1650609e-06 -1.0676391e-23)
(-0.0037106004 -1.1560176e-06 1.9422082e-23)
(-0.0035919213 -1.1491352e-06 1.3550828e-23)
(-0.0034752662 -1.1337974e-06 -2.9364747e-23)
(-0.0033594363 -1.1260799e-06 2.9285572e-23)
(-0.0032460124 -1.1150995e-06 -8.7246735e-24)
(-0.0031330691 -1.1102468e-06 -1.3611904e-23)
(-0.0030228157 -1.0885864e-06 -1.1244668e-23)
(-0.002912988 -1.0749374e-06 -4.5782884e-25)
(-0.0028066033 -1.0546253e-06 2.5469074e-23)
(-0.002700253 -1.0412583e-06 -1.8887316e-23)
(-0.0025979607 -1.0117896e-06 1.1889117e-23)
(-0.0024954045 -9.8529829e-07 -1.9006255e-23)
(-0.0023981695 -9.5297319e-07 2.1160821e-23)
(-0.0023002586 -9.2698372e-07 -1.1705386e-23)
(-0.002209061 -8.9178006e-07 6.9865258e-24)
(-0.0021165469 -8.6382491e-07 2.3500265e-24)
(-0.0020326182 -8.2808801e-07 -1.1924813e-23)
(-0.0019463794 -8.0113952e-07 1.24062e-23)
(-0.0018709782 -7.5627504e-07 -1.732194e-25)
(-0.00179201 -7.1731456e-07 4.830236e-24)
(-0.0017271678 -6.5432499e-07 -2.2585405e-23)
(-0.0016575182 -6.0695259e-07 1.5270187e-23)
(-0.0016063788 -5.3419517e-07 4.8925286e-24)
(-0.0015486506 -4.8389335e-07 -2.2943317e-23)
(-0.0015147126 -3.905831e-07 2.2608057e-23)
(-0.0014721274 -3.2708667e-07 1.5678065e-23)
(-0.0014598044 -2.0706298e-07 -2.3206791e-23)
(-0.0014366647 -1.3273944e-07 1.8302437e-23)
(-0.0014501291 -5.4148434e-09 -2.5975332e-23)
(-0.0014457935 8.4249142e-09 -2.7618914e-23)
(-0.001474175 -1.6822662e-05 3.9177936e-20)
(-0.0014961158 -7.6915396e-05 1.706396e-20)
(-0.0014998341 -0.00013855586 8.2555942e-21)
(-0.0015110423 -0.00020124001 5.4817343e-19)
(-0.0014816306 -0.00025712966 2.7400798e-19)
(-0.0014581223 -0.0003113777 1.2616599e-18)
(-0.0013975829 -0.00035362785 1.1159421e-18)
(-0.0013388431 -0.00039102756 -2.9034064e-19)
(-0.0012486071 -0.00041269637 -3.6150721e-19)
(-0.0011556372 -0.00042583985 7.989033e-20)
(-0.0010353368 -0.00042021106 -2.5880909e-19)
(-0.00090743855 -0.00040180698 2.0775685e-19)
(-0.0007542237 -0.00036143575 -2.3148548e-19)
(-0.0005887771 -0.00030346183 -1.0292241e-19)
(-0.00039785719 -0.00021954517 -7.5360284e-19)
(-0.00018862377 -0.0001115966 1.7664101e-18)
(5.3255871e-05 3.0397794e-05 6.70985e-19)
(0.00031558629 0.00019951002 4.3601171e-20)
(0.00060777249 0.00040139938 -4.6146596e-19)
(0.00092166822 0.00063003917 -5.4236682e-19)
(0.0012644788 0.00088956282 1.1530815e-18)
(0.0016299403 0.001174375 -2.0880885e-18)
(0.0020234234 0.0014869669 4.6561041e-19)
(0.0024385298 0.0018210648 -2.3089709e-19)
(0.0028786538 0.0021769569 3.7827802e-19)
(0.0033365014 0.0025462163 -8.6212472e-19)
(0.0038114784 0.0029255573 -2.4518074e-19)
(0.0042864931 0.0033000577 -5.5566483e-19)
(0.0047407086 0.0036593155 3.5352232e-19)
(0.005186469 0.0040177511 -7.665188e-19)
(0.0056285339 0.0043797662 -4.1949462e-19)
(0.006075159 0.0047523716 -7.5218897e-19)
(0.0065276016 0.005137805 3.7525473e-20)
(0.0069962531 0.0055445428 9.0451661e-19)
(0.0074785244 0.0059733419 -3.4868676e-19)
(0.0079901564 0.0064377248 4.066026e-19)
(0.0085284672 0.006937076 -2.5855296e-19)
(0.0091141128 0.0074921719 -1.2583205e-18)
(0.0097489495 0.0081051578 2.335666e-19)
(0.010468784 0.0088109164 1.4121145e-19)
(0.011318571 0.0096425099 1.189267e-18)
(0.012368411 0.010615111 -2.0830337e-19)
(0.013557822 0.011641849 2.1590115e-19)
(0.01504821 0.012843406 -3.6769355e-20)
(0.016686043 0.014052208 -1.3335273e-19)
(0.018760234 0.015473872 -3.681772e-19)
(0.021019314 0.016841299 5.2411445e-20)
(0.023948242 0.018486723 -6.8909496e-20)
(0.027141 0.019974525 8.0098661e-20)
(0.031404337 0.021751602 8.5265855e-21)
(0.035915753 0.023002558 -1.6062333e-19)
(0.041647247 0.024134601 2.5042633e-19)
(0.046893106 0.023813347 9.458391e-20)
(0.05241291 0.022285687 5.00125e-19)
(0.053186633 0.017830509 -2.5462205e-19)
(0.05098493 0.012871359 2.5510028e-19)
(0.044218813 0.0079499436 -1.1938999e-19)
(0.038357739 0.0045515047 -3.4617031e-19)
(0.02891272 0.0020066416 -8.8025793e-20)
(0.024631618 0.00079769984 8.27711e-21)
(0.016070954 0.00013047334 2.8374888e-20)
(0.016749601 -7.7665558e-05 5.3354739e-21)
(0.0096215055 -4.2525007e-05 6.353039e-21)
(0.029352756 9.6347185e-05 1.2701692e-21)
(0.023731761 8.587176e-05 -1.166142e-21)
(0.035581993 -0.00024718905 -4.0519229e-22)
(0.029154284 -0.00087857729 -1.6662696e-20)
(0.031480327 -0.0020797042 4.9127336e-20)
(0.019560676 -0.0021885157 -3.7719993e-20)
(0.013113496 -0.0022277381 2.3401107e-20)
(-0.0012754357 0.00044348952 -9.2390814e-20)
(-0.0069881091 0.0023974734 4.4624158e-20)
(-0.010993483 0.004687734 1.0371276e-21)
(-0.0085833599 0.0043431972 1.1029809e-20)
(-0.0076560963 0.004429006 -1.2937966e-20)
(-0.0055393909 0.0035392749 -5.5259076e-20)
(-0.0048559042 0.0033640871 1.5992225e-20)
(-0.0039681201 0.0029217977 2.3866253e-20)
(-0.0037528392 0.0029010357 -2.587303e-21)
(-0.0032847387 0.0026331767 2.2282593e-21)
(-0.0031700063 0.0026151462 4.0111809e-21)
(-0.0028734375 0.0024175692 1.0518097e-20)
(-0.0027475793 0.002342664 -4.8673547e-21)
(-0.0025206514 0.0021619671 -4.1510454e-21)
(-0.0023953941 0.0020544805 -5.3327933e-22)
(-0.0022297263 0.0018993093 9.6393617e-22)
(-0.0021529204 0.0018133222 -1.0024365e-21)
(-0.0020751533 0.0017275137 1.0214065e-23)
(-0.0020472532 0.0016858289 1.2537539e-22)
(-0.0020269081 0.0016521352 -1.8782064e-22)
(-0.0020468139 0.0016528499 -8.4843261e-23)
(-0.002080558 0.0016656593 1.3598069e-24)
(-0.0021520332 0.0017096986 2.1982064e-22)
(-0.0022419308 0.0017688186 -1.595917e-22)
(-0.0023670454 0.0018564691 -2.2215518e-22)
(-0.002512885 0.0019607288 -1.1512709e-21)
(-0.002688479 0.0020889171 5.5429179e-23)
(-0.0028806147 0.0022306628 -3.501711e-21)
(-0.0030868665 0.0023844442 -2.7482327e-21)
(-0.0032847831 0.002529912 -5.7491552e-22)
(-0.00347754 0.0026631051 1.6063867e-22)
(-0.0036671575 0.0027834149 2.3093986e-22)
(-0.0038496167 0.0028862923 -6.0905222e-22)
(-0.0040234129 0.0029686599 3.4100135e-24)
(-0.0041879677 0.0030309731 3.2533464e-21)
(-0.0043408758 0.0030705268 2.3317466e-21)
(-0.0044738509 0.0030775597 1.3540976e-23)
(-0.004585464 0.0030531866 -1.1666651e-20)
(-0.0046653825 0.0029894672 4.6064499e-21)
(-0.0047231192 0.0028938137 6.4447048e-21)
(-0.0047533221 0.0027649199 5.9333712e-21)
(-0.0047876704 0.0026233552 9.9946822e-22)
(-0.0048150937 0.0024709823 -2.7495352e-21)
(-0.0048310912 0.0023080265 1.0431775e-20)
(-0.0048158296 0.0021270315 2.8126365e-21)
(-0.0047863133 0.001938303 1.3111519e-21)
(-0.0047047715 0.0017296191 1.1816659e-20)
(-0.0046182894 0.0015226551 -6.8619213e-21)
(-0.0044604025 0.0012988029 -7.4577568e-21)
(-0.0043266896 0.0010909398 2.0214059e-21)
(-0.0041008515 0.00087196616 -2.2130658e-21)
(-0.0039735941 0.000686349 1.6243885e-21)
(-0.0037364304 0.00049560812 1.9524637e-21)
(-0.0037735747 0.00034870109 -2.3476906e-23)
(-0.0037120285 0.00019634932 7.6885159e-23)
(-0.0044617113 6.9970336e-05 -3.2787386e-22)
(-0.0058808557 2.0032821e-05 4.7979617e-25)
(-0.0068660732 1.668678e-05 -3.4588835e-27)
(-0.0078577312 1.5049124e-05 -1.314938e-25)
(-0.0086680928 1.3549116e-05 3.5991887e-25)
(-0.0094650958 1.2302365e-05 -1.5501619e-25)
(-0.010139809 1.116065e-05 -1.68698e-25)
(-0.010791522 1.0194665e-05 3.6188141e-25)
(-0.011359216 9.330044e-06 -1.7973797e-25)
(-0.011902624 8.5835797e-06 -1.6923097e-25)
(-0.012386676 7.9184163e-06 -1.4786396e-25)
(-0.012847563 7.3389909e-06 9.7556718e-26)
(-0.013265824 6.8240454e-06 2.7977546e-26)
(-0.013663643 6.3630288e-06 4.2569377e-26)
(-0.014028962 5.9469196e-06 -9.7400581e-26)
(-0.014375891 5.5681749e-06 -1.168643e-26)
(-0.014697167 5.2198443e-06 -2.1680227e-26)
(-0.015001713 4.8973159e-06 -4.2540446e-26)
(-0.015285237 4.5977804e-06 4.0625112e-26)
(-0.015553329 4.3156164e-06 3.1376926e-25)
(-0.01580356 4.0497047e-06 -2.1679498e-25)
(-0.016039496 3.7928048e-06 -1.206018e-25)
(-0.016259708 3.546909e-06 6.550471e-25)
(-0.016466225 3.3065039e-06 -4.9291244e-25)
(-0.01665844 3.0717126e-06 3.4884599e-25)
(-0.016836715 2.8520351e-06 -2.3269838e-25)
(-0.017003163 2.649074e-06 -1.2916693e-25)
(-0.017157415 2.4472213e-06 4.8917546e-25)
(-0.017299769 2.2527637e-06 5.9454222e-25)
(-0.017430649 2.064143e-06 -2.1861972e-24)
(-0.01755018 1.8833164e-06 1.6976386e-24)
(-0.017658818 1.7060413e-06 -4.7420021e-25)
(-0.017756677 1.5355173e-06 -1.6339803e-24)
(-0.017844226 1.3639916e-06 7.0004747e-25)
(-0.017921557 1.2010327e-06 2.4021958e-24)
(-0.017989107 1.0351598e-06 -4.4018888e-25)
(-0.018046869 8.7902332e-07 -6.8890388e-25)
(-0.01809552 7.2705875e-07 -6.0056489e-25)
(-0.018135451 5.8864466e-07 -6.7777684e-25)
(-0.018167623 4.6021585e-07 1.4043235e-24)
(-0.018192021 3.4212614e-07 -7.1651389e-25)
(-0.018210081 2.4359639e-07 -1.0290843e-24)
(-0.018222313 1.5501528e-07 1.6354159e-24)
(-0.018230043 8.2573715e-08 -8.4883629e-25)
(-0.018233314 -9.9479568e-09 -9.3168072e-25)
(-0.018230673 -1.3521752e-07 9.1684173e-25)
(-0.018218905 -3.7853415e-07 1.5873013e-24)
(-0.018186777 -6.0885495e-07 2.0207948e-25)
(-0.018146349 -7.5825268e-07 -1.3446292e-24)
(-0.018096641 -8.9030619e-07 -1.1253061e-24)
(-0.01803972 -1.0120609e-06 3.7004632e-24)
(-0.017975471 -1.1247716e-06 -5.8570785e-24)
(-0.017904412 -1.2369339e-06 4.9756171e-24)
(-0.017826544 -1.3438287e-06 -4.2529698e-24)
(-0.017742093 -1.4508246e-06 1.6786985e-24)
(-0.017651088 -1.5575484e-06 7.9471685e-25)
(-0.017553721 -1.6611298e-06 2.0443661e-25)
(-0.017450121 -1.7652791e-06 -1.4798484e-24)
(-0.017340502 -1.8632511e-06 9.1685736e-25)