/*--------------------------------*- C++ -*----------------------------------*\
| =========                 |                                                 |
| \\      /  F ield         | OpenFOAM: The Open Source CFD Toolbox           |
|  \\    /   O peration     | Version:  2.4.0                                 |
|   \\  /    A nd           | Web:      www.OpenFOAM.org                      |
|    \\/     M anipulation  |                                                 |
\*---------------------------------------------------------------------------*/
FoamFile
{
    version     2.0;
    format      ascii;
    class       volScalarField;
    location    "400";
    object      nutMean;
}
// * * * * * * * * * * * * * * * * * * * * * * * * * * * * * * * * * * * * * //

dimensions      [0 2 -1 0 0 0 0];

internalField   nonuniform List<scalar> 
78300
(
2.9139187e-12
3.0619871e-12
3.9996771e-12
3.6600215e-12
3.0125454e-12
1.3850405e-12
3.0621257e-13
3.0124271e-14
3.5934399e-13
4.9918092e-13
4.0292486e-13
2.7291096e-13
1.7093133e-13
1.1923343e-13
9.2131507e-14
8.013514e-14
6.7567971e-14
6.1363948e-14
5.5924141e-14
5.0794706e-14
4.6442631e-14
4.2285539e-14
3.9062329e-14
3.6844185e-14
3.573811e-14
3.521076e-14
3.5321708e-14
3.6186743e-14
3.7934335e-14
4.053835e-14
4.4160575e-14
4.8961057e-14
5.5132805e-14
6.2801635e-14
7.2070421e-14
8.2690385e-14
9.3825002e-14
1.053711e-13
1.1705465e-13
1.2757547e-13
1.3926757e-13
1.5321957e-13
1.6722443e-13
1.8009941e-13
1.9146005e-13
2.0050975e-13
2.0741378e-13
2.1171812e-13
2.1593909e-13
2.1953962e-13
2.2149238e-13
2.2181511e-13
2.1958927e-13
2.134253e-13
2.0551131e-13
1.9316973e-13
1.8040889e-13
1.6331135e-13
1.5051294e-13
1.3338444e-13
1.3158849e-13
1.2531128e-13
1.7647764e-13
3.1001653e-13
4.2576333e-13
5.5313649e-13
6.7664298e-13
8.0266864e-13
9.2293277e-13
1.0413166e-12
1.153136e-12
1.2620477e-12
1.3647496e-12
1.463765e-12
1.5580268e-12
1.6486969e-12
1.7350868e-12
1.8179753e-12
1.8972955e-12
1.9733307e-12
2.0458851e-12
2.1152312e-12
2.181402e-12
2.2444606e-12
2.3043435e-12
2.361146e-12
2.4148682e-12
2.465444e-12
2.5128915e-12
2.5572297e-12
2.5984092e-12
2.636429e-12
2.6713203e-12
2.7030336e-12
2.7316256e-12
2.7570773e-12
2.7794548e-12
2.7987911e-12
2.8150688e-12
2.8283409e-12
2.8386115e-12
2.8459024e-12
2.8502535e-12
2.8517608e-12
2.8504582e-12
2.8463449e-12
2.8395444e-12
2.8301092e-12
2.8181638e-12
2.8037275e-12
2.7868504e-12
2.7676793e-12
2.7463091e-12
2.722809e-12
2.6972499e-12
2.6697598e-12
2.6403782e-12
2.6091223e-12
2.5760289e-12
2.5415665e-12
2.5057672e-12
2.4684691e-12
2.4297807e-12
2.3899812e-12
2.3491909e-12
2.307346e-12
2.2645392e-12
2.2209647e-12
2.1767471e-12
2.1318886e-12
2.0864733e-12
2.0406483e-12
1.9944946e-12
1.9480338e-12
1.9013435e-12
1.8545491e-12
1.8077506e-12
1.7609478e-12
1.7142336e-12
1.6677152e-12
1.6214229e-12
1.5753968e-12
1.5296889e-12
1.4843979e-12
1.439493e-12
1.3949871e-12
1.3509552e-12
1.3075174e-12
1.2647604e-12
1.2225824e-12
1.1810372e-12
1.1402634e-12
1.1002101e-12
1.0609153e-12
1.0223524e-12
9.8473995e-13
9.4785075e-13
9.1189976e-13
8.7651417e-13
8.4193196e-13
8.0697605e-13
7.7102381e-13
7.3411773e-13
7.0403193e-13
6.751201e-13
6.4804321e-13
6.2040355e-13
5.9379559e-13
5.6735227e-13
5.419271e-13
5.1700697e-13
4.9298558e-13
4.6964079e-13
4.4712397e-13
4.2529856e-13
4.0431437e-13
3.8412113e-13
3.6469436e-13
3.4596965e-13
3.2800646e-13
3.1076989e-13
2.9427202e-13
2.7842952e-13
2.6331304e-13
2.4886481e-13
2.3508661e-13
2.2193122e-13
2.0944612e-13
1.9753378e-13
1.8619171e-13
1.7548338e-13
1.6542667e-13
1.5588326e-13
1.4699474e-13
1.3857001e-13
1.3089304e-13
1.235965e-13
1.1704751e-13
1.1091298e-13
1.0572019e-13
1.0077191e-13
9.6969641e-14
9.3278721e-14
9.109669e-14
8.8819582e-14
8.845011e-14
8.6978695e-14
8.5443559e-14
8.5171763e-14
8.5721003e-14
8.733407e-14
8.6407724e-14
8.5504632e-14
8.2229292e-14
7.9313975e-14
7.5138056e-14
7.1955905e-14
6.8696645e-14
1.2406026e-13
1.4074703e-13
2.1989517e-13
4.0109399e-13
6.5199869e-13
1.182975e-12
2.4294827e-12
2.3955928e-12
3.5853187e-12
3.4198437e-12
5.3534808e-12
8.1378148e-12
9.3719693e-12
8.0618662e-12
8.6449055e-12
9.3628839e-12
1.1507324e-11
1.2585906e-11
1.676858e-11
2.2796465e-11
2.167295e-11
2.4609397e-11
3.2157197e-11
3.3250272e-11
4.3273689e-11
5.4312787e-11
7.0190283e-11
8.6606031e-11
1.3676019e-10
1.4734675e-10
3.4300169e-10
6.1823885e-10
7.9010439e-10
1.0616995e-09
9.8977657e-10
1.0216404e-09
1.2966084e-09
1.1545711e-09
5.0649022e-10
3.025874e-10
1.2399739e-10
1.3566372e-10
5.3233719e-11
3.4797689e-11
3.8202373e-11
2.1229072e-11
1.4914062e-11
9.3965096e-12
6.3199724e-12
3.6919563e-12
3.2828329e-12
1.8910838e-12
5.9581046e-12
6.2804559e-12
7.0372624e-12
6.3982253e-12
5.2149274e-12
3.0514236e-12
1.400167e-12
6.0774036e-13
5.6002539e-13
5.2983072e-13
4.019348e-13
2.7055e-13
1.665973e-13
1.1554472e-13
8.8944081e-14
7.7659869e-14
6.5502012e-14
5.9734214e-14
5.4780549e-14
5.0258956e-14
4.6513755e-14
4.2976439e-14
4.0334994e-14
3.8670886e-14
3.8103133e-14
3.8142539e-14
3.8847951e-14
4.0344688e-14
4.2765834e-14
4.6112717e-14
5.0559941e-14
5.6285286e-14
6.3501723e-14
7.2366552e-14
8.3015276e-14
9.525912e-14
1.0837221e-13
1.2231455e-13
1.3693325e-13
1.5109455e-13
1.6691401e-13
1.856363e-13
2.0548291e-13
2.2539742e-13
2.4505101e-13
2.6377907e-13
2.8175601e-13
2.9862968e-13
3.1679127e-13
3.3593476e-13
3.549323e-13
3.735565e-13
3.9073014e-13
4.0463791e-13
4.1662886e-13
4.2355492e-13
4.2804834e-13
4.2559074e-13
4.2329362e-13
4.1310523e-13
4.1449688e-13
4.1269656e-13
4.7425607e-13
6.4410553e-13
8.1484918e-13
9.9283118e-13
1.1667265e-12
1.3416036e-12
1.5104177e-12
1.6763609e-12
1.8354188e-12
1.990806e-12
2.1397747e-12
2.2845129e-12
2.4242884e-12
2.5601858e-12
2.6916866e-12
2.8194895e-12
2.9436129e-12
3.0643393e-12
3.1815049e-12
3.2953369e-12
3.4058789e-12
3.5131818e-12
3.6171699e-12
3.717903e-12
3.8153637e-12
3.9094596e-12
4.0001697e-12
4.0874814e-12
4.1713121e-12
4.251618e-12
4.3283919e-12
4.4015557e-12
4.4711212e-12
4.5370477e-12
4.5993665e-12
4.6580922e-12
4.7131779e-12
4.764645e-12
4.8124711e-12
4.8566442e-12
4.8971631e-12
4.9340965e-12
4.9674551e-12
4.9972051e-12
5.0234288e-12
5.0461706e-12
5.0655359e-12
5.0815368e-12
5.0941809e-12
5.1035956e-12
5.109878e-12
5.1130962e-12
5.1133025e-12
5.1106194e-12
5.1050882e-12
5.0966912e-12
5.0853978e-12
5.0716964e-12
5.0557442e-12
5.0373434e-12
5.0165013e-12
4.9935143e-12
4.968576e-12
4.9416253e-12
4.9126934e-12
4.8819832e-12
4.8496665e-12
4.8157671e-12
4.7803398e-12
4.7435486e-12
4.7055077e-12
4.6662497e-12
4.6258264e-12
4.5843784e-12
4.5420453e-12
4.4988525e-12
4.4548758e-12
4.4102595e-12
4.365069e-12
4.3193561e-12
4.2731785e-12
4.2266675e-12
4.1798283e-12
4.1326325e-12
4.0851244e-12
4.0374574e-12
3.9898215e-12
3.9421368e-12
3.8943963e-12
3.8468059e-12
3.7993841e-12
3.7521787e-12
3.7051827e-12
3.658736e-12
3.6127594e-12
3.5675121e-12
3.522693e-12
3.4783096e-12
3.4322231e-12
3.3808602e-12
3.3224232e-12
3.2710494e-12
3.2262327e-12
3.1851867e-12
3.1439017e-12
3.1027718e-12
3.0612007e-12
3.0199056e-12
2.9786146e-12
2.9376272e-12
2.8968383e-12
2.8563513e-12
2.8160168e-12
2.7759776e-12
2.7363213e-12
2.6970535e-12
2.6579866e-12
2.619156e-12
2.58056e-12
2.542249e-12
2.5040316e-12
2.4659534e-12
2.4279962e-12
2.3901158e-12
2.3521888e-12
2.314262e-12
2.2761579e-12
2.2375724e-12
2.1985619e-12
2.1592398e-12
2.1192118e-12
2.0785205e-12
2.0366916e-12
1.9940485e-12
1.9499342e-12
1.9043556e-12
1.8567589e-12
1.8078693e-12
1.7563542e-12
1.7033233e-12
1.6470395e-12
1.5895111e-12
1.5289808e-12
1.4682376e-12
1.4013091e-12
1.3314404e-12
1.2991924e-12
1.2972218e-12
1.3104367e-12
1.3255463e-12
1.3411363e-12
1.3527619e-12
1.3621925e-12
1.370351e-12
1.3766553e-12
1.3735953e-12
1.4392262e-12
1.4624711e-12
1.4923462e-12
1.6427245e-12
1.9825837e-12
2.4764816e-12
3.561285e-12
3.5962123e-12
4.8559098e-12
4.7144551e-12
6.6551637e-12
9.3560104e-12
1.0508048e-11
9.2496714e-12
9.9257282e-12
1.0432531e-11
1.22873e-11
1.3481838e-11
1.7552544e-11
2.2881498e-11
2.2007356e-11
2.5030337e-11
3.2068297e-11
3.3282915e-11
4.3042579e-11
5.300274e-11
6.7683115e-11
8.3181013e-11
1.3056113e-10
1.4063376e-10
3.2658657e-10
5.8643139e-10
7.4864148e-10
1.005685e-09
9.4112661e-10
9.7031027e-10
1.2303544e-09
1.0991735e-09
4.9086644e-10
2.9763239e-10
1.2922224e-10
1.3896926e-10
5.8604785e-11
3.9248287e-11
4.1181585e-11
2.4358413e-11
1.7951215e-11
1.221557e-11
9.0186103e-12
6.4130502e-12
5.8804929e-12
4.7420786e-12
7.7985193e-11
8.2377341e-11
8.1814115e-11
7.3946466e-11
5.9720231e-11
4.1902453e-11
2.5313405e-11
1.2899091e-11
5.7709609e-12
2.4687837e-12
1.2305197e-12
7.0051783e-13
4.085485e-13
2.9130944e-13
2.3457047e-13
2.0973217e-13
1.9052231e-13
1.8135021e-13
1.7590427e-13
1.7219946e-13
1.7012537e-13
1.6914086e-13
1.7034549e-13
1.7473712e-13
1.8262183e-13
1.9330798e-13
2.069812e-13
2.2417143e-13
2.4549116e-13
2.714965e-13
3.0304139e-13
3.4111696e-13
3.8687344e-13
4.4146236e-13
5.0596027e-13
5.8075598e-13
6.6528474e-13
7.605885e-13
8.6825085e-13
9.8729389e-13
1.1214595e-12
1.2780248e-12
1.4583969e-12
1.6611425e-12
1.8861101e-12
2.1332736e-12
2.4034322e-12
2.6971799e-12
3.0209169e-12
3.3776855e-12
3.7616549e-12
4.1675409e-12
4.5884263e-12
5.0096893e-12
5.4208387e-12
5.8016665e-12
6.1365578e-12
6.397705e-12
6.5831954e-12
6.6739244e-12
6.7378413e-12
6.8137693e-12
7.2308669e-12
8.5225304e-12
1.0162231e-11
1.1747775e-11
1.3314242e-11
1.4856e-11
1.6369989e-11
1.7855217e-11
1.9309284e-11
2.0735824e-11
2.2134984e-11
2.3508605e-11
2.486019e-11
2.6192293e-11
2.7506138e-11
2.8802818e-11
3.0083975e-11
3.135063e-11
3.2602765e-11
3.3840386e-11
3.5063844e-11
3.6273105e-11
3.7467661e-11
3.8647078e-11
3.9810972e-11
4.0958519e-11
4.2088917e-11
4.3201541e-11
4.4295475e-11
4.5369767e-11
4.6423682e-11
4.7456406e-11
4.8467155e-11
4.9455379e-11
5.0420552e-11
5.1362388e-11
5.2280171e-11
5.3173383e-11
5.4041466e-11
5.4883752e-11
5.5699479e-11
5.6488386e-11
5.72501e-11
5.7983875e-11
5.8689256e-11
5.9366258e-11
6.0014912e-11
6.0635124e-11
6.1226152e-11
6.1788097e-11
6.2321356e-11
6.2826147e-11
6.3302341e-11
6.3750268e-11
6.4170116e-11
6.4561185e-11
6.4922095e-11
6.5255037e-11
6.5562868e-11
6.5844202e-11
6.6097222e-11
6.6323295e-11
6.6524515e-11
6.6700687e-11
6.6850802e-11
6.6975754e-11
6.7077059e-11
6.7155184e-11
6.7209796e-11
6.7241807e-11
6.7252255e-11
6.7241447e-11
6.7209114e-11
6.7156032e-11
6.708347e-11
6.6991963e-11
6.6881486e-11
6.6753263e-11
6.6608163e-11
6.6446604e-11
6.6268889e-11
6.6076115e-11
6.5868955e-11
6.5646552e-11
6.5408488e-11
6.515596e-11
6.4891539e-11
6.4615367e-11
6.4326285e-11
6.4026278e-11
6.3716717e-11
6.3397932e-11
6.3070285e-11
6.2737241e-11
6.240124e-11
6.2064064e-11
6.1725916e-11
6.1382574e-11
6.1008467e-11
6.053608e-11
5.9924871e-11
5.9344002e-11
5.8886442e-11
5.8478401e-11
5.8075465e-11
5.7656936e-11
5.7225587e-11
5.6781548e-11
5.6328285e-11
5.5865134e-11
5.5393864e-11
5.4914002e-11
5.4424777e-11
5.3926569e-11
5.342224e-11
5.2912368e-11
5.2393976e-11
5.1866774e-11
5.1331333e-11
5.0788574e-11
5.0235793e-11
4.9672694e-11
4.9099944e-11
4.8516528e-11
4.792059e-11
4.7312287e-11
4.6689503e-11
4.604555e-11
4.5380503e-11
4.4696549e-11
4.3987512e-11
4.3251723e-11
4.2482225e-11
4.1680932e-11
4.084008e-11
3.9953064e-11
3.9013773e-11
3.8028524e-11
3.6980701e-11
3.5878223e-11
3.4701754e-11
3.3469928e-11
3.2173462e-11
3.0837094e-11
2.9384401e-11
2.7867865e-11
2.715967e-11
2.7106011e-11
2.7368864e-11
2.77206e-11
2.8082641e-11
2.8400822e-11
2.8663868e-11
2.8922069e-11
2.9120243e-11
2.9111051e-11
2.9472376e-11
2.9664962e-11
2.8799071e-11
2.8571148e-11
3.1199868e-11
3.1653775e-11
3.0991485e-11
3.2660118e-11
3.6972552e-11
3.7240652e-11
4.1785869e-11
4.6109539e-11
4.7361968e-11
4.6119075e-11
4.9274051e-11
4.6320015e-11
4.4279049e-11
4.9789401e-11
5.6515296e-11
5.5209331e-11
5.8532975e-11
6.6077726e-11
7.2566314e-11
7.7871569e-11
9.4110154e-11
9.6304554e-11
1.0347488e-10
1.1901496e-10
1.715884e-10
1.8375249e-10
3.8121489e-10
6.5775294e-10
8.3415718e-10
1.1228998e-09
1.1223244e-09
1.1402247e-09
1.4012952e-09
1.3500203e-09
7.8791043e-10
5.6471959e-10
3.8808502e-10
3.8657408e-10
2.6172608e-10
2.1185491e-10
1.8505973e-10
1.4350087e-10
1.1740825e-10
9.6093121e-11
8.2181774e-11
7.3677601e-11
6.9457558e-11
6.996474e-11
6.18273e-10
6.531532e-10
6.4326421e-10
5.8113276e-10
4.6900358e-10
3.3323575e-10
2.0440567e-10
1.0497454e-10
4.507001e-11
1.7304641e-11
7.6350885e-12
4.0456225e-12
2.3064415e-12
1.6690691e-12
1.3743616e-12
1.2408818e-12
1.1640466e-12
1.1260899e-12
1.1142297e-12
1.1138302e-12
1.1217552e-12
1.1374901e-12
1.165578e-12
1.2139574e-12
1.284329e-12
1.374268e-12
1.4849367e-12
1.6199212e-12
1.7834887e-12
1.980352e-12
2.2165209e-12
2.4991633e-12
2.8365489e-12
3.2373388e-12
3.7097077e-12
4.2582389e-12
4.8831106e-12
5.5933674e-12
6.4033758e-12
7.312644e-12
8.3383582e-12
9.533446e-12
1.0921979e-11
1.2499146e-11
1.4265935e-11
1.6226626e-11
1.8386826e-11
2.0753883e-11
2.3365457e-11
2.624946e-11
2.936457e-11
3.2667658e-11
3.6107665e-11
3.9573485e-11
4.2967251e-11
4.6139494e-11
4.8940382e-11
5.1165317e-11
5.2749675e-11
5.3586294e-11
5.4117451e-11
5.4770337e-11
5.7872537e-11
6.7628577e-11
8.0320681e-11
9.2506616e-11
1.0455934e-10
1.1639666e-10
1.2804055e-10
1.3946096e-10
1.506648e-10
1.6166098e-10
1.7246937e-10
1.8309066e-10
1.9355943e-10
2.0388989e-10
2.1409592e-10
2.2418198e-10
2.3416185e-10
2.4404223e-10
2.5382409e-10
2.6350592e-10
2.7309041e-10
2.8257694e-10
2.9196171e-10
3.0124068e-10
3.104107e-10
3.1946546e-10
3.2839832e-10
3.3720409e-10
3.4587559e-10
3.544051e-10
3.6278645e-10
3.7101329e-10
3.7907892e-10
3.8697898e-10
3.9470882e-10
4.022659e-10
4.096445e-10
4.1684007e-10
4.2384809e-10
4.3066297e-10
4.3727827e-10
4.4369131e-10
4.4989889e-10
4.5589494e-10
4.6167508e-10
4.672391e-10
4.7258659e-10
4.7771664e-10
4.8262294e-10
4.8730552e-10
4.9176706e-10
4.9600896e-10
5.0002975e-10
5.038314e-10
5.0741519e-10
5.1077536e-10
5.1390049e-10
5.1680572e-10
5.1951412e-10
5.2201533e-10
5.2429397e-10
5.2635958e-10
5.2822849e-10
5.2989949e-10
5.3136386e-10
5.3262776e-10
5.3370285e-10
5.3459285e-10
5.3529467e-10
5.358148e-10
5.361613e-10
5.3633651e-10
5.3633782e-10
5.3617085e-10
5.3584529e-10
5.3536559e-10
5.3473096e-10
5.3395077e-10
5.3303193e-10
5.319776e-10
5.3078995e-10
5.2947737e-10
5.2804548e-10
5.2648726e-10
5.247989e-10
5.229894e-10
5.2107924e-10
5.1907015e-10
5.169524e-10
5.1474133e-10
5.1244839e-10
5.1007608e-10
5.0762748e-10
5.0512957e-10
5.0260345e-10
5.0006244e-10
4.975103e-10
4.9491134e-10
4.9206407e-10
4.8842262e-10
4.8365663e-10
4.7909892e-10
4.7553799e-10
4.723697e-10
4.6924628e-10
4.6599005e-10
4.6262861e-10
4.5915808e-10
4.5560959e-10
4.5197552e-10
4.4827154e-10
4.444929e-10
4.4063415e-10
4.3669751e-10
4.3270659e-10
4.2866615e-10
4.2455241e-10
4.2036264e-10
4.161017e-10
4.1177698e-10
4.0736699e-10
4.0286889e-10
3.9828845e-10
3.9361738e-10
3.8884088e-10
3.8395993e-10
3.7895785e-10
3.7378025e-10
3.6842738e-10
3.6291691e-10
3.5719936e-10
3.5126038e-10
3.4504438e-10
3.3856537e-10
3.3176221e-10
3.245791e-10
3.1696812e-10
3.0897775e-10
3.0047665e-10
2.9152423e-10
2.8196884e-10
2.7195435e-10
2.6141405e-10
2.5053828e-10
2.3872945e-10
2.2641459e-10
2.2066396e-10
2.2022493e-10
2.2235942e-10
2.2523235e-10
2.2818935e-10
2.3080263e-10
2.3296533e-10
2.3509608e-10
2.3672838e-10
2.3667684e-10
2.3926942e-10
2.4071013e-10
2.3315233e-10
2.3021861e-10
2.5001615e-10
2.5019207e-10
2.3680662e-10
2.508443e-10
2.7828036e-10
2.8157056e-10
3.0602498e-10
3.2328302e-10
3.2563443e-10
3.2429424e-10
3.4588216e-10
3.1706647e-10
2.8689585e-10
3.250922e-10
3.5258589e-10
3.0372628e-10
3.3853603e-10
3.806039e-10
3.8474726e-10
4.2126887e-10
4.8833724e-10
4.3585455e-10
3.9275852e-10
4.1282839e-10
5.1850475e-10
5.5076442e-10
8.8736193e-10
1.3505274e-09
1.6837924e-09
2.2175698e-09
2.7059199e-09
2.6635226e-09
2.9974542e-09
3.4929432e-09
2.9459601e-09
2.368119e-09
2.0996675e-09
2.0450551e-09
1.7048377e-09
1.4749451e-09
1.2607128e-09
1.0394536e-09
8.652553e-10
7.2752209e-10
6.3205405e-10
5.7866131e-10
5.4671975e-10
5.587977e-10
2.9684779e-09
3.135807e-09
3.0854209e-09
2.7871388e-09
2.2491399e-09
1.6005023e-09
9.8380693e-10
5.0613065e-10
2.1664305e-10
8.2201469e-11
3.5570427e-11
1.8598785e-11
1.0578213e-11
7.675261e-12
6.346303e-12
5.736074e-12
5.4119931e-12
5.2483568e-12
5.2087257e-12
5.2223414e-12
5.2731171e-12
5.3609219e-12
5.5051668e-12
5.7441217e-12
6.0855548e-12
6.5197102e-12
7.0519278e-12
7.6989909e-12
8.4810781e-12
9.4210115e-12
1.0547206e-11
1.1893718e-11
1.3499805e-11
1.5406832e-11
1.7653938e-11
2.0264178e-11
2.3240938e-11
2.6627831e-11
3.0494831e-11
3.4843301e-11
3.9748583e-11
4.5462533e-11
5.2108428e-11
5.9666952e-11
6.8143977e-11
7.7562354e-11
8.7948692e-11
9.9339061e-11
1.1190659e-10
1.2578818e-10
1.4078935e-10
1.5670233e-10
1.7328394e-10
1.9000312e-10
2.0638207e-10
2.2170789e-10
2.3524709e-10
2.4602356e-10
2.5370039e-10
2.5778415e-10
2.6035091e-10
2.635068e-10
2.7827435e-10
3.2485735e-10
3.8564808e-10
4.4397094e-10
5.0166397e-10
5.5831172e-10
6.1404401e-10
6.6870472e-10
7.2234066e-10
7.7498421e-10
8.2674069e-10
8.7760595e-10
9.277499e-10
9.7723756e-10
1.0261378e-09
1.0744699e-09
1.1223005e-09
1.1696611e-09
1.2165569e-09
1.2629799e-09
1.308943e-09
1.3544431e-09
1.3994622e-09
1.4439804e-09
1.4879828e-09
1.5314391e-09
1.5743173e-09
1.6165925e-09
1.6582302e-09
1.6991933e-09
1.739452e-09
1.7789759e-09
1.8177326e-09
1.8557012e-09
1.8928591e-09
1.929194e-09
1.9646782e-09
1.9992897e-09
2.0330068e-09
2.0658026e-09
2.0976456e-09
2.1285227e-09
2.1584187e-09
2.1873043e-09
2.2151579e-09
2.2419786e-09
2.2677638e-09
2.2925094e-09
2.3161847e-09
2.3387895e-09
2.3603366e-09
2.3808325e-09
2.4002698e-09
2.4186577e-09
2.4360022e-09
2.4522756e-09
2.4674228e-09
2.4815152e-09
2.4946639e-09
2.5068194e-09
2.5179073e-09
2.5279729e-09
2.5370942e-09
2.5452657e-09
2.5524451e-09
2.5586615e-09
2.5639707e-09
2.5683905e-09
2.5719058e-09
2.5745474e-09
2.5763539e-09
2.5773365e-09
2.5774823e-09
2.5768181e-09
2.5753902e-09
2.57322e-09
2.5703036e-09
2.5666854e-09
2.5623989e-09
2.5574591e-09
2.5518763e-09
2.5456905e-09
2.538929e-09
2.5315579e-09
2.5235587e-09
2.5149742e-09
2.5059029e-09
2.4963534e-09
2.4862786e-09
2.4757521e-09
2.4648291e-09
2.4535216e-09
2.4418443e-09
2.4299267e-09
2.4178709e-09
2.4057405e-09
2.3935546e-09
2.3811409e-09
2.3675325e-09
2.3501036e-09
2.3272621e-09
2.3054028e-09
2.2883387e-09
2.2731598e-09
2.2581989e-09
2.2425957e-09
2.2264854e-09
2.2098465e-09
2.1928308e-09
2.1754001e-09
2.1576307e-09
2.1394993e-09
2.12098e-09
2.1020831e-09
2.0829222e-09
2.0635207e-09
2.0437639e-09
2.0236388e-09
2.0031687e-09
1.9823892e-09
1.9611971e-09
1.9395785e-09
1.9175614e-09
1.8951058e-09
1.8721406e-09
1.8486704e-09
1.8246152e-09
1.7997131e-09
1.773965e-09
1.7474561e-09
1.7199484e-09
1.6913725e-09
1.6614612e-09
1.6302812e-09
1.597539e-09
1.5629653e-09
1.5263295e-09
1.4878643e-09
1.4469385e-09
1.4038364e-09
1.3578296e-09
1.3096078e-09
1.2588529e-09
1.2064774e-09
1.1496567e-09
1.090481e-09
1.0628651e-09
1.0607527e-09
1.0710482e-09
1.0849103e-09
1.0991774e-09
1.1117947e-09
1.1222447e-09
1.1325438e-09
1.1404207e-09
1.1402122e-09
1.1525305e-09
1.1592604e-09
1.1224908e-09
1.1080695e-09
1.202354e-09
1.200553e-09
1.1315775e-09
1.1998531e-09
1.3273766e-09
1.3435141e-09
1.4539797e-09
1.5267066e-09
1.5327435e-09
1.531726e-09
1.63237e-09
1.4904247e-09
1.33941e-09
1.5200407e-09
1.6349921e-09
1.3811308e-09
1.5538477e-09
1.7445386e-09
1.7386285e-09
1.9117792e-09
2.1963285e-09
1.904362e-09
1.6481879e-09
1.6907912e-09
2.0267522e-09
2.1457347e-09
3.0818014e-09
4.3486197e-09
5.3511847e-09
6.8944597e-09
9.3889031e-09
9.1955172e-09
9.8578799e-09
1.2528432e-08
1.144534e-08
9.3156484e-09
8.5047293e-09
8.3204413e-09
7.4816344e-09
6.6629763e-09
5.7861073e-09
4.8760881e-09
4.0920678e-09
3.4657425e-09
3.0197098e-09
2.7740936e-09
2.622353e-09
2.6852216e-09
1.0421683e-08
1.1008469e-08
1.0828902e-08
9.7813412e-09
7.8929267e-09
5.6196154e-09
3.457614e-09
1.7812456e-09
7.6305804e-10
2.8912798e-10
1.2441891e-10
6.4779152e-11
3.6842622e-11
2.6740439e-11
2.2132732e-11
2.0002146e-11
1.8903076e-11
1.8341106e-11
1.821516e-11
1.8274364e-11
1.8461494e-11
1.8778216e-11
1.9290493e-11
2.0133012e-11
2.1333049e-11
2.2858295e-11
2.4727125e-11
2.6997916e-11
2.9741305e-11
3.3037648e-11
3.6986312e-11
4.1706648e-11
4.7336243e-11
5.4020299e-11
6.1896466e-11
7.1047234e-11
8.1486793e-11
9.3367785e-11
1.0693674e-10
1.222008e-10
1.3941733e-10
1.5947018e-10
1.82801e-10
2.0934573e-10
2.3912575e-10
2.7222285e-10
3.0873053e-10
3.487739e-10
3.9295213e-10
4.4175154e-10
4.9449677e-10
5.5045699e-10
6.0877894e-10
6.675993e-10
7.2523348e-10
7.7917838e-10
8.2684594e-10
8.6480581e-10
8.9185275e-10
9.0626277e-10
9.1530191e-10
9.2636873e-10
9.7804417e-10
1.1414188e-09
1.3548476e-09
1.5595848e-09
1.7621161e-09
1.960962e-09
2.156598e-09
2.3484661e-09
2.5367412e-09
2.7215296e-09
2.9032091e-09
3.0817593e-09
3.2577808e-09
3.4314996e-09
3.60316e-09
3.7728278e-09
3.9407379e-09
4.107001e-09
4.271636e-09
4.4346145e-09
4.5959819e-09
4.7557277e-09
4.9137887e-09
5.0700955e-09
5.2245957e-09
5.3771834e-09
5.5277463e-09
5.6761971e-09
5.8224151e-09
5.9662699e-09
6.107657e-09
6.2464701e-09
6.3825951e-09
6.515959e-09
6.6464822e-09
6.774121e-09
6.8987785e-09
7.020377e-09
7.1388402e-09
7.2540737e-09
7.3659663e-09
7.4744717e-09
7.5795369e-09
7.6810591e-09
7.7789628e-09
7.8732438e-09
7.9638931e-09
8.050896e-09
8.1341454e-09
8.2136408e-09
8.2894263e-09
8.3615248e-09
8.4299102e-09
8.4946145e-09
8.5556586e-09
8.6129447e-09
8.6662793e-09
8.7159129e-09
8.7622341e-09
8.80507e-09
8.8441591e-09
8.8796594e-09
8.9118451e-09
8.9406959e-09
8.9660638e-09
8.9880501e-09
9.0068504e-09
9.0225269e-09
9.0350268e-09
9.0444577e-09
9.0509545e-09
9.0545566e-09
9.0552185e-09
9.0530341e-09
9.0481656e-09
9.0406878e-09
9.0305866e-09
9.0180189e-09
9.0031006e-09
8.9858853e-09
8.9664085e-09
8.9448109e-09
8.9211882e-09
8.8954211e-09
8.8674445e-09
8.8374086e-09
8.8056593e-09
8.7722264e-09
8.7369452e-09
8.7000731e-09
8.6618046e-09
8.6221813e-09
8.5812557e-09
8.5394817e-09
8.4972185e-09
8.4546897e-09
8.411963e-09
8.368434e-09
8.3207075e-09
8.2595588e-09
8.1793864e-09
8.1026444e-09
8.0427466e-09
7.9894681e-09
7.9369594e-09
7.8821897e-09
7.8256374e-09
7.7672241e-09
7.7074839e-09
7.6462823e-09
7.5838875e-09
7.5202172e-09
7.4551813e-09
7.3888151e-09
7.3215182e-09
7.2533724e-09
7.1839762e-09
7.1132824e-09
7.0413734e-09
6.9683745e-09
6.8939233e-09
6.8179704e-09
6.7406144e-09
6.661715e-09
6.5810222e-09
6.4985522e-09
6.4140244e-09
6.3265183e-09
6.2360366e-09
6.1428787e-09
6.0462081e-09
5.9457819e-09
5.8406598e-09
5.7310769e-09
5.6160015e-09
5.4944874e-09
5.3657234e-09
5.2305275e-09
5.0866806e-09
4.9351831e-09
4.7734732e-09
4.6039742e-09
4.4255669e-09
4.24146e-09
4.041899e-09
3.8343622e-09
3.7375777e-09
3.73016e-09
3.7664197e-09
3.8152356e-09
3.8654747e-09
3.9099202e-09
3.9467597e-09
3.9830643e-09
4.0107877e-09
4.0101703e-09
4.0534268e-09
4.0764928e-09
3.9466869e-09
3.8966943e-09
4.2268741e-09
4.2161243e-09
3.9695345e-09
4.211407e-09
4.6548957e-09
4.7106554e-09
5.0919683e-09
5.3368484e-09
5.3506478e-09
5.3529151e-09
5.7012667e-09
5.1976351e-09
4.6670688e-09
5.3002659e-09
5.6785304e-09
4.7805446e-09
5.3929735e-09
6.0488682e-09
6.0103804e-09
6.6173471e-09
7.5760185e-09
6.5107768e-09
5.595459e-09
5.7106343e-09
6.7525075e-09
7.1166817e-09
9.8687324e-09
1.3547886e-08
1.6607939e-08
2.1224313e-08
2.9576741e-08
2.9159556e-08
3.0781189e-08
3.975397e-08
3.6474133e-08
2.9683888e-08
2.6902244e-08
2.6487449e-08
2.4624037e-08
2.2253482e-08
1.9566179e-08
1.6742581e-08
1.4184453e-08
1.2094242e-08
1.0566546e-08
9.7274794e-09
9.2011283e-09
9.4294387e-09
2.9721973e-08
3.1393684e-08
3.0876314e-08
2.788767e-08
2.2503539e-08
1.6030108e-08
9.8725934e-09
5.0940493e-09
2.1858832e-09
8.2862259e-10
3.5562289e-10
1.847284e-10
1.050707e-10
7.6235015e-11
6.3113867e-11
5.7020113e-11
5.3925878e-11
5.2330706e-11
5.1984113e-11
5.2164469e-11
5.2706988e-11
5.361877e-11
5.5084894e-11
5.7490273e-11
6.091382e-11
6.5266365e-11
7.0599586e-11
7.7079063e-11
8.4906204e-11
9.4310686e-11
1.055756e-10
1.1904136e-10
1.3510056e-10
1.541679e-10
1.7663722e-10
2.0274756e-10
2.3254317e-10
2.6645755e-10
3.0519569e-10
3.4877944e-10
3.979312e-10
4.5517591e-10
5.2179119e-10
5.9760121e-10
6.8266762e-10
7.7722528e-10
8.8154183e-10
9.959676e-10
1.1221946e-09
1.2616266e-09
1.4123553e-09
1.572291e-09
1.7389963e-09
1.9071537e-09
2.0719442e-09
2.2262162e-09
2.3625634e-09
2.4711741e-09
2.5485743e-09
2.5898386e-09
2.6156987e-09
2.6471486e-09
2.7941397e-09
3.2601351e-09
3.8694172e-09
4.4538423e-09
5.0319628e-09
5.5995169e-09
6.1578928e-09
6.7054836e-09
7.2428044e-09
7.7701508e-09
8.2886138e-09
8.7981268e-09
9.3004131e-09
9.796116e-09
1.0285937e-08
1.0770063e-08
1.1249168e-08
1.1723568e-08
1.2193319e-08
1.2658341e-08
1.3118766e-08
1.3574564e-08
1.4025557e-08
1.4471548e-08
1.4912389e-08
1.534778e-08
1.57774e-08
1.6201003e-08
1.6618244e-08
1.7028754e-08
1.7432234e-08
1.7828382e-08
1.8216874e-08
1.8597502e-08
1.8970039e-08
1.9334359e-08
1.9690187e-08
2.0037299e-08
2.0375479e-08
2.0704459e-08
2.1023916e-08
2.1333721e-08
2.1633725e-08
2.1923633e-08
2.2203231e-08
2.2472505e-08
2.273143e-08
2.2979964e-08
2.3217804e-08
2.3444947e-08
2.3661518e-08
2.3867585e-08
2.4063069e-08
2.4248063e-08
2.4422625e-08
2.4586476e-08
2.4739063e-08
2.4881098e-08
2.501369e-08
2.5136343e-08
2.5248313e-08
2.5350048e-08
2.5442329e-08
2.5525097e-08
2.559793e-08
2.5661116e-08
2.5715209e-08
2.5760389e-08
2.5796503e-08
2.5823857e-08
2.5842834e-08
2.5853548e-08
2.5855867e-08
2.5850058e-08
2.5836582e-08
2.5815654e-08
2.5787232e-08
2.5751762e-08
2.5709575e-08
2.5660824e-08
2.5605609e-08
2.5544331e-08
2.5477262e-08
2.5404064e-08
2.5324549e-08
2.5239145e-08
2.5148837e-08
2.5053714e-08
2.4953303e-08
2.4848339e-08
2.4739375e-08
2.4626534e-08
2.4509962e-08
2.4390956e-08
2.427054e-08
2.4149354e-08
2.4027595e-08
2.3903541e-08
2.3767504e-08
2.3593147e-08
2.3364439e-08
2.3145472e-08
2.2974589e-08
2.2822593e-08
2.2672803e-08
2.2516548e-08
2.2355199e-08
2.2188523e-08
2.201805e-08
2.1843393e-08
2.1665321e-08
2.1483596e-08
2.1297963e-08
2.110852e-08
2.0916412e-08
2.0721869e-08
2.0523748e-08
2.0321913e-08
2.0116598e-08
1.9908164e-08
1.9695574e-08
1.9478688e-08
1.9257787e-08
1.903247e-08
1.8802026e-08
1.8566498e-08
1.8325087e-08
1.8075165e-08
1.7816737e-08
1.7550659e-08
1.7274542e-08
1.6987694e-08
1.6687427e-08
1.6374414e-08
1.6045707e-08
1.5698606e-08
1.533079e-08
1.4944599e-08
1.4533688e-08
1.4100923e-08
1.3638976e-08
1.3154774e-08
1.2645107e-08
1.2119153e-08
1.1549547e-08
1.0958026e-08
1.0682365e-08
1.0661176e-08
1.0764965e-08
1.0904665e-08
1.104844e-08
1.1175677e-08
1.1281216e-08
1.1385228e-08
1.1464528e-08
1.1463065e-08
1.1586801e-08
1.1651029e-08
1.1278993e-08
1.1139084e-08
1.2080109e-08
1.2038859e-08
1.1327667e-08
1.2024031e-08
1.3283341e-08
1.3438053e-08
1.4516405e-08
1.5195748e-08
1.5217448e-08
1.5234368e-08
1.621847e-08
1.4769181e-08
1.3263899e-08
1.5071587e-08
1.6085872e-08
1.3537782e-08
1.5295676e-08
1.7136881e-08
1.7016735e-08
1.8740792e-08
2.1401329e-08
1.8304937e-08
1.5711096e-08
1.6011043e-08
1.8797805e-08
1.9721477e-08
2.6903201e-08
3.6073102e-08
4.4641285e-08
5.681545e-08
7.8561112e-08
7.8429721e-08
8.2241417e-08
1.0574093e-07
9.7314337e-08
7.9752411e-08
7.2036115e-08
7.102306e-08
6.6971294e-08
6.1039871e-08
5.402259e-08
4.6640306e-08
3.9842797e-08
3.4213046e-08
3.0002407e-08
2.769033e-08
2.6218867e-08
2.6895222e-08
7.3153739e-08
7.7265814e-08
7.5979026e-08
6.8621893e-08
5.5377786e-08
3.9475263e-08
2.4343069e-08
1.2585472e-08
5.4125167e-09
2.053749e-09
8.7986313e-10
4.5627769e-10
2.5950514e-10
1.8816924e-10
1.5577247e-10
1.4068122e-10
1.3309962e-10
1.291684e-10
1.2832787e-10
1.2878759e-10
1.3013686e-10
1.3239571e-10
1.3601461e-10
1.4194346e-10
1.503807e-10
1.6111214e-10
1.7426362e-10
1.9024127e-10
2.0954164e-10
2.3273153e-10
2.6050838e-10
2.9371151e-10
3.3330899e-10
3.803246e-10
4.3573213e-10
5.0012995e-10
5.7363545e-10
6.5731152e-10
7.5290008e-10
8.6045588e-10
9.8173205e-10
1.1229651e-09
1.2873466e-09
1.4744578e-09
1.684451e-09
1.917908e-09
2.1754913e-09
2.458043e-09
2.7696945e-09
3.1139511e-09
3.4861518e-09
3.8811329e-09
4.2928758e-09
4.7082661e-09
5.1153996e-09
5.4966136e-09
5.8336022e-09
6.1021091e-09
6.293487e-09
6.3955648e-09
6.4594579e-09
6.536456e-09
6.8973752e-09
8.0456338e-09
9.5483666e-09
1.0989617e-08
1.241524e-08
1.3814634e-08
1.5191302e-08
1.6541252e-08
1.7865795e-08
1.9165647e-08
2.0443533e-08
2.1699273e-08
2.2937141e-08
2.4158722e-08
2.5365762e-08
2.6558719e-08
2.7739265e-08
2.8908189e-08
3.0065635e-08
3.1211408e-08
3.2345841e-08
3.3468868e-08
3.4580056e-08
3.5678923e-08
3.6765112e-08
3.7837889e-08
3.889647e-08
3.994025e-08
4.0968391e-08
4.197998e-08
4.2974291e-08
4.3950582e-08
4.4908057e-08
4.5846205e-08
4.6764472e-08
4.7662544e-08
4.8539742e-08
4.9395517e-08
5.022934e-08
5.1040549e-08
5.1828341e-08
5.25924e-08
5.3332369e-08
5.4047521e-08
5.4737325e-08
5.5401746e-08
5.604072e-08
5.6654146e-08
5.7241282e-08
5.7802121e-08
5.8336971e-08
5.8845988e-08
5.9328988e-08
5.9786187e-08
6.0217728e-08
6.0622923e-08
6.1000407e-08
6.1351925e-08
6.1680202e-08
6.1984023e-08
6.2261548e-08
6.2513872e-08
6.2742914e-08
6.2948533e-08
6.3129682e-08
6.328706e-08
6.3422037e-08
6.3535047e-08
6.3625712e-08
6.3694781e-08
6.3743197e-08
6.377123e-08
6.3778561e-08
6.3765838e-08
6.3734198e-08
6.3684163e-08
6.3615632e-08
6.3529696e-08
6.3427174e-08
6.3308435e-08
6.3173728e-08
6.302404e-08
6.2860038e-08
6.2680887e-08
6.2486125e-08
6.2276803e-08
6.2055344e-08
6.1821971e-08
6.1575516e-08
6.1317788e-08
6.1050156e-08
6.0772913e-08
6.0486428e-08
6.019389e-08
5.989783e-08
5.9599831e-08
5.9300381e-08
5.8995256e-08
5.8660584e-08
5.8231391e-08
5.7667991e-08
5.712844e-08
5.670746e-08
5.6333038e-08
5.596407e-08
5.5579119e-08
5.5181578e-08
5.4770856e-08
5.4350734e-08
5.3920251e-08
5.3481308e-08
5.3033316e-08
5.257565e-08
5.210855e-08
5.1634834e-08
5.1155081e-08
5.0666469e-08
5.0168661e-08
4.9662239e-08
4.9148087e-08
4.8623655e-08
4.8088593e-08
4.7543596e-08
4.6987678e-08
4.6419079e-08
4.5837912e-08
4.5242204e-08
4.4625473e-08
4.3987727e-08
4.333108e-08
4.2649634e-08
4.1941686e-08
4.1200602e-08
4.0428041e-08
3.9616727e-08
3.8760006e-08
3.7852132e-08
3.6898893e-08
3.5884615e-08
3.4816391e-08
3.3676105e-08
3.2480871e-08
3.1222727e-08
2.9924352e-08
2.8519462e-08