/*--------------------------------*- C++ -*----------------------------------*\
| =========                 |                                                 |
| \\      /  F ield         | OpenFOAM: The Open Source CFD Toolbox           |
|  \\    /   O peration     | Version:  2.4.0                                 |
|   \\  /    A nd           | Web:      www.OpenFOAM.org                      |
|    \\/     M anipulation  |                                                 |
\*---------------------------------------------------------------------------*/
FoamFile
{
    version     2.0;
    format      ascii;
    class       volScalarField;
    location    "370";
    object      nut;
}
// * * * * * * * * * * * * * * * * * * * * * * * * * * * * * * * * * * * * * //

dimensions      [0 2 -1 0 0 0 0];

internalField   nonuniform List<scalar> 
19650
(
0.01430559
0.014333451
0.014360842
0.014387776
0.014414248
0.014440246
0.014465758
0.014490765
0.014515253
0.014539203
0.014562603
0.014585435
0.014607686
0.014629337
0.014650371
0.014670768
0.014690509
0.014709577
0.014727957
0.014745636
0.014762603
0.014778845
0.014794348
0.014809097
0.014823078
0.01483628
0.014848693
0.014860315
0.014871143
0.014881178
0.014890424
0.014898884
0.014906563
0.014913469
0.014919627
0.014925075
0.014930294
0.014936181
0.014940328
0.014944923
0.014948465
0.014949691
0.014951191
0.014954232
0.014957292
0.014953256
0.014942183
0.014931078
0.0149171
0.014898439
0.014876705
0.014851588
0.014823255
0.014792019
0.014758336
0.014722726
0.014685874
0.014648388
0.014610946
0.014574104
0.014538863
0.014506432
0.014477849
0.014454108
0.014436186
0.014538925
0.014560188
0.014581041
0.014601457
0.014621415
0.014640898
0.014659886
0.01467836
0.0146963
0.014713688
0.014730506
0.014746739
0.014762368
0.014777377
0.014791748
0.014805462
0.014818502
0.014830851
0.014842495
0.014853422
0.014863623
0.014873086
0.014881799
0.014889751
0.014896931
0.014903334
0.014908956
0.0149138
0.014917869
0.014921173
0.014923723
0.014925534
0.01492662
0.014927007
0.014926726
0.014925979
0.014925637
0.014925146
0.014922972
0.014922292
0.014918444
0.014914225
0.014910494
0.014908368
0.014906086
0.014895104
0.014879093
0.014864814
0.014847226
0.014827485
0.014805981
0.014782297
0.014756589
0.014729124
0.01470035
0.014670624
0.014640524
0.014610711
0.014581786
0.014554234
0.01452902
0.014507286
0.014489999
0.014478081
0.014472431
0.014840269
0.014854719
0.014868745
0.014882324
0.014895439
0.01490807
0.014920197
0.014931798
0.014942852
0.014953341
0.014963245
0.014972546
0.014981225
0.014989265
0.014996646
0.015003352
0.015009365
0.015014666
0.015019243
0.015023082
0.015026172
0.0150285
0.015030051
0.01503081
0.015030773
0.015029938
0.015028309
0.015025895
0.015022709
0.015018766
0.015014088
0.015008698
0.015002624
0.014995903
0.014988617
0.014981377
0.01497477
0.014966201
0.014959229
0.014949589
0.014939013
0.014928613
0.014918534
0.014910337
0.014901853
0.014883459
0.014861518
0.014842012
0.014821072
0.014799985
0.014778077
0.014755229
0.014731584
0.014707368
0.014683034
0.014658554
0.014634804
0.014612233
0.014591423
0.014572794
0.014557265
0.014545903
0.014539608
0.014539191
0.014545479
0.015204925
0.015212532
0.015219695
0.015226397
0.015232616
0.015238334
0.01524353
0.015248182
0.015252271
0.015255777
0.01525868
0.01526096
0.015262599
0.015263579
0.015263881
0.015263486
0.015262378
0.015260538
0.015257951
0.015254601
0.015250474
0.015245549
0.015239776
0.015233144
0.015225666
0.015217354
0.015208221
0.015198282
0.015187558
0.015176071
0.015163848
0.015150919
0.015137317
0.015123067
0.015108479
0.015094381
0.015079393
0.015064332
0.015048906
0.015031417
0.01501395
0.014996495
0.014979452
0.014964524
0.014949206
0.014922998
0.01489499
0.014869627
0.014845477
0.014822274
0.014799439
0.014776914
0.014754802
0.014733331
0.014712775
0.014693074
0.014675137
0.014659305
0.014646109
0.014635915
0.014629583
0.014628088
0.014632283
0.014642819
0.014660428
0.015625434
0.015626305
0.015626721
0.015626667
0.01562612
0.015625061
0.015623465
0.015621311
0.015618578
0.015615245
0.015611291
0.015606696
0.015601441
0.015595505
0.015588872
0.015581525
0.015573445
0.015564616
0.015555022
0.015544649
0.015533482
0.015521482
0.015508599
0.015494857
0.015480259
0.015464814
0.015448536
0.01543144
0.015413545
0.015394877
0.015375467
0.01535535
0.015334566
0.015313214
0.015291877
0.015270879
0.01524786
0.015226262
0.015201903
0.015177102
0.015152426
0.01512759
0.015103314
0.015081327
0.015058927
0.01502407
0.014987045
0.014955573
0.014927718
0.014901527
0.014877009
0.014854094
0.014832854
0.01481342
0.014795829
0.014780476
0.014767717
0.014757975
0.014751745
0.014749322
0.014751485
0.014759105
0.014772904
0.014793446
0.014821302
0.016092465
0.016086798
0.016080722
0.016074194
0.016067181
0.016059652
0.01605158
0.016042939
0.016033706
0.016023858
0.016013372
0.016002226
0.015990399
0.015977873
0.01596463
0.015950655
0.015935933
0.015920447
0.015904189
0.015887147
0.015869317
0.015850701
0.015831325
0.015811176
0.015790164
0.015768293
0.015745592
0.015722079
0.01569777
0.015672689
0.015646862
0.015620316
0.015593065
0.015565451
0.015538125
0.015509454
0.015481467
0.015451446
0.015420173
0.015388914
0.015357425
0.01532577
0.01529482
0.015266151
0.015234665
0.015191344
0.015147596
0.015109204
0.015075798
0.015045502
0.015018182
0.014993792
0.014972478
0.014953799
0.014938338
0.014926307
0.014917903
0.014913439
0.014913305
0.014917679
0.014927221
0.014942671
0.014964643
0.014993538
0.01502978
0.01663501
0.016625415
0.016615441
0.016604989
0.016593792
0.016582196
0.016570176
0.016557692
0.016544707
0.016531187
0.016517103
0.016502429
0.016487142
0.016471218
0.016454634
0.016437365
0.016419391
0.016400694
0.01638126
0.016361074
0.016340121
0.01631839
0.016295874
0.016272568
0.016248478
0.016223634
0.01619809
0.016171821
0.016144817
0.016117066
0.016088561
0.01605925
0.016029123
0.015998233
0.015966616
0.015934307
0.015901385
0.015868309
0.015835256
0.015800234
0.015766112
0.015729473
0.015692404
0.015655278
0.015617839
0.015580293
0.015543584
0.015509377
0.015470811
0.015420182
0.015370699
0.015326574
0.015288422
0.015254366
0.015224285
0.015198273
0.01517614
0.015158034
0.015144098
0.015134538
0.015129488
0.015129109
0.015133643
0.015143114
0.015158027
0.015179091
0.015206635
0.015241063
0.015282669
0.017217084
0.017203275
0.017189071
0.01717426
0.017159162
0.017143745
0.017127918
0.017111587
0.017094742
0.017077392
0.017059528
0.017041121
0.01702214
0.017002556
0.016982351
0.016961507
0.016940001
0.016917806
0.016894899
0.016871261
0.016846877
0.016821736
0.016795823
0.016769125
0.016741629
0.01671333
0.016684226
0.016654321
0.016623628
0.016592166
0.016559963
0.016527105
0.016493597
0.016459427
0.016424603
0.01638913
0.016352983
0.016316108
0.016278562
0.016240654
0.016202812
0.016163695
0.016125161
0.016084213
0.016042489
0.01600072
0.01595867
0.015916361
0.015874047
0.015832967
0.015794505
0.015747062
0.015694179
0.01564127
0.015593595
0.015552765
0.015517018
0.015486185
0.015460356
0.015438379
0.015421506
0.01540931
0.015401849
0.015399153
0.0154013
0.01540844
0.015420504
0.015437937
0.015461284
0.015490956
0.015527326
0.015570656
0.017764014
0.017745821
0.017727377
0.017708541
0.017689227
0.017669498
0.017649386
0.017628833
0.01760777
0.017586177
0.017564075
0.017541456
0.01751828
0.017494501
0.017470099
0.017445065
0.017419388
0.017393046
0.017366007
0.017338245
0.017309747
0.017280504
0.017250509
0.017219746
0.017188198
0.017155851
0.017122702
0.01708875
0.017054
0.017018461
0.016982143
0.016945066
0.016907262
0.016868764
0.016829618
0.016789921
0.016749742
0.016709081
0.016667949
0.016626366
0.016584548
0.016542664
0.016499246
0.016456436
0.016411603
0.016366474
0.016321316
0.016275914
0.016230362
0.01618507
0.016140753
0.016093837
0.016044382
0.015988727
0.015933077
0.015882646
0.015839542
0.01580217
0.015770259
0.015742571
0.015720201
0.015702715
0.015689948
0.015681929
0.015678624
0.015680085
0.015686452
0.015697664
0.015714269
0.015736604
0.015765337
0.015800844
0.015843549
0.01821639
0.018194416
0.018172127
0.018149296
0.01812596
0.018102286
0.018078293
0.018053825
0.018028776
0.018003173
0.017977087
0.017950523
0.017923414
0.017895702
0.017867376
0.017838453
0.017808932
0.017778775
0.017747936
0.017716387
0.017684127
0.017651159
0.017617481
0.017583074
0.017547911
0.017511979
0.017475277
0.017437815
0.017399599
0.017360635
0.017320926
0.017280481
0.017239322
0.017197484
0.017155011
0.017111959
0.017068389
0.017024395
0.016980099
0.01693566
0.016891272
0.016846234
0.016801102
0.016754388
0.016707088
0.016659757
0.016612306
0.016564744
0.016517128
0.016469609
0.016422826
0.01637795
0.016331956
0.016274541
0.016215093
0.016159596
0.016111354
0.016068816
0.016030615
0.015998077
0.015970712
0.01594826
0.01593067
0.01591804
0.0159104
0.015907885
0.015910709
0.015918814
0.015932919
0.015953373
0.01598089
0.016015869
0.016058788
0.018636691
0.018611605
0.018585717
0.018558878
0.018531166
0.018503166
0.018474925
0.018446125
0.018416654
0.018386719
0.018356443
0.018325763
0.01829452
0.018262629
0.018230132
0.018197106
0.018163564
0.01812944
0.018094657
0.018059193
0.01802307
0.017986316
0.017948927
0.017910868
0.017872098
0.017832601
0.017792393
0.017751495
0.017709922
0.017667674
0.017624745
0.017581135
0.017536864
0.017491968
0.017446488
0.017400466
0.017353941
0.017306956
0.017259565
0.017212023
0.017164597
0.017116165
0.017068143
0.017018533
0.016968703
0.016918899
0.016868981
0.016819039
0.016769152
0.016719418
0.016670376
0.016623365
0.016575402
0.0165199
0.016462201
0.01640581
0.016355717
0.016310528
0.016267804
0.016230008
0.016197369
0.016169871
0.016147615
0.016130828
0.016119655
0.016114344
0.016115297
0.016122474
0.016136147
0.016157086
0.01618601
0.016223137
0.016268793
0.019082781
0.019056927
0.019029765
0.019000914
0.018970576
0.018939252
0.018906988
0.018873929
0.01883962
0.018804695
0.018769562
0.018734019
0.018697759
0.01866074
0.018623182
0.01858522
0.01854683
0.018507847
0.01846814
0.018427723
0.018386689
0.018345112
0.018302988
0.018260244
0.018216806
0.018172671
0.018127883
0.018082488
0.018036508
0.01798993
0.017942725
0.01789489
0.01784645
0.017797456
0.017747957
0.017697988
0.017647569
0.017596726
0.017545521
0.017494093
0.017442453
0.017390197
0.017337737
0.017284392
0.017231
0.017177651
0.017124288
0.017070994
0.017017832
0.01696487
0.016912678
0.01686276
0.016812388
0.016755151
0.016696187
0.016638107
0.016586727
0.016540635
0.016498622
0.016461079
0.016428387
0.016400771
0.016378493
0.016361915
0.016351293
0.016346912
0.016349028
0.016358022
0.016374136
0.016397857
0.016429897
0.016470692
0.016520423
0.019474444
0.019490549
0.019485373
0.019457824
0.019428483
0.019398175
0.019366484
0.019332878
0.019297281
0.019260131
0.019221891
0.019182627
0.019142328
0.019100686
0.019058292
0.01901556
0.018972361
0.018928353
0.018883388
0.018837674
0.018791408
0.018744673
0.018697435
0.018649515
0.018600792
0.018551317
0.018501209
0.018450561
0.018399403
0.018347694
0.018295365
0.018242403
0.018188866
0.018134832
0.018080369
0.018025507
0.017970243
0.017914582
0.017858616
0.017802424
0.017745814
0.017688934
0.017631268
0.017573422
0.017515651
0.017457951
0.017400365
0.017342972
0.01728583
0.017228977
0.017172968
0.01711943
0.017065823
0.017005588
0.016944008
0.016883513
0.016830428
0.016783377
0.016741288
0.016704333
0.016672742
0.016646653
0.016626266
0.016611909
0.016603813
0.016602244
0.016607444
0.016619653
0.016639412
0.016667122
0.016703364
0.01674861
0.016803104
0.019735745
0.019748253
0.019760864
0.019773575
0.019786383
0.019799279
0.019807629
0.01977837
0.019746255
0.019712976
0.019677913
0.019640992
0.019601814
0.019560331
0.019516951
0.019472271
0.01942633
0.019379324
0.019330718
0.019280932
0.019230461
0.019179494
0.019127869
0.019075248
0.019021524
0.018966974
0.018911811
0.018856134
0.018799961
0.01874317
0.018685616
0.018627307
0.018568377
0.018508968
0.018449179
0.018389033
0.018328472
0.018267452
0.018206088
0.018144514
0.018082319
0.01802006
0.017957018
0.017894015
0.017831154
0.017768398
0.017705866
0.01764367
0.017581868
0.017520482
0.017460038
0.01740224
0.017344698
0.017280772
0.0172159
0.017152371
0.017096998
0.017048449
0.01700558
0.016968541
0.016937482
0.016912476
0.016893681
0.016881382
0.016875768
0.016877092
0.016885665
0.01690155
0.016925311
0.016957468
0.016998602
0.01704897
0.017108805
0.019951267
0.01996037
0.019969617
0.019978996
0.019988497
0.019998113
0.020007837
0.020017659
0.020027573
0.020037582
0.020047684
0.020057873
0.020057054
0.02002492
0.019989964
0.01995326
0.019914307
0.019873277
0.019829801
0.019783687
0.019735098
0.019684484
0.019632457
0.019578961
0.019524262
0.019467763
0.019409967
0.019351333
0.019292025
0.019232028
0.019171072
0.019108962
0.019045875
0.018982118
0.018917871
0.018853238
0.018788204
0.018722595
0.018656315
0.018589536
0.018522467
0.018454675
0.018387045
0.018318687
0.018250352
0.018182095
0.018113891
0.018045937
0.0179784
0.017911353
0.017844804
0.017779252
0.017716497
0.017654278
0.017585864
0.017516932
0.01744972
0.017391482
0.017340868
0.01729667
0.01725902
0.017228019
0.017203697
0.017186171
0.017175683
0.01717238
0.017176488
0.017188304
0.017207864
0.017235742
0.017272483
0.017318648
0.017374406
0.017439974
0.020122926
0.020129037
0.020135304
0.020141722
0.020148287
0.020154993
0.020161833
0.020168801
0.02017589
0.020183091
0.020190403
0.020197822
0.020205345
0.020212961
0.020220666
0.020228465
0.020236363
0.020244358
0.020252441
0.020223998
0.02018721
0.020148361
0.020106804
0.020062604
0.02001604
0.019966713
0.019914466
0.019859462
0.019802056
0.019742828
0.019682019
0.019619759
0.019555892
0.019490394
0.019423803
0.01935642
0.01928843
0.019219724
0.019149982
0.019079158
0.019007653
0.018935728
0.018863298
0.018790637
0.018717495
0.018644178
0.018570667
0.018497092
0.018423724
0.018350777
0.018278365
0.018206479
0.018135558
0.018067471
0.018000086
0.017926594
0.017853003
0.017781586
0.017720032
0.017666929
0.017621006
0.017582377
0.017551101
0.017527172
0.017510667
0.017501776
0.017500602
0.017507353
0.017522322
0.017545548
0.017577653
0.017619228
0.017670822
0.01773251
0.017804563
0.020245078
0.020248446
0.020251999
0.020255734
0.020259643
0.020263723
0.020267968
0.020272373
0.020276931
0.020281637
0.020286486
0.020291472
0.02029659
0.020301835
0.0203072
0.020312681
0.020318277
0.020323987
0.020329812
0.020335743
0.020341765
0.020347887
0.020354117
0.020360458
0.020366912
0.020373471
0.020340084
0.02029986
0.020257328
0.020211672
0.020162902
0.020111357
0.020056965
0.019999436
0.019938803
0.019875288
0.019809354
0.019741663
0.019672285
0.019601594
0.019529184
0.019455423
0.019380686
0.019305272
0.019229057
0.019152245
0.019074677
0.018996424
0.018918021
0.018839844
0.018762078
0.018684839
0.018608062
0.018532047
0.018458708
0.018386103
0.018307393
0.018228995
0.018153284
0.018088369
0.018032713
0.017984947
0.017945147
0.017913335
0.017889494
0.017873684
0.017866062
0.017866715
0.017875877
0.017893897
0.017920873
0.017957538
0.018004604
0.018062589
0.018131368
0.018211524
0.020314807
0.020315161
0.020315713
0.020316462
0.020317404
0.020318544
0.020319878
0.020321405
0.020323122
0.020325025
0.020327111
0.020329376
0.020331818
0.020334431
0.020337212
0.020340158
0.020343263
0.020346523
0.020349934
0.020353492
0.020357194
0.020361036
0.020365017
0.020369132
0.020373374
0.020377742
0.020382239
0.020386869
0.02039163
0.020396516
0.020401503
0.020406604
0.02041183
0.020417189
0.020422683
0.020428309
0.020410773
0.020368396
0.02032262
0.020273783
0.020221355
0.020165622
0.020106967
0.020045115
0.019979908
0.019911461
0.019839866
0.019765787
0.019689776
0.019612206
0.019533736
0.019453875
0.019373216
0.0192923
0.019211337
0.019130558
0.019049839
0.018969322
0.018891088
0.018813628
0.01873014
0.018647379
0.018567789
0.018499808
0.018441686
0.018391943
0.018350642
0.018317863
0.018293693
0.018278228
0.01827162
0.018274026
0.018285798
0.018307399
0.018339025
0.018381581
0.018436048
0.01850297
0.018581871
0.018673872
0.020341045
0.020339483
0.020338116
0.020336946
0.02033597
0.02033519
0.020334606
0.020334218
0.020334025
0.020334027
0.020334223
0.020334611
0.02033519
0.020335958
0.020336913
0.020338054
0.020339377
0.02034088
0.020342561
0.020344417
0.020346445
0.020348643
0.020351009
0.020353539
0.02035623
0.020359081
0.020362091
0.020365259
0.020368585
0.020372065
0.020375691
0.020379465
0.020383391
0.020387473
0.020391714
0.020396109
0.020400637
0.020405291
0.020410089
0.020415041
0.020420156
0.020425437
0.020430881
0.020398425
0.020350457
0.020299145
0.020243998
0.020184874
0.02012215
0.020056552
0.019987827
0.019915898
0.019841025
0.019763501
0.01968395
0.019603199
0.019521478
0.019439694
0.019359839
0.019280219
0.019194006
0.019108249
0.019025462
0.018954522
0.018893622
0.018841395
0.018798087
0.018764042
0.018739638
0.01872503
0.018720314
0.018725692
0.018741659
0.018768736
0.018807105
0.018857818
0.018922287
0.019001376
0.01909505
0.019205137
0.020315273
0.020312065
0.020309046
0.020306216
0.020303578
0.020301133
0.020298881
0.020296826
0.020294967
0.020293305
0.020291843
0.02029058
0.020289517
0.020288654
0.020287991
0.020287529
0.020287266
0.020287203
0.020287338
0.020287671
0.0202882
0.020288925
0.020289845
0.020290957
0.020292262
0.020293757
0.020295443
0.020297317
0.020299379
0.020301628
0.020304062
0.02030668
0.020309483
0.020312471
0.020315647
0.020319008
0.020322549
0.020326264
0.020330159
0.020334239
0.02033851
0.020342974
0.020347624
0.020352421
0.020357374
0.020362502
0.020367813
0.020373301
0.020378959
0.020384785
0.020345105
0.020292287
0.020236343
0.020176789
0.020113688
0.020047559
0.019978893
0.019907945
0.01983663
0.019763397
0.019680708
0.019595842
0.019511874
0.019439126
0.019376329
0.019322672
0.019278977
0.019245685
0.019223136
0.019211623
0.019211604
0.019223075
0.019246197
0.019281195
0.019327868
0.019386876
0.019459232
0.019545428
0.019643224
0.019749911
0.020240623
0.020235991
0.020231538
0.020227268
0.020223182
0.020219284
0.020215577
0.020212062
0.020208743
0.020205622
0.0202027
0.020199982
0.020197468
0.02019516
0.020193062
0.020191173
0.020189495
0.020188031
0.02018678
0.020185745
0.020184925
0.020184321
0.020183935
0.020183765
0.020183813
0.020184078
0.020184562
0.020185264
0.020186183
0.020187321
0.020188677
0.020190252
0.020192045
0.020194057
0.020196289
0.020198741
0.020201412
0.0202043
0.020207407
0.020210734
0.020214285
0.02021806
0.020222058
0.020226268
0.020230687
0.020235321
0.020240173
0.020245232
0.020250497
0.020255957
0.02026156
0.020267322
0.020273268
0.020279413
0.020285765
0.020292327
0.020299087
0.020271652
0.020220666
0.020166885
0.020102521
0.020033369
0.019962277
0.01990043
0.019846996
0.01980157
0.019764973
0.019737711
0.01972027
0.019712961
0.019715857
0.019728918
0.01975202
0.019784866
0.019826659
0.01987709
0.019936869
0.020008337
0.02006329
0.0200255
0.020120178
0.020114301
0.020108596
0.020103065
0.020097712
0.02009254
0.020087554
0.020082757
0.020078153
0.020073744
0.020069535
0.020065529
0.02006173
0.020058141
0.020054765
0.020051605
0.020048664
0.020045946
0.020043453
0.020041187
0.02003915
0.020037347
0.020035777
0.020034443
0.020033348
0.020032493
0.020031879
0.020031508
0.020031382
0.020031502
0.020031869
0.020032485
0.020033351
0.020034468
0.020035838
0.02003746
0.020039337
0.02004147
0.020043858
0.020046504
0.020049409
0.020052575
0.020056002
0.020059687
0.020063629
0.020067829
0.020072285
0.020076983
0.020081925
0.020087109
0.020092518
0.020098152
0.020104017
0.020110121
0.020116472
0.020123069
0.020129891
0.020136859
0.020143889
0.020150855
0.020157233
0.020161806
0.020163718
0.02016296
0.020159539
0.02015345
0.020137087
0.020116618
0.02010324
0.020097449
0.020082625
0.020060278
0.02003515
0.020007215
0.019976457
0.019942875
0.019906539
0.019867548
0.01982592
0.019781608
0.019956909
0.019949938
0.019943129
0.019936487
0.019930017
0.019923722
0.019917607
0.019911677
0.019905935
0.019900388
0.019895038
0.01988989
0.01988495
0.019880221
0.019875708
0.019871415
0.019867346
0.019863505
0.019859897
0.019856526
0.019853394
0.019850507
0.019847867
0.019845479
0.019843344
0.019841468
0.019839852
0.0198385
0.019837415
0.019836599
0.019836055
0.019835785
0.019835793
0.019836081
0.01983665
0.019837504
0.019838644
0.019840072
0.019841791
0.019843803
0.019846108
0.01984871
0.019851609
0.019854807
0.019858304
0.0198621
0.019866191
0.019870561
0.019875218
0.019880163
0.019885391
0.019890899
0.01989669
0.019902765
0.019909127
0.019915774
0.019922692
0.019929833
0.019937112
0.019944362
0.019950906
0.019955199
0.019956368
0.019954402
0.019949316
0.01994112
0.019929815
0.019915413
0.019897945
0.019877417
0.019853803
0.019827091
0.019797279
0.019764358
0.019728326
0.019689201
0.019647078
0.019602085
0.019554314
0.019503835
0.019761764
0.019753672
0.01974573
0.019737943
0.019730316
0.019722855
0.019715563
0.019708447
0.01970151
0.01969476
0.0196882
0.019681836
0.019675674
0.019669718
0.019663974
0.019658447
0.019653142
0.019648065
0.019643221
0.019638615
0.019634251
0.019630136
0.019626274
0.019622669
0.019619326
0.019616251
0.019613447
0.01961092
0.019608672
0.01960671
0.019605035
0.019603654
0.019602569
0.019601784
0.019601303
0.019601129
0.019601267
0.019601718
0.019602487
0.019603577
0.019604991
0.019606731
0.0196088
0.019611201
0.019613936
0.019617007
0.019620413
0.01962415
0.019628208
0.019632595
0.019637312
0.019642359
0.019647736
0.019653443
0.01965948
0.019665848
0.019672544
0.019679555
0.019686847
0.019694334
0.019701832
0.01970851
0.019712511
0.019712949
0.019709816
0.019703137
0.019692939
0.019679243
0.019662077
0.019641472
0.019617451
0.019590026
0.019559207
0.019525007
0.019487429
0.019446492
0.019402229
0.019354764
0.019304262
0.019250857
0.019194675
0.019531257
0.019522167
0.019513215
0.019504406
0.019495747
0.019487241
0.019478896
0.019470716
0.019462707
0.019454875
0.019447225
0.019439764
0.019432497
0.01942543
0.019418569
0.01941192
0.019405489
0.019399282
0.019393305
0.019387564
0.019382064
0.019376813
0.019371816
0.019367078
0.019362606
0.019358405
0.019354481
0.01935084
0.019347487
0.019344427
0.019341666
0.01933921
0.019337063
0.01933523
0.019333717
0.019332528
0.019331668
0.019331141
0.019330952
0.019331106
0.019331607
0.019332458
0.019333665
0.019335229
0.019337156
0.019339448
0.019342108
0.019345136
0.019348524
0.019352277
0.019356396
0.019360886
0.019365746
0.01937098
0.019376587
0.019382568
0.019388923
0.019395649
0.019402735
0.019410149
0.019417808
0.019425515
0.019432294
0.019435993
0.019435719
0.01943147
0.019423281
0.01941119
0.019395239
0.019375468
0.019351924
0.019324645
0.019293667
0.019259022
0.01922074
0.019178845
0.01913337
0.019084369
0.019031996
0.018976447
0.018917891
0.018856484
0.019267756
0.019257773
0.019247917
0.019238194
0.019228608
0.019219167
0.019209875
0.019200738
0.019191764
0.019182958
0.019174325
0.019165873
0.019157607
0.019149534
0.01914166
0.019133992
0.019126537
0.0191193
0.019112288
0.019105508
0.019098967
0.019092671
0.019086627
0.019080842
0.019075322
0.019070073
0.019065103
0.019060418
0.019056024
0.019051928
0.019048137
0.019044656
0.019041492
0.01903865
0.019036138
0.019033961
0.019032125
0.019030636
0.019029499
0.01902872
0.019028305
0.019028258
0.019028585
0.019029292
0.019030382
0.01903186
0.019033731
0.019035998
0.01903866
0.01904171
0.01904516
0.019049013
0.019053272
0.019057938
0.019063016
0.019068506
0.01907441
0.019080728
0.019087457
0.019094589
0.019102093
0.019109887
0.019117763
0.019124609
0.019127999
0.019127036
0.019121723
0.019112107
0.019098238
0.019080173
0.019057968
0.019031686
0.019001383
0.018967113
0.018928929
0.018886879
0.018841005
0.01879136
0.018738015
0.018681153
0.018621002
0.018557756
0.018491602
0.018962829
0.01895216
0.018941614
0.018931195
0.018920911
0.018910766
0.018900769
0.018890924
0.018881238
0.018871717
0.018862369
0.0188532
0.018844216
0.018835424
0.018826831
0.018818445
0.01881027
0.018802316
0.018794588
0.018787095
0.018779842
0.018772837
0.018766088
0.018759602
0.018753385
0.018747445
0.01874179
0.018736426
0.01873136
0.018726601
0.018722154
0.018718028
0.018714229
0.018710764
0.01870764
0.018704864
0.018702443
0.018700383
0.018698691
0.018697374
0.018696438
0.018695889
0.018695733
0.018695976
0.018696625
0.018697684
0.018699159
0.018701054
0.01870337
0.018706096
0.018709252
0.018712841
0.018716868
0.018721336
0.018726247
0.018731606
0.018737414
0.018743672
0.018750379
0.018757527
0.018765087
0.018772978
0.018780983
0.018787865
0.01879094
0.018789311
0.01878299
0.018772032
0.018756501
0.018736467
0.018712002
0.018683185
0.01865009
0.018612788
0.018571351
0.018525846
0.018476331
0.018422877
0.018365575
0.018304636
0.018240314
0.018172831
0.018102393
0.018628258
0.018616969
0.018605799
0.018594753
0.01858384
0.018573064
0.018562432
0.018551951
0.018541628
0.01853147
0.018521482
0.018511673
0.018502049
0.018492617
0.018483385
0.018474359
0.018465547
0.018456955
0.018448593
0.018440466
0.018432583
0.018424951
0.018417577
0.01841047
0.018403636
0.018397085
0.018390822
0.018384857
0.018379197
0.018373849
0.018368821
0.018364122
0.018359758
0.018355738
0.018352069
0.018348758
0.018345814
0.018343242
0.018341052
0.01833925
0.018337844
0.018336839
0.018336245
0.018336066
0.01833631
0.018336983
0.018338092
0.018339641
0.018341632
0.018344053
0.018346929
0.018350264
0.018354063
0.018358331
0.018363073
0.018368291
0.018373989
0.018380169
0.01838683
0.018393967
0.018401551
0.018409505
0.018417603
0.018424491
0.01842725
0.018424984
0.018417712
0.018405501
0.018388425
0.018366569
0.018340019
0.018308872
0.018273217
0.018233141
0.018188737
0.018140086
0.018087265
0.018030361
0.017969484
0.017904869
0.0178368
0.017765518
0.017691251
0.018266556
0.018254707
0.018242974
0.018231365
0.018219885
0.018208542
0.018197343
0.018186293
0.018175401
0.018164674
0.018154117
0.018143739
0.018133546
0.018123546
0.018113747
0.018104155
0.018094779
0.018085625
0.018076702
0.018068018
0.018059579
0.018051394
0.018043471
0.018035818
0.018028442
0.018021353
0.018014557
0.018008064
0.018001881
0.017996016
0.017990478
0.017985274
0.017980414
0.017975905
0.017971755
0.017967972
0.017964565
0.017961541
0.017958909
0.017956676
0.01795485
0.01795344
0.017952451
0.017951893
0.017951773
0.017952097
0.017952872
0.017954105
0.017955797
0.017957936
0.01796055
0.017963645
0.017967227
0.017971301
0.017975873
0.017980947
0.017986527
0.017992616
0.017999215
0.018006318
0.018013901
0.018021888
0.018030046
0.018036917
0.018039361
0.018036491
0.018028332
0.018014959
0.01799646
0.017972932
0.017944476
0.017911203
0.01787322
0.01783063
0.017783541
0.017732054
0.017676258
0.017616258
0.017552182
0.017484289
0.017412887
0.017338237
0.017260587
0.017892671
0.017880207
0.017867853
0.017855615
0.0178435
0.017831514
0.017819665
0.017807959
0.017796403
0.017785006
0.017773773
0.017762712
0.01775183
0.017741136
0.017730635
0.017720336
0.017710247
0.017700375
0.017690729
0.017681315
0.017672141
0.017663217
0.017654549
0.017646147
0.017638018
0.01763017
0.017622612
0.017615353
0.0176084
0.017601762
0.017595448
0.017589465
0.017583824
0.017578531
0.017573596
0.017569027
0.017564833
0.017561022
0.017557603
0.017554585
0.017551974
0.017549781
0.017548013
0.017546678
0.017545784
0.01754534
0.017545353
0.017545831
0.01754678
0.017548202
0.017550084
0.017552459
0.017555332
0.017558711
0.017562602
0.017567011
0.017571942
0.017577401
0.017583392
0.017589917
0.017596971
0.017604533
0.017612528
0.017620721
0.017627555
0.017629694
0.017626257
0.017617277
0.01760284
0.017583043
0.017557995
0.017527814
0.017492623
0.017452546
0.0174077
0.017358211
0.017304192
0.017245751
0.017183008
0.017116104
0.017045324
0.016970997
0.016893403
0.016812807
0.017497605
0.017484587
0.017471672
0.017458866
0.017446177
0.017433611
0.017421176
0.017408877
0.017396723
0.017384721
0.017372877
0.0173612
0.017349696
0.017338373
0.017327239
0.017316301
0.017305566
0.017295044
0.017284741
0.017274665
0.017264826
0.017255229
0.017245885
0.0172368
0.017227984
0.017219444
0.01721119
0.017203229
0.01719557
0.017188222
0.017181193
0.017174493
0.017168129
0.017162111
0.017156448
0.017151148
0.017146219
0.017141672
0.017137514
0.017133755
0.017130403
0.017127468
0.017124957
0.017122879
0.017121243
0.017120058
0.017119332
0.017119073
0.01711929
0.017119988
0.01712117
0.017122824
0.017124984
0.017127658
0.017130852
0.017134573
0.017138828
0.017143623
0.017148964
0.017154855
0.017161299
0.017168294
0.017175819
0.017183804
0.01719201
0.017198795
0.017200641
0.01719668
0.017186953
0.017171551
0.017150586
0.017124176
0.017092453
0.017055554
0.017013617
0.016966775
0.016915167
0.016858924
0.016798165
0.016733026
0.016663664
0.016590383
0.016513533
0.016433412
0.016350299
0.017083644
0.017070127
0.017056708
0.017043392
0.017030187
0.0170171
0.017004137
0.016991306
0.016978614
0.016966068
0.016953675
0.016941443
0.016929379
0.01691749
0.016905785
0.016894271
0.016882955
0.016871845
0.01686095
0.016850277
0.016839834
0.016829629
0.016819671
0.016809968
0.016800528
0.01679136
0.016782471
0.016773871
0.016765569
0.016757572
0.016749889
0.016742531
0.016735504
0.016728818
0.016722482
0.016716506
0.016710897
0.016705665
0.016700819
0.016696368
0.016692322
0.016688688
0.016685477
0.016682696
0.016680356
0.016678464
0.01667703
0.016676063
0.016675571
0.016675562
0.016676043
0.016677017
0.016678471
0.016680442
0.016682938
0.016685967
0.016689535
0.01669365
0.016698318
0.016703546
0.016709339
0.0167157
0.016722629
0.016730108
0.016738068
0.016746271
0.016752998
0.01675457
0.016750133
0.016739733
0.016723474
0.016701472
0.01667386
0.01664078
0.016602385
0.016558825
0.016510246
0.016456803
0.016398638
0.016335887
0.016268697
0.01619724
0.016121841
0.016042865
0.015960626
0.015875418
0.016653063
0.016639101
0.016625231
0.01661146
0.016597794
0.016584241
0.016570808
0.016557501
0.016544328
0.016531295
0.016518411
0.016505683
0.016493117
0.016480722
0.016468506
0.016456474
0.016444637
0.016433
0.016421573
0.016410362
0.016399377
0.016388625
0.016378114
0.016367853
0.016357849
0.016348112
0.01633865
0.01632947