y,k
0,1e-10
0.00048240845,5.9497455e-08
0.00098049384,3.1784545e-07
0.0014947656,1.3148777e-06
0.0020257498,3.8091886e-06
0.0025739895,8.8320681e-06
0.0031400454,1.7688994e-05
0.0037244966,3.19872e-05
0.0043279408,5.3670075e-05
0.0049509953,8.5052098e-05
0.0055942973,0.0001288473
0.0062585048,0.0001881803
0.0069442972,0.0002665626
0.007652376,0.00036780895
0.0083834654,0.00049586166
0.0091383131,0.00065449085
0.0099176913,0.00084685654
0.010722397,0.001074965
0.011553254,0.0013391262
0.012411111,0.0016375897
0.013296846,0.0019665423
0.014211364,0.0023205422
0.015155603,0.002693284
0.016130526,0.0030784485
0.017137132,0.0034703879
0.018176449,0.0038645149
0.019249542,0.004257405
0.020357507,0.0046467012
0.021501477,0.0050309236
0.022682624,0.0054092593
0.023902154,0.0057813739
0.025161316,0.0061472596
0.026461397,0.0065071219
0.027803728,0.006861298
0.02918968,0.0072102004
0.030620672,0.0075542794
0.032098167,0.0078939981
0.033623676,0.0082298167
0.03519876,0.0085621834
0.03682503,0.0088915286
0.03850415,0.0092182623
0.040237836,0.0095427734
0.042027862,0.0098654294
0.043876059,0.010186578
0.045784317,0.010506547
0.047754588,0.010825647
0.049788888,0.011144174
0.051889297,0.011462406
0.054057963,0.011780611
0.056297104,0.012099045
0.058609012,0.012417952
0.06099605,0.012737567
0.06346066,0.013058119
0.066005363,0.013379829
0.068632762,0.013702911
0.071345544,0.014027576
0.074146484,0.014354029
0.077038447,0.014682473
0.08002439,0.015013108
0.083107369,0.015346132
0.086290535,0.015681742
0.089577146,0.016020133
0.092970562,0.016361501
0.096474255,0.016706044
0.10009181,0.017053957
0.10382692,0.01740544
0.10768342,0.017760693
0.11166524,0.018119919
0.11577645,0.018483323
0.12002127,0.018851115
0.12440404,0.019223508
0.12892923,0.019600715
0.13360148,0.019982958
0.13842557,0.02037046
0.14340642,0.020763448
0.14854914,0.021162154
0.15385898,0.021566815
0.15934138,0.021977671
0.16500194,0.022394966
0.17084645,0.022818949
0.17688089,0.023249871
0.18311143,0.023687989
0.18954445,0.02413356
0.19618653,0.024586844
0.20304445,0.025048101
0.21012524,0.025517592
0.21743614,0.025995576
0.22498461,0.026482308
0.23277839,0.026978038
0.24082545,0.027483007
0.24913402,0.027997447
0.25771259,0.028521573
0.26656994,0.029055584
0.27571513,0.029599653
0.28515751,0.030153924
0.29490674,0.030718508
0.3049728,0.031293471
0.31536597,0.031878828
0.3260969,0.03247453
0.33717655,0.033080453
0.34861625,0.033696387
0.36042772,0.03432202
0.37262303,0.034956922
0.38521464,0.035600524
0.39821546,0.036252099
0.41163876,0.036910734
0.42549828,0.037575307
0.4398082,0.038244456
0.45458315,0.03891655
0.46983824,0.039589649
0.48558908,0.040261475
0.50185179,0.040929367
0.51864298,0.041590245
0.53597984,0.042240568
0.5538801,0.042876293
0.57236207,0.043492831
0.59144465,0.044085038
0.61114736,0.044649256
0.63149036,0.045183152
0.65249445,0.04567783
0.67418111,0.046115278
0.69657252,0.046474399
0.7196916,0.046734934
0.74356198,0.046880104
0.76820808,0.046899025
0.79365511,0.046782264
0.8199291,0.046520666
0.84705692,0.046108344
0.87506632,0.045541848
0.90398595,0.044821029
0.93384539,0.043950005
0.94954502,0.043434528
0.96467517,0.042937949
0.99650683,0.041799457
1.0293729,0.040554374
1.0633071,0.039227028
1.098344,0.037844758
1.1345196,0.036434477
1.1718707,0.035021597
1.2104356,0.033630844
1.2502538,0.032283074
1.291366,0.030991996
1.3338142,0.029763289
1.3776419,0.028597244
1.4228938,0.027491385
1.4696163,0.026439765
1.5178571,0.025438115
1.566098,0.024491812
1.6128205,0.023605835
1.6580724,0.022775922
1.7019001,0.021995721
1.7443483,0.021260466
1.7854605,0.020566155
1.8252786,0.019909425
1.8638436,0.019286964
1.9011947,0.018693346
1.9373703,0.018122002
1.9724072,0.017569154
2.0063413,0.017034094
2.0163351,0.016876827
2.0392075,0.016516908
2.0710391,0.016017565
2.1018689,0.015535927
2.1317283,0.015071769
2.160648,0.014624792
2.1886574,0.014194645
2.2157852,0.01378094
2.2420592,0.013383261
2.2675062,0.013001182
2.2921523,0.012634269
2.3160227,0.012282094
2.3391418,0.011944239
2.3615332,0.011620297
2.3832198,0.011309876
2.4042239,0.011012602
2.4245669,0.010728125
2.4442696,0.010456116
2.4633522,0.010196273
2.4818342,0.009948318
2.4997344,0.0097120022
2.5170713,0.0094871034
2.5338625,0.0092734271
2.5501252,0.0090708064
2.565876,0.0088791021
2.5811311,0.0086982011
2.5959061,0.008528016
2.610216,0.0083684833
2.6240755,0.0082195616
2.6374988,0.0080812296
2.6504996,0.0079534829
2.6630913,0.0078363312
2.6752866,0.0077297942
2.687098,0.0076338982
2.6985377,0.0075486704
2.7096174,0.0074741347
2.7203483,0.0074103058
2.7307415,0.0073571834
2.7408075,0.0073147464
2.7505568,0.0072829469
2.7599992,0.0072617108
2.7691443,0.007250921
2.7780017,0.007250401
2.7865803,0.0072599394
2.7948888,0.0072792845
2.8029359,0.0073081241
2.8107297,0.0073460921
2.8182781,0.0073927693
2.825589,0.0074476849
2.8326698,0.0075103193
2.8395278,0.0075801086
2.8461698,0.0076564498
2.8526028,0.0077387073
2.8588334,0.0078262192
2.8648678,0.0079183057
2.8707123,0.008014276
2.8763729,0.0081134363
2.8818553,0.0082150977
2.8871651,0.0083185836
2.8923079,0.0084232363
2.8972887,0.0085284234
2.9021128,0.0086335489
2.9067851,0.0087381955
2.9113102,0.0088421378
2.915693,0.0089447715
2.9199378,0.009044931
2.924049,0.0091413163
2.9280309,0.0092327314
2.9318874,0.009318188
2.9356225,0.0093969277
2.93924,0.0094684002
2.9427437,0.0095322344
2.9461371,0.0095881864
2.9494237,0.0096361116
2.9526069,0.0096759515
2.9556899,0.0097077032
2.9586758,0.0097314054
2.9615678,0.0097471267
2.9643687,0.0097549553
2.9670815,0.0097549924
2.9697089,0.0097473445
2.9722536,0.0097321182
2.9747182,0.0097094207
2.9771053,0.0096793576
2.9794172,0.0096420282
2.9816563,0.0095975183
2.983825,0.0095458731
2.9859254,0.0094870566
2.9879597,0.0094209581
2.98993,0.0093474218
2.9918382,0.0092662497
2.9936864,0.0091772019
2.9954764,0.0090799921
2.9972101,0.0089742821
2.9988893,0.0088596758
3.0005155,0.0087357123
3.0020906,0.0086018602
3.0036161,0.0084575097
3.0050936,0.0083019655
3.0065246,0.0081343754
3.0079106,0.0079537037
3.0092529,0.0077588124
3.010553,0.0075485108
3.0118121,0.0073215681
3.0130317,0.0070767359
3.0142128,0.006812787
3.0153568,0.0065285671
3.0164647,0.0062230386
3.0175378,0.0058952023
3.0185772,0.0055440933
3.0195838,0.0051692014
3.0205587,0.0047709549
3.0215029,0.0043510359
3.0224174,0.0039127655
3.0233032,0.0034615241
3.024161,0.0030050364
3.0249919,0.0025533275
3.0257966,0.0021181507
3.026576,0.001711781
3.0273308,0.0013453204
3.0280619,0.0010269583
3.02877,0.00076077419
3.0294558,0.00054649494
3.03012,0.00038019928
3.0307633,0.00025558639
3.0313863,0.00016532252
3.0319898,0.00010212192
3.0325742,5.9443772e-05
3.0331403,3.1840399e-05
3.0336885,1.5038623e-05
3.0342195,5.8155818e-06
3.0347338,1.7275641e-06
3.0352319,1.241762e-06
3.0357122,5.3921215e-09
