/*--------------------------------*- C++ -*----------------------------------*\
| =========                 |                                                 |
| \\      /  F ield         | OpenFOAM: The Open Source CFD Toolbox           |
|  \\    /   O peration     | Version:  2.4.0                                 |
|   \\  /    A nd           | Web:      www.OpenFOAM.org                      |
|    \\/     M anipulation  |                                                 |
\*---------------------------------------------------------------------------*/
FoamFile
{
    version     2.0;
    format      ascii;
    class       volScalarField;
    location    "400";
    object      nut;
}
// * * * * * * * * * * * * * * * * * * * * * * * * * * * * * * * * * * * * * //

dimensions      [0 2 -1 0 0 0 0];

internalField   nonuniform List<scalar> 
19477
(
0.021213387
0.021198606
0.021181415
0.021161378
0.021137334
0.021107649
0.021069874
0.021021043
0.020957558
0.020875591
0.020772162
0.020643994
0.02048711
0.020297058
0.020068733
0.019796672
0.019475108
0.01909834
0.018661262
0.018160069
0.017593108
0.016961759
0.016271085
0.015529463
0.014747058
0.013935963
0.013109579
0.01228168
0.011465875
0.010676495
0.0099290418
0.0092383997
0.0086140103
0.0080584116
0.0075695223
0.0071435263
0.01409696
0.014099904
0.014124475
0.014173633
0.01425075
0.014359659
0.01450474
0.014690906
0.014923467
0.01520668
0.015546305
0.015948786
0.016421049
0.016966288
0.017584494
0.018275846
0.019041531
0.019910721
0.020890235
0.021182074
0.021210511
0.021234529
0.021254192
0.021269263
0.021279566
0.021285449
0.021287105
0.021284655
0.021278229
0.021268284
0.021255938
0.021241797
0.021228167
0.021249166
0.021237856
0.021224452
0.021208373
0.021188804
0.021164364
0.021132959
0.02109203
0.021038469
0.020968992
0.020881092
0.020771954
0.020638119
0.020475697
0.020280185
0.02004672
0.01977008
0.019444965
0.019066385
0.01863019
0.01813375
0.017576707
0.016961619
0.016293808
0.01558026
0.014829989
0.014053734
0.013263219
0.012470446
0.011687772
0.010928716
0.010208213
0.0095398111
0.0089319094
0.0083869545
0.007903519
0.0074787736
0.007110981
0.0067975179
0.0065357389
0.0063230115
0.0061565204
0.0060332614
0.014144897
0.014162698
0.014202615
0.014267591
0.014360955
0.014486461
0.014648351
0.014851324
0.015100333
0.01539913
0.015752766
0.016166536
0.016645942
0.017192574
0.017805468
0.018484732
0.019230014
0.020080951
0.021060437
0.021192683
0.021220607
0.021244398
0.021264141
0.021279644
0.021290787
0.021297945
0.02130132
0.021301033
0.021297183
0.021290188
0.021281074
0.021270405
0.021260391
0.021280066
0.021271903
0.021261876
0.021249364
0.021233841
0.02121414
0.021188481
0.021154661
0.02111001
0.021051716
0.020977692
0.020885542
0.020772283
0.020634546
0.020468406
0.020269584
0.020033428
0.019755115
0.019429935
0.019053686
0.018623203
0.018136966
0.017595684
0.017002262
0.016360989
0.015678058
0.014961495
0.014220685
0.01346576
0.01270727
0.011956603
0.011226519
0.010531035
0.0098825119
0.0092886357
0.0087520389
0.008272341
0.0078485342
0.0074787994
0.0071612213
0.0068935693
0.0066734734
0.0064984227
0.014197806
0.01423071
0.01428616
0.01436706
0.014476673
0.014618642
0.014797026
0.015016249
0.015280822
0.01559391
0.015959779
0.016382591
0.01686658
0.01741213
0.018018293
0.018686519
0.019416748
0.020247536
0.021170605
0.021201939
0.02122922
0.021252639
0.021272295
0.021288044
0.021299821
0.02130803
0.021312879
0.021314488
0.021312928
0.02130857
0.021302358
0.021294827
0.021288105
0.021306083
0.021300782
0.021293782
0.021284466
0.021272584
0.021257158
0.02123668
0.021209261
0.021172608
0.021124324
0.021062684
0.02098566
0.020890699
0.020774912
0.020634911
0.020466978
0.020267026
0.020030747
0.019753818
0.01943219
0.019062488
0.018642495
0.018171643
0.017651024
0.017082789
0.016470717
0.015820322
0.015138599
0.014433608
0.013714089
0.012989368
0.012269745
0.011567296
0.010895066
0.010264459
0.0096827933
0.0091534
0.0086773203
0.0082539887
0.0078821472
0.0075602442
0.0072862234
0.0070581053
0.014257532
0.014305722
0.014376808
0.014473643
0.014599393
0.014757553
0.014951948
0.015186666
0.015465711
0.015791608
0.016167835
0.016597536
0.017083975
0.017626792
0.018225653
0.018883948
0.019605157
0.020416625
0.021179491
0.021209772
0.02123627
0.021259149
0.021278531
0.021294324
0.021306521
0.021315554
0.021321636
0.021324887
0.021325344
0.021323335
0.021319721
0.021315016
0.021311274
0.021327127
0.02132441
0.021320134
0.021313679
0.021305066
0.021293492
0.021277688
0.021256038
0.021226577
0.02118726
0.021136671
0.021073099
0.02099437
0.020898029
0.020781177
0.020640624
0.020472825
0.020273994
0.020040256
0.019767847
0.019453418
0.019094406
0.018689432
0.018238317
0.017741614
0.017201182
0.016620375
0.016003966
0.015357914
0.01468906
0.014004881
0.013313525
0.012624441
0.011948846
0.011298847
0.010685079
0.010115046
0.0095931082
0.0091208018
0.0086980905
0.0083241862
0.0079977064
0.007717151
0.014326223
0.014389796
0.014476529
0.014589196
0.014730835
0.014904753
0.015114494
0.015363758
0.015656005
0.015993116
0.016377846
0.016812525
0.017299768
0.017838887
0.018430263
0.019078298
0.01979227
0.02059097
0.021186895
0.021216048
0.021241597
0.021263744
0.021282647
0.021298271
0.021310669
0.021320297
0.021327377
0.021332021
0.021334236
0.021334303
0.021333003
0.021330836
0.02132978
0.021343013
0.02134261
0.021340779
0.021336882
0.021331202
0.021323098
0.021311513
0.021295074
0.021272095
0.021240831
0.021200119
0.021148515
0.021084173
0.021005017
0.020908593
0.02079219
0.020652772
0.020487066
0.020291661
0.02006316
0.019798396
0.019494717
0.019150294
0.018764127
0.018335658
0.017865314
0.017354727
0.016806762
0.01622543
0.015615701
0.014983294
0.014334556
0.013676616
0.013017998
0.012369059
0.011740955
0.011144068
0.010586641
0.010072919
0.0096050115
0.0091833284
0.0088076821
0.008477139
0.014406336
0.014485286
0.014587556
0.014715811
0.014872931
0.015061992
0.015286223
0.015548903
0.015852947
0.016199634
0.016591115
0.017029123
0.017515883
0.018050729
0.018634563
0.019271006
0.019978276
0.020772116
0.0211927
0.021220553
0.021244957
0.021266162
0.021284368
0.0212996
0.021311973
0.021321968
0.021329809
0.021335604
0.021339328
0.021341212
0.021341958
0.021342057
0.021343413
0.021353448
0.021355098
0.021355449
0.021353834
0.021350779
0.021345803
0.021338035
0.021326316
0.021309201
0.021285194
0.021253338
0.021212405
0.021160822
0.021096845
0.021018406
0.020923227
0.020808739
0.02067215
0.020510514
0.020320833
0.020100221
0.019846112
0.019556492
0.01922989
0.018865049
0.018461408
0.018019319
0.017540129
0.017026181
0.016480744
0.015907878
0.015312261
0.014699188
0.014074858
0.013446968
0.012824937
0.012219413
0.011640882
0.011097066
0.010592789
0.010130538
0.0097113507
0.0093354226
0.014500613
0.014594801
0.014712345
0.014855771
0.015027772
0.015231162
0.015468829
0.01574363
0.016057961
0.016412581
0.016809179
0.017249076
0.017734285
0.018264604
0.01884134
0.019465629
0.020168045
0.020970517
0.02119669
0.021223003
0.021246032
0.021266066
0.021283344
0.021297952
0.021310068
0.021320194
0.021328562
0.021335269
0.021340259
0.021343709
0.021346246
0.021348353
0.021351861
0.021358025
0.021361475
0.021363758
0.021364164
0.021363455
0.021361296
0.021356988
0.02134956
0.021337774
0.021320343
0.021296465
0.021265082
0.021224847
0.021174289
0.021111679
0.021035116
0.02094245
0.020831332
0.020699254
0.020543629
0.0203619
0.020151696
0.019911007
0.019638151
0.01933149
0.018989849
0.018612703
0.01820028
0.017753605
0.017274512
0.016765575
0.016229996
0.015671522
0.015094579
0.014504476
0.01390808
0.013314225
0.012733026
0.012174611
0.011646461
0.011153609
0.010698966
0.010284083
0.014612016
0.014721129
0.014853486
0.015011453
0.015197506
0.015414183
0.015664027
0.015949489
0.016272507
0.016633423
0.017033617
0.01747415
0.017956996
0.018482946
0.019053685
0.019667883
0.02036214
0.021170531
0.021198513
0.021223018
0.021244429
0.021263048
0.021279151
0.021292889
0.021304504
0.021314521
0.021323176
0.021330556
0.021336571
0.021341345
0.021345426
0.021349293
0.021354706
0.02135621
0.021361214
0.021365189
0.021367369
0.021368743
0.021369119
0.021367954
0.021364442
0.021357526
0.02134609
0.021329445
0.02130666
0.021276563
0.02123791
0.021189253
0.021129018
0.021055421
0.020966507
0.020860178
0.020734238
0.020586477
0.020414784
0.020217268
0.01999222
0.019737858
0.019452685
0.019135636
0.018786182
0.018404389
0.01799097
0.017547274
0.017075233
0.016577279
0.016056347
0.015515991
0.01496079
0.014397135
0.013833482
0.013279362
0.012743739
0.012234119
0.011755298
0.011310563
0.014743589
0.014867076
0.015013531
0.015185138
0.015384146
0.015612812
0.015873349
0.016167849
0.016497869
0.016863447
0.017265805
0.017705867
0.018185756
0.018707257
0.019272059
0.019883426
0.020566783
0.02117201
0.021197698
0.021220141
0.021239671
0.021256608
0.021271269
0.021283872
0.021294728
0.021304386
0.021313083
0.021320894
0.021327697
0.021333555
0.02133894
0.021344327
0.021351406
0.02134732
0.021353639
0.021359068
0.021362785
0.021365995
0.021368649
0.021370342
0.021370421
0.021367984
0.021362053
0.021352019
0.021337031
0.021316054
0.021288019
0.02125171
0.021205827
0.021148899
0.021079319
0.020995351
0.020895165
0.020776889
0.020638697
0.020478891
0.020295851
0.020087814
0.019853174
0.019590592
0.019299082
0.018978076
0.018627483
0.018247716
0.017839677
0.017404717
0.016944606
0.016461548
0.015958406
0.015439387
0.01491063
0.014379798
0.013855296
0.013345371
0.012856892
0.012395077
0.014413972
0.014409636
0.014413917
0.014427816
0.014452387
0.014488809
0.01453865
0.014603304
0.014683999
0.014781787
0.014898208
0.015035207
0.015194721
0.015378744
0.015589294
0.015828366
0.016097879
0.016399628
0.016734874
0.017103472
0.017506591
0.017945096
0.018421507
0.018937977
0.01949441
0.020105775
0.020793972
0.021170461
0.021193693
0.021213804
0.021231165
0.021246124
0.021259049
0.021270233
0.021280054
0.02128909
0.021297577
0.021305577
0.021312928
0.021319632
0.021326086
0.021332759
0.02134127
0.021330487
0.021337886
0.02134454
0.021349564
0.021354376
0.021359068
0.021363365
0.021366753
0.021368465
0.021367634
0.021363695
0.021355846
0.021343143
0.021324654
0.021299343
0.021266135
0.021223823
0.021171093
0.021106528
0.021028623
0.020935827
0.020826595
0.020699456
0.020552949
0.020385435
0.020195343
0.019981253
0.019741955
0.019476512
0.019184315
0.018865123
0.018519073
0.018146675
0.017748793
0.017326621
0.016881777
0.016416849
0.015935897
0.015444365
0.014949003
0.014456791
0.013975522
0.013511689
0.014461332
0.014469864
0.014487276
0.014514514
0.014552572
0.014602566
0.014665987
0.01474414
0.014838177
0.014949051
0.015078203
0.015227458
0.015398601
0.015593438
0.015813779
0.016061388
0.016337941
0.016645006
0.016983641
0.017353619
0.017756109
0.018192004
0.018664572
0.019175513
0.019722429
0.020332801
0.021037926
0.021165346
0.021185811
0.021203278
0.02121815
0.021230808
0.021241676
0.021251127
0.021259619
0.021267755
0.021275772
0.021283712
0.021291374
0.021298691
0.021305981
0.02131371
0.021323426
0.021304609
0.021312857
0.021320511
0.021326624
0.021332816
0.021339327
0.021346004
0.02135246
0.021358046
0.021361985
0.021363727
0.021362485
0.021357373
0.02134755
0.021332125
0.021310196
0.021280771
0.021242783
0.021195084
0.021136455
0.021065627
0.020981327
0.020882315
0.020767324
0.020634895
0.020483586
0.020312021
0.020118937
0.019903231
0.019664005
0.019400613
0.019112677
0.018800101
0.018463063
0.018102016
0.017717716
0.017311589
0.016886149
0.01644492
0.01599259
0.015534801
0.015078029
0.014628921
0.014544473
0.01456546
0.014595521
0.014635529
0.014686397
0.014749164
0.014825228
0.014915796
0.015021939
0.015144507
0.015284835
0.015444635
0.015625551
0.015829227
0.016057295
0.016311331
0.016592837
0.016903223
0.017243428
0.017613209
0.018013763
0.018446213
0.018914487
0.019419176
0.019963438
0.020574076
0.021135373
0.021155881
0.021173202
0.021187662
0.021199675
0.021209663
0.021218111
0.021225483
0.021232324
0.021239264
0.02124654
0.021254168
0.021261903
0.021269603
0.021277504
0.021286067
0.021296767
0.021268281
0.021277157
0.021285595
0.021292588
0.021299956
0.02130809
0.021316952
0.021326275
0.021335518
0.021343972
0.021351074
0.021356026
0.021357966
0.021356113
0.021349676
0.021337888
0.021319928
0.021294927
0.021261962
0.021220053
0.021168182
0.021105314
0.021030434
0.020942476
0.020840189
0.020722305
0.020587575
0.020434793
0.02026283
0.020070677
0.019857477
0.019622548
0.019365405
0.019085762
0.01878354
0.018458908
0.018112498
0.017745729
0.017360766
0.016960524
0.01654901
0.016131065
0.015712224
0.014668061
0.014700714
0.014742519
0.014794254
0.014856743
0.014930934
0.015018137
0.015119464
0.015235917
0.015368249
0.015517701
0.015685895
0.01587436
0.016084612
0.016318147
0.016576411
0.016860785
0.017172586
0.017512699
0.017880893
0.018278482
0.018707196
0.019170731
0.019668302
0.020219383
0.02084871
0.021124167
0.021141008
0.02115477
0.021165794
0.021174515
0.021181403
0.021187016
0.021191919
0.021196754
0.021202181
0.021208432
0.021215493
0.021223067
0.021230926
0.021239222
0.021248406
0.021259879
0.021219707
0.021229003
0.021238026
0.021245708
0.021254069
0.021263657
0.021274546
0.021286585
0.021299325
0.021312112
0.021324348
0.021335195
0.021343787
0.021349372
0.021351227
0.021348683
0.021341046
0.021327607
0.021307621
0.021280308
0.021244858
0.021200448
0.021146262
0.021081429
0.021004907
0.020915626
0.020812501
0.020694447
0.020560407
0.020409376
0.020240433
0.020052756
0.019845649
0.019618547
0.01937103
0.019102842
0.018814121
0.018505586
0.018178427
0.017834408
0.017476048
0.017106616
0.016730177
0.014835562
0.014878507
0.014930506
0.014992246
0.015064467
0.015148045
0.015244222
0.015354039
0.015478454
0.01561815
0.015774299
0.015948461
0.016142086
0.016356596
0.0165934
0.016853856
0.01713927
0.01745092
0.017789676
0.018155338
0.01854962
0.018975151
0.019434502
0.019930393
0.020494519
0.021090628
0.021106625
0.021119333
0.021129045
0.021136128
0.02114105
0.021144339
0.021146641
0.021148634
0.02115107
0.021154642
0.021159573
0.02116581
0.021172994
0.021180801
0.02118929
0.0211989
0.02121095
0.021156595
0.021166128
0.021175558
0.021183766
0.021192966
0.021203875
0.021216681
0.021231337
0.021247485
0.021264507
0.021281748
0.021298305
0.021313283
0.021325934
0.021335572
0.021341593
0.021343398
0.021340398
0.021331989
0.021317549
0.021296439
0.021268013
0.02123163
0.021186595
0.021132063
0.02106716
0.020990981
0.020902596
0.020801069
0.020685477
0.020554929
0.020408582
0.020245661
0.020065468
0.019867393
0.019650947
0.01941593
0.019162624
0.018891586
0.018603727
0.018300599
0.017984216
0.017657172
0.017321912
0.016983746
0.016647243
0.016317297
0.015997773
0.01569243
0.015404283
0.015135694
0.014888455
0.014663906
0.014463028
0.015047797
0.015098774
0.015158544
0.015227728
0.015307019
0.015397259
0.015499661
0.015615239
0.015744939
0.015889401
0.016049754
0.016227523
0.016424104
0.016640859
0.016879128
0.017140209
0.017425364
0.017735865
0.018072598
0.018435563
0.018827297
0.019250733
0.019709344
0.020221403
0.020809911
0.021069832
0.021081024
0.021089005
0.021094071
0.02109661
0.021097133
0.021096244
0.021094688
0.021093277
0.021092884
0.021094235
0.021097541
0.021102699
0.021109277
0.021116839
0.021125345
0.021135211
0.021147667
0.021076046
0.021085663
0.021095357
0.021103957
0.021113883
0.02112603
0.021140695
0.021157941
0.021177487
0.021198741
0.021220965
0.021243169
0.021264407
0.021283909
0.021301
0.021315117
0.021325724
0.021332319
0.021334407
0.021331487
0.021323057
0.021308613
0.02128766
0.021259658
0.021223939
0.021179812
0.021126548
0.021063382
0.020989522
0.020904167
0.020806514
0.020695776
0.020571191
0.020432031
0.020277621
0.020107361
0.019920848
0.019718057
0.019499187
0.019264694
0.019015393
0.018752485
0.018477573
0.018192736
0.017901031
0.017606033
0.017311822
0.017022824
0.016741825
0.016472336
0.016217105
0.015978433
0.015758222
0.015557944
0.015378337
0.015300432
0.015356198
0.01542044
0.015493786
0.015576939
0.015670755
0.015776455
0.01589506
0.016027522
0.016174446
0.016336924
0.016516453
0.016714383
0.016932015
0.017170629
0.017431465
0.017715763
0.018024845
0.018359795
0.018721337
0.019113084
0.019538399
0.020010921
0.020554736
0.021030071
0.021039241
0.021044975
0.021047524
0.021047223
0.021044501
0.021039926
0.021034192
0.021028163
0.021022798
0.02101911
0.021017857
0.021019228
0.021023061
0.021028836
0.021035992
0.021044376
0.02105437
0.021067098
0.020974424
0.020984012
0.020993866
0.021002764
0.021013349
0.021026708
0.021043248
0.021063138
0.021086168
0.021111757
0.021139063
0.021166983
0.021194497
0.021220792
0.021245185
0.021267126
0.021286122
0.021301728
0.021313527
0.021321112
0.021324085
0.021322053
0.02131464
0.021301434
0.021281922
0.021255578
0.021221834
0.021180083
0.021129686
0.021069975
0.021000268
0.020919873
0.020828098
0.02072426
0.020607695
0.02047777
0.020334017
0.020176224
0.020004356
0.019818573
0.019619264
0.01940709
0.019183042
0.018948518
0.018705479
0.018456516
0.018204292
0.017952993
0.017705041
0.017463516
0.017231184
0.017010515
0.016803714
0.016612674
0.01643882
0.016283101
0.015583765
0.015640893
0.015706413
0.015780989
0.015865363
0.015960422
0.016067412
0.016187354
0.016321203
0.016469514
0.016633317
0.016814059
0.017013024
0.017231439
0.017470516
0.017731466
0.018015586
0.018324496
0.018660148
0.019024791
0.019422932
0.019862202
0.020371934
0.020945021
0.020992991
0.020995808
0.020995216
0.020991483
0.020984972
0.020976163
0.020965699
0.020954379
0.0209432
0.020933292
0.020925816
0.020921566
0.020920699
0.020922984
0.020927799
0.020934438
0.020942615
0.020952663
0.020965569
0.020847211
0.020856686
0.020866645
0.020875785
0.020887021
0.020901633
0.02092014
0.020942816
0.020969517
0.020999657
0.021032264
0.021066098
0.021100044
0.021133224
0.02116493
0.021194605
0.021221776
0.021246038
0.021267025
0.021284397
0.021297832
0.021307024
0.021311688
0.021311517
0.021306129
0.02129514
0.021278126
0.021254626
0.021224143
0.021186144
0.021140076
0.021085362
0.021021409
0.020947615
0.020863374
0.020768099
0.020661312
0.020542714
0.02041212
0.020269522
0.020115057
0.01994906
0.019772082
0.019585011
0.019389094
0.019186005
0.018977872
0.018767425
0.018557493
0.018350047
0.018147552
0.01795233
0.017766583
0.017592341
0.017431343
0.017284999
0.01715439
0.015849167
0.015906209
0.015971982
0.016047182
0.016132561
0.016228997
0.016337725
0.016459736
0.016595955
0.016746842
0.016913332
0.017096787
0.017298404
0.017519345
0.017760816
0.018024138
0.018310957
0.018624058
0.01896737
0.019344664
0.019764413
0.020247813
0.020788155
0.020940658
0.020939765
0.020935266
0.020927367
0.020916372
0.020902691
0.020886875
0.020869655
0.02085195
0.020834908
0.020819844
0.020808085
0.02080046
0.020797089
0.020797655
0.02080142
0.020807497
0.020815442
0.020825521
0.020838539
0.020691399
0.020700705
0.020710753
0.020720127
0.020732053
0.020747993
0.020768579
0.020794187
0.020824735
0.020859619
0.020897716
0.020937627
0.020978125
0.02101825
0.021057253
0.021094558
0.021129691
0.021162267
0.021191953
0.021218454
0.021241502
0.021260854
0.021276288
0.021287582
0.021294461
0.021296658
0.021293877
0.021285777
0.021271989
0.021252103
0.02122569
0.02119228
0.021151396
0.02110252
0.021045143
0.020978736
0.020902851
0.020817186
0.020721504
0.020615662
0.020499654
0.020373613
0.020237839
0.0200929
0.019939664
0.019779007
0.019612586
0.019442347
0.01927071
0.019098878
0.018929028
0.018763094
0.018603011
0.018450667
0.018307796
0.018175949
0.018056503
0.016057251
0.016115808
0.016183768
0.016261773
0.016350515
0.016450823
0.016563837
0.016690473
0.016831595
0.01698756
0.017159205
0.017347837
0.017554619
0.017780789
0.018027833
0.018297667
0.018593192
0.018920025
0.01928448
0.01969261
0.020163141
0.020682196
0.020882046
0.020876608
0.020867356
0.020854469
0.020838208
0.020818933
0.020797116
0.02077339
0.020748585
0.020723751
0.020700193
0.020679423
0.020662938
0.020651595
0.020645462
0.020644126
0.020646722
0.020652167
0.020659841
0.020669904
0.020682961
0.020508349
0.020517499
0.020527673
0.02053736
0.020550091
0.020567494
0.020590317
0.020619038
0.020653623
0.020693439
0.020737192
0.02078331
0.020830436
0.020877522
0.020923764
0.020968552
0.021011406
0.021051944
0.021089853
0.021124865
0.021156748
0.021185305
0.02121035
0.021231728
0.021249247
0.021262737
0.021272011
0.021276821
0.021276921
0.021271988
0.021261723
0.021245735
0.021223678
0.021195098
0.021159607
0.0211167
0.021066029
0.021007271
0.02094017
0.020864432
0.020780051
0.020687016
0.020585497
0.020475874
0.020358636
0.020234551
0.020104722
0.019970381
0.019833209
0.019694673
0.01955623
0.019419182
0.019285122
0.019155659
0.019032334
0.018916604
0.018809837
0.016262146
0.016324732
0.016397227
0.016480222
0.016574325
0.016680353
0.016799349
0.016932146
0.0170795
0.017241756
0.017419758
0.017614909
0.017828592
0.018062571
0.018319399
0.018602882
0.018918911
0.019275831
0.019682317
0.02014631
0.020647462
0.02081622
0.020805519
0.02079084
0.02077233
0.020750225
0.020724838
0.020696585
0.020666009
0.02063383
0.020600978
0.02056864
0.020538282
0.020511613
0.020490296
0.020475194
0.020466301
0.020463085
0.020464546
0.020469419
0.020476898
0.02048698
0.020500095
0.020299339
0.020308447
0.020318848
0.02032899
0.02034268
0.020361713
0.020386962
0.020419004
0.020457851
0.02050283
0.020552463
0.020604987
0.020658904
0.020713063
0.020766596
0.020818851
0.020869327
0.02091764
0.020963481
0.021006593
0.02104676
0.021083811
0.021117609
0.021148026
0.02117496
0.021198311
0.021217959
0.021233772
0.021245558
0.021253131
0.021256233
0.021254625
0.021247983
0.021236017
0.021218343
0.021194613
0.021164441
0.02112754
0.021083671
0.021032636
0.020974235
0.020908395
0.020835091
0.020754461
0.020666737
0.020572507
0.02047246
0.020367868
0.020259918
0.020149915
0.020038727
0.019927613
0.019817773
0.0197105
0.01960708
0.019508776
0.019416811
0.01650959
0.016576906
0.01665448
0.016742844
0.016842592
0.016954413
0.01707934
0.017218195
0.017371732
0.017540359
0.017725217
0.017928201
0.018151574
0.018398562
0.018674548
0.01898657
0.019341388
0.019748088
0.020205627
0.02068761
0.020740095
0.020723661
0.020703131
0.020678634
0.020650377
0.020618639
0.020583784
0.020546284
0.020506751
0.020465989
0.020425029
0.020385192
0.020348104
0.020315669
0.020289709
0.020271081
0.020259685
0.020254851
0.020255432
0.020259978
0.020267495
0.020277774
0.020291104
0.020063397
0.020072639
0.02008342
0.020094181
0.020108997
0.020129825
0.020157673
0.020193222
0.020236533
0.020286893
0.020342635
0.02040179
0.020462709
0.020524123
0.020585089
0.020644905
0.02070304
0.020759094
0.020812754
0.020863768
0.02091193
0.020957075
0.020999096
0.021037887
0.021073398
0.021105588
0.021134384
0.021159722
0.021181467
0.021199517
0.021213677
0.021223806
0.021229652
0.021231034
0.021227637
0.021219236
0.021205484
0.021186147
0.021161018
0.021129993
0.021092815
0.021049389
0.020999578
0.0209434
0.020881025
0.020812753
0.020738904
0.020660291
0.020577965
0.02049277
0.020405641
0.020317808
0.020230267
0.020144086
0.020060351
0.019980148
0.019904551
0.016788488
0.016860896
0.01694376
0.017037605
0.017143059
0.017260774
0.017391819
0.017537132
0.017697724
0.017874449
0.01806924
0.018285369
0.018527425
0.018801311
0.019114304
0.019474897
0.019880539
0.020320065
0.020669582
0.020651072
0.020628526
0.020601849
0.020571129
0.020536545
0.020498342
0.020456838
0.020412444
0.020365684
0.020317232
0.020267974
0.020219035
0.020171867
0.02012825
0.02009028
0.020059932
0.020038049
0.02002443
0.020018261
0.020018237
0.020022724
0.020030532
0.02004123
0.020054974
0.019800189
0.019809748
0.019821073
0.01983262
0.019848723
0.019871497
0.019902091
0.019941294
0.019989221
0.020045126
0.020107153
0.020173125
0.020241232
0.020310082
0.020378645
0.020446157
0.020512048
0.020575895
0.020637373
0.020696227
0.020752256
0.020805303
0.020855257
0.020902044
0.020945644
0.020986067
0.021023297
0.021057301
0.021088011
0.021115349
0.021139204
0.02115946
0.021175969
0.021188578
0.021197096
0.021201328
0.021201059
0.021196096
0.021186261
0.021171415
0.021151425
0.021126195
0.021095661
0.021059821
0.021018773
0.020972718
0.020921912
0.020866611
0.02080749
0.020745217
0.020680488
0.020614176
0.020547187
0.02048051
0.020415105
0.020351902
0.020291831
0.017090838
0.017169129
0.017258082
0.017358243
0.017470333
0.017595223
0.017734252
0.017888811
0.018060425
0.01825132
0.018465506
0.018708454
0.018986474
0.019306107
0.019668079
0.020064917
0.020476769
0.020571865
0.020547011
0.020518158
0.020485226
0.02044823
0.02040731
0.020362679
0.020314616
0.020263478
0.020209715
0.020153899
0.020096762
0.020039264
0.019982622
0.019928409
0.019878554
0.019835334
0.019800875
0.019776003
0.019760415
0.019753152
0.019752754
0.019757407
0.019765725
0.019777041
0.019791382
0.01951002
0.01952005
0.01953206
0.019544534
0.019562057
0.019586895
0.019620338
0.019663286
0.019715914
0.019777451
0.019845858
0.019918754
0.019994169
0.02007058
0.020146868
0.020222196
0.020295948
0.020367669
0.020437011
0.020503709
0.020567555
0.020628393
0.02068611
0.020740651
0.020792032
0.020840308
0.020885514
0.020927661
0.020966733
0.021002692
0.021035478
0.02106501
0.02109119
0.021113902
0.02113301
0.021148361
0.021159794
0.021167157
0.021170296
0.021169088
0.021163431
0.02115325
0.021138506
0.021119198
0.021095397
0.021067245
0.021034951
0.020998814
0.020959255
0.020916711
0.020871573
0.020824471
0.020776112
0.020727233
0.020678615
0.020631061
0.020585391
0.017418869
0.017503813
0.017599955
0.017707987
0.017829001
0.017964187
0.018115636
0.018286176
0.018478475
0.018696605
0.018945886
0.01923286
0.019557231
0.019909065
0.020277936
0.02048549
0.020457551
0.020426088
0.020390872
0.020351752
0.020308643
0.020261583
0.020210743
0.020156369
0.020098772
0.020038343
0.01997557
0.01991107
0.019845627
0.019780272
0.019716307
0.019655417
0.019599676
0.019551533
0.019513252
0.019485644
0.019468308
0.019460145
0.019459547
0.019464528
0.01947351
0.019485593
0.019500672
0.019193727
0.019204342
0.019217139
0.019230643
0.019249674
0.019276645
0.019312982
0.0193597
0.019417039
0.019484207
0.019558994
0.019638825
0.019721573
0.019805587
0.019889654
0.019972863
0.020054541
0.020134194
0.020211447
0.020286011
0.020357667
0.020426248
0.020491637
0.020553785
0.020612738
0.020668588
0.02072141
0.020771258
0.020818161
0.020862125
0.020903135
0.020941155
0.020976126
0.021007974
0.021036601
0.021061891
0.021083713
0.021101934
0.021116415
0.021127038
0.021133711
0.021136367
0.021134973
0.021129528
0.021120083
0.021106745
0.021089676
0.021069124
0.021045404
0.021018844
0.020989826
0.020958796
0.020926263
0.020892735
0.02085879
0.020825069
0.020792215
0.017781131
0.017874448
0.017980031
0.018099084
0.018233939
0.018386415
0.018559581
0.018757726
0.018984067
0.019244437
0.019532894
0.019842132
0.020167553
0.020390687
0.020359223
0.02032474
0.020286824
0.020245374
0.020200253
0.020151328
0.02009851
0.020041858
0.019981576
0.019917941
0.019851295
0.019782059
0.019710762
0.019638058
0.019564784
0.019492037
0.019421196
0.019354056
0.01929282
0.019240102
0.019198298
0.019168198
0.01914931
0.019140404
0.01913973
0.019145145
0.019154887
0.019167825
0.019183728
0.018852557
0.018863827
0.018877473
0.018892064
0.018912645
0.018941762
0.01898098
0.019031424
0.019093402
0.019166112
0.019247183
0.019333857
0.019423862
0.01951542
0.019607228
0.019698295
0.019787894
0.019875482
0.01996065
0.020043082
0.020122537
0.020198831
0.020271835
0.020341499
0.02040789
0.020471131
0.020531329
0.02058857
0.020642921
0.020694426
0.020743109
0.020788974
0.020832005
0.020872165
0.020909397
0.020943621
0.020974734
0.021002617
0.021027139
0.021048187
0.021065666
0.021079507
0.021089668
0.021096136
0.021098943
0.021098158
0.021093903
0.021086368
0.021075792
0.021062434
0.021046606
0.021028661
0.021008992
0.020988025
0.020966211
0.020944027
0.02092195
0.018188155
0.018293884
0.018414189
0.018551014
0.018708111
0.018888008
0.019094595
0.019328593
0.019582189
0.019850545
0.020130553
0.020286039
0.020250921
0.020213129
0.020172229
0.020128176
0.020080811
0.020029997
0.019975595
0.019917475
0.019855548
0.019789899
0.019720762
0.019648444
0.01957332
0.019495843
0.019416575
0.019336212
0.019255638
0.01917601
0.019098781
0.019025847
0.018959532
0.018902602
0.018857575
0.018825221
0.018804961
0.018795443
0.018794782
0.018800693
0.018811242
0.018825076
0.018841843
0.018488041
0.018500001
0.01851452
0.018530217
0.018552345
0.018583575
0.018625603
0.018679663
0.018746133
0.018824211
0.018911377
0.019004707
0.019101789
0.019200731
0.019300139
0.01939895
0.019496373
0.019591821
0.019684843
0.019775091
0.019862295
0.01994625
0.020026807
0.020103907
0.020177635
0.020248134
0.020315537
0.020379956
0.020441486
0.020500203
0.020556164
0.020609404
0.020659945
0.020707784
0.0207529
0.020795247
0.020834752
0.020871308
0.020904793
0.020935099
0.020962131
0.020985815
0.021006097
0.02102295
0.021036378
0.021046418
0.021053149
0.021056704
0.021057258
0.021055011
0.021050214
0.021043147
0.021034123
0.021023477
0.021011565
0.020998758
0.020985436
0.018655182
0.01877935
0.018921674
0.019085473
0.019270254
0.019472592
0.019686513
0.01991488
0.020147762
0.020170445
0.020131646
0.020090389
0.02004636
0.019999523
0.019949718
0.019896823
0.019840698
0.0197812
0.019718188
0.019651532
0.019581146
0.019507138
0.019429776
0.019349397
0.019266406
0.019181288
0.019094638
0.01900719
0.018919872
0.018833899
0.01875079
0.018672533
0.018601567
0.018540794
0.018492845
0.01845847
0.018437007
0.018426988
0.018426408
0.018432847
0.018444218
0.018458951
0.018476583
0.018101902
0.018114557
0.018129945
0.018146736
0.018170372
0.018203638
0.018248356
0.018305867
0.018376621
0.018459817
0.018552808
0.018652515
0.018756402
0.01886247
0.018969242
0.019075582
0.019180641
0.019283784
0.019384518
0.019482458
0.019577302
0.019668817
0.019756829
0.019841267
0.019922225
0.019999861
0.020074325
0.020145752
0.020214257
0.020279941
0.020342886
0.020403158
0.020460803
0.020515851
0.020568311
0.020618168
0.020665372
0.020709828
0.020751423
0.020790052
0.020825623
0.020858058
0.020887294
0.020913289
0.020936025