/*--------------------------------*- C++ -*----------------------------------*\
| =========                 |                                                 |
| \\      /  F ield         | OpenFOAM: The Open Source CFD Toolbox           |
|  \\    /   O peration     | Version:  2.4.0                                 |
|   \\  /    A nd           | Web:      www.OpenFOAM.org                      |
|    \\/     M anipulation  |                                                 |
\*---------------------------------------------------------------------------*/
FoamFile
{
    version     2.0;
    format      ascii;
    class       surfaceScalarField;
    location    "400";
    object      phi;
}
// * * * * * * * * * * * * * * * * * * * * * * * * * * * * * * * * * * * * * //

dimensions      [0 3 -1 0 0 0 0];

internalField   nonuniform List<scalar> 
38499
(
0.003250646
0.0002797776
0.0032515395
0.00025561224
0.0032518487
0.0002855383
0.0032521798
0.00037336191
0.0032528067
0.00051592875
0.0032541298
0.00071086422
0.003256399
0.0009520375
0.0032597863
0.0012291164
0.0032643328
0.0015277491
0.0032699062
0.0018233704
0.0032760909
0.0020657547
0.0032824707
0.0022484833
0.0032887344
0.0023845316
0.0032946492
0.0024819729
0.0033000575
0.0025514065
0.0033048459
0.0025973183
0.0033089366
0.0026253195
0.0033122673
0.0026386753
0.0033147757
0.00263949
0.0033163864
0.0026292465
0.0033170013
0.0026089297
0.0033164894
0.0025790795
0.0033146846
0.0025398338
0.0033113871
0.0024937294
0.0033063549
0.0024476587
0.0032992933
0.0024024865
0.0032898619
0.0023579915
0.0032776766
0.0023139359
0.0032623165
0.0022700929
0.0032433339
0.0022261867
0.0032202704
0.0021819105
0.0031926754
0.0021370631
0.003160122
0.002091426
0.0031222172
0.0020448087
0.0030786107
0.0019970561
0.0019480252
0.0027686156
-0.0012881495
0.0028022347
-0.001315947
0.0028355532
-0.0013470986
0.0028684706
-0.0013817883
0.002900858
-0.0014202092
0.0029325571
-0.0014625428
0.0029633808
-0.0015088513
0.0029931138
-0.0015591956
0.003021517
-0.0016135539
0.0030483329
-0.0016717598
0.0030732961
-0.0017325064
0.0030961645
-0.0017880991
0.0031167535
-0.0018351207
0.0031349387
-0.001872763
0.0031506698
-0.0018998939
0.0031639762
-0.0019149639
0.0031749742
-0.0019161332
0.0031838589
-0.0019011854
0.003190863
-0.001866899
0.0031962763
-0.0018074282
0.0032003513
-0.0017178525
0.0032034642
-0.001587891
0.0032060957
-0.0014091331
0.0032088108
-0.0011690384
0.0032121249
-0.00087504922
0.0032161722
-0.00057931548
0.003220887
-0.00030623418
0.0032260992
-6.9782075e-05
0.0032315132
0.00012021991
0.0032368618
0.00025840544
0.0032417163
0.00034166545
0.0032458852
0.00037073142
0.00034270418
0.0033776967
0.00027777346
0.0033788414
0.00025446749
0.0033794417
0.00028493801
0.0033801167
0.00037268694
0.0033811802
0.00051486527
0.0033830468
0.00070899758
0.0033859946
0.0009490897
0.0033902106
0.0012249003
0.0033957475
0.0015222123
0.0034024683
0.0018166496
0.003409928
0.002058295
0.0034176753
0.0022407361
0.0034253705
0.0023768365
0.0034327583
0.002474585
0.0034396648
0.0025445
0.0034459647
0.0025910185
0.0034515748
0.0026197094
0.0034564342
0.0026338159
0.0034604881
0.0026354361
0.0034636794
0.0026260552
0.003465935
0.0026066741
0.0034671594
0.0025778551
0.0034672285
0.0025397646
0.0034659932
0.0024949647
0.0034632703
0.0024503816
0.0034588294
0.0024069273
0.0034523948
0.0023644261
0.0034436488
0.0023226818
0.0034322348
0.0022815069
0.0034177622
0.0022406594
0.0033998158
0.0021998569
0.0033779703
0.0021589086
0.0033518052
0.002117591
0.0033209184
0.0020756956
0.0032849341
0.0020330403
0.0032435109
0.0019894485
0.0031963888
0.0019430365
0.0031434651
0.0018909689
0.0030847815
0.0018332204
0.0030205341
0.0017701151
0.0029510864
0.0017020735
0.0028769738
0.0016295464
0.0015530536
0.0029364656
-0.0013209257
0.0029689125
-0.001348394
0.0030009507
-0.0013791368
0.0030324746
-0.0014133122
0.003063351
-0.0014510856
0.00309342
-0.0014926118
0.0031224956
-0.0015379269
0.0031503671
-0.0015870672
0.0031768032
-0.00163999
0.0032015594
-0.001696516
0.0032243884
-0.0017553354
0.0032450766
-0.0018087874
0.003263471
-0.001853515
0.0032794825
-0.0018887745
0.0032930935
-0.001913505
0.0033043621
-0.0019262325
0.0033134285
-0.0019251996
0.003320495
-0.0019082519
0.0033257643
-0.0018721683
0.0033295529
-0.0018112168
0.0033321226
-0.0017204222
0.0033338711
-0.0015896395
0.0033353
-0.0014105621
0.0033370032
-0.0011707415
0.0033395202
-0.0008775662
0.0033429823
-0.00058277764
0.003347311
-0.00031056288
0.0033523116
-7.4782658e-05
0.0033576678
0.0001148637
0.0033630751
0.00025299811
0.0033680855
0.00033665513
0.0033724617
0.00036635519
0.00033947332
0.0035098124
0.00027553047
0.0035112087
0.00025307114
0.0035121049
0.0002840419
0.0035131349
0.0003716569
0.0035146515
0.00051334868
0.0035170881
0.000706561
0.0035207511
0.00094542665
0.0035258451
0.0012198064
0.0035324334
0.001515624
0.0035403773
0.0018087057
0.0035491982
0.002049474
0.0035584084
0.002231526
0.0035676391
0.0023676058
0.0035766088
0.0024656153
0.0035851262
0.0025359826
0.0035930518
0.002583093
0.003600294
0.0026124671
0.0036067887
0.0026273212
0.0036124862
0.0026297386
0.0036173389
0.0026212025
0.0036212929
0.0026027201
0.0036242798
0.0025748682
0.0036262102
0.0025378342
0.0036269767
0.0024941982
0.0036264484
0.0024509099
0.0036244523
0.0024089234
0.0036207737
0.0023681048
0.0036151566
0.0023282989
0.003607307
0.0022893565
0.0035968959
0.0022510705
0.0035835627
0.00221319
0.0035669237
0.0021755476
0.0035465845
0.0021379303
0.0035221526
0.0021001275
0.0034932486
0.0020619443
0.0034595125
0.0020231846
0.0034206417
0.0019819073
0.0033764555
0.0019351552
0.0033268861
0.0018827898
0.0032719926
0.0018250086
0.0032119746
0.0017620915
0.0031471839
0.001694337
0.0016221044
0.0031130618
-0.0013523736
0.0031440802
-0.0013794124
0.0031745847
-0.0014096413
0.0032044655
-0.001443193
0.0032335873
-0.0014802073
0.0032617902
-0.0015208147
0.0032888909
-0.0015650275
0.0033146848
-0.0016128611
0.0033389508
-0.0016642559
0.0033614589
-0.0017190241
0.003381982
-0.0017758584
0.003400335
-0.0018271405
0.003416398
-0.001869578
0.0034301145
-0.0019024911
0.0034414955
-0.0019248859
0.0034506215
-0.0019353585
0.0034576496
-0.0019322277
0.0034627919
-0.0019133942
0.0034662377
-0.001875614
0.0034683074
-0.0018132865
0.0034692839
-0.0017213987
0.0034695878
-0.0015899434
0.0034697444
-0.0014107187
0.0034703773
-0.0011713744
0.0034720511
-0.00087924005
0.0034748946
-0.00058562107
0.0034788136
-0.00031448191
0.0034835884
-7.9557463e-05
0.0034888792
0.00010957292
0.0034943431
0.0002475342
0.0034995103
0.00033148793
0.0035040972
0.00036176828
0.0003360011
0.0036471497
0.00027304577
0.0036488001
0.00025142071
0.0036499983
0.00028284373
0.0036513939
0.00037026125
0.0036533818
0.00051136083
0.0036564155
0.00070352729
0.0036608317
0.00094101039
0.0036668539
0.0012137843
0.0036745584
0.0015079194
0.0036838031
0.001799461
0.0036940755
0.0020392016
0.003704849
0.0022207524
0.0037157235
0.0023567313
0.0037263909
0.0024549478
0.0037366398
0.0025257337
0.0037463142
0.0025734186
0.0037553116
0.0026034697
0.0037635626
0.0026190702
0.0037710159
0.0026222853
0.0037776301
0.0026145883
0.0037833641
0.0025969862
0.003788169
0.0025700633
0.003791982
0.0025340212
0.0037947298
0.0024914505
0.0037963271
0.0024493126
0.0037966518
0.0024085987
0.0037955429
0.0023692137
0.0037928023
0.0023310395
0.0037881953
0.0022939635
0.0037814523
0.0022578135
0.0037722711
0.0022223712
0.0037603206
0.0021874982
0.0037452475
0.0021530034
0.0037266864
0.0021186886
0.0037042713
0.0020843594
0.0036776444
0.0020498116
0.0036464853
0.0020130663
0.003610566
0.0019710744
0.0035697462
0.0019236096
0.0035239861
0.0018707687
0.0034733614
0.0018127162
0.0034180763
0.0017496221
0.0016817041
0.0032985729
-0.0013822239
0.0033278978
-0.0014087373
0.003356608
-0.0014383516
0.0033845918
-0.0014711768
0.0034117127
-0.0015073282
0.0034378122
-0.0015469142
0.0034627117
-0.001589927
0.0034862144
-0.0016363638
0.0035081111
-0.0016861527
0.0035281877
-0.0017391008
0.0035462381
-0.0017939087
0.0035621061
-0.0018430085
0.0035757037
-0.0018831756
0.0035870038
-0.0019137912
0.0035960429
-0.001933925
0.003602918
-0.0019422336
0.003607798
-0.0019371077
0.0036109079
-0.0019165041
0.0036124461
-0.0018771522
0.0036126993
-0.0018135397
0.0036119904
-0.0017206899
0.0036107687
-0.0015887217
0.0036095819
-0.0014095319
0.0036090856
-0.001170878
0.0036098709
-0.00088002541
0.0036120616
-0.00058781171
0.0036155482
-0.00031796854
0.0036200835
-8.4092759e-05
0.0036253021
0.0001043543
0.0036308214
0.00024201494
0.0036361473
0.00032616202
0.0036409483
0.00035696726
0.00033228445
0.0037898654
0.00027031701
0.0037917736
0.0002495125
0.0037932795
0.00028133783
0.0037950526
0.00036848812
0.0037975297
0.00050888371
0.0038011891
0.00069986788
0.0038063978
0.00093580171
0.0038134005
0.0012067816
0.0038222874
0.0014990326
0.0038329135
0.0017888349
0.0038447315
0.0020273837
0.0038571732
0.0022083107
0.0038698056
0.0023440989
0.0038822919
0.0024424615
0.0038943992
0.0025136263
0.0039059537
0.0025618642
0.00391684
0.0025925833
0.0039269789
0.0026089313
0.0039363158
0.0026129484
0.0039448102
0.0026060938
0.0039524279
0.0025893684
0.0039591329
0.0025633583
0.0039648819
0.0025282722
0.0039696291
0.0024867033
0.0039733271
0.0024456146
0.0039758972
0.0024060285
0.0039772274
0.0023678835
0.0039771706
0.0023310963
0.0039755462
0.0022955879
0.0039721411
0.0022612186
0.0039667104
0.0022278019
0.0039589784
0.0021952301
0.0039486422
0.0021633395
0.0039353777
0.0021319531
0.0039188479
0.0021008892
0.003898712
0.0020699475
0.0038746515
0.0020371268
0.0038464148
0.0019993111
0.0038138178
0.0019562066
0.0037767544
0.0019078321
0.0037352116
0.001854259
0.0036892827
0.001795551
0.0017318069
0.0034931328
-0.0014102005
0.0035204936
-0.0014360981
0.0035471464
-0.0014650044
0.0035729773
-0.0014970077
0.0035978507
-0.0015322016
0.0036216116
-0.0015706751
0.0036440869
-0.0016124023
0.0036650897
-0.0016573666
0.0036844238
-0.0017054868
0.0037018923
-0.0017565693
0.0037173089
-0.0018093253
0.0037305474
-0.0018562469
0.0037415484
-0.0018941766
0.0037503123
-0.0019225551
0.0037568957
-0.0019405085
0.003761412
-0.0019467499
0.0037640404
-0.0019397361
0.0037650124
-0.0019174761
0.0037645355
-0.0018766753
0.0037628731
-0.0018118773
0.003760391
-0.0017182078
0.0037575635
-0.0015858942
0.0037549645
-0.0014069329
0.0037532806
-0.0011691941
0.0037531315
-0.0008798763
0.0037546358
-0.000589316
0.003757667
-0.00032099981
0.0037619498
-8.8375489e-05
0.0037670896
9.9214425e-05
0.0037726641
0.00023644046
0.0037781509
0.00032067526
0.0037831714
0.00035194679
0.00032831921
0.0039381155
0.0002673404
0.0039402854
0.00024734266
0.0039421052
0.00027951796
0.0039442678
0.0003663256
0.0039472535
0.00050589796
0.0039515672
0.00069555418
0.0039576091
0.00092975987
0.0039656463
0.0011987444
0.0039757836
0.0014888952
0.0039878751
0.0017767434
0.0040013349
0.0020139239
0.0040155533
0.0021940923
0.004030062
0.0023295903
0.0040444939
0.0024280295
0.0040585938
0.0024995265
0.0040721674
0.0025482906
0.0040850845
0.0025796662
0.0040972549
0.0025967609
0.0041086168
0.0026015866
0.0041191263
0.0025955844
0.0041287513
0.0025797434
0.0041374635
0.0025546461
0.0041452323
0.0025205033
0.0041520321
0.0024799035
0.0041578468
0.0024397999
0.0041626354
0.0024012399
0.0041663271
0.0023641919
0.0041688199
0.0023286035
0.0041699826
0.0022944253
0.0041696525
0.0022615486
0.004167638
0.0022298164
0.0041637184
0.0021991498
0.0041576442
0.0021694137
0.0041491401
0.0021404573
0.0041379099
0.0021121194
0.0041236437
0.0020842137
0.0041060396
0.0020547309
0.0040848403
0.0020205104
0.0040598393
0.0019812076
0.0040308906
0.0019367808
0.0039979213
0.0018872283
0.0039609449
0.0018325274
0.0017726782
0.003696838
-0.0014360245
0.0037219627
-0.0014612228
0.0037462945
-0.0014893362
0.0037697189
-0.0015204321
0.0037921027
-0.0015545853
0.0038132949
-0.0015918673
0.0038331299
-0.0016322373
0.0038514315
-0.0016756683
0.003868018
-0.0017220733
0.0038827085
-0.0017712598
0.0038953383
-0.0018219551
0.0039058073
-0.001866716
0.0039140842
-0.0019024536
0.0039201922
-0.0019286631
0.0039242074
-0.0019445236
0.0039262597
-0.0019488021
0.003926536
-0.0019400124
0.003925256
-0.0019161961
0.0039226478
-0.0018740671
0.0039189751
-0.0018082046
0.0039146344
-0.0017138671
0.0039101238
-0.0015813836
0.0039060424
-0.0014028516
0.0039031131
-0.0011662647
0.0039019831
-0.00087874638
0.0039027683
-0.0005901012
0.0039053214
-0.00032355292
0.0039093384
-9.2392424e-05
0.0039143939
9.4158932e-05
0.0039200241
0.00023081021
0.0039256753
0.00031502406
0.0039309201
0.00034670203
0.00032410038
0.0040920532
0.00026411224
0.0040944887
0.00024490716
0.00409663
0.00027737662
0.0040991946
0.00036376105
0.0041027082
0.00050238434
0.0041077061
0.00069055627
0.0041146221
0.00092284389
0.004123749
0.0011896175
0.0041352075
0.0014774367
0.0041488497
0.0017631012
0.0041640516
0.0019987219
0.0041801583
0.0021779856
0.0041966654
0.0023130833
0.0042131746
0.0024115203
0.0042294058
0.0024832953
0.0042451444
0.002532552
0.0042602429
0.0025645677
0.0042745982
0.0025824056
0.0042881379
0.002588047
0.0043008125
0.0025829097
0.0043125872
0.0025679687
0.0043234363
0.0025437971
0.0043333361
0.0025106035
0.004342275
0.0024709647
0.0043502616
0.0024318133
0.0043572859
0.0023942157
0.0043633119
0.0023581658
0.0043682781
0.0023236373
0.0043720942
0.0022906091
0.0043746444
0.0022589984
0.0043757847
0.0022286761
0.0043753449
0.0021995896
0.004373127
0.0021716315
0.0043689075
0.0021446768
0.0043624379
0.002118589
0.004353449
0.0020932026
0.0043416669
0.002066513
0.0043268434
0.0020353339
0.004308766
0.0019992851
0.0042872677
0.0019582791
0.0042622386
0.0019122574
0.0042336379
0.0018611281
0.0018048111
0.0039097457
-0.001459418
0.0039323659
-0.001483843
0.0039541179
-0.0015110881
0.0039748885
-0.0015412027
0.0039945474
-0.0015742442
0.004012949
-0.0016102689
0.0040299372
-0.0016492255
0.0040453468
-0.0016910779
0.0040590099
-0.0017357364
0.0040707634
-0.0017830133
0.0040804603
-0.0018316519
0.0040880262
-0.0018742818
0.0040934552
-0.0019078827
0.0040967913
-0.0019319992
0.0040981276
-0.0019458599
0.0040976113
-0.0019482859
0.0040954337
-0.0019378348
0.004091781
-0.0019125434
0.0040869299
-0.001869216
0.0040811545
-0.0018024292
0.0040748711
-0.0017075838
0.0040685994
-0.0015751119
0.0040629673
-0.0013972194
0.0040587333
-0.0011620308
0.0040565774
-0.00087659047
0.0040566094
-0.00059013315
0.0040586618
-0.00032560536
0.0040624004
-9.6131009e-05
0.0040673664
8.9192942e-05
0.0040730526
0.00022512403
0.0040788724
0.00030920417
0.0040843471
0.00034122733
0.00031962248
0.0042518309
0.00026062779
0.0042545366
0.00024220144
0.0042570061
0.00027490714
0.0042599852
0.00036078195
0.0042640467
0.0004983228
0.0042697594
0.00068484361
0.0042775918
0.00091501151
0.0042878645
0.0011793448
0.0043007153
0.0014645858
0.0043159958
0.0017478208
0.004333042
0.0019816758
0.0043511516
0.0021598759
0.0043697831
0.0022944518
0.0043885046
0.0023927987
0.0044070117
0.0024647883
0.0044250662
0.0025144974
0.0044425035
0.0025471304
0.0044592054
0.0025657037
0.004475087
0.0025721654
0.0044900895
0.0025679072
0.0045041729
0.0025538853
0.0045173087
0.0025306612
0.0045294754
0.0024984368
0.0045406692
0.0024597709
0.0045509181
0.0024215644
0.0045602372
0.0023848967
0.0045686196
0.0023497834
0.0045760356
0.0023162212
0.0045824334
0.0022842113
0.0045877356
0.0022536962
0.0045918413
0.0022245704
0.0045946251
0.0021968058
0.0045959372
0.0021703194
0.004595603
0.002145011
0.0045934226
0.0021207693
0.0045891742
0.0020974511
0.00458262
0.0020730672
0.0045735322
0.0020444217
0.0045617047
0.0020111125
0.0045469643
0.0019730195
0.0045291814
0.0019300403
0.0045082799
0.0018820296
0.0018288417
0.0041318764
-0.0014801092
0.0041517309
-0.0015036975
0.0041706533
-0.0015300105
0.0041885327
-0.0015590821
0.0042052426
-0.0015909542
0.0042206449
-0.0016256712
0.0042345919
-0.0016631725
0.0042469306
-0.0017034166
0.0042575073
-0.0017463131
0.0042661735
-0.0017916794
0.0042728001
-0.0018382785
0.0042773366
-0.0018788184
0.0042797994
-0.0019103455
0.0042802507
-0.0019324505
0.0042787977
-0.0019444068
0.0042756013
-0.0019450895
0.0042708569
-0.0019330904
0.0042647285
-0.0019064149
0.0042575352
-0.0018620228
0.0042495668
-0.0017944609
0.0042412547
-0.0016992716
0.0042331429
-0.001567
0.0042258894
-0.0013899659
0.0042202922
-0.0011564336
0.0042170637
-0.00087336204
0.0042163085
-0.00058937796
0.0042178381
-0.00032713493
0.0042212857
-9.957861e-05
0.0042261565
8.4322122e-05
0.0042319002
0.00021938035
0.0042378928
0.00030321158
0.0042436043
0.00033551587
0.00031488027
0.0044175978
0.00025688339
0.0044205783
0.00023922095
0.0044233837
0.00027210179
0.0044267903
0.00035737532
0.0044314201
0.00049369298
0.0044378776
0.00067838614
0.0044466693
0.00090621983
0.0044581448
0.0011678693
0.0044724608
0.0014502698
0.0044894685
0.0017308131
0.0045084622
0.0019626821
0.0045286914
0.0021396467
0.0045495752
0.002273568
0.0045706479
0.002371726
0.0045915781
0.0024438582
0.0046121052
0.0024939703
0.0046320446
0.002527191
0.0046512616
0.0025464867
0.0046696578
0.0025537692
0.0046871629
0.0025504021
0.0047037273
0.0025373208
0.0047193175
0.002515071
0.0047339084
0.0024838459
0.0047475
0.0024461793
0.0047601341
0.0024089303
0.0047718445
0.0023731863
0.0047826483
0.0023389796
0.004792543
0.0023063265
0.0048015068
0.0022752475
0.0048094968
0.0022457063
0.0048164487
0.0022176185
0.004822277
0.0021909775
0.004826874
0.0021657225
0.0048301095
0.0021417755
0.0048318309
0.0021190479
0.0048318625
0.0020974195
0.0048300081
0.0020749216
0.0048260673
0.0020483625
0.0048198512
0.0020173285
0.0048111918
0.001981679
0.0047999519
0.0019412801
0.0047860363
0.0018959452
0.001845478
0.0043632161
-0.0014978381
0.0043800558
-0.0015205372
0.0043959126
-0.0015458673
0.0044106779
-0.0015738474
0.0044242306
-0.0016045068
0.0044364392
-0.0016378798
0.0044471659
-0.0016738992
0.0044562693
-0.00171252
0.0044636086
-0.0017536525
0.0044690501
-0.0017971209
0.0044724788
-0.0018417073
0.0044738661
-0.0018802057
0.0044732489
-0.0019097283
0.0044707058
-0.0019299073
0.0044663555
-0.0019400565
0.0044603653
-0.0019390993
0.0044529385
-0.0019256636
0.0044442607
-0.0018977371
0.0044346259
-0.0018523879
0.0044243672
-0.0017842022
0.0044139366
-0.001688841
0.004403904
-0.0015569674
0.0043949586
-0.0013810206
0.0043879388
-0.0011494138
0.0043835916
-0.00086901477
0.0043820157
-0.00058780208
0.0043829997
-0.00032811891
0.0043861432
-0.00010272213
0.0043909143
7.9551006e-05
0.004396716
0.00021357868
0.0044028856
0.000297042
0.0044088403
0.00032956115
0.00030986713
0.0045895026
0.00025287408
0.0045927631
0.00023596053
0.0045959108
0.00026895409
0.0045997584
0.00035352766
0.0046049768
0.00048847459
0.0046122103
0.00067115268
0.0046220041
0.00089642596
0.0046347395
0.001155134
0.0046505935
0.0014344157
0.004669418
0.0017119886
0.0046904637
0.0019416363
0.0047129306
0.0021171798
0.0047361962
0.0022503024
0.0047597606
0.0023481616
0.0047832647
0.002420354
0.0048064235
0.0024708114
0.0048290325
0.002504582
0.0048509393
0.0025245799
0.00487203
0.0025326785
0.0048922207
0.0025302115
0.0049114509
0.0025180906
0.0049296773
0.0024968447
0.0049468688
0.0024666544
0.0049630236
0.0024300245
0.0049781932
0.0023937606
0.0049924259
0.0023589536
0.0050057562
0.0023256493
0.0050182039
0.0022938789
0.0050297716
0.0022636798
0.0050404449
0.002235033
0.0050501911
0.0022078723
0.005058958
0.0021822105
0.0050666754
0.0021580051
0.0050732521
0.0021351988
0.0050785771
0.0021137228
0.0050825182
0.0020934784
0.0050849205
0.0020725193
0.0050856153
0.0020476678
0.0050844368
0.0020185069
0.0050812311
0.0019848847
0.0050758644
0.0019466469
0.0050682322
0.0019035774
0.0018554409
0.0044265719
-0.0013013808
0.0044468315
-0.0013336018
0.0044666964
-0.0013624655
0.0044860874
-0.0013881577
0.0045049358
-0.0014108294
0.004523182
-0.0014305521
0.0045407743
-0.0014473468
0.0045576691
-0.0014615537
0.0045738276
-0.0014761801
0.0045892004
-0.001493075
0.0046037231
-0.0015123608
0.0046173171
-0.0015341311
0.0046298896
-0.0015584398
0.0046413364
-0.0015852942
0.004651541
-0.0016147114
0.0046603802
-0.001646719
0.004667725
-0.001681244
0.0046734449
-0.0017182398
0.004677411
-0.0017576185
0.0046795014
-0.0017992113
0.0046796152
-0.0018418211
0.004677742
-0.0018783325
0.0046739381
-0.0019059244
0.004668296
-0.0019242653
0.004660949
-0.0019327095
0.0046520701
-0.0019302204
0.0046418461
-0.0019154396
0.0046305152
-0.0018864062
0.0046183386
-0.0018402112
0.0046056969
-0.0017715605
0.0045930619
-0.001676206
0.0045810303
-0.0015449358
0.0045703232
-0.0013703135
0.004561822
-0.0011409126
0.0045563092
-0.00086350194
0.004553879
-0.0005853719
0.0045542942
-0.00032853415
0.0045571214
-0.00010554935
0.0045617872
7.4885221e-05
0.0045676484
0.00020771753
0.0045739998
0.00029069057
0.0045802038
0.00032335713
0.00030457762
0.0047676925
0.00024859567
0.0047712369
0.00023241618
0.0047747353
0.0002654557
0.0047790363
0.00034922661
0.0047848633
0.00048264761
0.0047929031
0.00066311289
0.0048037418
0.0008855872
0.0048177946
0.0011410812
0.0048352597
0.0014169507
0.0048559905
0.0016912578
0.0048791932
0.0019184336
0.0049040158
0.0020923572
0.0049297944
0.0022245239
0.0049559914
0.0023219645
0.0049822214
0.0023941241
0.0050081733
0.0024448595
0.0050336219
0.0024791334
0.0050583967
0.0024998052
0.0050823668
0.0025087083
0.0051054335
0.0025071448
0.0051275226
0.0024960015
0.0051485794
0.0024757879
0.0051685625
0.0024466713
0.0051874654
0.0024111216
0.0052053451
0.002375881
0.0052222596
0.0023420391
0.0052382566
0.0023096523
0.0052533726
0.0022787629
0.0052676302
0.0022494223
0.0052810378
0.0022216253
0.005293588
0.0021953222
0.0053052576
0.0021705408
0.0053160071
0.0021472556
0.0053257796
0.0021254263
0.0053345002
0.0021050022
0.005342076
0.0020859026
0.0053483888
0.0020662066
0.0053533013
0.0020427552
0.005356674
0.0020151343
0.0053583724
0.0019831863
0.0053582734
0.0019467459
0.0053562733
0.0019055775
0.0018594184
0.0047091059
-0.0013189017
0.0047262587
-0.0013507547
0.0047429595
-0.0013791663
0.0047591357
-0.0014043338
0.0047747256
-0.0014264194
0.0047896763
-0.0014455028
0.0048039425
-0.001461613
0.0048174873
-0.0014750984
0.0048302711
-0.0014889639
0.0048422428
-0.0015050466
0.0048533374
-0.0015234555
0.0048634762
-0.0015442699
0.0048725688
-0.0015675325
0.0048805143
-0.0015932396
0.0048872024
-0.0016213995
0.0048925164
-0.0016520331
0.0048963365
-0.0016850642
0.0048985416
-0.0017204449
0.0048990135
-0.0017580904
0.0048976401
-0.0017978379
0.0048943313
-0.0018385123
0.0048890952
-0.0018730963
0.0048820038
-0.0018988331
0.0048731648
-0.0019154262
0.0048627237
-0.0019222684
0.0048508558
-0.0019183525
0.0048377221
-0.0019023059
0.004823621
-0.0018723052
0.004808812
-0.0018254022
0.0047937
-0.0017564485
0.0047787771
-0.0016612831
0.004764669
-0.0015308277
0.0047521314
-0.0013577759
0.0047420898
-0.001130871
0.0047353659
-0.000856778
0.0047320466
-0.00058205255
0.0047318711
-0.00032835874
0.0047343684
-0.00010804662
0.0047389238
7.0329847e-05
0.0047448454
0.00020179596
0.0047513822
0.0002841537
0.0047578425
0.00031689683
0.00029900604
0.0049523133
0.00024404488
0.0049561467
0.00022858278
0.0049600019
0.00026160057
0.004964769
0.00034445951
0.004971225
0.00047619159
0.0049801013
0.00065423656
0.0049920275
0.00087366107
0.0050074538
0.0011256548
0.0050266026
0.0013978019
0.0050493285
0.0016685319
0.0050747926
0.0018929695
0.0051020884
0.0020650614
0.0051305096
0.0021961027
0.0051594811
0.0022929931
0.0051885888
0.0023650163
0.0052174959
0.0024159524
0.0052459555
0.0024506738
0.0052737783
0.0024719824
0.005300816
0.0024816706
0.0053269532
0.0024810075
0.0053521009
0.0024708539
0.0053761905
0.0024516983
0.0053991681
0.0024236937
0.0054210188
0.0023892709
0.005441802
0.0023550977
0.0054615821
0.002322259
0.005480416
0.0022908184
0.0054983515
0.0022608274
0.0055154268
0.0022323469
0.0055316678
0.0022053844
0.0055470882
0.0021799018
0.0055616879
0.0021559411
0.005575453
0.0021334905
0.0055883553
0.002112524
0.0056003508
0.0020930068
0.0056113795
0.0020748739
0.0056213561
0.00205623
0.0056301709
0.0020339404
0.0056377099
0.0020075953
0.0056438599
0.0019770363
0.0056485127
0.0019420931
0.005651572
0.0019025183
0.0018580311
0.0050031236
-0.0013330961
0.0050168882
-0.0013645193
0.0050301481
-0.0013924262
0.0050428399
-0.0014170256
0.0050549094
-0.0014384888
0.0050663119
-0.0014569054
0.00507701
-0.0014723111
0.0050869726
-0.001485061
0.0050961622
-0.0014981536
0.0051045254
-0.0015134098
0.005111996
-0.0015309261
0.0051184965
-0.0015507705
0.0051239387
-0.0015729747
0.0051282252
-0.0015975261
0.005131251
-0.0016244253
0.005132906
-0.001653688
0.0051330777
-0.0016852359
0.005131654
-0.0017190212
0.0051285245
-0.0017549609
0.0051235866
-0.0017929
0.0051167586
-0.0018316843
0.0051080639
-0.0018644016
0.005097591
-0.0018883602
0.0050854595
-0.0019032947
0.0050718201
-0.001908629
0.0050568446
-0.001903377
0.0050407154
-0.0018861767
0.0050237367
-0.0018553265
0.0050061991
-0.0018078646
0.0049885259
-0.0017387754
0.0049712302
-0.0016439874
0.0049549677
-0.0015145651
0.0049405301
-0.0013433383
0.0049288902
-0.0011192311
0.0049209087
-0.00084879654
0.0049166674
-0.00057781118
0.0049158777
-0.00032756912
0.0049180325
-0.00011020135
0.0049224722
6.5890075e-05
0.0049284542
0.00019581397
0.0049351813
0.00027742668
0.0049419031
0.00031017496
0.00029314659
0.005143512
0.00023921798
0.0051476382
0.00022445653
0.0051518573
0.00025738155
0.0051571025
0.00033921429
0.0051642066
0.00046908749
0.0051739488
0.00064449432
0.0051870042
0.00086060566
0.0052038597
0.0011087993
0.0052247631
0.0013768985
0.0052495718
0.0016437233
0.0052773994
0.0018651419
0.0053072852
0.0020351757
0.0053384772
0.0021649106
0.0053703633
0.0022611069
0.005402499
0.0023328807
0.005434522
0.0023839294
0.0054661634
0.0024190325
0.0054972141
0.0024409317
0.0055275076
0.0024513771
0.0055569118
0.0024516033
0.0055853212
0.0024424445
0.0056126513
0.0024243682
0.0056388339
0.0023975111
0.0056638432
0.0023642615
0.0056877383
0.0023312026
0.0057105863
0.002299411
0.0057324505
0.0022689543
0.0057533864
0.0022398914
0.0057734428
0.0022122905
0.0057926595
0.0021861677
0.0058110651
0.0021614961
0.005828679
0.0021383273
0.0058455077
0.0021166618
0.0058615459
0.0020964858
0.0058767758
0.0020777769
0.005891165
0.0020604846
0.0059046557
0.0020427394
0.0059171604
0.0020214357
0.0059285881
0.0019961677
0.0059388449
0.0019667795
0.0059478397
0.0019330982
0.0059554866
0.0018948714
0.0018518071
0.0053082677
-0.001343708
0.0053183919
-0.0013746435
0.0053279651
-0.0014019994
0.0053369332
-0.0014259938
0.005345252
-0.0014468076
0.0053528852
-0.0014645385
0.005359804
-0.0014792299
0.0053659851
-0.001491242
0.0053713917
-0.0015035602
0.005375969
-0.001517987
0.00537965
-0.0015346071
0.0053823581
-0.0015534785
0.0053840067
-0.0015746233
0.0053845019
-0.0015980213
0.0053837433
-0.0016236667
0.0053816261
-0.0016515709
0.0053780451
-0.0016816548
0.0053728938
-0.0017138699
0.0053660699
-0.0017481371
0.0053574767
-0.0017843068
0.0053470398
-0.0018212474
0.0053347974
-0.0018521592
0.0053208521
-0.0018744149
0.0053053347
-0.0018877773
0.0052883937
-0.0018916881
0.0052701821
-0.0018851654
0.0052509617
-0.0018669563
0.0052310039
-0.0018353688
0.0052106425
-0.0017875032
0.005190318
-0.0017184508
0.0051705656
-0.0016242351
0.0051520723
-0.0014960718
0.005135667
-0.001326933
0.005122371
-0.0011059351
0.0051130866
-0.00083951214
0.0051078891
-0.00057261372
0.0051064634
-0.00032614342
0.0051082624
-0.00011200038
0.0051125807
6.1571813e-05
0.005118624
0.00018977071
0.0051255443
0.00027050629
0.0051325338
0.00030318554
0.00028699528
0.0053414356
0.00023411325
0.0053458591
0.00022003299
0.005350448
0.00025279272
0.0053561825
0.00033347981
0.0053639537
0.00046131627
0.0053745906
0.00063385741
0.0053888147
0.0008463815
0.0054071534
0.0010904607
0.0054298805
0.0013541714
0.0054568573
0.0016167464
0.0054871491
0.0018348501
0.0055197374
0.0020025873
0.0055538265
0.0021308215
0.0055887632
0.0022261702
0.0056240748
0.0022975691
0.0056593717
0.0023486325
0.005694363
0.0023840412
0.0057288192
0.0024064755
0.0057625558
0.0024176404
0.0057954224
0.0024187368
0.0058272967
0.0024105702
0.0058580771
0.0023935878
0.0058876793
0.0023679089
0.0059160641
0.0023358768
0.0059432886
0.0023039781
0.0059694209
0.0022732787
0.0059945264
0.0022438488
0.0060186662
0.0022157516
0.006041896
0.0021890606
0.0060642645
0.0021637993
0.0060858127
0.0021399479
0.006106573
0.002117567
0.006126569
0.0020966658
0.0061458138
0.002077241
0.0061643098
0.0020592808
0.0061820482
0.0020427463
0.0061989924
0.0020257952
0.0062150732
0.0020053548
0.0062302168
0.0019810241
0.0062443468
0.0019526495
0.0062573865
0.0019200585
0.0062692619
0.001882996
0.001841165
0.0056241668
-0.0013505164
0.0056304354
-0.0013809122
0.0056361123
-0.0014076763
0.0056411553
-0.0014310367
0.0056455303
-0.0014511827
0.0056492101
-0.0014682183
0.0056521753
-0.0014821951
0.0056544109
-0.0014934777
0.0056558809
-0.0015050302
0.0056565284
-0.0015186345
0.0056562858
-0.0015343645
0.0056550765
-0.0015522693
0.0056528155
-0.0015723623
0.0056494113
-0.0015946171
0.0056447676
-0.0016190229
0.0056387841
-0.0016455874
0.0056313602
-0.0016742309
0.0056223958
-0.0017049055
0.0056117935
-0.0017375348
0.0055994619
-0.0017719752
0.005585332
-0.0018071175
0.0055694543
-0.0018362814
0.0055519439
-0.0018569045
0.0055329352
-0.0018687686
0.0055125663
-0.0018713192
0.0054910088
-0.0018636079
0.0054685837
-0.0018445312
0.0054455553
-0.0018123403
0.0054222787
-0.0017642266
0.0053992164
-0.0016953886
0.0053769265
-0.0016019451
0.0053561278
-0.0014752731
0.0053376879
-0.0013084931
0.0053226794
-0.0010909266
0.005312048
-0.00082888075
0.0053058623
-0.00056642801
0.0053037779
-0.000324059
0.0053052086
-0.00011343104
0.0053094005
5.7379918e-05
0.0053155052
0.00018366596
0.0053226219
0.00026338957
0.0053298838
0.00029592368
0.00028054817
0.0055462343
0.00022872947
0.00555096
0.00021530724
0.0055559243
0.00024782847
0.0055621579
0.00032724621
0.0055706136
0.00045286056
0.0055821721
0.00062229887
0.0055976039
0.00083094969
0.0056174772
0.0010705874
0.0056420943
0.0013295543
0.0056713207
0.00158752
0.0057041726
0.0018019981