/*--------------------------------*- C++ -*----------------------------------*\
| =========                 |                                                 |
| \\      /  F ield         | OpenFOAM: The Open Source CFD Toolbox           |
|  \\    /   O peration     | Version:  2.4.0                                 |
|   \\  /    A nd           | Web:      www.OpenFOAM.org                      |
|    \\/     M anipulation  |                                                 |
\*---------------------------------------------------------------------------*/
FoamFile
{
    version     2.0;
    format      ascii;
    class       volScalarField;
    location    "370";
    object      k;
}
// * * * * * * * * * * * * * * * * * * * * * * * * * * * * * * * * * * * * * //

dimensions      [0 2 -2 0 0 0 0];

internalField   nonuniform List<scalar> 
19475
(
8.2867779e-07
4.4795764e-07
1.2927028e-06
7.9423426e-07
9.9475801e-07
3.2361414e-07
1.378708e-07
1.4063932e-08
8.016483e-08
1.8267104e-07
1.3213294e-07
1.0953245e-07
6.3218262e-08
5.1384855e-08
3.5704613e-08
3.25703e-08
2.5797612e-08
2.4523885e-08
2.0795386e-08
1.9286645e-08
1.6557407e-08
1.5009633e-08
1.3027726e-08
1.2093981e-08
1.1142929e-08
1.0741759e-08
1.0392854e-08
1.0436707e-08
1.0604591e-08
1.1122797e-08
1.1849175e-08
1.2939021e-08
1.4322517e-08
1.6108944e-08
1.8225378e-08
2.0665689e-08
2.3121206e-08
2.5590555e-08
2.8075095e-08
3.0503398e-08
8.9619389e-08
8.5460146e-08
8.1431549e-08
7.7537051e-08
7.3771687e-08
7.0138766e-08
6.6631064e-08
6.3253323e-08
5.9996676e-08
5.6868e-08
5.3855679e-08
5.0969219e-08
4.8193158e-08
4.5540303e-08
4.2990697e-08
4.0561855e-08
3.8228676e-08
3.6014655e-08
3.3887926e-08
3.187938e-08
2.9948687e-08
2.8135921e-08
2.6390971e-08
2.4765267e-08
2.3196002e-08
2.1749002e-08
2.0345978e-08
1.9070254e-08
1.7824783e-08
1.6714167e-08
1.5617946e-08
1.4666809e-08
1.3712165e-08
1.291694e-08
1.2098281e-08
1.1459012e-08
1.0774276e-08
1.0295969e-08
9.7477592e-09
9.4421021e-09
9.0414139e-09
8.9309413e-09
8.7020419e-09
8.8209068e-09
8.7497944e-09
8.990381e-09
9.2520707e-09
9.411382e-09
9.7120488e-09
9.6241947e-09
9.6286963e-09
9.2671678e-09
8.9456985e-09
8.3264192e-09
7.709042e-09
6.8777751e-09
6.0424513e-09
5.0895179e-09
4.1673382e-09
3.239873e-09
2.4164938e-09
1.6946039e-09
2.4484677e-09
4.0096625e-09
6.4653067e-09
1.0205818e-08
1.5512529e-08
2.2833474e-08
3.240984e-08
4.4682162e-08
5.9730149e-08
7.7800312e-08
9.8288851e-08
1.2029645e-07
1.441406e-07
1.7005048e-07
1.9763727e-07
2.2747138e-07
2.6244111e-07
2.9166499e-07
3.2758742e-07
3.7129217e-07
4.2472926e-07
4.8885696e-07
5.7011942e-07
6.7490287e-07
8.2446704e-07
1.0046264e-06
1.2416094e-06
1.5206504e-06
1.8979429e-06
2.3367267e-06
2.9515964e-06
3.6769174e-06
4.7186856e-06
5.9421466e-06
7.6650742e-06
9.2430732e-06
1.0892874e-05
1.050935e-05
9.0872308e-06
6.4885684e-06
4.6640636e-06
2.5015091e-06
1.7481561e-06
6.6871762e-07
7.4523374e-07
1.7541997e-07
1.2382023e-07
2.0354172e-07
1.8817941e-07
2.3871667e-07
6.3701374e-07
1.3021846e-07
7.5796992e-08
3.4928539e-08
6.3120792e-08
3.3662025e-08
2.3384319e-08
1.8533785e-08
1.0706384e-08
8.5417108e-09
6.023064e-09
5.4731553e-09
4.4104616e-09
4.1940667e-09
3.6184885e-09
3.3794432e-09
2.9591058e-09
2.7178348e-09
2.4145365e-09
2.2755478e-09
2.1427186e-09
2.0992872e-09
2.0705268e-09
2.1078627e-09
2.1718965e-09
2.2976061e-09
2.4651244e-09
2.6992144e-09
2.9911944e-09
3.3592306e-09
3.7938589e-09
4.2945146e-09
4.8123962e-09
5.3459063e-09
5.8976531e-09
6.4577759e-09
8.4092407e-08
8.2993039e-08
8.1902919e-08
8.082302e-08
7.9752841e-08
7.8693199e-08
7.764306e-08
7.6603358e-08
7.5572711e-08
7.4552398e-08
7.354053e-08
7.2538881e-08
7.1544789e-08
7.0560557e-08
6.9582514e-08
6.8613662e-08
6.7649198e-08
6.6693244e-08
6.573944e-08
6.47933e-08
6.3846465e-08
6.2906096e-08
6.1961356e-08
6.1021852e-08
6.0073153e-08
5.9128026e-08
5.816776e-08
5.720911e-08
5.6227716e-08
5.5245601e-08
5.4231164e-08
5.321303e-08
5.2150379e-08
5.1080312e-08
4.9950455e-08
4.8808852e-08
4.7589371e-08
4.6353396e-08
4.5019522e-08
4.3663746e-08
4.219076e-08
4.0690269e-08
3.906686e-08
3.7411731e-08
3.5503905e-08
3.3651817e-08
3.3095323e-08
3.3351698e-08
3.4110063e-08
3.5008571e-08
3.6065543e-08
3.7173385e-08
3.8355285e-08
3.9567204e-08
4.0823924e-08
4.2113741e-08
4.3450466e-08
4.4843471e-08
4.6318005e-08
4.7918759e-08
4.9752317e-08
5.180572e-08
5.4215902e-08
5.6864538e-08
5.9742911e-08
6.289603e-08
6.6347331e-08
7.0140828e-08
7.4281254e-08
7.8794818e-08
8.3639965e-08
8.8753054e-08
9.3822574e-08
9.873045e-08
1.0369449e-07
1.0880493e-07
1.1405942e-07
1.1515033e-07
3.4650013e-07
3.1029598e-07
3.0206358e-07
3.0842713e-07
3.2264444e-07
3.4288911e-07
3.7041e-07
4.0813081e-07
4.5805457e-07
5.1675935e-07
5.891108e-07
6.7204905e-07
8.5228405e-07
9.7717354e-07
1.1413844e-06
1.3418333e-06
8.7881844e-07
1.1084242e-06
1.4550027e-06
1.7770495e-06
2.0798392e-06
2.0279171e-06
1.7880517e-06
1.3501389e-06
1.8605832e-06
1.2070764e-06
8.4647739e-07
5.4494674e-07
5.0042194e-07
1.3713939e-07
1.442121e-07
1.0255197e-06
1.881393e-07
9.258842e-07
3.0454295e-06
6.1712934e-07
4.1172572e-07
2.4121871e-07
3.2073903e-07
5.042038e-08
2.9497102e-08
1.8362192e-08
1.0611439e-08
7.5230242e-09
5.8480758e-09
5.2027218e-09
4.6548049e-09
4.4423846e-09
4.2043301e-09
4.0681048e-09
3.9013408e-09
3.7888598e-09
3.6835229e-09
3.6639463e-09
3.7041552e-09
3.8116942e-09
3.9688846e-09
4.1900992e-09
4.4726157e-09
4.831579e-09
5.2724232e-09
5.810886e-09
6.457234e-09
7.2276281e-09
8.1298146e-09
9.1654264e-09
1.0306771e-08
1.1544914e-08
1.2896591e-08
1.436542e-08
5.2236753e-07
5.186232e-07
5.1481162e-07
5.1093634e-07
5.0699879e-07
5.0300156e-07
4.9894453e-07
4.9482964e-07
4.9065594e-07
4.8642567e-07
4.8213703e-07
4.7779316e-07
4.7339058e-07
4.6893287e-07
4.6441382e-07
4.5983731e-07
4.5519411e-07
4.5049012e-07
4.457117e-07
4.4086734e-07
4.359375e-07
4.309332e-07
4.2582691e-07
4.2063582e-07
4.1531921e-07
4.099025e-07
4.0432971e-07
3.9863731e-07
3.9274736e-07
3.8671297e-07
3.8042736e-07
3.7396497e-07
3.6718068e-07
3.6017766e-07
3.5276162e-07
3.4507457e-07
3.36865e-07
3.2832182e-07
3.1913493e-07
3.0953762e-07
2.9918132e-07
2.883244e-07
2.7669084e-07
2.6446652e-07
2.5060395e-07
2.3685273e-07
2.3254016e-07
2.3425339e-07
2.3949468e-07
2.4616346e-07
2.5389721e-07
2.6238176e-07
2.7136712e-07
2.8087982e-07
2.9071887e-07
3.0102138e-07
3.1167143e-07
3.2285552e-07
3.3460549e-07
3.4728652e-07
3.6156062e-07
3.77328e-07
3.9417635e-07
4.1193459e-07
4.3044394e-07
4.496335e-07
4.6938234e-07
4.8954899e-07
5.0991839e-07
5.3022931e-07
5.5009494e-07
5.6878827e-07
5.8466986e-07
5.9781771e-07
6.0948812e-07
6.2010334e-07
6.3001374e-07
6.05009e-07
1.9422648e-06
1.6810849e-06
1.5904612e-06
1.5850004e-06
1.6195271e-06
1.6813123e-06
1.7715832e-06
1.9022639e-06
2.0642527e-06
2.2504449e-06
2.4647296e-06
2.7025381e-06
3.4081082e-06
3.7357031e-06
4.1319232e-06
4.6479106e-06
1.3601839e-06
1.7302454e-06
2.4106543e-06
3.0673441e-06
3.5166697e-06
3.5479941e-06
3.314801e-06
2.8863314e-06
7.0780907e-06
5.1292572e-06
3.6031032e-06
2.7925332e-06
2.4287659e-06
8.2166662e-07
4.757175e-07
3.7823903e-06
5.9834467e-07
3.3595681e-06
9.2935903e-06
2.2655034e-06
1.5252269e-06
9.0439095e-07
9.7979509e-07
1.5895172e-07
8.942077e-08
5.155238e-08
2.9789166e-08
2.0123598e-08
1.6270092e-08
1.4354317e-08
1.3343049e-08
1.2750081e-08
1.2428731e-08
1.2152649e-08
1.1945757e-08
1.176299e-08
1.1671087e-08
1.1738786e-08
1.2029462e-08
1.2486924e-08
1.3120042e-08
1.3931035e-08
1.4949984e-08
1.6199041e-08
1.7719513e-08
1.9546345e-08
2.1727928e-08
2.4307653e-08
2.732513e-08
3.078756e-08
3.4639421e-08
3.8847814e-08
4.3473843e-08
4.8541888e-08
1.9470337e-06
1.933591e-06
1.9198769e-06
1.9059043e-06
1.8916792e-06
1.8772107e-06
1.8624997e-06
1.8475526e-06
1.8323671e-06
1.8169508e-06
1.8012984e-06
1.7854205e-06
1.7693062e-06
1.752967e-06
1.7363827e-06
1.719565e-06
1.7024833e-06
1.685156e-06
1.6675368e-06
1.6496528e-06
1.6314368e-06
1.6129243e-06
1.5940191e-06
1.5747785e-06
1.5550586e-06
1.5349454e-06
1.51424e-06
1.4930675e-06
1.4711493e-06
1.4486695e-06
1.425245e-06
1.4011363e-06
1.3758202e-06
1.3496605e-06
1.3219543e-06
1.2932056e-06
1.2625028e-06
1.2305185e-06
1.1961291e-06
1.1601648e-06
1.1213663e-06
1.0806476e-06
1.0370312e-06
9.9114792e-07
9.3920033e-07
8.8773232e-07
8.7162533e-07
8.7804375e-07
8.97692e-07
9.227586e-07
9.5181359e-07
9.8374303e-07
1.0175477e-06
1.053378e-06
1.090434e-06
1.1292628e-06
1.1693989e-06
1.2115597e-06
1.2558467e-06
1.3036393e-06
1.35739e-06
1.4167045e-06
1.4798475e-06
1.546285e-06
1.6154015e-06
1.6868761e-06
1.7602138e-06
1.8348136e-06
1.9098322e-06
1.984227e-06
2.0565226e-06
2.1239444e-06
2.1804708e-06
2.2265652e-06
2.2668744e-06
2.3029503e-06
2.3361112e-06
2.2303792e-06
5.9775315e-06
5.1572593e-06
4.8652047e-06
4.8353592e-06
4.9271139e-06
5.1006394e-06
5.3583026e-06
5.7354053e-06
6.2008801e-06
6.7356985e-06
7.3475856e-06
8.02357e-06
9.6968254e-06
1.0544511e-05
1.1588191e-05
1.2990166e-05
4.3170591e-06
5.5190816e-06
7.7709956e-06
9.9561496e-06
1.136527e-05
1.1537913e-05
1.0889188e-05
9.6905782e-06
2.1224641e-05
1.5487313e-05
1.0881622e-05
8.5505248e-06
7.4104309e-06
3.0567062e-06
1.3641007e-06
1.0095355e-05
1.7121405e-06
8.9545029e-06
2.0136973e-05
6.0267374e-06
4.0714867e-06
2.4187435e-06
2.1136288e-06
4.1341434e-07
2.3199713e-07
1.3237157e-07
7.6488255e-08
5.1266774e-08
4.1661756e-08
3.6700979e-08
3.4297112e-08
3.2776795e-08
3.208033e-08
3.1413139e-08
3.0979865e-08
3.0561162e-08
3.039984e-08
3.0615892e-08
3.1422774e-08
3.2649262e-08
3.4339065e-08
3.6483731e-08
3.9174024e-08
4.2459107e-08
4.6454291e-08
5.1245651e-08
5.6964252e-08
6.372057e-08
7.1622947e-08
8.0692025e-08
9.0794904e-08
1.0184356e-07
1.1399876e-07
1.2732881e-07
5.198421e-06
5.1626773e-06
5.1262032e-06
5.0890329e-06
5.0511827e-06
5.0126772e-06
4.9735185e-06
4.9337236e-06
4.8932871e-06
4.8522284e-06
4.8105345e-06
4.7682328e-06
4.725295e-06
4.6817514e-06
4.6375486e-06
4.5927177e-06
4.547177e-06
4.5009757e-06
4.4539907e-06
4.406294e-06
4.3577067e-06
4.3083224e-06
4.2578865e-06
4.2065495e-06
4.1539298e-06
4.1002546e-06
4.0449957e-06
3.9884837e-06
3.9299781e-06
3.8699676e-06
3.8074322e-06
3.7430638e-06
3.6754696e-06
3.6056159e-06
3.5316316e-06
3.4548559e-06
3.3728613e-06
3.2874363e-06
3.195588e-06
3.0995244e-06
2.995892e-06
2.8871192e-06
2.7706064e-06
2.6480235e-06
2.5093959e-06
2.3723294e-06
2.3295945e-06
2.3467712e-06
2.3993215e-06
2.4663769e-06
2.5440985e-06
2.6295235e-06
2.7199651e-06
2.8158376e-06
2.9149905e-06
3.0188963e-06
3.1262988e-06
3.239128e-06
3.3576551e-06
3.4855791e-06
3.6294009e-06
3.7880199e-06
3.9567791e-06
4.1342933e-06
4.3189056e-06
4.5097585e-06
4.7055028e-06
4.9045051e-06
5.1044975e-06
5.3026769e-06
5.4950948e-06
5.6742734e-06
5.8242561e-06
5.9464465e-06
6.0531826e-06
6.1485824e-06
6.2361439e-06
5.9358029e-06
1.2937073e-05
1.1132879e-05
1.0482499e-05
1.0397737e-05
1.057341e-05
1.0922688e-05
1.1449292e-05
1.2227509e-05
1.3191316e-05
1.4302268e-05
1.5576029e-05
1.6984392e-05
1.9764885e-05
2.1402615e-05
2.3481817e-05
2.6331861e-05
1.1193079e-05
1.4411598e-05
2.0288852e-05
2.5990818e-05
2.9637874e-05
3.0109581e-05
2.8452004e-05
2.5380274e-05
4.5934018e-05
3.3414835e-05
2.3481062e-05
1.8496747e-05
1.602531e-05
8.1515303e-06
3.3750118e-06
2.2115189e-05
4.2337163e-06
1.9619722e-05
3.5960675e-05
1.3132941e-05
8.907666e-06
5.2944148e-06
3.7519116e-06
8.9652252e-07
5.0386742e-07
2.8699254e-07
1.6583337e-07
1.1091202e-07
9.015562e-08
7.9375467e-08
7.4238075e-08
7.0944348e-08
6.9487723e-08
6.8062943e-08
6.7166457e-08
6.6282125e-08
6.5961374e-08
6.6440433e-08
6.8203698e-08
7.0872238e-08
7.454795e-08
7.9206618e-08
8.5049675e-08
9.2180216e-08
1.0085116e-07
1.1124713e-07
1.2365425e-07
1.3831121e-07
1.5545568e-07
1.7513548e-07
1.9706968e-07
2.2106466e-07
2.4746757e-07
2.7642978e-07
1.1366017e-05
1.1287943e-05
1.120827e-05
1.1127072e-05
1.1044385e-05
1.0960262e-05
1.0874708e-05
1.0787761e-05
1.0699409e-05
1.0609693e-05
1.0518587e-05
1.0426149e-05
1.0332317e-05
1.0237159e-05
1.0140557e-05
1.004258e-05
9.9430483e-06
9.8420701e-06
9.7393765e-06
9.6351245e-06
9.5289235e-06
9.420978e-06
9.3107316e-06
9.198513e-06
9.0834885e-06
8.9661543e-06
8.8453564e-06
8.7218166e-06
8.5939177e-06
8.4627265e-06
8.3260142e-06
8.1852928e-06
8.037518e-06
7.8848021e-06
7.7230548e-06
7.5552035e-06
7.3759414e-06
7.1891788e-06
6.9883718e-06
6.7783479e-06
6.5517747e-06
6.3139602e-06
6.0592134e-06
5.7911867e-06
5.4884049e-06
5.1896733e-06
5.0968981e-06
5.1345285e-06
5.2495763e-06
5.3963766e-06
5.5665277e-06
5.7535521e-06
5.9515655e-06
6.161468e-06
6.378557e-06
6.6060602e-06
6.8412235e-06
7.088281e-06
7.3478375e-06
7.6280064e-06
7.9428849e-06
8.2899814e-06
8.6591637e-06
9.0474441e-06
9.45119e-06
9.8685242e-06
1.0296473e-05
1.0731448e-05
1.116849e-05
1.1601429e-05
1.2021608e-05
1.2412569e-05
1.2739698e-05
1.3006364e-05
1.3239394e-05
1.3447739e-05
1.3638987e-05
1.2955704e-05
2.3028504e-05
1.9754842e-05
1.8562565e-05
1.8371893e-05
1.8638994e-05
1.9208333e-05
2.0084151e-05
2.1394575e-05
2.3027341e-05
2.491891e-05
2.7097444e-05
2.9515438e-05
3.3300884e-05
3.5948441e-05
3.9417533e-05
4.4247729e-05
2.4053828e-05
3.1318189e-05
4.4029954e-05
5.6344188e-05
6.4202186e-05
6.5236477e-05
6.1666238e-05
5.5037842e-05
8.2157566e-05
5.9415793e-05
4.1760364e-05
3.2932077e-05
2.8537781e-05
1.7789429e-05
7.5775514e-06
4.2590522e-05
9.481009e-06
3.780939e-05
5.7362774e-05
2.509948e-05
1.7108501e-05
1.0168207e-05
5.9456196e-06
1.7141528e-06
9.6503434e-07
5.4949617e-07
3.1751697e-07
2.1210967e-07
1.7231276e-07
1.5164594e-07
1.4183904e-07
1.3553657e-07
1.3277578e-07
1.3006699e-07
1.2837707e-07
1.2670057e-07
1.2609839e-07
1.270093e-07
1.3037304e-07
1.3546618e-07
1.4248485e-07
1.5137957e-07
1.6253676e-07
1.7615147e-07
1.9270792e-07
2.1255761e-07
2.362479e-07
2.642347e-07
2.9697435e-07
3.3456383e-07
3.7647464e-07
4.2233242e-07
4.727956e-07
5.2815726e-07
2.1806909e-05
2.1657223e-05
2.1504466e-05
2.134878e-05
2.1190234e-05
2.1028931e-05
2.086488e-05
2.0698152e-05
2.0528725e-05
2.0356681e-05
2.0181964e-05
2.000469e-05
1.9824741e-05
1.9642242e-05
1.9456972e-05
1.9269059e-05
1.9078163e-05
1.8884488e-05
1.8687521e-05
1.8487561e-05
1.8283859e-05
1.8076809e-05
1.7865343e-05
1.7650091e-05
1.7429455e-05
1.7204386e-05
1.697267e-05
1.6735695e-05
1.6490355e-05
1.6238698e-05
1.5976449e-05
1.5706509e-05
1.5423038e-05
1.5130089e-05
1.4819814e-05
1.4497831e-05
1.4153958e-05
1.3795699e-05
1.3410497e-05
1.3007617e-05
1.2572986e-05
1.2116791e-05
1.1628087e-05
1.1113891e-05
1.0533634e-05
9.9623673e-06
9.7856462e-06
9.8579719e-06
1.0078962e-05
1.0360927e-05
1.0687755e-05
1.1047006e-05
1.1427375e-05
1.1830586e-05
1.2247608e-05
1.2684638e-05
1.3136396e-05
1.3611024e-05
1.4109705e-05
1.4648057e-05
1.5252896e-05
1.5919265e-05
1.662788e-05
1.737305e-05
1.8147824e-05
1.8948547e-05
1.9769507e-05
2.0603828e-05
2.1441939e-05
2.2271985e-05
2.3077295e-05
2.382613e-05
2.4452589e-05
2.4963695e-05
2.5410613e-05
2.581034e-05
2.6177295e-05
2.4838207e-05
3.6566656e-05
3.1255967e-05
2.9303209e-05
2.8930223e-05
2.9273707e-05
3.0085497e-05
3.1368533e-05
3.3319484e-05
3.5770418e-05
3.8628403e-05
4.193907e-05
4.5635933e-05
5.026677e-05
5.4130091e-05
5.9342168e-05
6.669222e-05
4.5323015e-05
5.9908455e-05
8.4094342e-05
0.0001074599
0.00012234646
0.00012434114
0.00011757318
0.00010499673
0.00013135586
9.429128e-05
6.6294476e-05
5.2330856e-05
4.5367511e-05
3.4042024e-05
1.5844877e-05
7.498723e-05
1.9731077e-05
6.6638382e-05
8.550277e-05
4.3755308e-05
2.9996386e-05
1.7821209e-05
8.8052839e-06
2.997693e-06
1.6897193e-06
9.6212891e-07
5.5594492e-07
3.7102657e-07
3.0117102e-07
2.6494718e-07
2.477824e-07
2.3675429e-07
2.3193996e-07
2.2722208e-07
2.2428745e-07
2.2137024e-07
2.2031943e-07
2.2189247e-07
2.2774431e-07
2.3661919e-07
2.4885709e-07
2.6436924e-07
2.8383028e-07
3.0757921e-07
3.3646151e-07
3.7109005e-07
4.124204e-07
4.612489e-07
5.1837522e-07
5.8397831e-07
6.5714792e-07
7.3722269e-07
8.2534306e-07
9.2202687e-07
3.8175667e-05
3.7913885e-05
3.7646719e-05
3.737442e-05
3.7097108e-05
3.6814961e-05
3.6527997e-05
3.6236342e-05
3.5939953e-05
3.5638976e-05
3.5333315e-05
3.502317e-05
3.4708335e-05
3.4389031e-05
3.4064869e-05
3.3736074e-05
3.3402052e-05
3.3063159e-05
3.2718498e-05
3.2368591e-05
3.2012131e-05
3.1649804e-05
3.1279742e-05
3.090305e-05
3.0516929e-05
3.0123044e-05
2.9717524e-05
2.9302792e-05
2.8873419e-05
2.8432986e-05
2.7974013e-05
2.7501577e-05
2.7005455e-05
2.6492746e-05
2.5949711e-05
2.5386187e-05
2.4784348e-05
2.4157335e-05
2.3483161e-05
2.2778051e-05
2.2017361e-05
2.1218925e-05
2.0363526e-05
1.9463466e-05
1.8448817e-05
1.7452018e-05
1.7144836e-05
1.7271646e-05
1.765893e-05
1.8153041e-05
1.8725816e-05
1.9355436e-05
2.0022089e-05
2.0728791e-05
2.1459723e-05
2.2225723e-05
2.301756e-05
2.3849524e-05
2.472371e-05
2.566755e-05
2.6727569e-05
2.789479e-05
2.9135763e-05
3.0440544e-05
3.1797021e-05
3.3198733e-05
3.4635649e-05
3.6095744e-05
3.7562136e-05
3.901402e-05
4.0422175e-05
4.1730823e-05
4.2825584e-05
4.3719553e-05
4.4501697e-05
4.5201571e-05
4.5843512e-05
4.3489251e-05
5.4194508e-05
4.6147304e-05
4.3161664e-05
4.2498404e-05
4.2880733e-05
4.3939814e-05
4.5674612e-05
4.83665e-05
5.178266e-05
5.5796762e-05
6.0477561e-05
6.5744797e-05
7.1122999e-05
7.6436739e-05
8.3795482e-05
9.4286419e-05
7.7719457e-05
0.00010460948
0.00014660494
0.000187002
0.0002126915
0.00021621242
0.0002045338
0.00018283488
0.00019621948
0.00013968839
9.8269674e-05
7.7663795e-05
6.7370587e-05
5.9408009e-05
3.1236528e-05
0.00012362646
3.865758e-05
0.0001100217
0.00012227759
7.1290333e-05
4.9179075e-05
2.9202153e-05
1.2521729e-05
4.9082382e-06
2.7682534e-06
1.5763077e-06
9.1081116e-07
6.0730117e-07
4.9252881e-07
4.3312474e-07
4.0499265e-07
3.869373e-07
3.7906806e-07
3.7137626e-07
3.6659826e-07
3.6184416e-07
3.6012057e-07
3.6265662e-07
3.7217364e-07
3.8663619e-07
4.0659253e-07
4.318957e-07
4.6364615e-07
5.0239591e-07
5.4952503e-07
6.0603363e-07
6.7348177e-07
7.5317083e-07
8.4641117e-07
9.5351049e-07
1.0730011e-06
1.2037916e-06
1.3477283e-06
1.505666e-06
6.245735e-05
6.2029737e-05
6.1593302e-05
6.114845e-05
6.0695379e-05
6.023438e-05
5.9765483e-05
5.9288893e-05
5.8804542e-05
5.8312667e-05
5.7813112e-05
5.7306202e-05
5.6791604e-05
5.6269678e-05
5.5739788e-05
5.5202302e-05
5.4656251e-05
5.4102215e-05
5.3538728e-05
5.2966645e-05
5.2383831e-05
5.1791402e-05
5.1186312e-05
5.057036e-05
4.9938978e-05
4.9294883e-05
4.8631749e-05
4.7953535e-05
4.7251368e-05
4.6531102e-05
4.5780506e-05
4.5007881e-05
4.4196515e-05
4.3358012e-05
4.2469907e-05
4.1548287e-05
4.0564e-05
3.9538535e-05
3.8435931e-05
3.7282725e-05
3.6038594e-05
3.4732709e-05
3.3333516e-05
3.1861162e-05
3.0203011e-05
2.8577432e-05
2.8078305e-05
2.8286029e-05
2.8920247e-05
2.972939e-05
3.0667463e-05
3.1698684e-05
3.2790619e-05
3.3948177e-05
3.5145487e-05
3.6400246e-05
3.7697365e-05
3.9060268e-05
4.0492445e-05
4.2038902e-05
4.3775049e-05
4.5685698e-05
4.7716662e-05
4.9851706e-05
5.2071031e-05
5.4364091e-05
5.6714345e-05
5.9101987e-05
6.1499415e-05
6.3872476e-05
6.6173201e-05
6.8310121e-05
7.0097784e-05
7.1558965e-05
7.2838183e-05
7.3983249e-05
7.5030997e-05
7.1222714e-05
7.6996934e-05
6.5317166e-05
6.0947227e-05
5.9845056e-05
6.0204571e-05
6.1501575e-05
6.3727565e-05
6.7267976e-05
7.1814592e-05
7.7203342e-05
8.353272e-05
9.0719441e-05
9.6850916e-05
0.0001039158
0.00011392958
0.00012834697
0.00012426866
0.00017060979
0.00023868011
0.00030375564
0.00034502667
0.00035083449
0.00033208517
0.00029729405
0.00028097147
0.00019835363
0.00013967883
0.00011056363
9.5986912e-05
9.6869823e-05
5.8398722e-05
0.00019381142
7.1778884e-05
0.0001728106
0.00017043972
0.0001103183
7.6593058e-05
4.5456447e-05
1.7383964e-05
7.6419933e-06
4.3094843e-06
2.4539251e-06
1.4178399e-06
9.4451801e-07
7.6531803e-07
6.7275755e-07
6.2893764e-07
6.0085201e-07
5.886232e-07
5.767074e-07
5.6931134e-07
5.6194839e-07
5.592586e-07
5.6313993e-07
5.7784065e-07
6.0022951e-07
6.3114404e-07
6.7035459e-07
7.1956572e-07
7.7963205e-07
8.52693e-07
9.40299e-07
1.0448696e-06
1.1684254e-06
1.3130052e-06
1.479111e-06
1.6644944e-06
1.8674434e-06
2.0907981e-06
2.335898e-06
9.6998164e-05
9.6335715e-05
9.5659527e-05
9.4970227e-05
9.4268119e-05
9.3553656e-05
9.2826883e-05
9.2088122e-05
9.1337265e-05
9.0574682e-05
8.9800131e-05
8.9014116e-05
8.8216121e-05
8.7406703e-05
8.6584881e-05
8.5751223e-05
8.4904228e-05
8.4044793e-05
8.3170649e-05
8.228312e-05
8.1378897e-05
8.0459707e-05
7.9520833e-05
7.8565057e-05
7.7585302e-05
7.6585775e-05
7.5556671e-05
7.4504122e-05
7.3414372e-05
7.2296491e-05
7.1131515e-05
6.9932311e-05
6.8672956e-05
6.7371446e-05
6.5992932e-05
6.4562363e-05
6.3034503e-05
6.1442692e-05
5.9731115e-05
5.7940953e-05
5.600959e-05
5.3982288e-05
5.1809847e-05
4.9523558e-05
4.6951193e-05
4.4434451e-05
4.3664297e-05
4.3987168e-05
4.4972954e-05
4.6230664e-05
4.7689009e-05
4.9292299e-05
5.0990146e-05
5.2790057e-05
5.4651905e-05
5.6603112e-05
5.8620302e-05
6.0739837e-05
6.2967288e-05
6.5372721e-05
6.8071989e-05
7.1040877e-05
7.4196025e-05
7.7512327e-05
8.0959024e-05
8.451964e-05
8.8168339e-05
9.1874151e-05
9.5594249e-05
9.9275466e-05
0.00010284302
0.00010615452
0.000108925
0.00011119178
0.00011317744
0.00011495522
0.00011657511
0.00011080947
0.00010658149
9.0102215e-05
8.3887191e-05
8.2143836e-05
8.2389784e-05
8.3901343e-05
8.665809e-05
9.1174094e-05
9.7052753e-05
0.00010408702
0.00011241347
0.0001219624
0.00012896768
0.00013818619
0.00015152383
0.00017090696
0.00018838347
0.00026383213
0.00036831785
0.00046737882
0.00052995235
0.00053900283
0.00051059035
0.00045801393
0.00039147966
0.00027428254
0.00019345599
0.00015344763
0.00013335281
0.0001499663
0.00010385836
0.0002918972
0.00012676128
0.00026088484
0.00023370681
0.00016395098
0.00011454996
6.7960371e-05
2.3801944e-05
1.1436986e-05
6.4436398e-06
3.6688807e-06
2.1196521e-06
1.4107637e-06
1.1420381e-06
1.0035349e-06
9.379794e-07
8.9602638e-07
8.7777235e-07
8.6004622e-07
8.4904987e-07
8.3809936e-07
8.340672e-07
8.3976953e-07
8.6157271e-07
8.9485419e-07
9.4084038e-07
9.9918829e-07
1.0724325e-06
1.1618437e-06
1.2706064e-06
1.4010291e-06
1.5567146e-06
1.7406746e-06
1.9559551e-06
2.2033386e-06
2.4795199e-06
2.781921e-06
3.1147338e-06
3.4799743e-06
0.00014452605
0.00014354274
0.00014253888
0.00014151539
0.00014047272
0.00013941154
0.00013833194
0.00013723437
0.00013611869
0.00013498544
0.00013383427
0.00013266593
0.00013147965
0.00013027626
0.0001290543
0.00012781461
0.00012655498
0.00012527673
0.00012397649
0.00012265622
0.00012131102
0.00011994343
0.00011854647
0.00011712425
0.00011566626
0.00011417874
0.00011264713
0.00011108052
0.00010945848
0.00010779446
0.00010606029
0.00010427506
0.00010240023
0.00010046255
9.841019e-05
9.6280226e-05
9.4005365e-05
9.1635176e-05
8.9086597e-05
8.6420876e-05
8.3544776e-05
8.0525606e-05
7.7289717e-05
7.3883709e-05
7.005486e-05
6.6315988e-05
6.5175249e-05
6.56565e-05
6.7126362e-05
6.9001866e-05
7.1177045e-05
7.3568711e-05
7.6101764e-05
7.878717e-05
8.1565239e-05
8.4476698e-05
8.7486851e-05
9.06498e-05
9.3974077e-05
9.7564259e-05
0.0001015908
0.00010601708
0.00011071996
0.00011566206
0.00012079768
0.00012610186
0.00013153595
0.00013705357
0.00014259079
0.00014806821
0.00015337408
0.00015829595
0.00016241432
0.00016578728
0.0001687433
0.00017139042
0.0001737878
0.00016551904
0.00014516098
0.00012236565
0.00011370169
0.00011104504
0.00011104984
0.0001127365
0.00011606696
0.00012171599
0.00012918196
0.00013820852
0.0001489813
0.0001614671
0.00016959039
0.00018150674
0.00019906003
0.00022480138
0.0002740087
0.00039085843
0.00054414533
0.00068794047
0.00077825512
0.00079164883
0.00075060097
0.00067499777
0.00053526104
0.00037284626
0.00026361377
0.00020965033
0.00018242542
0.00022287422
0.00017606806
0.0004252374
0.00021340762
0.00038114478
0.00031686367
0.00023587342
0.00016578087
9.835855e-05
3.2337277e-05
1.6581407e-05
9.3256968e-06
5.3088357e-06
3.0667481e-06
2.0392559e-06
1.6492473e-06
1.4486841e-06
1.3537725e-06
1.2931308e-06
1.2667594e-06
1.2412436e-06
1.2254221e-06
1.2096638e-06
1.2038153e-06
1.2119214e-06
1.2432118e-06
1.291088e-06
1.3572838e-06
1.441306e-06
1.5468009e-06
1.6755965e-06
1.8322797e-06
2.0201768e-06
2.2444776e-06
2.5095257e-06
2.8197234e-06
3.1762471e-06
3.5743943e-06
4.0104134e-06
4.4902864e-06
5.0169458e-06
0.000208149
0.00020674074
0.00020530272
0.00020383623
0.00020234193
0.00020082078
0.0001992729
0.00019769895
0.00019609873
0.00019447302
0.00019282131
0.00019114468
0.00018944203
0.00018771454
0.00018596014
0.00018418003
0.00018237103
0.00018053503
0.00017866722
0.00017677038
0.00017483751
0.00017287224
0.00017086454
0.00016882031
0.00016672449
0.00016458598
0.00016238391
0.0001601313
0.00015779883
0.00015540578
0.00015291168
0.00015034393
0.00014764719
0.00014485982
0.00014190735
0.000138843
0.00013557008
0.00013215972
0.00012849254
0.00012465647
0.00012051738
0.00011617192
0.00011151345
0.00010660895
0.00010109986
9.5729798e-05
9.4095374e-05
9.4788355e-05
9.6906548e-05
9.9609879e-05
0.00010274612
0.00010619507
0.00010984858
0.00011372206
0.00011772972
0.00012192998
0.00012627307
0.00013083668
0.00013563355
0.00014081439
0.00014662098
0.00015300069
0.00015977737
0.00016689704
0.00017429395
0.00018193152
0.00018975391
0.00019769388
0.00020565899
0.0002135347
0.00022115973
0.0002282281
0.00023414394
0.00023899398
0.00024324597
0.0002470539
0.00025047551
0.00023914228
0.00019564438
0.00016459274
0.00015269757
0.00014876777
0.00014835814
0.00015016134
0.00015411495
0.00016109629
0.00017047746
0.00018194514
0.00019574841
0.00021192054
0.00022155161
0.00023690197
0.00025985984
0.00029381731
0.00038580813
0.00055879667
0.00077499818
0.00097520905
0.0010999918
0.0011188495
0.0010619023
0.00095776189
0.00072134968
0.00050088856
0.00035538793
0.00028357461
0.00024712866
0.00032048045
0.000285093
0.00060192746
0.0003432042
0.00054133135
0.00042582904
0.00033040057
0.00023346926
0.00013860789
4.3735972e-05
2.3424089e-05
1.313936e-05
7.4772059e-06
4.3186073e-06
2.8690488e-06
2.3181128e-06
2.035449e-06
1.90171e-06
1.816405e-06
1.7793243e-06
1.7435831e-06
1.7214299e-06
1.6993639e-06
1.6911113e-06
1.7023263e-06
1.7460288e-06
1.8130585e-06
1.905797e-06
2.0235561e-06
2.1714399e-06
2.3520088e-06
2.5716916e-06
2.8351516e-06
3.149664e-06
3.5213239e-06
3.9563207e-06
4.4563694e-06
5.0149605e-06
5.6267805e-06
6.3001342e-06
7.0391682e-06
0.00029131253
0.00028935745
0.00028736041
0.00028532317
0.00028324666
0.0002811322
0.00027897995
0.00027679087
0.00027456465
0.00027230239
0.00027000339
0.00026766913
0.00026529813
0.00026289198
0.00026044785
0.00025796737
0.00025544615
0.00025288679
0.00025028263
0.00024763751
0.0002449417
0.00024220022
0.00023939915
0.00023654663
0.00023362174
0.00023063681
0.00022756282
0.0002244178
0.00022116094
0.00021781903
0.00021433571
0.00021074904
0.00020698191
0.00020308767
0.0001989625
0.00019468048
0.0001901067
0.00018534026
0.00018021447
0.00017485189
0.00016906511
0.00016298876
0.00015647265
0.00014961025
0.00014190688
0.00013440986
0.00013213205
0.00013310111
0.00013606711
0.00013985379
0.00014424864
0.00014908282
0.00015420507
0.00015963618
0.00016525655
0.00017114727
0.0001772392
0.00018364062
0.00019036995
0.00019763792
0.00020577747
0.0002147156
0.00022420707
0.00023417597
0.00024453025
0.00025521781
0.00026616008
0.00027726197
0.00028839391
0.00029939504
0.00031003954
0.00031989964
0.00032815439
0.0003349289
0.00034086953
0.0003461896
0.00035092494
0.00033598093
0.0002617276
0.0002199985
0.00020387825
0.00019821075
0.00019715935
0.0001989994
0.00020363662
0.0002122053
0.00022392458
0.00023841528
0.00025600837
0.00027684078
0.00028855635
0.0003083316
0.00033826886
0.00038289231
0.00052936015
0.00077508127
0.0010693221
0.00133771
0.0015033343
0.0015285935
0.0014523078
0.0013142139
0.00095993801
0.00066673479
0.0004753575
0.00038084079
0.00033250571
0.00044841104
0.00044189977
0.00083027042
0.00052838461
0.00074960396
0.00056763859
0.00045248436
0.00032125735
0.00019102077
5.8964733e-05
3.2387731e-05
1.8101774e-05
1.0295415e-05
5.9449154e-06
3.9458137e-06
3.1850188e-06
2.795622e-06
2.6114188e-06
2.4941339e-06
2.4431692e-06
2.3942409e-06
2.3639247e-06
2.3337294e-06
2.3223532e-06
2.3375224e-06
2.3971856e-06
2.4889219e-06
2.615923e-06
2.7772538e-06
2.9798968e-06
3.2273574e-06
3.5284416e-06
3.8895391e-06
4.3206163e-06
4.8300302e-06
5.4262802e-06
6.1118015e-06
6.8777896e-06
7.7168903e-06
8.6403611e-06
9.6539306e-06
0.00039769074
0.00039505172
0.00039235489
0.00038960256
0.00038679598
0.00038393694
0.00038102568
0.00037806346
0.00037504992
0.00037198652
0.00036887233
0.00036570935
0.00036249557
0.00035923317
0.00035591831
0.00035255317
0.00034913187
0.00034565786
0.00034212218
0.00033852996
0.00033486807
0.00033114324
0.00032733666
0.00032345927
0.00031948277
0.00031542376
0.00031124292
0.0003069646
0.00030253349
0.00029798574
0.00029324493
0.00028836252
0.00028323384
0.00027793111
0.00027231332
0.00026648083
0.00026025027
0.00025375597
0.00024677124
0.0002394623
0.0002315739
0.00022328866
0.00021439998
0.00020503491
0.00019452721
0.00018431472
0.00018121452
0.00018253541
0.00018658626
0.00019176081
0.0001977697
0.00020438126
0.00021138933
0.00021882099
0.00022651373
0.00023457711
0.00024291757
0.00025168215
0.0002608968
0.00027084809
0.00028198353
0.00029420402
0.00030717643
0.00032079628
0.00033493792
0.00034952859
0.00036445987
0.00037960055
0.00039477393
0.00040975923
0.00042424814
0.00043765861
0.00044888923
0.00045811565
0.00046620791
0.00047345436
0.0004798357
0.00046078439
0.00034795989
0.00029263265
0.00027105779
0.00026307097
0.00026109159
0.00026286898
0.00026826951
0.00027875461
0.00029335743
0.00031162288
0.00033398718
0.00036073615
0.00037536378
0.00040088787
0.00043986805
0.00049833203
0.00071132208
0.0010471947
0.0014344338
0.0017816592
0.0019933541
0.0020255076
0.0019264045
0.0017494255
0.0012616699
0.00088001738
0.00063148061
0.00050839111
0.00044484654
0.00061296613
0.000657294
0.0011179324
0.0007805701
0.0010138278
0.00075027106
0.00060762733
0.00043320483
0.00025828778
7.9259587e-05
4.3985753e-05
2.4469174e-05
1.3905449e-05
8.0269127e-06
5.322696e-06
4.2922345e-06
3.7661275e-06
3.5173075e-06
3.3591729e-06
3.2904756e-06
3.224796e-06
3.1841135e-06
3.1436e-06
3.1282306e-06
3.1483603e-06
3.2282499e-06
3.3513941e-06
3.5219806e-06
3.7387666e-06
4.0111205e-06