/*--------------------------------*- C++ -*----------------------------------*\
| =========                 |                                                 |
| \\      /  F ield         | OpenFOAM: The Open Source CFD Toolbox           |
|  \\    /   O peration     | Version:  2.4.0                                 |
|   \\  /    A nd           | Web:      www.OpenFOAM.org                      |
|    \\/     M anipulation  |                                                 |
\*---------------------------------------------------------------------------*/
FoamFile
{
    version     2.0;
    format      ascii;
    class       surfaceScalarField;
    location    "370";
    object      phi;
}
// * * * * * * * * * * * * * * * * * * * * * * * * * * * * * * * * * * * * * //

dimensions      [0 3 -1 0 0 0 0];

internalField   nonuniform List<scalar> 
38538
(
2.6330387e-07
-4.5004528e-08
3.2033469e-07
-5.7030817e-08
3.382137e-07
-1.787901e-08
3.2588806e-07
1.2325644e-08
2.6066841e-07
6.5219642e-08
1.6062638e-07
1.0004203e-07
4.0489433e-08
1.2013695e-07
-6.3532571e-08
1.04022e-07
-1.1537263e-07
5.1840058e-08
-1.240068e-07
8.6341563e-09
-1.0768626e-07
-1.632054e-08
-8.7600814e-08
-2.0085462e-08
-7.1467747e-08
-1.6133053e-08
-6.0879309e-08
-1.0588447e-08
-5.4112645e-08
-6.7666576e-09
-4.9450171e-08
-4.6624419e-09
-4.6210114e-08
-3.240086e-09
-4.37547e-08
-2.4554123e-09
-4.1540098e-08
-2.2145992e-09
-3.9484606e-08
-2.0554916e-09
-3.7552617e-08
-1.9319882e-09
-3.5789905e-08
-1.7627112e-09
-3.446335e-08
-1.3265537e-09
-3.364471e-08
-8.1863808e-10
-3.3197076e-08
-4.4763494e-10
-3.3094661e-08
-1.0242282e-10
-3.3352345e-08
2.5769218e-10
-3.3976848e-08
6.2450164e-10
-3.5002029e-08
1.0251833e-09
-3.6447428e-08
1.4453963e-09
-3.8338451e-08
1.8910258e-09
-4.0680987e-08
2.3425363e-09
-4.3479964e-08
2.7989763e-09
-4.6692493e-08
3.2125291e-09
-5.0230053e-08
3.5375602e-09
-5.386124e-08
3.6311865e-09
-5.7430696e-08
3.5694564e-09
-6.0989138e-08
3.5584417e-09
-6.4521981e-08
3.5328503e-09
3.4648432e-09
-1.471057e-07
-3.663447e-09
-1.4346936e-07
-3.6363396e-09
-1.3986207e-07
-3.6072902e-09
-1.3628612e-07
-3.5759472e-09
-1.3274216e-07
-3.5439563e-09
-1.2923214e-07
-3.5100215e-09
-1.2575566e-07
-3.4764854e-09
-1.2231579e-07
-3.4398661e-09
-1.1891202e-07
-3.4037687e-09
-1.1554774e-07
-3.3642873e-09
-1.1222222e-07
-3.3255122e-09
-1.0893884e-07
-3.283386e-09
-1.0569617e-07
-3.2426677e-09
-1.024976e-07
-3.1985706e-09
-9.9341171e-08
-3.1564321e-09
-9.6231329e-08
-3.1098411e-09
-9.3165468e-08
-3.065862e-09
-9.0149202e-08
-3.0162633e-09
-8.7178875e-08
-2.9703267e-09
-8.4261489e-08
-2.9173833e-09
-8.1391663e-08
-2.8698253e-09
-7.8578981e-08
-2.8126788e-09
-7.5816722e-08
-2.7622566e-09
-7.3117005e-08
-2.6997143e-09
-7.0471096e-08
-2.6459067e-09
-6.7895162e-08
-2.5759313e-09
-6.5377577e-08
-2.517583e-09
-6.2940411e-08
-2.4371642e-09
-6.0568345e-08
-2.3720647e-09
-5.8290432e-08
-2.2779118e-09
-5.6085394e-08
-2.2050361e-09
-5.3992625e-08
-2.0927687e-09
-5.1984287e-08
-2.0083359e-09
-5.0113664e-08
-1.8706228e-09
-4.8344739e-08
-1.768924e-09
-4.6749746e-08
-1.5949936e-09
-4.5281967e-08
-1.4677772e-09
-4.4037746e-08
-1.2442207e-09
-4.29546e-08
-1.0831434e-09
-4.2163109e-08
-7.9149064e-10
-4.1576418e-08
-5.8668911e-10
-4.1370617e-08
-2.0580027e-10
-4.1410217e-08
3.9601468e-11
-4.1863397e-08
4.5317928e-10
-4.2364826e-08
5.0142971e-10
-4.3435442e-08
1.0706153e-09
-4.3982286e-08
5.4684428e-10
-4.4545335e-08
5.6304784e-10
-4.444993e-08
-9.5403775e-11
-4.3959237e-08
-4.9069337e-10
-4.2860938e-08
-1.0982991e-09
-4.1321921e-08
-1.539018e-09
-3.9224742e-08
-2.0971778e-09
-3.6678541e-08
-2.5462016e-09
-3.3604117e-08
-3.0744242e-09
-3.0074545e-08
-3.529572e-09
-2.6022009e-08
-4.0525352e-09
-2.1486583e-08
-4.5354268e-09
-1.6386972e-08
-5.0996108e-09
-1.0716014e-08
-5.6709578e-09
-4.3226616e-09
-6.3933502e-09
2.7687459e-09
-7.0914087e-09
1.0517067e-08
-7.7483189e-09
1.8905945e-08
-8.3888788e-09
2.7913231e-08
-9.0072848e-09
3.752402e-08
-9.6107897e-09
4.771566e-08
-1.0191637e-08
5.8453881e-08
-1.0738221e-08
6.9683655e-08
-1.1229773e-08
8.132387e-08
-1.1640211e-08
9.3236548e-08
-1.1912677e-08
1.051884e-07
-1.1951853e-08
1.1663728e-07
-1.144888e-08
1.2745391e-07
-1.0816624e-08
1.3783166e-07
-1.0377757e-08
1.4776565e-07
-9.9339859e-09
1.573109e-07
-9.5452391e-09
1.657815e-07
-8.4705983e-09
1.7347974e-07
-7.6982101e-09
1.8165545e-07
-8.1757257e-09
1.9077511e-07
-9.1196118e-09
2.009707e-07
-1.0195631e-08
2.1236889e-07
-1.1398086e-08
2.2527741e-07
-1.2908589e-08
2.4058553e-07
-1.530793e-08
2.6006928e-07
-1.9483909e-08
2.8383737e-07
-2.3768095e-08
3.1114269e-07
-2.7305336e-08
3.4270058e-07
-3.1557906e-08
3.7878208e-07
-3.6081519e-08
4.2108509e-07
-4.2302998e-08
4.702808e-07
-4.9195828e-08
5.2963823e-07
-5.9357514e-08
6.005066e-07
-7.0867459e-08
6.8717467e-07
-8.6669579e-08
7.8651634e-07
-9.9351029e-08
8.9756729e-07
-1.1104168e-07
1.0000152e-06
-1.0244773e-07
1.061756e-06
-6.1740669e-08
1.0310943e-06
3.0661842e-08
9.3544017e-07
9.5654196e-08
7.9066788e-07
1.4477233e-07
6.3764115e-07
1.5302675e-07
4.8592918e-07
1.5171198e-07
3.6879549e-07
1.171337e-07
2.7477199e-07
9.4023492e-08
2.3080371e-07
4.3968295e-08
1.250437e-08
8.4586547e-07
-1.7610796e-07
9.9677632e-07
-2.0794166e-07
1.0723367e-06
-9.343938e-08
1.0170569e-06
6.7605411e-08
8.3111102e-07
2.5116556e-07
5.1630067e-07
4.1485238e-07
1.520641e-07
4.8437352e-07
-1.792944e-07
4.3538051e-07
-3.4544856e-07
2.1799422e-07
-3.8087089e-07
4.405649e-08
-3.3150508e-07
-6.568635e-08
-2.7214643e-07
-7.9444096e-08
-2.2160026e-07
-6.6679273e-08
-1.897341e-07
-4.2454572e-08
-1.6815387e-07
-2.8346879e-08
-1.541761e-07
-1.8640243e-08
-1.4375901e-07
-1.3657159e-08
-1.3640898e-07
-9.8054522e-09
-1.2936015e-07
-9.263431e-09
-1.2316193e-07
-8.2537049e-09
-1.170921e-07
-8.0018242e-09
-1.1176215e-07
-7.092658e-09
-1.0761901e-07
-5.4696997e-09
-1.0516722e-07
-3.2704243e-09
-1.0378162e-07
-1.833233e-09
-1.0354251e-07
-3.4153278e-10
-1.0436663e-07
1.0818087e-09
-1.0637777e-07
2.6356389e-09
-1.0959697e-07
4.2443857e-09
-1.141498e-07
5.9982305e-09
-1.2005995e-07
7.8011741e-09
-1.2738662e-07
9.6692013e-09
-1.3610631e-07
1.1518664e-08
-1.4611127e-07
1.3217486e-08
-1.5710109e-07
1.4527382e-08
-1.68387e-07
1.4917094e-08
-1.7948413e-07
1.4666592e-08
-1.9054387e-07
1.4618176e-08
-2.0152315e-07
1.4512136e-08
1.4232522e-08
-4.5368998e-07
-1.5047212e-08
-4.4239121e-07
-1.4935104e-08
-4.3118309e-07
-1.4815414e-08
-4.2007113e-07
-1.4687908e-08
-4.0905893e-07
-1.4556156e-08
-3.9815113e-07
-1.4417825e-08
-3.8734971e-07
-1.4277897e-08
-3.7666064e-07
-1.4128941e-08
-3.6608593e-07
-1.3978477e-08
-3.556317e-07
-1.3818522e-08
-3.4529998e-07
-1.3657234e-08
-3.3509627e-07
-1.3487092e-08
-3.2502191e-07
-1.331703e-08
-3.1508181e-07
-1.3138675e-08
-3.0527696e-07
-1.2961277e-08
-2.9561328e-07
-1.2773527e-08
-2.8609186e-07
-1.2587277e-08
-2.7671955e-07
-1.238857e-08
-2.6749718e-07
-1.2192702e-08
-2.5843272e-07
-1.1981841e-08
-2.495261e-07
-1.177644e-08
-2.4078818e-07
-1.1550594e-08
-2.3221952e-07
-1.1330911e-08
-2.2383303e-07
-1.1086205e-08
-2.1563006e-07
-1.0848872e-08
-2.0762802e-07
-1.0577972e-08
-1.9982856e-07
-1.0317037e-08
-1.9225569e-07
-1.0010031e-08
-1.8491218e-07
-9.7155705e-09
-1.7782988e-07
-9.3602175e-09
-1.7101137e-07
-9.023536e-09
-1.6450074e-07
-8.6034037e-09
-1.5830238e-07
-8.2066951e-09
-1.5247773e-07
-7.6952722e-09
-1.4703498e-07
-7.2116672e-09
-1.4206033e-07
-6.5696437e-09
-1.3756587e-07
-5.9622351e-09
-1.3367109e-07
-5.1389994e-09
-1.3038766e-07
-4.3665795e-09
-1.2788716e-07
-3.2919861e-09
-1.2616467e-07
-2.309179e-09
-1.2546567e-07
-9.0479704e-10
-1.257098e-07
2.8373736e-10
-1.2704175e-07
1.7851283e-09
-1.2878852e-07
2.2481941e-09
-1.3203108e-07
4.313183e-09
-1.3384588e-07
2.3616358e-09
-1.3541408e-07
2.1312493e-09
-1.3515914e-07
-3.5033891e-10
-1.3347659e-07
-2.1732428e-09
-1.300827e-07
-4.4921913e-09
-1.2517183e-07
-6.4498895e-09
-1.1866132e-07
-8.6076848e-09
-1.1064622e-07
-1.0561301e-08
-1.0109172e-07
-1.2628923e-08
-9.0041158e-08
-1.4580139e-08
-7.7443543e-08
-1.6650149e-08
-6.3289666e-08
-1.8689304e-08
-4.744883e-08
-2.0940446e-08
-2.9798217e-08
-2.3321571e-08
-9.9553639e-09
-2.6236201e-08
1.2044822e-08
-2.9091596e-08
3.6050291e-08
-3.1753785e-08
6.2027042e-08
-3.4365631e-08
8.9894147e-08
-3.6874388e-08
1.1961268e-07
-3.9329324e-08
1.5110577e-07
-4.1684723e-08
1.8427345e-07
-4.3905899e-08
2.189411e-07
-4.5897428e-08
2.5486317e-07
-4.7562274e-08
2.9162877e-07
-4.8678274e-08
3.2848446e-07
-4.8807542e-08
3.6383249e-07
-4.679691e-08
3.9726344e-07
-4.4247571e-08
4.2935095e-07
-4.2465274e-08
4.6006346e-07
-4.0646491e-08
4.8957219e-07
-3.9053956e-08
5.1554588e-07
-3.4444279e-08
5.3904739e-07
-3.119969e-08
5.6430244e-07
-3.3430801e-08
5.9241554e-07
-3.7232653e-08
6.2387726e-07
-4.1657398e-08
6.5895225e-07
-4.6472962e-08
6.9872849e-07
-5.2684906e-08
7.457678e-07
-6.2347038e-08
8.0562344e-07
-7.9339709e-08
8.7825039e-07
-9.639505e-08
9.6216954e-07
-1.112245e-07
1.058572e-06
-1.2796036e-07
1.1695628e-06
-1.4707241e-07
1.2985206e-06
-1.7126073e-07
1.4499297e-06
-2.0060509e-07
1.6305311e-06
-2.3995904e-07
1.8487189e-06
-2.8905431e-07
2.1122352e-06
-3.5018753e-07
2.418323e-06
-4.0544874e-07
2.7539814e-06
-4.4669029e-07
3.0703204e-06
-4.1878649e-07
3.2561951e-06
-2.476152e-07
3.1806453e-06
1.0621181e-07
2.8933048e-06
3.8299477e-07
2.4702088e-06
5.6786843e-07
1.9952242e-06
6.280114e-07
1.5465707e-06
6.0036543e-07
1.1676829e-06
4.9602155e-07
8.9775323e-07
3.6395317e-07
7.3227448e-07
2.0944705e-07
3.0016816e-08
1.5033389e-06
-3.929285e-07
1.742839e-06
-4.474417e-07
1.8850249e-06
-2.3562529e-07
1.7786034e-06
1.7402686e-07
1.4692531e-06
5.6051587e-07
9.2443439e-07
9.5967109e-07
2.9919274e-07
1.1096152e-06
-2.8394284e-07
1.0185161e-06
-5.8240599e-07
5.1645735e-07
-6.5440627e-07
1.1605676e-07
-5.7219981e-07
-1.4789281e-07
-4.7231117e-07
-1.7933277e-07
-3.8473253e-07
-1.5425788e-07
-3.3021084e-07
-9.6976277e-08
-2.9239292e-07
-6.6164792e-08
-2.6847027e-07
-4.2562838e-08
-2.5014337e-07
-3.1984103e-08
-2.3756851e-07
-2.2380312e-08
-2.2522537e-07
-2.1606567e-08
-2.146031e-07
-1.8875976e-08
-2.0403346e-07
-1.8571455e-08
-1.9489508e-07
-1.6231037e-08
-1.8769899e-07
-1.2665786e-08
-1.8351491e-07
-7.454508e-09
-1.8112925e-07
-4.2188881e-09
-1.8078801e-07
-6.8279172e-10
-1.8225806e-07
2.5518724e-09
-1.8582368e-07
6.20126e-09
-1.9146354e-07
9.8842493e-09
-1.9943933e-07
1.3974019e-08
-2.0975228e-07
1.8114131e-08
-2.2253247e-07
2.2449393e-08
-2.3771045e-07
2.6696641e-08
-2.5511522e-07
3.0622254e-08
-2.7420706e-07
3.3619222e-08
-2.9381685e-07
3.4526881e-08
-3.1310589e-07
3.3955633e-08
-3.3232306e-07
3.3835348e-08
-3.513985e-07
3.3587587e-08
3.2939199e-08
-7.8256045e-07
-3.4809715e-08
-7.6294632e-07
-3.4549231e-08
-7.4349006e-07
-3.4271674e-08
-7.2420015e-07
-3.3977818e-08
-7.0508395e-07
-3.3672357e-08
-6.8614846e-07
-3.3353307e-08
-6.6739942e-07
-3.3026939e-08
-6.4884463e-07
-3.2683731e-08
-6.3049014e-07
-3.2332973e-08
-6.1234348e-07
-3.196518e-08
-5.9441115e-07
-3.1589571e-08
-5.766993e-07
-3.1198936e-08
-5.5921418e-07
-3.0802154e-08
-5.4196048e-07
-3.0392374e-08
-5.2494484e-07
-2.9976923e-08
-5.0817205e-07
-2.9546314e-08
-4.9165041e-07
-2.910892e-08
-4.7538449e-07
-2.8654481e-08
-4.5938415e-07
-2.8193045e-08
-4.4365379e-07
-2.7712193e-08
-4.2820478e-07
-2.7225448e-08
-4.1304296e-07
-2.6712417e-08
-3.9818409e-07
-2.6189774e-08
-3.8363358e-07
-2.5636709e-08
-3.6941347e-07
-2.506898e-08
-3.5553136e-07
-2.4460081e-08
-3.4201625e-07
-2.3832141e-08
-3.2887908e-07
-2.3147206e-08
-3.1615951e-07
-2.2435138e-08
-3.0387245e-07
-2.1647276e-08
-2.9207e-07
-2.0825985e-08
-2.8077444e-07
-1.9898957e-08
-2.7005644e-07
-1.8924694e-08
-2.5995049e-07
-1.780122e-08
-2.5055411e-07
-1.6608054e-08
-2.4192096e-07
-1.5202789e-08
-2.3418117e-07
-1.3702025e-08
-2.2741714e-07
-1.1903025e-08
-2.2179204e-07
-9.9916795e-09
-2.1744064e-07
-7.643383e-09
-2.1453877e-07
-5.2110529e-09
-2.1330166e-07
-2.1419066e-09
-2.138275e-07
8.0958103e-10
-2.1610883e-07
4.0664611e-09
-2.1931502e-07
5.4543872e-09
-2.2489334e-07
9.891499e-09
-2.281155e-07
5.5837972e-09
-2.3066713e-07
4.6828806e-09
-2.3021474e-07
-8.0273176e-10
-2.2714854e-07
-5.2394485e-09
-2.2124214e-07
-1.0398585e-08
-2.1260732e-07
-1.5084711e-08
-2.0129601e-07
-1.9918998e-08
-1.8730573e-07
-2.4551578e-08
-1.7071857e-07
-2.921608e-08
-1.5148677e-07
-3.3811938e-08
-1.2962793e-07
-3.8508998e-08
-1.0503499e-07
-4.3282243e-08
-7.7563783e-08
-4.841165e-08
-4.6930295e-08
-5.3955059e-08
-1.2534436e-08
-6.0632057e-08
2.5590819e-08
-6.7216853e-08
6.7166228e-08
-7.3329192e-08
1.1214669e-07
-7.9346098e-08
1.6038137e-07
-8.5109067e-08
2.1180742e-07
-9.075537e-08
2.6628825e-07
-9.6165547e-08
3.2365171e-07
-1.0126936e-07
3.8359726e-07
-1.0584298e-07
4.4569402e-07
-1.0965903e-07
5.0924169e-07
-1.1222594e-07
5.7292978e-07
-1.1249563e-07
6.3405759e-07
-1.0792472e-07
6.9191089e-07
-1.0210088e-07
7.4745605e-07
-9.8010434e-08
8.0064475e-07
-9.383519e-08
8.5172854e-07
-9.0137734e-08
8.9641139e-07
-7.9127118e-08
9.3675822e-07
-7.1546493e-08
9.8043909e-07
-7.711169e-08
1.0290582e-06
-8.5851706e-08
1.0834806e-06
-9.6079854e-08
1.144096e-06
-1.0708829e-07
1.2128423e-06
-1.2143121e-07
1.2940647e-06
-1.4356925e-07
1.3972798e-06
-1.8255499e-07
1.5221915e-06
-2.2130679e-07
1.6668114e-06
-2.5584441e-07
1.83253e-06
-2.93679e-07
2.0237465e-06
-3.3828888e-07
2.2450452e-06
-3.9255939e-07
2.5056637e-06
-4.6122378e-07
2.8149817e-06
-5.4927717e-07
3.1902157e-06
-6.6428735e-07
3.6409427e-06
-8.0091614e-07
4.1666438e-06
-9.3115956e-07
4.7381748e-06
-1.0182117e-06
5.2806155e-06
-9.6122698e-07
5.5978827e-06
-5.6488223e-07
5.4870175e-06
2.170772e-07
5.0073237e-06
8.6268867e-07
4.3029451e-06
1.2722471e-06
3.4887501e-06
1.4422064e-06
2.7311834e-06
1.3579321e-06
2.0663684e-06
1.1608366e-06
1.6126149e-06
8.1770663e-07
1.3050726e-06
5.1698936e-07
4.8571068e-08
2.240709e-06
-6.9513807e-07
2.5700933e-06
-7.7682601e-07
2.7789846e-06
-4.4451659e-07
2.6197579e-06
3.3325357e-07
2.1792303e-06
1.0010435e-06
1.3927163e-06
1.7461851e-06
4.8606809e-07
2.0162634e-06
-3.7289578e-07
1.87748e-06
-8.250956e-07
9.6865718e-07
-9.4399192e-07
2.3495308e-07
-8.3051487e-07
-2.6136986e-07
-6.884807e-07
-3.2136692e-07
-5.6169177e-07
-2.8104688e-07
-4.8279448e-07
-1.7587351e-07
-4.2750703e-07
-1.2145223e-07
-3.9280094e-07
-7.7268972e-08
-3.6593905e-07
-5.8845972e-08
-3.4769046e-07
-4.0628901e-08
-3.2965276e-07
-3.9644273e-08
-3.1425724e-07
-3.4271502e-08
-2.988625e-07
-3.3966189e-08
-2.8563854e-07
-2.9455002e-08
-2.7517879e-07
-2.3125533e-08
-2.6914997e-07
-1.3483339e-08
-2.6572529e-07
-7.6435601e-09
-2.6531787e-07
-1.0902136e-09
-2.6753857e-07
4.7725714e-09
-2.728397e-07
1.1502393e-08
-2.8115653e-07
1.8201068e-08
-2.9289247e-07
2.5709964e-08
-3.0802754e-07
3.3249201e-08
-3.2676118e-07
4.1183029e-08
-3.4897387e-07
4.8909329e-08
-3.7441976e-07
5.6068152e-08
-4.0230339e-07
6.1502842e-08
-4.309446e-07
6.3168099e-08
-4.5912266e-07
6.2133687e-08
-4.8718967e-07
6.1902363e-08
-5.1504487e-07
6.1442784e-08
6.0254918e-08
-1.1344838e-06
-6.3648778e-08
-1.1058622e-06
-6.3170823e-08
-1.0774717e-06
-6.266216e-08
-1.0493241e-06
-6.2125449e-08
-1.0214306e-06
-6.1565802e-08
-9.9380103e-07
-6.0982914e-08
-9.6644491e-07
-6.038306e-08
-9.3937217e-07
-5.9756467e-08
-9.1259313e-07
-5.9112011e-08
-8.8611703e-07
-5.8441283e-08
-8.59955e-07
-5.77516e-08
-8.3411415e-07
-5.7039788e-08
-8.086058e-07
-5.6310513e-08
-7.8343467e-07
-5.5563499e-08
-7.5861319e-07
-5.4798401e-08
-7.341454e-07
-5.401411e-08
-7.1004694e-07
-5.3207378e-08
-6.8632048e-07
-5.2380934e-08
-6.6298512e-07
-5.1528407e-08
-6.4004206e-07
-5.0655253e-08
-6.1751439e-07
-4.9753114e-08
-5.9540334e-07
-4.8823466e-08
-5.7374035e-07
-4.7852763e-08
-5.5252376e-07
-4.6853292e-08
-5.3179692e-07
-4.5795816e-08
-5.1155816e-07
-4.4698838e-08
-4.9186475e-07
-4.3525547e-08
-4.7271519e-07
-4.2296758e-08
-4.5418736e-07
-4.096297e-08
-4.3627995e-07
-3.9554686e-08
-4.1909637e-07
-3.8009564e-08
-4.0263802e-07
-3.6357299e-08
-3.8704438e-07
-3.4518336e-08
-3.7232418e-07
-3.2521423e-08
-3.5866781e-07
-3.0264415e-08
-3.4609809e-07
-2.7772516e-08
-3.34868e-07
-2.493211e-08
-3.2502509e-07
-2.1745935e-08
-3.1689037e-07
-1.8126399e-08
-3.1056499e-07
-1.3968761e-08
-3.0641317e-07
-9.3628736e-09
-3.046242e-07
-3.9308725e-09
-3.0548121e-07
1.6665958e-09
-3.088305e-07
7.4157461e-09
-3.1368723e-07
1.0311118e-08
-3.2181972e-07
1.8023995e-08
-3.2655061e-07
1.0314681e-08
-3.3009455e-07
8.2268242e-09
-3.293529e-07
-1.5443845e-09
-3.2471878e-07
-9.8735683e-09
-3.1602454e-07
-1.9092823e-08
-3.0330093e-07
-2.7808323e-08
-2.8674062e-07
-3.6479309e-08
-2.6624219e-07
-4.5050001e-08
-2.4200964e-07
-5.3448638e-08
-2.1389938e-07
-6.1922192e-08
-1.82001e-07
-7.0407379e-08
-1.4610521e-07
-7.9178038e-08
-1.0604991e-07
-8.8466949e-08
-6.1378531e-08
-9.8626435e-08
-1.1262607e-08
-1.1074798e-07
4.4262396e-08
-1.2274186e-07
1.0478386e-07
-1.3385065e-07
1.7024143e-07
-1.4480367e-07
2.4041252e-07
-1.5528015e-07
3.1520665e-07
-1.6554951e-07
3.9441999e-07
-1.7537888e-07
4.7780415e-07
-1.8465353e-07
5.6491597e-07
-1.9295479e-07
6.551408e-07
-1.9988386e-07
7.474639e-07
-2.0454903e-07
8.3997e-07
-2.0500174e-07
9.2880681e-07
-1.9676152e-07
1.0129627e-06
-1.8625678e-07
1.0937768e-06
-1.7882455e-07
1.1711887e-06
-1.7124702e-07
1.245494e-06
-1.6444303e-07
1.3100881e-06
-1.4372129e-07
1.3683182e-06
-1.2977654e-07
1.4317612e-06
-1.4055468e-07
1.5024428e-06
-1.5653323e-07
1.5815368e-06
-1.7517392e-07
1.6695554e-06
-1.9510681e-07
1.7693961e-06
-2.2127195e-07
1.8872338e-06
-2.6140677e-07
2.0367229e-06
-3.3204423e-07
2.2173115e-06
-4.0189543e-07
2.4266015e-06
-4.6513435e-07
2.6661271e-06
-5.3320461e-07
2.9426569e-06
-6.1481876e-07
3.2620862e-06
-7.1198865e-07
3.6386031e-06
-8.3774081e-07
4.0843552e-06
-9.9502941e-07
4.6256874e-06
-1.2056189e-06
5.2746761e-06
-1.4499063e-06
6.0319894e-06
-1.688481e-06
6.8518339e-06
-1.838048e-06
7.6315251e-06
-1.740918e-06
8.0908206e-06
-1.0241774e-06
7.9537452e-06
3.5415267e-07
7.2864374e-06
1.5299967e-06
6.2959654e-06
2.2627191e-06
5.1309435e-06
2.6072284e-06
4.0473218e-06
2.4415538e-06
3.0788314e-06
2.129327e-06
2.4244864e-06
1.4720516e-06
1.9637097e-06
9.7776609e-07
7.3781297e-08
3.0661623e-06
-1.0814515e-06
3.4860732e-06
-1.1967369e-06
3.7610263e-06
-7.1946968e-07
3.5473169e-06
5.4696291e-07
2.9676692e-06
1.5806912e-06
1.9279315e-06
2.7859229e-06
7.1867647e-07
3.2255184e-06
-4.4186163e-07
3.0380181e-06
-1.0718312e-06
1.5986268e-06
-1.2495908e-06
4.1271266e-07
-1.1071081e-06
-4.0385259e-07
-9.2147527e-07
-5.0699978e-07
-7.533018e-07
-4.4922031e-07
-6.4824616e-07
-2.8092918e-07
-5.7420359e-07
-1.954948e-07
-5.2782772e-07
-1.2364479e-07
-4.9177542e-07
-9.4898306e-08
-4.673748e-07
-6.5029521e-08
-4.4322244e-07
-6.3796627e-08
-4.2268917e-07
-5.480477e-08
-4.021293e-07
-5.4526055e-08
-3.8453157e-07
-4.7052733e-08
-3.7059142e-07
-3.7065676e-08
-3.6260218e-07
-2.1472576e-08
-3.5810349e-07
-1.2142253e-08
-3.5767315e-07
-1.5205683e-09
-3.607625e-07
7.8619417e-09
-3.6799691e-07
1.87368e-08
-3.7926912e-07
2.9473284e-08
-3.9513041e-07
4.1571243e-08
-4.1553729e-07
5.3656091e-08
-4.4076088e-07
6.6406624e-08
-4.7062301e-07
7.8771453e-08
-5.0479499e-07
9.0240132e-08
-5.4220159e-07
9.8909442e-08
-5.8062226e-07
1.0158878e-07
-6.1843289e-07
9.994431e-08
-6.560831e-07
9.9552572e-08
-6.9344598e-07
9.8805674e-08
9.6890338e-08
-1.5101851e-06
-1.0230269e-07
-1.4718239e-06
-1.0153206e-07
-1.4337734e-06
-1.0071262e-07
-1.396049e-06
-9.9849829e-08
-1.3586663e-06
-9.8948491e-08
-1.3216378e-06
-9.8011453e-08
-1.2849772e-06
-9.7043637e-08
-1.2486969e-06
-9.6036786e-08
-1.2128116e-06
-9.4997293e-08
-1.1773326e-06
-9.3920307e-08
-1.1422759e-06
-9.2808319e-08
-1.1076498e-06
-9.1665931e-08
-1.0734708e-06
-9.0489465e-08
-1.0397441e-06
-8.9290201e-08
-1.006488e-06
-8.8054454e-08
-9.7370619e-07
-8.6795966e-08
-9.4142178e-07
-8.549179e-08
-9.0963596e-07
-8.4166752e-08
-8.7837727e-07
-8.2787095e-08
-8.4764413e-07
-8.1388386e-08
-8.1747165e-07
-7.99256e-08
-7.8785694e-07
-7.8438168e-08
-7.5884751e-07
-7.6862194e-08
-7.3043522e-07
-7.5265573e-08
-7.0268531e-07
-7.3545722e-08
-6.7558753e-07
-7.1796617e-08
-6.4922825e-07
-6.9884822e-08
-6.2359437e-07
-6.7930637e-08
-5.988032e-07
-6.575414e-08
-5.7483822e-07
-6.351967e-08
-5.5185581e-07
-6.0991968e-08
-5.2983775e-07
-5.8375361e-08
-5.0899467e-07
-5.5361414e-08
-4.8931119e-07
-5.2204895e-08
-4.7107398e-07
-4.8501628e-08
-4.5427711e-07
-4.4569387e-08
-4.3930109e-07
-3.9908128e-08
-4.261615e-07
-3.4885519e-08
-4.1534323e-07
-2.8944673e-08
-4.0691785e-07
-2.2394137e-08
-4.0144524e-07
-1.4835485e-08
-3.9909403e-07
-6.282077e-09
-4.0033814e-07
2.9107104e-09
-4.0488582e-07
1.1963424e-08
-4.1160282e-07
1.7028115e-08
-4.2252208e-07
2.8943255e-08
-4.2886515e-07
1.6657753e-08
-4.3340075e-07
1.2762422e-08
-4.3226266e-07
-2.6824738e-09
-4.2585775e-07
-1.6278481e-08
-4.1407416e-07
-3.0876406e-08
-3.9687294e-07
-4.5009551e-08
-3.7458383e-07
-5.8768411e-08
-3.4700926e-07
-7.2624571e-08
-3.1448025e-07
-8.5977649e-08
-2.767551e-07
-9.9647344e-08
-2.3399685e-07
-1.1316563e-07
-1.8588724e-07
-1.2728765e-07
-1.3224404e-07
-1.4211015e-07
-7.2423774e-08
-1.584467e-07
-5.3619887e-09
-1.7780976e-07
6.8899312e-08
-1.9700316e-07
1.4980798e-07
-2.1475932e-07
2.3728799e-07
-2.3228369e-07
3.3103681e-07
-2.4902896e-07
4.3093463e-07
-2.6544733e-07
5.3670315e-07
-2.8114739e-07
6.4801613e-07
-2.9596651e-07
7.6427791e-07
-3.0921658e-07
8.8466144e-07
-3.2026738e-07
1.0078289e-06
-3.2771647e-07
1.1312066e-06
-3.2837945e-07
1.2497919e-06
-3.1534686e-07
1.3621991e-06
-2.9866398e-07
1.4701973e-06
-2.8682269e-07
1.573692e-06
-2.7474172e-07
1.6729311e-06
-2.6368217e-07
1.7586494e-06
-2.2943959e-07
1.8357835e-06
-2.0691057e-07
1.9203987e-06
-2.251699e-07
2.0147521e-06
-2.5088664e-07
2.1203137e-06
-2.8073548e-07
2.2376931e-06
-3.124862e-07
2.3707866e-06
-3.543655e-07
2.5277999e-06
-4.1841986e-07
2.7265295e-06
-5.3077401e-07
2.9663366e-06
-6.417025e-07
3.2442737e-06
-7.4307146e-07
3.5622712e-06
-8.5120213e-07
3.9292672e-06
-9.8181475e-07
4.352706e-06
-1.1354275e-06
4.8517319e-06
-1.3367668e-06
5.4417405e-06
-1.5850382e-06
6.1583263e-06
-1.9222041e-06
7.0165898e-06
-2.3081711e-06
8.017408e-06
-2.6893065e-06
9.0979252e-06
-2.9185579e-06
1.0125837e-05
-2.7688294e-06
1.0738461e-05
-1.636802e-06
1.0585817e-05
5.0679694e-07
9.7380186e-06
2.3777955e-06
8.4584284e-06
3.5423093e-06
6.9323928e-06
4.1332641e-06
5.5060159e-06
3.8679307e-06
4.2162885e-06
3.4190544e-06
3.3437115e-06
2.3446287e-06
2.7182108e-06
1.6032668e-06
1.1214325e-07
3.9886842e-06
-1.549547e-06
4.4989987e-06
-1.7070513e-06
4.8384783e-06
-1.0589493e-06
4.5686399e-06
8.1680136e-07
3.8417292e-06
2.3076018e-06
2.5374508e-06
4.0902013e-06
1.0036883e-06
4.7592809e-06
-4.8589523e-07
4.5276016e-06
-1.320508e-06
2.4332395e-06
-1.5709923e-06
6.6319696e-07
-1.4025682e-06
-5.7227671e-07
-1.1721104e-06
-7.374575e-07
-9.604055e-07
-6.6092532e-07
-8.2734629e-07
-4.1398832e-07
-7.3321446e-07
-2.8962661e-07
-6.7423546e-07
-1.8262385e-07
-6.2830343e-07
-1.4083032e-07
-5.9724674e-07
-9.6086211e-08
-5.6654159e-07
-9.4501784e-08
-5.4048638e-07
-8.0859983e-08
-5.1441189e-07
-8.0600536e-08
-4.9214083e-07
-6.9323795e-08
-4.7449863e-07
-5.4707884e-08
-4.6443174e-07
-3.1539473e-08
-4.5882927e-07
-1.7744717e-08
-4.5842855e-07
-1.9212828e-09
-4.6251985e-07
1.1953228e-08
-4.7190435e-07
2.8121308e-08
-4.8643571e-07
4.4004642e-08
-5.0681637e-07
6.1951905e-08
-5.3297965e-07
7.9819368e-08
-5.6526635e-07
9.8693321e-08
-6.0343569e-07
1.1694079e-07
-6.4706143e-07
1.3386587e-07
-6.9476837e-07
1.4661638e-07
-7.4376164e-07
1.5058205e-07
-7.9199183e-07
1.481745e-07
-8.4000556e-07
1.475663e-07
-8.8764023e-07
1.4644035e-07
1.4359631e-07
-1.9103229e-06
-1.515515e-07
-1.8614485e-06
-1.5040647e-07
-1.8129714e-06
-1.4918972e-07
-1.7649107e-06
-1.4791045e-07
-1.7172867e-06
-1.4657252e-07
-1.6701149e-06
-1.4518331e-07
-1.6234134e-06
-1.437451e-07
-1.5771972e-06
-1.4225295e-07
-1.5314859e-06
-1.4070862e-07
-1.4862929e-06
-1.3911329e-07
-1.4416394e-06
-1.374618e-07
-1.3975353e-06
-1.357701e-07
-1.3540025e-06
-1.3402228e-07
-1.3110467e-06
-1.3224596e-07
-1.2686925e-06
-1.3040862e-07
-1.2269435e-06
-1.2854501e-07
-1.1858305e-06
-1.2660477e-07
-1.1453537e-06
-1.2464358e-07
-1.1055512e-06
-1.2258957e-07
-1.0664192e-06
-1.2052036e-07
-1.0280051e-06
-1.1833976e-07
-9.9030241e-07
-1.1614083e-07
-9.5337508e-07
-1.1378952e-07
-9.1720927e-07
-1.1143138e-07
-8.8189254e-07
-1.0886244e-07
-8.4740698e-07
-1.0628218e-07
-8.1386873e-07
-1.0342306e-07
-7.8125429e-07
-1.0054508e-07
-7.4972138e-07
-9.7287046e-08
-7.192396e-07
-9.4001447e-08
-6.9001981e-07
-9.0211751e-08
-6.6202578e-07
-8.636939e-08
-6.3554151e-07
-8.1845683e-08
-6.1052962e-07
-7.7216787e-08
-5.873761e-07
-7.1655149e-08
-5.6604913e-07
-6.589636e-08
-5.4706101e-07
-5.889624e-08
-5.3039905e-07
-5.1547477e-08
-5.1671763e-07
-4.2626098e-08
-5.0606376e-07
-3.3048004e-08
-4.9919972e-07
-2.1699516e-08
-4.9627989e-07
-9.2019074e-09
-4.979742e-07
4.6050148e-09
-5.0386361e-07
1.7852842e-08
-5.1267068e-07
2.5835184e-08
-5.2662417e-07
4.2896742e-08
-5.3468496e-07
2.4718539e-08
-5.4019979e-07
1.8277257e-08
-5.385403e-07
-4.3419641e-09
-5.3013776e-07
-2.4681025e-08
-5.149405e-07
-4.6073665e-08
-4.9283925e-07
-6.7110796e-08
-4.6430686e-07
-8.73008e-08
-4.2905541e-07
-1.0787602e-07
-3.8753717e-07
-1.2749589e-07
-3.3941806e-07
-1.4776645e-07
-2.8493045e-07
-1.6765324e-07
-2.2364753e-07
-1.8857057e-07
-1.5535837e-07
-2.1039931e-07
-7.922271e-08
-2.3458236e-07
6.0694566e-09
-2.6310193e-07
1.0046518e-07
-2.9139888e-07
2.0326804e-07
-3.1756218e-07
3.1438257e-07
-3.4339821e-07
4.3342218e-07
-3.6806857e-07
5.6023042e-07
-3.9225557e-07
6.9445411e-07
-4.1537108e-07
8.3567487e-07
-4.3718727e-07
9.831404e-07
-4.566821e-07
1.1358075e-06
-4.729345e-07
1.2919696e-06
-4.8387857e-07
1.4483844e-06
-4.847942e-07
1.5987929e-06
-4.6575538e-07
1.7415276e-06
-4.4139867e-07
1.8786944e-06
-4.2398951e-07
2.0101988e-06
-4.0624608e-07
2.1361749e-06
-3.8965827e-07
2.2442189e-06
-3.3748358e-07
2.341267e-06
-3.0395869e-07
2.4485234e-06
-3.3242626e-07
2.568264e-06
-3.7062727e-07
2.7021375e-06
-4.1460891e-07
2.8508995e-06
-4.6124822e-07
3.0195253e-06
-5.2299126e-07
3.2182827e-06
-6.1717715e-07
3.4692744e-06
-7.8176581e-07
3.7718186e-06
-9.4424672e-07
4.1225474e-06
-1.0938002e-06
4.5235911e-06
-1.2522459e-06
4.9863356e-06
-1.4445593e-06
5.5196883e-06
-1.6687801e-06
6.1479507e-06
-1.9650294e-06
6.8898951e-06
-2.3269828e-06
7.7907788e-06
-2.8230873e-06
8.8693473e-06
-3.3867408e-06
1.0125388e-05
-3.9453538e-06
1.1478806e-05
-4.2719691e-06
1.2765488e-05
-4.0555117e-06
1.3543257e-05
-2.4145705e-06
1.3387493e-05
6.6256154e-07
1.2368897e-05
3.3963913e-06
1.0799301e-05
5.1119052e-06
8.9037415e-06
6.028824e-06
7.1187704e-06
5.6529018e-06
5.4906087e-06
5.0472161e-06
4.3814741e-06
3.4537633e-06
3.5795663e-06
2.4051746e-06
1.7112076e-07
5.0180215e-06
-2.0959196e-06
5.6177698e-06
-2.3067997e-06
6.0192645e-06
-1.460444e-06
5.6916459e-06
1.14442e-06
4.8091399e-06
3.1901078e-06
3.2292512e-06
5.67009e-06
1.3484855e-06
6.6400466e-06
-4.9936088e-07
6.3754479e-06
-1.5685828e-06
3.5024615e-06
-1.9078108e-06
1.0024249e-06
-1.717453e-06
-7.6263452e-07
-1.4412012e-06
-1.0137093e-06
-1.1838695e-06
-9.1825703e-07
-1.0209136e-06
-5.7694423e-07
-9.0530726e-07
-4.0523294e-07
-8.3274071e-07
-2.5519035e-07
-7.762125e-07
-1.9735856e-07
-7.3796541e-07
-1.343333e-07
-7.002524e-07
-1.3221479e-07
-6.682741e-07
-1.1283828e-07
-6.3631913e-07
-1.1255551e-07
-6.0906775e-07
-9.6575167e-08
-5.8749696e-07
-7.6278669e-08
-5.7523737e-07
-4.379906e-08
-5.6850525e-07
-2.4476831e-08
-5.6819927e-07
-2.2272816e-09
-5.7344089e-07
1.7194864e-08
-5.8521511e-07
3.9895525e-08
-6.0333465e-07
6.2124193e-08
-6.2865989e-07
8.7277142e-08
-6.6110067e-07
1.1226015e-07
-7.0106528e-07
1.3865793e-07
-7.4824168e-07
1.6411719e-07
-8.0209334e-07
1.8771753e-07
-8.6092229e-07
2.0544533e-07
-9.2132917e-07
2.1098893e-07
-9.8081414e-07
2.0765947e-07
-1.040011e-06
2.0676317e-07
-1.0987354e-06
2.0516476e-07
2.0116805e-07
-2.3354633e-06
-2.1221797e-07
-2.27526e-06
-2.1060984e-07
-2.2155477e-06
-2.0890198e-07
-2.15635e-06
-2.0710822e-07
-2.0976916e-06
-2.0523083e-07
-2.0395917e-06
-2.0328326e-07
-1.9820729e-06
-2.0126386e-07
-1.9251533e-06
-1.9917263e-07
-1.8688572e-06
-1.9700469e-07
-1.8132009e-06
-1.9476962e-07
-1.7582107e-06
-1.9245192e-07
-1.7038986e-06
-1.9008227e-07
-1.6502919e-06
-1.8762892e-07
-1.5973977e-06
-1.8514023e-07
-1.5452465e-06
-1.8255984e-07
-1.4938423e-06
-1.7994916e-07
-1.443224e-06
-1.7722308e-07
-1.3933911e-06
-1.7447646e-07
-1.3443917e-06
-1.7158901e-07
-1.2962201e-06
-1.6869187e-07
-1.2489362e-06
-1.6562368e-07
-1.2025309e-06
-1.6254614e-07
-1.1570847e-06
-1.5923577e-07
-1.1125788e-06
-1.559372e-07
-1.0691238e-06
-1.5231752e-07
-1.0266949e-06
-1.4871105e-07
-9.8543885e-07
-1.4467909e-07
-9.4532295e-07
-1.4066098e-07
-9.0654638e-07
-1.3606362e-07
-8.6906648e-07
-1.3148135e-07
-8.3314982e-07
-1.261284e-07
-7.9874429e-07
-1.2077492e-07
-7.6620913e-07
-1.1438084e-07
-7.3548764e-07
-1.0793827e-07
-7.0706795e-07
-1.0007484e-07
-6.8089581e-07
-9.2068507e-08
-6.5761921e-07
-8.2172832e-08
-6.3720174e-07
-7.1964946e-08
-6.2047238e-07
-5.9355455e-08
-6.0745963e-07
-4.6060755e-08
-5.991344e-07
-3.0024743e-08
-5.9564428e-07
-1.2692026e-08
-5.9785981e-07
6.8205481e-09
-6.0524834e-07
2.5241363e-08
-6.1639683e-07
3.6983675e-08
-6.3364779e-07
6.0147704e-08
-6.435313e-07
3.4602052e-08
-6.5000113e-07
2.4747081e-08
-6.4767512e-07
-6.6679746e-09
-6.370247e-07
-3.5331442e-08
-6.1805741e-07
-6.5040953e-08
-5.9060319e-07
-9.4565017e-08
-5.5527965e-07
-1.2262434e-07
-5.1170871e-07
-1.5144696e-07
-4.6046857e-07
-1.7873604e-07
-4.0113179e-07
-2.0710323e-07
-3.3400089e-07
-2.3478414e-07
-2.5853433e-07
-2.6403712e-07
-1.7448801e-07
-2.9444563e-07
-8.0812019e-08
-3.2825835e-07
2.4053994e-08
-3.6796794e-07
1.4004348e-07
-4.0738836e-07
2.6631289e-07
-4.4383159e-07
4.0274181e-07
-4.7982713e-07
5.4885715e-07
-5.1418391e-07
7.0445263e-07
-5.4785106e-07
8.6910815e-07
-5.800266e-07
1.0423019e-06
-6.10381e-07
1.2230985e-06
-6.3747872e-07
1.4102339e-06
-6.6006988e-07
1.6016195e-06
-6.752642e-07
1.7932961e-06
-6.7647084e-07
1.9777609e-06
-6.5022011e-07
2.1529469e-06
-6.1658468e-07
2.3213539e-06
-5.9239655e-07
2.482892e-06
-5.6778412e-07
2.6374936e-06