/*--------------------------------*- C++ -*----------------------------------*\
| =========                 |                                                 |
| \\      /  F ield         | OpenFOAM: The Open Source CFD Toolbox           |
|  \\    /   O peration     | Version:  2.4.0                                 |
|   \\  /    A nd           | Web:      www.OpenFOAM.org                      |
|    \\/     M anipulation  |                                                 |
\*---------------------------------------------------------------------------*/
FoamFile
{
    version     2.0;
    format      ascii;
    class       volVectorField;
    location    "370";
    object      U;
}
// * * * * * * * * * * * * * * * * * * * * * * * * * * * * * * * * * * * * * //

dimensions      [0 1 -1 0 0 0 0];

internalField   nonuniform List<vector> 
19475
(
(0.0053546771 2.288183e-05 1.2997548e-21)
(0.0039220068 1.9666163e-05 -1.2662311e-21)
(0.0066988829 -4.2498906e-05 1.0816028e-21)
(0.0052481263 -0.00016139035 -2.9584944e-20)
(0.0058304204 -0.00039513744 -8.4176819e-21)
(0.003320543 -0.00038910288 1.628246e-20)
(0.0021356163 -0.00038731169 9.5109277e-21)
(-0.00063391709 0.00015308909 -3.346991e-20)
(-0.0015714419 0.00051532463 -1.2267968e-20)
(-0.0023290189 0.00098182364 1.3782289e-20)
(-0.0019199695 0.00096823331 8.4670191e-21)
(-0.0016956291 0.00097948917 -2.1624598e-20)
(-0.0012536858 0.00080082706 3.3774155e-21)
(-0.0011028183 0.00076340472 -1.5604834e-20)
(-0.0009005827 0.00066229198 1.1717636e-20)
(-0.00084518776 0.00065238105 -1.6508474e-20)
(-0.0007417679 0.0005936622 -5.1221396e-21)
(-0.00071504852 0.00058885888 2.3249877e-21)
(-0.00065305141 0.00054856497 -8.3347261e-21)
(-0.00062536799 0.00053240387 5.7674578e-21)
(-0.00057782467 0.00049499735 7.1878415e-21)
(-0.00055003804 0.00047130375 -5.6961713e-21)
(-0.00051377263 0.00043731965 -2.003822e-21)
(-0.00049726501 0.00041856809 8.6206462e-22)
(-0.00047950209 0.00039898417 2.0197602e-21)
(-0.00047278696 0.00038920469 4.5986036e-22)
(-0.00046687534 0.00038046085 5.8867586e-22)
(-0.00046955023 0.00037909254 -1.9215003e-21)
(-0.00047487672 0.00038010023 -1.6005227e-21)
(-0.00048779998 0.00038741332 -1.0835489e-21)
(-0.00050483206 0.00039813253 1.1652288e-21)
(-0.0005287963 0.00041446235 2.5047503e-21)
(-0.00055749837 0.00043462819 9.7454831e-22)
(-0.00059227355 0.00045968249 1.3395259e-21)
(-0.00063086434 0.00048787911 -1.4725254e-21)
(-0.00067247198 0.00051868477 9.8145006e-22)
(-0.00071213213 0.00054759498 -1.5607181e-21)
(-0.00075083142 0.00057396886 -4.9681625e-23)
(-0.00078902781 0.00059776021 -2.1998513e-21)
(-0.00082607508 0.00061819864 3.3916842e-22)
(-0.0017288427 -3.0088267e-07 -8.4253394e-24)
(-0.0016864768 -3.0453438e-07 8.7197597e-24)
(-0.0016444196 -3.0759124e-07 8.0849713e-25)
(-0.001602733 -3.102664e-07 -7.9490871e-24)
(-0.0015613907 -3.1339353e-07 4.4092998e-24)
(-0.0015204588 -3.1595112e-07 -4.8559071e-24)
(-0.0014798858 -3.1915618e-07 7.1622445e-24)
(-0.0014397598 -3.214181e-07 -1.8329539e-24)
(-0.0014000082 -3.2410023e-07 -3.5975416e-24)
(-0.0013607523 -3.2595157e-07 1.1558808e-24)
(-0.0013218827 -3.2841384e-07 4.6681145e-24)
(-0.0012835638 -3.3040112e-07 -5.4153433e-24)
(-0.0012456296 -3.3279666e-07 4.7369836e-24)
(-0.0012083014 -3.348276e-07 -5.1736276e-24)
(-0.0011713399 -3.368469e-07 2.6546749e-24)
(-0.0011350506 -3.3855351e-07 3.032346e-24)
(-0.0010991017 -3.4009893e-07 4.9193188e-24)
(-0.0010639134 -3.4135757e-07 -5.6335069e-24)
(-0.0010290241 -3.4260735e-07 -3.8755781e-24)
(-0.00099500697 -3.4343173e-07 4.9892512e-24)
(-0.00096122434 -3.4420922e-07 -1.0623027e-23)
(-0.00092845456 -3.4413552e-07 9.8892566e-24)
(-0.00089583629 -3.4436064e-07 -5.8654295e-24)
(-0.00086442298 -3.4340179e-07 5.1101812e-24)
(-0.00083304274 -3.4309348e-07 -5.9441203e-24)
(-0.00080312519 -3.4092278e-07 -4.0941617e-24)
(-0.00077308606 -3.4028915e-07 3.242092e-24)
(-0.00074485378 -3.3709831e-07 -4.1457509e-24)
(-0.0007163009 -3.3665198e-07 1.0677849e-23)
(-0.00069001632 -3.3308509e-07 -6.4901128e-24)
(-0.00066313975 -3.3357608e-07 5.6853601e-24)
(-0.00063913628 -3.2919649e-07 -9.7397693e-24)
(-0.00061418849 -3.2973448e-07 9.1171799e-25)
(-0.00059292625 -3.2349375e-07 3.3754452e-24)
(-0.00057027825 -3.2375235e-07 3.7893122e-24)
(-0.0005524113 -3.1495891e-07 -1.4452935e-23)
(-0.00053261903 -3.1556349e-07 8.4338407e-17)
(-0.00051905424 -3.045204e-07 8.4846181e-17)
(-0.00050290996 -3.058706e-07 -4.3121946e-24)
(-0.00049484363 -2.9152835e-07 -6.4187276e-24)
(-0.00048347658 -2.9324949e-07 5.6010802e-24)
(-0.00048242769 -2.7487732e-07 1.0189708e-24)
(-0.00047734002 -2.7779684e-07 -1.8530419e-24)
(-0.00048488578 -2.5695482e-07 -8.7052805e-17)
(-0.00048608902 -2.6948024e-07 -8.7566747e-17)
(-0.00049820501 -5.9426858e-06 -1.5682495e-20)
(-0.00050772568 -2.615091e-05 1.6274157e-19)
(-0.00051119659 -4.7069995e-05 7.3842059e-20)
(-0.00051756309 -6.8535169e-05 -4.7883649e-19)
(-0.00050993183 -8.7859003e-05 -7.971766e-20)
(-0.00050442372 -0.00010683696 -5.3366295e-19)
(-0.0004860743 -0.00012186072 3.5689664e-20)
(-0.00046834096 -0.00013540942 -5.5702546e-21)
(-0.00043963091 -0.00014367898 1.9791727e-19)
(-0.00040992146 -0.0001491639 -1.5562698e-19)
(-0.00037077511 -0.00014832622 5.0733747e-19)
(-0.00032913149 -0.00014329048 -3.4574803e-19)
(-0.00027889863 -0.0001309071 -9.399399e-20)
(-0.00022461175 -0.00011272451 -1.7274548e-19)
(-0.00016155742 -8.5814443e-05 9.8187998e-19)
(-9.2254007e-05 -5.0844005e-05 2.1501245e-19)
(-1.1572476e-05 -4.2528124e-06 -8.3913548e-19)
(7.6144421e-05 5.1528863e-05 -9.2133453e-19)
(0.00017430817 0.00011857379 -1.4730904e-19)
(0.00028001405 0.00019479971 7.100753e-20)
(0.0003959827 0.00028178291 -9.9125265e-19)
(0.00051995125 0.00037754691 -6.6218854e-20)
(0.00065409129 0.00048319353 -1.8024212e-19)
(0.00079613387 0.00059643636 -1.1816601e-18)
(0.00094751894 0.00071768649 1.7939556e-19)
(0.0011053323 0.0008439269 9.7095868e-19)
(0.0012697496 0.00097434933 7.040791e-19)
(0.0014344607 0.0011033518 -2.6371e-19)
(0.0015924986 0.0012274698 -1.3061816e-19)
(0.0017467641 0.0013505989 -1.211346e-19)
(0.0018991366 0.0014745149 2.4720134e-19)
(0.0020473938 0.0015977364 8.6862653e-19)
(0.0021961372 0.0017241576 -9.4398888e-19)
(0.0023204069 0.0018340819 2.5304051e-19)
(0.0024525293 0.0019535036 2.622907e-20)
(0.0025982617 0.0020876236 2.3857567e-19)
(0.0027613565 0.0022396167 1.411717e-19)
(0.0029459222 0.0024136952 -6.6181021e-20)
(0.0031506151 0.0026095086 3.3355298e-19)
(0.0033901598 0.0028403165 -3.9886016e-20)
(0.0036749405 0.0031135528 -6.955371e-19)
(0.0040548887 0.0034577434 -1.6627258e-20)
(0.004480295 0.0038195554 -4.5140195e-19)
(0.0049984048 0.0042335753 4.195224e-19)
(0.0055660692 0.0046516934 3.4489696e-20)
(0.0062687625 0.0051336755 5.1013693e-20)
(0.0070383091 0.0056028266 -1.1817708e-19)
(0.008026231 0.0061588612 7.1215506e-20)
(0.0091163383 0.0066702986 4.7031978e-20)
(0.010577062 0.0072845081 -1.7421782e-20)
(0.012156687 0.0077415936 1.3080617e-19)
(0.014184388 0.0081695265 -9.5684924e-20)
(0.016048967 0.0080950856 -3.5178457e-19)
(0.017977457 0.0075915268 -4.2335164e-19)
(0.01818494 0.0060560932 -8.3333743e-20)
(0.017283483 0.0043370987 1.2610913e-19)
(0.014818042 0.0026483002 -1.5821372e-19)
(0.012622557 0.001486509 -9.718682e-20)
(0.0092700581 0.00063495953 -2.0634328e-20)
(0.0077638982 0.00024369296 -3.0663793e-20)
(0.0047698199 3.3915006e-05 -1.8594971e-20)
(0.0050526538 -2.7721328e-05 -1.0678239e-20)
(0.002431458 -1.1076201e-05 -1.8267472e-21)
(0.016208792 6.0141966e-05 1.430518e-21)
(0.012411304 5.1005985e-05 3.645564e-21)
(0.020268465 -0.00013574185 -3.9787164e-21)
(0.016069188 -0.00048824753 3.4762627e-20)
(0.017705197 -0.0011835453 5.0658468e-22)
(0.010355368 -0.0011782395 5.9974081e-20)
(0.0067739757 -0.0011780735 -2.5029436e-20)
(-0.0015041929 0.00041782515 4.7490851e-20)
(-0.0044799047 0.0015143019 3.7106061e-20)
(-0.0068679019 0.0029253716 -3.2598997e-20)
(-0.0057245619 0.0029026055 -1.017347e-20)
(-0.0050768992 0.0029420811 3.2755733e-21)
(-0.0037706109 0.0024140653 7.6442713e-20)
(-0.0033181223 0.0023017226 1.1735532e-20)
(-0.0027149033 0.00200055 -3.19148e-20)
(-0.0025465928 0.0019697281 1.4697693e-20)
(-0.0022375419 0.0017944878 -8.3012156e-21)
(-0.0021558253 0.0017791844 -3.1663302e-21)
(-0.0019706402 0.0016586809 -8.6925876e-21)
(-0.0018870587 0.0016096165 2.3999146e-21)
(-0.0017451452 0.0014974902 -3.3188806e-21)
(-0.0016618711 0.0014259998 2.7606906e-21)
(-0.0015537767 0.0013240581 3.2323224e-21)
(-0.0015043845 0.0012674807 6.8823674e-21)
(-0.0014516778 0.0012087349 -1.8271712e-21)
(-0.0014319222 0.0011793401 -2.4110808e-21)
(-0.0014148334 0.0011532867 -3.3332288e-21)
(-0.0014233974 0.001149357 1.6207726e-21)
(-0.0014400855 0.001152724 7.0315256e-22)
(-0.0014794869 0.0011750301 3.5845156e-21)
(-0.0015313002 0.0012076746 -5.8603133e-21)
(-0.0016038222 0.0012571748 -3.6871862e-21)
(-0.0016905461 0.0013182492 -7.0576498e-22)
(-0.0017953399 0.0013939729 -1.4301639e-21)
(-0.0019114568 0.0014791166 -4.2288091e-23)
(-0.0020364969 0.0015720164 4.6900382e-21)
(-0.0021557783 0.0016592492 3.6972176e-21)
(-0.0022721365 0.0017388162 1.5014607e-22)
(-0.0023869533 0.0018105494 2.167192e-21)
(-0.0024983315 0.0018721223 1.6957287e-22)
(-0.0051645859 -1.2595362e-06 3.0904474e-24)
(-0.0050370856 -1.2510617e-06 -7.2754271e-24)
(-0.0049105221 -1.2420657e-06 9.1370791e-24)
(-0.0047850677 -1.2325617e-06 1.237104e-24)
(-0.0046606463 -1.2226995e-06 -8.1275243e-24)
(-0.0045374542 -1.2126688e-06 1.442016e-23)
(-0.004415351 -1.2022361e-06 -1.0635221e-23)
(-0.0042945942 -1.1910006e-06 1.413389e-24)
(-0.0041749717 -1.1796937e-06 1.973749e-24)
(-0.0040568374 -1.1677023e-06 -1.0113435e-23)
(-0.0039398689 -1.1557667e-06 1.1280392e-23)
(-0.0038245479 -1.1430665e-06 2.2128066e-24)
(-0.0037103902 -1.1309521e-06 -5.7541398e-24)
(-0.0035980499 -1.117754e-06 -5.8436198e-24)
(-0.0034868299 -1.105148e-06 -1.1309971e-23)
(-0.0033776275 -1.0908388e-06 2.0580462e-23)
(-0.0032694716 -1.0774902e-06 1.4342485e-23)
(-0.0031635959 -1.0619807e-06 -3.1074701e-23)
(-0.0030586462 -1.0478247e-06 3.0972126e-23)
(-0.0029563087 -1.0307627e-06 -9.2289914e-24)
(-0.0028547149 -1.0155502e-06 -1.4378616e-23)
(-0.0027561551 -9.9646055e-07 -1.1863025e-23)
(-0.0026580959 -9.7974547e-07 -4.7170503e-25)
(-0.0025636382 -9.5840654e-07 2.6859292e-23)
(-0.0024693345 -9.4019151e-07 -1.9902601e-23)
(-0.0023793961 -9.1597365e-07 1.2525616e-23)
(-0.0022891594 -8.958064e-07 -2.00036e-23)
(-0.0022043028 -8.6819501e-07 2.2270268e-23)
(-0.0021185552 -8.463945e-07 -1.2309931e-23)
(-0.0020395505 -8.1504517e-07 7.3478758e-24)
(-0.0019588655 -7.9121015e-07 2.4703617e-24)
(-0.0018867303 -7.5398128e-07 -1.252544e-23)
(-0.0018118901 -7.2627029e-07 1.3031099e-23)
(-0.0017480196 -6.8029298e-07 -1.818908e-25)
(-0.0016801553 -6.4654782e-07 5.0681147e-24)
(-0.0016265182 -5.8804404e-07 -2.3691939e-23)
(-0.001567299 -5.4577117e-07 1.6018013e-23)
(-0.0015266056 -4.7055196e-07 5.12955e-24)
(-0.001478418 -4.1726054e-07 -2.404413e-23)
(-0.0014542701 -3.1903046e-07 2.3691215e-23)
(-0.0014205168 -2.5119785e-07 1.6417607e-23)
(-0.0014174638 -1.2306761e-07 -2.430052e-23)
(-0.0014026479 -4.1870096e-08 1.9154473e-23)
(-0.0014254117 9.7353922e-08 -2.7176183e-23)
(-0.0014297897 1.1407585e-07 -2.8873625e-23)
(-0.0014669502 -1.6638878e-05 4.095817e-20)
(-0.0014958099 -7.6835738e-05 1.7833031e-20)
(-0.0015058898 -0.00013907739 8.6240088e-21)
(-0.0015240932 -0.00020297436 5.7236481e-19)
(-0.0015005653 -0.00026044802 2.8594792e-19)
(-0.0014830222 -0.00031677045 1.3158705e-18)
(-0.0014271968 -0.00036124064 1.1631556e-18)
(-0.0013729493 -0.00040114929 -3.0242058e-19)
(-0.001285936 -0.00042522636 -3.7628539e-19)
(-0.001195735 -0.00044081854 8.3096417e-20)
(-0.0010773136 -0.00043743366 -2.6900462e-19)
(-0.0009512688 -0.00042133346 2.1579052e-19)
(-0.00079953273 -0.00038316094 -2.4028185e-19)
(-0.00063560217 -0.00032747855 -1.0676919e-19)
(-0.00044549835 -0.000245564 -7.8134605e-19)
(-0.00023663087 -0.00013936788 1.8305169e-18)
(6.0343726e-06 1.7037606e-06 6.9504285e-19)
(0.00026964706 0.00017035412 4.5148147e-20)
(0.0005642986 0.00037279109 -4.7769577e-19)
(0.00088138942 0.00060276387 -5.6131231e-19)
(0.0012289488 0.00086498021 1.1931969e-18)
(0.0016002714 0.0011535252 -2.1606105e-18)
(0.0020017886 0.0014716537 4.8179199e-19)
(0.0024267679 0.0018125557 -2.3893357e-19)
(0.0028794692 0.0021773861 3.9139397e-19)
(0.0033513475 0.0025571743 -8.9181137e-19)
(0.0038428126 0.0029493994 -2.5356539e-19)
(0.0043352071 0.0033374392 -5.7460189e-19)
(0.0048082085 0.0037111511 3.6551146e-19)
(0.0052702725 0.0040820629 -7.9229204e-19)
(0.0057266915 0.0044553918 -4.3340719e-19)
(0.0061710426 0.0048269024 -7.7674905e-19)
(0.0066155425 0.005207473 3.8748785e-20)
(0.006983221 0.0055368826 9.3386119e-19)
(0.0073769203 0.005895934 -3.6017708e-19)
(0.0078127328 0.0062997277 4.2027841e-19)
(0.0083002097 0.0067572995 -2.6787777e-19)
(0.0088511777 0.0072810454 -1.3064293e-18)
(0.0094619069 0.0078701818 2.4302179e-19)
(0.010175766 0.0085639887 1.4710762e-19)
(0.011023831 0.0093849975 1.2365432e-18)
(0.012151407 0.010416029 -2.1545586e-19)
(0.013414958 0.011500855 2.2131354e-19)
(0.014952432 0.012739873 -3.7176293e-20)
(0.016639129 0.013992611 -1.3203253e-19)
(0.018722393 0.015432215 -3.5639035e-19)
(0.021007455 0.016835645 4.9735807e-20)
(0.023933834 0.018491588 -6.4382618e-20)
(0.02716895 0.020017684 7.3279546e-20)
(0.031494688 0.021839498 6.1151944e-21)
(0.036186953 0.023199029 -1.5930742e-19)
(0.042179004 0.02445177 2.4508913e-19)
(0.047706787 0.024219674 9.4544001e-20)
(0.053403715 0.022695701 5.1130498e-19)
(0.054159414 0.0181509 -2.6334572e-19)
(0.051684157 0.013046834 2.6497399e-19)
(0.044623542 0.0080240052 -1.2375265e-19)
(0.038194166 0.0045346138 -3.5932427e-19)
(0.028372645 0.001971848 -9.1338829e-20)
(0.02381332 0.00077422828 8.6143181e-21)
(0.014970141 0.00012450421 2.953262e-20)
(0.015627989 -7.0203209e-05 5.5818495e-21)
(0.0081215417 -3.5377954e-05 6.6330281e-21)
(0.027472556 8.5490021e-05 1.339493e-21)
(0.021625737 7.1397363e-05 -1.248796e-21)
(0.034186535 -0.00024060395 -4.2597651e-22)
(0.02744097 -0.00082518904 -1.7498108e-20)
(0.029964519 -0.0019769383 5.1476829e-20)
(0.017943264 -0.0019997923 -4.0000035e-20)
(0.011861238 -0.0020090955 2.48407e-20)
(-0.0019501669 0.00060726309 -1.0096497e-19)
(-0.0071936603 0.0024643955 5.1263501e-20)
(-0.011356513 0.0048470737 1.3321379e-21)
(-0.0095623259 0.0048453565 1.4298136e-20)
(-0.0085068867 0.004921899 -1.7697302e-20)
(-0.0063439894 0.0040554101 -7.6003506e-20)
(-0.0055825703 0.0038676509 2.2933373e-20)
(-0.0045757018 0.0033689557 3.425639e-20)
(-0.0042893539 0.0033153839 -3.9277158e-21)
(-0.0037728013 0.0030244567 3.4467726e-21)
(-0.0036330952 0.0029971366 6.7515474e-21)
(-0.0033235788 0.0027964803 1.858455e-20)
(-0.0031822904 0.0027133312 -9.8389284e-21)
(-0.0029450548 0.0025261389 -9.4078707e-21)
(-0.0028050764 0.0024058902 -1.5747148e-21)
(-0.0026244556 0.0022356319 3.752105e-21)
(-0.0025414343 0.0021405691 -7.6145972e-21)
(-0.0024536099 0.0020425166 1.9967611e-22)
(-0.0024207584 0.0019933843 -2.8745531e-21)
(-0.0023928189 0.0019502797 2.5236776e-21)
(-0.0024077462 0.0019441287 1.5377807e-21)
(-0.002436589 0.0019504993 7.7840598e-23)
(-0.0025034263 0.0019885561 1.7026481e-21)
(-0.0025912482 0.0020441239 -6.6494021e-22)
(-0.002713706 0.0021278953 -6.1763229e-22)
(-0.0028600196 0.002231136 -2.4909948e-21)
(-0.0030364764 0.0023588161 1.0275e-22)
(-0.0032318263 0.0025022109 -5.7444256e-21)
(-0.0034419927 0.0026583896 -4.2205219e-21)
(-0.0036426374 0.0028050948 -8.4367556e-22)
(-0.003838318 0.002938861 2.2360025e-22)
(-0.0040313511 0.0030593516 3.0399322e-22)
(-0.0042185952 0.0031626975 -7.5485172e-22)
(-0.0086285568 -3.5783305e-06 -1.3360885e-23)
(-0.0084141818 -3.5504743e-06 6.1383347e-24)
(-0.0082013918 -3.5208084e-06 -2.5726519e-24)
(-0.0079904633 -3.4894438e-06 -4.7603582e-24)
(-0.0077812749 -3.4574694e-06 2.6052769e-24)
(-0.0075741494 -3.4239862e-06 9.6389438e-24)
(-0.0073688662 -3.3901243e-06 -1.079253e-23)
(-0.0071658464 -3.354156e-06 8.7163371e-24)
(-0.006964746 -3.3178032e-06 3.8886994e-24)
(-0.0067661422 -3.2792708e-06 -2.6815514e-24)
(-0.00656951 -3.2406762e-06 -1.3961911e-23)
(-0.006375636 -3.2003332e-06 1.8015752e-23)
(-0.0061837337 -3.1600656e-06 -1.9818557e-23)
(-0.0059948745 -3.1180738e-06 1.5960541e-23)
(-0.0058079255 -3.076183e-06 -1.8427325e-23)
(-0.0056243539 -3.0320256e-06 1.6186453e-23)
(-0.0054425766 -2.9877207e-06 1.6423623e-23)
(-0.005264611 -2.9406804e-06 -3.0485923e-23)
(-0.0050882464 -2.8939367e-06 2.2474235e-23)
(-0.0049162431 -2.8439862e-06 -2.7439616e-23)
(-0.00474555 -2.7944615e-06 3.1836684e-23)
(-0.0045799182 -2.7402325e-06 -2.5317269e-23)
(-0.0044152033 -2.686674e-06 4.2140526e-24)
(-0.004256486 -2.6273589e-06 2.641503e-23)
(-0.004098123 -2.5690523e-06 -1.5316585e-23)
(-0.0039470207 -2.5031284e-06 1.0577547e-23)
(-0.0037955375 -2.4388364e-06 -2.6113556e-23)
(-0.0036529901 -2.3641729e-06 2.4475619e-23)
(-0.0035090915 -2.2924161e-06 -3.3398036e-23)
(-0.0033763802 -2.2074603e-06 2.8453362e-23)
(-0.0032410365 -2.1264398e-06 -2.6747125e-23)
(-0.0031198798 -2.0263939e-06 2.0507021e-23)
(-0.0029944263 -1.9308753e-06 -1.875411e-23)
(-0.0028871741 -1.8087654e-06 7.108734e-24)
(-0.0027735288 -1.6917146e-06 1.8225782e-23)
(-0.0026834861 -1.5378966e-06 -2.744258e-23)
(-0.0025844586 -1.3911886e-06 3.4862917e-23)
(-0.0025161618 -1.1943508e-06 -2.3060209e-23)
(-0.0024357709 -1.0080412e-06 1.1259556e-23)
(-0.0023952648 -7.5064725e-07 -3.2715441e-24)
(-0.0023392337 -5.1326709e-07 -6.0261602e-24)
(-0.0023341385 -1.7695604e-07 -1.6870334e-23)
(-0.0023100179 1.1048125e-07 1.8866364e-23)
(-0.0023482336 4.7061431e-07 2.17926e-23)
(-0.0023567266 5.8807938e-07 -2.790049e-23)
(-0.0024199694 -2.6889577e-05 -4.1895763e-20)
(-0.0024686527 -0.00012651545 -2.800354e-19)
(-0.002485206 -0.00022938466 -2.6719299e-20)
(-0.0025144697 -0.00033505493 -2.2164897e-19)
(-0.0024743869 -0.00042997982 -3.9625945e-19)
(-0.0024436583 -0.00052278592 -8.5958936e-19)
(-0.0023493 -0.00059580702 -9.9276208e-20)
(-0.0022571063 -0.00066096831 1.0831132e-18)
(-0.002110375 -0.00069968745 -1.4184802e-19)
(-0.0019579783 -0.00072399345 -1.6896654e-19)
(-0.0017585207 -0.00071657518 -8.949869e-19)
(-0.0015460703 -0.00068769226 -6.0977536e-19)
(-0.0012907143 -0.00062188512 -1.0657291e-18)
(-0.0010148 -0.00052661844 -4.7056862e-19)
(-0.00069514701 -0.00038745614 -4.7943272e-19)
(-0.00034391879 -0.0002075334 -8.3465062e-19)
(6.3668594e-05 3.0583964e-05 -1.2705137e-18)
(0.00050631892 0.00031488901 -3.4762735e-20)
(0.001000774 0.000655544 1.7656019e-18)
(0.001532774 0.0010422809 5.0342812e-19)
(0.0021156039 0.0014827681 -6.2325266e-19)
(0.0027381556 0.0019672816 2.1870244e-18)
(0.0034110517 0.0025010711 -1.7412175e-19)
(0.0041231483 0.0030729116 2.6453534e-20)
(0.0048814256 0.0036845641 -1.12501e-18)
(0.0056717917 0.0043212087 9.881108e-19)
(0.006494712 0.0049784699 -4.7892115e-19)
(0.0073192467 0.0056289155 -4.2647012e-19)
(0.0081120482 0.0062560137 -7.494194e-19)
(0.0088869668 0.0068786734 8.3391417e-19)
(0.0096524884 0.0075054787 3.4702825e-20)
(0.010398255 0.0081297025 -1.2299939e-18)
(0.011142455 0.008768282 4.1151228e-20)
(0.011753493 0.0093172362 -1.0492316e-18)
(0.012411825 0.0099181313 -5.0478277e-19)
(0.013142336 0.010595084 -1.3913018e-18)
(0.013959285 0.011362162 1.2522719e-18)
(0.014881835 0.012239534 2.8218152e-19)
(0.015904314 0.013226353 -1.0107248e-18)
(0.017098411 0.01438718 8.5996092e-21)
(0.018516772 0.015760067 -5.0042291e-19)
(0.020396505 0.017478334 -3.7967456e-21)
(0.022504808 0.019288428 -4.2155347e-19)
(0.025066616 0.02135119 -3.1217774e-19)
(0.027880379 0.023439629 2.3740716e-19)
(0.031347277 0.025830606 4.3813382e-19)
(0.035155376 0.028165699 -4.3748016e-19)
(0.040018026 0.03090657 2.1437826e-20)
(0.045403117 0.033438227 1.3277372e-20)
(0.052581696 0.036440494 1.1596496e-20)
(0.060389424 0.03869157 1.5951209e-19)
(0.070303339 0.040727578 -8.9985286e-20)
(0.079478604 0.040329606 -3.7141225e-19)
(0.088875039 0.037762322 -4.2094491e-19)
(0.090313234 0.030292996 -2.1781409e-19)
(0.086445181 0.021866368 -5.4705887e-19)
(0.075084613 0.013560538 3.6718025e-19)
(0.064491677 0.0077191037 1.2622342e-19)
(0.048393836 0.0034209835 2.2015257e-19)
(0.040643555 0.0013718055 -8.2413675e-21)
(0.026072047 0.000249765 1.4338454e-20)
(0.02683139 -9.5509968e-05 1.7520656e-21)
(0.01469596 -6.3298543e-05 9.1752789e-21)
(0.039212754 9.8866183e-05 9.2812937e-22)
(0.031561836 8.0946566e-05 -2.1913555e-21)
(0.048441405 -0.00035833947 -6.0977292e-21)
(0.039408301 -0.0011724254 -1.0531375e-20)
(0.042607576 -0.0027750778 -2.0871198e-20)
(0.026128987 -0.0028541894 -1.1849514e-20)
(0.017421471 -0.0028816697 -2.7473435e-20)
(-0.001921125 0.00071581437 6.4156469e-20)
(-0.0096878584 0.0033603686 -1.5993995e-19)
(-0.015777557 0.0067420194 1.2131547e-20)
(-0.01342918 0.0067934732 -6.7282593e-21)
(-0.011981727 0.0069165935 2.8319639e-20)
(-0.0089744898 0.0057240673 3.8390699e-20)
(-0.0078956107 0.0054606307 -1.37494e-20)
(-0.0064839355 0.0047675474 -1.9444939e-20)
(-0.0060734738 0.0046893346 1.2107665e-20)
(-0.0053483707 0.0042838438 2.4146971e-20)
(-0.0051471018 0.0042429151 1.7809091e-20)
(-0.0047125334 0.0039623098 -1.1350359e-20)
(-0.0045114596 0.0038438665 -1.5594948e-21)
(-0.0041782126 0.0035813632 1.2116446e-20)
(-0.0039801879 0.003411408 1.2148109e-21)
(-0.0037265477 0.0031725714 -1.5192034e-21)
(-0.0036090856 0.0030383899 -1.436267e-21)
(-0.0034860825 0.0029009518 -1.7704737e-21)
(-0.0034400661 0.0028319942 8.0886225e-21)
(-0.0034016939 0.002772155 -2.0741371e-21)
(-0.00342347 0.0027641658 -1.0220889e-21)
(-0.0034653364 0.002774241 -3.7148976e-22)
(-0.003560592 0.0028288521 -2.4364448e-21)
(-0.0036857111 0.0029083923 3.593391e-21)
(-0.0038595091 0.0030275781 -2.5191221e-21)
(-0.0040670221 0.0031742819 3.8340199e-21)
(-0.0043167968 0.0033552292 -4.5227343e-22)
(-0.0045931012 0.0035581918 5.522283e-21)
(-0.0048900644 0.0037788258 3.2686714e-21)
(-0.0051738141 0.003986143 -4.385207e-21)
(-0.0054504781 0.004175101 3.6160782e-21)
(-0.0057233065 0.0043451473 -7.2730083e-22)
(-0.0059879472 0.0044908675 -3.0771777e-22)
(-0.012116119 -7.4031991e-06 -9.2374531e-24)
(-0.011813133 -7.3470998e-06 8.2291562e-24)
(-0.011512401 -7.2872138e-06 -4.9807499e-29)
(-0.011214299 -7.2240647e-06 -1.548505e-23)
(-0.010918667 -7.1587044e-06 1.3700945e-23)
(-0.010625948 -7.0905972e-06 -5.5650815e-24)
(-0.010335849 -7.0210994e-06 8.6301918e-24)
(-0.010048946 -6.9478369e-06 -8.2208621e-24)
(-0.0097647744 -6.8729625e-06 6.3796165e-24)
(-0.0094841233 -6.794678e-06 -2.2844893e-23)
(-0.0092062802 -6.7148912e-06 3.5922413e-23)
(-0.0089323202 -6.6323216e-06 -3.8019148e-23)
(-0.0086611751 -6.5486708e-06 4.7470984e-24)
(-0.0083943109 -6.4624926e-06 1.9961229e-23)
(-0.0081301864 -6.3746587e-06 -7.0011674e-24)
(-0.007870808 -6.2838416e-06 4.998103e-24)
(-0.0076140181 -6.1912341e-06 -2.413214e-23)
(-0.0073625767 -6.0952487e-06 2.0306674e-23)
(-0.0071134657 -5.997217e-06 2.0592816e-23)
(-0.0068704651 -5.8954283e-06 -2.4527528e-23)
(-0.0066294058 -5.7915516e-06 7.1710201e-24)
(-0.0063954289 -5.6822198e-06 -5.4637403e-26)
(-0.0061628621 -5.5699898e-06 -3.9158005e-24)
(-0.0059386747 -5.4516391e-06 5.2788185e-24)
(-0.0057151355 -5.3292391e-06 -7.2849134e-24)
(-0.0055017273 -5.1983362e-06 2.3596165e-23)
(-0.0052879696 -5.0625971e-06 -2.5875826e-23)
(-0.0050866649 -4.9156321e-06 3.5062469e-24)
(-0.0048836894 -4.7626973e-06 -8.7763583e-26)
(-0.0046962905 -4.5949472e-06 -2.2144196e-24)
(-0.00450548 -4.4195194e-06 2.4266684e-23)
(-0.0043344168 -4.2226657e-06 -2.6385677e-23)
(-0.004157679 -4.0145702e-06 2.0426537e-23)
(-0.0040062707 -3.7756759e-06 -1.7153585e-23)
(-0.0038463351 -3.5201489e-06 -9.524606e-26)
(-0.0037192411 -3.2207833e-06 2.2946271e-23)
(-0.0035800903 -2.899742e-06 -2.7069115e-23)
(-0.0034836977 -2.5169857e-06 2.2908335e-23)
(-0.0033710214 -2.108323e-06 -2.5364459e-23)
(-0.0033138477 -1.6081643e-06 2.3352324e-23)
(-0.0032357355 -1.0878616e-06 5.5961008e-24)
(-0.0032285105 -4.3441632e-07 -9.9048095e-24)
(-0.0031956077 1.9719924e-07 5.8692951e-24)
(-0.0032494388 8.9168457e-07 -2.5943723e-23)
(-0.0032631107 1.196656e-06 -3.8998798e-23)
(-0.003353478 -3.6605916e-05 2.0389483e-20)
(-0.0034224512 -0.00017496658 7.3959638e-20)
(-0.003445338 -0.00031763658 9.7071286e-20)
(-0.0034847281 -0.00046426671 1.4645338e-19)
(-0.0034274287 -0.00059581011 2.5675584e-19)
(-0.0033822149 -0.0007240745 4.6229828e-19)
(-0.0032482571 -0.00082461094 -6.7820064e-19)
(-0.0031165668 -0.00091375225 -6.6658727e-19)
(-0.0029086994 -0.00096581025 8.2265308e-20)
(-0.0026923312 -0.0009972888 3.4557543e-19)
(-0.002410098 -0.00098422824 1.2217334e-19)
(-0.0021092223 -0.00094072109 2.0923022e-19)
(-0.0017481845 -0.00084533138 -7.3739576e-19)
(-0.0013579675 -0.00070829799 8.8814823e-19)
(-0.0009063298 -0.00050956104 1.8004329e-18)
(-0.00040998368 -0.00025334825 -9.0292558e-19)
(0.00016534256 8.4437067e-05 2.407835e-18)
(0.00079010693 0.00048718443 1.0839063e-18)
(0.0014875301 0.00096888764 -9.7997197e-19)
(0.0022378639 0.0015153616 1.1080448e-18)
(0.0030594702 0.0021371018 6.1181511e-19)
(0.0039369914 0.0028206748 -9.657606e-19)
(0.0048850663 0.0035731821 4.3661001e-19)
(0.0058882779 0.0043790913 1.4629677e-18)
(0.0069561589 0.005240627 2.1841312e-18)
(0.0080692009 0.0061372429 -1.1611261e-18)
(0.0092277021 0.0070625664 1.1226015e-18)
(0.010388584 0.0079786145 -5.0925136e-22)
(0.011505876 0.0088627662 -1.5573378e-19)
(0.012598557 0.009741026 -3.1884253e-19)
(0.013678094 0.010625256 4.1598192e-19)
(0.014730551 0.011506555 8.1278987e-19)
(0.015778273 0.012406822 1.3385573e-19)
(0.016631579 0.01317494 1.2567096e-18)
(0.017557296 0.014019716 5.1121542e-19)
(0.018586847 0.014973117 -6.1265836e-19)
(0.019738128 0.016053394 -4.4706902e-19)
(0.021037057 0.017288018 1.0410143e-18)
(0.022476675 0.018676508 8.4218957e-19)
(0.024156335 0.020307827 7.5177165e-19)
(0.026151366 0.022235948 4.1760497e-19)
(0.02878592 0.024640565 -1.1948943e-19)
(0.031744518 0.027176954 4.4016775e-19)
(0.035333196 0.030060611 -5.1071268e-19)
(0.039280605 0.032984253 -3.6818877e-19)
(0.044130446 0.036318083 -8.5397802e-20)
(0.049467116 0.039580126 8.2893534e-19)
(0.056257828 0.043387774 -2.688644e-19)
(0.063794299 0.046913011 -6.779816e-20)
(0.07380383 0.051064643 -9.2251451e-21)
(0.084726408 0.054193225 6.3185668e-20)
(0.098505016 0.056966423 -8.2311213e-20)
(0.11130962 0.05639325 3.4938459e-19)
(0.12431922 0.052761723 4.8092982e-19)
(0.12659291 0.042462337 3.4286759e-19)
(0.12152239 0.030786158 -2.4321311e-19)
(0.10619725 0.019257155 -5.2716582e-19)
(0.091512693 0.011044026 -1.3143282e-19)
(0.06937849 0.004988621 -2.3797733e-19)
(0.058277604 0.0020426716 -5.1050754e-20)
(0.038149528 0.000413073 -1.2185063e-20)
(0.038681134 -0.00010040899 4.224206e-22)
(0.022173866 -9.469157e-05 -1.6694443e-20)
(0.051460155 0.00010126084 -6.4440098e-22)
(0.042264 8.0591857e-05 3.0765892e-21)
(0.063048438 -0.00048888754 9.6619108e-21)
(0.051998955 -0.001530099 1.1646826e-22)
(0.055650003 -0.003578818 2.1177763e-20)
(0.034946034 -0.0037427225 6.7183356e-20)
(0.023488293 -0.0037975361 3.1993424e-21)
(-0.0013711185 0.00074093274 -4.177697e-20)
(-0.011931391 0.0042001685 -3.1114143e-21)
(-0.020112449 0.0086093442 -1.099778e-20)
(-0.017317144 0.0087466421 -1.8504553e-20)
(-0.015496581 0.0089263338 -1.3460951e-20)
(-0.011660753 0.0074205194 -3.0599618e-20)
(-0.010256147 0.0070813136 -1.4971313e-20)
(-0.0084395173 0.0061970683 -3.5840532e-22)
(-0.0078986121 0.0060923514 1.539673e-21)
(-0.0069643743 0.0055734425 -4.1689181e-20)
(-0.0066977599 0.0055173085 -4.351336e-21)
(-0.0061376732 0.0051569631 3.7007902e-21)
(-0.0058746753 0.0050020091 1.2555936e-20)
(-0.0054449274 0.0046639501 7.0161372e-22)
(-0.005187548 0.0044433349 6.7233318e-21)
(-0.0048605817 0.0041356574 -3.0935299e-21)
(-0.0047079158 0.0039617171 5.3415291e-21)
(-0.0045497966 0.0037848156 1.7629526e-21)
(-0.0044906079 0.0036959507 -7.0796761e-21)
(-0.0044423246 0.0036197064 -1.1422248e-21)
(-0.0044715004 0.0036102785 -1.7547195e-21)
(-0.0045273467 0.0036247823 -3.0922958e-22)
(-0.0046520623 0.0036967771 -9.3258517e-22)
(-0.004815834 0.0038013693 3.54426e-21)
(-0.0050424191 0.0039571448 1.654739e-21)
(-0.0053127764 0.0041486416 -2.9937082e-21)
(-0.0056375295 0.0043841984 6.8988805e-22)
(-0.0059964968 0.0046480744 -1.4263048e-21)
(-0.0063818823 0.0049343666 -3.9049423e-21)
(-0.0067504406 0.0052034618 -8.137765e-23)
(-0.0071097089 0.0054486255 -4.9094952e-21)
(-0.0074638697 0.005669044 -2.5510488e-21)
(-0.0078073943 0.0058577571 1.7120946e-21)
(-0.015622197 -1.2698727e-05 -1.2997093e-23)
(-0.015228878 -1.2602545e-05 1.3117209e-23)
(-0.014838503 -1.2500148e-05 -4.5159604e-24)
(-0.014451543 -1.2392352e-05 -4.6037381e-24)
(-0.014067806 -1.2280423e-05 5.5476916e-24)
(-0.013687849 -1.2164018e-05 -4.6811209e-24)
(-0.013311314 -1.2044107e-05 8.0047646e-24)
(-0.012938923 -1.1918851e-05 5.7779148e-24)
(-0.012570105 -1.1790108e-05 -2.6360907e-23)
(-0.012205845 -1.1656204e-05 1.6821573e-23)
(-0.011845261 -1.1518794e-05 -1.8897107e-23)
(-0.011489699 -1.137731e-05 6.2191478e-24)
(-0.01113783 -1.12324e-05 1.727314e-23)
(-0.010791492 -1.1084322e-05 -2.9292822e-24)
(-0.010448763 -1.0932402e-05 -1.6598578e-23)
(-0.010112158 -1.0776781e-05 6.4554443e-24)
(-0.0097789837 -1.0616111e-05 1.78352e-23)
(-0.0094526983 -1.0451976e-05 -1.9855661e-23)
(-0.0091295294 -1.0282113e-05 1.8075559e-23)
(-0.0088142186 -1.0108373e-05 -2.8680701e-23)
(-0.0085015477 -9.9279159e-06 1.8253046e-23)
(-0.0081979712 -9.7421312e-06 1.5468938e-23)
(-0.0078963795 -9.5473025e-06 -3.227127e-26)
(-0.0076055309 -9.3469983e-06 -2.9406495e-23)
(-0.0073157236 -9.1342036e-06 1.8760769e-23)
(-0.007038887 -8.9138531e-06 1.5886603e-23)
(-0.0067618541 -8.677513e-06 -1.7879835e-23)
(-0.0065007461 -8.4308351e-06 1.023027e-23)
(-0.0062377978 -8.162959e-06 -3.2175523e-24)
(-0.0059947512 -7.8817437e-06 -1.0962894e-23)
(-0.0057476989 -7.5726846e-06 -1.8413282e-23)
(-0.0055258655 -7.2433392e-06 -3.4484074e-24)
(-0.0052972091 -6.8753916e-06 1.9589974e-23)
(-0.0051008912 -6.4769006e-06 -1.1268277e-23)
(-0.0048941973 -6.0246698e-06 1.9837e-23)