/*--------------------------------*- C++ -*----------------------------------*\
| =========                 |                                                 |
| \\      /  F ield         | OpenFOAM: The Open Source CFD Toolbox           |
|  \\    /   O peration     | Version:  2.4.0                                 |
|   \\  /    A nd           | Web:      www.OpenFOAM.org                      |
|    \\/     M anipulation  |                                                 |
\*---------------------------------------------------------------------------*/
FoamFile
{
    version     2.0;
    format      ascii;
    class       volScalarField;
    location    "15392";
    object      nut;
}
// * * * * * * * * * * * * * * * * * * * * * * * * * * * * * * * * * * * * * //

dimensions      [0 2 -1 0 0 0 0];

internalField   nonuniform List<scalar> 
32000
(
7.7650643e-13
8.5492487e-13
7.6798141e-13
5.9365847e-13
3.5465653e-13
1.46587e-13
3.5565465e-14
8.0953805e-15
6.1067452e-15
2.7340934e-15
1.3583184e-15
1.0783789e-15
9.6656982e-16
9.179547e-16
9.0609241e-16
9.0459529e-16
9.0546358e-16
9.4099052e-16
9.9846523e-16
1.0799232e-15
1.1863035e-15
1.3216079e-15
1.4894243e-15
1.6943578e-15
1.9435607e-15
2.2400856e-15
2.590872e-15
2.970448e-15
3.3102033e-15
3.6644485e-15
4.0705895e-15
4.5340764e-15
5.0471049e-15
5.592576e-15
6.1546657e-15
6.72642e-15
7.3102072e-15
7.8862723e-15
8.3988308e-15
8.7838235e-15
8.9348115e-15
8.8406216e-15
8.4806169e-15
7.856843e-15
7.1950468e-15
6.6738642e-15
6.8864052e-15
8.9218127e-15
1.0575476e-14
1.2289982e-14
1.4111338e-14
1.592809e-14
1.7882326e-14
1.9867929e-14
2.1990516e-14
2.4200209e-14
2.6564961e-14
2.9071021e-14
3.1767341e-14
3.4663533e-14
3.7801647e-14
4.120811e-14
4.4927384e-14
4.9001073e-14
5.3483956e-14
5.8435623e-14
6.3929374e-14
7.0049505e-14
7.689782e-14
8.4594202e-14
9.3283706e-14
1.031391e-13
1.1436893e-13
1.2722196e-13
1.4199768e-13
1.5904879e-13
1.7879352e-13
2.0170969e-13
2.283507e-13
2.5935137e-13
2.9541444e-13
3.3728978e-13
3.8578626e-13
4.4173896e-13
5.0588315e-13
5.789327e-13
6.6132908e-13
7.5324294e-13
8.5425262e-13
9.6338645e-13
1.0787033e-12
1.1973315e-12
1.3153862e-12
1.428238e-12
1.5309588e-12
1.6191e-12
1.6893984e-12
1.740851e-12
1.7679286e-12
1.7773012e-12
1.7779274e-12
1.7656424e-12
1.7369061e-12
1.7042295e-12
1.6633015e-12
1.6193527e-12
1.5722528e-12
1.5238223e-12
1.4747972e-12
1.4258933e-12
1.3776229e-12
1.3304058e-12
1.2845634e-12
1.2402666e-12
1.1976459e-12
1.1567139e-12
1.1174863e-12
1.0799979e-12
1.0442073e-12
1.0100821e-12
9.775493e-13
9.4651038e-13
9.1684479e-13
8.8849878e-13
8.6141251e-13
8.3551854e-13
8.1072987e-13
7.8695516e-13
7.6408144e-13
7.4202012e-13
7.2072089e-13
7.0014397e-13
6.8021616e-13
6.6084383e-13
6.4193944e-13
6.2339356e-13
6.0508187e-13
5.8690521e-13
5.6877827e-13
5.5058374e-13
5.3217323e-13
5.1338903e-13
4.9406287e-13
4.7407013e-13
4.5336492e-13
4.3200251e-13
4.1041219e-13
3.8939408e-13
3.6994999e-13
3.5313542e-13
3.4406218e-13
3.4163219e-13
3.4697736e-13
3.4926739e-13
3.397052e-13
3.4355401e-13
3.5915235e-13
3.7958149e-13
4.0305807e-13
4.2720137e-13
4.4998985e-13
4.7040813e-13
4.8736567e-13
5.0014813e-13
5.0895219e-13
5.161312e-13
5.2332895e-13
5.2945779e-13
5.34084e-13
5.3490882e-13
5.3066869e-13
5.2569537e-13
5.2221519e-13
5.1678911e-13
5.0667192e-13
4.9108288e-13
4.7490404e-13
4.5809522e-13
4.4111536e-13
4.2455755e-13
4.094755e-13
3.968455e-13
3.8669428e-13
3.8894653e-13
4.0730381e-13
4.3087293e-13
4.676889e-13
5.247941e-13
6.1132966e-13
7.375263e-13
9.1196823e-13
1.1330514e-12
1.3467024e-12
1.4898107e-12
1.4291367e-12
1.2493929e-12
9.7932966e-13
8.2640475e-13
6.6193054e-13
6.9097749e-13
1.5253862e-10
1.6793775e-10
1.5085782e-10
1.1662913e-10
6.9719982e-11
2.8866783e-11
7.0272725e-12
1.5927318e-12
1.1922124e-12
5.2991554e-13
2.5793511e-13
2.0221117e-13
1.8011574e-13
1.7041638e-13
1.678724e-13
1.6728558e-13
1.6703016e-13
1.7347284e-13
1.8422246e-13
1.9968934e-13
2.2005706e-13
2.4611131e-13
2.7855868e-13
3.1830025e-13
3.6674645e-13
4.2449608e-13
4.9294401e-13
5.6711599e-13
6.3341814e-13
7.0241616e-13
7.8150265e-13
8.7178826e-13
9.7175412e-13
1.0780421e-12
1.187524e-12
1.2988122e-12
1.4124101e-12
1.5245327e-12
1.6242595e-12
1.6990266e-12
1.7278863e-12
1.7086092e-12
1.6371599e-12
1.513922e-12
1.3833259e-12
1.2806015e-12
1.3224438e-12
1.7224051e-12
2.0472495e-12
2.3841099e-12
2.7419588e-12
3.0989047e-12
3.4828664e-12
3.8729903e-12
4.2900327e-12
4.7241896e-12
5.1888155e-12
5.6812066e-12
6.210982e-12
6.7800294e-12
7.3966115e-12
8.0659199e-12
8.7966909e-12
9.5970981e-12
1.0477904e-11
1.1450818e-11
1.2530239e-11
1.373273e-11
1.5078291e-11
1.6590474e-11
1.8297779e-11
2.0234144e-11
2.2440542e-11
2.4965841e-11
2.7868872e-11
3.121892e-11
3.5098138e-11
3.960038e-11
4.4834342e-11
5.0924707e-11
5.8009489e-11
6.6235945e-11
7.5762909e-11
8.6754343e-11
9.9354595e-11
1.1370379e-10
1.2988855e-10
1.4794233e-10
1.6778226e-10
1.8921756e-10
2.118671e-10
2.3516715e-10
2.5835507e-10
2.8052197e-10
3.0070026e-10
3.1801625e-10
3.3182882e-10
3.4194046e-10
3.472646e-10
3.4910892e-10
3.4923179e-10
3.4681923e-10
3.4117543e-10
3.3475801e-10
3.2671984e-10
3.1808831e-10
3.0883777e-10
2.9932574e-10
2.8969676e-10
2.8009142e-10
2.7061037e-10
2.6133602e-10
2.5233158e-10
2.4363057e-10
2.3525869e-10
2.2721839e-10
2.1951282e-10
2.1214877e-10
2.0511817e-10
1.9841461e-10
1.9202381e-10
1.8592642e-10
1.8009876e-10
1.7453027e-10
1.6920922e-10
1.6412234e-10
1.5925257e-10
1.5458197e-10
1.5008834e-10
1.4575429e-10
1.4156993e-10
1.3752745e-10
1.3361248e-10
1.2980662e-10
1.2609269e-10
1.2244918e-10
1.1885168e-10
1.152807e-10
1.1171949e-10
1.0814501e-10
1.045281e-10
1.0083779e-10
9.7041026e-11
9.31133e-11
8.9045594e-11
8.4848724e-11
8.060697e-11
7.647747e-11
7.2657032e-11
6.935262e-11
6.7568578e-11
6.708956e-11
6.8140449e-11
6.8597773e-11
6.6725341e-11
6.7485108e-11
7.0556649e-11
7.4579351e-11
7.9201624e-11
8.3954454e-11
8.8439631e-11
9.2457465e-11
9.5793466e-11
9.8307716e-11
1.0004073e-10
1.0145545e-10
1.0287239e-10
1.0407707e-10
1.0498317e-10
1.0513801e-10
1.0429941e-10
1.0332188e-10
1.0263605e-10
1.0156259e-10
9.9565236e-11
9.6497429e-11
9.3318173e-11
9.001502e-11
8.667919e-11
8.3427945e-11
8.0468732e-11
7.7992404e-11
7.601253e-11
7.6480679e-11
8.0104552e-11
8.4747729e-11
9.2004718e-11
1.0325728e-10
1.2029969e-10
1.4513298e-10
1.794232e-10
2.2280657e-10
2.6463419e-10
2.9255525e-10
2.8048211e-10
2.4518478e-10
1.9223068e-10
1.6226615e-10
1.3000335e-10
1.3573634e-10
3.5842658e-09
3.946008e-09
3.5439778e-09
2.7401728e-09
1.6393128e-09
6.8017347e-10
1.6638793e-10
3.7759573e-11
2.8096524e-11
1.2530937e-11
6.0917338e-12
4.7608758e-12
4.2378207e-12
4.0084631e-12
3.9482779e-12
3.9347828e-12
3.9284506e-12
4.0789198e-12
4.3306908e-12
4.6933302e-12
5.1711475e-12
5.7825524e-12
6.5441512e-12
7.4770376e-12
8.6144088e-12
9.9703536e-12
1.1578551e-11
1.3324002e-11
1.4885115e-11
1.65078e-11
1.8367008e-11
2.0489959e-11
2.284147e-11
2.5342741e-11
2.7919831e-11
3.053919e-11
3.3212265e-11
3.5851068e-11
3.8199577e-11
3.9962348e-11
4.0645243e-11
4.0194395e-11
3.8514665e-11
3.5613913e-11
3.25382e-11
3.0117912e-11
3.1098439e-11
4.0498943e-11
4.8133599e-11
5.6053029e-11
6.4465857e-11
7.2857384e-11
8.1884201e-11
9.1055789e-11
1.0086036e-10
1.1106726e-10
1.2199056e-10
1.3356662e-10
1.4602164e-10
1.5939996e-10
1.7389584e-10
1.8963134e-10
2.0681183e-10
2.2562947e-10
2.4633726e-10
2.6921043e-10
2.9458751e-10
3.228578e-10
3.5449143e-10
3.9004198e-10
4.3017927e-10
4.7570098e-10
5.2757e-10
5.869347e-10
6.5517747e-10
7.3392622e-10
8.251108e-10
9.3093572e-10
1.0539535e-09
1.1970915e-09
1.3635888e-09
1.5569001e-09
1.7807499e-09
2.0389802e-09
2.3349691e-09
2.6719926e-09
3.0520664e-09
3.4759568e-09
3.9416992e-09
4.4448007e-09
4.9763098e-09
5.5230041e-09
6.06701e-09
6.5870382e-09
7.0604312e-09
7.4667283e-09
7.7909128e-09
8.0283508e-09
8.1535734e-09
8.1970643e-09
8.2001003e-09
8.143755e-09
8.0115872e-09
7.8612797e-09
7.6729313e-09
7.4706369e-09
7.2537879e-09
7.030768e-09
6.8049683e-09
6.5796875e-09
6.3572899e-09
6.1397107e-09
5.9284375e-09
5.7242596e-09
5.5277832e-09
5.339069e-09
5.1581936e-09
4.9853188e-09
4.8202579e-09
4.6628622e-09
4.5127989e-09
4.3696147e-09
4.2327552e-09
4.101974e-09
3.9769965e-09
3.8575122e-09
3.7431216e-09
3.6334035e-09
3.5278378e-09
3.4260161e-09
3.3277071e-09
3.2327272e-09
3.1407397e-09
3.0513129e-09
2.9640428e-09
2.8784248e-09
2.7938854e-09
2.7099668e-09
2.6262756e-09
2.5422703e-09
2.4572663e-09
2.3705353e-09
2.2813006e-09
2.188986e-09
2.0933793e-09
1.9947335e-09
1.8950281e-09
1.7979555e-09
1.7081418e-09
1.6304421e-09
1.5884603e-09
1.577151e-09
1.6018952e-09
1.6130231e-09
1.5693541e-09
1.587318e-09
1.6596968e-09
1.7544933e-09
1.8634117e-09
1.9753936e-09
2.0810485e-09
2.1756736e-09
2.2542206e-09
2.3134079e-09
2.3542167e-09
2.3875221e-09
2.4208186e-09
2.4490656e-09
2.4702107e-09
2.4735821e-09
2.4536322e-09
2.4305397e-09
2.4142647e-09
2.3887707e-09
2.3415479e-09
2.2693103e-09
2.1945558e-09
2.1168691e-09
2.0384402e-09
1.9620383e-09
1.8925492e-09
1.8344385e-09
1.7882161e-09
1.7997324e-09
1.8851126e-09
1.9942679e-09
2.1650565e-09
2.4298353e-09
2.830589e-09
3.4138555e-09
4.2178435e-09
5.2324638e-09
6.2070416e-09
6.8555582e-09
6.5697333e-09
5.7457753e-09
4.5083698e-09
3.8094316e-09
3.0535104e-09
3.1903648e-09
3.1369597e-08
3.4541423e-08
3.1000631e-08
2.3981285e-08
1.4365427e-08
5.9780849e-09
1.4708262e-09
3.3414421e-10
2.4711292e-10
1.1061443e-10
5.3709081e-11
4.1840952e-11
3.7219397e-11
3.5195859e-11
3.4665418e-11
3.4551008e-11
3.449332e-11
3.580471e-11
3.8004976e-11
4.1177597e-11
4.5360337e-11
5.0714107e-11
5.7384531e-11
6.5555771e-11
7.5519461e-11
8.7399168e-11
1.0149916e-10
1.168297e-10
1.3054947e-10
1.4479233e-10
1.6110422e-10
1.7973443e-10
2.0037923e-10
2.2234841e-10
2.4498946e-10
2.6799858e-10
2.9147135e-10
3.1464614e-10
3.352842e-10
3.5079287e-10
3.5682223e-10
3.5288644e-10
3.3814842e-10
3.1266657e-10
2.8563209e-10
2.6434797e-10
2.729056e-10
3.5534309e-10
4.2228402e-10
4.9174862e-10
5.6554098e-10
6.3914431e-10
7.1832168e-10
7.9876687e-10
8.8476536e-10
9.7429167e-10
1.0701024e-09
1.1716382e-09
1.2808838e-09
1.3982277e-09
1.525374e-09
1.6633929e-09
1.8140857e-09
1.9791375e-09
2.160767e-09
2.3613873e-09
2.5839668e-09
2.8319184e-09
3.1093633e-09
3.4211538e-09
3.7731599e-09
4.1723711e-09
4.6272225e-09
5.147772e-09
5.7461223e-09
6.4365205e-09
7.2358474e-09
8.1633735e-09
9.2413924e-09
1.0495448e-08
1.1953767e-08
1.3646398e-08
1.5605672e-08
1.7864854e-08
2.0453025e-08
2.3398269e-08
2.6717548e-08
3.0416851e-08
3.4478351e-08
3.8862327e-08
4.349049e-08
4.8247825e-08
5.2979357e-08
5.7500935e-08
6.1616917e-08
6.5150549e-08
6.7972268e-08
7.0042047e-08
7.1139493e-08
7.1525659e-08
7.1560315e-08
7.1081342e-08
6.9941932e-08
6.8644575e-08
6.7015392e-08
6.5263739e-08
6.3384151e-08
6.1449474e-08
5.9489244e-08
5.7532204e-08
5.5599031e-08
5.3706669e-08
5.1868201e-08
5.0090613e-08
4.8379309e-08
4.6734922e-08
4.5158214e-08
4.3650691e-08
4.2210809e-08
4.0837347e-08
3.952747e-08
3.827728e-08
3.7081987e-08
3.5939482e-08
3.4847412e-08
3.38031e-08
3.2803089e-08
3.1843726e-08
3.0920489e-08
3.0029824e-08
2.9169728e-08
2.8338617e-08
2.753356e-08
2.675079e-08
2.5986786e-08
2.523714e-08
2.4496837e-08
2.3761873e-08
2.302881e-08
2.2292911e-08
2.1548179e-08
2.0788238e-08
2.0006281e-08
1.9197253e-08
1.835929e-08
1.7494597e-08
1.6620505e-08
1.5769379e-08
1.498178e-08
1.4300197e-08
1.3931417e-08
1.3831611e-08
1.4048882e-08
1.4150565e-08
1.3771306e-08
1.3929518e-08
1.4565759e-08
1.5399188e-08
1.6356838e-08
1.734142e-08
1.8270371e-08
1.9102351e-08
1.9793022e-08
2.0313626e-08
2.0672951e-08
2.0966216e-08
2.1258792e-08
2.1506484e-08
2.169098e-08
2.1718336e-08
2.1541144e-08
2.1337331e-08
2.1192756e-08
2.0966147e-08
2.0548806e-08
1.9913496e-08
1.9257043e-08
1.8574602e-08
1.7885944e-08
1.7215413e-08
1.6605947e-08
1.6096486e-08
1.5693346e-08
1.5797839e-08
1.6545471e-08
1.7498892e-08
1.8992573e-08
2.1307731e-08
2.4807748e-08
2.9890286e-08
3.6871426e-08
4.5638137e-08
5.3989752e-08
5.950542e-08
5.699912e-08
4.9932492e-08
3.9267294e-08
3.3268494e-08
2.6701417e-08
2.7945281e-08
1.620351e-07
1.7849843e-07
1.5998977e-07
1.2395167e-07
7.4449134e-08
3.1134935e-08
7.7166001e-09
1.7542287e-09
1.2890429e-09
5.7921907e-10
2.8088228e-10
2.1807764e-10
1.9385258e-10
1.8326369e-10
1.8049272e-10
1.7992223e-10
1.7961162e-10
1.8638588e-10
1.9778474e-10
2.1424043e-10
2.3594923e-10
2.637447e-10
2.9838386e-10
3.4081948e-10
3.925709e-10
4.5427962e-10
5.2758074e-10
6.0743576e-10
6.7894428e-10
7.5307833e-10
8.3794403e-10
9.3489756e-10
1.0423861e-09
1.1568256e-09
1.2748001e-09
1.3946746e-09
1.5169171e-09
1.6376255e-09
1.7451938e-09
1.8261283e-09
1.8577164e-09
1.8373571e-09
1.7606784e-09
1.6279247e-09
1.4869895e-09
1.3759794e-09
1.420212e-09
1.8489503e-09
2.1969176e-09
2.5581844e-09
2.9419509e-09
3.3247099e-09
3.7364608e-09
4.1547832e-09
4.6019856e-09
5.0675195e-09
5.5657315e-09
6.0937043e-09
6.6617646e-09
7.2719271e-09
7.933055e-09
8.6507081e-09
9.4342509e-09
1.0292438e-08
1.1236799e-08
1.2279869e-08
1.3437064e-08
1.4726105e-08
1.6168384e-08
1.7789077e-08
1.9618629e-08
2.1693272e-08
2.4056702e-08
2.6760983e-08
2.98687e-08
3.3453444e-08
3.7602272e-08
4.2414374e-08
4.8004223e-08
5.4502616e-08
6.2053548e-08
7.0809528e-08
8.0933697e-08
9.259278e-08
1.0593027e-07
1.2108321e-07
1.3813022e-07
1.5709315e-07
1.7787228e-07
2.0025839e-07
2.2384918e-07
2.4806113e-07
2.7211362e-07
2.9508401e-07
3.1599528e-07
3.33963e-07
3.4834172e-07
3.5893048e-07
3.6462293e-07
3.6670919e-07
3.6701905e-07
3.6474872e-07
3.5910521e-07
3.52653e-07
3.4449843e-07
3.3570387e-07
3.2623952e-07
3.164753e-07
3.0656211e-07
2.9664699e-07
2.8683662e-07
2.7721877e-07
2.678619e-07
2.5880325e-07
2.5007199e-07
2.4167274e-07
2.336107e-07
2.2589483e-07
2.1851838e-07
2.1147611e-07
2.0475441e-07
1.9833407e-07
1.9219114e-07
1.8631538e-07
1.8069529e-07
1.7531764e-07
1.7016506e-07
1.6521914e-07
1.6045689e-07
1.5586025e-07
1.5141915e-07
1.4712569e-07
1.4296496e-07
1.3891767e-07
1.3496579e-07
1.3108663e-07
1.2725436e-07
1.234483e-07
1.1965074e-07
1.158372e-07
1.1197664e-07
1.0803603e-07
1.0398003e-07
9.9782396e-08
9.54334e-08
9.0944383e-08
8.6405164e-08
8.1983869e-08
7.7891246e-08
7.4347749e-08
7.2425738e-08
7.1902357e-08
7.3031523e-08
7.3584373e-08
7.1633992e-08
7.2456575e-08
7.5770091e-08
8.0111661e-08
8.5101523e-08
9.0232616e-08
9.5075481e-08
9.9414455e-08
1.030187e-07
1.0573854e-07
1.0762014e-07
1.091574e-07
1.1068786e-07
1.1198126e-07
1.129401e-07
1.1307295e-07
1.1213889e-07
1.1106943e-07
1.1030276e-07
1.0910127e-07
1.0690575e-07
1.0358451e-07
1.0015832e-07
9.659489e-08
9.3000867e-08
8.9503176e-08
8.6325407e-08
8.3667783e-08
8.1574352e-08
8.212117e-08
8.5968651e-08
9.086129e-08
9.8538403e-08
1.104327e-07
1.2837765e-07
1.5432614e-07
1.8972787e-07
2.337711e-07
2.7504978e-07
3.0181517e-07
2.8889501e-07
2.5389633e-07
2.0063804e-07
1.7094616e-07
1.3765559e-07
1.4454283e-07
6.0512854e-07
6.6702246e-07
5.9699444e-07
4.6393661e-07
2.8011814e-07
1.1815269e-07
2.9587779e-08
6.7300433e-09
4.9121459e-09
2.2160527e-09
1.0731533e-09
8.302418e-10
7.3745832e-10
6.9698033e-10
6.8641539e-10
6.8436011e-10
6.8314294e-10
7.0868668e-10
7.5180256e-10
8.1412525e-10
8.9639945e-10
1.0017768e-09
1.1331301e-09
1.2940559e-09
1.4903359e-09
1.7244348e-09
2.0026465e-09
2.3065135e-09
2.5787506e-09
2.8605721e-09
3.183045e-09
3.5515649e-09
3.960352e-09
4.3958162e-09
4.8448866e-09
5.3011192e-09
5.7661719e-09
6.2254736e-09
6.6350923e-09
6.9437196e-09
7.0647141e-09
6.9878911e-09
6.6965454e-09
6.1913582e-09
5.6546088e-09
5.2316318e-09
5.3982368e-09
7.0270553e-09
8.3475832e-09
9.7194873e-09
1.117674e-08
1.2629984e-08
1.4193276e-08
1.5781361e-08
1.7479042e-08
1.9246201e-08
2.1137353e-08
2.3141384e-08
2.5297508e-08
2.7613345e-08
3.0122523e-08
3.2846107e-08
3.5819593e-08
3.9076141e-08
4.2659408e-08
4.6616832e-08
5.1006716e-08
5.5896043e-08
6.1365588e-08
6.7510349e-08
7.4445048e-08
8.2306052e-08
9.1257538e-08
1.0149475e-07
1.1325185e-07
1.2680332e-07
1.4247277e-07
1.6062713e-07
1.8168755e-07
2.0613216e-07
2.3448297e-07
2.6728658e-07
3.0512065e-07
3.4856714e-07
3.9811043e-07
4.542035e-07
5.1707746e-07
5.867552e-07
6.6282201e-07
7.4448412e-07
8.3027421e-07
9.1810658e-07
1.0052197e-06
1.0883792e-06
1.1641442e-06
1.2294146e-06
1.2819192e-06
1.3209265e-06
1.3425259e-06
1.3511631e-06
1.3534085e-06
1.3465006e-06
1.3272426e-06
1.3049926e-06
1.2764513e-06
1.2454558e-06
1.2118864e-06
1.1770815e-06
1.1415947e-06
1.1059655e-06
1.0705917e-06
1.0358038e-06
1.0018637e-06
9.6891875e-07
9.37087e-07
9.0639535e-07
8.7687224e-07
8.4855971e-07
8.2144136e-07
7.955056e-07
7.7070895e-07
7.4698632e-07
7.2425391e-07
7.0247841e-07
6.8162176e-07
6.6163876e-07
6.4246829e-07
6.2404487e-07
6.0628528e-07
5.8912415e-07
5.725261e-07
5.5646363e-07
5.4088278e-07
5.2571273e-07
5.1088706e-07
4.9632173e-07
4.8192031e-07
4.6760575e-07
4.5331196e-07
4.3894728e-07
4.2439501e-07
4.0953062e-07
3.9422061e-07
3.7836563e-07
3.6192846e-07
3.449515e-07
3.2777351e-07
3.1103145e-07
2.9552413e-07
2.8208675e-07
2.7476801e-07
2.7275921e-07
2.7703316e-07
2.7923269e-07
2.7191866e-07
2.7501822e-07
2.8759845e-07
3.0408958e-07
3.2305344e-07
3.4256481e-07
3.6099669e-07
3.7752784e-07
3.912809e-07
4.016855e-07
4.0891571e-07
4.1483894e-07
4.2072363e-07
4.2568996e-07
4.2935546e-07
4.2983499e-07
4.2622966e-07
4.2210934e-07
4.1910185e-07
4.1440001e-07
4.0590614e-07
3.9317146e-07
3.8005897e-07
3.6641352e-07
3.5265961e-07
3.392809e-07
3.2712571e-07
3.1693897e-07
3.0893971e-07
3.1092336e-07
3.251525e-07
3.4319043e-07
3.7155459e-07
4.1547505e-07
4.8152792e-07
5.7636869e-07
7.0432289e-07
8.6106325e-07
1.0039666e-06
1.0930989e-06
1.0441821e-06
9.2146127e-07
7.3395645e-07
6.3123417e-07
5.1185869e-07
5.4038219e-07
1.8033355e-06
1.9888614e-06
1.7797757e-06
1.3901604e-06
8.4711366e-07
3.6237681e-07
9.2171695e-08
2.1003111e-08
1.522011e-08
6.8948711e-09
3.3339386e-09
2.5697471e-09
2.2807771e-09
2.1549872e-09
2.1222862e-09
2.1163643e-09
2.1125163e-09
2.1907712e-09
2.3233035e-09
2.5151363e-09
2.7685598e-09
3.0932557e-09
3.4980813e-09
3.9940593e-09
4.5992042e-09
5.3209801e-09
6.1788217e-09
7.1192191e-09
7.9618505e-09
8.8327723e-09
9.8288566e-09
1.0967599e-08
1.2231566e-08
1.3578882e-08
1.4968856e-08
1.638078e-08
1.7819367e-08
1.9240502e-08
2.0509024e-08
2.1466286e-08
2.1843528e-08
2.1608308e-08
2.0708571e-08
1.914565e-08
1.7483389e-08
1.6172652e-08
1.6680471e-08
2.1711836e-08
2.5782873e-08
3.0015968e-08
3.4511762e-08
3.8994148e-08
4.3815586e-08
4.8712579e-08
5.3947085e-08
5.9395088e-08
6.5224855e-08
7.1401921e-08
7.8047177e-08
8.5183909e-08
9.2915596e-08
1.0130685e-07
1.1046667e-07
1.2049666e-07
1.3153054e-07
1.4371339e-07
1.572233e-07
1.7226451e-07
1.8908288e-07
2.0796692e-07
2.292642e-07
2.5338659e-07
2.8082826e-07
3.1217443e-07
3.4812347e-07
3.8948905e-07
4.3722346e-07
4.9239615e-07
5.5622141e-07
6.3006111e-07
7.1537864e-07
8.1367413e-07
9.2649907e-07
1.0553793e-06
1.2015077e-06
1.3659663e-06
1.5491829e-06
1.7510127e-06
1.9701107e-06
2.2041625e-06
2.4490686e-06
2.6991322e-06
2.9468914e-06
3.183635e-06
3.399885e-06
3.5873694e-06
3.7396987e-06
3.8546849e-06
3.9217047e-06
3.9522472e-06
3.9645402e-06
3.951657e-06
3.9029977e-06
3.8454572e-06
3.7694288e-06
3.6857562e-06
3.5940607e-06
3.4981402e-06
3.3996009e-06
3.3000063e-06
3.2005389e-06
3.1021941e-06
3.0057792e-06
2.9117714e-06
2.8205615e-06
2.7322727e-06
2.647031e-06
2.5650013e-06
2.4861758e-06
2.410557e-06
2.3380494e-06
2.2684902e-06
2.2016559e-06
2.1374707e-06
2.0758451e-06
2.016665e-06
1.959766e-06
1.9049686e-06
1.8520371e-06
1.8007865e-06
1.7511223e-06
1.7029732e-06
1.6561862e-06
1.6105558e-06
1.5658884e-06
1.5219355e-06
1.4784095e-06
1.43508e-06
1.39175e-06
1.3481437e-06
1.3039074e-06
1.2586624e-06
1.2120005e-06
1.1636167e-06
1.1133953e-06
1.0614635e-06
1.0088534e-06
9.5752096e-07
9.0992162e-07
8.6862575e-07
8.4598883e-07
8.3971281e-07
8.528054e-07
8.5988321e-07
8.3764189e-07
8.4703794e-07
8.8572765e-07
9.3648884e-07
9.9492153e-07
1.055104e-06
1.1120426e-06
1.1632078e-06
1.2058936e-06
1.2383296e-06
1.2610375e-06
1.279732e-06
1.2982604e-06
1.3138786e-06
1.3253487e-06
1.3267624e-06
1.3153902e-06
1.3023752e-06
1.2925973e-06
1.2774201e-06
1.2504502e-06
1.2105468e-06
1.1695525e-06
1.1268639e-06
1.0838675e-06
1.0420622e-06
1.0040511e-06
9.7205363e-07
9.4694536e-07
9.5227381e-07
9.9394243e-07
1.0466292e-06
1.129741e-06
1.2583998e-06
1.4510635e-06
1.7248901e-06
2.0884584e-06
2.5240382e-06
2.9056364e-06
3.1277749e-06
2.974162e-06
2.6327142e-06
2.117902e-06
1.844227e-06
1.5132283e-06
1.609161e-06
4.5102647e-06
4.9757841e-06
4.466164e-06
3.5167177e-06
2.1748662e-06
9.5077384e-07
2.4752678e-07
5.670281e-08
4.0769867e-08
1.854761e-08
8.9536085e-09
6.8748185e-09
6.0968806e-09
5.7590985e-09
5.6718194e-09
5.6574298e-09
5.6470551e-09
5.854116e-09
6.2060801e-09
6.7162686e-09
7.3907436e-09
8.2551922e-09
9.3331954e-09
1.065395e-08
1.2266637e-08
1.4188638e-08
1.6473023e-08
1.898981e-08
2.1244132e-08
2.3570154e-08
2.6229196e-08
2.9270436e-08
3.2648599e-08
3.6252188e-08
3.9971628e-08
4.3749219e-08
4.7596339e-08
5.1397922e-08
5.4794659e-08
5.736244e-08
5.8380559e-08
5.7759612e-08
5.5358838e-08
5.1179722e-08
4.6728986e-08
4.3216525e-08
4.4546911e-08
5.797778e-08
6.8813473e-08
8.0091874e-08
9.2066548e-08
1.040007e-07
1.1683494e-07
1.2986596e-07
1.437923e-07
1.5828283e-07
1.7378562e-07
1.9020811e-07
2.078714e-07
2.2683629e-07
2.4737664e-07
2.6966228e-07
2.9398036e-07
3.2059741e-07
3.4986395e-07
3.8215894e-07
4.179465e-07
4.5775703e-07
5.0222667e-07
5.5209864e-07
6.0826392e-07
6.7177232e-07
7.4387494e-07
8.2604173e-07
9.2001095e-07
1.027785e-06
1.1516775e-06
1.294242e-06
1.4583251e-06
1.6470547e-06
1.8637053e-06
2.1115195e-06
2.3937428e-06
2.7134659e-06
3.072862e-06
3.4738539e-06
3.9168583e-06
4.4011229e-06
4.9233068e-06
5.4781952e-06
6.0567708e-06
6.6466883e-06
7.2319944e-06
7.7925951e-06
8.3083481e-06
8.7601331e-06
9.1329777e-06
9.4209718e-06
9.6011524e-06
9.6963074e-06
9.747205e-06
9.7415842e-06
9.6494212e-06
9.5348088e-06
9.3747066e-06
9.1943186e-06
8.9927194e-06
8.7787907e-06
8.5564276e-06
8.3293852e-06
8.1005999e-06
7.8725862e-06
7.6474363e-06
7.426453e-06
7.210728e-06
7.0006978e-06
6.7968052e-06
6.5995882e-06
6.409157e-06
6.2256394e-06
6.0489062e-06
5.8786499e-06
5.7143963e-06
5.5560367e-06
5.4034281e-06
5.2563576e-06
5.1144731e-06
4.9773789e-06
4.8445256e-06
4.7154838e-06
4.5900561e-06
4.4681031e-06
4.3492699e-06
4.2330601e-06
4.1190023e-06
4.0064785e-06
3.8947625e-06
3.7832723e-06
3.6715103e-06
3.5587711e-06
3.4441401e-06
3.3266328e-06
3.2051766e-06
3.0789643e-06
2.9476908e-06
2.8116664e-06
2.6735837e-06
2.5385984e-06
2.4132018e-06
2.3042142e-06
2.2439205e-06
2.2270142e-06
2.2614079e-06
2.2808264e-06
2.222572e-06
2.246817e-06
2.3489861e-06
2.4832017e-06
2.637942e-06
2.7975665e-06
2.9489195e-06
3.0853263e-06
3.1996083e-06
3.2870252e-06
3.3488883e-06
3.4001791e-06
3.4508544e-06
3.4934942e-06
3.5245797e-06
3.5280493e-06
3.4968454e-06
3.460965e-06
3.4328877e-06
3.3899282e-06
3.3151622e-06
3.2066778e-06
3.0955541e-06
2.979738e-06
2.8631799e-06
2.7498879e-06
2.6466998e-06
2.5592097e-06
2.4904185e-06
2.5008601e-06
2.6022932e-06
2.730661e-06
2.9341062e-06
3.24943e-06
3.719293e-06
4.3787907e-06
5.237218e-06
6.2376321e-06
7.0703649e-06
7.5028537e-06
7.079898e-06
6.2663909e-06
5.0895083e-06
4.4886243e-06
3.7426197e-06
4.0079e-06
9.727361e-06
1.0735061e-05
9.7089786e-06
7.7365578e-06
4.8877492e-06
2.20357e-06
5.9306911e-07
1.3758954e-07
9.8079423e-08
4.4807719e-08
2.1589034e-08
1.6510988e-08
1.463111e-08
1.3817278e-08
1.3608892e-08
1.3578636e-08
1.3554111e-08
1.4045489e-08
1.4884188e-08
1.6101802e-08
1.7712655e-08
1.9777864e-08
2.2353703e-08
2.551116e-08
2.9367071e-08
3.3956654e-08
3.9415194e-08
4.5463969e-08
5.0878434e-08
5.6454329e-08
6.2825479e-08
7.011633e-08
7.8221885e-08
8.6875685e-08
9.5812488e-08
1.0488753e-07
1.1412488e-07
1.2325613e-07
1.3142416e-07
1.3761097e-07
1.4008142e-07
1.3861432e-07
1.3286616e-07
1.228357e-07
1.1213407e-07
1.0367867e-07
1.0678764e-07
1.3894786e-07
1.6479704e-07
1.917284e-07
2.203056e-07
2.487671e-07
2.793621e-07
3.1040851e-07
3.4357402e-07
3.7806639e-07
4.1495264e-07
4.5400873e-07
4.9599591e-07
5.4105339e-07
5.8982578e-07
6.4270758e-07
7.0036872e-07
7.6342579e-07
8.326888e-07
9.0902752e-07
9.9350292e-07
1.0873191e-06
1.191911e-06
1.3089415e-06
1.4403872e-06
1.5885533e-06
1.7561557e-06
1.9463422e-06
2.1627801e-06
2.4096153e-06
2.6915411e-06
3.0135957e-06
3.3812426e-06
3.8003103e-06
4.2766806e-06
4.8159036e-06
5.4233254e-06
6.1039218e-06
6.860698e-06
7.6964713e-06
8.611413e-06
9.604042e-06
1.0668309e-05
1.1795385e-05
1.2969516e-05
1.4169507e-05
1.5363401e-05
1.6516078e-05
1.7587473e-05
1.8539427e-05
1.9340752e-05
1.9976695e-05
2.0407332e-05
2.0666482e-05
2.0830074e-05
2.0886058e-05
2.0761249e-05
2.0586345e-05
2.0314939e-05
1.9996728e-05
1.9630125e-05
1.9232801e-05
1.8812944e-05
1.8378242e-05
1.7934953e-05
1.7488517e-05
1.7043572e-05
1.660314e-05
1.6169792e-05
1.5744734e-05
1.5329191e-05
1.4924597e-05
1.4531484e-05
1.4150405e-05
1.3781328e-05
1.3423819e-05
1.307705e-05
1.2740979e-05
1.2415502e-05
1.2100342e-05
1.1794885e-05
1.1498406e-05
1.1209815e-05
1.0928265e-05
1.0653434e-05
1.038513e-05
1.0122657e-05
9.8649845e-06
9.6111228e-06
9.3597331e-06
9.1092139e-06
8.8582774e-06
8.605824e-06
8.3502662e-06
8.0895177e-06
7.8213165e-06
7.543149e-06
7.2531067e-06
6.9504787e-06
6.6358605e-06
6.3154519e-06
6.0012841e-06
5.7086057e-06
5.4535568e-06
5.3107238e-06
5.2701997e-06
5.3501803e-06
5.3966868e-06
5.2605154e-06
5.3154065e-06
5.5547294e-06
5.8695976e-06
6.2333208e-06
6.6092375e-06
6.9666236e-06
7.2899239e-06
7.5622518e-06
7.7723477e-06
7.9230745e-06
8.0491157e-06
8.17307e-06
8.2769935e-06
8.3518244e-06
8.3585082e-06
8.2815071e-06
8.1922776e-06
8.1189462e-06
8.0091806e-06
7.8222856e-06
7.5581956e-06
7.2888256e-06
7.0076517e-06
6.7248463e-06
6.4499805e-06
6.1989216e-06
5.9839989e-06
5.8142307e-06
5.8265946e-06
6.0363875e-06
6.305055e-06
6.733475e-06
7.4006345e-06
8.3910001e-06
9.7626434e-06
1.1510955e-05
1.3488804e-05
1.5041795e-05
1.5717139e-05
1.467571e-05
1.2922825e-05
1.0562497e-05
9.4027697e-06
7.979438e-06
8.5772421e-06
1.842196e-05
2.035428e-05
1.8632464e-05
1.5085184e-05
9.7955961e-06
4.596012e-06
1.2932818e-06
3.0769508e-07
2.1731587e-07
9.9675185e-08
4.7914418e-08
3.6494876e-08
3.2315328e-08
3.0512239e-08
3.0056576e-08
3.0001179e-08
2.9950085e-08
3.1021808e-08
3.2860133e-08
3.5533358e-08
3.9072402e-08
4.3610928e-08
4.9273535e-08
5.6219954e-08
6.4694355e-08
7.4773707e-08
8.6772121e-08
1.0014852e-07
1.1212151e-07
1.2441981e-07
1.3846529e-07
1.5454853e-07
1.7244677e-07
1.9157397e-07
2.1133825e-07
2.3140419e-07
2.5181713e-07
2.7200341e-07
2.9008247e-07
3.0380527e-07
3.093281e-07
3.0614808e-07
2.9348902e-07
2.7133835e-07
2.476494e-07
2.289017e-07
2.3553521e-07
3.0629518e-07
3.6290556e-07
4.2193118e-07
4.8449853e-07
5.467471e-07
6.1360817e-07
6.8139207e-07
7.5374563e-07
8.2892957e-07
9.0926684e-07
9.9425558e-07
1.0855397e-06
1.1834006e-06
1.2892125e-06
1.4037957e-06
1.5285558e-06
1.6647665e-06
1.8140984e-06
1.9783234e-06
2.1595887e-06
2.3603016e-06
2.5833015e-06
2.8318328e-06
3.1097008e-06
3.4212686e-06
3.7715876e-06
4.1663901e-06
4.6122093e-06
5.1162284e-06
5.686354e-06
6.3307462e-06
7.0579548e-06
7.8768017e-06
8.7958602e-06
9.8228509e-06
1.0965099e-05
1.2229747e-05
1.3620747e-05
1.5142911e-05
1.6797582e-05
1.858479e-05
2.0497259e-05
2.2525141e-05
2.4645356e-05
2.6822201e-05
2.9007393e-05
3.1138856e-05
3.3145086e-05
3.4955936e-05
3.6511627e-05
3.7778826e-05
3.8701308e-05
3.9312488e-05
3.973482e-05
3.9975861e-05
3.9882315e-05
3.9687663e-05
3.9312531e-05
3.8842241e-05
3.8275585e-05
3.7643331e-05
3.6960898e-05
3.6242081e-05
3.5498595e-05
3.474073e-05
3.3977407e-05
3.3214639e-05
3.245757e-05
3.1708847e-05
3.0971194e-05
3.0247741e-05
2.9539973e-05
2.8849378e-05
2.8176284e-05
2.7520231e-05
2.6879957e-05
2.6255713e-05
2.5647679e-05
2.5055655e-05
2.4478723e-05
2.3915739e-05
2.3364785e-05
2.2824382e-05
2.2294129e-05
2.1773875e-05
2.1262431e-05
2.0757905e-05
2.0258449e-05
1.9761472e-05
1.9263814e-05
1.8762921e-05
1.825661e-05
1.7741666e-05
1.7213806e-05
1.6668347e-05
1.6099869e-05
1.5504393e-05
1.4880199e-05
1.4228198e-05
1.3561073e-05
1.2904032e-05
1.2289399e-05
1.1751831e-05
1.1446111e-05
1.1358333e-05
1.1525415e-05
1.162306e-05
1.1333231e-05
1.1443772e-05
1.1949163e-05
1.2615065e-05
1.3385788e-05
1.4183702e-05
1.4944198e-05
1.563483e-05
1.6219941e-05
1.6675613e-05
1.7007478e-05
1.7287398e-05
1.7560827e-05
1.778854e-05
1.7949267e-05
1.7957298e-05
1.7784518e-05
1.7582451e-05
1.7407949e-05
1.7152636e-05
1.6728808e-05
1.6145273e-05
1.5555078e-05
1.493696e-05
1.4315167e-05
1.3710478e-05
1.3155963e-05
1.2676081e-05
1.2294196e-05
1.2290272e-05
1.2660607e-05
1.3154255e-05
1.394572e-05
1.5191995e-05
1.704193e-05
1.9573211e-05
2.2741337e-05
2.622981e-05
2.8813367e-05
2.9685152e-05
2.7372123e-05
2.3846349e-05
1.9503135e-05
1.7409448e-05
1.5003406e-05
1.6094866e-05
3.119526e-05
3.4547191e-05
3.2104441e-05
2.6490683e-05
1.7749958e-05
8.7283827e-06
2.5960962e-06
6.448784e-07
4.5137113e-07
2.077381e-07
9.956896e-08
7.5519669e-08
6.6824444e-08
6.3088778e-08
6.2162053e-08
6.207479e-08
6.1983579e-08
6.4167014e-08
6.7936733e-08
7.3428044e-08
8.0702796e-08
9.00341e-08
1.0168985e-07
1.1598397e-07
1.3339213e-07
1.541068e-07
1.7877771e-07
2.0645917e-07
2.312575e-07
2.5664067e-07
2.8561513e-07
3.1881757e-07
3.5580808e-07
3.9537956e-07
4.3629298e-07
4.7781851e-07
5.2003184e-07
5.61791e-07
5.9923697e-07
6.2771997e-07
6.3927576e-07
6.328384e-07
6.0675644e-07
5.6098692e-07
5.1189162e-07
4.7294424e-07
4.8606656e-07
6.3141405e-07
7.4703399e-07
8.6763095e-07
9.9524105e-07
1.1219997e-06
1.2579614e-06
1.3955958e-06
1.5423086e-06
1.6945436e-06
1.8569841e-06
2.028569e-06
2.2125682e-06
2.409475e-06
2.6219636e-06
2.85156e-06
3.1009261e-06
3.3724072e-06
3.6690766e-06
3.9941259e-06
4.3513846e-06
4.7450608e-06
5.1800396e-06
5.6617831e-06
6.1965727e-06
6.7914344e-06
7.4543066e-06
8.193945e-06
9.0200571e-06
9.9429562e-06
1.0973656e-05
1.2123036e-05
1.3402208e-05
1.4822485e-05
1.6394841e-05
1.8129282e-05
2.0035982e-05
2.2126704e-05
2.440924e-05
2.6895161e-05
2.9592498e-05
3.2509581e-05
3.5645543e-05
3.8986578e-05
4.2506556e-05
4.6155415e-05
4.9855353e-05
5.3503603e-05
5.6978549e-05
6.0158354e-05
6.2936376e-05
6.5246213e-05
6.7022542e-05
6.8275092e-05