/*--------------------------------*- C++ -*----------------------------------*\
| =========                 |                                                 |
| \\      /  F ield         | OpenFOAM: The Open Source CFD Toolbox           |
|  \\    /   O peration     | Version:  2.4.0                                 |
|   \\  /    A nd           | Web:      www.OpenFOAM.org                      |
|    \\/     M anipulation  |                                                 |
\*---------------------------------------------------------------------------*/
FoamFile
{
    version     2.0;
    format      ascii;
    class       volSymmTensorField;
    location    "15392";
    object      Rx;
}
// * * * * * * * * * * * * * * * * * * * * * * * * * * * * * * * * * * * * * //

dimensions      [0 0 0 0 0 0 0];

internalField   nonuniform List<symmTensor> 
32000
(
(1.3827801e-08 8.9314496e-08 3.3854591e-27 1.5432116e-08 7.6296228e-27 -2.9259917e-08)
(8.4722647e-09 1.3857572e-07 -6.2153544e-28 8.2196265e-09 5.3599491e-28 -1.6691891e-08)
(2.2905698e-08 7.6628557e-08 1.5652416e-26 1.450629e-08 2.2866772e-26 -3.7411988e-08)
(2.3075811e-08 8.2317859e-08 1.611661e-26 -2.3049859e-09 5.5388771e-26 -2.0770825e-08)
(2.5038841e-08 6.2240589e-08 6.9914936e-26 -1.2657737e-08 8.1173398e-26 -1.2381104e-08)
(7.3285907e-08 1.5028009e-07 -3.0198947e-25 -7.3120306e-08 -2.0926793e-24 -1.6560042e-10)
(-9.9622452e-09 -1.2495094e-08 -6.0045998e-27 1.1127737e-08 -4.8596632e-26 -1.1654918e-09)
(1.0852696e-10 -1.4904458e-09 2.078503e-27 3.8036297e-09 -2.5381132e-27 -3.9121567e-09)
(-5.4998028e-10 -1.1084498e-09 -6.0984057e-27 3.2779866e-09 -9.0297888e-27 -2.7280064e-09)
(-3.4646044e-10 -5.0872529e-10 4.7954622e-27 2.0098648e-09 3.0951583e-27 -1.6634044e-09)
(-3.1710217e-10 -2.6508293e-10 -2.8138802e-27 1.2848243e-09 1.1525495e-26 -9.6772215e-10)
(-4.190354e-10 -1.9980628e-10 -1.5486153e-27 1.1144413e-09 1.347712e-26 -6.9540587e-10)
(-5.0744356e-10 -1.6554678e-10 -4.3069111e-27 1.0576872e-09 3.7312741e-26 -5.5024364e-10)
(-5.7256027e-10 -1.4475441e-10 1.9938605e-28 1.0440203e-09 -1.5979595e-26 -4.7145999e-10)
(-6.5700604e-10 -1.3803575e-10 -2.0294841e-27 1.0651052e-09 -1.2024157e-26 -4.0809913e-10)
(-7.545173e-10 -1.4321735e-10 4.9649859e-27 1.1051199e-09 2.6267935e-26 -3.5060264e-10)
(-8.4827223e-10 -1.5973903e-10 1.8617434e-26 1.152419e-09 7.0915047e-26 -3.0414677e-10)
(-9.5320922e-10 -1.9054043e-10 1.0657169e-26 1.2288589e-09 1.9201718e-26 -2.756497e-10)
(-1.0564473e-09 -2.2592331e-10 2.5889112e-26 1.3177218e-09 7.0231433e-26 -2.6127455e-10)
(-1.1664922e-09 -2.650036e-10 2.7162614e-26 1.4225572e-09 6.8127536e-26 -2.5606499e-10)
(-1.2849964e-09 -3.0794748e-10 5.4417667e-26 1.5430182e-09 1.2874388e-25 -2.5802178e-10)
(-1.4067553e-09 -3.5353956e-10 -4.4186703e-26 1.6752146e-09 -8.6344677e-26 -2.684593e-10)
(-1.5387358e-09 -4.0266239e-10 3.896995e-27 1.8239013e-09 3.0436261e-26 -2.8516554e-10)
(-1.6798262e-09 -4.5496419e-10 2.8091546e-26 1.9884741e-09 6.3783458e-26 -3.0864782e-10)
(-1.8384636e-09 -5.11443e-10 4.084095e-26 2.1759846e-09 1.0202279e-25 -3.3752094e-10)
(-2.020134e-09 -5.7318212e-10 -3.5993768e-26 2.3899492e-09 -7.6378602e-26 -3.6981519e-10)
(-2.2479546e-09 -6.4511295e-10 -7.2990541e-26 2.6477691e-09 -2.0340015e-25 -3.998145e-10)
(-2.520278e-09 -7.3579412e-10 -9.7130449e-26 2.9408271e-09 -2.3705436e-25 -4.2054907e-10)
(-2.7694355e-09 -8.3938291e-10 2.3992159e-26 3.2030873e-09 7.688582e-26 -4.3365183e-10)
(-3.047727e-09 -9.7694495e-10 -2.3190604e-26 3.4871082e-09 -8.3351023e-26 -4.3938123e-10)
(-3.3951379e-09 -1.1701166e-09 -4.2345737e-26 3.8320962e-09 -8.6257079e-26 -4.3695824e-10)
(-3.8274359e-09 -1.4397767e-09 7.5831373e-26 4.2527671e-09 1.2315555e-25 -4.2533124e-10)
(-4.3527548e-09 -1.8124685e-09 7.6017302e-26 4.7566489e-09 1.4423106e-25 -4.0389406e-10)
(-4.9752914e-09 -2.324456e-09 -3.1695275e-26 5.3480066e-09 2.4430191e-26 -3.7271521e-10)
(-5.6941442e-09 -3.0271269e-09 -2.400094e-25 6.0278523e-09 -4.3279057e-25 -3.3370811e-10)
(-6.4950376e-09 -3.983486e-09 -1.9716841e-25 6.7859563e-09 -5.3024952e-25 -2.9091869e-10)
(-7.3392826e-09 -5.2406082e-09 1.8008538e-25 7.5887946e-09 4.7922007e-25 -2.4951207e-10)
(-8.2675367e-09 -6.8930071e-09 -2.2378507e-26 8.475027e-09 -3.1416838e-26 -2.0749034e-10)
(-9.2879356e-09 -9.0946335e-09 4.9081074e-25 9.4529739e-09 1.1248041e-24 -1.6503829e-10)
(-1.0416497e-08 -1.2100667e-08 -3.8750268e-25 1.0540218e-08 -8.7523772e-25 -1.2372091e-10)
(-1.1504735e-08 -1.6108411e-08 1.0148e-25 1.1593123e-08 4.6755882e-25 -8.8388228e-11)
(-1.286087e-08 -2.2225519e-08 2.229964e-25 1.2919529e-08 8.9922017e-25 -5.8659368e-11)
(-1.3796974e-08 -3.0568975e-08 -1.4758062e-25 1.3839959e-08 -1.3586195e-24 -4.298539e-11)
(-1.5461316e-08 -4.6652298e-08 -1.2464776e-25 1.5494526e-08 -7.134552e-25 -3.3210036e-11)
(-1.2244741e-08 -5.6095875e-08 -6.8270372e-25 1.2282422e-08 -5.132875e-24 -3.7680889e-11)
(-8.814312e-09 -7.5232382e-08 3.1468413e-25 8.8104975e-09 -2.1429727e-26 3.8145274e-12)
(-7.5749304e-10 -3.089879e-08 2.3669631e-27 7.941347e-10 5.6517022e-26 -3.664166e-11)
(-9.1015425e-11 -2.1472037e-08 -3.2106605e-28 1.6711469e-10 -6.165131e-29 -7.6099266e-11)
(-2.353734e-11 -2.0317023e-08 -2.0928357e-30 1.430789e-10 2.7984735e-28 -1.1954156e-10)
(3.3784553e-11 -1.8653842e-08 1.1813396e-30 1.4986986e-10 -2.2660351e-28 -1.8365441e-10)
(7.6033235e-11 -1.8626867e-08 7.5504453e-31 1.6476721e-10 7.4620901e-29 -2.4080045e-10)
(1.1845846e-10 -1.8464576e-08 -3.5890248e-30 1.8956145e-10 6.9623267e-29 -3.0801991e-10)
(1.5528382e-10 -1.8892625e-08 2.1916833e-30 2.1351498e-10 -1.1189248e-28 -3.687988e-10)
(1.9113903e-10 -1.9353913e-08 8.2290273e-31 2.4014724e-10 3.5110988e-29 -4.3128627e-10)
(2.2307e-10 -2.0118324e-08 -4.6899742e-31 2.6448283e-10 3.0478066e-30 -4.8755283e-10)
(2.5274868e-10 -2.0995388e-08 -5.8706514e-31 2.88149e-10 2.2539714e-29 -5.4089768e-10)
(2.7891155e-10 -2.2096921e-08 6.6665038e-31 3.0899706e-10 -1.6128735e-29 -5.8790861e-10)
(3.0220323e-10 -2.3360602e-08 -2.8125778e-32 3.2768063e-10 5.1564251e-29 -6.2988386e-10)
(3.2219124e-10 -2.4845177e-08 1.4931823e-30 3.433579e-10 -7.1151461e-29 -6.6554914e-10)
(3.3920653e-10 -2.6541073e-08 -3.2809272e-30 3.5637603e-10 3.9931493e-29 -6.9558256e-10)
(3.5325054e-10 -2.8489517e-08 3.3866445e-31 3.6655228e-10 2.3927028e-29 -7.1980282e-10)
(3.6462451e-10 -3.0705454e-08 2.2572141e-30 3.7427665e-10 -8.6124361e-29 -7.3890116e-10)
(3.7358989e-10 -3.3225174e-08 -1.1253279e-30 3.7978747e-10 1.2000521e-29 -7.5337736e-10)
(3.8051524e-10 -3.6073519e-08 6.30365e-31 3.8372298e-10 -2.0113152e-29 -7.6423822e-10)
(3.8583953e-10 -3.9281247e-08 -2.3398234e-30 3.8672498e-10 3.5651389e-29 -7.7256451e-10)
(3.900122e-10 -4.2868248e-08 6.6123299e-31 3.8984857e-10 -3.6898168e-29 -7.7986077e-10)
(3.9360102e-10 -4.6846341e-08 1.9350888e-30 3.9423434e-10 -7.5567547e-30 -7.8783536e-10)
(3.9714843e-10 -5.1206579e-08 -5.5445334e-31 4.015221e-10 -8.9758879e-30 -7.9867054e-10)
(4.0139579e-10 -5.5913949e-08 1.3179942e-30 4.1350487e-10 1.1527652e-28 -8.1490066e-10)
(4.0717407e-10 -6.0896314e-08 -9.5004862e-31 4.3255996e-10 1.6305504e-30 -8.3973403e-10)
(4.1584142e-10 -6.6038638e-08 2.3328299e-30 4.6121153e-10 -8.916323e-29 -8.7705296e-10)
(4.2928945e-10 -7.1182885e-08 -2.6595344e-30 5.0259264e-10 9.3380072e-29 -9.3188208e-10)
(4.5063877e-10 -7.613623e-08 2.8474291e-30 5.5993047e-10 -9.3104218e-29 -1.0105692e-09)
(4.8437642e-10 -8.0692293e-08 -1.6171102e-30 6.3723927e-10 6.1064724e-29 -1.1216157e-09)
(5.3717164e-10 -8.4662998e-08 -1.0491736e-30 7.3894937e-10 -5.0987019e-29 -1.276121e-09)
(6.1788464e-10 -8.7909913e-08 -1.7863973e-30 8.7124535e-10 -3.7577112e-30 -1.48913e-09)
(7.384335e-10 -9.0369196e-08 1.3917969e-30 1.0422137e-09 1.8436855e-29 -1.7806472e-09)
(9.1356921e-10 -9.206202e-08 -1.2361462e-30 1.2638011e-09 -1.999197e-30 -2.1773703e-09)
(1.1624196e-09 -9.3071802e-08 1.7632293e-30 1.5524604e-09 4.0809408e-30 -2.71488e-09)
(1.508779e-09 -9.3545283e-08 -2.7134802e-31 1.9303957e-09 3.4593009e-30 -3.4391746e-09)
(1.9814509e-09 -9.3661892e-08 -1.7042268e-31 2.4263393e-09 -2.5670333e-31 -4.4077902e-09)
(2.61664e-09 -9.3569385e-08 5.5863039e-30 3.0771696e-09 -1.3798105e-29 -5.6938096e-09)
(3.4572661e-09 -9.3418597e-08 -4.2481098e-30 3.9266375e-09 1.3401904e-29 -7.3839036e-09)
(4.5535386e-09 -9.332378e-08 -1.0619964e-30 5.0263497e-09 1.9969174e-30 -9.5798883e-09)
(5.9622027e-09 -9.335258e-08 -1.4885969e-30 6.4336542e-09 4.2640711e-30 -1.2395857e-08)
(7.7408779e-09 -9.3579074e-08 5.2771208e-30 8.2071151e-09 -1.2294376e-29 -1.5947993e-08)
(9.9460567e-09 -9.4023087e-08 -5.2929026e-32 1.0403845e-08 -2.6552275e-30 -2.0349901e-08)
(1.262358e-08 -9.4698843e-08 -3.7140943e-30 1.3069538e-08 6.3144819e-30 -2.5693118e-08)
(1.5795769e-08 -9.5597636e-08 -2.0675064e-30 1.622661e-08 4.9052105e-30 -3.2022379e-08)
(1.9450865e-08 -9.6705413e-08 8.9759536e-30 1.9862904e-08 -1.4998455e-29 -3.9313769e-08)
(2.3526723e-08 -9.7986333e-08 -9.2081976e-30 2.3915814e-08 1.2468557e-29 -4.7442538e-08)
(2.7899494e-08 -9.9400662e-08 7.9078422e-30 2.8261252e-08 -8.9494696e-30 -5.6160747e-08)
(3.2384885e-08 -1.0088999e-07 -4.7525196e-30 3.2714598e-08 4.8483627e-30 -6.5099483e-08)
(3.6742828e-08 -1.0239971e-07 7.3085437e-30 3.703635e-08 -7.0887283e-30 -7.3779178e-08)
(4.0714888e-08 -1.0386346e-07 -9.2379473e-31 4.096888e-08 8.4397107e-31 -8.1683768e-08)
(4.4064824e-08 -1.0522084e-07 -6.9880118e-31 4.4277485e-08 6.4582742e-31 -8.8342309e-08)
(4.6612963e-08 -1.064346e-07 -2.1044731e-32 4.6784178e-08 1.4825751e-32 -9.339714e-08)
(4.8276135e-08 -1.0751353e-07 -3.256482e-31 4.8408137e-08 3.6909673e-31 -9.6684272e-08)
(4.9073219e-08 -1.0809139e-07 -5.7551394e-31 4.9169739e-08 6.3587782e-31 -9.8242958e-08)
(4.9115664e-08 -1.0846051e-07 8.4304898e-33 4.9180898e-08 -2.2383196e-32 -9.8296562e-08)
(4.8492759e-08 -1.0907493e-07 2.9937829e-31 4.8530215e-08 -2.6841989e-31 -9.7022974e-08)
(4.7328172e-08 -1.0955973e-07 3.813905e-31 4.7341379e-08 -3.669752e-31 -9.4669551e-08)
(4.5746803e-08 -1.0956291e-07 -7.8166164e-31 4.5739247e-08 9.2216959e-31 -9.148605e-08)
(4.3874813e-08 -1.0973207e-07 4.838226e-31 4.3849666e-08 -3.5921927e-31 -8.7724479e-08)
(4.1808907e-08 -1.0968891e-07 1.130457e-30 4.1768905e-08 -9.0158215e-31 -8.3577811e-08)
(3.9635211e-08 -1.0967118e-07 7.4751898e-30 3.9582567e-08 -6.8935509e-30 -7.9217778e-08)
(3.7414722e-08 -1.0959787e-07 -9.2124376e-30 3.735129e-08 8.9953543e-30 -7.4766011e-08)
(3.5197505e-08 -1.0952736e-07 1.3009997e-30 3.5124863e-08 -1.2649162e-30 -7.0322368e-08)
(3.3020176e-08 -1.0946003e-07 -1.6838084e-29 3.2939589e-08 1.8855662e-29 -6.5959765e-08)
(3.0906685e-08 -1.0941201e-07 2.5452575e-29 3.0819053e-08 -3.0265817e-29 -6.1725739e-08)
(2.8873684e-08 -1.0939402e-07 -2.2550766e-29 2.8779954e-08 2.7083704e-29 -5.7653638e-08)
(2.6934951e-08 -1.0941156e-07 2.8458078e-29 2.6835891e-08 -3.8349149e-29 -5.3770843e-08)
(2.5097115e-08 -1.0947491e-07 8.0928533e-30 2.4993364e-08 -1.1613825e-29 -5.0090478e-08)
(2.3363624e-08 -1.0958649e-07 -1.464379e-29 2.3255644e-08 2.5404696e-29 -4.6619268e-08)
(2.1734194e-08 -1.0975308e-07 -2.7218745e-29 2.1622276e-08 4.5294986e-29 -4.335647e-08)
(2.0205572e-08 -1.0997817e-07 1.5635298e-29 2.0089966e-08 -2.9382144e-29 -4.0295538e-08)
(1.8775871e-08 -1.1026029e-07 2.3475894e-30 1.8656945e-08 -7.8515225e-30 -3.7432816e-08)
(1.7441957e-08 -1.1060316e-07 -2.4986333e-29 1.7319945e-08 5.9058451e-29 -3.4761902e-08)
(1.6199657e-08 -1.1100554e-07 -1.0927149e-29 1.6074837e-08 2.7378071e-29 -3.2274494e-08)
(1.5044757e-08 -1.1146676e-07 -3.3203778e-30 1.491725e-08 1.0208025e-30 -2.9962007e-08)
(1.3971782e-08 -1.1198703e-07 4.1095675e-29 1.3841601e-08 -1.0735815e-28 -2.7813383e-08)
(1.2974693e-08 -1.1256705e-07 -4.6168693e-29 1.2841745e-08 1.4067439e-28 -2.5816438e-08)
(1.2048135e-08 -1.1320243e-07 6.8576408e-29 1.1912497e-08 -2.1862504e-28 -2.3960633e-08)
(1.1188056e-08 -1.1389117e-07 -1.3642545e-29 1.1049873e-08 4.2806025e-29 -2.2237929e-08)
(1.0390609e-08 -1.1462938e-07 9.6513839e-30 1.0250086e-08 -4.6735112e-29 -2.0640694e-08)
(9.6520109e-09 -1.1541203e-07 -2.8852981e-30 9.509211e-09 1.5959882e-29 -1.9161222e-08)
(8.9679625e-09 -1.1623523e-07 -1.1498728e-29 8.822864e-09 4.8574191e-29 -1.7790826e-08)
(8.3340991e-09 -1.1709618e-07 6.0540028e-30 8.1865528e-09 -2.8568687e-29 -1.6520652e-08)
(7.7461627e-09 -1.1798953e-07 -1.1917011e-29 7.5960632e-09 6.1001149e-29 -1.5342226e-08)
(7.2005933e-09 -1.1890933e-07 -7.451976e-31 7.048004e-09 1.7259197e-29 -1.4248597e-08)
(6.6948384e-09 -1.1984712e-07 -1.6214079e-29 6.5400398e-09 1.1410952e-28 -1.3234878e-08)
(6.2266705e-09 -1.207938e-07 7.455097e-30 6.0698357e-09 -8.6111665e-29 -1.2296506e-08)
(5.7934132e-09 -1.2173937e-07 -2.0247239e-29 5.6346239e-09 1.9408734e-28 -1.1428037e-08)
(5.392344e-09 -1.2267074e-07 4.3313855e-30 5.231625e-09 -6.9545548e-29 -1.0623969e-08)
(5.0209805e-09 -1.2357415e-07 -1.255899e-23 4.8582364e-09 1.0704051e-24 -9.8792169e-09)
(4.6765041e-09 -1.2443769e-07 6.9831481e-23 4.5114953e-09 -7.4928362e-22 -9.1879994e-09)
(4.3563986e-09 -1.2524208e-07 9.4846238e-23 4.1890775e-09 -7.9391109e-22 -8.5454761e-09)
(4.0587412e-09 -1.2596425e-07 2.9214291e-23 3.8892808e-09 -1.6745264e-24 -7.948022e-09)
(3.782211e-09 -1.2657427e-07 -6.1480631e-23 3.6108411e-09 8.7801783e-22 -7.3930521e-09)
(3.5250723e-09 -1.2704184e-07 -9.1092047e-23 3.3519586e-09 9.2543905e-22 -6.8770309e-09)
(3.2860912e-09 -1.2731615e-07 -1.6811756e-23 3.1115321e-09 5.9670907e-25 -6.3976233e-09)
(3.0635425e-09 -1.2735017e-07 2.5394334e-29 2.8880341e-09 -4.754884e-28 -5.9515766e-09)
(2.8568287e-09 -1.2706088e-07 1.5431545e-29 2.6813964e-09 -1.4802925e-28 -5.5382251e-09)
(2.6644155e-09 -1.263877e-07 -3.6151043e-29 2.490886e-09 3.6756593e-28 -5.1553015e-09)
(2.4872745e-09 -1.2521196e-07 1.7324918e-29 2.3188088e-09 -1.7913811e-28 -4.8060833e-09)
(2.324152e-09 -1.2348314e-07 -2.1726694e-29 2.1658206e-09 5.6559965e-28 -4.4899727e-09)
(2.179574e-09 -1.2108431e-07 3.5769898e-29 2.0384528e-09 -8.5491269e-28 -4.2180268e-09)
(2.0522516e-09 -1.1817886e-07 -3.5351095e-29 1.9378559e-09 6.9103241e-28 -3.9901075e-09)
(1.9542567e-09 -1.1464243e-07 3.5692145e-29 1.8761916e-09 -1.1055631e-27 -3.8304483e-09)
(1.8802648e-09 -1.1093157e-07 1.5849728e-29 1.8499625e-09 3.4261351e-28 -3.7302273e-09)
(1.862067e-09 -1.0790891e-07 -1.8084191e-29 1.8775678e-09 1.8591058e-28 -3.7396348e-09)
(1.868346e-09 -1.0634786e-07 9.4212627e-31 1.9217084e-09 -6.6312407e-29 -3.7900544e-09)
(1.9959438e-09 -1.0547107e-07 -1.1952082e-27 1.9552716e-09 1.1378593e-27 -3.9512153e-09)
(3.3634008e-09 -1.1099866e-07 -8.5933748e-26 2.6287056e-10 -6.80496e-26 -3.6262713e-09)
(1.4270837e-08 -1.1517291e-07 4.9627559e-25 -1.107109e-08 -5.7018131e-24 -3.1997474e-09)
(2.6936941e-08 -1.1407763e-07 1.9590563e-24 -2.3716484e-08 -1.1089164e-23 -3.2204563e-09)
(4.024259e-08 -1.1446802e-07 -1.3500654e-24 -3.6946698e-08 6.2557905e-24 -3.2958918e-09)
(5.3846905e-08 -1.1390683e-07 2.439516e-24 -5.042924e-08 -8.3035408e-24 -3.4176656e-09)
(6.7926186e-08 -1.1311531e-07 1.37418e-24 -6.4411017e-08 -3.7284446e-24 -3.5151695e-09)
(8.2382307e-08 -1.1183251e-07 5.7579594e-24 -7.8820744e-08 -1.619552e-23 -3.5615627e-09)
(9.7576128e-08 -1.1016192e-07 -2.9906936e-24 -9.4056518e-08 6.4768808e-24 -3.5196099e-09)
(1.1361959e-07 -1.0822838e-07 -2.0226624e-24 -1.1023604e-07 5.2190574e-24 -3.3835444e-09)
(1.311993e-07 -1.0636958e-07 1.1237237e-23 -1.2805702e-07 -2.1353308e-23 -3.142279e-09)
(1.5116363e-07 -1.0484103e-07 -1.0148703e-24 -1.4835396e-07 9.1162315e-25 -2.8096749e-09)
(1.7501823e-07 -1.0402199e-07 2.7444982e-23 -1.726006e-07 -4.7295941e-23 -2.4176297e-09)
(2.0557323e-07 -1.0522882e-07 -2.5893034e-23 -2.0356239e-07 3.9930343e-23 -2.0108375e-09)
(2.4885513e-07 -1.1111582e-07 1.3148715e-23 -2.4722528e-07 -2.2802629e-23 -1.6298514e-09)
(3.1606024e-07 -1.2461711e-07 3.1195673e-24 -3.147024e-07 -6.9037373e-24 -1.3578386e-09)
(4.3574617e-07 -1.5329117e-07 1.5047776e-23 -4.3436073e-07 -1.5717341e-23 -1.3854374e-09)
(7.0498703e-07 -2.2239874e-07 1.57387e-22 -7.0241806e-07 -2.1110947e-22 -2.568971e-09)
(9.1017018e-07 -2.2010197e-07 -1.2560773e-21 -8.9383469e-07 1.6304495e-21 -1.6335494e-08)
(-1.1334885e-06 3.3383272e-07 3.6286087e-22 1.1368252e-06 -4.2365882e-22 -3.3367298e-09)
(-5.4647129e-07 1.5092191e-07 4.8168867e-23 5.4719429e-07 -7.1349717e-23 -7.2299872e-10)
(-3.4738878e-07 9.3325057e-08 3.338804e-23 3.4822231e-07 -4.5415928e-23 -8.3353641e-10)
(-2.5086948e-07 6.6411484e-08 1.0098703e-23 2.5227562e-07 -1.2187205e-23 -1.4061496e-09)
(-1.9456108e-07 5.0669096e-08 -7.2905762e-24 1.9674594e-07 8.5308084e-24 -2.1848607e-09)
(-1.5770425e-07 3.9962308e-08 2.0665668e-23 1.6080823e-07 -2.7047499e-23 -3.1039804e-09)
(-1.3091187e-07 3.2185812e-08 -6.4885964e-25 1.3507822e-07 1.3393435e-24 -4.1663514e-09)
(-1.1096428e-07 2.6318846e-08 1.0261884e-23 1.1628836e-07 -1.4682098e-23 -5.3240833e-09)
(-9.5129231e-08 2.1625279e-08 3.2767369e-25 1.017354e-07 1.3415155e-25 -6.6061732e-09)
(-8.2460129e-08 1.7838443e-08 -1.2997807e-24 9.0465854e-08 2.2270888e-24 -8.0057251e-09)
(-7.1824098e-08 1.4691206e-08 1.6341984e-24 8.1437797e-08 -3.0675292e-24 -9.6136987e-09)
(-6.2786342e-08 1.2048732e-08 -7.0673944e-25 7.4253104e-08 5.1828194e-25 -1.1466762e-08)
(-5.5392108e-08 1.0035794e-08 4.593614e-25 6.9400545e-08 -9.5921545e-25 -1.4008437e-08)
(-4.9131197e-08 9.0005006e-09 6.1600125e-25 6.6845888e-08 -1.4787731e-24 -1.771469e-08)
(-4.2712991e-08 8.7346101e-09 -5.8664907e-26 6.5372622e-08 1.3107298e-24 -2.2659632e-08)
(-3.6525128e-08 9.2439226e-09 -2.8418935e-26 6.5901857e-08 -1.2077814e-25 -2.9376728e-08)
(-3.044393e-08 1.058486e-08 -1.9967038e-25 6.8991528e-08 -1.1986031e-24 -3.8547598e-08)
(-2.3383161e-08 1.2883201e-08 3.8568085e-25 7.5139062e-08 1.4242633e-24 -5.1755901e-08)
(-1.4519451e-08 1.6468834e-08 -2.8331017e-25 8.503159e-08 -1.0183945e-24 -7.0512139e-08)
(-7.0477069e-10 2.1566148e-08 -1.4629965e-26 9.9401316e-08 -2.9933536e-25 -9.8696546e-08)
(1.8063202e-08 2.879692e-08 1.1992636e-25 1.1761811e-07 2.0873109e-25 -1.3568132e-07)
(4.5690533e-08 3.6886036e-08 4.1319596e-25 1.3679737e-07 -6.691087e-25 -1.824879e-07)
(6.4203701e-08 4.7203073e-08 2.7510666e-24 1.4222208e-07 1.2539131e-24 -2.0642578e-07)
(6.3033889e-08 5.5759556e-08 1.993662e-24 1.2176252e-07 4.3926877e-25 -1.8479641e-07)
(4.2650349e-08 6.5334972e-08 4.9993547e-25 8.3641831e-08 2.7649235e-25 -1.2629218e-07)
(2.9420521e-08 6.7554409e-08 -2.3822593e-25 5.1278408e-08 -1.4715578e-25 -8.0698929e-08)
(1.3053191e-08 8.977882e-08 -1.7540222e-26 2.3755334e-08 -2.9390454e-26 -3.6808525e-08)
(1.3801894e-08 8.1104611e-08 -1.4917767e-27 1.4239548e-08 -3.6497866e-27 -2.8041441e-08)
(5.7733798e-09 1.8587046e-07 3.5205693e-28 2.1236479e-09 8.0419179e-26 -7.8970277e-09)
(5.1141836e-07 1.8734319e-06 2.7522916e-25 5.3885077e-07 2.8706019e-25 -1.0502691e-06)
(3.4607947e-07 2.8307614e-06 3.6081641e-26 3.3443053e-07 3.7566115e-26 -6.8050999e-07)
(7.3369606e-07 1.6170597e-06 5.4332388e-25 5.5772868e-07 5.6782728e-25 -1.2914247e-06)
(6.4441672e-07 1.7083142e-06 -2.8477552e-25 1.4251942e-07 -1.3526305e-24 -7.8693614e-07)
(6.1137525e-07 1.2920013e-06 -3.1433076e-24 -1.346217e-07 -4.42095e-24 -4.7675354e-07)
(1.1334059e-06 2.5823916e-06 -7.8214742e-24 -1.0847839e-06 1.9887889e-23 -4.8621991e-08)
(-2.3141887e-07 -2.607708e-07 1.2440558e-24 2.5884216e-07 2.3873247e-24 -2.7423292e-08)
(2.0621633e-08 -3.1828856e-08 2.1187196e-25 1.0092345e-07 6.1742471e-25 -1.2154509e-07)
(4.796398e-09 -2.3468373e-08 7.5684891e-25 8.5683089e-08 -6.172903e-25 -9.0479487e-08)
(3.6789433e-09 -1.0699259e-08 -1.9967587e-25 5.2870228e-08 3.1798268e-25 -5.6549171e-08)
(4.1802273e-10 -5.4550107e-09 -4.4387076e-25 3.3078319e-08 1.8965725e-25 -3.3496341e-08)
(-3.3351374e-09 -4.0440675e-09 -2.2682822e-25 2.7531293e-08 -7.4454351e-26 -2.4196155e-08)
(-6.0408642e-09 -3.3209165e-09 2.8105923e-26 2.5254839e-08 -8.6398602e-25 -1.9213974e-08)
(-7.8584378e-09 -2.8883238e-09 -1.8847797e-25 2.4342082e-08 6.1741781e-25 -1.6483644e-08)
(-9.9563714e-09 -2.7502625e-09 -2.2614364e-25 2.4256083e-08 1.4062453e-24 -1.4299712e-08)
(-1.2259322e-08 -2.8511551e-09 -1.405094e-26 2.4586976e-08 2.2322351e-25 -1.2327655e-08)
(-1.4389339e-08 -3.1705295e-09 3.7020762e-26 2.5126533e-08 -1.0052949e-24 -1.0737194e-08)
(-1.6647736e-08 -3.7716898e-09 -2.1410506e-25 2.6409419e-08 -2.4145782e-24 -9.7616832e-09)
(-1.8804295e-08 -4.4671061e-09 -1.3887349e-25 2.8076821e-08 -1.3472102e-24 -9.2725264e-09)
(-2.1064126e-08 -5.2438286e-09 -1.0668647e-25 3.0167344e-08 -8.2564597e-25 -9.1032181e-09)
(-2.3475046e-08 -6.1048913e-09 -4.0547223e-25 3.266056e-08 -2.650674e-24 -9.1855133e-09)
(-2.5930264e-08 -7.0280324e-09 3.5657514e-25 3.5491808e-08 2.3453993e-24 -9.5615441e-09)
(-2.8578994e-08 -8.0324224e-09 1.4064328e-24 3.8735749e-08 4.7719858e-24 -1.0156755e-08)
(-3.1397135e-08 -9.1107117e-09 -5.3432002e-25 4.238256e-08 -2.1800559e-24 -1.0985425e-08)
(-3.4563723e-08 -1.0284707e-08 -2.9676386e-25 4.6561849e-08 -1.5618861e-24 -1.1998126e-08)
(-3.8200606e-08 -1.1577487e-08 5.3056125e-25 5.1323877e-08 1.9895351e-24 -1.3123271e-08)
(-4.2815456e-08 -1.3093457e-08 3.037356e-25 5.6980123e-08 3.2033254e-24 -1.4164667e-08)
(-4.8404169e-08 -1.5001478e-08 -2.0400807e-25 6.3292716e-08 1.2775335e-24 -1.4888547e-08)
(-5.3538401e-08 -1.7168889e-08 -1.6044635e-25 6.8884979e-08 -1.2510737e-24 -1.5346578e-08)
(-5.9306133e-08 -2.0035549e-08 -2.31196e-24 7.4854957e-08 -5.0639819e-24 -1.5548824e-08)
(-6.654912e-08 -2.4056514e-08 -1.0304122e-24 8.2020739e-08 -2.7228966e-24 -1.5471619e-08)
(-7.5598103e-08 -2.9668691e-08 -1.3295787e-24 9.0678228e-08 -3.3281187e-24 -1.5080125e-08)
(-8.6613414e-08 -3.7423714e-08 -5.3794943e-24 1.0096686e-07 -1.2675201e-23 -1.4353448e-08)
(-9.9659035e-08 -4.8068755e-08 1.3159455e-25 1.1295206e-07 -1.6827651e-25 -1.3293021e-08)
(-1.146769e-07 -6.2651596e-08 7.4920841e-24 1.2663791e-07 1.8304804e-23 -1.1961008e-08)
(-1.313252e-07 -8.244157e-08 -4.5859358e-24 1.4181514e-07 -8.7576898e-24 -1.0489938e-08)
(-1.4875412e-07 -1.0839135e-07 5.9215033e-24 1.5780561e-07 1.0947369e-23 -9.0514873e-09)
(-1.676922e-07 -1.4240652e-07 1.0686738e-23 1.7526893e-07 2.6148588e-23 -7.5767264e-09)
(-1.8812205e-07 -1.8749595e-07 -1.2284588e-23 1.9418469e-07 -3.2962333e-23 -6.0626363e-09)
(-2.1005767e-07 -2.4849036e-07 2.4258477e-23 2.1460547e-07 7.1562774e-23 -4.5477986e-09)
(-2.299443e-07 -3.2861727e-07 -7.8973173e-24 2.33135e-07 -3.1633698e-23 -3.1906915e-09)
(-2.527113e-07 -4.4760277e-07 6.2849652e-24 2.5463612e-07 1.5623363e-23 -1.9248188e-09)
(-2.6367972e-07 -6.0298464e-07 -6.6000355e-25 2.6476555e-07 9.497662e-24 -1.085828e-09)
(-2.7982801e-07 -8.7617758e-07 -1.451527e-23 2.8002439e-07 -9.3846502e-23 -1.9637948e-10)
(-2.1461595e-07 -1.0146089e-06 2.2935274e-23 2.1504699e-07 2.0612295e-22 -4.3104415e-10)
(-1.5933041e-07 -1.2521996e-06 -5.9940121e-24 1.5895389e-07 -7.1971346e-23 3.7651931e-10)
(-2.5363433e-08 -5.9036028e-07 -2.9703493e-26 2.6675781e-08 4.1127675e-25 -1.3123483e-09)
(-5.7310024e-09 -4.2885395e-07 -1.3377659e-27 8.8436537e-09 -4.5993605e-27 -3.1126513e-09)
(-2.3621463e-09 -4.0922829e-07 7.9427964e-29 7.1765885e-09 -7.1903918e-28 -4.8144422e-09)
(1.6348695e-10 -3.7923159e-07 -2.301065e-28 7.0420797e-09 2.6795282e-27 -7.2055667e-09)
(2.0187055e-09 -3.8024823e-07 1.307744e-28 7.3359315e-09 -6.6917312e-28 -9.354637e-09)
(3.7417284e-09 -3.784035e-07 5.915928e-29 8.0870517e-09 1.7133816e-29 -1.182878e-08)
(5.2370606e-09 -3.8808058e-07 -8.6189535e-29 8.8454766e-09 -1.6431689e-28 -1.4082537e-08)
(6.6433448e-09 -3.9835159e-07 -6.2594386e-29 9.7379235e-09 1.4414475e-27 -1.6381268e-08)
(7.8995297e-09 -4.1463982e-07 1.0293556e-28 1.0567319e-08 -1.4182023e-27 -1.8466849e-08)
(9.0530875e-09 -4.331715e-07 7.3418048e-29 1.1393232e-08 -8.076795e-28 -2.0446319e-08)
(1.0077725e-08 -4.5620852e-07 -8.4158669e-29 1.2132953e-08 1.0544737e-27 -2.2210679e-08)
(1.0992329e-08 -4.8250893e-07 1.8627847e-29 1.2810755e-08 -2.7567542e-28 -2.3803084e-08)
(1.1789509e-08 -5.1325867e-07 -5.8393766e-29 1.339539e-08 -6.8946758e-28 -2.5184899e-08)
(1.247977e-08 -5.4826059e-07 1.2189829e-28 1.3900684e-08 9.0305661e-28 -2.6380454e-08)
(1.3066141e-08 -5.883341e-07 5.5957395e-29 1.4321384e-08 -1.268481e-27 -2.7387525e-08)
(1.3558474e-08 -6.3375978e-07 -2.5401807e-28 1.4673731e-08 1.4387345e-27 -2.8232205e-08)
(1.3965845e-08 -6.8523802e-07 8.5020598e-29 1.4969974e-08 -3.8891577e-29 -2.8935819e-08)
(1.4299459e-08 -7.432265e-07 -4.8976166e-29 1.523696e-08 1.9031978e-28 -2.9536419e-08)
(1.4571833e-08 -8.0828865e-07 9.5805958e-29 1.5504635e-08 4.4312898e-28 -3.0076468e-08)
(1.4795223e-08 -8.807567e-07 5.6486393e-30 1.5817599e-08 -1.5793574e-27 -3.0612823e-08)
(1.4984175e-08 -9.6079168e-07 -1.8527477e-28 1.6227855e-08 2.215315e-27 -3.121203e-08)
(1.5153138e-08 -1.0481376e-06 1.7318793e-28 1.6804282e-08 -2.766723e-27 -3.195742e-08)
(1.5322804e-08 -1.1420323e-06 1.4995151e-28 1.7625754e-08 3.4986108e-28 -3.2948558e-08)
(1.5521036e-08 -1.2410096e-06 -9.2683653e-29 1.8789082e-08 1.3181354e-27 -3.4310118e-08)
(1.5797589e-08 -1.3428161e-06 -2.205899e-28 2.0399105e-08 -1.089959e-27 -3.6196695e-08)
(1.6231386e-08 -1.4444321e-06 3.41327e-28 2.25753e-08 3.8959344e-28 -3.8806687e-08)
(1.695314e-08 -1.5422473e-06 -3.9930736e-28 2.5441951e-08 -4.8281148e-29 -4.2395091e-08)
(1.8157141e-08 -1.6324587e-06 2.7327604e-28 2.9142337e-08 6.2617694e-28 -4.7299478e-08)
(2.0123756e-08 -1.7116472e-06 -2.0150313e-28 3.3839543e-08 -4.7565736e-28 -5.3963299e-08)
(2.3222798e-08 -1.7773211e-06 4.0617696e-29 3.9755017e-08 -2.5171517e-28 -6.2977815e-08)
(2.7933991e-08 -1.8283488e-06 5.3614071e-29 4.7189614e-08 2.1715273e-28 -7.5123606e-08)
(3.4838348e-08 -1.8651266e-06 -3.9066306e-29 5.6583677e-08 -1.1334959e-29 -9.1422025e-08)
(4.4663163e-08 -1.8891781e-06 -5.0341305e-29 6.8548353e-08 7.4190124e-29 -1.1321152e-07)
(5.8292878e-08 -1.9032028e-06 -1.3719416e-28 8.3894205e-08 6.8577825e-29 -1.4218708e-07)
(7.6765097e-08 -1.9105239e-06 1.6132404e-28 1.0366577e-07 -1.7849253e-28 -1.8043086e-07)
(1.0135285e-07 -1.9139036e-06 1.0139048e-28 1.2916995e-07 2.2591667e-28 -2.305228e-07)
(1.3352952e-07 -1.9162007e-06 -1.4016576e-28 1.6192857e-07 -6.0613056e-29 -2.954581e-07)
(1.7496972e-07 -1.9196243e-06 -7.3196998e-29 2.0368409e-07 2.5945608e-28 -3.7865381e-07)
(2.2750872e-07 -1.9254949e-06 4.5683376e-29 2.5630376e-07 -2.0559549e-28 -4.8381249e-07)
(2.9292938e-07 -1.9352857e-06 -4.8799834e-29 3.216184e-07 2.2322926e-28 -6.1454778e-07)
(3.7286673e-07 -1.9494155e-06 1.4194683e-28 4.0128913e-07 -1.4042624e-28 -7.7415585e-07)
(4.6848338e-07 -1.9681933e-06 6.4709959e-29 4.9647186e-07 -1.0320631e-28 -9.6495524e-07)
(5.8004566e-07 -1.9914489e-06 -8.2214379e-29 6.0742652e-07 6.7723916e-29 -1.1874722e-06)
(7.0658623e-07 -2.01891e-06 1.4326746e-28 7.3316197e-07 -1.6775207e-28 -1.4397482e-06)
(8.45453e-07 -2.0498313e-06 -3.4709341e-28 8.7099121e-07 3.6546204e-28 -1.7164442e-06)
(9.9202867e-07 -2.0833705e-06 9.4708558e-29 1.0162729e-06 -1.3103e-28 -2.0083016e-06)
(1.1398948e-06 -2.1182831e-06 1.5645868e-28 1.1625654e-06 -5.781141e-29 -2.3024602e-06)
(1.2811373e-06 -2.1533751e-06 -1.9750064e-28 1.3019691e-06 7.7000724e-29 -2.5831064e-06)
(1.4075739e-06 -2.187204e-06 -8.7792752e-30 1.4263467e-06 6.1470883e-30 -2.8339206e-06)
(1.5120398e-06 -2.2184585e-06 8.4321943e-29 1.5286075e-06 -3.8226401e-29 -3.0406473e-06)
(1.589413e-06 -2.2463098e-06 -6.1143794e-30 1.6037291e-06 -6.7541915e-30 -3.193142e-06)
(1.6376739e-06 -2.2709306e-06 4.7387801e-29 1.6498214e-06 -6.0802938e-29 -3.2874953e-06)
(1.6579516e-06 -2.2846036e-06 -1.064556e-29 1.6680948e-06 4.2673373e-29 -3.3260464e-06)
(1.6541682e-06 -2.2934973e-06 3.5531058e-31 1.6625087e-06 -3.9784947e-30 -3.3166769e-06)
(1.6292754e-06 -2.3072568e-06 -1.883439e-29 1.6359983e-06 2.5534883e-29 -3.2652737e-06)
(1.587368e-06 -2.3180637e-06 -1.2872036e-29 1.5926483e-06 2.0690355e-29 -3.1800163e-06)
(1.5324191e-06 -2.3185188e-06 -4.9422038e-29 1.5364243e-06 -2.2281538e-29 -3.0688434e-06)
(1.4685098e-06 -2.3223342e-06 3.5883171e-29 1.471421e-06 -1.4897462e-29 -2.9399308e-06)
(1.398688e-06 -2.3215448e-06 -2.0132877e-28 1.400646e-06 1.1663653e-28 -2.799334e-06)
(1.3256724e-06 -2.3212006e-06 -8.0877476e-30 1.3268027e-06 8.5822636e-29 -2.6524752e-06)
(1.2513932e-06 -2.3196047e-06 2.8886705e-28 1.2517976e-06 -2.86158e-28 -2.5031908e-06)
(1.1774187e-06 -2.318007e-06 -2.178104e-28 1.1771882e-06 1.7962934e-28 -2.3546069e-06)
(1.1048906e-06 -2.3164306e-06 4.1530756e-29 1.1040976e-06 -9.8126808e-29 -2.2089882e-06)
(1.0345673e-06 -2.3152213e-06 2.7154159e-28 1.0332674e-06 -7.5366136e-29 -2.0678347e-06)
(9.6697012e-07 -2.3146116e-06 2.0709848e-28 9.6521934e-07 -2.9530308e-28 -1.9321895e-06)
(9.0251815e-07 -2.3147269e-06 -4.1194596e-28 9.0036548e-07 4.3033962e-28 -1.8028836e-06)
(8.4141971e-07 -2.315788e-06 -2.9417008e-28 8.3890508e-07 2.7385111e-28 -1.6803248e-06)
(7.8377279e-07 -2.3178516e-06 -2.8374955e-28 7.8092775e-07 2.786473e-28 -1.5647005e-06)
(7.2956663e-07 -2.3210626e-06 6.1261804e-28 7.2641232e-07 -6.2740241e-28 -1.455979e-06)
(6.7869753e-07 -2.325492e-06 -3.9954813e-28 6.7525397e-07 4.2148904e-28 -1.3539515e-06)
(6.3109463e-07 -2.3311127e-06 8.1904998e-29 6.2738654e-07 -5.6728924e-29 -1.2584812e-06)
(5.8665494e-07 -2.3380037e-06 1.8329168e-27 5.8270186e-07 -2.3904058e-27 -1.1693568e-06)
(5.4524066e-07 -2.34614e-06 2.2349818e-28 5.4106193e-07 -3.4041842e-28 -1.0863026e-06)
(5.0671054e-07 -2.35551e-06 -2.7986053e-27 5.0231832e-07 4.4119112e-27 -1.0090289e-06)
(4.7088896e-07 -2.3661174e-06 2.611176e-28 4.6628762e-07 -7.5415447e-28 -9.3717658e-07)
(4.3758155e-07 -2.3779729e-06 1.1778275e-28 4.327712e-07 7.351412e-29 -8.7035276e-07)
(4.0661285e-07 -2.3909821e-06 1.0127975e-27 4.0160079e-07 -2.8443632e-27 -8.0821365e-07)
(3.778481e-07 -2.4051022e-06 6.9283956e-28 3.7264752e-07 -1.1200559e-27 -7.5049562e-07)
(3.5115978e-07 -2.4202519e-06 -5.2961569e-28 3.4578536e-07 1.2767302e-27 -6.9694514e-07)
(3.2642268e-07 -2.436327e-06 -1.8109616e-27 3.2088219e-07 4.6660107e-27 -6.4730486e-07)
(3.0349806e-07 -2.4532439e-06 6.8644668e-28 2.9779304e-07 -1.6375739e-27 -6.012911e-07)
(2.8224421e-07 -2.4709414e-06 -9.9182403e-28 2.7637007e-07 2.8162234e-27 -5.5861429e-07)