/*--------------------------------*- C++ -*----------------------------------*\
| =========                 |                                                 |
| \\      /  F ield         | OpenFOAM: The Open Source CFD Toolbox           |
|  \\    /   O peration     | Version:  2.4.0                                 |
|   \\  /    A nd           | Web:      www.OpenFOAM.org                      |
|    \\/     M anipulation  |                                                 |
\*---------------------------------------------------------------------------*/
FoamFile
{
    version     2.0;
    format      ascii;
    class       volVectorField;
    location    "15392";
    object      U;
}
// * * * * * * * * * * * * * * * * * * * * * * * * * * * * * * * * * * * * * //

dimensions      [0 1 -1 0 0 0 0];

internalField   nonuniform List<vector> 
32000
(
(0.014192825 6.9010992e-05 -3.8382632e-21)
(0.010398094 -4.6493921e-06 -2.1543656e-22)
(0.016189723 -0.00043796332 -9.9309339e-22)
(0.011783993 -0.00092529237 -2.116076e-20)
(0.0090350594 -0.0013687397 6.0885188e-20)
(0.0017146864 -0.00045563809 1.4249386e-19)
(-0.003177451 0.0010937192 -2.0519413e-20)
(-0.0052756406 0.0024782386 4.7820312e-21)
(-0.004294064 0.0024544723 1.0787279e-19)
(-0.0032909162 0.0021507526 -8.2369258e-20)
(-0.0024624144 0.0017713751 -9.8334452e-20)
(-0.0020526626 0.0015794355 -2.4038547e-19)
(-0.0017948832 0.0014486748 -2.5664116e-19)
(-0.0016336801 0.0013610859 -1.6193444e-19)
(-0.0014939608 0.001268209 1.4261376e-21)
(-0.0013606392 0.0011627765 -9.2578568e-20)
(-0.0012453226 0.0010589028 -1.3489363e-20)
(-0.001165883 0.00097724862 8.0769754e-20)
(-0.0011171414 0.00092232985 9.3291261e-20)
(-0.0010891302 0.00088679817 1.4144531e-19)
(-0.0010771722 0.00086606867 8.9656961e-20)
(-0.0010833031 0.00086118635 -8.4283012e-20)
(-0.0011013651 0.00086698007 -3.189632e-19)
(-0.0011309124 0.00088275348 9.2926569e-20)
(-0.0011678182 0.0009054356 1.242197e-19)
(-0.0012076307 0.00093143298 -3.2721067e-19)
(-0.0012407969 0.00095349957 1.8393153e-19)
(-0.0012575296 0.00096078402 2.0593052e-19)
(-0.0012622685 0.00095365327 -1.6962952e-19)
(-0.0012565144 0.00093315146 4.1068391e-19)
(-0.0012397705 0.00089928134 -5.1295567e-20)
(-0.0012108342 0.00085184032 2.8945197e-19)
(-0.0011686613 0.00079112142 3.9390221e-19)
(-0.0011125026 0.0007180425 -2.3634845e-19)
(-0.0010436393 0.00063512232 -4.6423856e-19)
(-0.00096643937 0.00054732551 2.1131228e-19)
(-0.00088806497 0.00046209756 -7.2977973e-20)
(-0.00080343061 0.00038010972 -1.7330598e-19)
(-0.00070967201 0.00030144801 2.6225825e-19)
(-0.00060601979 0.00022743676 -8.9841112e-20)
(-0.00049948371 0.00016220826 -7.5969605e-20)
(-0.00038434349 0.00010503646 -2.5569009e-19)
(-0.00028579773 6.3075142e-05 -7.6800888e-20)
(-0.0001853085 3.1014704e-05 1.8977234e-20)
(-0.00014783408 1.6562067e-05 -1.1890733e-19)
(-0.00010826737 6.004192e-06 -4.0620076e-21)
(-0.00025977558 1.9071445e-06 1.6267717e-21)
(-0.0004701928 4.7290036e-08 -1.0493503e-24)
(-0.000586351 4.2047777e-08 1.2538545e-23)
(-0.00073694762 1.0533416e-08 -1.2760617e-23)
(-0.00084531631 1.810616e-10 7.5086661e-24)
(-0.00095981252 -2.3646333e-08 -1.9097267e-24)
(-0.0010516958 -4.1731848e-08 -1.2198068e-23)
(-0.00113914 -6.6333935e-08 7.3143546e-24)
(-0.0012120824 -9.0358306e-08 -1.1047428e-25)
(-0.0012774895 -1.1830133e-07 2.6549436e-24)
(-0.0013321622 -1.4775782e-07 -2.667271e-24)
(-0.0013789777 -1.7998787e-07 9.3459064e-24)
(-0.0014171849 -2.1444211e-07 -2.090321e-25)
(-0.0014482228 -2.5112075e-07 -8.5994128e-24)
(-0.0014722986 -2.9023947e-07 2.4493666e-24)
(-0.0014904552 -3.3062574e-07 -1.4303101e-24)
(-0.001503403 -3.730776e-07 -2.823432e-24)
(-0.0015122647 -4.1529984e-07 -6.6273818e-26)
(-0.001518206 -4.5837413e-07 -2.6095928e-24)
(-0.0015227114 -4.9910012e-07 -2.4995618e-24)
(-0.0015274995 -5.3861662e-07 3.6537418e-24)
(-0.0015346278 -5.7311765e-07 -1.845547e-24)
(-0.0015465109 -6.033807e-07 5.8713923e-24)
(-0.0015659682 -6.2516874e-07 -1.592251e-25)
(-0.0015962942 -6.3903086e-07 6.9564726e-25)
(-0.0016412366 -6.4003101e-07 -1.0141602e-24)
(-0.0017050805 -6.2845906e-07 5.5122208e-25)
(-0.0017926195 -5.9836041e-07 -2.3956397e-25)
(-0.0019091742 -5.5013458e-07 -1.4251078e-24)
(-0.0020605354 -4.7742523e-07 -9.8023225e-25)
(-0.0022529828 -3.8095101e-07 8.8962429e-25)
(-0.0024930225 -2.5380367e-07 -1.7246516e-25)
(-0.0027877355 -9.5743524e-08 3.4705426e-25)
(-0.0031440744 9.6730761e-08 -4.9543392e-26)
(-0.0035684148 3.2375405e-07 -3.0844627e-26)
(-0.0040674084 5.895785e-07 -1.3489158e-24)
(-0.0046463215 8.9044199e-07 9.0685929e-25)
(-0.0053095047 1.227568e-06 3.5260365e-25)
(-0.0060596886 1.5939365e-06 3.5544318e-25)
(-0.0068961598 1.980373e-06 -1.8591619e-24)
(-0.0078157369 2.378926e-06 1.1129186e-24)
(-0.0088107765 2.765164e-06 1.3414951e-24)
(-0.0098678007 3.1232096e-06 -6.9226338e-25)
(-0.010967743 3.4188241e-06 2.681048e-25)
(-0.012084589 3.6213683e-06 2.4058417e-25)
(-0.01318575 3.7018194e-06 -1.4267922e-24)
(-0.014234446 3.6250384e-06 1.0728298e-24)
(-0.01519095 3.3921114e-06 -2.0537442e-24)
(-0.016019149 2.9947877e-06 3.6971881e-25)
(-0.016691135 2.4741238e-06 2.530489e-25)
(-0.017189634 1.8614195e-06 1.1079167e-25)
(-0.017512433 1.2268076e-06 1.5188455e-25)
(-0.017671343 6.1306366e-07 4.3808179e-26)
(-0.017690302 4.9728622e-08 2.5210565e-27)
(-0.017585997 -4.6450302e-07 4.4112137e-26)
(-0.017379203 -9.1161227e-07 1.6265863e-25)
(-0.017090085 -1.2920642e-06 -6.819873e-25)
(-0.016738787 -1.6093057e-06 -2.9505144e-25)
(-0.016340706 -1.8674365e-06 -7.173029e-25)
(-0.015910042 -2.0777187e-06 -3.4791846e-25)
(-0.015456978 -2.2443135e-06 -2.5321856e-25)
(-0.01499045 -2.3758349e-06 2.2048528e-24)
(-0.014517457 -2.4754815e-06 3.3352185e-24)
(-0.014042899 -2.5534337e-06 1.3048381e-26)
(-0.013570657 -2.6067234e-06 -9.1511193e-24)
(-0.01310447 -2.6431182e-06 -2.9364175e-25)
(-0.012646718 -2.6625487e-06 -1.1296426e-24)
(-0.012199304 -2.6707417e-06 9.2148896e-24)
(-0.01176332 -2.6692126e-06 -4.0320409e-25)
(-0.011339143 -2.6606802e-06 -8.1362393e-25)
(-0.01092764 -2.6425434e-06 -1.1743351e-23)
(-0.010529326 -2.6198727e-06 1.0578957e-23)
(-0.010144436 -2.5903329e-06 1.1053416e-23)
(-0.0097731644 -2.5583264e-06 -1.2713451e-23)
(-0.0094152169 -2.5233724e-06 -5.2367611e-25)
(-0.0090699927 -2.4882657e-06 1.2188136e-23)
(-0.0087370448 -2.4498705e-06 -2.3995698e-25)
(-0.0084162937 -2.4099399e-06 -4.5179282e-25)
(-0.0081076743 -2.3671912e-06 -1.6426849e-23)
(-0.0078110506 -2.3242957e-06 4.7031454e-25)
(-0.0075259746 -2.2809564e-06 -1.8461813e-24)
(-0.0072518399 -2.2390783e-06 -9.0039457e-25)
(-0.0069879707 -2.1970545e-06 -7.2383523e-25)
(-0.0067339025 -2.1548718e-06 -7.3507813e-25)
(-0.0064895797 -2.1110485e-06 2.9732696e-23)
(-0.0062549885 -2.0675164e-06 -3.2716676e-23)
(-0.006029808 -2.024091e-06 3.2070863e-23)
(-0.0058136149 -1.9817017e-06 -1.7764471e-23)
(-0.0056059945 -1.940509e-06 1.6804725e-23)
(-0.0054062085 -1.9012998e-06 -1.2485066e-16)
(-0.0052136537 -1.8623608e-06 -1.264498e-16)
(-0.0050280034 -1.8234658e-06 -1.8468731e-23)
(-0.0048491975 -1.7839186e-06 1.2897676e-16)
(-0.0046768043 -1.7448057e-06 1.3042938e-16)
(-0.0045107221 -1.7047089e-06 7.0534602e-23)
(-0.0043504633 -1.6643071e-06 -1.8041794e-23)
(-0.0041964244 -1.6205255e-06 3.4318801e-23)
(-0.0040484001 -1.5739089e-06 -1.8216129e-23)
(-0.0039083916 -1.5184707e-06 -3.9070297e-23)
(-0.0037770275 -1.4555725e-06 7.3433771e-23)
(-0.0036600606 -1.3755658e-06 -5.7285288e-23)
(-0.0035588977 -1.285536e-06 7.4736913e-23)
(-0.0034861022 -1.1728754e-06 -1.3433812e-22)
(-0.0034396024 -1.0613532e-06 7.5281819e-23)
(-0.0034442769 -9.5125461e-07 1.7654778e-23)
(-0.0034690703 -9.3495725e-07 -5.7550456e-25)
(-0.0035471501 -1.2649535e-06 -5.6731509e-25)
(-0.0033959554 -2.356529e-05 -8.3277668e-21)
(-0.0031669049 -0.00017309173 -5.8216707e-19)
(-0.0031688575 -0.00034703557 -8.9173881e-20)
(-0.0031997792 -0.00052374163 1.7963379e-19)
(-0.0032571537 -0.0007078359 -1.4781632e-19)
(-0.0033043939 -0.00089187918 8.8100231e-19)
(-0.003329833 -0.0010694828 6.5433457e-19)
(-0.0033144484 -0.0012321687 -1.3197934e-18)
(-0.0032540316 -0.0013700081 2.8607154e-19)
(-0.0031372169 -0.0014713568 5.5001056e-19)
(-0.0029613756 -0.001526687 5.2500077e-19)
(-0.0027282512 -0.001529254 -1.8030833e-18)
(-0.0024436454 -0.0014713946 -8.1818057e-19)
(-0.002101705 -0.0013403046 -1.8476998e-19)
(-0.0017022572 -0.0011357591 -2.0825048e-18)
(-0.0012467439 -0.00086051436 -2.006543e-18)
(-0.00072898184 -0.00051263925 1.1528617e-18)
(-0.00014959087 -9.6355041e-05 -2.0889257e-18)
(0.00044868366 0.00035157812 -3.552141e-20)
(0.0010784072 0.00083348783 2.7928838e-18)
(0.0017274959 0.0013333585 -1.4113336e-18)
(0.0023813413 0.0018380726 4.7583225e-19)
(0.003012407 0.0023312011 1.2977829e-18)
(0.0036335473 0.0028297141 -3.0750958e-18)
(0.0042613984 0.00334372 -2.6620243e-19)
(0.004879254 0.0038641661 -2.1512631e-18)
(0.0055097607 0.0044113129 -2.5781029e-19)
(0.0061521521 0.0049874724 -5.6476779e-20)
(0.0068439861 0.0056246513 9.9554196e-19)
(0.0075916515 0.0063337637 1.425983e-18)
(0.0085335712 0.0072201008 3.290451e-19)
(0.009770898 0.0083043786 -1.6233191e-18)
(0.011252832 0.0094952125 -4.0378057e-19)
(0.013047987 0.010798781 7.6200668e-19)
(0.015216394 0.012192471 -6.7796032e-19)
(0.01794594 0.013707362 1.3800442e-19)
(0.021299785 0.015217805 1.2302455e-19)
(0.025608159 0.016655099 9.4721246e-20)
(0.030436624 0.017350818 1.6419712e-19)
(0.035721419 0.01683099 -2.1394813e-19)
(0.038196029 0.013578783 3.2463207e-19)
(0.036080398 0.0088211435 -8.9626529e-21)
(0.02954711 0.0044817392 1.6838933e-19)
(0.023443098 0.0018516802 7.0530868e-20)
(0.01544783 0.00044527457 -7.5956017e-21)
(0.013608468 -3.9671678e-06 3.4738161e-22)
(0.0066527473 -3.0582086e-05 1.1265045e-21)
(0.043349006 0.00017922452 9.1831342e-21)
(0.033182047 -3.6030738e-05 4.42093e-22)
(0.048836717 -0.0013336254 2.3804743e-20)
(0.036699215 -0.0027990471 5.8183855e-20)
(0.028316963 -0.004156966 -1.7315883e-20)
(0.0069064298 -0.0015479353 -2.6322616e-19)
(-0.0083262171 0.0030854875 -1.3538508e-20)
(-0.015341623 0.0073490528 -1.716592e-20)
(-0.012776341 0.0073632336 -6.7870308e-20)
(-0.009875767 0.006488857 4.5325447e-20)
(-0.0074346654 0.0053677376 1.6414521e-19)
(-0.0062032395 0.0047928651 3.0610594e-19)
(-0.0054282296 0.0044000163 5.3044488e-19)
(-0.0049410735 0.0041353445 3.9762369e-20)
(-0.0045216509 0.003855163 -1.1223601e-19)
(-0.004123366 0.0035374491 2.7633709e-19)
(-0.0037794041 0.0032243456 4.4147588e-19)
(-0.0035420603 0.0029776953 4.423817e-20)
(-0.0033963789 0.0028115828 2.4443373e-19)
(-0.0033131472 0.0027042374 1.5295541e-19)
(-0.0032783191 0.0026418457 4.3132622e-19)
(-0.0032973205 0.0026272172 -2.5354693e-19)
(-0.0033521032 0.0026448819 4.1599577e-19)
(-0.003440841 0.0026925051 1.0747223e-19)
(-0.0035511537 0.0027607654 1.7800347e-19)
(-0.0036695288 0.0028386781 1.1863622e-19)
(-0.0037677934 0.0029045409 -7.1009106e-19)
(-0.0038174664 0.0029260019 -7.7582796e-19)
(-0.0038312125 0.0029038434 3.3108496e-19)
(-0.0038135862 0.0028411671 -5.8241634e-19)
(-0.0037633976 0.00273809 -1.0089301e-19)
(-0.0036771921 0.0025940538 -1.039654e-19)
(-0.0035519173 0.0024099654 -2.213508e-19)
(-0.0033854209 0.0021886346 2.573552e-19)
(-0.0031814719 0.001937647 1.1122441e-19)
(-0.0029528122 0.0016718765 -5.5483084e-19)
(-0.0027202205 0.0014134846 3.0939392e-19)
(-0.0024690992 0.0011647118 1.6856233e-19)
(-0.002190926 0.00092588051 2.1921217e-20)
(-0.0018833811 0.00070105218 -6.3968918e-20)
(-0.0015668375 0.00050245755 1.3415883e-19)
(-0.0012251849 0.00032835557 3.3200469e-19)
(-0.00093200007 0.00019977603 2.9449478e-20)
(-0.00063493299 0.00010173926 -3.2446085e-20)
(-0.00052450092 5.6310741e-05 6.4275635e-20)
(-0.00041693353 2.4621676e-05 4.2775053e-21)
(-0.00087522585 1.2726591e-05 3.8365755e-22)
(-0.0015084169 5.9151479e-06 -6.4068222e-24)
(-0.0018668753 5.1658276e-06 2.0969073e-23)
(-0.002321616 4.7789167e-06 -2.4171357e-23)
(-0.0026531048 4.2465401e-06 6.2757055e-24)
(-0.0029999883 3.8429593e-06 1.7143423e-23)
(-0.0032804642 3.3887164e-06 -1.3098233e-23)
(-0.0035465453 2.9969474e-06 8.9757313e-25)
(-0.0037698329 2.601485e-06 8.7549217e-25)
(-0.0039703318 2.2439039e-06 2.9022406e-24)
(-0.004139183 1.8994192e-06 -1.2188414e-24)
(-0.0042847485 1.5837476e-06 2.7994426e-24)
(-0.00440512 1.2874868e-06 -1.6722599e-23)
(-0.00450459 1.0187885e-06 1.8189188e-23)
(-0.0045839861 7.7458341e-07 2.5797244e-24)
(-0.0046465146 5.6363019e-07 -1.5958065e-23)
(-0.0046944743 3.8559131e-07 5.260513e-24)
(-0.0047313611 2.5295616e-07 -3.4614219e-24)
(-0.0047608384 1.6753292e-07 8.540106e-24)
(-0.0047875196 1.4610167e-07 -2.8578441e-24)
(-0.004816739 1.9268972e-07 -4.9048321e-24)
(-0.0048548516 3.2761614e-07 8.1923295e-25)
(-0.0049092952 5.5830953e-07 7.2880469e-24)
(-0.0049887262 9.085365e-07 3.4172177e-25)
(-0.0051032247 1.3879596e-06 -9.9115435e-24)
(-0.0052642286 2.0235062e-06 1.0261338e-23)
(-0.0054847702 2.8264052e-06 -9.4992301e-24)
(-0.0057793774 3.8260368e-06 6.0637644e-24)
(-0.0061641127 5.0316616e-06 -3.4253062e-24)
(-0.0066563742 6.4714908e-06 6.5748822e-25)
(-0.0072749131 8.1481509e-06 1.0347499e-24)
(-0.0080390425 1.0087754e-05 -5.4752303e-26)
(-0.008969541 1.2289664e-05 1.6587219e-25)
(-0.010086579 1.4746328e-05 5.4791264e-25)
(-0.01140842 1.7445412e-05 -1.1556979e-26)
(-0.01295363 2.0374412e-05 -1.0415179e-24)
(-0.01473644 2.3481072e-05 1.7916349e-24)
(-0.016767793 2.672427e-05 7.6474294e-26)
(-0.01905332 3.0003178e-05 7.4944759e-25)
(-0.021588284 3.3206087e-05 -1.6425637e-24)
(-0.024359982 3.6208964e-05 -2.2154346e-24)
(-0.027342387 3.8799648e-05 8.0427606e-25)
(-0.030492427 4.0787476e-05 2.9461622e-24)
(-0.033750722 4.1914352e-05 -7.3846482e-24)
(-0.037038469 4.1933087e-05 5.9489569e-24)
(-0.04025892 4.0646442e-05 -2.813029e-24)
(-0.043304714 3.7895641e-05 1.0676724e-24)
(-0.04606228 3.3740136e-05 -7.8872208e-25)
(-0.048430201 2.8349331e-05 5.5247368e-27)
(-0.050332032 2.2124143e-05 -9.0391608e-27)
(-0.051723023 1.5512612e-05 -1.0590326e-25)
(-0.052601349 9.1043547e-06 -1.0414991e-25)
(-0.053004515 3.3566515e-06 6.8728178e-26)
(-0.053004226 -1.6135596e-06 5.8468221e-27)
(-0.052648655 -5.8879186e-06 -1.5655741e-25)
(-0.051998161 -9.3816132e-06 -2.9279838e-25)
(-0.051110695 -1.2121231e-05 7.8596745e-25)
(-0.050045192 -1.4193015e-05 1.1777446e-27)
(-0.04884583 -1.5698928e-05 -8.2808536e-27)
(-0.047553561 -1.675262e-05 -3.6968426e-24)
(-0.046197821 -1.7439151e-05 5.4681706e-24)
(-0.04480433 -1.782904e-05 -2.432357e-24)
(-0.043393145 -1.7987822e-05 7.153993e-24)
(-0.041978507 -1.7988448e-05 -1.6007369e-23)
(-0.040571652 -1.7835655e-05 2.2111764e-23)
(-0.039183245 -1.7573186e-05 -1.8159725e-23)
(-0.037820209 -1.7223985e-05 -4.1685787e-24)
(-0.03648795 -1.6820521e-05 2.4553513e-24)
(-0.035189646 -1.6385892e-05 1.9957829e-23)
(-0.033926468 -1.5930498e-05 -1.1583148e-23)
(-0.032700853 -1.5444125e-05 8.8342907e-24)
(-0.0315143 -1.4948027e-05 1.2241594e-23)
(-0.03036748 -1.4437464e-05 -1.3618823e-24)
(-0.029260882 -1.3932595e-05 1.3345978e-23)
(-0.028193667 -1.3440848e-05 -3.5897541e-23)
(-0.027164122 -1.297199e-05 3.3336225e-23)
(-0.026170958 -1.2509477e-05 -6.827707e-23)
(-0.025213949 -1.2051791e-05 1.3212316e-23)
(-0.024292879 -1.1594434e-05 3.753603e-24)
(-0.023407302 -1.1150783e-05 3.9567229e-24)
(-0.022555922 -1.0724791e-05 1.4697429e-23)
(-0.021736972 -1.0324468e-05 -6.22542e-24)
(-0.020948497 -9.9441327e-06 1.5428306e-23)
(-0.020189185 -9.5746603e-06 4.8297448e-24)
(-0.019458855 -9.2044306e-06 -6.3190864e-24)
(-0.018757424 -8.8423019e-06 1.6391687e-23)
(-0.018083963 -8.4929207e-06 5.2243149e-24)
(-0.017437224 -8.1597644e-06 5.3400785e-24)
(-0.016815975 -7.8475015e-06 -8.4693212e-23)
(-0.01621809 -7.5616624e-06 1.1172093e-22)
(-0.01564183 -7.2920502e-06 -1.0261143e-22)
(-0.015086259 -7.0311928e-06 5.549891e-23)
(-0.014551187 -6.777313e-06 5.3911118e-24)
(-0.0140354 -6.5356699e-06 1.8052179e-23)
(-0.013538598 -6.3017465e-06 5.6896995e-24)
(-0.013059462 -6.0739474e-06 -4.6906931e-23)
(-0.01259915 -5.8356736e-06 -5.6189737e-23)
(-0.012157272 -5.5727604e-06 6.7098573e-23)
(-0.011739638 -5.2459403e-06 1.8667411e-23)
(-0.011348475 -4.8191858e-06 -7.4434725e-24)
(-0.011000342 -4.2257542e-06 -4.4398257e-23)
(-0.010700067 -3.4185897e-06 5.4715486e-24)
(-0.010483318 -2.3369348e-06 5.5440341e-24)
(-0.010345324 -9.5414631e-07 -3.6516479e-23)
(-0.010355014 5.1818385e-07 5.429354e-24)
(-0.01042439 1.6549545e-06 -8.1841526e-24)
(-0.010635554 -1.0537631e-06 1.5543194e-22)
(-0.010201119 -7.2957918e-05 4.0138774e-22)
(-0.0095505425 -0.00052478022 -2.165077e-20)
(-0.0095515587 -0.0010481374 -1.1529832e-18)
(-0.0096382536 -0.0015819973 5.0820227e-19)
(-0.0097970235 -0.0021371494 -7.7499116e-19)
(-0.0099217815 -0.0026912073 -1.3503435e-18)
(-0.009977453 -0.0032243737 -2.4740403e-18)
(-0.0099089222 -0.0037111476 2.0947389e-18)
(-0.0097035634 -0.004121356 2.2260763e-19)
(-0.0093292869 -0.0044203605 -2.5938308e-18)
(-0.0087792693 -0.0045796739 -4.8068301e-19)
(-0.0080590947 -0.0045790464 -1.4983489e-18)
(-0.0071855417 -0.0043953567 3.2492055e-18)
(-0.0061429257 -0.0039910893 -7.8051604e-19)
(-0.0049312131 -0.0033659916 2.0121798e-18)
(-0.003553579 -0.002528128 1.8779423e-18)
(-0.0019912676 -0.0014716694 -2.4481369e-18)
(-0.00025123304 -0.00021138157 3.3792998e-18)
(0.0015398988 0.0011420204 -1.0964986e-18)
(0.0034222848 0.0025963178 -3.8411907e-18)
(0.0053606539 0.0041038352 5.8559599e-20)
(0.0073118527 0.0056256427 -1.2335368e-18)
(0.0091973031 0.0071141128 -5.3954871e-19)
(0.011053823 0.0086194845 -6.7115504e-19)
(0.01292776 0.010170747 5.2441922e-19)
(0.014773308 0.011742594 -1.6231701e-18)
(0.016654095 0.013394235 2.5357143e-19)
(0.018570528 0.015133901 1.0017621e-18)
(0.02062917 0.01705553 -2.6136717e-18)
(0.022855593 0.01919466 -9.6061587e-19)
(0.025645895 0.021859236 -1.1358496e-18)
(0.029289409 0.025104914 2.6135082e-19)
(0.033656258 0.028666253 1.402035e-18)
(0.03894246 0.032557097 -7.6526657e-19)
(0.045329887 0.036709631 -4.9357891e-19)
(0.053348504 0.041203551 1.0793097e-18)
(0.063197916 0.0456658 -7.9127332e-19)
(0.075773706 0.049860644 -1.8421246e-19)
(0.089897687 0.051840609 -4.5225311e-20)
(0.1052288 0.0501758 3.8095457e-19)
(0.11280313 0.040568588 1.2784388e-18)
(0.10752881 0.026580881 1.1811102e-18)
(0.089599891 0.013738299 1.6666206e-19)
(0.072011532 0.0058042353 -2.8387727e-19)
(0.049076973 0.0014897077 -1.2486254e-20)
(0.042764818 6.332269e-05 -3.1374899e-21)
(0.023012479 -9.9910907e-05 1.1867134e-20)
(0.074202542 0.00025359435 1.4214169e-21)
(0.058826561 -0.00010010165 2.4081364e-22)
(0.082712998 -0.0022648772 2.2767836e-21)
(0.063803472 -0.0047578741 -9.8259709e-20)
(0.049497277 -0.0070916803 -8.5664856e-20)
(0.014211652 -0.003009607 2.4997977e-19)
(-0.012274511 0.0047266459 5.6219433e-20)
(-0.025182112 0.01210572 -7.3623483e-21)
(-0.02141198 0.012309155 -3.6220732e-20)
(-0.016677376 0.010922073 -2.9018348e-20)
(-0.012618634 0.0090841194 3.0599012e-20)
(-0.010537131 0.0081262174 -1.9343578e-19)
(-0.0092262606 0.0074687776 -4.0163237e-19)
(-0.0083991888 0.0070223144 3.2417837e-20)
(-0.0076905796 0.0065502829 3.8564654e-19)
(-0.0070197068 0.0060159006 2.4143346e-20)
(-0.006440519 0.0054894685 -2.3145495e-19)
(-0.0060400137 0.0050740481 -4.8917594e-19)
(-0.0057939675 0.0047940275 -1.8975658e-19)
(-0.0056539087 0.0046134025 -1.3399078e-20)
(-0.0055959873 0.0045090241 -3.78665e-19)
(-0.0056285073 0.0044849201 2.8974175e-19)
(-0.0057215064 0.0045153062 4.5929153e-19)
(-0.0058712605 0.0045957988 -2.3632276e-19)
(-0.0060568817 0.0047105645 -8.5492675e-20)
(-0.0062553814 0.004840782 -7.4695944e-20)
(-0.0064198437 0.0049501206 5.6342758e-19)
(-0.006503176 0.0049849081 3.2756852e-19)
(-0.0065258243 0.0049459344 -3.0836033e-19)
(-0.0064955536 0.0048383642 -7.1254538e-20)
(-0.0064107608 0.0046626117 -2.9155561e-19)
(-0.0062658519 0.0044178548 6.1583834e-20)
(-0.0060558293 0.0041056872 -3.8851663e-19)
(-0.0057772419 0.0037309419 -2.708741e-19)
(-0.0054364172 0.0033064007 2.6555309e-19)
(-0.0050544556 0.0028569463 -4.5469611e-20)
(-0.0046655603 0.0024192834 1.9051104e-19)
(-0.0042460662 0.0019975346 3.0348381e-19)
(-0.0037817059 0.0015923287 -1.7167218e-19)
(-0.0032685546 0.0012106152 5.8254968e-19)
(-0.0027400086 0.0008725145 -2.8601446e-19)
(-0.0021703626 0.00057589762 -2.2882441e-19)
(-0.0016806213 0.00035514348 -6.1749886e-20)
(-0.0011871832 0.00018687385 -8.5581026e-20)
(-0.0010045816 0.0001062613 4.7040997e-20)
(-0.00083999591 5.2047372e-05 -4.7632793e-20)
(-0.0016176447 3.2138027e-05 2.6677389e-21)
(-0.0026871711 1.8704921e-05 -2.5622068e-23)
(-0.0033057187 1.6059577e-05 7.114459e-24)
(-0.0040760885 1.5032083e-05 1.2120668e-23)
(-0.0046438974 1.3259018e-05 7.912577e-25)
(-0.005233244 1.2076241e-05 -2.8386962e-24)
(-0.0057128425 1.0630421e-05 -1.4254457e-23)
(-0.0061666178 9.4505168e-06 2.6442855e-23)
(-0.0065493683 8.2239212e-06 -1.8935732e-23)
(-0.0068934787 7.1431683e-06 -8.1163408e-24)
(-0.0071851136 6.0938497e-06 1.115365e-23)
(-0.0074379643 5.1455759e-06 6.1637884e-24)
(-0.0076493269 4.2576836e-06 -7.9185595e-24)
(-0.0078263975 3.4613745e-06 7.7800813e-25)
(-0.0079708755 2.7459932e-06 -1.2023837e-23)
(-0.0080882789 2.1369391e-06 1.4736804e-23)
(-0.0081827288 1.6376435e-06 -3.6363924e-24)
(-0.008260305 1.2804696e-06 1.8960337e-24)
(-0.0083274258 1.0787138e-06 6.1990697e-25)
(-0.0083921 1.0751514e-06 -1.5188626e-23)
(-0.008463578 1.2920831e-06 2.0589148e-23)
(-0.0085528367 1.7819739e-06 -2.1034e-23)
(-0.0086726914 2.5775929e-06 8.0771926e-24)
(-0.0088380171 3.7417917e-06 7.7326377e-24)
(-0.0090660829 5.3151583e-06 -4.9575753e-24)
(-0.0093764419 7.3683191e-06 5.3463992e-25)
(-0.0097913045 9.9465736e-06 8.0104416e-25)
(-0.010335353 1.3125329e-05 2.8249924e-24)
(-0.011035782 1.6943739e-05 -3.973833e-24)
(-0.011921923 2.1470912e-05 -2.503376e-24)
(-0.013025211 2.6725961e-05 2.2209354e-24)
(-0.014377848 3.2766474e-05 -2.7389788e-25)
(-0.016014111 3.9595355e-05 8.6271048e-25)
(-0.01796692 4.7173516e-05 3.4342934e-25)
(-0.02026571 5.545868e-05 -1.4555796e-24)
(-0.022939645 6.4390364e-05 1.1930062e-24)
(-0.026010308 7.3806418e-05 -2.7561464e-25)
(-0.029492952 8.3553461e-05 3.7372316e-24)
(-0.033393222 9.3317806e-05 -2.8656702e-24)
(-0.037699257 0.00010274981 2.3482845e-24)
(-0.042384974 0.00011144732 -2.4518219e-25)
(-0.047402002 0.00011878981 -1.0462773e-24)
(-0.052673972 0.00012417808 -1.6056079e-24)
(-0.058097808 0.00012687877 2.9633674e-24)
(-0.063539882 0.00012617817 3.1664597e-24)
(-0.068838995 0.00012152774 -1.5149219e-24)
(-0.073818977 0.00011255502 -2.3825327e-24)
(-0.078297003 9.9452115e-05 1.6341127e-24)
(-0.08211251 8.2843811e-05 5.1445898e-25)
(-0.085147447 6.3902707e-05 -1.0646046e-24)
(-0.087336661 4.4018852e-05 3.0325082e-25)
(-0.088683948 2.486157e-05 -1.9985347e-25)
(-0.089255254 7.7994398e-06 -1.2369984e-25)
(-0.089170415 -6.91267e-06 3.0108606e-26)
(-0.088507975 -1.952996e-05 1.8669458e-25)
(-0.087367511 -2.9827741e-05 2.4568988e-25)
(-0.085842811 -3.7866987e-05 4.8083342e-25)
(-0.084030967 -4.3910951e-05 -9.2277736e-25)
(-0.082003332 -4.8287437e-05 2.4149522e-24)
(-0.079826472 -5.1315056e-05 -1.2025607e-24)
(-0.07754827 -5.326267e-05 -3.6799899e-24)
(-0.075210423 -5.4331043e-05 5.5628408e-24)
(-0.072845335 -5.4726082e-05 4.0711927e-24)
(-0.070476276 -5.4644026e-05 -8.1405218e-24)
(-0.068121565 -5.4121342e-05 -9.4762371e-24)
(-0.065798359 -5.3270549e-05 4.0333123e-24)
(-0.063517977 -5.2173644e-05 4.7068236e-24)
(-0.061289079 -5.0916226e-05 1.6956228e-23)
(-0.059116873 -4.9571788e-05 -1.1027932e-23)
(-0.057003384 -4.8163224e-05 6.0400869e-24)
(-0.054952466 -4.6672373e-05 -1.2446376e-23)
(-0.052966591 -4.5149049e-05 -3.2987021e-23)
(-0.051046827 -4.3592773e-05 5.3681969e-24)
(-0.049193865 -4.2052143e-05 6.2524928e-23)
(-0.047406351 -4.0555292e-05 -1.3729227e-23)
(-0.045681535 -3.9122816e-05 1.407277e-23)
(-0.044017321 -3.7715781e-05 -4.3849325e-23)
(-0.042413347 -3.6321383e-05 -1.614617e-23)
(-0.040869221 -3.4933865e-05 3.329858e-25)
(-0.039384141 -3.3586061e-05 6.2856173e-23)
(-0.037955986 -3.2294091e-05 -2.329968e-23)
(-0.036581862 -3.1076636e-05 3.3680343e-23)
(-0.035258585 -2.9921596e-05 -4.2392728e-23)
(-0.033984066 -2.8797472e-05 -4.3854805e-23)
(-0.032757976 -2.7674543e-05 6.1016756e-23)
(-0.031580116 -2.6575044e-05 6.2863598e-23)
(-0.030448975 -2.5515929e-05 -1.8132375e-22)
(-0.029362482 -2.4505262e-05 1.7375734e-22)
(-0.028318579 -2.3558668e-05 -5.415619e-23)
(-0.027313816 -2.2689167e-05 -4.7387482e-23)
(-0.026345374 -2.1869592e-05 3.7680965e-23)
(-0.02541174 -2.1074784e-05 -1.9639813e-23)
(-0.024512579 -2.0303045e-05 -7.8500107e-23)
(-0.023645967 -1.9565603e-05 3.8314587e-23)
(-0.022811413 -1.8853169e-05 9.8628263e-23)
(-0.022006902 -1.8153527e-05 4.0281003e-23)
(-0.021234341 -1.7425817e-05 -5.0239815e-23)
(-0.020493404 -1.661349e-05 -1.5168944e-22)
(-0.019793597 -1.5616761e-05 3.9973303e-23)
(-0.019139157 -1.4300107e-05 -5.2618131e-23)
(-0.018556959 -1.250307e-05 1.9669802e-22)
(-0.018055991 -1.0025166e-05 4.2054206e-23)
(-0.017693381 -6.784212e-06 -5.2433469e-23)
(-0.01746312 -2.5629151e-06 -6.2164005e-23)
(-0.01747299 1.7378881e-06 -5.3743084e-23)
(-0.017582177 5.1716769e-06 4.2276855e-23)
(-0.017904128 -3.2772093e-06 -5.452294e-23)
(-0.017198778 -0.0001317876 2.0468809e-20)
(-0.01615509 -0.00089242985 1.5409271e-19)
(-0.016150307 -0.0017711007 1.3415283e-18)
(-0.016288105 -0.0026710464 -7.7068086e-19)
(-0.016537129 -0.0036049195 3.3842525e-19)
(-0.016724244 -0.0045349413 2.4035188e-18)
(-0.016790372 -0.0054268012 3.7958824e-19)
(-0.016645508 -0.0062377127 -3.0753162e-18)
(-0.016268449 -0.0069165745 -3.7027607e-19)
(-0.015607832 -0.0074060567 1.6927398e-18)
(-0.014653407 -0.0076587579 7.0719844e-19)
(-0.013414795 -0.007640859 9.6358783e-19)
(-0.011918928 -0.0073135417 3.1691237e-18)
(-0.010141177 -0.0066157183 2.5770363e-18)
(-0.0080818046 -0.0055475735 -2.1935391e-19)
(-0.0057444293 -0.0041221428 -3.1555542e-18)
(-0.0030971294 -0.0023295477 -9.8369503e-19)
(-0.00015872659 -0.00019865159 2.584861e-18)
(0.0028592822 0.0020844051 2.9741946e-19)
(0.0060283968 0.0045343842 -6.581931e-19)
(0.0092896422 0.0070722335 1.0276485e-18)
(0.0125708 0.0096335423 -2.6917555e-19)
(0.01574439 0.012141726 -3.6950178e-19)
(0.018870701 0.014679235 4.0719207e-18)
(0.022023434 0.017292085 3.7157291e-19)
(0.025130782 0.019941569 1.3524661e-19)
(0.028295046 0.02272334 3.6857388e-18)
(0.031520427 0.025653665 -1.4822575e-18)
(0.034979744 0.028885101 1.8404268e-19)
(0.038724571 0.03248212 -5.8651835e-19)
(0.043400961 0.036943335 1.5360524e-18)
(0.049477864 0.042350268 2.7792974e-18)
(0.056760276 0.048276859 -1.4097752e-18)
(0.065565183 0.054735682 -1.7736657e-18)
(0.07619747 0.061613488 -2.664199e-19)
(0.089504164 0.069016053 -1.8215246e-18)
(0.1058226 0.076329981 6.8324595e-19)
(0.1265288 0.083103462 3.2109269e-19)
(0.14977291 0.086206911 -2.3403868e-19)
(0.17478935 0.083229174 4.0195806e-19)
(0.18763161 0.067488636 -8.8792083e-19)
(0.1801295 0.04466646 -2.7653745e-19)
(0.15227835 0.023550293 -1.0639301e-18)
(0.12373841 0.010190995 2.1627083e-19)
(0.086668176 0.0027960002 -6.6334929e-20)
(0.074920002 0.00024380374 -3.7754738e-22)
(0.043280897 -0.00017591992 -2.2261646e-20)
(0.10693131 0.00029691806 -2.3994351e-20)
(0.087600921 -0.00019164513 -6.0807581e-22)
(0.11790459 -0.0032362766 -2.4202392e-20)
(0.093249029 -0.0068036408 7.8212317e-20)
(0.072755146 -0.010179825 -2.5908073e-21)
(0.023919761 -0.0048604992 -8.6174141e-20)
(-0.014737468 0.0059758385 3.1467463e-20)
(-0.03466431 0.016726713 2.0419585e-20)
(-0.030150692 0.017281182 -3.5214745e-20)
(-0.023676025 0.015446551 -5.0308734e-20)
(-0.018009415 0.01292152 -2.8023461e-19)
(-0.015052649 0.011582284 3.6232498e-19)
(-0.013188581 0.010658483 -1.5189854e-19)
(-0.01200789 0.010025716 6.4173794e-20)
(-0.011001197 0.0093574174 -5.6603327e-20)
(-0.010051063 0.0086021674 -5.5673961e-19)
(-0.0092310727 0.0078585133 -5.2866089e-20)
(-0.0086628333 0.007270669 1.0083346e-19)
(-0.0083134254 0.0068740863 -1.149761e-20)
(-0.0081152736 0.0066187814 -4.9895942e-19)
(-0.0080343365 0.0064721748 2.5243946e-19)
(-0.0080811533 0.0064389208 7.2528369e-20)
(-0.0082139176 0.0064829223 -4.6873984e-19)
(-0.0084264203 0.0065973033 2.2107209e-19)
(-0.0086890184 0.006759451 -3.5847469e-19)
(-0.0089688261 0.0069422384 -4.7406178e-19)
(-0.0092001703 0.0070945687 -1.2032606e-19)
(-0.0093176561 0.0071416975 1.8159419e-19)
(-0.0093489649 0.0070839841 1.6755693e-19)
(-0.0093052116 0.0069286495 4.2374672e-19)
(-0.0091847111 0.0066766033 5.6873745e-20)
(-0.0089798895 0.0063268684 1.9916102e-19)
(-0.0086838922 0.0058818054 4.5964769e-19)
(-0.0082920968 0.005348408 9.6303395e-19)
(-0.0078134524 0.0047447802 3.3312459e-19)
(-0.0072773306 0.0041058903 1.5389073e-19)
(-0.006730998 0.0034827527 -3.0295975e-19)
(-0.0061422693 0.0028817125 -4.1720545e-19)
(-0.0054910903 0.0023037733 -8.0714984e-20)
(-0.0047718841 0.0017589377 -3.5699036e-19)
(-0.0040305836 0.0012749548 2.3778555e-19)
(-0.0032328763 0.00085001437 2.7663886e-19)
(-0.0025457859 0.00053119995 2.6399112e-20)
(-0.0018576286 0.00028822402 8.995159e-20)
(-0.0016043883 0.00016789996 -8.5750158e-20)
(-0.001395988 8.9841822e-05 7.2099555e-20)
(-0.0025055251 6.1518613e-05 -4.1039671e-22)
(-0.0040245008 3.9740599e-05 -3.0913995e-24)
(-0.0049221543 3.3848074e-05 3.2556821e-24)
(-0.0060196046 3.1835756e-05 -3.0114189e-24)
(-0.0068376106 2.7984304e-05 -2.9331885e-24)
(-0.0076796819 2.5555736e-05 5.5211578e-24)
(-0.0083694402 2.2480102e-05 1.8354992e-23)
(-0.0090203417 2.0032012e-05 -2.406855e-23)
(-0.0095722346 1.7456032e-05 1.7973172e-23)
(-0.010069066 1.5214065e-05 -2.339967e-23)
(-0.010492837 1.3031646e-05 5.2649686e-24)
(-0.010862367 1.1073755e-05 2.9470476e-24)
(-0.011174576 9.2446893e-06 1.1498217e-23)
(-0.011439611 7.6155035e-06 -1.665364e-23)
(-0.011660329 6.1628109e-06 1.6525895e-23)
(-0.011844723 4.9389378e-06 -6.4740632e-25)
(-0.011998996 3.9551957e-06 2.4581689e-24)
(-0.012132046 3.2744363e-06 -1.3474739e-23)
(-0.012253328 2.931758e-06 -8.9505095e-24)
(-0.012374539 3.0094942e-06 1.4829911e-23)
(-0.01250917 3.5632779e-06 4.0078645e-24)
(-0.012673172 4.694903e-06 -1.3415162e-23)
(-0.012885115 6.4821922e-06 1.3014445e-23)
(-0.013166498 9.0482632e-06 -1.5949603e-23)