/*--------------------------------*- C++ -*----------------------------------*\
| =========                 |                                                 |
| \\      /  F ield         | OpenFOAM: The Open Source CFD Toolbox           |
|  \\    /   O peration     | Version:  2.4.0                                 |
|   \\  /    A nd           | Web:      www.OpenFOAM.org                      |
|    \\/     M anipulation  |                                                 |
\*---------------------------------------------------------------------------*/
FoamFile
{
    version     2.0;
    format      ascii;
    class       volVectorField;
    location    "20000";
    object      U;
}
// * * * * * * * * * * * * * * * * * * * * * * * * * * * * * * * * * * * * * //

dimensions      [0 1 -1 0 0 0 0];

internalField   nonuniform List<vector> 
9820
(
(0.87180836 0.00096547408 0)
(0.87150991 0.0023320466 2.6236161e-20)
(0.87123476 0.0037254243 -2.6287373e-20)
(0.87098376 0.0051459103 -2.6336489e-20)
(0.87075789 0.0065937975 2.6387352e-20)
(0.87055824 0.0080693678 0)
(0.87038598 0.0095728986 0)
(0.88616812 0.0012581465 -2.599488e-20)
(0.88591541 0.0025914294 2.6048908e-20)
(0.88568736 0.0039502946 0)
(0.88548483 0.0053349221 0)
(0.8853088 0.0067455138 2.6193319e-20)
(0.88516035 0.0081822603 -2.6246428e-20)
(0.88504065 0.0096453353 0)
(0.89930229 0.0014898219 0)
(0.89909145 0.0027894205 0)
(0.89890634 0.0041133588 0)
(0.89874787 0.0054617688 0)
(0.89861703 0.00683478 2.5990965e-20)
(0.89851488 0.008232501 -2.60475e-20)
(0.89844257 0.0096550219 0)
(0.91355002 -0.0076599501 0)
(0.91319154 -0.0065692235 -2.4959616e-20)
(0.91285413 -0.0054573881 2.5034146e-20)
(0.91253836 -0.0043242242 0)
(0.91224482 -0.0031695541 -2.5238686e-20)
(0.91197419 -0.0019932466 -1.1212017e-23)
(0.91172706 -0.00079514936 5.081544e-20)
(0.91150462 0.00042509217 -2.5483977e-20)
(0.9113067 0.0016679341 0)
(0.91113464 0.0029337296 0)
(0.91098924 0.0042226601 0)
(0.91087139 0.0055348347 0)
(0.91078209 0.0068703172 -2.5756419e-20)
(0.91072237 0.0082291325 2.0943169e-23)
(0.91069336 0.0096112952 5.1685904e-20)
(0.92425347 -0.0072910245 -2.4361105e-23)
(0.9239237 -0.0062273217 4.9337713e-20)
(0.92361588 -0.005143183 -2.4755984e-20)
(0.92333057 -0.0040384356 -2.4866971e-20)
(0.92306834 -0.0029129679 -1.2034309e-23)
(0.92282988 -0.0017667313 2.5036072e-20)
(0.92261585 -0.00059960573 -2.5130039e-20)
(0.92242727 0.00058879754 2.5203096e-20)
(0.9222643 0.0017988957 0)
(0.92212808 0.0030309179 0)
(0.92201936 0.00428498 -2.5382794e-20)
(0.921939 0.0055611394 1.4407028e-23)
(0.92188794 0.0068593879 1.8797115e-23)
(0.92186722 0.008179664 5.1064638e-20)
(0.92187794 0.0095219144 -2.8069842e-23)
(0.9340081 -0.00696322 1.2135177e-20)
(0.933704 -0.0059266479 -1.2172294e-20)
(0.93342275 -0.0048702587 0)
(0.9331649 -0.0037939424 0)
(0.93293104 -0.0026976706 0)
(0.93272186 -0.0015815094 -2.4719759e-20)
(0.93253809 -0.00044537145 2.4801065e-20)
(0.93238062 0.00071119346 0)
(0.93224975 0.0018886131 0)
(0.93214644 0.0030870417 2.5000187e-20)
(0.93207138 0.0043065199 -2.506873e-20)
(0.9320254 0.0055470389 0)
(0.93200939 0.0068085047 0)
(0.93202439 0.0080907508 0)
(0.93207147 0.0093936614 -2.5235045e-20)
(0.94425712 -0.010519488 0)
(0.94388265 -0.0095846889 1.185304e-20)
(0.94352994 -0.0086317833 -1.1881831e-20)
(0.94319994 -0.0076603482 0)
(0.94289301 -0.006670107 -1.1977919e-20)
(0.94260966 -0.0056608669 1.2011335e-20)
(0.94235045 -0.0046324662 0)
(0.94211593 -0.0035847863 1.2102597e-20)
(0.94190662 -0.0025178529 -1.2139799e-20)
(0.94172313 -0.0014318947 0)
(0.94156616 -0.00032686355 0)
(0.94143639 0.00079784513 0)
(0.94133418 0.0019427172 0)
(0.94126028 0.0031078191 0)
(0.94121539 0.0042930897 -2.4686947e-20)
(0.94120032 0.0054984291 2.475664e-20)
(0.94121595 0.006723632 0)
(0.94126328 0.0079683876 0)
(0.94134341 0.0092325413 2.4865934e-20)
(0.9523388 -0.010143009 0)
(0.95196827 -0.0092353738 -1.1778882e-20)
(0.95162204 -0.0083103285 -1.1455397e-23)
(0.95130045 -0.0073664523 1.1827711e-20)
(0.95100406 -0.0064040826 -1.1868588e-20)
(0.95073336 -0.0054232654 1.1892213e-20)
(0.95048885 -0.0044238613 -1.1930074e-20)
(0.95027096 -0.0034056987 1.1956573e-20)
(0.95008 -0.0023686844 -1.1991091e-20)
(0.94991646 -0.0013129321 -1.0168131e-24)
(0.94978033 -0.00023848866 2.4105735e-20)
(0.94967219 0.00085494997 -2.4161071e-20)
(0.94959276 0.0019676428 4.3721324e-24)
(0.94954283 0.0030996259 1.2134597e-20)
(0.94952313 0.0042508722 0)
(0.94953443 0.0054212882 2.4348344e-20)
(0.94957751 0.0066105993 -2.4415178e-20)
(0.94965327 0.0078183033 0)
(0.94976266 0.0090442096 2.4464448e-20)
(0.95983979 -0.0097770453 -1.3373745e-23)
(0.95946376 -0.0088957156 1.1838366e-20)
(0.95911335 -0.0079972297 1.1865822e-20)
(0.95878864 -0.0070812624 -2.3751241e-20)
(0.95849029 -0.0061476106 1.1885524e-20)
(0.95821887 -0.0051960841 -1.1904937e-20)
(0.95797488 -0.0042264883 1.1910434e-20)
(0.95775886 -0.003238608 0)
(0.95757141 -0.0022323591 1.1930934e-20)
(0.95741315 -0.0012085251 -2.3876171e-20)
(0.95728474 -0.00016719589 1.1952989e-20)
(0.95718681 0.00089290653 -1.1964095e-20)
(0.95711995 0.0019720801 2.3958987e-20)
(0.95708493 0.0030699008 -1.1996272e-20)
(0.95708236 0.0041862432 -1.2000535e-20)
(0.9571128 0.0053210606 1.2022717e-20)
(0.95717672 0.0064741925 0)
(0.95727476 0.0076452575 0)
(0.95740695 0.0088340145 2.4079922e-20)
(0.96813166 -0.011880527 0)
(0.96768104 -0.011074241 0)
(0.96725322 -0.010251696 1.1926428e-20)
(0.96684887 -0.0094129334 1.27945e-23)
(0.96646849 -0.0085581481 -1.1945987e-20)
(0.96611264 -0.0076870733 1.1970515e-20)
(0.96578193 -0.0067991374 -1.197357e-20)
(0.96547718 -0.0058940772 0)
(0.96519911 -0.0049717409 0)
(0.96494843 -0.0040319971 0)
(0.96472591 -0.0030747188 0)
(0.96453246 -0.0020998447 -1.2014972e-20)
(0.96436887 -0.0011075284 1.1668288e-24)
(0.9642364 -9.7866592e-05 1.2019657e-20)
(0.9641358 0.00092938086 1.2010893e-20)
(0.96406753 0.0019744538 -1.2009032e-20)
(0.96403244 0.0030374043 0)
(0.96403116 0.004118251 1.1980177e-20)
(0.96406434 0.0052170084 -1.1978153e-20)
(0.96413267 0.0063335268 -1.1949534e-20)
(0.96423681 0.0074666715 1.6367757e-23)
(0.96437754 0.0086161171 1.8537346e-23)
(0.9746741 -0.011453425 1.2011172e-20)
(0.97422248 -0.010670148 -1.2015104e-20)
(0.97379343 -0.0098712546 0)
(0.97338756 -0.0090567365 0)
(0.97300539 -0.0082266334 -1.2077739e-20)
(0.97264743 -0.0073807748 2.4171559e-20)
(0.97231428 -0.0065188317 -1.2093691e-20)
(0.97200672 -0.005640563 0)
(0.9717255 -0.0047458066 -1.2118889e-20)
(0.9714714 -0.0038344612 1.2121667e-20)
(0.97124521 -0.002906471 -1.2129105e-20)
(0.97104777 -0.0019618894 1.2131559e-20)
(0.9708798 -0.0010009675 0)
(0.97074203 -2.3751717e-05 1.2130324e-20)
(0.97063516 0.00097023514 -1.2125882e-20)
(0.97056009 0.0019813821 0)
(0.97051782 0.0030097177 0)
(0.97050923 0.004055204 1.2077346e-20)
(0.97053524 0.0051177859 -1.2071549e-20)
(0.97059696 0.0061973125 0)
(0.97069528 0.0072933358 -1.2013131e-20)
(0.9708317 0.0084053906 1.2008406e-20)
(0.971007 0.0095333951 0)
(0.97122179 0.010677322 -1.1935791e-20)
(0.97147694 0.011836974 1.1932135e-20)
(0.98573545 -0.017231688 0)
(0.98510787 -0.016600689 0)
(0.98449797 -0.015955626 0)
(0.98390623 -0.015296429 -6.0020472e-21)
(0.98333311 -0.01462303 6.0045183e-21)
(0.98277906 -0.01393534 0)
(0.98224455 -0.013233225 0)
(0.98173009 -0.01251653 0)
(0.98123624 -0.011785113 -1.2125771e-20)
(0.98076357 -0.011038849 1.2130076e-20)
(0.98031267 -0.010277639 0)
(0.97988415 -0.0095014124 0)
(0.97947859 -0.0087101292 1.2197278e-20)
(0.97909655 -0.0079037648 -2.4412235e-20)
(0.97873854 -0.0070822018 -8.7928692e-24)
(0.97840517 -0.0062452375 -7.2931388e-24)
(0.97809715 -0.0053926817 1.223752e-20)
(0.9778152 -0.004524391 0)
(0.97756009 -0.0036402741 0)
(0.9773326 -0.0027402874 0)
(0.9771335 -0.0018244637 0)
(0.97696351 -0.00089292213 0)
(0.97682337 5.4310274e-05 1.2258437e-20)
(0.97671356 0.0010174846 -6.1536901e-24)
(0.97663512 0.0019968504 -8.0368884e-24)
(0.97658901 0.0029924446 -1.2229517e-20)
(0.97657616 0.0040042216 0)
(0.97659756 0.005032058 0)
(0.97665423 0.0060756826 0)
(0.97674706 0.007134566 0)
(0.97687686 0.0082084156 1.2108012e-20)
(0.97704447 0.0092974398 -1.2100957e-20)
(0.97725092 0.010401722 0)
(0.97749726 0.011521031 0)
(0.99137755 -0.016662684 6.0185228e-21)
(0.99075237 -0.016048479 0)
(0.99014483 -0.015420665 0)
(0.98955538 -0.014779167 0)
(0.98898451 -0.014123914 0)
(0.98843266 -0.01345482 -6.1024323e-21)
(0.98790032 -0.012771775 6.1049316e-21)
(0.98738798 -0.012074659 0)
(0.98689619 -0.011363352 0)
(0.98642549 -0.01063775 0)
(0.98597646 -0.0098977603 0)
(0.98554967 -0.0091433135 0)
(0.98514571 -0.0083743559 0)
(0.98476512 -0.0075908377 0)
(0.98440846 -0.0067926668 0)
(0.98407632 -0.0059797121 0)
(0.98376937 -0.005151838 0)
(0.9834883 -0.0043089264 0)
(0.98323385 -0.003450903 0)
(0.98300675 -0.0025777348 0)
(0.98280776 -0.001689435 0)
(0.98263755 -0.0007860601 1.2403357e-20)
(0.98249693 0.00013238974 -1.2404564e-20)
(0.98238635 0.0010660349 0)
(0.9823068 0.0020149963 0)
(0.98225918 0.0029792933 0)
(0.98224441 0.0039588724 0)
(0.98226343 0.0049536029 0)
(0.98231721 0.0059632453 0)
(0.98240662 0.0069874262 0)
(0.98253241 0.0080258765 0)
(0.98269541 0.0090785824 0)
(0.98289662 0.010145509 0)
(0.98313712 0.011226438 1.2142294e-20)
(0.99661219 -0.016113191 -6.1117436e-21)
(0.99598979 -0.015515227 6.1147495e-21)
(0.99538502 -0.014904084 -6.1421042e-21)
(0.99479835 -0.014279692 6.1449766e-21)
(0.99423023 -0.013641979 -6.1698412e-21)
(0.99368112 -0.012990865 6.1725698e-21)
(0.99315152 -0.012326257 0)
(0.99264192 -0.011648056 6.2062356e-21)
(0.99215282 -0.010956165 -6.2087288e-21)
(0.99168478 -0.010250492 0)
(0.99123835 -0.0095309573 -1.2471914e-20)
(0.99081408 -0.0087974932 1.2476378e-20)
(0.99041255 -0.0080500433 1.2503628e-20)
(0.99003431 -0.0072885527 -1.250772e-20)
(0.98967992 -0.0065129421 -1.2528656e-20)
(0.98934997 -0.0057231238 1.25323e-20)
(0.9890451 -0.0049190047 1.2546633e-20)
(0.98876598 -0.004100491 -1.2549941e-20)
(0.9885133 -0.0032675265 0)
(0.98828777 -0.0024200869 -1.2559814e-20)
(0.98809012 -0.0015581764 2.5122733e-20)
(0.98792101 -0.00068182357 -1.2562684e-20)
(0.98778125 0.00020898032 -1.2553715e-20)
(0.98767133 0.0011142855 1.254913e-20)
(0.98759219 0.0020341261 0)
(0.98754464 0.0029684843 0)
(0.98752958 0.0039172884 -1.2491142e-20)
(0.98754789 0.004880404 1.2485171e-20)
(0.98760049 0.0058576197 0)
(0.98768824 0.0068486486 0)
(0.98781191 0.0078532407 1.2389789e-20)
(0.98797233 0.0088712635 -1.2382425e-20)
(0.98817044 0.009902585 0)
(0.98840726 0.010946965 -1.2286587e-20)
(1.0014654 -0.015582783 -6.1849046e-21)
(1.0008459 -0.015000553 0)
(1.0002442 -0.014405557 0)
(0.99966049 -0.013797727 6.2426782e-21)
(0.99909539 -0.013176996 -1.2501911e-20)
(0.99854934 -0.012543291 1.2528285e-20)
(0.9980228 -0.011896531 -6.2719418e-21)
(0.99751627 -0.011236635 0)
(0.99703026 -0.010563519 0)
(0.99656528 -0.0098771056 6.3132085e-21)
(0.99612189 -0.0091773246 -1.2637935e-20)
(0.99570062 -0.0084641147 6.3246281e-21)
(0.99530204 -0.0077374223 0)
(0.9949267 -0.0069971937 0)
(0.99457517 -0.0062433631 0)
(0.99424802 -0.0054758691 0)
(0.99394588 -0.0046946474 0)
(0.99366939 -0.0038996303 0)
(0.99341921 -0.0030907762 0)
(0.99319604 -0.0022680699 0)
(0.99300057 -0.0014315158 0)
(0.99283346 -0.00058113423 1.272725e-20)
(0.99269549 0.0002830823 -2.5448251e-20)
(0.9925872 0.0011611449 1.2716349e-20)
(0.99250947 0.0020530331 0)
(0.99246307 0.0029586938 0)
(0.99244885 0.0038780354 0)
(0.99246765 0.004810918 -1.2632915e-20)
(0.99252034 0.005757146 1.2626486e-20)
(0.99260775 0.0067164746 1.2580459e-20)
(0.99273068 0.0076886632 -2.2939466e-23)
(0.99288995 0.0086735163 -2.5060404e-20)
(0.99308647 0.0096708344 1.2509689e-20)
(0.99332117 0.010680345 0)
(1.0100069 -0.018216392 -6.166533e-21)
(1.0092933 -0.017722353 -6.2020166e-21)
(1.0085949 -0.017216308 6.2057559e-21)
(1.007912 -0.016698202 0)
(1.0072452 -0.016167974 0)
(1.0065947 -0.015625563 6.2737078e-21)
(1.005961 -0.015070906 1.2901555e-23)
(1.0053446 -0.01450394 -6.2934751e-21)
(1.0047459 -0.013924602 -6.3208446e-21)
(1.0041653 -0.01333283 6.3240799e-21)
(1.0036033 -0.012728561 6.348855e-21)
(1.0030605 -0.01211173 -6.3519184e-21)
(1.0025372 -0.011482266 0)
(1.0020339 -0.0108401 0)
(1.0015511 -0.010185162 0)
(1.0010894 -0.0095173851 6.4058889e-21)
(1.0006493 -0.0088367087 -6.4084649e-21)
(1.0002313 -0.0081430786 6.4231108e-21)
(0.99983598 -0.0074364474 -6.4254687e-21)
(0.99946386 -0.0067167663 0)
(0.99911552 -0.0059839822 -6.4424645e-21)
(0.99879154 -0.005238051 6.4444486e-21)
(0.99849252 -0.00447893 0)
(0.99821908 -0.0037065739 0)
(0.99797187 -0.0029209535 0)
(0.99775155 -0.0021220631 1.2912022e-20)
(0.9975588 -0.001309913 -1.2914743e-20)
(0.99739426 -0.00048452436 1.2908739e-20)
(0.99725871 0.00035410352 -2.5809412e-20)
(0.99715268 0.0012059566 1.28966e-20)
(0.99707704 0.0020709787 0)
(0.99703251 0.002949089 1.2853434e-20)
(0.9970199 0.0038401775 -1.501312e-23)
(0.99704002 0.0047440968 -1.7127715e-23)
(0.99709368 0.0056606565 -1.2802816e-20)
(0.99718171 0.0065896295 0)
(0.9973049 0.0075307778 1.2724008e-20)
(0.99746406 0.0084838731 -1.271628e-20)
(0.99766005 0.0094486731 -1.2653743e-20)
(0.99789377 0.010424877 3.076065e-23)
(1.0141503 -0.017641093 -6.2636762e-21)
(1.0134393 -0.017159736 -6.2993994e-21)
(1.0127435 -0.016666715 1.2621805e-20)
(1.0120634 -0.01616198 -6.3223387e-21)
(1.0113993 -0.015645475 6.3546977e-21)
(1.0107517 -0.015117147 -6.3584529e-21)
(1.0101209 -0.014576939 0)
(1.0095075 -0.014024793 0)
(1.0089118 -0.013460653 0)
(1.0083344 -0.012884463 0)
(1.0077756 -0.012296165 6.4476764e-21)
(1.0072359 -0.011695701 -6.4509143e-21)
(1.0067159 -0.01108301 0)
(1.0062159 -0.010458033 0)
(1.0057364 -0.0098207094 6.4950587e-21)
(1.0052781 -0.009170983 -1.3002785e-20)
(1.0048414 -0.0085088022 6.5076155e-21)
(1.0044268 -0.0078341203 6.5220645e-21)
(1.0040348 -0.0071468969 -1.3053874e-20)
(1.0036661 -0.0064470905 6.5316959e-21)
(1.0033211 -0.0057346597 0)
(1.0030005 -0.0050095734 -6.5456533e-21)
(1.0027048 -0.0042718043 6.547593e-21)
(1.0024346 -0.0035213256 0)
(1.0021907 -0.002758121 0)
(1.0019735 -0.0019821936 0)
(1.0017838 -0.0011935618 -1.310656e-20)
(1.0016222 -0.00039225248 1.3109045e-20)
(1.0014894 0.00042172571 -1.3094566e-20)
(1.0013861 0.0012483409 1.3089946e-20)
(1.0013129 0.002087513 0)
(1.0012707 0.0029391396 0)
(1.0012602 0.0038030956 0)
(1.0012822 0.0046792247 1.2998967e-20)
(1.0013375 0.0055673362 -2.5964523e-20)
(1.0014268 0.0064672087 1.2965141e-20)
(1.0015509 0.0073786025 -1.2910811e-20)
(1.0017107 0.0083012696 1.2902885e-20)
(1.001907 0.0092349405 -1.2838465e-20)
(1.0021405 0.010179295 1.2829716e-20)
(1.0179786 -0.017085308 6.3829886e-21)
(1.0172701 -0.016616288 -6.3872564e-21)
(1.0165769 -0.016135934 0)
(1.0158994 -0.0156442 0)
(1.015238 -0.015141038 0)
(1.0145931 -0.014626397 0)
(1.0139652 -0.014100228 0)
(1.0133547 -0.013562479 0)
(1.012762 -0.013013099 0)
(1.0121876 -0.012452037 -6.5389397e-21)
(1.0116319 -0.011879243 6.5424596e-21)
(1.0110954 -0.011294663 6.5659109e-21)
(1.0105785 -0.010698247 -6.5692213e-21)
(1.0100818 -0.010089942 0)
(1.0096056 -0.0094696974 0)
(1.0091506 -0.0088374661 6.6103367e-21)
(1.0087173 -0.0081932046 6.1594876e-24)
(1.0083061 -0.0075368738 -6.622068e-21)
(1.0079175 -0.0068684403 0)
(1.0075522 -0.0061878708 0)
(1.0072107 -0.0054951351 0)
(1.0068935 -0.0047902123 0)
(1.0066012 -0.0040730864 6.6541393e-21)
(1.0063345 -0.0033437464 -1.331254e-20)
(1.0060938 -0.0026021888 6.6582799e-21)
(1.0058799 -0.001848424 0)
(1.0056934 -0.001082479 0)
(1.0055349 -0.00030439056 -6.6555592e-21)
(1.0054052 0.00048582351 6.6546898e-21)
(1.0053048 0.0012881184 0)
(1.0052344 0.0021023964 0)
(1.0051949 0.0029285389 0)
(1.0051868 0.0037664077 0)
(1.005211 0.0046158382 0)
(1.0052683 0.005476636 0)
(1.0053593 0.0063485794 0)
(1.0054849 0.0072314252 0)
(1.0056458 0.0081249125 0)
(1.0058428 0.0090287549 0)
(1.0060767 0.0099426184 0)
(1.030182 -0.020858917 -1.0542491e-23)
(1.0293321 -0.020520763 3.1201127e-21)
(1.0284934 -0.020171943 0)
(1.0276662 -0.019812437 3.1555744e-21)
(1.026851 -0.019442219 -3.1580488e-21)
(1.0260481 -0.019061263 3.179769e-21)
(1.0252579 -0.018669541 -3.1822005e-21)
(1.0244807 -0.018267022 -3.2029835e-21)
(1.023717 -0.017853674 3.2053634e-21)
(1.022967 -0.017429463 0)
(1.0222313 -0.016994354 3.2358166e-21)
(1.0215101 -0.016548309 -6.4843028e-21)
(1.020804 -0.01609129 3.2484519e-21)
(1.0201132 -0.015623257 6.5321161e-21)
(1.0194382 -0.015144167 -6.536477e-21)
(1.0187793 -0.014653977 0)
(1.0181371 -0.014152642 0)
(1.0175119 -0.013640118 0)
(1.0169042 -0.013116358 -6.620094e-21)
(1.0163144 -0.012581317 6.6240108e-21)
(1.0157429 -0.012034949 0)
(1.0151902 -0.011477208 0)
(1.0146567 -0.01090805 6.6775969e-21)
(1.014143 -0.010327429 -1.3371106e-20)
(1.0136494 -0.0097353013 6.6933919e-21)
(1.0131765 -0.0091316237 0)
(1.0127248 -0.0085163568 0)
(1.0122948 -0.007889465 -6.7313285e-21)
(1.0118869 -0.0072509164 6.7341848e-21)
(1.0115017 -0.0066006846 0)
(1.0111398 -0.0059387446 0)
(1.0108017 -0.0052650758 6.7581908e-21)
(1.0104879 -0.0045796666 -6.760464e-21)
(1.010199 -0.0038825108 0)
(1.0099357 -0.0031736089 6.7679786e-21)
(1.0096984 -0.0024529692 -6.769782e-21)
(1.0094878 -0.0017206107 0)
(1.0093046 -0.00097656785 0)
(1.0091493 -0.00022088912 0)
(1.0090227 0.00054639893 0)
(1.0089253 0.0013252429 0)
(1.0088579 0.0021155304 -6.7438313e-21)
(1.0088211 0.0029171302 6.7410372e-21)
(1.0088157 0.0037298934 0)
(1.0088423 0.0045536472 -1.3418113e-20)
(1.0089018 0.0053881925 1.341114e-20)
(1.0089948 0.0062333047 0)
(1.0091221 0.0070887364 0)
(1.0092845 0.0079542178 0)
(1.0094827 0.0088294517 1.3247759e-20)
(1.0097175 0.0097140957 -3.333889e-23)
(1.0334136 -0.020231103 0)
(1.0325651 -0.019901415 -3.1864641e-21)
(1.0317279 -0.019561344 3.189115e-21)
(1.0309024 -0.019210867 3.2119957e-21)
(1.0300888 -0.018849963 9.8070904e-24)
(1.0292877 -0.018478606 -3.227006e-21)
(1.0284992 -0.018096771 0)
(1.0277239 -0.017704429 0)
(1.0269621 -0.017301552 3.2715887e-21)
(1.0262142 -0.016888108 8.641157e-24)
(1.0254805 -0.016464064 -6.5787118e-21)
(1.0247615 -0.016029387 3.2959654e-21)
(1.0240575 -0.015584041 0)
(1.023369 -0.01512799 0)
(1.0226964 -0.014661196 0)
(1.02204 -0.014183619 0)
(1.0214003 -0.01369522 6.7041359e-21)
(1.0207777 -0.013195958 -6.7084639e-21)
(1.0201726 -0.012685792 -6.7377422e-21)
(1.0195855 -0.012164683 6.7418669e-21)
(1.0190168 -0.011632588 0)
(1.018467 -0.011089468 0)
(1.0179365 -0.010535285 0)
(1.0174257 -0.0099699979 0)
(1.0169352 -0.0093935704 0)
(1.0164654 -0.0088059669 0)
(1.0160169 -0.0082071551 0)
(1.01559 -0.007597106 0)
(1.0151854 -0.0069757949 0)
(1.0148035 -0.0063432017 0)
(1.0144449 -0.0056993098 0)
(1.0141101 -0.0050441071 0)
(1.0137997 -0.0043775896 0)
(1.0135141 -0.0036997606 0)
(1.0132541 -0.0030106294 0)
(1.0130202 -0.0023102149 0)
(1.0128129 -0.0015985448 -6.8871768e-21)
(1.0126329 -0.00087565891 6.888699e-21)
(1.0124809 -0.0001416199 -6.8836019e-21)
(1.0123574 0.00060353733 6.8821007e-21)
(1.0122631 0.001359756 0)
(1.0121986 0.0021269102 0)
(1.0121647 0.0029048578 0)
(1.0121619 0.0036934409 0)
(1.0121911 0.0044924797 0)
(1.012253 0.00530177 6.8093236e-21)
(1.0123482 0.0061210837 -6.8055129e-21)
(1.0124774 0.0069501689 0)
(1.0126415 0.0077887497 -1.3513516e-20)
(1.0128411 0.0086365222 1.3504435e-20)
(1.013077 0.0094931392 0)
(1.0416808 -0.021340919 0)
(1.0407734 -0.021079809 0)
(1.0398752 -0.020808673 0)
(1.0389866 -0.020527501 0)
(1.0381077 -0.020236281 0)
(1.0372392 -0.019935 0)
(1.0363811 -0.019623642 0)
(1.0355341 -0.019302191 0)
(1.0346984 -0.018970629 0)
(1.0338743 -0.018628937 0)
(1.0330623 -0.018277093 0)
(1.0322628 -0.017915074 0)
(1.031476 -0.017542858 0)
(1.0307024 -0.017160417 0)
(1.0299424 -0.016767726 0)
(1.0291964 -0.016364754 0)
(1.0284646 -0.015951474 0)
(1.0277477 -0.015527853 0)
(1.0270458 -0.01509386 3.3756402e-21)
(1.0263594 -0.014649461 -3.3781039e-21)
(1.025689 -0.014194623 0)
(1.0250349 -0.013729309 0)
(1.0243976 -0.013253485 0)
(1.0237774 -0.012767113 0)
(1.0231749 -0.012270159 6.8620424e-21)
(1.0225904 -0.011762585 1.1586568e-23)
(1.0220243 -0.011244357 -6.882186e-21)
(1.0214772 -0.010715438 0)
(1.0209495 -0.010175796 0)
(1.0204416 -0.0096253974 0)
(1.019954 -0.0090642101 6.9454889e-21)
(1.0194871 -0.0084922055 7.365395e-24)
(1.0190416 -0.0079093577 -6.959858e-21)
(1.0186178 -0.0073156444 0)
(1.0182163 -0.0067110469 0)
(1.0178376 -0.0060955518 -6.9909121e-21)
(1.0174822 -0.0054691496 6.9937206e-21)
(1.0171506 -0.0048318359 -7.0022786e-21)
(1.0168434 -0.0041836143 -1.6636741e-24)
(1.0165611 -0.0035244953 7.0087006e-21)
(1.0163043 -0.0028544973 -7.0114498e-21)
(1.0160736 -0.0021736468 1.4025662e-20)
(1.0158696 -0.0014819794 -7.0140292e-21)
(1.0156928 -0.00077954134 -7.010613e-21)
(1.0155439 -6.6409669e-05 1.4019986e-20)
(1.0154235 0.00065737474 -7.0061844e-21)
(1.0153322 0.0013917551 0)
(1.0152707 0.0021365909 0)
(1.0152396 0.0028917309 0)
(1.0152396 0.0036570099 0)
(1.0152714 0.0044322423 6.9459632e-21)
(1.0153357 0.0052172191 -1.1507062e-23)
(1.0154331 0.0060117084 -6.9268937e-21)
(1.0155644 0.0068154547 0)
(1.0157303 0.0076281777 -6.8767097e-21)
(1.0159315 0.0084495693 6.8720331e-21)
(1.0161687 0.00927928 0)
(1.016443 0.010116918 -6.8092152e-21)
(1.0167535 0.010961718 2.0159448e-23)
(1.0471611 -0.021416111 1.5816552e-21)
(1.0462295 -0.021190681 -1.5831734e-21)
(1.045306 -0.020955508 0)
(1.0443909 -0.020710587 0)
(1.0434847 -0.020455909 0)
(1.0425876 -0.020191467 0)
(1.0417 -0.019917251 0)
(1.0408224 -0.019633248 0)
(1.039955 -0.019339447 0)
(1.0390983 -0.019035833 0)
(1.0382525 -0.01872239 0)
(1.0374182 -0.018399103 0)
(1.0365955 -0.018065953 3.3342842e-21)
(1.035785 -0.01772292 -3.3371832e-21)
(1.0349869 -0.017369983 0)
(1.0342017 -0.017007121 0)
(1.0334298 -0.016634309 3.3842253e-21)
(1.0326715 -0.016251523 -6.7830429e-21)
(1.0319272 -0.015858736 3.398784e-21)
(1.0311973 -0.015455922 0)
(1.0304821 -0.015043052 3.4296776e-21)
(1.0297822 -0.014620098 -3.4323129e-21)
(1.0290979 -0.014187028 3.4505314e-21)
(1.0284295 -0.013743813 -3.4530771e-21)
(1.0277776 -0.01329042 3.470033e-21)
(1.0271425 -0.012826818 -3.4724793e-21)
(1.0265246 -0.012352974 3.488103e-21)
(1.0259244 -0.011868857 -3.4904393e-21)
(1.0253424 -0.011374435 0)
(1.0247788 -0.010869677 0)
(1.0242343 -0.010354552 -7.0392356e-21)
(1.0237091 -0.0098290322 7.0434088e-21)
(1.0232039 -0.0092930885 7.0657894e-21)
(1.0227191 -0.0087466953 -1.4147436e-20)
(1.0222551 -0.0081898296 7.0814976e-21)
(1.0218124 -0.0076224713 0)
(1.0213916 -0.0070446042 0)
(1.020993 -0.0064562153 0)
(1.0206173 -0.0058572971 0)
(1.0202649 -0.0052478468 0)
(1.0199364 -0.004627867 0)
(1.0196323 -0.0039973679 7.1389124e-21)
(1.0193532 -0.003356367 -7.1412946e-21)
(1.0190995 -0.00270489 7.1437561e-21)
(1.0188719 -0.0020429712 -7.1457414e-21)
(1.018671 -0.0013706535 0)
(1.0184973 -0.00068798874 0)
(1.0183515 4.939682e-06 0)
(1.0182341 0.00070808171 7.1321625e-21)
(1.0181458 0.0014213734 -6.2958498e-24)
(1.0180872 0.0021446654 -1.4234187e-20)
(1.0180589 0.0028778001 1.4212468e-20)
(1.0180616 0.0036206064 -7.0987919e-21)
(1.018096 0.0043728933 0)
(1.0181627 0.0051344479 7.0593874e-21)
(1.0182624 0.0059050346 -1.4097682e-20)
(1.0183958 0.0066843948 7.0380252e-21)
(1.0185636 0.0074722452 7.0037292e-21)
(1.0187665 0.0082682752 -1.3981086e-20)
(1.0190052 0.0090721353 6.9770874e-21)
(1.0192806 0.0098834385 0)
(1.019592 0.010701445 6.9081175e-21)
(1.0496306 -0.020788742 0)
(1.0486999 -0.020568797 -1.6207249e-21)
(1.0477774 -0.020339364 -6.0872301e-24)
(1.0468633 -0.020100436 -6.0088556e-24)
(1.045958 -0.019852006 3.2811542e-21)
(1.045062 -0.019594066 -3.2961069e-21)
(1.0441755 -0.019326607 1.6525617e-21)
(1.043299 -0.019049617 0)
(1.0424327 -0.018763084 0)
(1.0415771 -0.018466995 -1.6797345e-21)
(1.0407326 -0.018161337 1.681293e-21)
(1.0398995 -0.017846092 -3.3869337e-21)
(1.0390781 -0.017521245 3.3900092e-21)
(1.038269 -0.017186777 0)
(1.0374723 -0.016842669 -3.4263066e-21)
(1.0366886 -0.0164889 3.4293026e-21)
(1.0359181 -0.016125449 0)
(1.0351614 -0.015752293 0)
(1.0344187 -0.015369407 3.4750051e-21)
(1.0336905 -0.014976768 -3.4778609e-21)
(1.0329771 -0.01457435 0)
(1.032279 -0.014162126 0)
(1.0315965 -0.013740069 3.5187958e-21)
(1.0309301 -0.013308152 -3.5214714e-21)
(1.0302802 -0.012866345 -3.5386516e-21)
(1.0296472 -0.012414622 3.5412216e-21)
(1.0290315 -0.011952952 0)
(1.0284335 -0.011481309 0)
(1.0278537 -0.010999664 0)
(1.0272925 -0.010507991 -3.5816809e-21)
(1.0267503 -0.010006263 3.5839402e-21)
(1.0262277 -0.0094944569 7.1920498e-21)
(1.025725 -0.0089725484 -7.1962807e-21)
(1.0252427 -0.008440517 0)
(1.0247814 -0.0078983445 0)
(1.0243414 -0.0073460165 0)
(1.0239233 -0.0067835222 7.2478823e-21)
(1.0235276 -0.0062108539 -7.2513026e-21)
(1.0231547 -0.0056280095 0)
(1.0228053 -0.0050349924 7.2695717e-21)
(1.0224797 -0.0044318115 -7.2724415e-21)
(1.0221785 -0.003818483 -7.278717e-21)
(1.0219024 -0.0031950306 1.4562815e-20)
(1.0216517 -0.0025614867 -7.2838934e-21)
(1.0214271 -0.0019178925 -7.2839709e-21)
(1.0212292 -0.0012642983 7.2858066e-21)
(1.0210585 -0.00060076361 7.2815196e-21)
(1.0209157 7.2636285e-05 -4.4701017e-24)
(1.0208012 0.00075583845 -7.2759603e-21)
(1.0207157 0.0014487576 0)
(1.0206599 0.0021512445 7.2510192e-21)
(1.0206344 0.0028631385 -7.2480156e-21)
(1.0206397 0.0035842634 7.2260224e-21)
(1.0206767 0.0043144235 -1.4433833e-20)
(1.0207458 0.005053402 7.2075282e-21)
(1.0208478 0.0058009605 0)
(1.0209833 0.0065568378 0)
(1.0211531 0.0073207485 7.1380139e-21)
(1.0213577 0.008092381 -1.7161135e-23)
(1.0215978 0.0088713868 -1.420277e-20)
(1.0218745 0.0096573856 1.4153465e-20)
(1.022187 0.010449662 -7.0609579e-21)
(1.0566316 -0.021116024 -3.9965104e-22)
(1.0556667 -0.020947542 8.0673716e-22)
(1.054708 -0.020769838 -8.0757706e-22)
(1.053756 -0.020582911 0)
(1.0528111 -0.020386757 0)
(1.0518735 -0.020181371 0)
(1.0509437 -0.01996675 0)
(1.050022 -0.019742888 0)
(1.0491088 -0.019509779 0)
(1.0482045 -0.019267415 1.6770787e-21)
(1.0473094 -0.01901579 -1.6787547e-21)
(1.0464239 -0.018754892 -1.6921632e-21)
(1.0455484 -0.018484713 1.6938281e-21)
(1.0446832 -0.018205242 -1.706849e-21)
(1.0438287 -0.017916464 1.7084987e-21)
(1.0429853 -0.017618368 0)
(1.0421533 -0.017310939 0)
(1.0413331 -0.016994161 3.4697545e-21)
(1.0405252 -0.016668016 -3.4729638e-21)
(1.0397299 -0.016332488 0)
(1.0389475 -0.015987558 0)
(1.0381784 -0.015633204 0)
(1.0374231 -0.015269408 0)
(1.0366819 -0.014896146 -3.5459804e-21)
(1.0359552 -0.014513397 7.106624e-21)
(1.0352435 -0.014121137 -3.5606e-21)
(1.034547 -0.013719343 3.5799829e-21)
(1.0338663 -0.013307989 7.7960566e-24)
(1.0332017 -0.012887051 7.4924167e-24)
(1.0325536 -0.012456504 -3.6036973e-21)
(1.0319225 -0.012016322 0)
(1.0313088 -0.011566482 -3.6296093e-21)
(1.0307129 -0.011106958 -6.199125e-24)
(1.0301352 -0.010637725 -5.8556829e-24)
(1.0295762 -0.010158762 3.6491845e-21)
(1.0290363 -0.0096700459 0)
(1.0285159 -0.0091715566 0)
(1.0280156 -0.0086632754 -3.6758826e-21)
(1.0275358 -0.0081451859 3.6780184e-21)
(1.027077 -0.0076172745 0)
(1.0266396 -0.0070795318 0)
(1.0262241 -0.0065319522 -7.3951253e-21)
(1.025831 -0.0059745325 1.4802161e-20)
(1.0254608 -0.005407276 3.9017428e-24)
(1.0251141 -0.0048301912 -7.4139348e-21)
(1.0247913 -0.0042432929 0)
(1.0244929 -0.0036466027 0)
(1.0242196 -0.0030401502 0)
(1.0239718 -0.0024239733 0)
(1.0237501 -0.0017981196 0)
(1.023555 -0.0011626462 0)
(1.0233872 -0.00051761928 -7.4282335e-21)
(1.0232472 0.00013689479 4.7213233e-24)
(1.0231355 0.00080082162 1.4838343e-20)
(1.0230528 0.0014740546 -7.4138138e-21)
(1.0229997 0.002156445 0)
(1.0229768 0.0028478294 0)
(1.0229847 0.003548028 0)
(1.0230241 0.0042568411 -7.3552884e-21)
(1.0230956 0.0049740489 1.4690035e-20)
(1.0231999 0.0056994102 -7.3344493e-21)
(1.0233375 0.006432662 7.3009841e-21)
(1.0235092 0.0071735178 -1.4575936e-20)
(1.0237156 0.0079216658 1.7605276e-23)
(1.0239573 0.0086767593 7.2516075e-21)
(1.0242353 0.0094384252 0)
(1.024549 0.010205972 -2.7398795e-26)
(1.0586542 -0.020505774 0)
(1.05769 -0.02034125 8.2365211e-22)
(1.0567321 -0.020167746 -8.245371e-22)
(1.0557809 -0.01998526 8.3199086e-22)
(1.0548367 -0.019793789 3.2343352e-24)
(1.0538998 -0.019593327 -8.3699993e-22)
(1.0529708 -0.019383871 -1.6884969e-21)
(1.0520499 -0.019165414 -6.2464187e-24)
(1.0511376 -0.018937952 1.6982888e-21)
(1.0502341 -0.018701476 0)
(1.0493398 -0.01845598 -1.7200592e-21)
(1.0484552 -0.018201454 1.7218177e-21)
(1.0475806 -0.01793789 0)
(1.0467163 -0.017665275 -1.742726e-21)
(1.0458628 -0.017383599 3.4945264e-21)
(1.0450204 -0.017092849 5.4979381e-24)
(1.0441894 -0.016793011 -3.5233906e-21)
(1.0433704 -0.016484072 -5.2749468e-24)
(1.0425636 -0.016166014 5.329473e-21)
(1.0417694 -0.015838823 -7.1296026e-21)
(1.0409882 -0.01550248 3.5731493e-21)
(1.0402204 -0.015156967 3.5958208e-21)
(1.0394664 -0.014802266 -7.20742e-21)
(1.0387266 -0.014438356 3.6115587e-21)
(1.0380013 -0.014065217 0)
(1.0372911 -0.013682828 0)
(1.0365961 -0.013291168 -3.6553085e-21)
(1.035917 -0.012890214 7.3244975e-21)
(1.0352541 -0.012479945 -3.6691337e-21)
(1.0346077 -0.012060338 0)
(1.0339784 -0.011631372 3.696583e-21)
(1.0333665 -0.011193023 -7.4052835e-21)
(1.0327724 -0.010745271 3.7086326e-21)
(1.0321967 -0.010288096 0)
(1.0316397 -0.0098214775 0)
(1.0311019 -0.0093453976 0)
(1.0305837 -0.0088598398 0)
(1.0300856 -0.0083647894 0)
(1.0296081 -0.0078602342 0)
(1.0291516 -0.0073461647 0)
(1.0287165 -0.006822576 0)
(1.0283035 -0.0062894672 0)
(1.0279129 -0.0057468394 7.5585111e-21)
(1.0275453 -0.0051947003 -7.5620392e-21)
(1.0272011 -0.0046330639 0)
(1.0268809 -0.0040619496 7.5772116e-21)
(1.0265852 -0.0034813842 -7.5801039e-21)
(1.0263146 -0.0028914022 -7.5839514e-21)
(1.0260695 -0.002292047 1.5171919e-20)
(1.0258505 -0.0016833713 -1.5173607e-20)
(1.0256581 -0.0010654377 1.5172795e-20)
(1.025493 -0.00043831844 -7.5866727e-21)
(1.0253557 0.00019792432 -7.5781868e-21)
(1.0252467 0.00084320858 1.5145869e-20)
(1.0251667 0.0014974122 -7.5674021e-21)
(1.0251162 0.0021603848 0)
(1.0250959 0.0028319596 0)
(1.0251063 0.0035119535 0)
(1.0251481 0.0042001641 0)
(1.0252219 0.0048963688 0)
(1.0253284 0.0056003243 0)
(1.0254681 0.0063117662 0)
(1.0256417 0.0070304074 0)