0.00163525 	-0.000379402 	-3.83615e-07 	4.0939e-25
0.00282097 	-0.000587624 	-1.1833e-06 	7.11317e-25
0.00409516 	-0.000759515 	-2.40788e-06 	0
0.0054644 	-0.000902582 	-4.0574e-06 	8.76638e-27
0.00693581 	-0.00102349 	-6.12716e-06 	4.7408e-25
0.00851699 	-0.00112697 	-8.71351e-06 	0
0.0102161 	-0.00121151 	-1.17885e-05 	0
0.0120421 	-0.00127806 	-1.52996e-05 	0
0.0140042 	-0.00133123 	-1.93251e-05 	-1.07561e-24
0.0161127 	-0.00137419 	-2.38705e-05 	4.7598e-25
0.0183786 	-0.00140899 	-2.89503e-05 	0
0.0208135 	-0.00143702 	-3.45915e-05 	1.31521e-26
0.0234301 	-0.00145923 	-4.08272e-05 	-1.22433e-26
0.0262418 	-0.00147627 	-4.76951e-05 	6.95189e-25
0.0292634 	-0.00148858 	-5.52375e-05 	-6.58687e-25
0.0325104 	-0.00149645 	-6.35011e-05 	0
0.0359997 	-0.00150004 	-7.25373e-05 	0
0.0397492 	-0.00149944 	-8.2402e-05 	1.16577e-24
0.0437785 	-0.00149465 	-9.31561e-05 	1.15013e-24
0.0481085 	-0.00148559 	-0.000104865 	-1.12127e-24
0.0527615 	-0.00147215 	-0.0001176 	0
0.0577616 	-0.00145411 	-0.000131438 	0
0.0631348 	-0.00143124 	-0.000146462 	2.09315e-24
0.0689088 	-0.00140322 	-0.000162758 	4.17722e-24
0.0751137 	-0.00136967 	-0.000180422 	0
0.0817815 	-0.00133015 	-0.000199556 	4.09562e-24
0.0889467 	-0.00128412 	-0.000220268 	-4.15848e-24
0.0966466 	-0.00123098 	-0.000242672 	-4.16488e-24
0.104921 	-0.00117002 	-0.000266891 	0
0.113813 	-0.00110043 	-0.000293054 	-4.21155e-24
0.123368 	-0.00102127 	-0.000321299 	-1.68665e-23
0.133635 	-0.000931463 	-0.000351769 	1.70688e-23
0.144669 	-0.000829787 	-0.000384615 	0
0.156527 	-0.000714827 	-0.000419992 	0
0.169268 	-0.000584968 	-0.000458062 	-9.04596e-24
0.182961 	-0.000438364 	-0.00049899 	0
0.197675 	-0.000272903 	-0.00054294 	0
0.213487 	-8.61731e-05 	-0.000590076 	-1.90766e-23
0.230478 	0.000124577 	-0.000640556 	0
0.248737 	0.00036248 	-0.000694526 	-2.04577e-23
0.268359 	0.000631097 	-0.000752114 	4.13853e-23
0.289444 	0.000934467 	-0.00081342 	-4.25929e-23
0.312103 	0.00127715 	-0.000878505 	0
0.336452 	0.0016643 	-0.000947375 	0
0.362618 	0.00210165 	-0.00101996 	-4.57053e-23
0.390735 	0.0025956 	-0.00109608 	0
0.420951 	0.0031532 	-0.00117544 	9.98217e-23
0.453421 	0.00378209 	-0.00125755 	0
0.488313 	0.00449044 	-0.00134169 	0
0.525809 	0.00528668 	-0.00142685 	1.06515e-22
0.566102 	0.00617916 	-0.00151167 	-2.16029e-22
0.609402 	0.00717548 	-0.0015943 	-2.14387e-22
0.655932 	0.00828146 	-0.00167242 	0
0.705933 	0.0094997 	-0.00174313 	-4.27299e-22
0.759665 	0.0108275 	-0.001803 	-4.21109e-22
0.817405 	0.0122544 	-0.00184832 	0
0.879454 	0.0137599 	-0.00187544 	3.96202e-22
0.946132 	0.0153128 	-0.00188147 	-3.77603e-22
1.01778 	0.0168724 	-0.00186502 	0
1.09478 	0.018395 	-0.00182675 	0
1.17753 	0.0198418 	-0.00176934 	-6.11574e-22
1.26644 	0.0211875 	-0.00169665 	0
1.36199 	0.0224226 	-0.00161252 	5.20286e-22
1.46467 	0.023551 	-0.00151982 	-1.41008e-21
1.57104 	0.0245471 	-0.00142358 	-8.98776e-22
1.67372 	0.0253773 	-0.00133098 	-4.55915e-22
1.76927 	0.0260552 	-0.00124486 	0
1.85819 	0.0266132 	-0.00116448 	0
1.94093 	0.027074 	-0.00108929 	-4.83816e-22
2.01793 	0.0274537 	-0.00101888 	0
2.08958 	0.0277655 	-0.000952964 	0
2.15626 	0.0280196 	-0.000891276 	-2.60003e-22
2.21831 	0.0282248 	-0.000833588 	0
2.27605 	0.0283883 	-0.000779676 	0
2.32978 	0.028516 	-0.00072932 	-2.81015e-22
2.37978 	0.0286131 	-0.000682301 	-1.48956e-24
2.42631 	0.0286834 	-0.000638403 	0
2.46961 	0.0287302 	-0.000597415 	0
2.50991 	0.0287561 	-0.000559134 	0
2.5474 	0.028763 	-0.000523366 	0
2.58229 	0.0287523 	-0.000489925 	0
2.61476 	0.0287251 	-0.000458636 	-8.96699e-23
2.64498 	0.0286819 	-0.000429332 	-9.24078e-25
2.6731 	0.0286229 	-0.000401854 	0
2.69926 	0.028548 	-0.000376053 	0
2.72361 	0.0284566 	-0.000351789 	-5.55047e-23
2.74627 	0.0283481 	-0.000328928 	-5.88768e-23
2.76736 	0.0282214 	-0.000307344 	1.24679e-22
2.78698 	0.0280751 	-0.00028692 	-3.34139e-23
2.80524 	0.0279076 	-0.000267545 	0
2.82223 	0.027717 	-0.00024912 	3.79241e-23
2.83804 	0.0275014 	-0.00023155 	4.06996e-23
2.85275 	0.0272584 	-0.000214757 	0
2.86645 	0.0269857 	-0.000198669 	-4.69783e-23
2.87919 	0.0266811 	-0.000183231 	0
2.89104 	0.0263423 	-0.000168402 	2.7339e-23
2.90208 	0.0259676 	-0.000154156 	0
2.91235 	0.0255553 	-0.000140482 	-3.13222e-23
2.9219 	0.0251046 	-0.000127382 	-4.97931e-23
2.93079 	0.024615 	-0.000114873 	0
2.93907 	0.0240865 	-0.000102979 	-1.86605e-23
2.94677 	0.0235201 	-9.17297e-05 	1.89513e-25
2.95393 	0.0229167 	-8.11551e-05 	-2.0801e-23
2.9606 	0.0222781 	-7.12839e-05 	2.18731e-23
2.96681 	0.0216059 	-6.21384e-05 	1.1016e-25
2.97258 	0.0209019 	-5.37332e-05 	0
2.97795 	0.020168 	-4.60734e-05 	-1.20596e-25
2.98295 	0.0194056 	-3.9154e-05 	0
2.98761 	0.0186159 	-3.29607e-05 	6.91519e-24
2.99194 	0.0177999 	-2.74702e-05 	0
2.99597 	0.0169581 	-2.26516e-05 	-7.53424e-24
2.99971 	0.0160906 	-1.84675e-05 	0
3.0032 	0.0151973 	-1.48759e-05 	8.14237e-24
3.00645 	0.0142776 	-1.18307e-05 	0
3.00947 	0.0133313 	-9.28331e-06 	0
3.01228 	0.0123579 	-7.18322e-06 	4.69483e-24
3.0149 	0.011358 	-5.47961e-06 	0
3.01734 	0.0103332 	-4.12232e-06 	2.54851e-24
3.0196 	0.00928739 	-3.05682e-06 	0
3.02171 	0.00823834 	-2.2294e-06 	0
3.02367 	0.00720827 	-1.59805e-06 	5.24067e-24
3.0255 	0.00620587 	-1.11382e-06 	-2.5953e-24
3.0272 	0.00523548 	-7.48862e-07 	0
3.02878 	0.00430198 	-4.80329e-07 	1.23349e-24
