0.000531856 	-0.000174955 	6.32682e-08 	-2.88324e-24
0.00163525 	-0.000523975 	7.13329e-07 	0
0.00282097 	-0.000869301 	2.14848e-06 	2.10485e-24
0.00409515 	-0.00119869 	4.40511e-06 	-1.97775e-24
0.0054644 	-0.00150646 	7.48111e-06 	-4.40683e-26
0.0069358 	-0.00179176 	1.13854e-05 	2.7187e-26
0.00851699 	-0.00205606 	1.61249e-05 	1.19621e-30
0.0102161 	-0.00230142 	2.16935e-05 	-2.38224e-26
0.0120421 	-0.00252984 	2.80678e-05 	1.12246e-26
0.0140042 	-0.00274302 	3.53213e-05 	-1.04984e-26
0.0161127 	-0.00293765 	4.34231e-05 	-4.92033e-24
0.0183786 	-0.0031094 	5.22311e-05 	-4.42419e-26
0.0208135 	-0.00325998 	6.17426e-05 	-3.97262e-24
0.0234301 	-0.00339311 	7.19869e-05 	-3.63731e-24
0.0262418 	-0.00351162 	8.2935e-05 	-3.38697e-26
0.0292634 	-0.00361767 	9.45752e-05 	1.24145e-23
0.0325104 	-0.00371288 	0.000106904 	5.84246e-24
0.0359996 	-0.0037985 	0.000119918 	-5.46997e-24
0.0397492 	-0.00387547 	0.000133617 	0
0.0437785 	-0.00394453 	0.000147996 	0
0.0481085 	-0.00400619 	0.000163052 	-1.91616e-23
0.0527615 	-0.00406083 	0.000178779 	9.20224e-24
0.0577616 	-0.0041087 	0.000195168 	-8.99772e-24
0.0631348 	-0.00414994 	0.000212204 	0
0.0689088 	-0.00418459 	0.00022987 	-4.15659e-27
0.0751137 	-0.0042126 	0.000248142 	3.34196e-23
0.0817815 	-0.00423382 	0.000266989 	1.63626e-23
0.0889467 	-0.00424804 	0.000286369 	-1.61437e-23
0.0966466 	-0.00425492 	0.000306233 	-1.50047e-25
0.104921 	-0.00425408 	0.000326517 	-3.17023e-23
0.113813 	-0.004245 	0.000347143 	-3.18549e-23
0.123368 	-0.00422706 	0.000368014 	-3.17921e-23
0.133635 	-0.00419955 	0.000389012 	-3.15001e-23
0.144669 	-0.00416159 	0.000409994 	-3.15972e-23
0.156527 	-0.00411218 	0.000430783 	-3.89562e-27
0.169268 	-0.00405014 	0.000451167 	-6.40602e-23
0.182961 	-0.00397407 	0.000470885 	6.47428e-23
0.197675 	-0.00388238 	0.000489621 	0
0.213487 	-0.00377318 	0.000506989 	-6.66155e-23
0.230478 	-0.00364427 	0.000522518 	4.16199e-27
0.248737 	-0.00349306 	0.000535634 	1.39991e-22
0.268359 	-0.0033165 	0.000545631 	4.3494e-27
0.289444 	-0.00311097 	0.000551645 	1.45447e-22
0.312103 	-0.00287214 	0.000552617 	1.49757e-22
0.336452 	-0.00259477 	0.000547244 	-9.4956e-27
0.362618 	-0.00227246 	0.00053393 	4.92828e-27
0.390735 	-0.00189727 	0.000510721 	-5.13065e-27
0.420951 	-0.00145921 	0.000475244 	5.3832e-27
0.453421 	-0.000945461 	0.000424651 	5.67753e-27
0.488313 	-0.000339372 	0.000355602 	-6.04647e-27
0.525809 	0.00038099 	0.00026436 	0
0.566102 	0.00124467 	0.000147047 	0
0.609402 	0.00229003 	1.82971e-07 	0
0.655932 	0.00356541 	-0.00017812 	-1.84742e-21
0.705933 	0.0051262 	-0.000386055 	-1.85666e-21
0.759665 	0.00702273 	-0.000614919 	1.77003e-21
0.817405 	0.00927289 	-0.000845914 	-3.15666e-27
0.879454 	0.0118208 	-0.00105033 	-2.89078e-27
0.946132 	0.0145067 	-0.00119839 	2.65363e-21
1.01778 	0.0170966 	-0.00127552 	2.3155e-21
1.09478 	0.0193841 	-0.00129083 	-2.03112e-21
1.15076 	0.0212833 	-0.00126732 	1.66526e-27
1.19365 	0.0213197 	-0.00120624 	0
1.26656 	0.0228711 	-0.00117007 	-1.53302e-21
1.36221 	0.0241545 	-0.00112873 	-2.75582e-21
1.46498 	0.0252698 	-0.00108472 	2.45014e-21
1.57144 	0.02625 	-0.00103676 	4.7442e-21
1.67418 	0.0270814 	-0.00098542 	0
1.76978 	0.0277733 	-0.000932746 	0
1.85873 	0.0283503 	-0.000879875 	3.24435e-22
1.9415 	0.0288295 	-0.000827923 	9.95613e-22
2.01851 	0.0292246 	-0.000777779 	3.46469e-22
2.09017 	0.0295475 	-0.000730019 	-1.77368e-21
2.15685 	0.029809 	-0.000684955 	3.68553e-22
2.21889 	0.0300185 	-0.000642701 	-3.69354e-22
2.27662 	0.030184 	-0.000603245 	7.75195e-22
2.33034 	0.0303125 	-0.000566491 	0
2.38032 	0.0304094 	-0.000532303 	-8.2986e-22
2.42683 	0.0304795 	-0.000500522 	4.27325e-22
2.47011 	0.0305265 	-0.000470981 	0
2.51039 	0.0305531 	-0.000443519 	0
2.54786 	0.0305618 	-0.00041798 	4.7092e-22
2.5744 	0.0305541 	-0.000394216 	-2.43061e-22
2.59121 	0.030605 	-0.000379454 	4.80651e-22
2.6152 	0.0305819 	-0.000358369 	0
2.64541 	0.0305446 	-0.000338737 	-5.21613e-22
2.67353 	0.0304939 	-0.000320442 	5.44794e-22
2.69968 	0.0304298 	-0.000303376 	-2.84266e-22
2.72402 	0.0303524 	-0.000287437 	-2.98745e-22
2.74666 	0.0302616 	-0.00027253 	6.32657e-22
2.76774 	0.0301568 	-0.000258565 	-5.01843e-22
2.78734 	0.0300376 	-0.000245453 	0
2.80558 	0.029903 	-0.000233111 	0
2.82256 	0.0297521 	-0.000221458 	3.99888e-22
2.83835 	0.0295837 	-0.000210414 	7.28858e-26
2.85305 	0.0293962 	-0.000199904 	6.58477e-26
2.86673 	0.0291881 	-0.000189853 	-6.09017e-22
2.87945 	0.0289574 	-0.00018019 	1.30097e-22
2.89129 	0.028702 	-0.000170847 	0
2.90231 	0.0284197 	-0.000161761 	-5.2698e-22
2.91257 	0.0281077 	-0.000152874 	7.28199e-22
2.92211 	0.0277635 	-0.000144139 	8.65984e-23
2.93098 	0.027384 	-0.000135513 	0
2.93925 	0.0269665 	-0.000126968 	-4.01274e-22
2.94693 	0.0265079 	-0.000118485 	3.22788e-22
2.95409 	0.0260054 	-0.000110062 	-4.6108e-22
2.96074 	0.0254564 	-0.000101707 	-5.74647e-27
2.96694 	0.0248585 	-9.34429e-05 	1.0535e-21
2.9727 	0.0242098 	-8.5303e-05 	-5.61563e-22
2.97806 	0.0235085 	-7.73305e-05 	-3.75198e-23
2.98306 	0.0227534 	-6.95753e-05 	-7.93564e-23
2.9877 	0.0219439 	-6.20904e-05 	4.18888e-23
2.99202 	0.0210794 	-5.49292e-05 	8.9107e-23
2.99604 	0.0201601 	-4.81421e-05 	3.53142e-22
2.99979 	0.0191863 	-4.17745e-05 	-3.97717e-22
3.00327 	0.018159 	-3.58646e-05 	-2.6311e-23
3.00651 	0.0170797 	-3.04416e-05 	-2.49243e-25
3.00953 	0.0159506 	-2.55248e-05 	-2.59904e-22
3.01233 	0.0147753 	-2.1124e-05 	4.83251e-22
3.01494 	0.0135589 	-1.72406e-05 	-2.35613e-22
3.01737 	0.0123087 	-1.38591e-05 	2.75174e-22
3.01963 	0.0110435 	-1.09428e-05 	-3.93574e-22
3.02174 	0.00979031 	-8.47916e-06 	1.30681e-22
3.0237 	0.00856451 	-6.41141e-06 	-8.02374e-24
3.02552 	0.00737188 	-4.70338e-06 	0
3.02721 	0.00621832 	-3.3224e-06 	1.3079e-22
3.02879 	0.00510988 	-2.2328e-06 	-1.8591e-22
3.03026 	0.0040523 	-1.39937e-06 	5.70118e-23
3.03163 	0.00305022 	-7.89296e-07 	0
3.0329 	0.00210663 	-3.7233e-07 	0
3.03408 	0.00122263 	-1.17089e-07 	2.72759e-26
3.03518 	0.000397621 	2.27386e-08 	1.91275e-24
