0.448616 	-6.78221e-05 	5.27063e-05 	-2.92799e-20
0.449587 	-0.000204342 	0.000159169 	-6.87137e-25
0.450629 	-0.000342712 	0.000267013 	-4.50564e-20
0.45175 	-0.000478927 	0.000373205 	4.42611e-20
0.452954 	-0.000610311 	0.000475701 	-1.31447e-24
0.454248 	-0.000735617 	0.00057355 	-4.11658e-20
0.455638 	-0.000854573 	0.000666555 	7.9007e-20
0.457133 	-0.00096741 	0.000754912 	-3.51511e-24
0.458738 	-0.00107455 	0.000838963 	-3.65703e-20
0.460463 	-0.00117642 	0.000919068 	0
0.462317 	-0.00127343 	0.000995552 	2.10218e-24
0.464309 	-0.00136591 	0.00106868 	3.3286e-20
0.466449 	-0.0014541 	0.00113868 	-6.48493e-20
0.46875 	-0.00153817 	0.0012057 	6.27087e-20
0.471221 	-0.00161674 	0.00126868 	-2.96706e-20
0.473877 	-0.00168795 	0.0013262 	-2.76471e-20
0.47673 	-0.0017519 	0.00137834 	2.58121e-20
0.479797 	-0.00180944 	0.00142581 	-2.94286e-24
0.483091 	-0.00186128 	0.00146914 	-2.29464e-20
0.486632 	-0.00190793 	0.00150877 	2.18366e-20
0.490436 	-0.0019498 	0.00154502 	-2.08866e-20
0.494523 	-0.00198721 	0.00157817 	2.00954e-20
0.498915 	-0.00202036 	0.00160839 	-1.94246e-20
0.503634 	-0.00204941 	0.00163582 	1.8859e-20
0.508704 	-0.00207441 	0.00166053 	1.83922e-20
0.514152 	-0.00209537 	0.00168257 	-1.80202e-20
0.520005 	-0.00211222 	0.00170191 	1.77267e-20
0.526294 	-0.00212482 	0.0017185 	-1.75183e-20
0.533051 	-0.00213293 	0.00173221 	-1.73812e-20
0.540311 	-0.00213624 	0.00174289 	3.46854e-20
0.548111 	-0.0021343 	0.00175031 	-1.73655e-20
0.55649 	-0.00212654 	0.00175417 	0
0.565493 	-0.00211216 	0.0017541 	0
0.575166 	-0.00209015 	0.00174962 	0
0.585557 	-0.00205917 	0.00174012 	-3.54933e-23
0.59672 	-0.00201741 	0.00172487 	-3.64604e-23
0.608712 	-0.00196248 	0.00170293 	-1.94316e-20
0.621595 	-0.00189113 	0.00167314 	2.02127e-20
0.635433 	-0.00179892 	0.00163403 	0
0.650299 	-0.0016797 	0.00158377 	-2.24775e-20
0.666267 	-0.00152488 	0.00152006 	2.35706e-20
0.683419 	-0.00132233 	0.00144004 	9.93522e-23
0.701842 	-0.00105482 	0.00134021 	2.71676e-20
0.721629 	-0.000697932 	0.00121644 	-5.8489e-20
0.742882 	-0.000217279 	0.00106422 	3.15925e-20
0.765706 	0.000434584 	0.000879157 	-3.34559e-20
0.790219 	0.00132106 	0.000658075 	-3.91337e-22
0.816542 	0.00251634 	0.000401607 	1.21341e-22
0.84481 	0.00409044 	0.000117707 	3.42e-20
0.875164 	0.00607837 	-0.000175066 	-5.0437e-22
0.907756 	0.00844137 	-0.000447733 	-4.57432e-22
0.942749 	0.0110434 	-0.000668052 	-2.58997e-20
0.980319 	0.0136704 	-0.000813541 	4.42148e-20
1.02065 	0.0160968 	-0.000882338 	-3.87589e-20
1.06395 	0.0181678 	-0.00089277 	1.77127e-20
1.11042 	0.0198426 	-0.000871382 	-1.48894e-20
1.1603 	0.0211753 	-0.000839498 	1.22308e-20
1.21384 	0.022262 	-0.000807475 	-1.0868e-20
1.27129 	0.0231946 	-0.000776699 	1.07755e-20
1.33294 	0.0240405 	-0.000744231 	0
1.39909 	0.0248409 	-0.000706556 	-1.09597e-21
1.47006 	0.0256162 	-0.000661605 	-7.83811e-21
1.54619 	0.0263737 	-0.000609315 	1.19623e-20
1.62785 	0.0271129 	-0.000551187 	-3.83547e-21
1.69527 	0.0278291 	-0.000489619 	9.38362e-22
1.74059 	0.0280757 	-0.000422901 	2.81286e-21
1.806 	0.0286985 	-0.000361971 	-1.84975e-21
1.89326 	0.0292261 	-0.000309734 	-4.01241e-21
1.9743 	0.0296537 	-0.00026676 	-6.09646e-23
2.04959 	0.0299976 	-0.000231589 	4.91175e-22
2.11953 	0.0302719 	-0.000202979 	-6.30373e-22
2.18453 	0.0304885 	-0.000179781 	-6.49512e-22
2.24494 	0.0306575 	-0.000160995 	5.92315e-21
2.30108 	0.0307872 	-0.000145783 	3.25821e-22
2.35327 	0.0308842 	-0.000133453 	-3.37505e-22
2.40178 	0.0309537 	-0.000123444 	7.05569e-25
2.44688 	0.031 	-0.000115302 	0
2.48882 	0.0310262 	-0.000108665 	1.88599e-22
2.5278 	0.0310348 	-0.000103244 	-3.14231e-21
2.56406 	0.0310277 	-9.88054e-05 	3.46009e-21
2.59777 	0.0310062 	-9.51659e-05 	3.4025e-21
2.62913 	0.0309712 	-9.21776e-05 	-3.31815e-21
2.65829 	0.0309236 	-8.97226e-05 	-1.15751e-22
2.68541 	0.0308635 	-8.77061e-05 	-1.94203e-21
2.71063 	0.0307912 	-8.60516e-05 	3.94472e-21
2.73409 	0.0307067 	-8.46965e-05 	-2.2729e-21
2.75591 	0.0306097 	-8.35889e-05 	0
2.77621 	0.0305 	-8.26848e-05 	2.30671e-21
2.7951 	0.0303771 	-8.19457e-05 	-2.51443e-21
2.81266 	0.0302405 	-8.13366e-05 	-2.66447e-21
2.829 	0.0300894 	-8.08245e-05 	5.73592e-21
2.8442 	0.0299231 	-8.03771e-05 	-5.99571e-21
2.85835 	0.0297408 	-7.99617e-05 	3.18549e-21
2.8715 	0.0295414 	-7.95451e-05 	0
2.88374 	0.0293239 	-7.90927e-05 	-3.05628e-26
2.89513 	0.0290868 	-7.85687e-05 	-6.01376e-23
2.90573 	0.0288287 	-7.79368e-05 	-6.41854e-23
2.91559 	0.0285479 	-7.71601e-05 	0
2.92476 	0.0282426 	-7.62029e-05 	-3.65745e-23
2.93329 	0.0279105 	-7.50308e-05 	0
2.94123 	0.0275494 	-7.36128e-05 	0
2.94862 	0.0271564 	-7.19224e-05 	-2.90406e-21
2.95549 	0.0267288 	-6.9939e-05 	3.08102e-21
2.96189 	0.0262635 	-6.76497e-05 	0
2.96784 	0.0257573 	-6.50502e-05 	-2.73037e-23
2.97338 	0.0252068 	-6.21459e-05 	2.91623e-23
2.97853 	0.0246088 	-5.89531e-05 	1.97533e-21
2.98332 	0.02396 	-5.54981e-05 	-2.12233e-21
2.98778 	0.0232576 	-5.1818e-05 	-1.76617e-23
2.99193 	0.0224989 	-4.79583e-05 	2.38341e-21
2.9958 	0.0216817 	-4.39724e-05 	-1.2746e-21
2.99939 	0.0208046 	-3.99188e-05 	-1.34988e-21
3.00273 	0.0198668 	-3.58588e-05 	-1.43731e-21
3.00585 	0.0188686 	-3.18538e-05 	1.50249e-21
3.00874 	0.0178114 	-2.79623e-05 	0
3.01144 	0.0166982 	-2.42378e-05 	-1.63597e-21
3.01394 	0.0155338 	-2.07266e-05 	1.71437e-21
3.01628 	0.0143252 	-1.74671e-05 	-8.78361e-22
3.01845 	0.0130819 	-1.44851e-05 	-1.40926e-23
3.02047 	0.0118293 	-1.18049e-05 	9.09232e-22
3.02235 	0.0105923 	-9.45418e-06 	8.90505e-22
3.0241 	0.00937887 	-7.40677e-06 	-1.74684e-21
3.02573 	0.00819528 	-5.6567e-06 	4.25739e-22
3.02724 	0.00704753 	-4.18942e-06 	4.15634e-22
3.02865 	0.00594131 	-2.98514e-06 	0
3.02996 	0.00488176 	-2.02167e-06 	0
3.03118 	0.00387305 	-1.27563e-06 	1.81649e-22
3.03232 	0.00291803 	-7.23204e-07 	-1.71634e-22
3.03337 	0.0020181 	-3.41594e-07 	0
3.03436 	0.0011733 	-1.10896e-07 	-3.63527e-23
3.03527 	0.000382515 	-6.22906e-09 	2.44126e-23
