0.00163525 	1.7296e-06 	2.05214e-07 	-1.61544e-30 	1.73171e-06 	-3.23511e-28 	1.73065e-06
0.00282097 	2.59274e-06 	3.99557e-07 	-5.59689e-29 	2.60115e-06 	3.90416e-28 	2.59694e-06
0.00409516 	3.35113e-06 	5.35727e-07 	0 	3.37053e-06 	1.23487e-27 	3.36084e-06
0.0054644 	4.03112e-06 	6.17471e-07 	7.29591e-29 	4.06584e-06 	-1.06758e-27 	4.04857e-06
0.00693581 	4.6579e-06 	6.61005e-07 	-3.95557e-28 	4.7124e-06 	-7.5216e-29 	4.68516e-06
0.00851699 	5.25027e-06 	6.61771e-07 	-6.03151e-29 	5.32897e-06 	1.72254e-27 	5.2894e-06
0.0102161 	5.78364e-06 	7.02545e-07 	7.3384e-29 	5.90515e-06 	-8.58927e-31 	5.84433e-06
0.0120421 	6.2498e-06 	6.95574e-07 	0 	6.42407e-06 	5.9963e-27 	6.33712e-06
0.0140042 	6.66571e-06 	6.66383e-07 	4.16117e-27 	6.90185e-06 	-2.56971e-27 	6.78384e-06
0.0161127 	7.0446e-06 	6.22366e-07 	-2.80169e-27 	7.3506e-06 	-9.18909e-27 	7.1976e-06
0.0183786 	7.39547e-06 	5.66606e-07 	2.27629e-28 	7.77933e-06 	4.30576e-27 	7.5874e-06
0.0208135 	7.72458e-06 	5.01037e-07 	1.11561e-27 	8.19449e-06 	1.05974e-28 	7.95954e-06
0.0234301 	8.03687e-06 	4.26603e-07 	-1.50945e-27 	8.60113e-06 	-7.06598e-27 	8.319e-06
0.0262418 	8.33592e-06 	3.43728e-07 	-9.34626e-27 	9.00301e-06 	6.38764e-27 	8.66947e-06
0.0292634 	8.62465e-06 	2.52581e-07 	1.0036e-26 	9.40322e-06 	9.77262e-27 	9.01394e-06
0.0325104 	8.90536e-06 	1.5298e-07 	0 	9.80424e-06 	-8.87803e-27 	9.3548e-06
0.0359997 	9.18018e-06 	4.48221e-08 	0 	1.02084e-05 	-1.53072e-26 	9.69426e-06
0.0397492 	9.45082e-06 	-7.20331e-08 	-2.2706e-26 	1.06174e-05 	-1.79618e-26 	1.00341e-05
0.0437785 	9.71879e-06 	-1.98325e-07 	-1.70744e-26 	1.10331e-05 	3.10399e-26 	1.03759e-05
0.0481085 	9.98572e-06 	-3.34264e-07 	1.64413e-26 	1.14569e-05 	2.06567e-26 	1.07213e-05
0.0527615 	1.0253e-05 	-4.80626e-07 	1.98763e-27 	1.18904e-05 	-1.79439e-26 	1.10717e-05
0.0577616 	1.05221e-05 	-6.38098e-07 	0 	1.23349e-05 	-3.17301e-26 	1.14285e-05
0.0631348 	1.07944e-05 	-8.06998e-07 	-4.80297e-26 	1.27915e-05 	-7.10086e-26 	1.17929e-05
0.0689088 	1.10714e-05 	-9.88471e-07 	-8.1437e-26 	1.32615e-05 	2.04066e-26 	1.21665e-05
0.0751137 	1.13548e-05 	-1.1831e-06 	0 	1.37462e-05 	6.17376e-27 	1.25505e-05
0.0817815 	1.16461e-05 	-1.39195e-06 	-8.76999e-26 	1.42466e-05 	4.85499e-26 	1.29463e-05
0.0889467 	1.19473e-05 	-1.61598e-06 	6.45958e-26 	1.47639e-05 	1.53284e-25 	1.33556e-05
0.0966466 	1.22603e-05 	-1.85597e-06 	6.07194e-26 	1.52992e-05 	-5.07329e-26 	1.37797e-05
0.104921 	1.25872e-05 	-2.11312e-06 	0 	1.58536e-05 	-4.13947e-27 	1.42204e-05
0.113813 	1.29302e-05 	-2.38853e-06 	4.30023e-26 	1.64282e-05 	2.84099e-25 	1.46792e-05
0.123368 	1.32917e-05 	-2.68352e-06 	2.16446e-25 	1.70241e-05 	-2.35859e-25 	1.51579e-05
0.133635 	1.36744e-05 	-2.99905e-06 	-2.4344e-25 	1.76424e-05 	-3.74897e-25 	1.56584e-05
0.144669 	1.40812e-05 	-3.3364e-06 	0 	1.8284e-05 	2.72678e-25 	1.61826e-05
0.156527 	1.45148e-05 	-3.69699e-06 	0 	1.89501e-05 	1.31794e-25 	1.67325e-05
0.169268 	1.49785e-05 	-4.082e-06 	5.1531e-26 	1.96415e-05 	5.96253e-26 	1.731e-05
0.182961 	1.54754e-05 	-4.49266e-06 	0 	2.03591e-05 	-1.34962e-25 	1.79173e-05
0.197675 	1.60087e-05 	-4.93023e-06 	5.1279e-26 	2.11034e-05 	2.56889e-25 	1.85561e-05
0.213487 	1.65817e-05 	-5.39579e-06 	4.23651e-26 	2.1875e-05 	1.38108e-25 	1.92283e-05
0.230478 	1.71974e-05 	-5.89026e-06 	1.12013e-25 	2.26736e-05 	-1.90812e-27 	1.99355e-05
0.248737 	1.78587e-05 	-6.41438e-06 	-2.7085e-25 	2.34988e-05 	-3.5393e-25 	2.06787e-05
0.268359 	1.85679e-05 	-6.96855e-06 	5.70857e-26 	2.43491e-05 	-6.65476e-26 	2.14585e-05
0.289444 	1.93265e-05 	-7.55263e-06 	-2.82382e-25 	2.52221e-05 	8.19958e-25 	2.22743e-05
0.312103 	2.01354e-05 	-8.16614e-06 	1.42883e-25 	2.6114e-05 	-4.94408e-25 	2.31247e-05
0.336452 	2.09933e-05 	-8.80735e-06 	3.02032e-25 	2.70187e-05 	4.65839e-25 	2.4006e-05
0.362618 	2.18978e-05 	-9.47349e-06 	-5.06944e-26 	2.79278e-05 	3.40644e-25 	2.49128e-05
0.390735 	2.28428e-05 	-1.01607e-05 	0 	2.88296e-05 	-1.38233e-24 	2.58362e-05
0.420951 	2.38195e-05 	-1.08626e-05 	1.76777e-24 	2.97083e-05 	-7.02068e-25 	2.67638e-05
0.453421 	2.4814e-05 	-1.15708e-05 	-3.64367e-25 	3.05424e-05 	8.95022e-25 	2.76782e-05
0.488313 	2.58071e-05 	-1.22732e-05 	3.89737e-25 	3.13047e-05 	-8.36759e-25 	2.8556e-05
0.525809 	2.6772e-05 	-1.29538e-05 	3.6253e-24 	3.19609e-05 	8.68531e-25 	2.93665e-05
0.566102 	2.7674e-05 	-1.35917e-05 	-6.16735e-24 	3.24682e-05 	3.67016e-24 	3.00712e-05
0.609402 	2.8469e-05 	-1.416e-05 	-4.85068e-24 	3.27764e-05 	-1.16115e-25 	3.06228e-05
0.655932 	2.91031e-05 	-1.46257e-05 	0 	3.28295e-05 	1.18245e-24 	3.09663e-05
0.705933 	2.95152e-05 	-1.49505e-05 	-1.15605e-23 	3.25684e-05 	4.96936e-24 	3.10418e-05
0.759665 	2.96412e-05 	-1.50927e-05 	-1.00191e-23 	3.19407e-05 	8.56249e-26 	3.07912e-05
0.817405 	2.94244e-05 	-1.50132e-05 	0 	3.09115e-05 	-4.1353e-24 	3.0168e-05
0.879454 	2.8829e-05 	-1.46865e-05 	1.41608e-23 	2.94807e-05 	-5.51818e-25 	2.91549e-05
0.946132 	2.78584e-05 	-1.41086e-05 	-1.35965e-23 	2.76969e-05 	3.95819e-24 	2.77775e-05
1.01778 	2.65673e-05 	-1.33068e-05 	0 	2.56622e-05 	-1.65928e-24 	2.61144e-05
1.09478 	2.50564e-05 	-1.23397e-05 	-2.71918e-24 	2.35191e-05 	2.43127e-24 	2.42876e-05
1.17753 	2.34496e-05 	-1.12841e-05 	-3.28634e-23 	2.14122e-05 	3.53082e-24 	2.24308e-05
1.26644 	2.18542e-05 	-1.02155e-05 	0 	1.94493e-05 	-4.38251e-24 	2.06519e-05
1.36199 	2.0335e-05 	-9.188e-06 	3.63953e-23 	1.76748e-05 	2.10301e-24 	1.9005e-05
1.46467 	1.89051e-05 	-8.23042e-06 	-1.3001e-22 	1.60726e-05 	1.37696e-23 	1.74885e-05
1.57104 	1.75863e-05 	-7.35978e-06 	-8.78624e-23 	1.46406e-05 	1.60629e-24 	1.61133e-05
1.67372 	1.64124e-05 	-6.59545e-06 	-5.05062e-23 	1.33905e-05 	-1.05718e-24 	1.49016e-05
1.76927 	1.53742e-05 	-5.92058e-06 	0 	1.22955e-05 	-2.04078e-24 	1.38345e-05
1.85819 	1.44377e-05 	-5.30247e-06 	0 	1.13199e-05 	2.51974e-24 	1.28791e-05
1.94093 	1.35893e-05 	-4.72202e-06 	-6.98301e-23 	1.04454e-05 	2.7128e-24 	1.20175e-05
2.01793 	1.28187e-05 	-4.17102e-06 	2.74487e-24 	9.665e-06 	-2.74013e-24 	1.12417e-05
2.08958 	1.21187e-05 	-3.64639e-06 	0 	8.97398e-06 	1.66415e-24 	1.05463e-05
2.15626 	1.14843e-05 	-3.14614e-06 	-4.12789e-23 	8.36685e-06 	1.28677e-24 	9.9254e-06
2.21831 	1.09081e-05 	-2.6715e-06 	0 	7.83895e-06 	-1.7296e-24 	9.37374e-06
2.27605 	1.03859e-05 	-2.22101e-06 	0 	7.38307e-06 	2.10096e-24 	8.8842e-06
2.32978 	9.90965e-06 	-1.79674e-06 	-5.0539e-23 	6.99383e-06 	1.19883e-24 	8.45172e-06
2.37978 	9.47592e-06 	-1.39739e-06 	4.39941e-26 	6.66364e-06 	-2.11251e-24 	8.06944e-06
2.42631 	9.07853e-06 	-1.02125e-06 	0 	6.38662e-06 	-1.14177e-26 	7.73244e-06
2.46961 	8.71443e-06 	-6.69788e-07 	6.74952e-25 	6.15649e-06 	-7.90038e-27 	7.43568e-06
2.50991 	8.38167e-06 	-3.41271e-07 	-6.57182e-25 	5.96704e-06 	7.69232e-27 	7.17429e-06
2.5474 	8.07688e-06 	-3.40559e-08 	0 	5.8139e-06 	0 	6.94542e-06
2.58229 	7.79949e-06 	2.5145e-07 	0 	5.69212e-06 	7.57518e-25 	6.74559e-06
2.61476 	7.54759e-06 	5.16821e-07 	-1.42278e-23 	5.59853e-06 	1.85491e-25 	6.57308e-06
2.64498 	7.32201e-06 	7.64175e-07 	-8.20262e-25 	5.52937e-06 	-6.78354e-25 	6.42552e-06
2.6731 	7.12178e-06 	9.93855e-07 	0 	5.48274e-06 	-6.86712e-27 	6.30223e-06
2.69926 	6.94787e-06 	1.20816e-06 	-2.55372e-25 	5.45661e-06 	4.31927e-25 	6.20215e-06
2.72361 	6.80039e-06 	1.40711e-06 	-6.77675e-24 	5.45014e-06 	4.91466e-25 	6.1253e-06
2.74627 	6.68068e-06 	1.59123e-06 	-6.10475e-24 	5.46262e-06 	-1.21274e-24 	6.07164e-06
2.76736 	6.58931e-06 	1.76302e-06 	1.15299e-23 	5.49442e-06 	-2.11363e-25 	6.04193e-06
2.78698 	6.52784e-06 	1.92293e-06 	-2.82419e-24 	5.54599e-06 	7.56586e-25 	6.03691e-06
2.80524 	6.4972e-06 	2.07163e-06 	-9.47764e-26 	5.61861e-06 	-4.15062e-25 	6.05793e-06
2.82223 	6.49903e-06 	2.20886e-06 	2.34144e-24 	5.71358e-06 	-2.36487e-25 	6.10623e-06
2.83804 	6.53424e-06 	2.33609e-06 	2.17421e-24 	5.83271e-06 	1.8352e-25 	6.18344e-06
2.85275 	6.60408e-06 	2.45439e-06 	3.8699e-26 	5.97754e-06 	4.18898e-25 	6.29082e-06
2.86645 	6.70939e-06 	2.56266e-06 	-1.85673e-24 	6.14939e-06 	-1.38885e-27 	6.42936e-06
2.87919 	6.85003e-06 	2.66172e-06 	3.36098e-26 	6.3493e-06 	-3.05247e-25 	6.59967e-06
2.89104 	7.02543e-06 	2.75087e-06 	8.15487e-25 	6.57726e-06 	2.38734e-27 	6.80131e-06
2.90208 	7.23368e-06 	2.83011e-06 	1.45529e-26 	6.83245e-06 	2.11357e-25 	7.03307e-06
2.91235 	7.47168e-06 	2.89877e-06 	-7.02897e-25 	7.11243e-06 	1.69651e-25 	7.29209e-06
2.9219 	7.73507e-06 	2.95588e-06 	-9.27798e-25 	7.41347e-06 	-1.01512e-25 	7.57426e-06
2.93079 	8.0178e-06 	3.00183e-06 	-1.16849e-26 	7.73046e-06 	-8.4393e-26 	7.87414e-06
2.93907 	8.31283e-06 	3.03473e-06 	-2.58377e-25 	8.05665e-06 	-3.18427e-27 	8.18473e-06
2.94677 	8.61179e-06 	3.05439e-06 	1.41168e-26 	8.38422e-06 	9.18863e-27 	8.49799e-06
2.95393 	8.90578e-06 	3.06014e-06 	-2.20811e-25 	8.70463e-06 	-5.82667e-26 	8.80519e-06
2.9606 	9.18536e-06 	3.0512e-06 	2.0073e-25 	9.00864e-06 	-4.38843e-26 	9.097e-06
2.96681 	9.44099e-06 	3.02772e-06 	3.5605e-27 	9.28687e-06 	4.63637e-26 	9.36393e-06
2.97258 	9.66342e-06 	2.98866e-06 	-1.83498e-27 	9.53017e-06 	5.01714e-28 	9.5968e-06
2.97795 	9.8437e-06 	2.93407e-06 	-3.8688e-27 	9.72963e-06 	1.92354e-29 	9.78667e-06
2.98295 	9.97327e-06 	2.86411e-06 	0 	9.87673e-06 	-1.34289e-26 	9.925e-06
2.98761 	1.00441e-05 	2.77811e-06 	3.24138e-26 	9.96348e-06 	7.98915e-28 	1.00038e-05
2.99194 	1.00489e-05 	2.67583e-06 	-6.51393e-28 	9.98255e-06 	2.33563e-26 	1.00157e-05
2.99597 	9.98059e-06 	2.55719e-06 	-2.4397e-26 	9.92688e-06 	-7.85191e-28 	9.95373e-06
2.99971 	9.83291e-06 	2.42167e-06 	0 	9.79029e-06 	-2.15818e-26 	9.8116e-06
3.0032 	9.60035e-06 	2.26905e-06 	1.81407e-26 	9.56725e-06 	7.22161e-28 	9.5838e-06
3.00645 	9.27873e-06 	2.09861e-06 	3.96674e-28 	9.25367e-06 	8.81976e-27 	9.2662e-06
3.00947 	8.86574e-06 	1.91019e-06 	0 	8.84732e-06 	-4.83731e-27 	8.85653e-06
3.01228 	8.36241e-06 	1.70403e-06 	5.69427e-27 	8.34933e-06 	2.84007e-28 	8.35587e-06
3.0149 	7.77439e-06 	1.48129e-06 	0 	7.76547e-06 	1.37923e-27 	7.76993e-06
3.01734 	7.11437e-06 	1.24535e-06 	1.5793e-27 	7.10857e-06 	1.09175e-28 	7.11147e-06
3.0196 	6.40436e-06 	9.9742e-07 	0 	6.40078e-06 	1.16975e-27 	6.40257e-06
3.02171 	5.68663e-06 	8.16869e-07 	0 	5.68435e-06 	-2.13376e-27 	5.68549e-06
3.02367 	4.98459e-06 	6.61816e-07 	1.16027e-27 	4.98314e-06 	9.98504e-28 	4.98387e-06
3.0255 	4.30719e-06 	5.13551e-07 	-4.14559e-28 	4.30631e-06 	1.26757e-27 	4.30675e-06
3.0272 	3.66324e-06 	3.78654e-07 	0 	3.66274e-06 	-7.52279e-28 	3.66299e-06
3.02878 	3.06188e-06 	2.62263e-07 	7.28509e-29 	3.06161e-06 	-1.62454e-28 	3.06175e-06
