0.000531856 	5.44461e-07 	-1.71524e-08 	6.27986e-30 	5.44405e-07 	-4.33348e-28 	5.44432e-07
0.00163525 	1.23505e-06 	-1.34788e-07 	8.53211e-29 	1.23363e-06 	7.29159e-28 	1.23435e-06
0.00282097 	1.88897e-06 	-3.05118e-07 	2.26844e-28 	1.88316e-06 	6.09285e-27 	1.88607e-06
0.00409515 	2.48745e-06 	-4.67505e-07 	-1.59491e-25 	2.47366e-06 	-2.67932e-27 	2.48055e-06
0.0054644 	3.0362e-06 	-6.03859e-07 	2.15958e-25 	3.01115e-06 	-5.78444e-27 	3.02364e-06
0.0069358 	3.54761e-06 	-7.17058e-07 	2.11335e-27 	3.50834e-06 	-9.2952e-28 	3.52791e-06
0.00851699 	4.0334e-06 	-8.06791e-07 	-3.18087e-25 	3.97696e-06 	2.66606e-28 	4.00523e-06
0.0102161 	4.49711e-06 	-8.99008e-07 	3.69459e-25 	4.41721e-06 	3.3534e-26 	4.45729e-06
0.0120421 	4.92867e-06 	-1.02317e-06 	4.35138e-25 	4.81322e-06 	4.02364e-26 	4.87089e-06
0.0140042 	5.32262e-06 	-1.11145e-06 	-5.12264e-25 	5.16629e-06 	-8.18477e-26 	5.24432e-06
0.0161127 	5.68927e-06 	-1.18842e-06 	1.81062e-26 	5.48713e-06 	9.39723e-27 	5.58816e-06
0.0183786 	6.03594e-06 	-1.25861e-06 	-6.53779e-25 	5.78391e-06 	5.34615e-26 	5.90989e-06
0.0208135 	6.36808e-06 	-1.3251e-06 	6.70019e-25 	6.06232e-06 	3.05889e-26 	6.21516e-06
0.0234301 	6.68978e-06 	-1.39008e-06 	-7.93253e-25 	6.32665e-06 	-1.26041e-25 	6.50816e-06
0.0262418 	7.00417e-06 	-1.45485e-06 	8.65783e-25 	6.58027e-06 	-8.74037e-26 	6.79216e-06
0.0292634 	7.31362e-06 	-1.52071e-06 	9.87853e-25 	6.82577e-06 	9.4078e-26 	7.06961e-06
0.0325104 	7.62011e-06 	-1.5886e-06 	-1.97102e-24 	7.06542e-06 	-9.03408e-26 	7.34267e-06
0.0359996 	7.92533e-06 	-1.65926e-06 	1.1695e-24 	7.30114e-06 	5.23319e-26 	7.61313e-06
0.0397492 	8.23047e-06 	-1.73334e-06 	2.29384e-27 	7.53442e-06 	1.00242e-25 	7.88231e-06
0.0437785 	8.53669e-06 	-1.81172e-06 	-1.24666e-24 	7.76675e-06 	-6.58233e-26 	8.15156e-06
0.0481085 	8.84501e-06 	-1.89493e-06 	2.72658e-24 	7.99952e-06 	1.44643e-25 	8.42207e-06
0.0527615 	9.15631e-06 	-1.98336e-06 	-1.44745e-24 	8.23398e-06 	-7.1665e-26 	8.69491e-06
0.0577616 	9.47136e-06 	-2.07804e-06 	-1.24307e-26 	8.47136e-06 	1.76635e-25 	8.97108e-06
0.0631348 	9.79083e-06 	-2.17954e-06 	1.43701e-24 	8.71273e-06 	8.91772e-26 	9.25145e-06
0.0689088 	1.01155e-05 	-2.2883e-06 	-1.83967e-24 	8.95946e-06 	-2.97621e-25 	9.53708e-06
0.0751137 	1.04458e-05 	-2.40503e-06 	6.26662e-26 	9.21255e-06 	1.83235e-26 	9.8287e-06
0.0817815 	1.07826e-05 	-2.53064e-06 	-2.12992e-24 	9.47338e-06 	-1.11284e-25 	1.01274e-05
0.0889467 	1.11264e-05 	-2.66585e-06 	3.62996e-26 	9.74311e-06 	-3.5665e-25 	1.04341e-05
0.0966466 	1.14779e-05 	-2.81129e-06 	5.64168e-24 	1.0023e-05 	6.47369e-25 	1.07497e-05
0.104921 	1.18377e-05 	-2.96791e-06 	-3.4041e-24 	1.03144e-05 	2.04224e-25 	1.10752e-05
0.113813 	1.22067e-05 	-3.13641e-06 	-8.31879e-26 	1.06188e-05 	3.19304e-25 	1.14117e-05
0.123368 	1.25855e-05 	-3.31779e-06 	-1.3734e-24 	1.09374e-05 	-1.41508e-26 	1.17603e-05
0.133635 	1.29751e-05 	-3.51305e-06 	1.98452e-25 	1.12717e-05 	-7.55766e-25 	1.21222e-05
0.144669 	1.33763e-05 	-3.72278e-06 	3.3908e-24 	1.16233e-05 	3.04646e-24 	1.24984e-05
0.156527 	1.37901e-05 	-3.94847e-06 	-6.16346e-24 	1.19938e-05 	-2.20259e-25 	1.28903e-05
0.169268 	1.42178e-05 	-4.19096e-06 	-3.36649e-24 	1.23846e-05 	-3.12557e-24 	1.32994e-05
0.182961 	1.46604e-05 	-4.45092e-06 	8.88981e-34 	1.27974e-05 	1.04301e-26 	1.3727e-05
0.197675 	1.51195e-05 	-4.72987e-06 	2.70338e-25 	1.32338e-05 	1.43135e-24 	1.41745e-05
0.213487 	1.55962e-05 	-5.02889e-06 	-8.87404e-24 	1.36953e-05 	-3.30202e-24 	1.46435e-05
0.230478 	1.60922e-05 	-5.34857e-06 	1.79971e-23 	1.41834e-05 	-4.77581e-25 	1.51354e-05
0.248737 	1.66092e-05 	-5.69008e-06 	-5.51421e-24 	1.46996e-05 	8.14216e-24 	1.56518e-05
0.268359 	1.71486e-05 	-6.05454e-06 	-1.54427e-23 	1.52449e-05 	1.99349e-24 	1.61941e-05
0.289444 	1.77121e-05 	-6.44226e-06 	-1.44064e-23 	1.58203e-05 	-6.49347e-24 	1.67636e-05
0.312103 	1.83011e-05 	-6.85388e-06 	5.9224e-27 	1.64263e-05 	-2.76494e-24 	1.73611e-05
0.336452 	1.89168e-05 	-7.28975e-06 	3.68675e-24 	1.7063e-05 	-5.36812e-24 	1.79874e-05
0.362618 	1.95597e-05 	-7.74939e-06 	1.59926e-23 	1.77293e-05 	5.95915e-25 	1.86422e-05
0.390735 	2.02298e-05 	-8.23216e-06 	4.21568e-31 	1.84237e-05 	5.23318e-24 	1.93247e-05
0.420951 	2.09258e-05 	-8.73634e-06 	-7.96075e-24 	1.91429e-05 	9.2522e-24 	2.00327e-05
0.453421 	2.16451e-05 	-9.25948e-06 	-2.32168e-23 	1.98822e-05 	-1.04834e-23 	2.07623e-05
0.488313 	2.23825e-05 	-9.79805e-06 	2.1416e-23 	2.06344e-05 	-8.88178e-24 	2.15075e-05
0.525809 	2.31302e-05 	-1.03465e-05 	1.35901e-23 	2.13898e-05 	9.28058e-24 	2.22596e-05
0.566102 	2.38766e-05 	-1.08975e-05 	-9.11362e-24 	2.21349e-05 	-5.29332e-25 	2.30059e-05
0.609402 	2.46051e-05 	-1.14418e-05 	-1.41956e-28 	2.28525e-05 	2.81114e-29 	2.37294e-05
0.655932 	2.52931e-05 	-1.19663e-05 	9.38718e-24 	2.35202e-05 	1.51032e-23 	2.44079e-05
0.705933 	2.59113e-05 	-1.24555e-05 	-1.02708e-22 	2.41105e-05 	-1.91571e-23 	2.50128e-05
0.759665 	2.64222e-05 	-1.28911e-05 	6.61137e-23 	2.45901e-05 	-1.05182e-23 	2.55087e-05
0.817405 	2.6781e-05 	-1.32483e-05 	9.36888e-24 	2.49206e-05 	1.35163e-23 	2.58537e-05
0.879454 	2.69344e-05 	-1.35009e-05 	9.17325e-24 	2.50606e-05 	-2.0257e-23 	2.6001e-05
0.946132 	2.68269e-05 	-1.36213e-05 	1.83829e-22 	2.49678e-05 	9.27462e-24 	2.59013e-05
1.01778 	2.64039e-05 	-1.35817e-05 	2.09376e-30 	2.46049e-05 	3.61277e-23 	2.55086e-05
1.09478 	2.56213e-05 	-1.33566e-05 	-1.68049e-22 	2.39475e-05 	-8.12762e-24 	2.47887e-05
1.15076 	2.44576e-05 	-1.2932e-05 	-1.55067e-23 	2.29917e-05 	-1.63782e-23 	2.37289e-05
1.19365 	2.4527e-05 	-1.31602e-05 	1.28774e-22 	2.32796e-05 	4.27359e-23 	2.39274e-05
1.26656 	2.29931e-05 	-1.25283e-05 	-1.60629e-22 	2.20786e-05 	-4.66648e-23 	2.25582e-05
1.36221 	2.11361e-05 	-1.17065e-05 	7.67876e-22 	2.06428e-05 	7.92272e-24 	2.09094e-05
1.46498 	1.90471e-05 	-1.07269e-05 	2.44412e-22 	1.90472e-05 	7.76346e-23 	1.90653e-05
1.57144 	1.69243e-05 	-9.6684e-06 	-3.31416e-22 	1.74348e-05 	-3.80698e-23 	1.71949e-05
1.67418 	1.50061e-05 	-8.64029e-06 	8.56325e-22 	1.5975e-05 	3.38975e-23 	1.55029e-05
1.76978 	1.33752e-05 	-7.69563e-06 	-2.73795e-22 	1.47171e-05 	4.31129e-23 	1.40565e-05
1.85873 	1.20054e-05 	-6.83127e-06 	-2.8226e-22 	1.36322e-05 	-2.33565e-23 	1.28268e-05
1.9415 	1.0857e-05 	-6.03813e-06 	-5.39557e-23 	1.26927e-05 	-3.0364e-23 	1.17813e-05
2.01851 	9.89412e-06 	-5.30567e-06 	3.52037e-22 	1.18734e-05 	-4.98276e-24 	1.08889e-05
2.09017 	9.08601e-06 	-4.62525e-06 	3.43275e-22 	1.11541e-05 	2.61459e-23 	1.01237e-05
2.15685 	8.40599e-06 	-3.99029e-06 	9.17387e-23 	1.05193e-05 	1.38626e-23 	9.4657e-06
2.21889 	7.83512e-06 	-3.39683e-06 	6.34558e-23 	9.95545e-06 	-6.44063e-24 	8.89724e-06
2.27662 	7.35557e-06 	-2.84305e-06 	2.51701e-22 	9.4526e-06 	4.49359e-24 	8.40523e-06
2.33034 	6.95295e-06 	-2.32451e-06 	1.35892e-22 	9.00293e-06 	1.45598e-24 	7.97911e-06
2.38032 	6.61749e-06 	-1.83945e-06 	2.64759e-22 	8.59888e-06 	1.70472e-23 	7.60903e-06
2.42683 	6.33971e-06 	-1.38756e-06 	-4.66175e-23 	8.23524e-06 	1.1867e-23 	7.28765e-06
2.47011 	6.11029e-06 	-9.67733e-07 	-3.22092e-24 	7.90866e-06 	6.36217e-24 	7.00965e-06
2.51039 	5.9236e-06 	-5.78009e-07 	-1.60689e-22 	7.61552e-06 	-1.81411e-25 	6.76968e-06
2.54786 	5.77446e-06 	-2.1623e-07 	-5.75442e-23 	7.35361e-06 	-2.00082e-23 	6.56391e-06
2.5744 	5.65797e-06 	1.18087e-07 	1.65877e-22 	7.12155e-06 	3.96653e-24 	6.38944e-06
2.59121 	5.56889e-06 	1.20232e-07 	-1.01699e-22 	7.20735e-06 	-5.22239e-24 	6.38852e-06
2.6152 	5.48892e-06 	4.30322e-07 	4.97881e-23 	6.99642e-06 	-1.66971e-24 	6.24281e-06
2.64541 	5.43438e-06 	7.1571e-07 	-5.34826e-23 	6.81472e-06 	9.38115e-24 	6.12503e-06
2.67353 	5.40402e-06 	9.78133e-07 	-1.00139e-22 	6.66175e-06 	-1.2648e-23 	6.03358e-06
2.69968 	5.39671e-06 	1.22086e-06 	8.94381e-23 	6.53757e-06 	-1.20649e-24 	5.9677e-06
2.72402 	5.41092e-06 	1.44291e-06 	-4.84431e-23 	6.44278e-06 	1.65298e-24 	5.92739e-06
2.74666 	5.44606e-06 	1.64622e-06 	4.91517e-23 	6.3779e-06 	5.79012e-24 	5.91269e-06
2.76774 	5.50266e-06 	1.83249e-06 	-8.37211e-23 	6.343e-06 	-8.27765e-24 	5.92344e-06
2.78734 	5.58019e-06 	2.00154e-06 	9.88874e-23 	6.33857e-06 	-3.021e-24 	5.96004e-06
2.80558 	5.6791e-06 	2.1548e-06 	-2.14263e-23 	6.36439e-06 	7.04797e-24 	6.02233e-06
2.82256 	5.79907e-06 	2.29353e-06 	9.15582e-24 	6.42008e-06 	-5.0952e-25 	6.11017e-06
2.83835 	5.93987e-06 	2.41603e-06 	-6.68465e-24 	6.50458e-06 	8.11416e-25 	6.22277e-06
2.85305 	6.10055e-06 	2.52418e-06 	-5.86962e-25 	6.6163e-06 	3.31913e-24 	6.35893e-06
2.86673 	6.27963e-06 	2.61782e-06 	-2.95995e-23 	6.75294e-06 	-5.43864e-25 	6.51676e-06
2.87945 	6.47509e-06 	2.69751e-06 	2.34258e-25 	6.91155e-06 	-7.25897e-24 	6.69375e-06
2.89129 	6.68421e-06 	2.7637e-06 	2.3843e-23 	7.08847e-06 	5.28987e-24 	6.88672e-06
2.90231 	6.90374e-06 	2.81576e-06 	-2.74261e-23 	7.27975e-06 	-1.66598e-24 	7.09211e-06
2.91257 	7.13019e-06 	2.85562e-06 	2.25068e-23 	7.48093e-06 	-4.169e-24 	7.30588e-06
2.92211 	7.35979e-06 	2.88334e-06 	2.21542e-24 	7.68762e-06 	1.50949e-24 	7.52399e-06
2.93098 	7.58869e-06 	2.89918e-06 	1.04946e-23 	7.89529e-06 	3.09227e-24 	7.74222e-06
2.93925 	7.81314e-06 	2.90411e-06 	-1.0362e-23 	8.09978e-06 	1.61311e-24 	7.95668e-06
2.94693 	8.02956e-06 	2.89911e-06 	-8.09055e-25 	8.29698e-06 	-2.35832e-24 	8.16346e-06
2.95409 	8.23445e-06 	2.88483e-06 	1.37798e-24 	8.48317e-06 	4.27108e-26 	8.35898e-06
2.96074 	8.4247e-06 	2.86112e-06 	-7.90844e-28 	8.65494e-06 	2.26464e-25 	8.53996e-06
2.96694 	8.59684e-06 	2.82891e-06 	-1.53569e-25 	8.80881e-06 	-8.69827e-27 	8.70295e-06
2.9727 	8.74768e-06 	2.78876e-06 	2.47069e-25 	8.94144e-06 	-1.16631e-25 	8.84468e-06
2.97806 	8.87365e-06 	2.74027e-06 	3.02537e-25 	9.04922e-06 	6.41025e-27 	8.96153e-06
2.98306 	8.97064e-06 	2.68284e-06 	1.151e-25 	9.12823e-06 	-9.02313e-25 	9.04953e-06
2.9877 	9.03388e-06 	2.61587e-06 	2.34438e-24 	9.17367e-06 	9.37692e-25 	9.10385e-06
2.99202 	9.05771e-06 	2.5384e-06 	-2.02315e-24 	9.18011e-06 	8.11888e-25 	9.11898e-06
2.99604 	9.03543e-06 	2.44835e-06 	-1.23867e-25 	9.14094e-06 	-6.31909e-25 	9.08823e-06
2.99979 	8.95891e-06 	2.34371e-06 	-7.00035e-26 	9.04826e-06 	9.12553e-25 	9.00363e-06
3.00327 	8.81901e-06 	2.22181e-06 	-1.59977e-24 	8.8931e-06 	-9.70854e-25 	8.85609e-06
3.00651 	8.6059e-06 	2.07955e-06 	1.29471e-24 	8.66582e-06 	-2.44411e-25 	8.63588e-06
3.00953 	8.30967e-06 	1.91372e-06 	-4.9304e-25 	8.35672e-06 	2.12975e-25 	8.33321e-06
3.01233 	7.92263e-06 	1.72198e-06 	4.14583e-25 	7.95829e-06 	-2.70612e-25 	7.94048e-06
3.01494 	7.44212e-06 	1.50401e-06 	3.64367e-26 	7.468e-06 	2.3998e-25 	7.45508e-06
3.01737 	6.87511e-06 	1.26103e-06 	-1.47632e-26 	6.89303e-06 	1.16015e-26 	6.88406e-06
3.01963 	6.24592e-06 	1.01883e-06 	6.46924e-28 	6.25796e-06 	-3.03634e-29 	6.25194e-06
3.02174 	5.59908e-06 	8.593e-07 	-3.59159e-27 	5.60763e-06 	4.55372e-27 	5.60337e-06
3.0237 	4.94984e-06 	6.95222e-07 	-3.41967e-27 	4.95566e-06 	6.45602e-26 	4.95276e-06
3.02552 	4.31082e-06 	5.39242e-07 	-2.3927e-26 	4.31458e-06 	-5.28452e-26 	4.3127e-06
3.02721 	3.69715e-06 	3.9764e-07 	1.83997e-26 	3.69942e-06 	-3.50943e-26 	3.69829e-06
3.02879 	3.12359e-06 	2.76313e-07 	5.39586e-28 	3.12486e-06 	2.40322e-26 	3.12423e-06
3.03026 	2.6016e-06 	1.78982e-07 	-1.54284e-28 	2.60224e-06 	5.09401e-27 	2.60192e-06
3.03163 	2.13745e-06 	1.06155e-07 	-6.50357e-28 	2.13774e-06 	-2.63338e-27 	2.13759e-06
3.0329 	1.73195e-06 	5.54207e-08 	2.94962e-28 	1.73205e-06 	-1.79921e-27 	1.732e-06
3.03408 	1.38151e-06 	2.26752e-08 	2.71489e-29 	1.38154e-06 	6.11525e-28 	1.38153e-06
3.03518 	1.07987e-06 	3.42682e-09 	-3.04951e-30 	1.07987e-06 	1.78012e-29 	1.07987e-06
