0.448616 	1.64298e-07 	1.39969e-09 	3.0904e-25 	1.53223e-07 	4.03746e-25 	1.58759e-07
0.449587 	3.7475e-07 	1.13185e-08 	1.1374e-24 	2.84905e-07 	1.37168e-24 	3.29841e-07
0.450629 	6.19179e-07 	2.88534e-08 	-6.29202e-24 	3.90129e-07 	-1.21753e-23 	5.04658e-07
0.45175 	8.78943e-07 	5.06212e-08 	-2.24756e-23 	4.76419e-07 	-2.1081e-23 	6.77678e-07
0.452954 	1.1358e-06 	7.29833e-08 	4.88104e-23 	5.53814e-07 	6.20526e-23 	8.44805e-07
0.454248 	1.37831e-06 	9.35375e-08 	-4.06942e-23 	6.29502e-07 	-8.34028e-23 	1.00391e-06
0.455638 	1.60189e-06 	1.11222e-07 	-8.87274e-23 	7.06994e-07 	-2.80454e-23 	1.15444e-06
0.457133 	1.80617e-06 	1.25813e-07 	1.31003e-22 	7.87448e-07 	1.75313e-22 	1.2968e-06
0.458738 	1.9927e-06 	1.37439e-07 	3.84186e-23 	8.71058e-07 	-2.1655e-23 	1.43188e-06
0.460463 	2.16371e-06 	1.46373e-07 	-5.66906e-23 	9.5775e-07 	-7.28984e-23 	1.56074e-06
0.462317 	2.3215e-06 	1.52928e-07 	-5.26213e-23 	1.04751e-06 	-6.8306e-23 	1.68449e-06
0.464309 	2.46815e-06 	1.57256e-07 	4.50232e-23 	1.14048e-06 	1.88485e-22 	1.80429e-06
0.466449 	2.60548e-06 	1.59484e-07 	9.81891e-23 	1.23701e-06 	-1.62169e-22 	1.92127e-06
0.46875 	2.72917e-06 	1.58241e-07 	-2.45752e-22 	1.34367e-06 	8.30128e-24 	2.03644e-06
0.471221 	2.8635e-06 	1.58808e-07 	3.03925e-22 	1.43423e-06 	2.07541e-22 	2.14888e-06
0.473877 	2.99055e-06 	1.57215e-07 	-2.40919e-23 	1.52207e-06 	-2.66363e-22 	2.25629e-06
0.47673 	3.09907e-06 	1.51079e-07 	-2.13874e-22 	1.61867e-06 	-1.68255e-23 	2.35886e-06
0.479797 	3.19638e-06 	1.41985e-07 	1.57263e-22 	1.71943e-06 	1.98591e-22 	2.45792e-06
0.483091 	3.28447e-06 	1.30172e-07 	8.35367e-23 	1.82471e-06 	-2.10691e-22 	2.55457e-06
0.486632 	3.36482e-06 	1.15628e-07 	-1.83805e-22 	1.93505e-06 	1.09826e-22 	2.64993e-06
0.490436 	3.4389e-06 	9.85405e-08 	2.13845e-22 	2.05084e-06 	-1.26343e-22 	2.74488e-06
0.494523 	3.50766e-06 	7.88515e-08 	-2.23984e-22 	2.17283e-06 	1.35252e-22 	2.84029e-06
0.498915 	3.57192e-06 	5.66336e-08 	2.32659e-22 	2.30193e-06 	-1.4945e-22 	2.93694e-06
0.503634 	3.63246e-06 	3.1775e-08 	-3.9586e-22 	2.43898e-06 	-4.68764e-23 	3.03568e-06
0.508704 	3.68988e-06 	4.06193e-09 	-7.63877e-23 	2.58498e-06 	4.01648e-22 	3.13743e-06
0.514152 	3.74491e-06 	-2.65464e-08 	2.68914e-22 	2.74106e-06 	-1.75954e-22 	3.24299e-06
0.520005 	3.7981e-06 	-6.02692e-08 	-2.89031e-22 	2.90867e-06 	1.86273e-22 	3.35338e-06
0.526294 	3.85002e-06 	-9.74946e-08 	4.43123e-22 	3.08938e-06 	2.30249e-23 	3.4697e-06
0.533051 	3.9015e-06 	-1.38576e-07 	8.20213e-24 	3.28494e-06 	-5.37576e-22 	3.59319e-06
0.540311 	3.95356e-06 	-1.84116e-07 	-5.35228e-22 	3.49723e-06 	4.07128e-22 	3.72541e-06
0.548111 	4.00729e-06 	-2.34746e-07 	4.45282e-22 	3.72879e-06 	2.48186e-23 	3.868e-06
0.55649 	4.06414e-06 	-2.91584e-07 	-8.66077e-23 	3.98239e-06 	-1.16533e-22 	4.02323e-06
0.565493 	4.12603e-06 	-3.56052e-07 	1.60717e-23 	4.26138e-06 	-6.7243e-25 	4.19377e-06
0.575166 	4.19569e-06 	-4.29617e-07 	-1.70855e-23 	4.56983e-06 	9.38087e-25 	4.38272e-06
0.585557 	4.27649e-06 	-5.14926e-07 	6.91312e-25 	4.91261e-06 	-1.60603e-25 	4.59448e-06
0.59672 	4.37319e-06 	-6.15209e-07 	1.22452e-22 	5.29576e-06 	1.10949e-22 	4.83445e-06
0.608712 	4.49219e-06 	-7.34597e-07 	9.59275e-23 	5.72704e-06 	-2.91448e-22 	5.10958e-06
0.621595 	4.64216e-06 	-8.78849e-07 	-2.9421e-22 	6.21639e-06 	5.87417e-23 	5.42919e-06
0.635433 	4.83494e-06 	-1.05558e-06 	2.12168e-22 	6.77685e-06 	2.25617e-22 	5.80575e-06
0.650299 	5.08703e-06 	-1.27501e-06 	5.19517e-23 	7.42562e-06 	-2.55425e-22 	6.25614e-06
0.666267 	5.42132e-06 	-1.55068e-06 	-2.54585e-22 	8.1858e-06 	2.10861e-23 	6.80328e-06
0.683419 	5.86965e-06 	-1.90064e-06 	2.70685e-23 	9.08858e-06 	-8.69174e-24 	7.47877e-06
0.701842 	6.47637e-06 	-2.3484e-06 	-1.41137e-23 	1.01754e-05 	3.25078e-22 	8.32544e-06
0.721629 	7.30163e-06 	-2.92467e-06 	2.06441e-22 	1.14998e-05 	-1.6817e-22 	9.40037e-06
0.742882 	8.42357e-06 	-3.66895e-06 	-1.02928e-22 	1.31272e-05 	-3.10865e-23 	1.07751e-05
0.765706 	9.93213e-06 	-4.63071e-06 	-4.94061e-23 	1.51285e-05 	6.95162e-23 	1.25303e-05
0.790219 	1.19155e-05 	-5.85219e-06 	-8.66951e-23 	1.75512e-05 	-8.97225e-23 	1.4734e-05
0.816542 	1.44228e-05 	-7.33774e-06 	-5.01301e-23 	2.03653e-05 	-7.95457e-23 	1.73953e-05
0.84481 	1.73945e-05 	-9.01743e-06 	4.23226e-23 	2.33946e-05 	1.22244e-23 	2.03965e-05
0.875164 	2.05904e-05 	-1.07179e-05 	8.52131e-23 	2.62699e-05 	8.68151e-23 	2.34321e-05
0.907756 	2.35776e-05 	-1.21875e-05 	3.09376e-23 	2.84824e-05 	5.95763e-23 	2.60309e-05
0.942749 	2.58616e-05 	-1.31857e-05 	-6.35328e-22 	2.95875e-05 	-6.7481e-23 	2.77237e-05
0.980319 	2.71442e-05 	-1.35846e-05 	1.31395e-21 	2.9473e-05 	-5.67667e-23 	2.83061e-05
1.02065 	2.75004e-05 	-1.34017e-05 	-1.68625e-21 	2.84704e-05 	1.84841e-22 	2.79824e-05
1.06395 	2.72732e-05 	-1.27598e-05 	1.09414e-21 	2.71562e-05 	-1.4775e-22 	2.72132e-05
1.11042 	2.68063e-05 	-1.18478e-05 	-1.41963e-21 	2.60019e-05 	8.9117e-23 	2.64043e-05
1.1603 	2.62967e-05 	-1.08974e-05 	1.52847e-21 	2.51766e-05 	-9.00703e-23 	2.5738e-05
1.21384 	2.58234e-05 	-1.01032e-05 	-1.8919e-21 	2.45876e-05 	8.07479e-23 	2.52068e-05
1.27129 	2.53944e-05 	-9.52854e-06 	2.17229e-21 	2.40452e-05 	-1.39158e-22 	2.47209e-05
1.33294 	2.4963e-05 	-9.10801e-06 	-2.10231e-23 	2.33924e-05 	6.89175e-23 	2.41782e-05
1.39909 	2.44396e-05 	-8.72194e-06 	-2.50219e-22 	2.25536e-05 	4.96163e-23 	2.34969e-05
1.47006 	2.3726e-05 	-8.2736e-06 	-2.3754e-21 	2.15167e-05 	-1.00519e-23 	2.26215e-05
1.54619 	2.27496e-05 	-7.71877e-06 	3.72176e-21 	2.02994e-05 	-1.15991e-22 	2.15244e-05
1.62785 	2.14822e-05 	-7.05424e-06 	-1.18137e-21 	1.89266e-05 	8.59212e-23 	2.0204e-05
1.69527 	1.99388e-05 	-6.29921e-06 	3.04159e-22 	1.74252e-05 	-2.54792e-23 	1.8682e-05
1.74059 	1.96534e-05 	-5.97584e-06 	9.47432e-22 	1.70032e-05 	-2.42633e-23 	1.83284e-05
1.806 	1.79105e-05 	-5.17528e-06 	-6.26517e-22 	1.55097e-05 	4.43373e-23 	1.67104e-05
1.89326 	1.62541e-05 	-4.41033e-06 	-1.36109e-21 	1.41187e-05 	2.59212e-24 	1.51854e-05
1.9743 	1.47781e-05 	-3.71459e-06 	-2.3181e-23 	1.28967e-05 	-2.67633e-23 	1.38366e-05
2.04959 	1.34856e-05 	-3.08995e-06 	1.46588e-22 	1.18419e-05 	2.11246e-24 	1.26635e-05
2.11953 	1.23678e-05 	-2.53155e-06 	-2.2e-22 	1.09401e-05 	7.24811e-24 	1.16534e-05
2.18453 	1.14064e-05 	-2.03343e-06 	-1.8265e-22 	1.01737e-05 	-4.85562e-23 	1.07897e-05
2.24494 	1.05832e-05 	-1.58964e-06 	2.21857e-21 	9.52281e-06 	-1.61655e-23 	1.00524e-05
2.30108 	9.87672e-06 	-1.19234e-06 	1.05036e-22 	8.97078e-06 	4.59325e-23 	9.4241e-06
2.35327 	9.2725e-06 	-8.33896e-07 	-1.11325e-22 	8.50016e-06 	2.16116e-24 	8.88654e-06
2.40178 	8.75378e-06 	-5.10048e-07 	-1.24856e-23 	8.09826e-06 	-2.43408e-24 	8.42616e-06
2.44688 	8.30793e-06 	-2.15502e-07 	-3.12315e-25 	7.75363e-06 	-1.57381e-24 	8.03064e-06
2.48882 	7.92326e-06 	5.47006e-08 	7.39163e-23 	7.45761e-06 	2.78417e-23 	7.69052e-06
2.5278 	7.59225e-06 	3.02455e-07 	-1.13698e-21 	7.20223e-06 	-2.79958e-23 	7.39712e-06
2.56406 	7.30628e-06 	5.31313e-07 	1.19148e-21 	6.98222e-06 	-5.90193e-23 	7.14449e-06
2.59777 	7.0612e-06 	7.44225e-07 	1.14677e-21 	6.79201e-06 	5.82847e-23 	6.9264e-06
2.62913 	6.85039e-06 	9.39868e-07 	-1.04359e-21 	6.62896e-06 	3.04711e-23 	6.73965e-06
2.65829 	6.67128e-06 	1.12157e-06 	-2.4094e-23 	6.48964e-06 	-1.07145e-23 	6.58028e-06
2.68541 	6.51982e-06 	1.29099e-06 	-5.65604e-22 	6.37238e-06 	-3.48329e-23 	6.44615e-06
2.71063 	6.39423e-06 	1.44638e-06 	1.02883e-21 	6.27523e-06 	3.51023e-24 	6.33488e-06
2.73409 	6.29247e-06 	1.59058e-06 	-5.39134e-22 	6.19706e-06 	3.08196e-23 	6.24498e-06
2.75591 	6.21322e-06 	1.72319e-06 	-2.67901e-24 	6.13693e-06 	-3.59523e-23 	6.17521e-06
2.77621 	6.15515e-06 	1.8444e-06 	4.6057e-22 	6.09435e-06 	1.96903e-23 	6.1248e-06
2.7951 	6.11735e-06 	1.95515e-06 	-4.60552e-22 	6.06898e-06 	3.63979e-23 	6.09321e-06
2.81266 	6.09938e-06 	2.05658e-06 	-4.20175e-22 	6.06055e-06 	-5.86534e-23 	6.07998e-06
2.829 	6.10083e-06 	2.14898e-06 	8.25262e-22 	6.06899e-06 	2.47298e-23 	6.08488e-06
2.8442 	6.12138e-06 	2.23151e-06 	-7.72251e-22 	6.09442e-06 	1.34672e-23 	6.1079e-06
2.85835 	6.161e-06 	2.30598e-06 	3.64779e-22 	6.13695e-06 	-3.40783e-23 	6.14902e-06
2.8715 	6.21977e-06 	2.37261e-06 	2.34985e-24 	6.19681e-06 	1.71788e-23 	6.20836e-06
2.88374 	6.29785e-06 	2.43282e-06 	-3.1658e-24 	6.27425e-06 	4.52076e-25 	6.28606e-06
2.89513 	6.39519e-06 	2.48747e-06 	-3.14745e-24 	6.36975e-06 	2.6583e-25 	6.38246e-06
2.90573 	6.51202e-06 	2.53627e-06 	-4.34858e-24 	6.48365e-06 	-2.78278e-25 	6.4978e-06
2.91559 	6.64841e-06 	2.57974e-06 	1.2188e-24 	6.61636e-06 	-1.51266e-25 	6.63234e-06
2.92476 	6.80429e-06 	2.61901e-06 	-4.10636e-24 	6.76812e-06 	8.03221e-26 	6.78619e-06
2.93329 	6.97965e-06 	2.65386e-06 	1.05736e-24 	6.93913e-06 	-1.74614e-25 	6.95942e-06
2.94123 	7.17392e-06 	2.68485e-06 	1.2163e-24 	7.12889e-06 	1.06362e-23 	7.15139e-06
2.94862 	7.38605e-06 	2.71164e-06 	-9.28099e-23 	7.33689e-06 	-1.09254e-23 	7.36146e-06
2.95549 	7.61422e-06 	2.733e-06 	8.4051e-23 	7.5615e-06 	-8.08668e-24 	7.58788e-06
2.96189 	7.85597e-06 	2.74856e-06 	5.52794e-25 	7.8003e-06 	8.44492e-24 	7.82813e-06
2.96784 	8.10711e-06 	2.75732e-06 	-5.39975e-25 	8.04942e-06 	-8.21413e-26 	8.07827e-06
2.97338 	8.3623e-06 	2.75743e-06 	-5.50317e-25 	8.30357e-06 	-4.92783e-24 	8.33293e-06
2.97853 	8.61423e-06 	2.74709e-06 	2.78306e-23 	8.55551e-06 	5.11301e-24 	8.58486e-06
2.98332 	8.8536e-06 	2.72396e-06 	-2.50083e-23 	8.79599e-06 	3.63064e-24 	8.8248e-06
2.98778 	9.06901e-06 	2.68571e-06 	-5.12019e-25 	9.01353e-06 	-8.27817e-24 	9.04126e-06
2.99193 	9.2472e-06 	2.63027e-06 	1.89734e-23 	9.1948e-06 	2.40244e-24 	9.221e-06
2.9958 	9.37324e-06 	2.55483e-06 	-8.9814e-24 	9.32476e-06 	5.45655e-24 	9.349e-06
2.99939 	9.43136e-06 	2.45726e-06 	-7.18979e-24 	9.38744e-06 	2.32029e-25 	9.4094e-06
3.00273 	9.40578e-06 	2.33589e-06 	-5.98795e-24 	9.36689e-06 	-3.55771e-24 	9.38633e-06
3.00585 	9.2826e-06 	2.18966e-06 	5.27102e-24 	9.249e-06 	-1.37088e-24 	9.2658e-06
3.00874 	9.05128e-06 	2.01855e-06 	-8.85446e-26 	9.02299e-06 	2.92415e-24 	9.03713e-06
3.01144 	8.70717e-06 	1.82392e-06 	-3.15379e-24 	8.68403e-06 	-1.51369e-24 	8.6956e-06
3.01394 	8.25403e-06 	1.60903e-06 	2.74183e-24 	8.2357e-06 	-3.71765e-25 	8.24487e-06
3.01628 	7.70574e-06 	1.37934e-06 	-9.60947e-25 	7.69172e-06 	9.02963e-25 	7.69873e-06
3.01845 	7.08821e-06 	1.13659e-06 	5.65753e-26 	7.07792e-06 	-8.14984e-25 	7.08307e-06
3.02047 	6.44851e-06 	9.79103e-07 	6.03587e-25 	6.44062e-06 	-3.42454e-25 	6.44457e-06
3.02235 	5.80013e-06 	8.23886e-07 	4.3476e-25 	5.79422e-06 	9.24319e-25 	5.79717e-06
3.0241 	5.15337e-06 	6.73878e-07 	-6.66386e-25 	5.14911e-06 	8.25923e-26 	5.15124e-06
3.02573 	4.52045e-06 	5.32732e-07 	1.44467e-25 	4.51752e-06 	-4.76639e-25 	4.51899e-06
3.02724 	3.91406e-06 	4.04459e-07 	8.42919e-26 	3.91215e-06 	7.91058e-26 	3.91311e-06
3.02865 	3.34552e-06 	2.92965e-07 	1.06078e-27 	3.34435e-06 	5.42075e-26 	3.34493e-06
3.02996 	2.8232e-06 	2.00943e-07 	9.04587e-28 	2.82254e-06 	-1.8332e-26 	2.82287e-06
3.03118 	2.3516e-06 	1.29134e-07 	6.73656e-27 	2.35126e-06 	1.25752e-26 	2.35143e-06
3.03232 	1.93135e-06 	7.62808e-08 	-4.62649e-27 	1.9312e-06 	6.70933e-27 	1.93127e-06
3.03337 	1.55985e-06 	3.97153e-08 	2.46207e-29 	1.5598e-06 	-2.91345e-27 	1.55983e-06
3.03436 	1.23241e-06 	1.61666e-08 	-4.77472e-29 	1.2324e-06 	-2.76457e-28 	1.23241e-06
3.03527 	9.43294e-07 	2.42315e-09 	9.73445e-30 	9.43293e-07 	-1.54753e-29 	9.43293e-07
