0.00132759 	-0.000358025 	-4.3703e-08 	3.43679e-18
0.00227498 	-0.000605293 	-1.30119e-07 	-1.88733e-18
0.00327924 	-0.000860847 	-2.70208e-07 	-2.10491e-18
0.00434378 	-0.00112438 	-4.74857e-07 	-1.24379e-19
0.00547221 	-0.00139544 	-7.55153e-07 	6.17456e-19
0.00666839 	-0.00167342 	-1.12377e-06 	4.62938e-18
0.00793636 	-0.00195745 	-1.5953e-06 	-4.83814e-18
0.00928045 	-0.00224631 	-2.18642e-06 	-5.37339e-19
0.0107052 	-0.00253825 	-2.91609e-06 	-5.17e-19
0.0122155 	-0.00283075 	-3.80581e-06 	-9.60363e-20
0.0138164 	-0.00312018 	-4.87982e-06 	2.66381e-19
0.0155135 	-0.00340162 	-6.16521e-06 	1.07553e-19
0.0173124 	-0.0036688 	-7.69168e-06 	-5.22085e-19
0.0192193 	-0.00391463 	-9.4903e-06 	-2.5447e-18
0.0212406 	-0.00413247 	-1.1591e-05 	8.76782e-18
0.0233833 	-0.00431766 	-1.40193e-05 	-4.60285e-18
0.0256546 	-0.00446871 	-1.67938e-05 	-1.0627e-18
0.0280623 	-0.00458721 	-1.99263e-05 	-4.14392e-18
0.0306144 	-0.00467685 	-2.34238e-05 	2.82038e-18
0.0333198 	-0.0047422 	-2.72914e-05 	-1.21653e-18
0.0361875 	-0.00478763 	-3.15342e-05 	1.77004e-18
0.0392274 	-0.00481694 	-3.6159e-05 	1.70913e-19
0.0424498 	-0.00483315 	-4.1175e-05 	3.57588e-20
0.0458656 	-0.0048386 	-4.65936e-05 	8.05892e-19
0.0494864 	-0.00483505 	-5.24291e-05 	-1.31687e-20
0.0533246 	-0.00482378 	-5.8698e-05 	1.78092e-18
0.0573931 	-0.00480576 	-6.54193e-05 	-2.00303e-18
0.0617059 	-0.00478169 	-7.26141e-05 	-3.25102e-19
0.0662775 	-0.00475206 	-8.03057e-05 	-6.95069e-19
0.0711236 	-0.00471719 	-8.85196e-05 	5.05372e-19
0.0762605 	-0.00467731 	-9.7283e-05 	1.59163e-19
0.0817058 	-0.00463253 	-0.000106626 	1.74126e-20
0.087478 	-0.00458289 	-0.000116579 	1.55374e-19
0.0935966 	-0.00452833 	-0.000127177 	8.95253e-19
0.100083 	-0.00446876 	-0.000138456 	-8.75639e-19
0.106958 	-0.00440402 	-0.000150453 	-9.70298e-20
0.114246 	-0.00433389 	-0.00016321 	-2.42342e-20
0.121971 	-0.00425808 	-0.000176769 	-6.88333e-24
0.13016 	-0.00417628 	-0.000191178 	-6.96886e-25
0.138841 	-0.0040881 	-0.000206483 	-1.43977e-19
0.148043 	-0.00399306 	-0.000222737 	-7.09105e-19
0.157797 	-0.00389067 	-0.000239994 	8.0222e-19
0.168136 	-0.0037803 	-0.000258312 	5.1277e-20
0.179097 	-0.00366128 	-0.000277752 	-3.56153e-19
0.190715 	-0.00353283 	-0.000298378 	2.62474e-19
0.20303 	-0.00339407 	-0.00032026 	4.51922e-20
0.216085 	-0.00324397 	-0.000343472 	2.48412e-20
0.229923 	-0.0030814 	-0.00036809 	-5.04678e-20
0.244592 	-0.00290506 	-0.000394196 	-6.05106e-19
0.260142 	-0.00271343 	-0.000421879 	5.60622e-19
0.276625 	-0.00250484 	-0.000451231 	4.17792e-20
0.294097 	-0.00227732 	-0.000482352 	-6.1121e-19
0.312618 	-0.00202868 	-0.000515345 	5.67877e-19
0.332251 	-0.00175636 	-0.000550324 	9.65356e-20
0.353063 	-0.00145747 	-0.000587405 	-5.97044e-20
0.375123 	-0.00112865 	-0.000626712 	5.38836e-20
0.398508 	-0.00076608 	-0.000668376 	6.28755e-20
0.423296 	-0.00036537 	-0.000712527 	-5.53602e-20
0.449573 	7.85248e-05 	-0.000759293 	2.23177e-19
0.477427 	0.00057139 	-0.000808804 	8.41762e-19
0.506952 	0.00111985 	-0.000861199 	-9.51904e-19
0.53825 	0.00173154 	-0.000916597 	-1.40904e-19
0.571427 	0.00241767 	-0.000974785 	1.10406e-22
0.606595 	0.00320552 	-0.00103602 	-5.2791e-20
0.643874 	0.00413069 	-0.00110059 	2.51538e-21
0.683391 	0.00521122 	-0.00116728 	2.39137e-20
0.725279 	0.0064492 	-0.00123446 	-1.02864e-19
0.769683 	0.00783816 	-0.00129995 	3.10609e-20
0.816751 	0.00936722 	-0.00136105 	9.88715e-20
0.866645 	0.0110199 	-0.00141474 	1.02663e-22
0.919534 	0.0127705 	-0.00145804 	-1.12368e-19
0.975597 	0.0145808 	-0.00148833 	-6.86307e-19
1.03503 	0.0164019 	-0.00150365 	6.95946e-19
1.09802 	0.0181791 	-0.00150303 	6.33665e-19
1.1648 	0.0198606 	-0.0014867 	-5.25683e-19
1.23559 	0.0214073 	-0.00145615 	-2.13823e-19
1.31062 	0.0228021 	-0.00141446 	-8.76931e-19
1.39016 	0.0240538 	-0.00136261 	7.32528e-19
1.47447 	0.0251819 	-0.00130202 	1.59893e-19
1.56124 	0.0261723 	-0.00123643 	-9.64271e-20
1.64556 	0.0270006 	-0.00117251 	-5.90803e-19
1.72509 	0.0276814 	-0.00111225 	3.667e-19
1.80013 	0.0282473 	-0.00105541 	-9.66802e-19
1.87091 	0.028724 	-0.00100155 	1.12707e-18
1.93769 	0.0291288 	-0.000950405 	3.77496e-20
2.00069 	0.029474 	-0.000901852 	-5.00928e-19
2.06012 	0.0297689 	-0.000855795 	5.01015e-19
2.11618 	0.0300205 	-0.000812154 	2.18439e-19
2.16907 	0.0302346 	-0.000770852 	-4.04255e-23
2.21896 	0.0304157 	-0.000731803 	-1.84196e-25
2.26603 	0.0305677 	-0.000694914 	1.22032e-23
2.31043 	0.0306936 	-0.000660083 	1.38782e-23
2.35232 	0.030796 	-0.000627205 	-2.70636e-23
2.39184 	0.0308769 	-0.000596173 	2.70159e-23
2.42912 	0.0309379 	-0.000566879 	-1.98565e-19
2.46429 	0.0309804 	-0.000539218 	-2.86229e-19
2.49746 	0.0310052 	-0.000513085 	3.12905e-19
2.52876 	0.031013 	-0.00048838 	2.2415e-19
2.55829 	0.0310043 	-0.000465008 	-2.67765e-19
2.57809 	0.0309892 	-0.000449289 	-4.26502e-19
2.59161 	0.0309727 	-0.00043852 	-1.50275e-19
2.61242 	0.0309383 	-0.000421892 	3.24235e-19
2.63721 	0.030881 	-0.000401979 	9.05203e-19
2.66059 	0.0308072 	-0.000383059 	6.78971e-19
2.68265 	0.0307167 	-0.000365055 	-8.22615e-19
2.70346 	0.0306093 	-0.000347897 	-1.00748e-18
2.7231 	0.0304846 	-0.000331518 	-5.49949e-19
2.74162 	0.0303423 	-0.000315852 	1.43152e-18
2.75909 	0.0301822 	-0.00030084 	1.70575e-18
2.77557 	0.030004 	-0.000286425 	-1.09152e-18
2.79112 	0.0298076 	-0.000272552 	-4.02947e-19
2.80579 	0.0295927 	-0.000259174 	-4.77704e-19
2.81963 	0.0293592 	-0.000246245 	4.00726e-20
2.83268 	0.0291072 	-0.000233727 	1.00355e-18
2.845 	0.0288365 	-0.000221587 	-1.10769e-18
2.85662 	0.0285472 	-0.000209795 	5.962e-19
2.86758 	0.0282393 	-0.000198333 	1.74147e-18
2.87792 	0.027913 	-0.000187183 	-7.50514e-19
2.88767 	0.0275683 	-0.000176341 	8.04648e-19
2.89687 	0.0272053 	-0.000165803 	-3.36545e-18
2.90555 	0.026823 	-0.000155537 	-3.30757e-18
2.91374 	0.0264186 	-0.000145494 	1.67164e-18
2.92147 	0.0259902 	-0.000135639 	-4.20368e-19
2.92876 	0.0255377 	-0.000125992 	1.12593e-18
2.93563 	0.0250623 	-0.000116593 	-1.20707e-18
2.94212 	0.0245658 	-0.000107484 	2.02626e-18
2.94824 	0.0240498 	-9.87088e-05 	7.38334e-19
2.95401 	0.0235158 	-9.03043e-05 	-8.0769e-24
2.95945 	0.0229649 	-8.2302e-05 	-6.10625e-24
2.96459 	0.0223981 	-7.47252e-05 	-1.70356e-18
2.96944 	0.0218159 	-6.75896e-05 	-3.22441e-18
2.97401 	0.0212188 	-6.09034e-05 	1.64185e-18
2.97832 	0.0206066 	-5.46684e-05 	-1.70418e-18
2.98239 	0.0199789 	-4.88811e-05 	3.68221e-18
2.98623 	0.0193352 	-4.35329e-05 	1.83742e-18
2.98985 	0.0186745 	-3.86116e-05 	-6.39822e-25
2.99326 	0.0179955 	-3.41018e-05 	-2.10773e-18
2.99649 	0.017297 	-2.99861e-05 	-3.04335e-18
2.99953 	0.0165775 	-2.62457e-05 	3.26684e-18
3.00239 	0.0158358 	-2.28608e-05 	-2.37218e-18
3.0051 	0.0150707 	-1.98109e-05 	-2.24518e-18
3.00765 	0.0142812 	-1.70736e-05 	7.54153e-18
3.01006 	0.0134658 	-1.46223e-05 	2.47363e-18
3.01233 	0.0126214 	-1.24294e-05 	-9.77217e-18
3.01447 	0.0117464 	-1.04695e-05 	1.34352e-17
3.01649 	0.0108435 	-8.72779e-06 	-3.76381e-19
3.0184 	0.00992006 	-7.19125e-06 	7.99213e-18
3.0202 	0.00898686 	-5.84729e-06 	5.10151e-18
3.0219 	0.00805773 	-4.68417e-06 	-2.4535e-17
3.0235 	0.007147 	-3.68976e-06 	1.75864e-18
3.02501 	0.00626711 	-2.85081e-06 	1.62732e-18
3.02643 	0.00542683 	-2.15291e-06 	-1.50865e-18
3.02778 	0.00463093 	-1.58115e-06 	1.31805e-18
3.02905 	0.00388092 	-1.12083e-06 	1.3618e-19
