/*--------------------------------*- C++ -*----------------------------------*\
  =========                 |
  \\      /  F ield         | OpenFOAM: The Open Source CFD Toolbox
   \\    /   O peration     | Website:  https://openfoam.org
    \\  /    A nd           | Version:  7
     \\/     M anipulation  |
\*---------------------------------------------------------------------------*/
FoamFile
{
    version     2.0;
    format      ascii;
    class       volScalarField;
    location    "15000";
    object      omega_0;
}
// * * * * * * * * * * * * * * * * * * * * * * * * * * * * * * * * * * * * * //

dimensions      [0 0 -1 0 0 0 0];

internalField   nonuniform List<scalar> 
14751
(
100.009
100.012
100.003
99.995
99.9892
99.9845
99.9793
99.9765
99.9764
99.9765
99.9766
99.9845
100.001
100.015
100.025
100.033
100.038
100.042
100.047
100.046
100.041
100.035
100.028
100.016
99.9968
99.9802
99.9675
99.9601
99.9578
99.9556
99.9534
99.9513
99.9492
99.9471
99.9451
99.9473
99.9538
99.9604
99.9673
99.9805
100.002
100.02
100.035
100.043
100.046
100.048
100.05
100.052
100.054
100.056
100.058
100.058
100.056
100.054
100.052
100.05
100.048
100.046
100.043
100.035
100.021
100.002
99.9812
99.9681
99.9613
99.9547
99.9483
99.9454
99.9459
99.9464
99.9469
99.9474
99.9479
99.9484
99.9489
99.9496
99.9502
99.9509
99.9515
99.9522
99.9528
99.9534
99.9539
99.9562
99.9603
99.9645
99.9687
99.9756
99.9854
99.9982
100.013
100.019
100.018
100.017
100.016
100.015
100.012
100.008
100.003
16.9307
16.9272
16.9055
16.8729
16.8307
16.7842
16.7354
16.685
16.6343
16.5835
16.5328
16.4836
16.4362
16.3895
16.3436
16.2988
16.255
16.213
16.1726
16.1332
16.095
16.0586
16.024
15.9905
15.958
15.9277
15.8997
15.8741
15.8509
15.8293
15.8093
15.7908
15.7738
15.7583
15.7441
15.7317
15.721
15.7116
15.7033
15.6968
15.6923
15.6884
15.6848
15.6816
15.6785
15.6762
15.6748
15.6741
15.6741
15.6749
15.6765
15.6786
15.6812
15.6845
15.6886
15.6936
15.6993
15.7059
15.7133
15.721
15.7288
15.7371
15.7462
15.7573
15.7703
15.7845
15.8
15.8173
15.8363
15.8568
15.8788
15.9023
15.9273
15.954
15.9824
16.0125
16.0443
16.0778
16.113
16.15
16.1887
16.2291
16.2711
16.3147
16.36
16.4064
16.4539
16.5025
16.5522
16.6025
16.653
16.7023
16.7493
16.7943
16.8363
16.8731
16.9028
16.9229
16.9317
5.80314
5.79838
5.7799
5.75299
5.71894
5.68155
5.64226
5.60149
5.56036
5.51915
5.47816
5.43785
5.39853
5.36005
5.32258
5.28627
5.25119
5.21759
5.18543
5.15465
5.12521
5.09733
5.071
5.04609
5.02256
5.00063
4.98027
4.96151
4.94429
4.92844
4.91389
4.90059
4.8885
4.87756
4.86772
4.85905
4.85151
4.84491
4.83924
4.83455
4.83081
4.82795
4.82589
4.82445
4.82352
4.82325
4.82365
4.82468
4.82635
4.82862
4.83151
4.83496
4.83894
4.84352
4.84871
4.8545
4.86091
4.86795
4.87563
4.88384
4.89253
4.90186
4.91186
4.92275
4.93462
4.94732
4.96088
4.97541
4.99098
5.00752
5.02507
5.04368
5.06335
5.08415
5.1061
5.1292
5.15349
5.17901
5.20573
5.23371
5.26284
5.29325
5.32475
5.35736
5.39099
5.42545
5.46058
5.49637
5.53261
5.56909
5.60544
5.64132
5.67595
5.70875
5.73934
5.76551
5.78696
5.80138
5.80754
2.97152
2.96537
2.94896
2.92762
2.90079
2.87158
2.84158
2.81071
2.77969
2.7486
2.71785
2.68765
2.65823
2.62964
2.60198
2.5754
2.54988
2.52562
2.50254
2.48069
2.46
2.44057
2.42237
2.40538
2.38955
2.37494
2.3615
2.34922
2.33806
2.32795
2.31884
2.31069
2.30347
2.29713
2.29162
2.28696
2.2831
2.27992
2.27745
2.27577
2.2749
2.27465
2.275
2.27589
2.27725
2.27913
2.28152
2.28438
2.28771
2.29149
2.29571
2.30036
2.30539
2.31084
2.31669
2.32294
2.32959
2.33664
2.34408
2.3519
2.36006
2.36863
2.37761
2.38704
2.39698
2.40739
2.4183
2.42971
2.4417
2.45424
2.46734
2.48105
2.49536
2.51032
2.52592
2.54218
2.55915
2.57682
2.59512
2.61417
2.63385
2.6543
2.67536
2.69705
2.71928
2.74196
2.76509
2.78848
2.81197
2.8354
2.85855
2.88123
2.90296
2.9233
2.94183
2.95735
2.96959
2.97696
2.97824
1.90901
1.90187
1.88681
1.86846
1.84594
1.8217
1.79707
1.77193
1.74701
1.72269
1.69889
1.67575
1.65331
1.63174
1.61109
1.59145
1.57278
1.55522
1.53871
1.52326
1.50882
1.49541
1.48303
1.47164
1.4612
1.45172
1.44315
1.43547
1.42865
1.42264
1.41738
1.41286
1.40905
1.40591
1.40336
1.40144
1.40014
1.39948
1.39938
1.39982
1.40077
1.40218
1.40402
1.40626
1.40887
1.41187
1.41525
1.41901
1.42312
1.42753
1.43223
1.4372
1.44243
1.44791
1.45364
1.4596
1.4658
1.47223
1.47889
1.48576
1.49284
1.50015
1.50769
1.51548
1.52354
1.53187
1.54048
1.54938
1.55861
1.56815
1.57803
1.58826
1.59885
1.60981
1.62113
1.63281
1.64492
1.6575
1.67062
1.6842
1.69816
1.71256
1.72727
1.74231
1.7576
1.77306
1.78864
1.80423
1.81972
1.83497
1.84984
1.86423
1.87779
1.8902
1.90119
1.90996
1.91637
1.91908
1.91699
1.36737
1.35984
1.34591
1.32952
1.30991
1.28911
1.26825
1.24722
1.22667
1.20677
1.18759
1.16923
1.1519
1.13546
1.11993
1.10532
1.09159
1.07885
1.06702
1.05612
1.04608
1.03692
1.0286
1.02109
1.01437
1.0084
1.00315
0.998597
0.994707
0.991438
0.98874
0.986591
0.984983
0.983899
0.983352
0.983284
0.98367
0.984486
0.985691
0.987261
0.989184
0.991424
0.993962
0.996784
0.999864
1.00321
1.00683
1.01069
1.01478
1.01905
1.0235
1.0281
1.03285
1.03774
1.04276
1.04791
1.05319
1.05858
1.06409
1.06973
1.07546
1.08132
1.08732
1.09344
1.09973
1.10618
1.11279
1.11959
1.12659
1.13379
1.1412
1.14882
1.15665
1.16473
1.17315
1.18193
1.19101
1.20041
1.21012
1.22012
1.23036
1.24088
1.25158
1.26245
1.27343
1.28445
1.29546
1.30639
1.31714
1.32762
1.33772
1.34737
1.35632
1.36432
1.37118
1.37626
1.37945
1.37957
1.37576
1.03165
1.02443
1.012
0.997625
0.98079
0.963151
0.945699
0.928342
0.911597
0.895582
0.880365
0.865994
0.852565
0.840022
0.828362
0.817616
0.807735
0.798683
0.790408
0.782897
0.776111
0.770034
0.764636
0.75989
0.755759
0.75222
0.749242
0.746798
0.744862
0.743408
0.742428
0.741891
0.741759
0.742012
0.742634
0.743593
0.744871
0.74644
0.748277
0.750359
0.752677
0.755205
0.75793
0.760837
0.763908
0.767139
0.770518
0.77402
0.77763
0.781335
0.785126
0.788992
0.79292
0.796909
0.800953
0.805048
0.809192
0.813383
0.817623
0.821913
0.826249
0.830644
0.835105
0.83964
0.844266
0.848986
0.853812
0.858753
0.863827
0.869033
0.87437
0.87983
0.885538
0.891522
0.897744
0.904199
0.910874
0.917775
0.924891
0.932222
0.939721
0.947417
0.955239
0.963177
0.971174
0.979186
0.987159
0.995052
1.00278
1.01028
1.01746
1.02427
1.03054
1.03603
1.0406
1.04368
1.04517
1.04406
1.03979
0.801847
0.795571
0.785058
0.773001
0.759083
0.744625
0.730489
0.716593
0.703347
0.690835
0.6791
0.668157
0.658049
0.648739
0.640211
0.632468
0.62544
0.619126
0.613458
0.608424
0.603981
0.600107
0.596774
0.593958
0.591625
0.58975
0.588308
0.587273
0.586623
0.586336
0.58639
0.586762
0.587426
0.588362
0.58955
0.590969
0.592604
0.594431
0.596432
0.598591
0.600896
0.603327
0.605873
0.608519
0.611248
0.61405
0.616912
0.619816
0.622758
0.625728
0.628721
0.631727
0.634739
0.637754
0.64077
0.643784
0.646797
0.649808
0.652823
0.655843
0.658869
0.661913
0.664982
0.668086
0.671238
0.674446
0.677719
0.681065
0.684498
0.688014
0.691607
0.695431
0.699444
0.703641
0.708014
0.712561
0.71728
0.722179
0.727246
0.73249
0.737872
0.743422
0.749081
0.754845
0.760671
0.766525
0.772367
0.778168
0.783856
0.789391
0.794693
0.799737
0.804364
0.808373
0.81165
0.813694
0.814429
0.813045
0.809108
0.637335
0.632334
0.623894
0.614221
0.603147
0.591705
0.580617
0.569812
0.559612
0.55008
0.54124
0.533088
0.525643
0.518869
0.512741
0.507259
0.502363
0.498059
0.494281
0.491014
0.488213
0.485857
0.483921
0.482383
0.481214
0.480394
0.479897
0.479704
0.479794
0.480146
0.480741
0.481559
0.482578
0.483783
0.485156
0.486678
0.488338
0.490116
0.491998
0.493969
0.496017
0.498126
0.500287
0.502484
0.504705
0.506938
0.509174
0.511404
0.513624
0.515828
0.51801
0.520165
0.522286
0.524375
0.526428
0.528447
0.530434
0.532389
0.53432
0.536229
0.538122
0.540008
0.541896
0.543796
0.545719
0.547675
0.549671
0.551716
0.553817
0.555972
0.558302
0.56079
0.563414
0.566181
0.569093
0.572152
0.575361
0.578729
0.582248
0.585928
0.589739
0.593709
0.597796
0.601997
0.606282
0.610625
0.614996
0.619374
0.623705
0.627956
0.632061
0.636002
0.639647
0.642819
0.645423
0.647039
0.647621
0.646512
0.643331
0.517103
0.513428
0.506965
0.499489
0.490948
0.482144
0.473656
0.465423
0.457705
0.450552
0.443972
0.437958
0.432518
0.427625
0.423257
0.419408
0.416029
0.413126
0.410649
0.40859
0.406892
0.405536
0.4045
0.403766
0.403308
0.403109
0.403148
0.403408
0.40387
0.404517
0.40533
0.406294
0.407391
0.408607
0.409927
0.411337
0.412824
0.414373
0.415972
0.417607
0.419269
0.420945
0.422624
0.424295
0.425949
0.427576
0.429172
0.43073
0.432248
0.43372
0.435142
0.436513
0.437829
0.43909
0.440298
0.441453
0.442561
0.443623
0.444647
0.445639
0.446605
0.447555
0.448497
0.449441
0.450399
0.451379
0.45239
0.453439
0.45453
0.455741
0.457096
0.458569
0.460159
0.461877
0.463728
0.465719
0.467853
0.470141
0.472578
0.475175
0.477908
0.480803
0.483827
0.486981
0.490242
0.493591
0.497005
0.500472
0.503945
0.5074
0.510782
0.514076
0.517174
0.519926
0.522254
0.523813
0.52457
0.523982
0.521713
0.428051
0.425574
0.420827
0.415203
0.408733
0.40202
0.395564
0.389323
0.383504
0.378149
0.37326
0.368828
0.364859
0.361335
0.358234
0.35555
0.35324
0.351311
0.349724
0.34846
0.347471
0.346741
0.346251
0.345985
0.345923
0.346049
0.346347
0.3468
0.347392
0.348108
0.348933
0.349853
0.350855
0.351924
0.353049
0.354217
0.355418
0.35664
0.35787
0.3591
0.360318
0.361517
0.362687
0.363821
0.364911
0.365952
0.366941
0.367873
0.368748
0.36956
0.370311
0.370997
0.37162
0.372181
0.372683
0.373129
0.373523
0.373871
0.37418
0.374457
0.37471
0.374948
0.375181
0.375418
0.37567
0.375946
0.376254
0.376607
0.377021
0.377587
0.378263
0.379048
0.379948
0.380973
0.382132
0.38343
0.384874
0.386474
0.388226
0.390142
0.392203
0.394431
0.3968
0.399311
0.401946
0.404691
0.40753
0.41045
0.413416
0.416407
0.41938
0.422321
0.425142
0.427722
0.429996
0.431683
0.432751
0.432747
0.431369
0.361151
0.359612
0.356178
0.351972
0.347081
0.341964
0.337046
0.332305
0.327909
0.323891
0.320253
0.316985
0.314093
0.31156
0.309368
0.30751
0.305951
0.304702
0.303705
0.302938
0.302377
0.302008
0.301816
0.301787
0.301905
0.302157
0.302527
0.303001
0.303566
0.304209
0.304917
0.305678
0.306481
0.307314
0.308166
0.309028
0.309892
0.310745
0.31158
0.312387
0.31316
0.313891
0.314575
0.315205
0.315778
0.31629
0.31674
0.317125
0.317445
0.317698
0.317885
0.318007
0.318066
0.318066
0.318011
0.317905
0.317754
0.317565
0.317344
0.317101
0.316843
0.316581
0.316324
0.316082
0.315866
0.315683
0.315543
0.315452
0.3155
0.315662
0.315932
0.316315
0.316818
0.317451
0.31822
0.31913
0.320189
0.321404
0.322775
0.32431
0.325997
0.327853
0.329857
0.332009
0.334293
0.336697
0.339209
0.341818
0.344496
0.347225
0.349969
0.35272
0.355407
0.35793
0.360239
0.362104
0.36349
0.364018
0.363406
0.309881
0.309007
0.306539
0.303394
0.299696
0.295804
0.29206
0.288456
0.285129
0.282108
0.279394
0.27698
0.274869
0.273047
0.271497
0.27022
0.26917
0.268343
0.267694
0.26721
0.266879
0.266688
0.266624
0.266676
0.26683
0.267073
0.267394
0.26778
0.268221
0.268704
0.26922
0.269759
0.270309
0.270864
0.271413
0.271949
0.272464
0.272951
0.273402
0.27381
0.27417
0.274478
0.274728
0.274919
0.275047
0.27511
0.27511
0.275045
0.274916
0.274724
0.27447
0.274159
0.273791
0.273374
0.272913
0.272413
0.271882
0.271326
0.270754
0.270173
0.269593
0.269024
0.268475
0.267957
0.267479
0.267051
0.266682
0.266403
0.266261
0.266226
0.266302
0.266497
0.266818
0.267274
0.26787
0.268608
0.269493
0.270531
0.271721
0.273071
0.27457
0.276234
0.27805
0.280012
0.282105
0.284319
0.286644
0.289072
0.291578
0.294148
0.296755
0.299391
0.301999
0.304497
0.306841
0.30884
0.310458
0.311372
0.311326
0.269713
0.269317
0.267587
0.265256
0.262471
0.259513
0.256656
0.253907
0.251378
0.249094
0.247057
0.245261
0.243708
0.242391
0.241281
0.240367
0.239612
0.239009
0.238535
0.238185
0.237946
0.237805
0.237753
0.237779
0.237872
0.238021
0.238215
0.238447
0.238705
0.238981
0.239266
0.239551
0.23983
0.240093
0.240335
0.240549
0.24073
0.240871
0.240968
0.241016
0.241012
0.240952
0.240835
0.240658
0.240421
0.240125
0.23977
0.239358
0.238892
0.238373
0.237805
0.237192
0.236537
0.235848
0.235131
0.234391
0.233639
0.232879
0.232121
0.231373
0.230642
0.229938
0.22927
0.228648
0.228081
0.227578
0.227148
0.226853
0.226671
0.226595
0.22663
0.226784
0.227064
0.227476
0.228027
0.228721
0.229554
0.23053
0.231649
0.232916
0.234323
0.235882
0.237578
0.239412
0.241373
0.243453
0.245644
0.247938
0.250317
0.252768
0.255269
0.257814
0.260356
0.262825
0.26518
0.26726
0.269024
0.270197
0.270552
0.237619
0.237577
0.236406
0.234694
0.232602
0.230348
0.228158
0.226045
0.224104
0.222359
0.22081
0.219457
0.218285
0.217281
0.216422
0.215692
0.215074
0.214566
0.214155
0.213833
0.213588
0.21341
0.21329
0.21322
0.213189
0.21319
0.213214
0.213254
0.2133
0.213347
0.213388
0.213416
0.213425
0.213409
0.213362
0.213282
0.213162
0.213
0.212793
0.212538
0.212233
0.211878
0.211471
0.211013
0.210503
0.209945
0.209339
0.208689
0.207999
0.207273
0.206514
0.205727
0.204917
0.20409
0.203252
0.20241
0.201573
0.200746
0.199938
0.199156
0.198408
0.197703
0.197047
0.196447
0.195912
0.195452
0.195087
0.19485
0.194719
0.194695
0.194776
0.194969
0.19528
0.195712
0.196269
0.196953
0.197765
0.198709
0.199785
0.200997
0.202339
0.203818
0.205423
0.207156
0.209012
0.210985
0.213067
0.215252
0.217525
0.219876
0.222287
0.224751
0.22723
0.229663
0.23201
0.234137
0.235996
0.237353
0.238004
0.211492
0.211708
0.210955
0.209709
0.208135
0.206406
0.20471
0.203065
0.201551
0.200191
0.198974
0.197892
0.196935
0.196083
0.195332
0.194672
0.194094
0.193598
0.19317
0.192804
0.19249
0.192218
0.191982
0.191775
0.191589
0.191417
0.191252
0.191089
0.190922
0.190744
0.190552
0.190341
0.190106
0.189843
0.18955
0.189221
0.188857
0.188453
0.188008
0.187523
0.186996
0.186429
0.185822
0.185177
0.184494
0.183777
0.183027
0.182249
0.181447
0.180624
0.179787
0.17894
0.178087
0.177235
0.17639
0.175556
0.17474
0.173947
0.173184
0.172459
0.171779
0.171151
0.170584
0.170076
0.169636
0.169269
0.169019
0.168866
0.168805
0.16884
0.168973
0.16921
0.169554
0.170008
0.170574
0.171252
0.172048
0.172967
0.174008
0.175175
0.176462
0.177879
0.179415
0.181074
0.182851
0.18474
0.186736
0.188833
0.191018
0.193285
0.195616
0.198006
0.200423
0.202813
0.205138
0.207282
0.209196
0.210677
0.211541
0.189829
0.190227
0.189782
0.18888
0.187688
0.186343
0.185005
0.183694
0.182468
0.181343
0.180307
0.179353
0.178482
0.177684
0.176957
0.176298
0.175698
0.175157
0.174662
0.174209
0.173788
0.173393
0.173019
0.17266
0.17231
0.171964
0.171618
0.171266
0.170903
0.170528
0.170135
0.169724
0.16929
0.168832
0.168347
0.167835
0.167293
0.166721
0.166118
0.165485
0.164822
0.164132
0.163415
0.162674
0.161912
0.161131
0.160335
0.159526
0.158707
0.157883
0.157057
0.156235
0.15542
0.15462
0.153839
0.153083
0.152352
0.15165
0.150983
0.150357
0.149777
0.149248
0.148776
0.148364
0.14802
0.147751
0.147587
0.147505
0.147503
0.147586
0.147761
0.148032
0.148402
0.148873
0.149448
0.15013
0.150921
0.151825
0.152843
0.153978
0.155226
0.156594
0.158077
0.159675
0.161385
0.163203
0.165124
0.167143
0.16925
0.171438
0.173694
0.176012
0.178364
0.180702
0.182991
0.185128
0.187065
0.188624
0.189636
0.171543
0.172063
0.171837
0.171183
0.170264
0.169191
0.16809
0.16698
0.165909
0.16489
0.163926
0.163015
0.16216
0.161358
0.160606
0.159905
0.159245
0.158628
0.158041
0.157482
0.156943
0.156419
0.155907
0.155403
0.154903
0.154404
0.153902
0.153394
0.152876
0.152347
0.151804
0.151247
0.150673
0.150082
0.149473
0.148846
0.1482
0.147536
0.146854
0.146155
0.145438
0.144706
0.14396
0.143203
0.142437
0.141665
0.140892
0.14012
0.139352
0.138586
0.137827
0.137079
0.136345
0.135628
0.134933
0.134263
0.133621
0.133012
0.132439
0.131906
0.131418
0.130978
0.130588
0.130258
0.129989
0.129811
0.129713
0.129688
0.12974
0.129872
0.130089
0.130395
0.130792
0.131283
0.131872
0.132559
0.133348
0.134242
0.135241
0.136348
0.137562
0.138888
0.140321
0.141864
0.143513
0.145265
0.147116
0.149062
0.151093
0.153204
0.155385
0.157628
0.159909
0.162187
0.164427
0.166539
0.168474
0.170073
0.171179
0.155838
0.156434
0.156355
0.15587
0.155124
0.15421
0.153232
0.152212
0.151201
0.150218
0.149268
0.148354
0.147479
0.146642
0.145841
0.145077
0.144342
0.14364
0.142959
0.142299
0.141652
0.141015
0.140387
0.139766
0.139147
0.138531
0.137914
0.137296
0.136674
0.136047
0.135414
0.134773
0.134124
0.133465
0.132798
0.132121
0.131437
0.130745
0.130048
0.129346
0.128639
0.127925
0.127207
0.126485
0.125763
0.125041
0.124323
0.123609
0.122902
0.122204
0.121518
0.120846
0.12019
0.119553
0.118937
0.118345
0.117783
0.117255
0.116763
0.116313
0.115905
0.115546
0.115237
0.114986
0.114795
0.114689
0.114651
0.114681
0.114782
0.114959
0.115214
0.115551
0.115973
0.116481
0.11708
0.11777
0.118555
0.119436
0.120416
0.121496
0.122675
0.123958
0.125344
0.126832
0.128421
0.130107
0.131889
0.133761
0.135716
0.137749
0.139851
0.142016
0.144221
0.14643
0.14861
0.15068
0.152591
0.154201
0.15536
0.142126
0.142753
0.142753
0.142354
0.14169
0.140844
0.139914
0.138926
0.137931
0.13695
0.135989
0.135053
0.134144
0.133264
0.13241
0.131584
0.130781
0.130005
0.129247
0.128507
0.12778
0.127065
0.126359
0.12566
0.124967
0.12428
0.123597
0.122918
0.122241
0.121569
0.1209
0.12023
0.119559
0.118887
0.118213
0.117537
0.11686
0.116182
0.115504
0.114825
0.114145
0.113466
0.112788
0.112112
0.11144
0.110772
0.11011
0.109453
0.108805
0.10817
0.10755
0.106946
0.106362
0.105798
0.105258
0.104745
0.104263
0.103814
0.103402
0.10303
0.1027
0.102416
0.102182
0.102001
0.101883
0.101836
0.101851
0.101928
0.102072
0.102286
0.102572
0.102933
0.103372
0.103892
0.104495
0.105183
0.105958
0.106823
0.107778
0.108827
0.109968
0.111207
0.112542
0.113974
0.1155
0.11712
0.11883
0.120627
0.122504
0.124457
0.126476
0.128557
0.130681
0.132812
0.13492
0.136934
0.138802
0.140399
0.14158
0.129943
0.13056
0.13058
0.130205
0.129569
0.128748
0.127833
0.126856
0.125862
0.124873
0.123897
0.122937
0.122
0.121085
0.120194
0.119326
0.118478
0.117653
0.116846
0.116059
0.115287
0.114532
0.113787
0.113053
0.112329
0.111613
0.110906
0.110207
0.109515
0.10883
0.10815
0.107475
0.106805
0.106138
0.105475
0.104816
0.104159
0.103506
0.102855
0.102204
0.101557
0.100915
0.100278
0.0996472
0.0990239
0.0984087
0.0978025
0.0972065
0.0966234
0.0960553
0.095504
0.0949713
0.0944591
0.0939695
0.0935047
0.0930676
0.0926609
0.092287
0.0919485
0.091648
0.0913882
0.091172
0.0910022
0.0908811
0.090826
0.0908282
0.0908863
0.0910027
0.09118
0.0914214
0.0917293
0.0921065
0.0925553
0.0930785
0.0936782
0.0943565
0.0951152
0.0959569
0.0968829
0.0978956
0.0989952
0.100186
0.101466
0.102838
0.1043
0.10585
0.107486
0.109205
0.111001
0.112869
0.114802
0.116795
0.11883
0.120876
0.122902
0.124844
0.126652
0.128213
0.12938
0.118955
0.119537
0.119546
0.119171
0.118542
0.117732
0.116826
0.115856
0.114866
0.113877
0.112895
0.111926
0.110975
0.110045
0.109139
0.108255
0.10739
0.106546
0.105721
0.104914
0.104123
0.103346
0.102583
0.101833
0.101096
0.100371
0.0996571
0.0989544
0.0982613
0.0975767
0.0968987
0.0962296
0.095569
0.0949165
0.0942717
0.0936343
0.0930038
0.0923798
0.091762
0.0911504
0.0905464
0.0899505
0.0893634
0.0887857
0.088218
0.087661
0.0871159
0.0865839
0.0860668
0.0855661
0.0850834
0.0846201
0.0841779
0.0837586
0.0833644
0.0829972
0.0826594
0.0823529
0.08208
0.0818429
0.0816441
0.0814861
0.0813714
0.0813024
0.0812933
0.0813341
0.081426
0.0815713
0.0817724
0.0820321
0.0823528
0.0827371
0.0831872
0.0837056
0.0842945
0.0849559
0.0856916
0.0865042
0.087395
0.0883665
0.0894192
0.0905567
0.091779
0.0930872
0.0944808
0.0959582
0.0975174
0.0991554
0.100867
0.102647
0.104491
0.106391
0.108332
0.110285
0.11222
0.114076
0.115804
0.117298
0.118416
0.108972
0.109509
0.109499
0.109119
0.108495
0.107697
0.106804
0.105849
0.104872
0.103896
0.102924
0.101963
0.101016
0.100086
0.0991747
0.0982834
0.0974102
0.0965584
0.0957251
0.0949097
0.0941096
0.0933228
0.0925518
0.0917964
0.0910562
0.0903309
0.0896201
0.088923
0.0882388
0.0875667
0.0869062
0.0862581
0.0856218
0.0849969
0.0843829
0.0837793
0.0831857
0.0826018
0.0820275
0.0814629
0.0809086
0.0803649
0.0798322
0.0793109
0.0788015
0.0783048
0.0778216
0.0773529
0.0769001
0.0764642
0.0760465
0.0756484
0.0752711
0.0749162
0.0745856
0.0742807
0.0740036
0.0737557
0.0735392
0.073356
0.0732081
0.0730979
0.0730278
0.073001
0.0730259
0.0730955
0.0732115
0.0733763
0.073592
0.0738611
0.074186
0.074569
0.0750123
0.0755184
0.0760893
0.0767271
0.0774336
0.0782112
0.0790615
0.0799867
0.0809879
0.0820684
0.0832286
0.0844697
0.0857917
0.0871933
0.0886726
0.0902268
0.091851
0.0935412
0.0952914
0.0970956
0.0989388
0.100794
0.10263
0.10439
0.106023
0.107426
0.108475
0.099891
0.100383
0.100354
0.0999721
0.0993583
0.0985787
0.0977059
0.0967716
0.0958132
0.0948499
0.093889
0.092936
0.0919947
0.0910672
0.0901533
0.089258
0.0883814
0.0875264
0.0866909
0.0858746
0.0850759
0.0842944
0.0835309
0.0827856
0.0820578
0.0813476
0.0806543
0.0799776
0.0793165
0.0786708
0.0780401
0.0774244
0.076823
0.0762354
0.0756611
0.0750995
0.0745503
0.0740131
0.0734878
0.0729743
0.0724729
0.0719836
0.0715066
0.0710422
0.0705909
0.0701531
0.0697296
0.069321
0.0689284
0.0685526
0.0681946
0.0678555
0.0675364
0.0672386
0.0669636
0.0667127
0.0664874
0.0662892
0.0661197
0.0659807
0.0658738
0.0658009
0.0657635
0.0657713
0.0658205
0.0659099
0.0660414
0.0662171
0.0664391
0.0667097
0.0670311
0.0674056
0.0678352
0.0683224
0.0688692
0.0694776
0.0701494
0.070887
0.0716921
0.0725668
0.0735124
0.0745322
0.075627
0.076798
0.0780456
0.0793686
0.0807655
0.0822336
0.0837683
0.0853658
0.0870204
0.0887263
0.090469
0.0922226
0.0939569
0.0956183
0.0971542
0.0984667
0.0994414
0.0916301
0.0920798
0.0920332
0.0916495
0.0910443
0.0902808
0.0894255
0.0885093
0.0875658
0.0866126
0.08566
0.084714
0.0837784
0.0828562
0.0819492
0.0810617
0.0801939
0.0793486
0.0785246
0.0777217
0.0769389
0.0761762
0.0754337
0.0747113
0.0740087
0.0733257
0.0726619
0.0720168
0.0713897
0.0707803
0.070188
0.0696126
0.0690532
0.0685093
0.0679803
0.0674656
0.0669647
0.0664773
0.0660031
0.0655419
0.0650936
0.0646582
0.0642357
0.0638264
0.0634304
0.0630481
0.0626801
0.0623268
0.0619889
0.0616672
0.0613623
0.0610753
0.060807
0.0605586
0.0603311
0.0601257
0.0599437
0.0597864
0.0596552
0.0595516
0.0594771
0.0594334
0.059422
0.0594518
0.059517
0.0596185
0.0597579
0.0599373
0.0601587
0.0604241
0.0607357
0.0610956
0.061506
0.061969
0.0624867
0.063061
0.0636938
0.0643874
0.0651435
0.0659643
0.0668514
0.0678077
0.0688343
0.0699329
0.0711038
0.0723462
0.0736588
0.0750389
0.0764825
0.0779857
0.0795434
0.0811495
0.0827907
0.0844421
0.0860743
0.0876369
0.0890789
0.0903115
0.0912198
0.0840851
0.0844945
0.0844294
0.084043
0.0834434
0.0826926
0.0818512
0.0809503
0.0800219
0.0790843
0.078147
0.0772161
0.076296
0.07539
0.0745009
0.0736323
0.072785
0.0719617
0.0711613
0.0703841
0.0696292
0.0688964
0.0681856
0.0674966
0.066829
0.0661827
0.0655571
0.0649518
0.064366
0.0637993
0.0632511
0.0627208
0.0622076
0.0617108
0.0612297
0.0607638
0.0603125
0.0598752
0.0594517
0.0590416
0.0586446
0.0582607
0.0578897
0.0575317
0.0571869
0.0568554
0.0565376
0.0562338
0.0559445
0.0556703
0.0554118
0.0551698
0.0549449
0.0547382
0.0545505
0.0543828
0.0542362
0.0541118
0.054011
0.0539351
0.0538853
0.0538634
0.0538707
0.0539141
0.0539887
0.0540958
0.0542371
0.0544144
0.0546295
0.0548845
0.0551814
0.0555223
0.055909
0.0563438
0.0568287
0.0573655
0.0579562
0.058603
0.0593076
0.0600721
0.0608984
0.0617893
0.0627461
0.0637706
0.0648633
0.0660238
0.0672508
0.0685419
0.0698932
0.0713014
0.0727615
0.0742676
0.0758071
0.0773566
0.0788876
0.0803531
0.0817041
0.0828588
0.0837073
0.0771683
0.0775382
0.0774563
0.0770684
0.0764763
0.0757404
0.0749167
0.074036
0.0731292
0.072214
0.0712999
0.0703931
0.0694981
0.0686186
0.0677575
0.0669183
0.066102
0.065311
0.0645445
0.0638029
0.0630852
0.0623911
0.0617202
0.0610722
0.0604468
0.0598437
0.0592622
0.0587018
0.0581617
0.0576415
0.0571402
0.0566572
0.0561917
0.0557429
0.0553101
0.0548926
0.0544898
0.0541011
0.0537261
0.0533643
0.0530155
0.0526793
0.0523556
0.0520444
0.0517456
0.0514595
0.0511862
0.0509259
0.050679
0.0504458
0.0502271
0.0500232
0.0498349
0.0496628
0.0495079
0.0493709
0.0492527
0.0491545
0.0490773
0.0490222
0.0489907
0.0489842
0.0490042
0.0490552
0.049134
0.0492417
0.0493802
0.0495509
0.0497557
0.0499966
0.0502752
0.0505937
0.0509538
0.0513578
0.0518074
0.0523046
0.0528512
0.0534495
0.0541011
0.0548081
0.0555724
0.0563969
0.0572831
0.0582327
0.0592466
0.0603246
0.0614655
0.0626672
0.0639261
0.065239
0.0666015
0.0680078
0.0694463
0.0708948
0.072326
0.0736963
0.0749584
0.0760363
0.0768251
0.0708286
0.0711607
0.0710647
0.0706779
0.0700969
0.0693798
0.0685788
0.0677245
0.066846
0.0659607
0.0650779
0.0642037
0.0633428
0.0624987
0.0616746
0.0608737
0.0600969
0.0593465
0.058622
0.0579233
0.0572497
0.0566005
0.0559753
0.0553735
0.0547947
0.0542386
0.0537044
0.0531916
0.0526992
0.0522266
0.051773
0.0513375
0.0509192
0.0505175
0.0501315
0.0497604
0.0494037
0.0490606
0.0487308
0.0484135
0.0481087
0.0478157
0.0475346
0.0472651
0.0470072
0.046761
0.0465264
0.0463037
0.0460932
0.0458951
0.0457099
0.0455381
0.0453801
0.0452367
0.0451084
0.0449961
0.0449006
0.0448227
0.0447634
0.0447238
0.0447051
0.0447082
0.0447371
0.0447914
0.0448703
0.044975
0.0451072
0.0452683
0.04546
0.045684
0.0459422
0.0462363
0.0465681
0.0469397
0.0473528
0.0478094
0.0483112
0.0488603
0.0494585
0.0501077
0.0508101
0.0515682
0.0523838
0.0532587
0.0541941
0.0551898
0.0562449
0.0573575
0.0585244
0.0597427
0.0610083
0.0623157
0.0636541
0.0650029
0.0663359
0.0676126
0.0687874
0.0697897
0.0705197
0.0650264
0.0653231
0.0652162
0.0648343
0.0642686
0.0635751
0.0628026
0.0619808
0.0611374
0.060289
0.0594448
0.0586109
0.0577916
0.0569906
0.0562107
0.0554548
0.0547242
0.0540207
0.0533437
0.0526931
0.0520679
0.0514676
0.0508912
0.0503383
0.0498084
0.049301
0.0488152
0.0483504
0.0479056
0.0474802
0.0470731
0.0466836
0.0463108
0.0459538
0.0456119
0.0452842
0.0449702
0.044669
0.0443803
0.0441034
0.043838
0.0435836
0.0433402
0.0431074
0.0428852
0.0426735
0.0424724
0.0422819
0.0421023
0.0419338
0.0417768
0.0416316
0.0414988
0.0413787
0.0412721
0.0411795
0.0411018
0.0410396
0.0409939
0.0409656
0.0409556
0.0409651
0.0409983
0.0410528
0.0411291
0.0412284
0.041352
0.0415015
0.0416783
0.0418841
0.0421205
0.0423893
0.0426922
0.043031
0.0434075
0.0438234
0.0442806
0.044781
0.0453263
0.0459185
0.0465597
0.0472523
0.0479984
0.0487998
0.0496577
0.0505723
0.0515428
0.0525674
0.0536435
0.0547683
0.0559382
0.0571481
0.0583879
0.0596386
0.0608752
0.06206
0.0631493
0.0640774
0.0647499
0.0597296
0.0599938
0.0598797
0.0595066
0.0589608
0.0582958
0.0575572
0.0567737
0.0559714
0.0551661
0.0543668
0.0535793
0.0528076
0.0520552
0.0513248
0.050619
0.049939
0.0492862
0.0486602
0.0480605
0.0474861
0.0469363
0.0464101
0.045907
0.0454262
0.0449671
0.0445291
0.0441112
0.0437126
0.0433324
0.0429697
0.0426236
0.0422933
0.0419779
0.0416767
0.0413887
0.0411135
0.0408502
0.0405983
0.0403574
0.0401269
0.0399066
0.0396961
0.0394952
0.0393039
0.0391219
0.0389494
0.0387864
0.038633
0.0384894
0.0383559
0.0382329
0.0381206
0.0380197
0.0379305
0.0378537
0.03779
0.0377399
0.0377044
0.0376842
0.0376803
0.0376937
0.0377278
0.0377804
0.0378522
0.0379444
0.0380582
0.038195
0.0383561
0.0385432
0.0387576
0.0390011
0.0392752
0.0395817
0.0399221
0.0402984
0.040712
0.0411649
0.0416588
0.0421956
0.0427772
0.0434063
0.0440848
0.0448145
0.0455969
0.0464323
0.0473201
0.0482588
0.049246
0.0502793
0.0513555
0.0524697
0.053613
0.0547675
0.0559097
0.0570044
0.0580102
0.058866
0.0594831
0.0549108
0.0551456
0.0550277
0.0546673
0.0541457
0.0535138
0.0528138
0.0520735
0.0513172
0.0505599
0.0498102
0.0490735
0.0483536
0.0476536
0.0469761
0.0463233
0.0456962
0.0450962
0.0445225
0.0439746
0.0434515
0.0429522
0.0424758
0.0420215
0.0415886
0.0411764
0.0407842
0.040411
0.040056
0.0397183
0.0393969
0.039091
0.0387998
0.0385224
0.0382581
0.038006
0.0377655
0.0375359
0.0373168
0.0371075
0.0369077
0.0367171
0.0365352
0.036362
0.0361972
0.0360407
0.0358926
0.0357528
0.0356216
0.0354989
0.0353851
0.0352804
0.0351852
0.0350998
0.0350248
0.0349607
0.0349079
0.0348672
0.0348393
0.034825
0.0348249
0.0348402
0.0348734
0.0349227
0.034989
0.0350732
0.0351766
0.0353004
0.0354458
0.0356142
0.0358071
0.0360259
0.0362721
0.0365474
0.0368532
0.0371913
0.0375632
0.0379706
0.0384152
0.0388988
0.0394234
0.0399915
0.040605
0.0412658
0.0419754
0.0427343
0.0435422
0.0443977
0.0452987
0.0462431
0.0472282
0.0482495
0.0492987
0.0503596
0.0514098
0.0524168
0.0533415
0.0541274
0.0546915
0.0505445
0.050753
0.0506345
0.0502903
0.0497966
0.0492013
0.0485437
0.0478503
0.0471435
0.0464376
0.0457406
0.0450574
0.0443917
0.0437461
0.0431229
0.0425242
0.0419508
0.0414037
0.0408821
0.0403854
0.0399126
0.0394625
0.0390341
0.0386266
0.0382393
0.0378715
0.0375223
0.0371908
0.0368763
0.0365777
0.0362942
0.036025
0.0357692
0.0355261
0.0352948
0.0350747
0.0348651
0.0346654
0.034475
0.0342935
0.0341205
0.0339556
0.0337985
0.033649
0.0335071
0.0333724
0.0332451
0.0331251
0.0330125
0.0329074
0.0328101
0.0327207
0.0326396
0.0325671
0.0325037
0.0324497
0.0324057
0.0323723
0.0323501
0.0323398
0.0323422
0.032358
0.0323893
0.0324346
0.0324948
0.0325708
0.0326637
0.0327747
0.0329048
0.0330553
0.0332275
0.0334228
0.0336425
0.0338881
0.0341612
0.0344631
0.0347955
0.0351599
0.0355579
0.0359911
0.0364617
0.0369719
0.0375237
0.0381189
0.0387592
0.0394451
0.0401764
0.0409521
0.0417704
0.0426293
0.0435266
0.0444582
0.0454167
0.0463869
0.0473481
0.0482703
0.0491168
0.0498355
0.0503495
0.0466055
0.0467908
0.0466744
0.0463492
0.0458861
0.0453302
0.0447176
0.0440734
0.0434183
0.0427655
0.0421227
0.0414942
0.0408834
0.0402925
0.0397236
0.0391785
0.038658
0.0381626
0.0376916
0.0372443
0.0368196
0.0364162
0.0360333
0.0356699
0.0353252
0.0349986
0.0346892
0.0343961
0.0341185
0.0338556
0.0336064
0.0333703
0.0331463
0.0329338
0.0327319
0.0325402
0.0323578
0.0321843
0.0320191
0.0318619
0.0317122
0.0315696
0.0314339
0.031305
0.0311826
0.0310666
0.0309571
0.0308539
0.0307572
0.030667
0.0305836
0.0305071
0.0304378
0.030376
0.0303221
0.0302764
0.0302395
0.0302118
0.030194
0.0301866
0.0301903
0.0302058
0.0302345
0.0302756
0.0303296
0.0303976
0.0304804
0.030579