/*--------------------------------*- C++ -*----------------------------------*\
  =========                 |
  \\      /  F ield         | OpenFOAM: The Open Source CFD Toolbox
   \\    /   O peration     | Website:  https://openfoam.org
    \\  /    A nd           | Version:  7
     \\/     M anipulation  |
\*---------------------------------------------------------------------------*/
FoamFile
{
    version     2.0;
    format      ascii;
    class       surfaceScalarField;
    location    "15000";
    object      phi;
}
// * * * * * * * * * * * * * * * * * * * * * * * * * * * * * * * * * * * * * //

dimensions      [0 3 -1 0 0 0 0];

internalField   nonuniform List<scalar> 
29254
(
-6.33211e-07
-3.20723e-09
-6.33711e-07
4.9932e-10
-6.31331e-07
-2.37938e-09
-6.28887e-07
-2.44405e-09
-6.2527e-07
-3.61762e-09
-6.20375e-07
-4.89432e-09
-6.14801e-07
-5.57383e-09
-6.08237e-07
-6.56438e-09
-6.00908e-07
-7.32947e-09
-5.92914e-07
-7.99345e-09
-5.84391e-07
-8.52302e-09
-5.75326e-07
-9.06565e-09
-5.65924e-07
-9.40144e-09
-5.56344e-07
-9.57963e-09
-5.4662e-07
-9.72453e-09
-5.36951e-07
-9.66921e-09
-5.27298e-07
-9.65316e-09
-5.17817e-07
-9.48075e-09
-5.08513e-07
-9.30335e-09
-4.99529e-07
-8.98416e-09
-4.90846e-07
-8.68291e-09
-4.82504e-07
-8.34268e-09
-4.74523e-07
-7.981e-09
-4.66989e-07
-7.53401e-09
-4.59871e-07
-7.11761e-09
-4.53148e-07
-6.72262e-09
-4.46849e-07
-6.29926e-09
-4.40946e-07
-5.90315e-09
-4.35476e-07
-5.46956e-09
-4.30446e-07
-5.03079e-09
-4.25846e-07
-4.59934e-09
-4.21675e-07
-4.17175e-09
-4.17922e-07
-3.75239e-09
-4.14586e-07
-3.33618e-09
-4.11659e-07
-2.92744e-09
-4.09093e-07
-2.56512e-09
-4.06917e-07
-2.17686e-09
-4.05121e-07
-1.79515e-09
-4.03702e-07
-1.41896e-09
-4.026e-07
-1.10261e-09
-4.01841e-07
-7.58517e-10
-4.01451e-07
-3.89907e-10
-4.01398e-07
-5.37908e-11
-4.01709e-07
3.11477e-10
-4.02327e-07
6.18054e-10
-4.03234e-07
9.06617e-10
-4.04431e-07
1.1967e-09
-4.05915e-07
1.48493e-09
-4.07688e-07
1.77282e-09
-4.09735e-07
2.04658e-09
-4.12046e-07
2.31068e-09
-4.14633e-07
2.58711e-09
-4.17467e-07
2.83433e-09
-4.20539e-07
3.07191e-09
-4.2384e-07
3.30064e-09
-4.27354e-07
3.51481e-09
-4.31077e-07
3.72232e-09
-4.3499e-07
3.91308e-09
-4.39082e-07
4.09236e-09
-4.43395e-07
4.3129e-09
-4.47871e-07
4.47561e-09
-4.5252e-07
4.64939e-09
-4.57297e-07
4.77729e-09
-4.62137e-07
4.83987e-09
-4.67079e-07
4.94182e-09
-4.72115e-07
5.03567e-09
-4.77236e-07
5.12142e-09
-4.82397e-07
5.1606e-09
-4.87617e-07
5.22017e-09
-4.92891e-07
5.27392e-09
-4.98205e-07
5.31427e-09
-5.0356e-07
5.35459e-09
-5.08943e-07
5.38294e-09
-5.14352e-07
5.4097e-09
-5.1979e-07
5.43738e-09
-5.25251e-07
5.46184e-09
-5.3073e-07
5.47863e-09
-5.36244e-07
5.51435e-09
-5.41766e-07
5.52148e-09
-5.47359e-07
5.59267e-09
-5.52939e-07
5.58023e-09
-5.58586e-07
5.64752e-09
-5.64248e-07
5.66162e-09
-5.69927e-07
5.6787e-09
-5.75626e-07
5.69969e-09
-5.81342e-07
5.71529e-09
-5.87029e-07
5.68739e-09
-5.92664e-07
5.63531e-09
-5.9821e-07
5.54547e-09
-6.03654e-07
5.44425e-09
-6.0886e-07
5.20545e-09
-6.13908e-07
5.04823e-09
-6.18683e-07
4.77551e-09
-6.22848e-07
4.16458e-09
-6.26764e-07
3.91659e-09
-6.29724e-07
2.95988e-09
-6.31588e-07
1.86341e-09
-6.32785e-07
1.19755e-09
3.64117e-09
-1.96535e-06
-1.2007e-08
-1.96612e-06
1.26477e-09
-1.96434e-06
-4.15725e-09
-1.96416e-06
-2.62555e-09
-1.96277e-06
-5.00854e-09
-1.95838e-06
-9.28411e-09
-1.95247e-06
-1.14872e-08
-1.944e-06
-1.50282e-08
-1.9333e-06
-1.8034e-08
-1.92057e-06
-2.07248e-08
-1.90607e-06
-2.30145e-08
-1.88981e-06
-2.53266e-08
-1.87221e-06
-2.70006e-08
-1.85362e-06
-2.81784e-08
-1.83414e-06
-2.92026e-08
-1.81428e-06
-2.95302e-08
-1.79397e-06
-2.9964e-08
-1.77363e-06
-2.98168e-08
-1.75334e-06
-2.95952e-08
-1.73345e-06
-2.88744e-08
-1.71399e-06
-2.81407e-08
-1.69508e-06
-2.72506e-08
-1.67682e-06
-2.62436e-08
-1.65941e-06
-2.4941e-08
-1.64285e-06
-2.36786e-08
-1.62717e-06
-2.24062e-08
-1.61243e-06
-2.10377e-08
-1.59863e-06
-1.97058e-08
-1.58586e-06
-1.82398e-08
-1.57416e-06
-1.67238e-08
-1.56355e-06
-1.52093e-08
-1.55404e-06
-1.36856e-08
-1.54562e-06
-1.21678e-08
-1.53832e-06
-1.06435e-08
-1.53211e-06
-9.13414e-09
-1.52692e-06
-7.75723e-09
-1.5228e-06
-6.292e-09
-1.51977e-06
-4.83234e-09
-1.51779e-06
-3.39068e-09
-1.51678e-06
-2.1195e-09
-1.51677e-06
-7.62376e-10
-1.5178e-06
6.3579e-10
-1.5198e-06
1.95134e-09
-1.52284e-06
3.34239e-09
-1.52676e-06
4.54281e-09
-1.53152e-06
5.66381e-09
-1.5371e-06
6.78403e-09
-1.54351e-06
7.89221e-09
-1.55074e-06
9.00313e-09
-1.55875e-06
1.00573e-08
-1.56751e-06
1.10646e-08
-1.57702e-06
1.20968e-08
-1.5872e-06
1.30145e-08
-1.598e-06
1.38774e-08
-1.60939e-06
1.46917e-08
-1.62131e-06
1.54291e-08
-1.63371e-06
1.61213e-08
-1.64652e-06
1.67287e-08
-1.6597e-06
1.72744e-08
-1.6733e-06
1.79099e-08
-1.68716e-06
1.83385e-08
-1.70125e-06
1.87342e-08
-1.71546e-06
1.89895e-08
-1.72962e-06
1.90015e-08
-1.74376e-06
1.90834e-08
-1.75784e-06
1.91091e-08
-1.77178e-06
1.90674e-08
-1.78547e-06
1.88467e-08
-1.7989e-06
1.86481e-08
-1.81203e-06
1.8405e-08
-1.8248e-06
1.80844e-08
-1.83718e-06
1.77384e-08
-1.84912e-06
1.73238e-08
-1.8606e-06
1.68857e-08
-1.8716e-06
1.6438e-08
-1.8821e-06
1.59614e-08
-1.89206e-06
1.54355e-08
-1.90151e-06
1.49717e-08
-1.91039e-06
1.44001e-08
-1.91886e-06
1.40565e-08
-1.92668e-06
1.34057e-08
-1.93408e-06
1.30442e-08
-1.94093e-06
1.25172e-08
-1.94728e-06
1.20256e-08
-1.95314e-06
1.1563e-08
-1.95852e-06
1.10904e-08
-1.96331e-06
1.04818e-08
-1.96754e-06
9.86066e-09
-1.97112e-06
9.12701e-09
-1.97408e-06
8.40832e-09
-1.9761e-06
7.2244e-09
-1.97742e-06
6.36129e-09
-1.978e-06
5.36007e-09
-1.97732e-06
3.48094e-09
-1.97643e-06
3.02928e-09
-1.97393e-06
4.63513e-10
-1.97087e-06
-1.19788e-09
-1.96926e-06
-4.1406e-10
8.53382e-09
-3.4131e-06
-2.79001e-08
-3.4151e-06
3.25609e-09
-3.41917e-06
-7.97496e-11
-3.42951e-06
7.70953e-09
-3.44077e-06
6.25718e-09
-3.44847e-06
-1.58817e-09
-3.45463e-06
-5.32968e-09
-3.45731e-06
-1.2347e-08
-3.4566e-06
-1.87446e-08
-3.45268e-06
-2.46472e-08
-3.44584e-06
-2.98547e-08
-3.43598e-06
-3.51866e-08
-3.42364e-06
-3.93379e-08
-3.40925e-06
-4.25679e-08
-3.39294e-06
-4.55129e-08
-3.37544e-06
-4.70295e-08
-3.3566e-06
-4.87991e-08
-3.3371e-06
-4.93171e-08
-3.31706e-06
-4.9636e-08
-3.29702e-06
-4.89196e-08
-3.27706e-06
-4.80954e-08
-3.25739e-06
-4.69255e-08
-3.23816e-06
-4.54713e-08
-3.2197e-06
-4.34008e-08
-3.20205e-06
-4.13308e-08
-3.18533e-06
-3.91233e-08
-3.16967e-06
-3.67024e-08
-3.1551e-06
-3.42738e-08
-3.14179e-06
-3.15463e-08
-3.12985e-06
-2.86634e-08
-3.11933e-06
-2.57363e-08
-3.11027e-06
-2.27438e-08
-3.10271e-06
-1.9723e-08
-3.09671e-06
-1.66496e-08
-3.09226e-06
-1.35781e-08
-3.08929e-06
-1.0732e-08
-3.08789e-06
-7.68971e-09
-3.08809e-06
-4.6319e-09
-3.08989e-06
-1.59333e-09
-3.09315e-06
1.14425e-09
-3.09797e-06
4.05899e-09
-3.10434e-06
7.00262e-09
-3.1122e-06
9.81289e-09
-3.12161e-06
1.2749e-08
-3.13237e-06
1.5309e-08
-3.14439e-06
1.76752e-08
-3.15762e-06
2.00146e-08
-3.17204e-06
2.23157e-08
-3.18767e-06
2.46316e-08
-3.20443e-06
2.68206e-08
-3.22226e-06
2.88885e-08
-3.24112e-06
3.09652e-08
-3.26089e-06
3.27786e-08
-3.28145e-06
3.44352e-08
-3.3027e-06
3.59501e-08
-3.32453e-06
3.72548e-08
-3.34682e-06
3.84166e-08
-3.36944e-06
3.93483e-08
-3.39227e-06
4.01008e-08
-3.41531e-06
4.09457e-08
-3.4383e-06
4.13292e-08
-3.46109e-06
4.15281e-08
-3.48354e-06
4.14397e-08
-3.50534e-06
4.08043e-08
-3.52647e-06
4.02059e-08
-3.54678e-06
3.9423e-08
-3.56615e-06
3.84322e-08
-3.58433e-06
3.70262e-08
-3.60126e-06
3.55848e-08
-3.61686e-06
3.39985e-08
-3.63097e-06
3.21989e-08
-3.64353e-06
3.03027e-08
-3.65443e-06
2.82237e-08
-3.66362e-06
2.60697e-08
-3.67106e-06
2.38826e-08
-3.67672e-06
2.16191e-08
-3.68051e-06
1.92209e-08
-3.6825e-06
1.69682e-08
-3.68258e-06
1.44789e-08
-3.68104e-06
1.25194e-08
-3.67753e-06
9.89587e-09
-3.67244e-06
7.94593e-09
-3.66563e-06
5.71382e-09
-3.65725e-06
3.64023e-09
-3.64738e-06
1.69291e-09
-3.63608e-06
-2.06502e-10
-3.62328e-06
-2.32197e-09
-3.60912e-06
-4.29757e-09
-3.59357e-06
-6.41697e-09
-3.57681e-06
-8.35704e-09
-3.55841e-06
-1.11744e-08
-3.53892e-06
-1.31253e-08
-3.51875e-06
-1.48088e-08
-3.49747e-06
-1.7808e-08
-3.47717e-06
-1.72654e-08
-3.4564e-06
-2.03091e-08
-3.4386e-06
-1.89939e-08
-3.4273e-06
-1.17133e-08
1.02282e-08
-4.94154e-06
-5.23212e-08
-4.94516e-06
6.88068e-09
-4.95749e-06
1.22468e-08
-4.98281e-06
3.30343e-08
-5.01258e-06
3.60221e-08
-5.03929e-06
2.51276e-08
-5.06528e-06
2.0662e-08
-5.08757e-06
9.94259e-09
-5.10589e-06
-4.3068e-10
-5.12028e-06
-1.02562e-08
-5.13102e-06
-1.91116e-08
-5.13794e-06
-2.82664e-08
-5.1415e-06
-3.57797e-08
-5.14212e-06
-4.19439e-08
-5.1399e-06
-4.77378e-08
-5.13569e-06
-5.12359e-08
-5.12924e-06
-5.52501e-08
-5.12143e-06
-5.7133e-08
-5.11237e-06
-5.86955e-08
-5.10269e-06
-5.85978e-08
-5.09256e-06
-5.82232e-08
-5.08222e-06
-5.72673e-08
-5.07186e-06
-5.58304e-08
-5.06181e-06
-5.34507e-08
-5.05224e-06
-5.09041e-08
-5.04337e-06
-4.79911e-08
-5.03533e-06
-4.47386e-08
-5.02829e-06
-4.13165e-08
-5.02241e-06
-3.74272e-08
-5.01785e-06
-3.32238e-08
-5.0147e-06
-2.88836e-08
-5.01307e-06
-2.43726e-08
-5.01303e-06
-1.9764e-08
-5.01466e-06
-1.50189e-08
-5.01801e-06
-1.02294e-08
-5.02304e-06
-5.70162e-09
-5.02986e-06
-8.73677e-10
-5.03851e-06
4.0182e-09
-5.04902e-06
8.91599e-09
-5.06133e-06
1.346e-08
-5.07548e-06
1.82055e-08
-5.09141e-06
2.29328e-08
-5.1091e-06
2.75035e-08
-5.12854e-06
3.21869e-08
-5.14956e-06
3.63314e-08
-5.172e-06
4.01155e-08
-5.19578e-06
4.37967e-08
-5.22083e-06
4.73668e-08
-5.24719e-06
5.09862e-08
-5.27476e-06
5.43902e-08
-5.30342e-06
5.75468e-08
-5.33309e-06
6.06416e-08
-5.36358e-06
6.32626e-08
-5.3947e-06
6.55613e-08
-5.42631e-06
6.75571e-08
-5.45818e-06
6.91202e-08
-5.49013e-06
7.03713e-08
-5.52194e-06
7.11558e-08
-5.55339e-06
7.1555e-08
-5.58435e-06
7.19019e-08
-5.61451e-06
7.14879e-08
-5.64357e-06
7.05907e-08
-5.67133e-06
6.92009e-08
-5.69747e-06
6.6945e-08
-5.72178e-06
6.45193e-08
-5.74404e-06
6.16765e-08
-5.764e-06
5.83899e-08
-5.78136e-06
5.4389e-08
-5.79595e-06
5.01762e-08
-5.8076e-06
4.56522e-08
-5.8161e-06
4.07003e-08
-5.82134e-06
3.55369e-08
-5.82313e-06
3.00197e-08
-5.82142e-06
2.43528e-08
-5.81617e-06
1.86326e-08
-5.80733e-06
1.27843e-08
-5.79479e-06
6.68148e-09
-5.77869e-06
8.63087e-10
-5.75886e-06
-5.35411e-09
-5.73579e-06
-1.05511e-08
-5.709e-06
-1.68879e-08
-5.67912e-06
-2.19383e-08
-5.64605e-06
-2.73493e-08
-5.61011e-06
-3.23049e-08
-5.57148e-06
-3.69327e-08
-5.53035e-06
-4.13416e-08
-5.4867e-06
-4.59716e-08
-5.44095e-06
-5.00464e-08
-5.39313e-06
-5.42341e-08
-5.34366e-06
-5.78262e-08
-5.29213e-06
-6.27079e-08
-5.2394e-06
-6.58585e-08
-5.1866e-06
-6.76011e-08
-5.13358e-06
-7.08372e-08
-5.08381e-06
-6.70345e-08
-5.03614e-06
-6.79731e-08
-4.99684e-06
-5.82917e-08
-4.97055e-06
-3.80049e-08
5.63318e-09
-6.46031e-06
-8.60328e-08
-6.46537e-06
1.19459e-08
-6.48614e-06
3.30164e-08
-6.52661e-06
7.34972e-08
-6.5754e-06
8.48146e-08
-6.62239e-06
7.21167e-08
-6.66999e-06
6.82685e-08
-6.71429e-06
5.42351e-08
-6.75457e-06
3.98564e-08
-6.79075e-06
2.59208e-08
-6.82302e-06
1.31545e-08
-6.851e-06
-2.85703e-10
-6.87513e-06
-1.16488e-08
-6.89583e-06
-2.12411e-08
-6.91306e-06
-3.05084e-08
-6.9278e-06
-3.64947e-08
-6.93961e-06
-4.34438e-08
-6.94952e-06
-4.72263e-08
-6.9576e-06
-5.06062e-08
-6.96457e-06
-5.16329e-08
-6.97058e-06
-5.22131e-08
-6.97588e-06
-5.19698e-08
-6.98066e-06
-5.10511e-08
-6.98527e-06
-4.88341e-08
-6.98993e-06
-4.62507e-08
-6.99489e-06
-4.30256e-08
-7.00032e-06
-3.93138e-08
-7.00641e-06
-3.52272e-08
-7.01336e-06
-3.04697e-08
-7.02138e-06
-2.52068e-08
-7.03059e-06
-1.96764e-08
-7.04113e-06
-1.38296e-08
-7.05311e-06
-7.78941e-09
-7.06662e-06
-1.50792e-09
-7.08174e-06
4.89793e-09
-7.09849e-06
1.10497e-08
-7.11701e-06
1.7642e-08
-7.13736e-06
2.4364e-08
-7.15958e-06
3.11404e-08
-7.18365e-06
3.75259e-08
-7.20958e-06
4.41404e-08
-7.23731e-06
5.06617e-08
-7.26682e-06
5.70112e-08
-7.29808e-06
6.34534e-08
-7.33095e-06
6.91942e-08
-7.36522e-06
7.43878e-08
-7.40075e-06
7.93223e-08
-7.43736e-06
8.39791e-08
-7.4751e-06
8.87316e-08
-7.51389e-06
9.31778e-08
-7.55354e-06
9.72e-08
-7.59394e-06
1.01035e-07
-7.6348e-06
1.04127e-07
-7.6759e-06
1.06659e-07
-7.71701e-06
1.08666e-07
-7.75782e-06
1.09934e-07
-7.7981e-06
1.10648e-07
-7.83751e-06
1.1057e-07
-7.87577e-06
1.09812e-07
-7.91264e-06
1.08767e-07
-7.94771e-06
1.0656e-07
-7.98059e-06
1.03473e-07
-8.011e-06
9.96074e-08
-8.03853e-06
9.44752e-08
-8.06288e-06
8.88679e-08
-8.08371e-06
8.25126e-08
-8.10071e-06
7.53908e-08
-8.11349e-06
6.71665e-08
-8.12179e-06
5.84775e-08
-8.12538e-06
4.92412e-08
-8.12398e-06
3.92981e-08
-8.11743e-06
2.89883e-08
-8.10551e-06
1.81032e-08
-8.08814e-06
6.97691e-09
-8.06528e-06
-4.22021e-09
-8.03693e-06
-1.55688e-08
-8.00296e-06
-2.72885e-08
-7.96357e-06
-3.85311e-08
-7.91856e-06
-5.03634e-08
-7.8686e-06
-6.05132e-08
-7.81311e-06
-7.23724e-08
-7.75294e-06
-8.21074e-08
-7.68807e-06
-9.22235e-08
-7.61896e-06
-1.01416e-07
-7.54595e-06
-1.09943e-07
-7.46935e-06
-1.17937e-07
-7.38927e-06
-1.26057e-07
-7.30636e-06
-1.32956e-07
-7.22079e-06
-1.39803e-07
-7.13323e-06
-1.45379e-07
-7.04337e-06
-1.5257e-07
-6.95253e-06
-1.56701e-07
-6.86255e-06
-1.57585e-07
-6.77364e-06
-1.59746e-07
-6.69076e-06
-1.4991e-07
-6.61329e-06
-1.45443e-07
-6.54999e-06
-1.21589e-07
-6.50658e-06
-8.14206e-08
-6.92537e-09
-7.88382e-06
-1.29466e-07
-7.88969e-06
1.78114e-08
-7.91756e-06
6.08862e-08
-7.97018e-06
1.26116e-07
-8.03459e-06
1.49225e-07
-8.09878e-06
1.36314e-07
-8.16508e-06
1.34565e-07
-8.22875e-06
1.17906e-07
-8.28876e-06
9.98655e-08
-8.34489e-06
8.20487e-08
-8.39721e-06
6.54811e-08
-8.44529e-06
4.77943e-08
-8.48943e-06
3.24888e-08
-8.52998e-06
1.93091e-08
-8.56676e-06
6.27105e-09
-8.60077e-06
-2.49038e-09
-8.63143e-06
-1.27775e-08
-8.6599e-06
-1.87624e-08
-8.68619e-06
-2.43124e-08
-8.71098e-06
-2.68383e-08
-8.73448e-06
-2.8714e-08
-8.75691e-06
-2.95448e-08
-8.77843e-06
-2.95272e-08
-8.79939e-06
-2.78757e-08
-8.82001e-06
-2.56332e-08
-8.84058e-06
-2.24502e-08
-8.86127e-06
-1.86251e-08
-8.88236e-06
-1.41406e-08
-8.904e-06
-8.82647e-09
-8.9264e-06
-2.80449e-09
-8.94972e-06
3.63778e-09
-8.97413e-06
1.05807e-08
-8.99977e-06
1.78475e-08
-9.02676e-06
2.54867e-08
-9.05521e-06
3.33512e-08
-9.08519e-06
4.10307e-08
-9.11684e-06
4.92854e-08
-9.1502e-06
5.7731e-08
-9.18535e-06
6.62836e-08
-9.22227e-06
7.44502e-08
-9.26097e-06
8.2838e-08
-9.30135e-06
9.10435e-08
-9.3434e-06
9.90568e-08
-9.38703e-06
1.0709e-07
-9.43217e-06
1.14329e-07
-9.47866e-06
1.20883e-07
-9.52644e-06
1.27099e-07
-9.5753e-06
1.32843e-07
-9.62512e-06
1.38544e-07
-9.67566e-06
1.43718e-07
-9.7267e-06
1.48245e-07
-9.77806e-06
1.52392e-07
-9.82941e-06
1.55477e-07
-9.88046e-06
1.57709e-07
-9.93092e-06
1.59126e-07
-9.98041e-06
1.59422e-07
-1.00286e-05
1.58859e-07
-1.00751e-05
1.57092e-07
-1.01196e-05
1.54271e-07
-1.01616e-05
1.5077e-07
-1.02007e-05
1.45693e-07
-1.02365e-05
1.39253e-07
-1.02686e-05
1.31677e-07
-1.02965e-05
1.22401e-07
-1.03199e-05
1.12221e-07
-1.03382e-05
1.0087e-07
-1.03512e-05
8.83578e-08
-1.03583e-05
7.43235e-08
-1.03593e-05
5.9463e-08
-1.03539e-05
4.37645e-08
-1.03416e-05
2.70174e-08
-1.03223e-05
9.72532e-09
-1.02958e-05
-8.39485e-09
-1.0262e-05
-2.68396e-08
-1.02209e-05
-4.53436e-08
-1.01724e-05
-6.40167e-08
-1.01165e-05
-8.31913e-08
-1.00534e-05
-1.01629e-07
-9.9829e-06
-1.20882e-07
-9.90576e-06
-1.37657e-07
-9.82136e-06
-1.56777e-07
-9.73072e-06
-1.72748e-07
-9.63389e-06
-1.89053e-07
-9.53151e-06
-2.03798e-07
-9.42403e-06
-2.17419e-07
-9.31191e-06
-2.30055e-07
-9.19537e-06
-2.42601e-07
-9.07533e-06
-2.52996e-07
-8.95209e-06
-2.63036e-07
-8.82659e-06
-2.70886e-07
-8.69862e-06
-2.80541e-07
-8.56992e-06
-2.85393e-07
-8.44306e-06
-2.84448e-07
-8.3187e-06
-2.8411e-07
-8.20314e-06
-2.65471e-07
-8.09632e-06
-2.52258e-07
-8.00918e-06
-2.0873e-07
-7.94853e-06
-1.42075e-07
-2.81971e-08
-9.19967e-06
-1.83334e-07
-9.20474e-06
2.28872e-08
-9.23743e-06
9.35682e-08
-9.29865e-06
1.87339e-07
-9.37467e-06
2.25242e-07
-9.45227e-06
2.13918e-07
-9.53347e-06
2.15765e-07
-9.61292e-06
1.97351e-07
-9.68928e-06
1.76232e-07
-9.76227e-06
1.55032e-07
-9.83185e-06
1.35069e-07
-9.89754e-06
1.1348e-07
-9.95952e-06
9.44732e-08
-1.00181e-05
7.78512e-08
-1.00729e-05
6.10728e-08
-1.01249e-05
4.95613e-08
-1.01735e-05
3.5817e-08
-1.02198e-05
2.75444e-08
-1.02638e-05
1.9706e-08
-1.03062e-05
1.55564e-08
-1.03472e-05
1.22464e-08
-1.03869e-05
1.0184e-08
-1.04256e-05
9.10103e-09
-1.04634e-05
9.96646e-09
-1.05007e-05
1.16475e-08
-1.05377e-05
1.45725e-08
-1.05746e-05
1.82856e-08
-1.06117e-05
2.29702e-08
-1.06492e-05
2.86287e-08
-1.06872e-05
3.51995e-08
-1.07259e-05
4.23602e-08
-1.07655e-05
5.02212e-08
-1.08062e-05
5.85453e-08
-1.08481e-05
6.73931e-08
-1.08914e-05
7.65708e-08
-1.0936e-05
8.56459e-08
-1.09821e-05
9.54132e-08
-1.10298e-05
1.05433e-07
-1.10791e-05
1.15612e-07
-1.11301e-05
1.2542e-07
-1.11827e-05
1.35434e-07
-1.12368e-05
1.45153e-07
-1.12924e-05
1.54663e-07
-1.13494e-05
1.6409e-07
-1.14078e-05
1.72662e-07
-1.14673e-05
1.8043e-07
-1.1528e-05
1.87819e-07
-1.15897e-05
1.94479e-07
-1.16519e-05
2.0082e-07
-1.17145e-05
2.06313e-07
-1.17772e-05
2.10888e-07
-1.18396e-05
2.14828e-07
-1.19015e-05
2.17336e-07
-1.19624e-05
2.18638e-07
-1.2022e-05
2.1878e-07
-1.208e-05
2.17347e-07
-1.21358e-05
2.14686e-07
-1.2189e-05
2.10337e-07
-1.22393e-05
2.04486e-07
-1.2286e-05
1.97461e-07
-1.23286e-05
1.88392e-07
-1.23668e-05
1.77408e-07
-1.24e-05
1.64871e-07
-1.24277e-05
1.50145e-07
-1.24495e-05
1.34005e-07
-1.24648e-05
1.16194e-07
-1.24733e-05
9.67727e-08
-1.24743e-05
7.53605e-08
-1.24675e-05
5.26919e-08
-1.24526e-05
2.88499e-08
-1.24292e-05
3.58584e-09
-1.23971e-05
-2.24057e-08
-1.2356e-05
-4.94718e-08
-1.23059e-05
-7.69535e-08
-1.22467e-05
-1.04488e-07
-1.21785e-05
-1.32211e-07
-1.21011e-05
-1.6058e-07
-1.20148e-05
-1.8792e-07
-1.19194e-05
-2.16293e-07
-1.18158e-05
-2.41286e-07
-1.17033e-05
-2.69281e-07
-1.15831e-05
-2.92959e-07
-1.14553e-05
-3.1685e-07
-1.13207e-05
-3.38399e-07
-1.11799e-05
-3.58241e-07
-1.10334e-05
-3.76513e-07
-1.08817e-05
-3.9433e-07
-1.07258e-05
-4.08838e-07
-1.05663e-05
-4.22526e-07
-1.04044e-05
-4.32865e-07
-1.02399e-05
-4.45028e-07
-1.0075e-05
-4.50257e-07
-9.91294e-06
-4.46522e-07
-9.75482e-06
-4.42238e-07
-9.60804e-06
-4.1225e-07
-9.4731e-06
-3.87192e-07
-9.36256e-06
-3.19268e-07
-9.28441e-06
-2.20229e-07
-5.90702e-08
-1.04291e-05
-2.47811e-07
-1.0433e-05
2.67661e-08
-1.04696e-05
1.30207e-07
-1.05364e-05
2.54101e-07
-1.06206e-05
3.09497e-07
-1.07087e-05
3.01979e-07
-1.08019e-05
3.08948e-07
-1.08945e-05
2.89969e-07
-1.09848e-05
2.66583e-07
-1.10726e-05
2.42782e-07
-1.11576e-05
2.20038e-07
-1.12392e-05
1.95154e-07
-1.13177e-05
1.72917e-07
-1.13931e-05
1.53296e-07
-1.14651e-05
1.33082e-07
-1.15346e-05
1.19036e-07
-1.16007e-05
1.0194e-07
-1.16646e-05
9.14536e-08
-1.17263e-05
8.13618e-08
-1.17863e-05
7.55972e-08
-1.1845e-05
7.08809e-08
-1.19024e-05
6.75702e-08
-1.19586e-05
6.53415e-08
-1.2014e-05
6.53354e-08
-1.20687e-05
6.63512e-08
-1.2123e-05
6.88743e-08
-1.2177e-05
7.23406e-08
-1.22312e-05
7.71246e-08
-1.22855e-05
8.29867e-08
-1.23403e-05
8.99604e-08
-1.23956e-05
9.76844e-08
-1.24517e-05
1.06309e-07
-1.25087e-05
1.15527e-07
-1.25667e-05
1.25413e-07
-1.26259e-05
1.35729e-07
-1.26863e-05
1.46046e-07
-1.2748e-05
1.57138e-07
-1.28111e-05
1.68536e-07
-1.28756e-05
1.80136e-07
-1.29416e-05
1.91389e-07
-1.3009e-05
2.02809e-07
-1.30776e-05
2.13838e-07
-1.31476e-05
2.24602e-07
-1.32186e-05
2.35121e-07
-1.32907e-05
2.44748e-07
-1.33637e-05
2.53417e-07
-1.34374e-05
2.6157e-07
-1.35116e-05
2.68661e-07
-1.3586e-05
2.75154e-07
-1.36601e-05
2.80458e-07
-1.37337e-05
2.84521e-07
-1.38065e-05
2.87641e-07
-1.38781e-05
2.8891e-07
-1.39481e-05
2.88571e-07
-1.4016e-05
2.86675e-07
-1.40813e-05
2.8269e-07
-1.41437e-05
2.77054e-07
-1.42025e-05
2.69185e-07
-1.42573e-05
2.593e-07
-1.43075e-05
2.4764e-07
-1.43526e-05
2.33447e-07
-1.43919e-05
2.16772e-07
-1.44251e-05
1.9803e-07
-1.44515e-05
1.76569e-07
-1.44706e-05
1.5312e-07
-1.44819e-05
1.27448e-07
-1.44848e-05
9.96627e-08
-1.44788e-05
6.94102e-08
-1.44635e-05
3.74057e-08
-1.44385e-05
3.86373e-09
-1.44035e-05
-3.14764e-08
-1.43582e-05
-6.77236e-08
-1.43023e-05
-1.05332e-07
-1.42358e-05
-1.4346e-07
-1.41586e-05
-1.81645e-07
-1.40708e-05
-2.20032e-07
-1.39722e-05
-2.592e-07
-1.38631e-05
-2.97019e-07
-1.37433e-05
-3.36056e-07
-1.36139e-05
-3.70735e-07
-1.34741e-05
-4.09052e-07
-1.33253e-05
-4.4178e-07
-1.31676e-05
-4.74508e-07
-1.3002e-05
-5.03991e-07
-1.28292e-05
-5.31049e-07
-1.26499e-05
-5.55826e-07
-1.24646e-05
-5.79632e-07
-1.22747e-05
-5.98742e-07
-1.20808e-05
-6.16413e-07
-1.18843e-05
-6.29382e-07
-1.16854e-05
-6.43986e-07
-1.14864e-05
-6.49183e-07
-1.12912e-05
-6.41722e-07
-1.11014e-05
-6.32077e-07
-1.09251e-05
-5.88504e-07
-1.07635e-05
-5.48816e-07
-1.06302e-05
-4.52564e-07
-1.05346e-05
-3.15881e-07
-1.0007e-07
-1.15927e-05
-3.2173e-07
-1.15946e-05
2.86102e-08
-1.16341e-05
1.69729e-07
-1.17053e-05
3.25278e-07
-1.17964e-05
4.00623e-07
-1.18937e-05
3.99273e-07
-1.19977e-05
4.12964e-07
-1.21024e-05
3.94682e-07
-1.22059e-05
3.70042e-07
-1.23077e-05
3.44592e-07
-1.24075e-05
3.19845e-07
-1.25048e-05
2.92426e-07
-1.25994e-05
2.67575e-07
-1.26917e-05
2.45515e-07
-1.27809e-05
2.22333e-07
-1.2868e-05
2.06122e-07
-1.2952e-05
1.85918e-07
-1.30339e-05
1.73362e-07
-1.31136e-05
1.61109e-07
-1.31918e-05
1.53813e-07
-1.32687e-05
1.47792e-07
-1.33445e-05
1.43284e-07
-1.3419e-05
1.39913e-07
-1.34927e-05
1.39003e-07
-1.35656e-05
1.3929e-07
-1.36381e-05
1.4132e-07
-1.37102e-05
1.44423e-07
-1.37822e-05
1.49187e-07
-1.38543e-05
1.55102e-07
-1.39267e-05
1.62313e-07
-1.39994e-05
1.70416e-07
-1.40727e-05
1.79607e-07
-1.41467e-05
1.89504e-07
-1.42215e-05
2.00208e-07
-1.42972e-05
2.1142e-07
-1.43739e-05
2.22733e-07
-1.44516e-05
2.34896e-07
-1.45305e-05
2.47397e-07
-1.46105e-05
2.60143e-07
-1.46917e-05
2.72549e-07
-1.47739e-05
2.85076e-07
-1.48572e-05
2.97083e-07
-1.49413e-05
3.08751e-07
-1.50262e-05
3.19974e-07
-1.51117e-05
3.30237e-07
-1.51976e-05
3.39336e-07
-1.52837e-05
3.4772e-07
-1.53697e-05
3.54671e-07
-1.54553e-05
3.60747e-07
-1.55401e-05
3.65265e-07
-1.56238e-05
3.68171e-07
-1.57059e-05
3.69775e-07
-1.57861e-05
3.69073e-07
-1.58638e-05
3.66313e-07
-1.59387e-05
3.61549e-07
-1.60102e-05
3.54137e-07
-1.60777e-05
3.44601e-07
-1.61408e-05
3.32237e-07
-1.61988e-05
3.17296e-07
-1.6251e-05
2.99913e-07
-1.6297e-05
2.79471e-07
-1.63362e-05
2.55932e-07
-1.6368e-05
2.29771e-07
-1.63917e-05
2.00321e-07
-1.64068e-05
1.68267e-07
-1.64128e-05
1.33397e-07
-1.6409e-05
9.58797e-08
-1.6395e-05
5.53886e-08
-1.63702e-05
1.26274e-08
-1.63343e-05
-3.20435e-08
-1.62869e-05
-7.89009e-08
-1.62277e-05
-1.26877e-07
-1.61565e-05
-1.76534e-07
-1.60732e-05
-2.26816e-07
-1.59777e-05
-2.77151e-07
-1.587e-05
-3.27678e-07
-1.57501e-05
-3.79113e-07
-1.56183e-05
-4.28836e-07
-1.54744e-05
-4.79918e-07
-1.53195e-05
-5.25619e-07
-1.51531e-05
-5.75519e-07
-1.49764e-05
-6.18497e-07
-1.47897e-05
-6.61154e-07
-1.45941e-05
-6.99559e-07
-1.43905e-05
-7.34682e-07
-1.41797e-05
-7.66673e-07
-1.39623e-05
-7.97017e-07
-1.37399e-05
-8.21112e-07
-1.35134e-05
-8.42969e-07
-1.32841e-05
-8.58601e-07
-1.30527e-05
-8.75456e-07
-1.28217e-05
-8.80155e-07
-1.25953e-05
-8.68074e-07
-1.23758e-05
-8.51666e-07
-1.21717e-05
-7.9255e-07
-1.19849e-05
-7.35584e-07
-1.183e-05
-6.07493e-07
-1.17176e-05
-4.28264e-07
-1.51048e-07
-1.27103e-05
-4.03306e-07
-1.27111e-05
2.94214e-08
-1.27544e-05
2.13076e-07
-1.28291e-05
3.99957e-07
-1.29261e-05
4.97649e-07
-1.30321e-05
5.05269e-07
-1.31465e-05
5.27295e-07
-1.32631e-05
5.11326e-07
-1.33797e-05
4.86581e-07
-1.34957e-05
4.60602e-07
-1.36106e-05
4.34761e-07
-1.37238e-05
4.05666e-07
-1.38351e-05
3.78859e-07
-1.39445e-05
3.54928e-07
-1.40514e-05
3.29264e-07
-1.41566e-05
3.11319e-07
-1.42591e-05
2.88397e-07
-1.43598e-05
2.74003e-07
-1.44584e-05
2.59706e-07
-1.45555e-05
2.50943e-07
-1.46514e-05
2.43728e-07
-1.47462e-05
2.38088e-07
-1.48399e-05
2.33597e-07
-1.49327e-05
2.31781e-07
-1.50247e-05
2.31266e-07
-1.5116e-05
2.3269e-07
-1.52069e-05
2.35297e-07
-1.52976e-05
2.39853e-07
-1.53881e-05
2.45627e-07
-1.54787e-05
2.52861e-07
-1.55693e-05
2.61099e-07
-1.56603e-05
2.70596e-07
-1.57517e-05
2.80891e-07
-1.58436e-05
2.92111e-07
-1.59361e-05
3.03907e-07
-1.60293e-05
3.15892e-07
-1.61232e-05
3.28784e-07
-1.62178e-05
3.42034e-07
-1.63132e-05
3.55549e-07
-1.64093e-05
3.68695e-07
-1.65062e-05
3.81911e-07
-1.66036e-05
3.94476e-07
-1.67014e-05
4.06583e-07
-1.67995e-05
4.18031e-07
-1.68976e-05
4.28392e-07
-1.69956e-05
4.37338e-07
-1.70932e-05
4.45343e-07
-1.71901e-05
4.51533e-07
-1.72859e-05
4.56539e-07
-1.73802e-05
4.59588e-07
-1.74727e-05
4.60617e-07
-1.75628e-05
4.59946e-07
-1.76502e-05
4.5647e-07
-1.77344e-05
4.50452e-07
-1.78148e-05
4.4194e-07
-1.78908e-05
4.30181e-07
-1.7962e-05
4.15789e-07
-1.80277e-05
3.9793e-07
-1.80873e-05
3.76893e-07
-1.81401e-05
3.52733e-07
-1.81856e-05
3.24924e-07
-1.8223e-05
2.93376e-07
-1.82518e-05
2.58609e-07
-1.82714e-05
2.19923e-07
-1.82812e-05
1.78016e-07
-1.82805e-05
1.32673e-07
-1.82687e-05
8.41394e-08
-1.82454e-05
3.21027e-08
-1.82101e-05
-2.27365e-08
-1.81622e-05
-7.98707e-08
-1.81015e-05
-1.39628e-07
-1.80277e-05
-2.00739e-07
-1.79404e-05
-2.63833e-07
-1.78395e-05
-3.27659e-07
-1.77252e-05
-3.91505e-07
-1.75973e-05
-4.55512e-07
-1.74559e-05
-5.20519e-07
-1.73013e-05
-5.83427e-07
-1.71335e-05
-6.47758e-07
-1.69534e-05
-7.05678e-07
-1.67607e-05
-7.68245e-07
-1.65567e-05
-8.22534e-07
-1.63418e-05
-8.76048e-07
-1.61171e-05
-9.24216e-07
-1.58837e-05
-9.68107e-07
-1.56425e-05
-1.00788e-06
-1.53943e-05
-1.04516e-06
-1.51409e-05
-1.07452e-06
-1.48832e-05
-1.10065e-06
-1.4623e-05
-1.11888e-06
-1.43607e-05
-1.13769e-06
-1.40995e-05
-1.14135e-06
-1.38438e-05
-1.12377e-06
-1.35963e-05
-1.09923e-06
-1.3366e-05
-1.02281e-06
-1.31556e-05
-9.45971e-07
-1.29803e-05
-7.8281e-07
-1.28522e-05
-5.56387e-07
-2.11379e-07
-1.37997e-05
-4.90371e-07
-1.37993e-05
2.9012e-08
-1.38463e-05
2.60091e-07
-1.39254e-05
4.7902e-07
-1.40293e-05
6.01585e-07
-1.41452e-05
6.21101e-07
-1.42709e-05
6.53012e-07
-1.44003e-05
6.40759e-07
-1.45308e-05
6.17051e-07
-1.46618e-05
5.91588e-07
-1.47925e-05
5.65509e-07
-1.49225e-05
5.35593e-07
-1.5051e-05
5.07455e-07
-1.51783e-05
4.8216e-07
-1.53035e-05
4.54477e-07
-1.54273e-05
4.35148e-07
-1.55488e-05
4.09871e-07
-1.56687e-05
3.93869e-07
-1.57868e-05
3.77837e-07
-1.59037e-05
3.67823e-07
-1.60195e-05
3.59509e-07
-1.61341e-05
3.52781e-07
-1.62477e-05
3.47164e-07
-1.63603e-05
3.44374e-07
-1.6472e-05
3.4295e-07
-1.65829e-05
3.43616e-07
-1.66932e-05
3.4553e-07
-1.6803e-05
3.49659e-07
-1.69124e-05
3.55038e-07
-1.70215e-05
3.61997e-07
-1.71305e-05
3.70054e-07
-1.72394e-05
3.79515e-07
-1.73483e-05
3.89847e-07
-1.74574e-05
4.01198e-07
-1.75667e-05
4.13178e-07
-1.76762e-05
4.25423e-07
-1.7786e-05
4.38607e-07
-1.78962e-05
4.52156e-07
-1.80066e-05
4.65967e-07
-1.81172e-05
4.7936e-07
-1.82281e-05
4.92752e-07
-1.83389e-05
5.05334e-07
-1.84497e-05
5.17312e-07
-1.856e-05
5.28379e-07
-1.86698e-05
5.38199e-07
-1.87788e-05
5.46341e-07
-1.88868e-05
5.53286e-07
-1.89933e-05
5.58018e-07
-1.9098e-05
5.6123e-07
-1.92004e-05
5.6206e-07
-1.93002e-05
5.60426e-07
-1.9397e-05
5.56664e-07
-1.949e-05
5.49561e-07
-1.9579e-05
5.39408e-07
-1.96633e-05
5.2623e-07
-1.97423e-05
5.09188e-07
-1.98155e-05
4.88957e-07
-1.98821e-05
4.64601e-07
-1.99417e-05
4.36433e-07
-1.99934e-05
4.04423e-07
-2.00366e-05
3.68155e-07
-2.00707e-05
3.27486e-07
-2.00951e-05
2.82964e-07
-2.0109e-05
2.33886e-07
-2.01119e-05
1.80937e-07
-2.01032e-05
1.23927e-07
-2.00822e-05
6.31592e-08
-2.00485e-05
-1.63395e-09
-2.00014e-05
-6.97807e-08
-1.99407e-05
-1.40656e-07
-1.98657e-05
-2.14606e-07
-1.97763e-05
-2.90141e-07
-1.96721e-05
-3.67969e-07
-1.95532e-05
-4.46587e-07
-1.94195e-05
-5.25172e-07
-1.92712e-05
-6.03851e-07
-1.91081e-05
-6.83574e-07
-1.89308e-05
-7.60786e-07
-1.87391e-05
-8.39413e-07
-1.85342e-05
-9.1061e-07
-1.83157e-05
-9.86772e-07
-1.80849e-05
-1.05331e-06
-1.78425e-05
-1.11847e-06
-1.75896e-05
-1.17712e-06
-1.73273e-05
-1.23036e-06
-1.70568e-05
-1.27839e-06
-1.67791e-05
-1.32287e-06
-1.6496e-05
-1.35764e-06
-1.62086e-05
-1.388e-06
-1.59188e-05
-1.40869e-06
-1.56274e-05
-1.42906e-06
-1.53377e-05
-1.43112e-06
-1.50542e-05
-1.4072e-06
-1.47803e-05
-1.37312e-06
-1.45254e-05
-1.27778e-06
-1.42928e-05
-1.17849e-06
-1.40984e-05
-9.77278e-07
-1.39556e-05
-6.99185e-07
-2.80158e-07
-1.48778e-05
-5.7975e-07
-1.48779e-05
2.90402e-08
-1.49304e-05
3.12602e-07
-1.50145e-05
5.63171e-07
-1.51259e-05
7.12986e-07
-1.52523e-05
7.47473e-07
-1.53901e-05
7.90776e-07
-1.55331e-05
7.83837e-07
-1.56784e-05
7.62304e-07
-1.58252e-05
7.38401e-07
-1.59726e-05
7.12872e-07
-1.61199e-05
6.82912e-07
-1.62665e-05
6.54049e-07
-1.64122e-05
6.27919e-07
-1.65564e-05
5.98663e-07
-1.66995e-05
5.78265e-07
-1.68406e-05
5.50924e-07
-1.69803e-05
5.33602e-07
-1.71188e-05
5.16334e-07
-1.72563e-05
5.05305e-07
-1.73927e-05
4.95939e-07
-1.75281e-05
4.88109e-07
-1.76622e-05
4.81313e-07
-1.77953e-05
4.77444e-07
-1.79273e-05
4.74936e-07
-1.80583e-05
4.74615e-07
-1.81883e-05
4.75584e-07
-1.83176e-05
4.78963e-07
-1.84462e-05
4.83607e-07
-1.85741e-05
4.89916e-07
-1.87014e-05
4.97387e-07
-1.88283e-05
5.06382e-07
-1.89548e-05
5.16288e-07
-1.90809e-05
5.27297e-07
-1.92066e-05
5.3897e-07
-1.93322e-05
5.50973e-07
-1.94575e-05
5.63918e-07
-1.95826e-05
5.77209e-07
-1.97073e-05
5.90739e-07
-1.98317e-05
6.03772e-07
-1.99557e-05
6.16718e-07
-2.00791e-05
6.28678e-07
-2.02016e-05
6.39861e-07
-2.03231e-05
6.4987e-07
-2.04433e-05
6.58445e-07
-2.05621e-05
6.65064e-07
-2.0679e-05
6.70197e-07
-2.07937e-05
6.72715e-07
-2.09058e-05
6.73345e-07
-2.10149e-05
6.71146e-07
-2.11205e-05
6.66023e-07
-2.12221e-05
6.58299e-07
-2.13192e-05
6.46701e-07
-2.14113e-05
6.3151e-07
-2.14979e-05
6.12736e-07
-2.15781e-05
5.89459e-07
-2.16516e-05
5.6241e-07
-2.17175e-05
5.30568e-07
-2.17754e-05
4.94252e-07
-2.18243e-05
4.53377e-07
-2.18638e-05
4.07602e-07
-2.1893e-05
3.56751e-07
-2.19115e-05
3.01396e-07
-2.19184e-05
2.40801e-07
-2.19131e-05
1.75693e-07
-2.18951e-05
1.05891e-07
-2.18637e-05
3.1757e-08
-2.18184e-05
-4.69165e-08
-2.17587e-05
-1.29519e-07
-2.1684e-05
-2.15304e-07
-2.1594e-05
-3.0462e-07
-2.14884e-05
-3.95753e-07
-2.13669e-05
-4.89463e-07
-2.12295e-05
-5.84018e-07
-2.10762e-05
-6.78452e-07
-2.09072e-05
-7.72843e-07
-2.07225e-05
-8.68269e-07
-2.05225e-05
-9.60756e-07
-2.03074e-05
-1.05455e-06
-2.00781e-05
-1.13995e-06
-1.98343e-05
-1.2305e-06
-1.95775e-05