/*--------------------------------*- C++ -*----------------------------------*\
| =========                 |                                                 |
| \\      /  F ield         | OpenFOAM: The Open Source CFD Toolbox           |
|  \\    /   O peration     | Version:  2.4.0                                 |
|   \\  /    A nd           | Web:      www.OpenFOAM.org                      |
|    \\/     M anipulation  |                                                 |
\*---------------------------------------------------------------------------*/
FoamFile
{
    version     2.0;
    format      ascii;
    class       volScalarField;
    location    "150";
    object      omega;
}
// * * * * * * * * * * * * * * * * * * * * * * * * * * * * * * * * * * * * * //

dimensions      [0 0 -1 0 0 0 0];

internalField   nonuniform List<scalar> 
78300
(
288636.63
288686.54
288700.32
288833.65
289515.6
291432.02
295479.08
302673.01
314010.37
329813.04
346787.82
362441.63
375829.98
386411.76
393919.79
398343.7
399991.89
399060.36
395721.33
390174.45
382632.29
373308
362413.46
350675.33
339521.98
329123.31
319421.78
310364.21
301901.89
293992.53
286594.56
279672.29
273192.3
267123.9
261439.18
256109.32
250877.53
245350.68
239525.68
233441.11
227134.93
220644.17
214005.21
207254.37
200428.97
193566.99
186709.47
179903.22
173262.16
167044.3
161298.04
156019.07
151204.62
146855.25
142973.85
139564.67
136634.53
134192.24
132247.52
130811.23
129895.27
129511.99
129657.27
129783.85
129783.85
129783.85
129783.85
129783.85
129783.85
129783.85
129783.85
129783.85
129783.85
129783.85
129783.85
129783.85
129783.85
129783.85
129783.85
129783.85
129783.85
129783.85
129783.85
129783.85
129783.85
129783.85
129783.85
129783.85
129783.85
129783.85
129783.85
129783.85
129783.85
129783.85
129783.85
129783.85
129783.85
129783.85
129783.85
129783.85
129783.85
129783.85
129783.85
129783.85
129783.85
129783.85
129783.85
129783.85
129783.85
129783.85
129783.85
129783.85
129783.85
129783.85
129783.85
129783.85
129783.85
129783.85
129783.85
129783.85
129783.85
129783.85
129783.84
129783.85
129783.85
129783.85
129783.85
129783.84
129783.85
129783.85
129783.85
129783.85
129783.85
129783.85
129783.85
129783.85
129783.84
129783.85
129783.85
129783.84
129783.85
129783.85
129783.85
129783.85
129783.85
129783.84
129783.85
129783.85
129783.85
129783.85
129783.85
129783.85
129783.85
129783.85
129783.84
129783.85
129783.85
129783.85
129783.84
129783.85
129783.85
129783.84
129783.85
129783.85
129783.84
129783.85
129783.85
129783.84
129783.85
129783.85
129783.85
129783.85
129783.85
129783.85
129783.85
129783.84
129783.85
129783.85
129783.85
129783.85
129783.85
129783.85
129783.85
129783.85
129783.85
129783.85
129783.85
129783.85
129783.85
129783.85
129783.85
129783.85
129783.85
129783.85
129783.84
129783.85
129783.85
129783.84
129783.85
129783.85
129783.85
129783.85
129783.85
129783.84
129783.85
129783.85
129783.84
129657.28
129512.01
129895.29
130811.3
132247.51
134192.34
136634.64
139564.65
142973.98
146855.32
151204.67
156018.82
161297.58
167043.87
173262.26
179902.7
186708.68
193567.05
200429.57
207253.32
214004.05
220644.49
227134.65
233439.26
239524.1
245352.66
250877.67
256108.08
261440.19
267124.37
273191.43
279670.54
286594.56
293991.4
301901.42
310366.52
319421.34
329122.77
339524.25
350675.48
362412.53
373310.22
382630.09
390168.82
395719.59
399058.71
399989.89
398342.36
393921.49
386411.41
375828.68
362441.02
346789.97
329814.86
314010.09
302672.88
295478.99
291431.81
289515.62
288834.57
288701.21
288686.52
288636.62
40610.173
48836.453
40610.98
48855.127
56433.912
49320.609
49992.577
51206.697
53120.489
53539.079
56294.752
58837.503
61013.107
62733.497
63954.995
64675.636
64945.515
64796.432
64256.407
63357.791
62135.114
60622.962
58855.485
56949.958
55138.592
53449.696
51874.051
50403
49028.678
47744.133
46542.661
45418.354
44365.865
43380.162
42456.761
41591.126
40741.862
39844.942
38899.657
37912.317
36889.097
35836.087
34759.325
33665.032
32560.032
31452.628
30321.201
25596.774
33364.139
32129.125
23023.196
29939.875
25591.6
24854.866
24197.835
23620.725
23124.717
22711.284
22382.079
22138.962
21983.942
21919.106
21942.625
21962.351
21964.14
24611.086
24704.824
24741.425
24751.846
24759.658
24762.9
24765.497
24756.205
18655.108
24767.434
24769.5
24769.651
24769.738
24769.617
24769.43
24769.094
24768.684
24768.145
24767.512
24766.728
24765.592
24750.509
18650.609
18650.903
18652.315
18654.023
18655.917
18658.123
18660.643
18663.584
18667.023
18671.126
18676.152
18683.164
18712.334
24715.881
24702.393
24676.637
24548.174
21962.243
21961.618
21961.617
21961.615
21961.614
21961.612
21961.611
21961.61
21961.608
21961.607
21961.605
21961.604
21961.602
21961.601
21961.599
21961.598
21961.596
21961.594
21961.593
21961.591
21961.59
21961.588
21961.587
21961.585
21961.584
21961.582
21961.581
21961.58
21961.578
21961.577
21961.575
21961.574
21961.573
21961.572
21961.571
21961.569
21961.568
21961.567
21961.566
21961.565
21961.564
21961.563
21961.562
21961.561
21961.56
21961.56
21961.559
21961.558
21961.558
21961.557
21961.556
21961.556
21961.555
21961.555
21961.554
21961.554
21961.553
21961.553
21961.553
21961.553
21961.552
21961.552
21961.552
21961.551
21961.552
21961.552
21961.551
21961.551
21961.551
21961.551
21961.551
21961.551
21961.551
21961.551
21961.552
21961.552
21961.551
21961.552
21961.552
21961.552
21961.553
21961.553
21961.553
21961.553
21961.554
21961.554
21961.554
21961.555
21961.556
21961.556
21961.557
21961.558
21961.558
21961.559
21961.561
21961.562
21961.563
21961.565
21961.567
21961.57
21961.574
21961.581
21962.087
21942.399
21919.056
21983.959
22138.989
22382.098
22711.307
23124.741
23620.733
24197.882
24854.898
25591.13
26406.052
27299.587
28272.247
29324.769
30448.54
31600.082
32760.333
33921.292
35075.777
36217.749
37341.015
38438.825
39505.248
40534.388
41519.971
42454.401
43339.365
44241.766
45203.79
46230.696
47327.566
48499.553
49751.43
51090.17
52522.865
54055.442
55697.5
57458.103
59345.26
61329.471
73183.371
53526.313
76520.029
55319.263
78288.866
55906.485
78120.174
77326.664
62766.374
61014.526
58838.755
56296.807
53541.248
50978.937
49143.229
47982.347
47363.641
40722.839
56273.36
40648.599
40601.736
48831.285
11038.912
16128.274
11036.344
16132.244
22839.305
16321.252
16530.482
16930.961
17562.833
17956.45
18879.572
19732.865
20463.196
21041.022
21451.492
21693.935
21785.111
21735.725
21555.17
21254.278
20844.64
20337.873
19745.34
19106.217
18498.46
17931.763
17403.052
16909.445
16448.291
16017.26
15614.111
15236.866
14883.716
14552.979
14243.146
13952.739
13667.897
13367.113
13050.109
12718.978
12375.787
12022.557
11661.306
11294.087
10923.092
10550.776
10146.392
7233.8251
13010.598
12444.82
6562.801
11555.879
8457.6492
8219.818
8002.4992
7811.5988
7647.5254
7510.7702
7401.8772
7321.475
7270.2208
7248.8352
7256.444
7262.5551
7265.1433
9286.1471
9361.9348
9391.0585
9399.3525
9405.5627
9408.1362
9410.1676
9396.3143
5426.7309
9409.1497
9413.3587
9413.4758
9413.5418
9413.4416
9413.2898
9413.0187
9412.6896
9412.2568
9411.75
9411.1224
9410.167
9388.8639
5419.3351
5417.9637
5418.6925
5419.5729
5420.549
5421.6856
5422.9839
5424.4987
5426.2698
5428.3833
5430.9733
5434.6242
5457.0388
9368.6944
9359.806
9339.179
9232.2011
7263.217
7262.0643
7262.0609
7262.0577
7262.0547
7262.0515
7262.0483
7262.0448
7262.0414
7262.0379
7262.0343
7262.0305
7262.0267
7262.023
7262.0191
7262.0152
7262.0112
7262.0073
7262.0033
7261.9995
7261.9954
7261.9916
7261.9876
7261.9837
7261.9799
7261.976
7261.9723
7261.9685
7261.9648
7261.9613
7261.9576
7261.9542
7261.9506
7261.9472
7261.944
7261.9407
7261.9375
7261.9345
7261.9315
7261.9286
7261.9259
7261.923
7261.9206
7261.9179
7261.9155
7261.9132
7261.911
7261.9088
7261.9068
7261.9049
7261.9029
7261.9013
7261.8995
7261.8979
7261.8964
7261.895
7261.8935
7261.8923
7261.8913
7261.8902
7261.8891
7261.8882
7261.8874
7261.8864
7261.886
7261.8853
7261.8846
7261.8841
7261.8837
7261.8833
7261.8831
7261.8828
7261.8829
7261.8827
7261.8827
7261.8827
7261.8829
7261.8832
7261.8832
7261.8836
7261.8839
7261.8844
7261.8847
7261.8853
7261.8859
7261.8865
7261.8873
7261.8883
7261.8893
7261.8905
7261.8916
7261.8931
7261.8946
7261.8965
7261.8987
7261.9011
7261.9038
7261.907
7261.9105
7261.9153
7261.921
7261.9283
7262.229
7256.1683
7248.7618
7270.2333
7321.5035
7401.9147
7510.8043
7647.5532
7811.6129
8002.5192
8219.8417
8463.3647
8732.9091
9028.4565
9350.1673
9698.2842
10069.912
10450.667
10834.277
11218.098
11599.788
11977.332
12348.672
12711.587
13064.113
13404.287
13730.066
14038.96
14331.542
14629.978
14948.178
15287.815
15650.603
16038.239
16452.302
16895.081
17368.938
17875.847
18418.914
19001.22
19625.093
20248.424
30196.278
14269.153
31571.396
14714.743
32340.223
14865.182
32161.265
32077.465
21124.302
20465.507
19734.561
18882.095
17958.906
17101.13
16486.598
16097.12
15905.134
11066.368
22722.076
11071.815
11022.948
16129.945
4110.5354
7413.7315
4108.7193
7414.2573
12856.121
7538.4609
7621.4057
7805.3061
8095.2866
8338.9078
8766.8725
9163.2464
9502.6127
9771.3191
9962.2596
10075.154
10117.755
10095.075
10011.45
9871.9365
9681.9016
9446.7433
9171.7236
8874.9421
8592.6286
8329.3745
8083.7626
7854.4595
7640.2301
7439.9961
7252.714
7077.4684
6913.4155
6759.7763
6615.8458
6480.9482
6348.6721
6209.0175
6061.8304
5908.0763
5748.7099
5584.6697
5416.8915
5246.3155
5073.9377
4900.7236
4696.0503
2886.0674
6923.9437
6550.1973
2653.9592
6058.9738
3893.9248
3789.4692
3689.2728
3601.2513
3525.5976
3462.5451
3412.3401
3375.288
3351.683
3341.9008
3345.4447
3348.109
3351.1473
4738.1131
4792.5161
4813.0941
4818.9498
4823.3289
4825.1379
4826.5301
4810.4367
2265.3209
4824.0487
4828.793
4828.8734
4828.9163
4828.842
4828.7316
4828.5368
4828.3012
4827.9922
4827.6308
4827.1831
4826.4434
4802.5408
2257.201
2255.5035
2255.9059
2256.3915
2256.9295
2257.5553
2258.2696
2259.1026
2260.0762
2261.2377
2262.6615
2264.7033
2282.9296
4795.7752
4790.7732
4776.0367
4695.6863
3348.9873
3347.7613
3347.7555
3347.7502
3347.7448
3347.7392
3347.7334
3347.7274
3347.7211
3347.7146
3347.708
3347.7012
3347.6942
3347.6872
3347.6799
3347.6726
3347.6652
3347.6578
3347.6502
3347.6427
3347.6351
3347.6276
3347.62
3347.6125
3347.605
3347.5976
3347.5902
3347.5829
3347.5756
3347.5685
3347.5614
3347.5544
3347.5476
3347.5408
3347.5343
3347.5277
3347.5214
3347.5153
3347.5092
3347.5034
3347.4977
3347.4922
3347.4868
3347.4816
3347.4766
3347.4719
3347.4672
3347.4628
3347.4585
3347.4544
3347.4505
3347.4468
3347.4431
3347.4397
3347.4365
3347.4334
3347.4304
3347.4276
3347.4251
3347.4228
3347.4204
3347.4183
3347.4163
3347.4145
3347.4129
3347.4113
3347.4098
3347.4085
3347.4074
3347.4064
3347.4056
3347.4049
3347.4043
3347.4039
3347.4035
3347.4033
3347.4032
3347.4033
3347.4032
3347.4035
3347.4038
3347.4044
3347.4048
3347.4054
3347.4063
3347.4072
3347.4083
3347.4095
3347.4111
3347.4128
3347.4146
3347.4167
3347.4192
3347.4219
3347.4252
3347.4289
3347.433
3347.4379
3347.4433
3347.4501
3347.458
3347.4673
3347.6676
3345.0744
3341.7898
3351.6874
3375.3164
3412.3856
3462.5844
3525.6288
3601.2672
3689.2797
3789.4711
3901.7412
4026.0089
4162.2635
4310.5761
4471.0569
4642.3457
4817.8216
4994.6038
5171.475
5347.368
5521.342
5692.452
5859.682
6022.129
6178.8751
6328.98
6471.3079
6606.1565
6743.7483
6890.4691
7047.0763
7214.3429
7393.0602
7583.9609
7788.1052
8006.5808
8240.2887
8490.6588
8759.1086
9046.5353
9299.2503
17527.594
5123.7705
18304.107
5263.9358
18776.312
5317.9644
18554.62
18790.642
9889.935
9507.0518
9166.7174
8771.6274
8344.5008
7947.8484
7663.3598
7482.131
7406.7071
4120.7371
12728.958
4142.0368
4094.4431
7417.4689
1931.871
4094.635
1931.5419
4093.8913
8353.4835
4197.5455
4230.3628
4331.723
4491.3053
4646.3217
4884.0673
5104.9343
5294.1144
5444.0891
5550.6711
5613.7586
5637.6402
5625.1526
5578.6819
5501.0745
5395.3045
5264.384
5111.2466
4945.9155
4788.5857
4641.8705
4504.9863
4377.1924
4257.7987
4146.2068
4041.8325
3944.1673
3852.7399
3767.1173
3686.9035
3611.7261
3538.0287
3460.2369
3378.2458
3292.5912
3203.8073
3112.4133
3018.9303
2923.8772
2827.8026
2731.1034
2606.35
1474.4164
4227.9953
3949.5513
1375.2939
3641.4756
2156.8891
2102.5086
2046.9035
1998.0571
1956.0723
1921.0867
1893.2313
1872.6927
1859.6246
1854.2835
1856.3582
1857.7751
1860.912
2775.7424
2812.9078
2826.7409
2830.6706
2833.6063
2834.8133
2835.7046
2819.6285
1212.5259
2832.8835
2837.2442
2837.2979
2837.3251
2837.2734
2837.1979
2837.0654
2836.9057
2836.6964
2836.4516
2836.1478
2835.5802
2812.2227
1204.6976
1203.1435
1203.3723
1203.6478
1203.9522
1204.3053
1204.7077
1205.1762
1205.7232
1206.3752
1207.1744
1208.3526
1223.3568
2814.0532
2811.5319
2801.465
2743.3609
1858.6541
1857.5603
1857.5517
1857.5435
1857.5351
1857.5263
1857.5171
1857.5075
1857.4975
1857.4872
1857.4766
1857.4656
1857.4544
1857.4429
1857.4312
1857.4193
1857.4072
1857.3951
1857.3828
1857.3704
1857.358
1857.3456
1857.3332
1857.3208
1857.3084
1857.2961
1857.2838
1857.2717
1857.2597
1857.2478
1857.2361
1857.2245
1857.2131
1857.2018
1857.1908
1857.18
1857.1694
1857.159
1857.1489
1857.1391
1857.1295
1857.1202
1857.1112
1857.1024
1857.0939
1857.0858
1857.0779
1857.0703
1857.063
1857.056
1857.0493
1857.0429
1857.0367
1857.0308
1857.0252
1857.0198
1857.0147
1857.0098
1857.0054
1857.0013
1856.9972
1856.9934
1856.9899
1856.9867
1856.9837
1856.9809
1856.9782
1856.9758
1856.9737
1856.9718
1856.9702
1856.9688
1856.9677
1856.9666
1856.9657
1856.9652
1856.9647
1856.9645
1856.9643
1856.9645
1856.9647
1856.9652
1856.9657
1856.9665
1856.9675
1856.9687
1856.9702
1856.9719
1856.974
1856.9762
1856.9789
1856.9817
1856.9851
1856.9889
1856.9935
1856.9985
1857.0044
1857.0109
1857.0185
1857.0276
1857.038
1857.0497
1857.1989
1855.8769
1854.1224
1859.6107
1872.7122
1893.2736
1921.1211
1956.0968
1998.0597
2046.8886
2102.4745
2164.76
2233.7023
2309.2931
2391.572
2480.599
2575.6063
2672.9223
2770.9578
2869.04
2966.5811
3063.0543
3157.9391
3250.6737
3340.7573
3427.6824
3510.9232
3589.8605
3664.6752
3741.034
3822.4669
3909.3804
4002.2083
4101.3847
4207.3177
4320.6049
4441.8467
4571.5343
4710.4664
4859.4294
5018.8455
5131.2772
11795.575
2295.5898
12290.93
2347.1864
12623.595
2373.5961
12371.436
12787.171
5584.885
5301.2528
5110.9115
4891.9149
4655.846
4436.6421
4278.9138
4177.3613
4146.112
1938.5274
8211.617
1963.6504
1917.5935
4099.3138
1111.7732
2533.7794
1112.3634
2531.2133
5778.5744
2626.7618
2634.43
2696.7755
2794.7643
2898.6037
3046.1823
3183.9315
3301.9832
3395.7519
3462.3788
3501.8674
3516.8599
3509.1734
3480.2614
3431.9331
3366.0235
3284.4203
3188.9629
3085.8556
2987.6981
2896.1593
2810.7532
2731.0202
2656.5282
2586.9051
2521.7854
2460.853
2403.812
2350.3929
2300.3466
2253.4435
2207.4744
2158.9615
2107.8285
2054.4075
1999.0322
1942.0241
1883.7101
1824.4106
1764.4641
1704.0035
1619.8367
910.94771
2755.9821
2543.3404
858.31974
2339.5754
1339.8227
1308.1001
1273.4887
1243.0903
1216.9606
1195.1933
1177.8641
1165.1074
1157.0091
1153.779
1155.2135
1156.0787
1159.0533
1747.1913
1771.7923
1780.8028
1783.3563
1785.2633
1786.043
1786.5822
1772.0752
773.21719
1784.0303
1787.6173
1787.6548
1787.6738
1787.6413
1787.5936
1787.5085
1787.4056
1787.2701
1787.1112
1786.9125
1786.4732
1765.7157
766.20402
764.9375
765.07048
765.22962
765.4044
765.60605
765.83478
766.10011
766.40901
766.77647
767.22651
767.91939
780.20322
1771.8764
1770.764
1764.0605
1722.9653
1156.8963
1156.0076
1155.9954
1155.9836
1155.9714
1155.9586
1155.9451
1155.931
1155.9163
1155.9012
1155.8855
1155.8693
1155.8528
1155.8358
1155.8185
1155.8009
1155.7831
1155.7651
1155.7468
1155.7285
1155.7101
1155.6917
1155.6732
1155.6548
1155.6364
1155.6181
1155.5998
1155.5818
1155.5638
1155.5461
1155.5286
1155.5113
1155.4943
1155.4775
1155.461
1155.4449
1155.429
1155.4135
1155.3984
1155.3837
1155.3694
1155.3554
1155.3418
1155.3287
1155.316
1155.3037
1155.2918
1155.2804
1155.2694
1155.2589
1155.2487
1155.239
1155.2296
1155.2207
1155.2122
1155.2041
1155.1963
1155.189
1155.1823
1155.1759
1155.1698
1155.1639
1155.1586
1155.1536
1155.1491
1155.1447
1155.1407
1155.137
1155.1337
1155.1307
1155.1282
1155.126
1155.124
1155.1224
1155.1208
1155.1198
1155.119
1155.1185
1155.1181
1155.1181
1155.1183
1155.1188
1155.1194
1155.1204
1155.1217
1155.1232
1155.1251
1155.1273
1155.1301
1155.133
1155.1366
1155.1403
1155.1449
1155.1498
1155.1559
1155.1624
1155.1701
1155.1786
1155.1886
1155.2001
1155.2133
1155.2279
1155.3485
1154.6044
1153.5521
1156.9622
1165.1047
1177.8901
1195.2096
1216.964
1243.0659
1273.4395
1308.0166
1346.7606
1389.6457
1436.6656
1487.8449
1543.2201
1602.3041
1662.8152
1723.7719
1784.7565
1845.4052
1905.3902
1964.3891
2022.0528
2078.0696
2132.1253
2183.8936
2232.9962
2279.5606
2327.0999
2377.7942
2431.897
2489.6819
2551.413
2617.3487
2687.8623
2763.3228
2844.0391
2930.512
3023.2263
3122.4585
3172.8593
8447.6974
1261.8493
8776.2964
1284.5925
9021.5394
1302.3441
8759.7348
9265.3308
3549.0892
3311.9869
3192.9106
3057.6583
2912.4994
2777.6682
2680.0541
2616.0575
2604.4437
1118.6712
5630.9985
1143.5289
1099.8276
2538.476
757.73248
1693.3434
758.77221
1688.3977
4112.1291
1780.2687
1772.6661
1813.7463
1878.2521
1950.8732
2049.4329
2142.0684
2221.5171
2284.8022
2329.7469
2356.427
2366.5833
2361.4878
2342.0822
2309.6201
2265.316
2210.4473
2146.266
2076.9067
2010.8481
1949.2418
1891.7617
1838.1012
1787.9683
1741.1134
1697.2897
1656.2853
1617.8998
1581.9521
1548.2727
1516.7075
1485.7766
1453.1421
1418.7438
1382.8037
1345.5467
1307.1875
1267.9475
1228.0399
1187.6904
1146.9001
1086.9678
644.98396
1861.6673
1700.2985
609.94827
1562.0678
898.96999
878.73018
855.46362
835.03636
817.47604
802.85423
791.21601
782.67005
777.26532
775.19423
776.32226
776.91361
779.56777
1150.5553
1166.4919
1172.239
1173.8641
1175.0792
1175.5742
1175.8834
1163.7158
553.00375
1173.8413
1176.5911
1176.6211
1176.6383
1176.6222
1176.5966
1176.5467
1176.4854
1176.4027
1176.3046
1176.1795
1175.8354
1158.6247
547.08599
546.1257
546.20452
546.29754
546.39841
546.51336
546.64253
546.79118
546.96319
547.16686
547.4157
547.82533
557.67848
1166.1853
1165.7959
1161.3926
1132.7298
777.67674
776.99633
776.97997
776.96375
776.94687
776.92906
776.9104
776.89088
776.87058
776.84955
776.82786
776.80551
776.78256
776.7591
776.73516
776.71087
776.6862
776.66127
776.63607
776.61077
776.58531
776.55982
776.53426
776.50876
776.48331
776.45799
776.4328
776.40781
776.38304
776.35853
776.33434
776.31041
776.28684
776.26363
776.2409
776.21855
776.19665
776.17525
776.15435
776.13397
776.11413
776.09482
776.07605
776.05787
776.04026
776.0233
776.00687
775.99103
775.97578
775.96117
775.94713
775.93365
775.9207
775.90834
775.89657
775.8853
775.87459
775.86444
775.85509
775.84622
775.83769
775.82964
775.82225
775.81535
775.80897
775.80294
775.79738
775.79228
775.78768
775.78358
775.77997
775.77689
775.77414
775.77179
775.7697
775.76821
775.767
775.76626
775.76562
775.76558
775.76581
775.76642
775.76724
775.76843
775.77013
775.77209
775.77463
775.77744
775.78103
775.78481
775.78943
775.7942
775.80014
775.80638
775.81416
775.82229
775.83216
775.84269
775.85534
775.86947
775.88585
775.90363
776.0074
775.56548
774.88216
777.16756
782.62801
791.20876
802.83602
817.44217
834.96929
855.36491
878.58443
904.60184
933.40035
964.97476
999.34243
1036.5266
1076.1927
1116.8113
1157.7282
1198.6644
1239.3753
1279.6433
1319.2517
1357.9645
1395.5763
1431.8762
1466.6453
1499.6337
1530.9406
1562.9145
1597.0059
1633.3874
1672.2417
1713.7466
1758.0775
1805.4855
1856.2191
1910.4845
1968.6215
2030.9537
2097.7349
2119.1547
6206.3632
835.38946
6425.3587
848.33557
6607.8786
863.17662
6354.6524
6884.48
2443.849
2234.7291
2154.3456
2064.8127
1969.2983
1880.566
1815.7429
1772.1155
1769.6956
766.03576
3970.092
789.71927
748.18059
1697.7964
584.02574
1196.9658
585.20634
1188.5681
2969.8074
1277.2688
1260.951
1289.1961
1333.5842
1386.0338
1455.2618
1520.9714
1577.3874
1622.5033
1654.5167
1673.5564
1680.8204
1677.2623
1663.5131
1640.5012
1609.0681
1570.1284
1524.5884
1475.3487
1428.4298
1384.6722
1343.8443
1305.7312
1270.124
1236.8469
1205.723
1176.6027
1149.3427
1123.8145
1099.8963
1077.4769
1055.5111
1032.3421
1007.9193
982.39959
955.94347
928.70123
900.83149
872.48415
843.81777
814.77114
770.85898
498.3553
1287.9496
1167.2968
470.27265
1071.9768
637.32811
623.3882
606.8682
592.37072
579.90672
569.53545
561.28354
555.24653
551.45138
550.08655
551.06473
551.51186
553.77693
784.44493
794.62165
798.24087
799.26413
800.0328
800.34681
800.51578
790.86206
423.76337
799.01467
801.02445
801.05328
801.0731
801.07142
801.06371
801.04007
801.00888
800.96346
800.90776
800.83312
800.56166
787.03094
419.05482
418.3692
418.41695
418.47173
418.52961
418.59391
418.66479
418.74496
418.83654
418.94391
419.07426
419.31248
426.97226
794.30183
794.23791
791.35667
771.52836
552.25092
551.74997
551.72844
551.70684
551.6843
551.66058
551.63574
551.60981
551.58287
551.555
551.52626
551.49671
551.4664
551.43544
551.40388
551.37186
551.33939
551.30658
551.27345
551.24019
551.20676
551.17329
551.13975
551.1063
551.07294
551.03974
551.00675
550.97402
550.94159
550.90953
550.87787
550.84659
550.81578
550.78546
550.75577
550.72658
550.698
550.67006
550.64279
550.61621
550.59033
550.56515
550.54069
550.51699
550.49406
550.47195
550.45055
550.42993
550.41007
550.39106
550.37279
550.35525
550.33843
550.32238
550.30709
550.29248
550.2786
550.26545
550.25332
550.24181
550.23079
550.22042
550.21085
550.20196
550.19374
550.186
550.17887
550.17235
550.16647
550.16125
550.15665
550.15271
550.14924
550.14628
550.14371
550.14185
550.1404
550.1395
550.13884
550.13885
550.13927
550.14014
550.14135
550.14298
550.14528
550.1479
550.15125
550.15492
550.15958
550.16443
550.17036
550.17644
550.18398
550.19182
550.20157
550.21165
550.22393
550.23685
550.25246
550.26959
550.28958
550.31106
550.40486
550.13717
549.66633
551.28137
555.14525
561.22384
569.46396
579.817
592.24275
606.70224
623.16493
641.61119
662.02998
684.41626
708.78379
735.14721
763.2632
792.05064
821.04989
850.06423
878.92045
907.4646
935.54376
962.9911
989.66307
1015.411
1040.08
1063.4947
1085.7401
1108.4704
1132.6985
1158.5508
1186.158
1215.6469
1247.143
1280.8248
1316.8687
1355.4228
1396.7273
1441.0106
1488.546
1496.7264
4604.5055
639.51457
4749.136
649.33514
4884.4194
663.04114
4652.5609
5159.4989
1783.4463
1593.8552
1536.5885
1474.5232
1408.8405
1347.9048
1302.8773
1271.5459
1273.2516
594.28746
2839.9317
616.38223
576.92623
1201.1827
486.35926
883.66808
487.46585
873.52332
2164.1005
955.71066
935.4063
955.27858
986.61786
1025.35
1075.739
1124.2177
1165.9043
1199.4179
1223.1679
1237.3245
1242.7344
1240.1542
1230.0109
1213.0301
1189.8125
1161.0422
1127.4085
1091.0225
1056.3329
1023.9802
993.79296
965.6149
939.29003
914.68965
891.68182
870.15679
850.00729
831.13861
813.45911
796.88336
780.64461
763.52268
745.47206
726.60868
707.05174
686.91073
666.30401
645.34094
624.13766
602.61018
569.92972
405.02323
908.93012
820.10977
379.90151
753.37486
470.82072
460.57321
448.356
437.63984
428.42589
420.76645
414.67611
410.24406
407.48334
406.5852
407.49521
407.8654
409.7381
551.66604
558.11116
560.37964
561.0245
561.51461
561.71898
561.80881
554.48074
337.67517
560.78243
562.20491
562.23659
562.26175
562.27272
562.27959
562.27566
562.26638
562.24728
562.22084
562.18036
561.96613
551.77177
334.15664
333.69533
333.725
333.75731
333.7897
333.82388
333.86
333.89928
333.94285
333.99273
334.05226
334.18287
339.91348
557.95735
558.01005
556.11164
542.44269
408.60861
408.24788
408.22013
408.19215
408.16295
408.1323
408.1003
408.06696
408.03241
407.99673
407.96002
407.92233
407.88374
407.84437
407.80431
407.76372
407.72259
407.68108
407.63923
407.59723
407.55507
407.51287
407.47064
407.42856
407.3866
407.34489
407.30346
407.26239
407.22173
407.18155
407.1419
407.10275
407.06421
407.02631
406.9892
406.95276
406.91708
406.88223
406.84823
406.8151
406.78285
406.75151
406.72107
406.6916
406.66309
406.63561
406.60903
406.58344
406.55881
406.53523
406.51259
406.49088
406.47009
406.45025
406.43137
406.41336
406.39627
406.3801
406.36519
406.35103
406.33754
406.32487
406.31319
406.30235
406.29234
406.28299
406.27438
406.26655
406.25952
406.25329
406.24785
406.24321
406.23917
406.23577
406.23289
406.23085
406.22935
406.22851
406.22803
406.22833
406.22917
406.23054
406.23237
406.23471
406.23786
406.24141
406.24586
406.25067
406.25668
406.26292
406.27047
406.27817
406.28764
406.29742
406.30949
406.32188
406.33695
406.35264
406.37161
406.39217
406.41623
406.44195
406.53028
406.37072
406.03044
407.21667
410.06085
414.5421
420.62058
428.25961
437.43034
448.10248
460.25448
473.87054
488.9435
505.46862
523.4574
542.91796
563.6666
584.90846
606.3078
627.71976
649.01744
670.08693
690.81662
711.08448
730.78506
749.80969
768.04538
785.36303
801.84183
818.69048
836.63763
855.78639
876.2333
898.07227
921.39791
946.34058
973.03279
1001.5848
1032.1735
1064.9676
1100.2636
1103.0859
3427.1006
538.12982
3521.4395
547.2768
3620.8881
560.3486
3417.728
3873.567
1357.6975
1185.4358
1142.9966
1098.5965
1052.1111
1009.2062
977.11151
953.92114
957.14487
498.98516
2052.0961
519.00967
481.84942
887.79798
422.92528
675.83213
423.78686
665.55584
1588.7882
738.54522
717.27945
731.34417
753.67545
782.64931
820.25819
857.10642
888.86333
914.56915
932.7544
943.62247
947.78001
945.85508
938.13394
925.20946
907.5183
885.59001
859.97109
832.23989
805.78606
781.11441
758.09368
736.60708
716.53425
697.77825
680.23738
663.82885
648.46948
634.08735
620.61151
607.97073
595.58764
582.53802
568.77769
554.39571
539.48358
524.12328
508.40606
492.41396
476.23491
459.78498
435.23578
338.12132
653.94472
589.43553
314.6117
541.89335
359.05891
351.11627
341.79321
333.61977
326.59159
320.75713
316.12281
312.77528
310.71843
310.14996
311.0375
311.36827
312.88494
399.63842
403.70964
405.13836
405.55042
405.87278
406.01409
406.06335
400.70117
274.98071
405.41451
406.40195
406.43855
406.47025
406.4921
406.51075
406.52161
406.52821
406.52753
406.52106
406.5033
406.33518
398.92113
272.53423
272.24341
272.2621
272.28072
272.29748
272.31314
272.32795
272.3422
272.35647
272.37142
272.38788
272.44819
276.55435
403.77844
403.84799
402.57127
393.14139
312.12844
311.86948
311.83445
311.79909
311.76223
311.7237
311.68359
311.64194
311.59889
311.55455
311.50903
311.46241
311.41477
311.36627
311.31701
311.26716
311.21674
311.16593
311.11477
311.06348
311.01206
310.96065
310.90927
310.85809
310.80714
310.75653
310.70631
310.65656
310.60735
310.55876
310.51084
310.46358
310.41709
310.37142
310.32671
310.28285
310.23992
310.19804
310.15719
310.11743
310.07874
310.04118
310.00471
309.96944
309.93534
309.90248
309.87074
309.8402
309.81084
309.78274
309.75579
309.72998
309.70529
309.68176
309.6594
309.6381
309.61792
309.59884
309.58131
309.56463
309.54883
309.53402
309.5204
309.5078
309.4962
309.48541
309.47554
309.4666
309.45862
309.45162
309.44556
309.44046
309.4361
309.4325
309.42956
309.4276
309.42632
309.42581
309.42578
309.42664
309.42819
309.43035
309.4331
309.43645
309.44077
309.44554
309.45141
309.45769
309.46539
309.47335
309.48287
309.49254
309.50431
309.51639
309.53117
309.54625
309.56451
309.5834
309.60617
309.6306
309.65925
309.68975
309.7758
309.68746
309.43121
310.32777
312.48469
315.89028
320.51368
326.32602
333.30626
341.42994
350.68167
361.04801
372.52449
385.10668
398.80465
413.62146
429.41462
445.58174
461.87053
478.17071
494.38651
510.43147
526.22157
541.66487
556.68197
571.19089
585.10692
598.33091
610.943
623.85022
637.58304
652.23445
667.87794
684.58513
702.42898
721.50916
741.92843
763.77036
787.17106
812.25818
839.3437
840.70185
2553.101
477.09728
2614.097
486.44195
2686.615
498.93831
2514.954
2906.8188
1065.0442
911.06088
878.67222
846.19588
812.68704
782.14043
759.05902
741.72884
745.1685
438.21242
1497.7434
455.65405
421.18045
680.09747
375.86181
532.49507
376.324
523.09893
1176.2266
585.40129
565.15845
574.99438
590.76769
612.50947
641.05842
669.71808
694.49822
714.72955
729.01066
737.57127
740.84717
739.37991
733.35369
723.27175
709.454
692.32204
672.32534
650.66707
629.99287
610.71212
592.72118
575.93124
560.24687
545.59354
531.8906
519.07414
507.07795
495.84618
485.32268
475.44276
465.76439
455.5732
444.82309
433.58517
421.93171
409.92522
397.63789
385.13281
372.4783
359.60266
341.03605
285.99636
480.00229
433.64337
263.82384
399.06091
280.83246
274.42088
267.12735
260.73652
255.2412
250.6878
247.07707
244.49542
242.94056
242.61863
243.51025
243.82336
245.03821
297.94724
300.52651
301.44179
301.71506
301.93767
302.04476
302.07723
298.2758
226.74989
301.71001
302.39081
302.43267
302.47083
302.50159
302.52939
302.55102
302.56878
302.58061
302.5873
302.58403
302.45312
297.22162
225.19766
225.02803
225.03924
225.04875
225.05506
225.0585
225.05938
225.05743
225.05299
225.04587
225.03517
225.0475
227.85251
300.80221
300.84653
299.95382
293.41955
244.5919
244.40203
244.35876
244.31508
244.26965
244.22238
244.17334
244.12261
244.07034
244.01666
243.9617
243.90555
243.84832
243.79019
243.73126
243.67174
243.61165
243.5512
243.49043
243.42959
243.36868
243.30787
243.24717
243.18678
243.12673
243.06715
243.00809
242.94964
242.89189
242.83491
242.77878
242.72347
242.66912
242.61578
242.56359
242.51244
242.46242
242.41367
242.36616
242.31994
242.27502
242.23144
242.18917
242.14832
242.10886
242.07087
242.03421
241.99897
241.96513
241.93277
241.90178
241.87213
241.84381
241.81687
241.7913
241.76699
241.744
241.72231
241.70243
241.68353
241.6657
241.64905
241.63378
241.61971
241.60682
241.59489
241.58405
241.57431
241.56569
241.55821
241.55184
241.54657
241.5422
241.53871
241.53602
241.53445
241.5337
241.53382
241.53456
241.53631
241.53887
241.54214
241.54614
241.55081
241.55663
241.56296
241.57058
241.57867
241.5884
241.59842
241.61025
241.62226
241.63668
241.65143
241.6693
241.68748
241.70933
241.73182
241.75884
241.7876
241.82131
241.85713
241.94327
241.90426
241.70394
242.39615
244.0698
246.71987
250.32176
254.85205
260.2953
266.63097
273.84819
281.935
290.88891
300.70577
311.39454
322.95446
335.27269
347.88178
360.58785
373.30492
385.95896
398.4831
410.81274
422.87669
434.61429
445.96235
456.85604
467.21439
477.12606
487.2844
498.07083
509.57891
521.86541
534.98639
548.99961
563.98337
580.01873
597.17153