/*--------------------------------*- C++ -*----------------------------------*\
| =========                 |                                                 |
| \\      /  F ield         | OpenFOAM: The Open Source CFD Toolbox           |
|  \\    /   O peration     | Version:  2.4.0                                 |
|   \\  /    A nd           | Web:      www.OpenFOAM.org                      |
|    \\/     M anipulation  |                                                 |
\*---------------------------------------------------------------------------*/
FoamFile
{
    version     2.0;
    format      ascii;
    class       volVectorField;
    location    "150";
    object      U;
}
// * * * * * * * * * * * * * * * * * * * * * * * * * * * * * * * * * * * * * //

dimensions      [0 1 -1 0 0 0 0];

internalField   nonuniform List<vector> 
78300
(
(0.0060009306 2.5878027e-05 1.3370167e-21)
(0.0045793626 2.3284773e-05 -1.2944253e-21)
(0.0073429701 -4.6451676e-05 1.1186653e-21)
(0.0058915505 -0.00018140247 -3.0677746e-20)
(0.0064379024 -0.00043663186 -8.7178853e-21)
(0.0038139748 -0.00044706347 1.6686224e-20)
(0.0024651324 -0.00044656938 9.7189121e-21)
(-0.00058692883 0.00014036837 -3.3222495e-20)
(-0.0016709893 0.00054724965 -1.1570073e-20)
(-0.0023907552 0.001007375 1.1792284e-20)
(-0.0018216436 0.00091821607 7.165737e-21)
(-0.0016090248 0.00092982229 -1.7431386e-20)
(-0.0011487866 0.00073401529 2.7407628e-21)
(-0.0010081482 0.00069797265 -1.2275843e-20)
(-0.00082391348 0.0006059724 9.2464445e-21)
(-0.00078084486 0.000602852 -1.249636e-20)
(-0.00068430946 0.0005478106 -3.8552105e-21)
(-0.00066195356 0.00054527007 1.652997e-21)
(-0.00060070172 0.00050469407 -5.7671849e-21)
(-0.00057565831 0.00049021145 3.6569445e-21)
(-0.00052840797 0.00045277036 4.267135e-21)
(-0.00050278153 0.00043091885 -2.9085589e-21)
(-0.0004679806 0.00039844153 -8.9527008e-22)
(-0.00045193852 0.00038051336 2.9730309e-22)
(-0.00043537953 0.00036238583 5.6913573e-22)
(-0.00042918721 0.00035337497 9.1833137e-23)
(-0.00042423586 0.0003457829 9.6612999e-23)
(-0.00042763668 0.00034535383 -3.3889734e-22)
(-0.00043371772 0.00034720792 -3.5499533e-22)
(-0.00044767654 0.00035564547 -3.3519775e-22)
(-0.00046537051 0.00036706868 4.5766692e-22)
(-0.00049052213 0.00038459551 1.2202053e-21)
(-0.00052005433 0.00040556772 5.545719e-22)
(-0.00055605354 0.00043172988 8.5636028e-22)
(-0.00059574079 0.00046084199 -1.0287093e-21)
(-0.0006386576 0.00049267406 7.2060224e-22)
(-0.00067983488 0.00052287662 -1.1787103e-21)
(-0.00072008764 0.00055069211 -3.9299075e-23)
(-0.00075999281 0.0005759607 -1.8807028e-21)
(-0.00079872599 0.00059769938 3.1049453e-22)
(-0.00083626849 0.00061558582 -3.0028196e-24)
(-0.00087109454 0.00062908292 -3.1914831e-22)
(-0.00090334445 0.00063790832 -7.9159266e-22)
(-0.00093201594 0.00064001511 -1.3778587e-21)
(-0.00095573105 0.00063557517 2.8876955e-21)
(-0.00097325265 0.00062309591 3.6636704e-21)
(-0.0009861464 0.00060356349 -1.5121102e-21)
(-0.00099260155 0.00057684624 -4.6595447e-21)
(-0.0010000614 0.00054743786 5.0082867e-21)
(-0.0010058832 0.0005158171 -4.2882465e-21)
(-0.0010092466 0.00048197026 -9.842076e-21)
(-0.0010055914 0.00044414871 1.3316567e-21)
(-0.00099876642 0.00040471188 -1.883456e-21)
(-0.00098023212 0.0003608115 -7.192081e-21)
(-0.00096053762 0.0003173712 -2.2588058e-21)
(-0.00092443808 0.0002700182 1.8760013e-21)
(-0.00089342244 0.0002262761 1.2667502e-21)
(-0.00084074041 0.00017977761 2.3016218e-21)
(-0.0008094972 0.00014083079 2.3272232e-23)
(-0.00075164902 0.00010037974 -1.9705873e-22)
(-0.00075446265 7.0000778e-05 -3.5765551e-22)
(-0.00073099816 3.7748703e-05 -1.1109077e-22)
(-0.00089057666 1.0667409e-05 -2.2529348e-22)
(-0.0012046308 3.553635e-07 7.1047654e-26)
(-0.0014197059 3.5532798e-07 -9.2133116e-26)
(-0.0016374383 3.202813e-07 -4.0951866e-25)
(-0.001814784 3.4207295e-07 4.5357108e-25)
(-0.0019902498 3.2667035e-07 -4.6205109e-25)
(-0.0021387118 3.4368169e-07 2.9823484e-25)
(-0.0022829864 3.3806172e-07 -3.8444316e-25)
(-0.0024089202 3.5171032e-07 2.4656154e-25)
(-0.002530252 3.5088387e-07 4.8398398e-25)
(-0.0026388302 3.6174834e-07 -6.2635644e-25)
(-0.0027429834 3.6492497e-07 -2.3345232e-18)
(-0.0028381034 3.7407272e-07 -2.1432385e-18)
(-0.0029293024 3.7805802e-07 9.1028522e-25)
(-0.0030137411 3.8622246e-07 -3.6332692e-25)
(-0.0030946241 3.9122281e-07 -2.3776615e-25)
(-0.0031702102 3.9742567e-07 1.7405401e-25)
(-0.0032425134 4.0162801e-07 -1.2786093e-25)
(-0.0033104879 4.0686628e-07 7.8118002e-27)
(-0.0033753752 4.106641e-07 5.093843e-26)
(-0.003436538 4.1422749e-07 -3.0977628e-26)
(-0.003494736 4.157713e-07 -2.3224265e-25)
(-0.0035495867 4.1732303e-07 2.6751867e-25)
(-0.0036014866 4.1748896e-07 -4.124533e-26)
(-0.0036502684 4.1685671e-07 4.1740315e-25)
(-0.0036959659 4.1640722e-07 -5.7834195e-25)
(-0.0037389853 4.1555695e-07 -4.9751095e-25)
(-0.0037791583 4.1384021e-07 7.572129e-25)
(-0.0038165371 4.1116348e-07 -6.7120892e-25)
(-0.0038511351 4.079179e-07 5.3785227e-25)
(-0.0038829589 4.0431013e-07 -3.187531e-25)
(-0.0039120706 3.9935715e-07 -7.4049873e-26)
(-0.0039384807 3.9427652e-07 1.8037644e-26)
(-0.0039622734 3.8716173e-07 4.8963331e-25)
(-0.00398348 3.8047124e-07 -4.1475956e-26)
(-0.0040022169 3.7173943e-07 7.5241476e-25)
(-0.0040185114 3.6385603e-07 4.1552171e-27)
(-0.0040325875 3.5580299e-07 -1.5016517e-24)
(-0.0040446002 3.4670282e-07 7.1654641e-25)
(-0.0040550155 3.3776162e-07 -6.9552806e-26)
(-0.0040635688 3.2738879e-07 1.0446558e-24)
(-0.0040700453 3.1543362e-07 -2.0262012e-26)
(-0.0040735943 2.9880209e-07 -2.063792e-24)
(-0.0040722584 2.84509e-07 -1.4917409e-25)
(-0.0040683747 2.6976711e-07 6.62828e-26)
(-0.0040617342 2.5765366e-07 1.0734646e-24)
(-0.004052788 2.4307097e-07 -1.0857764e-25)
(-0.004041523 2.3143781e-07 -1.3726606e-24)
(-0.0040280779 2.169424e-07 2.5390216e-24)
(-0.0040124659 2.0498051e-07 -2.9192807e-24)
(-0.0039947521 1.902636e-07 2.7558247e-24)
(-0.003974983 1.771301e-07 -5.3024232e-25)
(-0.0039532527 1.621788e-07 3.2747698e-25)
(-0.0039296066 1.4942321e-07 -1.3840098e-24)
(-0.0039040976 1.3537893e-07 7.8540794e-25)
(-0.0038767427 1.2039826e-07 2.1305457e-25)
(-0.0038476129 1.0559644e-07 -1.5339056e-25)
(-0.0038167751 8.9745703e-08 -1.5109212e-25)
(-0.0037843195 7.4990827e-08 3.2131496e-17)
(-0.0037502914 5.9413649e-08 3.3141097e-17)
(-0.0037147438 4.4674571e-08 1.9443011e-24)
(-0.0036777598 2.9347962e-08 -1.5749313e-25)
(-0.003639425 1.4247327e-08 -1.8242954e-25)
(-0.0035998207 4.5805389e-10 -1.3277709e-25)
(-0.0035589842 -1.4660132e-08 -1.095906e-26)
(-0.0035169929 -2.7870396e-08 -4.5090859e-25)
(-0.0034739058 -4.2291711e-08 -2.075502e-25)
(-0.0034298051 -5.4686696e-08 7.2080432e-25)
(-0.0033847344 -6.8712186e-08 3.9543603e-26)
(-0.0033387643 -8.1130277e-08 3.9610125e-25)
(-0.0032919416 -9.4108895e-08 -6.5589794e-25)
(-0.0032443398 -1.0634395e-07 9.1813443e-26)
(-0.0031960279 -1.1808926e-07 2.1303386e-26)
(-0.0031470529 -1.3081011e-07 4.1753154e-26)
(-0.0030974443 -1.4201137e-07 4.0926861e-27)
(-0.0030472306 -1.5524875e-07 2.6820025e-25)
(-0.0029964983 -1.6509187e-07 -1.1857708e-25)
(-0.0029453006 -1.7760665e-07 -6.4183225e-25)
(-0.0028936879 -1.871567e-07 1.2342122e-24)
(-0.0028416985 -1.9865819e-07 -1.7876511e-24)
(-0.0027894116 -2.0742264e-07 2.9846546e-26)
(-0.0027368622 -2.1773214e-07 9.5399099e-25)
(-0.0026841182 -2.2619028e-07 -2.7108043e-25)
(-0.0026312097 -2.3607308e-07 6.4907933e-25)
(-0.0025781776 -2.4330592e-07 -2.7374457e-25)
(-0.0025250543 -2.5106888e-07 -1.7490221e-26)
(-0.0024719026 -2.5830111e-07 -3.1085313e-25)
(-0.0024188038 -2.6322632e-07 -3.1961413e-25)
(-0.0023657909 -2.7201212e-07 -3.0315544e-25)
(-0.0023128815 -2.760938e-07 1.1517825e-24)
(-0.00226009 -2.8358486e-07 7.5017163e-25)
(-0.002207504 -2.8615556e-07 1.2323723e-24)
(-0.0021551655 -2.9450239e-07 -4.8811091e-25)
(-0.0021031026 -2.9936814e-07 -1.3822701e-24)
(-0.0020512751 -3.0652326e-07 -3.3490811e-24)
(-0.0019997324 -3.1251325e-07 6.6057897e-17)
(-0.0019484981 -3.171764e-07 3.1642349e-20)
(-0.0018976197 -3.2545736e-07 -6.7583164e-17)
(-0.0018470173 -3.2880632e-07 -5.1518382e-24)
(-0.0017967655 -3.3319341e-07 7.5232633e-25)
(-0.0017469495 -3.3273096e-07 -8.9858632e-24)
(-0.0016977474 -3.3696094e-07 9.2997498e-24)
(-0.0016490429 -3.4440246e-07 8.6245683e-25)
(-0.0016007078 -3.4929205e-07 -8.4782247e-24)
(-0.001552808 -3.5044765e-07 4.702877e-24)
(-0.0015054875 -3.5426433e-07 -5.1790767e-24)
(-0.001458735 -3.5481497e-07 7.6387638e-24)
(-0.0014125815 -3.6181447e-07 -1.9549152e-24)
(-0.0013668616 -3.6185522e-07 -3.8366447e-24)
(-0.0013217447 -3.6241713e-07 1.2327678e-24)
(-0.0012770781 -3.6034822e-07 4.9772321e-24)
(-0.0012331434 -3.5529228e-07 -5.7733919e-24)
(-0.0011897203 -3.5221465e-07 5.0485118e-24)
(-0.0011472228 -3.4580979e-07 -5.5125997e-24)
(-0.0011053033 -3.4735344e-07 2.8278652e-24)
(-0.0010643582 -3.4509958e-07 3.2280101e-24)
(-0.0010238194 -3.4665672e-07 5.2337843e-24)
(-0.00098432722 -3.4043981e-07 -5.9963876e-24)
(-0.00094532569 -3.4310744e-07 -4.1224142e-24)
(-0.00090757541 -3.432028e-07 5.3040392e-24)
(-0.00087013226 -3.4838707e-07 -1.1290137e-23)
(-0.00083400667 -3.4540985e-07 1.0507872e-23)
(-0.00079817041 -3.501027e-07 -6.230184e-24)
(-0.00076396281 -3.5355623e-07 5.4264665e-24)
(-0.00072979375 -3.5986363e-07 -6.3105319e-24)
(-0.00069741106 -3.5923996e-07 -4.3447127e-24)
(-0.00066487022 -3.5938195e-07 3.4418179e-24)
(-0.00063462618 -3.5794841e-07 -4.3979418e-24)
(-0.00060395592 -3.5709616e-07 1.1328908e-23)
(-0.00057612688 -3.5160082e-07 -6.8842079e-24)
(-0.00054757689 -3.4942451e-07 6.0299771e-24)
(-0.00052271868 -3.4652515e-07 -1.0327396e-23)
(-0.0004966567 -3.479427e-07 9.6783908e-25)
(-0.00047520194 -3.4225233e-07 3.5791036e-24)
(-0.00045186471 -3.3802168e-07 4.0167225e-24)
(-0.00043453683 -3.2384377e-07 -1.5314877e-23)
(-0.00041468663 -3.2019175e-07 8.9360101e-17)
(-0.00040275669 -3.0809544e-07 8.9880846e-17)
(-0.00038737944 -3.113982e-07 -4.5686627e-24)
(-0.00038218604 -2.97955e-07 -6.7979309e-24)
(-0.00037248174 -3.0212787e-07 5.930717e-24)
(-0.00037586206 -2.8365308e-07 1.0784032e-24)
(-0.00037385473 -2.8779566e-07 -1.9622003e-24)
(-0.00038820207 -2.6244159e-07 -9.2158107e-17)
(-0.00039531958 -2.6993867e-07 -9.2699559e-17)
(-0.00042182959 -5.0484735e-06 -1.6600851e-20)
(-0.00044161674 -2.2735738e-05 1.7228299e-19)
(-0.00044668782 -4.1079697e-05 7.8177583e-20)
(-0.00045471235 -6.0127835e-05 -5.0703035e-19)
(-0.00044451009 -7.6450016e-05 -8.4424905e-20)
(-0.00043751054 -9.2480685e-05 -5.6529938e-19)
(-0.00041495796 -0.00010377659 3.7813733e-20)
(-0.00039408771 -0.00011362037 -5.9032998e-21)
(-0.00036039669 -0.00011737156 2.0980367e-19)
(-0.00032654806 -0.00011833194 -1.6501822e-19)
(-0.00028191856 -0.00011217539 5.3808006e-19)
(-0.000235109 -0.00010164377 -3.6677954e-19)
(-0.000178524 -8.2897338e-05 -9.9726797e-20)
(-0.00011774106 -5.7910113e-05 -1.8329731e-19)
(-4.7361544e-05 -2.3342559e-05 1.0418586e-18)
(2.9795948e-05 1.9929282e-05 2.2813448e-19)
(0.00011957938 7.5801176e-05 -8.9015711e-19)
(0.00021684673 0.00014126291 -9.7708355e-19)
(0.00032509451 0.00021843776 -1.5615849e-19)
(0.00044100296 0.00030487611 7.5236476e-20)
(0.00056729447 0.00040215068 -1.0496105e-18)
(0.00070141871 0.00050804745 -7.0067732e-20)
(0.00084547355 0.00062351585 -1.9055796e-19)
(0.00099690886 0.00074607953 -1.2481946e-18)
(0.0011569792 0.00087590622 1.8934109e-19)
(0.0013229008 0.001009807 1.0239719e-18)
(0.0014945922 0.0011466439 7.4190472e-19)
(0.001665216 0.0012805891 -2.7761762e-19)
(0.0018269031 0.0014079489 -1.3737419e-19)
(0.0019846477 0.0015344825 -1.2728487e-19)
(0.0021405991 0.0016620803 2.595325e-19)
(0.0022977027 0.0017933596 9.1125256e-19)
(0.0024566376 0.0019291071 -9.8943436e-19)
(0.0026208316 0.0020723384 2.650872e-19)
(0.0027900208 0.0022233523 2.7478086e-20)
(0.0029693333 0.0023867813 2.4985786e-19)
(0.0031582508 0.002562616 1.4777442e-19)
(0.0033643418 0.0027577045 -6.923597e-20)
(0.0035883903 0.0029734662 3.4868607e-19)
(0.0038441698 0.0032221477 -4.1664006e-20)
(0.004147973 0.0035159586 -7.2585279e-19)
(0.0045260901 0.0038608699 -1.7331299e-20)
(0.004952784 0.0042231463 -4.6913425e-19)
(0.0054860426 0.0046469443 4.3461824e-19)
(0.0060696171 0.005072677 3.5537453e-20)
(0.00680653 0.0055749374 5.2240522e-20)
(0.0076077879 0.0060580742 -1.1996545e-19)
(0.0086470697 0.0066377363 7.1445482e-20)
(0.0097790924 0.0071576904 4.5542979e-20)
(0.011298908 0.0077831384 -6.919618e-21)
(0.012905324 0.0082176576 1.4830981e-19)
(0.014950281 0.0086095275 -1.0466918e-19)
(0.016813322 0.0084806505 -3.787182e-19)
(0.018762164 0.0079237702 -4.5078493e-19)
(0.018947545 0.0063110316 -8.8148887e-20)
(0.018038081 0.004526932 1.3272665e-19)
(0.015498109 0.0027696365 -1.6644322e-19)
(0.013336855 0.001570506 -1.0201133e-19)
(0.0099138223 0.00067912083 -2.1622054e-20)
(0.0083982684 0.00026351856 -3.2009607e-20)
(0.0053478333 3.7841399e-05 -1.9368714e-20)
(0.0056447271 -3.1083131e-05 -1.1062277e-20)
(0.0030446544 -1.3781678e-05 -1.8910555e-21)
(0.018163754 6.8694906e-05 1.466998e-21)
(0.014413303 6.1846977e-05 3.7152662e-21)
(0.022206969 -0.00014758701 -4.1024306e-21)
(0.018022897 -0.00054813638 3.5936205e-20)
(0.019553875 -0.0013079148 5.2306576e-22)
(0.011874251 -0.0013539012 6.1274119e-20)
(0.0078014315 -0.0013578396 -2.5499947e-20)
(-0.0013146467 0.00037444168 4.7000132e-20)
(-0.0047462366 0.0016043352 3.4906079e-20)
(-0.0070481345 0.0029999493 -2.78303e-20)
(-0.0054383442 0.0027544671 -8.5878559e-21)
(-0.0048210985 0.0027938181 2.6397353e-21)
(-0.0034589282 0.0022137221 6.1888977e-20)
(-0.0030350095 0.0021051743 9.2107709e-21)
(-0.0024848048 0.0018309818 -2.5127471e-20)
(-0.0023533493 0.0018204748 1.1102802e-20)
(-0.0020649373 0.0016561568 -6.2351792e-21)
(-0.001996292 0.0016476429 -2.2527565e-21)
(-0.0018133602 0.001526287 -6.0047119e-21)
(-0.0017376353 0.00148224 1.5199559e-21)
(-0.0015966043 0.001370023 -1.9666222e-21)
(-0.0015196945 0.0013040456 1.4055017e-21)
(-0.001415957 0.0012066212 1.44199e-21)
(-0.0013679455 0.0011525458 2.3781635e-21)
(-0.001318832 0.0010981669 -5.1420016e-22)
(-0.0013005547 0.0010710951 -4.8003163e-22)
(-0.0012863366 0.0010485671 -5.4530039e-22)
(-0.001297133 0.0010474234 2.8461292e-22)
(-0.001316014 0.0010534228 1.5571469e-22)
(-0.0013586085 0.0010790706 1.1049074e-21)
(-0.0014123826 0.0011139208 -2.2937735e-21)
(-0.0014886221 0.0011670056 -1.7897875e-21)
(-0.0015779043 0.0012305457 -4.0095092e-22)
(-0.0016864726 0.0013096318 -9.1179014e-22)
(-0.001805904 0.0013975785 -3.0052641e-23)
(-0.0019348507 0.0014936258 3.4297872e-21)
(-0.0020588369 0.0015847871 2.7817607e-21)
(-0.0021801209 0.0016687052 1.1895206e-22)
(-0.0023000697 0.0017448987 1.8454946e-21)
(-0.0024161656 0.0018105423 1.5484667e-22)
(-0.0025282019 0.0018643909 4.9818821e-25)
(-0.0026333983 0.0019052645 -1.7870475e-21)
(-0.0027316259 0.001931374 -5.027724e-22)
(-0.0028178537 0.0019375443 -5.5143527e-22)
(-0.0028903906 0.001924259 1.4971122e-21)
(-0.0029439654 0.001886327 -9.3164233e-21)
(-0.0029830127 0.0018276699 3.3481765e-21)
(-0.0030037494 0.0017471598 -2.6933807e-21)
(-0.0030272496 0.0016586479 -3.0296135e-22)
(-0.0030463592 0.0015632922 -2.7694612e-21)
(-0.0030581591 0.0014611186 1.9621114e-21)
(-0.0030493213 0.0013470283 -1.048232e-20)
(-0.0030311106 0.0012279203 -7.3085581e-22)
(-0.0029782686 0.0010954668 2.3103421e-21)
(-0.0029218932 0.00096412939 -6.0583207e-22)
(-0.0028173209 0.0008212316 5.7142377e-21)
(-0.0027276891 0.00068880069 -4.8316513e-21)
(-0.0025747729 0.00054843862 3.0231151e-21)
(-0.0024853149 0.0004302458 -5.0149316e-22)
(-0.0023192363 0.0003081507 5.8704006e-24)
(-0.002333416 0.00021571386 -1.289052e-22)
(-0.0022758652 0.00011897022 -2.3971097e-21)
(-0.0027595891 3.8719424e-05 3.4128355e-22)
(-0.00369546 7.3278104e-06 -7.1714257e-25)
(-0.0043407776 6.1707501e-06 -1.0158677e-26)
(-0.0049918454 5.5281583e-06 -2.2494208e-25)
(-0.0055233866 5.0288333e-06 7.5382351e-25)
(-0.0060477002 4.5560087e-06 -4.6423097e-25)
(-0.0064920931 4.1772458e-06 1.6466386e-25)
(-0.0069230392 3.82239e-06 1.647105e-25)
(-0.0072996921 3.5377532e-06 1.5630346e-25)
(-0.0076620478 3.2708344e-06 -5.662265e-25)
(-0.0079865955 3.0538382e-06 2.3032559e-25)
(-0.0082975201 2.8518367e-06 1.2720209e-25)
(-0.0085816819 2.6849388e-06 9.9336934e-26)
(-0.0088538725 2.5279233e-06 -7.0538912e-25)
(-0.0091059345 2.3939736e-06 4.2494124e-25)
(-0.0093471982 2.2664512e-06 -1.6789893e-25)
(-0.0095726749 2.1532074e-06 7.4154742e-26)
(-0.0097882082 2.0446787e-06 -8.6793871e-26)
(-0.0099907933 1.9459608e-06 7.9669959e-26)
(-0.010184039 1.8506878e-06 3.1777375e-26)
(-0.010366139 1.7602656e-06 -2.1578105e-26)
(-0.010539305 1.6713748e-06 -8.0141174e-26)
(-0.010702431 1.5850068e-06 -1.4371902e-25)
(-0.010856677 1.4994949e-06 -2.1214375e-25)
(-0.01100154 1.4143641e-06 4.3778861e-25)
(-0.011137036 1.3332322e-06 1.0716683e-25)
(-0.011264569 1.2556733e-06 9.1889738e-25)
(-0.011383542 1.1766709e-06 -1.4703844e-24)
(-0.011494102 1.0987452e-06 1.1216811e-24)
(-0.011596302 1.0208266e-06 -2.9303391e-25)
(-0.011690167 9.4389599e-07 -1.2290953e-24)
(-0.011775884 8.6815747e-07 -5.5768105e-25)
(-0.011853497 7.9310802e-07 5.0805375e-25)
(-0.011923269 7.1942554e-07 3.294406e-25)
(-0.011985299 6.4672355e-07 1.0400152e-24)
(-0.012039934 5.7592531e-07 8.7033075e-25)
(-0.012087266 5.0829555e-07 -2.588135e-24)
(-0.012127968 4.4536439e-07 8.7024279e-25)
(-0.012162523 3.9058697e-07 5.732954e-25)
(-0.012192256 3.4031988e-07 1.5656006e-24)
(-0.012216451 2.8243183e-07 -3.3891748e-24)
(-0.012234601 2.0924253e-07 1.6516312e-24)
(-0.01224398 9.6909017e-08 7.6244185e-25)
(-0.012238487 -1.1203115e-08 1.420187e-24)
(-0.012225341 -8.8984005e-08 -3.6359545e-24)
(-0.012203964 -1.6323656e-07 8.1548653e-25)
(-0.012175692 -2.3126925e-07 2.3520844e-25)
(-0.012140483 -2.973489e-07 3.0479814e-24)
(-0.012098726 -3.5936244e-07 -2.6064566e-24)
(-0.012050482 -4.2175805e-07 1.065443e-24)
(-0.011995974 -4.8246925e-07 -5.8454692e-27)
(-0.01193534 -5.4234299e-07 -3.4229901e-24)
(-0.011868823 -5.9866758e-07 6.4899619e-25)
(-0.011796542 -6.5389345e-07 7.6657684e-25)
(-0.011718691 -7.0804177e-07 4.8342637e-25)
(-0.011635357 -7.6073541e-07 1.3195989e-24)
(-0.011546771 -8.1352443e-07 1.2502598e-25)
(-0.011453104 -8.6256814e-07 -7.3410223e-25)
(-0.0113546 -9.1122076e-07 4.2866694e-25)
(-0.011251409 -9.5701202e-07 -6.1946555e-25)
(-0.011143723 -1.0035241e-06 2.6717181e-25)
(-0.011031781 -1.0459474e-06 -4.1518577e-25)
(-0.010915796 -1.0867064e-06 9.3083645e-25)
(-0.010795998 -1.1246498e-06 -1.7344876e-24)
(-0.010672532 -1.1620669e-06 -3.8294501e-25)
(-0.010545636 -1.1966345e-06 6.8556875e-25)
(-0.01041546 -1.2295077e-06 1.3110702e-24)
(-0.010282254 -1.2606786e-06 -1.7365603e-25)
(-0.010146148 -1.289687e-06 -3.8348435e-25)
(-0.010007368 -1.3173505e-06 -7.2222742e-25)
(-0.009866048 -1.3429857e-06 6.665992e-25)
(-0.0097224127 -1.3672899e-06 -1.6233508e-25)
(-0.009576633 -1.3888752e-06 -1.3086794e-26)
(-0.0094288596 -1.410082e-06 -8.3101085e-26)
(-0.0092792135 -1.4301846e-06 1.1117953e-26)
(-0.0091278114 -1.4489256e-06 3.9584807e-25)
(-0.0089748976 -1.4652945e-06 -7.1989467e-25)
(-0.0088206193 -1.4800958e-06 -1.1930643e-25)
(-0.0086651322 -1.4937839e-06 -4.9660509e-25)
(-0.0085085333 -1.5051589e-06 1.4623444e-24)
(-0.0083510686 -1.5157201e-06 1.2382012e-24)
(-0.008192833 -1.5235302e-06 -2.2635553e-25)
(-0.0080340246 -1.5307974e-06 -3.1088741e-24)
(-0.0078747333 -1.5356591e-06 -1.8526561e-24)
(-0.0077151069 -1.5410071e-06 2.7157193e-24)
(-0.0075552509 -1.5431501e-06 4.2055627e-24)
(-0.0073953424 -1.543919e-06 -7.1147192e-24)
(-0.0072355602 -1.5423031e-06 1.7575859e-24)
(-0.0070760014 -1.5408219e-06 -1.5939735e-25)
(-0.0069167676 -1.5393499e-06 3.5218541e-24)
(-0.0067579197 -1.5357657e-06 -2.5840602e-24)
(-0.0065996726 -1.5308663e-06 1.2721466e-24)
(-0.0064420951 -1.5248575e-06 1.7867241e-24)
(-0.0062853126 -1.521452e-06 3.924476e-24)
(-0.0061292633 -1.5170307e-06 -9.8369248e-24)
(-0.0059741103 -1.5107274e-06 3.9468173e-24)
(-0.0058198636 -1.5039498e-06 -1.4725267e-25)
(-0.0056666831 -1.497021e-06 -6.0154695e-24)
(-0.0055144199 -1.4902113e-06 -2.1650969e-25)
(-0.0053633374 -1.4778237e-06 1.0816988e-23)
(-0.0052135401 -1.4622436e-06 3.2744789e-24)
(-0.0050653647 -1.4500129e-06 -7.7083516e-24)
(-0.0049186375 -1.4450452e-06 9.6808241e-24)
(-0.0047732074 -1.4354138e-06 1.3108303e-24)
(-0.0046291828 -1.4189461e-06 -8.6116914e-24)
(-0.0044868478 -1.4020584e-06 1.5278917e-23)
(-0.0043461396 -1.389247e-06 -1.1268381e-23)
(-0.0042072331 -1.3761553e-06 1.4975255e-24)
(-0.0040697485 -1.3620812e-06 2.0911085e-24)
(-0.0039341544 -1.3421336e-06 -1.0713705e-23)
(-0.0037999907 -1.3206646e-06 1.1949457e-23)
(-0.0036680573 -1.2952074e-06 2.3427578e-24)
(-0.0035376792 -1.2686438e-06 -6.0930307e-24)
(-0.0034099832 -1.2419583e-06 -6.1839882e-24)
(-0.0032839299 -1.2205471e-06 -1.1962981e-23)
(-0.0031607477 -1.2004075e-06 2.1772598e-23)
(-0.0030389019 -1.1805736e-06 1.516234e-23)
(-0.0029201987 -1.1524587e-06 -3.2846878e-23)
(-0.0028028838 -1.1321959e-06 3.272516e-23)
(-0.0026892027 -1.1117588e-06 -9.7522624e-24)
(-0.0025765373 -1.0982002e-06 -1.5181905e-23)
(-0.0024678644 -1.0713955e-06 -1.2517228e-23)
(-0.0023600066 -1.0546094e-06 -4.918392e-25)
(-0.0022569329 -1.0345216e-06 2.8335999e-23)
(-0.0021540723 -1.023148e-06 -2.0990592e-23)
(-0.0020566775 -9.9531773e-07 1.3209402e-23)
(-0.0019588929 -9.7174212e-07 -2.108809e-23)
(-0.0018679486 -9.3939541e-07 2.3477288e-23)
(-0.0017758501 -9.1312524e-07 -1.2973557e-23)
(-0.0016922715 -8.7133932e-07 7.7442728e-24)
(-0.0016066025 -8.375011e-07 2.603077e-24)
(-0.001531857 -7.9315963e-07 -1.3193643e-23)
(-0.0014536328 -7.6085386e-07 1.3726295e-23)
(-0.0013891955 -7.0585009e-07 -1.9157266e-25)
(-0.0013193862 -6.5857402e-07 5.3361071e-24)
(-0.0012674901 -5.8073769e-07 -2.4941213e-23)
(-0.0012081913 -5.2241002e-07 1.6862497e-23)
(-0.0011723704 -4.325454e-07 5.3983239e-24)
(-0.0011264493 -3.7121906e-07 -2.5298252e-23)
(-0.001110839 -2.5824792e-07 2.4926215e-23)
(-0.0010820497 -1.7946506e-07 1.7269314e-23)
(-0.0010922136 -2.5911844e-08 -2.5561038e-23)
(-0.0010866593 7.7632881e-08 2.0145843e-23)
(-0.0011298292 2.6843147e-07 -2.8581442e-23)
(-0.001152038 3.7832162e-07 -3.036428e-23)
(-0.0012320949 -1.3579678e-05 4.3071751e-20)
(-0.0012914664 -6.6153925e-05 1.8754398e-20)
(-0.0013063871 -0.00012056566 9.0704567e-21)
(-0.0013295398 -0.00017706734 6.021159e-19)
(-0.0012983497 -0.00022538692 3.0087947e-19)
(-0.0012763202 -0.00027270312 1.3850095e-18)
(-0.0012079381 -0.00030583761 1.224672e-18)
(-0.001144299 -0.00033447115 -3.1853765e-19)
(-0.0010424232 -0.00034484301 -3.964942e-19)
(-0.00093989888 -0.000346702 8.7596014e-20)
(-0.00080520392 -0.00032721463 -2.8368429e-19)
(-0.00066389086 -0.00029447327 2.2765423e-19)
(-0.00049340276 -0.00023707836 -2.5357494e-19)
(-0.0003103127 -0.00016084334 -1.1270468e-19)
(-9.8566754e-05 -5.5850064e-05 -8.2493724e-19)
(0.00013344167 7.5360551e-05 1.9328566e-18)
(0.00040301918 0.00024427552 7.3386586e-19)
(0.00069489465 0.00044203831 4.7665458e-20)
(0.0010193773 0.00067483814 -5.0418318e-19)
(0.0013665975 0.00093547125 -5.9222197e-19)
(0.0017446507 0.0012285193 1.2582713e-18)
(0.0021460695 0.0015474515 -2.2770295e-18)
(0.0025769951 0.001894992 5.0740507e-19)
(0.0030300437 0.0022638038 -2.5142644e-19)
(0.0035088719 0.0026543327 4.1157168e-19)
(0.0040049659 0.0030570638 -9.3712547e-19)
(0.0045178453 0.0034685169 -2.6625065e-19)
(0.0050276148 0.0038713615 -6.0281831e-19)
(0.0055115668 0.0042548682 3.8311312e-19)
(0.0059842525 0.004636028 -8.2975467e-19)
(0.006451735 0.005020488 -4.5355202e-19)
(0.0069225867 0.0054159969 -8.1229032e-19)
(0.0073987851 0.0058250458 4.0492566e-20)
(0.0078903368 0.0062565375 9.75363e-19)
(0.0083966973 0.0067115059 -3.7621649e-19)
(0.0089329395 0.0072036265 4.3889153e-19)
(0.0094977388 0.0077330995 -2.7962456e-19)
(0.01011317 0.0083202082 -1.3630166e-18)
(0.010781961 0.008969461 2.5337996e-19)
(0.01154444 0.0097172044 1.532748e-19)
(0.012448741 0.010599892 1.2872601e-18)
(0.013567221 0.011631478 -2.2404311e-19)
(0.01483239 0.012716769 2.2946965e-19)
(0.016414042 0.013985025 -3.8426637e-20)
(0.018147537 0.015260124 -1.3573539e-19)
(0.020334286 0.016760622 -3.6414243e-19)
(0.022715627 0.018205383 5.0375212e-20)
(0.025796366 0.019932306 -6.4445537e-20)
(0.029157083 0.021483668 7.0782499e-20)
(0.033654312 0.023336969 2.5038568e-21)
(0.038418113 0.024627437 -1.8014169e-19)
(0.04445405 0.025769462 2.6741807e-19)
(0.049978372 0.025373791 1.0150154e-19)
(0.055735261 0.023688721 5.4295529e-19)
(0.056435623 0.01891504 -2.7776566e-19)
(0.053943526 0.013617312 2.7805763e-19)
(0.04667762 0.0083917398 -1.2979909e-19)
(0.040370472 0.0047904579 -3.760149e-19)
(0.030357099 0.0021073039 -9.5417062e-20)
(0.025770958 0.0008349638 8.9648518e-21)
(0.01677066 0.00013651154 3.0666883e-20)
(0.017456366 -8.1014981e-05 5.7648274e-21)
(0.010022377 -4.4535889e-05 6.8454656e-21)
(0.030774739 9.9725698e-05 1.3728714e-21)
(0.025019524 8.9848729e-05 -1.2719478e-21)
(0.037444505 -0.00026018003 -4.3898516e-22)
(0.030750216 -0.00092656394 -1.8078915e-20)
(0.033097853 -0.0021857094 5.3119804e-20)
(0.02054546 -0.0022974054 -4.0844148e-20)
(0.013638359 -0.0023141458 2.5293584e-20)
(-0.0015632833 0.00052305178 -9.9888766e-20)
(-0.0075956361 0.0026029435 4.8214635e-20)
(-0.011652149 0.0049669992 1.1274814e-21)
(-0.0090950749 0.0046017311 1.2066356e-20)
(-0.0080827182 0.0046754113 -1.4230313e-20)
(-0.0058245997 0.0037212304 -6.1507524e-20)
(-0.0051085334 0.0035389202 1.799682e-20)
(-0.0041892437 0.0030845487 2.6963381e-20)
(-0.0039645744 0.0030646989 -2.9660318e-21)
(-0.0034825638 0.0027919033 2.5883204e-21)
(-0.0033648124 0.0027758835 4.7907981e-21)
(-0.0030591072 0.0025738257 1.2832668e-20)
(-0.0029309277 0.002498994 -6.2314204e-21)
(-0.0026951965 0.0023116856 -5.5798975e-21)
(-0.0025657757 0.0022006153 -8.0563744e-22)
(-0.0023924366 0.0020378953 1.6780354e-21)
(-0.0023117447 0.0019470587 -2.6334086e-21)
(-0.0022299154 0.0018563063 5.6041209e-23)
(-0.0021994943 0.0018111188 -5.7490794e-22)
(-0.0021764089 0.0017739048 4.1398033e-22)
(-0.0021950871 0.0017724823 2.6899768e-22)
(-0.0022276332 0.0017832794 1.7316428e-23)
(-0.0022998526 0.0018269904 5.2123758e-22)
(-0.0023910273 0.0018863017 -2.5800529e-22)
(-0.0025198131 0.0019761324 -2.9831081e-22)
(-0.0026705101 0.0020835847 -1.4097181e-21)
(-0.0028533979 0.0022169607 6.4846419e-23)
(-0.0030543814 0.0023651417 -3.9911173e-21)
(-0.0032711486 0.0025266816 -3.0843277e-21)
(-0.0034798314 0.0026800386 -6.3453621e-22)
(-0.003683974 0.0028211698 1.7675437e-22)
(-0.0038856468 0.0029492085 2.5817469e-22)
(-0.0040807277 0.0030594206 -6.8897625e-22)
(-0.0042685608 0.0031497954 5.1719168e-24)
(-0.004445963 0.003218145 2.8381534e-21)
(-0.0046116801 0.0032618327 2.2329234e-21)
(-0.0047567541 0.0032719129 1.3586923e-23)
(-0.0048798562 0.0032491491 -1.2032805e-20)
(-0.0049707633 0.0031853774 4.7142551e-21)
(-0.0050373347 0.0030866095 6.5016692e-21)
(-0.0050738756 0.0029515253 5.9382853e-21)
(-0.005114978 0.0028027767 9.9722438e-22)
(-0.0051491099 0.0026424655 -2.7310822e-21)
(-0.0051711084 0.0024705206 1.0301772e-20)
(-0.0051591369 0.0022786866 2.7597476e-21)
(-0.00513155 0.0020781265 1.2741563e-21)
(-0.0050467888 0.0018553551 1.1339426e-20)
(-0.0049558446 0.0016339312 -6.4539032e-21)
(-0.0047858743 0.0013935254 -6.8213096e-21)
(-0.0046401436 0.0011698846 1.7577761e-21)
(-0.0043913638 0.00093358991 -1.769444e-21)
(-0.0042470062 0.00073337884 1.0243087e-21)
(-0.0039798429 0.00052767667 3.2573142e-22)
(-0.0040108971 0.00037045412 -1.4500185e-22)
(-0.0039339945 0.00020815959 1.4771003e-22)
(-0.0047522978 7.5111294e-05 -4.9146439e-22)
(-0.0063112187 2.2019252e-05 6.8627251e-25)
(-0.0073946243 1.8338704e-05 -9.4621639e-27)
(-0.0084827376 1.6537065e-05 -1.8154152e-25)
(-0.0093737002 1.4908674e-05 4.9380199e-25)
(-0.010249595 1.3557378e-05 -2.0993589e-25)
(-0.010993579 1.2337497e-05 -2.3131123e-25)
(-0.011713342 1.1308724e-05 5.1734178e-25)
(-0.012343426 1.0400416e-05 -2.4609075e-25)
(-0.012948576 9.6193774e-06 -2.4101613e-25)
(-0.013491177 8.9306141e-06 -2.2396149e-25)
(-0.014010264 8.3332193e-06 1.5880382e-25)
(-0.014485112 7.8078855e-06 5.9695183e-26)
(-0.014939475 7.3384459e-06 1.0966756e-25)
(-0.015360393 6.9162696e-06 -1.7805905e-25)
(-0.015762957 6.5315076e-06 1.9973348e-26)
(-0.016139238 6.1769021e-06 -2.1925779e-25)
(-0.016498674 5.8479545e-06 1.3615166e-25)
(-0.01683649 5.5396173e-06 -3.9906962e-26)
(-0.017158517 5.2481272e-06 9.3951655e-26)
(-0.017461907 4.968328e-06 -4.3311098e-26)
(-0.017750234 4.6982279e-06 -6.1616142e-26)
(-0.018021739 4.433656e-06 4.5630459e-25)
(-0.018278309 4.1742677e-06 -3.3567389e-25)
(-0.018519113 3.9122088e-06 2.8883965e-25)
(-0.018743992 3.6672848e-06 -1.781765e-25)
(-0.018955671 3.4345099e-06 -1.0523695e-25)
(-0.019152966 3.1965892e-06 4.4603691e-25)
(-0.019336125 2.9611082e-06 5.656059e-25)
(-0.019505241 2.7269979e-06 -2.0470669e-24)
(-0.019660371 2.4963763e-06 1.6209164e-24)
(-0.019801823 2.2688476e-06 -4.5362622e-25)
(-0.019929689 2.045722e-06 -1.6203965e-24)
(-0.020044408 1.8266707e-06 6.8727633e-25)
(-0.020146161 1.6141348e-06 2.4362753e-24)
(-0.020235527 1.4067122e-06 -4.3461717e-25)
(-0.020312676 1.2104772e-06 -7.0233797e-25)
(-0.020378731 1.0298116e-06 -6.2304935e-25)
(-0.020434594 8.7355211e-07 -7.1485438e-25)
(-0.020482279 7.2838884e-07 1.4866102e-24)
(-0.020520757 5.6390089e-07 -7.6125642e-25)
(-0.020549372 3.5495711e-07 -1.1079422e-24)
(-0.020563259 2.324807e-08 1.7645676e-24)
(-0.020551901 -2.9176298e-07 -9.2067388e-25)
(-0.020527712 -5.1689378e-07 -1.0210669e-24)
(-0.020489785 -7.2779185e-07 1.0020832e-24)
(-0.020440327 -9.2311448e-07 1.7525914e-24)
(-0.02037927 -1.1109798e-06 2.3057951e-25)
(-0.020307245 -1.2931986e-06 -1.491332e-24)
(-0.020224375 -1.4702002e-06 -1.2576372e-24)
(-0.020131045 -1.6437331e-06 4.1487576e-24)
(-0.020027489 -1.8112764e-06 -6.5832184e-24)
(-0.019914089 -1.9734282e-06 5.6067829e-24)
(-0.019791036 -2.1295468e-06 -4.8079211e-24)
(-0.019658675 -2.283126e-06 1.8980815e-24)
(-0.019517179 -2.4319336e-06 9.0180859e-25)
(-0.019366942 -2.5773403e-06 2.3308032e-25)
(-0.019208238 -2.7151761e-06 -1.6879067e-24)
(-0.019041455 -2.8486234e-06 1.0456757e-24)