/*--------------------------------*- C++ -*----------------------------------*\
| =========                 |                                                 |
| \\      /  F ield         | OpenFOAM: The Open Source CFD Toolbox           |
|  \\    /   O peration     | Version:  2.4.0                                 |
|   \\  /    A nd           | Web:      www.OpenFOAM.org                      |
|    \\/     M anipulation  |                                                 |
\*---------------------------------------------------------------------------*/
FoamFile
{
    version     2.0;
    format      ascii;
    class       volScalarField;
    location    "310";
    object      omega;
}
// * * * * * * * * * * * * * * * * * * * * * * * * * * * * * * * * * * * * * //

dimensions      [0 0 -1 0 0 0 0];

internalField   nonuniform List<scalar> 
19477
(
1.445775
1.4443104
1.4431039
1.4427859
1.4439333
1.4471172
1.4528294
1.4615109
1.4735033
1.4889679
1.5076839
1.5293568
1.5538344
1.5811071
1.6113316
1.644803
1.6819711
1.7234343
1.7699298
1.8223148
1.8815311
1.9485449
2.0242697
2.109554
2.2052838
2.31225
2.431067
2.562146
2.7056651
2.8613375
3.0278403
3.2021738
3.3802298
3.558214
3.7334421
3.9040872
1.9742325
1.9616862
1.9481524
1.9335567
1.9178273
1.9008979
1.8827124
1.8632285
1.8424232
1.8203018
1.7969158
1.7724271
1.7470625
1.7210732
1.6947255
1.668294
1.642053
1.6162663
1.5912173
1.5672986
1.5446454
1.5236866
1.5048835
1.4887637
1.4757505
1.4658104
1.45865
1.4538459
1.4509371
1.4493174
1.4485004
1.4478858
1.4471883
1.4127487
1.4114526
1.4104395
1.4102686
1.4115022
1.4146827
1.42028
1.4287076
1.4402783
1.4551225
1.4729951
1.4935733
1.5166623
1.5421949
1.5702508
1.601028
1.6348552
1.672185
1.7135852
1.7597262
1.811356
1.869258
1.9341953
2.00691
2.088213
2.1788728
2.2795455
2.3907503
2.5128611
2.6460433
2.7899906
2.9433504
3.1034029
3.266681
3.4300885
3.5914269
3.7491339
3.9010936
4.0455231
4.1805013
4.3039444
4.4138205
4.5082934
1.9380488
1.924188
1.9094261
1.893699
1.8769464
1.8591146
1.8401602
1.8200538
1.7987846
1.7763679
1.7528623
1.7284306
1.7032941
1.6776918
1.6518713
1.6260832
1.6005744
1.5755785
1.5513485
1.528257
1.5064311
1.4862706
1.4682137
1.4527622
1.4403187
1.430848
1.4240654
1.4195633
1.4168968
1.4154836
1.4148499
1.4144175
1.4139191
1.3794393
1.3783393
1.3775158
1.3774886
1.3788089
1.381992
1.3874872
1.3956837
1.4068697
1.421151
1.4382654
1.4578698
1.4797369
1.5037535
1.5299372
1.558407
1.5893934
1.6232299
1.6603454
1.7012552
1.7465433
1.7968329
1.8527466
1.9149138
1.9840507
2.0608665
2.1460041
2.2400174
2.3433643
2.4563928
2.5792456
2.7115927
2.8521518
2.9985513
3.1479105
3.297685
3.4459258
3.5907944
3.7306933
3.8639172
3.9887769
4.1035489
4.2065457
1.8985597
1.883582
1.8677951
1.8511445
1.8335803
1.8150595
1.79555
1.7750331
1.7535074
1.7309958
1.7075608
1.6833628
1.6586142
1.633539
1.6083648
1.5833177
1.55862
1.5344813
1.5111331
1.4889157
1.4679528
1.4486179
1.4313268
1.4165564
1.4046893
1.3956892
1.3892813
1.3850746
1.3826413
1.3814245
1.3809637
1.3807047
1.3803985
1.345908
1.345004
1.3443664
1.3444789
1.345883
1.3490693
1.3544679
1.3624465
1.3732727
1.3870329
1.4034542
1.4221804
1.4429604
1.4656452
1.490203
1.5166893
1.545255
1.5761373
1.6096518
1.6461863
1.6861876
1.7301416
1.7785443
1.8319154
1.8908698
1.9560378
2.0280156
2.1073459
2.1945086
2.2899156
2.3938899
2.5065729
2.6276384
2.755938
2.8894478
3.025765
3.1626505
3.2981367
3.4306163
3.558619
3.6806623
3.7954034
3.9013642
1.8558997
1.8400172
1.8234209
1.8060645
1.7879072
1.7689157
1.749067
1.7283507
1.7067729
1.684361
1.6611787
1.6373809
1.6131683
1.5887486
1.5643284
1.5401106
1.5162949
1.493076
1.4706776
1.4493672
1.4292943
1.4108066
1.3942968
1.3802171
1.3689302
1.3603997
1.3543614
1.3504415
1.3482305
1.3471976
1.3468969
1.3467993
1.3466734
1.3122153
1.3114982
1.3110385
1.3112838
1.3127653
1.3159509
1.3212524
1.3290184
1.339499
1.3527658
1.368541
1.3864617
1.4062604
1.4277614
1.4508942
1.4756641
1.5021579
1.5305353
1.5610206
1.5938971
1.6294989
1.6681955
1.7103725
1.7564481
1.8069373
1.8623844
1.9233209
1.9902499
2.0636364
2.1439023
2.2314232
2.3265097
2.4292961
2.5394915
2.6560994
2.777413
2.9013266
3.0257252
3.1488581
3.2692704
3.385641
3.4967799
3.601443
1.8102621
1.7936976
1.7765154
1.7586766
1.7401483
1.7209047
1.7009304
1.6802214
1.6587884
1.6366614
1.6139024
1.5906584
1.5671167
1.5434675
1.5198973
1.4965877
1.4737178
1.4514726
1.4300844
1.4097031
1.3905418
1.3729187
1.3572024
1.3438199
1.3331147
1.3250506
1.3193751
1.315732
1.3137307
1.3128677
1.3127124
1.3127618
1.3128019
1.2784275
1.2778843
1.2775907
1.2779587
1.2795081
1.2826851
1.2878838
1.2954357
1.3055759
1.3183652
1.3335253
1.3506927
1.36959
1.3900227
1.4118907
1.43516
1.4598672
1.4861098
1.5140385
1.543853
1.5757948
1.6101367
1.6471698
1.6872219
1.7307151
1.7781077
1.8298593
1.8864181
1.948212
2.0156434
2.0890871
2.1688901
2.2553455
2.3485863
2.4483654
2.5538467
2.6635251
2.7754145
2.8877428
2.9989344
3.1077068
3.2128196
3.3131948
1.7619007
1.744883
1.7273419
1.709245
1.6905658
1.6712847
1.6513917
1.6308874
1.6097852
1.5881149
1.5659353
1.5433835
1.5206323
1.4978545
1.4752177
1.4528851
1.4310161
1.4097839
1.3894277
1.3700113
1.3517842
1.3350413
1.3201274
1.3074457
1.297321
1.2897181
1.2843969
1.2810193
1.2792142
1.2785059
1.2784801
1.2786605
1.2788505
1.2446172
1.244233
1.2440914
1.2445693
1.2461742
1.2493314
1.2544175
1.2617482
1.2715458
1.2838632
1.2984259
1.3148744
1.3329276
1.3523784
1.3731057
1.3950453
1.4181945
1.442602
1.4683603
1.4956018
1.5244933
1.5552287
1.5880196
1.6231151
1.6608543
1.7016146
1.7457834
1.7937471
1.8458853
1.902564
1.9641333
2.0309305
2.1032779
2.1814519
2.2655823
2.3554707
2.450355
2.548827
2.649244
2.7500004
2.8497
2.9471245
3.041166
1.71113
1.693888
1.676213
1.6580777
1.6394608
1.6203473
1.6007312
1.5806155
1.5600144
1.5389562
1.5174947
1.4957562
1.4738983
1.4520774
1.4304438
1.4091444
1.3883207
1.3681306
1.3488094
1.3303931
1.3131196
1.2972671
1.2831601
1.271179
1.2616309
1.2544823
1.2495055
1.2463813
1.2447583
1.2441888
1.2442756
1.2445701
1.2448927
1.2108637
1.2106223
1.2106169
1.2111901
1.2128361
1.2159595
1.22092
1.2280183
1.2374651
1.249308
1.2632798
1.2790292
1.2962758
1.3148065
1.3344853
1.3552263
1.3769966
1.3998073
1.4237051
1.4487694
1.4751074
1.5028491
1.5321406
1.5631646
1.5961872
1.6315136
1.6694621
1.7103578
1.7545263
1.8022892
1.8539604
1.909848
1.9702564
2.035479
2.1057726
2.1812587
2.2617248
2.3464671
2.4342444
2.5236597
2.6133157
2.7019567
2.7884653
1.6583211
1.641078
1.6234858
1.6055215
1.5871675
1.5684123
1.5492521
1.5296909
1.5097424
1.4894319
1.4688074
1.4479837
1.4271041
1.406309
1.385733
1.3655088
1.3457629
1.326642
1.3083682
1.2909651
1.2746525
1.259693
1.2463917
1.2351072
1.2261291
1.219426
1.214783
1.2118994
1.210444
1.2099972
1.2101799
1.210571
1.2110085
1.1772517
1.1771364
1.1772505
1.1779034
1.1795744
1.1826485
1.1874682
1.1943195
1.203403
1.2147627
1.2281414
1.2431992
1.259661
1.2773121
1.2960078
1.3156467
1.3361744
1.3575729
1.3798541
1.4030559
1.4272389
1.452482
1.4788783
1.5065553
1.5357175
1.5666061
1.5994775
1.6345982
1.6722404
1.712678
1.7561837
1.8030284
1.8534836
1.9078221
1.9663131
2.0291863
2.0965042
2.1680034
2.2430295
2.3205965
2.3994836
2.4785454
2.556689
1.6038955
1.5868616
1.5695544
1.551954
1.5340455
1.5158195
1.4972732
1.4784106
1.4592436
1.439794
1.4201035
1.4002757
1.3804399
1.3607219
1.3412425
1.3221209
1.3034759
1.2854559
1.2682301
1.2518395
1.2364856
1.2224149
1.2099136
1.1993185
1.1909019
1.1846342
1.1803136
1.1776579
1.1763558
1.1760161
1.1762779
1.1767483
1.1772829
1.143871
1.1438648
1.1440815
1.1447978
1.1464772
1.1494856
1.1541478
1.1607358
1.1694406
1.180304
1.1930806
1.2074452
1.223131
1.2399259
1.2576812
1.2762861
1.2956706
1.3157959
1.3366475
1.3582318
1.3805734
1.4037112
1.4276964
1.4526114
1.4786093
1.5058769
1.5346163
1.5650408
1.5973724
1.6318382
1.6686681
1.7080941
1.7503504
1.7956752
1.8443121
1.8964988
1.9523933
2.0119676
2.0749606
2.140835
2.2087717
2.277796
2.3468819
1.706222
1.6912953
1.6760886
1.6606425
1.6449956
1.6291845
1.6132433
1.5971989
1.5810465
1.5647601
1.5483126
1.5316793
1.5148384
1.4977725
1.4804686
1.4629183
1.4451189
1.4270737
1.4087922
1.3902922
1.3716095
1.352837
1.334091
1.315484
1.2971248
1.2791201
1.2615874
1.2446973
1.228506
1.2131188
1.1987159
1.1855262
1.1738163
1.1639014
1.1560364
1.1501935
1.1461838
1.1437433
1.1425809
1.1423331
1.1426582
1.1431911
1.1438055
1.1108154
1.1109017
1.1112043
1.1119677
1.113639
1.1165647
1.1210523
1.1273599
1.135669
1.1460201
1.1581817
1.1718446
1.1867537
1.2027024
1.219542
1.2371571
1.2554675
1.2744201
1.2939811
1.3141337
1.3348751
1.356214
1.3781688
1.4007861
1.4241769
1.4484829
1.4738595
1.5004738
1.5285022
1.5581284
1.5895411
1.6229336
1.6585029
1.6964504
1.7369836
1.7803133
1.8266068
1.875925
1.9282081
1.9832213
2.0405638
2.0995307
2.159312
1.6469626
1.6321315
1.6170641
1.6018024
1.5863855
1.5708501
1.5552302
1.5395527
1.5238136
1.5079891
1.4920544
1.475987
1.4597671
1.4433791
1.4268108
1.4100546
1.3931073
1.3759707
1.3586519
1.3411652
1.3235407
1.3058614
1.2882315
1.2707524
1.2535226
1.2366379
1.2202161
1.2044431
1.1892876
1.1748973
1.1614371
1.1491189
1.1381903
1.128945
1.1216209
1.1161919
1.1124818
1.1102447
1.109209
1.1090392
1.1094125
1.1099921
1.1106696
1.0781829
1.0783458
1.0787179
1.0795126
1.0811594
1.0839861
1.0882824
1.0942922
1.1021883
1.1120103
1.1235412
1.13649
1.1506148
1.1657174
1.1816524
1.1983031
1.2155842
1.2334329
1.2518026
1.2706598
1.2899818
1.3097547
1.3299721
1.3506529
1.3718745
1.3937415
1.4163709
1.4398901
1.4644361
1.4901534
1.5171932
1.5457123
1.5758723
1.6078397
1.6417866
1.6778887
1.7162933
1.7570797
1.8002666
1.8457833
1.8934378
1.942859
1.9935038
1.5856554
1.5711379
1.5564232
1.5415532
1.5265665
1.5114992
1.4963846
1.4812486
1.4660879
1.4508805
1.4356037
1.4202366
1.4047613
1.3891631
1.3734307
1.3575564
1.3415365
1.3253716
1.3090663
1.2926317
1.2760931
1.2595244
1.2430191
1.2266692
1.2105638
1.1947951
1.1794892
1.1647934
1.1506743
1.137273
1.1247449
1.1132865
1.1031274
1.0945403
1.0877459
1.0827199
1.0792986
1.0772534
1.0763327
1.0762279
1.0766358
1.0772473
1.0779723
1.0460749
1.0462992
1.0467253
1.0475363
1.049143
1.0518551
1.0559441
1.06164
1.0691064
1.0783826
1.0892666
1.1014868
1.1148158
1.1290661
1.1440975
1.1597955
1.176073
1.1928621
1.2101077
1.2277654
1.2457987
1.2641775
1.2828774
1.3018963
1.3212853
1.3411196
1.3614846
1.3824752
1.4041947
1.4267544
1.4502717
1.4748707
1.5006806
1.5278361
1.5564764
1.5867436
1.6187583
1.652591
1.6882785
1.7258193
1.7651337
1.8060451
1.8482505
1.523101
1.5090834
1.494902
1.4805975
1.4662075
1.4517665
1.4373062
1.4228513
1.408399
1.3939289
1.3794201
1.3648533
1.3502119
1.3354822
1.3206536
1.3057183
1.2906724
1.2755149
1.2602489
1.2448826
1.2294373
1.2139786
1.1985912
1.1833587
1.1683632
1.153704
1.1395351
1.1258804
1.1127765
1.1003478
1.088737
1.0781245
1.0687219
1.0607808
1.0545048
1.0498712
1.046728
1.0448644
1.0440477
1.0439961
1.0444261
1.0450561
1.0458142
1.0145963
1.0148678
1.0153333
1.0161463
1.0176987
1.0202818
1.0241491
1.0295164
1.0365381
1.045253
1.055475
1.0669519
1.0794722
1.0928601
1.1069829
1.1217304
1.1370165
1.1527713
1.1689355
1.1854579
1.2022932
1.2194004
1.2367426
1.2543027
1.2721115
1.2902211
1.3086923
1.3275934
1.3470004
1.3669962
1.3876699
1.4091167
1.4314375
1.4547382
1.4791294
1.5047239
1.531616
1.5598599
1.5894886
1.6205138
1.6529093
1.6865956
1.7214187
1.4601011
1.4467311
1.433224
1.4196189
1.4059515
1.3922546
1.3785578
1.3648843
1.3512317
1.3375813
1.3239137
1.3102116
1.2964594
1.2826446
1.2687571
1.2547896
1.2407376
1.2265996
1.2123772
1.1980765
1.1837151
1.1693518
1.155064
1.1409293
1.1270291
1.1134777
1.100423
1.0877965
1.0756913
1.0642198
1.0535116
1.0437311
1.0350718
1.0277643
1.0219953
1.0177433
1.0148684
1.0131764
1.0124536
1.0124446
1.0128852
1.0135213
1.0142992
0.98385525
0.98416077
0.98465228
0.98545441
0.98693931
0.98938072
0.9930137
0.99803982
1.0046042
1.0127452
1.022292
1.0330127
1.044712
1.0572268
1.0704331
1.0842267
1.0985245
1.1132574
1.1283648
1.1437923
1.1594895
1.175409
1.1915057
1.2077522
1.2241647
1.2407773
1.2576317
1.2747757
1.2922631
1.3101541
1.3285141
1.3474141
1.3669306
1.3871449
1.4081423
1.4300107
1.4528213
1.4766116
1.5014045
1.5272122
1.554022
1.5817969
1.6104653
1.6399602
1.669976
1.700198
1.7302132
1.75962
1.7879887
1.8149194
1.8400442
1.8630329
1.8835956
1.901485
1.3974106
1.3847893
1.3720519
1.3592351
1.3463723
1.3334941
1.3206281
1.3077959
1.2949956
1.2822101
1.2694222
1.2566159
1.2437774
1.2308953
1.2179604
1.2049657
1.1919068
1.1787817
1.1655911
1.1523392
1.1390409
1.1257498
1.1125377
1.0994812
1.0866761
1.0742589
1.0622481
1.0506405
1.0395211
1.028993
1.0191732
1.0102107
1.0022813
0.99559459
0.9903209
0.9864397
0.98382273
0.98229256
0.98165409
0.98167748
0.98211825
0.98274901
0.98353447
0.95396285
0.95429047
0.95479605
0.95557569
0.95698181
0.95927078
0.96265935
0.96733467
0.97343242
0.98099011
0.98985248
0.99980735
1.010676
1.0223086
1.0345907
1.0474251
1.0607333
1.074449
1.0885126
1.1028688
1.1174656
1.1322521
1.1471792
1.1622128
1.1773584
1.1926374
1.2080767
1.2237083
1.2395692
1.2557015
1.2721514
1.2889706
1.3062152
1.3239457
1.3422263
1.3611233
1.3806892
1.4009473
1.4219093
1.4435786
1.4659461
1.4889873
1.512659
1.5368912
1.5615403
1.5864041
1.6112116
1.6356082
1.6593387
1.6820689
1.7034989
1.7233434
1.7413383
1.7572567
1.7709615
1.3356718
1.323854
1.3119357
1.2999511
1.2879314
1.275905
1.2638978
1.2519298
1.2399998
1.2280929
1.2161937
1.2042881
1.1923639
1.1804111
1.1684213
1.1563883
1.1443078
1.1321773
1.1199967
1.1077692
1.0955083
1.0832643
1.0711081
1.0591253
1.0474371
1.036127
1.0251367
1.0145299
1.0043813
0.994782
0.98583588
0.97767672
0.97046259
0.96438296
0.95959163
0.95606935
0.95369936
0.95232062
0.95175652
0.95180231
0.95223319
0.95284827
0.95363008
0.92503304
0.92537262
0.92588261
0.92662986
0.92794803
0.93007663
0.93321402
0.93753292
0.94315934
0.95012965
0.95830353
0.9674884
0.97752193
0.98826764
0.99962104
1.0114928
1.0238101
1.0365105
1.049537
1.0628359
1.0763555
1.0900443
1.1038517
1.1177402
1.1317081
1.1457673
1.1599342
1.1742293
1.1886766
1.2033044
1.2181444
1.2332327
1.2486091
1.2643173
1.2804042
1.2969185
1.3138965
1.33135
1.349281
1.3676856
1.3865516
1.4058572
1.4255668
1.4456268
1.4659467
1.4863919
1.5068089
1.5269162
1.5465346
1.5654289
1.5833736
1.6001448
1.615523
1.6293042
1.6413245
1.6514686
1.2753634
1.2643591
1.2532671
1.2421194
1.2309449
1.21977
1.2086189
1.1975106
1.1864447
1.1754083
1.164388
1.1533717
1.1423488
1.1313102
1.1202489
1.1091587
1.0980356
1.0868767
1.0756816
1.0644535
1.053207
1.041994
1.0308924
1.0200093
1.0094478
0.99917638
0.98920361
0.97958867
0.97039844
0.9617132
0.95362487
0.94625248
0.93973707
0.93424827
0.92992399
0.92674637
0.92461013
0.92337055
0.92286956
0.92292751
0.92333921
0.92393006
0.92469865
0.89718422
0.89752773
0.89803589
0.89874293
0.8999674
0.90193211
0.90481694
0.90878019
0.91393802
0.92032507
0.92781517
0.93623464
0.94543713
0.95529941
0.96572705
0.97663892
0.98796861
0.99965846
1.0116553
1.0239083
1.0363676
1.0489833
1.0617053
1.0744953
1.0873467
1.1002652
1.1132597
1.1263423
1.1395279
1.1528345
1.1662829
1.1798973
1.1937051
1.2077366
1.2220252
1.2366051
1.2514998
1.2667118
1.2822357
1.2980608
1.3141714
1.3305446
1.3471493
1.3639405
1.3808523
1.3977945
1.4146492
1.4312488
1.4474071
1.4629969
1.4778567
1.4918219
1.5047247
1.5163997
1.5266982
1.5354957
1.5426973
1.2167295
1.2065201
1.1962358
1.1859063
1.1755584
1.1652168
1.1549045
1.1446394
1.1344217
1.1242405
1.1140843
1.1039424
1.0938055
1.0836656
1.0735158
1.0633504
1.0531653
1.0429577
1.0327283
1.0224834
1.012244
1.0020713
0.99206053
0.98231739
0.97282855
0.96357656
0.95460589
0.94596744
0.93771842
0.92992845
0.92267792
0.91607161
0.910234
0.90531533
0.901438
0.89858604
0.89666578
0.89554895
0.89509705
0.89515834
0.89554484
0.89610734
0.89685618
0.8709709
0.87131169
0.87181457
0.87247906
0.8736125
0.87542086
0.878066
0.88169217
0.88640547
0.89223805
0.89907594
0.9067627
0.91516701
0.92417835
0.9337122
0.9436957
0.95406901
0.96477982
0.97577938
0.98702065
0.99845694
1.0100409
1.0217246
1.0334703
1.0452693
1.0571231
1.0690359
1.0810141
1.0930665
1.1052038
1.1174393
1.1297887
1.14227
1.1549041
1.1677137
1.1807225
1.1939443
1.2073741
1.2210002
1.2348077
1.2487775
1.2628853
1.2771005
1.2913833
1.3056768
1.3199213
1.3340201
1.3478538
1.3612727
1.3742066
1.3865302
1.3981292
1.4088832
1.4186684
1.4273673
1.4348721
1.4410863
1.1601491
1.1507075
1.1412063
1.1316727
1.1221316
1.1126063
1.1031178
1.093683
1.0843027
1.074967
1.0656656
1.0563888
1.0471278
1.0378752
1.0286242
1.0193695
1.0101075
1.0008378
0.99156592
0.98230771
0.97309939
0.96401831
0.9551556
0.94650458
0.93803676
0.92978825
0.92179947
0.91411377
0.90678018
0.89985917
0.89342084
0.88755701
0.882377
0.87801308
0.87457314
0.87204263
0.87033836
0.86934723
0.86894925
0.86902071
0.86938875
0.86992638
0.8706534
0.84716306
0.8474961
0.84798825
0.84860768
0.84965035
0.85130565
0.85371925
0.85702275
0.86131337
0.86662139
0.87284433
0.87984153
0.88749522
0.89570637
0.90439938
0.91350899
0.92298153
0.93276986
0.94282976
0.95311818
0.96359201
0.97420716
0.98491859
0.9956904
1.0065128
1.0173851
1.0283085
1.0392862
1.0503226
1.0614241
1.0725987
1.0838563
1.0952089
1.1066702
1.1182556
1.1299813
1.141854
1.1538635
1.1659938
1.1782275
1.1905426
1.2029139
1.2153114
1.2276996
1.2400309
1.2522465
1.2642713
1.2760207
1.28739
1.2982976
1.3086632
1.3184213
1.3274863
1.3357695
1.3431846
1.349649
1.3550846
1.106924
1.0982267
1.0894852
1.0807254
1.0719702
1.0632424
1.0545607
1.0459401
1.0373805
1.0288732
1.020408
1.0119757
1.003568
0.99517749
0.98679836
0.97842701
0.97006376
0.96171515
0.95339803
0.94514664
0.93701416
0.92905208
0.92125548
0.91359261
0.9060954
0.89879815
0.89173596
0.88494629
0.87847181
0.87236535
0.86668828
0.86152116
0.85695999
0.85312123
0.85009972
0.84788179
0.84639331
0.84553418
0.84519946
0.84528724
0.84564175
0.84615436
0.84685731
0.82594736
0.82626768
0.82674165
0.82731075
0.82825781
0.82975618
0.83193707
0.83492085
0.83879738
0.84359649
0.84922798
0.85556664
0.86250732
0.86996132
0.87786087
0.88614737
0.89477255
0.90369389
0.91287131
0.92226561
0.93183727
0.94154559
0.95134877
0.96121307
0.97112845
0.98109287
0.99110596
1.0011685
1.0112827
1.021452
1.0316808
1.0419754
1.0523434
1.062794
1.0733375
1.0839846
1.0947374
1.1055828
1.1165026
1.1274767
1.138483
1.1494964
1.1604884
1.1714262
1.182271
1.1929696
1.2034649
1.2136817
1.2235374
1.2329557
1.2418906
1.2502798
1.2580613
1.2651693
1.2715386
1.2771053
1.2818072
1.0580359
1.0500471
1.0420351
1.0340225
1.0260297
1.0180745
1.0101734
1.0023391
0.99457085
0.98685943
0.97919529
0.97156956
0.96397471
0.95640506
0.94885784
0.94133517
0.93384682
0.92641256
0.91906287
0.91184847
0.90476392
0.89779473
0.89091567
0.8841563
0.87754684
0.87111724
0.86489811
0.8589222
0.85322686
0.84785835
0.84287035
0.83833343
0.83433166
0.83096714
0.82832294
0.82638642
0.82509189
0.82435103
0.82407154
0.82416778
0.82450258
0.82498291
0.82565616
0.80714213
0.8074437
0.80789305
0.80840769
0.80925735
0.81059968
0.81255227
0.81522487
0.81870059
0.82300927
0.82807302
0.83378186
0.84004293
0.84677744
0.85392496
0.86143297
0.86925806
0.87736185
0.88570803
0.8942609
0.90298433
0.91184095
0.92079217
0.92980658
0.93887426
0.9479924
0.95715962
0.96637543
0.97564041
0.98495611
0.99432498
1.0037507
1.0132381
1.0227932
1.032423
1.0421343
1.0519265
1.0617845
1.0716891
1.0816187
1.0915512
1.1014615
1.1113232
1.1211036
1.130765
1.1402638
1.1495541
1.1585659
1.1672263
1.1754852
1.1832996
1.1906061
1.1973533
1.2034867
1.2089524
1.2136972
1.2176688
1.0132923
1.0060279
0.99875199
0.99148468
0.98424445
0.97704578
0.96990325
0.96282801
0.95581932
0.94886857
0.94196744
0.93510896
0.92828863
0.92150575
0.91476498
0.90807893
0.9014719
0.89497466
0.88861059
0.88235227
0.87616411
0.87003011
0.86397711
0.8580326
0.85222292
0.84657426
0.84111348
0.83586929
0.83087433
0.82616901
0.8218001
0.81782903
0.81432893
0.81138863
0.80908029
0.80739222
0.80626653
0.80562571
0.80538896
0.8054845
0.80579263
0.80623399
0.80687116
0.79057959
0.7908567
0.79127593
0.79173256
0.79248418
0.79367324
0.79540441
0.79777723
0.8008683
0.80470748
0.80922863
0.8143364
0.81994992
0.82600001
0.83243335
0.83920325
0.84627085
0.85360162
0.86116269
0.86892162
0.87684543
0.88489986
0.8930494
0.90126496
0.90953689
0.91786194
0.92623808
0.93466403
0.94313937
0.95166447
0.96024041
0.96886923
0.97755393
0.98629838
0.99510718
1.0039848
1.0129284
1.0219221
1.0309461
1.0399788
1.048997
1.0579757
1.0668874
1.0757017
1.0843819
1.0928868
1.1011711
1.1091783
1.1168486
1.1241377
1.131004
1.1374033
1.1432903
1.1486182
1.1533413
1.157415
1.1607956
0.97258757
0.96606125
0.95952376
0.95299418
0.94648939
0.94002427
0.93361223
0.92726381
0.92097914
0.91475229
0.90857822
0.90245483
0.89638423
0.89037494
0.88444295
0.87860591
0.87290192
0.86730851
0.86180074
0.85633119
0.850894
0.84550638
0.84019289
0.8349776
0.82988369
0.82493422
0.82015278
0.81556447
0.81119774
0.80708766
0.80327464
0.79981169
0.79676174
0.79420125
0.79219211
0.79072328
0.78974393
0.78918646
0.78898066
0.78906706
0.78934222
0.78973911
0.79033469
0.77610336
0.77635145
0.77673631
0.77713244
0.77778632
0.77882589
0.78034359
0.78242922
0.78515309
0.78854489
0.79254946
0.79708528
0.8020829
0.80748242
0.81323742
0.81930685
0.82565629
0.83225486
0.83907297
0.84608122
0.85324956
0.86054667
0.86793994
0.87540251
0.88292506
0.89050406
0.89813702
0.90582216
0.91355842
0.92134538
0.9291832
0.93707286
0.9450161
0.95301535
0.96107358
0.96919352
0.97737107
0.98559021
0.99383108
1.0020723
1.0102907
1.0184616
1.0265576
1.0345496
1.0424023
1.0500767
1.0575303
1.0647122
1.0715705
1.0780665
1.0841638
1.0898258
1.0950145
1.0996906
1.1038157
1.1073525
1.1102646
0.93598888
0.93014963
0.92430188
0.91846278
0.91264772
0.90687067
0.90114462
0.89548048
0.88988083
0.88434418
0.87887137
0.87346793
0.86814545
0.86291635
0.85780975
0.8528119
0.84790105
0.84304967
0.83822474
0.833427
0.82865935
0.82393789
0.81928456
0.81472078
0.81026709
0.8059438
0.80177159
0.79777233
0.79397062
0.79039661
0.78708481
0.78408035
0.7814366
0.77921838
0.77747782
0.77620422
0.77535303
0.77486563
0.77468165
0.77475265
0.77499038
0.7753391
0.77588922
0.76356924
0.76378526
0.76413296
0.7644673
0.76502471
0.76591928
0.76723199
0.76904339
0.77141772
0.77438439
0.77789842
0.78189123
0.78630411
0.791086
0.79619713
0.80160189
0.80727016
0.81317462
0.81928882
0.82558627
0.83203972
0.83862059
0.84529906
0.85205032
0.85886544
0.86574067
0.87267322
0.87966093
0.88670228
0.89379633
0.90094264
0.90814144
0.91539362
0.92270064
0.93006436
0.93748636
0.94496187
0.95247515
0.9600069
0.96753627
0.97504093
0.98249668
0.98987719
0.99715437
1.0042948
1.0112615
1.0180149
1.0245083
1.0306946
1.0365395
1.0420108
1.0470767
1.0517048
1.0558614
1.059514
1.0626311
1.0651824
0.90334577
0.89813243
0.89291513
0.88770979
0.88253113
0.87739303
0.87230918
0.86729249
0.86234985
0.85748594
0.85270798
0.84802368
0.84345648
0.83899197
0.83461316
0.83030292
0.82601873
0.82176446
0.81753719
0.81333657
0.80916554
0.80503875
0.80097585
0.79699589
0.793117
0.78935704
0.78573403
0.78226686
0.77897656
0.77588869
0.7730322
0.77044481
0.76817087
0.76626414
0.76476745
0.76367009
0.76293311
0.76250605
0.76233765
0.76238948
0.76258748
0.76288627
0.7633889
0.75284675
0.75302916
0.75333831
0.75361077
0.75407383
0.75482846
0.75594485
0.75749483
0.75953687
0.76210001
0.76514875
0.7686266
0.77248493
0.776681
0.78118137
0.78595563
0.79097782
0.79622404
0.80167091
0.80729472
0.81307091
0.81897354
0.82497537
0.83105359
0.83719965
0.84340963
0.84968049
0.85600979
0.86239568
0.86883684
0.87533236
0.881882
0.88848602
0.8951452
0.90186065
0.90863317
0.91545772
0.92231917
0.92919908
0.93607756
0.94293325
0.94974307
0.95648192
0.96312309
0.96963503
0.97598319
0.98213049
0.98803379
0.99365007
0.99894814
1.0038989
1.0084744
1.0126458
1.0163838
1.0196603
1.0224483
1.0247219
0.87437424
0.8697364
0.86510181
0.86048608
0.85590446
0.85137214
0.84690476
0.84251898
0.83822347
0.83402586
0.82993892
0.82594693
0.82203564
0.81819154
0.81438112
0.81060319
0.80685399
0.80313264
0.79943826
0.79577117
0.79213457
0.7885418
0.78501039
0.78155722
0.77819826
0.77494912
0.77182534
0.76884302
0.76601984
0.763377
0.76093819
0.75873409
0.75680045
0.75518055
0.75390823
0.75297253
0.75233943
0.75196595
0.75180934
0.75184033
0.75199815
0.75224695
0.7527017
0.74382063
0.7439691
0.74423948
0.74445091
0.74482241
0.74544247
0.74637113
0.74767202
0.74939812
0.75157813
0.75418544
0.75717489
0.7605073
0.76414779
0.76806884
0.77224502
0.77665431
0.78127615
0.78609006
0.79107504
0.79620908
0.80146877
0.80682936
0.81226993
0.81778229
0.82336239
0.829007
0.83471345
0.84047963
0.8463039
0.85218504
0.8581224
0.86411581
0.87016556
0.87627221
0.88243602
0.8886519
0.89490555
0.9011796
0.90745526
0.9137124
0.91992921
0.92608204
0.93214575
0.93809075
0.94388479
0.94949336
0.95487656
0.95999481
0.96481944
0.96932397
0.97348298
0.97727076
0.98066112
0.98362926
0.98615147
0.98820516
0.8487984
0.84470016
0.84061634
0.83656301
0.83255722
0.82861453
0.8247494
0.82098383
0.81731728
0.81373791
0.81023468
0.80679605
0.80339291
0.80002624
0.79669265
0.79339026
0.79011736
0.78687318
0.78365759
0.78047139
0.77731792
0.77420922
0.77116089
0.76818782
0.76530398
0.76252285
0.75985768
0.75732191
0.75493002
0.75269908
0.75064773
0.74879992
0.74718317
0.74583069
0.74476765
0.74398261
0.74344597
0.74312162
0.74297482
0.74298481
0.74310335
0.74330334
0.74371105
0.7363915
0.7365066
0.73673884
0.73689076
0.73717388
0.73766477
0.73841393
0.73947723
0.74090253
0.7427182
0.74490606
0.74743168
0.75026478
0.75337785
0.75674899
0.76035746
0.76418499
0.76821415
0.77242728
0.77680596
0.78133064
0.78598029
0.79073254
0.79556827
0.80047967
0.80546256
0.81051357
0.81562983
0.82080899
0.82604919
0.83134893
0.83670723
0.84212361
0.84759795
0.8531304
0.85872086
0.86436431
0.87004737
0.87575382
0.8814661
0.88716537
0.89283121
0.8984415
0.90397271
0.90939727
0.91468517
0.91980438
0.92471799
0.9293895
0.93379244
0.93790244
0.94169623
0.94515043
0.94824133
0.95094663
0.95324511
0.95511666
0.95654368
0.95751163
0.82638104
0.82280069
0.81924844
0.81573868
0.81229119
0.80891748
0.80561884
0.80239556
0.79924397
0.79615162
0.79309839
0.79008668
0.78711232
0.78417332
0.78126772
0.77839414
0.77555177
0.77274038
0.76996033
0.76721285
0.76450135
0.76183669
0.75923269
0.75670237
0.75425786
0.75191063
0.74967173
0.74755208
0.7455631
0.74371786
0.74203018
0.74051749
0.73919939
0.73809936
0.73723415
0.73659163
0.73614624
0.73586824
0.7357305
0.73572031
0.73580127
0.73595438
0.7363167
0.73047598
0.73055884
0.73075409
0.73084838
0.7310464
0.73141328
0.73199054
0.7328267
0.73396481
0.73543301
0.73722123
0.73930522
0.74166316
0.74427455
0.74712275
0.75019149
0.75346602
0.7569319
0.76057413
0.76437672
0.76832246
0.77239261
0.77656705
0.78082838
0.78516913
0.78958504
0.7940726
0.79862877
0.80325101
0.80793724
0.81268573
0.81749525
0.822365
0.82729458
0.8322838
0.83733226
0.84243513
0.84757996
0.8527517
0.85793407
0.86310953
0.8682591
0.87336217
0.87839686
0.88333756
0.88815644
0.89282382
0.89730561
0.90156809
0.90558678
0.90933912
0.91280365
0.91595888
0.91878315
0.9212561
0.92335848
0.92507209
0.92638111
0.92727241
0.80690696
0.8038234
0.80077692
0.79777335
0.79481773
0.79191507
0.78906822
0.78626867
0.78351584
0.78080944
0.77814521
0.77552102
0.77293461
0.77038436
0.76786905
0.7653879
0.7629406
0.7605274
0.75814913
0.75580737
0.75350561
0.75125364
0.74906359
0.7469468
0.7449136
0.7429736
0.74113574
0.73940852
0.73780039
0.73632059
0.73497823
0.73378445
0.73275111
0.73189224
0.73121637
0.73071051
0.73035281
0.73011953
0.72999083
0.72996181
0.73000727
0.73011578
0.73043474
0.72600625
0.72605826
0.72621788
0.72625653
0.72637259
0.72662015
0.72703224
0.72765043
0.72851325
0.72964873
0.73105466
0.73271659
0.73462081
0.73675348
0.73910301
0.74165731
0.74440498
0.74733439
0.75043305
0.75368729
0.7570821
0.7606009
0.76422568
0.76794069
0.77173877
0.77561561
0.77956754
0.78359137
0.78768441
0.79184435
0.79606927
0.80035772
0.80470863
0.80912132
0.81359536
0.81813007
0.82272085
0.82735619
0.83202222
0.83670387
0.84138492
0.84604779
0.8506734
0.85524144
0.85972822
0.86410798
0.86835329
0.87243269
0.87631505
0.87997767
0.88339961
0.88656099
0.88944194
0.89202249
0.89428393
0.89620861
0.89777986
0.89898322
0.89980671
0.79011271
0.78745667
0.78482675
0.7822291
0.7796624
0.7771298
0.77464025
0.77219748
0.76980164
0.76745074
0.76514236
0.76287465
0.76064602
0.75845539
0.75630202
0.75418561
0.75210636
0.75006494
0.7480626
0.74610128
0.74418453
0.74232116
0.74052174
0.73879601
0.73715264
0.73559945
0.73414336
0.73279054
0.73154654
0.73041689
0.72940608
0.72851911
0.72776027
0.72713433
0.72664168
0.72626841
0.72599609
0.72580673
0.72568763
0.72564119
0.72565322
0.72571939
0.72599712
0.7229292
0.72295176
0.72307717
0.72306205
0.72309891
0.72323121
0.72348386
0.72389181
0.72448936
0.72530459
0.72634299
0.72759964
0.72906866
0.73074262
0.73261476
0.73467698
0.73692106
0.73933804
0.74191775
0.74464873
0.74751803
0.7505111
0.75361195
0.75680634
0.76008739
0.76345073
0.76689258
0.77040958
0.77399886
0.77765794
0.78138472
0.7851775
0.789035
0.7929563
0.7969407
0.80098734
0.80509183
0.80924358
0.81342982
0.81763672
0.82184931
0.82605137
0.83022528
0.83435227
0.83841047
0.84237612
0.8462239
0.84992481
0.85345014
0.85677884
0.85989142
0.86276943
0.86539442
0.86774791
0.86981259
0.87157214
0.87301122
0.87411648
0.87487688
0.77554666
0.773234
0.77093835
0.76866897
0.7664317
0.76423159
0.76207392
0.7599626
0.75789812
0.7558788
0.7539029
0.75196901
0.75007607
0.74822345
0.7464109
0.74463859
0.74290715
0.74121768
0.73957184
0.73797192
0.73642156
0.73492864
0.73350229
0.73215075
0.73088113
0.72969951
0.72861088
0.72761912
0.726727
0.72593636
0.72524718
0.7246584
0.72416685
0.72376812
0.72345456
0.7232112
0.72302287
0.72287711
0.72276833
0.72270587
0.72268638
0.72271225
0.72295075
0.72120548
0.72119989
0.72129235
0.72122506
0.72118502
0.72120534
0.72130314
0.72150705
0.7218474
0.72235249
0.72303544
0.72390069
0.72494999
0.72618216
0.72759509