/*--------------------------------*- C++ -*----------------------------------*\
| =========                 |                                                 |
| \\      /  F ield         | OpenFOAM: The Open Source CFD Toolbox           |
|  \\    /   O peration     | Version:  2.4.0                                 |
|   \\  /    A nd           | Web:      www.OpenFOAM.org                      |
|    \\/     M anipulation  |                                                 |
\*---------------------------------------------------------------------------*/
FoamFile
{
    version     2.0;
    format      ascii;
    class       volScalarField;
    location    "260";
    object      k;
}
// * * * * * * * * * * * * * * * * * * * * * * * * * * * * * * * * * * * * * //

dimensions      [0 2 -2 0 0 0 0];

internalField   nonuniform List<scalar> 
78300
(
3.4236911e-06
1.5082146e-06
2.0757821e-06
9.4781256e-07
9.8411294e-07
3.1853035e-07
1.5766159e-07
1.1767763e-08
1.0384795e-08
5.3606525e-08
1.5705916e-07
2.4233509e-07
1.6569882e-07
1.2712164e-07
8.8871384e-08
1.7956611e-07
1.8251429e-08
6.6344315e-08
2.390327e-09
6.0997206e-09
3.3054298e-09
2.3677202e-09
2.7084557e-09
2.313841e-09
2.5934963e-09
1.9915808e-09
2.7206573e-09
2.0812952e-09
2.6143629e-09
2.2198553e-09
2.1795765e-09
2.0741557e-09
1.5080942e-09
9.7946461e-10
1.9633526e-09
6.3294659e-09
1.589774e-08
2.1984777e-08
4.0201803e-08
1.4343852e-07
8.6452247e-08
4.4730518e-08
4.3381795e-08
2.2365954e-08
2.925737e-08
3.7587463e-08
4.0345328e-08
3.7426226e-08
4.087976e-08
3.6619233e-08
3.5916157e-08
3.3809445e-08
3.1411856e-08
2.826166e-08
2.5466217e-08
2.1549492e-08
1.8496056e-08
1.5327477e-08
1.392839e-08
1.1475422e-08
1.1822774e-08
1.1160194e-08
1.860708e-08
3.8090411e-08
5.5872962e-08
7.8091748e-08
9.989892e-08
1.242243e-07
1.473972e-07
1.7159282e-07
1.9514293e-07
2.1875606e-07
2.4052704e-07
2.6137243e-07
2.8115029e-07
2.9990267e-07
3.1659881e-07
3.3107787e-07
3.4441984e-07
3.571323e-07
3.6824033e-07
3.7659213e-07
3.8249427e-07
3.9127599e-07
3.9471099e-07
3.9598552e-07
3.9659564e-07
3.9680028e-07
3.9586731e-07
3.9555085e-07
3.9692636e-07
4.0124207e-07
4.0867736e-07
4.1564029e-07
4.1994052e-07
4.1720352e-07
4.1654252e-07
4.0625023e-07
3.896785e-07
3.7084591e-07
3.5058653e-07
3.4041995e-07
3.277009e-07
3.1924217e-07
3.1479538e-07
3.1407002e-07
3.1449765e-07
3.1241278e-07
3.0939292e-07
3.0868591e-07
3.0956044e-07
3.2418901e-07
3.2392528e-07
2.940638e-07
2.8258547e-07
2.7703123e-07
2.6562062e-07
2.545161e-07
2.4667662e-07
2.4511148e-07
2.4543637e-07
2.4393457e-07
2.3919639e-07
2.3358334e-07
2.3119273e-07
2.3389867e-07
2.4098222e-07
2.4924512e-07
2.5861168e-07
2.688849e-07
2.8208003e-07
2.9442516e-07
3.0533279e-07
3.1954295e-07
3.4420185e-07
3.7158925e-07
3.899744e-07
3.9372667e-07
3.8917328e-07
3.7617649e-07
3.5102329e-07
3.1831994e-07
2.8185562e-07
2.4737689e-07
2.1346221e-07
1.8763592e-07
1.6938199e-07
1.5808464e-07
1.5144028e-07
1.4984418e-07
1.5377575e-07
1.5756522e-07
1.5872473e-07
1.6005276e-07
1.679917e-07
1.790951e-07
1.846228e-07
1.8409644e-07
1.8576977e-07
1.9368696e-07
1.9828654e-07
1.9202814e-07
1.8178342e-07
1.744538e-07
1.6167349e-07
1.4164878e-07
1.2628996e-07
1.2152329e-07
1.2108879e-07
1.2290648e-07
1.2666198e-07
1.3251221e-07
1.4352312e-07
1.5463161e-07
1.5915705e-07
1.5858275e-07
1.6571821e-07
1.6894944e-07
1.7393281e-07
1.7491132e-07
1.7001449e-07
1.5056788e-07
1.2644147e-07
1.0493095e-07
8.3996833e-08
8.4483149e-08
8.1877543e-08
6.677891e-08
5.4676709e-08
4.5675588e-08
3.9093064e-08
3.5772388e-08
3.33108e-08
3.1783636e-08
3.0742929e-08
3.0316386e-08
2.9229154e-08
2.6932335e-08
2.4730707e-08
2.212226e-08
1.2432775e-08
6.236018e-09
1.3641169e-08
1.3986879e-08
1.5948289e-08
1.3619196e-08
7.8163142e-09
4.4058095e-09
4.6787254e-09
1.130209e-08
1.6637189e-08
1.7028203e-08
3.083891e-08
3.1662543e-08
3.6434935e-08
2.8886833e-08
2.0313041e-08
2.5480587e-08
2.2202856e-08
2.3820253e-08
3.4092952e-08
9.3814458e-08
3.1989631e-07
4.7804743e-07
1.87353e-06
2.4283947e-06
1.4123008e-06
1.2736589e-06
2.7538691e-07
1.2044001e-07
4.4356952e-06
7.4953151e-06
1.3805651e-05
3.302286e-05
5.0113758e-05
7.3297592e-05
0.00010166973
0.00012683857
1.3263436e-05
4.0314047e-05
4.6161209e-05
9.8672691e-05
6.0966241e-05
7.9886217e-05
3.0221839e-05
4.1040865e-05
4.7079676e-05
1.0274194e-05
6.8728899e-05
0.00017616909
0.00033139021
0.00028335096
0.00010556846
3.3187411e-05
5.0311429e-05
0.0001483182
0.00016534839
0.00034282852
0.00035583173
0.00013706132
2.0622074e-05
2.3824664e-05
6.1412977e-05
5.6654895e-05
4.3267192e-05
3.0084848e-05
2.139864e-05
1.1170966e-05
7.1908607e-06
2.7179076e-06
6.5729149e-07
3.3477392e-07
4.1043376e-07
2.0750793e-07
1.3671801e-07
4.2823709e-08
2.1242847e-08
1.6843649e-09
1.4423157e-09
7.5453854e-09
2.2011559e-08
4.3856594e-08
2.4700214e-08
2.4331894e-08
1.7459489e-08
2.7158644e-08
2.6173465e-09
9.8632927e-09
3.6462567e-10
1.5100582e-09
1.2931842e-09
3.1757895e-10
3.5714412e-10
9.6282854e-10
1.0296955e-09
2.6599474e-10
3.5508849e-10
2.7622743e-10
1.3276466e-09
1.1720985e-09
2.9167965e-10
1.0374865e-09
2.1006325e-10
1.3458021e-10
2.6662827e-10
9.4267748e-10
6.0909895e-09
4.908603e-09
5.8096095e-09
2.1397158e-08
1.1435821e-08
6.8504855e-09
6.8970161e-09
1.1631252e-08
1.5762683e-08
1.8842652e-08
1.9998572e-08
1.0888863e-08
5.2501738e-09
4.6075796e-09
1.5914304e-08
4.3236034e-09
1.5468135e-08
3.6320401e-09
1.2582054e-08
2.8413171e-09
2.4024759e-09
1.9737443e-09
1.0560945e-08
9.0895546e-09
6.3458333e-09
1.4613559e-09
2.4032651e-09
4.8791481e-09
7.1449384e-09
9.9693155e-09
1.2755892e-08
1.586242e-08
1.881049e-08
2.18869e-08
2.4886648e-08
2.7895189e-08
3.0670091e-08
3.3328505e-08
3.585877e-08
3.8264309e-08
4.0419559e-08
4.2298069e-08
4.401847e-08
4.5637963e-08
4.6989715e-08
4.7955492e-08
5.4535086e-08
1.2659464e-07
1.4166366e-07
1.4594054e-07
1.5013634e-07
1.5562892e-07
1.5994166e-07
1.6607727e-07
1.7340604e-07
1.7995187e-07
1.8683906e-07
1.8819588e-07
1.7219554e-07
9.7647266e-08
5.4340248e-08
5.2273405e-08
5.0055097e-08
4.7493807e-08
4.8363622e-08
1.582156e-07
1.7201716e-07
1.7758878e-07
1.851654e-07
1.9820406e-07
2.1591399e-07
2.3561951e-07
2.5703714e-07
2.6916408e-07
1.7250677e-07
4.3949161e-08
4.6315847e-08
1.1084427e-07
1.0852636e-07
1.0897567e-07
1.076445e-07
1.0657084e-07
1.0575113e-07
1.0605749e-07
1.06802e-07
1.0707919e-07
1.0696391e-07
1.0639308e-07
1.0644441e-07
1.071127e-07
1.0859979e-07
1.1029353e-07
1.1212671e-07
1.1418592e-07
1.1654769e-07
1.1913781e-07
1.2110623e-07
1.2390362e-07
1.281664e-07
1.3378093e-07
1.3771297e-07
1.3980374e-07
1.4029684e-07
1.399529e-07
1.3732787e-07
1.335498e-07
1.2887106e-07
1.2439294e-07
1.1966449e-07
1.1579609e-07
1.1323645e-07
1.1153045e-07
1.106392e-07
1.1044204e-07
1.1114898e-07
1.1222336e-07
1.1247946e-07
1.1289551e-07
1.1392186e-07
1.1643315e-07
1.1754795e-07
1.1777167e-07
1.1797667e-07
1.1980313e-07
1.2099061e-07
1.2023751e-07
1.186657e-07
1.176247e-07
1.1626998e-07
1.130696e-07
1.0925975e-07
1.0751346e-07
1.0551647e-07
1.0409105e-07
1.0127287e-07
9.7070067e-08
8.9217789e-08
7.6606813e-08
5.7998017e-08
7.8798688e-08
1.9087684e-07
1.4534961e-07
2.3486285e-08
2.3817787e-08
2.3505802e-08
2.0915855e-08
2.9722539e-07
3.4348109e-07
9.9173753e-08
9.6514722e-08
9.6294234e-08
9.2655152e-08
8.8629322e-08
8.5290418e-08
8.1754144e-08
7.9733464e-08
7.6472336e-08
7.4829755e-08
7.1881513e-08
7.0757512e-08
6.7759215e-08
6.5461617e-08
6.1934843e-08
5.9303485e-08
5.5031283e-08
5.1978255e-08
4.8711171e-08
4.4532804e-08
3.1114593e-08
5.1859934e-09
1.9271213e-09
1.8904247e-09
3.7163878e-08
3.413737e-08
3.4509332e-08
3.145187e-08
2.8312555e-08
2.3072714e-08
8.4293207e-08
6.6673593e-08
2.8767245e-09
3.6352224e-09
3.1613685e-09
3.263055e-09
4.573005e-09
1.4341989e-08
2.0782821e-07
1.3910048e-07
3.944934e-07
4.0785007e-07
2.0424964e-07
1.7452699e-07
8.1769322e-08
1.0932877e-07
8.4336612e-07
1.4063301e-06
2.4044754e-06
5.3848459e-06
8.3100195e-06
1.3052102e-05
2.0644052e-05
3.1466154e-05
6.1482661e-06
6.2893457e-06
5.9885976e-06
1.4312042e-05
9.1331522e-06
1.2006378e-05
4.5626273e-06
5.9095893e-06
6.8731614e-06
1.2666281e-06
9.1211964e-06
2.5008799e-05
4.9436774e-05
4.2113908e-05
1.4338638e-05
4.7441935e-06
7.6221712e-06
2.2283398e-05
2.5284331e-05
5.1959004e-05
5.3596439e-05
2.0072692e-05
2.7796987e-06
3.302556e-06
9.0093203e-06
8.3786857e-06
6.375211e-06
4.4083085e-06
3.1365518e-06
1.6075994e-06
1.0985349e-06
4.6007397e-07
8.0825718e-07
6.495503e-07
5.7559913e-07
3.6178574e-07
3.2731262e-08
9.5221253e-09
4.7657417e-09
4.4276193e-10
4.1383994e-10
1.9918148e-09
5.4167795e-09
4.9370572e-08
7.216674e-09
3.7659317e-08
2.9733514e-08
8.1171881e-09
6.499737e-10
2.7265541e-09
1.0624581e-10
3.7857694e-09
4.8928622e-09
9.8332947e-11
8.0541045e-11
3.7599201e-09
4.0024409e-09
9.1753529e-11
9.5721397e-11
5.8451187e-11
5.8839511e-09
5.4422454e-09
9.07805e-11
4.7437087e-09
1.2351786e-10
8.2400181e-11
7.6951524e-11
3.5219105e-10
2.3369653e-08
1.129709e-08
1.8213118e-09
6.261021e-09
2.4887526e-09
2.3994534e-09
2.8374307e-09
4.9273843e-08
6.7903193e-08
7.8470662e-08
8.2776662e-08
3.3242141e-08
1.5656063e-09
1.037881e-09
6.2305083e-08
1.2125245e-09
6.4396219e-08
1.0931846e-09
5.2617428e-08
1.1410489e-09
8.3315037e-10
6.0387869e-10
5.2550649e-08
4.5418796e-08
2.7773404e-08
5.5032524e-10
7.3917592e-10
1.3489664e-09
1.931379e-09
2.6267961e-09
3.3309585e-09
4.1059248e-09
4.8451285e-09
5.6196624e-09
6.3873836e-09
7.163444e-09
7.8764192e-09
8.5638604e-09
9.2509619e-09
9.9314909e-09
1.0594819e-08
1.1194185e-08
1.1655433e-08
1.2044199e-08
1.2226279e-08
1.207988e-08
1.6079714e-08
4.060195e-07
4.8007283e-07
5.0573038e-07
5.3148365e-07
5.6584694e-07
5.9401814e-07
6.3303454e-07
6.7774183e-07
7.1453851e-07
7.5010112e-07
7.5107323e-07
6.4582329e-07
2.1381976e-07
1.6520371e-08
1.5421196e-08
1.4734966e-08
1.3479815e-08
1.4358998e-08
6.5275589e-07
7.4318222e-07
7.8831269e-07
8.4163469e-07
9.2528207e-07
1.0375095e-06
1.1652912e-06
1.3046065e-06
1.3822164e-06
7.7312529e-07
2.5895427e-08
4.2307545e-08
5.0661818e-07
5.0181441e-07
5.108345e-07
5.1288627e-07
5.1650435e-07
5.1860639e-07
5.2246319e-07
5.2756401e-07
5.311409e-07
5.3518563e-07
5.3680655e-07
5.3964674e-07
5.4173971e-07
5.453001e-07
5.4914874e-07
5.528787e-07
5.5732273e-07
5.6096933e-07
5.6715393e-07
5.7028084e-07
5.7605451e-07
5.8176265e-07
5.945301e-07
6.0429262e-07
6.1569889e-07
6.2400368e-07
6.3490288e-07
6.4167981e-07
6.4781834e-07
6.5125924e-07
6.5411629e-07
6.5456302e-07
6.529519e-07
6.5308702e-07
6.5228252e-07
6.5262773e-07
6.5283945e-07
6.5395438e-07
6.5789205e-07
6.5856699e-07
6.6023358e-07
6.5954512e-07
6.664371e-07
6.6887891e-07
6.7105348e-07
6.7081854e-07
6.7599934e-07
6.7993007e-07
6.8088472e-07
6.7995344e-07
6.7987993e-07
6.8314759e-07
6.8042789e-07
6.6845982e-07
6.6063277e-07
6.4648293e-07
6.341899e-07
6.0972635e-07
5.7298796e-07
5.0425635e-07
4.0063717e-07
2.5994234e-07
3.6802641e-07
1.0511137e-06
7.4830967e-07
1.2857555e-08
1.426637e-08
1.5982941e-08
1.5338351e-08
1.7615861e-06
2.2796396e-06
6.3805222e-07
6.1856731e-07
6.1962966e-07
6.0858007e-07
5.9161884e-07
5.7648031e-07
5.5743198e-07
5.4609538e-07
5.2480999e-07
5.1437055e-07
4.9389391e-07
4.8610266e-07
4.6530685e-07
4.5088371e-07
4.2738462e-07
4.1082671e-07
3.8956957e-07
3.7363006e-07
3.4214552e-07
3.1124629e-07
2.1111436e-07
2.556094e-08
6.4004059e-09
9.486207e-09
2.6710064e-07
2.3802095e-07
2.3523571e-07
2.1242721e-07
1.7507186e-07
1.3118612e-07
4.9762669e-07
3.9447941e-07
2.927027e-09
3.295767e-09
2.9185259e-09
2.2538489e-09
2.2709461e-09
1.1603952e-08
1.0853723e-06
4.4684867e-07
7.4260514e-07
2.9145284e-07
4.6329411e-08
5.5620961e-08
2.692936e-07
5.9942615e-07
1.022318e-06
1.5039839e-06
1.4877442e-06
3.1275834e-06
6.2495588e-06
1.4962747e-05
3.8601441e-05
8.5954498e-05
3.2092291e-05
3.1302751e-06
1.2331798e-07
9.8772587e-06
5.9993085e-06
4.4782507e-06
1.5271528e-06
1.780031e-06
1.2986385e-06
4.0095537e-07
2.6515883e-06
6.445541e-06
1.3995793e-05
1.2281968e-05
3.9243755e-06
1.6092034e-06
2.7862268e-06
7.6829493e-06
9.3271411e-06
1.6719834e-05
1.8213273e-05
6.4242261e-06
1.3067006e-06
1.7123278e-06
3.2169602e-06
2.7884168e-06
1.9850195e-06
1.2934514e-06
8.9308433e-07
4.3199952e-07
3.627255e-07
3.6196951e-07
1.9051188e-06
1.7201155e-06
1.4271224e-06
9.0801092e-07
1.0531632e-08
2.9026567e-09
1.5128652e-09
2.3951724e-10
3.3252908e-10
1.0043078e-09
1.9184514e-09
1.231988e-07
3.9110424e-09
1.0703212e-07
8.7449279e-08
3.9271425e-09
1.8445181e-10
1.0349032e-09
6.2055185e-11
1.0983477e-08
1.4287212e-08
9.437291e-11
2.6971893e-11
1.0793189e-08
1.1887435e-08
1.0310618e-10
7.9852296e-11
1.8040998e-11
1.7530615e-08
1.6802092e-08
1.007871e-10
1.4767684e-08
2.2383677e-10
1.7851759e-10
1.1553678e-10
5.604211e-10
6.7336865e-08
3.4035875e-08
1.5424859e-09
3.3167694e-09
7.6519893e-10
2.3642053e-09
3.8271361e-09
1.360387e-07
1.8725328e-07
2.1603182e-07
2.2801455e-07
9.6523757e-08
1.6906901e-09
7.5177475e-10
1.7227881e-07
1.2846683e-09
1.8001624e-07
1.3239561e-09
1.4778693e-07
1.8615765e-09
1.2734043e-09
8.2246429e-10
1.5319249e-07
1.3063225e-07
7.9077569e-08
8.9132573e-10
9.1861374e-10
1.3687167e-09
1.859735e-09
2.3766178e-09
2.9350037e-09
3.5264923e-09
4.1195057e-09
4.7541489e-09
5.4127305e-09
6.0955253e-09
6.7157008e-09
7.3274948e-09
8.0213317e-09
8.7741745e-09
9.6273185e-09
1.0430936e-08
1.0858349e-08
1.1122704e-08
1.0898518e-08
9.7623544e-09
1.4560978e-08
1.143166e-06
1.3177007e-06
1.3920567e-06
1.4665873e-06
1.5662969e-06
1.6484927e-06
1.7621746e-06
1.8919467e-06
1.9985199e-06
2.1003524e-06
2.1006802e-06
1.7938865e-06
5.9037769e-07
1.9910299e-08
1.8227951e-08
1.7423886e-08
1.4869561e-08
1.53991e-08
1.8805246e-06
2.1079196e-06
2.2502577e-06
2.4145493e-06
2.6658597e-06
3.0063299e-06
3.4201852e-06
3.869945e-06
4.1054249e-06
2.2896772e-06
6.1404185e-08
1.2134215e-07
1.8576095e-06
1.8417888e-06
1.8764165e-06
1.8857804e-06
1.9009816e-06
1.9100303e-06
1.9247457e-06
1.9438041e-06
1.9574468e-06
1.9732905e-06
1.9801946e-06
1.9911871e-06
1.9986649e-06
2.0110041e-06
2.0242231e-06
2.0368438e-06
2.0519972e-06
2.063783e-06
2.0851453e-06
2.0952912e-06
2.114858e-06
2.1327295e-06
2.1766007e-06
2.2105382e-06
2.2527366e-06
2.2845629e-06
2.3273122e-06
2.3564026e-06
2.3841698e-06
2.4023949e-06
2.4181292e-06
2.4247521e-06
2.4225099e-06
2.42569e-06
2.4243377e-06
2.4266025e-06
2.4276596e-06
2.4313135e-06
2.4454919e-06
2.4478561e-06
2.4538904e-06
2.4502151e-06
2.4744266e-06
2.4827758e-06
2.4909884e-06
2.4898616e-06
2.5081881e-06
2.5222362e-06
2.5267181e-06
2.5246812e-06
2.5254546e-06
2.5395665e-06
2.532275e-06
2.4896952e-06
2.4610531e-06
2.4080169e-06
2.3616525e-06
2.2693771e-06
2.1307509e-06
1.8714094e-06
1.4812092e-06
9.5279252e-07
1.2476591e-06
3.2220626e-06
2.2468578e-06
2.7993572e-08
3.3001224e-08
3.9569773e-08
4.0876916e-08
5.3569078e-06
7.608885e-06
2.3781469e-06
2.3086942e-06
2.3130203e-06
2.2736964e-06
2.2118553e-06
2.1563807e-06
2.0860094e-06
2.0439536e-06
1.9645324e-06
1.9255195e-06
1.8489069e-06
1.8196298e-06
1.7417898e-06
1.688012e-06
1.6002984e-06
1.5385615e-06
1.4602634e-06
1.4012854e-06
1.2822366e-06
1.1661781e-06
7.9055796e-07
9.9568472e-08
2.1222232e-08
3.341327e-08
1.0024926e-06
8.9189107e-07
8.8064496e-07
7.9485742e-07
6.5212952e-07
4.6652985e-07
1.5050703e-06
1.195792e-06
9.0112438e-09
8.5389752e-09
7.7557517e-09
5.8347078e-09
5.1742755e-09
2.8029689e-08
3.4947501e-06
1.3580182e-06
2.0962662e-06
5.823251e-07
1.3786419e-08
5.8156605e-08
8.3373114e-07
1.994446e-06
2.5300687e-06
3.4445058e-06
2.3445305e-06
5.4642396e-06
1.378953e-05
3.9386267e-05
0.00011606758
0.00027029467
0.00012014019
5.6948409e-06
1.3710715e-07
2.920042e-05
1.3192912e-05
5.0844644e-06
1.3259054e-06
1.4002417e-06
3.3207372e-07
6.8651107e-07
2.2281917e-06
2.4832675e-06
6.0860382e-06
6.812149e-06
2.4354692e-06
1.645931e-06
3.442783e-06
8.1695845e-06
1.0335161e-05
1.2423014e-05
1.7466074e-05
6.4746771e-06
3.1164253e-06
3.9329154e-06
4.1882453e-06
2.9331369e-06
1.7329513e-06
9.2550372e-07
5.3951552e-07
2.3487917e-07
2.6542785e-07
7.789386e-07
3.7185146e-06
3.4221576e-06
2.8339971e-06
1.7544299e-06
6.3040667e-09
1.6864446e-09
9.7583486e-10
3.2504797e-10
5.3665356e-10
1.177342e-09
1.3870756e-09
2.6178939e-07
4.7118137e-09
2.4013631e-07
2.0031547e-07
3.4819655e-09
2.3310684e-11
5.4965269e-10
1.0613247e-10
2.3376233e-08
2.9857543e-08
1.5654102e-10
3.5154249e-11
2.1981741e-08
2.5237825e-08
1.6860869e-10
1.3725415e-10
4.8704331e-11
3.6831114e-08
3.6617647e-08
1.9613334e-10
3.2557103e-08
4.0902552e-10
3.7463183e-10
3.2359965e-10
1.5828736e-09
1.366192e-07
7.6630657e-08
2.5091183e-09
3.7902766e-09
5.1041768e-10
4.9369834e-09
8.8567282e-09
2.6487524e-07
3.6393809e-07
4.203929e-07
4.4447004e-07
2.0266127e-07
3.0387863e-09
1.5811382e-09
3.3940544e-07
2.5300979e-09
3.572009e-07
2.7056863e-09
2.9470731e-07
3.8655452e-09
2.7798955e-09
1.8536317e-09
3.1397384e-07
2.6374506e-07
1.5958298e-07
1.9329107e-09
1.8875961e-09
2.6669977e-09
3.5749732e-09
4.4983771e-09
5.53604e-09
6.6283033e-09
7.7530867e-09
8.9745457e-09
1.0270224e-08
1.1631627e-08
1.2873437e-08
1.4116918e-08
1.5582379e-08
1.7213021e-08
1.9121401e-08
2.0929159e-08
2.1819107e-08
2.2311008e-08
2.1613135e-08
1.8716043e-08
3.0523116e-08
2.3332322e-06
2.6116263e-06
2.7612803e-06
2.910976e-06
3.1116146e-06
3.277592e-06
3.5071249e-06
3.768711e-06
3.983918e-06
4.188217e-06
4.1861587e-06
3.56826e-06
1.2283986e-06
4.3731851e-08
3.9291391e-08
3.745709e-08
3.1399775e-08
3.3862256e-08
3.8604556e-06
4.2375744e-06
4.5453508e-06
4.8947882e-06
5.4173959e-06
6.1292605e-06
7.024955e-06
7.996196e-06
8.4909158e-06
4.7777059e-06
1.502204e-07
3.1300178e-07
4.9519971e-06
4.9094298e-06
5.0020211e-06
5.0275138e-06
5.0685972e-06
5.0931676e-06
5.132602e-06
5.1833787e-06
5.219901e-06
5.2623329e-06
5.2810208e-06
5.3104374e-06
5.3303779e-06
5.3631096e-06
5.3980302e-06
5.4313433e-06
5.4713246e-06
5.5023945e-06
5.5587964e-06
5.5854991e-06
5.6371076e-06
5.6840716e-06
5.7999962e-06
5.8898823e-06
6.0022471e-06
6.0874631e-06
6.2020144e-06
6.2807168e-06
6.3560731e-06
6.4062122e-06
6.4495737e-06
6.4686418e-06
6.4638491e-06
6.4731261e-06
6.4700404e-06
6.4763677e-06
6.479369e-06
6.4891467e-06
6.5266988e-06
6.5329835e-06
6.5489571e-06
6.5390923e-06
6.6032017e-06
6.6252626e-06
6.6471386e-06
6.6440809e-06
6.6928727e-06
6.7300787e-06
6.7422764e-06
6.7371469e-06
6.7395009e-06
6.7776505e-06
6.7589159e-06
6.6461001e-06
6.569877e-06
6.4282006e-06
6.3043568e-06
6.057905e-06
5.6875748e-06
4.9948274e-06
3.9527079e-06
2.5411522e-06
3.0751585e-06
6.8825063e-06
4.7115274e-06
6.4112275e-08
7.6876692e-08
9.3864029e-08
1.0249464e-07
1.1283133e-05
1.7389452e-05
6.3346415e-06
6.1646009e-06
6.1760223e-06
6.0713128e-06
5.9068128e-06
5.7590547e-06
5.5718972e-06
5.4596079e-06
5.2478943e-06
5.1434724e-06
4.9391328e-06
4.860477e-06
4.6526896e-06
4.509129e-06
4.2754732e-06
4.1107139e-06
3.9022006e-06
3.744573e-06
3.4268529e-06
3.116532e-06
2.1150926e-06
2.8284253e-07
5.1698634e-08
8.4558902e-08
2.6807208e-06
2.3837125e-06
2.35343e-06
2.1238795e-06
1.7405089e-06
1.188298e-06
3.148686e-06
2.5074191e-06
2.2271851e-08
1.9054093e-08
1.7539759e-08
1.3575078e-08
1.2233493e-08
6.3381264e-08
7.8580534e-06
2.9572622e-06
4.4882745e-06
1.1922332e-06
4.6001671e-09
1.1784672e-07
1.8710694e-06
4.6913758e-06
5.3236506e-06
6.8673924e-06
4.2360613e-06
1.1294149e-05
3.076576e-05
8.8288452e-05
0.00026909184
0.00063064189
0.00032134924
1.3404638e-05
3.2667389e-07
9.0635786e-05
3.0874918e-05
9.344314e-06
2.1542376e-06
2.4001615e-06
1.2163775e-08
1.6886689e-06
3.507858e-06
1.6719141e-06
5.5086554e-06
8.883206e-06
3.4647082e-06
3.1354472e-06
7.8774544e-06
1.755692e-05
2.1139976e-05
2.049101e-05
3.5145765e-05
1.5089669e-05
9.3772826e-06
1.0970295e-05
9.9059358e-06
6.3442679e-06
3.4805979e-06
1.6682425e-06
8.3585601e-07
3.4624894e-07
4.0374986e-07
1.6356761e-06
6.0708769e-06
5.5999526e-06
4.6694305e-06
2.8156617e-06
8.2074521e-09
2.1594761e-09
1.2880793e-09
5.6832514e-10
9.1658516e-10
1.9708055e-09
2.1411167e-09
4.6202742e-07
8.4172364e-09
4.3887456e-07
3.7345569e-07
5.0668019e-09
2.1615146e-11
4.8369272e-10
2.4782016e-10
4.0506788e-08
5.0835614e-08
2.5783151e-10
8.6138902e-11
3.6464675e-08
4.3595929e-08
2.6297184e-10
2.3867861e-10
1.4913733e-10
6.2799073e-08
6.4608978e-08
3.6241334e-10
5.81413e-08
6.5944044e-10
6.6661125e-10
7.324388e-10
4.0699671e-09
2.2525358e-07
1.4008545e-07
4.3359004e-09
6.4631103e-09
7.2571093e-10
1.1118127e-08
2.0152994e-08
4.2379342e-07
5.8173548e-07
6.7323347e-07
7.1337254e-07
3.4691214e-07
5.32174e-09
3.3816917e-09
5.5168781e-07
4.8483784e-09
5.8432961e-07
5.2335601e-09
4.8435411e-07
7.2337583e-09
5.4485567e-09
3.811975e-09
5.2760081e-07
4.3746058e-07
2.6514517e-07
3.7553284e-09
3.6362414e-09
5.1103362e-09
6.8723589e-09
8.6887555e-09
1.0773092e-08
1.2989276e-08
1.5294812e-08
1.7821613e-08
2.0526229e-08
2.3388066e-08
2.6024609e-08
2.8685487e-08
3.1830077e-08
3.5339798e-08
3.9451905e-08
4.3348401e-08
4.5296914e-08
4.6373989e-08
4.4911711e-08
3.8986459e-08
7.0445228e-08
3.9175422e-06
4.2789928e-06
4.5260073e-06
4.7728226e-06
5.1041434e-06
5.3789521e-06
5.7589593e-06
6.1917021e-06
6.5483925e-06
6.8855595e-06
6.8802268e-06
5.8611543e-06
2.109203e-06
9.3134021e-08
8.2520164e-08
7.8489035e-08
6.5819273e-08
7.6000266e-08
6.508393e-06
7.0107214e-06
7.5482469e-06
8.151592e-06
9.0379104e-06
1.024895e-05
1.1801221e-05
1.3482281e-05
1.433358e-05
8.1656049e-06
3.2162276e-07
7.0200922e-07
1.08303e-05
1.0730596e-05
1.0932663e-05
1.0988665e-05
1.1078746e-05
1.1132831e-05
1.1219227e-05
1.1329887e-05
1.1409812e-05
1.1502427e-05
1.1543439e-05
1.1607667e-05
1.1651424e-05
1.172301e-05
1.1799054e-05
1.1871678e-05
1.1958681e-05
1.2026723e-05
1.2149359e-05
1.2207704e-05
1.2320044e-05
1.2422916e-05
1.2675395e-05
1.2871526e-05
1.3116487e-05
1.33029e-05
1.3553003e-05
1.3725406e-05
1.3890268e-05
1.4000428e-05
1.4095612e-05
1.4137902e-05
1.4128322e-05
1.4149046e-05
1.4142705e-05
1.4156698e-05
1.4163613e-05
1.4185406e-05
1.4266976e-05
1.4280778e-05
1.4315432e-05
1.4294508e-05
1.4434121e-05
1.4482223e-05
1.4529836e-05
1.4523226e-05
1.4630137e-05
1.4710991e-05
1.4737721e-05
1.4726445e-05
1.4731754e-05
1.4815104e-05
1.4774277e-05
1.4528801e-05
1.4362527e-05
1.4052824e-05
1.3782293e-05
1.3243999e-05
1.2434954e-05
1.0921706e-05
8.6452454e-06
5.5592103e-06
6.2396289e-06
1.1964402e-05
8.0684533e-06
1.277667e-07
1.5465177e-07
1.9102232e-07
2.2090164e-07
1.9344212e-05
3.1912018e-05
1.3805736e-05
1.3477938e-05
1.3502127e-05
1.3272649e-05
1.2913964e-05
1.259129e-05
1.2183883e-05
1.1938162e-05
1.1476424e-05
1.1247403e-05
1.0801537e-05
1.0628207e-05
1.0174301e-05
9.860493e-06
9.3513565e-06
8.9913578e-06
8.536442e-06
8.1909795e-06
7.4979674e-06
6.8188801e-06
4.6371115e-06
6.6072239e-07
1.0505346e-07
1.7822724e-07
5.8664731e-06
5.215457e-06
5.1491734e-06
4.6465932e-06
3.8046867e-06
2.4820353e-06
5.3604805e-06
4.2801386e-06
4.5050082e-08
3.6022217e-08
3.3426437e-08
2.6275855e-08
2.4368311e-08
1.2320142e-07
1.4225742e-05
5.2045055e-06
7.8580926e-06
2.1063292e-06
8.4983695e-09
2.3860634e-07
3.4037627e-06
8.930048e-06
9.3553642e-06
1.1501778e-05
6.9195371e-06
2.0724133e-05
5.8594556e-05
0.00016334425
0.00050882761
0.0011959892
0.00069539457
2.7825607e-05
2.302842e-06
0.000240554
6.5243885e-05
1.7237789e-05
3.7495855e-06
4.8172868e-06
2.5735072e-08
3.5641568e-06
5.9578291e-06
1.9623895e-06
9.9562946e-06
1.6980711e-05
6.1968594e-06
6.1102951e-06
1.7604573e-05
3.9194621e-05
4.4414661e-05
4.1866294e-05
7.7133482e-05
3.7265662e-05
2.5217189e-05
2.7497188e-05
2.3161703e-05
1.4358931e-05
7.8290633e-06
3.7270387e-06
1.7885712e-06
7.4698383e-07
7.5979988e-07
2.9249797e-06
8.8281612e-06
8.130272e-06
6.8249823e-06
4.0345467e-06
1.422314e-08
3.7255286e-09
2.089992e-09
9.4364123e-10
1.4635433e-09
3.3591869e-09
4.0104226e-09
7.1638674e-07
1.5638384e-08
6.9846719e-07
6.0746244e-07
8.6867921e-09
2.7302479e-11
6.3150592e-10
5.2727523e-10
6.155292e-08
7.6139243e-08
3.9322413e-10
1.8220426e-10
5.34499e-08
6.6141503e-08
3.8358327e-10
3.7928758e-10
3.3087949e-10
9.4128078e-08
9.9757075e-08
6.0509739e-10
9.0817316e-08
9.8109537e-10
1.0643871e-09
1.3853004e-09
9.2020832e-09
3.2849003e-07
2.2345994e-07
7.0209298e-09
1.1477171e-08
1.232047e-09
2.3174964e-08
4.1739665e-08
6.057542e-07
8.3148309e-07
9.6414341e-07
1.0241985e-06
5.2422105e-07
8.7481691e-09
6.4556547e-09
8.0243468e-07
8.6114103e-09
8.5485002e-07
9.3543781e-09
7.1164283e-07
1.2442675e-08
9.7037719e-09
7.1244271e-09
7.8866537e-07
6.4729762e-07
3.9342618e-07
6.6579168e-09
6.4346677e-09
9.0690205e-09
1.2273045e-08
1.5634261e-08
1.9553011e-08
2.3759134e-08
2.8157821e-08
3.3006878e-08
3.8227989e-08
4.3776493e-08
4.8930389e-08
5.415484e-08
6.0321782e-08
6.7206595e-08
7.5266296e-08
8.2915025e-08
8.6838425e-08
8.901672e-08
8.6323822e-08
7.5862954e-08
1.5494232e-07
5.8536277e-06
6.2742147e-06
6.6377022e-06
7.000916e-06
7.4891986e-06
7.8949421e-06
8.4558975e-06
9.0946862e-06
9.6220628e-06
1.011945e-05
1.0112961e-05
8.6160324e-06
3.2272667e-06
1.8202164e-07
1.5869615e-07
1.5066571e-07
1.2711492e-07
1.6026253e-07
9.7590931e-06
1.0353326e-05
1.1178731e-05
1.2098312e-05
1.3431037e-05
1.5255643e-05
1.7619006e-05
2.0177799e-05
2.148516e-05
1.2421181e-05
6.2463458e-07
1.4381505e-06
2.0797956e-05
2.0584173e-05
2.0970654e-05
2.1078429e-05
2.1251508e-05
2.1355881e-05
2.1521945e-05
2.1733393e-05
2.1886852e-05
2.2064018e-05
2.2142926e-05
2.226587e-05
2.2350263e-05
2.2487797e-05
2.2633207e-05
2.2772312e-05
2.2938548e-05
2.3069673e-05
2.3303697e-05
2.34159e-05
2.3630632e-05
2.382904e-05
2.4311758e-05
2.4687591e-05
2.5155839e-05
2.5513519e-05
2.5991939e-05
2.6322704e-05
2.6638205e-05
2.684976e-05
2.7032249e-05
2.711389e-05
2.7096955e-05
2.7137252e-05
2.7125789e-05
2.7152878e-05
2.716696e-05
2.7209793e-05
2.736519e-05
2.7391925e-05
2.7457865e-05
2.7419418e-05
2.7686218e-05
2.777839e-05
2.7869238e-05
2.785688e-05
2.8062578e-05
2.8216622e-05
2.8267919e-05
2.8245958e-05
2.8256394e-05
2.8415653e-05
2.8337126e-05
2.7868686e-05
2.7550534e-05
2.6956737e-05
2.6438463e-05
2.5407353e-05
2.3857279e-05
2.0958324e-05
1.6596911e-05
1.0676463e-05
1.1154898e-05
1.837883e-05
1.2266443e-05
2.3165116e-07
2.8245143e-07
3.5273339e-07
4.3445989e-07
2.9350741e-05
5.1163755e-05
2.6386857e-05
2.5856539e-05
2.5900881e-05
2.545898e-05
2.4773181e-05
2.415489e-05
2.3377485e-05
2.2905476e-05
2.2022525e-05
2.158152e-05
2.0728433e-05
2.0392707e-05
1.9523022e-05
1.8921133e-05
1.7948419e-05
1.7258263e-05
1.6387619e-05
1.5722832e-05
1.4397527e-05
1.3093448e-05
8.9295526e-06
1.3584613e-06
1.9260316e-07
3.395463e-07
1.126136e-05
1.0013933e-05
9.8868416e-06
8.9215643e-06
7.2992535e-06
4.561441e-06
8.0789062e-06
6.4719234e-06
8.0893499e-08
6.1597612e-08
5.7376137e-08
4.5361018e-08
4.3242208e-08
2.1644405e-07
2.2477286e-05
8.018574e-06
1.2076393e-05
3.3084502e-06
1.4014668e-08
4.3825193e-07
5.4011337e-06
1.4815399e-05
1.4511412e-05
1.7119979e-05
1.0215727e-05
3.3751505e-05
9.8047997e-05
0.00026659205
0.00084172262
0.0019758443
0.0013019344
5.0437542e-05
5.9025268e-06
0.00051993263
0.00012653262
2.9971715e-05
6.1192306e-06
9.5596551e-06
5.1362382e-08
6.6469596e-06
9.6005158e-06
2.8912105e-06
2.0966318e-05
3.2691147e-05
1.0789953e-05
1.0775028e-05
3.4744413e-05
7.9438358e-05
8.5745031e-05
8.2569185e-05
0.00015754773
8.3947832e-05
5.8445137e-05
5.8990732e-05
4.7700651e-05
2.9278849e-05
1.6062087e-05
7.8167276e-06
3.7406141e-06
1.5803308e-06
1.3946174e-06
4.6222114e-06
1.1929853e-05
1.0955419e-05
9.2456021e-06
5.3876843e-06
2.5047146e-08
6.5010363e-09
3.3914439e-09
1.4594745e-09
2.2050258e-09
5.4974406e-09
7.2656077e-09
1.0176505e-06
2.7934693e-08
1.0121822e-06
8.9870235e-07
1.4982061e-08
4.8119448e-11
9.3238103e-10
1.0031372e-09
8.5867743e-08
1.0497914e-07
5.6615746e-10
3.3095956e-10
7.2548457e-08
9.2219691e-08
5.3645199e-10
5.632717e-10
6.1117866e-10
1.3000178e-07
1.4111927e-07
9.3986979e-10
1.2984427e-07
1.3955179e-09
1.5938345e-09
2.3460241e-09
1.8917657e-08
4.4454194e-07
3.254891e-07
1.0734325e-08
1.94396e-08
2.064651e-09
4.4880773e-08
7.9573729e-08
8.0944472e-07
1.1119775e-06
1.2919684e-06
1.3760258e-06
7.3321767e-07
1.3686789e-08
1.1412606e-08
1.0926344e-06
1.453042e-08
1.1701143e-06
1.5910929e-08
9.7788864e-07
2.0313322e-08
1.6291886e-08
1.2596965e-08
1.0974516e-06
8.9409991e-07
5.4543366e-07
1.1169932e-08
1.0771308e-08
1.5208649e-08
2.0673388e-08
2.6465026e-08
3.3303414e-08
4.0670036e-08
4.8368299e-08
5.6868881e-08
6.6057026e-08
7.5834838e-08
8.495767e-08
9.4219176e-08
1.051506e-07
1.1735875e-07
1.3166985e-07
1.4529133e-07
1.5244303e-07
1.563735e-07
1.5186973e-07
1.3621172e-07
3.2523875e-07
8.1426658e-06
8.606474e-06
9.1054446e-06
9.6046649e-06
1.0276772e-05
1.0835892e-05
1.1608607e-05
1.2489184e-05
1.321716e-05
1.3903553e-05
1.390306e-05
1.1853347e-05
4.6106683e-06
3.2860882e-07
2.7927559e-07
2.6476348e-07
2.2609215e-07
3.2285184e-07
1.3615343e-05
1.4276137e-05
1.5445586e-05
1.6742776e-05
1.8603842e-05
2.1155448e-05
2.4481412e-05
2.8085366e-05
2.9965113e-05
1.7626088e-05
1.1211236e-06
2.7560895e-06
3.6455599e-05
3.602713e-05
3.6700942e-05
3.689024e-05
3.7193586e-05
3.7377414e-05
3.7668642e-05
3.8037008e-05
3.830588e-05
3.861488e-05
3.8753508e-05
3.8968145e-05
3.9116825e-05
3.9357932e-05
3.9611606e-05
3.9854764e-05
4.0144479e-05
4.0375263e-05
4.0782457e-05
4.0979641e-05
4.135399e-05
4.1703522e-05
4.2545041e-05
4.3202119e-05
4.4018005e-05
4.4644087e-05
4.5478144e-05
4.6056861e-05
4.6607023e-05
4.6977461e-05
4.7296287e-05
4.7440076e-05
4.7413289e-05
4.7484826e-05
4.7466271e-05
4.7514268e-05
4.7540679e-05
4.7617664e-05
4.7887619e-05
4.7935126e-05
4.8049602e-05
4.7985782e-05
4.8450669e-05
4.8611921e-05
4.8770013e-05
4.8749237e-05
4.9110267e-05
4.9377703e-05
4.9467539e-05
4.9428543e-05
4.9447352e-05
4.97245e-05
4.9586631e-05
4.8771987e-05
4.821695e-05
4.7178754e-05
4.627333e-05
4.4472238e-05
4.1764065e-05
3.6699709e-05
2.9079174e-05
1.8714594e-05
1.826666e-05
2.6141835e-05
1.7351876e-05
3.953368e-07
4.8535488e-07
6.1395363e-07
8.1243222e-07
4.1298981e-05
7.5243229e-05
4.5999092e-05
4.5258884e-05
4.5332127e-05
4.4555289e-05
4.3360189e-05
4.2279593e-05
4.0927613e-05
4.0100173e-05
3.85609e-05
3.7785771e-05
3.6297517e-05
3.5703369e-05
3.4183712e-05
3.3130431e-05
3.1435967e-05
3.0228829e-05
2.8708996e-05
2.7541302e-05
2.5230271e-05
2.2945208e-05
1.5706372e-05
2.5555391e-06
3.3343974e-07
6.1265604e-07