y,R_0,R_1,R_2,R_3,R_4,R_5
0.44811458,6.6666667e-11,0,0,6.6666667e-11,0,6.6666667e-11
0.44853872,5.5144657e-09,5.934738e-14,1.9663246e-31,5.5139986e-09,-6.1360362e-32,5.5142321e-09
0.44897673,3.0249834e-09,2.4836223e-13,-2.3359135e-30,3.0230178e-09,1.2859873e-30,3.0240006e-09
0.44942898,9.0447119e-09,1.7673047e-12,2.4633687e-29,9.0306579e-09,-2.1051004e-29,9.037685e-09
0.44989591,2.5268361e-08,8.8269111e-12,-2.8201822e-29,2.5197854e-08,2.8105109e-29,2.5233108e-08
0.45037802,5.803602e-08,3.2481803e-11,3.357891e-28,5.777537e-08,-2.1828542e-28,5.7905695e-08
0.45087578,1.1574781e-07,9.6462678e-11,-2.180856e-27,1.1497005e-07,1.7766699e-27,1.1535893e-07
0.45138972,2.0886649e-07,2.4560647e-10,-2.1019305e-27,2.0687648e-07,1.1651619e-27,2.0787149e-07
0.45192035,3.5018123e-07,5.5762653e-10,4.1024537e-27,3.4564023e-07,-4.7350828e-27,3.4791074e-07
0.45246821,5.5516308e-07,1.1591477e-09,5.7663121e-26,5.4567448e-07,-4.2893748e-26,5.504188e-07
0.45303387,8.4239505e-07,2.2471355e-09,-6.6321971e-26,8.2390202e-07,6.0471797e-26,8.3314857e-07
0.4536179,1.2340795e-06,4.1170704e-09,-1.7871243e-25,1.2000119e-06,1.3250468e-25,1.2170457e-06
0.4542209,1.7566344e-06,7.1994837e-09,1.1342279e-25,1.6967259e-06,-1.0820652e-25,1.7266803e-06
0.45484349,2.4413885e-06,1.2106669e-08,4.258999e-25,2.3400664e-06,-3.0850644e-25,2.3907277e-06
0.4554863,3.325385e-06,1.9691641e-08,-9.4314324e-25,3.1596121e-06,7.2942075e-25,3.242499e-06
0.45614998,4.4523112e-06,3.1121634e-08,1.5215709e-24,4.1887351e-06,-1.2350994e-24,4.3205239e-06
0.45683523,5.8735637e-06,4.7968308e-08,-1.8967098e-25,5.4648011e-06,2.185969e-25,5.6691835e-06
0.45754272,7.6494561e-06,7.2316822e-08,1.1548206e-25,7.0293129e-06,-1.9362956e-25,7.3393862e-06
0.4582732,9.8505736e-06,1.0689539e-07,5.2761625e-24,8.9279768e-06,-4.0176158e-24,9.3892777e-06
0.45902739,1.2559259e-05,1.5522527e-07,-8.0768373e-24,1.1210659e-05,6.6814974e-24,1.1884963e-05
0.45980608,1.5871205e-05,2.2179012e-07,-6.1898181e-24,1.3931207e-05,4.2929731e-24,1.4901212e-05
0.46061006,1.9897104e-05,3.1221961e-07,1.7236406e-23,1.71471e-05,-1.3621714e-23,1.852211e-05
0.46144015,2.476424e-05,4.3347717e-07,-1.5710855e-23,2.0918902e-05,1.3200621e-23,2.2841582e-05
0.46229719,3.0617916e-05,5.9403671e-07,-1.5474227e-23,2.5309488e-05,1.1127567e-23,2.7963717e-05
0.46318206,3.7622477e-05,8.0402351e-07,4.8552198e-23,3.038304e-05,-3.8455853e-23,3.400278e-05
0.46409567,4.596166e-05,1.0752826e-06,-2.7485444e-23,3.6203825e-05,2.4286281e-23,4.1082771e-05
0.46503894,5.5837894e-05,1.4213252e-06,-9.3985819e-23,4.2834803e-05,7.1234575e-23,4.9336385e-05
0.46601284,6.7470115e-05,1.8570954e-06,2.0403702e-22,5.0336165e-05,-1.6148792e-22,5.8903187e-05
0.46701837,8.1089628e-05,2.3984946e-06,-1.9778136e-22,5.8763948e-05,1.6065433e-22,6.9926849e-05
0.46805654,9.6933539e-05,3.0615891e-06,8.7849029e-23,6.816892e-05,-7.3671104e-23,8.2551306e-05
0.46912841,0.00011523545,3.8614578e-06,-8.5074798e-23,7.8595963e-05,7.1957117e-23,9.6915798e-05
0.47023509,0.00013621339,4.8106714e-06,-2.0187739e-22,9.0084179e-05,1.574842e-22,0.00011314889
0.4713777,0.00016005531,5.9174407e-06,1.1131384e-22,0.00010266788,-9.6353794e-23,0.00013136172
0.4725574,0.00018690318,7.1835765e-06,3.9060491e-22,0.0001163785,-3.160507e-22,0.00015164098
0.4737754,0.0002168371,8.6024555e-06,6.1593605e-22,0.00013124732,-4.841543e-22,0.00017404235
0.47503293,0.0002498617,1.0157305e-05,-9.745228e-23,0.00014730848,8.1371902e-23,0.00019858523
0.47633129,0.00028589693,1.1820107e-05,7.0976158e-22,0.00016460194,-5.6981534e-22,0.00022524955
0.4776718,0.00032477502,1.3551367e-05,-1.6573998e-22,0.00018317557,1.5328522e-22,0.00025397538
0.47905581,0.00036624501,1.5300936e-05,-1.1107057e-21,0.00020308626,8.9424044e-22,0.00028466567
0.48048475,0.00040998447,1.7009819e-05,-7.5376169e-22,0.00022439931,6.0900308e-22,0.00031719185
0.48196006,0.00045561757,1.8612824e-05,-2.3797202e-21,0.0002471863,1.908881e-21,0.00035140179
0.48348326,0.00050273691,2.0041727e-05,-5.9726378e-22,0.00027152165,4.3578126e-22,0.00038712898
0.48505589,0.00055092636,2.1228488e-05,1.7435621e-21,0.0002974784,-1.380789e-21,0.00042420191
0.48667956,0.00059978255,2.2108283e-05,-4.0101552e-21,0.00032512372,3.2512497e-21,0.00046245249
0.48835591,0.00064893247,2.2621983e-05,3.3443567e-21,0.0003545148,-2.8286025e-21,0.00050172278
0.49008666,0.00069804632,2.2717857e-05,1.322763e-20,0.00038569543,-1.0728341e-20,0.00054186978
0.49187358,0.00074684503,2.2352503e-05,4.8635594e-21,0.00041869357,-3.7918062e-21,0.00058276796
0.49371847,0.00079510304,2.1491195e-05,-1.0515052e-20,0.00045352047,8.6154637e-21,0.00062431019
0.49562322,0.00084264714,2.0107619e-05,-5.7494137e-21,0.00049017085,4.6233176e-21,0.00066640718
0.49758976,0.00088935227,1.8183046e-05,-8.2484044e-21,0.00052862407,6.6673006e-21,0.00070898607
0.4996201,0.00093513561,1.5705314e-05,6.3607274e-21,0.00056884635,-5.3338324e-21,0.00075198861
0.5017163,0.00097994974,1.2667747e-05,2.0963365e-20,0.00061079369,-1.7107639e-20,0.00079536911
0.5038805,0.0010237759,9.0680144e-06,-3.9698006e-21,0.00065441492,3.39708e-21,0.00083909253
0.5061149,0.0010666172,4.9069832e-06,-1.9820279e-20,0.00069965464,1.6251004e-20,0.00088313281
0.50842177,0.0011084929,1.8778344e-07,1.4925988e-21,0.00074645628,-1.4195926e-21,0.00092747131
0.51080345,0.0011494338,-5.0850286e-06,2.6983122e-20,0.00079476476,-2.223458e-20,0.00097209569
0.51326237,0.0011894771,-1.0906329e-05,-1.3755347e-20,0.00084452807,1.1526415e-20,0.0010169989
0.51580103,0.0012286649,-1.7270466e-05,-2.3081988e-20,0.00089569904,1.8971957e-20,0.0010621783
0.518422,0.0012670411,-2.4171477e-05,1.6563141e-20,0.00094823694,-1.3776368e-20,0.0011076351
0.52112796,0.0013046484,-3.1604138e-05,-2.6249186e-20,0.0010021075,2.195198e-20,0.0011533739
0.52392164,0.0013415287,-3.956387e-05,-1.076205e-20,0.0010572831,8.7945395e-21,0.0011994019
0.52680589,0.0013777219,-4.8045697e-05,3.0222979e-20,0.0011137439,-2.5292673e-20,0.0012457289
0.52978363,0.0014132659,-5.7045039e-05,3.31558e-20,0.0011714768,-2.7722536e-20,0.0012923669
0.53285789,0.0014481929,-6.6558997e-05,-1.6455214e-20,0.0012304753,1.3965139e-20,0.0013393298
0.53603179,0.0014825342,-7.6583523e-05,-1.7167124e-20,0.0012907395,1.4325371e-20,0.0013866331
0.53930855,0.0015163198,-8.7113422e-05,-1.8090028e-20,0.0013522754,1.5389904e-20,0.0014342937
0.54269148,0.0015495728,-9.8145906e-05,-6.6350015e-20,0.001415095,5.6135564e-20,0.0014823298
0.54618404,0.0015823141,-0.00010967733,8.7867396e-21,0.0014792151,-7.491335e-21,0.001530761
0.54978974,0.0016145641,-0.00012170193,5.2460752e-20,0.0015446576,-4.4527367e-20,0.0015796077
0.55351226,0.0016463395,-0.00013421415,8.3030724e-21,0.0016114488,-6.9176665e-21,0.0016288913
0.55735535,0.001677654,-0.00014720755,1.808931e-20,0.0016796195,-1.5557417e-20,0.0016786342
0.56132292,0.0017085193,-0.00016067457,5.6646749e-20,0.0017492041,-4.8688211e-20,0.0017288597
0.56541898,0.001738945,-0.0001746063,-2.5167438e-20,0.0018202414,2.1713447e-20,0.0017795918
0.56964768,0.0017689391,-0.00018899162,-3.6994242e-20,0.0018927733,3.1863684e-20,0.0018308555
0.57177824,0.00178337,-0.00019622861,-3.0399107e-20,0.0019289229,2.6312285e-20,0.0018561461
0.57401358,0.0017985187,-0.00020380892,-2.3479559e-20,0.0019668551,2.0487619e-20,0.001882687
0.57852108,0.0018276885,-0.00021904232,-5.0569341e-20,0.0020425361,4.4220798e-20,0.0019351133
0.5831745,0.0018564423,-0.0002346822,1.5603536e-20,0.0021198596,-1.3546584e-20,0.0019881528
0.58797853,0.0018847825,-0.00025070878,1.697643e-20,0.0021988821,-1.4665847e-20,0.0020418347
0.59293802,0.0019127096,-0.00026709997,3.9307231e-20,0.0022796637,-3.4716319e-20,0.00209619
0.59805799,0.0019402251,-0.0002838302,-1.4971118e-20,0.002362269,1.362661e-20,0.0021512514
0.60334361,0.0019673304,-0.00030087127,-3.4579734e-21,0.0024467666,2.9487461e-21,0.0022070536
0.60880021,0.0019940275,-0.00031819278,6.3405184e-21,0.0025332301,-5.3269447e-21,0.0022636347
0.6144333,0.0020203203,-0.00033576198,7.4062813e-21,0.0026217387,-6.9083142e-21,0.0023210363
0.62024856,0.0020462165,-0.00035354489,5.1965801e-20,0.0027123782,-4.6913491e-20,0.0023793047
0.62625185,0.0020717287,-0.00037150812,-5.6315338e-20,0.0028052412,5.1162928e-20,0.0024384927
0.63244922,0.0020968776,-0.00038962073,-1.5918901e-20,0.0029004289,1.4368093e-20,0.0024986613
0.63884691,0.0021216969,-0.00040785762,-4.8925839e-20,0.0029980531,4.5537469e-20,0.002559883
0.64545136,0.0021462381,-0.00042620497,-1.052436e-20,0.0030982371,1.022794e-20,0.0026222452
0.65226923,0.00217058,-0.00044466784,7.5367189e-20,0.0032011186,-6.9880284e-20,0.0026858561
0.65930735,0.0021948405,-0.00046328121,5.6434645e-20,0.003306853,-5.3351002e-20,0.0027508521
0.66657282,0.0022191955,-0.00048212644,-8.4263417e-21,0.0034156169,7.9001297e-21,0.0028174094
0.67407292,0.0022439055,-0.00050135432,-7.3583513e-20,0.0035276136,6.9875108e-20,0.0028857595
0.6818152,0.0022693555,-0.00052121884,2.8344934e-20,0.003643081,-2.6819258e-20,0.002956213
0.68980741,0.0022961111,-0.00054212901,1.6061523e-20,0.0037623043,-1.5419484e-20,0.0030291943
0.69805757,0.0023249894,-0.00056473922,-3.2026941e-20,0.0038856494,3.064066e-20,0.0031052953
0.70657395,0.0023572279,-0.00059004713,3.7095964e-20,0.0040135598,-3.5984395e-20,0.0031853623
0.71536509,0.0023947222,-0.00061953397,6.8453799e-21,0.0041465997,-6.9980835e-21,0.0032706418
0.72443978,0.0024402833,-0.00065533055,-1.2705949e-20,0.0042856565,1.2314798e-20,0.003362998
0.73380709,0.0024978303,-0.00070019001,-2.8650845e-20,0.0044321596,3.0207253e-20,0.0034650843
0.74347641,0.002571721,-0.00075748554,2.3462954e-20,0.0045885104,-2.4318841e-20,0.0035802014
0.75345737,0.002664925,-0.00083192883,4.1723262e-20,0.0047590884,-4.3622946e-20,0.0037118936
0.76375996,0.0027790402,-0.00093096912,-2.0843218e-20,0.0049509244,2.1145973e-20,0.0038645569
0.77439444,0.0029190018,-0.0010670005,-1.2520378e-20,0.0051738565,1.4286546e-20,0.0040461098
0.78537141,0.0030975215,-0.0012642265,1.7171212e-22,0.0054448587,-1.4707389e-21,0.0042718388
0.79670181,0.0033437275,-0.0015524729,-2.2738943e-21,0.0057938191,4.203712e-21,0.0045704401
0.80839692,0.0037406459,-0.0019120604,-8.0526559e-21,0.0062547589,1.281886e-20,0.004998632
0.82046836,0.004376428,-0.0023323617,7.8082546e-21,0.0069169137,-1.4353028e-20,0.0056458337
0.83292813,0.0052579796,-0.00288944,6.6712057e-21,0.0079029886,1.81856e-21,0.0065796351
0.84578859,0.0063338482,-0.003623269,-1.0106685e-20,0.0091872085,1.0889068e-21,0.0077605822
0.85906251,0.0075058262,-0.0044751247,-6.1542067e-21,0.010575304,-5.088759e-21,0.0090404752
0.87276303,0.0086529893,-0.0053402706,3.4751255e-20,0.01185143,6.9895489e-21,0.010252504
0.88690372,0.0096889352,-0.0061168634,-3.6908584e-21,0.012878583,-6.1769693e-22,0.011284728
0.90149857,0.010587488,-0.0066836571,-7.0674198e-20,0.013596486,-4.178245e-21,0.012092475
0.91656199,0.011359443,-0.0069791838,4.3793125e-22,0.014026856,-1.6511278e-21,0.012693025
0.93210885,0.012028849,-0.0070855374,1.0866427e-19,0.014275185,6.3299096e-22,0.013151663
0.94815449,0.012643342,-0.0071184135,3.0009206e-20,0.014464021,1.8906783e-21,0.013553376
0.96471471,0.013276111,-0.0071487779,-1.7247802e-19,0.014698192,1.1178044e-21,0.013987004
0.9818058,0.014004327,-0.0072222061,1.7599398e-20,0.015061703,-1.8719897e-21,0.014532892
0.99944456,0.014875331,-0.0073678899,1.6790414e-19,0.015599309,-1.2516718e-21,0.015237224
1.0176483,0.015887946,-0.0075806287,-1.854867e-19,0.016302126,2.9854026e-21,0.016095007
1.0364349,0.016997591,-0.0078319708,-1.3584303e-19,0.017120515,3.4884978e-22,0.017059063
1.0558227,0.018138249,-0.0080903627,2.4883793e-19,0.017990421,-3.2208414e-21,0.018064371
1.0758308,0.019245149,-0.0083341953,3.9784248e-20,0.018855291,1.8190022e-22,0.019050234
1.0964785,0.020266968,-0.0085564506,8.7441597e-22,0.019675112,3.0333304e-22,0.019970897
1.1177862,0.021167868,-0.0087588828,3.2528283e-20,0.020424718,-2.0064387e-22,0.020795986
1.1397745,0.021927035,-0.0089431222,-8.1073184e-20,0.021089307,8.1434249e-22,0.021507914
1.1624649,0.02253822,-0.0091032131,-1.9312138e-19,0.021660365,1.2078927e-21,0.022099298
1.1858794,0.023008364,-0.0092258854,-3.8391895e-20,0.022133465,4.3213019e-23,0.022571231
1.2100408,0.023354064,-0.009302908,2.9786853e-19,0.022508222,-1.8242683e-21,0.022931563
1.2349723,0.023593876,-0.0093361839,-5.000877e-20,0.02278745,-2.2251026e-22,0.023190914
1.2606983,0.023742168,-0.0093334718,2.0311438e-19,0.022975515,-5.4777439e-22,0.023358918
1.2872435,0.023808798,-0.009303377,1.0923174e-19,0.023077453,-2.4699283e-22,0.023443096
1.3146335,0.023803784,-0.0092529353,4.9718418e-20,0.02310084,8.3574302e-23,0.023452266
1.3209797,0.023787367,-0.0092377037,8.1717466e-20,0.023088814,9.0359057e-23,0.023438061
1.3428965,0.023729033,-0.0091846775,1.8083151e-19,0.023045333,1.4277623e-22,0.023387208
1.3720585,0.023578626,-0.0090968003,-3.9993067e-19,0.022903233,1.0479495e-21,0.02324093
1.4021469,0.023355357,-0.0089888531,-2.9680508e-19,0.022676175,-5.4074826e-22,0.023015748
1.4331904,0.023064255,-0.0088597902,5.1389675e-19,0.022369206,-2.944442e-22,0.022716742
1.4652188,0.022706471,-0.0087067403,-2.7182065e-19,0.021984543,9.9491138e-22,0.022345521
1.4982627,0.022283234,-0.0085269584,-4.3800619e-19,0.021525482,-4.5875621e-22,0.02190437
1.5323536,0.02179645,-0.0083180786,3.1797467e-19,0.020997028,-6.8153513e-22,0.021396749
1.567524,0.021249033,-0.0080782942,7.9434156e-20,0.020405756,6.2470231e-22,0.020827399
1.6038071,0.020645196,-0.0078064402,-2.6640458e-19,0.019759427,-4.0987073e-22,0.020202315
1.6412376,0.019990691,-0.0075018983,-5.7957865e-21,0.019066551,-6.9718416e-22,0.019528606
1.6798508,0.019292959,-0.0071645078,4.1064153e-19,0.018335221,4.7958641e-22,0.01881426
1.7196831,0.0185616,-0.006793527,1.998904e-19,0.017573733,1.0198241e-21,0.018067865
1.7607723,0.017806493,-0.0064005961,5.3686908e-20,0.016802873,6.5534119e-22,0.017304255
1.8018234,0.017040992,-0.0060169099,-1.3414127e-19,0.016061644,2.2205208e-22,0.016550871
1.8415466,0.01628748,-0.00565804,-2.7457429e-19,0.015376892,-9.8568943e-22,0.015832365
1.8799862,0.015566767,-0.0053144499,-1.0478253e-19,0.014746484,-1.1160364e-21,0.015156768
1.9171848,0.014885864,-0.0049815841,2.0797654e-19,0.014161015,8.3485658e-22,0.014523372
1.9531836,0.014244281,-0.0046615771,-5.2459315e-20,0.013616273,1.6768241e-22,0.013930227
1.9880224,0.013641579,-0.004354908,4.6533657e-20,0.013109986,5.1621947e-22,0.013375731
2.0217396,0.013076539,-0.0040618743,-2.9260351e-19,0.012639323,-2.1459136e-22,0.012857881
2.0543721,0.012547115,-0.0037826138,-5.7406085e-19,0.01220101,-3.7805292e-21,0.012374009
2.0859558,0.012051041,-0.0035169842,3.1624838e-19,0.011791822,-1.5886499e-21,0.01192138
2.116525,0.011586071,-0.0032646071,8.9201982e-19,0.011408754,4.402573e-21,0.011497364
2.1377609,0.011273093,-0.0030925677,3.5196094e-19,0.011150573,3.4118096e-21,0.011211782
2.1461135,0.01115,-0.0030249176,1.3720677e-19,0.011049094,3.0221511e-21,0.011099495
2.1747538,0.010740661,-0.002797313,-2.2510633e-19,0.010710417,-1.4671561e-22,0.010725496
2.2024761,0.010356123,-0.0025811894,-2.1679608e-19,0.010390506,-1.1859206e-21,0.010373283
2.2293103,0.0099945665,-0.0023758358,-1.0775771e-19,0.010087467,-8.8198575e-22,0.010040988
2.2552856,0.0096542734,-0.0021805065,-4.8932311e-20,0.0097996576,2.4684671e-22,0.0097269387
2.2804299,0.0093336906,-0.001994518,-2.6310433e-19,0.0095256592,-2.1974564e-21,0.0094296507
2.3047701,0.0090314058,-0.0018172183,3.6194063e-19,0.0092642593,6.5081215e-23,0.0091478101
2.3283326,0.0087461343,-0.0016479,3.0697098e-19,0.0090144213,2.4971457e-21,0.0088802596
2.3511425,0.0084767258,-0.0014859421,-1.0809439e-19,0.0087752726,-2.8643532e-22,0.0086259811
2.3732242,0.0082221293,-0.0013307758,1.9051135e-19,0.0085460919,8.0320449e-22,0.0083840846
2.3946014,0.0079813636,-0.0011819571,-7.3138946e-20,0.0083263025,6.7461009e-22,0.0081538105
2.4152968,0.0077536337,-0.0010389411,-1.2165276e-19,0.0081153896,1.7781482e-22,0.0079344938
2.4353325,0.0075381932,-0.00090114186,-2.6824999e-19,0.0079128768,-1.0447206e-21,0.007725518
2.4547298,0.0073343014,-0.00076822734,-8.8312207e-20,0.007718398,-2.0274186e-21,0.0075263359
2.4735093,0.0071413179,-0.00063987031,2.2152005e-19,0.0075316735,1.0708559e-21,0.0073364853
2.4916909,0.0069586881,-0.00051574321,-1.4209058e-19,0.0073524716,3.2221546e-22,0.0071555684
2.5092939,0.0067858938,-0.0003955402,-1.3874812e-20,0.0071806014,-5.0576101e-22,0.0069832391
2.526337,0.0066225045,-0.00027901613,1.3330155e-20,0.007015912,-7.7012349e-22,0.0068191973
2.542838,0.0064681167,-0.00016597831,1.9184561e-19,0.0068582849,5.9487774e-22,0.006663182
2.5588145,0.0063223298,-5.6244106e-05,9.5304191e-21,0.0067076278,1.5584471e-21,0.0065149678
2.5742833,0.0061848666,5.03637e-05,-1.7612895e-19,0.0065638714,-1.5426324e-21,0.0063743602
2.5892607,0.0060554326,0.00015398909,2.0337185e-19,0.0064269645,-2.9758137e-22,0.006241192
2.6037624,0.0059337717,0.0002547339,3.9546986e-20,0.0062968712,1.8316132e-21,0.0061153197
2.6178038,0.0058196851,0.00035270079,-1.4675892e-19,0.006173567,2.8680752e-23,0.0059966199
2.6313994,0.0057129475,0.00044795601,-4.787236e-20,0.0060570361,-1.5865072e-21,0.0058849868
2.6445637,0.0056133916,0.00054054276,1.3937891e-19,0.0059472684,-2.2768197e-22,0.0057803282
2.6573104,0.0055208724,0.00063052567,6.6020059e-20,0.0058442562,1.0737584e-21,0.0056825628
2.6696528,0.0054352456,0.00071795212,-3.0667241e-20,0.0057479911,1.8113173e-22,0.0055916168
2.6816039,0.0053563859,0.00080285401,2.0466002e-20,0.0056584612,-5.7473608e-23,0.0055074202
2.6931762,0.005284169,0.00088523685,-9.5706108e-21,0.0055756475,4.0227795e-22,0.0054299037
2.7043818,0.0052184778,0.00096512715,-5.7974752e-20,0.0054995206,-3.5401969e-22,0.0053589946
2.7152323,0.0051591961,0.0010425588,2.4549618e-20,0.0054300378,-7.3581456e-22,0.0052946136
2.7257392,0.0051062098,0.0011175213,6.5663125e-20,0.0053671391,8.4682464e-22,0.0052366709
2.7359133,0.0050593868,0.0011900148,-7.9500237e-20,0.0053107446,1.861748e-22,0.0051850627
2.7457652,0.0050185833,0.001260048,5.4351853e-21,0.0052607515,-2.3238759e-22,0.005139668
2.7553053,0.0049836605,0.0013276559,-3.3679644e-20,0.0052170312,1.2807686e-22,0.0051003457
2.7645435,0.0049544411,0.001392844,-1.5989544e-20,0.005179428,-1.2290209e-21,0.005066932
2.7734893,0.0049307242,0.001455587,1.2023218e-19,0.0051477572,1.1367653e-21,0.0050392391
2.782152,0.0049123051,0.0015159272,-1.2772875e-19,0.0051218053,2.1031432e-21,0.005017054
2.7905407,0.0048989501,0.0015739013,-1.7217314e-19,0.0051013304,-2.1061421e-21,0.0050001388
2.7986642,0.0048904013,0.0016295098,9.5730611e-20,0.0050860638,-2.3246423e-21,0.004988232
2.8065307,0.0048863914,0.0016827681,1.2770938e-19,0.0050757127,8.8123404e-22,0.004981051
2.8141485,0.0048866071,0.0017337181,1.1953128e-20,0.0050699422,1.8691167e-21,0.0049782722
2.8215254,0.0048906467,0.0017823814,-8.2887961e-20,0.0050683251,3.638974e-23,0.0049794835
2.8286692,0.0048982784,0.0018288134,-7.115948e-21,0.0050705972,-8.6972413e-22,0.0049844352
2.8355872,0.0049092812,0.0018730763,1.3999044e-20,0.0050765084,3.5183433e-23,0.0049928922
2.8422866,0.0049232497,0.0019152051,-8.2775948e-21,0.0050856193,3.9175825e-23,0.0050044324
2.8487743,0.0049398271,0.0019552585,6.5197995e-21,0.0050975389,1.3482548e-22,0.0050186819
2.8550571,0.0049586916,0.0019932864,-1.8290672e-20,0.0051119075,4.1608279e-23,0.0050352972
2.8611414,0.0049795188,0.0020293769,7.4932452e-22,0.0051283756,-7.4768675e-22,0.0050539451
2.8670335,0.0050020072,0.0020636188,4.9996331e-20,0.0051466091,2.020643e-22,0.0050743073
2.8727395,0.0050258756,0.0020960786,-1.2377429e-20,0.0051662927,3.8169376e-22,0.0050960832
2.8782654,0.0050508522,0.0021268462,1.0937184e-20,0.005187133,3.989134e-22,0.0051189929
2.8836168,0.0050766993,0.0021560141,-4.3849166e-20,0.0052088606,5.790949e-22,0.0051427796
2.8887992,0.0051031931,0.0021836722,-4.0622366e-20,0.0052312322,-1.0798405e-21,0.0051672112
2.893818,0.0051301318,0.0022099315,4.4573332e-20,0.0052540314,-1.4947705e-22,0.0051920808
2.8986784,0.0051573466,0.0022348871,-2.10618e-20,0.0052770688,4.8878323e-22,0.0052172072
2.9033854,0.0051846877,0.0022586301,8.0667701e-22,0.005300182,-7.5889027e-22,0.0052424348
2.9079439,0.0052120304,0.0022812801,3.7506884e-20,0.0053232345,4.0352792e-22,0.0052676319
2.9123585,0.0052392672,0.0023029283,-2.7266226e-20,0.0053461147,1.3859283e-22,0.0052926906
2.9166338,0.0052663145,0.0023236725,2.2309451e-20,0.0053687341,-1.4492267e-21,0.0053175242
2.9207742,0.0052931086,0.0023436225,7.9285561e-20,0.0053910254,3.7387563e-22,0.0053420659
2.924784,0.0053195936,0.0023628531,-2.1040128e-21,0.0054129407,1.7339813e-21,0.0053662666
2.9286673,0.0053457355,0.0023814506,-4.6842443e-20,0.0054344484,2.0806458e-22,0.0053900923
2.9324281,0.0053715143,0.0023995185,-1.7600118e-20,0.0054555316,-6.0913585e-22,0.0054135226
2.9360703,0.0053969104,0.0024171208,-2.8102798e-21,0.0054761854,-3.0552687e-22,0.0054365474
2.9395976,0.0054219168,0.0024343096,3.3195143e-21,0.0054964141,-8.615608e-23,0.0054591653
2.9430137,0.0054465327,0.0024511622,2.8228418e-21,0.0055162291,4.3257224e-22,0.0054813809
2.946322,0.0054707585,0.0024677296,-2.3265356e-20,0.0055356466,-5.2630194e-23,0.0055032025
2.949526,0.0054945958,0.0024840433,5.0963055e-21,0.0055546846,-4.3618175e-22,0.00552464
2.952629,0.0055180442,0.0025001343,5.0967153e-21,0.0055733611,2.5730078e-22,0.0055457025
2.9556341,0.0055411011,0.0025160226,-9.9284884e-21,0.0055916917,-1.007005e-23,0.0055663963
2.9585445,0.0055637586,0.0025317172,4.6392017e-21,0.0056096874,-5.0479817e-22,0.0055867228
2.9613632,0.0055860014,0.0025472116,1.8489003e-20,0.0056273523,2.9395482e-22,0.0056066767
2.964093,0.0056078059,0.0025624891,-1.1027591e-20,0.0056446819,5.5093573e-22,0.0056262438
2.9667367,0.0056291382,0.002577521,-1.2374476e-20,0.0056616613,-3.1603448e-22,0.0056453995
2.9692971,0.005649952,0.0025922638,6.1753602e-21,0.0056782627,-7.5927294e-23,0.0056641072
2.9717768,0.0056701885,0.002606663,-6.7927778e-21,0.0056944449,3.2015466e-23,0.0056823165
2.9741784,0.005689774,0.0026206493,3.6541801e-21,0.0057101506,-3.1805702e-22,0.0056999621
2.9765042,0.0057086194,0.0026341377,9.0407623e-21,0.0057253058,2.7070384e-22,0.0057169627
2.9787568,0.0057266196,0.0026470326,-9.0677306e-21,0.0057398214,8.8062681e-23,0.00573322
2.9809383,0.0057436526,0.0026592238,3.703457e-21,0.0057535955,-1.5107337e-22,0.0057486181
2.9830511,0.0057595801,0.002670596,-1.0899661e-21,0.0057664805,2.7068027e-22,0.0057630235
2.9850974,0.0057742898,0.0026824012,-8.1004378e-21,0.0057782642,-6.6147756e-23,0.0057762851
2.9870791,0.0057876754,0.0026914251,1.589186e-21,0.0057886938,-2.468966e-22,0.0057881989
2.9889984,0.0057994871,0.0026963008,2.6582885e-21,0.0057975054,-5.6252478e-24,0.0057984971
2.9908573,0.0058092516,0.0027001672,1.6006603e-21,0.005804389,6.0309213e-23,0.0058068138
2.9926575,0.0058163816,0.0027028827,1.2104488e-22,0.0058089384,9.8106032e-23,0.0058126565
2.9944011,0.0058202711,0.0027041814,-2.0340398e-21,0.0058106369,-1.6690799e-23,0.0058154527
2.9960897,0.0058203048,0.0027037805,5.4446282e-22,0.0058088838,-2.4037634e-22,0.0058145936
2.9977251,0.0058158063,0.0027013636,6.0313603e-21,0.0058029911,-1.742056e-22,0.0058093982
2.999309,0.0058060374,0.0026965827,5.883963e-21,0.0057921985,8.3012581e-23,0.0057991176
3.000843,0.0057902677,0.0026890921,2.569534e-21,0.0057757469,3.4056101e-22,0.005783007
3.0023287,0.0057677434,0.002678534,-4.7905552e-21,0.0057528493,5.02844e-23,0.0057602961
3.0037676,0.0057376683,0.0026645305,4.3733866e-22,0.0057226723,-8.0170227e-23,0.0057301701
3.0051611,0.0056992194,0.0026466914,-1.6596547e-21,0.0056843533,1.444556e-22,0.0056917862
3.0065108,0.0056515499,0.0026246156,-3.3360877e-21,0.0056370036,-5.1364959e-23,0.0056442767
3.0078179,0.0055937908,0.0025978938,-1.1664335e-22,0.0055797122,-8.8516462e-23,0.0055867515
3.0090839,0.005525054,0.0025661103,-6.162146e-22,0.0055115497,-1.5401944e-22,0.005518302
3.01031,0.0054444347,0.002528847,3.2028154e-21,0.0054315734,-7.6531174e-24,0.0054380041
3.0114975,0.0053510146,0.0024856628,-1.8876286e-22,0.0053388317,2.1650507e-22,0.0053449232
3.0126476,0.0052438636,0.0024359704,-1.7970336e-21,0.0052323672,-6.4902757e-23,0.0052381157
3.0137614,0.0051220569,0.0023793639,9.7999656e-22,0.0051112331,-5.8939684e-23,0.0051166454
3.0148402,0.0049846978,0.0023155746,-2.2953165e-22,0.0049745191,1.0802156e-22,0.0049796087
3.015885,0.0048309426,0.0022441869,-1.0973047e-21,0.0048213775,-2.3445539e-23,0.0048261603
3.0168969,0.0046600391,0.0021648368,1.7895397e-22,0.0046510589,-8.2438637e-23,0.0046555491
3.017877,0.0044713765,0.0020772333,3.9908849e-22,0.004462961,-2.805702e-23,0.0044671688
3.0188261,0.0042645522,0.0019811868,5.3701949e-22,0.0042566926,7.3994255e-23,0.0042606223
3.0197454,0.0040394533,0.0018766451,-6.3882762e-22,0.0040321516,-6.7856326e-24,0.0040358027
3.0206357,0.0037963501,0.0017637352,3.9310247e-22,0.0037896177,-7.529424e-23,0.0037929856
3.021498,0.0035359875,0.0016428048,4.2565969e-22,0.0035298533,4.1101017e-23,0.0035329198
3.0223332,0.0032595112,0.0015136313,-1.5837668e-22,0.0032540282,6.0200196e-23,0.0032567664
3.023142,0.0029682535,0.0013680279,-2.7886552e-22,0.0029635005,1.5639495e-23,0.0029658769
3.0239254,0.0026646941,0.0012075348,-2.3360766e-22,0.0026607079,-5.0826682e-23,0.0026627022
3.0246841,0.0023533134,0.0010426886,2.1655911e-22,0.0023500606,-1.5369823e-23,0.0023516869
3.0254189,0.0020402179,0.0008772316,-4.9237731e-24,0.0020376421,3.5394911e-23,0.0020389299
3.0261306,0.0017327759,0.00071651411,-1.1058151e-22,0.0017308036,-1.6160578e-23,0.0017317898
3.0268199,0.0014390574,0.00056631858,8.2234716e-23,0.0014376007,-1.6793762e-23,0.0014383291
3.0274874,0.0011669548,0.00043200796,3.5035424e-23,0.0011659187,1.0987058e-23,0.0011664368
3.028134,0.00092313449,0.00031756417,-1.4008512e-23,0.00092242555,5.0970372e-24,0.00092278005
3.0287602,0.0007121003,0.00022485881,-5.5290401e-24,0.0007116337,-3.1235175e-25,0.00071186702
3.0293667,0.00053566962,0.00015346274,-4.6003052e-24,0.00053537418,-1.3246321e-24,0.00053552191
3.029954,0.00039302265,0.00010106038,2.5253293e-24,0.00039284269,1.6073576e-25,0.00039293267
3.0305229,0.00028125228,6.4248425e-05,-1.9586756e-24,0.00028114694,3.2605272e-26,0.00028119961
3.0310739,0.0001961696,3.9370012e-05,6.3843324e-25,0.00019611057,-6.9132924e-25,0.00019614008
3.0316075,0.0001330965,2.3120613e-05,9.7164405e-25,0.00013306507,1.7484543e-25,0.00013308079
3.0321244,8.7475507e-05,1.2846289e-05,-1.7329256e-25,8.7459863e-05,2.362084e-25,8.7467684e-05
3.0326249,5.5251353e-05,6.5926651e-06,-1.6931554e-25,5.5244261e-05,-4.3755637e-26,5.5247807e-05
3.0331097,3.3056811e-05,3.0028156e-06,2.9813452e-26,3.3054008e-05,-2.026664e-26,3.305541e-05
3.0335792,1.8257534e-05,1.1437225e-06,-2.1624614e-27,1.8256628e-05,9.4474294e-27,1.8257081e-05
3.034034,8.8958453e-06,3.3563758e-07,-3.6090921e-27,8.8956267e-06,-2.1886716e-27,8.8957361e-06
3.0344744,3.5480668e-06,6.796785e-08,7.7590909e-28,3.548032e-06,-4.4143432e-28,3.5480494e-06
3.034901,1.1192829e-06,8.3205149e-09,-2.9922038e-30,1.1192799e-06,6.31551e-29,1.1192813e-06
3.0353141,1.028103e-06,9.15541e-10,-4.0919472e-31,1.0281028e-06,-3.7802725e-31,1.0281029e-06
3.0357143,6.6666667e-11,0,0,6.6666667e-11,0,6.6666667e-11
