y,k
0,1e-10
0.00048240845,2.6163825e-07
0.00098049384,1.6470644e-07
0.0014947656,5.9049864e-07
0.0020257498,1.8493742e-06
0.0025739895,4.6904206e-06
0.0031400454,1.0196162e-05
0.0037244966,1.9763698e-05
0.0043279408,3.5075814e-05
0.0049509953,5.8077169e-05
0.0055942973,9.096506e-05
0.0062585048,0.00013618676
0.0069442972,0.00019642151
0.007652376,0.00027451903
0.0083834654,0.00037336811
0.0091383131,0.00049567966
0.0099176913,0.00064368977
0.010722397,0.00081882141
0.011553254,0.0010213795
0.012411111,0.0012503743
0.013296846,0.0015035501
0.014211364,0.001777636
0.015155603,0.0020687534
0.016130526,0.0023728687
0.017137132,0.0026861762
0.018176449,0.0030053517
0.019249542,0.0033276678
0.020357507,0.0036510041
0.021501477,0.0039737923
0.022682624,0.0042949313
0.023902154,0.0046136972
0.025161316,0.004929658
0.026461397,0.0052426019
0.027803728,0.0055524779
0.02918968,0.0058593494
0.030620672,0.0061633587
0.032098167,0.006464701
0.033623676,0.0067636041
0.03519876,0.0070603154
0.03682503,0.0073550914
0.03850415,0.0076481911
0.040237836,0.0079398713
0.042027862,0.008230384
0.043876059,0.0085199741
0.045784317,0.0088088786
0.047754588,0.0090973265
0.049788888,0.0093855378
0.051889297,0.009673725
0.054057963,0.0099620925
0.056297104,0.010250837
0.058609012,0.01054015
0.06099605,0.010830215
0.06346066,0.011121212
0.066005363,0.011413313
0.068632762,0.011706689
0.071345544,0.012001506
0.074146484,0.012297925
0.077038447,0.012596107
0.08002439,0.012896211
0.083107369,0.01319839
0.086290535,0.013502801
0.089577146,0.013809597
0.092970562,0.014118931
0.096474255,0.014430956
0.10009181,0.014745826
0.10382692,0.015063694
0.10768342,0.015384717
0.11166524,0.01570905
0.11577645,0.016036851
0.12002127,0.01636828
0.12440404,0.016703499
0.12892923,0.017042672
0.13360148,0.017385966
0.13842557,0.017733552
0.14340642,0.018085602
0.14854914,0.018442292
0.15385898,0.018803802
0.15934138,0.019170316
0.16500194,0.01954202
0.17084645,0.019919107
0.17688089,0.020301771
0.18311143,0.020690211
0.18954445,0.021084631
0.19618653,0.021485237
0.20304445,0.021892242
0.21012524,0.02230586
0.21743614,0.022726309
0.22498461,0.023153813
0.23277839,0.023588596
0.24082545,0.024030887
0.24913402,0.024480916
0.25771259,0.024938917
0.26656994,0.025405122
0.27571513,0.025879768
0.28515751,0.026363087
0.29490674,0.026855316
0.3049728,0.027356685
0.31536597,0.027867424
0.3260969,0.028387756
0.33717655,0.028917905
0.34861625,0.029458085
0.36042772,0.030008507
0.37262303,0.030569372
0.38521464,0.031140876
0.39821546,0.031723207
0.41163876,0.032316543
0.42549828,0.032921057
0.4398082,0.033536917
0.45458315,0.034164283
0.46983824,0.034803314
0.48558908,0.035454168
0.50185179,0.036117007
0.51864298,0.036791992
0.53597984,0.037479304
0.5538801,0.038179177
0.57236207,0.03889504
0.59144465,0.039636228
0.61114736,0.04040684
0.63149036,0.04119232
0.65249445,0.041961265
0.67418111,0.042674768
0.69657252,0.043294594
0.7196916,0.043787799
0.74356198,0.044125587
0.76820808,0.044287778
0.79365511,0.04426369
0.8199291,0.044044796
0.84705692,0.043628777
0.87506632,0.043023221
0.90398595,0.04224282
0.93384539,0.041308048
0.94954685,0.040766094
0.96467517,0.040244188
0.99650683,0.039081596
1.0293729,0.037856576
1.0633071,0.036611665
1.098344,0.035393255
1.1345196,0.034244244
1.1718707,0.033192511
1.2104356,0.03224073
1.2502538,0.031380025
1.291366,0.0306033
1.3338142,0.029897944
1.3776419,0.029243377
1.4228938,0.028613904
1.4696163,0.027982642
1.5178571,0.02732844
1.566098,0.026644602
1.6128205,0.025934831
1.6580724,0.025204128
1.7019001,0.024459231
1.7443483,0.023708325
1.7854605,0.022958683
1.8252786,0.022216168
1.8638436,0.021485547
1.9011947,0.020770767
1.9373703,0.020075025
1.9724072,0.019400791
2.0063413,0.018749834
2.0163366,0.018559313
2.0392075,0.018123301
2.0710391,0.01752181
2.1018689,0.016945544
2.1317283,0.016394342
2.160648,0.015867779
2.1886574,0.01536524
2.2157852,0.014885972
2.2420592,0.014429136
2.2675062,0.013993839
2.2921523,0.013579168
2.3160227,0.013184204
2.3391418,0.012808042
2.3615332,0.012449807
2.3832198,0.012108666
2.4042239,0.011783823
2.4245669,0.011474527
2.4442696,0.011180074
2.4633522,0.010899807
2.4818342,0.01063312
2.4997344,0.010379452
2.5170713,0.01013829
2.5338625,0.0099091657
2.5501252,0.0096916519
2.565876,0.0094853631
2.5811311,0.0092899511
2.5959061,0.009105103
2.610216,0.0089305382
2.6240755,0.0087660054
2.6374988,0.0086112795
2.6504996,0.0084661585
2.6630913,0.00833046
2.6752866,0.0082040177
2.687098,0.0080866781
2.6985377,0.0079782964
2.7096174,0.0078787339
2.7203483,0.0077878539
2.7307415,0.0077055184
2.7408075,0.0076315857
2.7505568,0.0075659072
2.7599992,0.0075083254
2.7691443,0.007458672
2.7780017,0.007416767
2.7865803,0.0073824176
2.7948888,0.0073554183
2.8029359,0.0073355515
2.8107297,0.0073226015
2.8182781,0.0073163287
2.825589,0.0073164606
2.8326698,0.0073227444
2.8395278,0.0073349343
2.8461698,0.0073527693
2.8526028,0.0073759876
2.8588334,0.0074043316
2.8648678,0.0074375434
2.8707123,0.0074753654
2.8763729,0.007517547
2.8818553,0.0075638412
2.8871651,0.0076140047
2.8923079,0.0076677974
2.8972887,0.0077249818
2.9021128,0.0077853227
2.9067851,0.0078485859
2.9113102,0.007914538
2.915693,0.0079829454
2.9199378,0.0080535741
2.924049,0.00812619
2.9280309,0.0082005593
2.9318874,0.0082764492
2.9356225,0.0083536301
2.93924,0.0084318777
2.9427437,0.0085109757
2.9461371,0.008590748
2.9494237,0.0086710846
2.9526069,0.0087517701
2.9556899,0.0088323349
2.9586758,0.008912137
2.9615678,0.0089904564
2.9643687,0.0090665467
2.9670815,0.0091396618
2.9697089,0.009209069
2.9722536,0.0092740546
2.9747182,0.0093339259
2.9771053,0.0093880119
2.9794172,0.0094356618
2.9816563,0.0094762439
2.983825,0.009509142
2.9859254,0.0095337524
2.9879597,0.0095494656
2.98993,0.0095556989
2.9918382,0.0095518698
2.9936864,0.0095373571
2.9954764,0.0095115293
2.9972101,0.0094737322
2.9988893,0.0094232776
3.0005155,0.0093594319
3.0020906,0.0092814066
3.0036161,0.0091883496
3.0050936,0.0090793365
3.0065246,0.0089533645
3.0079106,0.008809351
3.0092529,0.0086461236
3.010553,0.008462428
3.0118121,0.0082569431
3.0130317,0.0080282871
3.0142128,0.0077750598
3.0153568,0.0074959053
3.0164647,0.0071895839
3.0175378,0.0068550711
3.0185772,0.0064916897
3.0195838,0.0060992635
3.0205587,0.0056782237
3.0215029,0.0052291164
3.0224174,0.004753231
3.0233032,0.0042543822
3.024161,0.003739537
3.0249919,0.0032188119
3.0257966,0.0027052454
3.026576,0.0022138912
3.0273308,0.0017600407
3.0280619,0.0013568594
3.02877,0.0010131524
3.0294558,0.00073210233
3.03012,0.0005114251
3.0307633,0.00034472104
3.0313863,0.00022333947
3.0319898,0.00013808465
3.0325742,8.04119e-05
3.0331403,4.3076438e-05
3.0336885,2.0342389e-05
3.0342195,7.861657e-06
3.0347338,2.3254564e-06
3.0352319,1.625202e-06
3.0357134,3.2028306e-09
