y,R_0,R_1,R_2,R_3,R_4,R_5
0,6.6666667e-11,0,0,6.6666667e-11,0,6.6666667e-11
0.00048240845,3.9663925e-08,8.5291039e-12,-8.1402788e-34,3.966395e-08,1.6586498e-33,3.9663938e-08
0.00098049384,2.1186562e-07,1.652391e-10,-1.0107338e-32,2.1186652e-07,3.4596567e-31,2.1186607e-07
0.0014947656,8.7644869e-07,1.3882223e-09,8.453514e-32,8.7645977e-07,1.5802057e-30,8.7645423e-07
0.0020257498,2.5390423e-06,6.9255264e-09,-1.3690138e-31,2.5391161e-06,-5.1311161e-30,2.5390792e-06
0.0025739895,5.8869947e-06,2.4870795e-08,3.945614e-31,5.8873341e-06,2.945249e-29,5.8871644e-06
0.0031400454,1.1790291e-05,7.1474225e-08,9.0514434e-30,1.1791506e-05,1.7595476e-28,1.1790899e-05
0.0037244966,2.1319791e-05,1.7504716e-07,1.623113e-29,2.1323429e-05,-2.7041539e-28,2.1321611e-05
0.0043279408,3.5769933e-05,3.8009715e-07,-1.0425596e-29,3.5779466e-05,-1.3547791e-27,3.5774701e-05
0.0049509953,5.6681658e-05,7.5098988e-07,-1.3710262e-28,5.6704189e-05,-9.5593215e-28,5.6692925e-05
0.0055942973,8.5860841e-05,1.3738578e-06,-2.3049624e-28,8.5909907e-05,4.0200193e-27,8.5885378e-05
0.0062585048,0.00012538486,2.3545872e-06,6.0920082e-28,0.00012548481,1.4225957e-26,0.00012543484
0.0069442972,0.0001775857,3.8095243e-06,1.7576574e-27,0.00017777827,-9.3617208e-27,0.00017768201
0.007652376,0.0002449928,5.8443691e-06,-2.125927e-27,0.00024534654,-2.5936283e-26,0.00024516971
0.0083834654,0.00033021417,8.5165908e-06,7.7259302e-28,0.00033083748,-2.1973106e-26,0.00033052589
0.0091383131,0.00043573472,1.1779686e-05,-7.3043881e-27,0.00043679264,-8.1844456e-27,0.00043626376
0.0099176913,0.00056362258,1.5416322e-05,-3.0036404e-27,0.00056535727,9.2449438e-26,0.00056449001
0.010722397,0.00071516576,1.8982258e-05,4.7469233e-27,0.00071791883,6.6606043e-26,0.00071654233
0.011553254,0.000890511,2.1796847e-05,1.4373943e-26,0.00089474495,-1.6464698e-25,0.00089262784
0.012411111,0.0010884235,2.3012785e-05,-3.042875e-26,0.0010947381,-2.4521038e-25,0.0010915804
0.013296846,0.0013062892,2.176522e-05,-1.6642547e-26,0.0013154292,2.3537145e-25,0.0013108585
0.014211364,0.0015404103,1.735051e-05,2.0016408e-26,0.0015532619,-5.4203039e-25,0.0015468351
0.015155603,0.0017865196,9.3578945e-06,-1.9135169e-25,0.001804097,-7.2735795e-25,0.0017953071
0.016130526,0.0020403509,-2.2976829e-06,-1.2253661e-25,0.0020637758,1.2624346e-24,0.0020520623
0.017137132,0.0022980972,-1.7436427e-05,7.4100498e-26,0.0023285754,8.5676139e-25,0.0023133355
0.018176449,0.0025566691,-3.5720816e-05,-6.3934231e-26,0.0025954685,-1.4530245e-24,0.0025760683
0.019249542,0.0028137621,-5.6758609e-05,-4.7745428e-25,0.0028621935,-1.3492362e-24,0.0028379777
0.020357507,0.0030677904,-8.017489e-05,-4.732125e-25,0.0031271935,3.1673105e-25,0.0030974922
0.021501477,0.0033177578,-0.00010564928,-6.0920806e-25,0.0033894913,7.1050889e-25,0.0033536249
0.022682624,0.0035631157,-0.00013292748,-6.9947856e-25,0.003648551,5.4544961e-25,0.0036058339
0.023902154,0.003803636,-0.00016181862,-7.2832451e-25,0.0039041547,5.9594562e-25,0.0038538959
0.025161316,0.004039309,-0.00019218614,-4.5311437e-25,0.0041563015,2.8432048e-24,0.0040978058
0.026461397,0.0042702672,-0.00022393672,6.6394942e-25,0.0044051326,7.9135591e-25,0.0043377005
0.027803728,0.0044967302,-0.00025701092,-1.2068252e-25,0.004650878,-2.3880793e-24,0.0045738047
0.02918968,0.0047189669,-0.00029137514,-1.689366e-25,0.0048938185,-1.8876873e-24,0.0048063933
0.030620672,0.0049372709,-0.00032701539,-1.4480057e-24,0.005134261,-2.0094258e-24,0.0050357665
0.032098167,0.005151943,-0.00036393281,-1.364274e-24,0.0053725218,2.3869194e-24,0.0052622329
0.033623676,0.0053632817,-0.00040213952,-2.02013e-25,0.0056089164,2.1384515e-24,0.0054860995
0.03519876,0.0055715763,-0.00044165624,-1.2127714e-24,0.0058437528,-1.8168512e-24,0.0057076649
0.03682503,0.0057771036,-0.00048251097,-1.6509145e-24,0.0060773279,-2.1177069e-24,0.0059272161
0.03850415,0.0059801264,-0.00052473715,-2.5802784e-24,0.0063099256,3.3320636e-24,0.0061450263
0.040237836,0.0061808927,-0.00056837286,8.8461731e-25,0.0065418165,8.412273e-24,0.0063613549
0.042027862,0.0063796361,-0.00061346027,3.188935e-24,0.0067732569,-2.140567e-24,0.0065764467
0.043876059,0.0065765765,-0.00066004453,-7.7434032e-25,0.0070044902,-8.8525789e-24,0.0067905336
0.045784317,0.0067719208,-0.00070817402,-2.6823335e-24,0.0072357473,3.1900004e-24,0.0070038343
0.047754588,0.0069658642,-0.00075789981,8.4894788e-25,0.0074672472,6.7693946e-24,0.0072165558
0.049788888,0.0071585912,-0.00080927578,1.5847621e-24,0.0076991979,7.3946427e-24,0.0074288947
0.051889297,0.007350277,-0.00086235857,7.0908172e-24,0.007931798,1.5092428e-23,0.0076410375
0.054057963,0.0075410886,-0.00091720641,1.0987108e-23,0.0081652368,-5.7456766e-24,0.0078531627
0.056297104,0.0077311851,-0.00097388047,3.5125047e-25,0.0083996949,-2.4530221e-23,0.00806544
0.058609012,0.0079207194,-0.0010324448,-5.8455216e-24,0.0086353453,1.4314174e-24,0.0082780323
0.06099605,0.0081098399,-0.0010929653,4.331357e-24,0.0088723549,2.3233809e-23,0.0084910974
0.06346066,0.0082986898,-0.0011555103,1.1236052e-23,0.009110884,1.053113e-23,0.0087047869
0.066005363,0.0084874092,-0.00122015,8.9860146e-24,0.0093510867,-1.6673761e-25,0.0089192479
0.068632762,0.0086761354,-0.0012869584,8.4844958e-24,0.0095931127,3.5774747e-24,0.009134624
0.071345544,0.0088650038,-0.0013560117,6.265923e-24,0.0098371064,-1.2653548e-23,0.009351055
0.074146484,0.009054149,-0.0014273882,-4.3108759e-24,0.010083208,-2.8088308e-23,0.0095686785
0.077038447,0.0092437048,-0.0015011686,-6.971506e-24,0.010331554,-1.5703669e-23,0.0097876293
0.08002439,0.0094338052,-0.001577437,-7.2913525e-24,0.010582276,-1.8491559e-23,0.010008041
0.083107369,0.0096245854,-0.0016562805,-8.4737178e-24,0.010835503,4.3918029e-25,0.010230044
0.086290535,0.0098161824,-0.0017377882,-4.2557592e-25,0.011091361,2.9678674e-23,0.010453772
0.089577146,0.010008735,-0.0018220524,4.7979406e-24,0.011349972,9.9474512e-24,0.010679353
0.092970562,0.010202386,-0.001909169,3.1618749e-24,0.011611455,1.2462897e-24,0.01090692
0.096474255,0.010397284,-0.0019992292,-1.1241802e-24,0.011875923,1.2905174e-23,0.011136603
0.10009181,0.010593588,-0.0020923147,-2.2713494e-24,0.012143478,1.7641171e-25,0.011368532
0.10382692,0.010791466,-0.002188485,-3.8574055e-24,0.012414217,-8.6312071e-24,0.011602842
0.10768342,0.010991097,-0.0022877876,-4.4870417e-24,0.012688231,2.2062508e-23,0.011839665
0.11166524,0.011192653,-0.0023903099,-1.2271858e-23,0.012965619,1.6288766e-23,0.012079136
0.11577645,0.0113963,-0.0024961967,-6.8193753e-24,0.013246488,-3.2245496e-23,0.012321393
0.12002127,0.011602202,-0.0026056255,7.1575315e-24,0.013530952,-1.098268e-23,0.012566575
0.12440404,0.011810526,-0.0027187597,8.699291e-24,0.013819124,-5.109314e-24,0.012814823
0.12892923,0.012021459,-0.0028357302,1.0608458e-23,0.014111109,-4.0471598e-23,0.013066283
0.13360148,0.012235202,-0.0029566616,1.4038069e-23,0.014406997,-3.3064379e-23,0.013321099
0.13842557,0.012451966,-0.0030816817,1.924226e-23,0.014706876,-4.0492852e-23,0.01357942
0.14340642,0.012671969,-0.0032109207,3.8479065e-23,0.015010831,-4.2065152e-23,0.013841399
0.14854914,0.01289544,-0.0033445111,4.3315593e-23,0.015318942,6.4090777e-23,0.01410719
0.15385898,0.013122619,-0.0034825884,-4.7261971e-23,0.015631285,1.1577171e-22,0.014376951
0.15934138,0.013353752,-0.0036252899,-3.6443388e-23,0.015947933,-2.5217746e-23,0.014650841
0.16500194,0.0135891,-0.0037727535,1.749049e-23,0.016268953,-5.0288663e-23,0.014929025
0.17084645,0.01382893,-0.0039251187,2.1165463e-24,0.016594406,4.2794475e-23,0.015211667
0.17688089,0.014073522,-0.004082527,-7.0990805e-23,0.01692435,3.8329477e-23,0.015498935
0.18311143,0.014323167,-0.0042451196,-5.4282324e-23,0.017258835,-7.423966e-23,0.015791
0.18954445,0.014578165,-0.0044130371,8.3486329e-23,0.017597905,-1.2348402e-22,0.016088034
0.19618653,0.014838824,-0.0045864197,1.5524702e-22,0.017941597,-2.6863404e-23,0.01639021
0.20304445,0.015105465,-0.0047654058,3.2658134e-23,0.018289938,8.5365533e-23,0.016697701
0.21012524,0.015378415,-0.0049501312,-4.2313043e-23,0.018642949,1.9696358e-23,0.017010682
0.21743614,0.015658011,-0.0051407286,4.0848216e-23,0.019000639,-4.4396417e-23,0.017329324
0.22498461,0.015944593,-0.0053373268,3.7719455e-23,0.019363006,-8.3886206e-24,0.017653799
0.23277839,0.01623851,-0.0055400476,9.2708032e-23,0.019730034,6.9598562e-23,0.017984272
0.24082545,0.016540112,-0.005749006,-2.5756296e-22,0.020101697,1.2904136e-22,0.018320905
0.24913402,0.016849752,-0.0059643078,-3.3569293e-23,0.020477949,-1.9802052e-22,0.018663851
0.25771259,0.017167781,-0.0061860487,4.388941e-22,0.020858729,-1.9681342e-22,0.019013255
0.26656994,0.017494546,-0.0064143113,8.4401422e-23,0.021243951,2.0037065e-22,0.019369249
0.27571513,0.017830386,-0.0066491625,-4.4931348e-22,0.021633511,2.3063159e-22,0.019731949
0.28515751,0.018175626,-0.0068906521,-2.6370163e-22,0.022027272,-1.2964295e-22,0.020101451
0.29490674,0.018530579,-0.0071388162,4.6246793e-22,0.022425071,-3.0933562e-22,0.020477827
0.3049728,0.01889554,-0.0073936382,5.7498394e-22,0.022826703,-3.8026558e-23,0.020861123
0.31536597,0.019270763,-0.0076551032,1.3150621e-24,0.023231934,1.0117983e-22,0.021251349
0.3260969,0.019656456,-0.0079231773,2.2983357e-22,0.023640486,-1.6069006e-22,0.021648472
0.33717655,0.020052799,-0.0081977504,6.796192e-22,0.024052015,-1.0044813e-22,0.02205241
0.34861625,0.020459918,-0.0084786891,-1.3749775e-22,0.024466118,2.1136255e-22,0.022463021
0.36042772,0.020877867,-0.0087658142,-8.2384717e-23,0.024882326,2.8485148e-23,0.0228801
0.37262303,0.021306622,-0.0090588935,8.3984704e-23,0.025300088,-7.2174651e-23,0.023303358
0.38521464,0.021746067,-0.0093576326,2.9165936e-22,0.025718762,1.3546107e-23,0.023732418
0.39821546,0.022195973,-0.009661662,-3.0968005e-22,0.026137605,2.2595655e-22,0.024166793
0.41163876,0.022655987,-0.0099705441,-1.1422127e-21,0.026555755,2.9474287e-22,0.024605875
0.42549828,0.023125611,-0.010283756,-1.0506055e-21,0.026972215,1.2040783e-22,0.025048917
0.4398082,0.023604179,-0.010600676,-4.9801413e-22,0.027385837,-2.8443342e-24,0.025495012
0.45458315,0.024090828,-0.010920573,-1.6711717e-22,0.027795306,3.4110308e-22,0.025943071
0.46983824,0.024584483,-0.011242605,-3.1648292e-21,0.028199114,7.4820861e-22,0.026391802
0.48558908,0.025083821,-0.011565811,-2.2800185e-21,0.028595543,4.3251403e-23,0.026839685
0.50185179,0.025587255,-0.011889086,2.0143415e-22,0.028982636,-2.0027956e-22,0.027284948
0.51864298,0.026092901,-0.012211192,-4.769112e-22,0.029358108,-5.2059677e-23,0.027725537
0.53597984,0.026598557,-0.012530744,1.4179749e-21,0.029719659,-2.8374198e-22,0.02815909
0.5538801,0.027101706,-0.012846491,4.6846053e-22,0.030065777,1.5032183e-22,0.028582915
0.57236207,0.027599606,-0.013157877,-7.4874917e-22,0.030390795,1.6927066e-22,0.028993952
0.59144465,0.028093342,-0.013498163,-6.8044859e-22,0.03068143,4.0520491e-22,0.029388769
0.61114736,0.028607115,-0.0137842,-5.3036369e-21,0.030916447,8.755039e-22,0.029764929
0.63149036,0.029146144,-0.01397188,-3.3049051e-21,0.031095106,-3.8166219e-22,0.030120877
0.65249445,0.029668489,-0.014137497,5.6301632e-21,0.03123645,-1.187002e-21,0.030450685
0.67418111,0.030135323,-0.01428199,4.0709975e-21,0.031351306,1.8773542e-22,0.030742345
0.69657252,0.030527172,-0.014399156,-3.6974884e-21,0.031436849,1.1536516e-21,0.030981792
0.7196916,0.030834951,-0.014483618,-8.2027927e-21,0.031475879,9.4677396e-22,0.031155521
0.74356198,0.031054354,-0.014530864,-6.9372411e-21,0.031449951,6.3078101e-22,0.031252343
0.76820808,0.031183645,-0.014537889,-7.8094369e-21,0.031346002,6.0888111e-22,0.031265
0.79365511,0.031219648,-0.01450193,-4.9995439e-21,0.031154502,2.1496002e-22,0.031187205
0.8199291,0.031157056,-0.014420216,-3.4953639e-21,0.030868511,6.8062659e-22,0.03101285
0.84705692,0.030991009,-0.014290985,-1.3711039e-20,0.030484981,1.1412668e-21,0.03073801
0.87506632,0.030717386,-0.014113259,-7.280683e-22,0.030003407,-4.5135746e-22,0.030360382
0.90398595,0.030334077,-0.013887132,-2.7892866e-22,0.029425712,6.5845976e-22,0.029879867
0.93384539,0.029842027,-0.013614045,-1.8285934e-20,0.028756451,1.9695737e-21,0.029299206
0.94954502,0.029538426,-0.013452571,-1.8922723e-20,0.02837276,1.0798678e-21,0.028955559
0.96467517,0.029245954,-0.013297015,-1.8673176e-20,0.028003138,1.7440566e-22,0.028624512
0.99650683,0.028554653,-0.012940729,9.7092875e-21,0.027176443,-1.3093878e-21,0.027865513
1.0293729,0.027780857,-0.01255148,6.1588139e-21,0.026290092,5.7284832e-22,0.02703544
1.0633071,0.0269407,-0.012136922,-2.1771879e-20,0.025360386,1.3837499e-21,0.026150509
1.098344,0.026052672,-0.01170562,-5.0023928e-21,0.024405294,-9.3854021e-23,0.025228947
1.1345196,0.025135235,-0.011265981,-1.2950496e-20,0.023442235,7.8501201e-22,0.024288697
1.1718707,0.02420613,-0.010825927,-1.161024e-20,0.022487348,2.4573695e-22,0.023346702
1.2104356,0.023283042,-0.010393153,1.425203e-21,0.02155592,-7.8985956e-22,0.022419451
1.2502538,0.022381464,-0.0099741266,1.9822973e-20,0.020660262,-9.48473e-22,0.021520853
1.291366,0.021512359,-0.0095730492,1.0153729e-20,0.019807723,-1.2909295e-23,0.020660053
1.3338142,0.020681181,-0.0091915989,-2.430358e-21,0.01900045,2.3012084e-22,0.019840835
1.3776419,0.019889315,-0.0088297993,3.6161361e-21,0.018237442,-5.4176022e-22,0.019063393
1.4228938,0.019135731,-0.008486867,2.2651116e-20,0.017516438,-7.3081439e-22,0.018326074
1.4696163,0.018416489,-0.0081609827,5.1850756e-21,0.016833381,9.1926691e-22,0.017624918
1.5178571,0.017729027,-0.0078500308,-4.6305228e-20,0.016185079,1.98447e-21,0.016957081
1.566098,0.017078364,-0.0075556199,-5.0464477e-20,0.01557383,5.4019358e-22,0.016326145
1.6128205,0.016469087,-0.0072804594,-1.0131164e-20,0.015001708,-7.2481607e-22,0.015735425
1.6580724,0.015898512,-0.0070232977,2.3675913e-20,0.014465629,-7.3423877e-22,0.01518208
1.7019001,0.015362334,-0.0067816982,7.118802e-21,0.013961422,-2.3542348e-22,0.014661877
1.7443483,0.014857627,-0.0065539962,3.4382689e-20,0.01348568,-3.6904204e-22,0.01417164
1.7854605,0.014382424,-0.0063388209,-8.0830954e-21,0.013034962,9.03037e-22,0.013708702
1.8252786,0.013935817,-0.0061349815,-3.2890458e-20,0.012606038,7.1321257e-22,0.013270823
1.8638436,0.0135173,-0.0059411764,-2.8336086e-20,0.012193922,5.7000241e-22,0.012855798
1.9011947,0.013123683,-0.0057346767,-5.0401133e-20,0.01179551,3.5585216e-22,0.012460013
1.9373703,0.012747619,-0.0055046991,8.6025676e-21,0.011410927,-5.5960243e-22,0.01207909
1.9724072,0.012380741,-0.0052685448,-9.5674437e-21,0.011040751,1.0930738e-21,0.011710505
2.0063413,0.012020193,-0.0050300038,-7.3142797e-20,0.010687272,1.4545285e-21,0.011353779
2.0163351,0.01191295,-0.004956344,-6.7772149e-20,0.010584843,1.1134224e-21,0.01124893
2.0392075,0.011667506,-0.0047877734,-5.1950338e-20,0.010350433,2.698864e-22,0.011008973
2.0710391,0.011323781,-0.0045445953,-3.8233095e-20,0.010028341,2.867224e-22,0.010676064
2.1018689,0.010989722,-0.0043023304,-3.9718919e-20,0.0097201984,1.223904e-22,0.010354962
2.1317283,0.010665756,-0.0040623159,-1.3064982e-20,0.0094252706,-4.8197572e-22,0.010045515
2.160648,0.010352108,-0.0038255066,1.4472883e-20,0.0091429395,-5.2826484e-22,0.009747526
2.1886574,0.010048881,-0.0035926009,1.5733013e-20,0.0088726543,-1.3289513e-22,0.0094607608
2.2157852,0.0097560174,-0.0033641134,1.2559508e-20,0.0086139183,-1.3495476e-22,0.0091849596
2.2420592,0.0094734254,-0.0031404197,1.6094697e-20,0.0083662757,-1.755487e-22,0.0089198466
2.2675062,0.009200972,-0.002921806,1.1884207e-20,0.0081293029,-2.6149081e-22,0.0086651362
2.2921523,0.0089384636,-0.0027084556,2.5631798e-20,0.0079025981,-2.6079861e-22,0.0084205398
2.3160227,0.0086857548,-0.0025005037,1.616295e-20,0.0076857807,2.1278763e-22,0.0081857716
2.3391418,0.0084426132,-0.0022980607,-2.4548591e-21,0.0074784974,2.2287586e-22,0.007960553
2.3615332,0.0082088111,-0.0021011708,-7.89328e-22,0.007280414,-7.3566513e-23,0.0077446125
2.3832198,0.0079841574,-0.0019098589,4.1129535e-21,0.007091212,-9.8200666e-23,0.0075376882
2.4042239,0.0077684686,-0.0017241138,4.323891e-21,0.0069105912,1.6268865e-23,0.0073395315
2.4245669,0.0075615488,-0.0015438969,1.2102303e-22,0.0067382707,3.0568921e-23,0.0071499084
2.4442696,0.0073632027,-0.0013691813,1.2457119e-21,0.0065739882,-1.2082532e-22,0.0069685999
2.4633522,0.0071732957,-0.0011999106,7.2443897e-21,0.0064175018,-6.6644081e-23,0.0067954037
2.4818342,0.0069916734,-0.001036,2.6255979e-21,0.0062685908,2.3947608e-22,0.0066301357
2.4997344,0.0068182013,-0.00087734788,-9.2843251e-21,0.0061270549,2.5181061e-22,0.0064726292
2.5170713,0.0066527501,-0.00072386909,-9.74102e-21,0.0059927152,4.8694102e-23,0.006322736
2.5338625,0.006495232,-0.00057545135,-8.7359751e-21,0.0058654146,6.8254822e-23,0.0061803265
2.5501252,0.0063455578,-0.00043195559,-1.1105679e-20,0.0057450173,4.7406707e-23,0.0060452895
2.565876,0.006203649,-0.00029326289,-7.8656942e-21,0.0056314091,-1.7523368e-22,0.005917532
2.5811311,0.0060694603,-0.00015924342,1.6750252e-21,0.0055244964,-2.1077903e-22,0.0057969787
2.5959061,0.0059429401,-2.9750278e-05,3.6203326e-21,0.0054242058,-7.4465107e-23,0.0056835713
2.610216,0.0058240559,9.5360787e-05,4.8413008e-21,0.0053304834,-7.663183e-23,0.0055772674
2.6240755,0.0057127841,0.00021621814,6.6009178e-21,0.0052432929,-1.0486954e-22,0.0054780396
2.6374988,0.0056091268,0.00033298688,8.699135e-21,0.0051626147,-2.4918441e-23,0.0053858733
2.6504996,0.0055130876,0.00044584063,5.7421406e-21,0.0050884438,1.7505141e-22,0.0053007657
2.6630913,0.0054246639,0.00055491946,-1.5167415e-21,0.0050207876,1.5099489e-22,0.0052227232
2.6752866,0.0053438581,0.00066037679,-1.7499119e-21,0.0049596634,3.10988e-23,0.0051517588
2.687098,0.0052706834,0.00076236814,-2.4203131e-21,0.0049050953,-2.960972e-23,0.0050878899
2.6985377,0.0052051574,0.00086105103,-1.2773436e-22,0.0048571115,-1.4719265e-22,0.0050311346
2.7096174,0.0051472771,0.00095657443,4.1836532e-21,0.0048157401,-5.7620437e-23,0.0049815086
2.7203483,0.0050970353,0.0010490918,1.9727271e-21,0.004781006,2.5306283e-25,0.0049390214
2.7307415,0.0050544227,0.0011387681,3.4619365e-21,0.004752926,6.3502475e-23,0.0049036725
2.7408075,0.0050193934,0.0012257214,-9.2380256e-22,0.0047315055,1.916423e-22,0.0048754478
2.7505568,0.0049918977,0.0013100902,-4.1571615e-21,0.0047167339,3.9231043e-23,0.0048543149
2.7599992,0.004971864,0.0013920178,-2.0346297e-21,0.0047085844,-7.2598888e-23,0.0048402241
2.7691443,0.0049591935,0.0014716077,-9.4866654e-22,0.0047070028,-9.8461683e-23,0.0048330968
2.7780017,0.0049537359,0.0015489885,1.6177206e-21,0.0047118968,-1.3488654e-22,0.004832815
2.7865803,0.0049553204,0.001624266,3.6182954e-21,0.0047231518,-6.9196614e-23,0.0048392375
2.7948888,0.004963763,0.0016975146,3.5594825e-21,0.0047406263,-1.4908029e-23,0.0048521961
2.8029359,0.0049788237,0.0017688213,3.5757351e-21,0.0047641385,5.291081e-23,0.0048714822
2.8107297,0.0050002302,0.0018382472,1.3828262e-21,0.004793471,1.0187178e-22,0.0048968516
2.8182781,0.0050276779,0.0019058419,-5.3270745e-24,0.0048283701,7.489148e-23,0.0049280242
2.825589,0.0050608251,0.0019716593,-9.796149e-22,0.0048685473,2.5568615e-23,0.0049646861
2.8326698,0.0050993006,0.0020357258,-7.4131441e-22,0.0049136805,-3.2420608e-23,0.0050064904
2.8395278,0.0051427057,0.0020980523,5.3741288e-23,0.0049634169,-4.410664e-24,0.0050530612
2.8461698,0.0051906162,0.0021586454,-5.3524518e-22,0.0050173765,4.7811727e-23,0.0051039963
2.8526028,0.0052425881,0.0022175009,-1.2452338e-21,0.0050751558,-4.6492758e-24,0.0051588719
2.8588334,0.0052981616,0.0022746041,-3.813449e-22,0.0051363324,-4.2684319e-23,0.0052172467
2.8648678,0.0053568656,0.0023299311,-2.3642459e-23,0.0052004703,-4.8288431e-24,0.0052786675
2.8707123,0.0054182239,0.0023834524,-2.213158e-22,0.0052671246,-6.7518343e-23,0.0053426738
2.8763729,0.0054817609,0.0024351343,1.6311589e-21,0.0053358463,-5.3326133e-23,0.0054088034
2.8818553,0.0055470069,0.002484938,1.124284e-21,0.0054061875,5.9408078e-23,0.005476597
2.8871651,0.0056135018,0.0025328152,7.7871502e-23,0.0054777051,2.9189171e-23,0.0055456037
2.8923079,0.0056807988,0.0025787283,3.2791789e-22,0.0055499626,1.2159962e-23,0.0056153856
2.8972887,0.0057484688,0.0026228087,-1.9288058e-22,0.0056225601,1.3311961e-23,0.0056855213
2.9021128,0.0058161332,0.002668202,-7.0113486e-24,0.0056951151,-2.9604436e-23,0.0057556147
2.9067851,0.0058832523,0.0027081867,4.6786768e-22,0.0057675636,3.5836444e-24,0.0058253891
2.9113102,0.0059496091,0.0027404806,-6.3842592e-23,0.005839779,4.855733e-23,0.005894693
2.915693,0.0060151067,0.0027723622,-5.9030729e-22,0.0059111145,-1.0908323e-23,0.0059631207
2.9199378,0.006079079,0.0028034681,1.288432e-22,0.005980698,-6.5757656e-23,0.0060298942
2.924049,0.0061406716,0.0028333952,7.6258007e-22,0.0060476177,-8.9194448e-24,0.0060941468
2.9280309,0.0061990607,0.0028617741,3.2101372e-22,0.0061111025,2.5329855e-23,0.0061550816
2.9318874,0.0062535472,0.0028882998,2.2441358e-22,0.0061705358,-6.5355831e-25,0.0062120408
2.9356225,0.0063035935,0.0029127387,3.1667803e-22,0.0062254472,1.1649048e-23,0.0062645196
2.93924,0.0063488115,0.0029349212,1.374368e-23,0.0062754968,3.2675919e-23,0.0063121524
2.9427437,0.0063889342,0.0029547328,-2.9083611e-22,0.0063204539,2.1597746e-23,0.0063546923
2.9461371,0.0064237941,0.0029720984,-3.8128047e-22,0.0063601623,-1.5826348e-23,0.0063919774
2.9494237,0.0064533021,0.0029869735,-1.2804655e-23,0.0063945225,-3.6490299e-23,0.0064239115
2.9526069,0.0064774273,0.0029993399,2.6802205e-22,0.0064234848,-1.142133e-23,0.0064504557
2.9556899,0.0064961831,0.0030091969,1.9073234e-22,0.0064470328,1.2871204e-23,0.0064716083
2.9586758,0.0065096125,0.0030165564,4.5564191e-23,0.0064651781,2.4607628e-23,0.0064873953
2.9615678,0.0065177703,0.0030214398,-2.1654559e-22,0.0064779545,4.8310353e-24,0.0064978623
2.9643687,0.0065207238,0.0030238746,-4.5069405e-23,0.0064854126,-2.3066015e-23,0.0065030682
2.9670815,0.0065185463,0.0030238923,1.5430355e-22,0.0064876141,-4.8255504e-24,0.0065030803
2.9697089,0.0065113119,0.003021526,3.7280316e-23,0.0064846275,9.5203888e-24,0.0064979698
2.9722536,0.0064990909,0.003016809,1.3807753e-24,0.0064765249,7.422499e-24,0.0064878076
2.9747182,0.0064819506,0.0030097746,-7.3470272e-23,0.0064633827,3.0123265e-24,0.0064726653
2.9771053,0.0064599582,0.0030004557,-4.5714282e-23,0.0064452762,-2.6927487e-24,0.0064526131
2.9794172,0.0064331861,0.0029888833,-3.1080268e-23,0.0064222631,-5.2820247e-25,0.0064277175
2.9816563,0.0064017244,0.0029750838,-3.6312451e-23,0.0063943454,3.7531061e-24,0.0063980355
2.983825,0.0063656914,0.0029588223,-7.9763255e-23,0.0063614768,2.0716803e-24,0.0063635972
2.9859254,0.0063251477,0.0029393038,-6.4143719e-23,0.0063235957,-6.5424416e-24,0.0063243786
2.9879597,0.0062799872,0.0029171179,9.0691198e-24,0.0062806352,-3.9507956e-25,0.0062803058
2.98993,0.0062300182,0.0028931915,-4.9121421e-23,0.0062325404,3.3116091e-24,0.0062312749
2.9918382,0.0061750725,0.0028672254,-3.3712889e-23,0.0061792361,-4.0984426e-24,0.0061771539
2.9936864,0.0061149864,0.0028390971,2.8118637e-24,0.0061205793,-4.0746415e-24,0.006117783
2.9954764,0.0060495654,0.0028087264,1.5711739e-23,0.0060563769,-2.3593411e-24,0.0060529711
2.9972101,0.0059785801,0.0027760132,2.7634907e-23,0.0059864057,-2.8572333e-24,0.0059824929
2.9988893,0.005901762,0.0027408308,4.3008342e-23,0.0059104064,-9.6302762e-26,0.0059060842
3.0005155,0.005818799,0.0027030235,2.6788977e-23,0.0058280768,4.6743984e-24,0.0058234379
3.0020906,0.0057293314,0.0026624046,-6.595992e-24,0.005739066,5.022488e-24,0.0057341996
3.0036161,0.0056329473,0.0026187587,-2.3049667e-23,0.0056429755,2.4418535e-24,0.0056379628
3.0050936,0.0055291717,0.0025721169,-2.7634715e-23,0.0055393589,-3.688602e-24,0.005534264
3.0065246,0.0054174173,0.0025213057,9.4501724e-24,0.0054276592,-2.6867262e-24,0.0054225353
3.0079106,0.0052969863,0.0024654682,5.3311672e-27,0.0053071859,1.6946782e-24,0.005302086
3.0092529,0.0051671346,0.0024050549,-5.0039018e-24,0.0051771777,-1.3337132e-24,0.0051721578
3.010553,0.005027078,0.0023398675,8.3980909e-24,0.005036834,-9.6776123e-25,0.0050319567
3.0118121,0.0048759895,0.0022695144,3.0231833e-24,0.0048853348,3.0085112e-25,0.0048806624
3.0130317,0.0047130259,0.0021936104,4.4966142e-24,0.004721859,-4.5967333e-25,0.0047174425
3.0142128,0.0045373574,0.0021117851,4.9237421e-24,0.004545601,1.5415074e-24,0.0045414792
3.0153568,0.004348204,0.0020236782,-4.2918479e-24,0.0043558018,8.185914e-25,0.004352003
3.0164647,0.0041448646,0.0019289668,-9.0192124e-25,0.0041517796,-9.400086e-25,0.0041483223
3.0175378,0.0039266673,0.0018257672,1.1632652e-24,0.0039328742,-3.2113908e-25,0.0039297708
3.0185772,0.0036929634,0.001711775,5.9646171e-25,0.0036984477,-1.2030839e-24,0.0036957057
3.0195838,0.0034434039,0.0015873935,5.0892349e-24,0.0034481699,-8.3370429e-25,0.0034457869
3.0205587,0.0031782658,0.0014534307,3.4344709e-24,0.0031823354,1.0095895e-24,0.0031803007
3.0215029,0.0028986651,0.0013101065,3.1266508e-25,0.0029020724,1.0981839e-24,0.0029003687
3.0224174,0.0026068102,0.0011586728,-9.4417218e-25,0.0026096007,-4.5965182e-26,0.0026082055
3.0233032,0.0023062837,0.0010014784,1.7579609e-25,0.0023085128,-4.9871098e-25,0.0023073983
3.024161,0.0020022314,0.00084218454,5.7177457e-25,0.0020039626,9.0158379e-26,0.002003097
3.0249919,0.0017013337,0.0006857586,-1.5416945e-26,0.0017026363,1.8735591e-25,0.001701985
3.0257966,0.0014114239,0.0005380853,-5.6902904e-26,0.00141237,-2.2598605e-25,0.0014118969
3.026576,0.0011406847,0.00040510934,3.0409431e-25,0.0011413457,-9.3086303e-26,0.0011410152
3.0273308,0.00089651833,0.00029166018,1.1656897e-25,0.00089696092,1.7706286e-25,0.00089673959
3.0280619,0.00068438635,0.00020038382,-7.1642663e-26,0.00068466972,9.5088083e-26,0.00068452803
3.02877,0.00050701208,0.00013126661,-5.4778458e-26,0.0005071851,-9.8137771e-27,0.00050709859
3.0294558,0.00036421812,8.196875e-05,-1.9269611e-26,0.00036431862,-3.056151e-26,0.00036426837
3.03012,0.00025339512,4.8751655e-05,5.9899184e-27,0.00025345047,-1.3599384e-26,0.0002534228
3.0307633,0.00017034716,2.7527008e-05,3.9922296e-27,0.00017037587,2.8967973e-27,0.00017036152
3.0313863,0.00011018896,1.4632342e-05,8.1289453e-29,0.00011020283,4.035686e-27,0.00011019589
3.0319898,6.8066379e-05,7.1967234e-06,-1.0560333e-27,6.8072489e-05,8.8814471e-28,6.8069434e-05
3.0325742,3.962109e-05,3.1736851e-06,-3.2624373e-28,3.962346e-05,-3.8136435e-28,3.9622275e-05
3.0331403,2.1222849e-05,1.1913263e-06,-3.6429369e-29,2.1223613e-05,-2.5597355e-28,2.1223231e-05
3.0336885,1.0023907e-05,3.5151473e-07,1.1518025e-29,1.0024094e-05,-8.3822579e-29,1.0024e-05
3.0342195,3.8763645e-06,7.249148e-08,6.7626484e-30,3.8763952e-06,7.6795031e-30,3.8763798e-06
3.0347338,1.1515104e-06,8.9053858e-09,-2.0560735e-31,1.1515131e-06,1.0268633e-30,1.1515117e-06
3.0352319,8.2771226e-07,8.3616824e-10,1.5552374e-32,8.2771237e-07,4.1253945e-32,8.2771232e-07
3.0357122,3.5941974e-09,3.5638568e-12,6.6299682e-35,3.5941979e-09,1.7605171e-34,3.5941977e-09
