1.001 	0.00108853 	-2.44948e-06 	-4.92635e-25
1.00305 	0.00339968 	-9.05459e-06 	-2.66321e-26
1.00519 	0.0059936 	-1.77981e-05 	-4.53513e-24
1.00743 	0.00883716 	-2.49846e-05 	1.48186e-23
1.00978 	0.0117554 	-2.58016e-05 	6.40392e-24
1.01224 	0.0144778 	-1.67625e-05 	-5.93835e-23
1.01481 	0.0167882 	2.74466e-06 	-4.56139e-23
1.0175 	0.0186112 	3.07816e-05 	4.28835e-25
1.02032 	0.0199793 	6.42232e-05 	7.91682e-24
1.02326 	0.0209797 	0.000100199 	2.49383e-23
1.02634 	0.0217138 	0.000136933 	1.52061e-23
1.02956 	0.0222679 	0.000173639 	-6.13866e-24
1.03293 	0.0227021 	0.000210045 	-4.26307e-24
1.03645 	0.0230551 	0.000246087 	-4.50049e-25
1.04013 	0.0233511 	0.00028178 	4.43837e-25
1.04398 	0.0236056 	0.000317181 	2.83172e-25
1.048 	0.0238288 	0.000352354 	-4.70442e-25
1.0522 	0.0240277 	0.000387365 	1.57356e-24
1.05659 	0.0242074 	0.00042227 	3.35347e-24
1.06118 	0.0243715 	0.000457117 	3.67374e-24
1.06596 	0.0245228 	0.000491942 	-2.92142e-24
1.07096 	0.0246633 	0.000526775 	-8.19515e-24
1.07618 	0.0247946 	0.000561635 	-1.62231e-24
1.08162 	0.0249182 	0.00059653 	3.9614e-24
1.0873 	0.0250349 	0.000631462 	1.82215e-24
1.09322 	0.0251457 	0.000666426 	-4.86511e-25
1.09939 	0.0252511 	0.000701406 	-1.80962e-25
1.10583 	0.0253518 	0.000736382 	5.36633e-26
1.11254 	0.0254482 	0.000771324 	5.38673e-26
1.11953 	0.0255407 	0.000806198 	-4.37133e-26
1.12681 	0.0256296 	0.00084096 	-1.28713e-25
1.13439 	0.0257152 	0.000875555 	-2.85187e-26
1.14228 	0.0257978 	0.000909922 	-1.91285e-26
1.15048 	0.0258774 	0.000943989 	3.143e-26
1.15902 	0.0259544 	0.000977677 	9.0918e-26
1.1679 	0.0260289 	0.0010109 	1.84583e-26
1.17712 	0.026101 	0.00104356 	-2.44637e-26
1.18671 	0.0261709 	0.00107556 	-2.68756e-26
1.19666 	0.0262386 	0.0011068 	-2.6695e-26
1.20699 	0.0263044 	0.00113716 	-1.37755e-28
1.2177 	0.0263684 	0.00116653 	2.12771e-26
1.22882 	0.0264306 	0.0011948 	2.3733e-26
1.24034 	0.0264914 	0.00122185 	2.01388e-26
1.25227 	0.0265507 	0.00124756 	-2.20893e-26
1.26462 	0.0266088 	0.00127182 	-2.66523e-26
1.27741 	0.0266658 	0.00129453 	8.842e-27
1.29064 	0.0267219 	0.00131558 	-1.06818e-26
1.3043 	0.0267773 	0.00133487 	-7.06308e-27
1.31843 	0.0268321 	0.00135231 	2.36494e-26
1.33301 	0.0268866 	0.00136781 	1.615e-27
1.34805 	0.0269409 	0.00138132 	-3.35295e-26
1.36356 	0.0269953 	0.00139276 	-1.19098e-26
1.37953 	0.0270499 	0.0014021 	1.39863e-26
1.39599 	0.027105 	0.00140929 	5.8831e-27
1.41291 	0.0271607 	0.00141431 	1.03687e-26
1.43032 	0.0272173 	0.00141717 	5.62666e-27
1.44819 	0.0272749 	0.00141787 	-1.11803e-26
1.46654 	0.0273337 	0.00141642 	-8.13952e-27
1.48537 	0.0273939 	0.00141287 	-9.39765e-29
1.50465 	0.0274557 	0.00140727 	4.01546e-27
1.5244 	0.0275192 	0.00139967 	1.12124e-26
1.54461 	0.0275844 	0.00139015 	-3.50129e-27
1.56526 	0.0276516 	0.00137879 	-3.78867e-26
1.58635 	0.0277208 	0.0013657 	-5.62288e-27
1.60787 	0.027792 	0.00135096 	5.2137e-26
1.6298 	0.0278653 	0.0013347 	2.18757e-26
1.65213 	0.0279407 	0.00131703 	-1.19567e-26
1.67485 	0.0280182 	0.00129805 	1.66328e-26
1.69794 	0.0280976 	0.00127791 	-6.90218e-27
1.72138 	0.028179 	0.00125671 	-7.28837e-26
1.74515 	0.0282622 	0.00123459 	-2.14627e-26
1.76923 	0.0283469 	0.00121166 	4.50332e-26
1.7936 	0.0284332 	0.00118803 	-1.75368e-27
1.81824 	0.0285206 	0.00116382 	-3.1475e-26
1.84312 	0.028609 	0.00113914 	-2.01355e-26
1.86822 	0.0286982 	0.00111407 	5.92143e-26
1.89351 	0.0287877 	0.00108871 	6.64293e-26
1.91896 	0.0288774 	0.00106315 	-1.03718e-25
1.94455 	0.0289669 	0.00103746 	-7.47857e-26
1.97025 	0.0290558 	0.00101171 	5.91811e-26
1.99603 	0.0291439 	0.000985953 	5.60691e-26
2.02185 	0.0292307 	0.000960239 	6.31124e-26
2.0477 	0.029316 	0.000934618 	2.77548e-26
2.07354 	0.0293994 	0.000909128 	-3.42956e-26
2.09934 	0.0294806 	0.000883798 	-2.9735e-26
2.12507 	0.0295593 	0.000858655 	1.11602e-26
2.1507 	0.0296352 	0.000833724 	2.95716e-26
2.17621 	0.029708 	0.000809022 	-3.75974e-26
2.20157 	0.0297777 	0.000784566 	-4.9973e-26
2.22674 	0.0298438 	0.000760371 	1.73547e-26
2.25171 	0.0299063 	0.000736448 	2.32535e-27
2.27644 	0.0299649 	0.000712808 	-1.23118e-26
2.30092 	0.0300196 	0.000689461 	2.44745e-26
2.32512 	0.0300703 	0.000666417 	3.26023e-26
2.34901 	0.0301168 	0.000643685 	7.43826e-27
2.37258 	0.0301591 	0.000621272 	-1.48943e-26
2.39581 	0.0301971 	0.000599188 	-1.51872e-26
2.41867 	0.0302308 	0.000577439 	-8.45768e-27
2.44115 	0.0302601 	0.000556035 	-2.80755e-27
2.46324 	0.030285 	0.000534981 	8.2883e-28
2.48492 	0.0303056 	0.000514285 	1.67017e-27
2.50617 	0.0303217 	0.000493952 	6.85664e-28
2.52699 	0.0303334 	0.00047399 	-6.92e-28
2.54737 	0.0303405 	0.000454401 	-1.77348e-28
2.5673 	0.0303431 	0.000435191 	1.10977e-27
2.58677 	0.0303412 	0.000416361 	1.27667e-28
2.60577 	0.0303345 	0.000397914 	-7.31327e-28
2.6243 	0.0303231 	0.00037985 	-1.64858e-28
2.64236 	0.0303069 	0.000362168 	-4.75794e-28
2.65995 	0.0302857 	0.000344866 	-2.10512e-29
2.67706 	0.0302593 	0.00032794 	2.66957e-28
2.69369 	0.0302276 	0.000311387 	-4.34313e-30
2.70985 	0.0301904 	0.000295198 	4.44411e-28
2.72554 	0.0301474 	0.000279366 	-4.30992e-29
2.74076 	0.0300984 	0.000263882 	-1.16547e-28
2.75552 	0.0300431 	0.000248735 	6.3465e-28
2.76982 	0.0299812 	0.000233914 	2.82298e-28
2.78366 	0.0299122 	0.000219406 	-4.3988e-28
2.79706 	0.0298358 	0.000205198 	-9.67375e-29
2.81001 	0.0297516 	0.000191275 	4.29682e-28
2.82253 	0.0296591 	0.000177624 	-5.40495e-28
2.83463 	0.0295578 	0.000164231 	-1.19588e-27
2.8463 	0.0294471 	0.000151083 	-2.26394e-27
2.85757 	0.0293263 	0.000138169 	-6.03296e-27
2.86844 	0.0291948 	0.00012548 	3.89271e-27
2.87892 	0.0290517 	0.000113007 	1.48232e-26
2.88901 	0.0288959 	0.000100748 	-3.11508e-27
2.89874 	0.0287262 	8.87042e-05 	-1.16172e-26
2.9081 	0.0285411 	7.68845e-05 	4.80666e-27
2.91711 	0.0283383 	6.53038e-05 	-3.10748e-27
2.92578 	0.0281152 	5.39864e-05 	9.86276e-27
2.93411 	0.027868 	4.29689e-05 	1.911e-26
2.94212 	0.0275914 	3.23031e-05 	-1.98532e-26
2.94982 	0.0272779 	2.20617e-05 	-1.60522e-26
2.95721 	0.026917 	1.23463e-05 	6.97607e-27
2.96431 	0.0264934 	3.29661e-06 	1.5859e-26
2.97113 	0.0259856 	-4.9001e-06 	-5.43486e-27
2.97767 	0.0253643 	-1.20076e-05 	-2.22035e-26
2.98394 	0.0245918 	-1.77554e-05 	7.22568e-27
2.98996 	0.0236222 	-2.18777e-05 	1.39566e-26
2.99573 	0.0224024 	-2.41691e-05 	1.37803e-27
3.00126 	0.0208729 	-2.45266e-05 	-2.63229e-27
3.00657 	0.0189722 	-2.29685e-05 	-5.33681e-27
3.01165 	0.0166613 	-1.96999e-05 	-8.5968e-27
3.01651 	0.0139707 	-1.52279e-05 	-6.10477e-27
3.02117 	0.0110115 	-1.0343e-05 	4.62773e-27
3.02564 	0.00791349 	-5.88788e-06 	1.22507e-26
3.02991 	0.00476489 	-2.52735e-06 	3.99986e-27
3.034 	0.00159271 	-5.94002e-07 	-2.55885e-27
