0.00102579 	0.000311435 	-1.54279e-07 	-2.82457e-25
0.00322814 	0.000854716 	-1.37181e-06 	-3.62691e-25
0.00581393 	0.00121928 	-4.28527e-06 	-4.08941e-25
0.00789695 	0.00138866 	-7.23675e-06 	-6.84201e-25
0.00944146 	0.0014696 	-9.668e-06 	-7.39734e-25
0.0119756 	0.00157344 	-1.39662e-05 	-1.25969e-24
0.0154863 	0.00168233 	-2.03643e-05 	7.28902e-26
0.0192532 	0.00177524 	-2.7624e-05 	2.74753e-24
0.0232626 	0.00185887 	-3.56514e-05 	9.73598e-25
0.0275065 	0.00193667 	-4.43995e-05 	1.44721e-25
0.0319813 	0.00201069 	-5.3847e-05 	1.48435e-24
0.0366872 	0.00208227 	-6.39856e-05 	-2.89712e-24
0.0416269 	0.00215236 	-7.48149e-05 	-6.12494e-25
0.0468052 	0.00222171 	-8.6341e-05 	6.17359e-24
0.0522283 	0.00229089 	-9.85751e-05 	7.22069e-25
0.057904 	0.00236039 	-0.000111532 	-7.12028e-24
0.0638408 	0.00243063 	-0.000125228 	-9.18591e-24
0.0700481 	0.00250199 	-0.000139684 	-2.74213e-24
0.0765359 	0.00257482 	-0.00015492 	6.98282e-24
0.0833147 	0.00264945 	-0.000170959 	1.08391e-23
0.0903958 	0.00272619 	-0.000187824 	1.01916e-24
0.0977906 	0.00280535 	-0.000205536 	-9.62097e-24
0.105511 	0.00288724 	-0.00022412 	-5.49643e-24
0.11357 	0.00297218 	-0.000243599 	-1.66757e-24
0.121979 	0.00306048 	-0.000263994 	1.08056e-23
0.130752 	0.00315246 	-0.000285326 	1.73501e-23
0.139902 	0.00324847 	-0.000307617 	-1.24e-23
0.149443 	0.00334885 	-0.000330884 	-2.13281e-23
0.159388 	0.00345396 	-0.000355144 	-2.183e-24
0.169752 	0.00356419 	-0.000380409 	1.24033e-23
0.180549 	0.00367993 	-0.000406691 	1.85391e-23
0.191793 	0.00380159 	-0.000433998 	4.09753e-24
0.2035 	0.0039296 	-0.000462331 	-1.05632e-23
0.215683 	0.00406443 	-0.000491691 	-4.57308e-24
0.228358 	0.00420654 	-0.00052207 	9.89256e-24
0.24154 	0.00435641 	-0.000553456 	-2.44097e-23
0.255244 	0.00451458 	-0.00058583 	-4.06998e-23
0.269485 	0.00468155 	-0.000619163 	2.32115e-23
0.284277 	0.00485789 	-0.000653423 	3.18823e-23
0.299635 	0.00504416 	-0.000688564 	-1.70221e-23
0.315573 	0.00524093 	-0.000724534 	-1.34853e-23
0.332106 	0.0054488 	-0.000761266 	2.43258e-23
0.349247 	0.00566836 	-0.000798685 	3.29577e-23
0.36701 	0.00590022 	-0.000836701 	-1.67173e-23
0.385408 	0.00614498 	-0.000875213 	-2.86217e-23
0.404452 	0.00640323 	-0.000914104 	-2.1841e-23
0.424154 	0.00667555 	-0.000953242 	9.57947e-24
0.444525 	0.0069625 	-0.00099248 	6.46097e-23
0.465576 	0.00726461 	-0.00103166 	1.82866e-23
0.487314 	0.00758236 	-0.00107059 	-2.01057e-23
0.509747 	0.00791619 	-0.00110909 	-3.65266e-23
0.532883 	0.00826647 	-0.00114695 	-4.2984e-24
0.556727 	0.00863349 	-0.00118393 	1.22243e-22
0.581282 	0.00901744 	-0.0012198 	2.42742e-23
0.606552 	0.0094184 	-0.00125431 	-1.13698e-22
0.632537 	0.00983632 	-0.0012872 	-9.41717e-23
0.659237 	0.010271 	-0.00131819 	-3.99624e-23
0.686649 	0.0107222 	-0.00134703 	2.72754e-23
0.714769 	0.0111892 	-0.00137343 	8.02402e-23
0.74359 	0.0116714 	-0.00139715 	6.73162e-24
0.773106 	0.0121678 	-0.00141794 	3.62657e-23
0.803305 	0.0126771 	-0.00143556 	5.71539e-25
0.834175 	0.0131981 	-0.00144984 	1.20979e-23
0.865702 	0.0137291 	-0.00146059 	3.23477e-23
0.897869 	0.0142682 	-0.00146771 	-3.91936e-23
0.930657 	0.0148132 	-0.00147113 	-2.43962e-23
0.964045 	0.015362 	-0.00147084 	-1.11427e-23
0.998011 	0.0159122 	-0.00146689 	-5.39409e-23
1.03253 	0.0164611 	-0.00145939 	1.0308e-22
1.06757 	0.0170063 	-0.00144852 	-8.44875e-24
1.10311 	0.0175452 	-0.00143449 	7.52214e-23
1.13911 	0.0180753 	-0.0014176 	-3.70113e-23
1.17554 	0.0185945 	-0.00139814 	-1.84535e-22
1.21236 	0.0191005 	-0.00137648 	2.2084e-22
1.24955 	0.0195918 	-0.00135295 	1.60785e-22
1.28705 	0.0200667 	-0.00132791 	-1.31937e-22
1.32484 	0.0205242 	-0.00130169 	-1.6633e-22
1.36287 	0.0209636 	-0.00127461 	2.37158e-23
1.4011 	0.0213844 	-0.00124694 	1.14283e-22
1.43948 	0.0217864 	-0.00121892 	3.27176e-23
1.47798 	0.0221699 	-0.00119075 	4.22628e-23
1.51655 	0.0225352 	-0.00116257 	-1.00381e-22
1.55514 	0.0228827 	-0.00113451 	-4.51108e-23
1.59372 	0.023213 	-0.00110665 	-3.97201e-25
1.63224 	0.0235268 	-0.00107906 	-1.19431e-22
1.67066 	0.0238248 	-0.00105175 	7.45255e-24
1.70892 	0.0241077 	-0.00102476 	6.8303e-23
1.747 	0.0243762 	-0.00099809 	-6.10247e-23
1.78485 	0.0246309 	-0.000971729 	8.57107e-23
1.82243 	0.0248723 	-0.000945673 	-1.57361e-23
1.8597 	0.0251011 	-0.000919913 	-4.10888e-23
1.89663 	0.0253178 	-0.000894436 	-2.29958e-23
1.93317 	0.0255227 	-0.000869236 	-5.79524e-23
1.9693 	0.0257163 	-0.000844305 	5.27997e-23
2.00498 	0.025899 	-0.000819639 	5.24737e-24
2.04017 	0.026071 	-0.00079524 	-1.50449e-23
2.07486 	0.0262327 	-0.000771109 	2.8462e-23
2.10902 	0.0263844 	-0.000747253 	1.31365e-23
2.14261 	0.0265263 	-0.000723679 	-3.71114e-23
2.17562 	0.0266587 	-0.000700399 	-2.19079e-23
2.20803 	0.0267818 	-0.000677424 	2.296e-23
2.23981 	0.0268959 	-0.000654769 	7.63997e-23
2.27095 	0.0270012 	-0.000632447 	4.00605e-23
2.30144 	0.0270978 	-0.000610474 	-1.13566e-22
2.33126 	0.0271861 	-0.000588862 	1.32373e-23
2.3604 	0.0272663 	-0.000567626 	1.17573e-22
2.38885 	0.0273385 	-0.000546778 	-3.05527e-23
2.41662 	0.0274029 	-0.00052633 	-5.19218e-23
2.44368 	0.0274596 	-0.000506291 	-7.85389e-24
2.47004 	0.027509 	-0.000486669 	-2.57791e-23
2.4957 	0.0275509 	-0.000467469 	1.51378e-23
2.52065 	0.0275857 	-0.000448696 	1.3643e-23
2.54491 	0.0276133 	-0.000430352 	-4.44897e-23
2.56846 	0.0276338 	-0.000412434 	-3.00684e-24
2.59133 	0.0276471 	-0.000394938 	3.46586e-23
2.6135 	0.0276531 	-0.000377859 	-3.42222e-23
2.63499 	0.0276517 	-0.000361186 	-1.09192e-23
2.65581 	0.0276427 	-0.000344906 	4.79492e-23
2.67596 	0.0276256 	-0.000329002 	-3.23176e-23
2.69545 	0.0276001 	-0.000313452 	-3.79964e-24
2.7143 	0.0275653 	-0.000298232 	-5.291e-25
2.73252 	0.0275206 	-0.000283309 	-2.37892e-23
2.75011 	0.0274646 	-0.000268647 	2.07664e-23
2.7671 	0.027396 	-0.000254202 	3.86013e-23
2.78349 	0.0273128 	-0.000239922 	-5.09121e-24
2.79929 	0.0272126 	-0.00022575 	-1.91471e-23
2.81452 	0.0270923 	-0.000211617 	-1.98985e-24
2.8292 	0.0269478 	-0.000197451 	4.61585e-24
2.84334 	0.0267741 	-0.000183173 	1.80992e-25
2.85694 	0.0265649 	-0.000168712 	1.01845e-23
2.87004 	0.026313 	-0.000154012 	4.77693e-23
2.88263 	0.02601 	-0.000139056 	1.431e-23
2.89474 	0.0256475 	-0.00012389 	-1.63308e-23
2.90637 	0.0252178 	-0.00010865 	1.20853e-23
2.91755 	0.0247156 	-9.35696e-05 	-7.88212e-25
2.92828 	0.0241382 	-7.89629e-05 	-5.74709e-23
2.93857 	0.023486 	-6.51768e-05 	-2.8118e-23
2.94845 	0.0227612 	-5.25323e-05 	2.42814e-23
2.95791 	0.0219651 	-4.12753e-05 	2.75968e-24
2.96697 	0.0210957 	-3.15515e-05 	6.97237e-25
2.97563 	0.0201448 	-2.34049e-05 	-3.44342e-25
2.98389 	0.0190936 	-1.67903e-05 	-1.24169e-23
2.99176 	0.017907 	-1.15907e-05 	3.20412e-24
2.99923 	0.0165244 	-7.63401e-06 	3.08855e-23
3.00628 	0.014847 	-4.7156e-06 	7.24173e-24
3.01289 	0.0127345 	-2.63325e-06 	-1.90223e-23
3.01902 	0.010087 	-1.23613e-06 	-5.7953e-24
3.02273 	0.00817244 	-6.17432e-07 	-2.0238e-24
3.02539 	0.00659769 	-3.47581e-07 	-6.44422e-24
