0.00102579 	2.19239e-07 	7.88701e-09 	3.13363e-28 	2.19121e-07 	-3.12301e-29 	2.1918e-07
0.00227828 	5.6181e-07 	3.49249e-08 	-1.37181e-28 	5.61194e-07 	-8.33308e-29 	5.61487e-07
0.0035979 	1.206e-06 	1.35007e-07 	-4.12957e-27 	1.2034e-06 	-1.92281e-28 	1.20461e-06
0.00628381 	2.60159e-06 	4.40338e-07 	7.5754e-26 	2.59205e-06 	2.1122e-27 	2.59656e-06
0.0097908 	4.17189e-06 	8.364e-07 	3.35256e-25 	4.15334e-06 	2.33022e-26 	4.16227e-06
0.0138067 	5.32684e-06 	1.03194e-06 	-1.24742e-24 	5.30849e-06 	1.63673e-26 	5.31746e-06
0.0182759 	6.11703e-06 	1.01031e-06 	-1.24889e-24 	6.11404e-06 	-8.02067e-26 	6.11557e-06
0.0231526 	6.71217e-06 	8.97639e-07 	4.18866e-24 	6.73831e-06 	-8.17141e-26 	6.72545e-06
0.0284024 	7.20378e-06 	7.56261e-07 	4.51655e-24 	7.27032e-06 	-6.70713e-28 	7.23734e-06
0.0340013 	7.63399e-06 	6.02276e-07 	5.13418e-24 	7.75095e-06 	-1.18396e-25 	7.69281e-06
0.0399337 	8.02381e-06 	4.39465e-07 	6.52963e-24 	8.20079e-06 	2.5454e-26 	8.11269e-06
0.0461911 	8.38516e-06 	2.69311e-07 	-1.06475e-23 	8.63159e-06 	3.51963e-25 	8.5088e-06
0.0527704 	8.72549e-06 	9.26301e-08 	-1.64534e-23 	9.0508e-06 	-1.43298e-25 	8.88861e-06
0.0596722 	9.04989e-06 	-9.01188e-08 	1.30822e-23 	9.46349e-06 	-3.28469e-25 	9.25719e-06
0.0669001 	9.36207e-06 	-2.78715e-07 	-1.50939e-24 	9.87336e-06 	3.86015e-25 	9.61825e-06
0.0744602 	9.66485e-06 	-4.73145e-07 	-4.44099e-23 	1.02832e-05 	3.47561e-25 	9.97459e-06
0.0823599 	9.96048e-06 	-6.7355e-07 	-4.6604e-23 	1.06953e-05 	-3.63431e-25 	1.03285e-05
0.0906081 	1.02508e-05 	-8.80069e-07 	-8.47338e-24 	1.11115e-05 	-7.55436e-25 	1.06818e-05
0.0992145 	1.05374e-05 	-1.09285e-06 	1.05455e-22 	1.15334e-05 	3.33487e-25 	1.10361e-05
0.108189 	1.08216e-05 	-1.31234e-06 	2.15388e-23 	1.19624e-05 	1.12192e-24 	1.13927e-05
0.117544 	1.11047e-05 	-1.53895e-06 	1.84445e-23 	1.23997e-05 	-7.03903e-25 	1.17529e-05
0.127289 	1.13877e-05 	-1.77294e-06 	-8.60883e-23 	1.28464e-05 	-1.36385e-24 	1.21178e-05
0.137436 	1.16717e-05 	-2.01477e-06 	-5.39592e-23 	1.33036e-05 	-1.33811e-24 	1.24885e-05
0.147997 	1.19577e-05 	-2.26502e-06 	-1.58236e-23 	1.37723e-05 	-9.61198e-25 	1.28658e-05
0.158985 	1.22466e-05 	-2.52419e-06 	2.76336e-23 	1.42534e-05 	1.43888e-24 	1.32508e-05
0.17041 	1.25393e-05 	-2.79279e-06 	3.83324e-23 	1.47477e-05 	6.18479e-25 	1.36444e-05
0.182286 	1.28369e-05 	-3.0714e-06 	9.496e-24 	1.52562e-05 	1.80804e-25 	1.40475e-05
0.194623 	1.31403e-05 	-3.36055e-06 	-1.52875e-23 	1.57795e-05 	-1.332e-24 	1.44608e-05
0.207435 	1.34505e-05 	-3.66099e-06 	-1.06703e-22 	1.63185e-05 	-1.13425e-23 	1.48855e-05
0.220732 	1.37685e-05 	-3.97327e-06 	9.5804e-23 	1.68739e-05 	7.76448e-24 	1.53222e-05
0.234527 	1.40956e-05 	-4.29796e-06 	-3.29705e-23 	1.74463e-05 	-6.35893e-24 	1.57719e-05
0.248831 	1.44329e-05 	-4.63586e-06 	1.65264e-23 	1.80362e-05 	-2.90221e-24 	1.62356e-05
0.263656 	1.47818e-05 	-4.9875e-06 	3.55462e-23 	1.86442e-05 	4.64773e-24 	1.6714e-05
0.279011 	1.51437e-05 	-5.3535e-06 	5.01436e-23 	1.92705e-05 	1.35136e-23 	1.72082e-05
0.294908 	1.55203e-05 	-5.73452e-06 	1.12969e-23 	1.99154e-05 	6.46348e-24 	1.77189e-05
0.311357 	1.59133e-05 	-6.13107e-06 	-1.4031e-23 	2.05789e-05 	-3.02394e-24 	1.82471e-05
0.328368 	1.63246e-05 	-6.54369e-06 	-2.35992e-24 	2.12606e-05 	3.11986e-24 	1.87936e-05
0.34595 	1.67561e-05 	-6.97273e-06 	1.03506e-23 	2.19602e-05 	-3.99975e-23 	1.93592e-05
0.364111 	1.72102e-05 	-7.41845e-06 	-2.98828e-23 	2.26767e-05 	4.86586e-23 	1.99445e-05
0.38286 	1.76891e-05 	-7.8809e-06 	5.12732e-23 	2.34088e-05 	-3.62249e-23 	2.055e-05
0.402204 	1.81951e-05 	-8.35991e-06 	4.56593e-23 	2.41549e-05 	-2.58114e-23 	2.1176e-05
0.422149 	1.87302e-05 	-8.855e-06 	-5.17492e-23 	2.49125e-05 	2.90741e-23 	2.18223e-05
0.442701 	1.92961e-05 	-9.36527e-06 	-1.262e-23 	2.56783e-05 	8.90086e-24 	2.24882e-05
0.463865 	1.98943e-05 	-9.88936e-06 	5.29936e-23 	2.64482e-05 	-1.76421e-23 	2.31722e-05
0.485646 	2.05251e-05 	-1.04252e-05 	-2.87081e-22 	2.7217e-05 	9.20186e-23 	2.38719e-05
0.508046 	2.11882e-05 	-1.097e-05 	3.1667e-22 	2.79779e-05 	-9.67181e-23 	2.45839e-05
0.531067 	2.18816e-05 	-1.15201e-05 	-8.54174e-23 	2.87231e-05 	2.48363e-23 	2.53032e-05
0.554711 	2.26018e-05 	-1.20708e-05 	6.22285e-23 	2.94433e-05 	-1.47832e-23 	2.60232e-05
0.578978 	2.33434e-05 	-1.26164e-05 	4.14961e-23 	3.01267e-05 	-9.35329e-24 	2.67357e-05
0.603865 	2.40989e-05 	-1.31498e-05 	-5.573e-22 	3.07609e-05 	1.25396e-22 	2.74306e-05
0.629372 	2.48583e-05 	-1.36624e-05 	4.85117e-22 	3.13322e-05 	-1.07589e-22 	2.80958e-05
0.655494 	2.561e-05 	-1.41448e-05 	-5.97958e-22 	3.18252e-05 	1.21538e-22 	2.87181e-05
0.682226 	2.63398e-05 	-1.4586e-05 	7.48206e-22 	3.22245e-05 	-1.47701e-22 	2.92826e-05
0.709562 	2.70315e-05 	-1.49747e-05 	-9.51259e-22 	3.25145e-05 	1.7533e-22 	2.97734e-05
0.737495 	2.76698e-05 	-1.52979e-05 	1.01524e-21 	3.26824e-05 	-1.86469e-22 	3.01763e-05
0.766016 	2.82387e-05 	-1.55446e-05 	2.78881e-22 	3.27186e-05 	-4.2108e-23 	3.04789e-05
0.795114 	2.87245e-05 	-1.5704e-05 	1.1309e-22 	3.26174e-05 	-1.00854e-23 	3.06711e-05
0.824778 	2.91157e-05 	-1.57645e-05 	-8.96931e-22 	3.23787e-05 	1.36494e-22 	3.07473e-05
0.854995 	2.94038e-05 	-1.57206e-05 	1.50225e-21 	3.20089e-05 	-2.15572e-22 	3.07063e-05
0.88575 	2.95834e-05 	-1.55713e-05 	-1.51747e-21 	3.15199e-05 	2.24836e-22 	3.05518e-05
0.917028 	2.96565e-05 	-1.53166e-05 	-9.84584e-22 	3.09297e-05 	1.2061e-22 	3.02931e-05
0.948812 	2.96268e-05 	-1.49627e-05 	5.86293e-22 	3.02606e-05 	-8.57824e-23 	2.99438e-05
0.981083 	2.9504e-05 	-1.4523e-05 	7.59921e-22 	2.95372e-05 	-8.85046e-23 	2.95208e-05
1.01382 	2.93008e-05 	-1.40117e-05 	-9.38634e-22 	2.8785e-05 	1.0266e-22 	2.9043e-05
1.047 	2.90314e-05 	-1.34478e-05 	2.16089e-21 	2.8028e-05 	-2.34866e-22 	2.85295e-05
1.08061 	2.87095e-05 	-1.2853e-05 	-1.26235e-21 	2.72858e-05 	1.3879e-22 	2.79979e-05
1.11462 	2.83517e-05 	-1.22451e-05 	1.38468e-21 	2.65737e-05 	-1.31154e-22 	2.7463e-05
1.149 	2.79709e-05 	-1.16417e-05 	-2.46338e-21 	2.59021e-05 	2.34333e-22 	2.69365e-05
1.18372 	2.75772e-05 	-1.106e-05 	2.21764e-21 	2.5275e-05 	-2.09686e-22 	2.6426e-05
1.21877 	2.71791e-05 	-1.0512e-05 	1.28004e-22 	2.46926e-05 	3.80558e-24 	2.59358e-05
1.25411 	2.67806e-05 	-1.00034e-05 	-1.14347e-21 	2.41523e-05 	1.01502e-22 	2.5467e-05
1.28971 	2.63886e-05 	-9.53903e-06 	-1.02481e-21 	2.3648e-05 	7.15492e-23 	2.50185e-05
1.32555 	2.60022e-05 	-9.12101e-06 	2.77687e-21 	2.31726e-05 	-2.10905e-22 	2.45873e-05
1.36158 	2.56204e-05 	-8.74684e-06 	-1.9774e-21 	2.27188e-05 	1.58392e-22 	2.417e-05
1.39779 	2.5245e-05 	-8.41276e-06 	-1.49313e-22 	2.22799e-05 	4.59149e-24 	2.37623e-05
1.43413 	2.48711e-05 	-8.11552e-06 	4.95773e-22 	2.18495e-05 	-3.12939e-23 	2.33602e-05
1.47057 	2.44973e-05 	-7.84901e-06 	-1.17509e-21 	2.14223e-05 	7.71403e-23 	2.296e-05
1.50709 	2.41223e-05 	-7.60707e-06 	1.05572e-21 	2.09942e-05 	-7.19627e-23 	2.25586e-05
1.54363 	2.37432e-05 	-7.38439e-06 	1.54399e-22 	2.05622e-05 	-9.10585e-24 	2.21533e-05
1.58018 	2.3359e-05 	-7.17589e-06 	1.17534e-21 	2.01243e-05 	-6.01797e-23 	2.17421e-05
1.61669 	2.29686e-05 	-6.97836e-06 	-3.12173e-21 	1.96794e-05 	1.77025e-22 	2.13239e-05
1.65314 	2.25688e-05 	-6.78745e-06 	2.94819e-21 	1.92273e-05 	-1.66053e-22 	2.08979e-05
1.68948 	2.21593e-05 	-6.6008e-06 	-2.85669e-21 	1.8768e-05 	1.61981e-22 	2.0464e-05
1.72569 	2.17421e-05 	-6.41388e-06 	1.44287e-22 	1.83024e-05 	-1.99718e-23 	2.00222e-05
1.76172 	2.13149e-05 	-6.22529e-06 	1.65177e-21 	1.78315e-05 	-9.03932e-23 	1.95732e-05
1.79755 	2.08788e-05 	-6.03712e-06 	2.64313e-21 	1.73565e-05 	-1.13349e-22 	1.91181e-05
1.83314 	2.04359e-05 	-5.8433e-06 	-3.94586e-21 	1.68792e-05 	1.9244e-22 	1.86578e-05
1.86846 	1.99868e-05 	-5.64472e-06 	5.24855e-22 	1.64013e-05 	-3.8056e-23 	1.81938e-05
1.90347 	1.95313e-05 	-5.44219e-06 	2.06269e-21 	1.5924e-05 	-8.64405e-23 	1.77274e-05
1.93816 	1.90711e-05 	-5.23634e-06 	-9.18681e-22 	1.54493e-05 	4.60902e-23 	1.72604e-05
1.97249 	1.86094e-05 	-5.02538e-06 	-5.11822e-22 	1.49791e-05 	1.93306e-23 	1.6794e-05
2.00642 	1.81452e-05 	-4.81015e-06 	1.98643e-22 	1.45144e-05 	-3.74338e-24 	1.63299e-05
2.03994 	1.76819e-05 	-4.59097e-06 	-2.12745e-21 	1.40569e-05 	7.65766e-23 	1.58695e-05
2.07301 	1.7221e-05 	-4.36864e-06 	1.7172e-21 	1.36083e-05 	-6.65628e-23 	1.54144e-05
2.10562 	1.67624e-05 	-4.1445e-06 	-6.50597e-22 	1.31696e-05 	2.4996e-23 	1.49657e-05
2.13774 	1.63084e-05 	-3.91714e-06 	5.62114e-22 	1.27418e-05 	-2.34042e-23 	1.45248e-05
2.16934 	1.58591e-05 	-3.68879e-06 	1.29908e-21 	1.23261e-05 	-3.49794e-23 	1.40926e-05
2.20042 	1.54166e-05 	-3.45994e-06 	-2.50748e-21 	1.19234e-05 	7.89412e-23 	1.36701e-05
2.23094 	1.49822e-05 	-3.23185e-06 	9.3183e-22 	1.15342e-05 	-3.42729e-23 	1.32582e-05
2.2609 	1.45558e-05 	-3.00309e-06 	1.18569e-22 	1.11594e-05 	-6.04009e-24 	1.28574e-05
2.29028 	1.41378e-05 	-2.77515e-06 	1.8567e-21 	1.07993e-05 	-4.64485e-23 	1.24685e-05
2.31906 	1.37295e-05 	-2.55091e-06 	-1.75534e-21 	1.04542e-05 	5.50023e-23 	1.20918e-05
2.34723 	1.33308e-05 	-2.32822e-06 	-1.53074e-21 	1.01243e-05 	3.42889e-23 	1.17274e-05
2.37479 	1.29418e-05 	-2.10677e-06 	1.04192e-22 	9.80964e-06 	-7.76506e-24 	1.13756e-05
2.40172 	1.25627e-05 	-1.89013e-06 	1.27725e-22 	9.51019e-06 	-5.46429e-24 	1.10365e-05
2.42802 	1.21939e-05 	-1.67798e-06 	4.83832e-22 	9.22579e-06 	-1.5739e-23 	1.07099e-05
2.45368 	1.18352e-05 	-1.46947e-06 	1.72012e-21 	8.95615e-06 	-3.42373e-23 	1.03957e-05
2.47869 	1.14867e-05 	-1.26568e-06 	-7.4098e-22 	8.70095e-06 	2.06615e-23 	1.00938e-05
2.50307 	1.11478e-05 	-1.06705e-06 	-6.11723e-22 	8.45974e-06 	9.43689e-24 	9.80375e-06
2.5268 	1.08186e-05 	-8.73314e-07 	3.74071e-22 	8.23198e-06 	-1.03405e-23 	9.52528e-06
2.54988 	1.0499e-05 	-6.85176e-07 	6.58595e-22 	8.0171e-06 	-1.07823e-23 	9.25798e-06
2.57232 	1.01884e-05 	-5.0392e-07 	-8.65611e-23 	7.81455e-06 	4.30176e-24 	9.00151e-06
2.59412 	9.88725e-06 	-3.28932e-07 	-3.6835e-22 	7.62364e-06 	6.8322e-24 	8.75541e-06
2.61529 	9.59487e-06 	-1.60049e-07 	-2.88024e-22 	7.44368e-06 	1.94436e-24 	8.51924e-06
2.63582 	9.31116e-06 	2.42127e-09 	5.3355e-22 	7.27394e-06 	-8.96771e-24 	8.29254e-06
2.65573 	9.03601e-06 	1.58591e-07 	7.74395e-23 	7.11375e-06 	5.87914e-25 	8.07491e-06
2.67502 	8.76962e-06 	3.08006e-07 	-1.0822e-22 	6.96239e-06 	2.13929e-24 	7.86596e-06
2.6937 	8.5114e-06 	4.49685e-07 	-1.23087e-22 	6.81911e-06 	2.37604e-24 	7.66522e-06
2.71178 	8.26141e-06 	5.83925e-07 	-2.98782e-22 	6.68327e-06 	2.68816e-24 	7.47234e-06
2.72926 	8.01979e-06 	7.11961e-07 	1.96685e-22 	6.55425e-06 	-3.44465e-24 	7.28702e-06
2.74617 	7.78648e-06 	8.33217e-07 	8.07735e-23 	6.43143e-06 	-7.64085e-25 	7.10896e-06
2.7625 	7.56145e-06 	9.47488e-07 	8.95102e-23 	6.31424e-06 	-4.11176e-25 	6.93787e-06
2.77827 	7.34496e-06 	1.05462e-06 	-5.6197e-23 	6.20225e-06 	1.61371e-24 	6.7736e-06
2.79349 	7.13695e-06 	1.15524e-06 	-1.55496e-22 	6.09508e-06 	1.02847e-24 	6.61601e-06
2.80818 	6.93773e-06 	1.24973e-06 	4.89049e-23 	5.99247e-06 	-1.50543e-24 	6.4651e-06
2.82234 	6.74763e-06 	1.33767e-06 	9.50218e-23 	5.89432e-06 	-5.52158e-25 	6.32097e-06
2.83599 	6.56707e-06 	1.41999e-06 	-1.6845e-23 	5.80068e-06 	6.28079e-25 	6.18386e-06
2.84914 	6.39664e-06 	1.49733e-06 	-2.10909e-23 	5.71185e-06 	1.46791e-26 	6.05424e-06
2.8618 	6.23728e-06 	1.57026e-06 	1.52053e-23 	5.62847e-06 	-3.87181e-26 	5.93287e-06
2.87399 	6.09022e-06 	1.63948e-06 	-1.52927e-23 	5.55158e-06 	4.20172e-25 	5.82089e-06
2.88571 	5.95714e-06 	1.70552e-06 	-3.06814e-23 	5.48279e-06 	-3.27718e-28 	5.71998e-06
2.89699 	5.84063e-06 	1.76945e-06 	9.67166e-24 	5.42456e-06 	-2.66602e-25 	5.63261e-06
2.90784 	5.74417e-06 	1.83193e-06 	6.9268e-24 	5.38039e-06 	8.75926e-26 	5.56229e-06
2.91826 	5.67255e-06 	1.89302e-06 	-4.3783e-24 	5.35523e-06 	6.45646e-26 	5.5139e-06
2.92827 	5.63203e-06 	1.95227e-06 	-2.26895e-24 	5.35557e-06 	-3.47645e-26 	5.49382e-06
2.93788 	5.62976e-06 	2.0087e-06 	5.10591e-25 	5.38901e-06 	-9.21934e-27 	5.50941e-06
2.94711 	5.67178e-06 	2.06121e-06 	-7.05568e-26 	5.46226e-06 	-4.55994e-26 	5.56704e-06
2.95595 	5.75862e-06 	2.10899e-06 	1.57152e-24 	5.57685e-06 	-5.26896e-26 	5.66774e-06
2.96444 	5.87912e-06 	2.1496e-06 	1.21178e-24 	5.72297e-06 	-2.27724e-26 	5.80104e-06
2.97256 	6.00458e-06 	2.17454e-06 	1.32641e-24 	5.8735e-06 	-1.18238e-26 	5.93903e-06
2.98034 	6.08543e-06 	2.16606e-06 	1.3261e-24 	5.98019e-06 	1.10818e-25 	6.03278e-06
2.98777 	6.04867e-06 	2.0959e-06 	-1.32261e-24 	5.97044e-06 	1.12814e-25 	6.00951e-06
2.99486 	5.79191e-06 	1.92423e-06 	-1.69115e-24 	5.74074e-06 	-5.02125e-26 	5.76626e-06
3.00161 	5.17844e-06 	1.60014e-06 	-1.1469e-25 	5.15139e-06 	-7.91761e-26 	5.16485e-06
3.00801 	4.09226e-06 	1.09926e-06 	2.85059e-25 	4.08224e-06 	-3.6454e-27 	4.08724e-06
3.01404 	2.66279e-06 	5.48376e-07 	3.33922e-26 	2.66082e-06 	1.21773e-26 	2.66184e-06
3.0197 	1.35013e-06 	1.76575e-07 	-8.74864e-27 	1.3501e-06 	5.52342e-28 	1.35013e-06
3.02494 	5.22179e-07 	3.56024e-08 	2.00537e-28 	5.22217e-07 	-3.07521e-28 	5.22199e-07
3.0292 	1.72004e-07 	6.34875e-09 	7.3386e-29 	1.72009e-07 	1.31047e-29 	1.72007e-07
3.03147 	7.19827e-08 	1.98938e-09 	1.21818e-29 	7.19839e-08 	4.95734e-30 	7.19833e-08
