0 	0 	0 	0 	0 	0 	0
0.00048240845 	3.2730965e-08 	5.7700224e-12 	-1.1130568e-32 	3.2730914e-08 	-3.9612883e-33 	3.2730939e-08
0.00098049384 	4.5172587e-08 	5.5380363e-11 	3.0682499e-31 	4.5171595e-08 	9.0043965e-32 	4.517209e-08
0.0014947656 	1.7097857e-07 	4.6397152e-10 	-9.699158e-31 	1.7096701e-07 	-1.693306e-31 	1.7097279e-07
0.0020257498 	4.9203479e-07 	2.4139195e-09 	-1.7518268e-30 	4.9195834e-07 	-5.1811705e-30 	4.9199657e-07
0.0025739895 	1.1399675e-06 	9.1052961e-09 	-2.0420451e-30 	1.1396177e-06 	-5.8188603e-30 	1.1397926e-06
0.0031400454 	2.283438e-06 	2.7598944e-08 	-6.8795307e-30 	2.2821918e-06 	-5.4446338e-30 	2.2828149e-06
0.0037244966 	4.1311162e-06 	7.1575716e-08 	-2.5775399e-29 	4.1274042e-06 	1.5011412e-28 	4.1292602e-06
0.0043279408 	6.9368907e-06 	1.6528847e-07 	-3.9212381e-28 	6.9272199e-06 	3.9898592e-28 	6.9320554e-06
0.0049509953 	1.100609e-05 	3.4901687e-07 	5.0540246e-28 	1.0983374e-05 	-1.7753883e-28 	1.0994732e-05
0.0055942973 	1.6702347e-05 	6.8632533e-07 	2.5929569e-27 	1.6653217e-05 	-1.7529301e-27 	1.6677783e-05
0.0062585048 	2.4454702e-05 	1.2733299e-06 	-2.2778504e-27 	2.4355377e-05 	-1.1038081e-27 	2.440504e-05
0.0069442972 	3.4764243e-05 	2.2499326e-06 	-4.0077751e-27 	3.4574449e-05 	1.468566e-27 	3.4669347e-05
0.007652376 	4.8209001e-05 	3.8124775e-06 	-1.1464241e-27 	4.7863374e-05 	1.144452e-27 	4.8036189e-05
0.0083834654 	6.5445417e-05 	6.2264562e-06 	-1.7732685e-26 	6.4841845e-05 	6.2131214e-27 	6.5143632e-05
0.0091383131 	8.7204128e-05 	9.836661e-06 	9.9654416e-27 	8.61886e-05 	2.32665e-26 	8.6696365e-05
0.0099176913 	0.0001142768 	1.5070625e-05 	3.9948631e-26 	0.00011262471 	1.2579409e-26 	0.00011345076
0.010722397 	0.00014749061 	2.2429705e-05 	1.155208e-26 	0.00014488503 	-4.7931185e-27 	0.00014618783
0.011553254 	0.0001876677 	3.2461584e-05 	2.935694e-26 	0.00018367605 	1.2008597e-26 	0.00018567188
0.012411111 	0.00023556904 	4.5709533e-05 	2.9130866e-26 	0.00022962056 	5.9449015e-27 	0.00023259482
0.013296846 	0.00029182623 	6.2638593e-05 	4.9728167e-26 	0.00028319367 	-1.3486298e-25 	0.00028750999
0.014211364 	0.00035686977 	8.3546906e-05 	2.1648041e-25 	0.00034465909 	-2.3931958e-25 	0.00035076452
0.015155603 	0.00043086767 	0.0001084796 	1.9226269e-25 	0.00041401896 	7.972637e-26 	0.00042244346
0.016130526 	0.00051368951 	0.00013716855 	-4.7870236e-25 	0.0004909908 	4.8546919e-25 	0.00050234037
0.017137132 	0.00060490809 	0.00016901896 	-7.6341824e-25 	0.00057502097 	-2.2077627e-25 	0.00058996481
0.018176449 	0.00070384309 	0.00020315255 	-5.0921135e-26 	0.00066533665 	-1.0958251e-24 	0.0006845902
0.019249542 	0.00080963707 	0.00023849829 	2.0010684e-25 	0.00076102498 	-2.5291171e-25 	0.00078533139
0.020357507 	0.00092134458 	0.00027390811 	3.8501331e-25 	0.00086112027 	4.4553799e-26 	0.00089123281
0.021501477 	0.001038018 	0.00030827176 	2.311071e-25 	0.000964684 	1.4768197e-24 	0.0010013514
0.022682624 	0.0011587757 	0.00034060876 	1.1017464e-24 	0.0010708651 	2.0899256e-24 	0.0011148208
0.023902154 	0.0012828453 	0.00037012652 	-2.4181307e-24 	0.0011789349 	-3.1404921e-25 	0.0012308905
0.025161316 	0.0014095825 	0.00039624388 	-3.5333346e-24 	0.0012882988 	-1.6671507e-24 	0.0013489411
0.026461397 	0.0015384702 	0.00041858398 	7.8991503e-25 	0.0013984916 	-5.6171082e-26 	0.0014684814
0.027803728 	0.0016691059 	0.00043695117 	5.8647006e-24 	0.0015091624 	2.1174099e-24 	0.0015891347
0.02918968 	0.0018011848 	0.00045130059 	2.3955598e-24 	0.0016200553 	-6.9082613e-25 	0.0017106206
0.030620672 	0.0019344806 	0.00046170252 	2.4394795e-25 	0.0017309896 	-2.0049723e-24 	0.0018327356
0.032098167 	0.002068828 	0.00046830848 	3.1608997e-24 	0.0018418427 	-2.2071545e-24 	0.0019553359
0.033623676 	0.0022041086 	0.00047132219 	-7.8165262e-24 	0.0019525361 	-6.5360038e-25 	0.0020783229
0.03519876 	0.0023402389 	0.0004709747 	-5.3408741e-24 	0.0020630242 	-1.6080401e-24 	0.0022016321
0.03682503 	0.0024771612 	0.00046750675 	-1.0599722e-23 	0.0021732861 	-8.0296034e-24 	0.0023252243
0.03850415 	0.0026148375 	0.00046115692 	-3.0341795e-23 	0.0022833197 	2.1916885e-24 	0.0024490793
0.040237836 	0.0027532438 	0.00045215195 	-1.7222992e-23 	0.0023931367 	1.2025051e-23 	0.0025731911
0.042027862 	0.0028923663 	0.00044070218 	4.9944007e-24 	0.0025027598 	4.5333491e-24 	0.002697564
0.043876059 	0.0030321992 	0.00042699843 	-2.3261128e-25 	0.00261222 	1.2450264e-26 	0.0028222107
0.045784317 	0.0031727415 	0.00041121146 	-5.2521449e-24 	0.0027215549 	2.9976454e-25 	0.0029471495
0.047754588 	0.0033139964 	0.00039349304 	6.1865088e-24 	0.0028308073 	-4.818196e-24 	0.0030724033
0.049788888 	0.0034559688 	0.0003739755 	-1.3755023e-23 	0.0029400239 	-1.0318039e-23 	0.003197998
0.051889297 	0.0035986654 	0.00035277202 	-5.8544026e-23 	0.0030492547 	4.2974178e-24 	0.003323962
0.054057963 	0.0037420929 	0.00032998031 	-2.7267249e-23 	0.0031585528 	2.2488989e-23 	0.0034503251
0.056297104 	0.0038862578 	0.00030568575 	3.7771588e-23 	0.0032679732 	5.0689685e-24 	0.003577118
0.058609012 	0.0040311659 	0.00027995878 	1.3653235e-23 	0.0033775729 	-1.3551073e-23 	0.0037043722
0.06099605 	0.0041768217 	0.00025285686 	-1.1932125e-23 	0.00348741 	-8.7588179e-24 	0.003832119
0.06346066 	0.0043232279 	0.00022443001 	-2.7657982e-23 	0.0035975442 	-9.6189226e-25 	0.0039603897
0.066005363 	0.0044703851 	0.0001947181 	-4.5354797e-23 	0.0037080364 	1.5983114e-23 	0.004089215
0.068632762 	0.0046182913 	0.00016375143 	3.9596054e-23 	0.0038189491 	1.0478083e-23 	0.004218625
0.071345544 	0.0047669422 	0.00013155293 	4.7963451e-23 	0.0039303456 	-3.9633205e-25 	0.0043486491
0.074146484 	0.0049163301 	9.8138379e-05 	4.0091304e-23 	0.00404229 	-2.6840028e-25 	0.0044793157
0.077038447 	0.0050664448 	6.3518313e-05 	4.9162684e-23 	0.0041548474 	-1.3991741e-23 	0.0046106524
0.08002439 	0.0052172728 	2.7698009e-05 	6.2452756e-24 	0.0042680841 	-2.496947e-23 	0.0047426854
0.083107369 	0.0053687973 	-9.3230355e-06 	-6.9791816e-23 	0.0043820676 	-1.1628141e-24 	0.0048754403
0.086290535 	0.0055209984 	-4.7551723e-05 	-5.6963955e-23 	0.0044968668 	4.449751e-23 	0.0050089412
0.089577146 	0.0056738524 	-8.6998058e-05 	1.5747647e-22 	0.0046125512 	-1.1453683e-24 	0.0051432111
0.092970562 	0.0058273321 	-0.00012767659 	3.9656782e-23 	0.0047291916 	-3.9814871e-23 	0.005278272
0.096474255 	0.0059814068 	-0.00016960573 	-3.2876199e-23 	0.0048468603 	-5.3716361e-25 	0.0054141447
0.10009181 	0.0061360417 	-0.00021280794 	7.8721607e-23 	0.0049656308 	-2.2000073e-23 	0.0055508488
0.10382692 	0.0062911988 	-0.00025731004 	-1.5163024e-22 	0.0050855794 	-9.4139573e-24 	0.0056884027
0.10768342 	0.0064468359 	-0.00030314184 	-1.2420395e-22 	0.0052067827 	3.7748443e-23 	0.005826824
0.11166524 	0.0066029069 	-0.00035033812 	3.7217307e-23 	0.0053293182 	-3.4665797e-24 	0.0059661288
0.11577645 	0.0067593624 	-0.00039893354 	-1.2384057e-22 	0.0054532661 	-3.3384886e-23 	0.0061063321
0.12002127 	0.0069161486 	-0.00044896569 	-3.0598634e-22 	0.0055787082 	3.8114529e-23 	0.0062474479
0.12440404 	0.0070732072 	-0.00050048011 	-4.6942188e-23 	0.0057057269 	8.8564325e-23 	0.0063894886
0.12892923 	0.0072304757 	-0.00055352502 	3.3173971e-22 	0.0058344074 	1.6663706e-23 	0.0065324652
0.13360148 	0.0073878856 	-0.00060814795 	3.0503935e-22 	0.0059648369 	-3.8673843e-24 	0.0066763874
0.13842557 	0.0075453654 	-0.00066440081 	5.8670765e-22 	0.0060971023 	-5.0132909e-23 	0.0068212629
0.14340642 	0.0077028392 	-0.0007223437 	4.5044296e-22 	0.0062312914 	-1.0796952e-22 	0.0069670976
0.14854914 	0.0078602249 	-0.000782036 	2.4128212e-22 	0.0063674941 	-6.4040491e-23 	0.0071138956
0.15385898 	0.0080174368 	-0.0008435394 	3.1065445e-22 	0.0065058015 	1.2445947e-23 	0.0072616594
0.15934138 	0.0081743835 	-0.00090692238 	5.3686779e-22 	0.0066463061 	-4.6475366e-23 	0.0074103896
0.16500194 	0.0083309652 	-0.00097225231 	3.0404327e-22 	0.0067891042 	-1.0644863e-22 	0.0075600848
0.17084645 	0.0084870737 	-0.0010395962 	-1.0913882e-23 	0.006934299 	1.7670337e-23 	0.0077107421
0.17688089 	0.0086425918 	-0.001109026 	4.8481545e-22 	0.0070819987 	-5.648852e-23 	0.0078623573
0.18311143 	0.0087973986 	-0.0011806122 	-3.6508325e-23 	0.0072323153 	-1.401593e-22 	0.0080149265
0.18954445 	0.0089513699 	-0.0012544224 	-6.988414e-22 	0.0073853635 	-1.9945036e-24 	0.008168445
0.19618653 	0.0091043761 	-0.0013305338 	-6.8237171e-22 	0.0075412612 	2.0521719e-22 	0.0083229068
0.20304445 	0.0092562829 	-0.0014090221 	3.2029594e-22 	0.0077001295 	1.7434069e-22 	0.0084783052
0.21012524 	0.0094069493 	-0.0014899606 	1.2766031e-21 	0.0078620937 	-2.2752865e-22 	0.0086346328
0.21743614 	0.009556227 	-0.0015734282 	4.8932917e-23 	0.0080272849 	-1.8862764e-22 	0.0087918812
0.22498461 	0.0097039612 	-0.0016595009 	-1.670747e-22 	0.0081958414 	4.810448e-23 	0.0089500422
0.23277839 	0.0098499889 	-0.0017482562 	3.1337438e-22 	0.0083679089 	1.8515856e-24 	0.0091091071
0.24082545 	0.0099941392 	-0.0018397719 	3.4049053e-22 	0.0085436417 	-1.5073036e-22 	0.0092690679
0.24913402 	0.010136234 	-0.0019341217 	-3.2616358e-22 	0.0087232044 	-1.8007441e-22 	0.0094299182
0.25771259 	0.010276088 	-0.0020313777 	-1.5281824e-21 	0.0089067724 	2.0076912e-22 	0.0095916535
0.26656994 	0.010413512 	-0.0021316162 	-8.913814e-22 	0.0090945352 	4.0221313e-22 	0.0097542729
0.27571513 	0.010548307 	-0.0022349126 	1.6856629e-23 	0.0092866977 	-1.0658691e-23 	0.0099177807
0.28515751 	0.010680272 	-0.0023413356 	-1.2863222e-21 	0.0094834818 	5.0765541e-23 	0.010082187
0.29490674 	0.010809202 	-0.0024509535 	-1.439132e-21 	0.009685131 	3.8370209e-22 	0.010247511
0.3049728 	0.010934888 	-0.0025638396 	-3.7955384e-22 	0.0098919131 	2.0447877e-22 	0.010413783
0.31536597 	0.011057128 	-0.0026800643 	-3.3772435e-22 	0.010104126 	3.5710138e-22 	0.01058105
0.3260969 	0.011175722 	-0.0027996979 	-3.0792216e-22 	0.0103221 	3.3593828e-22 	0.010749379
0.33717655 	0.011290482 	-0.0029228195 	-6.393646e-22 	0.010546207 	-1.0255515e-22 	0.010918861
0.34861625 	0.011401247 	-0.0030495174 	1.1995692e-22 	0.010776865 	1.4107658e-23 	0.011089624
0.36042772 	0.01150788 	-0.0031798901 	1.7271811e-21 	0.011014548 	1.6087899e-22 	0.011261838
0.37262303 	0.011610287 	-0.003314055 	3.6952292e-21 	0.011259792 	-3.7739845e-22 	0.011435723
0.38521464 	0.011708439 	-0.0034521502 	2.0549165e-21 	0.011513201 	-7.6908351e-22 	0.011611568
0.39821546 	0.011802398 	-0.0035944088 	2.485004e-21 	0.011775469 	-1.7626781e-21 	0.011789749
0.41163876 	0.011892323 	-0.0037410591 	2.9196432e-21 	0.012047396 	-1.2957988e-21 	0.011970744
0.42549828 	0.011978538 	-0.0038923747 	-2.0509215e-21 	0.012329895 	8.7512801e-22 	0.012155178
0.4398082 	0.012061616 	-0.0040488281 	-2.0639383e-21 	0.012623999 	1.4646807e-21 	0.01234385
0.45458315 	0.012142448 	-0.0042110134 	7.1489179e-22 	0.012930868 	3.265769e-22 	0.012537783
0.46983824 	0.012222338 	-0.0043797012 	9.4741335e-23 	0.013251806 	-1.0703247e-21 	0.012738283
0.48558908 	0.012303171 	-0.0045559242 	-2.7973342e-22 	0.013588268 	-7.3319172e-22 	0.01294702
0.50185179 	0.01238763 	-0.0047410445 	3.8756488e-22 	0.013941858 	-5.5695341e-22 	0.013166135
0.50880893 	0.012425752 	-0.0048222096 	-5.7243971e-23 	0.014096225 	-1.0969946e-22 	0.013262417
0.51864298 	0.012479636 	-0.0049368654 	-6.6315393e-22 	0.014314313 	5.3112559e-22 	0.013398384
0.53597984 	0.012584482 	-0.0051456274 	-4.9843376e-22 	0.014707395 	5.7921173e-22 	0.013647298
0.5538801 	0.012709367 	-0.005370133 	-1.6754703e-22 	0.015122829 	-5.3326253e-22 	0.013917434
0.57236207 	0.012864311 	-0.0056137245 	-4.092927e-22 	0.015562098 	8.9608326e-22 	0.014214698
0.59144465 	0.013062868 	-0.005879457 	-5.8301856e-22 	0.016027292 	6.6340846e-22 	0.01454673
0.61114736 	0.013321314 	-0.0061686965 	-6.0603555e-22 	0.016522751 	-8.2497683e-22 	0.014922655
0.63149036 	0.013650651 	-0.006486671 	1.6220925e-22 	0.017048893 	-5.7417818e-22 	0.015351119
0.65249445 	0.01405232 	-0.0069011433 	4.8239778e-22 	0.017622001 	4.9515509e-22 	0.015839324
0.67418111 	0.014571146 	-0.0073526963 	1.1700411e-23 	0.018230057 	-7.648315e-23 	0.016400993
0.69657252 	0.01526201 	-0.0077518263 	5.8643432e-22 	0.018872539 	-1.1739693e-21 	0.01706883
0.7196916 	0.016135171 	-0.0081948113 	1.5652677e-21 	0.019617954 	-1.4247018e-22 	0.01787855
0.74356198 	0.017156398 	-0.0087550273 	5.0485897e-22 	0.020497362 	8.0410914e-22 	0.018826583
0.76820808 	0.018234631 	-0.0094270923 	-2.9057128e-21 	0.021471681 	2.6133167e-22 	0.019851445
0.79365511 	0.019249925 	-0.010172945 	-2.1239407e-21 	0.022452844 	1.3192808e-22 	0.020850484
0.8199291 	0.020114979 	-0.010933426 	-1.2117545e-21 	0.023328968 	2.8463436e-22 	0.021722325
0.84705692 	0.020805922 	-0.011663626 	-2.0203292e-21 	0.02402654 	5.3092315e-23 	0.02241191
0.87506632 	0.021328295 	-0.012342918 	-4.6654063e-22 	0.024498428 	-2.8729367e-22 	0.022909306
0.90398595 	0.021736665 	-0.01290029 	-3.1754374e-22 	0.024684207 	-1.543884e-22 	0.023214796
0.93384538 	0.022098862 	-0.01312557 	-7.9097332e-21 	0.024552709 	1.1096393e-21 	0.023325635
0.96467516 	0.022356486 	-0.012999227 	-1.4463774e-20 	0.024160118 	1.1701914e-21 	0.023249908
0.99650683 	0.022426774 	-0.012658896 	-1.6924269e-20 	0.023634322 	-9.5122304e-22 	0.02302311
1.0293729 	0.022337232 	-0.012150792 	1.6444622e-20 	0.023099449 	-3.1614125e-21 	0.022711654
1.0633071 	0.022166298 	-0.011548548 	4.8912947e-20 	0.022636877 	-1.3316639e-21 	0.02239436
1.098344 	0.021989828 	-0.010925638 	2.2369621e-20 	0.022290186 	7.9912753e-22 	0.022132467
1.1345196 	0.021853958 	-0.010334523 	3.196331e-20 	0.022064906 	1.4523111e-22 	0.021951733
1.1668571 	0.021780217 	-0.0098745391 	2.1857218e-21 	0.021952361 	1.7768125e-21 	0.021858459
1.1718726 	0.021768864 	-0.0098034257 	-2.4077992e-21 	0.021935205 	1.9995959e-21 	0.021844318
1.2104522 	0.0217176 	-0.0093419152 	-3.020788e-20 	0.021859452 	8.8110153e-22 	0.021781604
1.250285 	0.021673929 	-0.0089485661 	-2.088335e-21 	0.021794496 	-7.0402468e-22 	0.021728014
1.2914115 	0.021609135 	-0.008615984 	7.2228176e-22 	0.021703007 	-5.6328596e-22 	0.021650516
1.3338737 	0.021497411 	-0.0083334106 	2.7136176e-20 	0.021553542 	-5.0781995e-22 	0.021520554
1.3777151 	0.021318825 	-0.0080879561 	-9.4004959e-21 	0.02132091 	1.2468071e-21 	0.021315545
1.4229805 	0.02106085 	-0.0078644497 	-5.2142291e-20 	0.020988017 	1.1467379e-21 	0.021020711
1.4697159 	0.020716332 	-0.0076471033 	-2.5476742e-20 	0.020547682 	1.031707e-21 	0.020628702
1.5179692 	0.020283367 	-0.007424135 	-9.9041057e-20 	0.020008246 	2.913786e-21 	0.020142808
1.5662215 	0.019775399 	-0.0071947928 	-1.2479218e-19 	0.019395075 	1.2888648e-21 	0.019582806
1.6129542 	0.019219578 	-0.006962084 	-2.6785665e-20 	0.018735918 	-1.3631088e-21 	0.018975794
1.6582152 	0.018637531 	-0.0067215758 	1.3961785e-20 	0.018050944 	-3.4839266e-23 	0.018342548
1.7020508 	0.018041525 	-0.006469358 	-5.4143617e-20 	0.017356535 	1.6709498e-21 	0.017697621
1.7445059 	0.017440013 	-0.006206408 	-5.2040939e-20 	0.016665434 	1.6931885e-22 	0.017051594
1.785624 	0.016840007 	-0.0059348729 	-9.454183e-22 	0.015986785 	-7.724747e-22 	0.016412519
1.8070113 	0.016521974 	-0.0057858116 	2.3383807e-21 	0.015632685 	-9.6702851e-22 	0.016076562
1.8254639 	0.016247459 	-0.0056570613 	3.7010514e-21 	0.015327052 	-1.0276447e-21 	0.0157866
1.8640662 	0.015667507 	-0.0053754824 	6.9858749e-20 	0.014691333 	-1.3327821e-21 	0.015178971
1.9014509 	0.015104605 	-0.0050925749 	2.3469516e-20 	0.014083855 	-9.146656e-22 	0.014593979
1.9376564 	0.014561913 	-0.0048103342 	1.0326893e-19 	0.013507104 	-3.4895532e-21 	0.014034419
1.97272 	0.014041278 	-0.0045305332 	1.768328e-19 	0.012962072 	-2.321969e-21 	0.013501705
2.0066778 	0.013543547 	-0.0042547022 	8.1648805e-20 	0.012448675 	1.2523056e-21 	0.012996242
2.0395648 	0.013068988 	-0.0039841013 	-2.5845833e-20 	0.011966193 	1.8162864e-21 	0.012517802
2.0714147 	0.012617361 	-0.0037196598 	-5.3076398e-20 	0.011513425 	1.647441e-23 	0.012065651
2.1022603 	0.012188065 	-0.0034620614 	4.8766276e-21 	0.011088934 	1.2497177e-22 	0.011638793
2.1321334 	0.011780343 	-0.003211827 	-7.1126971e-20 	0.010691145 	1.5960074e-21 	0.011236068
2.1610646 	0.011393352 	-0.0029693109 	-6.2014473e-20 	0.010318425 	-7.4008232e-22 	0.010856229
2.1890837 	0.011026152 	-0.0027347074 	2.4181879e-20 	0.0099691423 	-1.2746673e-21 	0.010497998
2.2162195 	0.010677818 	-0.0025080997 	3.3168037e-21 	0.009641708 	-5.8185948e-22 	0.01016011
2.2424998 	0.010347404 	-0.0022894656 	6.3949908e-20 	0.0093346043 	-2.6917845e-22 	0.0098413361
2.2679518 	0.010033955 	-0.0020787005 	-3.2855247e-20 	0.0090463979 	2.2117548e-21 	0.0095404993
2.2926015 	0.0097366057 	-0.0018756926 	-8.8762558e-20 	0.0087757521 	1.0654654e-21 	0.0092564857
2.3164742 	0.0094545153 	-0.0016802273 	-5.475964e-20 	0.0085214366 	-3.9272399e-22 	0.008988258
2.3395945 	0.0091868567 	-0.0014920342 	-2.8614606e-20 	0.0082823285 	-6.7108505e-22 	0.0087348574
2.3619861 	0.0089329315 	-0.0013109413 	1.3287973e-20 	0.0080574099 	-2.4514467e-22 	0.0084954049
2.3836721 	0.0086920228 	-0.001136681 	-1.5907896e-20 	0.0078457673 	5.1740493e-22 	0.0082690951
2.4046746 	0.0084634527 	-0.000968957 	-1.4982946e-20 	0.0076465683 	3.9554416e-23 	0.0080551871
2.4250153 	0.0082466473 	-0.00080755466 	-1.7205266e-20 	0.0074590464 	1.27763e-21 	0.0078530048
2.4298497 	0.0081961987 	-0.00076943208 	-3.441212e-20 	0.0074157272 	1.0594623e-21 	0.007806116
2.4447218 	0.0080410216 	-0.00065213468 	-8.5209689e-20 	0.0072824471 	3.2051708e-22 	0.0076618637
2.463809 	0.0078461395 	-0.00050252073 	2.0163278e-21 	0.0071162185 	-2.695748e-21 	0.0074812744
2.4822943 	0.0076615482 	-0.0003585129 	7.6819804e-20 	0.0069598377 	-3.5770171e-22 	0.0073107641
2.5001966 	0.0074868316 	-0.00021989652 	-8.5940933e-21 	0.006812815 	1.427001e-21 	0.0071498829
2.5175344 	0.0073216514 	-8.6478347e-05 	-4.136178e-21 	0.0066747116 	1.9995399e-22 	0.0069982251
2.5343255 	0.0071656765 	4.1938351e-05 	-1.5334563e-20 	0.0065451339 	8.0057188e-22 	0.0068554239
2.5505871 	0.0070185506 	0.00016553678 	-4.2969324e-20 	0.0064237274 	-9.3781e-23 	0.0067211465
2.5663361 	0.0068800087 	0.00028447706 	4.7165351e-21 	0.0063101718 	-1.4821597e-21 	0.0065950901
2.5815885 	0.0067497973 	0.00039891057 	3.6553163e-20 	0.0062041756 	5.8924912e-22 	0.006476977
2.5963601 	0.006627654 	0.00050896117 	-3.6252906e-20 	0.0061054723 	1.2894604e-21 	0.0063665512
2.610666 	0.0065133576 	0.00061475621 	-2.0986991e-20 	0.0060138153 	-7.9309005e-22 	0.0062635737
2.624521 	0.0064067012 	0.00071643536 	1.0615804e-20 	0.0059289741 	-4.2954551e-22 	0.0061678189
2.6379393 	0.006307462 	0.00081409756 	7.0671651e-22 	0.0058507295 	-2.70891e-22 	0.0060790702
2.6509346 	0.0062154122 	0.00090785635 	2.2271302e-20 	0.0057788698 	3.3273095e-22 	0.0059971161
2.6635203 	0.006130352 	0.000997809 	-1.7621698e-20 	0.0057131843 	9.6676503e-22 	0.0059217451
2.6757094 	0.0060520769 	0.0010840309 	-1.7493723e-20 	0.0056534596 	-6.6184606e-22 	0.0058527413
2.6875143 	0.0059803889 	0.001166634 	1.4473774e-20 	0.005599516 	-3.5313509e-22 	0.0057899229
2.6989472 	0.0059150885 	0.0012457242 	-2.2306761e-21 	0.0055511702 	3.0496304e-22 	0.0057331023
2.7100198 	0.0058559594 	0.0013213733 	3.8391616e-22 	0.0055082096 	2.6100081e-22 	0.0056820605
2.7207435 	0.0058027896 	0.0013936642 	-1.2650539e-20 	0.005470435 	5.4489948e-22 	0.0056365902
2.7311293 	0.0057553078 	0.0014627023 	-1.658995e-20 	0.0054375984 	-9.9729625e-22 	0.0055964337
2.7411879 	0.0057132728 	0.0015285645 	2.6764788e-20 	0.0054094688 	-8.9333501e-22 	0.00556135
2.7509295 	0.00567647 	0.0015913406 	1.3242421e-20 	0.0053858556 	1.4719879e-21 	0.0055311406
2.7603642 	0.0056446182 	0.0016511423 	-2.852692e-20 	0.005366502 	7.9057869e-23 	0.0055055409
2.7695016 	0.0056174427 	0.0017080515 	1.2134317e-20 	0.0053511396 	-1.1501464e-21 	0.0054842738
2.7783512 	0.0055946714 	0.0017621548 	1.1697012e-20 	0.0053395232 	6.8191361e-22 	0.0054670803
2.7869219 	0.0055760146 	0.001813565 	-1.2699701e-20 	0.0053314017 	4.7695121e-22 	0.0054536934
2.7952227 	0.0055611977 	0.0018623975 	-3.6654164e-21 	0.0053265195 	-1.0438713e-22 	0.0054438464
2.8032619 	0.0055499511 	0.0019087723 	-7.6578914e-21 	0.0053246205 	6.8371126e-22 	0.005437275
2.8110479 	0.0055419996 	0.0019528087 	-2.3370677e-20 	0.0053254541 	-1.7414747e-22 	0.0054337194
2.8185886 	0.0055370869 	0.0019946174 	-5.0947753e-23 	0.005328776 	-1.2936116e-21 	0.0054329254
2.8258918 	0.0055349562 	0.0020343187 	1.6780717e-20 	0.0053343508 	6.0663643e-23 	0.0054346475
2.832965 	0.005535367 	0.0020720471 	-2.6895264e-21 	0.0053419637 	4.7857918e-22 	0.0054386607
2.8398154 	0.0055381015 	0.0021079365 	1.9279798e-21 	0.0053514118 	-6.1804363e-22 	0.005444752
2.8464499 	0.0055429409 	0.0021421014 	1.4116606e-20 	0.0053625002 	3.8576867e-23 	0.005452716
2.8528756 	0.0055496854 	0.0021746722 	1.618743e-22 	0.0053750528 	1.0277035e-21 	0.0054623664
2.8590988 	0.0055581583 	0.0022057927 	-1.3995051e-20 	0.0053889104 	-1.1712778e-22 	0.0054735332
2.865126 	0.0055681985 	0.0022355605 	3.5118394e-21 	0.0054039297 	-8.2295506e-22 	0.0054860634
2.8709634 	0.0055796577 	0.0022641068 	8.0160479e-21 	0.0054199841 	-1.6334205e-22 	0.0054998211
2.876617 	0.0055924048 	0.0022915799 	7.0503075e-21 	0.005436964 	4.9306155e-22 	0.0055146865
2.8820925 	0.0056063269 	0.0023180777 	-5.0464304e-21 	0.0054547763 	2.5076442e-22 	0.0055305548
2.8873956 	0.0056213206 	0.0023437068 	4.03213e-22 	0.0054733418 	-3.1209655e-22 	0.0055473351
2.8925316 	0.005637296 	0.0023685887 	2.6081585e-21 	0.0054925925 	1.5662125e-22 	0.0055649483
2.897506 	0.0056541694 	0.0023928102 	-3.2333082e-21 	0.0055124695 	-1.0734245e-22 	0.005583324
2.9023236 	0.0056718787 	0.002416451 	5.0803003e-21 	0.0055329328 	-2.7084812e-22 	0.0056024107
2.9069896 	0.0056903734 	0.0024396106 	2.7072213e-21 	0.0055539567 	5.9291024e-24 	0.00562217
2.9115086 	0.0057096432 	0.0024623673 	4.3334789e-21 	0.0055755593 	1.0608125e-22 	0.0056426067
2.9158853 	0.0057296747 	0.0024847894 	2.8490634e-22 	0.0055977533 	3.7532291e-22 	0.0056637206
2.9201242 	0.0057503933 	0.0025069134 	-3.8199727e-21 	0.0056204872 	7.7289812e-23 	0.0056854471
2.9242297 	0.0057717351 	0.0025287721 	-1.225512e-21 	0.0056437206 	-8.8061295e-23 	0.005707734
2.9282058 	0.00579366 	0.0025504122 	-1.7215651e-21 	0.0056674392 	-1.5764682e-22 	0.0057305559
2.9320568 	0.0058161295 	0.0025718465 	1.9275432e-21 	0.0056916254 	-7.9656176e-23 	0.0057538837
2.9357864 	0.0058390986 	0.0025930787 	5.3828619e-24 	0.0057162566 	3.0755087e-22 	0.0057776838
2.9393987 	0.0058625165 	0.0026141089 	-3.9415581e-21 	0.0057413032 	-3.355506e-23 	0.0058019161
2.9428972 	0.0058863257 	0.0026349193 	5.3870119e-22 	0.0057667273 	-1.4695486e-22 	0.0058265327
2.9462856 	0.0059104596 	0.0026554824 	-9.062701e-22 	0.0057924811 	-1.4801952e-22 	0.0058514764
2.9495673 	0.005934842 	0.0026757648 	3.1254089e-21 	0.0058185056 	-4.9122695e-22 	0.00587668
2.9527456 	0.0059593858 	0.0026956936 	7.5755459e-21 	0.0058447311 	8.3476013e-23 	0.0059020644
2.9558239 	0.0059839897 	0.0027151751 	1.3459636e-21 	0.0058710778 	6.0795726e-22 	0.0059275394
2.9588052 	0.0060085421 	0.0027341571 	-3.2282662e-21 	0.0058974529 	2.6500433e-22 	0.0059530031
2.9616927 	0.0060329241 	0.0027525836 	-2.9998224e-21 	0.0059237484 	-1.6850371e-22 	0.0059783419
2.9644893 	0.0060570068 	0.0027703591 	-2.3369343e-22 	0.0059498426 	-2.7862283e-22 	0.0060034305
2.9671978 	0.0060806514 	0.0027873781 	1.5430253e-21 	0.0059756035 	7.5592749e-23 	0.006028133
2.9698211 	0.0061037107 	0.0028035271 	-1.2619264e-21 	0.0060009002 	1.8756503e-22 	0.0060523039
2.9723618 	0.0061260373 	0.0028195854 	-1.3569529e-21 	0.0060255388 	1.1760199e-22 	0.0060757905
2.9748224 	0.0061474981 	0.0028341502 	-2.6935328e-21 	0.0060493108 	4.8502044e-23 	0.0060984215
2.9772057 	0.0061679524 	0.0028453933 	-1.8297655e-21 	0.0060720189 	-2.4931546e-22 	0.0061199951
2.9795138 	0.006187104 	0.0028548277 	8.9681411e-22 	0.0060933811 	-6.2075853e-24 	0.0061402417
2.9817494 	0.0062044966 	0.0028634686 	1.1824087e-21 	0.0061130642 	2.3377326e-22 	0.0061587821
2.9839145 	0.0062196355 	0.0028710987 	6.0695258e-22 	0.0061306524 	-1.7906875e-22 	0.0061751474
2.9860115 	0.0062319973 	0.0028774764 	8.7272227e-22 	0.0061456315 	-2.6518554e-22 	0.0061888182
2.9880424 	0.0062410354 	0.0028823459 	1.1510314e-21 	0.006157447 	1.5819751e-22 	0.006199245
2.9900094 	0.0062461839 	0.0028854413 	-1.0179818e-21 	0.0061655213 	2.1964131e-22 	0.0062058562
2.9919145 	0.0062468628 	0.0028864898 	-1.4277602e-21 	0.0061692609 	-1.5729621e-22 	0.0062080653
2.9937597 	0.0062424784 	0.0028852115 	5.1306536e-22 	0.0061680572 	-3.453263e-22 	0.0062052711
2.9955467 	0.0062324195 	0.0028813185 	2.2694647e-21 	0.0061612829 	1.1562815e-22 	0.0061968544
2.9972775 	0.0062160581 	0.0028745146 	-4.7737901e-22 	0.0061482927 	3.9293343e-22 	0.0061821784
2.9989538 	0.0061927463 	0.0028644945 	-1.7153262e-21 	0.0061284214 	-4.9579874e-23 	0.0061605867
3.0005773 	0.0061618108 	0.0028509412 	-1.1181073e-23 	0.0061009776 	-2.181363e-22 	0.0061313968
3.0021497 	0.0061225477 	0.0028335234 	4.3002533e-22 	0.0060652394 	-4.8102397e-23 	0.006093896
3.0036726 	0.0060742185 	0.0028118939 	3.6237019e-22 	0.0060204497 	9.7987167e-23 	0.0060473365
3.0051476 	0.0060160453 	0.0027856877 	-3.7898111e-22 	0.0059658117 	8.7421477e-23 	0.0059909307
3.0065761 	0.0059472058 	0.0027545199 	-3.5188447e-22 	0.005900485 	-2.5590055e-23 	0.0059238475
3.0079597 	0.0058668306 	0.0027179847 	-1.2889778e-22 	0.0058235819 	-3.4137879e-23 	0.0058452082
3.0092997 	0.0057740012 	0.0026756558 	-6.3101603e-23 	0.0057341668 	-9.8295851e-23 	0.0057540858
3.0105976 	0.0056677514 	0.0026270878 	5.1060288e-22 	0.0056312568 	-4.1563213e-23 	0.0056495058
3.0118546 	0.0055470707 	0.0025718025 	2.1232272e-22 	0.0055138262 	9.1665328e-23 	0.0055304499
3.013072 	0.0054109097 	0.0025091967 	-1.1798867e-22 	0.0053808122 	1.1039625e-22 	0.0053958624
3.0142511 	0.0052582058 	0.0024388053 	-4.2283366e-22 	0.0052311371 	-1.6515258e-23 	0.0052446728
3.015393 	0.0050879183 	0.002360258 	-2.4388724e-23 	0.0050637448 	-1.0639282e-22 	0.0050758327
3.0164991 	0.0048990684 	0.0022730702 	1.8972449e-22 	0.0048776447 	-3.6807295e-24 	0.0048883576
3.0175703 	0.0046908003 	0.0021768271 	3.5146187e-24 	0.004671971 	5.090178e-23 	0.0046813866
3.0186078 	0.0044624618 	0.0020712168 	-7.1187814e-23 	0.0044460626 	1.8611663e-23 	0.0044542631
3.0196126 	0.004213707 	0.0019560739 	-6.4441293e-23 	0.0041995663 	-4.5290604e-23 	0.0042066376
3.0205858 	0.0039446154 	0.001831433 	1.018405e-22 	0.0039325572 	-3.164416e-23 	0.0039385869
3.0215284 	0.003655783 	0.0016975712 	6.0558497e-23 	0.0036456304 	4.9041998e-23 	0.0036507072
3.0224413 	0.0033480712 	0.0015489743 	-7.2456634e-23 	0.0033396777 	1.398474e-23 	0.0033438749
3.0233255 	0.003022899 	0.0013809537 	-3.3823385e-24 	0.0030161355 	-2.5507066e-23 	0.0030195176
3.0241818 	0.0026835203 	0.0012000122 	1.9354953e-23 	0.0026782185 	4.4628324e-24 	0.0026808698
3.0250112 	0.0023356215 	0.0010135981 	-9.6476411e-24 	0.0023315853 	-2.4341201e-24 	0.0023336038
3.0258144 	0.0019870722 	0.00082706545 	1.1996022e-23 	0.0019841035 	-7.3493984e-24 	0.0019855881
3.0265924 	0.0016474731 	0.000647821 	7.4287463e-24 	0.0016453753 	9.2053669e-24 	0.0016464244
3.0273459 	0.0013272462 	0.00048392685 	-6.6188979e-24 	0.0013258305 	1.6571058e-24 	0.0013265385
3.0280757 	0.0010362276 	0.00034259051 	5.2494223e-25 	0.001035321 	-5.3583811e-24 	0.0010357744
3.0287825 	0.00078211124 	0.00022851512 	2.9574953e-24 	0.00078156385 	6.776882e-25 	0.0007818376
3.0294671 	0.00056926939 	0.0001428431 	-4.6761783e-25 	0.00056895992 	1.1667739e-24 	0.00056911468
3.0301301 	0.00039837376 	8.321851e-05 	-9.6794394e-26 	0.00039821117 	-5.0351954e-26 	0.00039829248
3.0307722 	0.0002668701 	4.4883309e-05 	-4.3595674e-26 	0.00026679146 	4.4966107e-25 	0.00026683078
3.0313942 	0.00016999401 	2.2197394e-05 	-2.620148e-25 	0.00016995944 	-4.7165769e-26 	0.00016997673
3.0319965 	0.00010189158 	9.9192721e-06 	1.9323697e-26 	0.00010187802 	-1.279969e-25 	0.0001018848
3.0325799 	5.6529013e-05 	3.9132179e-06 	8.7919296e-27 	5.6524392e-05 	1.0691158e-26 	5.6526703e-05
3.033145 	2.8279522e-05 	1.313273e-06 	-1.5572175e-27 	2.8278213e-05 	-2.4521675e-27 	2.8278868e-05
3.0336922 	1.2224445e-05 	3.5296552e-07 	1.1023885e-27 	1.2224157e-05 	-2.5828006e-28 	1.2224301e-05
3.0342222 	4.266649e-06 	6.8782733e-08 	-6.2992037e-29 	4.2666052e-06 	2.6814858e-28 	4.2666271e-06
3.0347356 	1.184283e-06 	8.5167371e-09 	3.708167e-30 	1.1842791e-06 	3.1967594e-30 	1.1842811e-06
3.0352328 	1.1871912e-06 	1.1555227e-09 	-4.1534188e-31 	1.1871909e-06 	3.4812233e-31 	1.187191e-06
3.035714 	7.5378019e-10 	7.3367293e-13 	-2.6383696e-34 	7.5378003e-10 	2.2128191e-34 	7.5378011e-10
