0 	0 	0 	0
0.00048240845 	-0.0032042275 	3.3125093e-06 	6.7850382e-24
0.00098049384 	-0.0065208165 	1.2623841e-05 	7.2591761e-24
0.0014947656 	-0.0099810367 	2.8901512e-05 	-6.0544125e-26
0.0020257498 	-0.013591461 	5.2610617e-05 	3.0097213e-24
0.0025739895 	-0.017358819 	8.4224764e-05 	1.2004177e-23
0.0031400454 	-0.021289956 	0.00012428125 	1.2504624e-23
0.0037244966 	-0.025391764 	0.00017334874 	1.2805324e-23
0.0043279408 	-0.029671081 	0.00023201155 	-1.8364729e-25
0.0049509953 	-0.034134544 	0.00030086696 	-8.9880999e-24
0.0055942973 	-0.038788376 	0.00038052316 	-2.3627033e-24
0.0062585048 	-0.043638081 	0.00047159486 	9.5817694e-24
0.0069442972 	-0.048688021 	0.00057469657 	9.5631682e-24
0.007652376 	-0.053940841 	0.00069043299 	7.7528343e-24
0.0083834654 	-0.059396723 	0.00081938583 	7.7437914e-24
0.0091383131 	-0.065052432 	0.00096209607 	4.3579037e-26
0.0099176913 	-0.070900191 	0.0011190405 	-1.6430604e-23
0.010722397 	-0.076926425 	0.0012906027 	-1.0363319e-23
0.011553254 	-0.083110514 	0.0014770377 	-1.0791018e-23
0.012411111 	-0.089423771 	0.0016784342 	-1.6880351e-23
0.013296846 	-0.095828918 	0.0018946762 	-1.7158766e-23
0.014211364 	-0.10228038 	0.0021254119 	6.0367128e-24
0.015155603 	-0.10872558 	0.0023700364 	1.6756503e-23
0.016130526 	-0.11510739 	0.0026276939 	7.8762435e-26
0.017137132 	-0.12136732 	0.0028973041 	-1.865557e-23
0.018176449 	-0.12744916 	0.003177611 	1.7529953e-23
0.019249542 	-0.13330242 	0.0034672484 	4.2584989e-23
0.020357507 	-0.13888501 	0.0037648119 	2.7562628e-23
0.021501477 	-0.14416487 	0.0040689295 	3.8825687e-23
0.022682624 	-0.14912051 	0.0043783212 	-1.2209523e-23
0.023902154 	-0.15374052 	0.004691844 	-2.3503446e-23
0.025161316 	-0.15802246 	0.0050085201 	-1.0448639e-23
0.026461397 	-0.16197126 	0.0053275492 	9.6908118e-24
0.027803728 	-0.16559757 	0.0056483089 	-6.5393312e-24
0.02918968 	-0.16891612 	0.0059703424 	-2.6652475e-23
0.030620672 	-0.17194427 	0.0062933406 	3.0566391e-26
0.032098167 	-0.17470076 	0.006617121 	0
0.033623676 	-0.17720478 	0.0069416056 	2.6745653e-23
0.03519876 	-0.17947526 	0.0072667999 	1.4572513e-23
0.03682503 	-0.18153038 	0.007592774 	3.5058145e-23
0.03850415 	-0.18338724 	0.007919646 	8.0784896e-23
0.040237836 	-0.18506166 	0.0082475681 	3.3447646e-23
0.042027862 	-0.18656817 	0.0085767157 	0
0.043876059 	-0.18791993 	0.0089072777 	-1.8609237e-26
0.045784317 	-0.18912881 	0.0092394499 	-9.7599321e-28
0.047754588 	-0.19020545 	0.0095734296 	3.2531259e-25
0.049788888 	-0.19115933 	0.0099094113 	2.4547321e-23
0.051889297 	-0.19199891 	0.010247584 	5.3423972e-23
0.054057963 	-0.19273165 	0.010588128 	1.2960514e-23
0.056297104 	-0.19336419 	0.010931216 	-4.3224142e-23
0.058609012 	-0.19390235 	0.011277006 	-1.5380694e-23
0.06099605 	-0.19435127 	0.011625649 	1.1172869e-23
0.06346066 	-0.19471545 	0.011977281 	2.4316324e-23
0.066005363 	-0.19499883 	0.012332025 	2.4180058e-23
0.068632762 	-0.19520484 	0.012689993 	-2.2458653e-23
0.071345544 	-0.19533644 	0.013051281 	-2.2295284e-23
0.074146484 	-0.19539618 	0.013415972 	-3.3665867e-23
0.077038447 	-0.19538624 	0.013784136 	-3.3629366e-23
0.08002439 	-0.19530846 	0.014155827 	-7.7183314e-25
0.083107369 	-0.19516434 	0.014531085 	3.6790366e-23
0.086290535 	-0.19495514 	0.014909936 	1.3287806e-23
0.089577146 	-0.19468181 	0.01529239 	-8.2744355e-23
0.092970562 	-0.19434509 	0.01567844 	-2.5010593e-23
0.096474255 	-0.19394545 	0.016068064 	1.0360121e-23
0.10009181 	-0.19348318 	0.016461223 	-2.3207957e-23
0.10382692 	-0.19295834 	0.016857862 	5.3725583e-23
0.10768342 	-0.19237082 	0.017257905 	4.5846928e-23
0.11166524 	-0.19172028 	0.017661259 	-7.5929564e-24
0.11577645 	-0.19100624 	0.01806781 	4.3884563e-23
0.12002127 	-0.19022803 	0.018477424 	1.0008785e-22
0.12440404 	-0.18938478 	0.018889942 	1.0775218e-23
0.12892923 	-0.18847549 	0.019305185 	-9.7366252e-23
0.13360148 	-0.18749896 	0.019722945 	-9.6577376e-23
0.13842557 	-0.18645382 	0.02014299 	-1.8380609e-22
0.14340642 	-0.18533855 	0.020565058 	-1.3965029e-22
0.14854914 	-0.18415142 	0.020988855 	-5.0643621e-23
0.15385898 	-0.18289056 	0.021414055 	-4.9626626e-23
0.15934138 	-0.18155389 	0.021840299 	-1.353394e-22
0.16500194 	-0.18013915 	0.022267188 	-9.2221678e-23
0.17084645 	-0.1786439 	0.022694281 	3.7425111e-25
0.17688089 	-0.17706547 	0.023121095 	-1.341767e-22
0.18311143 	-0.17540099 	0.023547099 	-1.1825439e-23
0.18954445 	-0.17364737 	0.023971709 	1.5967149e-22
0.19618653 	-0.17180126 	0.02439429 	1.548933e-22
0.20304445 	-0.16985908 	0.024814139 	-9.6746461e-23
0.21012524 	-0.16781699 	0.025230489 	-3.4249516e-22
0.21743614 	-0.16567088 	0.025642501 	-2.8738352e-23
0.22498461 	-0.16341634 	0.026049252 	3.673642e-23
0.23277839 	-0.16104865 	0.026449732 	-1.0340018e-22
0.24082545 	-0.15856276 	0.02684283 	-1.0316037e-22
0.24913402 	-0.15595326 	0.027227329 	1.0477137e-22
0.25771259 	-0.15321435 	0.027601888 	4.2869199e-22
0.26656994 	-0.15033983 	0.027965035 	3.2213126e-22
0.27571513 	-0.14732304 	0.028315146 	-1.8220025e-25
0.28515751 	-0.14415681 	0.028650432 	3.2467494e-22
0.29490674 	-0.14083347 	0.028968919 	4.4530012e-22
0.3049728 	-0.13734472 	0.029268425 	1.0374284e-22
0.31536597 	-0.13368161 	0.029546533 	9.5016456e-23
0.3260969 	-0.12983447 	0.029800567 	-5.9394548e-22
0.33717655 	-0.12579279 	0.030027553 	-5.1432316e-22
0.34861625 	-0.12154512 	0.030224187 	-1.0297715e-22
0.36042772 	-0.11707892 	0.030386788 	-7.4650131e-22
0.37262303 	-0.11238044 	0.030511248 	-1.6893672e-21
0.38521464 	-0.10743443 	0.03059298 	-2.4379254e-21
0.39821546 	-0.10222398 	0.030626852 	-1.3009581e-21
0.41163876 	-0.096730111 	0.030607107 	1.2465292e-23
0.42549828 	-0.090931293 	0.030527277 	-7.6211073e-23
0.4398082 	-0.084802857 	0.030380086 	-1.6096992e-22
0.45458315 	-0.078316344 	0.030157357 	-2.2137345e-21
0.46983824 	-0.071438498 	0.029849906 	-2.1043796e-21
0.48558908 	-0.064129943 	0.029447431 	1.2751669e-23
0.50185179 	-0.056343438 	0.028938413 	-1.6001967e-23
0.50880893 	-0.052894066 	0.028678196 	6.7158614e-22
0.51864298 	-0.048022313 	0.028311736 	1.6094281e-21
0.53597984 	-0.03909589 	0.027552929 	-4.4249957e-23
0.5538801 	-0.029475483 	0.026645752 	-8.4537203e-24
0.57236207 	-0.019049793 	0.025574747 	1.5661937e-21
0.59144465 	-0.0076773156 	0.024325289 	-1.8008309e-21
0.61114736 	0.0048198528 	0.022883924 	-1.9280977e-21
0.63149036 	0.018649406 	0.021238302 	2.4177366e-22
0.65249445 	0.034036369 	0.019393089 	4.8985105e-22
0.67418111 	0.051467158 	0.017328001 	-1.7960335e-21
0.69657252 	0.072081316 	0.014981741 	1.9139004e-22
0.7196916 	0.097371416 	0.012297398 	4.3254404e-21
0.74356198 	0.12831616 	0.0093011302 	2.4979473e-21
0.76820808 	0.16483844 	0.0061145485 	-1.1998493e-21
0.79365511 	0.2058616 	0.0028562139 	-8.0629353e-22
0.8199291 	0.24982691 	-0.00038666025 	-2.1596529e-21
0.84705692 	0.29535076 	-0.0035454078 	-2.6427161e-21
0.87506632 	0.34174067 	-0.0065910216 	-2.5879929e-21
0.90398595 	0.38906801 	-0.0094355997 	-1.4045105e-22
0.93384538 	0.43768215 	-0.0119273 	-1.295716e-21
0.96467516 	0.48742136 	-0.013917336 	-6.9139409e-21
0.99650683 	0.53727205 	-0.015322392 	-6.7041105e-21
1.0293729 	0.5858103 	-0.016231056 	4.8242538e-21
1.0633071 	0.63174002 	-0.016791107 	1.4873174e-20
1.098344 	0.67417225 	-0.01713448 	6.0816458e-21
1.1345196 	0.7127235 	-0.017358629 	6.244513e-21
1.1668571 	0.74278571 	-0.017499505 	1.3594049e-21
1.1718726 	0.74744859 	-0.017522179 	5.8907038e-22
1.2104522 	0.77868898 	-0.017654991 	-5.1427854e-21
1.250285 	0.80689483 	-0.017763758 	-2.5421463e-22
1.2914115 	0.83255182 	-0.017849472 	-3.8838749e-23
1.3338737 	0.85611306 	-0.01790905 	2.4700066e-21
1.3777151 	0.87797658 	-0.017936495 	-5.0298093e-22
1.4229805 	0.89847582 	-0.017923069 	-3.6619358e-21
1.4697159 	0.91787573 	-0.017857822 	-1.6871709e-21
1.5179692 	0.93624455 	-0.017733215 	-5.5587254e-21
1.5662215 	0.95334801 	-0.017554561 	-6.9875371e-21
1.6129542 	0.96900349 	-0.017332465 	-1.3450855e-21
1.6582152 	0.98330892 	-0.01707188 	6.1389711e-22
1.7020508 	0.99643093 	-0.016776721 	-2.1852391e-21
1.7445059 	1.0084928 	-0.016452592 	-2.201744e-21
1.785624 	1.0195892 	-0.016105753 	-7.2934869e-24
1.8070113 	1.0250713 	-0.015910319 	1.1911012e-22
1.8254639 	1.029801 	-0.015742163 	1.7327107e-22
1.8640662 	1.0391951 	-0.015367115 	2.6737596e-21
1.9014509 	1.0478292 	-0.014985377 	9.3098718e-22
1.9376564 	1.055761 	-0.014600953 	3.4860685e-21
1.97272 	1.0630442 	-0.014217139 	5.9884908e-21
2.0066778 	1.0697289 	-0.013836582 	2.7703802e-21
2.0395648 	1.0758608 	-0.013461373 	-8.2341334e-22
2.0714147 	1.0814818 	-0.01309314 	-1.7128809e-21
2.1022603 	1.08663 	-0.012733126 	2.4218419e-22
2.1321334 	1.0913402 	-0.012382249 	-2.2044248e-21
2.1610646 	1.095644 	-0.01204116 	-2.0151637e-21
2.1890837 	1.0995704 	-0.011710282 	7.5999267e-22
2.2162195 	1.1031454 	-0.011389851 	1.8813934e-22
2.2424998 	1.1063929 	-0.011079952 	2.096462e-21
2.2679518 	1.1093344 	-0.010780544 	-1.0735187e-21
2.2926015 	1.1119894 	-0.010491493 	-2.831558e-21
2.3164742 	1.1143755 	-0.010212589 	-1.7872839e-21
2.3395945 	1.1165085 	-0.0099435653 	-9.3333621e-22
2.3619861 	1.1184027 	-0.0096841215 	4.3288345e-22
2.3836721 	1.1200708 	-0.0094339345 	-5.6931669e-22
2.4046746 	1.1215244 	-0.0091926615 	-5.5978982e-22
2.4250153 	1.1227737 	-0.0089599499 	-5.8510415e-22
2.4298497 	1.1230324 	-0.0089047964 	-1.2320065e-21
2.4447218 	1.1238278 	-0.0087352333 	-3.1455847e-21
2.463809 	1.1246944 	-0.0085183161 	1.4706051e-22
2.4822943 	1.1253807 	-0.0083089218 	2.9567621e-21
2.5001966 	1.1258929 	-0.0081067151 	-2.9833979e-22
2.5175344 	1.1262364 	-0.007911373 	-2.0076229e-22
2.5343255 	1.1264158 	-0.0077225865 	-6.9746929e-22
2.5505871 	1.1264352 	-0.007540061 	-1.8747697e-21
2.5663361 	1.126298 	-0.0073635174 	2.8307518e-22
2.5815885 	1.1260072 	-0.0071926913 	1.6758655e-21
2.5963601 	1.125565 	-0.0070273336 	-1.7829675e-21
2.610666 	1.1249738 	-0.0068672098 	-9.9604887e-22
2.624521 	1.1242351 	-0.0067120997 	5.3814201e-22
2.6379393 	1.1233505 	-0.006561797 	1.9806128e-23
2.6509346 	1.1223213 	-0.0064161082 	1.2404417e-21
2.6635203 	1.1211486 	-0.0062748524 	-1.1229254e-21
2.6757094 	1.1198334 	-0.0061378595 	-1.0434296e-21
2.6875143 	1.1183767 	-0.0060049689 	9.1134513e-22
2.6989472 	1.1167795 	-0.0058760287 	-1.7343998e-22
2.7100198 	1.1150429 	-0.0057508949 	4.2606561e-23
2.7207435 	1.1131679 	-0.0056294307 	-9.0792413e-22
2.7311293 	1.111156 	-0.0055115061 	-1.281167e-21
2.7411879 	1.1090083 	-0.0053969962 	2.1284679e-21
2.7509295 	1.1067267 	-0.0052857804 	1.0227534e-21
2.7603642 	1.1043127 	-0.0051777402 	-2.4247478e-21
2.7695016 	1.1017683 	-0.0050727555 	1.1483745e-21
2.7783512 	1.0990955 	-0.0049707068 	1.0193171e-21
2.7869219 	1.0962967 	-0.0048714804 	-1.1740131e-21
2.7952227 	1.093374 	-0.0047749645 	-3.5843116e-22
2.8032619 	1.09033 	-0.0046810445 	-7.8837541e-22
2.8110479 	1.087167 	-0.0045896023 	-2.5180637e-21
2.8185886 	1.0838874 	-0.0045005172 	6.8330932e-23
2.8258918 	1.0804937 	-0.0044136661 	1.8607466e-21
2.832965 	1.0769882 	-0.0043289239 	-3.3442062e-22
2.8398154 	1.073373 	-0.0042461632 	2.3084942e-22
2.8464499 	1.0696501 	-0.0041652552 	1.8179569e-21
2.8528756 	1.0658213 	-0.0040860698 	-2.5932368e-23
2.8590988 	1.0618882 	-0.0040084764 	-1.871469e-21
2.865126 	1.0578519 	-0.0039323431 	5.1449819e-22
2.8709634 	1.0537133 	-0.0038575374 	1.1349619e-21
2.876617 	1.0494731 	-0.0037839276 	1.0229741e-21
2.8820925 	1.0451314 	-0.0037113835 	-8.0509508e-22
2.8873956 	1.0406881 	-0.0036397783 	1.1661603e-22
2.8925316 	1.0361427 	-0.0035689887 	3.920396e-22
2.897506 	1.0314941 	-0.0034988951 	-5.0715631e-22
2.9023236 	1.026741 	-0.003429382 	8.4306835e-22
2.9069896 	1.0218818 	-0.0033603396 	5.0391122e-22
2.9115086 	1.0169143 	-0.0032916664 	8.1263607e-22
2.9158853 	1.0118361 	-0.0032232699 	3.1141541e-23
2.9201242 	1.0066443 	-0.0031550665 	-7.5108914e-22
2.9242297 	1.0013359 	-0.0030869806 	-2.488244e-22
2.9282058 	0.99590734 	-0.0030189451 	-3.661243e-22
2.9320568 	0.99035493 	-0.0029509021 	4.4765744e-22
2.9357864 	0.98467461 	-0.0028828032 	-3.2615107e-23
2.9393987 	0.9788621 	-0.0028146103 	-9.1508315e-22
2.9428972 	0.97291288 	-0.002746295 	1.4544738e-22
2.9462856 	0.96682224 	-0.0026778393 	-2.2907994e-22
2.9495673 	0.96058528 	-0.0026092353 	8.3931875e-22
2.9527456 	0.95419692 	-0.0025404845 	2.0476031e-21
2.9558239 	0.94765207 	-0.0024716012 	3.6232436e-22
2.9588052 	0.94094557 	-0.0024026149 	-9.3655574e-22
2.9616927 	0.93407201 	-0.0023335662 	-9.1662566e-22
2.9644893 	0.9270259 	-0.0022645033 	-5.507628e-23
2.9671978 	0.91980167 	-0.0021954819 	5.2121731e-22
2.9698211 	0.91239368 	-0.0021265674 	-4.5666246e-22
2.9723618 	0.90479623 	-0.0020578621 	-4.7854883e-22
2.9748224 	0.89699863 	-0.0019893302 	-1.0813881e-21
2.9772057 	0.88897961 	-0.0019207838 	-7.2354645e-22
2.9795138 	0.88071456 	-0.0018520122 	3.5814351e-22
2.9817494 	0.8721857 	-0.0017829219 	-6.9122158e-22
2.9839145 	0.86338194 	-0.0017136203 	-1.0712559e-21
2.9860115 	0.85429546 	-0.0016442716 	4.1225041e-22
2.9880424 	0.84491988 	-0.0015750558 	6.1746578e-22
2.9900094 	0.83524923 	-0.0015061558 	-6.4017861e-22
2.9919145 	0.82527743 	-0.0014377519 	-8.6833869e-22
2.9937597 	0.81499792 	-0.0013700191 	4.8082108e-22
2.9955467 	0.80440341 	-0.0013031234 	1.6274556e-21
2.9972775 	0.79348564 	-0.0012372208 	-4.1688864e-22
2.9989538 	0.78223521 	-0.0011724555 	-1.3969566e-21
3.0005773 	0.77064143 	-0.0011089604 	2.6480128e-24
3.0021497 	0.75869216 	-0.001046856 	3.9656052e-22
3.0036726 	0.74637371 	-0.00098625052 	4.0522084e-22
3.0051476 	0.73367067 	-0.00092723971 	-4.7665396e-22
3.0065761 	0.72056582 	-0.00086990701 	-3.9402492e-22
3.0079597 	0.70704001 	-0.00081432398 	-2.3137508e-22
3.0092997 	0.69307212 	-0.00076055092 	-4.333791e-23
3.0105976 	0.67863903 	-0.0007086376 	8.179946e-22
3.0118546 	0.6637155 	-0.00065862465 	4.0229666e-22
3.013072 	0.64827397 	-0.00061054321 	-2.6980322e-22
3.0142511 	0.63228496 	-0.00056441563 	-9.8226205e-22
3.015393 	0.61571814 	-0.00052025774 	-1.3733549e-23
3.0164991 	0.59854281 	-0.00047807862 	5.2947075e-22
3.0175703 	0.58072813 	-0.00043788093 	1.5687305e-23
3.0186078 	0.56224413 	-0.00039966188 	-3.1335568e-22
3.0196126 	0.54306295 	-0.00036341351 	-3.0927731e-22
3.0205858 	0.52316009 	-0.00032912315 	6.2246081e-22
3.0215284 	0.50251346 	-0.00029677918 	3.3888643e-22
3.0224413 	0.48108318 	-0.00026633772 	-6.2110373e-22
3.0233255 	0.4587971 	-0.00023771282 	3.5197488e-23
3.0241818 	0.43559581 	-0.00021082964 	1.8164366e-22
3.0250112 	0.41148039 	-0.00018565866 	-1.7897927e-22
3.0258144 	0.38650958 	-0.00016219346 	3.8425455e-22
3.0265924 	0.36079346 	-0.00014042634 	1.8472292e-22
3.0273459 	0.33449632 	-0.00012035414 	-3.9836361e-22
3.0280757 	0.30782924 	-0.00010197449 	1.7723251e-22
3.0287825 	0.28103127 	-8.5280935e-05 	3.6513474e-22
3.0294671 	0.25434269 	-7.02578e-05 	-1.1020338e-22
3.0301301 	0.22797813 	-5.6876605e-05 	8.4856434e-23
3.0307722 	0.20210785 	-4.5094821e-05 	-2.1189622e-22
3.0313942 	0.17685095 	-3.4857152e-05 	-3.8312403e-22
3.0319965 	0.15227926 	-2.6098503e-05 	1.1350829e-22
3.0325799 	0.12842741 	-1.8747307e-05 	1.379539e-23
3.033145 	0.10530421 	-1.2728393e-05 	5.1178983e-23
3.0336922 	0.082902613 	-7.9652947e-06 	9.7808181e-23
3.0342222 	0.061206983 	-4.3840373e-06 	-1.1644294e-24
3.0347356 	0.040197757 	-1.9192169e-06 	-3.6822885e-24
3.0352328 	0.019854058 	-5.0642674e-07 	-4.0963171e-23
3.035714 	1.260587e-05 	-3.2154493e-10 	-2.6021108e-26
