y,U_0,U_1,U_2
-2.7950884e-17,0,0,0
0.00086769924,-0.014755626,-2.8392888e-06,-4.7700118e-24
0.0017874829,-0.029597817,-1.4577695e-05,-6.1825884e-24
0.0027624773,-0.0446814,-3.443537e-05,-2.7897341e-24
0.0037959966,-0.05993136,-6.4269666e-05,-1.42903e-24
0.0048915537,-0.07522955,-0.00010564097,-1.6251395e-24
0.0060528726,-0.090368907,-0.00016045934,3.6318934e-24
0.0072839007,-0.1049895,-0.00023098506,4.1900232e-24
0.0085888223,-0.11854931,-0.0003188251,2.3783037e-25
0.0099720729,-0.13043315,-0.00042421987,-3.1637501e-24
0.011438354,-0.14020676,-0.00054739746,-7.5150551e-24
0.01299265,-0.14780587,-0.0006893954,-3.7069524e-24
0.014640245,-0.15348461,-0.00085070198,8.5280869e-25
0.016386737,-0.15762592,-0.0010307594,-4.0821103e-24
0.018238064,-0.16059444,-0.0012289621,-3.6513474e-24
0.020200518,-0.16268004,-0.0014452062,2.3032806e-24
0.022280771,-0.16409546,-0.0016797548,2.9506797e-25
0.024485892,-0.16499206,-0.0019330574,-1.4863679e-26
0.026823378,-0.16547665,-0.0022056949,-9.6498805e-25
0.029301173,-0.16562488,-0.0024983726,-2.6296002e-24
0.0319277,-0.16549068,-0.0028119144,9.8449697e-25
0.034711887,-0.16511273,-0.0031472536,-2.1240069e-24
0.037663197,-0.16451888,-0.0035054255,-1.6288848e-24
0.040791661,-0.16372905,-0.0038875618,-2.4630867e-24
0.044107915,-0.16275731,-0.004294887,-1.0155751e-23
0.047623229,-0.16161325,-0.0047287177,-6.40239e-24
0.051349553,-0.16030296,-0.0051904613,-4.115581e-24
0.055299553,-0.15882971,-0.0056816176,-9.4837925e-26
0.059486654,-0.15719443,-0.0062037795,4.6300463e-24
0.06392509,-0.15539605,-0.0067586351,5.8232204e-24
0.068629948,-0.1534317,-0.00734797,3.9429115e-24
0.073617218,-0.15129689,-0.0079736702,-2.7663263e-24
0.078903853,-0.14898556,-0.0086377242,-2.1304113e-24
0.084507823,-0.14649013,-0.0093422267,5.0838292e-24
0.090448176,-0.14380152,-0.010089381,-3.3661447e-24
0.096745104,-0.14090905,-0.010881501,-1.3943196e-23
0.10342001,-0.13780038,-0.011721017,-1.5227027e-24
0.11049558,-0.13446145,-0.012610471,-1.1335685e-23
0.11799587,-0.13087626,-0.013552529,-1.5699797e-23
0.12594638,-0.12702676,-0.014549971,2.0066309e-23
0.13437411,-0.12289259,-0.015605699,2.160637e-23
0.14330773,-0.11845088,-0.016722732,-1.1871847e-23
0.1527776,-0.11367591,-0.017904206,-1.1001741e-24
0.1628159,-0.10853883,-0.019153369,-1.682574e-24
0.17345677,-0.10300724,-0.020473572,-3.2100143e-23
0.18473635,-0.097044753,-0.021868261,9.4287368e-25
0.19669301,-0.090610525,-0.02334096,7.1700314e-23
0.20936737,-0.083658658,-0.024895249,6.0014729e-23
0.22280253,-0.076137576,-0.026534739,4.0108343e-23
0.23704414,-0.067989312,-0.028263032,5.2351837e-23
0.25214061,-0.059148702,-0.03008366,-1.1286415e-23
0.26814327,-0.049542465,-0.032000005,-4.8882137e-24
0.28510649,-0.039088171,-0.034015255,3.3642536e-23
0.30308795,-0.027693429,-0.036132264,-4.2924643e-24
0.32214876,-0.015255011,-0.038353266,-2.1722625e-23
0.34235371,-0.0016577605,-0.040679579,5.2796058e-23
0.36377149,0.013221732,-0.04311084,-2.8287006e-23
0.38647488,0.029520539,-0.045645094,1.1981563e-22
0.41054106,0.047395523,-0.048278945,4.3256181e-22
0.43605183,0.067019248,-0.051006559,1.9181993e-22
0.46309391,0.088578811,-0.053818602,2.2995263e-22
0.49175922,0.11227405,-0.056701024,6.3266831e-22
0.52214518,0.13831389,-0.059633626,2.2384645e-22
0.55435509,0.16690991,-0.06258826,-2.5981615e-22
0.58849842,0.19826668,-0.065526622,1.33419e-22
0.62469124,0.23256658,-0.068398448,1.9339029e-22
0.66305656,0.26994069,-0.071138575,3.0420992e-23
0.70372479,0.31043502,-0.073665709,-1.3466151e-22
0.74683417,0.35398647,-0.075884412,-1.1003477e-24
0.79253123,0.4003813,-0.077687178,7.6111617e-22
0.84097128,0.4491996,-0.078957515,1.4493717e-22
0.892319,0.49977951,-0.079580334,-9.1648282e-22
0.9467489,0.5511928,-0.079459512,-5.9837417e-24
1.004446,0.60224403,-0.078542174,4.0520875e-22
1.0656064,0.65155417,-0.076848291,7.330209e-22
1.1304381,0.69778137,-0.074486401,4.6726648e-22
1.1668475,0.72011523,-0.072975294,2.0396108e-22
1.1991613,0.73994058,-0.071632352,-3.9262196e-23
1.2720096,0.77765296,-0.068477329,1.2438381e-22
1.3492308,0.81116156,-0.065170607,3.2311294e-22
1.4310872,0.84112144,-0.061791764,4.572701e-22
1.5178571,0.86806052,-0.05839971,-7.0506826e-22
1.6046271,0.89176651,-0.055126719,-5.9766329e-22
1.6864835,0.91215376,-0.052080467,3.5988316e-22
1.7637046,0.92978062,-0.049254039,2.3126416e-22
1.836553,0.94520294,-0.046614176,2.8023539e-22
1.9052762,0.9587974,-0.044138072,4.7994265e-22
1.9701079,0.97083467,-0.041809278,5.4720213e-22
2.0312683,0.98151989,-0.039615325,5.1886902e-22
2.0889654,0.99101519,-0.037546237,1.6005376e-22
2.1433953,0.99945254,-0.035593639,5.6476753e-23
2.194743,1.0069416,-0.033750253,-1.4931841e-22
2.2431831,1.0135749,-0.032009569,-1.5701261e-22
2.2888801,1.0194309,-0.030365614,-5.9310615e-24
2.3319895,1.0245762,-0.028812876,-1.5676845e-22
2.3726577,1.0290674,-0.027346177,6.0059728e-23
2.411023,1.0329526,-0.025960614,3.2799858e-22
2.4472159,1.0362728,-0.02465156,3.7663216e-23
2.4813592,1.0390622,-0.023414615,7.7565545e-23
2.5135691,1.0413493,-0.022245582,2.9884926e-22
2.5439551,1.0431573,-0.021140457,3.6268413e-23
2.5726204,1.0445047,-0.020095408,-4.9173237e-23
2.5826559,1.0448389,-0.019728501,-3.1842915e-23
2.5996625,1.0454054,-0.019106613,-1.9671743e-24
2.6251732,1.0458694,-0.018170653,-5.8281211e-23
2.6492394,1.0459033,-0.017284243,-5.789805e-23
2.6719428,1.0455098,-0.016444135,-7.2354594e-23
2.6933606,1.0446883,-0.015647199,2.4345222e-23
2.7135655,1.0434349,-0.014890425,6.153193e-23
2.7326263,1.0417427,-0.014170907,-9.5839328e-23
2.7506078,1.0396017,-0.013485847,-1.0816884e-22
2.767571,1.0369989,-0.012832552,-1.1691638e-22
2.7835737,1.0339187,-0.012208439,-1.9716397e-22
2.7986701,1.0303429,-0.01161104,-1.0611141e-22
2.8129118,1.0262514,-0.011038017,-3.313543e-23
2.8263469,1.021622,-0.010487177,-7.6603171e-23
2.8390213,1.016432,-0.009956491,-2.6393428e-23
2.8509779,1.0106581,-0.009444121,2.3997351e-23
2.8622575,1.004278,-0.0089484457,-7.2229777e-23
2.8728984,0.99727115,-0.0084680854,-8.5481432e-23
2.8829367,0.98961987,-0.0080019162,-3.5144135e-24
2.8924066,0.98131047,-0.0075490886,5.4079593e-23
2.9013402,0.97233429,-0.0071090337,-1.8319439e-24
2.9097679,0.9626884,-0.0066814497,-3.1261145e-23
2.9177184,0.95237598,-0.0062662802,1.9354241e-23
2.9252187,0.94140624,-0.0058636784,3.412033e-23
2.9322943,0.9297941,-0.0054739628,-2.0014932e-24
2.9389692,0.9175593,-0.0050975652,-2.9928196e-23
2.9452661,0.90472532,-0.0047349779,-1.8242993e-23
2.9512065,0.89131802,-0.0043867034,-2.3182973e-23
2.9568104,0.87736411,-0.0040532099,-1.3984957e-23
2.9620971,0.86288962,-0.0037348949,7.4102752e-24
2.9670843,0.8479184,-0.0034320586,1.6265031e-23
2.9717892,0.83247064,-0.0031448866,1.4016942e-23
2.9762276,0.81656162,-0.0028734428,1.2531172e-23
2.9804147,0.80020042,-0.0026176685,-1.5664405e-23
2.9843647,0.78338882,-0.0023773892,-2.8344348e-23
2.9880911,0.76612024,-0.0021523281,-8.8431043e-24
2.9916064,0.74837873,-0.0019421169,3.0390669e-24
2.9949226,0.73013773,-0.0017463092,7.769332e-24
2.9980511,0.71135867,-0.001564396,9.1533792e-24
3.0010024,0.69198942,-0.0013958212,1.9471759e-25
3.0037866,0.67196228,-0.0012399972,-3.5601398e-24
3.0064131,0.65119149,-0.0010963192,5.0343173e-24
3.0088909,0.62956996,-0.00096417606,-5.6098977e-24
3.0112284,0.6069653,-0.0008429624,-4.4014174e-24
3.0134335,0.58321481,-0.00073208937,1.2251345e-24
3.0155138,0.55811955,-0.00063099738,-4.6323498e-24
3.0174762,0.53143792,-0.00053915716,-9.5453146e-25
3.0193275,0.50288042,-0.00045597755,-1.5969038e-24
3.021074,0.47211004,-0.00038045441,-4.4224906e-24
3.0227216,0.43875906,-0.00031074506,5.8698343e-24
3.0242759,0.40248566,-0.00024517157,7.9310034e-24
3.0257422,0.36310854,-0.00018590031,9.2130048e-27
3.0271255,0.32084191,-0.00013949791,-7.0064277e-25
3.0284304,0.27652779,-0.00010752945,-8.6623114e-26
3.0296614,0.2315797,-8.1723861e-05,-1.5999619e-24
3.0308227,0.18749782,-5.5972394e-05,-6.5388614e-25
3.0319183,0.14533371,-3.3102221e-05,-2.3360644e-24
3.0329518,0.10555112,-1.6780322e-05,-5.5641546e-24
3.0339268,0.068219509,-6.7923296e-06,-4.3679476e-24
3.0348466,0.033238508,-1.287838e-06,-1.2677816e-24
3.0357143,0,0,0
