/*--------------------------------*- C++ -*----------------------------------*\
| =========                 |                                                 |
| \\      /  F ield         | OpenFOAM: The Open Source CFD Toolbox           |
|  \\    /   O peration     | Version:  2.4.0                                 |
|   \\  /    A nd           | Web:      www.OpenFOAM.org                      |
|    \\/     M anipulation  |                                                 |
\*---------------------------------------------------------------------------*/
FoamFile
{
    version     2.0;
    format      ascii;
    class       volScalarField;
    location    "390";
    object      epsilon;
}
// * * * * * * * * * * * * * * * * * * * * * * * * * * * * * * * * * * * * * //

dimensions      [0 2 -3 0 0 0 0];

internalField   nonuniform List<scalar> 
32000
(
2.2924038
2.1301103
1.8952796
2.0122873
2.0674353
1.0446768
2.3122325
2.2076747
2.7201228
1.1051468
0.67762018
0.061144734
0.15495753
0.048728974
0.011732963
0.024439895
0.020444927
0.020980205
0.038471964
0.070412499
0.10137365
0.098862134
0.070276567
0.050826478
0.042134387
0.037996694
0.035718323
0.032357409
0.028474831
0.024536999
0.021859634
0.019559388
0.014972169
0.010190841
0.0096697121
0.0086683987
0.006201701
0.0058217617
0.0054479664
0.0051186134
0.0047029392
0.0044762447
0.0041615716
0.0039037651
0.0037144744
0.003703844
0.0039418375
0.0041559996
0.0040530221
0.0036981566
0.0033328497
0.0032978837
0.0038081839
0.0041598377
0.0044846227
0.0047971581
0.0052118582
0.0056787351
0.0060166857
0.006322882
0.0065171209
0.0068392082
0.0069673173
0.0070837995
0.007166635
0.0072460458
0.0073777239
0.0075165653
0.0076056887
0.0076940996
0.0076637462
0.0076884155
0.0075691818
0.007441086
0.0071561307
0.0067485967
0.0063427561
0.0058530894
0.0052430055
0.0046224989
0.0037240216
0.0026582774
0.0035486859
0.0045831859
0.0055686426
0.0063838756
0.0072504374
0.0078970506
0.0084202085
0.0088549858
0.0090406773
0.0089733448
0.0086704504
0.0080185941
0.00717265
0.0061306625
0.0050866066
0.0040587565
0.0031238201
0.0027361124
0.0030149472
0.0041072702
0.0054742036
0.0068692782
0.0082761201
0.0096808636
0.011065939
0.012467152
0.0138685
0.015129532
0.016080308
0.016514093
0.016078234
0.014089984
0.012542634
0.017238598
0.019855378
0.02085178
0.020714242
0.019815577
0.018799568
0.01753563
0.014915835
0.016798832
0.021536379
0.022416564
0.022876103
0.024603354
0.026542592
0.027942478
0.02879639
0.029408715
0.030156542
0.031053571
0.032105283
0.033417154
0.034519859
0.035219405
0.035639385
0.035309541
0.031526279
0.023114852
0.047694732
0.070066381
0.094230184
0.12017007
0.14994635
0.18296426
0.22112085
0.26281586
0.3079429
0.34651354
0.37009081
0.29099332
0.20784267
0.35625584
0.51517083
0.72290976
1.0212144
1.4609819
2.1318367
3.1835557
4.8790965
7.6344837
12.236702
20.010915
32.975017
53.444039
83.212335
125.124
304.05665
678.5758
1193.3505
2006.8292
3152.8187
889.73408
2208.9099
1450.1704
706.35513
11756.613
46647.244
31050.77
41295.926
25685.927
4526.0728
14534.427
8823.7715
36286.471
4623.7568
45529.208
15163.615
10101.837
2943.0308
1075.164
407.33419
171.32756
63.512238
15.013428
3.6989086
1.9562223
1.590805
1.4907644
1.3411608
1.4123912
1.4502698
0.77886338
1.6242187
1.5767552
1.9301041
0.84732039
0.53666062
0.056429587
0.13106938
0.044259815
0.011365363
0.021876414
0.018523318
0.018913462
0.033905643
0.060584575
0.085612682
0.083259033
0.05987781
0.043732032
0.036393826
0.032850021
0.03085855
0.027998428
0.024709041
0.021368666
0.019072271
0.017101023
0.013197985
0.0090827976
0.0085810785
0.0077041802
0.005569988
0.0052044289
0.0048653897
0.0045678452
0.0041991387
0.0039928062
0.003714926
0.0034862941
0.0033181894
0.0033045119
0.0035055698
0.0036900595
0.0036058715
0.0033035213
0.0029883023
0.002954527
0.003389415
0.0036946634
0.0039756611
0.0042454484
0.0046008383
0.0049999425
0.0052896914
0.0055507892
0.0057168607
0.0059890369
0.0060982272
0.0061964187
0.0062660117
0.0063325115
0.006442801
0.006559031
0.0066334892
0.0067071683
0.0066815982
0.0067017461
0.006601934
0.0064941031
0.0062549529
0.005912011
0.0055687284
0.0051538854
0.0046355085
0.0041045847
0.0033344902
0.0024141473
0.0031594069
0.0040451947
0.0048881915
0.0055842468
0.0063171341
0.0068651931
0.0073070155
0.0076732539
0.0078334882
0.0077832738
0.0075362719
0.0069979288
0.0062912295
0.0054132164
0.0045224728
0.0036365425
0.002821862
0.0024735043
0.0027074719
0.0036471723
0.0048188092
0.0060038472
0.0071873972
0.0083597068
0.0095078094
0.010661801
0.011808736
0.012835284
0.013606025
0.013957639
0.01361045
0.012017753
0.010755535
0.014449214
0.01658932
0.017443078
0.017387997
0.016711726
0.015916154
0.014908343
0.012804954
0.014241406
0.018005452
0.018753893
0.019115258
0.020458418
0.021976354
0.023077886
0.023752266
0.024229346
0.024796441
0.025470385
0.02626565
0.027281148
0.028189919
0.028826564
0.029251514
0.029093791
0.026242877
0.01962413
0.038432466
0.055331037
0.073001584
0.091596059
0.11263975
0.13567986
0.16194964
0.19039732
0.22097206
0.24684176
0.26156963
0.20916959
0.15467179
0.25378049
0.35634843
0.48676382
0.66862852
0.92839131
1.3110362
1.8875777
2.7758095
4.1482171
6.3133623
9.7398724
15.048351
22.811622
33.305554
47.358049
97.52711
184.53339
288.28246
432.88256
611.98577
238.47255
484.53925
357.65226
226.64038
1981.6039
5027.547
3715.0571
4694.8232
3403.8284
961.04755
2334.7819
1645.922
4595.8162
1015.176
5346.1191
2348.2547
1705.5775
657.98787
296.39231
135.89092
67.127923
29.517906
8.6825303
2.5203865
1.3907437
1.1150588
1.0516598
0.95645621
1.000854
1.028111
0.58482995
1.1522511
1.1360943
1.3814339
0.65050449
0.42479733
0.05174569
0.11046911
0.040136091
0.011029577
0.019522829
0.01674549
0.01703131
0.029857253
0.052054711
0.072129618
0.06987378
0.050806444
0.03747117
0.031305404
0.028280068
0.026540302
0.024115975
0.021345662
0.018531059
0.016574113
0.014895538
0.011594029
0.0080727561
0.0075919231
0.0068269817
0.0049916601
0.0046401989
0.0043328829
0.0040645604
0.0037385689
0.003550919
0.003306308
0.0031039563
0.0029547949
0.0029380509
0.0031056849
0.0032639684
0.0031970682
0.0029419897
0.0026717039
0.0026385771
0.0030054197
0.0032694799
0.0035118652
0.0037440637
0.0040473274
0.0043871546
0.0046350279
0.0048569807
0.0049986426
0.0052274681
0.0053202948
0.0054025744
0.0054605955
0.0055157725
0.0056073889
0.0057039131
0.0057655781
0.0058264436
0.0058049632
0.0058211638
0.0057381941
0.0056479446
0.0054486148
0.0051618841
0.0048731286
0.0045237523
0.0040859633
0.0036341441
0.0029784422
0.0021887989
0.0028015227
0.0035541583
0.0042716736
0.0048638662
0.0054808847
0.0059441868
0.0063163723
0.0066241612
0.0067631632
0.0067283532
0.0065301384
0.00609039
0.0055048197
0.0047699306
0.0040136503
0.0032529886
0.0025452454
0.0022314334
0.0024239339
0.003226475
0.0042255355
0.0052271547
0.0062174355
0.0071902417
0.00813645
0.0090811556
0.010013913
0.010843972
0.011464318
0.011747338
0.011474091
0.010213074
0.0091907112
0.012041168
0.013788332
0.014531127
0.014551081
0.014064447
0.013455828
0.012662532
0.010988041
0.012048986
0.015008381
0.01564778
0.015926718
0.016954258
0.018128476
0.01898803
0.019517392
0.0198846
0.020303693
0.02079431
0.021380414
0.022159833
0.022922686
0.023529991
0.023984857
0.023987371
0.021890818
0.01671244
0.030921455
0.043654104
0.056498044
0.069771595
0.084655209
0.10082705
0.1191036
0.13888269
0.16021811
0.17808041
0.18685034
0.15136191
0.11615092
0.18287574
0.25002896
0.33350761
0.4470566
0.60496496
0.83085487
1.1601245
1.6486725
2.3732338
3.4652756
5.106276
7.5051082
10.81172
15.045786
20.553952
37.5666
63.328475
91.249792
127.00434
167.18797
81.321676
144.24925
124.06098
112.73201
643.24044
1084.1101
755.13212
916.13998
728.09518
280.21254
565.15258
437.84175
950.74578
300.39297
1051.6905
553.58875
425.02884
197.66744
102.5928
53.765922
29.844659
14.938873
5.2326984
1.7369598
0.99826409
0.78825643
0.74685856
0.68698327
0.71509117
0.73587243
0.44225162
0.8250155
0.82543051
0.9966182
0.50000654
0.33599945
0.047190598
0.092775705
0.036319451
0.010711222
0.017379008
0.015107664
0.015325436
0.026285471
0.044677675
0.060637007
0.058441462
0.042932168
0.031971494
0.026813426
0.024237225
0.022717904
0.020671277
0.018353204
0.015999081
0.014343449
0.012924389
0.01014976
0.0071558829
0.0066971359
0.0060324088
0.0044643477
0.0041269803
0.0038483944
0.0036067454
0.0033193671
0.0031487976
0.0029340756
0.0027552786
0.0026229604
0.0026031845
0.0027407469
0.0028759719
0.0028247929
0.0026120168
0.0023818874
0.00234911
0.0026550381
0.0028826188
0.003091126
0.0032904531
0.0035481776
0.0038364371
0.0040480914
0.0042362382
0.0043568285
0.0045481857
0.0046268833
0.0046953581
0.0047432774
0.0047885304
0.004863875
0.0049432575
0.0049937954
0.0050435501
0.0050255421
0.0050383124
0.0049698806
0.0048948269
0.0047299521
0.0044919083
0.0042504709
0.0039580887
0.0035907443
0.0032084395
0.0026540438
0.0019811839
0.0024745273
0.0031084015
0.0037158038
0.0042178081
0.0047349254
0.005125573
0.0054383856
0.005696554
0.0058178263
0.0057966901
0.0056408119
0.0052862171
0.0048055977
0.0041951088
0.0035563727
0.0029058622
0.0022928341
0.0020093815
0.0021638492
0.0028437166
0.00369085
0.0045328702
0.00535648
0.0061586992
0.0069335544
0.007701757
0.0084548627
0.0091208126
0.0096158471
0.0098415523
0.0096291582
0.0086436849
0.0078225338
0.009975142
0.01139586
0.012050402
0.012136654
0.011811227
0.011362135
0.010749021
0.0094285128
0.01018071
0.012478184
0.013022691
0.013231705
0.014000931
0.014894985
0.015557825
0.015969521
0.016247347
0.016545882
0.016886628
0.01730276
0.017894374
0.018545553
0.019145289
0.019647588
0.019800007
0.01831345
0.014291713
0.024852922
0.034402039
0.043651453
0.053064111
0.063594666
0.075027919
0.0879206
0.10203811
0.11752883
0.13026325
0.134884
0.11023501
0.088055165
0.13329193
0.1778456
0.23226183
0.30472959
0.40324806
0.54073994
0.73563665
1.0158008
1.4175605
2.0010243
2.8416679
4.0137855
5.5550806
7.4503558
9.8847948
16.518054
25.590451
34.807373
45.91575
57.33747
32.806639
53.249571
56.344552
60.131828
199.21736
290.82699
217.38521
272.22298
214.79701
103.68975
180.59605
148.01001
271.41081
109.06859
289.08174
172.10846
137.12403
72.563383
41.632129
24.060459
14.580282
8.0716479
3.250772
1.2106191
0.72225616
0.56206648
0.53426274
0.49746733
0.51508089
0.53146696
0.33680707
0.59595447
0.60454214
0.72434259
0.38474757
0.2655053
0.042830221
0.077645116
0.032779486
0.010396382
0.015442188
0.01360574
0.013787762
0.02314844
0.038317526
0.05087346
0.048718401
0.036130011
0.02716213
0.022863615
0.020673793
0.019347583
0.017627208
0.015701422
0.013748529
0.012359247
0.011169377
0.0088546912
0.0063270504
0.0058914206
0.0053158728
0.0039854662
0.0036624766
0.0034096933
0.0031922121
0.0029395027
0.0027844925
0.002596433
0.0024386404
0.0023212154
0.0022985075
0.0024091946
0.0025241785
0.0024870847
0.0023119191
0.0021175463
0.0020850536
0.0023369445
0.0025322594
0.0027111794
0.0028819121
0.0031000931
0.003343728
0.0035241752
0.0036832635
0.0037857205
0.003944848
0.0040113516
0.004067877
0.0041069833
0.0041435421
0.0042047351
0.0042692484
0.0043101341
0.0043502922
0.0043352152
0.0043450296
0.0042890885
0.0042271259
0.0040919179
0.0038958394
0.0036952862
0.0034522674
0.0031461636
0.002824645
0.0023593799
0.0017902043
0.0021776863
0.002706068
0.0032171639
0.0036410912
0.004072523
0.0044010596
0.0046634383
0.0048796534
0.0049860583
0.0049768606
0.0048574681
0.0045759594
0.0041858908
0.0036830746
0.0031467845
0.0025928007
0.002063361
0.0018066772
0.0019265568
0.0024972278
0.0032110643
0.0039146664
0.0045950568
0.005251964
0.0058819422
0.0065018604
0.0071048474
0.0076342164
0.0080251407
0.0082029206
0.0080398376
0.0072807638
0.0066278755
0.0082141108
0.0093614647
0.0099431266
0.010085776
0.0098965383
0.0095842275
0.0091231002
0.0080931704
0.0085979465
0.010353903
0.01081202
0.010960995
0.011519734
0.012185743
0.012688318
0.013004107
0.013209258
0.013410534
0.013630035
0.013909023
0.014351064
0.014913322
0.015515581
0.016073901
0.016365468
0.015372851
0.012281649
0.019972774
0.027076964
0.033648244
0.040258225
0.047708782
0.055866549
0.065131719
0.075572242
0.087378553
0.09672323
0.098391624
0.080822367
0.067418623
0.098270946
0.12820678
0.1643025
0.211516
0.27447451
0.36051656
0.47961137
0.64624987
0.87863616
1.2059721
1.6613768
2.2716132
3.0436154
3.9649875
5.1476548
8.0211467
11.651281
15.180379
19.234836
23.042786
14.936299
22.727046
24.72008
28.545483
69.720169
96.424387
78.112407
123.20703
109.51645
62.795077
69.698664
59.353677
96.903261
45.825287
99.701169
64.643692
52.83779
30.684242
18.957603
11.804192
7.6600841
4.5959231
2.0815849
0.85734812
0.52819948
0.40416676
0.38475067
0.36298267
0.37390526
0.38716691
0.25832941
0.43422568
0.44624919
0.5301623
0.29635198
0.20954855
0.038697806
0.0647657
0.029491832
0.010072613
0.01370651
0.012235045
0.012409126
0.02040276
0.032847608
0.042603414
0.040482751
0.030281728
0.022974772
0.019403897
0.017544487
0.01638774
0.014948352
0.013361281
0.011756071
0.010601155
0.0096126712
0.0076983448
0.0055807704
0.0051692796
0.004672606
0.0035522106
0.0032441837
0.003014388
0.002818626
0.0025968063
0.0024559201
0.002291461
0.0021523013
0.0020479765
0.0020225105
0.0021093686
0.0022065982
0.0021818858
0.0020399095
0.001877259
0.0018452016
0.0020496619
0.0022164593
0.0023696419
0.0025156232
0.0026996765
0.0029048923
0.0030585339
0.0031927506
0.0032796387
0.0034111727
0.0034671448
0.0035133473
0.0035447686
0.0035737168
0.0036226308
0.0036742894
0.0037068328
0.0037387426
0.003726127
0.0037334261
0.0036881628
0.0036374454
0.0035276472
0.0033675562
0.0032021768
0.0030016852
0.002748514
0.0024798807
0.0020924818
0.0016147319
0.0019100219
0.0023451388
0.0027722453
0.0031287363
0.0034870389
0.0037625888
0.0039822568
0.0041631236
0.0042569641
0.0042579783
0.0041697696
0.003950552
0.0036382563
0.0032282453
0.0027810037
0.0023113592
0.0018554607
0.0016225154
0.0017112404
0.0021851792
0.0027824208
0.0033663357
0.0039241004
0.0044577002
0.0049656673
0.0054615126
0.0059395788
0.006355734
0.006660465
0.0067981634
0.0066743023
0.0060988218
0.0055860324
0.0067230579
0.0076401804
0.0081585616
0.0083467219
0.0082712925
0.0080765247
0.0077443106
0.006952053
0.007264524
0.0085804629
0.0089573877
0.0090541289
0.009442167
0.0099229642
0.010294791
0.010532118
0.010678394
0.010802419
0.010925552
0.011095257
0.011417887
0.011905124
0.012509771
0.013123497
0.013541341
0.012949447
0.010609859
0.016070867
0.021287275
0.025866541
0.030443965
0.035712553
0.041601178
0.048422984
0.056497959
0.065982258
0.07296055
0.07252376
0.059714561
0.052147013
0.073300367
0.093667651
0.11802374
0.14939998
0.19055554
0.24580235
0.32071435
0.42311656
0.5626307
0.7541985
1.0128636
1.3477056
1.7577659
2.2370772
2.8566345
4.2064816
5.8055113
7.3136378
8.9730568
10.386323
7.4248424
10.666753
11.584548
13.733112
27.968005
37.101462
32.45683
62.529362
74.034375
45.33578
30.476466
26.829131
40.371102
21.439668
40.275432
27.756148
23.105232
14.384801
9.4088894
6.215879
4.2640383
2.7344229
1.3701977
0.61684494
0.39078596
0.29303434
0.2787401
0.26667811
0.27340936
0.28438876
0.19954463
0.31913597
0.33198337
0.39067864
0.22847488
0.16514643
0.034807646
0.053855674
0.026437974
0.0097295701
0.012163102
0.010990346
0.011179524
0.018004625
0.02815143
0.035616421
0.033534077
0.025276521
0.019344362
0.016384884
0.014806776
0.013799207
0.012601198
0.01130514
0.0099994153
0.0090496593
0.0082371076
0.0066702396
0.0049112926
0.0045250752
0.0040977327
0.0031616228
0.0028694193
0.0026599633
0.002483545
0.0022890103
0.0021608975
0.0020171525
0.0018944335
0.0018015756
0.0017736024
0.0018395303
0.0019211748
0.0019070841
0.0017941404
0.0016595223
0.0016282328
0.001791574
0.0019331797
0.0020640433
0.0021886934
0.002343471
0.0025157728
0.0026464408
0.0027594479
0.0028329879
0.0029410072
0.002987867
0.0030251689
0.0030498941
0.0030721905
0.0031104836
0.0031510787
0.0031764453
0.0032013092
0.0031907512
0.0031959476
0.0031597616
0.003118678
0.0030305188
0.0029011211
0.0027658722
0.0026018163
0.0023941183
0.0021712557
0.0018513676
0.0014536411
0.0016703043
0.0020234436
0.0023774872
0.0026758191
0.0029719912
0.0032024025
0.0033859778
0.0035371383
0.0036202398
0.0036297647
0.0035679386
0.0034013924
0.0031555579
0.0028251997
0.0024551762
0.0020590475
0.0016676913
0.0014559712
0.0015169451
0.0019056215
0.0024011588
0.002881871
0.0033350306
0.0037644135
0.0041700523
0.0045625406
0.0049371433
0.0052598993
0.0054935858
0.0055977935
0.0055044378
0.0050755429
0.0046786603
0.0054688403
0.0061918603
0.006652413
0.0068745109
0.0068925218
0.0067985586
0.0065763223
0.0059782187
0.00614687
0.0071084265
0.007407851
0.0074585288
0.0077088534
0.0080397533
0.0083049289
0.0084779499
0.0085768956
0.008640961
0.0086895396
0.0087738894
0.0090010633
0.009421046
0.010020092
0.010680265
0.011208367
0.010941615
0.0092122291
0.012971794
0.01672413
0.019828605
0.022935629
0.026655637
0.030966891
0.036142688
0.042716558
0.050724743
0.055917984
0.05402006
0.044537238
0.040754916
0.055333175
0.069370884
0.086089368
0.10735047
0.1348464
0.17118998
0.21958921
0.28441743
0.37102136
0.48737746
0.64038873
0.83241994
1.0611749
1.3251829
1.6698048
2.3452235
3.1033309
3.8031656
4.5407891
5.0994961
3.9474592
5.384383
5.8402647
6.9893368
12.581355
16.032448
14.976629
29.690175
53.696419
33.386334
14.706476
13.241155
18.664856
10.880074
18.233511
13.142857
11.087912
7.285567
4.9880567
3.4604436
2.4871957
1.6878857
0.92406059
0.4503516
0.29249219
0.2142775
0.20306249
0.19713452
0.2013053
0.2105572
0.15521638
0.23663414
0.24893353
0.28982181
0.1763004
0.12993571
0.031162524
0.04466061
0.023604669
0.0093595629
0.010800352
0.0098658479
0.010088493
0.015910719
0.024123257
0.029726117
0.027692693
0.021011598
0.016209651
0.013760249
0.012421111
0.01154542
0.010554279
0.0095068829
0.0084574328
0.0076862096
0.0070266789
0.0057596541
0.0043127093
0.0039530826
0.0035863339
0.0028106591
0.0025353529
0.0023438131
0.0021844564
0.0020137863
0.0018971762
0.0017714462
0.0016631517
0.0015802874
0.0015501304
0.0015978786
0.0016658143
0.001660553
0.0015727432
0.0014627848
0.0014327318
0.0015609369
0.0016803094
0.0017918583
0.001898191
0.0020280029
0.0021722376
0.0022832426
0.0023782168
0.0024403191
0.0025283921
0.0025673479
0.0025969916
0.002615892
0.0026323922
0.002661539
0.0026926688
0.0027118978
0.0027307897
0.0027219452
0.0027254262
0.0026969086
0.0026640569
0.0025942083
0.0024908342
0.0023812815
0.0022482618
0.0020793771
0.0018959101
0.0016340785
0.0013058393
0.0014570542
0.0017386721
0.0020293116
0.0022775198
0.0025211123
0.0027130995
0.0028662083
0.0029924408
0.0030662292
0.0030826085
0.0030428211
0.0029204054
0.0027310356
0.0024687404
0.0021655292
0.0018333676
0.001498557
0.0013060151
0.0013425963
0.0016565236
0.0020635739
0.0024555345
0.0028198112
0.0031614903
0.0034816967
0.0037885137
0.0040778978
0.0043240504
0.0044995172
0.0045758204
0.0045055588
0.004191586
0.0038896993
0.0044202695
0.0049805878
0.0053862121
0.0056303979
0.0057230388
0.0057148125
0.0055868206
0.0051475489
0.0052141227
0.005893678
0.0061191061
0.0061286594
0.0062685277
0.0064787607
0.0066571728
0.006777553
0.0068389452
0.0068579953
0.0068511698
0.0068708983
0.0070220139
0.0073789274
0.0079593738
0.0086503806
0.0092691898
0.0092649931
0.0080332738
0.010527354
0.01314252
0.015164866
0.017212665
0.019830398
0.023038826
0.027103386
0.032742434
0.039785738
0.043510841
0.040671356
0.033612788
0.032184975
0.042290818
0.052102066
0.063780043
0.078469186
0.097234531
0.12170302
0.1537688
0.19595718
0.25137679
0.32441927
0.41816823
0.53251909
0.6655867
0.81830276
1.0191514
1.3741501
1.7545519
2.1000132
2.4475122
2.6766215
2.2158138
2.8894698
3.1384089
3.7734045
6.1889696
7.6137714
7.502968
14.565275
35.830348
22.46482
7.663425
7.0062119
9.273955
5.8786142
8.9827315
6.6965789
5.7062337
3.9145504
2.7836985
2.0138523
1.5073999
1.0748538
0.63660856
0.33327724
0.22146918
0.15813937
0.14875051
0.14653351
0.14919116
0.15708471
0.12155741
0.17707565
0.18818019
0.21644442
0.1361663
0.10204281
0.027759326
0.036951126
0.020983055
0.0089579494
0.0096043548
0.0088551811
0.0091251536
0.014079358
0.020668387
0.024768906
0.022798779
0.017392541
0.013513658
0.01148697
0.010351053
0.0095925167
0.0087782496
0.0079420083
0.0071102429
0.0064933135
0.0059662388
0.0049561393
0.0037790649
0.0034475333
0.0031334994
0.0024962571
0.0022390349
0.0020632684
0.0019188093
0.0017687802
0.0016624745
0.0015522583
0.0014565424
0.0013823541
0.001350399
0.0013825645
0.0014384107
0.0014401876
0.0013738666
0.0012854805
0.0012572121
0.0013558959
0.0014556871
0.0015505379
0.0016411822
0.0017498219
0.0018702263
0.0019644086
0.0020440847
0.0020963846
0.002167618
0.0021996988
0.0022227719
0.0022366217
0.0022480969
0.0022694175
0.0022925136
0.0023065338
0.0023204135
0.0023129914
0.0023151185
0.0022930326
0.0022671948
0.00221273
0.002131276
0.0020435352
0.0019367917
0.0018008072
0.0016510505
0.0014387116
0.0011702932
0.0012685599
0.0014883824
0.0017241505
0.0019291611
0.0021283955
0.0022876782
0.002415066
0.0025203822
0.0025859588
0.0026076018
0.0025859271
0.0025000891
0.0023583598
0.0021539463
0.001908419
0.0016318493
0.001346532
0.0011715308
0.0011870186
0.0014358078
0.0017660704
0.0020819118
0.0023709898
0.0026392145
0.0028884599
0.003124678
0.0033443412
0.0035281269
0.0036562522
0.0037094391
0.0036561063
0.0034303438
0.0032052828
0.0035483594
0.0039741217
0.0043266109
0.0045812936
0.0047310301
0.0047945137
0.0047473711
0.0044385607
0.0044381893
0.0048970377
0.0050527003
0.0050252079
0.0050770789
0.005190941
0.0052992055
0.0053767407
0.0054089291
0.0053957879
0.0053502347
0.0053233577
0.0054146131
0.005711227
0.0062579428
0.0069597185
0.0076464243
0.0078514026
0.0070263664
0.0086108656
0.010349636
0.011586668
0.012876304
0.01470604
0.017136298
0.020444284
0.025517998
0.031888191
0.034318365
0.030968708
0.025739983
0.025681958
0.032741719
0.039706014
0.048011051
0.058359642
0.071437923
0.088282925
0.11003904
0.13821114
0.17467447
0.22188667
0.28109668
0.35142527
0.43169733
0.52379695
0.64498528
0.83875473
1.0380482
1.2163476
1.386333
1.4822263
1.2993504
1.6305641
1.7770808
2.1442866
3.2596273
3.8995001
4.0194552
7.4951034
19.13474
12.423791
4.1968728
3.8995107
4.8797705
3.3364773
4.7178645
3.6077444
3.0975227
2.201509
1.6174196
1.2145023
0.9428935
0.70287656
0.44685549
0.24972341
0.16962556
0.11791901
0.10962064
0.10947026
0.11126492
0.11805061
0.09581576
0.13378116
0.14346357
0.16274361
0.10528246
0.079981196
0.024593012
0.030520838
0.018567501
0.0085233676
0.0085595157
0.0079514039
0.0082751073
0.012474696
0.017703153
0.02060243
0.018711329
0.014333545
0.011204026
0.0095266936
0.0085633151
0.0079093608
0.0072459191
0.0065876835
0.0059392717
0.0054546037
0.0050415446
0.0042496496
0.0033044704
0.0030026588
0.0027343693
0.0022153974
0.0019774298
0.0018156195
0.0016840417
0.0015516427
0.0014545058
0.0013575101
0.0012726899
0.0012060092
0.0011726868
0.0011917049
0.0012368667
0.0012439445
0.0011957095
0.0011260607
0.0011001423
0.0011745068
0.0012571226
0.0013375386
0.0014147648
0.0015055391
0.0016057903
0.001685575
0.0017522909
0.0017961835
0.0018532706
0.0018793589
0.0018968167
0.0019063117
0.0019134664
0.0019281501
0.0019444987
0.0019541422
0.001963867
0.0019576227
0.001958729
0.0019419928
0.0019221096
0.0018804652
0.0018173387
0.0017480171
0.0016633767
0.0015550745
0.0014339815
0.0012634447
0.0010460489
0.0011029098
0.0012700109
0.0014584655
0.0016262363
0.0017881292
0.0019195628
0.0020252047
0.0021129436
0.0021711532
0.0021965565
0.0021894527
0.0021335428
0.0020316712
0.0018762158
0.0016803744
0.0014520843
0.0012100834
0.0010513346
0.0010489542
0.0012413793
0.0015052006
0.0017559508
0.0019817167
0.0021887593
0.0023794173
0.0025578634
0.0027209566
0.0028544435
0.0029444731
0.0029787023
0.0029373199
0.0027776423
0.0026135983
0.0028266695
0.0031434592
0.0034446617
0.0036990946
0.003889603
0.0040113925
0.0040332798
0.0038322459
0.0037937637
0.0040838453
0.0041752638
0.0041142994
0.0040966519
0.004134417
0.0041865911
0.0042296647
0.0042398087
0.004205315
0.0041352973
0.0040773722
0.0041227388
0.0043620308
0.0048603259
0.0055507923
0.0062801885
0.0066473594
0.0061537194
0.0071134262
0.0081916162
0.0088657342
0.0096177428
0.010881143
0.01275503
0.01555616
0.02028768
0.026111339
0.027393303
0.023871105
0.020050231
0.020705857
0.025690412
0.030719835
0.036736173
0.044170947
0.053475225
0.065322972
0.08042028
0.099690355
0.12429221
0.15559855
0.19397981
0.23845305
0.28843391
0.34590148
0.42077625
0.52952686
0.6372571
0.73195798
0.8168797
0.85756991
0.78912258
0.95863014
1.0499276
1.2689519
1.8105833
2.120144
2.2753747
4.0348919
9.5221256
6.313165
2.3671124
2.250694
2.6986576
1.9704236
2.6024893
2.0284233
1.7516491
1.2825563
0.96995805
0.75365274
0.60530419
0.47012129
0.3188074
0.18923259
0.13137834
0.088958834
0.081356098
0.082173272
0.083484937
0.08933736
0.07598324
0.10208611
0.11034214
0.12322828
0.081519482
0.062570208
0.021659207
0.025184681
0.016354346
0.0080577176
0.0076492816
0.0071470359
0.0075240094
0.011063998
0.015154644
0.017103868
0.015306979
0.011757479
0.0092332178
0.0078442941
0.0070277106
0.0064674991
0.0059322337
0.0054227602
0.004927277
0.0045548802
0.0042392727
0.0036306633
0.0028832215
0.0026127352
0.0023841667
0.0019651562
0.0017474536
0.0015981355
0.0014776029
0.0013600543
0.0012710056
0.0011851516
0.0011097
0.0010494981
0.0010152634
0.0010233958
0.0010591098
0.0010698661
0.0010365473
0.00098302263
0.00095997483
0.0010147624
0.0010824167
0.0011503487
0.0012160994
0.0012918619
0.0013751307
0.0014425816
0.0014983244
0.001535
0.0015802673
0.0016011292
0.0016138161
0.0016195901
0.0016230755
0.0016322027
0.0016429599
0.0016489729
0.0016553062
0.0016500357
0.0016504212
0.001638092
0.0016232389
0.0015921802
0.0015442482
0.0014903891
0.0014242127
0.0013390184
0.0012421297
0.0011065557
0.00093224469
0.0009580424
0.0010808864
0.0012287614
0.0013644266
0.001494921
0.0016026188
0.0016898255
0.0017627441
0.0018142353
0.0018420051
0.0018462849
0.0018144801
0.0017456081
0.0016312993
0.0014781345
0.0012917575
0.0010876936
0.00094419592
0.00092708102
0.0010711503
0.0012776924
0.0014729896
0.0016457427
0.0018021566
0.0019447916
0.0020763663
0.0021940354
0.0022874484
0.0023472535
0.0023661847
0.0023328924
0.0022213935
0.0021046875
0.0022316614
0.0024625646
0.0027151444
0.002960001
0.0031762789
0.0033433914
0.0034234383
0.0033119433
0.003258313
0.0034235492
0.0034577859
0.0033667538
0.0032948142
0.0032734547
0.0032815616
0.0032974653
0.0032916908
0.003244791
0.0031621631
0.0030863853
0.0030981806
0.0032843355
0.0037219935
0.0043794855
0.0051252683
0.0056122318
0.0053860212
0.00594189
0.0065389764
0.0068188494
0.0071949154
0.0080493008
0.0095188572
0.011985277
0.016509683
0.021804942
0.022092021
0.018650455
0.015912943
0.016868073
0.020437643
0.024138626
0.028579022
0.034024542
0.040776612
0.049280053
0.05997866
0.073452054
0.090422364
0.11163756
0.13706679
0.16586409
0.19782832
0.23460638
0.28149194
0.34367166
0.40308461
0.45402948
0.49687917
0.51460347
0.49296845
0.5829192
0.64221207
0.77537609
1.0489717
1.209686
1.3464459
2.2754521
4.7759756
3.2530805
1.3724072
1.3377647
1.5522913
1.1904121
1.4907421
1.1781248
1.021918
0.7675683
0.59605159
0.47833387
0.39680267
0.32046448
0.2306363
0.14482043
0.10284
0.067986777
0.060906203
0.061985065
0.063014245
0.06805881
0.060588625
0.078708866
0.085645317
0.094001956
0.063249642
0.048870699
0.018955467
0.020777573
0.014340621
0.0075658742
0.0068569129
0.0064341349
0.0068578998
0.0098180621
0.012960181
0.014168118
0.012478714
0.0095957965
0.0075585737
0.0064079269
0.00571702
0.0052410559
0.0048142182
0.0044277564
0.0040583432
0.0037801272
0.0035470112
0.0030902886
0.0025099157
0.0022721395
0.002078222
0.0017427452
0.0015460176
0.0014080813
0.0012969708
0.0011917448
0.0011097535
0.0010331823
0.00096572019
0.00091109628
0.00087640541
0.00087572679
0.0009031054
0.00091606182
0.00089474995
0.0008549336
0.00083517603
0.00087462567
0.00092938058
0.00098651333
0.001042438
0.0011056268
0.0011746302
0.0012315033
0.0012779551
0.0013084323
0.0013438843
0.0013601967
0.0013688646
0.0013715022
0.0013719273
0.0013764877
0.0013826876
0.0013857392
0.0013893576
0.0013848913
0.0013848179
0.0013760788
0.0013654452
0.001343034
0.0013075761
0.0012666061
0.0012157384
0.0011496693
0.0010730639
0.0009664339
0.00082811676
0.00083181095
0.00091825408
0.0010315975
0.0011396102
0.0012437115
0.0013311569
0.001402676
0.001463036
0.0015083142
0.0015371871
0.0015499903
0.0015372284
0.0014953199
0.001415322
0.0012986794
0.0011486758
0.00097788336
0.00084885889
0.00082003087
0.00092305645
0.0010804634
0.0012287338
0.0013573979
0.001472246
0.0015758654
0.001669816
0.0017514873
0.0018134757
0.0018497574
0.0018566462
0.0018286146
0.0017512119
0.0016701775
0.0017429603
0.001908256
0.0021159939
0.0023438321
0.002572435
0.0027723097
0.002900138
0.0028632387
0.0028120421
0.0028893286
0.0028749698
0.0027573885
0.0026437895
0.0025775442
0.0025519421
0.0025470845
0.0025305843
0.0024784179
0.0023926319
0.0023098361
0.0022989325
0.0024377175
0.0028063129
0.0034118409
0.0041481506
0.0047161504
0.004701703
0.0050180513
0.0052829883
0.005296899
0.0054157714
0.0059742847
0.0071451311
0.0093915598
0.013795124
0.018509386
0.017976033
0.014789344
0.012871597
0.013883811
0.016486717
0.019263845
0.022601266
0.02666377
0.03165514
0.03787229
0.045597971
0.055200596
0.067125374
0.081757565
0.098905875
0.11791696
0.13878677
0.16268773
0.19215623
0.2280428
0.26109771
0.28852313
0.31014895
0.31840909
0.3150361
0.36450502
0.4040298
0.4858492
0.62864972
0.71813265
0.82516853
1.3313291
2.4322903
1.7183323
0.82225405
0.8162288
0.920774
0.72961416
0.87862657
0.70100355
0.61016355
0.46856189
0.37298567
0.30884192
0.26446721
0.22187213
0.16878234
0.11175906
0.081282429
0.052684286
0.046089035
0.047012795
0.047847463
0.052177304
0.048549986
0.06132606
0.067102328
0.072272119
0.049226201
0.03813484
0.01648141
0.017153356
0.012522893
0.0070551418
0.0061662236
0.0058044164
0.0062635049
0.0087114848
0.011066579
0.011705919
0.010134507
0.0077882736
0.0061422486
0.0051892148
0.0046067777
0.0042065639
0.0038708702
0.0035847994