/*--------------------------------*- C++ -*----------------------------------*\
| =========                 |                                                 |
| \\      /  F ield         | OpenFOAM: The Open Source CFD Toolbox           |
|  \\    /   O peration     | Version:  2.4.0                                 |
|   \\  /    A nd           | Web:      www.OpenFOAM.org                      |
|    \\/     M anipulation  |                                                 |
\*---------------------------------------------------------------------------*/
FoamFile
{
    version     2.0;
    format      ascii;
    class       volScalarField;
    location    "390";
    object      p;
}
// * * * * * * * * * * * * * * * * * * * * * * * * * * * * * * * * * * * * * //

dimensions      [0 2 -2 0 0 0 0];

internalField   nonuniform List<scalar> 
32000
(
-0.081753857
-0.13978022
-0.14041896
-0.15618893
-0.16368592
-0.16588439
-0.15956661
-0.14708362
-0.13017242
-0.10957979
-0.087744669
-0.072464837
-0.068238309
-0.074221906
-0.086283398
-0.10246086
-0.12343909
-0.14720264
-0.17014149
-0.18978684
-0.20426381
-0.21251404
-0.21399486
-0.20893593
-0.19825039
-0.18330562
-0.16615875
-0.14926494
-0.13475631
-0.12339383
-0.11439588
-0.10738429
-0.10229289
-0.098263336
-0.094839834
-0.091724764
-0.088820547
-0.086095006
-0.083515153
-0.081070471
-0.078744063
-0.076513557
-0.074344177
-0.072222145
-0.070104434
-0.06803907
-0.065907805
-0.064134101
-0.062024536
-0.059783667
-0.057427574
-0.055082279
-0.052813641
-0.05068938
-0.048748996
-0.047014872
-0.045489361
-0.044158756
-0.042994521
-0.041955646
-0.040990838
-0.040041423
-0.039044821
-0.037938868
-0.036666949
-0.03518395
-0.033461807
-0.031493114
-0.029292332
-0.02689613
-0.024356185
-0.021734532
-0.019097523
-0.016510265
-0.014032179
-0.011714014
-0.0095966253
-0.0077115646
-0.0060828205
-0.0047291119
-0.0036658259
-0.0029059148
-0.002460096
-0.0023359957
-0.0025379326
-0.0030672522
-0.0039222425
-0.0050990868
-0.006591278
-0.0083858776
-0.010459416
-0.012769832
-0.015246779
-0.017778577
-0.020219934
-0.022425638
-0.02428773
-0.025762097
-0.026862116
-0.02762761
-0.028090434
-0.028237747
-0.027998108
-0.027295921
-0.026129634
-0.024576766
-0.022730836
-0.020637685
-0.01831682
-0.015805102
-0.013202973
-0.010707374
-0.0086200054
-0.0073383517
-0.0073151059
-0.0089803586
-0.012634881
-0.018324158
-0.025766792
-0.034390721
-0.043502677
-0.052561266
-0.06132347
-0.069734734
-0.077801387
-0.08560352
-0.093349736
-0.10132456
-0.10973514
-0.11873333
-0.12847869
-0.1389871
-0.15017691
-0.16232166
-0.17608479
-0.19219
-0.2097611
-0.22503848
-0.23281858
-0.23114819
-0.22111927
-0.20802421
-0.19628197
-0.18702829
-0.17941625
-0.17454507
-0.17478605
-0.18063938
-0.19145776
-0.20787778
-0.23543766
-0.2730488
-0.30879581
-0.33203382
-0.36023742
-0.38527207
-0.40900556
-0.43177464
-0.45373942
-0.4747848
-0.49521165
-0.51471694
-0.5332867
-0.55075523
-0.56724154
-0.58227249
-0.59428841
-0.60241667
-0.60595861
-0.60424533
-0.5967925
-0.58322068
-0.56324823
-0.53648968
-0.50382961
-0.4669367
-0.42793131
-0.38743423
-0.34551909
-0.30289361
-0.26097151
-0.22070224
-0.18167399
-0.14324159
-0.10543474
-0.069258132
-0.035214435
-0.0037850364
0.023532925
0.045354309
0.061402235
0.068298794
0.06209948
0.042675104
0.016291885
-0.0076955754
-0.025814508
-0.034389805
-0.043658113
-0.034358319
-0.081757978
-0.1397894
-0.14041329
-0.15617397
-0.16366616
-0.16587645
-0.15959256
-0.14715285
-0.13028865
-0.10973793
-0.087903035
-0.072560246
-0.068240857
-0.074145715
-0.086156903
-0.10228948
-0.1232265
-0.14697762
-0.16993488
-0.18961893
-0.20414862
-0.21245975
-0.21400405
-0.20900461
-0.19836887
-0.1834586
-0.16632526
-0.14942173
-0.13488635
-0.12349592
-0.11447621
-0.10744414
-0.10233627
-0.09829714
-0.094867863
-0.091748979
-0.08884153
-0.086113061
-0.083530511
-0.081083286
-0.078754501
-0.076521821
-0.074350394
-0.072226468
-0.070106831
-0.068039852
-0.065907217
-0.064132579
-0.062022304
-0.059781365
-0.057425264
-0.055080069
-0.052811544
-0.050687411
-0.048747149
-0.047013131
-0.045487706
-0.044157167
-0.042992978
-0.041954133
-0.040989339
-0.040039927
-0.039043323
-0.037937371
-0.036665468
-0.035182508
-0.033460436
-0.031491849
-0.029291212
-0.026895175
-0.024355407
-0.021733932
-0.019097093
-0.016509992
-0.014032046
-0.011714006
-0.0095967302
-0.0077117769
-0.0060831395
-0.0047295401
-0.0036663673
-0.0029065732
-0.0024608753
-0.0023368992
-0.0025389611
-0.0030684022
-0.0039235019
-0.0051004272
-0.0065926477
-0.0083871958
-0.010460562
-0.012770642
-0.015247066
-0.017778162
-0.020218731
-0.022423746
-0.024285413
-0.025759677
-0.026859849
-0.027625616
-0.028088727
-0.028236361
-0.027997195
-0.027295668
-0.026130092
-0.024577832
-0.022732392
-0.020639708
-0.018319395
-0.015808371
-0.01320706
-0.010712318
-0.0086257059
-0.007344514
-0.0073212047
-0.0089856419
-0.012638451
-0.01832517
-0.025764704
-0.034385476
-0.04349473
-0.052551683
-0.061313719
-0.069726239
-0.07779499
-0.085599339
-0.093347434
-0.10132362
-0.10973517
-0.11873385
-0.12847928
-0.13898805
-0.15017896
-0.16232507
-0.17608809
-0.19218947
-0.20975293
-0.22502249
-0.23279832
-0.23112891
-0.2211059
-0.20801833
-0.19628304
-0.18703671
-0.17943084
-0.17455977
-0.17479464
-0.18063959
-0.19144881
-0.20785145
-0.23538506
-0.27298204
-0.30874672
-0.33200925
-0.36023792
-0.3852945
-0.40904951
-0.43183705
-0.45381764
-0.47487669
-0.49531478
-0.51482786
-0.53340246
-0.55087332
-0.56735814
-0.58237593
-0.59436562
-0.60245865
-0.60595731
-0.60419392
-0.59668638
-0.5830568
-0.56302415
-0.53620959
-0.50350624
-0.46658843
-0.4275705
-0.38706287
-0.345154
-0.30252668
-0.26060075
-0.22034356
-0.18131741
-0.14289186
-0.10511056
-0.068960724
-0.03493768
-0.0035451512
0.02372201
0.045487019
0.061468152
0.068281555
0.062008763
0.042561483
0.016210802
-0.00773174
-0.025817884
-0.034379853
-0.04365535
-0.034352116
-0.081761914
-0.1397997
-0.14040571
-0.15615582
-0.16364243
-0.16586622
-0.1596205
-0.14722922
-0.1304177
-0.10991423
-0.08808003
-0.072667456
-0.068244376
-0.074061241
-0.086015982
-0.10209834
-0.12298922
-0.14672627
-0.16970396
-0.18943116
-0.20401968
-0.21239872
-0.21401397
-0.20908095
-0.19850093
-0.18362916
-0.16651102
-0.14959672
-0.13503151
-0.1236099
-0.11456589
-0.10751091
-0.10238464
-0.098334808
-0.094899078
-0.091775935
-0.088864881
-0.086133148
-0.083547593
-0.08109754
-0.078766113
-0.076531024
-0.074357329
-0.072231309
-0.07010955
-0.0680408
-0.065906623
-0.06413096
-0.062019869
-0.059778827
-0.05742269
-0.055077584
-0.052809168
-0.050685161
-0.048745017
-0.047011107
-0.045485773
-0.044155307
-0.042991175
-0.041952372
-0.040987608
-0.040038217
-0.039041631
-0.037935701
-0.036663836
-0.035180941
-0.033458966
-0.031490511
-0.029290034
-0.026894177
-0.0243546
-0.021733315
-0.019096655
-0.016509718
-0.014031916
-0.011714004
-0.0095968445
-0.0077120028
-0.0060834775
-0.0047299943
-0.0036669432
-0.0029072768
-0.0024617124
-0.0023378751
-0.0025400784
-0.0030696582
-0.003924884
-0.0051019036
-0.00659416
-0.0083886525
-0.010461827
-0.012771532
-0.015247371
-0.01777768
-0.020217362
-0.022421597
-0.024282779
-0.025756921
-0.026857264
-0.027623347
-0.028086802
-0.028234833
-0.027996242
-0.027295492
-0.026130733
-0.024579164
-0.022734284
-0.020642141
-0.018322466
-0.015812229
-0.013211829
-0.010718019
-0.0086322013
-0.0073514526
-0.0073279842
-0.0089914208
-0.012642245
-0.018326067
-0.025762151
-0.034379383
-0.043485598
-0.05254069
-0.061302539
-0.069716531
-0.077787733
-0.085594652
-0.093344876
-0.10132263
-0.10973531
-0.11873458
-0.12848015
-0.13898936
-0.15018155
-0.16232917
-0.17609209
-0.19218946
-0.20974501
-0.22500641
-0.23277735
-0.23110823
-0.22109055
-0.20801055
-0.19628318
-0.18704564
-0.17944698
-0.17457577
-0.1748036
-0.18063902
-0.19143735
-0.20781912
-0.23532278
-0.27290637
-0.30869323
-0.33198215
-0.36023952
-0.38532052
-0.40909931
-0.43190741
-0.45390563
-0.47497994
-0.49543065
-0.51495251
-0.53353263
-0.55100618
-0.56748945
-0.58249272
-0.59445323
-0.6025071
-0.60595731
-0.60413798
-0.5965692
-0.58287495
-0.562775
-0.53589785
-0.50314704
-0.46620316
-0.42717498
-0.38666892
-0.34475823
-0.3021005
-0.2601756
-0.2199386
-0.18091477
-0.14249971
-0.10475512
-0.068631121
-0.034628804
-0.00327841
0.023932167
0.045634292
0.061540521
0.068261532
0.06190757
0.042436574
0.016123779
-0.0077684359
-0.025819902
-0.034369621
-0.043651797
-0.034343771
-0.081764702
-0.13980838
-0.14039711
-0.15613467
-0.16361585
-0.16585415
-0.15964847
-0.14730719
-0.13054936
-0.11009407
-0.088260403
-0.072776624
-0.068247827
-0.073974883
-0.085871965
-0.10190288
-0.12274669
-0.14646943
-0.16946808
-0.18923954
-0.20388832
-0.21233689
-0.21402468
-0.20915949
-0.19863616
-0.18380372
-0.16670093
-0.14977547
-0.13517972
-0.12372626
-0.11465741
-0.10757901
-0.10243399
-0.09837326
-0.09493097
-0.091803494
-0.088888767
-0.086153706
-0.083565084
-0.081112146
-0.078778027
-0.076540485
-0.074364486
-0.072236332
-0.070112421
-0.068041839
-0.065906081
-0.064129391
-0.062017466
-0.059776269
-0.057420058
-0.055075008
-0.052806674
-0.050682777
-0.048742744
-0.047008941
-0.045483704
-0.044153325
-0.042989268
-0.041950531
-0.040985823
-0.040036481
-0.03903994
-0.03793406
-0.036662255
-0.03517944
-0.033457571
-0.031489246
-0.029288919
-0.026893227
-0.024353821
-0.021732702
-0.019096199
-0.016509404
-0.014031728
-0.011713928
-0.0095968737
-0.0077121347
-0.006083715
-0.0047303433
-0.0036674106
-0.0029078697
-0.0024624385
-0.0023387414
-0.0025410891
-0.0030708119
-0.0039261691
-0.005103289
-0.0065955885
-0.0083900353
-0.010463032
-0.012772384
-0.015247668
-0.017777226
-0.020216057
-0.022419533
-0.024280232
-0.025754243
-0.026854746
-0.027621142
-0.028084957
-0.028233425
-0.027995454
-0.027295506
-0.026131561
-0.02458067
-0.022736349
-0.020644754
-0.018325719
-0.015816252
-0.01321671
-0.010723741
-0.0086385868
-0.0073581225
-0.0073343331
-0.0089966401
-0.012645425
-0.018326398
-0.02575916
-0.034373008
-0.043476306
-0.052529573
-0.06129123
-0.069706699
-0.077780366
-0.085589846
-0.093342147
-0.10132145
-0.10973525
-0.11873511
-0.12848083
-0.13899051
-0.1501839
-0.16233287
-0.1760957
-0.19218972
-0.20973891
-0.22499387
-0.23276064
-0.23109106
-0.22107656
-0.20800222
-0.19628227
-0.18705381
-0.17946235
-0.17459047
-0.17481087
-0.18063663
-0.19142309
-0.20778198
-0.235256
-0.27283069
-0.30864273
-0.33195629
-0.36024343
-0.38535003
-0.40915291
-0.43198216
-0.45399858
-0.47508867
-0.49555253
-0.51508362
-0.53366961
-0.55114613
-0.56762811
-0.58261677
-0.5945475
-0.60256122
-0.6059616
-0.6040846
-0.5964526
-0.58269154
-0.56252209
-0.53558072
-0.50278224
-0.46581456
-0.42678067
-0.38628177
-0.34433851
-0.3016436
-0.25974651
-0.21953271
-0.18050839
-0.1421003
-0.10441486
-0.068289785
-0.03431218
-0.0030065295
0.024147221
0.04578464
0.061614385
0.068241793
0.061806162
0.042313486
0.016041866
-0.0077990573
-0.025818069
-0.034358547
-0.043645839
-0.03433512
-0.081766619
-0.13981484
-0.1403874
-0.15610892
-0.16358442
-0.16583878
-0.15967685
-0.14738912
-0.13068743
-0.11028242
-0.088448955
-0.072890497
-0.068251063
-0.073884066
-0.085720676
-0.10169768
-0.12249227
-0.14620018
-0.16922101
-0.18903912
-0.2037513
-0.21227293
-0.21403684
-0.2092427
-0.1987787
-0.18398724
-0.1669003
-0.1499629
-0.13533499
-0.12384811
-0.11475319
-0.10765023
-0.10248562
-0.098413531
-0.094964419
-0.091832433
-0.088913876
-0.08617534
-0.083583514
-0.081127559
-0.078790629
-0.076550526
-0.074372123
-0.072241735
-0.070115581
-0.068043047
-0.065905632
-0.064127846
-0.062015048
-0.059773626
-0.057417297
-0.055072263
-0.052803988
-0.050680185
-0.048740259
-0.047006567
-0.04548144
-0.044151167
-0.042987211
-0.041948567
-0.040983947
-0.040034688
-0.039038225
-0.037932423
-0.036660704
-0.035177985
-0.033456229
-0.031488033
-0.029287845
-0.026892301
-0.024353043
-0.021732068
-0.019095698
-0.016509022
-0.014031454
-0.011713752
-0.0095967919
-0.0077121485
-0.00608383
-0.0047305672
-0.0036677521
-0.0029083375
-0.0024630419
-0.0023394895
-0.0025419879
-0.0030718616
-0.0039273588
-0.0051045884
-0.0065969415
-0.0083913549
-0.010464191
-0.012773213
-0.015247973
-0.017776818
-0.020214831
-0.022417564
-0.024277778
-0.025751642
-0.026852289
-0.027618995
-0.028083193
-0.028232146
-0.027994851
-0.027295741
-0.026132615
-0.024582396
-0.022738639
-0.02064761
-0.018329228
-0.015820519
-0.013221788
-0.010729568
-0.0086449425
-0.0073645931
-0.0073403034
-0.0090013295
-0.012647996
-0.018326148
-0.025755694
-0.034366303
-0.04346679
-0.052518243
-0.061279661
-0.069696584
-0.077772721
-0.085584746
-0.093339095
-0.10131994
-0.1097349
-0.11873536
-0.12848127
-0.13899143
-0.15018595
-0.16233611
-0.17609895
-0.19219054
-0.20973529
-0.22498599
-0.23274965
-0.23107886
-0.22106487
-0.20799367
-0.19628029
-0.18706115
-0.17947703
-0.17460399
-0.17481647
-0.1806322
-0.19140541
-0.20773895
-0.23518398
-0.27275514
-0.30859617
-0.33193326
-0.36025187
-0.38538619
-0.40921415
-0.43206583
-0.4541016
-0.47520854
-0.49568654
-0.51522768
-0.53382014
-0.5513001
-0.56778107
-0.58275457
-0.59465397
-0.60262519
-0.6059727
-0.60403437
-0.59633499
-0.58250261
-0.5622589
-0.53524943
-0.50240143
-0.46540898
-0.4263642
-0.38585727
-0.34386758
-0.30117131
-0.25931402
-0.21913134
-0.18012444
-0.14170864
-0.10407052
-0.067905114
-0.03397926
-0.002720826
0.024373465
0.045942263
0.06169217
0.068222118
0.061702437
0.042190686
0.015966017
-0.0078209178
-0.025808429
-0.03434294
-0.043636082
-0.034327036
-0.081767711
-0.13981856
-0.14037625
-0.15607662
-0.16354595
-0.1658182
-0.15970513
-0.1474761
-0.13083394
-0.11048197
-0.088648351
-0.073010691
-0.068254101
-0.073787452
-0.08555993
-0.10147981
-0.1222224
-0.14591481
-0.16895943
-0.18882727
-0.20360691
-0.2122062
-0.21405087
-0.20933199
-0.19893082
-0.18418249
-0.16711207
-0.15016176
-0.13549956
-0.12397719
-0.1148546
-0.10772557
-0.10254023
-0.098456194
-0.094999911
-0.091863189
-0.088940602
-0.086198408
-0.083603202
-0.081144063
-0.078804169
-0.076561365
-0.074380428
-0.072247678
-0.070119165
-0.068044532
-0.065905366
-0.064126341
-0.0620126
-0.059770867
-0.057414368
-0.055069306
-0.052801062
-0.050677339
-0.048737515
-0.047003942
-0.04547894
-0.044148795
-0.042984967
-0.041946452
-0.040981957
-0.040032818
-0.03903647
-0.037930781
-0.036659174
-0.03517657
-0.033454936
-0.031486867
-0.029286808
-0.026891393
-0.024352261
-0.021731404
-0.019095142
-0.016508563
-0.014031082
-0.011713464
-0.0095965862
-0.0077120311
-0.0060838095
-0.0047306535
-0.0036679554
-0.0029086687
-0.0024635125
-0.0023401107
-0.0025427681
-0.0030728027
-0.0039284515
-0.0051058031
-0.0065982229
-0.0083926187
-0.010465314
-0.012774033
-0.015248304
-0.017776476
-0.020213705
-0.02241571
-0.024275429
-0.025749123
-0.026849892
-0.027616904
-0.02808151
-0.028231004
-0.027994453
-0.027296224
-0.02613393
-0.024584383
-0.022741205
-0.020650768
-0.018333061
-0.01582511
-0.013227151
-0.010735595
-0.0086513647
-0.0073709606
-0.007345988
-0.0090055758
-0.01265004
-0.018325396
-0.025751825
-0.034359334
-0.043457111
-0.052506728
-0.0612678
-0.069686092
-0.077764671
-0.08557922
-0.093335601
-0.10131803
-0.10973421
-0.11873534
-0.12848151
-0.13899218
-0.15018775
-0.16233901
-0.17610214
-0.19219255
-0.20973528
-0.22498437
-0.23274634
-0.23107355
-0.2210567
-0.2079852
-0.19627706
-0.18706737
-0.17949093
-0.17461647
-0.17482054
-0.18062574
-0.19138401
-0.20768947
-0.23510729
-0.27268153
-0.30855604
-0.33191636
-0.36026848
-0.3854332
-0.40928759
-0.43216332
-0.4542199
-0.47534507
-0.49583846
-0.51539068
-0.53399036
-0.55147434
-0.56795453
-0.5829119
-0.59477772
-0.60270316
-0.60599358
-0.60398888
-0.59621646
-0.5823067
-0.56198241
-0.53489992
-0.50199896
-0.46497797
-0.42591359
-0.38538765
-0.34337392
-0.30069147
-0.25886017
-0.21871841
-0.17976491
-0.14135629
-0.10364197
-0.0674693
-0.03362521
-0.0024153696
0.024613321
0.046109371
0.06177484
0.068202063
0.061595261
0.04206819
0.015898472
-0.0078303359
-0.025787047
-0.034320397
-0.043621164
-0.034320031
-0.081767672
-0.13981889
-0.14036333
-0.15603562
-0.16349814
-0.16579025
-0.1597322
-0.14756829
-0.13098961
-0.11069347
-0.088859316
-0.073137655
-0.068256946
-0.073684647
-0.085389109
-0.10124848
-0.12193613
-0.14561243
-0.16868261
-0.18860349
-0.20345494
-0.21213677
-0.21406713
-0.20942796
-0.19909325
-0.18439039
-0.16733722
-0.1503729
-0.13567412
-0.12411402
-0.11496203
-0.1078053
-0.10259803
-0.098501423
-0.09503761
-0.091895926
-0.088969114
-0.086223074
-0.08362431
-0.081161817
-0.0788188
-0.076573149
-0.074389546
-0.072254298
-0.070123308
-0.068046423
-0.065905409
-0.064124923
-0.062010141
-0.05976799
-0.057411261
-0.05506612
-0.052797875
-0.050674211
-0.048734487
-0.047001039
-0.045476179
-0.044146187
-0.042982522
-0.041944173
-0.040979845
-0.04003087
-0.039034681
-0.037929143
-0.036657679
-0.035175213
-0.033453711
-0.031485765
-0.02928582
-0.026890513
-0.02435148
-0.021730712
-0.019094528
-0.016508019
-0.014030603
-0.011713048
-0.0095962405
-0.0077117641
-0.006083633
-0.00473058
-0.0036679974
-0.0029088389
-0.0024638251
-0.0023405799
-0.0025434048
-0.0030736114
-0.0039294246
-0.0051069128
-0.0065994164
-0.0083938153
-0.010466397
-0.012774852
-0.015248681
-0.017776235
-0.020212732
-0.022414031
-0.024273244
-0.025746735
-0.026847594
-0.0276149
-0.028079937
-0.028230033
-0.027994294
-0.02729699
-0.026135538
-0.024586664
-0.022744085
-0.020654273
-0.018337266
-0.015830073
-0.013232843
-0.01074186
-0.008657889
-0.0073772582
-0.0073514216
-0.0090094243
-0.012651626
-0.018324254
-0.025747712
-0.034352315
-0.043447524
-0.052495269
-0.061255805
-0.069675264
-0.077756163
-0.085573162
-0.093331543
-0.10131562
-0.10973313
-0.11873506
-0.1284816
-0.13899282
-0.15018936
-0.16234168
-0.17610557
-0.19219653
-0.20974039
-0.22499126
-0.23275347
-0.23107797
-0.22105396
-0.2079774
-0.19627227
-0.1870718
-0.17950353
-0.17462775
-0.17482312
-0.18061728
-0.19135868
-0.20763338
-0.23502833
-0.27261421
-0.30852674
-0.33191116
-0.36029879
-0.38549679
-0.40937904
-0.43228054
-0.4543595
-0.47550439
-0.4960145
-0.51557889
-0.53418656
-0.55167514
-0.56815463
-0.58309446
-0.59492387
-0.60279956
-0.60602782
-0.60395083
-0.59609877
-0.58210458
-0.56169265
-0.53453167
-0.50157414
-0.46452176
-0.42543594
-0.38488912
-0.34286337
-0.30019222
-0.25837854
-0.21827238
-0.17937702
-0.14099607
-0.10308801
-0.067002912
-0.033247211
-0.0020881649
0.024866394
0.046286284
0.061862376
0.068181288
0.061484579
0.041947433
0.015842484
-0.0078231672
-0.025750095
-0.034288693
-0.043599389
-0.034314436
-0.081766082
-0.13981508
-0.14034835
-0.15598341
-0.16343841
-0.16575236
-0.15975657
-0.14766561
-0.13115508
-0.11091748
-0.089082403
-0.073271739
-0.068259603
-0.073575342
-0.085207731
-0.10100307
-0.12163278
-0.14529248
-0.16839018
-0.18836755
-0.2032954
-0.21206488
-0.21408607
-0.20953121
-0.19926674
-0.1846118
-0.16757659
-0.15059709
-0.13585925
-0.12425904
-0.11507582
-0.10788963
-0.10265916
-0.09854937
-0.09507767
-0.09193081
-0.088999585
-0.086249519
-0.083647023
-0.081181002
-0.078834701
-0.076586055
-0.074399647
-0.072261764
-0.070128176
-0.06804888
-0.06590592
-0.064123657
-0.062007702
-0.059764998
-0.057407969
-0.055062686
-0.052794403
-0.050670777
-0.048731146
-0.046997832
-0.045473134
-0.044143326
-0.042979861
-0.041941723
-0.040977611
-0.04002885
-0.039032868
-0.037927524
-0.036656239
-0.035173933
-0.033452572
-0.031484745
-0.029284898
-0.026889673
-0.024350706
-0.021729992
-0.019093853
-0.016507382
-0.014030003
-0.011712491
-0.0095957352
-0.0077113253
-0.0060832759
-0.0047303199
-0.003667849
-0.0029088177
-0.0024639481
-0.0023408647
-0.0025438659
-0.0030742562
-0.0039302484
-0.0051078907
-0.0066004995
-0.0083949293
-0.010467436
-0.01277568
-0.015249131
-0.017776145
-0.020211983
-0.022412611
-0.024271308
-0.025744551
-0.026845454
-0.02761303
-0.028078518
-0.028229275
-0.027994419
-0.027298078
-0.026137471
-0.024589273
-0.022747317
-0.020658168
-0.018341893
-0.015835456
-0.01323891
-0.010748406
-0.0086645538
-0.0073835247
-0.007356651
-0.0090129414
-0.012652858
-0.018322886
-0.025743592
-0.034345562
-0.043438412
-0.052484243
-0.061243941
-0.069664198
-0.077747148
-0.08556644
-0.093326761
-0.10131258
-0.10973162
-0.11873454
-0.12848161
-0.13899345
-0.1501909
-0.16234428
-0.17610965
-0.19220338
-0.20975234
-0.22500925
-0.23277436
-0.23109559
-0.22105912
-0.20797111
-0.19626545
-0.18707338
-0.17951392
-0.1746375
-0.17482421
-0.18060682
-0.19132929
-0.20757079
-0.23495107
-0.27256028
-0.30851416
-0.33192573
-0.36035064
-0.38558503
-0.40949658
-0.43242557
-0.45452849
-0.47569464
-0.49622277
-0.51580041
-0.53441677
-0.5519104
-0.56838895
-0.58330915
-0.59509856
-0.60291963
-0.6060797
-0.60392345
-0.59598409
-0.58189748
-0.56139004
-0.53414474
-0.50112737
-0.46404208
-0.42493456
-0.38436545
-0.34232966
-0.29966703
-0.2578692
-0.21778649
-0.17893306
-0.14053016
-0.10250768
-0.066522368
-0.03284319
-0.0017402566
0.025132655
0.046472998
0.061954606
0.068159405
0.061370408
0.041829899
0.015801228
-0.0077953062
-0.025693586
-0.034245185
-0.043568694
-0.034310483
-0.081762359
-0.13980622
-0.14033104
-0.15591717
-0.16336382
-0.16570151
-0.15977632
-0.14776775
-0.13133125
-0.1111547
-0.089318324
-0.073413402
-0.068262099
-0.073459168
-0.085015203
-0.10074283
-0.12131151
-0.14495422
-0.16808165
-0.18811912
-0.20312825
-0.21199077
-0.21410819
-0.20964248
-0.19945222
-0.18484777
-0.16783124
-0.15083527
-0.1360557
-0.12441282
-0.11519639
-0.10797886
-0.10272387
-0.098600243
-0.095120301
-0.091968063
-0.089032251
-0.086277986
-0.083671582
-0.081201857
-0.078852105
-0.076600307
-0.07441095
-0.072270284
-0.070133974
-0.068052095
-0.06590709
-0.06412262
-0.062005319
-0.059761895
-0.057404482
-0.055058986
-0.052790622
-0.050667009
-0.048727466
-0.046994294
-0.04546978
-0.044140191
-0.042976969
-0.041939092
-0.040975251
-0.040026761
-0.039031041
-0.03792594
-0.036654873
-0.035172753
-0.033451542
-0.031483827
-0.029284056
-0.026888883
-0.024349947
-0.021729248
-0.019093113
-0.016506643
-0.01402927
-0.011711773
-0.0095950497
-0.0077106904
-0.0060827111
-0.0047298433
-0.0036674782
-0.002908571
-0.002463846
-0.0023409288
-0.0025441148
-0.0030747015
-0.0039308894
-0.005108707
-0.0066014481
-0.0083959452
-0.010468427
-0.012776533
-0.015249694
-0.017776273
-0.020211552
-0.022411559
-0.024269726
-0.025742665
-0.026843543
-0.027611351
-0.028077299
-0.028228775
-0.02799487
-0.027299524
-0.026139762
-0.024592246
-0.022750945
-0.020662509
-0.018347
-0.015841321
-0.013245414
-0.010755294
-0.0086714221
-0.0073898296
-0.0073617599
-0.0090162381
-0.012653895
-0.018321521
-0.025739782
-0.034339496
-0.043430282
-0.052474161
-0.061232586
-0.069653046
-0.077737572
-0.085558883
-0.093321054
-0.10130875
-0.10972959
-0.1187338
-0.12848165
-0.13899424
-0.15019253
-0.16234704
-0.17611482
-0.19221404
-0.20977293
-0.22504106
-0.23281254
-0.23113033
-0.22107517
-0.20796737
-0.19625589
-0.18707049
-0.17952072
-0.17464518
-0.17482372
-0.18059431
-0.19129563
-0.20750251
-0.23488046
-0.27253021
-0.30852588
-0.33197115
-0.36043474
-0.38570876
-0.40965104
-0.43260922
-0.45473759
-0.47592652
-0.49647383
-0.51606566
-0.53469119
-0.55219003
-0.5686668
-0.58356432
-0.59530904
-0.60306946
-0.60615404
-0.60391029
-0.59587475
-0.58168654
-0.56107484
-0.533739
-0.50065847
-0.46353918
-0.4244088
-0.38381552
-0.34176857
-0.29911389
-0.25733258
-0.21726452
-0.17843537
-0.1399813
-0.10195576
-0.066033077
-0.032413528
-0.0013737082
0.025413989
0.046669496
0.062051282
0.068135888
0.061252603
0.041716762
0.015777465
-0.0077429024
-0.025613489
-0.034186933
-0.043526707
-0.034308387
-0.081755787
-0.13979123
-0.14031115
-0.15583378
-0.16327109
-0.16563421
-0.15978901
-0.14787406
-0.13151884
-0.11140581
-0.08956788
-0.073563163
-0.068264479
-0.073335726
-0.084810879
-0.10046694
-0.12097143
-0.14459693
-0.16775658
-0.18785793
-0.2029535
-0.21191474
-0.21413405
-0.20976258
-0.19965072
-0.18509946
-0.16810242
-0.15108857
-0.13626436
-0.12457604
-0.11532426
-0.10807332
-0.10279243
-0.098654302
-0.095165763
-0.09200796
-0.089067407
-0.086308773
-0.083698286
-0.081224674
-0.078871295
-0.076616177
-0.074423714
-0.072280108
-0.070140941
-0.068056296
-0.06590914
-0.064121902
-0.062003034
-0.059758689
-0.057400793
-0.055055
-0.052786505
-0.050662876
-0.048723414
-0.046990395
-0.045466093
-0.04413676
-0.04297383
-0.041936273
-0.040972765
-0.04002461
-0.039029212
-0.03792441
-0.036653604
-0.035171697
-0.033450642
-0.031483029
-0.029283311
-0.026888155
-0.024349209
-0.02172848
-0.019092305
-0.016505795
-0.01402839
-0.011710879
-0.009594162
-0.0077098337
-0.0060819089
-0.0047291172
-0.0036668488
-0.0029080601
-0.0024634783
-0.0023407306
-0.0025441098
-0.0030749066
-0.0039313095
-0.005109328
-0.0066022358
-0.0083968468
-0.010469371
-0.012777432
-0.015250418
-0.0177767
-0.020211552
-0.022411009
-0.024268634
-0.02574119
-0.026841952
-0.02760993
-0.028076338
-0.028228584
-0.027995689
-0.027301359
-0.02614244
-0.024595618
-0.022755021
-0.020667358
-0.018352662
-0.015847745
-0.013252434
-0.010762606
-0.0086785825
-0.0073962738
-0.00736687
-0.0090194701
-0.012654945
-0.018320451
-0.025736685
-0.034334652
-0.043423784
-0.052465693
-0.061222255
-0.069642039
-0.077727392
-0.085550284
-0.093314163
-0.10130392
-0.10972698
-0.11873289
-0.12848188
-0.13899537
-0.15019447
-0.16235025
-0.17612161
-0.19222951
-0.20980392
-0.22508936
-0.23287167
-0.23118638
-0.22110545
-0.20796739
-0.19624255
-0.18706085
-0.17952198
-0.17464988
-0.17482145
-0.18057958
-0.1912574
-0.20743178
-0.23482238
-0.27253684
-0.3085725
-0.33206196
-0.36056509
-0.38588203
-0.40985645
-0.43284534
-0.45500048
-0.47621356
-0.49678094
-0.51638758
-0.53502233
-0.55252601
-0.56899924
-0.58386965
-0.59556361
-0.60325587
-0.60625616
-0.60391518
-0.59577314
-0.58147292
-0.56074728
-0.53331415
-0.50016696
-0.46301251
-0.42385745
-0.38323774
-0.34117832
-0.29853222
-0.25676835
-0.21671007
-0.17789475
-0.13940258
-0.10140846
-0.065531327
-0.031960237
-0.00098773005
0.025714807
0.046875612
0.062152026
0.068110053
0.061130828
0.041608831
0.015773381
-0.0076625889
-0.025505904
-0.034110878
-0.0434708
-0.03430834
-0.081745481
-0.13976885
-0.14028838
-0.15572982
-0.1631566
-0.16554647
-0.15979162
-0.14798342
-0.13171808
-0.11167151
-0.089831909
-0.073721571
-0.068266803
-0.07320461
-0.084594096
-0.10017458
-0.12061173
-0.14421993
-0.16741456
-0.18758373
-0.2027712
-0.21183712
-0.21416427
-0.2098924
-0.19986338
-0.18536819
-0.16839146
-0.15135823
-0.13648623
-0.12474948
-0.11546003
-0.10817338
-0.10286519
-0.098711854
-0.095214367
-0.092050838
-0.089105406
-0.086342246
-0.083727497
-0.081249804
-0.078892604
-0.076633981
-0.07443824
-0.072291518
-0.070149347
-0.068061733
-0.065912314
-0.064121608
-0.062000903
-0.059755389
-0.057396894
-0.055050707
-0.052782025
-0.050658347
-0.048718958
-0.046986105
-0.045462045
-0.044133012
-0.042970432
-0.041933257
-0.040970153
-0.040022403
-0.039027396
-0.037922951
-0.036652452
-0.035170787
-0.033449898
-0.031482372
-0.02928268
-0.026887503
-0.024348501
-0.021727692
-0.019091427
-0.01650483
-0.014027351
-0.011709789
-0.0095930487
-0.0077087269
-0.0060808366
-0.0047281048
-0.0036659203
-0.0029072412
-0.0024627985
-0.002340222
-0.0025438026
-0.0030748244
-0.0039314644
-0.0051097151
-0.0066028321
-0.0083976164
-0.010470266
-0.012778405
-0.015251364
-0.017777526
-0.020212124
-0.022411125
-0.024268195
-0.025740271
-0.026840791
-0.027608851
-0.028075698
-0.028228753
-0.027996918
-0.02730361
-0.026145527
-0.024599428
-0.0227596
-0.02067279
-0.018358962
-0.015854821
-0.013260066
-0.010770445
-0.0086861495
-0.0074029885
-0.0073721378
-0.0090228331
-0.012656267
-0.018320027
-0.025734787
-0.034331678
-0.043419719
-0.052459691
-0.061213637
-0.069631518
-0.077716586
-0.085540395
-0.093305776
-0.10129783
-0.10972366
-0.11873185
-0.12848244
-0.13899709
-0.15019703
-0.16235428
-0.17613056
-0.19225072
-0.20984699
-0.22515666
-0.23295527
-0.23126797
-0.22115354
-0.20797253
-0.19622405
-0.18704144
-0.17951499
-0.17465031
-0.17481699
-0.18056232
-0.19121423
-0.20736478
-0.23478531
-0.27259491
-0.30866769
-0.33221653
-0.36075932
-0.38612234
-0.41013021
-0.43315109
-0.45533399
-0.47657227
-0.49716009
-0.51678162
-0.53542497
-0.55293225
-0.56939889
-0.584236
-0.59587136
-0.6034862
-0.60639164
-0.60394206
-0.59568169
-0.58125771
-0.56040741
-0.53286982
-0.49965225
-0.46246139
-0.42327952
-0.38263092
-0.34055791
-0.29792121
-0.25617573
-0.21612566
-0.17731643
-0.13880123
-0.10084407
-0.065010104
-0.031482958
-0.00057966896
0.026035232
0.047090838
0.062256326
0.068081049
0.061004564
0.041506485
0.01579046
-0.0075516707
-0.025367299
-0.034013978
-0.043398156
-0.034310477
-0.081730358
-0.13973759
-0.1402624
-0.15560164
-0.16301645
-0.16543385
-0.15978051
-0.14809413
-0.13192862
-0.11195246
-0.090111273
-0.073889181
-0.068269132
-0.073065396
-0.084364171
-0.099864904
-0.12023163
-0.14382265
-0.16705527
-0.18729639
-0.20258144
-0.21175829
-0.21419951
-0.21003286
-0.20009139
-0.18565535
-0.16869986
-0.1516456
-0.13672243
-0.12493403
-0.11560435
-0.10827946
-0.10294257
-0.098773263
-0.095266483
-0.092097092
-0.089146673
-0.086378836
-0.083759641
-0.081277656
-0.078916418
-0.07665408
-0.074454865
-0.072304829
-0.070159489
-0.068068679
-0.065916869
-0.064121852
-0.061998989
-0.059752015
-0.057392782
-0.055046087
-0.052777154
-0.050653389
-0.048714066
-0.046981395
-0.045457609
-0.044128928
-0.042966759
-0.04193004
-0.040967415
-0.04002015
-0.039025608
-0.037921585
-0.036651443
-0.03517005
-0.033449328
-0.031481875
-0.02928218
-0.02688694
-0.024347831
-0.021726887
-0.019090477
-0.01650374
-0.014026139
-0.011708484
-0.0095916849
-0.0077073395
-0.0060794581
-0.0047267646
-0.0036646465
-0.0029060641
-0.0024617534
-0.0023393477
-0.0025431372
-0.0030744001
-0.0039313029
-0.0051098233
-0.0066032024
-0.0083982342
-0.010471117
-0.012779485
-0.015252604
-0.01777887
-0.020213437
-0.022412106
-0.024268612
-0.025740084
-0.026840198
-0.027608214
-0.028075453
-0.028229336
-0.027998591
-0.027306295
-0.026149042
-0.024603713
-0.022764745
-0.020678889
-0.018366002
-0.015862657
-0.013268428
-0.010778939
-0.0086942638
-0.0074101344
-0.0073777521
-0.0090265576
-0.012658155
-0.018320644
-0.025734644
-0.034331323
-0.043419033
-0.0524572
-0.061207619
-0.06962197