/*--------------------------------*- C++ -*----------------------------------*\
| =========                 |                                                 |
| \\      /  F ield         | OpenFOAM: The Open Source CFD Toolbox           |
|  \\    /   O peration     | Version:  2.4.0                                 |
|   \\  /    A nd           | Web:      www.OpenFOAM.org                      |
|    \\/     M anipulation  |                                                 |
\*---------------------------------------------------------------------------*/
FoamFile
{
    version     2.0;
    format      ascii;
    class       volScalarField;
    location    "390";
    object      nut;
}
// * * * * * * * * * * * * * * * * * * * * * * * * * * * * * * * * * * * * * //

dimensions      [0 2 -1 0 0 0 0];

internalField   nonuniform List<scalar> 
19477
(
0.021213793
0.021199009
0.021181811
0.021161762
0.021137698
0.021107982
0.021070164
0.021021276
0.020957721
0.020875673
0.020772156
0.020643897
0.020486922
0.020296782
0.020068372
0.019796229
0.019474586
0.019097743
0.018660593
0.018159331
0.017592305
0.016960895
0.016270167
0.015528499
0.014746059
0.013934941
0.013108548
0.012280652
0.011464865
0.010675521
0.0099281242
0.0092375565
0.0086132518
0.0080577406
0.0075689379
0.0071430272
0.014095464
0.014098443
0.014123046
0.014172236
0.014249384
0.014358325
0.014503438
0.014689638
0.014922239
0.0152055
0.015545185
0.015947748
0.016420125
0.016965523
0.017583951
0.018275604
0.01904163
0.019911331
0.020891635
0.021181928
0.02121048
0.021234607
0.021254371
0.021269528
0.0212799
0.021285834
0.021287524
0.021285092
0.02127867
0.021268722
0.021256367
0.021242216
0.021228579
0.021249779
0.021238464
0.021225051
0.021208958
0.021189366
0.021164891
0.021133439
0.021092446
0.021038808
0.020969242
0.020881243
0.020772004
0.020638068
0.020475547
0.020279939
0.020046381
0.019769653
0.019444455
0.019065794
0.018629522
0.018133009
0.017575898
0.016960747
0.016292881
0.015579286
0.01482898
0.0140527
0.013262174
0.012469402
0.011686745
0.010927723
0.010207274
0.0095389439
0.0089311232
0.0083862525
0.0079029012
0.0074782397
0.0071105308
0.0067971521
0.0065354587
0.0063228187
0.0061564171
0.0060332496
0.01414332
0.014161158
0.014201112
0.014266124
0.014359525
0.014485068
0.014646998
0.014850017
0.015099078
0.015397939
0.015751655
0.016165531
0.01664508
0.017191904
0.017805058
0.018484672
0.019230352
0.020081776
0.021062082
0.021192731
0.021220776
0.021244681
0.021264529
0.021280123
0.021291338
0.021298549
0.021301957
0.021301687
0.021297842
0.021290841
0.021281716
0.021271035
0.021261012
0.02128091
0.021272739
0.021262701
0.021250173
0.021234624
0.021214884
0.021189173
0.021155284
0.021110548
0.021052156
0.020978025
0.020885763
0.020772392
0.020634544
0.020468297
0.020269372
0.020033117
0.01975471
0.01942944
0.019053106
0.018622542
0.018136228
0.017594875
0.017001388
0.016360058
0.015677078
0.014960478
0.014219642
0.013464703
0.012706211
0.011955558
0.011225505
0.010530073
0.0098816165
0.0092878169
0.0087513008
0.0082716845
0.0078479593
0.0074783064
0.007160811
0.006893243
0.0066732326
0.0064982693
0.014196157
0.014229103
0.014284594
0.014365536
0.014475192
0.014617208
0.014795642
0.015014923
0.015279564
0.015592734
0.015958706
0.016381651
0.016865815
0.017411592
0.018018056
0.018686679
0.019417405
0.020248657
0.021170742
0.021202204
0.021229612
0.021253151
0.021272916
0.021288759
0.02130061
0.021308873
0.021313756
0.021315382
0.021313825
0.021309461
0.021303236
0.021295691
0.021288957
0.021307179
0.021301869
0.021294858
0.021285523
0.021273612
0.021258144
0.021237609
0.021210115
0.021173371
0.02112498
0.021063223
0.020986076
0.020890992
0.020775083
0.020634962
0.020466915
0.020266854
0.02003047
0.019753441
0.019431718
0.019061926
0.018641847
0.018170915
0.017650222
0.017081919
0.016469788
0.015819342
0.015137579
0.014432559
0.013713022
0.012988296
0.012268682
0.011566261
0.010894077
0.010263532
0.009681938
0.0091526211
0.0086766197
0.0082533669
0.0078816049
0.0075597823
0.007285843
0.007057808
0.014255827
0.014304063
0.014375197
0.014472081
0.014597884
0.0147561
0.014950558
0.015185348
0.015464479
0.01579048
0.016166836
0.0165967
0.017083347
0.017626428
0.018225629
0.018884348
0.0196061
0.020418121
0.02117986
0.021210278
0.021236907
0.021259911
0.021279406
0.021295296
0.02130757
0.021316658
0.021322775
0.021326043
0.021326502
0.021324486
0.021320857
0.021316137
0.021312382
0.021328501
0.021325774
0.021321484
0.021315008
0.021306364
0.021294745
0.021278879
0.021257149
0.02122759
0.021188158
0.021137442
0.021073738
0.020994874
0.020898399
0.020781416
0.020640737
0.020472816
0.020273869
0.02004002
0.019767506
0.019452976
0.019093869
0.018688806
0.018237607
0.017740827
0.017200324
0.016619454
0.016002992
0.015356896
0.014688009
0.014003807
0.013312442
0.012623362
0.011947788
0.011297831
0.010684118
0.010114151
0.0095922845
0.0091200521
0.0086974161
0.008323588
0.0079971855
0.0077167086
0.014324481
0.014388107
0.014474895
0.01458762
0.014729323
0.014903309
0.015113129
0.015362482
0.015654836
0.015992075
0.016376962
0.016811835
0.017299322
0.017838741
0.018430491
0.019078963
0.019793504
0.020592867
0.021187522
0.021216817
0.021242503
0.02126478
0.0212838
0.021299523
0.021312001
0.021321685
0.021328801
0.021333461
0.021335679
0.021335737
0.021334421
0.021332237
0.021331167
0.021344689
0.021344274
0.021342428
0.021338509
0.021332795
0.021324643
0.021312993
0.021296468
0.021273385
0.021241998
0.02120115
0.021149404
0.021084916
0.021005615
0.020909048
0.020792506
0.020652955
0.02048712
0.020291593
0.020062976
0.019798101
0.019494317
0.019149794
0.018763533
0.018334976
0.017864551
0.01735389
0.016805859
0.016224469
0.015614692
0.014982247
0.014333481
0.013675525
0.013016905
0.012367982
0.01173991
0.011143072
0.010585704
0.010072047
0.0096042083
0.009182596
0.0088070219
0.0084765521
0.014404583
0.014483594
0.014585928
0.014714252
0.014871448
0.015060593
0.015284919
0.015547709
0.015851882
0.016198724
0.016590392
0.017028627
0.017515664
0.018050848
0.018635095
0.019271992
0.019979876
0.020774572
0.021193612
0.021221612
0.021246157
0.021267495
0.021285821
0.021301156
0.02131361
0.021323662
0.02133154
0.021337353
0.021341079
0.021342952
0.021343682
0.021343762
0.021345103
0.021355451
0.021357087
0.021357423
0.021355783
0.021352693
0.021347665
0.021339829
0.02132802
0.021310794
0.021286658
0.021254658
0.021213573
0.021161835
0.0210977
0.021019107
0.020923777
0.020809143
0.020672414
0.020510643
0.020320834
0.0201001
0.019845875
0.019556145
0.019229439
0.0188645
0.018460767
0.018018592
0.017539324
0.017025305
0.016479806
0.015906886
0.015311225
0.014698118
0.014073765
0.013445866
0.012823842
0.012218342
0.011639851
0.011096085
0.010591867
0.010129678
0.0097105559
0.0093346946
0.014498881
0.01459314
0.01471076
0.014854268
0.015026359
0.01522985
0.015467631
0.015742564
0.01605705
0.016411852
0.016808668
0.017248826
0.017734345
0.018265041
0.018842238
0.01946703
0.020170055
0.020973467
0.021197912
0.021224375
0.02124755
0.021267721
0.021285122
0.021299836
0.021312034
0.021322219
0.021330624
0.021337349
0.02134234
0.02134578
0.021348299
0.021350387
0.021353879
0.021360379
0.021363815
0.021366082
0.021366461
0.021365715
0.021363503
0.021359123
0.021351601
0.021339699
0.021322132
0.021298103
0.02126656
0.021226159
0.021175434
0.021112657
0.021035932
0.020943109
0.020831837
0.020699613
0.020543847
0.020361984
0.020151653
0.019910844
0.019637872
0.019331103
0.018989359
0.018612116
0.018199602
0.017752845
0.017273675
0.01676467
0.016229032
0.015670507
0.015093523
0.01450339
0.013906976
0.013313119
0.012731933
0.012173547
0.011645439
0.011152636
0.010698048
0.010283223
0.014610346
0.014719541
0.014851987
0.01501005
0.015196209
0.015413006
0.015662985
0.015948603
0.016271802
0.016632929
0.017033373
0.017474201
0.017957392
0.018483757
0.019054995
0.019669803
0.020364664
0.021171929
0.021200069
0.02122473
0.02124629
0.021265048
0.021281277
0.021295123
0.021306822
0.021316899
0.021325592
0.02133299
0.021339007
0.02134377
0.021347833
0.02135168
0.021357076
0.02135894
0.02136393
0.021367887
0.021370039
0.021371374
0.021371696
0.021370456
0.021366847
0.021359812
0.021348234
0.021331432
0.021308478
0.021278207
0.021239377
0.021190542
0.021130133
0.021056367
0.020967289
0.020860801
0.020734708
0.020586802
0.020414969
0.020217321
0.019992147
0.019737665
0.019452378
0.019135221
0.018785665
0.018403777
0.017990269
0.017546492
0.017074376
0.016576356
0.016055366
0.01551496
0.01495972
0.014396038
0.013832372
0.013278255
0.012742649
0.012233059
0.011754277
0.011309587
0.014742028
0.01486561
0.015012168
0.015183887
0.015383019
0.015611824
0.015872519
0.0161672
0.016497427
0.016863247
0.017265887
0.017706277
0.018186548
0.018708493
0.0192738
0.01988584
0.020569958
0.021173765
0.021199617
0.021222218
0.021241901
0.02125898
0.021273769
0.021286481
0.021297422
0.021307141
0.021315876
0.021323706
0.02133051
0.021336357
0.021341724
0.02134709
0.021354152
0.02135045
0.021356754
0.021362165
0.021365854
0.021369024
0.021371621
0.021373237
0.021373217
0.021370657
0.021364581
0.021354383
0.02133922
0.02131806
0.02128984
0.021253345
0.021207277
0.021150169
0.021080413
0.020996274
0.020895923
0.02077749
0.020639147
0.020479197
0.020296019
0.020087851
0.019853086
0.019590385
0.019298762
0.018977649
0.018626954
0.018247092
0.017838966
0.017403925
0.01694374
0.016460615
0.015957415
0.015438348
0.014909553
0.014378697
0.013854185
0.013344265
0.012855802
0.012394015
0.01441177
0.014407497
0.014411844
0.014425813
0.014450458
0.014486958
0.014536879
0.014601619
0.014682405
0.014780288
0.01489681
0.015033918
0.01519355
0.015377702
0.015588396
0.015827628
0.016097322
0.016399276
0.016734758
0.017103627
0.017507059
0.017945925
0.018422754
0.018939698
0.019496636
0.02010875
0.020797966
0.021172603
0.021196002
0.021216275
0.02123379
0.021248893
0.021261947
0.02127324
0.021283148
0.021292245
0.021300771
0.021308789
0.021316142
0.021322835
0.02132927
0.021335922
0.021344416
0.021334039
0.021341423
0.021348058
0.021353055
0.021357825
0.02136246
0.021366679
0.021369966
0.021371553
0.021370573
0.021366466
0.021358437
0.021345545
0.021326862
0.021301357
0.021267956
0.021225452
0.021172536
0.021107789
0.021029709
0.020936743
0.020827348
0.020700054
0.020553398
0.020385742
0.020195514
0.019981293
0.019741871
0.019476309
0.019183999
0.0188647
0.018518549
0.018146056
0.017748085
0.017325831
0.016880912
0.016415917
0.015934906
0.015443326
0.014947927
0.014455691
0.013974413
0.013510583
0.014459254
0.014467857
0.014485343
0.014512659
0.0145508
0.014600881
0.014664393
0.014742642
0.01483678
0.014947762
0.015077029
0.015226408
0.015397684
0.015592669
0.015813173
0.016060962
0.01633772
0.016645016
0.016983915
0.017354193
0.017757026
0.018193317
0.018666345
0.019177795
0.019725256
0.020336413
0.021042709
0.021167903
0.021188536
0.021206167
0.021221194
0.021233997
0.021244995
0.021254556
0.021263135
0.021271332
0.021279389
0.021287347
0.021295011
0.021302317
0.021309588
0.021317296
0.021326996
0.021308606
0.021316838
0.021324474
0.021330558
0.021336709
0.021343162
0.02134976
0.021356114
0.021361573
0.021365362
0.021366933
0.021365507
0.021360201
0.02135018
0.021334553
0.021312422
0.021282798
0.021244614
0.021196723
0.021137907
0.0210669
0.020982426
0.020883247
0.020768096
0.020635514
0.020484057
0.020312351
0.020119132
0.019903295
0.019663945
0.019400434
0.019112384
0.0187997
0.01846256
0.018101417
0.017717027
0.017310816
0.016885299
0.016443999
0.01599161
0.015533771
0.015076961
0.014627829
0.014542582
0.014563647
0.014593792
0.014633886
0.014684846
0.014747709
0.014823873
0.014914548
0.015020805
0.015143493
0.015283949
0.015443887
0.015624954
0.015828796
0.016057046
0.016311286
0.01659302
0.016903663
0.017244159
0.01761427
0.0180152
0.018448083
0.018916861
0.019422093
0.019967065
0.020578599
0.021138201
0.021158882
0.021176371
0.021190995
0.021203165
0.021213297
0.021221875
0.021229357
0.021236284
0.021243285
0.0212506
0.021258246
0.021265983
0.021273672
0.021281555
0.021290097
0.021300781
0.021272741
0.021281601
0.021290022
0.021296986
0.021304312
0.021312388
0.021321172
0.021330393
0.021339509
0.021347811
0.021354742
0.021359508
0.021361251
0.021359195
0.021352551
0.021340556
0.02132239
0.021297185
0.021264019
0.021221915
0.021169853
0.021106801
0.021031744
0.020943615
0.020841164
0.020723122
0.020588241
0.020435312
0.020263208
0.020070919
0.019857589
0.019622535
0.019365271
0.019085513
0.018783182
0.018458446
0.018111936
0.017745074
0.017360025
0.016959702
0.016548116
0.016130109
0.015711217
0.014666426
0.014699165
0.01474106
0.01479289
0.014855479
0.014929776
0.015017089
0.015118534
0.015235111
0.015367577
0.015517172
0.01568552
0.015874153
0.016084588
0.016318326
0.016576816
0.016861442
0.017173526
0.017513959
0.017882513
0.018280512
0.018709704
0.01917378
0.019671931
0.020223785
0.020854205
0.021127464
0.021144478
0.02115841
0.021169597
0.021178474
0.021185505
0.021191246
0.021196257
0.021201177
0.021206664
0.021212953
0.021220032
0.021227608
0.021235457
0.021243735
0.021252899
0.021264356
0.021224646
0.021233927
0.021242932
0.021250587
0.021258906
0.021268437
0.021279249
0.021291186
0.0213038
0.021316437
0.021328502
0.021339162
0.021347556
0.021352936
0.021354582
0.021351826
0.021343977
0.021330328
0.021310135
0.021282619
0.02124697
0.021202367
0.021147994
0.021082981
0.021006286
0.020916837
0.02081355
0.02069534
0.020561148
0.020409971
0.020240887
0.020053074
0.019845834
0.019618606
0.019370966
0.019102661
0.018813827
0.018505185
0.018177923
0.017833808
0.017475358
0.017105842
0.016729329
0.014834254
0.014877291
0.014929387
0.01499123
0.015063559
0.015147253
0.01524355
0.015353496
0.015478048
0.01561789
0.015774196
0.015948528
0.016142338
0.016357052
0.016594081
0.016854785
0.017140476
0.017452437
0.017791541
0.018157595
0.018552323
0.018978371
0.019438301
0.019934947
0.020499978
0.021094248
0.02111042
0.0211233
0.02113318
0.021140425
0.021145498
0.021148928
0.021151355
0.021153453
0.021155972
0.021159603
0.021164571
0.021170826
0.021178012
0.021185809
0.021194281
0.021203871
0.021215906
0.021162026
0.021171544
0.021180957
0.021189137
0.021198297
0.021209151
0.02122188
0.021236437
0.021252461
0.021269336
0.021286407
0.021302779
0.021317561
0.021330008
0.021339435
0.021345242
0.021346833
0.021343619
0.021334998
0.021320349
0.021299034
0.021270408
0.02123383
0.021188607
0.021133892
0.021068813
0.020992463
0.020903913
0.020802225
0.020686477
0.020555777
0.020409283
0.02024622
0.02006589
0.019867681
0.019651106
0.019415964
0.019162537
0.018891384
0.018603414
0.01830018
0.017983697
0.017656558
0.017321211
0.016982966
0.016646393
0.016316387
0.015996814
0.01569143
0.015403251
0.015134638
0.01488738
0.014662818
0.01446193
0.015046885
0.015097961
0.015157836
0.01522713
0.015306539
0.015396903
0.015499436
0.015615154
0.015745005
0.015889628
0.016050153
0.016228109
0.016424894
0.016641872
0.016880388
0.017141742
0.017427199
0.017738038
0.018075149
0.018438539
0.018830757
0.019254747
0.019713995
0.02022691
0.020816555
0.021073977
0.021085342
0.021093492
0.021098722
0.021101419
0.021102089
0.021101336
0.0210999
0.02109859
0.021098277
0.021099685
0.021103027
0.021108203
0.021114783
0.021122335
0.021130824
0.021140672
0.021153114
0.021081975
0.021091578
0.021101256
0.021109829
0.021119716
0.021131809
0.021146401
0.021163552
0.021182978
0.021204087
0.021226146
0.021248169
0.021269214
0.021288514
0.021305397
0.021319301
0.021329693
0.021336073
0.021337946
0.021334814
0.021326175
0.021311526
0.021290373
0.021262176
0.021226267
0.021181957
0.021128514
0.021065174
0.020991145
0.020905625
0.020807812
0.020696919
0.020572182
0.020432874
0.02027832
0.020107921
0.019921272
0.019718348
0.019499351
0.019264735
0.019015315
0.018752292
0.018477271
0.01819233
0.017900527
0.017605439
0.017311145
0.017022074
0.016741011
0.016471467
0.016216188
0.015977477
0.015757233
0.015556929
0.0153773
0.015299987
0.015355859
0.015420213
0.015493678
0.015576958
0.015670908
0.015776752
0.015895511
0.016028137
0.016175237
0.016337904
0.016517639
0.016715792
0.01693367
0.017172553
0.017433686
0.017718312
0.018027759
0.018363119
0.018725124
0.019117392
0.019543319
0.020016745
0.020561582
0.021034595
0.021043936
0.021049837
0.02105255
0.021052406
0.021049835
0.021045401
0.021039797
0.021033881
0.021028613
0.021025
0.021023801
0.021025206
0.021029057
0.021034835
0.021041982
0.02105035
0.021060326
0.021073042
0.02098085
0.020990426
0.021000265
0.021009139
0.021019687
0.021032994
0.021049464
0.021069262
0.021092178
0.021117629
0.021144776
0.021172521
0.021199849
0.021225946
0.021250135
0.021271867
0.02129065
0.021306043
0.021317628
0.021325
0.021327761
0.021325522
0.021317905
0.0213045
0.021284794
0.021258261
0.021224332
0.021182402
0.021131828
0.021071946
0.021002071
0.020921513
0.020829578
0.020725584
0.020608866
0.020478792
0.020334894
0.020176959
0.020004953
0.019819035
0.019619596
0.019407297
0.019183127
0.018948487
0.018705335
0.018456266
0.018203942
0.017952551
0.017704514
0.017462912
0.017230513
0.017009784
0.01680293
0.016611845
0.016437952
0.016282199
0.015583864
0.015641104
0.015706745
0.01578145
0.015865962
0.015961169
0.016068316
0.016188426
0.016322455
0.016470959
0.016634971
0.016815938
0.017015147
0.017233829
0.017473199
0.017734471
0.018018945
0.01832825
0.018664358
0.019029528
0.019428265
0.019868269
0.020379114
0.020953341
0.020998089
0.021001069
0.021000637
0.020997059
0.020990697
0.020982029
0.020971697
0.020960498
0.020949426
0.020939608
0.020932202
0.020928002
0.020927168
0.02092947
0.020934288
0.020940919
0.020949082
0.020959115
0.020972011
0.020854129
0.020863593
0.020873539
0.020882655
0.020893857
0.020908421
0.020926863
0.020949453
0.020976046
0.021006055
0.021038512
0.021072179
0.021105946
0.021138937
0.021170445
0.021199918
0.021226883
0.021250935
0.021271711
0.021288872
0.021302097
0.021311083
0.021315542
0.02131517
0.021309586
0.021298405
0.021281203
0.021257519
0.021226855
0.021188679
0.021142439
0.021087555
0.021023435
0.020949479
0.020865079
0.020769647
0.020662707
0.020543959
0.020413218
0.020270477
0.020115874
0.019949742
0.019772633
0.019585434
0.019389394
0.019186187
0.018977941
0.018767387
0.018557355
0.018349816
0.018147236
0.017951936
0.017766119
0.017591815
0.017430761
0.017284369
0.017153718
0.015849921
0.015907087
0.015972992
0.016048334
0.016133866
0.016230463
0.016339365
0.016461561
0.016597978
0.016749078
0.016915796
0.017099496
0.01730138
0.017522611
0.017764402
0.018028077
0.018315282
0.018628823
0.018972675
0.019350612
0.019771125
0.020255552
0.020796832
0.020946186
0.020945447
0.020941101
0.02093335
0.020922498
0.020908955
0.02089327
0.020876171
0.020858578
0.020841633
0.020826652
0.020814958
0.02080738
0.020804039
0.020804622
0.02080839
0.020814461
0.020822395
0.02083246
0.020845469
0.020698784
0.02070808
0.020718118
0.02072747
0.020739366
0.020755262
0.020775787
0.020801316
0.020831764
0.020866526
0.020904482
0.020944237
0.020984566
0.021024512
0.021063327
0.021100438
0.021135373
0.021167746
0.021197228
0.021223523
0.021246366
0.021265514
0.021280746
0.021291841
0.021298525
0.021300529
0.021297559
0.021289273
0.021275303
0.021255238
0.02122865
0.021195067
0.021154014
0.021104972
0.021047431
0.020980863
0.020904819
0.020818997
0.020723163
0.020617171
0.020501019
0.020374836
0.020238925
0.020093851
0.019940483
0.019779699
0.019613155
0.019442799
0.019271051
0.019099114
0.018929166
0.018763141
0.018602974
0.018450553
0.018307613
0.018175705
0.018056205
0.016058796
0.016117491
0.0161856
0.016263763
0.016352673
0.01645316
0.016566365
0.016693205
0.016834545
0.016990743
0.017162637
0.017351538
0.01755861
0.017785098
0.018032495
0.018302727
0.018598693
0.01892605
0.01929118
0.019700122
0.020171684
0.020691568
0.020888017
0.020882724
0.020873615
0.020860866
0.020844741
0.020825595
0.020803903
0.020780295
0.020755599
0.020730864
0.020707395
0.020686699
0.020670273
0.020658973
0.020652869
0.020651549
0.020654149
0.02065959
0.020667254
0.020677306
0.020690356
0.020516157
0.020525299
0.020535465
0.020545134
0.020557838
0.020575201
0.02059797
0.020626619
0.020661113
0.020700817
0.02074444
0.020790413
0.020837382
0.020884301
0.020930367
0.020974972
0.021017637
0.021057983
0.021095696
0.02113051
0.021162195
0.021190554
0.021215402
0.021236586
0.021253912
0.021267212
0.021276299
0.021280925
0.021280844
0.021275733
0.021265293
0.021249132
0.021226906
0.021198159
0.021162504
0.021119436
0.021068607
0.021009695
0.020942442
0.020866555
0.02078203
0.020688855
0.020587199
0.020477424
0.020360043
0.020235821
0.020105862
0.019971393
0.0198341
0.01969545
0.019556899
0.01941975
0.019285597
0.019156046
0.019032641
0.018916839
0.018810007
0.01626457
0.016327308
0.016399966
0.016483134
0.016577421
0.016683645
0.016802849
0.016935869
0.01708346
0.01724597
0.017424243
0.017619685
0.017833686
0.018068019
0.018325253
0.018609219
0.018925803
0.019283379
0.019690746
0.020155668
0.020657524
0.020822628
0.02081206
0.020797512
0.020779129
0.020757148
0.020731881
0.020703743
0.020673277
0.020641202
0.020608446
0.020576196
0.020545917
0.020519314
0.020498049
0.020482985
0.020474118
0.020470918
0.020472385
0.020477255
0.020484726
0.020494799
0.020507911
0.020307518
0.020316621
0.020327017
0.020337143
0.02035081
0.020369808
0.02039501
0.020426988
0.020465754
0.020510631
0.020560148
0.02061254
0.020666313
0.020720318
0.020773688
0.020825773
0.020876074
0.020924206
0.020969861
0.021012786
0.021052764
0.021089624
0.021123233
0.021153462
0.021180208
0.021203374
0.021222839
0.02123847
0.021250077
0.021257473
0.021260402
0.021258622
0.021251811
0.021239678
0.021221839
0.021197948
0.021167618
0.021130562
0.02108654
0.021035356
0.020976809
0.020910826
0.020837385
0.020756628
0.020668774
0.020574416
0.020474242
0.020369503
0.020261419
0.020151292
0.020039987
0.019928762
0.01981882
0.019711452
0.019607946
0.019509562
0.019417527
0.01651293
0.016580412
0.016658161
0.016746711
0.016846656
0.016958688
0.017083839
0.017222932
0.017376725
0.017545625
0.017730776
0.017934082
0.018157812
0.018405215
0.018681703
0.018994346
0.019349865
0.019757295
0.020215596
0.020698229
0.020746916
0.0207306
0.020710187
0.020685804
0.020657659
0.020626029
0.020591279
0.020553881
0.020514443
0.020473772
0.020432896
0.020393135
0.020356115
0.020323738
0.020297825
0.020279232
0.02026786
0.020263041
0.020263628
0.020268173
0.020275685
0.020285958
0.020299289
0.020071895
0.020081134
0.020091913
0.020102662
0.020117459
0.020138258
0.020166066
0.020201559
0.020244799
0.02029507
0.020350709
0.020409746
0.020470536
0.02053181
0.020592629
0.020652289
0.020710261
0.020766147
0.020819636
0.020870474
0.020918458
0.020963424
0.021005264
0.021043875
0.021079206
0.021111216
0.021139834
0.021164994
0.021186562
0.021204436
0.02121842
0.021228376
0.021234049
0.02123526
0.021231694
0.021223126
0.02120921
0.02118971
0.021164421
0.021133239
0.021095908
0.021052332
0.021002376
0.020946079
0.020883583
0.020815192
0.020741229
0.020662511
0.020580074
0.02049477
0.020407517
0.020319572
0.020231926
0.020145649
0.020061825
0.019981541
0.019905873
0.01679278
0.016865364
0.016948414
0.017042457
0.017148121
0.017266058
0.017397341
0.01754291
0.017703778
0.017880801
0.018075919
0.018292421
0.018534913
0.018809321
0.019122924
0.019484289
0.019890681
0.020330646
0.02067667
0.02065827
0.020635829
0.020609254
0.020578635
0.020544151
0.020506044
0.020464634
0.02042033
0.020373657
0.020325288
0.020276108
0.020227242
0.02018014
0.020136582
0.020098662
0.020068355
0.020046504
0.020032908
0.020026754
0.020026737
0.020031226
0.020039032
0.020049727
0.020063475
0.019808956
0.019818515
0.01982984
0.019841379
0.019857467
0.019880219
0.019910779
0.019949935
0.019997801
0.02005363
0.020115567
0.020181436
0.020249429
0.020318154
0.020386585
0.020453957
0.020519701
0.020583395
0.020644715
0.020703408
0.020759272
0.020812152
0.020861937
0.020908555
0.020951985
0.020992237
0.021029298
0.02106313
0.021093669
0.021120834
0.021144517
0.021164601
0.021180937
0.021193373
0.021201719
0.02120578
0.021205341
0.02120021
0.021190208
0.0211752
0.021155049
0.021129663
0.021098978
0.021062995
0.021021813
0.020975628
0.020924704
0.020869313
0.020810101
0.020747739
0.020682926
0.020616527
0.020549453
0.020482683
0.020417194
0.020353915
0.020293778
0.017096116
0.017174594
0.017263745
0.017364114
0.017476427
0.017601553
0.017740838
0.017895679
0.018067602
0.018258841
0.01847342
0.018716834
0.018995395
0.019315687
0.019678163
0.020075521
0.020487746
0.020579307
0.020554543
0.020525782
0.020492939
0.020456033
0.020415199
0.020370654
0.020322674
0.020271616
0.02021793
0.020162189
0.020105122
0.020047691
0.019991112
0.019936955
0.019887151
0.019843976
0.019809553
0.019784709
0.019769143
0.019761896
0.019761507
0.019766164
0.019774483
0.0197858
0.019800149
0.019519006
0.019529039
0.019541052
0.019553523
0.019571035
0.019595856
0.019629273
0.019672183
0.019724761
0.019786234
0.019854564
0.019927372
0.020002688
0.020078991
0.020155162
0.020230367
0.020303988
0.020375571
0.020444771
0.020511322
0.020575017
0.020635701
0.020693263
0.020747648
0.020798871
0.020846988
0.020892034
0.02093402
0.020972931
0.021008727
0.021041349
0.021070717
0.021096732
0.021119277
0.021138217
0.0211534
0.021164665
0.021171859
0.021174831
0.021173458
0.021167637
0.021157297
0.021142396
0.021122937
0.021098992
0.021070702
0.021038279
0.021002024
0.020962357
0.020919715
0.020874505
0.02082733
0.020778901
0.02072996
0.020681279
0.020633667
0.020587937
0.01742518
0.017510323
0.017606674
0.017714927
0.01783618
0.01797162
0.018123354
0.018294228
0.018486894
0.018705438
0.018955188
0.019242737
0.019567541
0.019919812
0.020288919
0.020493155
0.0204653
0.020433914
0.020398775
0.020359733
0.020316701
0.020269716
0.02021895
0.020164649
0.020107123
0.020046762
0.019984055
0.019919617
0.019854234
0.019788936
0.019725024
0.019664183
0.019608486
0.019560381
0.019522133
0.019494551
0.019477237
0.01946909
0.019468504
0.019473492
0.019482479
0.019494565
0.019509655
0.019202887
0.019213508
0.019226312
0.019239815
0.019258841
0.0192858
0.019322118
0.019368807
0.019426105
0.019493222
0.019567946
0.019647703
0.019730368
0.019814289
0.019898256
0.019981356
0.02006292
0.020142452
0.020219578
0.020294011
0.020365532
0.020433974
0.020499222
0.020561226
0.020620034
0.020675738
0.020728413
0.020778112
0.020824864
0.020868677
0.020909535
0.0209474
0.020982217
0.021013908
0.021042377
0.021067507
0.021089168
0.021107227
0.021121546
0.021132007
0.021138519
0.021141017
0.021139468
0.02113387
0.021124278
0.021110797
0.021093592
0.021072913
0.021049074
0.021022406
0.020993291
0.020962174
0.020929564
0.020895979
0.020861981
0.02082821
0.020795316
0.017788539
0.017882068
0.017987869
0.01810716
0.018242287
0.018395045
0.01856854
0.018767073
0.01899383
0.019254676
0.019543463
0.019853035
0.020178611
0.020398551
0.02036716
0.020332744
0.020294896
0.020253513
0.020208458
0.020159599
0.020106846
0.020050259
0.01999004
0.019926467
0.01985988
0.019790702
0.01971946
0.019646809
0.019573586
0.019500887
0.019430091
0.019362992
0.019301795
0.01924911
0.019207336
0.01917726
0.019158394
0.019149505
0.019148845
0.019154269
0.01916402
0.019176965
0.019192882
0.018861849
0.018873128
0.018886785
0.018901378
0.018921958
0.018951069
0.018990274
0.019040697
0.019102645
0.019175315
0.019256336
0.01934295
0.019432886
0.019524368
0.01961609
0.019707066
0.019796566
0.01988405
0.019969107
0.020051424
0.020130759
0.020206929
0.020279807
0.020349341
0.020415602
0.02047871
0.020538772
0.020595877
0.02065009
0.020701456
0.020749998
0.020795721
0.020838608
0.020878623
0.020915708
0.020949782
0.020980745
0.021008477
0.021032846
0.021053741
0.021071067
0.021084756
0.021094767
0.021101087
0.021103749
0.021102823
0.021098433
0.021090768
0.021080071
0.021066599
0.021050667
0.021032626
0.021012871
0.02099183
0.020969952
0.020947713
0.020925598
0.018196729
0.018302694
0.018423226
0.018560312
0.018717717
0.018897931
0.019104901
0.019339216
0.019593038
0.019861607
0.020141672
0.020294074
0.020259019
0.020221285
0.020180444
0.02013645
0.020089142
0.020038385
0.01998404
0.019925976
0.019864105
0.01979851
0.019729426
0.019657161
0.019582087
0.019504658
0.019425437
0.019345119
0.019264587
0.019184999
0.019107808
0.019034909
0.018968627
0.018911727
0.018866727
0.018834396
0.018814158
0.018804658
0.018804013
0.018809936
0.018820497
0.018834342
0.018851126
0.018497428
0.018509399
0.018523932
0.018539635
0.018561766
0.018592995
0.018635016
0.018689063
0.018755513
0.018833561
0.018920689
0.019013972
0.019111
0.01920988
0.019309219
0.019407953
0.019505294
0.019600653
0.01969358
0.019783729
0.019870829
0.019954675
0.020035121
0.020112106
0.020185718
0.020256098
0.020323379
0.020387675
0.02044908
0.02050767
0.020563501
0.020616612
0.02066702
0.020714725
0.020759706
0.020801916
0.020841282
0.020877697
0.020911041
0.020941205
0.020968094
0.020991635
0.021011776
0.02102849
0.02104178
0.021051686
0.021058286
0.021061715
0.02106215
0.02105979
0.021054888
0.021047724
0.02103861
0.021027886
0.021015904
0.021003037
0.020989666
0.018664966
0.018789397
0.018931959
0.019096058
0.019281083
0.019483577
0.019697555
0.019926067
0.020158913
0.02017862
0.020139876
0.020098668
0.020054691
0.020007905
0.019958151
0.019905306
0.01984923
0.019789781
0.019726819
0.01966021
0.019589872
0.01951591
0.019438592
0.019358257
0.019275307
0.01919023
0.019103619
0.019016208
0.018928925
0.018842986
0.018759909
0.018681683
0.018610744
0.018549998
0.018502074
0.018467721
0.018446279
0.01843628
0.018435718
0.018442173
0.018453557
0.018468305
0.018485958
0.018111348
0.018124018
0.018139423
0.018156223
0.018179866
0.018213135
0.018257853
0.018315358
0.018386099
0.018469276
0.01856224
0.018661913
0.01876576
0.01887178
0.018978497
0.019084775
0.019189768
0.019292837
0.019393492
0.019491347
0.019586103
0.019677525
0.019765441
0.019849779
0.019930635
0.020008165
0.020082522
0.020153838
0.020222231
0.020287801
0.02035063
0.020410783
0.020468308
0.020523235
0.020575571
0.020625303
0.02067238
0.020716707
0.020758171
0.02079667
0.020832109
0.020864412
0.020893517
0.020919382
0.02094199
0.020961344
0.020977487
0.0209905