/*--------------------------------*- C++ -*----------------------------------*\
| =========                 |                                                 |
| \\      /  F ield         | OpenFOAM: The Open Source CFD Toolbox           |
|  \\    /   O peration     | Version:  2.4.0                                 |
|   \\  /    A nd           | Web:      www.OpenFOAM.org                      |
|    \\/     M anipulation  |                                                 |
\*---------------------------------------------------------------------------*/
FoamFile
{
    version     2.0;
    format      ascii;
    class       volScalarField;
    location    "8252";
    object      k;
}
// * * * * * * * * * * * * * * * * * * * * * * * * * * * * * * * * * * * * * //

dimensions      [0 2 -2 0 0 0 0];

internalField   nonuniform List<scalar> 
32000
(
1.8303595e-07
2.0213893e-07
1.815561e-07
1.4833087e-07
9.6779061e-08
4.9807224e-08
1.568667e-08
4.2097128e-09
5.3318567e-09
7.3749781e-09
6.7366734e-09
5.7403465e-09
4.842564e-09
4.2053833e-09
3.7450567e-09
3.3343377e-09
2.9954542e-09
2.7084747e-09
2.510502e-09
2.3402105e-09
2.2173e-09
2.144692e-09
2.1248906e-09
2.1563608e-09
2.2400484e-09
2.385136e-09
2.595368e-09
2.8504239e-09
3.1405054e-09
3.482795e-09
3.8874631e-09
4.3618449e-09
4.9097187e-09
5.533324e-09
6.2309174e-09
7.0053683e-09
7.8778718e-09
8.8671643e-09
9.9538364e-09
1.1115218e-08
1.2333255e-08
1.3570455e-08
1.4788509e-08
1.5916646e-08
1.6928657e-08
1.7805019e-08
1.9598546e-08
2.5429231e-08
3.0572187e-08
3.4785917e-08
3.8813868e-08
4.2480359e-08
4.599106e-08
4.9266607e-08
5.2386877e-08
5.5318604e-08
5.8093294e-08
6.0699543e-08
6.3149648e-08
6.5436016e-08
6.7563076e-08
6.9528892e-08
7.1336151e-08
7.2985473e-08
7.4479425e-08
7.582051e-08
7.7012673e-08
7.8058995e-08
7.8964711e-08
7.9734314e-08
8.0373641e-08
8.0887791e-08
8.1282577e-08
8.1566728e-08
8.174877e-08
8.1825778e-08
8.1802523e-08
8.1679732e-08
8.1496424e-08
8.1251702e-08
8.0921773e-08
8.0529583e-08
8.007868e-08
7.9574808e-08
7.9022702e-08
7.8426965e-08
7.7792277e-08
7.7121567e-08
7.6423907e-08
7.5693979e-08
7.4941055e-08
7.4165851e-08
7.3371798e-08
7.2560382e-08
7.173322e-08
7.0890381e-08
7.0030602e-08
6.915267e-08
6.8258637e-08
6.7356367e-08
6.6454679e-08
6.5558474e-08
6.4669777e-08
6.3789383e-08
6.2916754e-08
6.205048e-08
6.1190149e-08
6.0335682e-08
5.9486899e-08
5.8643725e-08
5.7806308e-08
5.6974421e-08
5.6148022e-08
5.5326964e-08
5.4510993e-08
5.3700107e-08
5.2893919e-08
5.2092074e-08
5.1294431e-08
5.0500563e-08
4.9709942e-08
4.8922311e-08
4.8137089e-08
4.7353681e-08
4.6571678e-08
4.5790349e-08
4.5008961e-08
4.4226926e-08
4.3443333e-08
4.2657325e-08
4.1867967e-08
4.1074269e-08
4.0274892e-08
3.9468913e-08
3.8654448e-08
3.78306e-08
3.69947e-08
3.6146399e-08
3.5281831e-08
3.4400913e-08
3.3495801e-08
3.2568435e-08
3.1607041e-08
3.0617785e-08
2.957762e-08
2.8511766e-08
2.7369827e-08
2.6198958e-08
2.4901182e-08
2.3583244e-08
2.2025434e-08
2.049519e-08
1.8306721e-08
1.5884946e-08
1.6163196e-08
1.7583148e-08
1.9019157e-08
2.0436623e-08
2.1767524e-08
2.3026737e-08
2.4275673e-08
2.5525241e-08
2.6798044e-08
2.8118912e-08
2.9609143e-08
3.1373827e-08
3.3273917e-08
3.5272005e-08
3.7371656e-08
3.9555704e-08
4.1795429e-08
4.4053475e-08
4.6433751e-08
4.8386459e-08
4.983224e-08
5.0811489e-08
5.2089895e-08
5.3414202e-08
5.4803091e-08
5.634965e-08
5.815202e-08
6.0440203e-08
6.320355e-08
6.8293026e-08
7.599272e-08
8.4757851e-08
9.5448825e-08
1.0981605e-07
1.2961872e-07
1.567513e-07
1.9193817e-07
2.3320224e-07
2.6806204e-07
2.8158465e-07
2.6841373e-07
2.3858706e-07
1.9721926e-07
1.7439057e-07
1.5364342e-07
1.6281361e-07
5.9890562e-06
6.6132815e-06
5.9399974e-06
4.8535407e-06
3.1684908e-06
1.6328914e-06
5.1598026e-07
1.3835824e-07
1.7388882e-07
2.4095634e-07
2.2046486e-07
1.8792774e-07
1.5851928e-07
1.3761728e-07
1.2252655e-07
1.0907038e-07
9.7962033e-08
8.8546238e-08
8.2045604e-08
7.6457541e-08
7.241762e-08
7.0023862e-08
6.9358899e-08
7.0372566e-08
7.3094115e-08
7.7823611e-08
8.4688811e-08
9.3027464e-08
1.0251282e-07
1.13704e-07
1.2693583e-07
1.4245006e-07
1.6037183e-07
1.8077639e-07
2.0360753e-07
2.2895564e-07
2.5751131e-07
2.8989413e-07
3.2547562e-07
3.6351296e-07
4.0341504e-07
4.4395414e-07
4.8387431e-07
5.2085319e-07
5.5402802e-07
5.8273819e-07
6.4141594e-07
8.3215594e-07
1.0004016e-06
1.1382721e-06
1.2700729e-06
1.3900457e-06
1.5049228e-06
1.6121047e-06
1.7142064e-06
1.8101383e-06
1.9009318e-06
1.9862135e-06
2.0663827e-06
2.1411933e-06
2.210791e-06
2.2751125e-06
2.3342458e-06
2.388211e-06
2.4370924e-06
2.4809718e-06
2.5199784e-06
2.5542128e-06
2.5838466e-06
2.6090266e-06
2.629944e-06
2.6467655e-06
2.6596815e-06
2.6689774e-06
2.6749324e-06
2.6774505e-06
2.6766879e-06
2.6726686e-06
2.6666694e-06
2.6586606e-06
2.6478636e-06
2.6350296e-06
2.6202744e-06
2.603786e-06
2.5857195e-06
2.5662253e-06
2.5454566e-06
2.5235092e-06
2.5006799e-06
2.4767948e-06
2.4521573e-06
2.4267906e-06
2.4008073e-06
2.3742557e-06
2.3471889e-06
2.3196091e-06
2.2914749e-06
2.2627467e-06
2.2334917e-06
2.2039672e-06
2.1744617e-06
2.1451357e-06
2.1160553e-06
2.0872465e-06
2.0586918e-06
2.030345e-06
2.0021926e-06
1.9742322e-06
1.9464576e-06
1.9188666e-06
1.8914639e-06
1.8642422e-06
1.8372e-06
1.8103326e-06
1.7836317e-06
1.7570971e-06
1.7307162e-06
1.7044774e-06
1.6783762e-06
1.6523984e-06
1.6265269e-06
1.6007532e-06
1.5750583e-06
1.5494228e-06
1.5238333e-06
1.4982657e-06
1.4726964e-06
1.4471058e-06
1.4214642e-06
1.3957437e-06
1.3699135e-06
1.3439413e-06
1.3177833e-06
1.2914093e-06
1.2647577e-06
1.2377991e-06
1.2104461e-06
1.1826873e-06
1.1543957e-06
1.1255692e-06
1.095951e-06
1.0656048e-06
1.0341452e-06
1.001774e-06
9.6773689e-07
9.3285955e-07
8.9549242e-07
8.5717948e-07
8.1471341e-07
7.7158958e-07
7.2061518e-07
6.7055016e-07
5.9896594e-07
5.1978793e-07
5.289868e-07
5.7553425e-07
6.2259126e-07
6.6903759e-07
7.1264085e-07
7.5390021e-07
7.9482695e-07
8.3577562e-07
8.7749011e-07
9.2079649e-07
9.696729e-07
1.0275171e-06
1.0897595e-06
1.1552026e-06
1.2239655e-06
1.2954791e-06
1.3687986e-06
1.4427199e-06
1.5205661e-06
1.5843285e-06
1.6315147e-06
1.6635737e-06
1.7055031e-06
1.7488964e-06
1.7944249e-06
1.8451476e-06
1.9042977e-06
1.9793882e-06
2.070306e-06
2.2376291e-06
2.4901146e-06
2.7773003e-06
3.1277895e-06
3.5989145e-06
4.2481049e-06
5.1369584e-06
6.2883413e-06
7.6360064e-06
8.771165e-06
9.2090282e-06
8.776113e-06
7.801286e-06
6.4501029e-06
5.7050322e-06
5.0271723e-06
5.3278987e-06
4.5370616e-05
5.0091584e-05
4.499629e-05
3.6777551e-05
2.4027826e-05
1.2402602e-05
3.9333704e-06
1.054702e-06
1.3143634e-06
1.8241881e-06
1.6722054e-06
1.4263232e-06
1.2033378e-06
1.0446079e-06
9.3008428e-07
8.2801589e-07
7.4371511e-07
6.72165e-07
6.2271142e-07
5.8022506e-07
5.4945667e-07
5.3116712e-07
5.2598836e-07
5.3354067e-07
5.5403181e-07
5.897327e-07
6.4165702e-07
7.0481321e-07
7.766741e-07
8.6144889e-07
9.6169117e-07
1.0792474e-06
1.2150792e-06
1.3697733e-06
1.5429102e-06
1.7351394e-06
1.9516573e-06
2.197208e-06
2.4670922e-06
2.7556725e-06
3.0584648e-06
3.3661613e-06
3.6692329e-06
3.9500384e-06
4.2020068e-06
4.4200194e-06
4.8644397e-06
6.3094783e-06
7.5836394e-06
8.6282304e-06
9.6269185e-06
1.0535966e-05
1.1406434e-05
1.2218582e-05
1.2992248e-05
1.3719158e-05
1.4407141e-05
1.5053355e-05
1.5660766e-05
1.6227575e-05
1.675489e-05
1.7242228e-05
1.7690259e-05
1.8099134e-05
1.8469494e-05
1.8801957e-05
1.9097504e-05
1.9356896e-05
1.9581433e-05
1.9772228e-05
1.9930729e-05
2.0058199e-05
2.0156079e-05
2.0226531e-05
2.0271672e-05
2.0290781e-05
2.0285021e-05
2.0254589e-05
2.0209159e-05
2.01485e-05
2.0066714e-05
1.9969493e-05
1.9857714e-05
1.9732801e-05
1.959593e-05
1.9448238e-05
1.9290888e-05
1.9124605e-05
1.8951638e-05
1.8770668e-05
1.8583995e-05
1.8391796e-05
1.8194921e-05
1.7993738e-05
1.7788649e-05
1.7579669e-05
1.7366487e-05
1.7148802e-05
1.6927125e-05
1.6703406e-05
1.6479832e-05
1.6257615e-05
1.6037257e-05
1.5818956e-05
1.5602578e-05
1.5387773e-05
1.517444e-05
1.496256e-05
1.4752088e-05
1.4543005e-05
1.4335349e-05
1.4129063e-05
1.3924137e-05
1.3720534e-05
1.3518192e-05
1.3317111e-05
1.3117193e-05
1.2918351e-05
1.2720552e-05
1.2523687e-05
1.2327627e-05
1.2132309e-05
1.1937587e-05
1.1743315e-05
1.1549391e-05
1.1355634e-05
1.1161862e-05
1.096793e-05
1.0773611e-05
1.0578694e-05
1.0382947e-05
1.0186123e-05
9.987891e-06
9.7880227e-06
9.5860502e-06
9.3817523e-06
9.1744659e-06
8.9641049e-06
8.7496961e-06
8.5312346e-06
8.3067739e-06
8.0767981e-06
7.8383839e-06
7.5930654e-06
7.3351192e-06
7.0708124e-06
6.787632e-06
6.4972978e-06
6.1754782e-06
5.8487031e-06
5.4624071e-06
5.0830875e-06
4.5408897e-06
3.9417167e-06
4.0123788e-06
4.3658119e-06
4.7229802e-06
5.0755334e-06
5.4064817e-06
5.7197091e-06
6.0304528e-06
6.3413754e-06
6.6581459e-06
6.9871251e-06
7.3584828e-06
7.7975887e-06
8.2697104e-06
8.7660239e-06
9.287447e-06
9.829606e-06
1.0385291e-05
1.0945528e-05
1.1534908e-05
1.2016955e-05
1.2373669e-05
1.2616977e-05
1.2935648e-05
1.3265077e-05
1.3610871e-05
1.3996294e-05
1.444601e-05
1.5016844e-05
1.5709657e-05
1.6983067e-05
1.8898648e-05
2.1076276e-05
2.3734693e-05
2.7308675e-05
3.2231267e-05
3.896454e-05
4.7673164e-05
5.7844609e-05
6.6389214e-05
6.9692373e-05
6.6424363e-05
5.9072717e-05
4.8861686e-05
4.3236537e-05
3.8101597e-05
4.0385236e-05
0.00017802694
0.00019653823
0.00017653936
0.00014446791
9.4536771e-05
4.8921834e-05
1.5577445e-05
4.1735621e-06
5.1509058e-06
7.1610448e-06
6.5782415e-06
5.6151139e-06
4.7383944e-06
4.1132388e-06
3.662489e-06
3.2608864e-06
2.9291228e-06
2.6470787e-06
2.4518868e-06
2.284292e-06
2.162701e-06
2.0901791e-06
2.0692323e-06
2.0983745e-06
2.1783617e-06
2.3181014e-06
2.5217688e-06
2.7698682e-06
3.0522481e-06
3.3853271e-06
3.7792055e-06
4.2411981e-06
4.7751365e-06
5.3833887e-06
6.064341e-06
6.8204169e-06
7.6718552e-06
8.6374551e-06
9.6990219e-06
1.0834383e-05
1.2025898e-05
1.3237026e-05
1.4430269e-05
1.5536389e-05
1.6529439e-05
1.7390318e-05
1.9136841e-05
2.4816464e-05
2.981331e-05
3.3914453e-05
3.7835575e-05
4.1404614e-05
4.4822342e-05
4.8010996e-05
5.1048655e-05
5.3902719e-05
5.660403e-05
5.9141327e-05
6.1526134e-05
6.3751595e-05
6.5822088e-05
6.7735708e-05
6.9495103e-05
7.1100858e-05
7.2555492e-05
7.3861422e-05
7.5022497e-05
7.6041697e-05
7.6924118e-05
7.7674115e-05
7.8297368e-05
7.8798817e-05
7.9184118e-05
7.9461715e-05
7.9639948e-05
7.9716082e-05
7.9694395e-05
7.9575862e-05
7.9398405e-05
7.9161133e-05
7.8840858e-05
7.8459926e-05
7.8021781e-05
7.7532008e-05
7.6995222e-05
7.6415891e-05
7.5798576e-05
7.514612e-05
7.4467363e-05
7.3757119e-05
7.3024422e-05
7.2269966e-05
7.1497096e-05
7.0707254e-05
6.9902018e-05
6.9081453e-05
6.8244332e-05
6.738949e-05
6.6518944e-05
6.5640357e-05
6.4762311e-05
6.3889567e-05
6.3024091e-05
6.2166658e-05
6.1316737e-05
6.0472967e-05
5.9634956e-05
5.880263e-05
5.7975812e-05
5.7154439e-05
5.633865e-05
5.5528228e-05
5.4723137e-05
5.3923232e-05
5.312827e-05
5.2338247e-05
5.1552789e-05
5.0771554e-05
4.9994402e-05
4.9220919e-05
4.8450595e-05
4.7683177e-05
4.69181e-05
4.615479e-05
4.5392844e-05
4.4631551e-05
4.3870203e-05
4.3108222e-05
4.2344724e-05
4.1578876e-05
4.0809766e-05
4.003643e-05
3.9257565e-05
3.8472274e-05
3.7678718e-05
3.6876032e-05
3.6061606e-05
3.5235107e-05
3.4392667e-05
3.3534313e-05
3.2652393e-05
3.1748821e-05
3.0812094e-05
2.9848261e-05
2.8834801e-05
2.7796389e-05
2.668379e-05
2.5543159e-05
2.4278748e-05
2.2995027e-05
2.1477282e-05
1.9987379e-05
1.7858557e-05
1.5507672e-05
1.5787809e-05
1.7178395e-05
1.8583925e-05
1.9971501e-05
2.127414e-05
2.2507382e-05
2.3731048e-05
2.4955484e-05
2.6203098e-05
2.749926e-05
2.8962479e-05
3.069078e-05
3.2547565e-05
3.4499169e-05
3.6549105e-05
3.8679943e-05
4.0863149e-05
4.3064148e-05
4.5377059e-05
4.7265962e-05
4.8663969e-05
4.9621784e-05
5.0877476e-05
5.2173919e-05
5.3535475e-05
5.5053565e-05
5.6825732e-05
5.9074605e-05
6.1810457e-05
6.6831155e-05
7.4352201e-05
8.2905387e-05
9.3340942e-05
0.00010736854
0.00012666966
0.00015302386
0.00018701595
0.00022658365
0.0002596914
0.00027263447
0.00026012849
0.00023172598
0.00019190761
0.00016998462
0.00014977834
0.00015873498
0.00049619511
0.00054780974
0.00049184883
0.00040371769
0.00026510176
0.00013784168
4.4105955e-05
1.1792547e-05
1.4385035e-05
2.0034178e-05
1.8447324e-05
1.5759818e-05
1.3303104e-05
1.1547908e-05
1.0283222e-05
9.156426e-06
8.2259047e-06
7.4332316e-06
6.8838855e-06
6.4124818e-06
6.0698244e-06
5.8647316e-06
5.8042757e-06
5.8843344e-06
6.1068351e-06
6.4966494e-06
7.06604e-06
7.7607661e-06
8.551717e-06
9.4844968e-06
1.0587566e-05
1.1881575e-05
1.3377363e-05
1.5081728e-05
1.6990297e-05
1.9109593e-05
2.1495662e-05
2.4201332e-05
2.7176433e-05
3.035892e-05
3.3699276e-05
3.7095629e-05
4.0442775e-05
4.3548528e-05
4.633975e-05
4.877354e-05
5.3666676e-05
6.9581329e-05
8.3500112e-05
9.4949513e-05
0.00010589499
0.00011585665
0.00012539593
0.00013429521
0.00014277321
0.00015073875
0.00015827843
0.00016536054
0.00017201769
0.00017823074
0.0001840121
0.00018935648
0.00019427133
0.00019875826
0.0002028243
0.00020647612
0.00020972442
0.00021257743
0.00021504928
0.00021715203
0.00021890142
0.00022031112
0.00022139682
0.00022218179
0.00022268947
0.00022291285
0.00022286193
0.00022254069
0.00022205457
0.00022140119
0.00022051566
0.00021946026
0.00021824462
0.00021688429
0.00021539213
0.00021378061
0.00021206245
0.00021024557
0.00020835468
0.0002063753
0.00020433267
0.00020222872
0.00020007283
0.00019786902
0.00019562172
0.00019333112
0.00019099383
0.00018860664
0.00018617528
0.00018372119
0.00018126832
0.00017882995
0.00017641159
0.00017401539
0.00017163987
0.00016928128
0.00016693858
0.00016461156
0.00016229976
0.00016000302
0.00015772174
0.00015545534
0.00015320372
0.00015096649
0.00014874299
0.00014653321
0.00014433612
0.00014215078
0.0001399768
0.00013781303
0.00013565805
0.00013351117
0.0001313708
0.00012923536
0.00012710371
0.00012497388
0.00012284389
0.00012071212
0.00011857612
0.00011643355
0.00011428185
0.00011211835
0.00010993941
0.0001077425
0.00010552249
0.00010327696
0.00010099862
9.8686507e-05
9.6329811e-05
9.3928638e-05
9.1461566e-05
8.8933987e-05
8.631366e-05
8.3617558e-05
8.0782587e-05
7.7877902e-05
7.4765539e-05
7.1574924e-05
6.8037738e-05
6.444692e-05
6.0200739e-05
5.6033605e-05
5.0082885e-05
4.3510807e-05
4.4294143e-05
4.8185988e-05
5.2125013e-05
5.6014554e-05
5.9667142e-05
6.3126225e-05
6.6559126e-05
6.9994266e-05
7.3494886e-05
7.7132846e-05
8.1239285e-05
8.6083461e-05
9.1283762e-05
9.6748613e-05
0.00010248696
0.00010844919
0.00011455474
0.00012070916
0.00012716811
0.00013243462
0.00013633341
0.00013901732
0.0001425374
0.00014616633
0.00014997939
0.00015423145
0.00015919697
0.00016549493
0.00017317351
0.00018723962
0.00020818234
0.00023204546
0.00026108955
0.00030009422
0.0003536357
0.00042647965
0.00051990981
0.00062793796
0.00071756457
0.00075320612
0.00072055004
0.00064454625
0.00053562989
0.00047568877
0.00041919787
0.00044408953
0.0011224106
0.0012389405
0.0011114949
0.00091760041
0.00060672143
0.00031833057
0.00010258491
2.7338238e-05
3.2866016e-05
4.5852351e-05
4.233533e-05
3.6204103e-05
3.0572348e-05
2.6539682e-05
2.3635867e-05
2.1047311e-05
1.8912256e-05
1.7088775e-05
1.5823103e-05
1.4737618e-05
1.3946997e-05
1.3472036e-05
1.3329033e-05
1.3508705e-05
1.401497e-05
1.4904574e-05
1.6206856e-05
1.7798578e-05
1.9611159e-05
2.1748154e-05
2.4275071e-05
2.7239514e-05
3.066644e-05
3.4571721e-05
3.8945707e-05
4.3802916e-05
4.9269783e-05
5.5466827e-05
6.2280861e-05
6.9570149e-05
7.7220847e-05
8.500194e-05
9.2672152e-05
9.9800263e-05
0.00010621746
0.00011186943
0.00012305324
0.00015949982
0.000190998
0.00021700636
0.00024185581
0.00026446417
0.00028610938
0.00030629806
0.00032552929
0.0003435971
0.00036069992
0.00037676622
0.00039187201
0.00040597371
0.00041910046
0.00043124053
0.0004424112
0.00045261613
0.00046187128
0.00047019152
0.00047760089
0.0004841176
0.00048977326
0.00049459463
0.00049861693
0.00050187053
0.00050439038
0.00050622811
0.0005074368
0.00050800405
0.00050794342
0.00050726953
0.00050621941
0.0005047882
0.00050282797
0.00050047945
0.0004977645
0.00049471812
0.00049136948
0.00048774672
0.00048387864
0.00047978321
0.00047551644
0.00047104568
0.00046642808
0.00046166821
0.00045678736
0.00045179481
0.00044670062
0.00044150536
0.00043620144
0.00043078186
0.00042525997
0.00041968467
0.00041411033
0.00040856709
0.00040306756
0.00039761665
0.00039221104
0.00038684249
0.0003815088
0.00037620961
0.00037094399
0.0003657117
0.0003605137
0.00035534877
0.00035021677
0.00034511689
0.00034004769
0.0003350092
0.00032999914
0.00032501544
0.00032005723
0.00031512196
0.00031020647
0.00030530915
0.00030042648
0.00029555486
0.00029069173
0.00028583263
0.00028097307
0.00027610939
0.00027123597
0.00026634756
0.00026143831
0.00025650213
0.00025153072
0.00024651834
0.0002414533
0.00023633006
0.00023113196
0.0002258568
0.00022048003
0.00021500181
0.00020937328
0.00020360674
0.00019762848
0.00019147721
0.00018500879
0.00017838114
0.00017127884
0.00016399778
0.00015592439
0.00014772866
0.00013803414
0.00012852144
0.00011494791
9.9933006e-05
0.0001017019
0.00011058139
0.00011959536
0.00012849839
0.00013686488
0.00014479081
0.00015265902
0.00016053226
0.00016855687
0.00017689816
0.00018631028
0.00019739533
0.00020928588
0.00022177747
0.00023488649
0.00024849682
0.00026242227
0.00027645336
0.00029115399
0.00030311737
0.00031197577
0.00031810388
0.0003261405
0.0003344103
0.00034310369
0.00035279669
0.00036411807
0.00037846425
0.00039598653
0.00042801677
0.00047526394
0.00052931873
0.00059473025
0.00068235105
0.00080203521
0.00096371815
0.0011688692
0.0014030143
0.001593928
0.0016709055
0.0016048739
0.0014462939
0.0012108542
0.0010817307
0.00095488304
0.0010113054
0.0021896237
0.0024140527
0.0021649526
0.0018039689
0.0012078281
0.00064401592
0.00021002049
5.5781523e-05
6.5835351e-05
9.1985368e-05
8.5198682e-05
7.2949297e-05
6.1634501e-05
5.3510747e-05
4.7664452e-05
4.2446028e-05
3.8152455e-05
3.4473014e-05
3.1914691e-05
2.9721716e-05
2.8120914e-05
2.7155376e-05
2.6857962e-05
2.721053e-05
2.8219764e-05
3.0001161e-05
3.2607043e-05
3.5805802e-05
3.9446102e-05
4.3735926e-05
4.8807095e-05
5.4755428e-05
6.1630705e-05
6.9464911e-05
7.8239156e-05
8.7981565e-05
9.8940141e-05
0.00011135313
0.0001249962
0.00013958603
0.00015489304
0.00017046176
0.00018580905
0.00020010072
0.00021299703
0.00022450681
0.00024670562
0.00031957627
0.00038124245
0.00043245628
0.00048131374
0.00052572575
0.00056821425
0.00060782053
0.00064553296
0.00068095515
0.00071448286
0.00074597985
0.00077560098
0.00080326412
0.00082902999
0.00085287773
0.00087484293
0.00089493353
0.00091318121
0.00092961468
0.00094428037
0.00095721273
0.00096847222
0.00097810944
0.00098619147
0.00099277571
0.00099792836
0.001001747
0.0010043319
0.0010056763
0.0010057709
0.0010046651
0.0010028146
0.0010002115
0.00099656415
0.0009921457
0.00098699883
0.00098119107
0.00097477911
0.00096781764
0.00096036272
0.00095244957
0.0009441869
0.00093551251
0.00092653727
0.00091727072
0.00090775476
0.00089800796
0.0008880502
0.00087788302
0.000867492
0.00085686426
0.00084602717
0.00083507735
0.00082412147
0.00081321886
0.00080239473
0.0007916587
0.00078100464
0.00077041736
0.00075989317
0.00074943181
0.00073903192
0.00072869344
0.00071841854
0.00070820529
0.00069805364
0.00068796232
0.00067792884
0.00066795343
0.00065803188
0.00064816038
0.00063833728
0.00062855787
0.00061881604
0.00060910874
0.00059942919
0.00058977045
0.00058012746
0.00057049158
0.00056085404
0.00055120759
0.00054154124
0.00053184465
0.00052210624
0.00051231399
0.00050245146
0.00049250731
0.00048245829
0.00047229345
0.00046197964
0.00045151227
0.0004408427
0.00042997119
0.00041880072
0.00040735559
0.000395489
0.00038327733
0.00037043396
0.00035727214
0.00034316376
0.00032869695
0.00031264931
0.00029635428
0.000277067
0.00025813742
0.00023115208
0.00020117701
0.00020463107
0.00022228057
0.00024028271
0.00025806861
0.00027480389
0.00029066484
0.00030641796
0.00032218131
0.00033825194
0.00035495876
0.00037379621
0.000395933
0.00041965567
0.00044456245
0.00047067169
0.00049774382
0.00052540133
0.00055324197
0.0005823413
0.00060595896
0.00062345078
0.00063561127
0.00065154977
0.00066791376
0.00068512296
0.00070430183
0.00072669938
0.00075503853
0.00078968428
0.00085284409
0.00094468552
0.0010504915
0.0011770992
0.0013458193
0.0015742198
0.0018789499
0.0022586165
0.0026825328
0.0030180524
0.0031534194
0.0030425396
0.0027702507
0.0023483408
0.0021198561
0.0018809523
0.0019925682
0.0037860219
0.0041606935
0.0037368963
0.003156065
0.0021571798
0.0011813261
0.00039323381
0.00010432069
0.00012021622
0.00016810397
0.00015627905
0.00013401565
0.00011331425
9.8402721e-05
8.7676536e-05
7.8078703e-05
7.0214734e-05
6.3445261e-05
5.8728897e-05
5.4687818e-05
5.1730633e-05
4.993896e-05
4.9372921e-05
5.00006e-05
5.1831565e-05
5.5086717e-05
5.9821274e-05
6.5679089e-05
7.2336215e-05
8.0173085e-05
8.9431639e-05
0.00010028616
0.00011282495
0.0001271047
0.00014309007
0.0001608289
0.00018075766
0.00020329672
0.00022803836
0.00025446706
0.00028216082
0.00031031107
0.00033804551
0.00036392979
0.00038735499
0.0004086009
0.00044830507
0.00057926781
0.0006870194
0.00077705007
0.00086266747
0.00094035303
0.0010145446
0.0010836163
0.0011493143
0.0012109803
0.001269321
0.0013241184
0.0013756569
0.0014238078
0.0014686872
0.0015102678
0.0015486174
0.0015837542
0.0016157358
0.0016446125
0.0016704645
0.0016933498
0.0017133701
0.0017306097
0.0017451805
0.001757177
0.0017667088
0.0017739379
0.0017790191
0.0017820014
0.0017827676
0.0017814551
0.0017788329
0.0017748907
0.0017691198
0.0017619851
0.00175356
0.0017439585
0.0017332772
0.0017216092
0.0017090503
0.001695662
0.0016816266
0.0016668453
0.0016515039
0.001635621
0.0016192695
0.0016024824
0.0015852944
0.0015677093
0.0015497031
0.0015312558
0.0015124177
0.0014933583
0.0014742629
0.0014552356
0.0014363208
0.0014175355
0.0013988705
0.001380302
0.0013618254
0.0013434416
0.0013251494
0.0013069502
0.0012888485
0.0012708423
0.0012529324
0.0012351174
0.001217394
0.0011997632
0.0011822184
0.0011647538
0.001147367
0.0011300502
0.0011127936
0.0010955919
0.0010784337
0.0010613075
0.0010442043
0.0010271094
0.0010100076
0.00099288627
0.00097572616
0.00095850925
0.00094121492
0.00092382211
0.00090630168
0.00088863338
0.00087077595
0.00085270973
0.00083437563
0.00081576466
0.00079679021
0.00077745227
0.00075757827
0.00073721034
0.00071608605
0.00069433885
0.00067145743
0.00064799689
0.00062283367
0.00059701411
0.00056834874
0.00053921783
0.0005046937
0.0004707776
0.00042247175
0.00036836417
0.00037439414
0.00040599514
0.00043845335
0.00047053376
0.00050078253
0.0005294718
0.00055799215
0.0005865371
0.00061565378
0.00064592576
0.00068001262
0.00071994414
0.00076267961
0.00080749605
0.00085438602
0.00090289671
0.00095233304
0.0010020041
0.001053734
0.0010955562
0.0011265573
0.0011482162
0.0011765681
0.0012056032
0.0012361518
0.0012701685
0.0013098688
0.0013599863
0.0014212211
0.0015324321
0.0016906788
0.0018750552
0.002091479
0.0023774129
0.002759076
0.0032586509
0.0038648183
0.0045207172
0.0050183393
0.005215157
0.0050533995
0.0046552682
0.0040130724
0.0036745112
0.0032922665
0.0034881445
0.0058801578
0.0064260516
0.0057963826
0.0049800848
0.0035059452
0.0019973342
0.00068775597
0.00018346954
0.0002049402
0.00028641139
0.00026741808
0.0002297686
0.00019448444
0.0001689661
0.00015061498
0.00013412719
0.00012070426
0.0001090803
0.00010096184
9.4007841e-05
8.8904356e-05
8.5796122e-05
8.4785084e-05
8.5819516e-05
8.8917072e-05
9.4454933e-05
0.00010246003
0.00011243239
0.00012377895
0.00013709778
0.00015281374
0.00017121793
0.00019244994
0.00021659664
0.00024359007
0.00027349838
0.00030701933
0.00034482089
0.00038620376
0.00043029336
0.00047636782
0.00052311156
0.00056908708
0.00061207751
0.00065111868
0.00068719927
0.00075239292
0.0009664787
0.0011367305
0.001279726
0.0014149873
0.0015373595
0.0016538686
0.0017621105
0.0018648609
0.0019611814
0.0020522087
0.0021376634
0.0022180115
0.0022930915
0.0023631072
0.0024280393
0.0024880084
0.0025430558
0.002593279
0.0026387613
0.0026796291
0.002715972
0.0027479448
0.0027756732
0.0027993244
0.0028190379
0.0028349739
0.0028473722
0.0028564369
0.0028623424
0.0028647704
0.0028639653
0.0028611108
0.0028561906
0.0028484146
0.0028384825
0.0028265062
0.0028126549
0.0027970741
0.0027799035
0.0027612874
0.002741323
0.0027202697
0.0026980057
0.0026747947
0.0026506722
0.0026257491
0.0026000776
0.0025737117
0.002546658
0.002518882
0.0024903566
0.0024611657
0.0024315736
0.002401867
0.0023722083
0.0023426664
0.0023132677
0.0022840018
0.0022548375
0.0022257713
0.0021968069
0.0021679458
0.0021391926
0.0021105564
0.0020820367
0.0020536365
0.0020253561
0.0019971923
0.001969148
0.0019412149
0.0019133857
0.0018856574
0.0018580198
0.0018304583
0.0018029658
0.0017755254
0.0017481199
0.0017207356
0.0016933502
0.0016659403
0.0016384859
0.001610957
0.0015833254
0.001555558
0.0015276215
0.0014994692
0.0014710683
0.0014423525
0.0014132894
0.0013837837
0.0013538185
0.0013232541
0.0012920884
0.0012600434
0.001227183
0.0011930815
0.0011579458
0.001120949
0.0010829766
0.0010422033
0.0010003094
0.00095372868
0.00090630932
0.00084998758
0.00079453562
0.00071562306
0.00062591158
0.00063547158
0.00068720712
0.00074086114
0.0007939267
0.00084412732
0.00089180985
0.00093929368
0.00098685746
0.0010354274
0.0010859375
0.0011426927
0.0012088815
0.0012795819
0.0013535773
0.0014307593
0.0015103308
0.0015911127
0.0016720273
0.0017558438
0.0018232371
0.0018733832
0.0019085915
0.0019545408
0.0020014887
0.0020509164
0.0021058913
0.0021699659
0.0022505916
0.0023487959
0.0025261567
0.0027706829
0.003060915
0.0033915483
0.0038231962
0.0043885009
0.005110058
0.0059575624
0.0068408298
0.0074780913
0.0077195724
0.0075060789
0.0069918904
0.0061407955
0.0057105602
0.0051860797
0.0054891037
0.0083023925
0.0090074707
0.0081798357
0.0071615482
0.0052269921
0.0031344723
0.0011354661
0.00030864409
0.0003313202
0.00046157553
0.00043311031
0.00037305705
0.00031625149
0.00027496025
0.00024525412
0.00021842581
0.000196759
0.00017785606
0.00016461276
0.00015326997
0.00014491667
0.00013979686
0.00013807254
0.00013966503
0.00014462531
0.00015349742
0.00016627782
0.00018223987
0.00020051614
0.00022184123
0.00024695012
0.00027629092
0.00031005498
0.00034834929
0.00039103437
0.00043817944
0.00049079687
0.00054983784
0.00061415242
0.00068234186
0.00075325108
0.00082490983
0.00089516251
0.00096093818
0.0010209387
0.0010776519
0.0011768485
0.0014964253
0.0017409641
0.0019473366
0.0021411325
0.0023158571
0.002481524
0.0026350422
0.0027803818
0.0029163981
0.0030447336
0.003165123
0.0032782312
0.0033839068
0.0034824708
0.0035739376
0.003658501
0.003736244
0.0038073186
0.0038718536
0.0039300333
0.0039819872
0.0040279311
0.0040680388
0.0041025385
0.0041316183
0.0041554923
0.0041744814
0.0041888308
0.0041988626
0.0042041041
0.0042047516
0.0042025451
0.0041974428
0.0041883471
0.004176198
0.0041611498
0.0041434272
0.0041232256
0.0041007323
0.0040761414
0.0040495929
0.004021397
0.0039914536
0.0039600756
0.0039273257
0.0038933525
0.0038582293
0.0038220294
0.0037847629
0.0037463846
0.0037068639
0.0036663257
0.0036251385
0.003583699
0.0035422292
0.0035008206
0.0034595113
0.0034182925
0.0033771297
0.0033360236
0.0032949826
0.0032540136
0.0032131268
0.0031723376
0.0031316496
0.0030910697
0.0030506016
0.0030102443
0.0029700038
0.0029298719
0.0028898408
0.002849908
0.002810062
0.0027702844
0.0027305661
0.0026908856
0.0026512201
0.0026115509
0.0025718478
0.0025320787
0.002492215
0.002452215
0.0024120386
0.002371638
0.0023309653
0.0022899532
0.002248553
0.0022066684
0.0021642505
0.0021211597
0.0020773666
0.0020326675
0.0019870528
0.0019401178
0.0018919455
0.00184191
0.001790293
0.0017358827
0.0016799486
0.0016197974
0.0015578604
0.0014888539
0.0014184056
0.0013344788
0.0012515328
0.0011336525
0.0009964168
0.0010102129
0.0010879135
0.0011695538
0.0012504292
0.0013273254
0.001400582
0.0014737592
0.0015472097
0.0016223723
0.0017005989
0.0017882356
0.001889817
0.0019980404
0.0021109778
0.0022282723
0.0023486154
0.0024701613
0.0025913776
0.0027159812
0.0028155119
0.0028903397
0.0029432287
0.0030116604
0.0030815115
0.0031551247
0.0032368777
0.0033319434
0.0034510584
0.0035951504
0.0038532569
0.0041948592
0.0046101431
0.0050660898
0.0056523653
0.006403385
0.0073353098
0.0083938886
0.0094568888
0.010186702
0.01044529
0.010180265
0.0095675092
0.0085513937
0.008062833
0.0074322755
0.0078454211
0.010824797
0.011653474
0.0106676
0.0095105591
0.0072115487
0.0045840941
0.0017770635
0.00050123723
0.00051348645
0.00071006977
0.00066996486
0.00057888492
0.00049179502
0.00042808698
0.00038216355
0.00034049144
0.00030709888
0.00027771897
0.00025705211
0.00023934712
0.00022625222
0.00021816216
0.00021531942
0.00021760889
0.00022518968
0.00023865781
0.0002580825
0.00028222206
0.00031026431
0.00034263927
0.00038062283
0.00042484774
0.00047552307
0.00053272753
0.00059616732
0.00066585323
0.00074311072
0.00082913943
0.00092213138
0.0010199885
0.0011210042
0.0012224846
0.0013215296
0.0014143769
0.0014996622
0.0015826087
0.0017235852
0.0021608636
0.0024824486
0.0027555052
0.0030098917
0.0032386178
0.0034545636
0.0036542298
0.003842745
0.0040188934
0.0041848184
0.0043403481
0.0044863236
0.0046226535
0.0047497869
0.0048677954
0.0049769572
0.0050774118
0.0051693754
0.0052530312
0.0053286279
0.0053963416
0.0054564525
0.0055091858
0.0055548324
0.0055936304
0.0056258471
0.0056518808
0.0056720212
0.0056866734
0.0056954247
0.005698146
0.0056972404
0.0056926481
0.0056829682
0.005669356
0.0056520091
0.0056312016
0.0056071746
0.0055801587
0.0055503922
0.0055180604
0.0054834915
0.0054466479
0.0054078567
0.0053672154
0.0053249014
0.0052810095
0.0052356287
0.0051887714
0.0051403844
0.0050904389
0.0050391045
0.0049868511
0.0049341744
0.004881338
0.0048284518
0.0047755648
0.0047226731
0.0046697436
0.0046167832
0.0045638057
0.0045108249
0.0044578578
0.0044049263
0.0043520398
0.0042992098
0.0042464447
0.0041937471
0.0041411263
0.004088576
0.0040360896
0.0039836649
0.0039312913
0.0038789475
0.0038266232
0.0037742934
0.0037219311
0.0036695126
0.0036170012
0.0035643568
0.0035115424
0.003458505
0.0034051934
0.0033515443
0.0032974956
0.0032429588
0.0031878683
0.003132097
0.0030755774
0.003018124
0.0029596901