/*--------------------------------*- C++ -*----------------------------------*\
| =========                 |                                                 |
| \\      /  F ield         | OpenFOAM: The Open Source CFD Toolbox           |
|  \\    /   O peration     | Version:  2.4.0                                 |
|   \\  /    A nd           | Web:      www.OpenFOAM.org                      |
|    \\/     M anipulation  |                                                 |
\*---------------------------------------------------------------------------*/
FoamFile
{
    version     2.0;
    format      ascii;
    class       volScalarField;
    location    "240";
    object      omega;
}
// * * * * * * * * * * * * * * * * * * * * * * * * * * * * * * * * * * * * * //

dimensions      [0 0 -1 0 0 0 0];

internalField   nonuniform List<scalar> 
78300
(
288636.63
288686.54
288700.32
288833.65
289515.6
291432.02
295479.08
302673.01
314010.37
329813.04
346787.82
362441.63
375829.98
386411.76
393919.79
398343.7
399991.89
399060.36
395721.33
390174.45
382632.29
373308
362413.46
350675.33
339521.98
329123.31
319421.78
310364.21
301901.89
293992.53
286594.56
279672.29
273192.3
267123.9
261439.18
256109.32
250877.53
245350.68
239525.68
233441.11
227134.93
220644.17
214005.21
207254.37
200428.97
193566.99
186709.47
179903.22
173262.16
167044.3
161298.04
156019.07
151204.62
146855.25
142973.85
139564.67
136634.53
134192.24
132247.52
130811.23
129895.27
129511.99
129657.27
129783.85
129783.85
129783.85
129783.85
129783.85
129783.85
129783.85
129783.85
129783.85
129783.85
129783.85
129783.85
129783.85
129783.85
129783.85
129783.85
129783.85
129783.85
129783.85
129783.85
129783.85
129783.85
129783.85
129783.85
129783.85
129783.85
129783.85
129783.85
129783.85
129783.85
129783.85
129783.85
129783.85
129783.85
129783.85
129783.85
129783.85
129783.85
129783.85
129783.85
129783.85
129783.85
129783.85
129783.85
129783.85
129783.85
129783.85
129783.85
129783.85
129783.85
129783.85
129783.85
129783.85
129783.85
129783.85
129783.85
129783.85
129783.85
129783.85
129783.84
129783.85
129783.85
129783.85
129783.85
129783.84
129783.85
129783.85
129783.85
129783.85
129783.85
129783.85
129783.85
129783.85
129783.84
129783.85
129783.85
129783.84
129783.85
129783.85
129783.85
129783.85
129783.85
129783.84
129783.85
129783.85
129783.85
129783.85
129783.85
129783.85
129783.85
129783.85
129783.84
129783.85
129783.85
129783.85
129783.84
129783.85
129783.85
129783.84
129783.85
129783.85
129783.84
129783.85
129783.85
129783.84
129783.85
129783.85
129783.85
129783.85
129783.85
129783.85
129783.85
129783.84
129783.85
129783.85
129783.85
129783.85
129783.85
129783.85
129783.85
129783.85
129783.85
129783.85
129783.85
129783.85
129783.85
129783.85
129783.85
129783.85
129783.85
129783.85
129783.84
129783.85
129783.85
129783.84
129783.85
129783.85
129783.85
129783.85
129783.85
129783.84
129783.85
129783.85
129783.84
129657.28
129512.01
129895.29
130811.3
132247.51
134192.34
136634.64
139564.65
142973.98
146855.32
151204.67
156018.82
161297.58
167043.87
173262.26
179902.7
186708.68
193567.05
200429.57
207253.32
214004.06
220644.49
227134.65
233439.26
239524.1
245352.66
250877.69
256108.11
261440.2
267124.38
273191.44
279670.55
286594.56
293991.47
301901.52
310366.64
319421.46
329122.79
339524.26
350675.54
362412.66
373310.37
382630.22
390168.95
395719.7
399058.78
399990.11
398342.72
393921.66
386411.45
375828.81
362441.23
346790.01
329814.86
314010.08
302672.87
295478.99
291431.81
289515.62
288834.57
288701.21
288686.52
288636.62
54821.358
54693.865
54611.66
56179.609
45023.353
42860.352
41084.769
40911.169
49148.118
52355.7
54791.276
59584.607
59108.953
63995.193
66751.247
66099.81
63497.151
61354.898
57963.643
73573.125
73508.276
52089.115
50585.179
67871.535
63832.351
45988.148
45194.724
44232.65
59742.624
56674.238
41814.102
51455.712
38400.417
37996.766
36982.837
39131.239
46136.058
43624.569
35369.375
36991.838
32666.58
35087.482
30410.554
33797.776
37900.742
37875.068
38002.58
36599.62
23569.491
22589.768
32564.471
21264.771
30406.974
20136.708
28670.188
19174.525
18776.239
18653.354
25458.423
24916.55
24993.167
18710.047
17805.591
17805.295
17803.254
17798.817
17791.723
17766.685
17751.316
17737.792
17726.188
17713.029
17698.184
17684.582
17675.725
17669.204
17665.869
17664.735
17666.764
17670.869
17676.357
17674.503
17665.513
18271.733
23160.795
25295.538
25372.799
25367.198
25509.76
25683.928
26107.044
26220.796
26240.362
26222.352
26218.93
26233.517
26265.47
20878.215
17711.83
17738.772
17712.21
17665.735
20545.844
26068.75
26006.556
25995.253
25973.099
25937.526
25921.2
25911.351
25822.201
17846.437
17873.015
21959.832
21961.895
21961.895
21961.797
21961.753
21961.597
21961.618
21961.594
21961.606
21961.549
21961.587
21961.583
21961.597
21961.549
21961.574
21961.577
21961.61
21961.579
21961.609
21961.622
21961.637
21961.651
21961.636
21961.647
21961.6
21961.644
21961.61
21961.622
21961.591
21961.631
21961.64
21961.6
21961.487
21961.351
21961.454
21961.463
21961.405
21961.126
21961.493
21961.536
21961.518
21961.059
21961.825
21961.957
21961.539
21960.663
21961.906
21962.461
21960.956
21956.81
21954.504
21687.05
21472.154
21966.108
21965.246
21960.512
21960.784
21962.043
21965.794
21968.16
21969.367
22676.275
22662.28
21184.377
21159.217
21162.235
18424.534
18235.969
18226.099
22675.095
22612.009
21957.051
21954.683
21957.616
21959.425
21958.997
21960.357
21960.786
21962.848
21961.072
21961.652
21960.562
21962.974
21963.125
21963.995
21961.652
21961.413
21960.563
21961.354
21960.121
21961.835
21961.298
21963.438
21962.371
21944.045
21920.19
21985.563
22139.909
22382.408
22711.565
23124.781
24139.767
28513.737
20536.739
21144.221
21456.522
22148.009
22884.293
26603.446
35795.342
35649.536
32244.259
32829.795
31939.879
33264.09
36383.511
38595.471
40309.479
40919.853
43480.29
43199.485
44024.905
43736.851
44855.655
45236.353
45956.88
46508.706
45696.104
48654.111
49111.628
50999.528
52691.71
52349.23
55229.369
56406.756
58763.128
60641.783
62177.879
62841.73
63178.26
63757.978
63487.008
63288.341
62446.1
59486.282
57500.944
50643.534
44742.377
42575.786
41992.283
42221.202
41746.977
41389.216
42826.435
43423.423
49191.134
54613.802
23847.209
23411.108
23724.497
25330.023
12730.993
10397.354
9471.0963
8963.3367
13845.133
15349.221
15837.848
20459.31
16850.809
23581.617
26062.19
24487.261
18725.75
16552.666
14288.921
31000.06
30569.664
12524.747
12115.524
28321.919
25958.512
11721.019
11838.495
11713.836
26952.934
24297.819
10819.989
20683.746
8608.2147
8708.9163
8330.2205
10377.778
21218.873
18991.452
8665.3718
10861.761
7669.0912
10341.844
6963.0394
11740.428
17254.923
17214.094
18019.574
17233.852
5348.1294
5042.531
15057.968
4873.8035
13888.461
4757.7287
12926.804
4776.0789
4688.2203
4804.4174
10257.017
9776.5691
10042.108
5294.473
4270.6338
4213.2955
4208.564
4201.2828
4192.8369
4165.4153
4149.7642
4136.5289
4125.8191
4113.7393
4100.2685
4088.1764
4080.5
4075.0438
4072.7857
4072.7145
4075.7167
4080.3227
4084.7223
4081.3107
4053.6052
4264.8541
9159.4351
11222.527
11293.526
11288.895
11422.411
11587.63
11996.528
12112.48
12138.821
12111.183
12105.914
12125.13
12147.28
6852.1546
4146.0044
4171.6952
4134.2497
4067.5185
6448.0037
11825.337
11714.558
11693.707
11642.876
11526.325
11375.746
11357.964
11169.764
4470.1216
4502.5103
7258.5843
7262.3933
7262.4015
7262.2792
7262.224
7262.0358
7262.0627
7262.0335
7262.0486
7261.9695
7262.0226
7262.0136
7262.0347
7261.9681
7262.0064
7262.0076
7262.0458
7262.0062
7262.0421
7262.0567
7262.073
7262.0869
7262.0669
7262.0787
7262.0185
7262.0758
7262.0275
7262.0424
7261.9977
7262.0506
7262.0582
7261.9991
7261.8426
7261.6586
7261.7982
7261.8033
7261.7307
7261.3829
7261.8483
7261.8949
7261.8741
7261.3177
7262.2611
7262.4057
7261.8916
7260.814
7262.3584
7263.0023
7261.0323
7255.8862
7252.9502
7056.0916
6901.6891
7267.6206
7266.5179
7260.5618
7260.9698
7262.57
7267.3238
7270.2763
7272.5547
7912.2958
7892.2451
6640.3629
6611.0605
6611.7887
5024.8799
4837.0744
4829.0394
7906.2719
7847.6001
7256.0997
7253.1861
7256.9318
7259.1855
7258.6598
7260.3937
7260.8679
7263.5196
7261.2276
7262.0432
7260.6171
7263.7133
7263.8474
7264.9636
7262.0039
7261.7247
7260.5643
7261.6375
7260.0061
7262.2917
7261.5399
7264.2112
7262.5882
7258.1832
7250.1393
7272.171
7322.7583
7402.2879
7511.0925
7647.0735
8380.6131
12490.988
5367.3185
5512.1596
5343.3445
5501.7606
5644.8515
6850.1903
15833.03
14607.631
11990.043
11465.846
8635.6058
9217.556
13073.104
15168.589
16482.522
16198.833
18620.811
17096.602
17377.164
16489.971
17180.844
16445.753
15466.427
15610.346
13215.083
15856.046
14390.507
15312.283
15906.553
14163.676
15787.157
15663.837
16759.476
17749.924
18548.768
18556.509
18511.92
19084.588
19299.277
19540.165
20303.152
17420.356
17015.568
12915.412
10679.131
10093.226
10480.815
11055.134
10989.361
10723.187
11180.763
11723.602
19265.751
23494.276
15677.128
14998.776
15460.37
17043.681
4943.4154
3221.5704
2799.1457
2499.3974
5080.2517
5995.716
6052.1513
10584.635
6287.3648
12635.058
15103.568
13201.333
7631.0614
5705.5526
4565.5864
19661.772
18429.286
3925.5443
3821.3126
17664.284
15771.473
3684.8719
3866.6892
3932.3324
18053.037
15375.466
3733.829
12342.919
2419.874
2528.343
2360.6146
3630.7501
14598.339
12301.356
2724.3146
4421.0425
2215.6413
4095.3893
2026.2152
5676.4476
11634.228
11556.219
12407.163
11699.681
1588.8187
1487.696
10032.388
1486.3396
9122.1224
1503.5583
8379.0305
1499.4744
1481.0373
1589.7957
5952.7437
5482.2263
5796.4239
1998.7035
1359.0961
1338.1292
1336.2588
1332.9541
1327.8661
1310.4427
1300.5103
1292.2851
1285.6317
1278.179
1269.8122
1262.3147
1257.5227
1254.0692
1252.4905
1252.1691
1253.6472
1256.223
1259.1116
1257.369
1241.437
1322.6231
5201.2062
7237.82
7299.9572
7296.5595
7413.5068
7559.6204
7922.7419
8029.2642
8056.9213
8027.2258
8022.4339
8044.7921
8043.6592
3068.595
1286.4265
1301.5559
1282.6747
1247.7832
2717.5334
7697.5549
7577.3826
7555.2167
7503.5665
7393.477
7263.5158
7239.4909
6956.5885
1422.1699
1449.3268
3343.251
3348.0955
3348.1085
3347.9798
3347.923
3347.7356
3347.7645
3347.7319
3347.7466
3347.6613
3347.7169
3347.7039
3347.726
3347.6536
3347.6956
3347.6931
3347.7284
3347.6865
3347.7192
3347.7315
3347.7444
3347.7548
3347.7304
3347.7387
3347.6746
3347.7312
3347.6748
3347.6875
3347.6355
3347.6875
3347.6891
3347.6206
3347.4515
3347.2571
3347.4016
3347.3987
3347.3232
3346.9759
3347.4433
3347.4814
3347.4588
3346.9155
3347.847
3347.9742
3347.4581
3346.3976
3347.9349
3348.5367
3346.4962
3341.3663
3338.354
3202.3244
3098.5965
3353.1448
3352.0506
3346.0782
3346.543
3348.1606
3352.9588
3355.9022
3359.0874
3871.7121
3849.094
2883.7126
2856.179
2854.215
1809.596
1670.7604
1667.4164
3862.6175
3814.2792
3341.5666
3338.6216
3342.4284
3344.6665
3344.1399
3345.9094
3346.3473
3349.0585
3346.7061
3347.5898
3346.1173
3349.2692
3349.3622
3350.5095
3347.5157
3347.2556
3346.0248
3347.1604
3345.466
3347.8581
3347.0442
3349.774
3348.0237
3347.106
3343.1642
3353.6317
3376.6401
3412.7723
3462.8808
3525.015
4124.8952
7981.6531
1808.4498
1845.3629
1673.1843
1714.0889
1738.7337
2179.2485
10312.06
8868.227
6418.3055
5598.0359
2984.4607
3316.8017
6593.5731
8821.9522
10082.448
9493.5208
11917.128
9887.0608
10009.432
9029.3683
9748.3284
8505.5901
7165.5433
7256.0546
5258.4159
6987.398
5833.2752
6463.5499
6742.8833
5070.2168
5942.905
5628.9469
6253.5025
6947.9737
7509.149
7387.6756
7482.814
7998.0262
7997.9782
8563.4789
9015.1672
7096.5412
7033.7802
4303.7683
3085.7148
2879.5896
3200.3252
3565.9254
3571.7681
3422.3091
3653.1691
3902.2856
11059.196
15203.363
12316.512
11595.691
12094.237
13598.822
2229.4132
1109.2371
923.12051
778.71373
2205.7532
2797.4166
2763.045
6671.1796
2781.3991
8314.1613
10789.313
8709.7884
3578.0388
2278.025
1608.3336
15168.112
13429.9
1344.5271
1341.1149
13474.052
11716.296
1275.4041
1407.06
1499.0281
14406.579
11710.744
1452.1892
9014.3743
738.29371
803.65785
732.40398
1439.7356
11814.678
9487.2678
949.77644
2082.5546
753.67354
1952.4288
667.51328
3333.4508
9212.6803
9099.6248
9869.1976
9141.7056
543.85732
519.09828
7731.9752
536.03217
6945.7042
562.50015
6315.001
552.38081
551.83749
623.08683
4133.7054
3685.2262
3995.2547
895.12037
513.01261
504.26114
503.43208
501.87656
499.13687
489.61484
484.22166
479.80216
476.23533
472.25783
467.79059
463.80098
461.25102
459.40807
458.54033
458.32371
459.04078
460.3611
461.91641
461.05588
453.33824
489.28522
3556.6614
5451.544
5505.5019
5503.2193
5603.9659
5730.8407
6044.1199
6137.5366
6163.078
6134.9448
6130.8599
6152.0206
6120.2713
1622.9601
474.77175
482.44581
473.16641
457.44614
1364.6232
5810.7329
5699.0881
5678.1334
5630.608
5535.7176
5432.2024
5403.5518
5044.7775
536.1728
555.77501
1852.5736
1857.8826
1857.897
1857.7709
1857.7164
1857.5429
1857.5707
1857.5363
1857.5482
1857.4639
1857.5156
1857.4989
1857.5181
1857.4456
1857.485
1857.4782
1857.5066
1857.4643
1857.4902
1857.4976
1857.5047
1857.5097
1857.4803
1857.4825
1857.4168
1857.4652
1857.4032
1857.4101
1857.353
1857.3968
1857.3902
1857.3164
1857.148
1856.9597
1857.093
1857.0808
1857.0055
1856.6842
1857.1136
1857.1391
1857.1133
1856.6211
1857.4698
1857.5716
1857.0864
1856.1222
1857.535
1858.0541
1856.111
1851.3757
1848.4937
1752.5647
1681.7449
1862.278
1861.2705
1855.7532
1856.2267
1857.7342
1862.1994
1864.914
1868.8756
2273.1188
2249.5545
1508.2417
1484.2876
1480.1615
773.82494
683.02633
683.07648
2262.6071
2223.315
1851.5527
1848.7904
1852.3525
1854.4044
1853.9145
1855.578
1855.961
1858.5081
1856.2902
1857.1545
1855.7629
1858.7141
1858.7703
1859.8542
1857.059
1856.8336
1855.6448
1856.7403
1855.1308
1857.425
1856.6288
1859.2121
1857.5277
1857.7825
1855.3997
1861.431
1873.9848
1893.6531
1921.4142
1955.6205
2457.8894
5991.1135
717.12219
723.72846
611.85623
621.72644
621.51413
788.77304
7907.9073
6511.4746
4203.6858
3308.8852
1225.7094
1416.9537
4004.0524
6240.4899
7455.3625
6766.6668
9115.4748
6998.7857
7046.8787
6083.6395
6805.4864
5371.8292
3972.7509
4037.1591
2400.9976
3624.409
2725.0043
3197.6968
3347.5522
2031.02
2664.5713
2390.4765
2755.0981
3242.7505
3673.8866
3542.4924
3469.0772
3892.4533
3861.493
4398.121
4771.1917
3368.069
3385.3956
1627.6019
995.93625
914.81388
1091.0581
1282.0035
1295.5374
1221.503
1328.0977
1445.0159
7717.4255
11808.983
10375.39
9690.0029
10169.635
11552.235
1130.7839
426.53931
343.43782
279.03287
1041.8947
1433.9586
1378.9265
4729.5205
1337.6479
6188.4003
8604.9685
6460.1744
1817.895
969.9388
615.13136
12788.65
10755.138
496.83143
518.2278
11270.997
9554.3682
478.16047
554.86944
628.91275
12298.193
9659.8875
617.00569
7242.0912
260.35285
292.98739
266.10924
635.14284
10098.474
7817.042
367.24711
1077.5112
293.31079
1024.8006
257.74949
2226.5398
7716.9722
7579.106
8236.561
7483.2297
220.11064
223.38596
6275.0678
235.51683
5582.8933
254.55096
5037.0114
243.14708
247.20327
290.43182
3129.5903
2718.2033
2998.8792
456.55506
234.33882
230.31151
229.9114
229.17219
227.76426
222.83304
220.05626
217.79512
215.97332
213.9464
211.66968
209.64171
208.34726
207.41161
206.96657
206.84855
207.19926
207.86257
208.65656
208.23593
204.63719
224.13783
2675.6704
4350.6291
4396.9917
4395.6708
4481.3778
4590.107
4855.0263
4934.4799
4956.4386
4931.4484
4928.0461
4945.7828
4884.0015
946.20848
214.99866
218.63014
214.11194
207.61786
781.59249
4635.452
4539.2835
4520.5696
4478.4615
4398.7936
4316.3846
4284.1469
3872.6595
244.08144
257.67868
1150.9652
1156.3142
1156.327
1156.2078
1156.1568
1156.0019
1156.0261
1155.9906
1155.998
1155.9177
1155.962
1155.9413
1155.9551
1155.8846
1155.9176
1155.9055
1155.9253
1155.8824
1155.8995
1155.9003
1155.9
1155.898
1155.8629
1155.8571
1155.7898
1155.8256
1155.7588
1155.7573
1155.6954
1155.7269
1155.7106
1155.6333
1155.4711
1155.2951
1155.4091
1155.3874
1155.3125
1155.0256
1155.4002
1155.412
1155.3814
1154.9516
1155.6911
1155.7664
1155.3235
1154.4821
1155.7258
1156.1524
1154.3798
1150.1772
1147.5066
1078.112
1028.7546
1159.8519
1158.9532
1154.0723
1154.5248
1155.8726
1159.8556
1162.2646
1166.8636
1485.6297
1462.0628
889.37361
869.33417
863.73121
381.54426
325.62279
327.5104
1474.8402
1442.7686
1150.3107
1147.8264
1151.0184
1152.8233
1152.386
1153.8828
1154.2095
1156.4962
1154.4985
1155.298
1154.0444
1156.6896
1156.7193
1157.6972
1155.1942
1155.0043
1153.9115
1154.9183
1153.4606
1155.5647
1154.8294
1157.179
1155.6457
1156.3302
1154.7012
1158.6105
1166.2737
1178.2551
1195.4962
1216.7658
1639.3854
4786.3845
332.16293
330.31643
265.26119
266.25572
261.68981
325.93136
6449.1417
5204.3047
3082.6093
2200.5608
560.06213
664.81718
2707.6241
4870.6368
6013.9313
5325.5187
7519.6165
5502.1886
5503.3783
4597.1105
5284.8389
3823.5092
2465.5606
2502.9763
1197.9753
2079.1218
1389.7311
1752.1382
1835.9292
878.33483
1302.7375
1102.0052
1315.5171
1641.9508
1968.0631
1857.8697
1744.2898
2070.0633
2022.6953
2480.4862
2821.1579
1771.1115
1796.1815
687.41551
363.57268
328.88311
415.2235
509.91378
519.85528
484.8473
532.67284
587.65063
5902.5289
9865.9677
8955.6548
8338.1072
8772.8633
10014.032
648.78899
193.15478
156.52582
130.83168
532.33527
786.68295
741.27833
3599.567
691.5954
4961.1536
7252.0389
5126.4731
975.60566
439.22365
270.84552
11181.978
9009.5105
211.09158
235.30847
9795.1765
8104.9788
207.00399
248.69238
298.03537
10738.383
8215.914
291.6514
6064.0656
120.67652
137.72806
128.79989
318.20573
8764.722
6577.7111
170.58089
600.8864
143.593
580.33361
130.12772
1629.6042
6572.0125
6419.0336
6964.5165
6198.5167
114.98931
127.87322
5172.4986
133.08418
4566.2665
144.86042
4094.6997
133.25964
138.35297
165.54246
2467.5481
2102.2594
2342.875
262.63068
134.24691
132.1634
131.9493
131.58778
130.85403
128.25368
126.7966
125.61608
124.66672
123.61182
122.42695
121.37483
120.70562
120.22305
119.99375
119.93274
120.11302
120.45807
120.87192
120.66151
118.95566
132.44103
2113.4819
3540.4764
3579.8502
3579.3291
3651.5365
3743.7962
3964.5444
4030.6966
4048.76
4027.357
4024.5418
4038.0551
3950.8859
587.02239
124.27112
125.94884
123.6777
121.33235
502.71583
3767.6207
3688.1789
3672.0005
3635.4128
3569.4185
3503.499
3468.272
3025.9933
139.05055
148.88763
772.19699
777.29014
777.29861
777.18803
777.14026
777.00442
777.02337
776.98657
776.98838
776.91256
776.94714
776.92209
776.92883
776.86047
776.88447
776.86643
776.8763
776.83183
776.83883
776.83175
776.82278
776.81242
776.77074
776.75558
776.68546
776.70651
776.63453
776.62282
776.55578
776.57267
776.54558
776.46536
776.31109
776.1488
776.23946
776.20817
776.13304
775.88129
776.19543
776.19356
776.15688
775.78948
776.41347
776.46343
776.06536
775.34966
776.41266
776.74964
775.17452
771.5361
769.10409
717.84718
682.92381
779.88983
779.10067
774.90341
775.31738
776.49115
779.94846
782.03803
787.12066
1038.8599
1015.9287
571.19238
554.82785
548.38618
216.97846
183.54841
186.27025
1028.5199
1002.1606
771.60696
769.43564
772.21768
773.7636
773.3846
774.69313
774.96801
776.96069
775.21498
775.92804
774.83437
777.13985
777.15321
778.00888
775.82662
775.66861
774.69519
775.59257
774.31324
776.19069
775.53845
777.62497
776.27674
777.09891
775.90017
778.6341
783.67558
791.55862
803.11733
817.5729
1173.0557
3909.2096
183.63299
179.79781
142.6493
141.49764
137.69164
161.73693
5367.8073
4308.8419
2406.7956
1579.7453
287.97596
342.20399
1952.4792
3985.0343
5033.742
4397.2753
6385.4144
4559.5189
4526.3473
3694.8452
4338.171
2929.5263
1652.5014
1663.2415
643.73504
1279.4754
758.01099
1036.7895
1082.654
412.92833
684.16539
545.56797
670.36317
881.70798
1122.2747
1039.5353
930.55695
1170.0526
1121.9512
1488.0213
1801.0815
1012.311
1027.792
330.99799
166.78015
150.05503
187.58792
233.10052
239.2965
222.71561
244.13211
270.39417
4688
8457.8639
7780.4847
7241.4702
7621.9119
8720.6996
429.35984
111.42971
95.332427
86.002701
298.05941
459.96391
429.98167
2859.1903
387.52659
4156.257
6271.9655
4226.1563
548.11609
219.68792
148.33854
9905.9305
7698.1476
112.4662
135.18951
8631.9987
6976.1242
112.5085
136.19024
168.27274
9430.4145
7055.064
161.64342
5158.3974
78.428195
88.968312
86.97122
188.92093
7623.4681
5555.5468
102.37171
360.17468
93.146506
353.02868
88.860924
1274.7853
5612.1703
5451.7067
5895.7654
5131.4989
79.537815
95.771413
4272.2832
96.496185
3746.5434
103.29795
3342.3939
91.487993
96.588928
115.21129
1981.3824
1665.1028
1863.4275
170.10718
95.441818
94.210227
94.081667
93.900285
93.50708
92.087057
91.298389
90.664297
90.156751
89.593926
88.962607
88.40484
88.05254
87.800014
87.681536
87.651649
87.748989
87.934986
88.15656
88.050923
87.236251
98.654801
1710.9633
2894.9073
2927.9464
2928.0672
2988.4367
3066.1122
3247.9391
3302.1326
3316.5451
3298.6207
3296.2811
3305.5169
3198.9978
380.55268
90.143041
90.871656
89.697726
89.27619
359.80022
3076.1351
3012.2152
2998.5228
2967.1598
2913.0194
2860.0286
2822.3752
2368.5662
98.285553
105.97474
547.38841
552.03727
552.03884
551.93684
551.89138
551.77287
551.78513
551.74623
551.74143
551.66922
551.69273
551.66252
551.66093
551.59372
551.60709
551.5821
551.58128
551.53369
551.52977
551.51358
551.49491
551.47482
551.42564
551.39981
551.32533
551.33032
551.25233
551.22899
551.1561
551.1571
551.11861
551.03528
550.88869
550.73899
550.80507
550.76416
550.68802
550.46843
550.72237
550.70724
550.66373
550.35337
550.86553
550.89225
550.53722
549.93926
550.82606
551.08145
549.70688
546.6124
544.42178
505.9658
481.03225
553.67876
552.99196
549.45851
549.82498
550.82799
553.76903
555.55498
560.95964
759.80409
737.96675
391.61207
378.48154
371.73379
142.5727
122.87188
125.90651
750.34336
728.53902
546.60689
544.75105
547.12705
548.42567
548.10496
549.22495
549.45416
551.15279
549.66176
550.28118
549.3502
551.31941
551.32479
552.05686
550.1902
550.05897
549.21037
549.99398
548.89741
550.54381
549.98417
551.80861
550.65326
551.48632
550.56349
552.57528
556.07205
561.56159
569.74389
580.2702
878.55834
3211.86
122.00688
118.05574
96.919134
95.5699
93.083843
101.34714
4488.1099
3614.0383
1944.3918
1193.6059
170.61058
195.90077
1463.6588
3330.5679
4271.597
3710.9534
5472.8121
3875.6068
3816.2527
3065.9509
3661.6984
2350.8536
1170.8657
1157.8821
373.08007
831.25989
440.59342
655.21592
678.56142
220.0389
386.13812
294.23258
365.61958
499.03199
673.27485
615.36525
524.14445
695.29826
654.42371
934.87173
1217.4424
625.17155
630.13081
189.57362
104.05253
94.571405
109.91812
131.08336
134.34683
126.34094
135.60986
148.07776
3762.6175
7299.1704
6756.5797
6295.9807
6621.4231
7586.607
331.27737
82.165849
74.805112
72.018467
186.178
287.97504
271.71907
2329.0404
239.23793
3572.1719
5482.6043
3556.8203
322.4221
127.41566
103.67904
8803.5785
6624.1836
77.584045
98.78477
7634.0985
6024.6906
78.70299
93.818351
115.89583
8277.6149
6062.8788
108.44057
4405.8707
65.147065
73.100294
73.760405
134.91535
6615.6097
4677.8727
77.907155
233.02687
75.40753
231.33313
74.989225
1046.2281
4782.4205
4620.2639
4976.1884
4225.7172
67.042718
84.655028
3517.7862
82.890994
3066.3528
86.782165
2723.0464
74.595424
79.51786
93.571843
1602.6332
1334.0291
1492.5377
123.12225
79.290105
78.460148
78.373835
78.283066
78.067925
77.262243
76.820105
76.468271
76.188628
75.878903
75.531479
75.226137
75.035337
74.899977
74.838372
74.825148
74.881732
74.987833
75.112541
75.060182
74.675722
85.738863
1401.7108
2364.5249
2391.911
2392.5275
2442.6875
2507.661
2655.9906
2699.7961
2711.0325
2696.2335
2694.2598
2699.5138
2579.7761
255.65308
76.398312
76.664289
76.041082
76.599997
282.72096
2508.725
2458.2361
2446.8223
2420.2037
2376.1587
2333.439
2293.8789
1844.901
81.303999
87.757801
404.43513
408.5366
408.52866
408.43416
408.38962
408.28544
408.28988
408.24764
408.23533
408.16506
408.17659
408.14029
408.12939
408.06169
408.06333
408.03047
408.01818
407.96603
407.95041
407.92409
407.89474
407.86378
407.80608
407.7684
407.68822
407.67627
407.59158
407.55553
407.47609
407.46073
407.41036
407.3237
407.18369
407.04423
407.08613
407.03559
406.95786
406.76579
406.96307
406.9353
406.88472
406.62379
407.0328
407.03866
406.72298
406.22964
406.95308
407.13694
405.95317
403.35759
401.40031
372.22259
354.35829
409.23357
408.63915
405.71601
406.03168
406.87592
409.33722
410.84889
416.41513
573.24508
552.83022
282.9359
272.55479
265.92117
106.71481
95.201706
98.30662
564.885
546.75323
403.26889
401.7125
403.70913
404.78338
404.51794
405.46056
405.6505
407.07317
405.82361
406.35107
405.57496
407.2308
407.23451
407.84978
406.27651
406.16713
405.43901
406.11351
405.19222
406.62
406.15487
407.73448
406.7658
407.55411
406.82315
408.35643
410.87735
414.87275
420.9045
428.99125
678.44233
2637.3458
94.667498
91.155739
78.974028
77.812799
76.24639
78.235883
3746.5032
3040.7114
1599.3181
933.94538
118.05882
126.92166
1123.0162
2806.862
3636.8455
3159.0205
4696.1406
3331.9699
3253.0843
2583.7289
3131.4831
1943.1576
864.91269
832.78795
234.97227
565.08574
274.28622
440.05817
450.50168
138.01151
236.67114
177.73841
217.49413
298.86609
423.6788
385.45341
313.41263
434.08789
402.85813
611.17675
861.14815
416.5306
413.83296
131.2642
83.463244
77.006328
82.996231
93.022609
94.560907
90.379669
94.146167
99.954961
3008.7547
6292.1314
5848.635
5461.478
5735.2952
6579.5975
293.61774
71.40825
67.688209
67.474329
130.85007
194.50046
188.57142
1924.5204
165.43274
3114.1692
4806.9211
3024.731
200.22916
87.940404
87.113736
7816.0063
5702.9156
64.945858
85.241384
6745.7494
5193.6919
66.258253
77.45326
94.142879
7244.8029
5194.0288
86.065375
3758.0193
60.781377
67.729845
69.439108
112.06501
5718.6909
3915.832
68.766155
163.38845
68.831383
163.8015
70.174971
887.83889
4059.6554
3900.1199
4181.1566
3453.8629
62.426503
80.816011
2881.7087
77.659846
2497.6895
79.935623
2208.583
67.234543
72.032769
83.671944
1298.6858
1073.9793
1197.4335
97.812647
72.034183
71.405282
71.341907
71.299158
71.179875
70.699763
70.440249
70.236486
70.076099
69.898169
69.697788
69.522477
69.414773
69.339759
69.307756
69.303738
69.340455
69.406564
69.482731
69.458219
69.293728
80.841263
1154.2912
1924.7309
1947.1488
1948.1308
1989.5887
2043.6218
2163.5805
2198.5585
2207.152
2195.0466
2193.3402
2195.0495
2067.7754
177.61543
70.416372
70.459866
70.118325
71.30564
239.12191
2038.9196
1999.6329
1990.2117
1967.8039
1932.246
1897.7374
1856.8168
1426.0588
73.687734
79.413432
308.65235
312.16795
312.14781
312.05903
312.01379
311.92036
311.91579
311.86905
311.84826
311.77784
311.77681
311.73349
311.71253
311.64238
311.63162
311.59004
311.56565
311.50757
311.47963
311.44235
311.40154
311.35876
311.2916
311.24122
311.15415
311.12489
311.03286
310.98356
310.89701
310.86551
310.80338
310.71267
310.57827
310.44626
310.4655
310.40539
310.32593
310.15619
310.30213
310.2625
310.20503
309.98527
310.30223
310.28962
310.00891
309.6052
310.1821
310.30493
309.2957
307.1433
305.40649
283.09765
270.31471
311.95527
311.44272
309.06102
309.32647
310.02803
312.05912
313.33091
318.90778
442.22956
423.46072
213.42095
205.32911
199.12649
88.297624
81.663081
84.720748
435.04826
419.91019
306.97161
305.68862
307.34374
308.22122
308.00644
308.78881
308.94557
310.11967
309.09009
309.53243
308.89782
310.27278
310.27925
310.78901
309.4788
309.38695
308.76981
309.3447
308.58506
309.81524
309.44199
310.80208
310.00665
310.72816
310.13855
311.3361
313.2062
316.21977
320.80758
327.28864
535.06952
2158.4333
81.701569
78.727871
71.469915
70.50699
69.490194
68.930949
3114.2783
2555.0956
1327.1427
748.72856
93.708199
93.412986
873.34092
2369.8614
3092.0651
2694.707
4020.9207
2876.6263
2783.9853
2191.3531
2692.3365
1637.6896
659.6066
613.50687
161.97957
399.7515
184.29652
313.17823
316.96431
102.04456
159.48619
122.41521
143.97197
191.91877
280.06495
256.47823
201.82074
286.43976
264.21022
415.18676
632.99536
298.82283
291.17922
105.99377
76.526019
71.396551
73.470381
78.598274
79.309742
76.791322
78.082393
80.717146
2377.5912
5399.4082
5040.4375
4719.7821
4947.0238
5684.2724
288.36589
67.412446
65.118146
65.908122
102.62053
142.2865
143.60059
1602.3029
128.35929
2733.4671
4211.6192
2583.0518
133.14477
70.752254
80.977889
6919.4402
4894.785
60.264401
80.142423
5944.077
4462.8757
61.523146
70.981261
84.874291
6316.4051
4429.3273
76.362968
3192.4462
59.258081
65.822537
67.981916
102.56777
4920.9866
3258.2752
65.151356
124.00379
66.202616
125.13061
68.488006
770.19929
3430.5784
3276.7758
3495.1764
2802.37
60.639096
79.605991
2346.6298
75.596704
2022.8723
76.973359
1781.4332
63.687036
68.438593
78.811659
1051.5076
865.77743
959.75619
83.287175
68.446984
67.925082
67.876059
67.86071
67.795372
67.49281
67.332598
67.209034
67.113109
67.005894
66.883813
66.777433
66.713913
66.671123
66.655311
66.656911
66.684212
66.730349
66.782141
66.773142
66.73688
79.202116
951.97502
1559.9131
1578.0566
1579.2923
1613.3977
1658.0812
1754.2938
1781.8891
1788.3511
1778.5103
1776.9885
1775.6343
1645.8481
127.88284
67.53745
67.47628
67.286617
69.019727
212.87065
1649.7659
1619.7116
1611.927
1593.2048
1564.7008
1536.7546
1495.0804
1092.9428
69.951611
75.193751
241.78051
244.7181
244.68311
244.5976
244.55015
244.46358
244.44897
244.39651
244.36635
244.29352
244.27966
244.22851
244.19662
244.12265
244.09891
244.04789
244.011
243.94581
243.90516
243.85634
243.8035
243.74827
243.67087
243.60734
243.51245
243.46604
243.36626
243.30376
243.20985
243.16288
243.08974
242.9943
242.86486
242.73749
242.73637
242.66736
242.58583
242.43363
242.53443
242.48396
242.42012
242.23359
242.47047
242.44173
242.19157
241.86248
242.31122
242.38321
241.52942
239.7617
238.22992
221.09136
211.99661
243.64623
243.20549
241.29154
241.50984
242.08636
243.74164
244.80835
250.26107
346.82239
329.83394
166.83808
160.62752
155.08268
78.111449
74.439906
77.373557
340.80238
328.12899
239.51362
238.47328
239.82924
240.53851
240.36909
241.0109
241.14005
242.09693
241.2621
241.62897
241.11993
242.25027
242.2625
242.68008
241.59961
241.52174
241.00361
241.49069
240.87626
241.93353
241.64699
242.81617
242.17724
242.82689
242.3453
243.29694
244.71358
247.05439
250.6317
256.01543
428.30521
1758.6507
75.066462
72.579625
68.039241
67.225819
66.534269
64.910805
2575.0194
2139.9182
1105.2814
610.58011
81.982591
76.626993
684.13661
1997.9942
2619.4206
2295.6305
3430.4426
2484.727
2383.3906
1861.2254
2317.7335
1398.6753
515.32491
460.76706
122.22559
293.13865
134.36827
235.38519
236.56909