0 	6.6666667e-11 	0 	0 	6.6666667e-11 	0 	6.6666667e-11
0.00099978191 	2.8293076e-07 	2.2100341e-10 	-1.4599159e-32 	2.829327e-07 	-5.9855569e-31 	2.8293176e-07
0.0020495529 	2.0182075e-06 	4.5873737e-09 	1.3709422e-31 	2.0182843e-06 	3.2728075e-30 	2.0182461e-06
0.0031518124 	8.6328377e-06 	3.7600735e-08 	1.407274e-30 	8.6338186e-06 	1.0965505e-28 	8.6333282e-06
0.0043091849 	2.5728543e-05 	1.7951585e-07 	-9.4717284e-30 	2.5735386e-05 	3.0143057e-28 	2.5731965e-05
0.005524426 	6.1332161e-05 	6.0109959e-07 	1.2505978e-28 	6.136505e-05 	2.5119117e-27 	6.1348615e-05
0.0068004292 	0.00012604401 	1.5456209e-06 	-1.0497204e-28 	0.00012616683 	1.4515451e-26 	0.00012610547
0.0081402324 	0.00023282645 	3.1617147e-06 	2.0476747e-27 	0.00023320823 	-6.1591911e-26 	0.00023301751
0.0095470259 	0.00039563464 	5.071085e-06 	-4.0573985e-27 	0.00039666319 	-1.5642318e-25 	0.00039614919
0.011024159 	0.00062595164 	5.7265948e-06 	-2.0432757e-27 	0.00062840837 	2.0759039e-25 	0.00062717979
0.012575149 	0.00092737492 	2.1323515e-06 	-1.3506532e-27 	0.00093263855 	-4.9593057e-25 	0.00093000463
0.014203688 	0.0012913507 	-9.2225979e-06 	-7.477175e-26 	0.0013015398 	-1.1565292e-25 	0.0012964404
0.015913654 	0.0016986551 	-3.0484785e-05 	6.8143747e-26 	0.0017166178 	2.0815943e-24 	0.0017076305
0.017709118 	0.0021267322 	-6.1401422e-05 	6.956679e-26 	0.0021558848 	5.6111631e-25 	0.0021413049
0.019594356 	0.0025571302 	-0.00010009017 	1.6646629e-25 	0.0026012353 	2.3925786e-24 	0.0025791834
0.021573855 	0.0029784142 	-0.00014446385 	5.6608583e-25 	0.0030413893 	1.2466434e-25 	0.0030099061
0.023652329 	0.0033851791 	-0.00019301825 	1.3570129e-25 	0.0034709725 	-6.1678008e-24 	0.0034280845
0.025834727 	0.0037758549 	-0.00024490558 	-2.9767835e-25 	0.0038883835 	-7.2970205e-25 	0.0038321395
0.028126245 	0.0041508888 	-0.00029973898 	7.5148964e-26 	0.0042940991 	3.4112022e-24 	0.004222503
0.030532338 	0.0045116238 	-0.00035697913 	2.357246e-25 	0.004689593 	-9.1660692e-24 	0.0046005068
0.033058736 	0.0049154346 	-0.00042832211 	-1.2198864e-24 	0.0051395015 	1.016051e-24 	0.0050273622
0.037433237 	0.005404611 	-0.00052391587 	3.4630575e-24 	0.0056940446 	1.7107828e-23 	0.0055494069
0.042136548 	0.0059180569 	-0.00063549842 	-1.696927e-24 	0.0062881964 	-4.4314158e-23 	0.006103216
0.047193554 	0.0064114527 	-0.00075629566 	-1.7939991e-23 	0.006872396 	-1.9471413e-23 	0.0066419255
0.052631037 	0.0068894752 	-0.00088610787 	-1.1994144e-25 	0.007450939 	1.8236933e-22 	0.0071702108
0.058477818 	0.007356016 	-0.0010256021 	1.2113581e-23 	0.0080278683 	2.8074817e-22 	0.0076919503
0.064764915 	0.0078143866 	-0.0011755059 	-2.0990845e-23 	0.0086064275 	-2.5358875e-22 	0.0082104167
0.071525711 	0.0082674811 	-0.0013367031 	4.4800574e-24 	0.0091893723 	-6.8057132e-22 	0.0087284349
0.078796136 	0.0087178841 	-0.0015102075 	1.531608e-23 	0.0097791104 	2.2865463e-22 	0.0092485032
0.08661486 	0.0091679793 	-0.0016972028 	-3.1174288e-23 	0.010377787 	4.7623565e-22 	0.0097728876
0.095023506 	0.0096200538 	-0.0018990184 	-2.9337855e-23 	0.010987321 	-4.2757597e-22 	0.010303691
0.10406687 	0.010076373 	-0.0021169526 	-3.244544e-22 	0.011609434 	1.2739962e-21 	0.010842907
0.11379319 	0.010539269 	-0.0023522833 	-1.137177e-21 	0.012245648 	-2.6423438e-22 	0.011392463
0.12425435 	0.011011193 	-0.0026063628 	5.0934385e-22 	0.0128973 	-3.3301146e-21 	0.011954251
0.13550623 	0.011494738 	-0.0028806116 	8.9661874e-22 	0.013565555 	1.4584394e-21 	0.012530151
0.14760899 	0.011992676 	-0.0031765064 	-4.6713561e-22 	0.014251415 	1.5009134e-21 	0.01312205
0.16062736 	0.012507979 	-0.0034955643 	6.9441249e-22 	0.014955702 	-1.3808747e-21 	0.013731846
0.17463103 	0.013043841 	-0.0038393201 	-3.0483572e-23 	0.015679042 	4.1417423e-22 	0.014361448
0.18969505 	0.013603673 	-0.004209294 	-6.3630768e-23 	0.016421839 	-1.6038444e-22 	0.015012764
0.20590016 	0.014191084 	-0.0046069481 	1.411558e-21 	0.01718423 	2.4631688e-21 	0.015687665
0.22333334 	0.014809836 	-0.0050336275 	-3.9147042e-21 	0.017966035 	2.6810945e-21 	0.016387944
0.24208818 	0.015463763 	-0.005490481 	-1.7149711e-21 	0.01876667 	-4.2468304e-21 	0.017115228
0.26226545 	0.016156646 	-0.0059784072 	2.5505352e-21 	0.019585038 	-1.041109e-21 	0.017870864
0.28397366 	0.016892101 	-0.0064977189 	-1.5013402e-21 	0.020419372 	3.3476234e-21 	0.018655764
0.30732959 	0.017673193 	-0.0070481239 	-2.7445e-21 	0.021267112 	3.8207156e-22 	0.019470172
0.33245899 	0.018501901 	-0.0076288912 	-2.267002e-21 	0.022124653 	-1.3621754e-21 	0.020313302
0.35949723 	0.019378922 	-0.0082379006 	3.4177383e-21 	0.02298673 	-2.2017466e-21 	0.021182876
0.38859006 	0.020303027 	-0.0088714458 	1.4532325e-21 	0.023845981 	-3.9269788e-22 	0.022074607
0.41989437 	0.021270025 	-0.0095242364 	1.2978169e-21 	0.02469265 	6.2031946e-22 	0.02298147
0.45357908 	0.022271781 	-0.01018861 	5.5562585e-22 	0.025514465 	1.6914584e-21 	0.023892775
0.48982604 	0.023294959 	-0.010854124 	-3.3716764e-21 	0.02629451 	7.5212013e-22 	0.024793107
0.528831 	0.024320501 	-0.011539059 	1.5640835e-21 	0.027000091 	2.6106837e-21 	0.025661181
0.57080472 	0.025352269 	-0.012170823 	-1.640948e-20 	0.027579438 	5.1070989e-21 	0.026470374
0.61597405 	0.026374216 	-0.012614145 	-1.5097477e-20 	0.02799664 	-2.4268736e-21 	0.027186175
0.6645832 	0.027265708 	-0.012892052 	6.2581304e-21 	0.02823351 	-4.7565577e-21 	0.027746832
0.71689504 	0.027879693 	-0.013048027 	8.8386702e-21 	0.028252404 	5.4701922e-22 	0.028064889
0.7731925 	0.028129316 	-0.013047511 	-2.1049781e-21 	0.027991889 	2.0350893e-21 	0.028060824
0.83378011 	0.027962204 	-0.01286493 	-8.0742479e-21 	0.027385779 	5.1435105e-22 	0.027674361
0.89898561 	0.027358759 	-0.012491465 	-4.7194262e-21 	0.026407709 	-2.0918787e-21 	0.026883208
0.96916171 	0.026349881 	-0.011945487 	2.1064222e-20 	0.025098735 	-3.1838238e-21 	0.025723959
1.0446879 	0.025018712 	-0.011270552 	1.668962e-20 	0.02355649 	1.1126823e-21 	0.024287141
1.1259726 	0.023494968 	-0.010529382 	-8.5931841e-21 	0.021915554 	3.0018309e-21 	0.022704885
1.2134551 	0.021923321 	-0.009787687 	-2.7016608e-20 	0.020310761 	2.4868798e-21 	0.02111689
1.3076079 	0.020416475 	-0.0090934998 	-3.0479603e-20 	0.018835841 	2.2165271e-21 	0.019626095
1.3535451 	0.019783993 	-0.008808104 	-4.2574522e-20 	0.018238567 	1.5680547e-21 	0.019011275
1.4089395 	0.019020352 	-0.0084637589 	-5.8412527e-20 	0.017518279 	7.9621921e-22 	0.018269381
1.5179961 	0.017728818 	-0.0078892813 	6.4963433e-21 	0.016330862 	-3.8753774e-21 	0.017030224
1.6270321 	0.016544739 	-0.0073640913 	8.0505696e-20 	0.015249472 	-3.2952017e-21 	0.015897446
1.728311 	0.015469135 	-0.0068852234 	4.0061652e-20 	0.014258814 	2.778979e-21 	0.014864171
1.8223901 	0.0144847 	-0.0064433647 	-6.8256603e-20 	0.013338833 	3.7548132e-21 	0.013911633
1.9097862 	0.01358403 	-0.006033771 	-6.5429592e-20 	0.012476674 	-4.0336729e-22 	0.013030761
1.9909784 	0.012767163 	-0.0056323089 	-7.197124e-21 	0.011666013 	-1.350644e-21 	0.012217403
2.066411 	0.012011802 	-0.0051608733 	-8.5906149e-21 	0.010908488 	5.4237972e-22 	0.011459835
2.1364962 	0.011291695 	-0.0046402494 	-2.5319826e-20 	0.010201496 	-1.0305908e-22 	0.010746267
2.2016161 	0.010604311 	-0.004131535 	1.1204572e-21 	0.0095442626 	-2.2861259e-21 	0.010074388
2.2621254 	0.0099529197 	-0.0036259596 	6.2032239e-20 	0.008938765 	-1.4476251e-21 	0.0094458133
2.318353 	0.0093402741 	-0.0031336061 	4.0064481e-20 	0.0083816462 	1.5528288e-21 	0.0088609784
2.3706041 	0.0087677345 	-0.0026608498 	-1.8433458e-22 	0.0078708853 	4.782028e-22 	0.0083193243
2.4191621 	0.0082355134 	-0.0022112471 	1.8840931e-20 	0.0074038099 	-7.5821662e-22 	0.0078196639
2.4642899 	0.0077431347 	-0.0017865252 	2.1789373e-20 	0.006977874 	5.3132511e-22 	0.0073605036
2.5062314 	0.0072899626 	-0.0013874583 	-4.0622109e-23 	0.006590725 	1.0057817e-21 	0.0069403443
2.5452131 	0.00687537 	-0.0010138797 	-8.973498e-21 	0.0062404011 	1.1347598e-21 	0.0065578838
2.5814454 	0.0064988864 	-0.00066507937 	-3.0919723e-20 	0.0059253972 	3.4814211e-23 	0.0062121416
2.6151233 	0.006160357 	-0.00033999336 	-1.0280361e-20 	0.0056447458 	-6.3189821e-22 	0.00590255
2.6464282 	0.005859965 	-3.730873e-05 	-8.9812926e-21 	0.0053980483 	-1.4548283e-21 	0.005629006
2.6755283 	0.0055982846 	0.00024446744 	2.1134228e-20 	0.005185474 	-5.7607502e-22 	0.0053918802
2.7025798 	0.0053762368 	0.00050691166 	6.9283919e-21 	0.0050077146 	1.4037943e-21 	0.005191976
2.7277279 	0.0051949818 	0.00075163783 	-9.922159e-21 	0.0048658856 	-5.4219993e-22 	0.0050304351
2.7511073 	0.0050557648 	0.00098027056 	1.26359e-20 	0.0047613413 	1.570848e-21 	0.0049085556
2.7728431 	0.004959633 	0.0011943764 	-2.8560499e-20 	0.0046953961 	1.1984209e-21 	0.0048275181
2.7930516 	0.0049071023 	0.0013954205 	-1.1550758e-20 	0.0046689637 	-2.5755052e-21 	0.0047880361
2.8118407 	0.0048975136 	0.0015846252 	1.3337088e-20 	0.0046819007 	1.800432e-22 	0.0047897103
2.8293108 	0.0049292077 	0.0017629481 	-8.6981261e-21 	0.0047331212 	7.293815e-22 	0.0048311684
2.8455549 	0.0049994824 	0.0019310997 	2.5045038e-22 	0.004820506 	-1.13939e-21 	0.0049099969
2.8606597 	0.0051035764 	0.0020893068 	5.880274e-21 	0.0049398811 	-2.8849729e-22 	0.00502173
2.8747054 	0.005235164 	0.0022373829 	3.4950423e-21 	0.0050854392 	4.6078131e-22 	0.0051603058
2.8877668 	0.0053871871 	0.0023748914 	8.9945285e-23 	0.0052505314 	8.1793717e-22 	0.0053188783
2.8999132 	0.0055521781 	0.0025044139 	-4.5092151e-21 	0.0054280255 	-1.9972508e-23 	0.0054901004
2.9112092 	0.0057223119 	0.0026217815 	-2.0825773e-22 	0.0056109479 	-1.0486845e-21 	0.005666592
2.9217146 	0.0058898676 	0.0027156557 	4.8597751e-21 	0.0057923024 	3.4972058e-22 	0.0058410754
2.931485 	0.0060474688 	0.0027923487 	-2.1777031e-21 	0.0059639591 	1.1157316e-21 	0.0060057337
2.9405723 	0.0061868251 	0.0028603709 	-4.2409924e-21 	0.0061167704 	-5.6611705e-22 	0.0061518061
2.9490244 	0.0062998783 	0.0029159944 	1.626131e-21 	0.0062426561 	-1.6194018e-21 	0.0062712656
2.956886 	0.0063812018 	0.0029567148 	6.8380086e-21 	0.0063362397 	6.2228473e-22 	0.0063587171
2.9641985 	0.0064281177 	0.0029812688 	-1.7547998e-21 	0.0063947625 	1.4349137e-21 	0.006411437
2.9710007 	0.0064397891 	0.002989221 	-2.9227374e-21 	0.0064171813 	-5.4069751e-22 	0.006428483
2.9773282 	0.0064163094 	0.0029805561 	1.2445763e-21 	0.0064033273 	-1.1389747e-22 	0.006409817
2.9832145 	0.0063573983 	0.0029550867 	-1.4688993e-21 	0.0063526629 	1.5778243e-22 	0.0063550301
2.9886904 	0.006261799 	0.0029121826 	4.2810372e-23 	0.0062637228 	-4.2525359e-22 	0.0062627607
2.9937848 	0.006126774 	0.002850545 	6.9268003e-22 	0.0061336471 	1.5300445e-23 	0.0061302102
2.9985244 	0.0059469594 	0.0027676792 	3.5492223e-23 	0.0059570032 	1.2817011e-22 	0.0059520086
3.002934 	0.0057382811 	0.0026709755 	3.0963399e-23 	0.0057497858 	1.0433982e-23 	0.0057440456
3.005461 	0.0055402395 	0.0025789339 	0 	0.0055520371 	8.014629e-24 	0.005546105
3.0078676 	0.0053439712 	0.0024876072 	0 	0.0053554597 	0 	0.0053496959
3.0101596 	0.0051184223 	0.0023825853 	0 	0.0051292143 	0 	0.0051238176
3.0123425 	0.0048589293 	0.0022617002 	0 	0.0048687689 	0 	0.0048638504
3.0144214 	0.0045603872 	0.002122599 	0 	0.0045690751 	0 	0.0045647319
3.0164014 	0.0042175957 	0.0019629023 	0 	0.0042250073 	0 	0.0042213019
3.018287 	0.0038255069 	0.0017768132 	0 	0.0038315848 	0 	0.0038285461
3.0200829 	0.0033800946 	0.0015560092 	0 	0.0033848395 	0 	0.0033824674
3.0217932 	0.0028818458 	0.0012998483 	0 	0.0028853325 	0 	0.0028835893
3.0234221 	0.002341345 	0.0010163695 	0 	0.0023437227 	0 	0.0023425336
3.0249734 	0.001784777 	0.00072364672 	0 	0.0017862499 	0 	0.0017855131
3.0264509 	0.0012549741 	0.00045408472 	0 	0.0012557809 	0 	0.0012553772
3.027858 	0.00080085701 	0.00024276037 	0 	0.00080123559 	0 	0.00080104617
3.0291981 	0.00045691515 	0.00010714048 	0 	0.00045706204 	0 	0.00045698858
3.0304744 	0.00022881092 	3.7812309e-05 	0 	0.0002288561 	0 	0.00022883352
3.0316899 	9.7293818e-05 	1.019694e-05 	0 	9.730419e-05 	0 	9.7299007e-05
3.0328475 	3.2930408e-05 	1.9300294e-06 	0 	3.2932005e-05 	0 	3.2931207e-05
3.03395 	8.1428791e-06 	2.1912571e-07 	0 	8.1430143e-06 	0 	8.1429469e-06
3.035 	3.9320536e-06 	1.6940189e-08 	0 	3.9320591e-06 	0 	3.9320563e-06
3.036 	6.6666667e-11 	0 	0 	6.6666667e-11 	0 	6.6666667e-11
