0.44871388 	6.6666667e-11 	0 	0 	6.6666667e-11 	0 	6.6666667e-11
0.4499796 	1.6411947e-06 	-1.2635499e-09 	6.4395736e-25 	1.6315995e-06 	-8.3618281e-25 	1.6363978e-06
0.4513086 	7.9858673e-06 	-2.4928143e-08 	-4.9214538e-25 	7.8010745e-06 	2.2824971e-24 	7.8934759e-06
0.45270406 	3.4232013e-05 	-2.2419898e-07 	-4.0018139e-23 	3.2606062e-05 	6.1652414e-23 	3.341905e-05
0.4541693 	0.00010361248 	-1.1959425e-06 	-1.5438168e-22 	9.513336e-05 	2.307379e-22 	9.9373017e-05
0.45570782 	0.00025123019 	-4.5461463e-06 	-5.5487212e-22 	0.00021977832 	6.9478303e-22 	0.00023550485
0.45732326 	0.00052258277 	-1.3507702e-05 	-2.874291e-21 	0.00043171643 	3.1419611e-21 	0.00047715106
0.45901949 	0.00096311616 	-3.2812367e-05 	2.4913444e-21 	0.0007498899 	-8.4000101e-21 	0.00085650228
0.46080054 	0.0015933905 	-6.669501e-05 	1.5199558e-20 	0.0011792423 	-1.607825e-20 	0.0013863025
0.46267065 	0.0023837379 	-0.00011581483 	7.0591494e-21 	0.0017074038 	-1.8252822e-20 	0.0020455336
0.46463429 	0.0032600121 	-0.00017679257 	2.560148e-20 	0.0023086007 	9.8073221e-21 	0.0027842577
0.46669612 	0.0041432612 	-0.00024565 	-2.9676967e-20 	0.0029515975 	1.2253797e-20 	0.0035474003
0.46886105 	0.0049833453 	-0.00032094026 	3.7616168e-20 	0.0036075353 	4.8262082e-20 	0.0042954508
0.47113425 	0.0057619963 	-0.00040361685 	-1.4340777e-19 	0.0042553208 	1.03715e-19 	0.0050087021
0.47352113 	0.0064795843 	-0.000495439 	-1.4692004e-19 	0.0048829838 	-8.7068703e-20 	0.0056813371
0.47602738 	0.0071435184 	-0.00059798118 	1.0483184e-19 	0.0054857552 	-2.7094982e-19 	0.0063146636
0.47865895 	0.0077624078 	-0.0007123433 	2.9842943e-19 	0.0060631866 	-1.4377097e-20 	0.0069128085
0.48142214 	0.0083438257 	-0.00083902833 	1.9503064e-19 	0.0066167054 	2.8871345e-19 	0.0074805821
0.48432351 	0.0088937529 	-0.00097795402 	-1.7748541e-19 	0.0071481474 	2.5132313e-19 	0.0080225855
0.48736998 	0.0094600692 	-0.0011439874 	-3.5233746e-19 	0.0076269163 	-1.4389364e-19 	0.0085429115
0.49056881 	0.009970095 	-0.0013222896 	-7.2889136e-20 	0.0082227167 	-2.6690884e-19 	0.0090928684
0.49516823 	0.010536961 	-0.0015464717 	2.2732391e-19 	0.0088736018 	-5.6455365e-20 	0.0097054075
0.50008546 	0.011207461 	-0.0018353375 	3.0326723e-19 	0.0094690577 	3.5555179e-19 	0.010340274
0.50534257 	0.011817488 	-0.0021458278 	-3.871864e-19 	0.010099352 	4.6981641e-20 	0.010958689
0.51096312 	0.012409049 	-0.0024846248 	-3.1509516e-19 	0.010720321 	-3.5456657e-19 	0.011564639
0.51697235 	0.012985736 	-0.0028534842 	3.2976983e-19 	0.01133714 	4.56191e-20 	0.012161438
0.52339723 	0.013549892 	-0.0032532981 	-4.2775459e-20 	0.011953722 	5.6027731e-20 	0.012751866
0.53026661 	0.014103079 	-0.0036844708 	1.0170652e-22 	0.012573331 	1.3777037e-22 	0.013338278
0.53761133 	0.01464633 	-0.0041470398 	-2.9444729e-20 	0.013198871 	4.6533496e-20 	0.013922679
0.54546439 	0.015180303 	-0.0046407083 	-2.9297011e-19 	0.013833038 	-2.360634e-19 	0.014506779
0.55251619 	0.015621243 	-0.0050807705 	2.6189385e-19 	0.014374918 	1.3116902e-19 	0.014998273
0.55386099 	0.015705371 	-0.0051648025 	3.6848035e-19 	0.014478262 	2.0189316e-19 	0.015092025
0.56283849 	0.016221856 	-0.0057185349 	8.7058617e-19 	0.015136864 	9.199607e-19 	0.015679605
0.57243762 	0.016730004 	-0.0063007091 	-4.082932e-19 	0.015812569 	-1.6109707e-19 	0.016270542
0.58270149 	0.017229609 	-0.0069090332 	-5.7950891e-19 	0.016507541 	-7.5589415e-19 	0.016865565
0.5936762 	0.017721591 	-0.0075369736 	5.0314931e-19 	0.017211171 	1.98045e-19 	0.017465176
0.60541103 	0.018229176 	-0.0081536028 	-5.762404e-19 	0.017900181 	-1.1007329e-19 	0.018071039
0.61795868 	0.018803499 	-0.0086446057 	-9.3955399e-19 	0.018562702 	-6.250795e-19 	0.018690421
0.63137545 	0.019468088 	-0.0089900801 	5.6101564e-19 	0.019204839 	9.3121947e-20 	0.019335871
0.64572153 	0.02019475 	-0.0093056332 	4.5642214e-19 	0.019844809 	3.0108349e-19 	0.020015935
0.66106124 	0.02095406 	-0.0096373589 	-1.0289659e-19 	0.020510777 	1.3719924e-19 	0.020731357
0.67746331 	0.021736327 	-0.009984291 	-8.6593497e-19 	0.021220938 	-3.1282956e-19 	0.021479302
0.69500119 	0.022533819 	-0.010344588 	-2.8837073e-19 	0.021975607 	-3.3180905e-19 	0.022255384
0.71375333 	0.023335674 	-0.010715475 	7.8863008e-19 	0.022770041 	2.2813433e-19 	0.023053387
0.73380355 	0.024129626 	-0.01109312 	2.7972594e-19 	0.023599307 	2.0238879e-19 	0.023864994
0.75524136 	0.024901695 	-0.011472489 	4.6937855e-20 	0.024456444 	6.2069508e-20 	0.024679605
0.77816234 	0.025635875 	-0.01184722 	5.6391688e-20 	0.025331403 	3.6674588e-20 	0.025484151
0.80266856 	0.026314304 	-0.012209542 	2.8836143e-20 	0.026210746 	-8.8451354e-21 	0.026262981
0.82886898 	0.026917577 	-0.012550262 	2.8118187e-19 	0.027077365 	3.3273909e-20 	0.026997819
0.85687988 	0.027425182 	-0.01285886 	3.961509e-19 	0.027910155 	1.6214782e-19 	0.027667874
0.88682537 	0.027816192 	-0.013123685 	-1.0237586e-19 	0.02868362 	5.0021816e-20 	0.028250071
0.91883784 	0.0280689 	-0.013331619 	-3.420611e-19 	0.029366775 	-1.2302919e-19 	0.028718011
0.95305852 	0.0281559 	-0.013466157 	6.3872302e-20 	0.029919343 	-7.26066e-20 	0.029037592
0.989638 	0.028061367 	-0.013516515 	3.9109255e-19 	0.030312501 	1.1801348e-19 	0.029186556
1.0287368 	0.027785944 	-0.013479943 	-3.9776399e-19 	0.030533725 	-3.1691917e-20 	0.029159298
1.0705262 	0.027318579 	-0.013347725 	-3.9518382e-19 	0.030554989 	-1.1199241e-19 	0.028936362
1.1151883 	0.026649354 	-0.013111342 	-8.2052164e-20 	0.030346108 	-1.6818487e-20 	0.028497459
1.1629175 	0.025776299 	-0.012766575 	-2.4358076e-19 	0.029885211 	-5.7471494e-20 	0.0278306
1.2139207 	0.024709459 	-0.012316273 	4.362437e-19 	0.029168578 	7.3342356e-20 	0.026938988
1.268418 	0.023471819 	-0.0117709 	-3.9581139e-19 	0.028214151 	-2.2628775e-20 	0.025843094
1.3266437 	0.022094117 	-0.011145798 	-2.4149187e-19 	0.027056287 	-6.5383276e-20 	0.024575436
1.3888472 	0.020617109 	-0.010461881 	3.9382329e-19 	0.025746886 	3.5594107e-20 	0.023182356
1.4552937 	0.019088685 	-0.0097436035 	5.1483171e-19 	0.024349017 	6.0745599e-20 	0.02171928
1.5262649 	0.017558496 	-0.0090152807 	1.9372736e-19 	0.022926357 	4.5382938e-20 	0.020241735
1.6020605 	0.016068253 	-0.0082978198 	-6.4117268e-19 	0.021519972 	-5.728284e-20 	0.01879375
1.6829987 	0.014664879 	-0.0076113468 	1.4308623e-19 	0.020123268 	-9.3277933e-21 	0.017396893
1.7694175 	0.013396096 	-0.0069750314 	-8.5429327e-20 	0.018728578 	-5.9092266e-21 	0.016063991
1.8556042 	0.012260449 	-0.0063970549 	-1.5496517e-19 	0.017412151 	-5.5730471e-21 	0.014834498
1.935909 	0.011216809 	-0.0058672758 	-9.6455997e-21 	0.01626314 	6.0902808e-21 	0.013738729
1.9371432 	0.011200906 	-0.0058591867 	-8.9845764e-21 	0.01624704 	5.7937032e-21 	0.013722754
2.0107552 	0.010253667 	-0.00537644 	2.2384493e-20 	0.015285039 	-1.2365989e-20 	0.012769743
2.0805291 	0.0093872696 	-0.0049261691 	9.9730234e-19 	0.014445022 	5.1816612e-20 	0.011915965
2.1455887 	0.0086614391 	-0.0044541166 	-1.0344981e-19 	0.013665449 	2.2720229e-20 	0.011163455
2.2062651 	0.0080900334 	-0.0039396118 	-8.1439816e-19 	0.012879769 	-4.3106234e-20 	0.010486272
2.2628641 	0.0076151859 	-0.0034588744 	2.7330488e-19 	0.012104998 	-1.7532899e-21 	0.0098602593
2.315669 	0.0071947539 	-0.0030195242 	4.4640273e-20 	0.011356806 	1.2542012e-20 	0.009275276
2.364942 	0.0068130287 	-0.0026025185 	-3.6542736e-19 	0.010644759 	-1.3281059e-20 	0.0087289233
2.4109263 	0.0064634678 	-0.0022053131 	6.6207879e-20 	0.0099771842 	-7.771276e-21 	0.0082203712
2.4538472 	0.0061444684 	-0.0018255226 	2.3347981e-19 	0.0093532957 	1.0024958e-20 	0.0077489103
2.4939141 	0.0058539859 	-0.001463658 	-5.3587827e-20 	0.0087734406 	-1.192445e-22 	0.0073137173
2.5313213 	0.0055906481 	-0.0011199508 	1.1228556e-19 	0.0082374424 	-6.3358923e-21 	0.0069140431
2.5662493 	0.0053534723 	-0.00079445247 	3.5045654e-19 	0.0077450817 	1.5951636e-20 	0.0065492715
2.5988659 	0.0051418389 	-0.00048699015 	-2.0584122e-19 	0.0072961448 	1.2830729e-20 	0.006218986
2.6293272 	0.0049554729 	-0.00019718041 	-4.459735e-19 	0.0068905858 	-1.4635467e-20 	0.005923023
2.6577781 	0.004794428 	7.5545028e-05 	-6.0768907e-21 	0.0065285843 	-1.2885744e-20 	0.0056614995
2.6843538 	0.0046590943 	0.00033186004 	1.2339235e-19 	0.0062105333 	1.3847891e-21 	0.0054348051
2.7091799 	0.0045501442 	0.00057251035 	3.9006138e-20 	0.005936967 	2.5546976e-21 	0.0052435456
2.7323735 	0.0044684466 	0.00079828078 	3.5721397e-20 	0.0057084268 	-7.8899555e-22 	0.005088427
2.7540435 	0.0044148995 	0.0010099034 	7.3184987e-20 	0.0055252678 	2.3543246e-21 	0.0049700703
2.7742916 	0.0043904696 	0.0012080729 	8.1048555e-22 	0.0053877092 	3.9851241e-21 	0.0048890736
2.7932122 	0.0043958356 	0.0013935457 	-4.8556994e-20 	0.0052954505 	1.2464088e-21 	0.0048456334
2.8108936 	0.0044292196 	0.0015665837 	-4.8140132e-20 	0.0052452108 	-3.8712216e-21 	0.0048372077
2.827418 	0.004488363 	0.0017273537 	3.0725653e-20 	0.0052331591 	-1.8172417e-21 	0.0048607516
2.842862 	0.0045711195 	0.0018760612 	1.3463215e-20 	0.0052556768 	3.1052764e-21 	0.0049133907
2.8572971 	0.0046733374 	0.0020124836 	-3.3661461e-20 	0.005306948 	9.08879e-23 	0.0049901383
2.8707898 	0.0047899334 	0.0021363202 	-1.6052523e-21 	0.0053802654 	-2.5595461e-21 	0.005085097
2.8834025 	0.0049152844 	0.0022472174 	1.8882581e-20 	0.0054684687 	9.2428798e-22 	0.0051918755
2.8951931 	0.0050436754 	0.0023448725 	-1.1437805e-20 	0.005564441 	3.5639715e-22 	0.0053040583
2.9062157 	0.005169761 	0.0024291417 	6.2498579e-21 	0.0056615912 	-1.5978572e-21 	0.005415677
2.9165208 	0.005288825 	0.0025000898 	1.5780564e-20 	0.0057541131 	1.3283394e-21 	0.0055214705
2.9261556 	0.005397023 	0.0025580464 	-1.0623586e-20 	0.0058372274 	1.5671998e-21 	0.0056171271
2.935164 	0.0054915077 	0.0026036304 	-1.077463e-20 	0.0059073107 	-7.6400165e-22 	0.0056994117
2.9435872 	0.0055703022 	0.0026376934 	-3.9274142e-22 	0.0059617639 	-1.1782902e-21 	0.005766036
2.9514635 	0.0056321667 	0.0026612728 	6.1463463e-21 	0.0059988852 	4.5494196e-22 	0.0058155295
2.9588287 	0.0056763406 	0.0026754707 	-4.417445e-21 	0.006017609 	3.9078914e-22 	0.0058469798
2.9657163 	0.005702403 	0.0026813852 	-3.4227341e-22 	0.006017377 	-9.5632369e-22 	0.005859895
2.9721574 	0.0057099248 	0.0026795334 	6.0465813e-21 	0.0059977546 	-4.6148723e-23 	0.005853846
2.9781812 	0.0056982076 	0.0026683932 	9.1679513e-22 	0.0059580197 	6.7266533e-22 	0.0058281108
2.983815 	0.0056662336 	0.0026472319 	-1.284093e-21 	0.0058973898 	3.0974202e-22 	0.0057817938
2.9890841 	0.0056124814 	0.0026180889 	-1.7873432e-21 	0.005814813 	-9.6658086e-23 	0.0057136569
2.9940125 	0.0055343775 	0.0025812337 	-4.6121257e-22 	0.0057076731 	-3.6741193e-22 	0.0056213494
2.9986222 	0.0054274245 	0.0025354898 	1.1184992e-21 	0.0055733106 	-3.7478528e-23 	0.005500582
3.002934 	0.0052985134 	0.0024768539 	6.9898498e-23 	0.0054214627 	1.3513483e-22 	0.0053596275
3.005461 	0.0051708879 	0.0024208777 	0 	0.0052754192 	1.1210615e-23 	0.0052228692
3.0078676 	0.0050388963 	0.0023632792 	0 	0.0051275167 	0 	0.0050832066
3.0101596 	0.0048802387 	0.0022862399 	0 	0.0049542336 	0 	0.0049172507
3.0123425 	0.0046883189 	0.0021939991 	0 	0.0047490638 	0 	0.0047186916
3.0144214 	0.0044560502 	0.0020832999 	0 	0.0045049827 	0 	0.0044805146
3.0164014 	0.0041761693 	0.0019507939 	0 	0.0042147528 	0 	0.0041954599
3.018287 	0.0038420336 	0.0017933806 	0 	0.0038716959 	0 	0.003856865
3.0200829 	0.0034489036 	0.0016088416 	0 	0.0034710088 	0 	0.0034599566
3.0217932 	0.0029951966 	0.0013899049 	0 	0.0030109732 	0 	0.0030030845
3.0234221 	0.0024854604 	0.0011264677 	0 	0.002495988 	0 	0.0024907242
3.0249734 	0.0019391093 	0.00083333356 	0 	0.0019455103 	0 	0.0019423093
3.0264509 	0.0013964756 	0.00054749157 	0 	0.0013999371 	0 	0.0013982056
3.027858 	0.00091114434 	0.00030779926 	0 	0.0009127504 	0 	0.00091194712
3.0291981 	0.00052914645 	0.00014277102 	0 	0.00052976113 	0 	0.00052945379
3.0304744 	0.00026814396 	5.2642193e-05 	0 	0.00026832944 	0 	0.00026823673
3.0316899 	0.00011478145 	1.469896e-05 	0 	0.00011482295 	0 	0.00011480221
3.0328475 	3.9032437e-05 	2.8583728e-06 	0 	3.9038645e-05 	0 	3.9035543e-05
3.03395 	9.9150681e-06 	3.3553255e-07 	0 	9.915582e-06 	0 	9.9153258e-06
3.035 	6.3361501e-06 	3.1926128e-08 	0 	6.3361736e-06 	0 	6.3361619e-06
3.036 	6.6666667e-11 	0 	0 	6.6666667e-11 	0 	6.6666667e-11
