/*--------------------------------*- C++ -*----------------------------------*\
| =========                 |                                                 |
| \\      /  F ield         | OpenFOAM: The Open Source CFD Toolbox           |
|  \\    /   O peration     | Version:  2.4.0                                 |
|   \\  /    A nd           | Web:      www.OpenFOAM.org                      |
|    \\/     M anipulation  |                                                 |
\*---------------------------------------------------------------------------*/
FoamFile
{
    version     2.0;
    format      ascii;
    class       volVectorField;
    location    "20";
    object      U;
}
// * * * * * * * * * * * * * * * * * * * * * * * * * * * * * * * * * * * * * //

dimensions      [0 1 -1 0 0 0 0];

internalField   nonuniform List<vector> 
19477
(
(1.0542762 0.14588169 -6.3222966e-22)
(1.0230366 0.14147372 -8.9120443e-22)
(1.0302753 0.13715552 -8.4516925e-23)
(1.0427964 0.13310293 -2.2864297e-21)
(1.0439908 0.12938905 -4.2644998e-21)
(1.0456519 0.12589529 -9.0233487e-21)
(1.048172 0.12265912 8.7692409e-21)
(1.0505232 0.11970516 -3.3871681e-21)
(1.0528078 0.11702575 1.420186e-20)
(1.0551051 0.11461093 8.3431046e-21)
(1.0573912 0.11242886 7.7765093e-21)
(1.0596423 0.11044388 -1.9038335e-20)
(1.0618474 0.10862466 -2.5759729e-21)
(1.0640044 0.10694215 2.4847215e-21)
(1.066114 0.10536225 -1.9001522e-20)
(1.0681659 0.10384207 -2.3173992e-21)
(1.0701257 0.10232344 -6.0014091e-22)
(1.071917 0.10072791 -1.9741975e-21)
(1.0734025 0.098955479 -9.1170469e-22)
(1.0743701 0.0968883 3.683205e-22)
(1.0745277 0.094398777 -2.5835975e-22)
(1.0735107 0.091361245 2.2461178e-21)
(1.0708993 0.087664531 4.8710562e-21)
(1.0662514 0.083225432 -7.9548387e-21)
(1.0591134 0.077986937 4.2135627e-21)
(1.0490359 0.071923173 9.996806e-22)
(1.0355843 0.065052823 -8.1442613e-21)
(1.0183568 0.057452736 4.9549348e-21)
(0.99700047 0.049274587 9.6807667e-21)
(0.97123109 0.040754213 -5.186881e-21)
(0.94085003 0.032219305 6.3647986e-21)
(0.90575885 0.02407037 2.0387065e-21)
(0.86597172 0.016753823 2.0952958e-21)
(0.82164096 0.010705533 -2.0726389e-20)
(0.7729914 0.006314698 -1.5005324e-20)
(0.72036108 0.0038621165 1.2361732e-20)
(0.77209327 0.27009693 -1.0360587e-19)
(0.78195674 0.27255778 -7.0171229e-21)
(0.79209063 0.27456577 -1.9089807e-19)
(0.80246685 0.27607727 -1.4302159e-19)
(0.81304917 0.27704969 1.1148233e-19)
(0.82379302 0.27744316 -1.2216787e-19)
(0.83464539 0.27722257 -1.3284722e-19)
(0.845545 0.27635935 3.2181975e-20)
(0.85642327 0.27483367 -1.0540799e-19)
(0.86720587 0.2726366 6.8064856e-20)
(0.87781575 0.26977426 4.913431e-20)
(0.88818243 0.26628203 -2.5188264e-20)
(0.89824408 0.26221113 1.5519275e-20)
(0.90795095 0.25762041 -1.0579816e-20)
(0.91726604 0.25257451 1.7077221e-20)
(0.92616372 0.24714222 1.1404602e-20)
(0.93463025 0.2413945 1.004312e-21)
(0.9426642 0.23540275 -4.4853374e-22)
(0.95027632 0.22923789 -1.1010209e-24)
(0.9574897 0.22297079 2.0849397e-20)
(0.96434244 0.21666622 4.424241e-20)
(0.97087777 0.21039303 -4.8851123e-20)
(0.97715205 0.20421415 3.800089e-20)
(0.98322608 0.1981946 -4.4238302e-20)
(0.98915514 0.1923815 -8.7892085e-20)
(0.99496189 0.1867748 -2.2071474e-20)
(1.0006229 0.18133459 -2.0240025e-20)
(1.006078 0.17603205 -4.1085952e-21)
(1.0112994 0.17083517 1.6044947e-20)
(1.0162255 0.16571888 -3.0354535e-21)
(1.0208164 0.16065332 -1.25905e-21)
(1.0251611 0.15566606 -7.0095101e-22)
(1.0069397 0.15065317 -1.1788375e-21)
(1.0518967 0.14406838 4.823768e-22)
(1.0206547 0.13982089 1.2327381e-22)
(1.0278883 0.13565669 5.2774885e-22)
(1.0406024 0.13173826 1.694781e-21)
(1.0419163 0.12813753 6.4724226e-21)
(1.0436509 0.12474463 4.3543874e-21)
(1.0462614 0.12159618 1.765397e-21)
(1.0487034 0.11871744 -7.4156956e-21)
(1.0510708 0.11610222 -4.6482466e-20)
(1.0534454 0.1137411 -2.3253816e-20)
(1.0558036 0.11160237 -3.9679669e-21)
(1.0581211 0.10965047 1.4391528e-20)
(1.060386 0.10785474 4.3827861e-21)
(1.0625961 0.10618797 1.6208318e-20)
(1.0647536 0.10462026 6.923014e-22)
(1.0668549 0.10311641 -3.8789941e-21)
(1.0688817 0.10163043 -6.0263081e-21)
(1.0707866 0.10010043 -3.1057064e-23)
(1.0724776 0.098446091 -5.9425757e-24)
(1.0738036 0.09656976 7.8228928e-22)
(1.074545 0.094361548 1.0932441e-21)
(1.0744146 0.091708338 -2.995892e-22)
(1.0730649 0.088504951 -1.8802979e-21)
(1.0701124 0.084667851 5.3606404e-21)
(1.0651481 0.080137265 -4.4474442e-22)
(1.0577531 0.074881924 -7.5863631e-22)
(1.0475109 0.068910669 1.0277005e-20)
(1.0340241 0.062284201 1.3905185e-21)
(1.0169318 0.055128625 8.3891422e-22)
(0.99592969 0.047642109 4.4761222e-22)
(0.97079034 0.040103619 1.1009146e-21)
(0.9413784 0.032854441 -2.6815051e-22)
(0.90766267 0.026287519 -1.523694e-21)
(0.86970138 0.020797991 1.5273419e-20)
(0.82767801 0.016757677 7.6250073e-21)
(0.78174619 0.014442561 1.5852365e-20)
(0.73216191 0.014061003 -1.9180052e-21)
(0.67925233 0.015683134 -3.351581e-20)
(0.62311683 0.019399863 2.6028942e-20)
(0.56464221 0.025827286 4.1218625e-20)
(0.50746245 0.036231337 9.4652093e-20)
(0.45708531 0.052063243 -1.3001004e-20)
(0.41687814 0.073811226 3.5021212e-20)
(0.77683922 0.26466722 1.0883605e-19)
(0.78648843 0.26688315 1.3002014e-19)
(0.79638147 0.26865454 4.232973e-20)
(0.80648933 0.26994188 1.9604302e-19)
(0.81677556 0.2707072 -1.3996205e-19)
(0.82719622 0.2709156 1.315045e-19)
(0.8377 0.27053715 1.1901883e-19)
(0.84822844 0.26954844 6.7065418e-20)
(0.85871707 0.26793441 8.7427328e-20)
(0.86909681 0.26569023 -1.3247953e-19)
(0.87929694 0.26282491 -4.2232999e-20)
(0.88925392 0.25937454 4.9049932e-20)
(0.89891304 0.25538925 6.0726144e-21)
(0.90823123 0.25092552 -1.9453258e-20)
(0.91717725 0.24604441 -6.2971315e-21)
(0.92573023 0.24081016 -3.9252215e-22)
(0.93388004 0.23528852 3.564782e-21)
(0.94162752 0.22954525 1.2151771e-21)
(0.9489844 0.22364556 2.2202597e-20)
(0.95597345 0.21765471 2.8954613e-22)
(0.96263119 0.21163253 -3.4041967e-20)
(0.96899849 0.20564317 8.4039341e-21)
(0.97512842 0.19974587 -4.7757371e-20)
(0.98107813 0.19400254 2.5729294e-20)
(0.98689929 0.18845848 4.1614903e-20)
(0.99261228 0.18311381 1.3664315e-20)
(0.99819444 0.17793001 3.72464e-20)
(1.0035873 0.17287835 4.8730924e-21)
(1.0087671 0.16792674 -6.7095107e-21)
(1.0136623 0.16304899 4.6282597e-21)
(1.0182751 0.15821522 -3.6818137e-22)
(1.0225564 0.15344766 -2.864331e-22)
(1.0043256 0.14864667 -1.1587615e-21)
(1.0495201 0.14215168 1.08437e-23)
(1.01827 0.13806702 1.5132659e-21)
(1.0254928 0.13405798 -4.955765e-22)
(1.0383917 0.13027472 5.444718e-22)
(1.0398186 0.12678883 -2.0857465e-22)
(1.0416209 0.12349897 -2.0657827e-21)
(1.0443158 0.12044101 -3.8119338e-20)
(1.0468434 0.11764072 -9.8501544e-22)
(1.0492887 0.11509341 3.5939582e-20)
(1.0517362 0.11279024 -1.2031531e-20)
(1.0541626 0.1106997 -7.367151e-21)
(1.0565428 0.10878645 5.3506951e-22)
(1.0588647 0.1070204 -2.1615879e-20)
(1.0611251 0.10537573 -1.3240179e-20)
(1.0633266 0.10382555 2.6819917e-20)
(1.0654689 0.10234031 -8.9114055e-22)
(1.0675433 0.10088327 -5.6203116e-21)
(1.0695218 0.099405874 -5.7643091e-22)
(1.0713448 0.097844695 2.4851164e-21)
(1.0729077 0.096121008 3.9040209e-22)
(1.0740506 0.09414346 -3.5669479e-22)
(1.0745539 0.091814509 -3.9564513e-22)
(1.0741399 0.089039548 8.6052305e-22)
(1.0724876 0.085739608 2.3801571e-21)
(1.0692418 0.081855856 4.8502896e-21)
(1.0640268 0.077354044 -8.8178553e-21)
(1.0564581 0.072234671 2.3098877e-21)
(1.0461579 0.066543331 -1.9588805e-21)
(1.0327725 0.060381922 -5.4771233e-21)
(1.015991 0.053914927 2.1474682e-21)
(0.99556584 0.04737454 -1.3777063e-21)
(0.97132743 0.041049628 3.6642224e-22)
(0.94320221 0.035274149 -5.1070655e-21)
(0.91120043 0.030401741 8.370505e-22)
(0.87542254 0.02676211 5.4295948e-21)
(0.83604014 0.024656397 -2.0832545e-20)
(0.79315923 0.024286557 -2.1328961e-20)
(0.7470291 0.025802439 4.308284e-20)
(0.69791118 0.029260736 -3.9159406e-20)
(0.64595741 0.034689556 2.5674081e-20)
(0.59222649 0.042664971 -4.2162162e-20)
(0.5405671 0.054366777 8.1948019e-21)
(0.49613936 0.070597858 -3.9803983e-20)
(0.78146315 0.25907507 -2.6963994e-20)
(0.79088834 0.26105729 -1.1188696e-19)
(0.80053191 0.26260512 6.9712905e-20)
(0.81036434 0.26368306 -6.7074151e-20)
(0.82034935 0.26425752 2.5623341e-20)
(0.83044406 0.26429828 -1.8746451e-19)
(0.84059916 0.26378013 -1.1322492e-19)
(0.85075929 0.26268424 -7.7736431e-21)
(0.86086415 0.26099972 4.6401002e-20)
(0.87084989 0.25872515 1.6894973e-20)
(0.88065186 0.25587181 -5.5681619e-20)
(0.89021301 0.25247588 5.133386e-21)
(0.89948519 0.24858604 3.131628e-20)
(0.9084313 0.24425614 -4.3034542e-21)
(0.91702517 0.2395436 -7.7912378e-21)
(0.92525004 0.23450823 2.1927237e-21)
(0.93309879 0.22921081 -2.7916555e-21)
(0.94057408 0.22371185 -8.2289422e-24)
(0.94768829 0.2180713 -9.2172792e-21)
(0.95446371 0.21234927 1.0674613e-21)
(0.96093518 0.20660107 -1.1591187e-20)
(0.96714131 0.20088661 2.6086211e-20)
(0.97313206 0.19526171 4.4874578e-20)
(0.97896107 0.18978539 -4.3820872e-21)
(0.98467663 0.18450126 5.1007269e-21)
(0.99029704 0.17940961 3.6718993e-20)
(0.99580042 0.17447342 -1.9942951e-20)
(1.00113 0.16966415 5.5471222e-21)
(1.0062657 0.16494972 1.7422698e-21)
(1.0111268 0.16030305 -6.950874e-22)
(1.0157565 0.15569425 8.5788163e-22)
(1.01997 0.15114069 -1.2600096e-22)
(1.0017239 0.14654617 1.4639465e-21)
(1.0471486 0.14013829 -7.2475332e-23)
(1.0158851 0.13621535 -5.0236155e-22)
(1.0230908 0.13236034 4.5696686e-22)
(1.0361659 0.12871214 -1.1120311e-21)
(1.0376998 0.12534205 -5.5197036e-21)
(1.039564 0.12215687 -5.2820854e-21)
(1.0423374 0.11919169 2.7932188e-20)
(1.0449453 0.11647274 -7.2970685e-22)
(1.0474639 0.11399669 1.4036104e-21)
(1.0499799 0.1117553 3.7626611e-20)
(1.0524705 0.10971739 1.4273862e-20)
(1.0549103 0.10784793 -3.9699712e-20)
(1.0572865 0.10611739 8.5547603e-21)
(1.0595951 0.10450105 2.8552184e-20)
(1.0618382 0.10297429 -6.489408e-21)
(1.0640171 0.1015117 2.1003657e-21)
(1.0661281 0.10008352 2.2965832e-22)
(1.0681557 0.098651582 -1.8027537e-21)
(1.0700622 0.097166409 -3.9425187e-21)
(1.0717775 0.095565936 7.1657922e-22)
(1.0731881 0.09377656 2.5505215e-21)
(1.0741312 0.09171737 -8.824303e-22)
(1.0743917 0.089307102 3.7063352e-22)
(1.0737101 0.086475118 -1.5325194e-21)
(1.0717889 0.083167006 -2.3107573e-21)
(1.0683034 0.079348501 3.5919743e-21)
(1.0629113 0.075014291 -8.0400769e-21)
(1.0552665 0.070197191 1.2176934e-21)
(1.0450355 0.064977409 4.7138819e-22)
(1.0319146 0.059488739 -2.8252914e-21)
(1.0156489 0.05392193 3.7809671e-22)
(0.99604711 0.048518384 9.103332e-22)
(0.97299657 0.043558901 3.6251195e-21)
(0.94646619 0.039346457 -6.0052954e-22)
(0.91649634 0.036178009 -6.4910976e-21)
(0.88320944 0.034324554 -1.1784462e-20)
(0.84674467 0.034012789 1.4226012e-20)
(0.80723554 0.035407669 -1.789009e-20)
(0.76494113 0.03861159 -1.2248268e-21)
(0.72006036 0.043587413 -1.1171091e-20)
(0.67280771 0.050321176 -2.3128643e-20)
(0.62429857 0.059281514 2.1651493e-20)
(0.57821484 0.071419219 2.59652e-20)
(0.78595492 0.25332829 5.7072027e-20)
(0.79514757 0.25508889 2.1255934e-20)
(0.80453444 0.25642693 -5.4823142e-20)
(0.81408589 0.25731072 -9.0992223e-20)
(0.8237662 0.25771082 -1.3023997e-20)
(0.83353385 0.2576013 1.8644003e-19)
(0.84334183 0.25696123 6.003754e-20)
(0.85313803 0.25577582 -4.6684839e-20)
(0.86286635 0.25403774 -1.5493134e-20)
(0.87246805 0.25174838 5.1998847e-20)
(0.88188425 0.24892066 8.5943155e-20)
(0.89106395 0.2455904 9.1080725e-21)
(0.89996496 0.24180453 -4.5588067e-20)
(0.90855548 0.23761407 3.2240898e-20)
(0.9168138 0.23307283 1.2664398e-21)
(0.92472666 0.22823633 -5.5457529e-21)
(0.93228942 0.22316064 -5.9841105e-21)
(0.9395062 0.21790141 -7.5560932e-22)
(0.94638972 0.21251372 1.9850725e-21)
(0.95296167 0.20705301 -6.5158162e-21)
(0.95925521 0.20157046 1.6879421e-20)
(0.96530672 0.19612208 -3.1782608e-20)
(0.97116319 0.19076055 -4.617415e-20)
(0.97687497 0.18554223 5.191824e-20)
(0.98248717 0.18050913 -6.0337852e-21)
(0.98801619 0.17566168 -2.7336874e-20)
(0.9934409 0.17096456 7.2502257e-21)
(0.99870616 0.16638941 1.9154723e-21)
(1.0037956 0.1619042 -4.2045572e-21)
(1.0086197 0.15748116 2.9907606e-21)
(1.0132614 0.15309047 -1.2666492e-25)
(1.017403 0.14874507 -1.2879148e-21)
(0.99913579 0.14435205 3.3978818e-22)
(1.0447835 0.13802826 -3.094824e-23)
(1.0135011 0.13426439 -2.2111342e-22)
(1.0206839 0.13056201 4.6459221e-23)
(1.033927 0.12704883 6.8447965e-22)
(1.0355618 0.12379549 -3.9756323e-22)
(1.0374821 0.12071647 -5.1272227e-22)
(1.0403284 0.11784616 -4.9249405e-21)
(1.0430116 0.11521113 -3.6023265e-21)
(1.0455987 0.11280934 5.3292208e-21)
(1.0481791 0.11063322 -2.5735163e-20)
(1.0507301 0.10865196 -1.3425159e-20)
(1.0532263 0.10683095 3.1702796e-20)
(1.0556543 0.10514127 5.2489288e-21)
(1.0580093 0.10355914 -4.3285119e-20)
(1.0602928 0.10206173 4.9106354e-21)
(1.0625061 0.10062675 -6.3026591e-21)
(1.0646483 0.099229647 1.9870197e-20)
(1.0667112 0.097840248 9.9835628e-21)
(1.0686716 0.09642019 3.6410786e-21)
(1.0704834 0.09492141 -7.7485929e-21)
(1.0720681 0.09328621 -8.3157269e-21)
(1.0733082 0.091449813 9.3753952e-22)
(1.0740421 0.089345362 -1.7563621e-21)
(1.0740665 0.086912907 9.6587599e-23)
(1.0731408 0.084105176 1.3602652e-21)
(1.0709944 0.080890726 -1.580483e-22)
(1.0673334 0.077261377 2.2951513e-21)
(1.0618521 0.073240208 -3.4541803e-21)
(1.0542478 0.068889268 -1.3952605e-24)
(1.0442353 0.064315389 2.7262675e-21)
(1.0315651 0.059673071 -5.0585944e-22)
(1.0160369 0.055160837 -1.5005567e-21)
(0.99751303 0.051012973 1.3788956e-21)
(0.97592576 0.04748452 -7.671872e-21)
(0.95127274 0.044832252 7.1179025e-22)
(0.92361204 0.043297009 1.8387398e-20)
(0.89306836 0.043095987 -4.5980119e-21)
(0.85978448 0.044399761 3.671861e-20)
(0.82393587 0.047326988 -2.5424241e-20)
(0.78576986 0.051908478 -1.8292675e-20)
(0.7454481 0.058024992 2.2875534e-20)
(0.70323261 0.065606361 2.0884643e-20)
(0.66021715 0.074964866 -2.4723914e-20)
(0.79030522 0.24743531 -9.2831923e-20)
(0.79925813 0.24898718 6.6297186e-20)
(0.80838255 0.25012974 -1.4203648e-19)
(0.81764903 0.25083495 8.0805194e-20)
(0.82702276 0.25107722 1.444622e-19)
(0.83646389 0.25083455 -1.6626893e-19)
(0.84592786 0.25008982 -9.9498e-20)
(0.85536592 0.24883176 -8.243129e-21)
(0.86472614 0.24705604 -5.1706968e-20)
(0.87395471 0.24476627 -5.6307733e-20)
(0.8829982 0.24197651 -6.2406391e-20)
(0.89181118 0.23872186 -1.9164705e-20)
(0.90035683 0.2350472 3.3599129e-20)
(0.90860808 0.23100066 1.2934145e-20)
(0.91654704 0.22663247 2.1143087e-20)
(0.92416345 0.22199406 1.4290079e-20)
(0.93145472 0.21713706 3.2010968e-21)
(0.93842604 0.21211262 2.2796491e-21)
(0.94509031 0.20697136 -9.7315591e-22)
(0.95146845 0.20176442 1.7339837e-21)
(0.95759198 0.19653924 7.9650645e-21)
(0.96349511 0.19134827 2.29256e-20)
(0.96922201 0.18624128 4.8408729e-20)
(0.97481991 0.18127216 -1.0267135e-21)
(0.9803309 0.17648135 1.8717894e-20)
(0.9857698 0.17186937 1.1766319e-20)
(0.99111613 0.16740279 -1.6969826e-20)
(0.99631621 0.16305354 8.3036673e-21)
(1.0013572 0.15878968 -2.6279384e-21)
(1.0061415 0.15458295 1.221143e-21)
(1.0107906 0.15040361 -2.1223697e-22)
(1.0148563 0.1462606 1.1189776e-21)
(0.99656293 0.1420642 6.1616078e-23)
(1.0424261 0.13582101 1.0188084e-23)
(1.0111197 0.13221382 4.2223475e-22)
(1.0182739 0.12866261 -1.5530986e-21)
(1.031677 0.12528413 1.3935345e-21)
(1.0334066 0.12214807 -4.424988e-21)
(1.0353775 0.11917632 8.5550126e-21)
(1.0382909 0.11640258 2.6081244e-21)
(1.0410443 0.11385367 -5.9107528e-21)
(1.0436955 0.11152878 -3.1848728e-20)
(1.046336 0.10942096 -1.8158038e-20)
(1.0489439 0.10749991 4.3398372e-20)
(1.0514934 0.10573151 -1.5364011e-20)
(1.0539708 0.1040875 1.4708356e-20)
(1.0563709 0.10254495 1.7132639e-20)
(1.058694 0.10108253 5.7612354e-21)
(1.0609411 0.099680375 -5.8111521e-21)
(1.0631126 0.098317855 -5.8623572e-22)
(1.0652041 0.096970881 -1.1095446e-20)
(1.0672018 0.095609752 6.4760516e-21)
(1.0690756 0.094197733 4.4491977e-21)
(1.0707724 0.092690657 5.9493382e-21)
(1.0722092 0.09103834 -9.8986355e-24)
(1.0732678 0.089187995 -1.0703655e-21)
(1.0737938 0.087091314 6.1926778e-22)
(1.0735989 0.084709834 -3.3482567e-22)
(1.0724652 0.082017159 -1.4254949e-21)
(1.0701495 0.079005005 2.0144851e-21)
(1.0663917 0.075689966 2.204198e-21)
(1.0609267 0.072119932 -9.927237e-22)
(1.0534976 0.068379224 -5.9230786e-22)
(1.0438706 0.064591344 1.4579172e-22)
(1.0318481 0.0609171 1.9991467e-21)
(1.0172809 0.057548725 -1.2873477e-21)
(1.0000763 0.054698961 1.086841e-21)
(0.98019903 0.052584663 -5.5741713e-21)
(0.95766375 0.051415488 -4.6557568e-21)
(0.93254053 0.051382877 -4.0710932e-21)
(0.9049654 0.052656374 -1.7907707e-20)
(0.87509402 0.055350623 6.6094009e-21)
(0.84312402 0.059517519 -2.4326728e-20)
(0.8092665 0.065117007 2.7047145e-20)
(0.77367931 0.071988894 -3.339959e-20)
(0.73664717 0.079969005 -3.3298932e-20)
(0.79450573 0.24140518 -6.3326721e-20)
(0.80321307 0.24276177 1.1017211e-20)
(0.81207076 0.24372355 1.163268e-19)
(0.82104986 0.2442659 -3.0320414e-21)
(0.83011676 0.24436675 -7.4754025e-20)
(0.83923343 0.24400767 1.6141467e-19)
(0.84835795 0.24317488 -2.1323673e-20)
(0.85744494 0.24186014 -1.8729739e-20)
(0.86644657 0.24006159 4.2759028e-20)
(0.87531372 0.23778456 1.8577277e-20)
(0.88399806 0.23504382 6.6352498e-20)
(0.89245927 0.23187341 9.1323585e-21)
(0.90066533 0.22831599 1.7036513e-20)
(0.90859334 0.2244168 -4.6037422e-21)
(0.91622871 0.22022253 -4.6331201e-21)
(0.92356369 0.21578073 -9.3214766e-21)
(0.93059735 0.2111389 5.8756973e-21)
(0.93733569 0.20634402 -1.4585392e-21)
(0.94379156 0.20144262 -1.0587847e-22)
(0.94998509 0.19648192 1.9264618e-21)
(0.95594614 0.19150593 -4.9981588e-21)
(0.96170685 0.18656383 -9.6499683e-21)
(0.9673087 0.18170274 -7.7729791e-21)
(0.97279593 0.17697419 -1.619033e-20)
(0.97820776 0.1724172 2.42971e-20)
(0.98355762 0.16803254 -8.0087539e-21)
(0.98882584 0.16378831 1.337333e-20)
(0.99395997 0.15965689 -8.7142932e-21)
(0.99895064 0.15560658 7.9039801e-21)
(1.0036927 0.15160882 -4.197737e-21)
(1.0083446 0.14763401 -1.2745231e-21)
(1.0123309 0.1436875 1.7752615e-22)
(0.99400639 0.13968267 -4.353462e-22)
(1.0400773 0.13351624 -1.8283946e-23)
(1.0087421 0.13006328 -5.8844518e-22)
(1.0158625 0.12666147 2.406038e-21)
(1.0294175 0.12341705 -3.3179373e-21)
(1.0312361 0.12039852 -3.5707844e-22)
(1.0332521 0.11753486 1.1929015e-20)
(1.0362271 0.11485908 -1.1004644e-20)
(1.0390458 0.11239813 1.1418913e-20)
(1.0417565 0.11015237 2.445772e-20)
(1.0444531 0.1081155 7.3791372e-20)
(1.0471143 0.10625775 2.4654098e-21)
(1.0497141 0.10454561 3.6782247e-20)
(1.0522388 0.10295148 1.0148854e-21)
(1.0546825 0.10145329 5.8734022e-21)
(1.0570448 0.10003099 -9.8765775e-21)
(1.0593261 0.098666683 -5.2486048e-21)
(1.0615268 0.097342762 -8.584636e-21)
(1.063645 0.096039761 8.9180654e-21)
(1.065672 0.094734623 1.2524873e-21)
(1.0675885 0.09339953 -5.2846326e-21)
(1.069359 0.092001353 -2.6503969e-21)
(1.0709258 0.090502388 -1.9970919e-21)
(1.0722043 0.088862609 4.2769581e-22)
(1.0730806 0.087045117 -4.2460712e-21)
(1.0734117 0.085020836 -1.9990458e-21)
(1.0730282 0.082769765 6.1589636e-23)
(1.0717356 0.080285689 -5.0207639e-22)
(1.0693207 0.077581684 -3.6989601e-22)
(1.0655604 0.074695366 4.2614065e-22)
(1.0602322 0.071693251 3.3883868e-22)
(1.0531264 0.068673302 1.2021004e-22)
(1.0440581 0.065764174 -1.5633517e-21)
(1.032878 0.063121103 1.9305913e-21)
(1.0194806 0.060918395 -5.9465438e-22)
(1.0038076 0.059337134 -3.6334705e-21)
(0.98584414 0.058553983 1.0687621e-21)
(0.96561903 0.058736067 4.6101059e-21)
(0.94322558 0.060034255 -2.5760426e-22)
(0.91880084 0.062560989 1.4315274e-20)
(0.89250725 0.066371873 3.0588927e-20)
(0.86453312 0.071457552 -3.6261702e-20)
(0.8350578 0.077717293 1.6173056e-20)
(0.80423644 0.084961209 2.4983564e-20)
(0.79854918 0.23524738 7.8928725e-20)
(0.80700656 0.23642258 -1.8634898e-20)
(0.81559475 0.23721848 -5.1110212e-20)
(0.82428563 0.23761363 -5.4720323e-20)
(0.83304693 0.2375892 -1.8831638e-20)
(0.84184267 0.23712988 -4.507103e-20)
(0.85063363 0.23622486 8.7872261e-21)
(0.85937777 0.23486842 7.1639265e-20)
(0.86803123 0.23306071 3.9065174e-21)
(0.87654931 0.23080834 6.121403e-20)
(0.88488844 0.22812641 -2.9178903e-20)
(0.89301292 0.22504763 4.0933811e-21)
(0.90089503 0.22161238 -6.0726416e-20)
(0.90851548 0.21786295 -2.2911712e-20)
(0.91586254 0.21384269 -2.3994631e-20)
(0.92293053 0.20959542 -6.9167706e-21)
(0.92971986 0.20516483 -1.5377312e-21)
(0.93623709 0.20059404 -9.6612318e-21)
(0.94249491 0.19592583 -3.4904756e-21)
(0.94851257 0.19120384 2.5996344e-21)
(0.9543183 0.18646898 -3.267284e-21)
(0.95994228 0.18176739 4.5875715e-21)
(0.96542341 0.17714375 6.3828289e-21)
(0.9708031 0.1726474 -2.535219e-21)
(0.97611797 0.16831613 -2.906735e-20)
(0.98137906 0.16414989 9.8002193e-21)
(0.98656925 0.16012001 -7.1015606e-21)
(0.99163673 0.15619845 -1.4667693e-20)
(0.99657537 0.15235414 -3.3414936e-21)
(1.0012729 0.14855823 2.761876e-21)
(1.0059236 0.14478131 2.0540598e-22)
(1.009827 0.14102553 -5.696628e-22)
(0.99146703 0.13720726 -3.5137415e-23)
(1.037739 0.13111386 -1.6275685e-23)
(1.0063703 0.12781248 6.6466093e-23)
(1.0134518 0.1245581 -1.0278238e-21)
(1.0271509 0.12144682 -1.1945735e-21)
(1.0290526 0.11854577 1.2078966e-20)
(1.0311082 0.11579067 -1.8905063e-20)
(1.0341394 0.11321386 -1.0811007e-20)
(1.0370184 0.11084234 -1.3691548e-21)
(1.0397843 0.10867756 -1.981166e-20)
(1.042533 0.10671383 -1.8141973e-20)
(1.0452439 0.10492201 -4.2756783e-20)
(1.0478912 0.10326922 -2.0186903e-20)
(1.0504609 0.1017286 -2.3355792e-20)
(1.0529469 0.10027888 -1.2716968e-21)
(1.055348 0.098901224 -3.6553232e-21)
(1.057664 0.097579317 4.2739424e-21)
(1.0598953 0.096297975 1.1355923e-20)
(1.0620406 0.095041269 -8.5742291e-21)
(1.0640946 0.093791212 -1.0082685e-20)
(1.0660448 0.092526854 1.1219651e-20)
(1.0678672 0.091223784 4.0234814e-21)
(1.0695223 0.089854493 -4.7727822e-21)
(1.0709509 0.088389856 1.1026028e-21)
(1.0720706 0.0868033 4.3684752e-21)
(1.0727759 0.085074775 1.3255041e-21)
(1.0729393 0.083191117 1.2284387e-21)
(1.0724108 0.081149538 6.0756454e-22)
(1.0710219 0.078961934 -2.2491172e-22)
(1.0685921 0.076659036 4.816599e-24)
(1.0649364 0.074293949 -2.8876625e-22)
(1.059875 0.071944393 -5.0808273e-22)
(1.0532435 0.069712556 2.4364614e-22)
(1.0449019 0.067722424 -2.4725062e-21)
(1.0347425 0.066114355 1.5768489e-21)
(1.0226947 0.065036687 4.7397014e-21)
(1.0087233 0.064635719 -7.029211e-21)
(0.99283024 0.065052655 -5.41695e-21)
(0.97506917 0.066418055 -4.7942572e-21)
(0.95554313 0.068834906 -5.8351799e-21)
(0.93438343 0.072359419 -1.85757e-20)
(0.91174423 0.076994869 2.6417297e-20)
(0.88778865 0.082677296 -1.7596896e-20)
(0.86267422 0.089264894 3.2151837e-21)
(0.80242951 0.22897173 -9.5139904e-20)
(0.81063398 0.22997968 -9.2576701e-20)
(0.81895141 0.23062465 8.0566004e-20)
(0.82735469 0.23088807 1.4269901e-19)
(0.8358131 0.23075403 -7.4257596e-20)
(0.84429279 0.23021 -1.833435e-20)
(0.85275727 0.22924768 7.1462102e-20)
(0.86116778 0.22786347 3.1146216e-20)
(0.86948423 0.22605909 7.8316211e-21)
(0.8776661 0.22384207 -8.1544783e-20)
(0.88567416 0.22122748 -1.2691414e-20)
(0.89347693 0.21824658 3.7455412e-21)
(0.90105047 0.21493736 -4.6328435e-22)
(0.90837865 0.21133924 -1.7579762e-20)
(0.91545214 0.20749233 -1.2652877e-20)
(0.92226699 0.20343699 2.9334555e-20)
(0.92882468 0.19921335 8.8966906e-21)
(0.93513212 0.19486097 1.3252879e-20)
(0.94120171 0.19041923 3.4120313e-21)
(0.94705182 0.18592849 -4.8374365e-22)
(0.95270907 0.1814268 3.427467e-21)
(0.95820176 0.17695754 -9.8800565e-22)
(0.96356634 0.17256311 -2.9901246e-20)
(0.96884164 0.16829079 -1.173271e-20)
(0.97406209 0.16417729 7.6365693e-21)
(0.97923518 0.16021995 -3.8545043e-21)
(0.98434765 0.1563975 1.4373164e-20)
(0.98934798 0.1526784 1.161823e-20)
(0.99423303 0.1490327 2.8687383e-21)
(0.99888374 0.14543156 -3.8241687e-21)
(1.0035291 0.14184584 9.0427602e-22)
(1.0073466 0.13827491 1.5292385e-21)
(0.98894676 0.13463808 -1.7248727e-22)
(1.0354131 0.12861385 -1.0045499e-23)
(1.0040066 0.12546123 -7.475946e-22)
(1.0110441 0.12235208 9.5670319e-22)
(1.0248795 0.11937277 5.8582841e-22)
(1.0268585 0.11658884 -1.4250816e-20)
(1.0289485 0.11394243 -3.6415674e-21)
(1.0320304 0.11146525 2.0419113e-20)
(1.0349648 0.10918424 4.0276269e-21)
(1.0377814 0.10710185 2.4132356e-20)
(1.0405781 0.10521301 1.6399212e-21)
(1.0433353 0.10348923 -3.4400542e-21)
(1.0460271 0.10189835 -1.3015161e-20)
(1.0486397 0.10041425 8.4211466e-21)
(1.0511665 0.099016479 2.6840042e-20)
(1.0536061 0.097687261 -4.419199e-21)
(1.0559575 0.096411688 2.5873787e-20)
(1.0582209 0.095176519 -2.3964883e-20)
(1.0603953 0.093968585 6.2651006e-21)
(1.0624772 0.092773768 9.3321861e-21)
(1.0644582 0.091576343 -2.3866217e-21)
(1.0663222 0.090358606 8.7736968e-22)
(1.0680421 0.089101073 5.3663738e-21)
(1.0695768 0.087783475 5.0239011e-21)
(1.0708681 0.086387988 -5.4933409e-22)
(1.07184 0.084902564 -9.6246823e-22)
(1.0723996 0.083320536 -1.667096e-22)
(1.072435 0.081643078 8.1986244e-23)
(1.071818 0.079882446 -2.7568331e-22)
(1.070408 0.07806512 1.1132777e-21)
(1.0680578 0.076234545 -5.119731e-22)
(1.0646203 0.07445295 7.9359516e-22)
(1.0599565 0.0728015 -9.808253e-22)
(1.0539429 0.071378566 1.0736456e-21)
(1.0464786 0.070295899 2.8902495e-21)
(1.0374898 0.069672708 -9.2294323e-22)
(1.0269306 0.06962803 -1.0354146e-21)
(1.0147849 0.070277717 3.9979029e-21)
(1.0010786 0.071731728 -2.332881e-21)
(0.98588022 0.074079409 -3.507456e-21)
(0.96929005 0.077375662 7.3770134e-21)
(0.95142974 0.081630262 -2.5339157e-21)
(0.93243292 0.086801853 -1.9150017e-21)
(0.91243732 0.09278343 3.7651881e-21)
(0.806142 0.22258827 1.7659394e-19)
(0.81409204 0.22344321 4.2449517e-20)
(0.82213889 0.22395205 -8.2318987e-20)
(0.83025661 0.22409887 -7.687091e-20)
(0.83841616 0.22387032 6.2936125e-20)
(0.8465859 0.22325632 1.597867e-20)
(0.85473202 0.22225067 -7.3920973e-20)
(0.86281893 0.22085152 2.8413848e-21)
(0.87081014 0.21906179 -1.5260472e-20)
(0.87866897 0.21688956 6.1269494e-20)
(0.88636022 0.21434968 5.1223741e-21)
(0.89385615 0.21147179 -2.6722125e-20)
(0.90113619 0.20829148 -6.9813877e-21)
(0.9081869 0.2048454 2.5012162e-20)
(0.91500101 0.20117056 4.9590017e-20)
(0.92157599 0.19730408 -3.1385404e-20)
(0.92791413 0.19328279 4.267581e-21)
(0.93402254 0.18914303 -3.3502254e-21)
(0.93991328 0.18492101 -7.9879431e-21)
(0.94560375 0.1806541 3.446796e-21)
(0.95111907 0.17637778 -1.3856602e-21)
(0.95648571 0.17213283 -5.9385992e-21)
(0.96173782 0.16795953 1.4080317e-20)
(0.96691177 0.16390325 2.4996108e-20)
(0.97203973 0.15999945 -9.0868269e-21)
(0.97712784 0.1562452 -5.2244022e-21)
(0.98216267 0.15262133 -9.2805338e-21)
(0.98709488 0.14909672 4.6117089e-22)
(0.99192468 0.14564212 -1.2371207e-22)
(0.99652641 0.1422287 1.4246453e-21)
(1.0011626 0.13882761 6.7729052e-22)
(1.0048911 0.13543573 -1.0770126e-21)
(0.9864474 0.13197519 5.3464028e-22)
(1.0331011 0.12601634 6.0252576e-23)
(1.0016526 0.1230095 6.3066155e-22)
(1.0086415 0.12004317 -3.276497e-22)
(1.0226056 0.11719436 1.513494e-22)
(1.0246563 0.11452689 1.4122846e-20)
(1.0267755 0.11198897 1.4586215e-20)
(1.0299027 0.10961169 1.2378696e-20)
(1.0328877 0.10742187 1.9394007e-20)
(1.0357505 0.10542285 -2.8813385e-20)
(1.0385913 0.10361017 9.0531371e-21)
(1.0413912 0.10195606 4.0758183e-20)
(1.0441244 0.10042909 2.1384605e-21)
(1.0467775 0.099003924 1.2041477e-21)
(1.0493438 0.097660871 -4.3775759e-20)
(1.0518213 0.096383179 1.6475828e-20)
(1.0542088 0.095157153 -8.0106448e-21)
(1.0565059 0.093971161 -8.0832474e-21)
(1.0587118 0.09281422 -7.3046525e-21)
(1.0608241 0.091675182 -2.5141337e-21)
(1.0628368 0.090542274 -6.4006508e-21)
(1.0647389 0.089402856 6.2329326e-21)
(1.066512 0.088243562 -5.5903978e-21)
(1.0681275 0.087051013 -1.2352581e-20)
(1.069545 0.08581439 -1.8191165e-21)
(1.070711 0.08452825 4.6690304e-21)
(1.0715596 0.083191543 -1.4953148e-21)
(1.0720102 0.081809248 -2.1802213e-21)
(1.0719689 0.080394733 4.9934805e-22)
(1.0713305 0.07897202 -9.9233019e-22)
(1.069983 0.077577798 3.9165936e-22)
(1.0678115 0.07626278 9.3215835e-22)
(1.0647049 0.075091913 1.1044412e-21)
(1.0605606 0.074143223 9.9217078e-22)
(1.0552909 0.073505133 -2.8812653e-21)
(1.048827 0.073272204 -1.9177e-21)
(1.0411203 0.073539543 6.1978584e-22)
(1.0321451 0.07440021 3.6923982e-21)
(1.0219086 0.075943692 7.5991219e-21)
(1.0104529 0.078244761 -2.1330935e-22)
(0.99784935 0.081352557 7.6506582e-22)
(0.98419058 0.085281494 -5.9235538e-21)
(0.96958384 0.090003943 4.5159326e-21)
(0.95413923 0.095442875 -3.817734e-21)
(0.74088037 0.19433062 -1.3580242e-19)
(0.74692089 0.19750968 -4.4298274e-20)
(0.7531724 0.20049382 -9.9156586e-20)
(0.75962699 0.20327331 -1.2714654e-19)
(0.76627617 0.20583837 -7.7606444e-20)
(0.77311079 0.20817917 -1.6555677e-19)
(0.78012106 0.21028609 -5.1419369e-20)
(0.7872966 0.21214906 3.7994603e-20)
(0.79462486 0.2137525 -1.3822653e-20)
(0.80209228 0.21507789 -9.6177401e-20)
(0.80968329 0.21610719 9.1477404e-21)
(0.81737876 0.21682327 2.1403074e-20)
(0.82515657 0.2172105 -4.8071786e-21)
(0.83299209 0.21725533 9.3118856e-20)
(0.84085804 0.21694669 1.1323014e-19)
(0.84872497 0.21627656 -9.4712064e-20)
(0.85656171 0.21524054 6.9046682e-21)
(0.86433572 0.21383815 -5.9008193e-20)
(0.87201386 0.21207319 5.0752257e-20)
(0.87956304 0.20995404 -4.3525876e-20)
(0.88695168 0.2074951 -1.3114009e-20)
(0.89415541 0.20472431 2.0599006e-20)
(0.9011566 0.20167491 -1.4702811e-20)
(0.90794416 0.19838084 -4.2014153e-20)
(0.91451251 0.19487622 -4.3677611e-20)
(0.92086031 0.19119514 -1.2414379e-20)
(0.92699045 0.18737138 1.0488004e-21)
(0.93291012 0.1834383 -1.307799e-20)
(0.93863093 0.17942925 -3.0495123e-21)
(0.94416938 0.17537888 -5.7731993e-21)
(0.94954907 0.17132025 -1.7946572e-21)
(0.95479473 0.16729179 2.0367399e-21)
(0.95993833 0.16333177 -2.3914434e-21)
(0.96501387 0.15948367 -6.4459225e-21)
(0.97005123 0.15578172 -3.492691e-21)
(0.97505539 0.15222312 -4.1897066e-21)
(0.98001323 0.14879019 -1.8104747e-20)
(0.98487716 0.14545289 -2.4114162e-21)
(0.98965043 0.14218236 -4.0135005e-21)
(0.9942013 0.13894987 8.2469618e-22)
(0.9988246 0.13572693 -9.476266e-24)
(1.0024615 0.13250831 4.8698889e-22)
(0.9839703 0.12921888 -1.7279218e-22)
(1.0308046 0.12332139 -3.5152536e-23)
(0.99931044 0.1204572 1.3602182e-22)
(1.0062462 0.11763111 -4.9981722e-22)