/*--------------------------------*- C++ -*----------------------------------*\
| =========                 |                                                 |
| \\      /  F ield         | OpenFOAM: The Open Source CFD Toolbox           |
|  \\    /   O peration     | Version:  2.4.0                                 |
|   \\  /    A nd           | Web:      www.OpenFOAM.org                      |
|    \\/     M anipulation  |                                                 |
\*---------------------------------------------------------------------------*/
FoamFile
{
    version     2.0;
    format      ascii;
    class       volScalarField;
    location    "5000";
    object      omega;
}
// * * * * * * * * * * * * * * * * * * * * * * * * * * * * * * * * * * * * * //

dimensions      [0 0 -1 0 0 0 0];

internalField   nonuniform List<scalar> 
9742
(
1.278011
1.2763515
1.2746302
1.2728475
1.2710043
1.2691018
1.2671418
1.2651274
1.2630455
1.2026416
1.2011392
1.1995823
1.1979737
1.1963149
1.1946075
1.1928526
1.1910519
1.1892027
1.1367748
1.1352619
1.1337159
1.1321358
1.1305209
1.1288714
1.1271874
1.1254696
1.1237175
1.0792567
1.0777271
1.0761727
1.0745932
1.0729886
1.0713593
1.0697055
1.0680279
1.0663264
1.0281399
1.0266655
1.0251706
1.0236555
1.0221207
1.0205668
1.0189943
1.017404
1.0157965
0.98222573
0.98085579
0.97946804
0.97806326
0.97664219
0.97520556
0.97375409
0.97228837
0.97080992
0.94078098
0.93955075
0.9383044
0.93704272
0.93576649
0.93447642
0.93317323
0.93185744
0.93053073
0.92918644
0.92783371
0.92647251
0.9251031
0.92372594
0.92234114
0.90337785
0.90230285
0.90121232
0.90010697
0.89898748
0.89785452
0.89670876
0.89555075
0.89438145
0.89320002
0.89200789
0.89080602
0.88959516
0.88837601
0.88714906
0.86972229
0.86879831
0.86785898
0.86690496
0.86593686
0.86495531
0.86396093
0.86295429
0.8619361
0.86090668
0.85986662
0.85881657
0.85775718
0.85668911
0.85561295
0.8395483
0.83875971
0.83795637
0.83713883
0.83630766
0.83546342
0.83460666
0.83373796
0.83285788
0.83196695
0.83106568
0.83015463
0.82923435
0.82830542
0.82736838
0.81259882
0.81192727
0.81124206
0.81054367
0.80983257
0.80910923
0.80837415
0.80762782
0.80687074
0.80610339
0.80532627
0.80453986
0.80374467
0.80294118
0.8021299
0.78863408
0.78806232
0.78747834
0.7868825
0.78627519
0.78565681
0.78502777
0.78438848
0.78373936
0.78308084
0.78241335
0.78173731
0.78105316
0.78036134
0.77966229
0.77895643
0.77824421
0.76743341
0.76694648
0.76644889
0.76594091
0.76542287
0.76489509
0.76435789
0.76381163
0.76325665
0.76269331
0.76212198
0.76154302
0.76095681
0.76036371
0.75976411
0.75915839
0.75854691
0.75793008
0.75730826
0.75668184
0.75605119
0.75541667
0.748795
0.74838044
0.74795677
0.74752423
0.74708306
0.74663353
0.74617591
0.74571048
0.74523753
0.74475736
0.74427027
0.74377657
0.74327658
0.74277061
0.74225898
0.74174203
0.74122006
0.74069341
0.74016241
0.73962737
0.73908863
0.73854651
0.73800132
0.73745339
0.73690303
0.73635055
0.73579626
0.73524047
0.73468348
0.73412559
0.73356708
0.73354593
0.73321739
0.73288078
0.73253623
0.73218391
0.73182398
0.73145664
0.7310821
0.73070055
0.73031223
0.72991736
0.72951619
0.72910895
0.72869591
0.72827733
0.72785345
0.72742456
0.72699093
0.72655282
0.72611051
0.72566427
0.72521439
0.72476113
0.72430478
0.72384561
0.72338388
0.72291988
0.72245387
0.72198611
0.72151688
0.72104643
0.72057502
0.72010291
0.71963034
0.71934979
0.719071
0.71878563
0.71849381
0.71819565
0.71789131
0.71758093
0.7172647
0.71694277
0.71661534
0.71628259
0.71594473
0.71560196
0.71525448
0.71490251
0.71454628
0.714186
0.7138219
0.71345421
0.71308316
0.71270897
0.71233188
0.71195212
0.71156993
0.71118552
0.71079914
0.710411
0.71002134
0.70963037
0.70923833
0.70884543
0.70845188
0.70805791
0.70766372
0.7072441
0.70700906
0.70676882
0.70652347
0.70627314
0.70601794
0.70575801
0.70549349
0.70522452
0.70495124
0.70467383
0.70439245
0.70410725
0.70381842
0.70352613
0.70323057
0.70293192
0.70263036
0.70232608
0.70201928
0.70171014
0.70139886
0.70108563
0.70077063
0.70045406
0.7001361
0.69981694
0.69949678
0.6991758
0.69885418
0.69853211
0.69820976
0.69788731
0.69756493
0.69709867
0.69690278
0.69670296
0.6964993
0.69629191
0.69608089
0.69586635
0.69564841
0.69542718
0.69520279
0.69497537
0.69474505
0.69451197
0.69427627
0.6940381
0.6937976
0.69355493
0.69331024
0.69306368
0.6928154
0.69256557
0.69231435
0.69206188
0.6918083
0.69155378
0.69129847
0.69104254
0.69078614
0.69052942
0.69027253
0.69001561
0.68975881
0.68950227
0.68924611
0.68880141
0.68864124
0.68847834
0.68831279
0.68814469
0.68797412
0.68780117
0.68762594
0.6874485
0.68726896
0.68708742
0.68690399
0.68671878
0.68653191
0.68634349
0.68615364
0.68596249
0.68577015
0.68557675
0.68538242
0.68518728
0.68499147
0.68479507
0.68459819
0.684401
0.68420362
0.68400619
0.68380883
0.68361165
0.68341477
0.6832183
0.68302235
0.68282703
0.68263244
0.68243868
0.68224587
0.6820541
0.68186346
0.68167404
0.68148594
0.68129912
0.68225713
0.68213026
0.68200181
0.68187186
0.68174048
0.68160771
0.68147363
0.68133827
0.68120171
0.68106403
0.6809253
0.68078563
0.68064508
0.68050376
0.68036175
0.68021915
0.68007605
0.67993256
0.67978877
0.67964478
0.67950068
0.67935663
0.67921248
0.67906851
0.67892486
0.67878164
0.67863893
0.67849681
0.67835537
0.67821468
0.67807482
0.67793589
0.67779795
0.67766109
0.67752538
0.67739089
0.6772577
0.67712587
0.67699548
0.67686648
0.67673883
0.67766807
0.67757473
0.67748095
0.67738641
0.67729135
0.67719585
0.67709993
0.67700361
0.67690691
0.67680985
0.6767124
0.67661467
0.67651673
0.67641862
0.67632042
0.67622219
0.67612399
0.6760259
0.675928
0.67583035
0.67573303
0.67563613
0.6755397
0.67544385
0.67534871
0.67525363
0.67515962
0.67506665
0.67497469
0.67488375
0.67479389
0.67470516
0.67461763
0.67453133
0.67444634
0.67436271
0.67428049
0.67419973
0.67412048
0.67404279
0.67396669
0.67389222
0.67381945
0.67374926
0.67431906
0.6742538
0.67418943
0.67412471
0.67406087
0.6739977
0.67393507
0.67387293
0.67381127
0.67375028
0.67369009
0.67363056
0.67357168
0.67351348
0.67345601
0.6733993
0.67334342
0.67328842
0.67323436
0.67318129
0.67312927
0.67307836
0.67302859
0.67298012
0.67293268
0.67288487
0.67284062
0.67279771
0.67275622
0.67271621
0.67267773
0.67264084
0.67260557
0.67257197
0.67254007
0.67250989
0.67248147
0.67245484
0.67243002
0.67240703
0.67238587
0.67236657
0.67234924
0.6723327
0.67254363
0.67250844
0.67247503
0.67244021
0.67240937
0.67237977
0.67235137
0.67232418
0.67229828
0.67227327
0.6722493
0.67222653
0.67220504
0.67218488
0.67216609
0.67214871
0.67213279
0.67211836
0.67210547
0.67209416
0.67208447
0.67207646
0.67207011
0.67206577
0.67206058
0.67205599
0.67206063
0.6720637
0.67206859
0.67207535
0.67208402
0.67209464
0.67210724
0.67212183
0.67213843
0.67215706
0.67217772
0.67220041
0.67222515
0.67225193
0.67228074
0.67231159
0.67234443
0.6723793
0.67241619
0.67245502
0.67249574
0.67253832
0.67258272
0.67262889
0.67267686
0.67272664
0.67277596
0.67282908
0.67288362
0.67293957
0.67299689
0.6730555
0.67311534
0.67317633
0.67323839
0.67330146
0.67336544
0.67343025
0.67349581
0.67356203
0.67362882
0.67369608
0.67376374
0.67383166
0.67389979
0.67396797
0.67403619
0.67410428
0.67417222
0.67423974
0.67227773
0.67227212
0.67226894
0.67226044
0.6722648
0.67226718
0.67227133
0.67227729
0.67228511
0.67229474
0.6723063
0.67231979
0.67233523
0.67235265
0.67237208
0.67239357
0.67241714
0.67244282
0.67247066
0.67250067
0.67253288
0.67256733
0.67260403
0.67264308
0.67268417
0.67272598
0.67277227
0.67282078
0.67287161
0.67292476
0.67298027
0.67303814
0.67309837
0.67316096
0.67322591
0.6732932
0.67336283
0.67343478
0.67350903
0.67358556
0.67366434
0.67374536
0.67382854
0.67391388
0.67400134
0.67409087
0.6741824
0.67427586
0.67437121
0.67446835
0.67456724
0.67466792
0.67476946
0.67487291
0.67497794
0.67508436
0.67519206
0.67530093
0.67541086
0.67552175
0.6756335
0.675746
0.67585915
0.67597284
0.67608697
0.67620142
0.67631608
0.67643083
0.67654557
0.67666015
0.67677449
0.67688843
0.67700188
0.67711468
0.6772268
0.67733797
0.67350628
0.6735314
0.67355917
0.67358654
0.67361905
0.67365381
0.67369095
0.67373051
0.67377253
0.67381703
0.67386404
0.6739136
0.67396573
0.67402045
0.6740778
0.67413779
0.67420046
0.67426583
0.67433391
0.67440473
0.67447831
0.67455465
0.67463378
0.67471569
0.67480048
0.67488734
0.67497745
0.6750705
0.6751664
0.67526511
0.67536661
0.67547086
0.67557786
0.67568756
0.67579996
0.67591501
0.67603269
0.67615296
0.67627578
0.67640112
0.67652892
0.67665913
0.67679169
0.67692654
0.67706364
0.6772029
0.67734425
0.67748761
0.67763289
0.67778001
0.67792886
0.67807944
0.67823133
0.67838469
0.67853944
0.67869547
0.67885265
0.67901085
0.67916994
0.67932981
0.67949033
0.67965137
0.67981279
0.67997448
0.68013631
0.68029813
0.68045981
0.68062122
0.68078222
0.68094267
0.68110242
0.68126132
0.68141926
0.68157603
0.68173161
0.68188569
0.67622084
0.67627692
0.67633584
0.67639651
0.67646058
0.67652774
0.67659795
0.67667121
0.67674754
0.67682695
0.67690948
0.67699514
0.67708397
0.67717597
0.67727118
0.6773696
0.67747127
0.67757618
0.67768435
0.67779579
0.6779105
0.6780285
0.67814977
0.6782743
0.67840217
0.67853304
0.67866719
0.67880461
0.67894528
0.67908917
0.67923623
0.67938642
0.6795397
0.67969604
0.67985537
0.68001767
0.68018287
0.68035093
0.68052178
0.68069536
0.68087161
0.68105045
0.68123182
0.68141561
0.68160177
0.68179019
0.68198078
0.68217345
0.68236808
0.68256458
0.68276282
0.68296272
0.68316407
0.68336679
0.68357076
0.68377588
0.68398201
0.68418901
0.68439674
0.68460506
0.68481382
0.68502286
0.68523205
0.68544123
0.68565025
0.68585896
0.68606719
0.68627478
0.68648158
0.68668743
0.68689216
0.68709559
0.68729759
0.68749793
0.68769657
0.68789317
0.68041863
0.68050524
0.68059517
0.68068809
0.68078448
0.68088444
0.68098803
0.68109525
0.68120614
0.68132071
0.68143898
0.68156097
0.6816867
0.68181618
0.68194941
0.68208642
0.6822272
0.68237177
0.68252012
0.68267225
0.68282815
0.68298782
0.68315125
0.6833184
0.68348932
0.68366385
0.68384201
0.68402382
0.68420924
0.68439824
0.68459077
0.68478678
0.68498622
0.68518904
0.68539516
0.68560453
0.68581707
0.68603272
0.6862514
0.68647303
0.68669752
0.68692478
0.68715473
0.68738725
0.68762224
0.6878596
0.68809922
0.68834097
0.68858473
0.68883038
0.68907777
0.6893268
0.68957729
0.6898291
0.69008208
0.69033609
0.69059099
0.69084661
0.6911028
0.69135939
0.69161622
0.69187312
0.69212991
0.69238643
0.6926425
0.69289794
0.69315259
0.69340624
0.69365873
0.69390987
0.69415948
0.69440735
0.69465333
0.69489717
0.69513879
0.69537786
0.68610379
0.68622056
0.68634144
0.6864663
0.68659526
0.68672839
0.68686573
0.68700732
0.68715317
0.68730329
0.6874577
0.6876164
0.68777941
0.68794672
0.68811834
0.68829427
0.68847451
0.68865905
0.68884789
0.689041
0.68923837
0.68943999
0.68964582
0.68985584
0.69007004
0.69028833
0.69051068
0.69073707
0.69096743
0.69120174
0.69143992
0.69168193
0.69192769
0.69217713
0.69243017
0.69268675
0.69294676
0.69321012
0.69347674
0.69374652
0.69401936
0.69429515
0.69457378
0.69485512
0.69513906
0.69542547
0.69571421
0.69600515
0.69629815
0.69659306
0.69688973
0.697188
0.69748772
0.69778871
0.69809081
0.69839385
0.69869766
0.69900205
0.69930685
0.69961188
0.69991695
0.70022187
0.70052645
0.7008305
0.70113381
0.70143621
0.70173747
0.70203741
0.70233581
0.70263247
0.7029272
0.70321975
0.70350997
0.70379755
0.70408244
0.70436424
0.69328714
0.69343437
0.69358657
0.69374363
0.69390554
0.69407229
0.6942439
0.69442037
0.69460171
0.69478793
0.69497901
0.69517496
0.69537578
0.69558146
0.69579199
0.69600736
0.69622756
0.69645258
0.69668238
0.69691696
0.69715628
0.69740031
0.69764901
0.69790234
0.69816027
0.69842273
0.69868968
0.69896104
0.69923677
0.6995168
0.69980106
0.70008947
0.70038196
0.70067843
0.7009788
0.70128298
0.70159085
0.70190232
0.70221728
0.70253561
0.7028572
0.70318191
0.70350962
0.70384018
0.70417347
0.70450933
0.70484761
0.70518815
0.70553081
0.7058754
0.70622177
0.70656973
0.70691912
0.70726973
0.70762139
0.70797391
0.70832708
0.70868072
0.70903462
0.70938858
0.70974239
0.71009584
0.71044872
0.71080082
0.71115192
0.7115018
0.71185024
0.71219701
0.71254189
0.71288465
0.71322506
0.71356288
0.71389792
0.71422985
0.71455861
0.71488375
0.70198729
0.70216589
0.7023502
0.70254014
0.70273563
0.70293666
0.7031432
0.70335522
0.70357273
0.70379571
0.70402414
0.70425801
0.70449731
0.70474201
0.70499212
0.70524759
0.70550841
0.70577455
0.70604598
0.70632267
0.70660457
0.70689165
0.70718386
0.70748114
0.70778344
0.7080907
0.70840285
0.70871982
0.70904153
0.70936791
0.70969887
0.71003432
0.71037417
0.71071831
0.71106665
0.71141906
0.71177545
0.71213568
0.71249963
0.71286716
0.71323815
0.71361245
0.71398991
0.71437038
0.7147537
0.7151397
0.71552822
0.71591908
0.71631211
0.71670711
0.71710391
0.71750231
0.7179021
0.7183031
0.71870508
0.71910785
0.71951118
0.71991486
0.72031866
0.72072237
0.72112575
0.72152857
0.7219306
0.72233161
0.72273136
0.72312961
0.7235261
0.7239206
0.72431286
0.72470263
0.72508966
0.72547368
0.72585448
0.72623169
0.72660526
0.72697469
0.71223122
0.71244231
0.71265975
0.71288347
0.71311341
0.71334954
0.71359181
0.71384019
0.71409466
0.71435518
0.71462175
0.71489432
0.71517288
0.7154574
0.71574786
0.71604421
0.71634643
0.71665449
0.71696833
0.71728791
0.71761319
0.71794411
0.71828062
0.71862264
0.71897012
0.71932297
0.71968113
0.72004451
0.72041302
0.72078656
0.72116505
0.72154837
0.72193642
0.72232908
0.72272624
0.72312777
0.72353354
0.72394341
0.72435724
0.72477489
0.7251962
0.72562101
0.72604916
0.72648047
0.72691478
0.72735189
0.72779163
0.7282338
0.7286782
0.72912464
0.72957289
0.73002277
0.73047403
0.73092647
0.73137986
0.73183397
0.73228856
0.7327434
0.73319824
0.73365284
0.73410695
0.73456032
0.73501269
0.73546381
0.73591342
0.73636125
0.73680704
0.73725051
0.73769141
0.73812945
0.73856437
0.73899587
0.73942371
0.73984751
0.7402672
0.74068223
0.72405389
0.72429858
0.72455022
0.72480874
0.72507409
0.72534625
0.72562516
0.72591078
0.72620309
0.72650205
0.72680762
0.72711977
0.72743847
0.72776368
0.72809537
0.72843349
0.728778
0.72912885
0.729486
0.72984939
0.73021896
0.73059464
0.73097638
0.73136408
0.73175768
0.73215709
0.73256222
0.73297299
0.73338927
0.73381099
0.73423801
0.73467023
0.73510752
0.73554975
0.7359968
0.73644852
0.73690476
0.73736538
0.73783022
0.73829912
0.7387719
0.7392484
0.73972842
0.74021179
0.7406983
0.74118777
0.74167998
0.74217473
0.74267181
0.74317098
0.74367202
0.74417472
0.74467882
0.74518409
0.74569028
0.74619714
0.74670443
0.74721187
0.74771922
0.7482262
0.74873254
0.74923797
0.74974221
0.75024499
0.75074602
0.75124502
0.75174169
0.75223575
0.75272691
0.75321485
0.7536993
0.75417993
0.75465649
0.75512854
0.75559604
0.75605835
0.73749766
0.73777701
0.73806386
0.73835818
0.73865994
0.73896908
0.73928558
0.73960939
0.73994047
0.74027879
0.7406243
0.74097696
0.74133674
0.74170359
0.74207747
0.74245832
0.74284609
0.74324074
0.7436422
0.7440504
0.74446528
0.74488676
0.74531477
0.74574923
0.74619003
0.7466371
0.74709032
0.7475496
0.74801482
0.74848586
0.74896261
0.74944492
0.74993268
0.75042573
0.75092393
0.75142713
0.75193516
0.75244786
0.75296506
0.75348659
0.75401224
0.75454184
0.75507518
0.75561206
0.75615228
0.75669561
0.75724184
0.75779073
0.75834205
0.75889557
0.75945103
0.7600082
0.76056681
0.76112661
0.76168733
0.7622487
0.76281045
0.76337229
0.76393395
0.76449514
0.76505557
0.76561494
0.76617295
0.7667293
0.76728369
0.76783581
0.76838534
0.76893197
0.76947539
0.77001526
0.77055128
0.77108308
0.77161042
0.77213279
0.77265017
0.77316186
0.75261177
0.75292669
0.7532497
0.75358077
0.75391987
0.75426695
0.75462198
0.75498491
0.75535572
0.75573435
0.75612077
0.75651492
0.75691677
0.75732625
0.75774333
0.75816794
0.75860003
0.75903953
0.75948637
0.75994049
0.7604018
0.76087023
0.76134568
0.76182807
0.76231729
0.76281324
0.76331581
0.76382489
0.76434034
0.76486205
0.76538988
0.76592368
0.76646331
0.76700862
0.76755944
0.76811562
0.76867696
0.7692433
0.76981444
0.7703902
0.77097037
0.77155474
0.77214311
0.77273525
0.77333092
0.77392991
0.77453198
0.77513686
0.77574432
0.7763541
0.77696594
0.77757955
0.77819469
0.77881105
0.77942836
0.78004633
0.78066466
0.78128306
0.78190121
0.78251882
0.78313557
0.78375113
0.78436519
0.78497743
0.78558751
0.7861951
0.78679987
0.78740146
0.78799956
0.78859378
0.78918382
0.78976927
0.79034987
0.79092506
0.79149484
0.79205842
0.76945172
0.76980303
0.77016305
0.77053172
0.77090904
0.77129494
0.77168941
0.7720924
0.77250387
0.77292378
0.77335207
0.7737887
0.77423363
0.77468678
0.77514812
0.77561757
0.77609507
0.77658055
0.77707394
0.77757516
0.77808412
0.77860073
0.77912489
0.77965652
0.78019548
0.78074169
0.781295
0.7818553
0.78242246
0.78299633
0.78357677
0.78416363
0.78475674
0.78535595
0.78596107
0.78657193
0.78718833
0.78781009
0.78843701
0.78906886
0.78970545
0.79034654
0.7909919
0.79164131
0.7922945
0.79295125
0.79361127
0.79427433
0.79494013
0.79560842
0.7962789
0.79695129
0.7976253
0.79830063
0.79897696
0.799654
0.80033142
0.8010089
0.80168612
0.80236275
0.80303844
0.80371287
0.80438568
0.80505652
0.80572505
0.8063909
0.8070537
0.8077131
0.80836873
0.8090202
0.80966716
0.81030917
0.81094597
0.81157693
0.81220208
0.81282055
0.78807886
0.78846726
0.78886501
0.78927206
0.78968838
0.79011394
0.79054871
0.79099263
0.79144568
0.79190779
0.79237893
0.79285904
0.79334806
0.79384595
0.79435263
0.79486804
0.79539212
0.79592477
0.79646593
0.79701551
0.79757342
0.79813955
0.79871381
0.79929609
0.79988626
0.80048422
0.80108982
0.80170294
0.80232343
0.80295113
0.8035859
0.80422757
0.80487597
0.80553093
0.80619224
0.80685973
0.80753319
0.80821241
0.80889717
0.80958726
0.81028244
0.81098247
0.8116871
0.81239609
0.81310917
0.81382608
0.81454654
0.81527026
0.81599697
0.81672637
0.81745814
0.818192
0.81892762
0.81966469
0.82040287
0.82114184
0.82188126
0.82262078
0.82336006
0.82409874
0.82483646
0.82557286
0.82630756
0.8270402
0.82777038
0.82849773
0.82922186
0.82994237
0.83065887
0.83137094
0.83207821
0.8327802
0.83347664
0.83416683
0.83485082
0.83552765
0.80855982
0.80898589
0.809422
0.80986809
0.81032414
0.81079011
0.81126596
0.81175166
0.81224715
0.81275239
0.81326733
0.81379191
0.81432608
0.81486977
0.81542292
0.81598546
0.81655731
0.8171384
0.81772864
0.81832793
0.81893618
0.81955328
0.82017913
0.82081361
0.82145659
0.82210794
0.82276754
0.82343522
0.82411084
0.82479425
0.82548527
0.82618372
0.82688944
0.82760222
0.82832187
0.82904818
0.82978094
0.83051993
0.83126491
0.83201565
0.8327719
0.83353341
0.83429992
0.83507114
0.83584682
0.83662666
0.83741037
0.83819764
0.83898819
0.83978168
0.8405778
0.84137622
0.84217661
0.84297862
0.84378191
0.84458613
0.8453909
0.84619587
0.84700066
0.84780489
0.84860819
0.84941015
0.85021038
0.85100848
0.85180404
0.85259665
0.85338589
0.85417133
0.85495256
0.85572912
0.85650063
0.85726654
0.85802659
0.85878
0.85952685
0.86026607
0.83096608
0.83143028
0.83190525
0.83239096
0.83288737
0.83339443
0.83391212
0.83444038
0.83497916
0.83552842
0.83608811
0.83665816
0.83723852
0.83782913
0.83842991
0.83904079
0.8396617
0.84029255
0.84093325
0.84158369
0.8422438
0.84291344
0.8435925
0.84428087
0.84497841
0.84568499
0.84640045
0.84712464
0.84785742
0.84859859
0.849348
0.85010545
0.85087076
0.85164371
0.8524241
0.85321172
0.85400633
0.8548077
0.85561558
0.85642973
0.85724987
0.85807574
0.85890707
0.85974356
0.86058491
0.86143084
0.86228102
0.86313514
0.86399288
0.86485389
0.86571784
0.86658437
0.86745314
0.86832377
0.8691959
0.87006915
0.87094313
0.87181745
0.87269172
0.87356553
0.87443847
0.87531011
0.87618004
0.87704782
0.87791302
0.8787752
0.8796339
0.88048867
0.88133906
0.88218458
0.88302482
0.88385918
0.88468739
0.8855086
0.88632292
0.88712916
0.85537329
0.855876
0.85639028
0.85691612
0.85745345
0.85800225
0.85856246
0.85913404
0.85971694
0.86031111
0.8609165
0.86153304
0.86216068
0.86279934
0.86344897
0.86410949
0.86478081
0.86546284
0.86615549
0.86685867
0.86757226
0.86829615
0.86903022
0.86977434
0.87052838
0.87129218
0.87206561
0.87284848
0.87364065
0.87444192
0.87525212
0.87607105
0.8768985
0.87773427
0.87857813
0.87942985
0.88028919
0.8811559
0.88202972
0.88291039
0.88379762
0.88469114
0.88559064
0.88649583
0.88740639
0.888322
0.88924233
0.89016705
0.8910958
0.89202823
0.89296398
0.89390267
0.89484394
0.89578738
0.89673261
0.89767922
0.89862681
0.89957495
0.90052322
0.90147119
0.90241841
0.90336445
0.90430883
0.90525112
0.90619082
0.90712748
0.90806061
0.90898971
0.90991431
0.91083387
0.91174796
0.91265593
0.9135575
0.91445172
0.91533874
0.91621727
0.88186086
0.88240239
0.88295639
0.88352281
0.8841016
0.88469273
0.88529614
0.8859118
0.88653964
0.88717962
0.88783168
0.88849577
0.88917182
0.88985978
0.89055955
0.89127108
0.89199427
0.89272904
0.89347528
0.89423291
0.89500179
0.89578183
0.89657289
0.89737483
0.89818752
0.89901081
0.89984453
0.90068852
0.9015426
0.90240658
0.90328028
0.90416348
0.90505598
0.90595754
0.90686794
0.90778694
0.90871427
0.90964968
0.91059289
0.91154363
0.91250159
0.91346648
0.91443798
0.91541578
0.91639954
0.91738892
0.91838358
0.91938315
0.92038727
0.92139556
0.92240764
0.9234231
0.92444155
0.92546257
0.92648575
0.92751065
0.92853684
0.92956387
0.93059128
0.93161862
0.93264542
0.93367119
0.93469544
0.93571768
0.93673742
0.93775413
0.93876732
0.93977642
0.94078096
0.94178033
0.94277408
0.9437615
0.94474231
0.94571544
0.9466811
0.94763785
0.91051142
0.91109206
0.91168612
0.91229356
0.91291433
0.91354839
0.91419568
0.91485618
0.91552982
0.91621656
0.91691635
0.91762912
0.91835482
0.91909338
0.91984473
0.92060878
0.92138547
0.92217469
0.92297634
0.92379033
0.92461653
0.92545483
0.9263051
0.9271672
0.92804097
0.92892628
0.92982294
0.93073079
0.93164963
0.93257929
0.93351955
0.9344702
0.93543102
0.93640177
0.93738221
0.93837208
0.93937111
0.94037903
0.94139556
0.94242038
0.9434532
0.9444937
0.94554155
0.9465964
0.94765791
0.94872571
0.94979945
0.95087873
0.95196316
0.95305235
0.95414589
0.95524335
0.95634431
0.95744833
0.95855495
0.95966372
0.96077418
0.96188584
0.96299823
0.96411085
0.96522319
0.96633473
0.96744497
0.96855335
0.96965936
0.97076242
0.97186202
0.97295754
0.97404847
0.97513415
0.97621411
0.97728754
0.9783542
0.97941288
0.98046385
0.98150551
0.94022702
0.94080474
0.94141031
0.94203034
0.94266481
0.94331369
0.94397696
0.94465457
0.94534649
0.94605266
0.94677304
0.94750759
0.94825625
0.94901896
0.94979568
0.95058633
0.95139085
0.95220914
0.95304114
0.95388675
0.95474587
0.95561839
0.9565042
0.95740318
0.95831518
0.95924008
0.96017771
0.96112791
0.96209052
0.96306536
0.96405222
0.96505092
0.96606124
0.96708295
0.96811583
0.96915963
0.97021408
0.97127893
0.97235389
0.97343867
0.97453296
0.97563647
0.97674885
0.97786978
0.9789989
0.98013586
0.98128029
0.9824318
0.98359
0.98475449
0.98592486
0.98710067
0.98828149
0.98946688
0.99065637
0.9918495
0.99304579
0.99424474
0.99544587
0.99664867
0.99785261
0.99905716
1.0002618
1.0014659
1.002669
1.0038705
1.0050698
1.0062663
1.0074594
1.0086486
1.0098331
1.0110124
1.0121859
1.0133527
1.0145127
1.0156643
1.016808
1.0179421
0.97338655
0.97400106
0.97464508
0.97530472
0.97597995
0.97667077
0.97737714
0.97809902
0.97883638
0.97958918
0.98035738
0.98114093
0.98193979
0.98275391
0.98358322
0.98442767
0.98528718
0.98616169
0.9870511
0.98795533
0.98887428
0.98980784
0.99075588
0.9917183
0.99269494
0.99368567
0.99469033
0.99570875
0.99674076
0.99778617
0.99884478
0.99991638
1.0010008
1.0020977
1.0032069
1.0043281
1.0054612
1.0066057
1.0077614
1.008928
1.0101051
1.0112925
1.0124898
1.0136967
1.0149127
1.0161375
1.0173707
1.0186119
1.0198607
1.0211167
1.0223793
1.0236482
1.0249229
1.0262029
1.0274878
1.0287769
1.0300699
1.0313661
1.0326652
1.0339664
1.0352693
1.0365733
1.0378777
1.0391821
1.0404858
1.0417882
1.0430886
1.0443865
1.0456812
1.0469719
1.0482583
1.0495393
1.0508145
1.0520829
1.0533443
1.0545972
1.055842
1.0570767
1.0089708
1.0096221
1.0103048
1.0110044
1.0117208
1.0124542
1.0132044
1.0139714
1.0147552
1.0155558
1.0163731
1.0172071
1.0180577
1.0189249
1.0198087
1.020709
1.0216256
1.0225587
1.0235079
1.0244734
1.0254549
1.0264524
1.0274658
1.0284949
1.0295395
1.0305996
1.031675
1.0327654
1.0338708
1.0349909
1.0361256
1.0372745
1.0384376
1.0396144
1.0408049
1.0420086
1.0432254
1.044455
1.0456969
1.046951
1.0482168
1.0494941
1.0507824
1.0520814
1.0533907
1.0547099
1.0560385
1.0573763
1.0587226
1.060077
1.0614391
1.0628085
1.0641845
1.0655667
1.0669545
1.0683475
1.069745
1.0711466
1.0725516
1.0739595
1.0753696
1.0767814
1.0781942
1.0796073
1.0810202
1.0824322
1.0838425
1.0852506
1.0866557
1.0880571
1.0894541
1.0908459
1.0922319
1.093611
1.094983
1.0963462
1.0977012
1.0990457
1.0470695
1.0477579
1.0484796
1.0492196
1.0499779
1.0507546
1.0515496
1.0523629
1.0531944
1.0540442
1.0549122
1.0557984
1.0567027
1.0576252
1.0585656
1.0595241
1.0605005
1.0614948
1.0625069
1.0635367
1.064584
1.0656489
1.0667311
1.0678306
1.0689472
1.0700808
1.0712311
1.0723981
1.0735814
1.0747811
1.0759967
1.0772281
1.0784751
1.0797374
1.0810148
1.0823068
1.0836134
1.0849341
1.0862686
1.0876166
1.0889777
1.0903516
1.0917378
1.0931361
1.094546
1.0959669
1.0973986
1.0988405
1.1002922
1.1017531
1.1032228
1.1047008
1.1061865
1.1076793
1.1091788
1.1106843
1.1121953
1.1137111
1.1152312
1.1167549
1.1182815
1.1198104
1.121341
1.1228724
1.1244041
1.1259353
1.1274653
1.1289934
1.1305188
1.1320406
1.1335583
1.1350708
1.1365775
1.1380773
1.13957
1.1410536
1.1425288
1.1439932
1.0877731
1.0884992
1.0892604
1.0900417
1.0908428
1.091664
1.0925051
1.0933661
1.094247
1.0951479
1.0960686
1.0970091
1.0979695
1.0989497
1.0999496
1.1009693
1.1020085
1.1030674
1.1041457
1.1052435
1.1063605
1.1074968
1.1086522
1.1098265
1.1110197
1.1122315
1.1134618
1.1147104
1.1159772
1.1172619
1.1185643
1.1198841
1.1212212
1.1225752
1.1239459
1.1253329
1.1267361
1.1281549
1.1295892
1.1310385
1.1325025
1.1339807
1.1354729
1.1369784
1.138497
1.1400282
1.1415714
1.1431262
1.144692
1.1462684
1.1478549
1.1494508
1.1510555
1.1526686
1.1542893
1.1559171
1.1575514
1.1591914
1.1608367
1.1624864
1.1641398
1.1657963
1.167455
1.1691153
1.1707764
1.1724375
1.1740979
1.1757567
1.1774133
1.1790665
1.1807157
1.1823598
1.1839983
1.1856297
1.1872539
1.1888689
1.1904752
1.1920704
1.1311723
1.1319369
1.1327388
1.1335625
1.1344079
1.1352751
1.1361641
1.1370748
1.1380072
1.1389615
1.1399375
1.1409352
1.1419546
1.1429957
1.1440584
1.1451427
1.1462486
1.147376
1.1485248
1.149695
1.1508864
1.1520989
1.1533324
1.1545868
1.1558619
1.1571577
1.1584738
1.1598101
1.1611665
1.1625427
1.1639385
1.1653536
1.1667878
1.1682408
1.1697123
1.171202
1.1727095
1.1742346
1.1757769
1.1773359
1.1789113
1.1805027
1.1821096
1.1837317
1.1853683
1.1870191
1.1886835
1.1903609
1.1920509
1.1937529
1.1954662
1.1971904
1.1989247
1.2006686
1.2024213
1.2041823
1.2059509
1.2077263
1.2095079
1.2112949
1.2130865
1.214882
1.2166805
1.2184811
1.2202833
1.2220861
1.2238887
1.2256901
1.2274896
1.229286
1.2310788
1.2328664
1.2346485
1.2364234
1.2381911
1.2399493
1.2416987
1.2434364
1.1773583
1.1781628
1.1790069
1.1798747
1.1807663
1.1816817
1.1826209
1.1835839
1.1845707
1.1855813
1.1866158
1.1876741
1.1887563
1.1898622
1.1909919
1.1921453
1.1933224
1.1945232
1.1957475
1.1969953
1.1982665
1.1995609
1.2008785
1.2022192
1.2035827
1.2049689
1.2063777
1.2078088
1.2092621
1.2107373
1.2122342
1.2137525
1.2152919
1.2168523
1.2184331
1.2200342
1.2216551
1.2232956
1.2249551
1.2266334
1.22833
1.2300445
1.2317764
1.2335252
1.2352904
1.2370714
1.2388678
1.2406789
1.2425041
1.2443429
1.2461947
1.2480587
1.2499342
1.2518207
1.2537174
1.2556236
1.2575386
1.2594617
1.261392
1.2633288
1.2652711
1.2672181
1.269169
1.2711228
1.2730788
1.275036
1.2769937
1.2789506
1.2809061
1.2828585
1.2848076
1.2867516
1.2886902
1.2906215
1.2925455
1.2944597
1.2963648
1.2982577
1.2264225
1.2272689
1.2281574
1.2290718
1.2300122
1.2309787
1.2319713
1.2329899
1.2340347
1.2351056
1.2362027
1.2373259
1.2384754
1.2396509
1.2408527
1.2420805
1.2433344
1.2446143
1.2459202
1.2472519
1.2486094
1.2499926
1.2514013
1.2528354
1.2542948
1.2557793
1.2572886
1.2588227
1.2603814
1.2619642
1.2635711
1.2652017
1.2668558
1.268533
1.270233
1.2719555
1.2737
1.2754662
1.2772538
1.2790622
1.280891
1.2827398
1.2846081
1.2864952
1.2884007
1.2903239
1.2922643
1.2942213
1.2961943
1.2981825
1.3001852
1.3022018
1.3042315
1.3062737
1.3083275
1.3103923
1.3124671
1.3145513
1.316644
1.3187441
1.3208508
1.3229631
1.3250802
1.3272009
1.3293248
1.3314503
1.3335771
1.3357033
1.3378287
1.339951
1.3420704
1.3441845
1.3462935
1.3483949
1.3504888
1.3525726
1.354647
1.3567086
1.2784571
1.2793481
1.2802841
1.2812484
1.2822412
1.2832626
1.2843126
1.2853912
1.2864985
1.2876346
1.2887994
1.289993
1.2912154
1.2924665
1.2937464
1.2950551
1.2963925
1.2977586
1.2991532
1.3005763
1.3020279
1.3035078
1.3050159
1.306552
1.308116
1.3097077
1.311327
1.3129736
1.3146473
1.3163478
1.3180749
1.3198283
1.3216077
1.3234127
1.325243
1.3270982
1.328978
1.3308817
1.3328093
1.33476
1.3367335
1.3387293
1.3407466
1.3427851
1.3448439
1.3469227
1.3490206
1.3511371
1.3532716
1.355423
1.3575908
1.3597741
1.3619723
1.3641845
1.3664099
1.3686478
1.3708971
1.3731572
1.375427
1.3777052
1.3799912
1.3822837
1.3845819
1.3868847
1.3891913
1.3915002
1.393811
1.3961216
1.3984317
1.4007388
1.4030432
1.4053422
1.4076362
1.4099222
1.4122008
1.4144686
1.4167265
1.418971
1.3335554
1.3344949
1.3354823
1.3365009
1.3375508
1.338632
1.3397446
1.3408888
1.3420644
1.3432717
1.3445106
1.3457811
1.3470834
1.3484173
1.3497829
1.3511802
1.3526091
1.3540696
1.3555615
1.357085
1.3586398
1.3602258
1.3618429
1.3634909
1.3651697
1.3668791
1.3686189
1.370389
1.372189
1.3740186
1.3758777
1.3777658
1.3796828
1.3816279
1.3836012
1.385602
1.38763
1.3896846
1.3917657
1.3938724
1.3960045
1.3981614
1.4003421
1.4025463
1.4047731
1.4070222
1.4092925
1.4115837
1.4138947
1.4162246
1.4185728
1.4209384
1.4233205
1.4257185
1.4281313
1.4305583
1.432998
1.4354501
1.4379129
1.4403853
1.4428666
1.4453554
1.4478508
1.4503516
1.4528571
1.4553654
1.4578762
1.4603871
1.4628978
1.4654052
1.4679104
1.4704099
1.4729045
1.4753905
1.4778689
1.4803357
1.4827921
1.4852342
1.3918128
1.3928058
1.3938501
1.3949286
1.3960414
1.3971887
1.3983706
1.3995871
1.4008382
1.4021242
1.4034449