y,R_0,R_1,R_2,R_3,R_4,R_5
0,6.6666667e-11,0,0,6.6666667e-11,0,6.6666667e-11
0.00048240845,1.8907417e-07,7.8737301e-11,-5.3183907e-29,1.8907422e-07,6.2230898e-26,1.890742e-07
0.00098049384,2.9078348e-07,7.9355331e-10,-1.0679331e-33,2.9078448e-07,1.1526866e-25,2.9078398e-07
0.0014947656,1.1147501e-06,6.5182323e-09,-6.960941e-32,1.114762e-06,1.1352334e-31,1.1147561e-06
0.0020257498,3.2107843e-06,3.3017657e-08,1.9032811e-31,3.2108638e-06,-7.3260995e-31,3.2108241e-06
0.0025739895,7.4376962e-06,1.2101274e-07,-2.7121331e-30,7.438064e-06,-4.8891144e-30,7.4378801e-06
0.0031400454,1.4890473e-05,3.5580429e-07,-5.4234802e-30,1.4891798e-05,4.4181083e-29,1.4891135e-05
0.0037244966,2.6914605e-05,8.9348319e-07,5.4599949e-29,2.6918597e-05,4.0507536e-29,2.6916601e-05
0.0043279408,4.5127935e-05,1.9937274e-06,1.7256594e-29,4.5138458e-05,-7.0275326e-29,4.5133197e-05
0.0049509953,7.1438189e-05,4.0577094e-06,1.2999997e-28,7.1463193e-05,6.3897068e-28,7.1450692e-05
0.0055942973,0.00010804658,7.6666441e-06,1.2152245e-27,0.00010810127,1.2925137e-27,0.00010807392
0.0062585048,0.00015742447,1.3611301e-05,2.6975185e-27,0.00015753628,-8.3540697e-28,0.00015748038
0.0069442972,0.00022224576,2.2895056e-05,2.5543267e-27,0.00022246164,-2.1073109e-27,0.00022235371
0.007652376,0.00030525458,3.6683989e-05,4.7755142e-27,0.00030565152,-1.6442795e-27,0.00030545308
0.0083834654,0.000409052,5.6172343e-05,4.1174102e-27,0.00040975111,-3.7509026e-27,0.0004094016
0.0091383131,0.0005357999,8.2340805e-05,5.6615206e-27,0.00053698452,-1.8859926e-26,0.00053639227
0.0099176913,0.00068687218,0.00011562143,-2.7349739e-26,0.0006888096,-2.3187437e-26,0.00068784094
0.010722397,0.00086252487,0.00015554911,-3.1444853e-26,0.00086559015,5.2649652e-26,0.00086405748
0.011553254,0.0010616886,0.00020054589,6.9122787e-26,0.0010663879,4.7225736e-26,0.0010640381
0.012411111,0.001281978,0.00024799014,2.9978754e-26,0.0012889681,-7.111549e-26,0.0012854727
0.013296846,0.0015199503,0.00029462165,-5.7038728e-26,0.0015300497,-3.4613266e-26,0.0015249993
0.014211364,0.0017715489,0.00033716275,-2.176392e-26,0.0017857393,2.8827511e-26,0.0017786432
0.015155603,0.0020326056,0.00037291573,-3.7950425e-26,0.0020520221,-4.166675e-26,0.0020423128
0.016130526,0.0022992669,0.00040012527,-2.2726106e-25,0.0023251794,-6.8497258e-26,0.0023122223
0.017137132,0.0025682685,0.00041803459,-3.0150318e-25,0.0026020586,2.2837456e-25,0.002585163
0.018176449,0.0028370468,0.00042670773,6.8187387e-25,0.0028801833,4.1243787e-25,0.0028586149
0.019249542,0.0031037256,0.00042675215,1.3443003e-24,0.0031577423,-1.1569513e-25,0.0031307342
0.020357507,0.0033670278,0.00041905205,3.8317562e-25,0.0034335053,-3.5147568e-25,0.0034002671
0.021501477,0.0036261586,0.00040457037,3.460332e-25,0.0037067106,1.5210053e-25,0.0036664354
0.022682624,0.0038806879,0.00038422549,1.7504968e-24,0.0039769518,8.6759108e-26,0.0039288208
0.023902154,0.0041304489,0.0003588276,9.9448027e-25,0.0042440801,-4.212992e-25,0.0041872656
0.025161316,0.0043754563,0.00032906029,-5.5332437e-25,0.0045081249,-6.1859289e-25,0.0044417918
0.026461397,0.0046158447,0.00029548271,-3.3938307e-24,0.0047692347,-2.6037234e-25,0.0046925408
0.027803728,0.0048518238,0.00025853986,-2.631259e-24,0.005027633,5.0024304e-25,0.0049397295
0.02918968,0.0050836471,0.00021858081,2.1641748e-26,0.0052835881,3.2575201e-25,0.0051836187
0.030620672,0.0053115902,0.00017587862,-7.0507224e-25,0.0055373919,2.3674677e-25,0.0054244921
0.032098167,0.0055359363,0.00013064051,2.5317404e-24,0.0057893457,5.0283767e-25,0.0056626419
0.033623676,0.0057569673,8.3019547e-05,3.9893897e-24,0.0060397508,-3.6081425e-25,0.0058983599
0.03519876,0.0059749578,3.3131195e-05,-1.6674913e-24,0.0062889028,-3.6662404e-25,0.0061319311
0.03682503,0.0061901718,-1.8942108e-05,1.0924793e-24,0.0065370884,4.7829585e-25,0.0063636308
0.03850415,0.0064028607,-7.3145899e-05,3.835752e-24,0.006784583,2.2429323e-25,0.0065937225
0.040237836,0.0066132637,-0.00012944502,3.8275901e-24,0.0070316503,-1.1091036e-25,0.0068224576
0.042027862,0.0068216064,-0.00018782522,3.0252175e-24,0.0072785419,2.8504786e-25,0.0070500748
0.043876059,0.0070281024,-0.00024828761,8.2197639e-24,0.0075254974,6.6990476e-25,0.0072768006
0.045784317,0.007232954,-0.00031083808,1.1467783e-23,0.0077727454,-4.4507395e-25,0.0075028504
0.047754588,0.0074363531,-0.00037549393,9.3976087e-25,0.0080205037,-1.5575746e-24,0.0077284289
0.049788888,0.0076384811,-0.00044228583,-1.062802e-23,0.0082689802,-2.4729143e-25,0.007953731
0.051889297,0.0078395112,-0.00051124939,-1.3301797e-24,0.0085183735,7.0075603e-25,0.0081789427
0.054057963,0.0080396095,-0.00058242541,-1.3966545e-24,0.0087688744,-2.852876e-25,0.0084042422
0.056297104,0.0082389351,-0.00065586065,-4.6482662e-24,0.0090206653,-3.2017432e-25,0.0086298004
0.058609012,0.0084376421,-0.00073160307,-7.053221e-24,0.0092739218,-1.1293216e-24,0.0088557819
0.06099605,0.0086358793,-0.00080971087,-2.4675036e-23,0.0095288133,1.1163451e-24,0.0090823462
0.06346066,0.0088337918,-0.00089024577,2.5950304e-23,0.0097855029,3.2735779e-24,0.0093096473
0.066005363,0.0090315222,-0.00097326475,2.261669e-23,0.010044149,-1.2155271e-24,0.0095378354
0.068632762,0.0092292114,-0.0010588369,-4.2280395e-24,0.010304904,-4.1533903e-25,0.0097670573
0.071345544,0.0094269975,-0.0011470391,1.9999813e-23,0.010567916,1.8225543e-24,0.0099974565
0.074146484,0.0096250193,-0.0012379406,2.0421679e-23,0.010833331,3.5092416e-25,0.010229175
0.077038447,0.0098234155,-0.0013316119,2.0803761e-23,0.011101289,-6.966672e-25,0.010462352
0.08002439,0.010022325,-0.0014281322,1.035674e-24,0.011371926,-9.7764862e-25,0.010697125
0.083107369,0.010221889,-0.0015275861,3.6650149e-24,0.011645377,-3.4816749e-25,0.010933633
0.086290535,0.010422251,-0.0016300622,-1.6348252e-23,0.011921772,-1.759517e-25,0.011172011
0.089577146,0.010623555,-0.0017356436,7.4240734e-24,0.012201238,1.872523e-24,0.011412396
0.092970562,0.01082595,-0.0018444188,2.2472197e-23,0.012483903,-3.1974674e-24,0.011654926
0.096474255,0.011029589,-0.0019564813,-7.7715137e-23,0.012769887,-9.2992065e-24,0.011899738
0.10009181,0.011234629,-0.0020719248,-1.1607957e-22,0.013059312,-2.1264657e-24,0.01214697
0.10382692,0.011441233,-0.0021908491,-2.1034512e-23,0.013352294,4.5937396e-24,0.012396763
0.10768342,0.011649566,-0.0023133543,-9.0357554e-25,0.01364895,-3.7272647e-25,0.012649258
0.11166524,0.011859804,-0.0024395423,-2.28121e-23,0.013949394,-2.7814819e-24,0.012904598
0.11577645,0.012072125,-0.0025695151,-3.2658541e-23,0.014253736,-4.3842786e-24,0.01316293
0.12002127,0.012286715,-0.0027033811,-8.4860285e-23,0.014562087,-5.1197759e-24,0.0134244
0.12440404,0.012503769,-0.0028412547,-4.6559238e-23,0.014874553,7.7267932e-24,0.01368916
0.12892923,0.012723487,-0.0029832475,1.4048143e-22,0.01519124,1.9464236e-23,0.013957364
0.13360148,0.012946081,-0.0031294719,2.070193e-22,0.015512253,8.2533547e-24,0.014229166
0.13842557,0.013171767,-0.0032800397,6.5558838e-23,0.01583769,-7.5080386e-24,0.014504728
0.14340642,0.013400772,-0.0034350684,-3.7121132e-23,0.016167653,-1.1856556e-23,0.014784212
0.14854914,0.01363333,-0.0035946817,-1.2241744e-22,0.016502239,-1.2325765e-23,0.015067784
0.15385898,0.013869687,-0.0037590074,-1.0211164e-22,0.016841543,-4.6078554e-24,0.015355615
0.15934138,0.014110096,-0.0039281679,-6.2052444e-23,0.017185658,-2.6767315e-24,0.015647877
0.16500194,0.01435482,-0.0041022792,-4.747641e-23,0.017534675,2.9120742e-24,0.015944747
0.17084645,0.014604127,-0.0042814648,9.9822919e-23,0.017888684,1.3923315e-23,0.016246405
0.17688089,0.014858299,-0.0044658571,7.243492e-23,0.018247769,-2.2498107e-24,0.016553033
0.18311143,0.015117625,-0.0046555856,-5.3881053e-23,0.018612015,-1.4071635e-23,0.016864819
0.18954445,0.015382401,-0.004850767,-8.8255254e-23,0.018981502,-9.1182842e-24,0.01718195
0.19618653,0.015652929,-0.0050515255,-7.0847877e-23,0.019356305,-1.0231408e-23,0.017504617
0.20304445,0.015929522,-0.005257986,-1.6876939e-22,0.019736501,-2.4421815e-23,0.017833011
0.21012524,0.016212494,-0.0054702684,-1.6815613e-22,0.020122155,-2.2034935e-23,0.018167324
0.21743614,0.016502166,-0.0056884927,-1.6596779e-22,0.020513331,-2.6489699e-23,0.018507748
0.22498461,0.016798862,-0.0059127648,-1.6482434e-22,0.020910086,-1.5027939e-23,0.018854473
0.23277839,0.017102906,-0.0061431928,2.5400757e-23,0.02131247,3.9781316e-24,0.019207687
0.24082545,0.017414622,-0.0063798807,-1.2141306e-22,0.021720522,-3.0637486e-23,0.019567572
0.24913402,0.017734333,-0.0066229141,-1.6596623e-22,0.022134272,-1.7905381e-23,0.019934303
0.25771259,0.018062355,-0.0068723812,-1.819373e-23,0.022553737,3.7623071e-24,0.020308046
0.26656994,0.018399002,-0.0071283345,-7.0855736e-23,0.022978912,-3.8508489e-23,0.020688956
0.27571513,0.018744566,-0.0073908281,-3.4495024e-22,0.023409785,-9.3600874e-23,0.021077173
0.28515751,0.01909931,-0.0076599203,-2.7153195e-22,0.023846325,-7.025162e-23,0.021472816
0.29490674,0.019463495,-0.0079356126,-3.9041555e-22,0.024288461,-1.5470507e-22,0.021875977
0.3049728,0.019837356,-0.0082178906,-6.9189275e-22,0.024736089,-2.1367047e-22,0.022286721
0.31536597,0.020221092,-0.0085067202,-4.2540295e-22,0.025189069,-9.1131121e-23,0.022705079
0.3260969,0.020614861,-0.0088020311,-1.3021405e-22,0.025647214,-2.3001389e-23,0.023131036
0.33717655,0.021018774,-0.0091037144,-1.3914446e-22,0.026110283,-6.6510659e-23,0.023564527
0.34861625,0.021432889,-0.0094116175,-1.3583522e-22,0.026577968,-2.7783437e-23,0.024005427
0.36042772,0.021857196,-0.0097255371,4.742128e-23,0.027049885,7.8671054e-23,0.024453539
0.37262303,0.022291609,-0.010045212,1.5938517e-22,0.027525558,1.4019912e-22,0.024908583
0.38521464,0.022735953,-0.010370314,1.3608215e-22,0.028004402,1.1168717e-22,0.025370179
0.39821546,0.023189948,-0.01070044,1.6754139e-23,0.028485718,-1.7305867e-23,0.025837834
0.41163876,0.023653192,-0.011035092,-4.0095967e-23,0.028968683,-8.7265713e-23,0.026310925
0.42549828,0.024125137,-0.011373426,-1.0527325e-23,0.029452186,1.9623994e-23,0.026788678
0.4398082,0.024605528,-0.011714049,4.879418e-23,0.029934719,-5.1298988e-23,0.027270145
0.45458315,0.025093542,-0.012055896,7.0063844e-23,0.030414838,-1.646784e-22,0.027754196
0.46983824,0.025587752,-0.012398685,-1.3403525e-22,0.030891615,1.7934646e-22,0.028239492
0.48558908,0.026086934,-0.012741711,-2.4727948e-22,0.031363506,2.1534222e-22,0.028724455
0.50185179,0.026589602,-0.013092179,-2.2529182e-23,0.03182594,-7.0960389e-23,0.029207225
0.51864298,0.027098681,-0.013473703,1.177269e-22,0.03227075,-1.1427221e-22,0.029686084
0.53597984,0.027645412,-0.01379771,1.4220168e-22,0.032673593,-7.2751723e-23,0.030161453
0.5538801,0.028234259,-0.014041177,-3.1106305e-23,0.03303539,-3.5821757e-25,0.030634708
0.57236207,0.028825435,-0.014281286,2.8059448e-22,0.033378211,-1.1292922e-22,0.031100636
0.59144465,0.029391079,-0.01450932,3.3748951e-22,0.033701259,-1.0382705e-22,0.031545558
0.61114736,0.029912588,-0.014717074,1.9448767e-22,0.03399293,-8.2842462e-23,0.031952623
0.63149036,0.030377266,-0.014897697,7.1471849e-22,0.034233811,-2.2876775e-22,0.032305604
0.65249445,0.030775788,-0.015045494,9.4367587e-23,0.034405196,-7.8251529e-23,0.03259062
0.67418111,0.031099509,-0.015155288,1.3748791e-21,0.034491162,-3.9932603e-22,0.032795457
0.69657252,0.031339728,-0.015222394,2.1447256e-21,0.034479103,-4.6151357e-22,0.032909503
0.7196916,0.031490335,-0.015243946,1.0066528e-21,0.034362432,-1.4377431e-22,0.032926429
0.74356198,0.031543368,-0.015216656,4.5279831e-22,0.034134789,-8.2259388e-23,0.032839097
0.76820808,0.031488973,-0.015136637,3.4651825e-22,0.033789006,-1.3060615e-22,0.032638995
0.79365511,0.031320473,-0.015001698,3.2197793e-21,0.03332187,-5.7219755e-22,0.032321165
0.8199291,0.031033671,-0.014810865,2.6904439e-21,0.032732812,-2.5543818e-22,0.03188323
0.84705692,0.030627845,-0.014564692,-3.1413175e-21,0.032024564,5.7319283e-22,0.031326189
0.87506632,0.030106621,-0.014265526,-2.4670004e-21,0.031203778,3.4104178e-22,0.030655184
0.90398595,0.029478596,-0.013917656,-2.4405548e-21,0.03028148,3.7253823e-22,0.029880024
0.93384539,0.028757556,-0.013527346,-6.2233634e-21,0.029273203,7.363505e-22,0.02901537
0.96467517,0.027962194,-0.013102726,-1.9929479e-21,0.028198738,1.1632819e-22,0.028080464
0.99650683,0.027115243,-0.012653549,4.4857395e-22,0.027081441,-1.0172305e-22,0.027098348
1.0293729,0.026241983,-0.012190787,2.7870035e-22,0.025947063,-5.0264897e-23,0.026094535
1.0633071,0.02536815,-0.011726004,2.1807228e-21,0.024822052,-2.6768122e-22,0.025095111
1.098344,0.024517432,-0.011270443,6.1147112e-21,0.023731372,-5.3571702e-22,0.024124399
1.1345196,0.023708953,-0.0108339,3.3297198e-21,0.022696032,-2.1963719e-22,0.023202465
1.1718707,0.022955356,-0.010423575,-2.7998362e-22,0.021730749,3.5140366e-23,0.022342986
1.2104356,0.022262173,-0.010043262,3.2929777e-21,0.020842136,-2.3642994e-22,0.02155209
1.2502538,0.021628987,-0.0096931614,-6.5012398e-22,0.020028964,1.290258e-23,0.02082851
1.291366,0.021052016,-0.0093699528,8.078161e-21,0.019277308,-6.7885015e-22,0.020164861
1.3338142,0.020525355,-0.0090388237,1.7235014e-20,0.018570153,-1.1652848e-21,0.019548777
1.3776419,0.02003286,-0.0086718796,1.1013023e-20,0.017900933,-6.0981905e-22,0.018966691
1.4228938,0.01955104,-0.0082936036,5.6700916e-21,0.017267244,-3.1928635e-22,0.01840862
1.4696163,0.019067314,-0.0079232104,6.9219902e-21,0.0166675,-5.0757461e-22,0.017867426
1.5178571,0.018581842,-0.0075688179,2.6963146e-20,0.016095552,-1.4859993e-21,0.01733868
1.566098,0.018101239,-0.007242434,1.6909639e-20,0.015546036,-7.2163858e-22,0.016823693
1.6128205,0.017631637,-0.0069448532,-8.257754e-22,0.015017608,1.2700656e-22,0.016324657
1.6580724,0.017173117,-0.006669569,4.5504263e-21,0.014507037,-3.1174331e-22,0.015840073
1.7019001,0.016723575,-0.0064100124,1.6657015e-20,0.0140124,-6.7294492e-22,0.015367972
1.7443483,0.016281571,-0.0061613501,-6.4330352e-21,0.01353301,4.5684086e-22,0.01490728
1.7854605,0.015846266,-0.0059201236,-2.1421307e-20,0.013068206,9.0665909e-22,0.014457235
1.8252786,0.015417338,-0.0056838498,-9.0885073e-21,0.012617426,3.0993818e-22,0.014017385
1.8638436,0.014994883,-0.0054507589,-1.5987783e-20,0.01218046,5.6988267e-22,0.013587673
1.9011947,0.014579285,-0.005219709,-3.1922891e-21,0.011757478,-2.1004772e-23,0.013168379
1.9373703,0.014171097,-0.0049901037,9.3146649e-21,0.011348872,-3.5406011e-22,0.012759979
1.9724072,0.013770924,-0.0047617555,2.281122e-21,0.010955099,-3.5383913e-23,0.012363008
2.0063413,0.013379356,-0.0045347433,1.7788356e-21,0.010576568,-4.7111816e-23,0.011977969
2.0392075,0.012996957,-0.0043093242,1.1134917e-21,0.010213571,-3.8504675e-23,0.011605276
2.0710391,0.012624182,-0.0040858769,5.5902842e-22,0.0098662611,-7.5214211e-24,0.011245231
2.1018689,0.01226137,-0.003864824,-3.4994334e-22,0.0095346452,9.1541396e-24,0.010898011
2.1317283,0.011908774,-0.0036465778,-1.5403634e-22,0.0092185966,5.5641988e-24,0.010563682
2.160648,0.011566549,-0.0034315326,7.3155217e-22,0.0089178702,-5.8431055e-24,0.0102422
2.1886574,0.011234761,-0.0032200404,-2.5941254e-21,0.0086321229,1.2627876e-22,0.0099334365
2.2157852,0.010913439,-0.0030124502,-7.6792809e-21,0.0083609331,1.9800278e-22,0.0096371851
2.2420592,0.01060255,-0.002809059,-4.120654e-21,0.0081038198,3.4633292e-23,0.0093531831
2.2675062,0.01030199,-0.0026100699,3.316235e-21,0.007860265,-8.2679123e-23,0.0090811232
2.2921523,0.01001162,-0.0024156618,-3.9088375e-21,0.0076297251,8.5712719e-23,0.0088206652
2.3160227,0.0097312572,-0.0022259762,3.1147449e-21,0.007411644,-7.3831438e-23,0.008571446
2.3391418,0.0094607536,-0.0020411849,-2.9423354e-21,0.0072054238,8.8785939e-23,0.0083330933
2.3615332,0.0091999806,-0.0018613491,-1.0441597e-21,0.0070104877,2.4287372e-23,0.0081052362
2.3832198,0.0089487209,-0.0016864557,-2.3187396e-21,0.0068263053,1.2092515e-22,0.0078875058
2.4042239,0.0087067328,-0.0015165825,-1.1583731e-20,0.0066523405,2.6765038e-22,0.0076795379
2.4245669,0.0084738711,-0.0013517268,-7.3936535e-21,0.0064880792,4.8398163e-23,0.0074809797
2.4442696,0.0082499548,-0.0011918392,6.5771826e-22,0.0063330276,-1.4839063e-22,0.0072914933
2.4633522,0.0080347913,-0.0010368927,1.0336124e-20,0.0061867192,-2.2422829e-22,0.0071107583
2.4818342,0.0078282207,-0.00088684212,5.3589371e-21,0.0060487177,-5.9092316e-23,0.0069384728
2.4997344,0.0076300854,-0.00074162287,5.3437e-21,0.0059186143,-5.8730442e-23,0.0067743546
2.5170713,0.0074402443,-0.00060115551,1.5093079e-21,0.0057960303,6.8896483e-23,0.0066181421
2.5338625,0.0072585635,-0.00046533737,-5.6143793e-21,0.0056806181,9.5990461e-23,0.0064695942
2.5501252,0.0070849105,-0.00033408174,5.4533647e-22,0.0055720597,-1.0226962e-22,0.006328491
2.565876,0.0069191862,-0.00020729575,4.8069763e-21,0.0054700675,-8.7956502e-23,0.0061946323
2.5811311,0.0067612943,-8.487585e-05,2.0543334e-21,0.0053743831,4.1812323e-23,0.006067838
2.5959061,0.0066111242,3.3279998e-05,-2.8007446e-21,0.0052847756,1.2346217e-22,0.0059479466
2.610216,0.0064685963,0.00014730443,-6.323098e-21,0.0052010411,8.6423008e-23,0.0058348145
2.6240755,0.0063336304,0.00025729859,-2.5630343e-21,0.0051230019,-2.4450875e-23,0.0057283149
2.6374988,0.0062061682,0.00036337589,-2.3694459e-22,0.0050505049,-3.3620605e-23,0.005628336
2.6504996,0.0060861368,0.00046568374,9.9087778e-22,0.004983418,-3.8661468e-23,0.0055347798
2.6630913,0.0059734816,0.00056431665,2.1253124e-21,0.0049216293,-1.2083822e-23,0.0054475602
2.6752866,0.0058681536,0.00065940545,-3.1617857e-22,0.0048650456,2.478328e-23,0.0053666016
2.687098,0.0057700781,0.00075108386,1.1066601e-22,0.004813589,-2.114721e-23,0.0052918361
2.6985377,0.0056792053,0.00083944291,1.3326007e-21,0.0047671954,-2.3135676e-23,0.0052232027
2.7096174,0.0055954752,0.00092464902,7.3355199e-22,0.0047258111,3.4796709e-23,0.0051606444
2.7203483,0.005518818,0.0010068333,-1.9739857e-21,0.0046893907,6.4321816e-23,0.0051041061
2.7307415,0.005449169,0.0010860999,-2.4939547e-21,0.0046578948,7.6000126e-24,0.0050535333
2.7408075,0.005386459,0.0011625953,-4.9453455e-22,0.0046312867,-4.4404961e-23,0.0050088694
2.7505568,0.0053305824,0.0012364463,1.1697751e-21,0.0046095309,-4.8326027e-23,0.0049700541
2.7599992,0.0052814476,0.0013077752,2.0585151e-21,0.0045925907,-1.1134494e-23,0.0049370218
2.7691443,0.0052389701,0.001376718,5.1550514e-22,0.0045804256,2.9818995e-23,0.0049096997
2.7780017,0.0052030254,0.0014434214,-3.6923563e-22,0.0045729895,1.165909e-23,0.0048880067
2.7865803,0.0051734772,0.0015080102,-7.6950073e-23,0.0045702294,4.5950451e-24,0.0048718522
2.7948888,0.0051501988,0.0015706027,-5.4732312e-22,0.0045720953,1.1159351e-23,0.0048611472
2.8029359,0.0051330445,0.0016313305,-4.646288e-22,0.0045785188,-1.2825823e-24,0.0048557823
2.8107297,0.0051218205,0.0016903214,-2.2990209e-22,0.0045893938,-5.3914077e-24,0.0048556083
2.8182781,0.0051163452,0.0017476847,-2.6756433e-23,0.0046046251,-8.0346759e-24,0.0048604873
2.825589,0.0051164475,0.0018035177,2.4876181e-22,0.0046241221,-7.5232456e-24,0.0048702863
2.8326698,0.0051219228,0.0018579424,2.7913464e-22,0.0046477688,-5.7217377e-24,0.0048848467
2.8395278,0.0051325589,0.0019110668,4.1065408e-22,0.0046754375,-4.6887696e-26,0.0049039986
2.8461698,0.0051481353,0.0019629581,1.0281421e-22,0.0047069887,6.6906174e-25,0.0049275608
2.8526028,0.0051684121,0.0020136909,2.9965713e-22,0.0047422717,-9.4710511e-24,0.004955342
2.8588334,0.0051931531,0.0020633468,4.5373849e-22,0.0047811245,-1.7873535e-24,0.0049871408
2.8648678,0.0052221156,0.0021119818,2.2068105e-22,0.0048233747,3.7286792e-24,0.0050227466
2.8707123,0.0052550403,0.0021596284,1.6881253e-22,0.0048688394,3.5293118e-24,0.00506194
2.8763729,0.0052916636,0.0022063248,-2.3901549e-24,0.0049173266,8.2784591e-24,0.0051044942
2.8818553,0.0053317169,0.0022521026,-1.9547947e-22,0.0049686355,7.074828e-24,0.0051501752
2.8871651,0.0053749284,0.0022969597,-2.4445455e-22,0.0050225579,2.3724178e-24,0.0051987433
2.8923079,0.005421029,0.0023408874,-2.1812155e-22,0.0050788786,-9.5239812e-24,0.0052499543
2.8972887,0.0054697434,0.0023838855,1.9595528e-22,0.0051373776,-1.0352034e-23,0.0053035604
2.9021128,0.0055207941,0.0024259312,1.6786943e-22,0.0051978312,4.764195e-24,0.0053593126
2.9067851,0.0055739096,0.0024669848,-3.071028e-23,0.0052600141,9.7645528e-25,0.0054169616
2.9113102,0.0056288208,0.0025070082,1.185383e-22,0.0053236978,-5.8135191e-24,0.0054762604
2.915693,0.0056852649,0.0025459541,1.6024699e-22,0.005388655,-1.0395525e-24,0.0055369665
2.9199378,0.0057429861,0.0025838594,1.1653073e-22,0.0054546983,4.3829943e-25,0.0055988439
2.924049,0.005801799,0.0026229542,1.1016541e-22,0.0055215637,-1.3935973e-24,0.0056616683
2.9280309,0.0058612198,0.0026585677,1.3719602e-22,0.0055893666,-1.8795776e-24,0.0057252844
2.9318874,0.0059211512,0.0026889601,1.4386172e-22,0.0056580926,5.3447476e-24,0.005789627
2.9356225,0.0059817639,0.0027193539,-6.2534512e-23,0.0057271818,8.6824189e-24,0.0058544794
2.93924,0.0060426067,0.0027497377,-1.3556751e-22,0.0057960976,-5.074445e-25,0.0059193547
2.9427437,0.0061030472,0.0027798311,-3.0444845e-23,0.0058642438,-3.6153294e-24,0.005983646
2.9461371,0.006162412,0.0028093416,-1.2562247e-23,0.0059310239,2.1486709e-24,0.006046718
2.9494237,0.0062200498,0.0028379859,-8.5528889e-23,0.0059958632,1.8307433e-24,0.0061079564
2.9526069,0.0062753572,0.002865501,-5.44336e-23,0.0060582253,-5.8058798e-24,0.006166791
2.9556899,0.0063277889,0.0028916478,8.6700611e-23,0.0061176198,-4.1846488e-24,0.0062227041
2.9586758,0.0063768586,0.0029162111,5.829365e-23,0.0061736029,3.7862581e-24,0.0062752304
2.9615678,0.0064221338,0.0029389981,-2.4105036e-23,0.0062257731,5.3057661e-24,0.0063239532
2.9643687,0.0064632315,0.002959836,-8.1462436e-23,0.0062737677,8.9274575e-25,0.0063684995
2.9670815,0.0064998114,0.0029785696,-4.101801e-23,0.0063172574,-5.6993162e-24,0.0064085343
2.9697089,0.0065315696,0.002995059,6.5885701e-23,0.006355943,-4.4268979e-24,0.0064437562
2.9722536,0.0065582336,0.0030091777,6.6413286e-23,0.0063895513,1.4162217e-24,0.0064738924
2.9747182,0.0065795573,0.0030208104,2.4728975e-23,0.0064178315,2.6668437e-24,0.0064986944
2.9771053,0.0065953164,0.0030298509,-1.3481996e-24,0.0064405514,1.2459929e-24,0.0065179339
2.9794172,0.0066053008,0.0030361994,-5.6815444e-24,0.0064574911,-2.8445009e-25,0.0065313959
2.9816563,0.0066093095,0.0030397602,4.9573932e-24,0.0064684382,-1.5255004e-25,0.0065388739
2.983825,0.0066071646,0.0030404472,-1.8461087e-24,0.0064732012,5.8450538e-25,0.0065401829
2.9859254,0.0065986858,0.0030381735,-7.395494e-24,0.0064715859,5.7754408e-25,0.0065351358
2.9879597,0.006583678,0.0030328452,-1.2768621e-23,0.0064633824,-4.1853683e-25,0.0065235302
2.98993,0.0065619463,0.0030243682,1.5676912e-24,0.0064483805,-7.6023076e-25,0.0065051634
2.9918382,0.0065332825,0.0030126422,3.2767497e-24,0.0064263567,1.127621e-25,0.0064798196
2.9936864,0.0064974612,0.002997559,-2.4370276e-25,0.0063970699,2.5936909e-25,0.0064472656
2.9954764,0.0064542307,0.0029789979,-1.9227559e-24,0.0063602528,1.7042307e-25,0.0064072418
2.9972101,0.0064033096,0.0029568248,-3.3722076e-24,0.0063156085,-2.1899497e-25,0.006359459
2.9988893,0.0063443841,0.0029308906,2.0825436e-24,0.0062628085,-1.0906652e-25,0.0063035962
3.0005155,0.0062770994,0.0029010272,-9.2495542e-25,0.0062014832,1.6632433e-25,0.0062392913
3.0020906,0.0062010538,0.0028670448,-1.1849139e-24,0.0061312168,-5.9940391e-25,0.0061661353
3.0036161,0.0061157937,0.0028287299,7.6997593e-24,0.0060515427,-2.9705506e-25,0.0060836682
3.0050936,0.0060208097,0.0027858434,3.6117314e-24,0.0059619388,4.5409096e-25,0.0059913743
3.0065246,0.0059155331,0.002738119,4.3412056e-25,0.0058618249,1.5175699e-25,0.005888679
3.0079106,0.005799334,0.0026852629,9.5437726e-25,0.005750561,5.733626e-27,0.0057749475
3.0092529,0.0056715229,0.0026269549,2.0676736e-25,0.0056274483,1.4953051e-25,0.0056494856
3.010553,0.005531355,0.0025628507,-1.00206e-24,0.0054917345,5.790799e-25,0.0055115447
3.0118121,0.0053780381,0.0024925632,-5.7808387e-24,0.0053426214,4.6167121e-25,0.0053603297
3.0130317,0.0052107487,0.0024156801,-5.4864154e-24,0.0051792812,-3.2258165e-25,0.0051950149
3.0142128,0.0050286613,0.0023318455,-1.6021659e-24,0.0050008844,-4.0771869e-25,0.0050147728
3.0153568,0.0048309873,0.0022407209,-5.9789202e-25,0.0048066401,-4.1942354e-25,0.0048188137
3.0164647,0.0046170265,0.0021419688,2.1456494e-24,0.0045958483,-2.6570473e-25,0.0046064374
3.0175378,0.0043862326,0.0020353306,1.7197313e-24,0.0043679645,2.1832672e-25,0.0043770983
3.0185772,0.0041382772,0.0019206529,5.3098702e-26,0.004122663,2.5142909e-25,0.0041304704
3.0195838,0.0038730086,0.0017966844,-4.3199438e-25,0.003859805,4.5495335e-26,0.0038664073
3.0205587,0.00359024,0.0016575526,-2.8843151e-25,0.0035792492,-2.1871013e-25,0.003584744
3.0215029,0.0032903364,0.0015038198,8.4180119e-25,0.003281361,-1.6738726e-25,0.0032858484
3.0224174,0.0029750456,0.0013407009,6.4398006e-25,0.0029678585,8.5996542e-26,0.0029714522
3.0233032,0.0026476637,0.0011695291,1.5955754e-25,0.0026420408,1.2627669e-25,0.0026448523
3.024161,0.0023132254,0.00099377461,-9.7499302e-26,0.0023089431,-1.9839723e-26,0.0023110843
3.0249919,0.0019786212,0.00081846751,1.2873127e-25,0.0019754599,-6.7422263e-26,0.0019770406
3.0257966,0.0016523653,0.00064998369,1.5511905e-25,0.0016501135,2.7296061e-26,0.0016512394
3.026576,0.0013438692,0.0004952846,-3.283014e-27,0.0013423286,1.4084249e-26,0.0013430989
3.0273308,0.0010622258,0.00036064179,3.2780011e-26,0.0010612174,-1.0596908e-26,0.0010617216
3.0280619,0.00081476514,0.00025022829,2.1814564e-26,0.00081413563,1.4084017e-26,0.00081445039
3.02877,0.00060585516,0.00016519854,-1.0435415e-26,0.00060548135,1.1435334e-26,0.00060566825
3.0294558,0.00043639676,0.00010371742,-9.7575183e-27,0.00043618605,4.1265053e-28,0.0004362914
3.03012,0.00030415426,6.187596e-05,-4.0795995e-27,0.00030404183,-2.7578957e-27,0.00030409804
3.0307633,0.00020468812,3.4970773e-05,3.6670212e-29,0.00020463165,-2.0493191e-27,0.00020465988
3.0313863,0.00013247091,1.8574447e-05,9.479381e-28,0.0001324445,6.3415085e-29,0.0001324577
3.0319898,8.1838363e-05,9.1159974e-06,-4.0999466e-29,8.1827096e-05,5.5515553e-29,8.1832728e-05
3.0325742,4.7625272e-05,4.0075721e-06,1.2057899e-28,4.7621037e-05,-1.7327028e-28,4.7623154e-05
3.0331403,2.5494651e-05,1.498831e-06,8.1725448e-29,2.5493326e-05,3.7839619e-29,2.5493989e-05
3.0336885,1.2028882e-05,4.4053868e-07,-2.8742439e-30,1.2028565e-05,1.9758811e-29,1.2028723e-05
3.0342195,4.6414949e-06,9.0471919e-08,7.0020042e-31,4.6414445e-06,2.683929e-30,4.6414697e-06
3.0347338,1.3624321e-06,1.1017633e-08,-2.2580584e-31,1.3624277e-06,4.3742625e-31,1.3624299e-06
3.0352319,9.0560339e-07,9.7692751e-10,-8.1853536e-33,9.0560322e-07,-3.0333785e-32,9.0560331e-07
3.0357104,7.4003548e-09,7.9118651e-12,-6.6301744e-35,7.4003533e-09,-2.4570163e-34,7.4003541e-09
