/*--------------------------------*- C++ -*----------------------------------*\
| =========                 |                                                 |
| \\      /  F ield         | OpenFOAM: The Open Source CFD Toolbox           |
|  \\    /   O peration     | Version:  2.4.0                                 |
|   \\  /    A nd           | Web:      www.OpenFOAM.org                      |
|    \\/     M anipulation  |                                                 |
\*---------------------------------------------------------------------------*/
FoamFile
{
    version     2.0;
    format      ascii;
    class       volScalarField;
    location    "10000";
    object      nut;
}
// * * * * * * * * * * * * * * * * * * * * * * * * * * * * * * * * * * * * * //

dimensions      [0 2 -1 0 0 0 0];

internalField   nonuniform List<scalar> 
9754
(
0.0096379294
0.0083791351
0.0071955664
0.0061899494
0.0053694186
0.0046994593
0.0041540234
0.0037235712
0.0034065536
0.003200177
0.003095743
0.0030846644
0.0031321011
0.010761281
0.0095589348
0.0083438921
0.0072262665
0.0062812783
0.0055024639
0.0048586335
0.0043302228
0.0039104727
0.0035982056
0.0033904616
0.0032823809
0.0032643789
0.011842921
0.010725835
0.0095502935
0.0083823724
0.0073238899
0.006427666
0.005680501
0.005056371
0.0045399351
0.00412614
0.0038132289
0.0036009775
0.0034850564
0.003455272
0.00349542
0.003581472
0.0036939691
0.0038205808
0.0039486287
0.0038849068
0.0037876173
0.0036976334
0.003637562
0.018659859
0.0179659
0.017217942
0.016426126
0.015599434
0.014739711
0.013837575
0.012879196
0.011852243
0.010755124
0.0096113214
0.0084906896
0.0074836026
0.0066258395
0.005902768
0.0052927988
0.004783859
0.0043708741
0.0040538405
0.0038339565
0.0037057304
0.0036607371
0.0036921774
0.0037739607
0.0038803858
0.0040085793
0.0041439853
0.0042086114
0.0041378089
0.0040665532
0.023255254
0.023194945
0.023129676
0.023053789
0.022963565
0.022853551
0.022719284
0.022553894
0.022354384
0.022119177
0.021845769
0.021531146
0.02117206
0.02076552
0.020308278
0.019796527
0.019227143
0.018601273
0.017913461
0.017178948
0.016405881
0.015600316
0.01475903
0.013872771
0.012929863
0.011921645
0.010849555
0.0097408904
0.0086663248
0.0077026329
0.0068748043
0.0061692996
0.0055688051
0.0050624843
0.0046466296
0.0043231523
0.0040919633
0.003949446
0.0038859685
0.0039052366
0.0039778864
0.0040798251
0.0042036899
0.0043434253
0.0044896072
0.004529867
0.023390935
0.023337186
0.023277952
0.023209552
0.023127523
0.02302774
0.022906045
0.022756249
0.022575843
0.022363592
0.022117382
0.021834533
0.021511923
0.021146551
0.020735346
0.020274899
0.019761816
0.019194187
0.018574328
0.017898707
0.01718232
0.016431947
0.015648339
0.01482699
0.013959466
0.013036498
0.012051745
0.011008397
0.0099367798
0.0089045639
0.007976612
0.0071718091
0.0064792092
0.0058838891
0.0053767215
0.0049564045
0.0046239022
0.0043796385
0.0042195058
0.0041365077
0.0041386977
0.0041915221
0.0042918385
0.0044110564
0.004548335
0.0047004605
0.023521331
0.023473785
0.023419917
0.023358734
0.02328413
0.023193657
0.023083455
0.02294791
0.022784941
0.022593635
0.022372244
0.022118466
0.021829431
0.021502225
0.021133887
0.020721319
0.020261328
0.019751279
0.01919043
0.018582107
0.017924255
0.017230214
0.016503757
0.015743229
0.014943836
0.014098394
0.013199488
0.012241904
0.011230365
0.010196318
0.0092025189
0.0083041463
0.0075173753
0.006833319
0.0062395944
0.0057302111
0.0053036632
0.0049606092
0.0047011734
0.004520326
0.0044229764
0.0043906093
0.0044286329
0.0045190915
0.0046332052
0.0047673615
0.023724256
0.023689473
0.023647448
0.023604803
0.023556678
0.023500941
0.023433621
0.023351748
0.023252075
0.023129552
0.02298248
0.022810234
0.022611407
0.022384079
0.02212571
0.021833579
0.02150485
0.021136647
0.020726049
0.020270329
0.019767702
0.01921849
0.018626912
0.017992058
0.017321757
0.016620311
0.015884406
0.015109426
0.014289429
0.013418049
0.012490923
0.011513767
0.010517652
0.0095589515
0.0086855369
0.0079122716
0.0072330117
0.0066395467
0.0061266255
0.0056925572
0.005338134
0.0050602598
0.004863133
0.0047417705
0.0046807409
0.0046966766
0.0047601393
0.004873486
0.0050029214
0.0051502313
0.0053144688
0.0054920618
0.005680583
0.0058795779
0.0060601151
0.0061592621
0.0061995113
0.0062669905
0.0063665107
0.0064826005
0.0065845049
0.0066701305
0.023836063
0.023805286
0.023768697
0.0237303
0.023687595
0.023637081
0.0235763
0.023502339
0.023412342
0.023301744
0.023169175
0.023014263
0.022835908
0.02263255
0.022402016
0.022141863
0.021849437
0.021522051
0.021157029
0.020751778
0.020304166
0.019813241
0.019280315
0.018710139
0.018101048
0.017455467
0.016780375
0.016070914
0.015322984
0.014531443
0.013690648
0.012796743
0.011855841
0.010897
0.0099703738
0.0091180508
0.0083550959
0.0076798269
0.0070864833
0.0065695191
0.0061281183
0.0057598199
0.0054666046
0.005249743
0.0051001699
0.0050226503
0.004997469
0.0050406019
0.0051294893
0.0052580408
0.0054005931
0.005559544
0.0057339972
0.0059223697
0.0061221304
0.0063313
0.0065480751
0.0067713931
0.0069127446
0.0070097357
0.0071436444
0.0072232735
0.023943594
0.023915788
0.02388451
0.0238502
0.02381272
0.023767016
0.02371224
0.023645599
0.023564539
0.023464911
0.023345617
0.023206492
0.023046708
0.022865032
0.022659654
0.022428463
0.022169054
0.021878943
0.021555669
0.021196839
0.020800296
0.020364531
0.019889548
0.019377801
0.018830874
0.018249506
0.017629695
0.016982265
0.016301332
0.01558294
0.014822535
0.014014973
0.013156704
0.01225352
0.011331763
0.010435188
0.0096016962
0.008848669
0.0081777439
0.007583627
0.0070631003
0.0066130108
0.0062327602
0.0059245876
0.0056842666
0.0055144705
0.0054099218
0.005357548
0.0053681304
0.005427842
0.0055328775
0.005669984
0.0058257079
0.0059948914
0.0061777383
0.0063730888
0.0065792916
0.0067939479
0.0070145519
0.0072394364
0.0074670838
0.0076941804
0.024000166
0.023969735
0.024046046
0.024020811
0.02399433
0.023965371
0.023931083
0.023890361
0.023841293
0.023781506
0.023708772
0.023619307
0.023512231
0.023387545
0.023244644
0.023082584
0.022899898
0.022694819
0.022465243
0.022208927
0.021923624
0.021607146
0.021257451
0.020872853
0.020452648
0.019997929
0.019509409
0.018987763
0.018434894
0.017844966
0.017224629
0.016573776
0.01588698
0.015160064
0.014388083
0.013567651
0.012704007
0.011819724
0.010952605
0.0101386
0.0093960609
0.0087290909
0.0081352975
0.0076108898
0.0071532116
0.0067625929
0.0064375403
0.0061792928
0.0059867536
0.0058570883
0.0057822611
0.0057583102
0.0057909043
0.00586043
0.0059728323
0.0061152314
0.0062779802
0.0064570996
0.0066461738
0.0068453671
0.0070530601
0.0072673851
0.0074864049
0.0077077433
0.024138592
0.024116949
0.024094886
0.024067539
0.02414235
0.024120254
0.024098381
0.0240738
0.024043
0.024006825
0.023963163
0.023909857
0.023844952
0.023764988
0.023669249
0.023557854
0.023430376
0.023286116
0.02312391
0.022942327
0.022739586
0.022513722
0.022262721
0.021984605
0.021677499
0.021339733
0.020970287
0.020569389
0.020136923
0.019672997
0.019178986
0.018654572
0.018096712
0.017504546
0.016885136
0.016232084
0.015540651
0.014806237
0.014025557
0.013202548
0.012356116
0.011520188
0.010727508
0.0099974325
0.0093370547
0.0087445902
0.0082174608
0.0077537207
0.0073527448
0.0070150349
0.0067399208
0.0065264301
0.006375157
0.0062735508
0.0062267977
0.0062270695
0.0062723771
0.0063482528
0.0064616001
0.0066038434
0.0067677678
0.0069472074
0.0071386065
0.0073390731
0.0075463024
0.0077582218
0.024221131
0.02420259
0.024183997
0.024161762
0.024232573
0.024214524
0.024196254
0.024174282
0.024147579
0.02411586
0.024077386
0.024030263
0.023972794
0.023901798
0.02381668
0.023717629
0.023604345
0.023476329
0.023332673
0.023172252
0.022993604
0.022795065
0.022574879
0.022331289
0.022062606
0.021767272
0.021444179
0.021093088
0.02071331
0.020304381
0.019866722
0.019400504
0.018904697
0.018381148
0.017822114
0.017233271
0.016614683
0.015960331
0.015265241
0.01452577
0.013744727
0.012938984
0.012137299
0.011369013
0.010654706
0.01000233
0.0094129997
0.0088854638
0.0084175192
0.0080098799
0.0076616761
0.0073722809
0.0071428183
0.0069691626
0.0068479026
0.0067739212
0.0067498515
0.0067654428
0.0068209807
0.0069051432
0.0070207669
0.0071610091
0.0073211411
0.0074971125
0.0076854418
0.0078831988
0.0080881449
0.0082949984
0.0085007101
0.024313197
0.024314227
0.024308601
0.024298083
0.024282607
0.024267259
0.0242503
0.024316685
0.024302219
0.024286374
0.024267079
0.024244259
0.024216827
0.02418334
0.024142155
0.024091806
0.024029361
0.023954299
0.02386683
0.023766737
0.023653667
0.023526922
0.023385639
0.023228654
0.023054601
0.022861997
0.022649323
0.022415092
0.022157897
0.021876665
0.021570953
0.021239765
0.020882252
0.020498137
0.020087359
0.019649387
0.019185721
0.018693682
0.018171624
0.017614691
0.017030682
0.016414707
0.015760124
0.015063381
0.014327555
0.013566145
0.012802679
0.012062702
0.011367228
0.010726234
0.010143736
0.0096175238
0.0091486203
0.0087368998
0.0083818715
0.0080836539
0.0078403146
0.007649616
0.0075102975
0.0074147895
0.0073653439
0.007357881
0.0073872741
0.0074500575
0.0075426097
0.0076609762
0.0078011948
0.0079593897
0.008132382
0.0083188434
0.0085103892
0.0087023472
0.02437773
0.024380126
0.024376241
0.024368822
0.024356125
0.024344036
0.024331415
0.024392771
0.024381781
0.024368227
0.024351738
0.024332355
0.024308952
0.02428024
0.024244777
0.024201293
0.024147073
0.02408163
0.024005149
0.023917451
0.023818277
0.023707093
0.023583247
0.023445834
0.023293765
0.023125834
0.022940767
0.02273729
0.022514169
0.022270429
0.022005575
0.021718506
0.021408178
0.021073894
0.020715236
0.020331675
0.01992365
0.019490345
0.019031683
0.018545687
0.018027822
0.017476846
0.016898387
0.016285488
0.015633831
0.014945893
0.014231928
0.013510474
0.012804392
0.012133505
0.011509333
0.010935689
0.010415087
0.0099490145
0.0095374795
0.0091809649
0.0088772357
0.0086246902
0.0084217889
0.0082678161
0.0081551093
0.0080855576
0.008056275
0.0080655806
0.0081076384
0.0081794487
0.0082782558
0.0084004947
0.0085426756
0.0087046211
0.0088747364
0.0090465614
0.024435604
0.024439159
0.024437338
0.02443189
0.024422075
0.024413257
0.02440444
0.024459695
0.02445179
0.02444084
0.024427043
0.024410838
0.024391234
0.0243671
0.024337166
0.024300339
0.024254093
0.024197937
0.024131997
0.024056081
0.023969983
0.023873279
0.023765483
0.023645899
0.023513684
0.023367887
0.023207478
0.023031404
0.022838613
0.022628259
0.022399881
0.022152398
0.021884726
0.021595967
0.021285441
0.020952508
0.020596994
0.02021845
0.019816656
0.019391354
0.018939912
0.018462472
0.017952
0.017408205
0.01683661
0.01623226
0.015594614
0.014931112
0.014256311
0.013589489
0.012948619
0.01234642
0.011787838
0.01127827
0.010819392
0.010413777
0.010059097
0.0097540594
0.0094970413
0.0092874973
0.0091216037
0.0089995391
0.0089149933
0.0088703788
0.0088635207
0.0088895073
0.0089456342
0.0090294868
0.0091376013
0.0092712327
0.0094157404
0.0095628541
0.02447629
0.024485779
0.024490265
0.024490154
0.02448674
0.024479472
0.024473779
0.024468438
0.024516215
0.024511114
0.024502775
0.024491597
0.024478407
0.024462427
0.0244427
0.024418133
0.024387793
0.024349329
0.024302218
0.024246488
0.024181901
0.024108259
0.024025201
0.023932359
0.0238292
0.023715082
0.023589277
0.023450982
0.023299359
0.023133546
0.022952838
0.022756852
0.022544602
0.022315056
0.022067277
0.021800456
0.021513854
0.021206971
0.020879325
0.020530529
0.020160306
0.019767489
0.01935287
0.018911447
0.018444194
0.017943991
0.017411768
0.016853596
0.016267867
0.015658021
0.015033619
0.014411089
0.013807965
0.013233042
0.012696279
0.01220337
0.011758251
0.011361999
0.011014095
0.010712487
0.010456517
0.010244471
0.010074718
0.0099456073
0.0098553586
0.0098004428
0.009783665
0.0097998136
0.0098461883
0.0099201816
0.010024382
0.010141565
0.010261774
0.010383502
0.010506923
0.024517742
0.024527106
0.024532267
0.024533571
0.024532065
0.024527102
0.024524347
0.024522233
0.024560911
0.024558366
0.024552514
0.024543847
0.024533536
0.024521032
0.02450557
0.024486234
0.024462248
0.024431422
0.024393182
0.024347431
0.024293851
0.024232213
0.024162183
0.024083462
0.023995634
0.023898215
0.023790656
0.023672355
0.023542669
0.023400921
0.023246552
0.023079279
0.022898245
0.02270253
0.02249125
0.022263581
0.022018752
0.021756111
0.021475081
0.021175158
0.020855936
0.02051668
0.020157377
0.019776092
0.019373725
0.018945436
0.018492603
0.01800917
0.017495812
0.016959507
0.016403148
0.015833316
0.015261322
0.014700444
0.014161241
0.013653579
0.013184402
0.012758494
0.012377337
0.012040587
0.01174752
0.011497673
0.011288655
0.011120015
0.010990539
0.010898258
0.010843137
0.010821111
0.010833237
0.010875374
0.010951037
0.011040969
0.011134115
0.011229141
0.011326035
0.024549348
0.024558288
0.024563839
0.024566271
0.024566458
0.024563566
0.024563538
0.024564427
0.024592122
0.024591892
0.024588342
0.024582034
0.024574458
0.024565293
0.024553969
0.02453975
0.024522011
0.024498721
0.024469236
0.02443331
0.024390519
0.024340576
0.024283133
0.024217925
0.024144612
0.024062817
0.023972134
0.023872121
0.023762307
0.023642177
0.023511315
0.023369547
0.023216159
0.023050367
0.022871394
0.022678476
0.022470874
0.022247902
0.022008933
0.021753393
0.021480778
0.021190488
0.020882183
0.020554834
0.02020829
0.019841163
0.01945463
0.01904526
0.018612719
0.018153691
0.017667629
0.017161917
0.016646068
0.016128789
0.015616832
0.015120305
0.014649342
0.014211162
0.013809933
0.013448799
0.013128432
0.012849614
0.012609973
0.012409493
0.012247536
0.012123022
0.012035161
0.011982047
0.01196334
0.011976317
0.012024641
0.012088379
0.012155641
0.012224939
0.012296147
0.024569624
0.024577806
0.024583433
0.024586691
0.024588309
0.024587236
0.024589703
0.024593371
0.024607877
0.024609721
0.024608258
0.024604127
0.02459912
0.024593152
0.024585846
0.024576643
0.024565069
0.024549246
0.024528446
0.024502254
0.024470121
0.024431674
0.024386526
0.024334412
0.024275027
0.024208068
0.024133228
0.024050185
0.023958604
0.023858111
0.023748415
0.023629448
0.023500638
0.02336135
0.02321093
0.023048719
0.022874055
0.022686291
0.022484812
0.02226903
0.022038401
0.02179236
0.021530452
0.02125195
0.020956387
0.02064332
0.020313068
0.019964786
0.019598454
0.01921374
0.018807677
0.018381717
0.017932251
0.017471654
0.017004944
0.016543925
0.016096049
0.015668507
0.015267397
0.014897317
0.014561498
0.014263632
0.01400288
0.013778967
0.013591935
0.013441393
0.01332679
0.013246911
0.013201737
0.013188614
0.013211219
0.013250986
0.01329418
0.013339314
0.013386438
0.024576758
0.024583808
0.024589169
0.024592936
0.024595698
0.024596178
0.024600881
0.024607101
0.024605806
0.024609482
0.024609877
0.024607721
0.024605105
0.024602185
0.024598778
0.024594504
0.024589033
0.024580639
0.024568495
0.024552002
0.024530464
0.024503406
0.024470379
0.024431089
0.02438524
0.024332567
0.024272824
0.024205773
0.02413118
0.024048782
0.023958389
0.023860023
0.023753251
0.023637576
0.023512479
0.023377418
0.023231834
0.02307516
0.022906839
0.022726319
0.022533068
0.022326552
0.022106288
0.02187166
0.021622136
0.021357528
0.021077938
0.020783218
0.020473357
0.020148377
0.019807418
0.019452382
0.019078495
0.01869268
0.018293266
0.017885004
0.01747794
0.017079179
0.016695489
0.016334652
0.016000319
0.015695809
0.015425342
0.015188188
0.014984782
0.014815535
0.014680473
0.014579194
0.014510904
0.014475488
0.014475292
0.014492464
0.014513304
0.014536211
0.014561267
0.024568471
0.024573983
0.024578712
0.024582661
0.024586268
0.02458804
0.024594668
0.024603242
0.024583044
0.024588304
0.024590325
0.024589933
0.024589525
0.024589505
0.024589888
0.024590471
0.024591066
0.024590095
0.024586619
0.024579838
0.024568896
0.024553195
0.02453221
0.024505597
0.024473046
0.0244343
0.024389148
0.024337401
0.024278891
0.024213437
0.024140921
0.024061439
0.023974676
0.023880266
0.023777814
0.023666898
0.02354707
0.023417862
0.023278799
0.0231294
0.022969181
0.022797659
0.022614375
0.022418779
0.02221035
0.021988957
0.021754631
0.02150741
0.021247392
0.020974732
0.020689396
0.020391784
0.02008096
0.019758267
0.019426291
0.019086686
0.018741522
0.018394826
0.018052134
0.017719183
0.017402442
0.017106139
0.016836698
0.016596442
0.016385794
0.016205888
0.016057361
0.015940388
0.015854253
0.015798971
0.015778451
0.01577422
0.015774913
0.015777872
0.015783237
0.024541858
0.024545396
0.02454912
0.024552923
0.024557081
0.024559917
0.024568003
0.024578941
0.024536068
0.024542672
0.024546097
0.024547273
0.024548901
0.024551648
0.02455573
0.024561124
0.024567779
0.024574264
0.024579516
0.024582512
0.024582225
0.024577921
0.024568981
0.024555
0.024535632
0.024510612
0.024479735
0.024442838
0.024399792
0.024350463
0.024294784
0.024232899
0.024164591
0.024089607
0.024007666
0.023918457
0.023821637
0.02371684
0.023603685
0.023481772
0.023350695
0.023210033
0.023059385
0.022898267
0.022726201
0.02254307
0.022348872
0.022143657
0.021927574
0.021700823
0.02146362
0.021216298
0.020958909
0.020691826
0.020416457
0.02013428
0.019846504
0.019556498
0.019267003
0.018980399
0.018701239
0.018433759
0.018182716
0.017952793
0.01774702
0.017566335
0.017412279
0.017285874
0.017187534
0.017117105
0.01707893
0.017056662
0.017040062
0.017025952
0.017014359
0.017003659
0.016995479
0.016989613
0.024500033
0.024504477
0.024508199
0.024517165
0.024530695
0.024460489
0.024468269
0.024472929
0.024475509
0.024479032
0.024484444
0.024492172
0.024502369
0.024515123
0.024529148
0.024543239
0.024556137
0.024566628
0.024573828
0.024577016
0.024575709
0.024569516
0.024558146
0.024541385
0.024519073
0.024491097
0.02445735
0.024417788
0.024372579
0.024321588
0.024264654
0.024201593
0.024132189
0.024056197
0.023973344
0.02388334
0.023785873
0.023680615
0.023567223
0.023445365
0.023314634
0.023174609
0.023025183
0.022866339
0.022698125
0.022520671
0.022334185
0.022138922
0.021935234
0.021723492
0.021504113
0.021277757
0.021046276
0.020810143
0.020571106
0.020330908
0.020091347
0.019855143
0.019625173
0.019404902
0.01919774
0.019008792
0.018839116
0.018690623
0.018564868
0.018462844
0.018385664
0.018335167
0.018300071
0.018269901
0.018242303
0.018217109
0.018193945
0.018172901
0.01815397
0.024419415
0.024423928
0.024428398
0.024438049
0.024454009
0.024351064
0.024359923
0.024365702
0.024369565
0.024374887
0.024382911
0.024394278
0.024409323
0.02442827
0.024449976
0.024473081
0.024496073
0.024517533
0.024536417
0.024551891
0.024563386
0.024570454
0.024572768
0.024570091
0.024562253
0.024549139
0.024530648
0.024506744
0.024477598
0.024443135
0.024403271
0.024357899
0.024306885
0.024250067
0.024187255
0.024118239
0.024042791
0.023960656
0.023871572
0.023775276
0.023671438
0.023559707
0.023439993
0.023312272
0.023176586
0.023033044
0.022881827
0.022723191
0.022557452
0.022385029
0.022206573
0.022022251
0.021833875
0.021642003
0.021447703
0.021252094
0.02105641
0.020862132
0.020671607
0.020486608
0.020309839
0.02014417
0.019993615
0.019858913
0.019741798
0.019643545
0.019565749
0.019510124
0.019466543
0.019426894
0.019389999
0.019355009
0.019321954
0.019290868
0.019261751
0.024305508
0.024309951
0.024315102
0.024325594
0.024343532
0.024201736
0.024211557
0.024218376
0.024223439
0.024230517
0.02424116
0.024256219
0.024276216
0.024301509
0.024331102
0.024363463
0.024396808
0.024429501
0.024460326
0.024488324
0.024512832
0.024533339
0.02454947
0.024560958
0.024567611
0.024569302
0.024565924
0.024557429
0.024543983
0.024525549
0.02450211
0.02447362
0.024440005
0.024401192
0.024357038
0.024307428
0.024252208
0.02419116
0.024124126
0.024050871
0.023971187
0.02388477
0.023791571
0.023691481
0.023584604
0.023471016
0.023350846
0.023224368
0.023091741
0.022953438
0.022810048
0.022662007
0.022510214
0.022356051
0.02219991
0.022042642
0.021885198
0.021728622
0.021574264
0.021423308
0.021278417
0.021139672
0.021011085
0.020894988
0.020791745
0.020702621
0.020628901
0.020573283
0.020526001
0.020479399
0.020435036
0.020392816
0.020352619
0.020314408
0.020278084
0.024151752
0.024156072
0.024161921
0.024173368
0.024193283
0.0240087
0.024019296
0.024027107
0.024033337
0.024042178
0.024055469
0.024074276
0.024099305
0.024131051
0.024168659
0.024210422
0.024254268
0.024298336
0.024341228
0.024381856
0.024419453
0.024453436
0.024483381
0.024508982
0.024530017
0.024546339
0.024557827
0.02456441
0.024566239
0.024563309
0.024555635
0.024543267
0.024526148
0.024504303
0.0244776
0.024446059
0.024409458
0.024367849
0.0243209
0.02426866
0.024210935
0.024147258
0.024077831
0.024002629
0.023921586
0.023834787
0.023742328
0.023644401
0.02354115
0.023433297
0.023320632
0.023203788
0.023083328
0.022960748
0.022835675
0.022709363
0.022583176
0.022457771
0.022333984
0.022212702
0.022095173
0.02198249
0.021875519
0.021777136
0.021687619
0.021608016
0.021539503
0.021484519
0.021436077
0.021387937
0.021341088
0.021296249
0.021253293
0.021212153
0.021172563
0.023953969
0.023958204
0.023964838
0.023977365
0.023999702
0.023774547
0.023785831
0.023794647
0.023802072
0.023812698
0.023828638
0.02385117
0.023881185
0.023919309
0.023964831
0.024015863
0.024070052
0.024125311
0.024180056
0.024233067
0.024283473
0.024330614
0.024374013
0.024413318
0.024448275
0.024478706
0.024504483
0.024525495
0.024541867
0.024553623
0.024560804
0.024563529
0.024561769
0.024555622
0.024544982
0.024529969
0.024510327
0.024486287
0.024457434
0.024424028
0.024385516
0.024342159
0.024293755
0.024240465
0.024181647
0.024117942
0.024049332
0.023976501
0.023898959
0.023816843
0.023730536
0.023641143
0.023548328
0.023452561
0.023354848
0.023256122
0.023155963
0.023055304
0.022954996
0.02285586
0.022758789
0.022664723
0.0225745
0.022489595
0.022412218
0.022342869
0.022282173
0.022232425
0.022187917
0.022144706
0.022102304
0.022060856
0.022020441
0.021981162
0.021942805
0.023714889
0.023719143
0.023726639
0.023740212
0.023502126
0.023502991
0.023515136
0.023525051
0.023533739
0.023546181
0.023564749
0.023590933
0.023625806
0.023670123
0.023723313
0.02378332
0.023847516
0.023913596
0.023979795
0.024044764
0.024107523
0.024167339
0.024223674
0.024276132
0.024324421
0.024368324
0.024407674
0.024442351
0.024472404
0.024497905
0.024518937
0.024535548
0.024547883
0.024555906
0.024559798
0.024559421
0.024554979
0.024546216
0.024533369
0.024516094
0.024494411
0.024468238
0.02443732
0.024401759
0.024361715
0.024316934
0.024267546
0.024213579
0.024155655
0.024093454
0.02402765
0.023958352
0.023886383
0.023812357
0.023737214
0.023660726
0.023583029
0.023504607
0.02342609
0.023348138
0.023271443
0.023196752
0.023124802
0.023056005
0.022992841
0.022936095
0.022885924
0.022845603
0.022809303
0.022773353
0.022737554
0.022702028
0.022666862
0.022632326
0.022598383
0.023438669
0.023443063
0.023451459
0.023465843
0.022823835
0.023195471
0.023208673
0.023219798
0.023229825
0.023244118
0.023265291
0.023295045
0.023334631
0.023384933
0.023445518
0.023514171
0.023588005
0.023664507
0.023741738
0.023818222
0.023892876
0.023964888
0.024033662
0.024098752
0.024159827
0.024216639
0.024268977
0.024316699
0.024359804
0.024398364
0.024432489
0.024462188
0.024487618
0.024508677
0.02452558
0.024538117
0.02454661
0.024550746
0.024550952
0.024546851
0.02453883
0.024526488
0.024509812
0.024488776
0.02446401
0.024434941
0.024401743
0.024363902
0.024322433
0.024277384
0.024229088
0.024177032
0.024122416
0.024066338
0.024009062
0.023950247
0.023891037
0.023831642
0.023772429
0.023713851
0.023656422
0.023600707
0.023547379
0.023496297
0.02344858
0.023405215
0.02336631
0.023335185
0.023307036
0.023278885
0.023250618
0.023222309
0.023194031
0.023165803
0.023137697
0.023126929
0.023131566
0.023140888
0.023155877
0.022196391
0.022854082
0.022868384
0.022880765
0.022892168
0.022908317
0.022932051
0.02296527
0.023009399
0.023065446
0.023133114
0.023210043
0.023293104
0.023379588
0.023467391
0.023554915
0.023640977
0.023724688
0.023805392
0.023882595
0.023955921
0.02402509
0.024089868
0.024150063
0.024205658
0.024256711
0.024303352
0.024345651
0.0243837
0.024417485
0.024447064
0.024472362
0.024493452
0.024510248
0.024522873
0.024531291
0.024535632
0.024535867
0.024532025
0.0245241
0.02451236
0.024496822
0.024477597
0.024454579
0.024428028
0.024398144
0.024365245
0.024329348
0.024290821
0.024250328
0.02420838
0.024165188
0.024121205
0.024076826
0.024032449
0.023988484
0.023945359
0.023903531
0.023863517
0.023825626
0.023790365
0.023758346
0.023729378
0.023706404
0.023685535
0.023664482
0.02364322
0.023621785
0.02360025
0.023578473
0.02355653
0.022781695
0.022786644
0.022796914
0.022812408
0.021614623
0.02248117
0.022496512
0.022510121
0.022522881
0.022540848
0.022567063
0.022603609
0.022652077
0.022713591
0.022787992
0.022872785
0.022964616
0.023060597
0.023158467
0.023256516
0.023353463
0.023448344
0.023540446
0.023629223
0.023714255
0.023795225
0.02387187
0.023943956
0.024011432
0.024074364
0.024132902
0.02418717
0.024237281
0.024283296
0.024325271
0.0243632
0.024397093
0.024426902
0.024452623
0.024474231
0.024491739
0.024505108
0.024514356
0.024519483
0.024520626
0.0245179
0.024511464
0.024501396
0.024487868
0.024471082
0.024451309
0.02442871
0.024403542
0.024376269
0.024347292
0.024316932
0.024285563
0.024253551
0.024221267
0.02418908
0.024157361
0.024126495
0.024096888
0.024068874
0.02404279
0.024019117
0.023997441
0.023980383
0.023964784
0.023948919
0.023932827
0.023916524
0.023900037
0.02388336
0.023866501
0.022405231
0.022410531
0.02242175
0.022437706
0.021067833
0.02207912
0.022095413
0.022110187
0.022124247
0.022143957
0.022172536
0.022212237
0.022264805
0.022331474
0.022412218
0.022504422
0.022604525
0.022709473
0.022816863
0.022924878
0.023032146
0.023137633
0.023240567
0.023340352
0.023436525
0.023528729
0.023616667
0.023700066
0.023778834
0.023853041
0.023922848
0.023988409
0.024049859
0.024107306
0.02416084
0.024210512
0.024256363
0.024298393
0.024336598
0.024370963
0.024401462
0.024428013
0.024450563
0.024469048
0.024483476
0.024493898
0.02450042
0.024503164
0.024502278
0.024497955
0.024490448
0.024479975
0.024466784
0.024451256
0.024433729
0.02441454
0.02439403
0.024372538
0.02435041
0.024327981
0.024305583
0.024283548
0.024262208
0.024241868
0.024222724
0.0242054
0.024189081
0.024176236
0.024164316
0.024152069
0.024139594
0.024126893
0.024113974
0.02410084
0.024087497
0.0219999
0.022005564
0.022017713
0.022034104
0.020549659
0.02165026
0.021667462
0.021683334
0.02169862
0.021719975
0.021750776
0.021793433
0.021849834
0.021921316
0.02200798
0.022107106
0.022214946
0.022328295
0.022444618
0.022562002
0.022678989
0.02279448
0.022907645
0.023017843
0.023124565
0.023227414
0.023326058
0.023420187
0.023509661
0.023594551
0.02367503
0.023751263
0.023823404
0.023891586
0.023955923
0.024016505
0.024073406
0.024126672
0.024176331
0.024222406
0.024264899
0.024303738
0.024338844
0.02437012
0.024397495
0.02442094
0.024440466
0.024456128
0.02446801
0.024476238
0.024480998
0.024482484
0.024480913
0.024476622
0.024469908
0.0244611
0.024450527
0.024438514
0.02442539
0.024411468
0.024397052
0.024382442
0.024367922
0.024353758
0.024340159
0.024327466
0.024315074
0.024305092
0.024295546
0.024285613
0.024275452
0.024265061
0.02425444
0.024243592
0.024232521
0.021568063
0.021574087
0.021587131
0.021603933
0.020055966
0.021196792
0.021215072
0.021231941
0.021248371
0.02127126
0.021304126
0.021349523
0.021409471
0.021485401
0.02157754
0.021683075
0.021798087
0.021919239
0.022043877
0.022170001
0.022296073
0.022420932
0.022543698
0.022663681
0.022780332
0.022893213
0.023001958
0.023106215
0.023205801
0.023300785
0.023391341
0.023477649
0.02355987
0.023638154
0.023712631
0.023783417
0.023850608
0.023914281
0.023974496
0.024031307
0.024084751
0.024134786
0.024181332
0.024224285
0.024263555
0.024299074
0.024330801
0.024358733
0.024382885
0.02440331
0.024420106
0.024433388
0.024443299
0.024450092
0.024454009
0.024455339
0.02445438
0.024451431
0.024446795
0.024440765
0.024433623
0.024425641
0.024417073
0.024408156
0.024399077
0.024390096
0.024380615
0.02437252
0.024364401
0.024355843
0.024347062
0.024338055
0.024328822
0.024319365
0.024309687
0.021112028
0.021118398
0.021132293
0.021149488
0.019584053
0.020721198
0.020740463
0.020758314
0.02077584
0.020800154
0.020834924
0.020882836
0.020946036
0.021026036
0.021123189
0.021234599
0.0213562
0.021484538
0.02161685
0.021751059
0.021885556
0.022019123
0.022150832
0.022279949
0.022405884
0.022528161
0.022646379
0.022760148
0.022869239
0.022973714
0.023073754
0.023169541
0.023261245
0.023349024
0.023433023
0.02351337
0.023590179
0.02366355
0.023733563
0.023800299
0.023863823
0.02392412
0.023981114
0.024034698
0.024084774
0.024131259
0.024174088
0.02421322
0.024248634
0.024280327
0.024308332
0.024332694
0.024353475
0.024370835
0.024384947
0.02439604
0.024404358
0.024410151
0.024413677
0.024415192
0.02441494
0.024413163
0.024410084
0.024405911
0.024400807
0.024394997
0.02438788
0.02438113
0.024373911
0.024366203
0.024358276
0.024350128
0.024341762
0.024333177
0.024324378
0.020634022
0.020640723
0.020655432
0.020673018
0.019132109
0.020225804
0.020245907
0.020264809
0.020283376
0.020308963
0.020345475
0.020395677
0.020461829
0.020545515
0.020647214
0.020763953
0.020891547
0.021026442
0.021165773
0.021307398
0.021449643
0.02159124
0.021731215
0.021868794
0.022003349
0.022134368
0.022261414
0.022384062
0.022502036
0.022615392
0.022724311
0.022828979
0.02292957
0.023026249
0.023119168
0.023208465
0.023294267
0.023376688
0.023455825
0.023531776
0.023604631
0.023674395
0.023740996
0.023804323
0.023864271
0.023920748
0.023973672
0.024022982
0.024068625
0.024110563
0.024148779
0.024183266
0.024214017
0.02424111
0.024264659
0.024284836
0.024301827
0.024315829
0.024327044
0.024335677
0.024341929
0.024345998
0.024348069
0.024348316
0.024346873
0.024343939
0.024338917
0.024333264
0.02432671
0.024319617
0.0243123
0.024304761
0.024297
0.02428902
0.024280825
0.020136201
0.020143221
0.02015874
0.020176795
0.018698807
0.019712889
0.019733595
0.019753925
0.019773293
0.019799898
0.019838039
0.01989031
0.019959116
0.020046095
0.020151868
0.020273374
0.020406365
0.020547191
0.02069288
0.020841239
0.02099055
0.021139489
0.021287042
0.0214324
0.021574899
0.021713991
0.021849208
0.021980089