/*--------------------------------*- C++ -*----------------------------------*\
| =========                 |                                                 |
| \\      /  F ield         | OpenFOAM: The Open Source CFD Toolbox           |
|  \\    /   O peration     | Version:  2.4.0                                 |
|   \\  /    A nd           | Web:      www.OpenFOAM.org                      |
|    \\/     M anipulation  |                                                 |
\*---------------------------------------------------------------------------*/
FoamFile
{
    version     2.0;
    format      ascii;
    class       volScalarField;
    location    "10000";
    object      p;
}
// * * * * * * * * * * * * * * * * * * * * * * * * * * * * * * * * * * * * * //

dimensions      [0 2 -2 0 0 0 0];

internalField   nonuniform List<scalar> 
9754
(
0.12472628
0.12507883
0.12535734
0.12554721
0.12564483
0.12565722
0.12559445
0.1254602
0.12525326
0.12497327
0.12461629
0.12419638
0.12374885
0.12475142
0.12510848
0.12541454
0.1256469
0.12579118
0.1258455
0.12581894
0.12571933
0.12554823
0.12530597
0.12498791
0.12460306
0.12418318
0.12479204
0.12513594
0.12544961
0.12571072
0.12589739
0.12599656
0.12600954
0.12594499
0.12580824
0.1256016
0.12532108
0.12497366
0.12458867
0.12416174
0.12368253
0.12315874
0.12261151
0.12203189
0.12146473
0.120921
0.1204224
0.11992593
0.11941641
0.12220852
0.12262113
0.12302642
0.12341657
0.12379475
0.12417361
0.12452243
0.12485566
0.12517628
0.12547874
0.12574899
0.1259654
0.12610693
0.12616302
0.12613639
0.12603397
0.12586105
0.12561555
0.12530424
0.12495428
0.12456361
0.12412458
0.12363692
0.12311772
0.12257285
0.12198361
0.12137644
0.12081385
0.12027898
0.1197798
0.12448396
0.12387922
0.12371761
0.12326341
0.12285959
0.12248653
0.1221179
0.12171061
0.12142279
0.12126271
0.12120461
0.121251
0.12138576
0.12159859
0.12186931
0.12218394
0.12252836
0.12288848
0.12325192
0.12360955
0.12396129
0.12431483
0.12463848
0.12494525
0.1252393
0.1255194
0.12577991
0.12600679
0.12617892
0.12627653
0.1262911
0.12622524
0.12608569
0.12587305
0.12559553
0.12527912
0.12492239
0.1245234
0.12407903
0.12359204
0.12307406
0.12251673
0.12193567
0.12133324
0.12074415
0.12018874
0.12661208
0.12554725
0.12534298
0.12479507
0.12428763
0.12381545
0.12334949
0.12284923
0.12246636
0.12221088
0.1220584
0.12201187
0.12205684
0.12218419
0.12237519
0.12261675
0.12289579
0.12319934
0.12351581
0.12383557
0.12415674
0.12448284
0.12478096
0.12506179
0.1253291
0.12558287
0.12582178
0.12603992
0.12622328
0.12635122
0.12640579
0.12637954
0.12627547
0.12609542
0.1258497
0.12556477
0.12524019
0.12487532
0.1244721
0.12402734
0.123546
0.12302219
0.12247467
0.12191073
0.12132698
0.12072665
0.12873701
0.12723881
0.12698216
0.12634949
0.12574257
0.12517533
0.12461614
0.12402673
0.1235524
0.12320473
0.12296061
0.12282336
0.12277999
0.12282255
0.12293371
0.12310129
0.12331311
0.12355706
0.12382229
0.12409923
0.12438507
0.12468055
0.12495154
0.1252062
0.12544714
0.12567411
0.1258869
0.12608385
0.12625896
0.1263982
0.12648233
0.12649471
0.12642905
0.12628369
0.12606955
0.12581409
0.12551914
0.12518519
0.12481561
0.12441028
0.1239694
0.12348986
0.12297966
0.12244578
0.12189351
0.12133705
0.091865727
0.14309539
0.13085697
0.12895168
0.12863415
0.12792494
0.12722318
0.126565
0.12591681
0.12524224
0.12468023
0.12424374
0.12391097
0.12368543
0.12355553
0.12351433
0.12354591
0.12363901
0.12378226
0.12396432
0.12417495
0.12440488
0.12465078
0.12491159
0.12515293
0.12538019
0.12559457
0.125795
0.12598107
0.12615213
0.12630648
0.1264378
0.1265329
0.12657366
0.12654505
0.12643696
0.12625644
0.12603027
0.12576292
0.12545721
0.12511695
0.12474528
0.12433916
0.12390174
0.1234361
0.12294505
0.12242603
0.12189893
0.1213648
0.12081432
0.12026144
0.11968881
0.11913198
0.11862661
0.11814948
0.11769817
0.11730336
0.11699843
0.11675785
0.11654133
0.11635326
0.1162417
0.093840754
0.14464604
0.13297018
0.13068353
0.13029784
0.12951958
0.12872805
0.12798313
0.12725031
0.1264947
0.12584893
0.12532719
0.12490893
0.12459784
0.1243835
0.12425996
0.12421262
0.12423112
0.12430493
0.12442337
0.12457677
0.12475621
0.12495825
0.12518042
0.12538856
0.12558634
0.12577317
0.1259469
0.12610653
0.1262511
0.12637993
0.12649088
0.12657792
0.12662863
0.1266266
0.126554
0.12640946
0.12621481
0.12597527
0.12569603
0.125382
0.12503865
0.12466477
0.12426061
0.12383286
0.12338403
0.12291249
0.12242704
0.12192785
0.12140766
0.12087709
0.12034202
0.11982289
0.1193159
0.11879814
0.11829062
0.11785569
0.11750255
0.11719498
0.11691776
0.11667914
0.11652964
0.095809308
0.14619945
0.13507482
0.132432
0.131972
0.13113152
0.13025558
0.12942826
0.12861525
0.12778286
0.1270574
0.12645414
0.12595376
0.12556005
0.12526368
0.12505955
0.12493433
0.12487856
0.1248825
0.12493615
0.12503033
0.1251565
0.12531128
0.1254914
0.12566288
0.12582807
0.12598548
0.12613193
0.12626495
0.1263833
0.12648599
0.12657184
0.12663873
0.12668095
0.12668753
0.12663981
0.12652897
0.12636793
0.12615831
0.12590575
0.12561658
0.12529769
0.12495145
0.12457713
0.12418209
0.12376616
0.12333413
0.1228935
0.12244619
0.12196757
0.12146886
0.12096363
0.12046333
0.11997389
0.11949008
0.11902479
0.11859989
0.11819755
0.1178171
0.11749379
0.11720876
0.11695634
0.064721903
0.051145093
0.097769632
0.14775408
0.13716914
0.13419461
0.13365523
0.13275881
0.13180404
0.13089874
0.13001007
0.12910525
0.12830432
0.1276234
0.12704447
0.1265713
0.12619556
0.12591294
0.12571127
0.12558193
0.12551602
0.12550419
0.12553776
0.12560854
0.1257133
0.1258482
0.12598018
0.12610985
0.12623527
0.12635252
0.12645844
0.12655053
0.12662743
0.12668779
0.12673028
0.12675277
0.12675051
0.12671017
0.12662195
0.12649117
0.12631262
0.12608867
0.12582529
0.12552979
0.12520747
0.12485896
0.12449165
0.12410714
0.12370687
0.12330004
0.12289454
0.1224647
0.12201543
0.12155168
0.1210845
0.12062165
0.12016538
0.11972637
0.11931737
0.11893542
0.11858267
0.11826957
0.11797979
0.11768187
0.071018218
0.067794348
0.066591879
0.053511213
0.099719877
0.14930846
0.1392513
0.13596881
0.13534597
0.13439943
0.13337155
0.13239279
0.13143305
0.13046025
0.12958814
0.12883361
0.12817982
0.12763056
0.12717839
0.12681966
0.1265433
0.12634152
0.12620619
0.12612867
0.12610075
0.12611461
0.12616718
0.12625428
0.12634389
0.12643569
0.12652677
0.12661242
0.12668931
0.12675461
0.12680623
0.12684163
0.1268595
0.1268585
0.12683707
0.12678768
0.12670504
0.12659297
0.12644127
0.12624647
0.12601082
0.12573995
0.12544042
0.12511507
0.12477157
0.12441365
0.12404264
0.12366637
0.12329192
0.1229012
0.12249545
0.12207782
0.12165641
0.12123449
0.12081754
0.12041183
0.12002752
0.11967069
0.11934462
0.11905413
0.11879639
0.11856531
0.073021225
0.069879855
0.068453621
0.05585638
0.10165812
0.15086105
0.14131937
0.13775194
0.13704266
0.13605125
0.13495609
0.13390849
0.1328823
0.13184604
0.13090716
0.13008314
0.12935837
0.12873656
0.12821109
0.12777892
0.12742999
0.12715727
0.12695339
0.12681038
0.12672056
0.12667653
0.12667533
0.1267126
0.12675744
0.12680884
0.12686335
0.12691575
0.12696176
0.12699878
0.1270241
0.12703506
0.1270292
0.12700472
0.12696093
0.12689329
0.12680135
0.126692
0.12655538
0.12638429
0.12617567
0.12593098
0.12565535
0.12535293
0.12503166
0.12469658
0.12435006
0.12400073
0.12365492
0.12329622
0.12292648
0.12254982
0.12216899
0.12178942
0.12141763
0.12105587
0.12071176
0.12039147
0.12010047
0.11984472
0.11962926
0.11946236
0.119488
0.11921872
0.11889364
0.084914859
0.081385713
0.078033608
0.075001855
0.07193714
0.07030554
0.058178952
0.10358259
0.15241016
0.14337145
0.13954133
0.13874359
0.13771214
0.13655554
0.13544377
0.13435577
0.13326061
0.13225943
0.13137018
0.1305784
0.12988776
0.12929234
0.12878965
0.12837058
0.12802877
0.12775759
0.12754973
0.12739808
0.12729564
0.12723965
0.12722561
0.12722383
0.12723269
0.12724847
0.12726569
0.12727983
0.12728716
0.12728461
0.12726995
0.1272405
0.12719407
0.12712853
0.12704023
0.1269313
0.12681167
0.12667517
0.12651544
0.12632696
0.12610678
0.12585614
0.12557768
0.12527882
0.12496556
0.1246411
0.12431476
0.12399384
0.12366304
0.12332385
0.12298144
0.12263881
0.1223007
0.12196962
0.12164995
0.12134961
0.1210735
0.12082714
0.12061727
0.12045268
0.12034881
0.12041889
0.12017511
0.1198612
0.08669329
0.083238286
0.079951029
0.076958682
0.073965373
0.072145954
0.060477341
0.10549154
0.15395403
0.14540577
0.14133427
0.14044688
0.13937983
0.13816762
0.13699642
0.13585126
0.13470178
0.13364284
0.13269267
0.131838
0.13108237
0.13042053
0.12985047
0.12936394
0.12895524
0.12861839
0.12834675
0.12813375
0.12797286
0.12786152
0.1277952
0.12774549
0.12771019
0.12768547
0.12766568
0.12764612
0.12762262
0.12759176
0.12755043
0.12749643
0.1274275
0.12734131
0.12723389
0.12710654
0.12697044
0.12682298
0.12666096
0.12648048
0.12627718
0.12604859
0.12579364
0.12551785
0.12522709
0.12492486
0.12462026
0.12432137
0.12401483
0.12370309
0.12338997
0.1230792
0.12277627
0.12248396
0.12220591
0.12194786
0.12171557
0.12151547
0.12135463
0.1212431
0.12119949
0.12131147
0.12110259
0.12081269
0.088443398
0.085062452
0.08184
0.078890271
0.075963718
0.073973173
0.062749825
0.1073832
0.15549093
0.14742059
0.14312805
0.14215054
0.14105201
0.13978995
0.13856409
0.13736642
0.13616722
0.13505506
0.13404837
0.13313499
0.13231835
0.13159379
0.13095971
0.13040867
0.12993555
0.12953501
0.12920103
0.12892758
0.12870864
0.12854185
0.12842275
0.12832423
0.12824366
0.12817709
0.1281188
0.12806392
0.12800814
0.12794793
0.12787984
0.12780098
0.12770869
0.1276015
0.12747504
0.12733039
0.12717799
0.12701546
0.12684227
0.12665786
0.12645973
0.12624467
0.12600887
0.12575488
0.12548666
0.12520717
0.12492485
0.12464753
0.12436351
0.12407627
0.12379011
0.12350808
0.12323543
0.12297671
0.12273576
0.12251787
0.12232742
0.12217123
0.12205734
0.12199568
0.12200496
0.12215343
0.12198728
0.12173341
0.093607245
0.090164315
0.086857264
0.083699597
0.080795213
0.077931303
0.075785514
0.06499462
0.10925572
0.15701913
0.14941417
0.14491992
0.14385251
0.14272629
0.14142005
0.14014433
0.13889875
0.13765441
0.13649362
0.13543482
0.134467
0.13359343
0.13280997
0.13211539
0.131503
0.13096823
0.13050629
0.13011178
0.12977918
0.12950299
0.12928107
0.12910911
0.12896136
0.12883482
0.12872548
0.12862761
0.12853622
0.12844695
0.12835613
0.12826024
0.12815616
0.12804114
0.12791288
0.12776687
0.12760508
0.12743663
0.12725933
0.12707329
0.12687875
0.12667567
0.12646318
0.12623804
0.12600041
0.12575175
0.12549389
0.12523389
0.12497856
0.12471729
0.12445382
0.12419288
0.12393791
0.12369423
0.12346581
0.12325729
0.12307487
0.1229229
0.12280749
0.12273573
0.12271709
0.1227693
0.1229468
0.12282658
0.12261712
0.1225004
0.12245008
0.095215011
0.091855174
0.088621765
0.085528894
0.082672155
0.079867229
0.07758129
0.067209985
0.11110723
0.15853685
0.15138475
0.14670712
0.14555064
0.14440026
0.14305537
0.14173455
0.14044565
0.13916069
0.13795583
0.13684937
0.13583141
0.13490506
0.13406664
0.13331526
0.13264488
0.13205144
0.13153069
0.13107777
0.13068769
0.13035543
0.13007913
0.12985463
0.12965763
0.12948483
0.12933219
0.12919404
0.12906533
0.12894166
0.12881927
0.12869459
0.12856445
0.12842608
0.1282769
0.12811253
0.12793396
0.12774937
0.12755761
0.12735844
0.12715245
0.12694081
0.12672392
0.12650028
0.12627038
0.12603491
0.12579455
0.1255546
0.12532049
0.12508226
0.12484291
0.12460691
0.12437817
0.12416195
0.12396253
0.12378459
0.12363384
0.12351594
0.12343665
0.12340156
0.12341914
0.12350502
0.12370438
0.12362904
0.12346761
0.12338787
0.12336808
0.096792775
0.09351513
0.090355033
0.087326948
0.084519777
0.081770595
0.079358816
0.069394222
0.11293586
0.1600423
0.15333055
0.1484869
0.14724272
0.14607148
0.14469329
0.14333209
0.14200436
0.14068326
0.13943885
0.13828918
0.1372254
0.13625048
0.13536115
0.13455676
0.13383192
0.13318302
0.13260629
0.13209739
0.13165182
0.13126505
0.13093547
0.13065916
0.13041327
0.13019429
0.12999821
0.12981943
0.12965292
0.12949426
0.12933965
0.12918549
0.12902856
0.12886607
0.12869542
0.12851244
0.12831765
0.12811863
0.12791341
0.12770133
0.12748379
0.12726224
0.12703782
0.12681076
0.12658252
0.12635353
0.12612408
0.12589886
0.12568248
0.12546516
0.12524912
0.12503798
0.12483529
0.12464586
0.12447419
0.12432529
0.12420467
0.12411771
0.12406971
0.12406608
0.12411389
0.1242261
0.12444169
0.12440799
0.12429453
0.12425316
0.1242654
0.098339753
0.095143374
0.09205618
0.089092831
0.086336798
0.08364051
0.081116424
0.071545663
0.11473973
0.16153368
0.15524987
0.15025647
0.14892647
0.14773745
0.14633111
0.1449342
0.14357206
0.14221919
0.1409397
0.13975124
0.13864597
0.13762671
0.13669054
0.13583706
0.13506144
0.13436046
0.1337308
0.13316861
0.13266985
0.13223046
0.13184908
0.13152204
0.13122798
0.13096326
0.13072392
0.13050452
0.13030004
0.13010611
0.12991891
0.12973484
0.12955066
0.12936356
0.12917092
0.12896869
0.12875731
0.12854389
0.1283262
0.12810339
0.12787601
0.12764506
0.12741235
0.12717934
0.12694834
0.12672053
0.12649659
0.12628103
0.12607763
0.12587704
0.12568101
0.12549253
0.12531466
0.12515127
0.12500638
0.12488508
0.12479277
0.12473432
0.12471463
0.1247385
0.12481145
0.12494453
0.12517278
0.1251769
0.12510902
0.1251053
0.12514954
0.099855243
0.096739164
0.093724382
0.090825658
0.088122006
0.085476096
0.082852474
0.073662668
0.11651694
0.16300927
0.15714099
0.15201306
0.15059957
0.14939568
0.14796615
0.14653807
0.14514582
0.14376545
0.14245525
0.14123235
0.1400899
0.13903053
0.13805167
0.13715307
0.13633043
0.13558091
0.13490158
0.13428901
0.13373963
0.13324981
0.13281843
0.13244207
0.13210092
0.13179124
0.13150917
0.13124944
0.13100715
0.13077795
0.13055806
0.13034389
0.13013223
0.12992022
0.12970529
0.12948346
0.1292551
0.12902679
0.1287964
0.12856308
0.12832714
0.12808918
0.12785047
0.12761183
0.12737647
0.12714674
0.12692383
0.1267128
0.12651732
0.12632868
0.12614856
0.12597939
0.12582363
0.12568443
0.12556485
0.12546941
0.1254033
0.12537098
0.12537682
0.12542487
0.12551951
0.12567013
0.12590907
0.1259471
0.12592112
0.12595302
0.12602823
0.10133865
0.098301849
0.095358904
0.092524618
0.089874277
0.087276522
0.084565384
0.07574359
0.11826555
0.16446756
0.15900226
0.15375386
0.15225964
0.15104371
0.14959567
0.14814084
0.14672266
0.14531893
0.14398227
0.14272921
0.1415538
0.14045854
0.13944111
0.13850141
0.13763562
0.1368412
0.1361156
0.13545579
0.13485858
0.13432078
0.13384149
0.13341758
0.13303072
0.13267717
0.13235321
0.13205377
0.13177408
0.1315099
0.13125748
0.13101327
0.13077409
0.1305371
0.13029974
0.13005812
0.12981255
0.12956908
0.12932575
0.12908164
0.12883694
0.12859222
0.12834852
0.12810629
0.1278686
0.12763763
0.12741465
0.12720516
0.12701339
0.12683181
0.12666262
0.12650809
0.12637015
0.12625163
0.12615484
0.12608303
0.12604077
0.12603214
0.12606091
0.12613029
0.1262439
0.12640998
0.12665849
0.12672668
0.1267387
0.12680363
0.12690789
0.1027895
0.0998309
0.096959128
0.094189003
0.091592621
0.089041025
0.086253688
0.077786702
0.11998359
0.16590748
0.160832
0.15547595
0.15390435
0.1526791
0.15121697
0.14973966
0.14829956
0.14687644
0.14551744
0.14423837
0.14303416
0.14190714
0.14085525
0.13987848
0.13897343
0.13813785
0.1373695
0.13666571
0.13602369
0.1354406
0.13491576
0.13444632
0.13401543
0.13361942
0.1332547
0.13291645
0.13260008
0.13230145
0.13201689
0.13174293
0.13147643
0.13121457
0.1309548
0.13069337
0.13043047
0.13017168
0.12991521
0.12966012
0.12940653
0.12915492
0.12890616
0.12866062
0.1284211
0.12818978
0.12796805
0.12776075
0.12757202
0.12739545
0.12723356
0.127089
0.12696399
0.1268613
0.12678293
0.12673119
0.12670961
0.12672165
0.12677048
0.12685858
0.12698884
0.1271688
0.12742641
0.12752181
0.12756818
0.12766337
0.12779449
0.12795307
0.12814093
0.12836058
0.095818266
0.093276222
0.090768943
0.087916118
0.079790068
0.1216691
0.16732872
0.16262822
0.15717629
0.15553149
0.15429955
0.1528274
0.15133166
0.14987351
0.14843477
0.14705736
0.14575628
0.1445273
0.14337257
0.14229025
0.14128041
0.14034
0.13946704
0.13865956
0.13791521
0.13723152
0.13660604
0.13603824
0.13552556
0.13505261
0.13461581
0.13421175
0.13383587
0.13348377
0.13315149
0.13283544
0.13253225
0.13223882
0.13195239
0.13167043
0.13138931
0.13110912
0.13083498
0.13056523
0.13029898
0.13003631
0.12977763
0.12952372
0.12927489
0.12903364
0.12880199
0.12858134
0.12837631
0.12819087
0.12801923
0.12786381
0.12772734
0.12761227
0.12752143
0.12745692
0.12742096
0.12741624
0.12744537
0.12751105
0.12761524
0.12776014
0.12795255
0.12821873
0.1283386
0.12841559
0.12853808
0.12869388
0.12887531
0.12908411
0.1293226
0.097412069
0.094924507
0.092459707
0.089551703
0.081751282
0.12332073
0.16873512
0.16438625
0.158851
0.15713956
0.15590311
0.15442431
0.15291401
0.15144151
0.14999073
0.14859865
0.14727941
0.14602952
0.14485101
0.14374221
0.14270322
0.14173133
0.14082477
0.13998179
0.13920036
0.13847828
0.13781343
0.13720543
0.13665199
0.13613916
0.13566349
0.13522174
0.13480965
0.13442305
0.13405812
0.13371145
0.13337973
0.13305998
0.13274947
0.1324457
0.13214519
0.1318479
0.13155847
0.13127542
0.13099789
0.13072592
0.1304599
0.13020054
0.12994813
0.12970496
0.12947287
0.12925325
0.12905044
0.1288681
0.12870095
0.12855137
0.12842203
0.12831538
0.12823422
0.12818066
0.12815706
0.12816587
0.12820895
0.12828851
0.12840616
0.12856365
0.12876705
0.12904078
0.12918211
0.12928591
0.1294325
0.12961035
0.12981232
0.13003988
0.1302952
0.098970254
0.096537158
0.094113017
0.091160879
0.08366424
0.1249359
0.17015946
0.16608823
0.16049117
0.15872909
0.15748888
0.15600504
0.15448383
0.15300066
0.15154122
0.15013805
0.14880439
0.14753744
0.14633907
0.14520776
0.14414362
0.14314423
0.14220799
0.14133335
0.14051851
0.13976154
0.13906059
0.13841542
0.137824
0.13727378
0.13676144
0.13628398
0.13583742
0.13541782
0.13502159
0.13464544
0.13428621
0.133941
0.13360718
0.13328226
0.13296292
0.13264897
0.13234459
0.1320484
0.13175964
0.13147829
0.13120471
0.13093956
0.1306831
0.1304375
0.13020445
0.12998527
0.12978408
0.12960431
0.12944107
0.1292966
0.12917342
0.12907392
0.12900079
0.12895607
0.12894206
0.12896129
0.12901546
0.1291062
0.12923483
0.12940295
0.12961637
0.12989674
0.13005577
0.13018194
0.13034914
0.13054614
0.13076612
0.13101031
0.1312806
0.10049286
0.098113968
0.095730194
0.092755249
0.085496276
0.1264766
0.17168064
0.16766852
0.16205304
0.16027855
0.15903345
0.15754304
0.15601409
0.15452362
0.15305797
0.15164617
0.15030076
0.14901953
0.14780426
0.14665358
0.14556757
0.14454408
0.14358163
0.14267885
0.14183412
0.14104574
0.1403121
0.13963304
0.13900685
0.13842217
0.13787592
0.13736527
0.13688653
0.13643603
0.13601036
0.13560643
0.13522121
0.13485193
0.13449602
0.13415108
0.13381388
0.13348412
0.13316555
0.13285691
0.13255747
0.13226719
0.13198638
0.13171565
0.13145527
0.13120722
0.13097303
0.13075397
0.13055402
0.13037637
0.13021651
0.13007664
0.12995911
0.12986604
0.12979993
0.12976273
0.12975655
0.12978383
0.12984639
0.12994562
0.13008262
0.13025916
0.13048126
0.13076821
0.13094271
0.13108798
0.13127294
0.13148656
0.13172225
0.131981
0.13226453
0.10195804
0.099631676
0.097292651
0.094352474
0.087136461
0.12788947
0.17326043
0.16908734
0.16349178
0.1617418
0.16048991
0.15899041
0.15745588
0.15596054
0.15449024
0.15307146
0.15171616
0.15042262
0.14919264
0.14802496
0.14691972
0.14587493
0.14488929
0.14396156
0.14309028
0.14227398
0.14151121
0.14080192
0.14014461
0.13952896
0.1389521
0.13841138
0.13790336
0.13742462
0.13697198
0.1365425
0.13613331
0.13574175
0.13536536
0.13500183
0.13464805
0.13430365
0.13397203
0.133652
0.1333429
0.13304472
0.13275773
0.13248246
0.1322191
0.13196953
0.13173519
0.13151719
0.13131926
0.13114447
0.13098869
0.130854
0.13074248
0.13065606
0.13059704
0.13056718
0.13056846
0.13060316
0.13067305
0.13077955
0.13092365
0.13110711
0.13133578
0.13162807
0.13181599
0.13197784
0.1321778
0.13240514
0.13265369
0.13292443
0.13321896
0.10332556
0.10104859
0.098757739
0.095905328
0.088558336
0.12917983
0.17478187
0.17037211
0.16480983
0.16309846
0.16183925
0.16033041
0.15879231
0.15729442
0.1558217
0.15439854
0.15303631
0.15173358
0.15049217
0.14931093
0.14819002
0.14712766
0.14612266
0.14517391
0.14428013
0.14343999
0.14265221
0.14191678
0.14123242
0.14058965
0.13998583
0.13941849
0.13888443
0.13838048
0.13790365
0.13745116
0.13702031
0.13660856
0.13621354
0.13583305
0.13546412
0.13510634
0.13476281
0.1344324
0.13411449
0.13380912
0.13351656
0.13323725
0.13297131
0.13272056
0.13248644
0.1322699
0.13207438
0.13190284
0.1317514
0.13162185
0.13151604
0.13143586
0.13138345
0.13136043
0.13136862
0.13141012
0.13148663
0.13159961
0.13174997
0.13193912
0.13217234
0.13246741
0.13266544
0.1328405
0.13305224
0.13329016
0.13354865
0.13382861
0.13413155
0.10458304
0.10235143
0.10010486
0.097351012
0.089837764
0.13037161
0.1762154
0.17154697
0.1660235
0.16435595
0.16309025
0.16157332
0.16003371
0.15853556
0.15706284
0.15563808
0.15427201
0.15296343
0.15171411
0.15052294
0.14939014
0.14831406
0.14729363
0.14632784
0.14541555
0.14455555
0.14374671
0.14298904
0.1422814
0.14161514
0.1409878
0.1403971
0.13984007
0.13931376
0.13881536
0.13834227
0.13789194
0.13746196
0.13705009
0.13665419
0.13627148
0.13590147
0.13554702
0.13520709
0.13488107
0.13456894
0.13427097
0.13398765
0.13371908
0.13346697
0.13323263
0.13301702
0.13282346
0.13265466
0.13250686
0.13238174
0.13228102
0.13220639
0.13215984
0.13214282
0.13215699
0.13220428
0.13228617
0.13240409
0.13255893
0.13275192
0.1329878
0.13328374
0.13348936
0.13367485
0.13389579
0.13414191
0.13440802
0.13469501
0.13500419
0.10574175
0.10355131
0.10134298
0.098689155
0.090999057
0.13147651
0.17756224
0.17262335
0.16714353
0.16552273
0.16425142
0.16272786
0.16118845
0.15969171
0.15822072
0.15679632
0.15542866
0.15411667
0.15286203
0.15166371
0.15052192
0.14943514
0.14840238
0.14742275
0.14649519
0.14561862
0.144792
0.14401535
0.14328768
0.14260106
0.14195323
0.14134206
0.1407648
0.14021869
0.13970111
0.13920964
0.13874185
0.13829549
0.13786842
0.13745864
0.13706349
0.13668247
0.13631818
0.13596966
0.13563634
0.13531816
0.13501535
0.13472841
0.13445747
0.1342041
0.1339695
0.13375458
0.13356253
0.13339589
0.13325107
0.1331297
0.13303333
0.13296346
0.13292191
0.13290997
0.13292916
0.13298123
0.13306747
0.13318913
0.13334706
0.13354235
0.13377934
0.13407458
0.13428589
0.13447971
0.13470785
0.13496028
0.13523219
0.13552444
0.13583824
0.10681161
0.10465867
0.10248354
0.099933813
0.092052521
0.13250392
0.1788287
0.17361005
0.16817889
0.16660679
0.16533049
0.16380162
0.16226384
0.16076983
0.15930186
0.15787929
0.1565117
0.15519815
0.15394022
0.15273692
0.15158845
0.1504934
0.14945087
0.14846002
0.14751989
0.14662949
0.14578788
0.14499507
0.14425018
0.14354596
0.14288032
0.14225127
0.14165627
0.14109275
0.14055827
0.14005054
0.13956729
0.13910639
0.13866582
0.13824368
0.13783748
0.13744668
0.13707365
0.13671748
0.13637765
0.1360541
0.13574703
0.13545688
0.13518376
0.1349292
0.13469428
0.13447985
0.13428889
0.13412381
0.13398129
0.13386285
0.13376987
0.13370373
0.13366609
0.13365811
0.13368117
0.13373686
0.13382634
0.1339507
0.13411064
0.13430715
0.1345441
0.13483749
0.135053
0.13525347
0.13548718
0.13574441
0.13602068
0.13631686
0.13663401
0.10780144
0.10568287
0.10353645
0.10109618
0.093011067
0.13346173
0.18002138
0.17451482
0.16913747
0.16761537
0.16633437
0.16480139
0.16326644
0.16177619
0.16031222
0.1588926
0.15752637
0.1562127
0.15495307
0.15374651
0.15259323
0.15149189
0.15044166
0.14944177
0.14849132
0.14758941
0.14673517
0.1459286
0.14516892
0.14444947
0.14376834
0.14312368
0.14251312
0.14193429
0.14138491
0.14086283
0.14036591
0.13989213
0.1394396
0.13900651
0.13859051
0.13819104
0.13781027
0.13744731
0.13710168
0.13677334
0.13646244
0.13616939
0.13589429
0.13563855
0.13540323
0.13518909
0.13499889
0.13483494
0.13469416
0.13457797
0.13448762
0.13442436
0.13438972
0.13438475
0.13441069
0.13446897
0.13456064
0.13468664
0.13484758
0.13504428
0.13528019
0.13557074
0.13578921
0.13599493
0.13623288
0.13649364
0.13677312
0.13707212
0.13739163
0.10871902
0.10663214
0.1045102
0.10218514
0.093884828
0.13435687
0.18114656
0.17534461
0.17002627
0.16855497
0.16726932
0.16573328
0.16420217
0.16271646
0.16125724
0.15984141
0.15847752
0.15716484
0.15590474
0.1546963
0.15353969
0.15243367
0.15137745
0.1503703
0.14941141
0.14849993
0.14763505
0.14681676
0.14604436
0.14531175
0.14461714
0.14395882
0.14333462
0.14274231
0.14217976
0.14164497
0.14113592
0.14065072
0.14018755
0.13974473
0.13932003
0.13891289
0.13852524
0.13815628
0.13780552
0.13747291
0.13715861
0.13686297
0.13658607
0.13632925
0.13609348
0.13587947
0.13568981
0.13552667
0.13538718
0.13527268
0.13518431
0.13512322
0.1350908
0.135088
0.13511592
0.1351759
0.13526883
0.13539554
0.13555656
0.13575255
0.13598657
0.13627344
0.13649383
0.13670362
0.13694467
0.13720792
0.1374896
0.13779049
0.13811149
0.10957124
0.10751378
0.10541215
0.10320824
0.094681758
0.13519551
0.18220996
0.17610563
0.17085152
0.16943141
0.16814098
0.16660279
0.16507634
0.16359579
0.16214186
0.16073045
0.15936964
0.1580588
0.15679919
0.15558994
0.15443119
0.15332177
0.15226095
0.15124803
0.15028224
0.14936281
0.14848897
0.14766069
0.14687735
0.14613333
0.145427
0.14475674
0.14412055
0.14351635
0.14294217
0.14239611
0.1418763
0.14138093
0.14090831
0.14045682
0.14002438
0.13961042
0.13921668
0.13884238
0.13848708
0.1381507
0.13783337
0.13753543
0.13725691
0.13699909
0.13676287
0.13654888
0.13635956
0.13619695
0.13605838
0.13594511
0.13585818
0.13579863
0.13576776
0.13576641
0.13579557
0.13585645
0.13594984
0.13607648
0.13623678
0.13643129
0.13666269
0.13694522
0.13716663
0.13737948
0.13762268
0.13788754
0.13817059
0.13847259
0.13879436
0.11036422
0.10833423
0.10624875
0.10417205
0.095408439
0.13598313
0.18321664
0.1768035
0.1716188
0.17024992
0.16895442
0.16741488
0.16589377
0.16441883
0.1629706
0.16156406
0.16020688
0.15889851
0.15764013
0.15643091
0.15527096
0.15415918
0.15309487
0.15207738
0.15110599
0.15017996
0.14929857
0.14846178
0.147669
0.1469151
0.14619854
0.14551784
0.1448711
0.14425643
0.14367195
0.1431159
0.14258652
0.14208211
0.14160106
0.14114185
0.14070252
0.14028248
0.13988332
0.13950429
0.13914494
0.13880521
0.13848519
0.13818519
0.13790523
0.13764648
0.13740979
0.13719575
0.13700661
0.1368443
0.13670634
0.13659391
0.13650796
0.13644945
0.13641955
0.13641903
0.13644879
0.13650991
0.1366031
0.13672898
0.1368879
0.1370803
0.13730849
0.13758614
0.13780782
0.13802288
0.13826743
0.13853315
0.13881688
0.13911935
0.13944128
0.11110335
0.10909921
0.10702566
0.10508228
0.096070497
0.13672461
0.18417102
0.17744327
0.17233314
0.17101522
0.16971425
0.16817408
0.16665884
0.16518981
0.16374755
0.1623462
0.16099305
0.15968763
0.15843105
0.1572225
0.15606209
0.15494877
0.15388189
0.15286082
0.15188488
0.15095337
0.15006562
0.14922155
0.14842063
0.14765815
0.14693267
0.14624279
0.14558678
0.14496285
0.14436925
0.14380434
0.14326645
0.14275398
0.14226542
0.14179932
0.14135384
0.14092839
0.1405244
0.14014114
0.1397782
0.13943548
0.13911306
0.13881121
0.13852994
0.13827033
0.13803318
0.13781901
0.13762993
0.13746773
0.13733012
0.13721822
0.13713287
0.13707495
0.13704556
0.13704536
0.13707518
0.137136
0.13722842
0.13735299
0.13750999
0.13769976
0.13792428
0.13819665
0.13841796
0.13863449
0.13887971
0.13914568
0.13942951
0.1397319
0.14005352
0.11179343
0.10981379
0.10774791
0.10594397
0.096672815
0.1374242
0.18507699
0.17802951
0.17299907
0.17173153
0.17042463
0.16888445
0.16737551
0.16591261
0.16447647
0.16308054
0.16173169
0.16042956
0.15917518
0.15796781
0.15680751
0.15569332
0.15462459
0.15360074
0.15262112
0.15168507
0.15079195
0.14994165
0.14913369
0.14836374
0.14763044
0.14693252
0.14626832
0.14563619
0.14503451
0.14446172
0.14391625
0.14339659
0.14290132
0.14242906
0.14197809
0.14154782
0.14113951
0.14075249
0.14038633
0.14004095
0.13971638
0.13941287
0.13913041
0.13887001
0.13863238
0.13841802
0.13822889
0.13806665
0.13792919
0.13781754
0.13773248
0.13767481
0.13764552
0.13764523
0.13767466
0.13773472
0.13782592
0.13794874
0.13810339
0.13829012
0.13851061
0.13877741
0.13899783
0.13921522
0.13946053
0.13972622
0.14000967
0.14031154
0.14063241
0.11243876
0.1104825
0.10841992
0.10676156
0.097219682
0.13808556
0.18593796
0.1785664
0.17362071
0.1724027
0.17108933
0.16954973
0.1680474
0.16659073
0.16516083
0.16377043
0.16242606
0.16112745
0.15987558
0.15866974
0.15751
0.15639545
0.15532546
0.15429949
0.1533169
0.15237708
0.15147941
0.15062377
0.1498097
0.14903322
0.14829309
0.14758806
0.14691663
0.14627724
0.14566837
0.14508856
0.14453632
0.14401024
0.14350897
0.1430312
0.14257532
0.14214073
0.14172857
0.14133816
0.14096913
0.14062136
0.14029486
0.13998985
0.13970631
0.13944516
0.13920707
0.13899248
0.1388032
0.1386408
0.1385033
0.13839169
0.13830665
0.13824892
0.13821942
0.13821869
0.13824739
0.13830632
0.13839593
0.13851664
0.1386686
0.13885199
0.13906819
0.13932921
0.13954832
0.13976602
0.14001095
0.14027593
0.14055859
0.14085955
0.14117933
0.10904566
0.10753898
0.097714902
0.13871167
0.18675692
0.17905776
0.17420179
0.17303217
0.17171176
0.17017325
0.16867774
0.16722737
0.16580373
0.16441895
0.16307917
0.16178423
0.16053507
0.15933104
0.15817219
0.15705768
0.15598689
0.15495931
0.15397434
0.15303139
0.15212986
0.15126962
0.15045023
0.14966805
0.14892189
0.1482106
0.14753276
0.14688691
0.14627164
0.14568555
0.14512727
0.14459544
0.14408878
0.14360608
0.14314579
0.14270733
0.1422917
0.14189827
0.14152666
0.14117673
0.14084849
0.14054213
0.14025759
0.13999574
0.13975718
0.1395423
0.1393528
0.13919013
0.13905246
0.13894069
0.13885546
0.13879744
0.13876745
0.138766
0.13879367
0.13885118
0.13893892
0.13905724
0.13920625
0.13938606
0.13959779
0.13985291
0.14007035
0.14028793
0.14053207
0.14079599
0.14107752
0.14137726
0.14169567
0.10962865
0.10827966
0.098161903
0.13930489
0.18753663
0.1795072
0.17474571
0.17362309
0.17229504
0.17075806
0.16926952
0.16782539
0.16640798
0.16502881
0.1636937
0.16240255
0.16115627
0.15995426
0.15879656
0.15768237
0.15661114
0.15558237
0.1545955
0.15364993
0.15274512
0.15188091
0.15105688
0.15026968
0.1495182
0.14880136
0.14811782
0.14746622
0.14684522
0.14625353
0.14568982
0.14515283
0.14464134
0.14415419
0.14368994
0.143248
0.14282926
0.1424331
0.14205916
0.14170729