y,R_0,R_1,R_2,R_3,R_4,R_5
0,6.6666719e-11,-3.6520606e-20,-5.4764351e-40,6.6666633e-11,-1.8025841e-41,6.6666648e-11
0.00086769924,4.3982604e-07,2.4978265e-09,-4.4102772e-32,4.3977031e-07,-1.0329504e-31,4.3978876e-07
0.0017874829,3.6632976e-06,6.1229295e-08,3.0623762e-30,3.6600238e-06,-3.9013527e-30,3.6609697e-06
0.0027624773,1.5983494e-05,5.7458364e-07,3.9455108e-29,1.5924781e-05,1.6154978e-29,1.5940128e-05
0.0037959966,4.8625802e-05,3.1746849e-06,3.4296392e-29,4.8080902e-05,1.0486663e-28,4.8213735e-05
0.0048915537,0.00011876828,1.2467498e-05,1.9859029e-29,0.00011548602,-2.8612671e-28,0.00011624913
0.0060528726,0.00025092712,3.8213378e-05,3.5418026e-27,0.00023662958,3.6963004e-28,0.00023985357
0.0072839007,0.00047642388,9.5881937e-05,-3.943174e-27,0.00042892287,2.619563e-27,0.00043943568
0.0085888223,0.00082588855,0.00020199051,4.3423096e-27,0.00070200231,-5.9047007e-27,0.00072912225
0.0099720729,0.0013123834,0.00036355065,2.7316458e-26,0.0010527745,2.6484415e-27,0.0011093126
0.011438354,0.0019160966,0.00056916998,-4.9686537e-26,0.0014669986,5.8402049e-27,0.0015649229
0.01299265,0.0025886216,0.00079166635,1.099689e-25,0.0019264246,-6.693228e-26,0.002072182
0.014640245,0.0032761826,0.0010007172,4.3917235e-25,0.0024157487,-4.5610147e-26,0.0026087437
0.016386737,0.0039408387,0.0011740564,1.7580894e-26,0.0029253544,3.1458315e-26,0.003159666
0.018238064,0.004566322,0.0013007022,6.7739079e-25,0.0034499398,-1.5330312e-25,0.0037173555
0.020200518,0.0051526793,0.001378703,1.2133867e-24,0.0039856743,-1.7383061e-25,0.0042785343
0.022280771,0.0057083135,0.0014115937,2.1764775e-24,0.0045284193,1.2692989e-26,0.004841488
0.024485892,0.0062439307,0.0014054761,-4.2336555e-24,0.0050735785,8.9285874e-25,0.0054047612
0.026823378,0.0067692258,0.0013670455,-1.0167698e-23,0.0056167537,1.0123403e-24,0.0059669306
0.029301173,0.007291679,0.001302462,-6.8707186e-24,0.0061543594,-8.5767922e-26,0.0065267658
0.0319277,0.0078165517,0.0012168638,6.1057198e-24,0.0066838761,-1.0449347e-24,0.0070833741
0.034711887,0.0083473631,0.0011142864,1.3489675e-23,0.0072037939,-7.1868509e-25,0.0076362304
0.037663197,0.0088864356,0.00099778464,-1.4190099e-24,0.0077134083,4.9259894e-25,0.0081851245
0.040791661,0.0094353432,0.00086962266,-1.0206171e-23,0.0082125938,9.9621374e-25,0.0087300789
0.044107915,0.0099952267,0.00073146113,-3.7980259e-23,0.0087016143,1.7421207e-24,0.0092712695
0.047623229,0.010566999,0.00058451455,-2.6708858e-23,0.0091809835,1.0216358e-25,0.0098089625
0.051349553,0.011151473,0.00042967325,1.4106868e-23,0.009651369,-1.0606173e-24,0.01034347
0.055299553,0.011749435,0.00026759438,-2.3638657e-23,0.010113531,5.9184148e-25,0.010875116
0.059486654,0.012361689,9.8768007e-05,-2.2356356e-24,0.010568282,3.0447363e-25,0.011404226
0.06392509,0.012989081,-7.6435232e-05,-2.9445862e-23,0.011016468,1.0984309e-24,0.011931107
0.068629948,0.013632514,-0.00025773029,-3.16087e-23,0.011458951,-9.76615e-25,0.012456051
0.073617218,0.014292952,-0.0004448938,1.1071039e-22,0.011896609,-2.2550737e-24,0.01297933
0.078903853,0.014971425,-0.00063774757,-2.546497e-23,0.012330335,3.4378877e-24,0.013501196
0.084507823,0.015669028,-0.00083614757,-1.2579831e-22,0.01276104,3.1745262e-24,0.014021889
0.090448176,0.016386919,-0.0010399769,-4.1822929e-23,0.013189663,1.4544412e-24,0.014541633
0.096745104,0.017126314,-0.0012491424,-2.3226951e-22,0.013617176,9.4886024e-24,0.015060644
0.10342001,0.017888481,-0.0014635727,-3.5370883e-22,0.014044602,1.4079322e-23,0.015579131
0.11049558,0.018674728,-0.0016832196,-5.0725129e-22,0.014473028,1.9842081e-23,0.016097291
0.11799587,0.019486389,-0.0019080587,-5.3839861e-22,0.014903627,1.6907027e-23,0.016615318
0.12594638,0.020324801,-0.0021380925,-2.7225677e-22,0.015337679,5.4587597e-24,0.01713339
0.13437411,0.021191279,-0.0023733516,-2.079404e-22,0.015776606,1.1466007e-23,0.017651671
0.14330773,0.022087071,-0.0026138946,-2.2733129e-22,0.016222002,1.6887601e-23,0.018170294
0.1527776,0.023013311,-0.0028598063,-1.9869371e-22,0.016675693,1.2928381e-23,0.018689352
0.1628159,0.023970955,-0.0031111946,3.6279625e-22,0.017139781,-3.0913889e-23,0.019208874
0.17345677,0.024960584,-0.0033681255,4.9248372e-22,0.017616758,-4.4095399e-23,0.019728843
0.18473635,0.025982497,-0.0036306766,5.1356342e-22,0.018109506,-4.8958875e-23,0.020249099
0.19669301,0.027036675,-0.0038989261,8.6733242e-22,0.018621336,-8.5942504e-23,0.020769216
0.20936737,0.028122226,-0.0041727275,7.5911834e-22,0.019156275,-8.2268426e-23,0.021288583
0.22280253,0.029237279,-0.0044516445,2.5747227e-22,0.019719165,-1.6757307e-23,0.0218063
0.23704414,0.03037903,-0.004734885,-4.8579214e-22,0.020315756,8.2538725e-23,0.022320962
0.25214061,0.031543649,-0.0050211197,-1.6763739e-21,0.020952836,2.7551307e-22,0.022830382
0.26814327,0.032725434,-0.0053079686,-2.0096815e-21,0.021638767,3.5834659e-22,0.023331617
0.28510649,0.033916988,-0.0055920291,-1.2451362e-21,0.022384128,2.7401614e-22,0.023820631
0.30308795,0.035112527,-0.00586941,-1.8297961e-21,0.02319954,4.6521572e-22,0.0242895
0.32214876,0.036307967,-0.006132024,-1.3731258e-21,0.024089276,3.5783761e-22,0.024722333
0.34235371,0.037515976,-0.0063843615,-2.0549502e-22,0.025073491,7.9858172e-23,0.025092769
0.36377149,0.038845218,-0.0066708185,6.0965877e-22,0.026155656,-2.7236782e-22,0.025305678
0.38647488,0.039676938,-0.0068451776,3.0444784e-22,0.02754499,-9.3563438e-23,0.02575218
0.41054106,0.039710459,-0.0067784856,-1.3540906e-22,0.029343082,3.7462425e-23,0.02671586
0.43605183,0.039554687,-0.0065367753,3.6045114e-22,0.03133908,-2.3589788e-22,0.027893639
0.46309391,0.039440659,-0.0061861494,1.5996294e-22,0.033335065,-1.3715289e-22,0.029097343
0.49175922,0.039451621,-0.0059557801,1.0383501e-22,0.035055015,-1.1396954e-22,0.030121977
0.52214518,0.03966443,-0.0062311818,-4.4463731e-23,0.036196336,2.7991659e-23,0.030706345
0.55435509,0.040059421,-0.0072175198,7.4590005e-23,0.036614971,-2.3767011e-23,0.030707923
0.58849842,0.040540704,-0.0087146373,3.6922626e-22,0.036404963,-2.1527879e-22,0.030238094
0.62469124,0.041077586,-0.010361775,4.6666683e-22,0.035771165,-2.689859e-22,0.029559595
0.66305656,0.041543254,-0.011850992,-1.4577983e-21,0.03492022,3.9921685e-22,0.028930697
0.70372479,0.041573034,-0.012826891,-3.2648127e-21,0.034026505,9.9107355e-22,0.028595677
0.74683417,0.041076734,-0.013172654,-4.5508845e-21,0.033143369,1.177041e-21,0.028529711
0.79253123,0.040379104,-0.01320662,-2.8283099e-21,0.032226167,7.0627392e-22,0.028401675
0.84097128,0.039653691,-0.013181244,5.0174072e-21,0.03122054,-9.3725404e-22,0.028015773
0.892319,0.038818461,-0.013090554,7.9101103e-21,0.030063746,-1.5728685e-21,0.027371487
0.9467489,0.037763832,-0.012873029,-1.6655744e-21,0.02871262,1.3652724e-22,0.026490474
1.004446,0.036410464,-0.012477958,-1.0122105e-21,0.027163842,1.2932982e-22,0.025397397
1.0656064,0.034729003,-0.011879023,3.8455801e-21,0.025447441,-6.4804201e-22,0.024131746
1.1304381,0.032753734,-0.011078765,4.6565281e-21,0.023629404,-7.2838793e-22,0.022759203
1.1991613,0.03058076,-0.010112325,3.3686316e-21,0.02180849,-5.3512932e-22,0.02136855
1.2720096,0.028350179,-0.0090477293,8.2533045e-21,0.020097028,-1.1006018e-21,0.020052018
1.3492308,0.026205697,-0.0079707458,-1.5012164e-20,0.018582328,1.7917367e-21,0.018873973
1.4310872,0.024254754,-0.0069674406,-3.0022608e-20,0.017284077,3.7014022e-21,0.017838843
1.5178571,0.022552583,-0.0061080256,-1.3029712e-20,0.016158179,1.4087907e-21,0.016902191
1.6046271,0.021116689,-0.0054301426,-1.3405634e-20,0.015151806,1.409977e-21,0.016024789
1.6864835,0.019905283,-0.004913392,-2.763481e-20,0.014226544,2.7174335e-21,0.015188141
1.7637046,0.018835636,-0.0045009822,-3.9934769e-20,0.013364925,3.8064281e-21,0.014388352
1.836553,0.01784836,-0.0041482594,-2.9949928e-20,0.012564316,2.7218974e-21,0.013628821
1.9052762,0.016915393,-0.00383044,-8.4816718e-21,0.011820347,8.0432662e-22,0.012910088
1.9701079,0.016023221,-0.0035324362,-3.0176265e-20,0.011129488,2.6345513e-21,0.012232937
2.0312683,0.015165999,-0.0032456548,-1.8134028e-20,0.010490742,1.4388263e-21,0.011599056
2.0889654,0.014342219,-0.0029661586,1.503255e-20,0.0099033954,-1.4063177e-21,0.011009181
2.1433953,0.013552374,-0.002692568,6.6082898e-21,0.0093659355,-5.1144726e-22,0.010462646
2.194743,0.012797713,-0.0024247629,1.8882355e-20,0.0088759122,-1.4360538e-21,0.0099575655
2.2431831,0.012079637,-0.0021631868,1.8759643e-20,0.0084301639,-1.3000237e-21,0.0094911756
2.2888801,0.011399243,-0.0019083646,1.1889448e-20,0.008025146,-7.1211497e-22,0.0090602407
2.3319895,0.010757416,-0.0016607913,8.336085e-21,0.0076570688,-4.782495e-22,0.008661289
2.3726577,0.010155094,-0.0014210214,1.6270613e-20,0.0073220059,-7.5087122e-22,0.0082908048
2.411023,0.0095927231,-0.0011893808,5.8677302e-21,0.0070163438,-1.7509458e-22,0.0079455605
2.4472159,0.0090703208,-0.00096601816,-1.2207912e-20,0.0067368058,4.5503794e-22,0.0076226567
2.4813592,0.0085878328,-0.00075106506,-5.8635189e-21,0.0064803259,1.319961e-22,0.0073195041
2.5135691,0.0081450112,-0.00054454437,6.9216717e-22,0.0062441737,-1.1398657e-23,0.0070339302
2.5439551,0.0077414606,-0.00034641667,-6.2337384e-21,0.0060259565,7.2393393e-23,0.0067641852
2.5726204,0.0073766642,-0.00015659494,-3.9127897e-21,0.0058236276,2.2414831e-23,0.0065089387
2.582654,0.0072554586,-8.9200744e-05,-3.0201447e-21,0.0057538199,1.0742599e-23,0.0064192707
2.5996625,0.0070500037,2.5041477e-05,-1.4779342e-21,0.0056354747,-9.7715093e-24,0.0062672646
2.6251732,0.0067607769,0.00019864791,-4.3230945e-21,0.0054601078,-5.7916065e-23,0.0060386201
2.6492394,0.0065082019,0.00036440252,2.3606781e-21,0.0052964479,-9.1944694e-24,0.0058228125
2.6719428,0.0062914134,0.00052250367,2.7727124e-21,0.0051437154,4.8559759e-23,0.0056199621
2.6933606,0.0061094533,0.0006731731,1.3353611e-21,0.0050014175,3.7713576e-23,0.0054304593
2.7135655,0.0059612557,0.00081665899,1.3346693e-21,0.0048693337,9.023519e-24,0.0052549135
2.7326263,0.0058456302,0.00095324025,2.6521319e-21,0.0047474979,6.2747616e-23,0.0050940954
2.7506078,0.005761247,0.0010832311,5.4947877e-22,0.0046361718,7.7529214e-23,0.004948872
2.767571,0.0057066293,0.0012069848,-3.0125688e-21,0.0045358096,-4.3883761e-23,0.0048201372
2.7835737,0.0056801546,0.0013248945,-4.7861868e-22,0.0044470109,-3.9605822e-23,0.0047087394
2.7986701,0.0056800642,0.0014373866,2.8372335e-22,0.0043704618,-1.257984e-23,0.0046154138
2.8129118,0.0057045375,0.0015449268,9.0514389e-22,0.0043069177,-4.1518377e-24,0.0045407672
2.8263469,0.0057516607,0.0016480056,8.3689817e-22,0.0042570524,1.9487725e-23,0.0044851515
2.8390213,0.0058193051,0.0017470788,-3.1342691e-22,0.0042212677,2.5737201e-23,0.0044485032
2.8509779,0.0059054242,0.0018426039,-2.1760641e-22,0.0041998739,1.2674109e-23,0.0044305672
2.8622575,0.0060080732,0.0019350145,-6.0514997e-22,0.0041930427,4.8604793e-23,0.0044308945
2.8728984,0.0061252166,0.002024656,-1.339069e-21,0.0042006041,4.8668797e-23,0.0044486758
2.8829367,0.0062548248,0.0021117953,-4.570835e-22,0.0042221017,2.1957189e-24,0.0044828319
2.8924066,0.0063948589,0.0021965998,-2.6183201e-22,0.004256798,1.4379235e-23,0.0045320429
2.9013402,0.0065432584,0.0022791268,-2.1935009e-22,0.0043036886,6.2427853e-24,0.0045947787
2.9097679,0.006697931,0.0023593218,8.5650452e-23,0.0043615304,-1.1445575e-23,0.0046693333
2.9177184,0.0068567479,0.0024370218,3.5710082e-23,0.0044288787,-3.7759668e-24,0.0047538618
2.9252187,0.0070175458,0.0025119641,8.0467645e-23,0.0045041348,-8.5840371e-24,0.0048464197
2.9322943,0.0071781588,0.0025838239,7.9981265e-23,0.0045856024,-6.6456251e-24,0.0049449962
2.9389692,0.0073364415,0.002652149,4.0799963e-23,0.0046713124,-2.4998532e-24,0.0050475571
2.9452661,0.0074902117,0.002716475,2.7043914e-23,0.0047595842,-3.5443306e-24,0.0051521177
2.9512065,0.0076393648,0.0027781212,4.5041505e-23,0.0048478666,-9.3011496e-24,0.0052559373
2.9568104,0.0077784137,0.0028335309,1.3832701e-22,0.0049358927,-1.3266725e-23,0.0053587084
2.9620971,0.0079027109,0.0028797362,-8.9667537e-24,0.005023119,1.1332394e-23,0.0054597319
2.9670843,0.0080149783,0.0029204671,-1.2422644e-22,0.0051052959,1.2632541e-23,0.0055546479
2.9717892,0.008114398,0.0029567111,3.1226394e-23,0.0051791512,-1.1007169e-23,0.0056400037
2.9762276,0.0081976337,0.0029871799,5.6081934e-23,0.0052423033,-5.937183e-24,0.0057134243
2.9804147,0.0082615928,0.0030107102,5.0709202e-24,0.0052927532,1.9798672e-24,0.0057728045
2.9843647,0.0083035035,0.0030262751,-7.1316231e-24,0.0053287648,-8.8009357e-26,0.0058162565
2.9880911,0.008320863,0.0030329396,2.0435015e-23,0.0053487277,-2.9322322e-24,0.0058420464
2.9916064,0.0083113413,0.0030298373,-1.2358374e-24,0.0053511148,2.2683409e-24,0.005848512
2.9949226,0.0082724582,0.0030160509,-1.9241981e-23,0.0053342748,2.5399828e-24,0.0058338396
2.9980511,0.0082014112,0.0029905519,-1.1395016e-24,0.0052963419,-1.5936022e-24,0.0057959573
3.0010024,0.0080950151,0.0029521749,1.0775015e-23,0.0052351847,-1.7164673e-24,0.0057324876
3.0037866,0.0079495037,0.0028995442,2.2838649e-24,0.0051482806,-2.6315949e-25,0.0056406125
3.0064131,0.007760391,0.0028310229,6.0258706e-24,0.005032624,-1.3683374e-24,0.0055169747
3.0088909,0.0075223713,0.0027446805,6.9020281e-24,0.0048846673,-5.5521757e-25,0.0053576078
3.0112284,0.0072293095,0.0026382912,-1.1407398e-25,0.0047002925,5.4618262e-25,0.0051579282
3.0134335,0.0068743521,0.0025091734,-2.4832734e-26,0.0044748109,4.6975459e-25,0.0049128185
3.0155138,0.006450345,0.0023546127,-3.2426015e-24,0.00420311,1.0604299e-24,0.0046169225
3.0174762,0.0059507237,0.0021724997,-3.3942486e-24,0.0038812809,7.3773128e-25,0.0042652892
3.0193275,0.0053706455,0.001961174,-3.0205876e-24,0.0035066215,3.7000148e-25,0.0038542847
3.021074,0.0046920162,0.0017060128,-1.3633519e-24,0.0030858164,-3.9111932e-26,0.0033868662
3.0227216,0.0039146686,0.0014037423,-4.7896329e-25,0.0026248585,-1.4292938e-25,0.002868091
3.0242759,0.0030751928,0.0010733339,1.0799223e-25,0.0021309945,-1.573851e-25,0.0023101345
3.0257422,0.0022332767,0.00074102701,2.1463771e-25,0.0016284588,-4.3701315e-26,0.0017439859
3.0271255,0.0014751544,0.00044726247,1.0232519e-25,0.0011519036,1.2762712e-26,0.0012140979
3.0284304,0.00087776158,0.00022876411,1.1023598e-26,0.00074040775,2.9910697e-27,0.00076697072
3.0296614,0.00046868277,9.6468549e-05,8.4172841e-27,0.00042422904,-1.9294364e-27,0.00043283854
3.0308227,0.00022254472,3.2609658e-05,2.0283239e-27,0.00021201254,4.1951509e-28,0.00021405099
3.0319183,9.1086482e-05,8.4582201e-06,2.730755e-28,8.935658e-05,-5.744664e-29,8.9691743e-05
3.0329518,2.9923668e-05,1.5432436e-06,7.7164211e-29,2.9746949e-05,-3.0116229e-30,2.9781393e-05
3.0339268,6.8566328e-06,1.6500896e-07,3.8924962e-30,6.8478083e-06,7.9459997e-31,6.8495509e-06
3.0348466,8.2317982e-07,6.7463741e-09,1.7586729e-31,8.23059e-07,1.2313288e-31,8.2308351e-07
3.0357143,6.6666778e-11,7.8722534e-21,5.2371123e-39,6.6666596e-11,-4.2441113e-42,6.6666626e-11
