y,U_0,U_1,U_2
0,0,0,0
0.00086769924,-0.022568796,2.255466e-05,-6.321847e-25
0.0017874829,-0.046334256,8.390587e-05,3.8209978e-25
0.0027624773,-0.071696905,0.00019345097,2.0299392e-24
0.0037959966,-0.098720999,0.000354852,9.6287954e-25
0.0048915537,-0.12741453,0.00057163562,1.2151471e-25
0.0060528726,-0.15766199,0.00084863775,1.3602994e-24
0.0072839007,-0.18912023,0.0011922414,3.3348856e-25
0.0085888223,-0.22111723,0.0016055759,-2.0097652e-25
0.0099720729,-0.25265155,0.0020808553,1.061684e-24
0.011438354,-0.28257249,0.0026010732,-3.2015167e-25
0.01299265,-0.30987583,0.0031517538,8.2018515e-25
0.014640245,-0.33393102,0.0037260836,2.3463761e-24
0.016386737,-0.35452883,0.0043194022,3.0289325e-25
0.018238064,-0.3717921,0.0049252008,1.1841153e-24
0.020200518,-0.38604475,0.0055367283,1.7696005e-24
0.022280771,-0.39769782,0.0061493629,1.2788905e-24
0.024485892,-0.40717064,0.006761185,-1.7163697e-24
0.026823378,-0.41484576,0.007372389,-4.597184e-24
0.029301173,-0.42104962,0.0079844705,-2.3863326e-24
0.0319277,-0.42604942,0.008599583,1.2074142e-24
0.034711887,-0.43005842,0.0092201383,2.7007896e-24
0.037663197,-0.43324442,0.0098486004,1.8129304e-25
0.040791661,-0.4357384,0.010487402,-8.9348553e-25
0.044107915,-0.43764221,0.011138921,-3.1438451e-24
0.047623229,-0.43903487,0.011805485,-2.2848863e-24
0.051349553,-0.43997748,0.012489393,9.8726759e-25
0.055299553,-0.44051705,0.01319293,-1.2839322e-24
0.059486654,-0.44068929,0.013918397,-3.407646e-25
0.06392509,-0.44052082,0.014668128,-1.0509275e-24
0.068629948,-0.44003074,0.015444518,-1.43681e-24
0.073617218,-0.43923179,0.01625004,3.7674004e-24
0.078903853,-0.43813126,0.017087273,-1.027136e-24
0.084507823,-0.4367315,0.017958916,-4.368947e-24
0.090448176,-0.4350304,0.018867809,-1.3863939e-24
0.096745104,-0.43302154,0.01981696,-6.2634434e-24
0.10342001,-0.43069431,0.020809548,-9.4735694e-24
0.11049558,-0.42803387,0.021848951,-1.3396187e-23
0.11799587,-0.42502095,0.022938743,-1.4083346e-23
0.12594638,-0.42163161,0.024082704,-6.4537177e-24
0.13437411,-0.41783679,0.025284806,-4.2648512e-24
0.14330773,-0.41360183,0.026549187,-5.2692164e-24
0.1527776,-0.40888574,0.027880099,-5.2417198e-24
0.1628159,-0.4036404,0.029281808,8.5456348e-24
0.17345677,-0.39780952,0.030758458,1.2408051e-23
0.18473635,-0.3913274,0.032313881,1.4736759e-23
0.19669301,-0.38411746,0.033951222,2.5665791e-23
0.20936737,-0.37609044,0.035672456,2.4310472e-23
0.22280253,-0.36714217,0.037477727,8.5935699e-24
0.23704414,-0.35715094,0.039364334,-1.7516045e-23
0.25214061,-0.34597419,0.041325206,-7.4599106e-23
0.26814327,-0.33344427,0.043346738,-9.7963319e-23
0.28510649,-0.31936307,0.045405688,-6.7795663e-23
0.30308795,-0.30349328,0.047463666,-1.2603095e-22
0.32214876,-0.28554164,0.049462129,-9.9826842e-23
0.34235371,-0.2651368,0.051324943,-1.6660188e-23
0.36377149,-0.24176694,0.052887594,1.0844483e-22
0.38647488,-0.21448327,0.053904694,9.3006978e-24
0.41054106,-0.18161195,0.054107113,-2.1467786e-23
0.43605183,-0.14116199,0.053023467,9.8662737e-23
0.46309391,-0.091494164,0.049955443,2.5694018e-22
0.49175922,-0.032093332,0.044206383,6.5934054e-23
0.52214518,0.035026099,0.035479236,-2.8369645e-22
0.55435509,0.10489104,0.024540329,-6.5338447e-22
0.58849842,0.17220828,0.013018738,-8.4761682e-22
0.62469124,0.23445167,0.0023466558,-4.1795629e-22
0.66305656,0.2919426,-0.00691006,3.3349484e-22
0.70372479,0.34613714,-0.014833241,6.8921373e-22
0.74683417,0.39825146,-0.021542707,5.1296027e-22
0.79253123,0.44905581,-0.027141101,2.6858504e-22
0.84097128,0.49916862,-0.031821001,-2.4089125e-22
0.892319,0.54903685,-0.035717148,-3.2021078e-22
0.9467489,0.59885344,-0.038860639,-8.9912224e-24
1.004446,0.64852892,-0.04124851,5.1166599e-23
1.0656064,0.69767838,-0.042870563,-2.9951776e-23
1.1304381,0.7456221,-0.043725574,1.4105083e-23
1.1991613,0.79142556,-0.043838594,6.764892e-24
1.2720096,0.83406482,-0.043280737,9.4339257e-23
1.3492308,0.8727277,-0.04217266,-2.0544702e-22
1.4310872,0.90707425,-0.040656861,-3.8996445e-22
1.5178571,0.93698898,-0.038880257,-1.9331971e-22
1.6046271,0.96206785,-0.037020178,-2.008553e-22
1.6864835,0.98251317,-0.035212818,-3.8656468e-22
1.7637046,0.99934902,-0.03349162,-5.364947e-22
1.836553,1.0135127,-0.031853773,-3.967257e-22
1.9052762,1.0256295,-0.030295005,-1.2420963e-22
1.9701079,1.0361121,-0.028811714,-4.0035652e-22
2.0312683,1.0452434,-0.027400931,-2.336281e-22
2.0889654,1.0532283,-0.026060234,2.0609552e-22
2.1433953,1.0602224,-0.024787456,9.5607909e-23
2.194743,1.0663481,-0.023580396,2.6133177e-22
2.2431831,1.0717042,-0.022436714,2.6992889e-22
2.2888801,1.0763721,-0.021353909,1.7318728e-22
2.3319895,1.0804191,-0.020329284,1.2807864e-22
2.3726577,1.083901,-0.019360035,2.6341322e-22
2.411023,1.0868639,-0.018443328,9.5798969e-23
2.4472159,1.0893458,-0.017576274,-2.1882566e-22
2.4813592,1.0913773,-0.016756016,-1.2086656e-22
2.5135691,1.0929827,-0.015979771,5.9916873e-24
2.5439551,1.0941801,-0.015244832,-1.4333696e-22
2.5726204,1.0949823,-0.014548594,-8.4467959e-23
2.582654,1.0951362,-0.014303662,-7.0656319e-23
2.5996625,1.0953969,-0.013888544,-4.6569295e-23
2.6251732,1.0954271,-0.013262313,-1.2616573e-22
2.6492394,1.0950716,-0.012667648,8.4584103e-23
2.6719428,1.0943251,-0.012102397,9.41267e-23
2.6933606,1.0931789,-0.011564521,5.9357203e-23
2.7135655,1.0916209,-0.011052081,5.6916335e-23
2.7326263,1.0896365,-0.010563233,1.4114685e-22
2.7506078,1.087209,-0.010096224,1.0031675e-23
2.767571,1.0843202,-0.009649383,-1.8658409e-22
2.7835737,1.0809512,-0.0092211153,-3.41234e-23
2.7986701,1.0770828,-0.0088099041,1.761911e-23
2.8129118,1.0726967,-0.0084143075,7.4241828e-23
2.8263469,1.0677753,-0.0080329679,7.3159283e-23
2.8390213,1.0623027,-0.0076646176,-4.0487315e-23
2.8509779,1.0562648,-0.0073080844,-2.4641237e-23
2.8622575,1.0496496,-0.0069623132,-8.8697451e-23
2.8728984,1.0424475,-0.0066263795,-1.8983698e-22
2.8829367,1.0346513,-0.0062994971,-6.8456236e-23
2.8924066,1.0262559,-0.0059810329,-4.801945e-23
2.9013402,1.0172589,-0.0056705088,-3.6808313e-23
2.9097679,1.0076599,-0.0053675999,1.7118038e-23
2.9177184,0.99746073,-0.0050721262,9.3106719e-24
2.9252187,0.98666528,-0.0047840433,2.0617564e-23
2.9322943,0.97527903,-0.0045034391,2.0591775e-23
2.9389692,0.96330861,-0.0042306059,1.0699112e-23
2.9452661,0.95076132,-0.0039650171,7.7187549e-24
2.9512065,0.93764496,-0.0037074525,1.4333445e-23
2.9568104,0.92395028,-0.0034593259,4.4867076e-23
2.9620971,0.90963675,-0.0032188134,-8.9114127e-24
2.9670843,0.89466747,-0.0029849432,-4.4728872e-23
2.9717892,0.87903963,-0.0027591518,1.5502623e-23
2.9762276,0.86277007,-0.002542248,2.4356764e-23
2.9804147,0.84587538,-0.0023345669,1.093022e-24
2.9843647,0.82836227,-0.0021365031,-2.4710795e-24
2.9880911,0.8102235,-0.0019483188,1.183679e-23
2.9916064,0.7914366,-0.0017701255,-2.0024164e-24
2.9949226,0.77196341,-0.0016019293,-1.2538004e-23
2.9980511,0.75174947,-0.0014436416,8.2492643e-25
3.0010024,0.7307233,-0.0012951026,9.6425712e-24
3.0037866,0.7087955,-0.0011561095,1.7806466e-24
3.0064131,0.68585769,-0.0010264262,8.3724016e-24
3.0088909,0.6617815,-0.00090581558,7.7101185e-24
3.0112284,0.63641801,-0.00079411665,4.4434017e-26
3.0134335,0.60959763,-0.00069115823,-1.6243773e-24
3.0155138,0.58113292,-0.00059602486,-9.3068968e-24
3.0174762,0.55082694,-0.00050488805,-1.2530911e-23
3.0193275,0.51847583,-0.00042411147,-1.2673967e-23
3.021074,0.48380621,-0.00036069646,-7.4794613e-24
3.0227216,0.44648177,-0.00030578083,-2.4137534e-24
3.0242759,0.40632574,-0.00025702442,3.8415061e-24
3.0257422,0.36352983,-0.00021060529,6.6608988e-24
3.0271255,0.31876509,-0.00015687369,3.7650266e-24
3.0284304,0.27316704,-0.00010257852,1.9328365e-24
3.0296614,0.2280441,-6.2546762e-05,3.103907e-24
3.0308227,0.1844671,-3.9893829e-05,2.099398e-24
3.0319183,0.14304871,-2.6344175e-05,2.3149097e-24
3.0329518,0.10399867,-1.5628239e-05,2.4140631e-24
3.0339268,0.067295877,-7.1399607e-06,2.2061938e-24
3.0348466,0.032827109,-1.8845452e-06,1.6188725e-24
3.0357143,0,0,0
