/*--------------------------------*- C++ -*----------------------------------*\
| =========                 |                                                 |
| \\      /  F ield         | OpenFOAM: The Open Source CFD Toolbox           |
|  \\    /   O peration     | Version:  2.4.0                                 |
|   \\  /    A nd           | Web:      www.OpenFOAM.org                      |
|    \\/     M anipulation  |                                                 |
\*---------------------------------------------------------------------------*/
FoamFile
{
    version     2.0;
    format      ascii;
    class       volScalarField;
    location    "10000";
    object      omega;
}
// * * * * * * * * * * * * * * * * * * * * * * * * * * * * * * * * * * * * * //

dimensions      [0 0 -1 0 0 0 0];

internalField   nonuniform List<scalar> 
9820
(
1.0129281
1.0138176
1.0148192
1.0159312
1.0171531
1.0184871
1.0199191
0.96722487
0.96801971
0.96889989
0.96987028
0.97093387
0.97209543
0.97335186
0.92622334
0.92687079
0.92759262
0.92839173
0.92927124
0.93023477
0.93128329
0.88784197
0.88790186
0.88801972
0.88818854
0.88840979
0.88868536
0.88901747
0.88940815
0.88986179
0.89037687
0.89095498
0.89159835
0.89230975
0.89309144
0.89394526
0.85619948
0.856224
0.85628847
0.85640376
0.85656403
0.85677056
0.85702488
0.85732859
0.85768385
0.85809194
0.85855417
0.859072
0.85964708
0.86028114
0.86097587
0.8282411
0.8282406
0.82826286
0.82832141
0.8284253
0.82856906
0.82875384
0.82898105
0.82925223
0.82956874
0.82993188
0.83034297
0.83080329
0.83131414
0.83187694
0.80408581
0.80392458
0.80379266
0.80369069
0.80361877
0.80357863
0.8035757
0.8035937
0.80364206
0.80372919
0.80385122
0.80400988
0.80420659
0.80444253
0.80471884
0.80503661
0.80539685
0.80580053
0.80624878
0.7823787
0.782237
0.78211564
0.78201521
0.78193652
0.7818807
0.7818495
0.78184794
0.78186151
0.78189877
0.7819711
0.78207605
0.78221351
0.7823839
0.78258795
0.78282652
0.78310051
0.7834107
0.78375851
0.76301989
0.76291669
0.76282743
0.76275287
0.76269454
0.76265375
0.76263145
0.7626324
0.76264551
0.76267827
0.7627363
0.76281659
0.76292001
0.76304756
0.76320024
0.76337908
0.76358517
0.76381923
0.764085
0.74601438
0.74589683
0.74579373
0.7457053
0.74563206
0.74557353
0.74552971
0.74550126
0.7454892
0.74549283
0.74550939
0.7455449
0.74559834
0.74566816
0.74575284
0.74585414
0.74597341
0.74611178
0.74627029
0.7464499
0.74665166
0.74687651
0.73053922
0.73044838
0.7303708
0.73030665
0.73025618
0.73021954
0.73019716
0.73019074
0.73019615
0.73021362
0.73024865
0.73029863
0.73036407
0.73044505
0.73054121
0.7306528
0.7307803
0.73092429
0.73108546
0.73126446
0.73146224
0.73167709
0.73190764
0.7321558
0.73242356
0.7180478
0.71787352
0.71771031
0.71755826
0.71741747
0.71728805
0.71717014
0.71706387
0.71696936
0.71688673
0.7168161
0.71675761
0.71671139
0.71667755
0.71665652
0.71665037
0.71665518
0.7166705
0.71670129
0.71674571
0.71680382
0.71687582
0.71696198
0.71706237
0.71717716
0.71730654
0.71745078
0.71761026
0.71778531
0.71797647
0.71818371
0.71840665
0.71864554
0.71890137
0.705921
0.70577289
0.70563466
0.70550642
0.70538826
0.70528029
0.70518264
0.70509544
0.7050188
0.70495287
0.70489775
0.70485357
0.70482047
0.70479839
0.70478934
0.7047919
0.70480279
0.70482643
0.70486312
0.704912
0.70497322
0.70504699
0.7051335
0.70523298
0.7053456
0.70547154
0.70561097
0.70576412
0.7059312
0.70611249
0.70630823
0.70651852
0.70674344
0.70698365
0.69545044
0.69532563
0.69520947
0.69510206
0.69500348
0.69491386
0.6948333
0.69476194
0.69469989
0.69464729
0.69460424
0.69457089
0.69454732
0.69453363
0.69453297
0.69453883
0.69455425
0.69458202
0.69462052
0.69466992
0.69473036
0.69480201
0.69488505
0.69497969
0.69508613
0.69520454
0.69533509
0.69547795
0.69563329
0.69580129
0.69598219
0.69617619
0.69638341
0.69660442
0.68655191
0.6864482
0.68635187
0.686263
0.68618171
0.68610809
0.68604227
0.68598434
0.68593444
0.68589269
0.68585919
0.68583412
0.68581732
0.68581041
0.68581262
0.68582103
0.68583911
0.68586718
0.68590466
0.68595168
0.6860084
0.68607499
0.6861516
0.68623842
0.68633565
0.68644346
0.68656201
0.68669147
0.686832
0.68698376
0.68714694
0.68732176
0.68750833
0.68770722
0.67978564
0.67966639
0.67955274
0.67944477
0.67934257
0.67924621
0.67915577
0.67907136
0.67899305
0.67892094
0.67885512
0.67879569
0.67874276
0.67869643
0.67865681
0.67862402
0.67859815
0.67857943
0.67856747
0.67856503
0.6785683
0.67857759
0.67859597
0.67862225
0.67865657
0.67869906
0.67874989
0.67880919
0.67887713
0.67895388
0.67903962
0.67913451
0.67923872
0.67935242
0.67947577
0.67960893
0.67975207
0.67990539
0.68006902
0.68024345
0.67370263
0.67360848
0.67351873
0.67343347
0.67335275
0.67327666
0.67320525
0.67313862
0.67307684
0.67301999
0.67296817
0.67292144
0.67287992
0.6728437
0.67281288
0.67278757
0.67276786
0.67275395
0.67274545
0.67274534
0.67274877
0.67275771
0.67277422
0.67279718
0.67282677
0.67286313
0.67290641
0.67295678
0.67301436
0.67307933
0.67315183
0.67323205
0.67332015
0.6734163
0.67352066
0.6736334
0.67375469
0.67388471
0.67402359
0.67417178
0.66902842
0.66895786
0.66889057
0.66882658
0.66876596
0.66870877
0.66865506
0.66860489
0.66855834
0.66851548
0.66847638
0.66844111
0.66840977
0.66838243
0.66835919
0.66834014
0.66832536
0.66831504
0.668309
0.66830927
0.66831231
0.66831975
0.66833303
0.66835139
0.66837498
0.66840395
0.66843843
0.66847857
0.66852449
0.66857632
0.66863425
0.66869844
0.66876906
0.66884628
0.66893028
0.66902121
0.66911924
0.66922456
0.6693373
0.66945787
0.66639189
0.66632168
0.66625338
0.66618701
0.66612258
0.6660601
0.66599958
0.66594105
0.66588451
0.66582999
0.66577752
0.66572712
0.66567883
0.66563268
0.66558869
0.66554692
0.66550741
0.66547019
0.66543533
0.66540286
0.66537286
0.66534538
0.66532049
0.66529825
0.66527874
0.66526203
0.66524821
0.66523735
0.66522962
0.66522478
0.66522457
0.66522642
0.6652313
0.66524029
0.66525304
0.66526964
0.66529023
0.6653149
0.6653438
0.66537695
0.66541454
0.66545678
0.66550384
0.66555591
0.66561313
0.66567569
0.66574373
0.66581743
0.66589697
0.66598248
0.66607432
0.6641485
0.66411071
0.66407391
0.66403807
0.66400318
0.66396926
0.66393627
0.66390424
0.66387315
0.66384301
0.66381383
0.66378562
0.66375839
0.66373215
0.66370694
0.66368276
0.66365964
0.66363763
0.66361674
0.66359703
0.66357853
0.6635613
0.66354536
0.6635308
0.66351769
0.66350605
0.66349597
0.66348752
0.66348084
0.66347583
0.66347308
0.66347263
0.66347355
0.66347634
0.66348194
0.66349004
0.6635007
0.66351395
0.66352999
0.6635491
0.66357143
0.66359707
0.66362615
0.6636588
0.66369518
0.66373544
0.66377974
0.66382824
0.66388111
0.66393853
0.6640008
0.66331446
0.66330448
0.66329487
0.66328558
0.66327657
0.66326781
0.66325926
0.66325089
0.66324266
0.66323455
0.66322653
0.66321857
0.66321065
0.66320276
0.66319487
0.66318697
0.66317905
0.6631711
0.66316311
0.66315508
0.66314702
0.66313893
0.66313082
0.6631227
0.66311459
0.6631065
0.66309846
0.66309054
0.66308269
0.66307504
0.66306761
0.66306035
0.6630534
0.66304683
0.66304071
0.66303504
0.66303
0.6630258
0.6630222
0.66301922
0.6630172
0.66301649
0.66301684
0.6630181
0.66302083
0.66302551
0.66303203
0.66304045
0.66305089
0.66306345
0.66307829
0.66309555
0.66311538
0.66313796
0.66316341
0.66319206
0.66322402
0.66325914
0.6632979
0.66346742
0.66349216
0.66351671
0.663541
0.66356499
0.6635886
0.66361179
0.66363449
0.66365665
0.66367821
0.66369914
0.66371936
0.66373884
0.66375753
0.66377538
0.66379236
0.66380842
0.66382353
0.66383766
0.66385077
0.66386284
0.66387385
0.66388377
0.66389259
0.6639003
0.66390688
0.66391234
0.66391667
0.66391987
0.66392194
0.66392301
0.66392281
0.66392179
0.66391963
0.66391627
0.6639121
0.66390704
0.66390111
0.66389434
0.66388681
0.66387866
0.66386991
0.66386055
0.66385069
0.66384056
0.6638302
0.66381959
0.66380892
0.66379833
0.663788
0.66377807
0.66376868
0.66375997
0.66375209
0.6637452
0.66373946
0.66373505
0.66373206
0.66373115
0.66373185
0.66373417
0.66373856
0.66492432
0.66498392
0.66504269
0.66510053
0.66515738
0.66521315
0.66526775
0.66532113
0.6653732
0.66542388
0.66547311
0.66552083
0.66556695
0.66561141
0.66565416
0.66569513
0.66573426
0.6657715
0.6658068
0.66584011
0.66587138
0.66590056
0.66592763
0.66595255
0.66597528
0.6659958
0.66601408
0.66603011
0.66604388
0.66605535
0.66606459
0.6660715
0.66607616
0.6660787
0.66607846
0.66607658
0.66607242
0.666066
0.66605744
0.66604679
0.66603415
0.66601955
0.66600304
0.66598469
0.6659646
0.66594288
0.66591957
0.66589481
0.66586853
0.66584092
0.66581216
0.6657824
0.66575178
0.66572045
0.66568858
0.66565631
0.66562383
0.66559125
0.66555896
0.66552693
0.66549548
0.66546355
0.66723283
0.6673322
0.66743062
0.66752799
0.66762421
0.66771917
0.66781277
0.66790489
0.66799544
0.6680843
0.6681714
0.66825662
0.66833987
0.66842105
0.66850008
0.66857686
0.6686513
0.66872332
0.66879283
0.66885975
0.668924
0.6689855
0.66904418
0.66909997
0.66915279
0.66920259
0.66924931
0.66929287
0.66933324
0.66937036
0.66940419
0.66943468
0.66946179
0.66948551
0.66950578
0.66952262
0.66953597
0.66954583
0.66955229
0.669555
0.66955402
0.6695505
0.66954317
0.66953221
0.66951785
0.66950014
0.66947912
0.66945484
0.66942735
0.66939673
0.66936305
0.66932639
0.66928686
0.66924449
0.66919939
0.66915167
0.66910148
0.66904895
0.66899422
0.66893746
0.66887881
0.66881845
0.66875653
0.66869333
0.66862887
0.66856382
0.66849643
0.67119864
0.67133431
0.67146849
0.67160105
0.67173188
0.67186085
0.67198785
0.67211273
0.67223539
0.67235571
0.67247355
0.67258882
0.67270138
0.67281113
0.67291795
0.67302174
0.67312238
0.67321977
0.6733138
0.67340437
0.67349139
0.67357475
0.67365437
0.67373014
0.67380199
0.67386982
0.67393357
0.67399315
0.67404848
0.6740995
0.67414615
0.67418836
0.67422608
0.67425926
0.67428784
0.6743118
0.67433109
0.67434569
0.67435556
0.67436082
0.67436013
0.67435643
0.67434797
0.67433408
0.67431547
0.67429216
0.67426419
0.67423159
0.67419439
0.67415266
0.67410646
0.67405585
0.67400092
0.67394177
0.67387845
0.67381107
0.67373974
0.67366459
0.67358577
0.67350341
0.67341766
0.67332872
0.67323671
0.67314191
0.67304431
0.67294476
0.67284123
0.67652908
0.6767007
0.67687029
0.67703772
0.67720283
0.67736549
0.67752556
0.67768289
0.67783735
0.67798879
0.67813707
0.67828207
0.67842363
0.67856164
0.67869595
0.67882643
0.67895297
0.67907542
0.67919367
0.67930759
0.67941707
0.67952199
0.67962223
0.67971768
0.67980825
0.67989381
0.67997427
0.68004954
0.68011952
0.68018412
0.68024326
0.68029686
0.68034484
0.68038713
0.68042366
0.68045439
0.68047924
0.68049821
0.68051111
0.68051843
0.68051776
0.68051343
0.68050328
0.68048605
0.68046275
0.68043339
0.68039798
0.68035656
0.68030914
0.68025577
0.68019649
0.68013138
0.68006048
0.67998389
0.6799017
0.67981398
0.67972082
0.67962235
0.6795187
0.67941
0.67929642
0.67917811
0.67905524
0.67892805
0.67879652
0.67866159
0.67852116
0.68324616
0.68345368
0.68365863
0.68386086
0.68406021
0.68425651
0.6844496
0.68463933
0.68482553
0.68500804
0.68518671
0.68536138
0.68553189
0.68569809
0.68585983
0.68601695
0.68616931
0.68631676
0.68645915
0.68659635
0.68672821
0.68685459
0.68697537
0.68709041
0.68719958
0.68730275
0.68739982
0.68749065
0.68757513
0.68765316
0.68772463
0.68778945
0.6878475
0.68789871
0.68794299
0.68798027
0.68801044
0.68803353
0.68804921
0.68805819
0.68805738
0.68805213
0.68803984
0.68801891
0.68799054
0.68795473
0.68791148
0.6878608
0.68780269
0.6877372
0.68766435
0.68758418
0.68749677
0.68740216
0.68730045
0.68719173
0.68707606
0.68695356
0.68682435
0.68668856
0.68654635
0.68639788
0.6862433
0.68608287
0.68591656
0.68574529
0.68556715
0.68537515
0.68527411
0.69137922
0.69162286
0.6918634
0.69210067
0.69233447
0.69256464
0.69279099
0.69301334
0.69323151
0.69344532
0.6936546
0.69385916
0.69405882
0.69425343
0.69444279
0.69462674
0.69480512
0.69497774
0.69514445
0.69530509
0.69545949
0.69560749
0.69574894
0.69588368
0.69601157
0.69613246
0.69624621
0.69635268
0.69645173
0.69654324
0.69662707
0.69670311
0.69677124
0.69683135
0.69688332
0.69692709
0.69696249
0.69698958
0.69700794
0.69701835
0.69701729
0.69701094
0.69699623
0.69697134
0.69693762
0.69689506
0.69684362
0.69678331
0.69671412
0.69663608
0.69654918
0.69645349
0.69634902
0.69623585
0.69611402
0.69598364
0.6958448
0.69569756
0.69554204
0.69537839
0.69520674
0.69502725
0.6948401
0.69464549
0.6944435
0.69423485
0.69401812
0.69378366
0.69365595
0.70096496
0.70124525
0.70152191
0.70179474
0.70206354
0.70232811
0.70258824
0.70284373
0.70309438
0.70334
0.70358039
0.70381533
0.70404465
0.70426814
0.70448561
0.70469686
0.70490171
0.70509996
0.70529143
0.70547593
0.70565328
0.7058233
0.7059858
0.70614063
0.70628759
0.70642654
0.70655729
0.7066797
0.70679359
0.70689883
0.70699526
0.70708275
0.70716113
0.70723031
0.70729012
0.70734049
0.7073812
0.70741236
0.70743343
0.70744526
0.70744391
0.7074364
0.70741916
0.70739017
0.70735093
0.70730139
0.70724153
0.70717131
0.70709072
0.70699975
0.70689842
0.70678674
0.70666475
0.70653248
0.70638999
0.70623734
0.70607463
0.70590196
0.70571939
0.70552707
0.70532515
0.70511376
0.70489311
0.70466335
0.7044247
0.70417754
0.70392129
0.70364311
0.70348744
0.71204762
0.71236541
0.71267904
0.71298828
0.71329291
0.7135927
0.71388745
0.71417691
0.71446088
0.71473913
0.71501143
0.71527757
0.71553734
0.7157905
0.71603685
0.71627617
0.71650824
0.71673286
0.71694981
0.71715889
0.71735988
0.71755259
0.71773681
0.71791235
0.71807902
0.71823661
0.71838494
0.71852383
0.7186531
0.71877257
0.71888207
0.71898143
0.7190705
0.71914911
0.7192171
0.71927439
0.7193207
0.71935618
0.71938012
0.71939361
0.71939203
0.71938342
0.71936374
0.71933065
0.71928584
0.71922925
0.71916082
0.71908051
0.71898828
0.71888413
0.71876803
0.71864
0.71850005
0.71834821
0.71818451
0.71800902
0.7178218
0.71762298
0.71741263
0.71719084
0.71695779
0.71671358
0.71645848
0.71619252
0.71591618
0.71562927
0.71533259
0.71500898
0.71482625
0.71481284
0.72467916
0.72503563
0.7253874
0.72573422
0.72607586
0.72641206
0.72674259
0.72706719
0.72738562
0.72769765
0.72800302
0.72830149
0.72859283
0.72887678
0.72915311
0.72942158
0.72968195
0.72993399
0.73017747
0.73041214
0.73063778
0.73085416
0.73106106
0.73125825
0.73144551
0.73162264
0.7317894
0.73194561
0.73209104
0.73222551
0.7323488
0.73246074
0.73256113
0.73264981
0.73272657
0.73279131
0.73284369
0.73288399
0.73291113
0.73292683
0.73292515
0.73291566
0.73289384
0.73285682
0.73280655
0.73274295
0.73266595
0.73257549
0.73247152
0.732354
0.7322229
0.73207822
0.73191995
0.73174812
0.73156274
0.73136386
0.73115154
0.73092587
0.73068698
0.73043493
0.73016988
0.7298919
0.72960137
0.7292981
0.72898302
0.72865502
0.7283169
0.72794616
0.72773602
0.72771531
0.73891945
0.73931614
0.73970759
0.74009354
0.74047372
0.74084786
0.7412157
0.74157696
0.74193139
0.7422787
0.74261864
0.74295094
0.74327532
0.74359153
0.7438993
0.74419836
0.74448846
0.74476932
0.7450407
0.74530233
0.74555396
0.74579533
0.74602619
0.74624629
0.74645539
0.74665324
0.74683961
0.74701426
0.74717695
0.74732747
0.74746558
0.74759108
0.74770373
0.74780336
0.74788971
0.74796272
0.74802191
0.74806772
0.74809864
0.74811736
0.74811586
0.74810588
0.74808251
0.74804188
0.74798642
0.74791603
0.74783062
0.74773009
0.74761439
0.74748345
0.74733723
0.7471757
0.74699885
0.74680667
0.74659919
0.74637644
0.74613845
0.7458853
0.74561711
0.74533399
0.74503608
0.74472337
0.74439639
0.74405466
0.74369972
0.74332922
0.74294859
0.742529
0.74229068
0.74226329
0.75483653
0.75527536
0.75570843
0.75613544
0.75655609
0.7569701
0.75737718
0.75777703
0.75816935
0.75855387
0.75893027
0.75929828
0.75965759
0.76000792
0.76034897
0.76068045
0.76100208
0.76131356
0.76161461
0.76190493
0.76218426
0.7624523
0.76270878
0.76295342
0.76318594
0.76340608
0.76361356
0.76380812
0.76398951
0.76415746
0.76431173
0.76445207
0.76457823
0.76469
0.76478709
0.76486943
0.76493645
0.76498875
0.7650243
0.76504707
0.76504629
0.76503645
0.76501232
0.7649686
0.76490842
0.76483165
0.76473815
0.76462781
0.76450055
0.76435628
0.76419494
0.76401648
0.76382089
0.76360812
0.7633782
0.76313113
0.76286697
0.76258574
0.76228758
0.76197254
0.76164092
0.76129249
0.76092803
0.76054663
0.76015069
0.75973619
0.75931189
0.75884171
0.75857423
0.75854106
0.77250685
0.7729902
0.77346724
0.77393767
0.77440117
0.77485741
0.77530609
0.77574688
0.77617946
0.77660351
0.77701872
0.77742476
0.77782131
0.77820804
0.77858465
0.77895081
0.7793062
0.77965051
0.77998341
0.78030459
0.78061375
0.78091056
0.78119471
0.78146591
0.78172383
0.78196819
0.78219869
0.78241502
0.7826169
0.78280405
0.78297617
0.783133
0.78327425
0.78339969
0.78350897
0.78360204
0.78367823
0.78373824
0.78377971
0.7838074
0.78380894
0.78379974
0.78377566
0.78372969
0.78366554
0.78358302
0.78348197
0.78336227
0.78322379
0.78306644
0.78289014
0.78269482
0.78248043
0.78224694
0.78199433
0.7817226
0.78143181
0.78112195
0.78079318
0.78044544
0.78007921
0.77969408
0.77929111
0.77886879
0.77843066
0.7779706
0.77750138
0.77697877
0.77668134
0.77664312
0.7920156
0.79254629
0.79307015
0.79358684
0.79409603
0.79459735
0.79509047
0.79557504
0.79605071
0.79651713
0.79697395
0.79742082
0.79785739
0.79828331
0.79869822
0.79910179
0.79949365
0.79987346
0.80024087
0.80059553
0.80093709
0.80126521
0.80157955
0.80187977
0.80216553
0.80243648
0.80269232
0.80293269
0.80315728
0.80336578
0.80355785
0.8037332
0.8038915
0.8040325
0.80415582
0.80426135
0.80434842
0.80441765
0.80446676
0.8045001
0.8045068
0.80449845
0.80447516
0.8044284
0.8043613
0.8042739
0.80416607
0.80403764
0.8038885
0.8037185
0.80352757
0.80331559
0.80308251
0.80282827
0.80255284
0.8022562
0.80193841
0.80159942
0.80123944
0.8008583
0.80045658
0.80003372
0.79959121
0.79912667
0.79864515
0.79813788
0.79762241
0.79704546
0.79671732
0.79667484
0.81345698
0.81403837
0.81461241
0.81517873
0.81573697
0.81628674
0.81682768
0.8173594
0.81788151
0.81839365
0.81889543
0.81938647
0.81986638
0.82033478
0.82079128
0.8212355
0.82166706
0.82208557
0.82249064
0.8228819
0.82325896
0.82362145
0.82396898
0.82430117
0.82461766
0.82491807
0.82520203
0.82546918
0.82571915
0.8259516
0.82616616
0.82636249
0.82654024
0.8266991
0.82683868
0.8269588
0.82705883
0.82713915
0.827198
0.82723821
0.82725283
0.82724609
0.82722444
0.82717914
0.82711019
0.827019
0.82690536
0.8267691
0.82661004
0.82642805
0.82622299
0.82599475
0.82574323
0.82546836
0.82517011
0.82484841
0.82450334
0.8241348
0.82374306
0.82332783
0.82288984
0.82242819
0.82194508
0.82143701
0.82091082
0.82035466
0.81979152
0.81915822
0.81879859
0.81875278
0.8369345
0.83757052
0.83819868
0.83881859
0.83942984
0.84003203
0.84062473
0.84120755
0.84178007
0.84234188
0.84289254
0.84343166
0.84395881
0.84447356
0.8449755
0.84546421
0.84593926
0.84640023
0.8468467
0.84727825
0.84769445
0.84809489
0.84847916
0.84884682
0.84919748
0.84953071
0.84984611
0.85014328
0.8504218
0.85068129
0.85092135
0.85114159
0.85134163
0.85152111
0.85167961
0.85181689
0.85193236
0.85202609
0.85209704
0.85214598
0.85217127
0.85216739
0.85214892
0.8521072
0.8520379
0.8519443
0.85182614
0.85168318
0.85151523
0.85132209
0.85110363
0.85085969
0.85059017
0.85029495
0.849974
0.84962721
0.84925469
0.84885625
0.84843227
0.84798226
0.84750728
0.84700582
0.846481
0.84592804
0.84535591
0.84474907
0.84413675
0.84344504
0.84305299
0.84300502
0.86256132
0.86325654
0.86394341
0.86462149
0.86529036
0.86594956
0.86659864
0.86723717
0.86786468
0.86848073
0.86908487
0.86967662
0.87025554
0.87082117
0.87137304
0.87191069
0.87243365
0.87294147
0.87343368
0.87390982
0.87436942
0.87481201
0.87523715
0.87564436
0.8760332
0.87640319
0.8767539
0.87708487
0.87739566
0.87768582
0.87795491
0.87820251
0.87842818
0.87863153
0.87881209
0.87896953
0.87910337
0.8792133
0.87929899
0.87935937
0.87939741
0.87939955
0.87938567
0.87934928
0.87928173
0.87918752
0.87906642
0.87891818
0.87874259
0.87853942
0.87830849
0.87804963
0.87776271
0.87744757
0.8771042
0.87673241
0.87633237
0.87590376
0.87544713
0.87496171
0.87444898
0.87390676
0.87333915
0.87273981
0.87212043
0.87146108
0.87079794
0.87004567
0.86961995
0.86957152
0.8904605
0.8912202
0.89197107
0.89271264
0.89344442
0.89416595
0.89487673
0.89557627
0.89626408
0.89693968
0.89760255
0.89825221
0.89888814
0.89950985
0.90011683
0.90070856
0.90128455
0.90184429
0.90238725
0.90291294
0.90342084
0.90391044
0.90438123
0.9048327
0.90526435
0.90567567
0.90606616
0.90643533
0.90678267
0.90710769
0.90740992
0.90768886
0.90794404
0.908175
0.90838127
0.90856241
0.90871798
0.90884743
0.90895078
0.90902624
0.90907738
0.90909318
0.90908337
0.90905321
0.90899116
0.90889836
0.90877619
0.90862438
0.90844267
0.90823081
0.9079886
0.90771579
0.90741228
0.90707782
0.90671245
0.90631586
0.90588834
0.90542937
0.90493975
0.90441831
0.90386711
0.9032831
0.90267168
0.90202439
0.90135637
0.90064257
0.89992685
0.89911179
0.89865111
0.89860394
0.92076532
0.92159555
0.92241648
0.92322761
0.9240284
0.92481835
0.92559691
0.92636355
0.92711774
0.92785894
0.92858661
0.92930018
0.92999913
0.93068289
0.9313509
0.93200262
0.93263748
0.93325492
0.93385438
0.9344353
0.93499712
0.93553926
0.93606118
0.9365623
0.93704207
0.93749993
0.93793533
0.9383477
0.93873651
0.93910121
0.93944125
0.9397561
0.94004524
0.94030813
0.94054428
0.94075315
0.94093432
0.94108711
0.94121151
0.94130599
0.94137227
0.94140659
0.94140315
0.94138066
0.94132793
0.94123867
0.94111759
0.9409642
0.94077818
0.94055923
0.94030712
0.94002155
0.93970242
0.93934941
0.93896259
0.93854154
0.93808666
0.93759721
0.9370743
0.93651625
0.93592588
0.93529898
0.93464272
0.93394589
0.93322773
0.93245736
0.93168718
0.930807
0.93031002
0.93026584
0.9536195
0.95452715
0.95542506
0.95631266
0.9571894
0.95805469
0.95890797
0.95974864
0.96057612
0.96138982
0.96218915
0.9629735
0.96374227
0.96449485
0.96523065
0.96594903
0.9666494
0.96733112
0.96799359
0.96863619
0.96925829
0.96985927
0.97043851
0.97099539
0.97152929
0.9720396
0.9725257
0.97298698
0.97342282
0.97383262
0.97421579
0.97457173
0.97489985
0.97519956
0.97547031
0.9757115
0.97592265
0.97610305
0.97625248
0.97636997
0.97645523
0.97650978
0.97652082
0.9765059
0.97646408
0.97638222
0.9762649
0.97611222
0.97592396
0.97569975
0.97543935
0.9751424
0.9748088
0.97443814
0.97403055
0.97358545
0.97310343
0.97258341
0.97202696
0.97143169
0.97080144
0.97013048
0.96942825
0.96868024
0.96791034
0.96708109
0.96625443
0.96530655
0.96477184
0.96473243
0.98917739
0.99017028
0.991153
0.99212492
0.99308544
0.99403393
0.99496975
0.99589227
0.99680085
0.99769484
0.99857359
0.99943644
1.0002827
1.0011118
1.0019229
1.0027155
1.0034889
1.0042423
1.0049751
1.0056866
1.0063761
1.007043
1.0076866
1.0083061
1.0089009
1.0094702
1.0100135
1.0105301
1.0110192
1.0114802
1.0119125
1.0123153
1.012688
1.01303
1.0133406
1.0136192
1.0138653
1.0140781
1.0142571
1.0144017
1.0145109
1.0145865
1.0146212
1.0146147
1.0145843
1.0145157
1.0144045
1.014255
1.0140668
1.0138394
1.0135725
1.0132657
1.0129189
1.0125316
1.012104
1.0116354
1.0111265
1.0105758
1.0099855
1.0093524
1.0086815
1.0079652
1.0072158
1.0064147
1.0055915
1.0047007
1.0038155
1.0027969
1.002223
1.0021902
1.0276042
1.0286911
1.0297674
1.0308325
1.0318856
1.0329261
1.0339533
1.0349664
1.0359649
1.0369479
1.0379148
1.0388647
1.0397972
1.0407112
1.0416062
1.0424815
1.0433361
1.0441695
1.0449808
1.0457693
1.0465343
1.0472749
1.0479905
1.0486803
1.0493434
1.0499792
1.050587
1.0511659
1.0517152
1.0522341
1.052722
1.0531781
1.0536017
1.053992
1.0543484
1.0546701
1.0549564
1.0552068
1.0554204
1.0555968
1.055735
1.0558349
1.055897
1.0559071
1.0558879
1.0558349
1.055734
1.0555906
1.055405
1.0551766
1.0549051
1.0545902
1.0542316
1.0538287
1.053382
1.0528902
1.0523547
1.0517732
1.0511489
1.0504771
1.0497647
1.0490017
1.0482037
1.0473473
1.0464691
1.0455139
1.044568
1.043475
1.0428604
1.042836
1.0690759
1.0702667
1.0714465
1.0726146
1.0737701
1.0749125
1.0760408
1.0771544
1.0782524
1.0793342
1.0803988
1.0814456
1.0824737
1.0834823
1.0844706
1.0854377
1.0863829
1.0873054
1.0882043
1.0890787
1.0899279
1.090751
1.0915471
1.0923155
1.0930553
1.0937657
1.0944458
1.0950948
1.0957119
1.0962962
1.0968469
1.0973633
1.0978445
1.0982897
1.0986982
1.0990691
1.0994017
1.0996952
1.0999489
1.1001622
1.1003342
1.100464
1.1005532
1.1005927
1.1005843
1.1005466
1.1004629
1.1003282
1.1001477
1.0999206
1.0996467
1.0993252
1.0989563
1.0985389
1.0980738
1.0975594
1.0969974
1.0963849
1.095726
1.0950146
1.0942598
1.0934482
1.0926002
1.0916861
1.090751
1.0897278
1.088719
1.087547
1.0868913
1.0868757
1.1137795
1.1150852
1.1163794
1.1176614
1.1189303
1.1201854
1.1214257
1.1226506
1.123859
1.1250503
1.1262234
1.1273775
1.1285118
1.1296253
1.1307172
1.1317866
1.1328325
1.1338541
1.1348504
1.1358205
1.1367636
1.1376786
1.1385646
1.1394208
1.1402463
1.14104
1.141801
1.1425285
1.1432216
1.1438793
1.1445006
1.1450848
1.145631
1.1461382
1.1466055
1.1470322
1.1474174
1.1477601
1.1480597
1.1483153
1.1485263
1.1486914
1.1488107
1.1488841
1.1488956
1.1488722
1.148808
1.1486863
1.1485138
1.1482904
1.1480161
1.1476898
1.1473119
1.146881
1.1463983
1.1458614
1.145273
1.144629
1.1439349
1.1431826
1.1423841
1.141522
1.1406221
1.1396472
1.138653
1.1375579
1.1364841
1.135227
1.1345327
1.134522
1.1619129
1.1633454
1.1647661
1.1661741
1.1675684
1.1689482
1.1703125
1.1716605
1.1729912
1.1743037
1.1755969
1.17687
1.178122
1.1793518
1.1805586
1.1817413
1.182899
1.1840305
1.185135
1.1862114
1.1872587
1.1882759
1.1892619
1.1902158
1.1911365
1.192023
1.1928742
1.1936893
1.1944671
1.1952066
1.1959069
1.196567
1.1971859
1.1977625
1.198296
1.1987853
1.1992297
1.199628
1.1999795
1.2002832
1.2005384
1.2007439
1.2008989
1.201005
1.2010514
1.2010406
1.2009947
1.2008933
1.200731
1.2005136
1.2002408
1.1999112
1.1995255
1.1990819
1.1985819
1.1980226
1.1974075
1.1967312
1.196001
1.1952062
1.1943622
1.1934472
1.1924931
1.1914541
1.1903978
1.1892265
1.1880846
1.1867365
1.1860027
1.1859962
1.2136843
1.215257
1.2168174
1.2183645
1.2198974
1.221415
1.2229163
1.2244004
1.2258661
1.2273126
1.2287386
1.2301432
1.2315253
1.2328838
1.2342176
1.2355257
1.2368069
1.2380602
1.2392843
1.2404783
1.241641
1.2427713
1.243868
1.24493
1.2459562
1.2469455
1.2478967
1.2488088
1.2496806
1.250511
1.2512989
1.2520432
1.2527429
1.2533968
1.2540039
1.2545631
1.2550734
1.2555338
1.2559434
1.2563009
1.2566058
1.2568567
1.2570529
1.2571939
1.2572801
1.2572904
1.257261
1.2571819
1.2570337
1.2568244
1.2565547
1.2562231
1.2558305
1.2553745
1.2548574
1.2542752
1.2536328
1.2529228
1.252155
1.2513156
1.250424
1.2494529
1.2484417
1.2473346
1.2462128
1.2449603
1.2437463
1.2423011
1.241525
1.2415223
1.2693126
1.2710399
1.2727543
1.2744549
1.2761405
1.27781
1.2794624
1.2810965
1.2827112
1.2843053
1.2858778
1.2874273
1.2889528
1.2904531
1.291927
1.2933732
1.2947906
1.2961779
1.297534
1.2988575
1.3001473
1.3014022
1.3026208
1.3038019
1.3049444
1.306047
1.3071084
1.3081273
1.3091027
1.3100332
1.3109177
1.3117548
1.3125436
1.3132826
1.313971
1.3146072
1.3151905
1.3157194
1.3161931
1.3166102
1.3169702
1.3172714
1.3175134
1.3176942
1.3178169
1.3178657
1.3178486
1.317789
1.3176618
1.3174618
1.3171965
1.3168635
1.3164644
1.3159959
1.3154613
1.3148552
1.3141841
1.3134385
1.312631
1.311744
1.310802
1.309771
1.3086991
1.3075191
1.3063274
1.3049879
1.3036968
1.3021482
1.3013251
1.3013252
1.3290266
1.330924
1.3328079
1.3346773
1.3365308
1.3383675
1.3401859
1.3419849
1.3437633
1.3455197
1.347253
1.3489618
1.3506448
1.3523007
1.3539283
1.3555261
1.3570929
1.3586273
1.360128
1.3615936
1.3630228
1.3644141
1.3657663
1.367078
1.3683477
1.3695743
1.3707562
1.3718921
1.3729808
1.3740208
1.3750108
1.3759495
1.3768356
1.3776677
1.3784447
1.3791651
1.379828
1.3804316
1.3809755
1.3814575
1.3818777
1.3822336
1.3825254
1.3827508
1.3829101
1.3830032
1.383002
1.3829611
1.3828569
1.3826673
1.3824069
1.3820727
1.3816667
1.3811849
1.3806314
1.3799996
1.3792977
1.3785137
1.3776636
1.3767252
1.375729
1.3746332
1.373496
1.3722374
1.3709703
1.3695376
1.3681624
1.3665043
1.365627
1.3656286
1.3930645
1.3951485
1.3972184
1.3992728
1.4013106
1.4033304
1.4053308
1.4073104
1.409268
1.4112021
1.4131113
1.4149943
1.4168495
1.4186756
1.420471
1.4222345
1.4239644
1.4256592
1.4273177
1.4289381
1.4305191
1.4320592
1.4335568
1.4350104
1.4364187
1.43778
1.4390929
1.4403558
1.4415674
1.4427261
1.4438305
1.4448791
1.4458706
1.4468033
1.4476762
1.4484874
1.4492362
1.4499204
1.4505398
1.4510916
1.4515764
1.4519909
1.4523362
1.452609
1.4528084
1.452941
1.4529727
1.4529431
1.4528572
1.4526822
1.4524266
1.4520902
1.4516761
1.451179
1.4506045
1.449944
1.4492082
1.4483818
1.447485
1.4464903
1.4454349
1.4442685
1.4430602
1.4417161
1.4403668
1.4388334
1.4373659
1.4355914
1.4346498
1.4346507
1.4616733
1.4639614
1.4662345
1.4684913
1.4707303
1.47295
1.4751489
1.4773256
1.4794786
1.4816063
1.4837072
1.4857797
1.4878223
1.4898333
1.4918113
1.4937546
1.4956615
1.4975305
1.4993599
1.5011481
1.5028935
1.5045944
1.5062492
1.5078563
1.509414
1.5109206
1.5123746
1.5137743
1.5151181
1.5164044
1.5176316
1.5187981
1.5199024
1.5209427
1.521918
1.5228261
1.5236663
1.5244361
1.5251355
1.5257612
1.5263144
1.5267903
1.5271919
1.5275133
1.527757
1.5279228
1.5279965
1.5279766
1.5279038
1.5277457
1.5274929
1.5271522
1.5267275
1.5262118
1.5256128
1.5249193
1.5241451
1.5232711
1.5223222
1.5212648
1.520144
1.5188995
1.517613
1.5161751
1.5147354
1.5130925
1.5115228
1.509624
1.5086052
1.5086031
1.535108
1.5376185
1.540113
1.5425899
1.5450477
1.5474847
1.5498993
1.55229
1.5546549
1.5569925
1.559301
1.5615787
1.563824
1.566035
1.5682101
1.5703474
1.5724453
1.5745019
1.5765154
1.5784841
1.5804062
1.5822798
1.5841033
1.5858747
1.5875924
1.5892544
1.5908592
1.5924047
1.5938894
1.5953113
1.596669
1.5979605
1.5991842
1.6003383
1.6014215
1.6024315
1.6033677
1.6042271
1.60501
1.6057124
1.6063364
1.6068754
1.607335
1.6077048
1.607995
1.6081899
1.6083072
1.608296
1.6082339
1.6080896
1.607837
1.6074883
1.6070488
1.6065099
1.6058813
1.605149
1.6043303
1.6034017
1.6023937
1.6012657
1.6000714
1.5987399
1.5973664
1.5958247
1.594285
1.5925216
1.5908387
1.5888053
1.5876963
1.5876865
1.6136308
1.6163824
1.6191168
1.6218321
1.6245267
1.6271987
1.6298464
1.6324679
1.6350616
1.6376254
1.6401575
1.6426561
1.6451193
1.6475451
1.6499318
1.6522772
1.6545796
1.6568369
1.6590472
1.6612086
1.6633191
1.6653767
1.6673796
1.6693257