/*--------------------------------*- C++ -*----------------------------------*\
| =========                 |                                                 |
| \\      /  F ield         | OpenFOAM: The Open Source CFD Toolbox           |
|  \\    /   O peration     | Version:  2.4.0                                 |
|   \\  /    A nd           | Web:      www.OpenFOAM.org                      |
|    \\/     M anipulation  |                                                 |
\*---------------------------------------------------------------------------*/
FoamFile
{
    version     2.0;
    format      ascii;
    class       volScalarField;
    location    "200";
    object      nut;
}
// * * * * * * * * * * * * * * * * * * * * * * * * * * * * * * * * * * * * * //

dimensions      [0 2 -1 0 0 0 0];

internalField   nonuniform List<scalar> 
32000
(
4.468663e-07
1.2429661e-07
4.7971742e-07
4.8968604e-08
2.0127893e-08
3.7473648e-09
4.3523309e-09
1.7064293e-09
1.603224e-09
1.0886182e-09
8.9737236e-10
7.2359729e-10
6.1535926e-10
5.3413562e-10
4.7585073e-10
4.3281982e-10
4.0175639e-10
3.8007606e-10
3.6340121e-10
3.4954944e-10
3.3756642e-10
3.2696013e-10
3.1726546e-10
3.0822138e-10
2.9946451e-10
2.9081097e-10
2.8176595e-10
2.7274429e-10
2.644874e-10
2.5720122e-10
2.5087536e-10
2.4546347e-10
2.4093347e-10
2.3726051e-10
2.3451067e-10
2.3284639e-10
2.3221293e-10
2.3213349e-10
2.3240966e-10
2.3303169e-10
2.3402689e-10
2.3546193e-10
2.3750307e-10
2.4041372e-10
2.4479831e-10
2.5178624e-10
2.6655989e-10
2.8490573e-10
2.9751569e-10
3.0796943e-10
3.169202e-10
3.2486508e-10
3.3198549e-10
3.3843817e-10
3.4432197e-10
3.4971592e-10
3.5468064e-10
3.5926548e-10
3.635106e-10
3.6745035e-10
3.7111391e-10
3.7452631e-10
3.7770912e-10
3.8068145e-10
3.8346008e-10
3.8605982e-10
3.88494e-10
3.9077461e-10
3.9291209e-10
3.949161e-10
3.9679537e-10
3.9855788e-10
4.0021071e-10
4.017606e-10
4.0321357e-10
4.0457527e-10
4.0585161e-10
4.0704747e-10
4.0816925e-10
4.0922061e-10
4.1020738e-10
4.1112915e-10
4.1198423e-10
4.1277686e-10
4.1350913e-10
4.1418486e-10
4.148063e-10
4.1535956e-10
4.1582566e-10
4.1637129e-10
4.167975e-10
4.1717646e-10
4.1750955e-10
4.1779773e-10
4.180419e-10
4.182431e-10
4.1840196e-10
4.1851903e-10
4.1859466e-10
4.1862898e-10
4.1862302e-10
4.1857566e-10
4.1848668e-10
4.1835674e-10
4.1818506e-10
4.1797121e-10
4.1771445e-10
4.1741415e-10
4.170694e-10
4.1667915e-10
4.1624227e-10
4.1575742e-10
4.1522318e-10
4.146379e-10
4.139998e-10
4.1330691e-10
4.12557e-10
4.1174778e-10
4.1087655e-10
4.0994053e-10
4.0893667e-10
4.0786154e-10
4.0671142e-10
4.0548248e-10
4.0417016e-10
4.0276983e-10
4.0127632e-10
3.9968381e-10
3.979863e-10
3.9617696e-10
3.9424823e-10
3.9219209e-10
3.8999963e-10
3.8766075e-10
3.8516458e-10
3.8249894e-10
3.7964998e-10
3.7660267e-10
3.7333974e-10
3.6984178e-10
3.6608662e-10
3.6204898e-10
3.5769924e-10
3.5300281e-10
3.4791885e-10
3.4239779e-10
3.3637902e-10
3.2978351e-10
3.2251247e-10
3.1441027e-10
3.0529705e-10
2.9467841e-10
2.8191258e-10
2.6346068e-10
2.4856695e-10
2.4140348e-10
2.3678267e-10
2.3359185e-10
2.312971e-10
2.2955843e-10
2.2819462e-10
2.2725709e-10
2.2666554e-10
2.2644275e-10
2.2669456e-10
2.2782274e-10
2.3006983e-10
2.3316483e-10
2.3704198e-10
2.4172019e-10
2.4720529e-10
2.5354033e-10
2.6069914e-10
2.6847611e-10
2.7611048e-10
2.8323557e-10
2.8991249e-10
2.9696293e-10
3.0424828e-10
3.1205932e-10
3.2072573e-10
3.3063304e-10
3.4250402e-10
3.5835392e-10
3.8156756e-10
4.138505e-10
4.5758066e-10
5.1605651e-10
5.9749045e-10
7.0410307e-10
8.7684584e-10
1.0543546e-09
1.5406817e-09
1.5107186e-09
3.7041803e-09
2.5822458e-09
1.5425781e-08
2.8739239e-08
1.6761992e-07
1.49051e-07
2.1398158e-07
1.1549001e-07
2.1171134e-07
6.4748236e-08
2.5314232e-08
3.6195372e-09
7.1192632e-09
3.7193858e-09
2.9633204e-09
2.1410401e-09
1.7114653e-09
1.3823407e-09
1.1600995e-09
9.9579349e-10
8.7414087e-10
7.8197849e-10
7.120188e-10
6.593398e-10
6.168186e-10
5.8073055e-10
5.4925798e-10
5.2136974e-10
4.9617097e-10
4.7310967e-10
4.5152872e-10
4.3103738e-10
4.1085152e-10
3.9122609e-10
3.729012e-10
3.5607744e-10
3.4069294e-10
3.2664439e-10
3.1385205e-10
3.0225182e-10
2.9189584e-10
2.8298219e-10
2.7552558e-10
2.6910783e-10
2.6354256e-10
2.588437e-10
2.5505392e-10
2.5225326e-10
2.50617e-10
2.504396e-10
2.5231999e-10
2.5749162e-10
2.7053289e-10
2.8688305e-10
2.9804013e-10
3.0707741e-10
3.1475162e-10
3.2150669e-10
3.2751519e-10
3.3291598e-10
3.3780462e-10
3.4225547e-10
3.4632709e-10
3.5006706e-10
3.5351425e-10
3.5670342e-10
3.5966088e-10
3.624105e-10
3.6497445e-10
3.6737311e-10
3.696264e-10
3.7175139e-10
3.7376552e-10
3.7568581e-10
3.7748504e-10
3.7915141e-10
3.8072008e-10
3.8218847e-10
3.8355755e-10
3.8483291e-10
3.8601889e-10
3.8712392e-10
3.8815644e-10
3.8912116e-10
3.9002468e-10
3.9087237e-10
3.9167093e-10
3.9242247e-10
3.9312735e-10
3.9379049e-10
3.944151e-10
3.9500524e-10
3.9556368e-10
3.960821e-10
3.96395e-10
3.9708163e-10
3.9754015e-10
3.9797523e-10
3.9839062e-10
3.9879595e-10
3.9919002e-10
3.9957676e-10
3.9995848e-10
4.0032362e-10
4.0056878e-10
4.0068602e-10
4.0077322e-10
4.0074266e-10
4.0049253e-10
3.9990455e-10
3.9902976e-10
3.9804029e-10
3.9723165e-10
3.9683512e-10
3.968665e-10
3.9693071e-10
3.9673097e-10
3.9642575e-10
3.9624191e-10
3.9613766e-10
3.9581286e-10
3.9515914e-10
3.9430697e-10
3.9344383e-10
3.926186e-10
3.9181498e-10
3.9100979e-10
3.9017297e-10
3.8927164e-10
3.8827583e-10
3.8715565e-10
3.8589138e-10
3.8448242e-10
3.8296429e-10
3.8136017e-10
3.7969374e-10
3.77987e-10
3.762467e-10
3.7445582e-10
3.7257946e-10
3.7054889e-10
3.6830548e-10
3.6583523e-10
3.6314457e-10
3.6024024e-10
3.5712975e-10
3.5385841e-10
3.504778e-10
3.469494e-10
3.4317471e-10
3.391137e-10
3.347094e-10
3.2989388e-10
3.2458607e-10
3.1868938e-10
3.1205624e-10
3.0451189e-10
2.9558099e-10
2.8456007e-10
2.6746302e-10
2.5296142e-10
2.4670797e-10
2.4389927e-10
2.4320741e-10
2.4405416e-10
2.4602577e-10
2.4892312e-10
2.5276872e-10
2.5746326e-10
2.6297749e-10
2.6939452e-10
2.7710946e-10
2.8628453e-10
2.9658344e-10
3.0794416e-10
3.2041277e-10
3.3402533e-10
3.488667e-10
3.6492767e-10
3.8198912e-10
3.9921927e-10
4.1634594e-10
4.3364335e-10
4.5221604e-10
4.7199788e-10
4.9351568e-10
5.1738959e-10
5.4439691e-10
5.7565691e-10
6.1496528e-10
6.6707459e-10
7.3512044e-10
8.2317973e-10
9.3853436e-10
1.0938277e-09
1.3000536e-09
1.6065678e-09
1.9799021e-09
2.7247595e-09
3.0575858e-09
5.8203125e-09
2.6069093e-09
1.7881781e-08
3.428373e-08
1.3315546e-07
1.4254876e-07
1.526363e-08
2.3825943e-08
2.3932917e-08
2.7003539e-08
1.6882125e-08
1.9199482e-09
6.25118e-09
4.0036647e-09
2.9839484e-09
2.2989245e-09
1.8217817e-09
1.481677e-09
1.2373924e-09
1.0571457e-09
9.2023517e-10
8.1432443e-10
7.3120551e-10
6.6604595e-10
6.1255575e-10
5.6708262e-10
5.2761485e-10
4.9292634e-10
4.6200464e-10
4.3417867e-10
4.0873933e-10
3.8521422e-10
3.6287412e-10
3.4159739e-10
3.2170742e-10
3.0330976e-10
2.8633588e-10
2.7069106e-10
2.563e-10
2.4310156e-10
2.3111064e-10
2.2044342e-10
2.1112722e-10
2.0295615e-10
1.95811e-10
1.8966494e-10
1.8448166e-10
1.8023835e-10
1.7695941e-10
1.7475625e-10
1.738721e-10
1.7498233e-10
1.800699e-10
1.8706168e-10
1.9194185e-10
1.958375e-10
1.9915505e-10
2.0207528e-10
2.0466533e-10
2.0697891e-10
2.0905956e-10
2.1094077e-10
2.1265062e-10
2.1421152e-10
2.1564161e-10
2.1696156e-10
2.1818315e-10
2.1931831e-10
2.2037957e-10
2.2137915e-10
2.2233047e-10
2.2324474e-10
2.2413493e-10
2.2501434e-10
2.2583831e-10
2.2658408e-10
2.2729197e-10
2.2795253e-10
2.2856171e-10
2.2912199e-10
2.2963441e-10
2.3010544e-10
2.3054272e-10
2.3094878e-10
2.3132769e-10
2.3168367e-10
2.3202146e-10
2.3234412e-10
2.3265347e-10
2.3295322e-10
2.3324594e-10
2.3353433e-10
2.3382035e-10
2.3410509e-10
2.3418488e-10
2.346873e-10
2.3498309e-10
2.3528252e-10
2.3558969e-10
2.3591664e-10
2.3626083e-10
2.3662716e-10
2.3701839e-10
2.3741933e-10
2.3769167e-10
2.3782089e-10
2.3794328e-10
2.3794015e-10
2.3767283e-10
2.3698719e-10
2.3594825e-10
2.3479302e-10
2.3391277e-10
2.3360716e-10
2.3389734e-10
2.34266e-10
2.3432114e-10
2.3427197e-10
2.3442019e-10
2.3471075e-10
2.3474849e-10
2.3438937e-10
2.338083e-10
2.3325656e-10
2.3280053e-10
2.3242065e-10
2.3208853e-10
2.3176701e-10
2.3141526e-10
2.3099625e-10
2.304735e-10
2.2982405e-10
2.2905045e-10
2.2820296e-10
2.2731777e-10
2.2643247e-10
2.2558218e-10
2.2478211e-10
2.2401664e-10
2.2324591e-10
2.2238804e-10
2.213738e-10
2.2019452e-10
2.1887009e-10
2.17423e-10
2.1587772e-10
2.1431372e-10
2.1282121e-10
2.1137198e-10
2.0986131e-10
2.0827309e-10
2.065724e-10
2.0471985e-10
2.0267412e-10
2.0039185e-10
1.9780832e-10
1.9485334e-10
1.9130269e-10
1.8680508e-10
1.7893476e-10
1.7192698e-10
1.6944948e-10
1.6923068e-10
1.7044328e-10
1.7280862e-10
1.7612074e-10
1.8032249e-10
1.8546767e-10
1.9155696e-10
1.9858455e-10
2.0661434e-10
2.1589589e-10
2.2648258e-10
2.3816464e-10
2.5091279e-10
2.6476949e-10
2.7977387e-10
2.9599396e-10
3.1339936e-10
3.3189702e-10
3.5101804e-10
3.7076063e-10
3.9154192e-10
4.1422367e-10
4.3890821e-10
4.6618022e-10
4.9674308e-10
5.3150711e-10
5.7148358e-10
6.2090031e-10
6.8323885e-10
7.6156574e-10
8.593177e-10
9.8501e-10
1.1494879e-09
1.3679838e-09
1.672114e-09
2.0760425e-09
2.7224224e-09
3.1665286e-09
5.1018788e-09
1.3682765e-09
1.1720285e-08
2.0689173e-08
2.0030035e-08
2.5736799e-08
2.3188542e-10
1.1306671e-09
6.4698644e-10
5.6562285e-09
5.8611817e-09
7.6504562e-10
3.174026e-09
2.4845418e-09
2.085636e-09
1.8259433e-09
1.4931106e-09
1.2314893e-09
1.0319367e-09
8.8257518e-10
7.6541823e-10
6.7221828e-10
5.965291e-10
5.3531249e-10
4.8475123e-10
4.4198691e-10
4.051965e-10
3.7322106e-10
3.4512374e-10
3.2024734e-10
2.9797147e-10
2.7783599e-10
2.5927424e-10
2.4190075e-10
2.2570749e-10
2.1075899e-10
1.9702816e-10
1.8446925e-10
1.7304193e-10
1.6270907e-10
1.5346048e-10
1.453218e-10
1.3827116e-10
1.3219552e-10
1.2701881e-10
1.2265942e-10
1.1899982e-10
1.15924e-10
1.1333148e-10
1.1117226e-10
1.0942064e-10
1.0827592e-10
1.0795508e-10
1.0855279e-10
1.0922398e-10
1.0977466e-10
1.1029775e-10
1.1078909e-10
1.1123827e-10
1.1164019e-10
1.1199966e-10
1.1232052e-10
1.1260817e-10
1.1286557e-10
1.1309426e-10
1.1330596e-10
1.1350243e-10
1.1368689e-10
1.1386413e-10
1.1403944e-10
1.1421982e-10
1.1441089e-10
1.1462027e-10
1.1485609e-10
1.1507708e-10
1.1526181e-10
1.1544266e-10
1.1560963e-10
1.1575763e-10
1.1588723e-10
1.159966e-10
1.1608702e-10
1.1616826e-10
1.1624128e-10
1.163081e-10
1.163713e-10
1.1643357e-10
1.1649756e-10
1.1656524e-10
1.1663892e-10
1.1672025e-10
1.168107e-10
1.1691137e-10
1.1702618e-10
1.1701137e-10
1.1728751e-10
1.1744011e-10
1.176067e-10
1.1779051e-10
1.1800136e-10
1.1823662e-10
1.1850067e-10
1.1879582e-10
1.1910993e-10
1.1932537e-10
1.1942625e-10
1.1953268e-10
1.1954291e-10
1.1933757e-10
1.1878873e-10
1.1794729e-10
1.1702143e-10
1.1633967e-10
1.161481e-10
1.1646656e-10
1.1686456e-10
1.1701116e-10
1.1708118e-10
1.1732925e-10
1.1770796e-10
1.1788625e-10
1.1774119e-10
1.1742118e-10
1.171399e-10
1.1695356e-10
1.1684631e-10
1.1679511e-10
1.1676954e-10
1.1673596e-10
1.1666383e-10
1.1652312e-10
1.1629514e-10
1.1598277e-10
1.1562727e-10
1.1525907e-10
1.1491632e-10
1.14631e-10
1.1441838e-10
1.1426772e-10
1.1414648e-10
1.1398884e-10
1.1373818e-10
1.1338976e-10
1.1296398e-10
1.1248443e-10
1.1197667e-10
1.1151695e-10
1.1119201e-10
1.1098485e-10
1.1081293e-10
1.1068062e-10
1.1057389e-10
1.1047924e-10
1.1038782e-10
1.102973e-10
1.1020545e-10
1.1012166e-10
1.1001378e-10
1.0982467e-10
1.0855226e-10
1.0715101e-10
1.0707017e-10
1.0787348e-10
1.0921509e-10
1.1106598e-10
1.1341538e-10
1.163243e-10
1.1989188e-10
1.2421453e-10
1.2933845e-10
1.3532453e-10
1.4235515e-10
1.5046106e-10
1.5957004e-10
1.6968059e-10
1.8081897e-10
1.9300696e-10
2.0625208e-10
2.2036964e-10
2.3550204e-10
2.5150934e-10
2.6857897e-10
2.8717185e-10
3.0783396e-10
3.3078678e-10
3.5659485e-10
3.8593668e-10
4.1969752e-10
4.5864631e-10
5.0667939e-10
5.6535078e-10
6.3681879e-10
7.2173045e-10
8.2772287e-10
9.6136449e-10
1.1356029e-09
1.3627167e-09
1.674168e-09
2.0935563e-09
2.1376818e-09
2.8982452e-09
5.8096502e-10
5.2368966e-09
5.6069537e-09
5.8806865e-10
1.210419e-09
2.2856492e-13
1.3417541e-11
1.6357154e-12
6.1363742e-10
1.2030113e-09
2.4127442e-10
1.214744e-09
1.1208442e-09
9.9989325e-10
9.3948462e-10
8.1408424e-10
7.134217e-10
6.2381265e-10
5.4970712e-10
4.8526101e-10
4.2930935e-10
3.8023473e-10
3.3861079e-10
3.041217e-10
2.7512246e-10
2.5031427e-10
2.289219e-10
2.1029956e-10
1.9397488e-10
1.7957718e-10
1.667686e-10
1.5517531e-10
1.4431887e-10
1.3408979e-10
1.2464253e-10
1.1606085e-10
1.0839175e-10
1.0165949e-10
9.5867276e-11
9.1001524e-11
8.7019404e-11
8.3821036e-11
8.126232e-11
7.9309788e-11
7.7844217e-11
7.6697431e-11
7.5704971e-11
7.4704128e-11
7.3565962e-11
7.2129501e-11
7.0342501e-11
6.7547429e-11
6.5177928e-11
6.4015814e-11
6.3185022e-11
6.2595624e-11
6.2147556e-11
6.1790467e-11
6.1489938e-11
6.1230766e-11
6.1001841e-11
6.0797044e-11
6.0611338e-11
6.0440431e-11
6.0286893e-11
6.014806e-11
6.0023095e-11
5.9913043e-11
5.9819708e-11
5.9746596e-11
5.9696415e-11
5.9673652e-11
5.9683311e-11
5.9691946e-11
5.9682496e-11
5.9679296e-11
5.967396e-11
5.9662015e-11
5.964343e-11
5.9608934e-11
5.9542808e-11
5.9478121e-11
5.9415144e-11
5.9354797e-11
5.9298597e-11
5.9247948e-11
5.9204835e-11
5.9171001e-11
5.9147839e-11
5.9136402e-11
5.9137487e-11
5.9151699e-11
5.9182476e-11
5.9157284e-11
5.9279387e-11
5.9351989e-11
5.9440228e-11
5.9546458e-11
5.9677911e-11
5.9832243e-11
6.0013087e-11
6.022223e-11
6.0451236e-11
6.0609984e-11
6.0684171e-11
6.0766884e-11
6.0780478e-11
6.063403e-11
6.0231078e-11
5.9606475e-11
5.8925106e-11
5.843437e-11
5.8315512e-11
5.858719e-11
5.8928093e-11
5.9085307e-11
5.918971e-11
5.9434649e-11
5.9782933e-11
5.9984931e-11
5.9945605e-11
5.9778322e-11
5.9646936e-11
5.959406e-11
5.960807e-11
5.9671976e-11
5.9763104e-11
5.9856207e-11
5.9928205e-11
5.9956342e-11
5.9926438e-11
5.9840744e-11
5.9722486e-11
5.9578771e-11
5.9463475e-11
5.9402267e-11
5.9408097e-11
5.9473974e-11
5.9574798e-11
5.9661824e-11
5.9691945e-11
5.9662069e-11
5.9589193e-11
5.9493355e-11
5.939656e-11
5.9363244e-11
5.9466657e-11
5.9695435e-11
5.9995779e-11
6.0376596e-11
6.0835851e-11
6.1374967e-11
6.200308e-11
6.2739854e-11
6.3616733e-11
6.4685385e-11
6.601958e-11
6.7723581e-11
6.9672226e-11
7.1063736e-11
7.1854824e-11
7.2583511e-11
7.3179776e-11
7.3748558e-11
7.438692e-11
7.5214668e-11
7.6361129e-11
7.7984395e-11
8.01749e-11
8.2975111e-11
8.6597228e-11
9.1108318e-11
9.6537178e-11
1.0289451e-10
1.101809e-10
1.1837759e-10
1.2734051e-10
1.3627586e-10
1.4601928e-10
1.5659912e-10
1.6824327e-10
1.8134726e-10
1.9621028e-10
2.1304773e-10
2.3234858e-10
2.5467716e-10
2.8076121e-10
3.1113589e-10
3.488316e-10
3.9392727e-10
4.4736562e-10
5.0260047e-10
5.6509641e-10
6.3534758e-10
7.1691911e-10
8.0566643e-10
9.1067927e-10
1.0194937e-09
9.5628126e-10
1.168048e-09
2.1835751e-10
1.2308629e-09
8.2573093e-10
1.6919716e-12
1.4232286e-11
2.0570726e-17
5.6642555e-15
4.2872058e-17
2.6483871e-11
1.5346974e-10
6.2200836e-11
3.8536263e-10
4.2412774e-10
3.9569778e-10
3.9557057e-10
3.5668187e-10
3.2492952e-10
2.9143038e-10
2.6123429e-10
2.3281333e-10
2.067018e-10
1.8277284e-10
1.6200435e-10
1.4493439e-10
1.3084129e-10
1.1903703e-10
1.0910244e-10
1.0066392e-10
9.3432505e-11
8.7295471e-11
8.2072117e-11
7.7612846e-11
7.3659629e-11
7.0105779e-11
6.7026221e-11
6.4466542e-11
6.2452362e-11
6.0990034e-11
6.006731e-11
5.9650141e-11
5.9631626e-11
5.987379e-11
5.9164157e-11
4.7218561e-11
3.8341721e-11
3.182116e-11
2.7114604e-11
2.3834695e-11
2.1728165e-11
2.0650871e-11
2.0627228e-11
2.1750609e-11
2.2945775e-11
2.3790192e-11
2.4435855e-11
2.4999205e-11
2.5497775e-11
2.5932011e-11
2.6302962e-11
2.6619214e-11
2.6887397e-11
2.711483e-11
2.7308334e-11
2.7474056e-11
2.7618384e-11
2.7744098e-11
2.7855357e-11
2.795796e-11
2.8058025e-11
2.8163302e-11
2.8280037e-11
2.8416536e-11
2.8581073e-11
2.8730113e-11
2.8842204e-11
2.8951462e-11
2.9047709e-11
2.9125732e-11
2.9186381e-11
2.9229723e-11
2.9261121e-11
2.9284802e-11
2.9301841e-11
2.9314234e-11
2.9324456e-11
2.9334675e-11
2.934767e-11
2.9366143e-11
2.9392763e-11
2.9429673e-11
2.9478656e-11
2.9541093e-11
2.9636551e-11
2.9659336e-11
2.9819887e-11
2.9947385e-11
3.0094783e-11
3.0265398e-11
3.0469751e-11
3.0705131e-11
3.0977291e-11
3.1290438e-11
3.1643076e-11
3.1899232e-11
3.1994659e-11
3.2118195e-11
3.2155462e-11
3.1942221e-11
3.1351501e-11
3.0432986e-11
2.944732e-11
2.8747232e-11
2.8571574e-11
2.8935646e-11
2.9385648e-11
2.9581593e-11
2.9704884e-11
3.0021824e-11
3.0471566e-11
3.0709121e-11
3.0597471e-11
3.0304128e-11
3.00644e-11
2.9934259e-11
2.9894463e-11
2.9919e-11
2.9973528e-11
3.001987e-11
3.0023498e-11
2.9950968e-11
2.9783525e-11
2.9529007e-11
2.9238304e-11
2.8948398e-11
2.8698249e-11
2.852044e-11
2.8427685e-11
2.8404472e-11
2.8411469e-11
2.8375675e-11
2.824297e-11
2.8013143e-11
2.7708661e-11
2.7352272e-11
2.6966544e-11
2.6631277e-11
2.6439254e-11
2.6364781e-11
2.6337737e-11
2.6350719e-11
2.6386115e-11
2.6427244e-11
2.6460703e-11
2.6476759e-11
2.6462116e-11
2.6404047e-11
2.6236078e-11
2.5819828e-11
2.4008542e-11
2.154026e-11
2.078154e-11
2.1331006e-11
2.2998139e-11
2.5858256e-11
3.0073333e-11
3.6013863e-11
4.4159267e-11
5.5159317e-11
5.7518791e-11
5.7177897e-11
5.7157498e-11
5.7555464e-11
5.8470888e-11
5.9928718e-11
6.1943733e-11
6.4514637e-11
6.7595751e-11
7.0964849e-11
7.4789855e-11
7.9126201e-11
8.4125466e-11
9.0034891e-11
9.6951957e-11
1.0493348e-10
1.1432864e-10
1.2547712e-10
1.3878896e-10
1.54598e-10
1.7446804e-10
1.9761491e-10
2.2351955e-10
2.4950182e-10
2.7727564e-10
3.0574506e-10
3.3538267e-10
3.6159874e-10
3.870159e-10
4.0178188e-10
3.5254591e-10
3.8548535e-10
7.7051369e-11
1.8020272e-10
6.4694596e-11
8.0030399e-17
5.5165586e-15
4.6218947e-22
3.1457976e-19
4.5295134e-23
1.848682e-13
1.1251046e-11
9.7772138e-12
1.0442004e-10
1.419103e-10
1.3667522e-10
1.4629177e-10
1.3696888e-10
1.2967748e-10
1.1947805e-10
1.0942811e-10
9.9184371e-11
8.9346189e-11
8.0051934e-11
7.1911324e-11
6.5363799e-11
6.0155375e-11
5.5989004e-11
5.267279e-11
5.0040432e-11
4.7965803e-11
4.6405605e-11
4.5289909e-11
4.4596546e-11
4.4250494e-11
4.4188705e-11
4.0868455e-11
3.2907129e-11
2.5974145e-11
2.0097819e-11
1.5249296e-11
1.1356443e-11
8.3389463e-12
6.108605e-12
4.5255136e-12
3.4077516e-12
2.6221903e-12
2.0733915e-12
1.6939153e-12
1.4380701e-12
1.2766064e-12
1.1917917e-12
1.1809176e-12
1.2462508e-12
1.3153995e-12
1.3639292e-12
1.4009399e-12
1.4335461e-12
1.4626188e-12
1.4878237e-12
1.5090388e-12
1.5267715e-12
1.5414225e-12
1.5534709e-12
1.5633749e-12
1.5715335e-12
1.5784061e-12
1.5841741e-12
1.589125e-12
1.593677e-12
1.5982766e-12
1.6034991e-12
1.6098085e-12
1.617834e-12
1.6282002e-12
1.637505e-12
1.6441329e-12
1.6506772e-12
1.6563423e-12
1.6607147e-12
1.66385e-12
1.6657455e-12
1.6668117e-12
1.6673531e-12
1.6674564e-12
1.667278e-12
1.6670061e-12
1.66681e-12
1.6669086e-12
1.6675194e-12
1.6688354e-12
1.6710189e-12
1.6742034e-12
1.6784905e-12
1.6851643e-12
1.6868854e-12
1.698779e-12
1.7083402e-12
1.7195116e-12
1.7325625e-12
1.7482905e-12
1.7664705e-12
1.7876114e-12
1.8120685e-12
1.8398622e-12
1.8603168e-12
1.8677733e-12
1.8775773e-12
1.8807918e-12
1.8642003e-12
1.8181652e-12
1.7463645e-12
1.6702342e-12
1.6164703e-12
1.6022292e-12
1.6293527e-12
1.664126e-12
1.6798986e-12
1.6902051e-12
1.7154496e-12
1.7508268e-12
1.7699212e-12
1.7618444e-12
1.7397552e-12
1.7219775e-12
1.7127102e-12
1.7104759e-12
1.7132931e-12
1.7185378e-12
1.7232773e-12
1.7248426e-12
1.7206472e-12
1.7092355e-12
1.6911662e-12
1.6702363e-12
1.6494521e-12
1.6318254e-12
1.6198594e-12
1.6145543e-12
1.6147759e-12
1.6174058e-12
1.6170608e-12
1.6095834e-12
1.59489e-12
1.574681e-12
1.550689e-12
1.5247144e-12
1.5030644e-12
1.4927693e-12
1.4913136e-12
1.4939354e-12
1.4999889e-12
1.5082129e-12
1.5174417e-12
1.5267602e-12
1.5355321e-12
1.5428641e-12
1.5478506e-12
1.545547e-12
1.5254871e-12
1.4085579e-12
1.2446365e-12
1.1983299e-12
1.2440209e-12
1.3714755e-12
1.5920324e-12
1.926975e-12
2.418925e-12
3.1269207e-12
4.1366358e-12
5.5636161e-12
7.5727103e-12
1.0334584e-11
1.3933357e-11
1.8462581e-11
2.4022911e-11
3.0678912e-11
3.8454311e-11
4.2952806e-11
4.3150769e-11
4.3639762e-11
4.4449805e-11
4.561683e-11
4.7224063e-11
4.929192e-11
5.1860156e-11
5.5085558e-11
5.912833e-11
6.4190152e-11
7.0384485e-11
7.8446583e-11
8.7772256e-11
9.7849373e-11
1.0756841e-10
1.1743017e-10
1.2651298e-10
1.3472237e-10
1.3938404e-10
1.4194669e-10
1.3696437e-10
1.1461944e-10
1.0879013e-10
2.098695e-11
1.5505498e-11
2.3144867e-12
4.742349e-22
2.24765e-19
1.08726e-27
3.7091316e-24
9.6615178e-30
5.4794588e-17
2.2996748e-13
6.7333681e-13
1.6365833e-11
4.5169054e-11
4.3592754e-11
5.0831987e-11
4.9626893e-11
4.9447485e-11
4.747191e-11
4.5290713e-11
4.2757905e-11
4.0235907e-11
3.7799396e-11
3.570105e-11
3.4151219e-11
2.9836452e-11
2.4072553e-11
1.9550396e-11
1.5984417e-11
1.3157158e-11
1.0899956e-11
9.0750878e-12
7.5836816e-12
6.265865e-12
5.0586796e-12
3.9870187e-12
3.0672512e-12
2.3029922e-12
1.6877819e-12
1.2078698e-12
8.4505796e-13
5.8117795e-13
3.9861216e-13
2.7729997e-13
1.9683438e-13
1.4345792e-13
1.0806143e-13
8.4660767e-14
6.9435293e-14
6.0033951e-14
5.5042886e-14
5.4065177e-14
5.7024144e-14
6.014571e-14
6.2318078e-14
6.3971698e-14
6.5446804e-14
6.6774717e-14
6.7919173e-14
6.886411e-14
6.9633152e-14
7.0245496e-14
7.0726089e-14
7.1099389e-14
7.1385639e-14
7.1610879e-14
7.1784676e-14
7.1922706e-14
7.204856e-14
7.2187673e-14
7.2373261e-14
7.2632196e-14
7.3001574e-14
7.3518253e-14
7.3977134e-14
7.4285207e-14
7.4594093e-14
7.4855977e-14
7.5045707e-14
7.5166076e-14
7.5216609e-14
7.5221712e-14
7.5198086e-14
7.5151583e-14
7.5091781e-14
7.5029873e-14
7.4976157e-14
7.4943949e-14
7.4946549e-14
7.4994602e-14
7.509771e-14
7.5263559e-14
7.5497936e-14
7.5865649e-14
7.59763e-14
7.6659963e-14
7.7220154e-14
7.7880059e-14
7.8656641e-14
7.9596072e-14
8.0684723e-14
8.1956883e-14
8.3435839e-14
8.5132133e-14
8.6399673e-14
8.6857511e-14
8.7457281e-14
8.7666966e-14
8.6669827e-14
8.3897154e-14
7.9562544e-14
7.5029421e-14
7.1845752e-14
7.094017e-14
7.2464671e-14
7.4520406e-14
7.5493606e-14
7.6151184e-14
7.7692876e-14
7.9827599e-14
8.0999535e-14
8.0539513e-14
7.9247812e-14
7.8221487e-14
7.7702242e-14
7.7603233e-14
7.780858e-14
7.816424e-14
7.8496929e-14
7.8647687e-14
7.8462306e-14
7.7853359e-14
7.6851285e-14
7.5672018e-14
7.4503401e-14
7.3524287e-14
7.2882398e-14
7.2638403e-14
7.2729454e-14
7.2966881e-14
7.3045407e-14
7.2719264e-14
7.1977933e-14
7.091949e-14
6.9643488e-14
6.826447e-14
6.7167744e-14
6.6758364e-14
6.685348e-14
6.7207986e-14
6.7778401e-14
6.8495075e-14
6.9294702e-14
7.0128108e-14
7.0961223e-14
7.1744172e-14
7.2419232e-14
7.2691021e-14
7.193056e-14
6.5955129e-14
5.7449096e-14
5.5213664e-14
5.7963398e-14
6.5322815e-14
7.8261129e-14
9.8569803e-14
1.2972208e-13
1.7688058e-13
2.4806349e-13
3.5509457e-13
5.160618e-13
7.5261324e-13
1.0813135e-12
1.52125e-12
2.0935183e-12
2.816339e-12
3.7034441e-12
4.7604529e-12
5.9812427e-12
7.3463248e-12
8.9047301e-12
1.0779638e-11
1.3161883e-11
1.6118907e-11
1.9835113e-11
2.455254e-11
3.0585599e-11
3.4333623e-11
3.5801617e-11
3.7985881e-11
4.0586827e-11
4.3325124e-11
4.5776355e-11
4.8135898e-11
4.9880885e-11
5.0997145e-11
5.0133681e-11
4.8598317e-11
4.3058558e-11
3.5986437e-11
2.0749983e-11
2.1774601e-12
4.516143e-13
1.4385628e-14
3.839069e-27
1.4709724e-24
2.8014444e-31
1.3969795e-29
5.4756195e-27
4.0395871e-22
1.5047366e-15
3.334409e-14
1.3266599e-12
6.6723069e-12
6.909149e-12
1.1439848e-11
1.244441e-11
1.3932087e-11
1.3876664e-11
1.3126265e-11
1.1647747e-11
9.7942169e-12
7.7560311e-12
5.909056e-12
4.4982725e-12
3.4518718e-12
2.6700228e-12
2.0822926e-12
1.6376631e-12
1.2989898e-12
1.0389104e-12
8.3636766e-13
6.7693148e-13
5.4088149e-13
4.205171e-13
3.1775698e-13
2.3334552e-13
1.6653429e-13
1.1554099e-13
7.799037e-14
5.1296524e-14
3.3098815e-14
2.131973e-14
1.3989266e-14
9.4160468e-15
6.5473042e-15
4.7368729e-15
3.5890573e-15
2.8659153e-15
2.4275626e-15
2.1919347e-15
2.1309458e-15
2.231275e-15
2.337305e-15
2.4110232e-15
2.4670102e-15
2.5182224e-15
2.5651257e-15
2.6051867e-15
2.6372078e-15
2.6620569e-15
2.6804665e-15
2.6935001e-15
2.7022285e-15
2.7074795e-15
2.7104558e-15
2.7115744e-15
2.7115302e-15
2.7114072e-15
2.7123839e-15
2.7160208e-15
2.7235851e-15
2.7368588e-15
2.7576274e-15
2.7758142e-15
2.7871023e-15
2.7986746e-15
2.8081955e-15
2.8144228e-15
2.8174675e-15
2.8172948e-15
2.8150917e-15
2.8115844e-15
2.8071126e-15
2.8021549e-15
2.7972575e-15
2.7929305e-15
2.7898369e-15
2.7886167e-15
2.7897492e-15
2.793694e-15
2.8008074e-15
2.8113562e-15
2.8279587e-15
2.8340858e-15
2.8659019e-15
2.8927182e-15
2.9245384e-15
2.9622362e-15
3.0079537e-15
3.0610707e-15
3.1234382e-15
3.1963077e-15
3.2806935e-15
3.3448638e-15
3.368186e-15
3.3980008e-15
3.4089259e-15
3.3601792e-15
3.2241902e-15
3.0112832e-15
2.792168e-15
2.6393015e-15
2.5922602e-15
2.6601669e-15
2.7581093e-15
2.8067789e-15
2.8407664e-15
2.9170464e-15
3.0214238e-15
3.0796481e-15
3.0582112e-15
2.9968258e-15
2.9486107e-15
2.9248349e-15
2.9213918e-15
2.93281e-15
2.9517767e-15
2.9700002e-15
2.9797986e-15
2.9736996e-15
2.9474156e-15
2.902285e-15
2.848146e-15
2.794528e-15
2.7500335e-15
2.7217274e-15
2.712608e-15
2.7199079e-15
2.7344667e-15
2.7422365e-15
2.7314291e-15
2.7011965e-15
2.6560862e-15
2.6006271e-15
2.5409788e-15
2.4963763e-15
2.4854826e-15
2.4979674e-15
2.5237105e-15
2.560455e-15
2.6051261e-15
2.654974e-15
2.7078837e-15
2.7623777e-15
2.8161597e-15
2.8661333e-15
2.8978045e-15
2.8803856e-15
2.6355941e-15
2.2782832e-15
2.1890365e-15
2.3175057e-15
2.6543597e-15
3.2570257e-15
4.2332964e-15
5.7937757e-15
8.2734899e-15
1.2228893e-14
1.8550422e-14
2.8703081e-14
4.4662667e-14
6.8343346e-14
1.0210255e-13
1.487157e-13
2.1096003e-13
2.9137167e-13
3.9178014e-13
5.1273587e-13
6.5322746e-13
8.1970319e-13
1.027881e-12
1.3034135e-12
1.6592418e-12
2.1253319e-12
2.742756e-12
3.5677268e-12
4.6791724e-12
6.1581763e-12
8.1878921e-12
1.0517332e-11
1.2732566e-11
1.4441287e-11
1.5611319e-11
1.5826102e-11
1.5119966e-11
1.2888509e-11
1.0397818e-11
6.616948e-12
4.0069241e-12
1.7906535e-12
1.9054609e-13
3.7014148e-15
2.2560336e-17
3.0795378e-31
2.258032e-30
4.0707877e-31
6.8896805e-31
4.4984129e-31
7.9561625e-29
2.6480541e-18
1.1030554e-15
7.9327405e-14
5.7203033e-13
6.5826702e-13
1.2003497e-12
1.3804957e-12
1.6029983e-12
1.6263345e-12
1.5428399e-12
1.3544661e-12
1.1129987e-12
8.4968776e-13
6.1842008e-13
4.4940688e-13
3.297114e-13
2.4424892e-13
1.8277179e-13
1.3819722e-13
1.0560457e-13
8.1542171e-14
6.3494342e-14
4.98075e-14
3.8526714e-14
2.8888335e-14
2.0973887e-14
1.4748891e-14
1.0051222e-14
6.645797e-15
4.2718219e-15
2.6778841e-15
1.6526006e-15
1.0256541e-15
6.5548261e-16
4.3477019e-16
3.0136054e-16
2.1951176e-16
1.6856416e-16
1.366615e-16
1.1706767e-16
1.0583083e-16
1.0145491e-16
1.0254971e-16
1.0390525e-16
1.0505673e-16
1.0593832e-16
1.0693675e-16
1.0795802e-16
1.0880353e-16
1.0937401e-16
1.096917e-16
1.0977792e-16
1.0967505e-16
1.0942801e-16
1.0906792e-16
1.086491e-16
1.0818788e-16
1.0771361e-16
1.0727549e-16
1.0692769e-16
1.0674363e-16
1.0678282e-16
1.0713141e-16
1.0787632e-16
1.0851013e-16
1.0882707e-16
1.0917475e-16
1.0943598e-16
1.0954792e-16
1.0951472e-16
1.0933413e-16
1.0906526e-16
1.087388e-16
1.0837546e-16
1.0799922e-16
1.076372e-16
1.0731487e-16
1.0706601e-16
1.0692033e-16
1.0690006e-16
1.0702699e-16
1.0731741e-16
1.077835e-16
1.0852382e-16
1.0889881e-16
1.1034578e-16
1.1163879e-16
1.1318756e-16
1.1503791e-16
1.1728875e-16
1.1991476e-16
1.2301598e-16
1.2666119e-16
1.3092713e-16
1.3423638e-16
1.3548947e-16
1.3699132e-16
1.3754116e-16
1.3512345e-16
1.2834389e-16
1.1772207e-16
1.0699402e-16
9.9578869e-17
9.7115564e-17
1.0010258e-16
1.0480215e-16
1.0727827e-16
1.0907148e-16
1.1290889e-16
1.1809751e-16
1.2105036e-16
1.2005849e-16
1.1712943e-16
1.1485901e-16
1.1378101e-16
1.1370171e-16
1.1436128e-16
1.154095e-16
1.1644485e-16
1.1709022e-16
1.1697641e-16
1.1588718e-16
1.1388151e-16
1.1140602e-16
1.0895531e-16
1.0695032e-16
1.0573674e-16
1.0546809e-16
1.0602529e-16
1.0696144e-16
1.0761588e-16
1.0740941e-16
1.0627801e-16
1.0443416e-16
1.0208048e-16
9.9570479e-17
9.7902683e-17
9.7950743e-17
9.9148294e-17
1.0107389e-16
1.0362363e-16
1.0667109e-16
1.1010842e-16
1.1385999e-16
1.1788187e-16
1.2209284e-16
1.2635698e-16
1.2998543e-16
1.3146887e-16
1.2304276e-16
1.0868345e-16
1.0490628e-16
1.1026155e-16
1.2439466e-16
1.4995622e-16
1.9201414e-16
2.6075022e-16
3.7322673e-16
5.5949525e-16
8.7111533e-16
1.3990226e-15
2.2785361e-15
3.6632521e-15
5.7571338e-15
8.8180483e-15
1.3132926e-14
1.8996676e-14
2.6668724e-14
3.6309883e-14
4.7945755e-14
6.2256664e-14
8.0856199e-14
1.0650316e-13
1.4098748e-13
1.8810779e-13
2.5331639e-13
3.4446994e-13
4.7318108e-13
6.5254714e-13
9.1102246e-13
1.2188661e-12
1.516002e-12
1.741548e-12
1.8847911e-12
1.8866667e-12
1.7493996e-12
1.4184477e-12
1.0588816e-12
6.085908e-13
3.3115042e-13
1.1408169e-13
1.3804562e-14
7.476941e-18
1.2010558e-20
2.1245273e-27
6.761438e-31
5.852826e-31
2.063449e-24
3.7753824e-22
3.5937229e-25
1.5216766e-21
2.3720245e-17
3.3203678e-15
3.8307877e-14
4.9357667e-14
1.008279e-13
1.2383495e-13
1.5029792e-13
1.5618499e-13
1.4916783e-13
1.2989801e-13
1.0449549e-13
7.6974581e-14
5.3555405e-14
3.7185973e-14
2.6118015e-14
1.8565122e-14
1.3363255e-14
9.7451692e-15
7.2024752e-15
5.3947351e-15
4.0859377e-15
3.127156e-15
2.3613399e-15
1.726641e-15
1.222387e-15
8.395964e-16
5.6120491e-16
3.6672766e-16
2.3584499e-16
1.5063244e-16
9.7088968e-17
6.4761418e-17
4.5698874e-17
3.422779e-17
2.7176058e-17
2.2744981e-17
1.9885909e-17
1.797301e-17
1.6627815e-17
1.5584512e-17
1.4719055e-17
1.3742367e-17
1.2864054e-17
1.2385476e-17
1.2040729e-17
1.180608e-17
1.1635195e-17
1.1484993e-17
1.1333207e-17
1.1177136e-17
1.1015436e-17
1.0850366e-17
1.0684981e-17
1.052069e-17
1.0362187e-17
1.021006e-17
1.0066358e-17
9.9355369e-18
9.8226598e-18
9.7350136e-18
9.6783748e-18
9.6616529e-18
9.6938764e-18
9.7170179e-18
9.7088396e-18
9.7071778e-18
9.6986828e-18
9.6761913e-18
9.6399972e-18
9.5897984e-18
9.5321816e-18
9.4697931e-18
9.4054597e-18
9.3417594e-18
9.2816353e-18
9.227852e-18
9.1841433e-18
9.1533992e-18
9.1378744e-18
9.1397238e-18
9.1604905e-18
9.2013284e-18
9.2677399e-18
9.3263245e-18
9.4554887e-18
9.5896617e-18
9.7528184e-18
9.950235e-18
1.0191667e-17
1.0475371e-17
1.0813073e-17
1.121314e-17
1.1686935e-17
1.2062799e-17