/*--------------------------------*- C++ -*----------------------------------*\
| =========                 |                                                 |
| \\      /  F ield         | OpenFOAM: The Open Source CFD Toolbox           |
|  \\    /   O peration     | Version:  2.4.0                                 |
|   \\  /    A nd           | Web:      www.OpenFOAM.org                      |
|    \\/     M anipulation  |                                                 |
\*---------------------------------------------------------------------------*/
FoamFile
{
    version     2.0;
    format      ascii;
    class       volScalarField;
    location    "50";
    object      k;
}
// * * * * * * * * * * * * * * * * * * * * * * * * * * * * * * * * * * * * * //

dimensions      [0 2 -2 0 0 0 0];

internalField   nonuniform List<scalar> 
78300
(
9.2834651e-07
5.8516995e-07
1.3660286e-06
9.3255407e-07
1.1027166e-06
4.5869555e-07
2.272044e-07
1.2565239e-09
4.6859861e-08
1.5954514e-07
1.0914452e-07
9.1805736e-08
5.3515386e-08
4.3529726e-08
3.1191638e-08
2.9660749e-08
2.4844823e-08
2.5222463e-08
2.3002818e-08
2.2768053e-08
2.0630122e-08
1.9400269e-08
1.7268818e-08
1.5932988e-08
1.4421915e-08
1.3280658e-08
1.2091476e-08
1.1190995e-08
1.0334639e-08
9.7458605e-09
9.2609772e-09
8.9896901e-09
8.9029028e-09
8.9753128e-09
9.2530152e-09
9.613419e-09
1.0066702e-08
1.0481029e-08
1.0999839e-08
1.148565e-08
1.2013713e-08
1.2570993e-08
1.3013383e-08
1.3365409e-08
1.3540728e-08
1.3458873e-08
1.3122641e-08
1.2694191e-08
1.2102515e-08
1.1499595e-08
1.0916292e-08
9.9437694e-09
9.0005872e-09
7.7549372e-09
6.5858011e-09
5.1346795e-09
4.0093114e-09
2.7101003e-09
2.0177168e-09
1.2233107e-09
1.2060559e-09
1.0332124e-09
2.8443737e-09
9.077925e-09
1.5846534e-08
2.5552477e-08
3.5829316e-08
4.832036e-08
6.1112181e-08
7.5811191e-08
8.9836691e-08
1.0531163e-07
1.2056782e-07
1.3692186e-07
1.5258526e-07
1.689434e-07
1.852366e-07
2.0170968e-07
2.1801405e-07
2.3430843e-07
2.5033604e-07
2.6616432e-07
2.8159125e-07
2.9662881e-07
3.1112342e-07
3.2505046e-07
3.382864e-07
3.5080069e-07
3.6251906e-07
3.7343653e-07
3.8352569e-07
3.9280869e-07
4.0130355e-07
4.0905454e-07
4.1610562e-07
4.2251087e-07
4.2832546e-07
4.3360098e-07
4.3838213e-07
4.4270819e-07
4.4659639e-07
4.5004129e-07
4.5300947e-07
4.554586e-07
4.5733582e-07
4.5858354e-07
4.5913716e-07
4.5892801e-07
4.5790958e-07
4.5605988e-07
4.5337269e-07
4.4983606e-07
4.4544837e-07
4.4020819e-07
4.3413901e-07
4.2725519e-07
4.2010228e-07
4.1197592e-07
4.0322247e-07
3.9441449e-07
3.855215e-07
3.7647374e-07
3.6726663e-07
3.5644705e-07
3.4628482e-07
3.3599329e-07
3.2553554e-07
3.1503266e-07
3.0452021e-07
2.9405629e-07
2.8365738e-07
2.7335053e-07
2.6315439e-07
2.5310324e-07
2.4321664e-07
2.3350382e-07
2.2396762e-07
2.1462301e-07
2.0549353e-07
1.965857e-07
1.8789936e-07
1.7943495e-07
1.7120592e-07
1.6321397e-07
1.5545735e-07
1.4792441e-07
1.4061436e-07
1.3353351e-07
1.2669007e-07
1.2008764e-07
1.1371984e-07
1.0758815e-07
1.0169202e-07
9.6036208e-08
9.0612846e-08
8.5418693e-08
8.0443689e-08
7.5685993e-08
7.1138258e-08
6.6799833e-08
6.2658467e-08
5.8704558e-08
5.4927747e-08
5.1331322e-08
4.7916105e-08
4.4684934e-08
4.1633662e-08
3.8753852e-08
3.6027951e-08
3.3451282e-08
3.1018681e-08
2.8738456e-08
2.6601338e-08
2.4609961e-08
2.2743955e-08
2.1007498e-08
1.9382716e-08
1.7879187e-08
1.6474314e-08
1.5180894e-08
1.3974811e-08
1.2872565e-08
1.184403e-08
1.0911938e-08
1.0044676e-08
9.2710927e-09
8.5507307e-09
7.919177e-09
7.3295924e-09
6.8273168e-09
6.3545413e-09
5.967511e-09
5.5969495e-09
5.3143691e-09
5.0357461e-09
4.8513394e-09
4.6575763e-09
4.5703785e-09
4.461367e-09
4.4802179e-09
4.4643677e-09
4.6093133e-09
4.7067366e-09
5.0146403e-09
5.2608803e-09
5.7761902e-09
6.1492465e-09
6.6681614e-09
7.171573e-09
7.6921574e-09
8.3921452e-09
8.8331409e-09
9.3998631e-09
9.6609672e-09
9.952796e-09
9.9312401e-09
9.8504345e-09
9.4711717e-09
8.9767062e-09
8.2252651e-09
7.3536902e-09
6.3016912e-09
5.1980593e-09
4.0318492e-09
2.9647388e-09
2.0508663e-09
3.1134637e-09
5.1429009e-09
8.3421549e-09
1.318737e-08
2.0062549e-08
2.9436841e-08
4.1558918e-08
5.6678519e-08
7.450738e-08
9.4315702e-08
1.1646826e-07
1.4102831e-07
1.684442e-07
1.9871959e-07
2.3274458e-07
2.7031596e-07
3.1320441e-07
3.6115528e-07
4.1728394e-07
4.8183645e-07
5.6151383e-07
6.615746e-07
8.0305953e-07
9.7063379e-07
1.1889252e-06
1.4493833e-06
1.7582468e-06
2.1439445e-06
2.6661743e-06
3.2884146e-06
4.1834711e-06
5.1650877e-06
6.550297e-06
7.8447749e-06
9.3123671e-06
9.0663784e-06
7.9644751e-06
5.7722099e-06
4.1910277e-06
2.3630481e-06
1.7085866e-06
7.5455958e-07
8.2286929e-07
2.8569286e-07
6.5102556e-07
2.8231524e-07
7.8192387e-07
3.3952434e-07
1.7116807e-07
1.6759688e-07
1.033671e-07
3.6108317e-08
1.9793289e-08
2.8045536e-08
1.794534e-08
1.4877652e-08
8.8360742e-09
7.1992611e-09
5.2693096e-09
5.0014998e-09
4.2582418e-09
4.3110635e-09
3.9800116e-09
3.9385405e-09
3.6101086e-09
3.4086233e-09
3.0711401e-09
2.8535656e-09
2.6157679e-09
2.4405202e-09
2.2721828e-09
2.1636384e-09
2.1149447e-09
2.1901847e-09
2.4217015e-09
1.3212934e-09
2.722293e-09
1.2703602e-09
2.9606775e-09
1.3809448e-09
3.3747011e-09
1.5431333e-09
2.5939018e-09
1.8346523e-09
1.8461549e-09
4.6486967e-09
4.9186897e-09
5.1821676e-09
5.4539277e-09
5.7075884e-09
2.2614539e-09
6.1229083e-09
2.3040519e-09
2.3278759e-09
6.8847456e-09
4.2398868e-09
4.483645e-09
4.5326947e-09
4.5687609e-09
4.5213186e-09
4.4751436e-09
4.3368242e-09
4.2311341e-09
4.0222356e-09
3.9250429e-09
3.8555864e-09
4.3218977e-09
6.2834706e-09
8.3842008e-09
1.0782055e-08
1.2368021e-08
1.0807509e-08
1.3040019e-08
3.3833397e-08
1.8280956e-08
2.991691e-08
2.5026823e-08
4.669498e-08
3.9623779e-08
4.3658086e-08
4.8125287e-08
5.2233268e-08
5.6148579e-08
5.9915015e-08
6.3500832e-08
6.6935138e-08
7.0201076e-08
7.330531e-08
7.623001e-08
7.8970257e-08
8.1510168e-08
8.3845509e-08
8.5970953e-08
8.789276e-08
8.9619391e-08
9.1170587e-08
9.2568069e-08
9.3838033e-08
9.500918e-08
9.6118604e-08
9.7181201e-08
9.8225622e-08
9.9281994e-08
1.0037475e-07
1.0151047e-07
1.0268068e-07
1.0387031e-07
1.0506272e-07
1.062373e-07
1.0736816e-07
1.0842599e-07
1.0938248e-07
1.1020972e-07
1.1088521e-07
1.1138468e-07
1.1168036e-07
1.1173545e-07
1.1151199e-07
1.109933e-07
1.1182917e-07
1.3562757e-07
1.4529274e-07
1.4553714e-07
1.4544202e-07
1.4549406e-07
1.4584221e-07
1.4740125e-07
1.0038185e-07
9.9065335e-08
9.7828835e-08
9.647015e-08
9.5087355e-08
9.3660865e-08
9.2210848e-08
9.0740627e-08
8.9254783e-08
8.7758278e-08
8.6258898e-08
8.4761439e-08
8.3268859e-08
8.1782045e-08
8.0305074e-08
7.8842254e-08
7.739812e-08
7.5971798e-08
7.4565557e-08
7.3181478e-08
7.1822116e-08
7.048758e-08
6.9175567e-08
6.7886706e-08
6.6620422e-08
6.5381268e-08
6.4168208e-08
6.2983013e-08
6.1823709e-08
6.0692999e-08
5.9590781e-08
5.8518024e-08
5.7473669e-08
5.6457148e-08
5.5467838e-08
5.4505319e-08
5.3570083e-08
5.266116e-08
5.1776047e-08
5.0911494e-08
5.0066187e-08
4.9241097e-08
4.8437204e-08
4.7656044e-08
4.6897442e-08
4.6157568e-08
4.543256e-08
4.4720808e-08
4.4023639e-08
4.3341332e-08
4.2675879e-08
4.202411e-08
4.1385575e-08
4.075683e-08
4.0139369e-08
3.9530146e-08
3.8930795e-08
3.8337987e-08
3.7754639e-08
3.7175655e-08
3.6604802e-08
3.6036353e-08
3.5478174e-08
3.4921783e-08
3.4377368e-08
3.3833636e-08
3.3305855e-08
3.2779596e-08
3.2274158e-08
3.1770971e-08
3.1295221e-08
3.082385e-08
3.038898e-08
2.996176e-08
2.9581686e-08
2.9213815e-08
2.8908405e-08
2.862446e-08
2.842316e-08
2.8258825e-08
2.8203265e-08
2.8200711e-08
2.829172e-08
2.8252508e-08
2.8002441e-08
2.8393474e-08
2.9339184e-08
3.0723854e-08
3.2269096e-08
3.4010917e-08
3.5848208e-08
3.7795118e-08
3.9794912e-08
4.1851453e-08
4.3935667e-08
4.6054388e-08
4.8202356e-08
5.040186e-08
5.2675536e-08
5.5154808e-08
5.7860328e-08
6.07457e-08
6.3769227e-08
6.7171625e-08
7.0816502e-08
7.4694689e-08
7.8889748e-08
8.3397261e-08
8.8263947e-08
9.3466171e-08
9.8978694e-08
1.0429379e-07
1.0936435e-07
1.1447231e-07
1.1972638e-07
1.2523531e-07
1.3109344e-07
1.3746576e-07
1.4439865e-07
1.522378e-07
1.6103977e-07
1.7130786e-07
1.8344851e-07
1.9821121e-07
2.1824172e-07
2.4629954e-07
2.8055234e-07
3.192733e-07
7.6716161e-07
2.4931001e-07
8.9281066e-07
3.6797643e-07
4.5266636e-07
5.7323954e-07
7.0691293e-07
8.9510344e-07
1.3400378e-06
1.7798345e-06
1.7918428e-06
1.6371913e-06
1.9843332e-06
6.0689279e-07
9.8828164e-07
2.5900688e-07
5.6375797e-07
5.3199694e-07
2.0044686e-07
3.2345928e-06
1.4600652e-06
3.6240671e-06
1.519184e-06
2.3693346e-07
7.5224802e-07
5.2112502e-07
2.6291815e-07
9.6909917e-08
3.4638727e-08
1.4618461e-08
1.0714957e-08
7.3620929e-09
6.1103e-09
5.1679565e-09
4.8674527e-09
4.5680686e-09
4.5608829e-09
4.50041e-09
4.449124e-09
4.3216965e-09
4.1614782e-09
3.9657614e-09
3.8022924e-09
3.6746907e-09
3.603805e-09
3.6235085e-09
3.7482487e-09
4.1856879e-09
5.093369e-09
6.6277466e-09
9.7280636e-10
8.3329861e-09
9.8827784e-10
9.5241628e-09
1.2085535e-09
1.1368828e-08
1.5809621e-09
7.0598591e-09
2.6744436e-09
2.4080808e-09
1.7167528e-08
1.8409801e-08
1.9760096e-08
2.1358329e-08
2.3055024e-08
4.4812679e-09
2.6672063e-08
5.7399317e-09
6.6381829e-09
3.385821e-08
2.0753667e-08
2.3488089e-08
2.5136178e-08
2.6609108e-08
2.7763074e-08
2.8590044e-08
2.8922501e-08
2.8866486e-08
2.8159967e-08
2.7466923e-08
2.7137031e-08
2.8673184e-08
3.6576003e-08
4.4945434e-08
5.2487071e-08
5.412326e-08
3.5071764e-08
3.9719251e-08
1.4348217e-07
5.1507709e-08
1.1002624e-07
7.1270081e-08
1.7533534e-07
1.3376063e-07
1.4554399e-07
1.5787776e-07
1.6810949e-07
1.7759837e-07
1.8641095e-07
1.9456802e-07
2.0207688e-07
2.0896522e-07
2.152068e-07
2.2080565e-07
2.2572807e-07
2.2997697e-07
2.3354367e-07
2.3646152e-07
2.3877557e-07
2.4057149e-07
2.4196435e-07
2.4308824e-07
2.4408195e-07
2.4510295e-07
2.4635823e-07
2.4789538e-07
2.4986454e-07
2.5243371e-07
2.5573602e-07
2.5980088e-07
2.6457417e-07
2.6998494e-07
2.7596079e-07
2.824131e-07
2.89222e-07
2.9625255e-07
3.033845e-07
3.1048254e-07
3.1743263e-07
3.2410422e-07
3.3036947e-07
3.3605658e-07
3.4102528e-07
3.4509907e-07
3.5480353e-07
4.7551142e-07
5.284864e-07
5.358872e-07
5.4407996e-07
5.5370528e-07
5.6547368e-07
5.8564812e-07
3.6601635e-07
3.6689133e-07
3.6847443e-07
3.6933571e-07
3.7006733e-07
3.7048937e-07
3.7068928e-07
3.7067438e-07
3.7045019e-07
3.7003378e-07
3.6944669e-07
3.6870375e-07
3.6781712e-07
3.667903e-07
3.6563765e-07
3.6436639e-07
3.6300295e-07
3.6154109e-07
3.5999696e-07
3.5837186e-07
3.5668276e-07
3.5493223e-07
3.5311546e-07
3.5123788e-07
3.4928876e-07
3.4729292e-07
3.4523907e-07
3.4314674e-07
3.4099997e-07
3.3881912e-07
3.3659849e-07
3.3435329e-07
3.3207917e-07
3.2978229e-07
3.2746006e-07
3.2511694e-07
3.2275725e-07
3.203865e-07
3.1799633e-07
3.1557367e-07
3.131055e-07
3.1059809e-07
3.0805567e-07
3.0549374e-07
3.0291975e-07
3.003238e-07
2.9768249e-07
2.9498939e-07
2.9224561e-07
2.8946276e-07
2.8665267e-07
2.8381322e-07
2.8093679e-07
2.7801666e-07
2.7505386e-07
2.7204944e-07
2.6900215e-07
2.6591251e-07
2.6278486e-07
2.5961301e-07
2.5640104e-07
2.5313971e-07
2.4985675e-07
2.465319e-07
2.4320292e-07
2.3983559e-07
2.3649473e-07
2.3313449e-07
2.2983797e-07
2.2654084e-07
2.2335347e-07
2.2019395e-07
2.1720405e-07
2.1427962e-07
2.1158989e-07
2.0901178e-07
2.0675832e-07
2.0469746e-07
2.0307482e-07
2.0177131e-07
2.0104577e-07
2.0077139e-07
2.0090375e-07
2.002428e-07
1.9791517e-07
2.0028372e-07
2.0666886e-07
2.160811e-07
2.2693677e-07
2.3910204e-07
2.5228216e-07
2.6623295e-07
2.8089449e-07
2.9603298e-07
3.116826e-07
3.2770386e-07
3.4420537e-07
3.6120901e-07
3.7894396e-07
3.9823464e-07
4.1923884e-07
4.4145201e-07
4.645081e-07
4.8828803e-07
5.1284443e-07
5.3789564e-07
5.6355884e-07
5.8940418e-07
6.152915e-07
6.4079125e-07
6.6544649e-07
6.8585766e-07
7.0245682e-07
7.1692085e-07
7.2996969e-07
7.4193187e-07
7.534998e-07
7.6496092e-07
7.7686039e-07
7.8989772e-07
8.0474216e-07
8.2186507e-07
8.4396163e-07
8.6961299e-07
9.1268007e-07
9.7164969e-07
1.0489009e-06
1.1035824e-06
3.4719033e-06
2.0307877e-07
3.5019243e-06
2.4394072e-07
2.80371e-07
3.3520263e-07
4.0622662e-07
4.9693445e-07
1.5577846e-06
3.0225972e-06
3.3641894e-06
3.401754e-06
6.8062924e-06
5.7497057e-07
3.9224984e-06
3.2191369e-07
2.8532022e-06
2.5756704e-06
1.1706811e-06
1.0092849e-05
5.3915412e-06
1.125126e-05
5.5609671e-06
8.3524351e-07
2.7581139e-06
1.9234709e-06
9.8793122e-07
3.5811948e-07
1.0476142e-07
3.7796589e-08
2.5845022e-08
1.9179387e-08
1.6057378e-08
1.4426591e-08
1.3548945e-08
1.3164823e-08
1.3083252e-08
1.3193317e-08
1.3040651e-08
1.2890867e-08
1.2484381e-08
1.208077e-08
1.1676901e-08
1.1431706e-08
1.1331093e-08
1.155829e-08
1.208543e-08
1.3590001e-08
1.6379197e-08
2.0472763e-08
2.758192e-09
2.497319e-08
2.9631786e-09
2.8761459e-08
3.7910843e-09
3.4565876e-08
5.1637143e-09
2.4442358e-08
9.4481517e-09
8.5491532e-09
5.3249793e-08
5.7096339e-08
6.1443156e-08
6.6666391e-08
7.2183336e-08
1.690292e-08
8.4492666e-08
2.2044193e-08
2.6202059e-08
1.0947005e-07
7.6611831e-08
8.6825638e-08
9.3211319e-08
9.8915924e-08
1.034656e-07
1.0674002e-07
1.0818242e-07
1.0807678e-07
1.0554158e-07
1.0294151e-07
1.0172868e-07
1.0722623e-07
1.3596728e-07
1.6638254e-07
1.9341918e-07
2.0082404e-07
1.3797287e-07
1.558324e-07
4.6304799e-07
2.0064612e-07
3.9763438e-07
2.7444914e-07
5.904037e-07
4.8337051e-07
5.2330428e-07
5.6318417e-07
5.9666873e-07
6.279349e-07
6.5705944e-07
6.8413429e-07
7.0905139e-07
7.3188399e-07
7.5247562e-07
7.7083766e-07
7.8682674e-07
8.0046113e-07
8.1170408e-07
8.2068517e-07
8.2756771e-07
8.3267026e-07
8.3641282e-07
8.3928712e-07
8.4179847e-07
8.4452171e-07
8.4821253e-07
8.530377e-07
8.5954588e-07
8.6835134e-07
8.7993933e-07
8.944151e-07
9.1158e-07
9.3117817e-07
9.5295007e-07
9.7657828e-07
1.0016321e-06
1.0276281e-06
1.0541407e-06
1.08069e-06
1.1068784e-06
1.1322565e-06
1.1564054e-06
1.1787711e-06
1.1989521e-06
1.2161209e-06
1.2465423e-06
1.5716803e-06
1.6916584e-06
1.7069054e-06
1.7342901e-06
1.7676362e-06
1.8082005e-06
1.8779053e-06
1.3215796e-06
1.3264046e-06
1.3338374e-06
1.3385866e-06
1.3428562e-06
1.3459659e-06
1.3482355e-06
1.3496897e-06
1.3503452e-06
1.3502639e-06
1.3495212e-06
1.3481699e-06
1.3462543e-06
1.3437871e-06
1.3408201e-06
1.3373768e-06
1.3335554e-06
1.3293328e-06
1.3247692e-06
1.3198676e-06
1.3146914e-06
1.3092506e-06
1.3035287e-06
1.2975463e-06
1.2912622e-06
1.2847682e-06
1.2780217e-06
1.2710966e-06
1.263933e-06
1.2566071e-06
1.2490972e-06
1.2414612e-06
1.2336835e-06
1.2257884e-06
1.2177666e-06
1.2096359e-06
1.2014126e-06
1.1931192e-06
1.1847255e-06
1.1761843e-06
1.167446e-06
1.1585341e-06
1.1494642e-06
1.1402949e-06
1.1310553e-06
1.1217109e-06
1.1121747e-06
1.1024232e-06
1.0924594e-06
1.0823281e-06
1.0720735e-06
1.0616903e-06
1.0511496e-06
1.0404286e-06
1.0295299e-06
1.0184606e-06
1.0072143e-06
9.9579622e-07
9.8422039e-07
9.724679e-07
9.6055082e-07
9.4843895e-07
9.3623219e-07
9.2386035e-07
9.1145998e-07
8.9890934e-07
8.8644518e-07
8.7390373e-07
8.6158868e-07
8.4926857e-07
8.3734726e-07
8.2552938e-07
8.1433394e-07
8.0338493e-07
7.9330073e-07
7.8363784e-07
7.75174e-07
7.6743694e-07
7.6132027e-07
7.564066e-07
7.536302e-07
7.5255492e-07
7.5296796e-07
7.5047465e-07
7.4181554e-07
7.5075266e-07
7.7466914e-07
8.0992646e-07
8.5064504e-07
8.9626609e-07
9.4574445e-07
9.9811241e-07
1.0531966e-06
1.1100801e-06
1.1689272e-06
1.2291875e-06
1.2912902e-06
1.3553004e-06
1.4220918e-06
1.4947271e-06
1.5737775e-06
1.6573317e-06
1.7440177e-06
1.8331233e-06
1.9249945e-06
2.0185456e-06
2.1141391e-06
2.2101043e-06
2.3058507e-06
2.3997196e-06
2.4899252e-06
2.5637984e-06
2.623141e-06
2.6741685e-06
2.7195525e-06
2.7604641e-06
2.7994889e-06
2.8375746e-06
2.8768081e-06
2.9195472e-06
2.968352e-06
3.0245584e-06
3.0982199e-06
3.1831458e-06
3.3305161e-06
3.5314318e-06
3.7969567e-06
3.9615257e-06
1.0841754e-05
6.1211585e-07
1.0584436e-05
7.0879115e-07
7.4935498e-07
8.6711931e-07
1.0444743e-06
1.2386897e-06
4.7543712e-06
9.7823401e-06
1.1083127e-05
1.1382184e-05
2.0575771e-05
1.8807097e-06
1.2044082e-05
1.1229194e-06
8.921933e-06
8.0170748e-06
4.3500034e-06
2.2530924e-05
1.4368429e-05
2.5091808e-05
1.4803673e-05
2.4750987e-06
7.3586003e-06
5.1347867e-06
2.6447181e-06
9.5864694e-07
2.7257534e-07
9.6006072e-08
6.4731736e-08
4.86265e-08
4.0753664e-08
3.6940228e-08
3.4675272e-08
3.3855802e-08
3.3623112e-08
3.4010534e-08
3.362027e-08
3.3316611e-08
3.2294697e-08
3.131537e-08
3.0300086e-08
2.971272e-08
2.9463563e-08
3.0039703e-08
3.1257317e-08
3.4545217e-08
4.0110289e-08
4.7181909e-08
7.8521202e-09
5.557902e-08
8.6204111e-09
6.426866e-08
1.1098242e-08
7.7525581e-08
1.5073307e-08
6.4251295e-08
2.7619429e-08
2.5560696e-08
1.2122648e-07
1.3001191e-07
1.4017653e-07
1.524933e-07
1.6555478e-07
5.0479319e-08
1.9527505e-07
6.5497294e-08
7.8599525e-08
2.566977e-07
2.0504481e-07
2.3162268e-07
2.4880242e-07
2.6410982e-07
2.7634607e-07
2.8515962e-07
2.8908051e-07
2.8883575e-07
2.8209524e-07
2.7514481e-07
2.719165e-07
2.8653607e-07
3.6308113e-07
4.4407027e-07
5.1639892e-07
5.444647e-07
4.0638476e-07
4.5995175e-07
1.1003347e-06
5.9109337e-07
1.058854e-06
7.9531544e-07
1.4759728e-06
1.2944558e-06
1.3955782e-06
1.4947115e-06
1.580107e-06
1.6604163e-06
1.7355403e-06
1.8057023e-06
1.8704421e-06
1.9298807e-06
1.9835244e-06
2.0313736e-06
2.0730192e-06
2.1085001e-06
2.137708e-06
2.1609833e-06
2.1787538e-06
2.1918617e-06
2.2014153e-06
2.2087146e-06
2.2150945e-06
2.2220747e-06
2.2316493e-06
2.2442574e-06
2.2613549e-06
2.2845656e-06
2.3151675e-06
2.3534345e-06
2.3988412e-06
2.4507149e-06
2.5083716e-06
2.5709749e-06
2.6373916e-06
2.7063527e-06
2.7767453e-06
2.8473187e-06
2.9170494e-06
2.9847904e-06
3.0495035e-06
3.1098304e-06
3.1648568e-06
3.2119212e-06
3.2783346e-06
3.881387e-06
4.0307437e-06
4.0428285e-06
4.1057437e-06
4.1855661e-06
4.2827772e-06
4.4534959e-06
3.5170948e-06
3.5306529e-06
3.5508928e-06
3.563974e-06
3.5757769e-06
3.5844823e-06
3.5909429e-06
3.5952235e-06
3.5973678e-06
3.5975393e-06
3.5959401e-06
3.5927088e-06
3.587964e-06
3.581739e-06
3.5741714e-06
3.5653239e-06
3.5554579e-06
3.5445118e-06
3.5326463e-06
3.5198692e-06
3.5063492e-06
3.4921133e-06
3.4771179e-06
3.4614181e-06
3.4449035e-06
3.4278191e-06
3.4100509e-06
3.3917964e-06
3.3728958e-06
3.3535526e-06
3.3337085e-06
3.3135183e-06
3.2929407e-06
3.272041e-06
3.2507946e-06
3.2292488e-06
3.2074476e-06
3.185451e-06
3.1631795e-06
3.1405067e-06
3.1173006e-06
3.0936238e-06
3.0695176e-06
3.0451385e-06
3.0205651e-06
2.9957058e-06
2.9703282e-06
2.9443697e-06
2.9178382e-06
2.8908536e-06
2.8635336e-06
2.8358652e-06
2.8077708e-06
2.7791903e-06
2.7501302e-06
2.7206105e-06
2.6906129e-06
2.6601532e-06
2.6292676e-06
2.5979069e-06
2.5661023e-06
2.5337743e-06
2.5011887e-06
2.4681593e-06
2.4350497e-06
2.4015361e-06
2.3682495e-06
2.334754e-06
2.3018593e-06
2.2689488e-06
2.2370994e-06
2.2055243e-06
2.1756071e-06
2.1463465e-06
2.1193909e-06
2.093559e-06
2.0709239e-06
2.0502285e-06
2.0338541e-06
2.0206903e-06
2.0132255e-06
2.0103047e-06
2.0113522e-06
2.0047762e-06
1.9820289e-06
2.0062277e-06
2.0702025e-06
2.1644888e-06
2.2733958e-06
2.3954114e-06
2.5277559e-06
2.6678279e-06
2.8151771e-06
2.9673408e-06
3.1247684e-06
3.2859786e-06
3.4521315e-06
3.6233998e-06
3.802136e-06
3.99648e-06
4.2079014e-06
4.4313036e-06
4.6630376e-06
4.9011361e-06
5.1465757e-06
5.3964349e-06
5.651645e-06
5.9077211e-06
6.1630708e-06
6.4132589e-06
6.653378e-06
6.8497035e-06
7.0073122e-06
7.1427228e-06
7.262992e-06
7.371246e-06
7.4743949e-06
7.5749207e-06
7.6784145e-06
7.7910794e-06
7.9198401e-06
8.0681291e-06
8.2628057e-06
8.4873671e-06
8.8781407e-06
9.4100301e-06
1.0113031e-05
1.0528596e-05
2.4254582e-05
1.7629398e-06
2.308812e-05
2.1078686e-06
2.1226274e-06
2.449696e-06
2.9645039e-06
3.4895346e-06
1.2778821e-05
2.5552079e-05
2.899508e-05
2.9840306e-05
4.5660387e-05
5.6251426e-06
2.687982e-05
3.362893e-06
1.9955977e-05
1.7873575e-05
1.1601997e-05
4.1709611e-05
3.1356704e-05
4.6430114e-05
3.2302392e-05
6.2085033e-06
1.6109615e-05
1.1239356e-05
5.7973633e-06
2.1046783e-06
5.9415903e-07
2.0804911e-07
1.3954968e-07
1.0503181e-07
8.8015832e-08
7.9897531e-08
7.4983527e-08
7.3270855e-08
7.2755188e-08
7.3640717e-08
7.2805407e-08
7.2188721e-08
6.999401e-08
6.7900637e-08
6.571119e-08
6.4455451e-08
6.3856465e-08
6.494186e-08
6.7082168e-08
7.258544e-08
8.0945296e-08
9.0030241e-08
1.9300163e-08
1.0315723e-07
2.1490743e-08
1.1977043e-07
2.7685736e-08
1.4502114e-07
3.7339001e-08
1.3944616e-07
6.7408805e-08
6.3803376e-08
2.3011124e-07
2.4711996e-07
2.6704775e-07
2.9134418e-07
3.1747947e-07
1.2510637e-07
3.7719119e-07
1.6123904e-07
1.9392304e-07
5.0243207e-07
4.5009949e-07
5.0638133e-07
5.4413285e-07
5.7766722e-07
6.0449868e-07
6.2383459e-07
6.3246412e-07
6.3196283e-07
6.1724238e-07
6.0203969e-07
5.9500943e-07
6.2698369e-07
7.9432656e-07
9.7132283e-07
1.1303797e-06
1.2105539e-06
9.7892889e-07
1.1103794e-06
2.1920193e-06
1.4240526e-06
2.3160552e-06
1.8814693e-06
3.0677848e-06
2.8457098e-06
3.0568911e-06
3.2628338e-06
3.4446772e-06
3.6166256e-06
3.7779566e-06
3.9291203e-06
4.068884e-06
4.1974039e-06
4.3135011e-06
4.4171298e-06
4.5073615e-06
4.5842632e-06
4.6475848e-06
4.6980605e-06
4.7366145e-06
4.7650756e-06
4.7858475e-06
4.8017527e-06
4.81569e-06
4.8309617e-06
4.8518855e-06
4.8794168e-06
4.9167341e-06
4.9673613e-06
5.0340582e-06
5.1174066e-06
5.2162669e-06
5.3291841e-06
5.454674e-06
5.5909199e-06
5.7354666e-06
5.88557e-06
6.038829e-06
6.1925501e-06
6.3445492e-06
6.4923924e-06
6.6339194e-06
6.7663239e-06
6.8877918e-06
6.9916672e-06
7.1099562e-06
7.9909025e-06
8.051987e-06
8.036604e-06
8.1576544e-06
8.3165268e-06
8.5102497e-06
8.8592826e-06
7.6865553e-06
7.7170358e-06
7.7613644e-06
7.7900586e-06
7.8159608e-06
7.8350951e-06
7.8493244e-06
7.8587891e-06
7.8635846e-06
7.8640678e-06
7.8606806e-06
7.8537245e-06
7.8434587e-06
7.8299566e-06
7.8135165e-06
7.794277e-06
7.7728094e-06
7.7489786e-06
7.7231355e-06
7.6952967e-06
7.6658311e-06
7.6347975e-06
7.6021012e-06
7.5678622e-06
7.5318395e-06
7.4945683e-06
7.4557993e-06
7.4159639e-06
7.3747139e-06
7.3324927e-06
7.2891739e-06
7.2450948e-06
7.2001664e-06
7.1545305e-06
7.1081339e-06
7.0610797e-06
7.0134645e-06
6.9654193e-06
6.9167701e-06
6.8672413e-06
6.8165445e-06
6.7648162e-06
6.7121466e-06
6.6588779e-06
6.6051814e-06
6.5508577e-06
6.4953993e-06
6.4386689e-06
6.3806838e-06
6.3217055e-06
6.2619916e-06
6.2015141e-06
6.1401029e-06
6.0776274e-06
6.0141011e-06
5.9495682e-06
5.8839883e-06
5.8173961e-06
5.7498704e-06
5.6813039e-06
5.6117646e-06
5.5410786e-06
5.4698268e-06
5.3976017e-06
5.3251987e-06
5.2519092e-06
5.1791127e-06
5.1058557e-06
5.0339088e-06
4.9619228e-06
4.8922528e-06
4.8231769e-06
4.7577216e-06
4.6936954e-06
4.6347039e-06
4.5781624e-06
4.5286046e-06
4.4832795e-06
4.4473947e-06
4.4185169e-06
4.4020886e-06
4.3955874e-06
4.3977634e-06
4.3835722e-06
4.3347167e-06
4.3883894e-06
4.5285028e-06
4.7349263e-06
4.9733686e-06
5.2405016e-06
5.53025e-06
5.8369164e-06
6.1595093e-06
6.4926401e-06
6.837301e-06
7.1902434e-06
7.5540204e-06
7.9290149e-06
8.3204053e-06
8.7458919e-06
9.2085837e-06
9.6973566e-06
1.020428e-05
1.072506e-05
1.1261833e-05
1.1808199e-05
1.2366157e-05
1.2925901e-05
1.3483912e-05
1.4030485e-05
1.4554616e-05
1.4982854e-05
1.5326842e-05
1.5622525e-05
1.5885161e-05
1.6121542e-05
1.6346822e-05
1.6566376e-05
1.6792487e-05
1.7038623e-05
1.7320073e-05
1.764424e-05
1.806988e-05
1.8561516e-05
1.9416635e-05
2.0578942e-05
2.2113736e-05
2.3005081e-05
4.4729968e-05
4.3810573e-06
4.1689426e-05
5.3964473e-06
5.2516213e-06
6.0613605e-06
7.3660291e-06
8.6531365e-06
2.9065854e-05
5.5502417e-05
6.292299e-05
6.4839544e-05
8.4300736e-05
1.4266481e-05
4.9925126e-05
8.5179306e-06
3.7044471e-05
3.3043629e-05
2.5333147e-05
6.9230438e-05
6.000255e-05
7.7049875e-05
6.1830121e-05
1.3842508e-05
3.0980065e-05
2.1599877e-05
1.1156576e-05
4.057909e-06
1.1425533e-06
3.9889252e-07
2.6656668e-07
2.0064923e-07
1.6808697e-07
1.5261318e-07
1.4320518e-07
1.3995065e-07
1.3895463e-07
1.4067787e-07
1.3910185e-07
1.3795735e-07
1.33787e-07
1.2980587e-07
1.2562513e-07
1.2322983e-07
1.2194177e-07
1.2365551e-07
1.2675002e-07
1.342883e-07
1.4422867e-07
1.5315124e-07
4.2356886e-08
1.719571e-07
4.7688482e-08
2.0049942e-07
6.1321464e-08
2.4372646e-07
8.2072639e-08
2.6624646e-07
1.4465182e-07
1.3977963e-07
3.9219211e-07
4.221146e-07
4.5732737e-07
5.0043562e-07
5.4773506e-07
2.7145658e-07
6.5520382e-07
3.4748414e-07
4.167247e-07
8.8295585e-07
8.6715168e-07
9.7166244e-07
1.0444241e-06
1.108864e-06
1.1604615e-06
1.1976625e-06
1.2143044e-06
1.2133975e-06
1.1851845e-06
1.1560205e-06
1.1426187e-06
1.2040702e-06
1.5253248e-06
1.8648858e-06
2.1718144e-06
2.3583974e-06
2.0476918e-06
2.3265992e-06
3.9240745e-06
2.9769807e-06
4.4487979e-06
3.8637896e-06
5.6645718e-06
5.4869221e-06
5.8763798e-06
6.2564151e-06
6.599134e-06
6.9245474e-06
7.2305253e-06
7.5178801e-06
7.7839578e-06
8.0289168e-06
8.2503696e-06
8.4481678e-06
8.6204883e-06
8.7674366e-06
8.8885177e-06
8.9851285e-06
9.0590286e-06
9.1137091e-06
9.153752e-06
9.1845422e-06
9.211613e-06
9.2412692e-06
9.2817187e-06
9.3347927e-06
9.4065955e-06
9.5038427e-06
9.6317604e-06
9.7914292e-06
9.9806765e-06
1.0196739e-05
1.0436784e-05
1.0697338e-05
1.0973724e-05
1.1260721e-05
1.1553768e-05
1.1847756e-05
1.2138569e-05
1.242164e-05
1.2692969e-05
1.2947384e-05
1.3181574e-05
1.3381641e-05
1.3567114e-05
1.4646795e-05
1.4435205e-05
1.4359138e-05
1.457036e-05
1.4853865e-05
1.5199755e-05
1.5838156e-05
1.4748164e-05
1.4808035e-05
1.4892957e-05
1.4947937e-05
1.4997564e-05
1.503422e-05
1.5061477e-05
1.50796e-05
1.5088775e-05
1.5089683e-05
1.5083173e-05
1.506982e-05
1.5050123e-05
1.5024221e-05
1.4992685e-05
1.4955781e-05
1.4914605e-05
1.48689e-05
1.4819334e-05
1.4765941e-05
1.4709427e-05
1.4649905e-05
1.4587194e-05
1.4521524e-05
1.4452433e-05
1.4380946e-05
1.4306588e-05
1.4230181e-05
1.4151063e-05
1.4070079e-05
1.3986991e-05
1.3902441e-05
1.3816264e-05
1.3728726e-05
1.363973e-05
1.354947e-05
1.3458133e-05
1.3365969e-05
1.3272646e-05
1.3177634e-05
1.3080381e-05
1.2981149e-05
1.2880111e-05
1.2777922e-05
1.267491e-05
1.2570694e-05
1.2464301e-05
1.2355468e-05
1.2244227e-05
1.2131079e-05
1.2016518e-05
1.1900491e-05
1.1782671e-05
1.1662808e-05
1.1540928e-05
1.1417115e-05
1.1291292e-05
1.1163524e-05
1.1033962e-05
1.0902401e-05
1.0768971e-05
1.0633337e-05
1.0496614e-05
1.0358018e-05
1.0219077e-05
1.0078428e-05
9.9387202e-06
9.7981202e-06
9.6600267e-06
9.5218482e-06
9.3881045e-06
9.2554881e-06
9.1298081e-06
9.0068551e-06
8.8935511e-06
8.78493e-06
8.6896954e-06
8.6025603e-06
8.5335224e-06
8.4778954e-06
8.4461304e-06
8.4333882e-06
8.4372947e-06
8.41038e-06
8.3183467e-06
8.4228216e-06
8.6921198e-06
9.0886844e-06
9.546765e-06
1.0059946e-05
1.0616567e-05
1.1205676e-05
1.1825372e-05
1.2465301e-05
1.3127372e-05
1.3805354e-05
1.4504166e-05
1.5224553e-05
1.5976523e-05
1.6793841e-05
1.7682254e-05
1.8620469e-05
1.9593363e-05
2.0592798e-05
2.1622781e-05
2.2671053e-05
2.3741412e-05
2.4814999e-05
2.588504e-05
2.6932906e-05
2.7936976e-05
2.8756875e-05
2.9416002e-05
2.9982978e-05
3.0486645e-05
3.0940112e-05
3.1372436e-05
3.1793858e-05
3.2228099e-05
3.2700804e-05
3.3241589e-05
3.386448e-05
3.46823e-05
3.5628214e-05
3.7271784e-05
3.950263e-05
4.2444424e-05
4.41619e-05
7.3471278e-05
9.7982775e-06
6.7403243e-05
1.2333147e-05
1.1718194e-05
1.350838e-05
1.6442018e-05
1.9300976e-05
5.8614109e-05
0.0001061757
0.00012014554
0.00012400462
0.0001396286
3.1932805e-05
8.3315113e-05
1.9106953e-05
6.1714999e-05
5.4775428e-05
4.8520689e-05
0.00010754215
0.0001046951
0.00011967187
0.00010792695
2.8196301e-05
5.4429738e-05
3.7897446e-05
1.9603753e-05
7.1449639e-06
2.0093891e-06
6.9974418e-07
4.6599352e-07
3.5063272e-07
2.9362028e-07
2.6656509e-07
2.5009762e-07
2.4440316e-07
2.4264921e-07
2.4569145e-07
2.4297458e-07
2.410172e-07
2.3376848e-07
2.2683394e-07
2.1952983e-07
2.1534091e-07
2.1283627e-07
2.1520958e-07
2.1897785e-07
2.2757584e-07
2.3664586e-07
2.4249312e-07
8.5206349e-08
2.6848596e-07
9.6773097e-08
3.1437452e-07
1.2397771e-07
3.8363847e-07
1.646658e-07
4.6448e-07
2.8179559e-07
2.7729702e-07
6.2523987e-07
6.747681e-07
7.3299647e-07
8.0443612e-07
8.8449432e-07
5.3235484e-07
1.0645155e-06
6.7697453e-07
8.0684264e-07
1.4482872e-06
1.5240947e-06
1.7015578e-06
1.8294855e-06
1.9424778e-06
2.0330156e-06
2.0983234e-06
2.1276107e-06
2.1261248e-06
2.0768072e-06
2.025789e-06
2.0025572e-06
2.1104506e-06
2.6734946e-06
3.2679762e-06
3.8080561e-06
4.1833742e-06
3.8565657e-06
4.3867609e-06
6.5480032e-06
5.6015534e-06
7.798546e-06
7.15137e-06
9.643396e-06
9.6452702e-06
1.0305227e-05
1.0950963e-05
1.1543235e-05
1.2107379e-05
1.2638676e-05
1.3138483e-05
1.36018e-05
1.4028729e-05
1.441494e-05
1.4760102e-05
1.5060976e-05
1.5317722e-05
1.552946e-05
1.5698625e-05
1.582828e-05
1.5924515e-05
1.5995303e-05
1.6050023e-05
1.609832e-05
1.6151183e-05
1.6222841e-05
1.6316509e-05
1.6442898e-05
1.6613685e-05
1.6837888e-05
1.7117325e-05
1.7448218e-05
1.7825782e-05
1.8245074e-05
1.8700024e-05
1.9182497e-05
1.9683424e-05
2.0194881e-05
2.0708011e-05
2.1215716e-05
2.1710137e-05
2.2184465e-05
2.262992e-05
2.3040715e-05
2.339166e-05
2.3659447e-05
2.4796576e-05
2.4089249e-05
2.3916933e-05
2.4264182e-05
2.4735187e-05
2.5309663e-05
2.6390498e-05
2.5822896e-05
2.5929897e-05
2.6078215e-05
2.6174251e-05
2.6260921e-05
2.6324923e-05
2.6372494e-05
2.6404095e-05
2.6420057e-05
2.6421562e-05
2.6410098e-05
2.6386671e-05
2.6352149e-05
2.6306779e-05
2.6251547e-05
2.6186932e-05
2.6114845e-05
2.6034837e-05
2.5948074e-05
2.5854616e-05
2.5755697e-05
2.5651514e-05
2.554175e-05
2.5426808e-05
2.5305883e-05
2.5180762e-05
2.5050619e-05
2.4916888e-05
2.4778416e-05
2.4636673e-05
2.4491252e-05
2.4343267e-05
2.4192435e-05
2.4039218e-05
2.3883448e-05
2.3725464e-05
2.3565594e-05
2.3404272e-05
2.3240918e-05
2.3074608e-05
2.2904375e-05
2.273068e-05
2.2553821e-05
2.2374944e-05
2.2194625e-05
2.2012195e-05
2.1825956e-05
2.1635445e-05
2.144072e-05
2.1242654e-05
2.1042112e-05
2.0838999e-05
2.0632746e-05
2.0422915e-05
2.020955e-05
1.9992799e-05
1.9772523e-05
1.954884e-05
1.9322011e-05
1.9091678e-05
1.8858066e-05
1.8620588e-05
1.8381195e-05
1.8138514e-05
1.7895218e-05
1.7648921e-05
1.7404257e-05
1.7158015e-05
1.6916146e-05
1.6674106e-05
1.6439812e-05
1.6207465e-05
1.5987239e-05
1.5771756e-05
1.5573142e-05
1.538269e-05
1.5215645e-05
1.5062736e-05
1.4941477e-05
1.4843629e-05
1.4787501e-05
1.4764626e-05
1.477089e-05
1.4724214e-05
1.4566056e-05