/*--------------------------------*- C++ -*----------------------------------*\
| =========                 |                                                 |
| \\      /  F ield         | OpenFOAM: The Open Source CFD Toolbox           |
|  \\    /   O peration     | Version:  2.4.0                                 |
|   \\  /    A nd           | Web:      www.OpenFOAM.org                      |
|    \\/     M anipulation  |                                                 |
\*---------------------------------------------------------------------------*/
FoamFile
{
    version     2.0;
    format      ascii;
    class       volScalarField;
    location    "50";
    object      omega;
}
// * * * * * * * * * * * * * * * * * * * * * * * * * * * * * * * * * * * * * //

dimensions      [0 0 -1 0 0 0 0];

internalField   nonuniform List<scalar> 
78300
(
288636.63
288686.54
288700.32
288833.65
289515.6
291432.02
295479.08
302673.01
314010.37
329813.04
346787.82
362441.63
375829.98
386411.76
393919.79
398343.7
399991.89
399060.36
395721.33
390174.45
382632.29
373308
362413.46
350675.33
339521.98
329123.31
319421.78
310364.21
301901.89
293992.53
286594.56
279672.29
273192.3
267123.9
261439.18
256109.32
250877.53
245350.68
239525.68
233441.11
227134.93
220644.17
214005.21
207254.37
200428.97
193566.99
186709.47
179903.22
173262.16
167044.3
161298.04
156019.07
151204.62
146855.25
142973.85
139564.67
136634.53
134192.24
132247.52
130811.23
129895.27
129511.99
129657.27
129783.85
129783.85
129783.85
129783.85
129783.85
129783.85
129783.85
129783.85
129783.85
129783.85
129783.85
129783.85
129783.85
129783.85
129783.85
129783.85
129783.85
129783.85
129783.85
129783.85
129783.85
129783.85
129783.85
129783.85
129783.85
129783.85
129783.85
129783.85
129783.85
129783.85
129783.85
129783.85
129783.85
129783.85
129783.85
129783.85
129783.85
129783.85
129783.85
129783.85
129783.85
129783.85
129783.85
129783.85
129783.85
129783.85
129783.85
129783.85
129783.85
129783.85
129783.85
129783.85
129783.85
129783.85
129783.85
129783.85
129783.85
129783.85
129783.85
129783.84
129783.85
129783.85
129783.85
129783.85
129783.84
129783.85
129783.85
129783.85
129783.85
129783.85
129783.85
129783.85
129783.85
129783.84
129783.85
129783.85
129783.84
129783.85
129783.85
129783.85
129783.85
129783.85
129783.84
129783.85
129783.85
129783.85
129783.85
129783.85
129783.85
129783.85
129783.85
129783.84
129783.85
129783.85
129783.85
129783.84
129783.85
129783.85
129783.84
129783.85
129783.85
129783.84
129783.85
129783.85
129783.84
129783.85
129783.85
129783.85
129783.85
129783.85
129783.85
129783.85
129783.84
129783.85
129783.85
129783.85
129783.85
129783.85
129783.85
129783.85
129783.85
129783.85
129783.85
129783.85
129783.85
129783.85
129783.85
129783.85
129783.85
129783.85
129783.85
129783.84
129783.85
129783.85
129783.84
129783.85
129783.85
129783.85
129783.85
129783.85
129783.84
129783.85
129783.85
129783.84
129657.28
129512.01
129895.29
130811.3
132247.51
134192.34
136634.64
139564.65
142973.98
146855.32
151204.67
156018.82
161297.58
167043.87
173262.26
179902.7
186708.68
193567.05
200429.57
207253.32
214004.05
220644.49
227134.65
233439.26
239524.1
245352.66
250877.67
256108.08
261440.19
267124.37
273191.43
279670.54
286594.56
293991.4
301901.42
310366.51
319421.34
329122.77
339524.25
350675.48
362412.53
373310.22
382630.09
390168.82
395719.59
399058.71
399989.89
398342.36
393921.49
386411.4
375828.67
362441.02
346789.96
329814.86
314010.09
302672.87
295478.99
291431.81
289515.62
288834.57
288701.21
288686.52
288636.62
40517.575
48835.574
40521.091
48854.038
56563.054
49321.364
49992.358
51206.596
53120.669
53539.422
56294.803
58837.539
61013.141
62733.517
63955.024
64675.662
64945.542
64796.457
64256.425
63357.797
62135.099
60622.926
58855.41
56949.85
55138.273
53420.475
51773.785
50116.75
48239.541
45942.89
42668.715
51681.471
38385.861
52107.657
36769.907
49910.008
35318.187
47757.863
38900.753
44574.656
43894.871
31205.934
30260.215
29310.221
28361.593
27416.897
36112.72
25534.248
33445.518
32191.477
23138.904
26482.858
25587.388
24855.138
24197.804
23620.721
23124.713
22711.281
22382.077
22138.961
21983.942
21919.097
21942.576
21962.325
21962.267
21976.281
22242.353
24673.378
24776.636
18623.84
24756.304
21964.754
24373.144
19650.954
22142.996
22041.305
21725.362
21520.666
21380.422
21284.603
21223.5
21182.917
21155.966
21137.153
21123.844
21114.062
21106.781
21101.218
21096.927
21093.567
21090.929
21088.855
21087.236
21085.981
21085.028
21084.352
21083.89
21083.63
21083.578
21083.749
21084.16
21084.831
21085.804
21087.155
21088.996
21091.487
21094.86
21099.482
21105.894
21114.944
21127.952
21147.062
21175.64
21218.639
21274.987
21140.408
19312.186
18690.591
18590.687
18580.255
18581.295
18583.499
18593.367
21960.853
21961.579
21961.578
21961.576
21961.574
21961.573
21961.571
21961.57
21961.569
21961.567
21961.566
21961.565
21961.564
21961.563
21961.562
21961.561
21961.56
21961.559
21961.558
21961.557
21961.557
21961.556
21961.555
21961.555
21961.554
21961.554
21961.553
21961.553
21961.552
21961.552
21961.552
21961.551
21961.552
21961.551
21961.551
21961.551
21961.551
21961.551
21961.55
21961.551
21961.55
21961.55
21961.551
21961.551
21961.55
21961.551
21961.551
21961.551
21961.551
21961.552
21961.552
21961.552
21961.552
21961.553
21961.553
21961.554
21961.554
21961.554
21961.555
21961.555
21961.556
21961.556
21961.557
21961.557
21961.558
21961.559
21961.559
21961.56
21961.561
21961.561
21961.563
21961.563
21961.564
21961.565
21961.566
21961.568
21961.569
21961.572
21961.575
21961.579
21961.583
21961.586
21961.59
21962.09
21942.397
21919.062
21983.971
22139.005
22382.115
22711.322
23124.754
23620.746
24197.896
24854.912
25591.145
26406.067
27299.602
28272.263
29324.785
30448.556
31600.098
32760.348
33921.306
35075.792
36217.762
37341.027
38438.835
39505.256
40534.393
41519.974
42454.402
43339.363
44241.762
45203.786
46230.69
47327.557
48499.543
49751.401
51090.17
52522.82
54055.446
55697.476
57458.13
59345.527
61331.131
63173.541
64748.769
66043.647
56006.862
78445.184
55799.156
78281.786
77470.901
75961.4
73836.427
71163.936
57697.117
53582.773
50991.942
49155.761
41451.457
56900.949
40655.483
56399.003
40546.896
40510.275
48830.441
10928.169
16126.499
10927.101
16130.007
23062.853
16322.894
16530.238
16930.825
17563.027
17956.712
18879.647
19732.911
20463.232
21041.032
21451.511
21693.956
21785.136
21735.756
21555.197
21254.297
20844.648
20337.867
19745.322
19106.193
18498.086
17897.411
17285.991
16578.673
15561.851
14115.117
12137.831
20917.855
10391.029
21127.843
9987.2153
20172.843
9624.5276
19258.877
13042.704
17241.61
17343.31
8600.2137
8362.4211
8110.1159
7865.2223
7644.3928
14249.229
7148.8252
13144.223
12559.574
6568.0563
8819.8396
8459.2777
8220.1087
8002.4594
7811.5873
7647.514
7510.7601
7401.8695
7321.4698
7270.2175
7248.8188
7256.382
7262.5114
7262.6621
7276.8066
7544.4123
9390.196
9464.1289
5373.0564
9429.0924
7266.9917
9039.4738
6134.397
7386.3057
7315.9928
7216.9732
7170.0164
7138.7603
7117.1898
7103.3771
7094.1904
7088.0912
7083.8376
7080.8318
7078.6253
7076.9849
7075.7331
7074.7683
7074.0135
7073.4215
7072.9557
7072.5929
7072.3113
7072.0971
7071.9454
7071.8416
7071.7831
7071.7714
7071.8099
7071.9018
7072.0516
7072.269
7072.5708
7072.9822
7073.539
7074.2935
7075.3285
7076.7651
7078.7938
7081.7101
7085.9936
7092.3929
7101.9358
7112.2819
7032.2418
5949.7619
5439.4488
5355.4992
5346.4573
5346.8289
5347.9794
5356.6921
7260.8857
7261.9717
7261.9675
7261.9627
7261.9584
7261.9542
7261.9501
7261.9462
7261.9425
7261.9387
7261.9354
7261.9319
7261.9288
7261.9255
7261.9226
7261.9199
7261.917
7261.9145
7261.912
7261.9097
7261.9074
7261.9053
7261.9031
7261.9012
7261.8993
7261.8976
7261.896
7261.8945
7261.8932
7261.8918
7261.8908
7261.8895
7261.8888
7261.8877
7261.887
7261.8861
7261.8856
7261.8849
7261.8843
7261.8838
7261.8833
7261.883
7261.883
7261.883
7261.8827
7261.8827
7261.8828
7261.8828
7261.883
7261.8834
7261.8837
7261.8841
7261.8845
7261.8851
7261.8856
7261.8862
7261.8868
7261.8876
7261.8883
7261.8891
7261.89
7261.8909
7261.892
7261.893
7261.8942
7261.8955
7261.8968
7261.8982
7261.8997
7261.9012
7261.9029
7261.9045
7261.9065
7261.9084
7261.9105
7261.9129
7261.9156
7261.9191
7261.9231
7261.9272
7261.932
7261.9363
7261.9403
7262.2335
7256.166
7248.7697
7270.2492
7321.5245
7401.9382
7510.8286
7647.578
7811.639
8002.5464
8219.8696
8463.3932
8732.9382
9028.4861
9350.1973
9698.3143
10069.941
10450.696
10834.304
11218.124
11599.813
11977.353
12348.691
12711.601
13064.123
13404.291
13730.065
14038.954
14331.528
14629.96
14948.16
15287.792
15650.576
16038.211
16452.249
16895.064
17368.863
17875.836
18418.866
19001.237
19625.481
20281.909
20890.677
21411.192
21869.526
15290.104
32643.776
14731.625
32455.646
32306.685
31636.722
30693.029
29551.627
20559.021
18019.355
17116.248
16511.175
11161.649
23134.312
10990.71
22937.735
10956.157
10912.47
16128.295
4010.4936
7411.0413
4009.5975
7410.7191
13135.455
7540.9339
7621.0956
7805.1206
8095.5203
8339.2082
8766.9819
9163.311
9502.6638
9771.3305
9962.2822
10075.18
10117.79
10095.119
10011.491
9871.9682
9681.9208
9446.7464
9171.7159
8874.9301
8592.1412
8297.3199
7975.6982
7552.7326
6854.6926
5846.4061
4649.8714
11828.188
3838.6144
11926.729
3712.8577
11331.299
3599.8034
10786.882
6053.3363
9223.2273
9454.8632
3271.386
3204.0714
3117.2032
3036.192
2982.2268
7712.7118
2805.5449
7077.9679
6685.5026
2624.9904
4100.5727
3898.2789
3789.6949
3689.2271
3601.2282
3525.5749
3462.5244
3412.3232
3375.2749
3351.6726
3341.8723
3345.358
3348.0277
3348.1732
3359.2218
3568.6573
4848.9246
4896.497
2212.8835
4863.9434
3353.4185
4552.1362
2707.9867
3427.2585
3379.5645
3334.5926
3318.114
3307.5653
3300.2324
3295.5242
3292.3908
3290.3117
3288.8633
3287.8408
3287.0911
3286.5342
3286.1097
3285.7824
3285.5264
3285.3255
3285.167
3285.0438
3284.9478
3284.8744
3284.8224
3284.7866
3284.7662
3284.7616
3284.7739
3284.8041
3284.8536
3284.9256
3285.0257
3285.1624
3285.3478
3285.5996
3285.9463
3286.4287
3287.1116
3288.0952
3289.5417
3291.7033
3294.8945
3297.4321
3249.7833
2600.9095
2256.6204
2200.7336
2194.6961
2194.848
2195.4929
2202.9986
3346.4846
3347.5935
3347.585
3347.5759
3347.5675
3347.5592
3347.5513
3347.5435
3347.536
3347.5286
3347.5217
3347.5148
3347.5083
3347.5019
3347.4958
3347.49
3347.4843
3347.4789
3347.4737
3347.4688
3347.464
3347.4595
3347.455
3347.4508
3347.4469
3347.4431
3347.4397
3347.4363
3347.4333
3347.4303
3347.4278
3347.4251
3347.4229
3347.4207
3347.4187
3347.4168
3347.4152
3347.4135
3347.412
3347.4107
3347.4095
3347.4086
3347.4079
3347.4073
3347.4068
3347.4063
3347.4059
3347.4057
3347.4058
3347.406
3347.4063
3347.4066
3347.407
3347.4076
3347.4082
3347.409
3347.4098
3347.4107
3347.4118
3347.4129
3347.4141
3347.4155
3347.417
3347.4186
3347.4203
3347.4222
3347.4241
3347.4262
3347.4284
3347.4307
3347.4332
3347.4358
3347.4386
3347.4416
3347.4448
3347.4483
3347.4523
3347.4569
3347.4621
3347.4676
3347.4737
3347.4796
3347.4847
3347.6748
3345.073
3341.8014
3351.7096
3375.3455
3412.4191
3462.6205
3525.6668
3601.3072
3689.3212
3789.5135
3901.7843
4026.0526
4162.3078
4310.6206
4471.1009
4642.3888
4817.863
4994.6421
5171.5113
5347.4017
5521.3696
5692.4742
5859.6962
6022.1351
6178.8717
6328.9677
6471.286
6606.1227
6743.706
6890.4234
7047.0241
7214.2854
7393.0002
7583.8753
7788.0552
8006.4725
8240.243
8490.5744
8759.086
9046.8618
9349.3394
9629.7183
9869.4795
10111.616
5617.8587
19191.058
5196.2028
18939.853
19075.945
18643.913
18032.489
17344.369
10383.188
8413.1683
7961.7101
7694.8337
4086.2917
13095.467
4058.9558
12994.691
4039.1191
3994.3825
7415.0579
1849.045
4091.3694
1849.1388
4088.8796
8651.1249
4200.8882
4229.9765
4331.488
4491.5775
4646.6762
4884.2132
5105.0185
5294.1824
5444.1045
5550.6989
5613.7936
5637.6868
5625.2106
5578.738
5501.1187
5395.3331
5264.3924
5111.2426
4945.903
4788.0293
4614.4939
4413.7369
4125.4605
3620.3036
2916.0228
2196.6859
7742.9313
1784.6884
7776.2558
1740.6748
7346.3188
1700.9811
6974.2929
3370.6284
5742.0752
5949.7793
1573.6359
1558.5771
1523.5199
1492.3042
1485.7649
4795.5522
1406.3217
4378.5819
4081.8855
1338.0287
2291.6216
2162.092
2102.6526
2046.8485
1998.0186
1956.0344
1921.0515
1893.2012
1872.6675
1859.6025
1854.2378
1856.2414
1857.6501
1857.7395
1865.5884
2014.7372
2874.8928
2903.6949
1168.0534
2878.6636
1863.1708
2652.5859
1475.6207
1907.8501
1876.5548
1852.5202
1845.1609
1840.6278
1837.4618
1835.4274
1834.0745
1833.1787
1832.5562
1832.1178
1831.7973
1831.5596
1831.3787
1831.2392
1831.13
1831.0442
1830.9762
1830.9232
1830.8816
1830.8496
1830.8268
1830.8108
1830.8014
1830.7987
1830.8032
1830.815
1830.8346
1830.8635
1830.9037
1830.9591
1831.0346
1831.138
1831.2817
1831.4833
1831.7708
1832.1876
1832.8036
1833.7275
1835.0787
1835.7304
1806.2619
1410.7028
1193.1425
1158.6866
1154.9689
1155.0323
1155.4025
1161.6514
1856.3278
1857.2951
1857.2809
1857.2662
1857.2523
1857.2387
1857.2255
1857.2125
1857.2
1857.1877
1857.176
1857.1646
1857.1535
1857.1427
1857.1324
1857.1225
1857.1129
1857.1037
1857.0948
1857.0863
1857.0782
1857.0703
1857.0627
1857.0555
1857.0487
1857.0422
1857.0361
1857.0302
1857.0249
1857.0197
1857.015
1857.0105
1857.0063
1857.0023
1856.9987
1856.9953
1856.9922
1856.9892
1856.9865
1856.984
1856.9818
1856.9799
1856.9783
1856.977
1856.9757
1856.9746
1856.9737
1856.9731
1856.9728
1856.9727
1856.9728
1856.973
1856.9733
1856.9739
1856.9746
1856.9754
1856.9764
1856.9776
1856.9788
1856.9803
1856.9819
1856.9837
1856.9857
1856.9878
1856.9901
1856.9926
1856.9953
1856.9981
1857.0011
1857.0043
1857.0076
1857.0112
1857.0149
1857.0191
1857.0234
1857.0282
1857.0334
1857.0394
1857.0458
1857.0528
1857.0604
1857.0679
1857.0742
1857.2103
1855.8774
1854.139
1859.6406
1872.7509
1893.3187
1921.1705
1956.1494
1998.1148
2046.9456
2102.5325
2164.8188
2233.7614
2309.3526
2391.6313
2480.6567
2575.6626
2672.9756
2771.0059
2869.0847
2966.6205
3063.0846
3157.9606
3250.6832
3340.7543
3427.6652
3510.8921
3589.8144
3664.6114
3740.9568
3822.3826
3909.2871
4002.108
4101.28
4207.1884
4320.5062
4441.6931
4571.4358
4710.3294
4859.3436
5019.008
5186.7401
5342.1315
5475.017
5636.2
2531.7656
13097.885
2272.4538
12799.291
13098.079
12773.885
12310.801
11834.704
6318.917
4726.0213
4448.0602
4313.2856
1880.6089
8539.9154
1898.4425
8490.8161
1878.5852
1834.6923
4096.2183
1044.6401
2530.0111
1045.3889
2524.4717
6066.4036
2631.0741
2633.957
2696.4919
2795.0733
2899.0137
3046.3637
3184.0348
3302.0677
3395.772
3462.4123
3501.9111
3516.9191
3509.2463
3480.3327
3431.9899
3366.0614
3284.4334
3188.9611
3085.8398
2987.1212
2873.8495
2737.2537
2530.5885
2161.7693
1673.0332
1240.9752
5403.4232
1015.9728
5399.2117
998.86889
5072.0844
983.3118
4804.1305
2101.8194
3850.6979
4000.6006
921.64074
923.73661
907.37167
893.39874
900.40356
3178.4645
855.93331
2889.4088
2659.7137
822.34473
1432.4032
1344.8275
1308.1671
1273.4196
1243.0325
1216.9035
1195.1396
1177.8164
1165.0655
1156.9703
1153.7108
1155.0612
1155.9061
1155.9413
1161.2473
1262.2151
1827.7075
1844.1111
737.90426
1826.5576
1161.0804
1671.4229
923.82574
1187.539
1167.4794
1153.6192
1149.8227
1147.5585
1145.9745
1144.9589
1144.2863
1143.8436
1143.5382
1143.3246
1143.1696
1143.0553
1142.9687
1142.9021
1142.8498
1142.8086
1142.7756
1142.7497
1142.7291
1142.7129
1142.7011
1142.6925
1142.687
1142.6847
1142.6856
1142.6899
1142.6975
1142.7089
1142.7253
1142.7484
1142.7807
1142.8259
1142.8903
1142.9829
1143.1179
1143.3173
1143.6162
1144.0692
1144.7285
1144.8426
1126.1535
883.37426
750.8161
730.4323
728.23344
728.25465
728.46556
733.4935
1154.858
1155.6247
1155.6033
1155.5817
1155.5612
1155.5409
1155.5213
1155.502
1155.4834
1155.4651
1155.4475
1155.4304
1155.4138
1155.3977
1155.3821
1155.3673
1155.3528
1155.3389
1155.3255
1155.3127
1155.3003
1155.2884
1155.277
1155.266
1155.2557
1155.2458
1155.2365
1155.2276
1155.2193
1155.2114
1155.2041
1155.1971
1155.1907
1155.1846
1155.1789
1155.1736
1155.1687
1155.1641
1155.1598
1155.1558
1155.1523
1155.1493
1155.1467
1155.1443
1155.1423
1155.1404
1155.1388
1155.1376
1155.1369
1155.1364
1155.1363
1155.1362
1155.1365
1155.1369
1155.1377
1155.1386
1155.1397
1155.1411
1155.1427
1155.1444
1155.1464
1155.1487
1155.1512
1155.1539
1155.1569
1155.1601
1155.1635
1155.1671
1155.1709
1155.175
1155.1792
1155.1839
1155.1886
1155.1939
1155.1994
1155.2056
1155.212
1155.2194
1155.2271
1155.2358
1155.2449
1155.2541
1155.2616
1155.3658
1154.6085
1153.5753
1157.0014
1165.1546
1177.9482
1195.2735
1217.0323
1243.1373
1273.5129
1308.0909
1346.8355
1389.7206
1436.7403
1487.9185
1543.2907
1602.3725
1662.8788
1723.8279
1784.8071
1845.4471
1905.4194
1964.4053
2022.0521
2078.0513
2132.0872
2183.8358
2232.9172
2279.4571
2326.9773
2377.6599
2431.7508
2489.526
2551.2504
2617.1622
2687.6995
2763.1095
2843.87
2930.3048
3023.0566
3122.4078
3226.7197
3323.2926
3405.8796
3527.4716
1363.7237
9509.1282
1219.1781
9189.2811
9577.5972
9321.5859
8950.4645
8605.306
4266.5625
2979.9152
2786.2949
2714.276
1063.4282
5914.3443
1095.2752
5898.5611
1074.5452
1032.5817
2534.816
703.27085
1689.188
704.32999
1679.5026
4373.0366
1785.7362
1772.0921
1813.4134
1878.5968
1951.3381
2049.647
2142.1889
2221.617
2284.8272
2329.7858
2356.4792
2366.655
2361.5752
2342.1682
2309.6893
2265.3629
2210.4649
2146.2661
2076.8872
2010.2874
1931.6018
1834.3369
1683.2109
1414.4697
1077.0685
817.80185
3880.7738
686.8961
3856.807
678.8928
3604.2982
671.47319
3407.6548
1414.4937
2685.3754
2780.6083
632.42718
639.53112
630.3642
622.66103
632.16067
2177.1863
601.77987
1972.3451
1795.6813
578.8177
963.98301
903.27815
878.73074
855.37604
834.95594
817.39626
802.77811
791.14648
782.60672
777.20421
775.09759
776.12899
776.68981
776.68604
780.16532
846.33228
1211.945
1220.6459
526.22469
1208.9591
781.27572
1106.0898
635.37488
796.52233
783.91039
775.61686
773.47526
772.2297
771.36064
770.80771
770.44553
770.21062
770.05135
769.94202
769.86419
769.80773
769.76551
769.73314
769.70763
769.6873
769.67059
769.65713
769.64596
769.63677
769.62966
769.62393
769.61959
769.6167
769.61521
769.61503
769.61599
769.61827
769.62231
769.62899
769.63957
769.65618
769.68223
769.72294
769.78619
769.88441
770.03732
770.27545
770.62399
770.57919
758.5748
609.88118
531.85193
520.28269
519.02895
519.02554
519.13694
523.00674
775.9149
776.47851
776.44878
776.41936
776.39105
776.3632
776.33616
776.30959
776.28381
776.25864
776.23428
776.21059
776.18756
776.16529
776.14374
776.12309
776.10299
776.08371
776.06509
776.04727
776.03009
776.01353
775.99765
775.9824
775.96801
775.95421
775.94127
775.92881
775.91723
775.90616
775.89593
775.88614
775.87707
775.86844
775.86048
775.853
775.84608
775.83956
775.83346
775.82792
775.82294
775.81855
775.81475
775.81136
775.80833
775.80555
775.80326
775.80144
775.80021
775.79935
775.79887
775.79861
775.79872
775.79913
775.79988
775.80089
775.80222
775.80385
775.80572
775.80787
775.81033
775.81315
775.81621
775.81959
775.82318
775.82717
775.8313
775.83583
775.84045
775.84554
775.85071
775.85646
775.86225
775.86879
775.8754
775.88293
775.89063
775.89949
775.90862
775.91894
775.92964
775.94056
775.94929
776.03292
775.57516
774.91383
777.21796
782.69089
791.28145
802.91557
817.5269
835.05734
855.45507
878.6752
904.69276
933.49061
965.06403
999.42927
1036.6087
1076.2713
1116.8829
1157.7895
1198.7176
1239.4159
1279.6669
1319.2574
1357.9479
1395.5362
1431.8101
1466.553
1499.5133
1530.7885
1562.7365
1596.8112
1633.1768
1672.0182
1713.5133
1757.8202
1805.2441
1855.9308
1910.2282
1968.3266
2030.6814
2097.4535
2167.5127
2232.3226
2287.8019
2385.5906
865.93164
7074.1775
794.0017
6757.1684
7182.4629
6978.4703
6676.1372
6423.7916
3059.3844
2031.3633
1886.3733
1847.6233
719.26352
4204.1703
754.97374
4210.0575
733.71457
693.49554
1693.6858
539.68164
1192.5423
540.81908
1179.2081
3194.6973
1282.9334
1260.2562
1288.8109
1333.9638
1386.5532
1455.5076
1521.1085
1577.5017
1622.5332
1654.5611
1673.6171
1680.9045
1677.3641
1663.6139
1640.5829
1609.1241
1570.1506
1524.5902
1475.3258
1427.9088
1371.0306
1299.9817
1188.6465
993.82233
762.01214
607.61077
2826.0041
527.15969
2793.5082
521.91954
2598.6651
516.94376
2453.5699
1005.2787
1916.0904
1969.8422
485.62263
493.1477
486.74426
481.22197
489.40587
1522.0837
465.36123
1375.5178
1241.62
445.05949
683.44055
640.77533
623.33204
606.75745
592.26402
579.80041
569.43288
561.1877
555.15676
551.3623
549.95534
550.82503
551.2335
551.20659
553.44572
595.84069
829.21457
833.41004
404.27735
825.84104
555.1555
759.09527
465.77463
563.63482
555.84851
550.80066
549.52379
548.79635
548.29352
547.97925
547.77837
547.65239
547.57043
547.51673
547.48041
547.45522
547.43702
547.42318
547.41204
547.40276
547.39448
547.38722
547.38051
547.37435
547.36887
547.36373
547.35897
547.35463
547.35061
547.34672
547.34264
547.33837
547.33401
547.33
547.32695
547.32613
547.32954
547.34048
547.36368
547.4068
547.48175
547.607
547.79592
547.70959
539.97269
449.75903
405.8346
399.6582
398.97726
398.95598
398.99917
401.79624
550.69749
551.08231
551.04323
551.00502
550.9681
550.9318
550.8965
550.86185
550.82818
550.79533
550.7635
550.73256
550.70247
550.67338
550.64522
550.61819
550.59193
550.56671
550.54236
550.51905
550.49658
550.47495
550.4542
550.43428
550.41546
550.39743
550.38047
550.36419
550.349
550.33452
550.32109
550.30827
550.29637
550.28508
550.27462
550.26483
550.25575
550.24722
550.23925
550.23202
550.22549
550.21971
550.21468
550.2102
550.20618
550.20254
550.19952
550.1971
550.19539
550.19418
550.19344
550.19302
550.19306
550.1935
550.19435
550.19556
550.19717
550.19915
550.20144
550.20408
550.20709
550.21055
550.21428
550.21843
550.22281
550.22769
550.23271
550.23822
550.24381
550.24999
550.2562
550.26314
550.27007
550.27789
550.28574
550.2947
550.30375
550.31416
550.32476
550.3368
550.34912
550.36176
550.37175
550.44118
550.15462
549.70864
551.34503
555.22307
561.31284
569.56067
579.91943
592.34853
606.80992
623.27265
641.71834
662.13549
684.51961
708.88277
735.23957
763.35035
792.12814
821.11398
850.11675
878.95588
907.47813
935.53396
962.95286
989.59495
1015.3099
1039.9455
1063.3249
1085.5304
1108.2274
1132.4331
1158.265
1185.8554
1215.3305
1246.8018
1280.4912
1316.4907
1355.0645
1396.3288
1440.6198
1488.035
1537.7466
1583.6919
1623.1846
1704.0901
631.85235
5307.3195
605.00263
5011.028
5435.5119
5274.3998
5027.8068
4844.9927
2275.1615
1464.204
1350.963
1330.9808
556.29227
3026.5263
592.17351
3044.4384
570.78889
532.15518
1196.7181
450.29395
879.07509
451.34745
864.2809
2350.4857
961.43062
934.56754
954.83342
987.03288
1025.9246
1076.0164
1124.371
1166.0323
1199.4527
1223.2177
1237.3936
1242.8309
1240.2705
1230.1266
1213.1244
1189.8777
1161.069
1127.4119
1090.9964
1055.8644
1013.6174
960.90442
878.70337
738.35579
580.10071
490.07486
2074.0688
438.322
2039.7621
433.48181
1890.2683
428.83195
1783.1468
744.15729
1388.6608
1414.4969
399.92857
406.10535
400.65966
395.72699
401.38175
1081.276
380.63046
975.80309
875.86718
360.51263
503.72302
473.42604
460.46767
448.21785
437.50333
428.28932
420.63335
414.54943
410.12276
407.36051
406.41317
407.20385
407.52941
407.49266
408.92312
435.67109
583.26005
584.98172
324.0631
580.12061
410.8183
537.36683
356.56516
415.3177
410.60028
407.51128
406.72576
406.28794
405.99145
405.81287
405.70463
405.64195
405.60539
405.58471
405.57316
405.56668
405.56279
405.55985
405.55695
405.55376
405.54985
405.54546
405.54044
405.53499
405.52927
405.52315
405.5167
405.50996
405.50277
405.49487
405.48587
405.47561
405.46399
405.4512
405.4375
405.42363
405.41088
405.40147
405.39846
405.40684
405.43428
405.49265
405.58979
405.49812
400.5314
346.66762
323.54405
320.58531
320.24114
320.20433
320.19564
322.03529
407.18016
407.41949
407.37033
407.32265
407.27645
407.23107
407.1869
407.1436
407.1015
407.06045
407.02065
406.98197
406.94439
406.90805
406.87287
406.83909
406.8063
406.77481
406.74442
406.71531
406.68728
406.66031
406.63446
406.60966
406.5862
406.56375
406.54261
406.52237
406.50344
406.48544
406.46869
406.45277
406.43795
406.42395
406.41096
406.39882
406.38757
406.37702
406.36719
406.35829
406.35024
406.34312
406.33691
406.33139
406.32647
406.32205
406.31838
406.31545
406.31337
406.31192
406.31105
406.31059
406.31069
406.31128
406.31239
406.31394
406.31596
406.31844
406.3213
406.32459
406.32831
406.33257
406.33714
406.34221
406.34753
406.35345
406.35951
406.36616
406.37286
406.38027
406.38767
406.39592
406.4041
406.41334
406.42253
406.43301
406.44349
406.45554
406.46769
406.4815
406.49547
406.50983
406.52106
406.58022
406.39838
406.08569
407.29577
410.15568
414.64927
420.73608
428.38109
437.55496
448.22848
460.37966
473.9941
489.06406
505.58539
523.56728
543.01927
563.76042
584.9895
606.37211
627.7682
649.04387
670.08604
690.78639
711.01915
730.68282
749.66695
767.86161
785.13642
801.56667
818.37357
836.29216
855.41546
875.84117
897.66185
920.96074
945.90292
972.55166
1001.1112
1031.6572
1064.445
1099.5336
1136.2906
1170.2267
1199.5769
1267.3089
510.46884
3988.8304
511.73876
3724.4441
4122.0894
3997.1098
3797.8304
3667.1019
1732.0524
1100.3859
1009.5722
1000.641
468.75309
2196.8172
503.06712
2219.4158
481.97831
445.07749
883.04935
393.80245
671.13774
394.64136
656.34303
1738.8003
744.15233
716.27041
730.82606
754.1265
783.28077
820.56765
857.27551
889.00425
914.60876
932.80962
943.69994
947.88899
945.98605
938.26449
925.31623
907.59249
885.62118
859.97572
832.21088
805.37436
773.36139
733.83127
673.13198
572.74047
465.71766
415.51488
1531.3112
380.99342
1498.8771
375.69957
1384.9865
370.61955
1305.941
568.46949
1019.2575
1028.0321
342.38551
346.62026
341.41087
336.47967
339.43666
779.97853
320.78049
703.64001
630.04872
300.39279
382.65989
360.92825
350.96619
341.62397
333.45021
326.42125
320.58964
315.96094
312.61746
310.55619
309.93102
310.68983
310.97222
310.93599
311.85756
328.58769
421.38408
421.85674
265.85577
418.69955
313.71688
391.46963
281.21941
315.9559
313.15737
311.2725
310.78409
310.52055
310.34927
310.25388
310.20308
310.18011
310.17229
310.17262
310.17684
310.18216
310.1871
310.19063
310.19232
310.19218
310.19004
310.18631
310.18106
310.17462
310.16718
310.15875
310.14941
310.1392
310.12792
310.11526
310.10073
310.08409
310.06512
310.04383
310.02026
309.99488
309.96855
309.9429
309.91997
309.90328
309.89799
309.91211
309.9508
309.86286
306.70793
275.27264
264.43176
263.32145
263.16584
263.114
263.06182
264.08737
310.74783
310.87483
310.81521
310.75761
310.70172
310.64688
310.59349
310.54121
310.49037
310.44085
310.39282
310.34619
310.30089
310.25711
310.21475
310.17406
310.13461
310.09673
310.0602
310.0252
309.99153
309.95916
309.92814
309.89843
309.8703
309.84344
309.81811
309.79392
309.77128
309.74979
309.72977
309.7108
309.69312
309.67647
309.66103
309.64664
309.6333
309.62084
309.60926
309.59881
309.58936
309.58103
309.57377
309.56737
309.56169
309.55664
309.55247
309.54921
309.54693
309.54541
309.54458
309.54426
309.54459
309.54554
309.54708
309.54915
309.55178
309.55495
309.55857
309.56269
309.56731
309.57255
309.57815
309.58432
309.59078
309.59791
309.60519
309.61314
309.62113
309.62992
309.63866
309.64837
309.65795
309.66873
309.67938
309.6915
309.70351
309.7173
309.73106
309.74669
309.76233
309.7784
309.79084
309.84228
309.72781
309.50172
310.42451
312.59855
316.01742
320.64953
326.46783
333.45068
341.57491
350.8246
361.1879
372.65963
385.23594
398.92402
413.73011
429.51304
445.66384
461.9323
478.2117
494.40015
510.41193
526.16625
541.56741
556.54018
571.00075
584.86775
598.04149
610.59572
623.45179
637.14961
651.77
667.38731
684.07127
701.88569
720.95738
741.33292
763.17108
786.52559
811.59346
838.40984
866.47462
892.35112
914.92684
971.73436
440.00903
2996.0743
458.79555
2768.957
3124.0001
3029.2554
2870.1697
2777.9588
1340.2782
853.63127
780.42686
777.73171
414.48019
1607.5903
446.18286
1630.0256
425.80943
391.03058
675.10348
352.60695
527.73505
353.11081
513.8552
1294.0201
590.75022
563.95037
574.38462
591.25437
613.20118
641.40104
669.90294
694.65118
714.77379
729.07108
737.65701
740.96848
739.5254
733.49896
723.39083
709.53695
692.35729
672.33079
650.63503
629.63658
604.98867
575.08748
530.27763
459.00926
387.62163
362.01894
1137.5905
338.34254
1108.7586
332.36679
1022.5653
326.66714
964.22396
445.22042
757.1772
756.56271
298.75599
301.00178
295.7897
290.70602
291.25304
571.83569
274.24609
516.15615
462.54016
253.87318
297.87727
282.08569
274.22911
266.92393
260.53107
255.03396
250.48239
246.87595
244.29639
242.73356
242.34711
243.10248
243.36589
243.33796
243.95142
254.40684
312.63187
312.5492
220.88052
310.435
245.67773
293.08115
226.53596
246.69432
245.07641
243.9385
243.63848
243.48599
243.39509
243.3536
243.34029
243.34341
243.3545
243.3686
243.38295
243.3956
243.40572
243.41265
243.41632
243.41697
243.41461
243.40978
243.40272
243.39384
243.38335
243.37134
243.35792
243.34311
243.32667
243.30821
243.2872
243.26333
243.23628
243.20598
243.17229
243.13558
243.09645
243.05617
243.01622
242.97921
242.9487
242.93045
242.92823
242.8441
240.87464
223.08886
219.18507
219.07302
219.01438
218.9474
218.85609
219.22682
243.19847
243.24201
243.17187
243.1042
243.03849
242.9741
242.91142
242.85011
242.79052
242.73251
242.67628
242.62173
242.56877
242.51762
242.46816
242.42064
242.37464
242.33046
242.28791
242.24715
242.20797
242.17034
242.13432
242.09985
242.06722
242.0361
242.00677
241.9788
241.95262
241.92783
241.90473
241.8829
241.86257
241.84347
241.82577
241.80932
241.7941
241.77994
241.76681
241.75503
241.7444
241.73507
241.72698
241.71991
241.71369
241.70822
241.70379
241.7004
241.69814
241.69678
241.69621
241.69625
241.69705
241.69855
241.70075
241.70356
241.70702
241.7111
241.71569
241.72086
241.72659
241.73302
241.73985
241.74732
241.7551
241.76365
241.77234
241.78177
241.79122
241.80157
241.81181
241.82314
241.83427
241.84672
241.85895
241.87282
241.88647
241.90207
241.91752
241.93502
241.95233
241.97008
241.98368
242.02917
241.95973
241.79192
242.51255
244.20454
246.8686
250.47929
255.01522
260.46024
266.79528
274.00889
282.09087
291.03788
300.84628
311.52187
323.06861
335.37349
347.96242
360.64429
373.33518
385.95625
398.44108
410.72824
422.74278
434.4284
445.72011
456.55666
466.85779
476.70177
486.79849
497.54341
509.0146
521.26956
534.36204
548.34249
563.31005