/*--------------------------------*- C++ -*----------------------------------*\
| =========                 |                                                 |
| \\      /  F ield         | OpenFOAM: The Open Source CFD Toolbox           |
|  \\    /   O peration     | Version:  2.4.0                                 |
|   \\  /    A nd           | Web:      www.OpenFOAM.org                      |
|    \\/     M anipulation  |                                                 |
\*---------------------------------------------------------------------------*/
FoamFile
{
    version     2.0;
    format      ascii;
    class       volScalarField;
    location    "350";
    object      f;
}
// * * * * * * * * * * * * * * * * * * * * * * * * * * * * * * * * * * * * * //

dimensions      [0 0 -1 0 0 0 0];

internalField   nonuniform List<scalar> 
32000
(
0.19451648
0.067549519
0.13568312
0.05045624
0.031156061
0.0035538804
0.0065084784
0.0037893962
0.0039946461
0.0027547773
0.0024038712
0.0020702575
0.0018425628
0.0015910662
0.0013626843
0.0011681111
0.00099005516
0.00083269536
0.00069607691
0.00057291791
0.0004559803
0.00034339453
0.00022698598
0.00010707101
0.00015966574
0.0002781291
0.00038507739
0.00047674769
0.00054404231
0.00058286156
0.00058871209
0.00056059116
0.00050286541
0.00042577906
0.00034562284
0.00028010351
0.00023701611
0.00021324504
0.00020605082
0.00021404894
0.00023532327
0.0002684354
0.00031248019
0.00036690487
0.00043349661
0.0005138871
0.00063402906
0.00077437141
0.00089367179
0.0010017363
0.0010908236
0.0011543902
0.0011835504
0.001170481
0.0011077496
0.00098947964
0.00081556486
0.00059452483
0.00034420134
0.00010360202
0.00033069834
0.00053666935
0.00073391699
0.00091612891
0.001077977
0.0012144313
0.0013214111
0.0013940261
0.0014319586
0.0014392529
0.0014222106
0.0013888297
0.0013482854
0.0013097297
0.0012797732
0.001260548
0.0012497327
0.0012418749
0.0012296621
0.0012046828
0.0011585857
0.0010831654
0.00097019265
0.00081196923
0.00060096171
0.00033168483
0.00020270439
0.00059220794
0.0010372289
0.0015199086
0.0020097368
0.0024584127
0.0028020011
0.0029695871
0.0029052923
0.0025855637
0.0020341322
0.0013335356
0.00058915887
0.00034882097
0.00089462969
0.0012434188
0.0013964456
0.0013562542
0.0010665226
0.0004734108
0.0005724644
0.0014998519
0.002520075
0.0036675007
0.0049736378
0.0064303745
0.0079721345
0.0094748091
0.010762447
0.01162861
0.011880142
0.01142007
0.010219971
0.0084363135
0.0063686019
0.0043760068
0.0027679448
0.0016917237
0.0011267145
0.00097866128
0.00085806399
0.00060286975
0.00065279567
0.0012894473
0.0022189532
0.0030385768
0.0035836793
0.003882365
0.0040345963
0.0041313326
0.0042391436
0.0044062207
0.0046306908
0.0048338178
0.0048762862
0.0045774866
0.003769695
0.002442118
0.00079465479
0.001183719
0.0029721343
0.0047223321
0.0063937231
0.0079519489
0.0093893909
0.010535373
0.011297724
0.0098839998
0.0076141822
0.0067121104
0.0060573412
0.0056874983
0.0055069459
0.0054600997
0.0055211367
0.0056924433
0.0059476938
0.0062739366
0.0066919926
0.0072823406
0.0080180489
0.0088103012
0.0096235189
0.010426414
0.011191436
0.011895197
0.012517108
0.012987097
0.013212576
0.013166722
0.012917791
0.012528792
0.011990217
0.011324019
0.010542919
0.0096489514
0.0086452025
0.0075478954
0.0062906362
0.004774513
0.0026671247
0.00056204504
0.0041019176
0.008524604
0.014411264
0.020491634
0.030509092
0.026954837
0.045451882
0.032260694
0.065051903
0.067083195
0.14747878
0.06838811
0.44140321
0.14509366
0.28203147
0.095897178
0.061127188
0.0092478904
0.010852238
0.0051726663
0.0051304483
0.0034595206
0.0029640852
0.0025043613
0.0022014159
0.0018945416
0.0016266347
0.0014024399
0.001202805
0.0010299104
0.00088141748
0.00074846668
0.00062305752
0.00050290864
0.00037977557
0.00025396531
0.00029762407
0.00040801515
0.00050814464
0.00059349761
0.00065534357
0.0006896802
0.00069206669
0.00066143031
0.00060193317
0.0005234917
0.00044202767
0.00037503367
0.00033037634
0.00030497155
0.0002959982
0.00030215504
0.00032177424
0.00035365469
0.00039710546
0.00045180282
0.00051986638
0.00060365478
0.00073065084
0.00087921964
0.0010048348
0.001118124
0.0012119625
0.0012801773
0.0013141474
0.0013062615
0.001249303
0.0011376507
0.00097135632
0.00075894815
0.00051835397
0.0002901088
0.00051663438
0.00072411771
0.00092179086
0.001103293
0.0012635451
0.0013978572
0.0015024612
0.0015728396
0.0016089373
0.0016149373
0.001597196
0.001563729
0.0015236882
0.001486135
0.0014575323
0.0014398521
0.0014306327
0.0014243103
0.0014134951
0.0013897362
0.0013446685
0.0012701084
0.001157912
0.0010005567
0.00079093964
0.00052545309
0.00039989716
0.00078115968
0.001220694
0.0016982253
0.002183255
0.0026280112
0.002969393
0.0031375422
0.003077485
0.0027661934
0.0022274539
0.0015430059
0.00081949321
0.00059163628
0.0011298296
0.001476298
0.0016246829
0.0015768218
0.0012802561
0.00069163159
0.00078299948
0.0016894995
0.0026961758
0.0038317159
0.0051260181
0.006570402
0.0080995565
0.0095903066
0.010868295
0.011729283
0.011982625
0.011532441
0.01035211
0.0085969393
0.006562877
0.0046035243
0.0030218424
0.0019604036
0.0013977135
0.0012410997
0.0011103295
0.00084782571
0.00088681092
0.0015060912
0.002418923
0.0032285457
0.0037703354
0.004070039
0.004225493
0.0043265915
0.0044391724
0.0046099548
0.0048352014
0.005034788
0.0050691278
0.0047601095
0.0039457117
0.0026204054
0.00099475921
0.001363271
0.0031129611
0.0048387742
0.0064900432
0.008030561
0.0094501207
0.010579608
0.011317654
0.009924697
0.0076901589
0.0067862604
0.0061348509
0.0057664809
0.0055869246
0.0055409495
0.0056028677
0.0057745237
0.0060300126
0.0063568262
0.0067760892
0.0073662521
0.0081002236
0.0088905621
0.0097017736
0.010502691
0.011265847
0.011967871
0.01258758
0.013055123
0.013279214
0.013234077
0.012987224
0.012600612
0.012065274
0.011403037
0.010626604
0.0097382368
0.0087415008
0.0076524019
0.0064059805
0.0049024688
0.0028294026
0.00082109648
0.0043761807
0.0088284771
0.014759937
0.02089679
0.031008597
0.027665145
0.047580987
0.035028783
0.089285686
0.10953448
0.30512709
0.15435696
0.65445407
0.2163175
0.39859825
0.13405154
0.086272103
0.015186915
0.015095747
0.0066409886
0.0062851278
0.0041881266
0.0035382008
0.0029503454
0.0025696233
0.0022059766
0.0018974257
0.0016427688
0.0014208819
0.0012318922
0.0010710647
0.00092794414
0.00079374594
0.00066576005
0.00053567382
0.00040378408
0.00043824517
0.00054032797
0.00063349759
0.00071245266
0.00076880707
0.00079865017
0.00079759484
0.00076449694
0.00070330514
0.00062359131
0.00054088436
0.00047243994
0.00042619075
0.0003990969
0.00038826202
0.00039247242
0.00041031906
0.00044084825
0.00048358823
0.00053844684
0.00060787056
0.00069493765
0.00082849855
0.00098491804
0.0011166291
0.0012349514
0.0013333851
0.0014061267
0.0014448283
0.0014420959
0.0013909371
0.0012859959
0.0011274877
0.00092394857
0.00069339201
0.00047782076
0.00070372309
0.00091263008
0.0011105909
0.001291188
0.0014496053
0.001581512
0.0016834707
0.001751356
0.0017853903
0.0017899036
0.0017713104
0.0017376453
0.0016980357
0.0016614486
0.0016341918
0.0016180675
0.0016104645
0.0016057003
0.0015963021
0.0015737757
0.0015297407
0.0014560355
0.0013446059
0.0011881145
0.00097991364
0.00071830762
0.00059619446
0.00096889754
0.0014026408
0.0018747474
0.0023547314
0.002795375
0.003134452
0.0033032105
0.0032476252
0.0029452184
0.0024198319
0.0017523785
0.001050696
0.00083593716
0.0013664743
0.0017105295
0.0018540258
0.0017980754
0.0014942825
0.00091002187
0.0009932323
0.0018779763
0.002870402
0.0039934578
0.0052753431
0.0067067673
0.0082226803
0.0097008797
0.010968694
0.011824229
0.01207952
0.011639878
0.010480527
0.0087554971
0.0067569601
0.0048326728
0.0032788515
0.0022330926
0.0016729527
0.0015074935
0.0013660829
0.0010957587
0.0011231745
0.0017243235
0.0026198108
0.0034190582
0.0039574733
0.0042583589
0.0044173372
0.0045231851
0.0046409672
0.0048158558
0.0050421461
0.0052382312
0.0052642228
0.0049446293
0.0041234082
0.0028005681
0.0011973756
0.0015447235
0.0032543282
0.0049547272
0.0065850673
0.0081071716
0.009508162
0.010620549
0.011333873
0.0099633665
0.0077663378
0.0068612793
0.0062136558
0.0058470231
0.0056686338
0.0056236507
0.0056865358
0.0058585828
0.0061143326
0.0064417397
0.0068622149
0.0074520948
0.0081841312
0.0089723194
0.009781262
0.010579919
0.011340913
0.012040881
0.012658033
0.013122778
0.013345226
0.013300692
0.013055898
0.012671674
0.012139616
0.011481407
0.010709718
0.0098270416
0.0088374035
0.0077565211
0.0065207945
0.0050297855
0.0029919493
0.0010826653
0.004651755
0.0091327104
0.0151048
0.021299849
0.0314801
0.028401724
0.049494596
0.037862957
0.10883042
0.14388909
0.43061772
0.23425165
0.84838087
0.28312218
0.49577482
0.16647685
0.10749283
0.021335177
0.019250339
0.0081967431
0.0074595346
0.0049410274
0.0041262191
0.0034081105
0.002947012
0.0025251782
0.002174859
0.0018889022
0.0016440931
0.0014384476
0.0012648237
0.0011111548
0.00096785125
0.00083175702
0.00069449336
0.00055634601
0.00058134504
0.00067487445
0.00076093936
0.00083341871
0.00088424567
0.00090959456
0.0009051333
0.00086964485
0.00080685501
0.00072597248
0.00064210714
0.00057225196
0.00052439856
0.00049556487
0.00048278694
0.0004849434
0.00050089525
0.00052994689
0.00057185088
0.000626749
0.00069740774
0.00078761405
0.00092741186
0.0010912611
0.0012288164
0.0013519549
0.0014548064
0.0015319355
0.0015752753
0.0015776549
0.0015323145
0.001434173
0.0012836158
0.0010891858
0.00086898105
0.00066639892
0.0008916331
0.0011018684
0.0012999702
0.0014794553
0.0016357859
0.0017650099
0.0018640401
0.0019291629
0.0019608939
0.0019637188
0.0019441128
0.0019101309
0.0018708752
0.0018352141
0.0018092921
0.0017947326
0.0017887654
0.0017855817
0.0017776198
0.0017563382
0.0017133394
0.0016404842
0.0015298128
0.0013741824
0.0011674261
0.00090979037
0.00079113034
0.0011549573
0.0015825956
0.002048992
0.0025236744
0.0029600045
0.0032966723
0.0034660824
0.0034152053
0.0031221405
0.0026107866
0.0019612016
0.0012823397
0.001081319
0.0016041952
0.0019457547
0.0020841192
0.0020196578
0.0017082431
0.0011282018
0.0012027671
0.0020648757
0.0030423215
0.0041522742
0.0054211438
0.0068389846
0.0083410028
0.0098060059
0.011063101
0.011912887
0.012170248
0.011741796
0.010604649
0.0089114534
0.0069503788
0.0050630565
0.0035386577
0.0025095491
0.0019522366
0.0017776618
0.0016251339
0.0013464597
0.0013616621
0.0019439017
0.0028213486
0.0036098201
0.0041447828
0.0044470113
0.004609824
0.0047208262
0.0048442634
0.0050236811
0.0052512959
0.0054439167
0.0054613234
0.0051307747
0.0043024983
0.0029823243
0.0014021996
0.0017277836
0.0033959383
0.0050698593
0.0066784333
0.0081813899
0.0095631015
0.010657769
0.011346016
0.009999684
0.0078424446
0.0069369618
0.0062935669
0.0059289383
0.0057518774
0.0057079886
0.0057718986
0.0059443415
0.0062003298
0.0065282983
0.0069499215
0.0075393318
0.0082691313
0.0090548206
0.0098611146
0.010657112
0.011415535
0.012113027
0.01272718
0.013188713
0.013409233
0.013365188
0.013122444
0.012740636
0.012211937
0.011557865
0.010791048
0.0099142039
0.0089318036
0.0078592026
0.0066340965
0.0051556034
0.0031541404
0.0013461914
0.0049277555
0.0094360513
0.015444242
0.021698746
0.03192238
0.029161101
0.051207303
0.040745012
0.12457502
0.17194704
0.53544365
0.3100994
1.0327975
0.34698212
0.58043907
0.19436539
0.12550624
0.027656494
0.023328517
0.0098424292
0.0086550384
0.0057188679
0.0047283486
0.003877712
0.0033335445
0.0028520664
0.0024588297
0.0021407192
0.0018723043
0.0016494275
0.0014625314
0.0012979248
0.0011451917
0.0010007121
0.00085604321
0.0007114583
0.00072673247
0.00081146163
0.00089027938
0.00095621317
0.0010014872
0.001022353
0.0010145346
0.00097674108
0.00091246571
0.0008305348
0.00074561152
0.00067439827
0.00062493667
0.00059431644
0.00057951458
0.00057950721
0.00059343695
0.0006208777
0.00066181165
0.0007166166
0.00078837106
0.00088155621
0.001027225
0.0011980391
0.0013411544
0.0014688668
0.0015759377
0.0016572975
0.0017051673
0.0017126059
0.0016730939
0.0015818358
0.0014393928
0.0012543144
0.0010447809
0.00085549717
0.0010800278
0.0012914905
0.0014895781
0.0016677338
0.0018217133
0.0019479645
0.0020437701
0.0021058496
0.0021350276
0.0021359538
0.0021151671
0.0020807437
0.0020417597
0.0020069803
0.0019823791
0.0019693911
0.0019650777
0.001963496
0.0019569894
0.0019369654
0.0018950069
0.001822998
0.0017130774
0.0015583077
0.0013530281
0.0010994525
0.00098424841
0.0013388873
0.0017600988
0.0022204921
0.0026896101
0.0031214197
0.0034555681
0.0036256675
0.0035797328
0.0032964718
0.0027998414
0.0021690208
0.0015139893
0.0013273687
0.0018426207
0.002181617
0.0023146153
0.0022412258
0.0019217992
0.0013458145
0.0014112349
0.0022498238
0.0032115414
0.0043077627
0.0055630202
0.0069666711
0.0084541746
0.0099053852
0.011151271
0.011995049
0.0122546
0.011837944
0.010724149
0.0090644112
0.0071427124
0.0052942846
0.0038009375
0.002789527
0.0022353756
0.0020514372
0.0018873095
0.0015997418
0.0016020786
0.0021646171
0.0030233026
0.0038005711
0.0043319859
0.0046357134
0.004802678
0.0049192567
0.0050488261
0.005233219
0.0054624524
0.0056516408
0.0056601986
0.005318277
0.0044826863
0.003165378
0.0016089099
0.0019121525
0.0035375172
0.0051839094
0.006769925
0.0082530745
0.0096149037
0.010691348
0.011354311
0.010033773
0.0079184507
0.0070132839
0.0063745408
0.0060121724
0.0058365921
0.0057938909
0.005858874
0.0060317083
0.0062879021
0.0066163881
0.0070390779
0.007627813
0.0083550545
0.0091378759
0.0099411209
0.010734039
0.01148946
0.012184032
0.012794723
0.013252611
0.013470901
0.013427211
0.01318649
0.012807106
0.012281829
0.011631988
0.010870153
0.00999927
0.0090242306
0.0079599527
0.0067453636
0.0052794089
0.0033155323
0.0016111611
0.0052036031
0.0097378318
0.015777615
0.022092614
0.032336217
0.029940838
0.052737177
0.043659205
0.13724276
0.19507613
0.627134
0.38347902
1.2143087
0.40905973
0.6573029
0.21863953
0.14088416
0.0341145
0.02734358
0.011580604
0.0098734267
0.0065224037
0.0053448945
0.0043592474
0.0037292093
0.0031865724
0.0027492366
0.0023980984
0.0021053771
0.0018646763
0.0016640168
0.0014880712
0.0013255755
0.0011724274
0.0010201214
0.00086891674
0.00087420522
0.00094988535
0.0010213152
0.001080641
0.0011203466
0.0011367522
0.0011256385
0.0010856398
0.0010200078
0.00093716639
0.00085130279
0.00077879858
0.00072773451
0.00069528617
0.00067838101
0.00067609808
0.00068787368
0.00071356324
0.00075338424
0.00080795235
0.00088064902
0.00097663142
0.0011277682
0.00130504
0.0014533984
0.0015854176
0.0016964887
0.0017819048
0.0018341818
0.0018466145
0.0018129324
0.0017286357
0.0015944682
0.0014189857
0.0012204478
0.0010447642
0.0012685674
0.0014811515
0.0016790626
0.0018556617
0.0020070147
0.0021299909
0.0022222648
0.0022810098
0.0023073764
0.0023061868
0.0022840456
0.002249051
0.0022102517
0.0021763058
0.002153008
0.0021415954
0.0021389521
0.0021389931
0.0021339607
0.0021152076
0.002074295
0.0020031306
0.0018939563
0.0017400505
0.0015362855
0.0012868605
0.0011751082
0.0015202543
0.0019347111
0.002388802
0.0028520865
0.0032791617
0.0036106732
0.0037814914
0.0037407274
0.0034677311
0.0029865222
0.0023753792
0.0017452029
0.0015736649
0.0020813758
0.0024177622
0.0025451757
0.0024624538
0.0021346391
0.0015625345
0.001618303
0.0024324886
0.0033777124
0.004459566
0.0057006171
0.0070894845
0.008561877
0.0099987316
0.011232951
0.012070483
0.012332331
0.011928033
0.01083867
0.0092139531
0.0073335201
0.0055259445
0.0040653488
0.0030727719
0.002522186
0.0023286675
0.0021524568
0.0018554467
0.0018442666
0.0023863028
0.0032254784
0.0039910829
0.0045188291
0.0048242006
0.0049956382
0.0051182304
0.005254431
0.0054442656
0.0056754206
0.0058611946
0.0058606029
0.0055068458
0.0046636544
0.0033494169
0.0018171677
0.0020975249
0.0036788012
0.0052966414
0.0068593656
0.008322137
0.0096635973
0.010721437
0.011359053
0.010065826
0.0079943791
0.0070902602
0.0064565644
0.0060966964
0.005922738
0.0058813092
0.0059474056
0.0061206212
0.0063769832
0.0067059381
0.0071296057
0.007717455
0.0084418177
0.0092214031
0.010021199
0.010810617
0.011562603
0.012253803
0.012860555
0.01331435
0.013530083
0.013486579
0.013247811
0.012870816
0.012348978
0.011703421
0.010946643
0.010081814
0.0091142247
0.0080582777
0.0068540699
0.0054006909
0.0034756997
0.0018770741
0.0054787606
0.010037474
0.016104481
0.022480879
0.032723151
0.030738895
0.054104116
0.046591901
0.14742457
0.21432327
0.71080318
0.45564223
1.3977031
0.47028997
0.7297148
0.24002071
0.15408453
0.040672948
0.031309287
0.013413918
0.011116944
0.0073525266
0.0059762788
0.0048528697
0.0041340307
0.003528647
0.0030459889
0.002660922
0.002343173
0.0020840357
0.0018691045
0.001681405
0.0015088041
0.0013466973
0.0011865178
0.0010285082
0.0010235524
0.0010899324
0.0011538342
0.0012064963
0.0012406276
0.0012526069
0.0012382725
0.0011961829
0.0011293399
0.0010457441
0.00095907617
0.00088536399
0.00083271441
0.00079840287
0.00077931753
0.00077464615
0.00078413127
0.00080792262
0.00084647897
0.00090065557
0.00097412671
0.0010727034
0.0012288697
0.0014120519
0.0015653041
0.0017013385
0.0018161706
0.0019054515
0.0019619981
0.0019793483
0.0019514883
0.0018742251
0.0017484917
0.0015828506
0.001395636
0.0012338454
0.0014569105
0.0016705061
0.0018680719
0.0020428785
0.0021913196
0.0023107085
0.0023991338
0.002454245
0.0024775354
0.0024740078
0.0024503339
0.0024146343
0.0023759291
0.0023427646
0.0023207492
0.002310913
0.0023099535
0.0023116366
0.0023080974
0.0022906295
0.0022507703
0.0021804517
0.0020720233
0.0019189903
0.0017167847
0.0014716031
0.0013632923
0.0016986515
0.0021060212
0.0025535047
0.0030106802
0.0034327986
0.0037615451
0.0039330997
0.0038977229
0.0036354465
0.0031703587
0.0025798185
0.0019755317
0.0018197778
0.0023200829
0.0026538395
0.0027754741
0.0026830386
0.0023464847
0.0017780773
0.0018236851
0.0026125899
0.0035405387
0.0046073781
0.0058336246
0.0072071131
0.0086637967
0.010085726
0.01130781
0.012138836
0.012403052
0.012011635
0.010947744
0.0093595833
0.0075223092
0.0057575858
0.0043315218
0.0033590169
0.0028124896
0.0026092184
0.0024204484
0.0021134517
0.0020881158
0.0026088437
0.0034277292
0.0041811654
0.004705086
0.0050122269
0.0051884557
0.0053175101
0.0054608595
0.0056566192
0.0058900003
0.0060723556
0.0060622671
0.005696163
0.0048450612
0.0035341115
0.002026617
0.0022835849
0.0038195186
0.0054077974
0.0069465265
0.0083883904
0.0097090507
0.010747961
0.011360263
0.010095815
0.0080701159
0.0071677994
0.0065395363
0.0061824024
0.0060102002
0.0059701217
0.0060373643
0.0062109448
0.0064674325
0.0067968028
0.0072213517
0.0078080994
0.0085292616
0.0093052442
0.010101195
0.010886694
0.01163481
0.012322184
0.012924514
0.013373756
0.013586588
0.013543076
0.013306154
0.012931477
0.01241306
0.011771802
0.011020118
0.010161403
0.0092013184
0.0081536762
0.006959686
0.0055189513
0.0036342475
0.0021434601
0.0057527556
0.0103345
0.016424596
0.022863146
0.033085178
0.031553192
0.055329118
0.049531992
0.15560563
0.23049585
0.79006109
0.52760472
1.5866424
0.53143833
0.80013274
0.25907936
0.16547559
0.047296002
0.035239481
0.01534514
0.012388328
0.0082102924
0.0066230609
0.0053588016
0.0045480796
0.0038782687
0.0033490126
0.0029290821
0.0025855584
0.002307349
0.0020776183
0.0018777351
0.0016946751
0.0015233118
0.0013550167
0.0011900135
0.0011745574
0.0012313831
0.0012876164
0.0013335645
0.0013621243
0.0013697217
0.0013522527
0.0013082009
0.0012403091
0.001156134
0.001068817
0.00099399735
0.00093979219
0.00090359025
0.0008822515
0.0008750785
0.00088213303
0.00090387275
0.00094100417
0.00099462369
0.0010686874
0.0011696344
0.0013303581
0.0015188661
0.0016766311
0.0018163657
0.0019346997
0.0020276373
0.0020883016
0.0021104803
0.0020884254
0.0020182606
0.001901116
0.0017455617
0.0015700005
0.0014223847
0.0016447161
0.0018592109
0.0020562573
0.0022290287
0.0023742642
0.0024897454
0.0025739979
0.0026251702
0.002645116
0.0026390252
0.0026136377
0.0025770968
0.0025383918
0.002505953
0.0024851949
0.0024769322
0.0024776677
0.0024810104
0.002478983
0.002462816
0.0024240204
0.0023545532
0.002246876
0.0020947324
0.0018941405
0.0016532987
0.0015484141
0.0018737064
0.0022736541
0.0027142215
0.0031650062
0.0035819366
0.0039077774
0.0040800692
0.0040502783
0.0037991635
0.0033508898
0.0027818823
0.0022045214
0.0020652693
0.0025583608
0.0028895019
0.0030051987
0.0029027051
0.0025570991
0.0019922082
0.0020271523
0.0027899123
0.0036997926
0.0047509635
0.0059618031
0.0073193134
0.0087596808
0.010166099
0.011375551
0.012199769
0.012466373
0.012088307
0.011050881
0.0095007818
0.0077085575
0.0059887253
0.0045990572
0.0036479787
0.003106112
0.0028929756
0.0026911868
0.002373678
0.0023335736
0.0028321887
0.0036299691
0.0043706803
0.0048905718
0.0051995785
0.0053809078
0.0055168798
0.0056679111
0.0058700917
0.0061059991
0.0062848978
0.0062649067
0.0058858869
0.0050265425
0.003719116
0.002236884
0.0024700084
0.0039593983
0.0055171179
0.007031167
0.0084516183
0.0097510789
0.010770763
0.011357862
0.010123621
0.0081454758
0.0072457497
0.0066232989
0.0062691263
0.0060988066
0.0060601464
0.0061285564
0.0063024743
0.0065590341
0.006888754
0.0073140716
0.0078994861
0.0086171134
0.0093891141
0.010180811
0.010961965
0.01170577
0.012388851
0.012986269
0.013430491
0.013640072
0.013596344
0.013361148
0.012988701
0.012473667
0.011836702
0.011090131
0.01023757
0.0092850219
0.0082456351
0.0070616846
0.0056337156
0.0037908281
0.0024098986
0.0060252005
0.01062855
0.016737909
0.023239178
0.03342471
0.032381609
0.056433836
0.052471346
0.16218584
0.24422013
0.86755122
0.60020845
1.7824598
0.59312137
0.85417716
0.27625968
0.17535434
0.053948543
0.039147634
0.017377198
0.01369085
0.0090969548
0.0072859615
0.0058773532
0.0049714871
0.0042354543
0.0036582594
0.0032024872
0.00283241
0.0025344663
0.0022893859
0.0020768721
0.0018829869
0.0017020599
0.001525401
0.0013532109
0.001327001
0.0013740149
0.0014224372
0.0014616251
0.0014846231
0.0014878923
0.0014673861
0.0014215136
0.0013527519
0.0012681916
0.0011804014
0.0011045938
0.0010488777
0.0010107678
0.00098710739
0.00097732036
0.00098180117
0.0010013299
0.0010368678
0.001089754
0.0011642147
0.0012672867
0.0014320649
0.0016252799
0.0017871463
0.0019302438
0.0020518021
0.002148172
0.0022127874
0.0022396935
0.0022234162
0.002160407
0.0020520008
0.0019067767
0.0017431993
0.0016100265
0.0018316455
0.0020469257
0.0022432753
0.0024137635
0.0025554943
0.0026667418
0.0027464932
0.002793419
0.002809751
0.0028008719
0.00277359
0.0027360704
0.0026972694
0.0026654967
0.0026459664
0.0026392698
0.0026417074
0.0026467251
0.0026462274
0.0026313783
0.0025936603
0.0025250555
0.0024181426
0.0022669145
0.0020680026
0.0018316022
0.0017301251
0.0020450891
0.0024372806
0.0028706211
0.0033147284
0.0037262303
0.0040490094
0.0042220183
0.0041979867
0.0039584529
0.0035276698
0.0029811191
0.0024317129
0.0023096918
0.0027958242
0.0031244068
0.0032340548
0.0031212103
0.0027662942
0.0022047516
0.0022285434
0.0029643173
0.0038553285
0.0048901724
0.0060850021
0.0074259327
0.0088493684
0.01023967
0.01143596
0.012253018
0.012521965
0.012157653
0.011147617
0.0096370327
0.007891727
0.0062188495
0.0048675219
0.0039393522
0.0034028804
0.0031798456
0.0029646088
0.002636098
0.0025806551
0.0030563623
0.0038321857
0.0045595538
0.0050751551
0.0053860856
0.0055728083
0.0057161549
0.0058754125
0.0060845173
0.0063232375
0.0064985958
0.0064682219
0.0060756503
0.00520771
0.0039040669
0.0024475787
0.0026564663
0.0040981779
0.0056243587
0.0071130646
0.0085116213
0.0097895094
0.010789694
0.011351771
0.010149114
0.0082202494
0.0073239339
0.0067076656
0.0063566719
0.0061883491
0.006151162
0.0062207459
0.0063949594
0.006651523
0.0069815108
0.007407464
0.0079912934
0.0087050338
0.0094726568
0.010259677
0.011036043
0.01177508
0.012453391
0.013045395
0.013484126
0.013690103
0.013645946
0.013412349
0.013042037
0.01253034
0.011897656
0.011156207
0.010309829
0.0093648348
0.0083336413
0.0071595545
0.005744552
0.003945161
0.0026760414
0.006295821
0.01091942
0.017044603
0.023608973
0.033744633
0.033222375
0.057440114
0.055404994
0.16749561
0.25598203
0.94445925
0.67413342
1.8949639
0.64604394
0.90795936
0.2919165
0.18396096
0.060596446
0.043046329
0.019513199
0.015028344
0.010014001
0.0079658882
0.0064089404
0.0054044589
0.0046002706
0.0039737156
0.0034810703
0.0030836221
0.0027652504
0.0025042446
0.0022786338
0.0020735427
0.0018827348
0.0016974562
0.0015178802
0.0014806655
0.001517606
0.0015580711
0.0015904545
0.0016079061
0.0016069083
0.0015834718
0.0015359323
0.0014664951
0.0013817627
0.0012936965
0.0012170412
0.0011598756
0.0011198515
0.0010938079
0.0010812964
0.0010830581
0.001100211
0.0011339789
0.0011859454
0.0012605938
0.0013655254
0.0015338268
0.0017311001
0.0018966279
0.0020427297
0.002167217
0.0022667795
0.0023351654
0.0023666848
0.0023561466
0.0023003405
0.0022008148
0.0020661605
0.0019148946
0.0017964171
0.0020173636
0.002233316
0.0024287894
0.0025967441
0.0027346684
0.0028413541
0.0029162757
0.0029586488
0.0029711013
0.0029592121
0.0029298574
0.0028912225
0.002852228
0.0028210583
0.002802721
0.0027975775
0.0028017195
0.0028084242
0.0028094734
0.0027959608
0.0027593385
0.0026916143
0.002585488
0.0024352142
0.002238063
0.0020062129
0.0019081233
0.0022125202
0.0025966253
0.0030224283
0.0034595683
0.0038653918
0.0041849365
0.0043586165
0.0043404844
0.0041129182
0.0037002736
0.0031770854
0.0026566434
0.0025525877
0.0030320811
0.0033582137
0.0034617646
0.0033383467
0.0029739359
0.0024155985
0.0024277745
0.0031357531
0.0040070936
0.0050249524
0.0062031724
0.0075269233
0.0089328051
0.010306364
0.011488926
0.012298421
0.012569588
0.012219345
0.011237535
0.0097678368
0.0080712691
0.006447413
0.0051364433
0.0042328033
0.0037026174
0.0034697551
0.0032406891
0.0029007432
0.0028294529
0.0032814749
0.0040344513
0.0047477886
0.0052587696
0.0055716321
0.0057640154
0.0059151888
0.0060832226
0.0062997555
0.0065415519
0.0067132229
0.0066718933
0.0062650555
0.0053881494
0.0040885827
0.0026582948
0.0028426261
0.0042356069
0.0057292949
0.007192019
0.0085682226
0.00982419
0.010804619
0.011341916
0.01017215
0.0082942029
0.0074021476
0.0067924192
0.0064448086
0.0062785823
0.0062429072
0.0063136541
0.0064881052
0.0067445881
0.0070747453
0.0075011802
0.0080831529
0.0087926381
0.0095554712
0.010337376
0.011108499
0.0118423
0.012515354
0.013101436
0.013534203
0.013736224
0.013691426
0.013459295
0.013091022
0.012582613
0.011954193
0.01121787
0.010377699
0.0094402678
0.0084172012
0.0072528201
0.0058510919
0.0040970556
0.002941639
0.0065644837
0.011207095
0.017345136
0.02397285
0.03404833
0.034074379
0.058369522
0.058331243
0.17180794
0.2661376
0.93648034
0.72534774
1.9419138
0.65657137
0.89713726
0.30234072
0.19148452
0.067206787
0.046946699
0.021756439
0.016405236
0.010963191
0.0086639622
0.0069541068
0.0058472914
0.004972847
0.0042954129
0.0037647975
0.003339114
0.0029995834
0.0027220474
0.0024828506
0.0022661564
0.0020651383
0.0018709753
0.0016838076
0.0016353394
0.0016619398
0.0016942957
0.0017198302
0.001731754
0.001726556
0.0017003034
0.0016512606
0.0015813568
0.0014966845
0.0014085613
0.0013312208
0.001272686
0.0012307548
0.0012022749
0.0011869319
0.0011858282
0.0012004358
0.0012322499
0.0012831002
0.0013577143
0.0014642201
0.0016354888
0.0018361462
0.0020048683
0.0021535968
0.0022807016
0.0023832023
0.0024551639
0.0024911695
0.0024863195
0.0024377528
0.00234724
0.0022233879
0.0020847553
0.0019812057
0.0022015396
0.0024180531
0.002612472
0.0027776434
0.0029114602
0.0030132584
0.0030830254
0.0031205461
0.0031288612
0.0031137474
0.0030821471
0.0030422636
0.0030029778
0.0029723446
0.0029551597
0.0029515493
0.0029573915
0.0029657907
0.0029684022
0.0029562465
0.0029207431
0.0028539258
0.0027486207
0.0025993547
0.0024040622
0.0021768809
0.0020821597
0.0023757785
0.0027514746
0.0031694329
0.0035993141
0.0039992007
0.0043153198
0.0044895947
0.0044774607
0.0042622043
0.0038683037
0.0033693503
0.0028788471
0.0027934882
0.0032667306
0.0035905815
0.0036880665
0.0035539439
0.0031799489
0.002624712
0.0026248449
0.0033042629
0.0041551372
0.0051553585
0.0063163771
0.0076223538
0.0090100561
0.010366231
0.011534462
0.01233593
0.01260911
0.012273146
0.011320281
0.0098927291
0.0082466356
0.0066738423
0.0054053053
0.00452796
0.0040051342
0.0037626481
0.0035194427
0.0031677097
0.0030801445
0.0035077322
0.0042369335
0.0049354748
0.0054414247
0.0057561656
0.0059544414
0.0061138808
0.0062912392
0.0065156961
0.006760795
0.0069285489
0.0068755764
0.0064536689
0.0055674196
0.0042722637
0.0028686144
0.0030281592
0.0043714562
0.0058317328
0.0072678653
0.0086212807
0.0098549998
0.010815426
0.011328239
0.010192587
0.0083670877
0.0074801676
0.0068773183
0.0065332769
0.0063692272
0.0063350827
0.0064069609
0.0065815719
0.0068378711
0.0071680797
0.007594822
0.0081746494
0.008879498
0.0096371175
0.010413459
0.011178876
0.011906967
0.012574271
0.013153923
0.013580258
0.013777977
0.013732328
0.013501533
0.013135202
0.012630033
0.012005858
0.011274665
0.010440721
0.0095108611
0.0084958605
0.007341062
0.0059530545
0.0042464344
0.0032065664
0.0068312306
0.011491784
0.017640274
0.024331512
0.034339648
0.03493735
0.059242947
0.061251445
0.17534822
0.27498452
0.92523165
0.73347124
1.9362511
0.66579574
0.88462121
0.31139904
0.19807692
0.073748028
0.050857828
0.024110394
0.017826562
0.011946604
0.0093815472
0.0075135453
0.0063003888
0.0053533897
0.0046234402
0.0040536782
0.0035988385
0.0032373746
0.0029426694
0.002689372
0.0024606585
0.002249087
0.0020457642
0.0018507904
0.001790822
0.0018068102
0.0018308967
0.001849535
0.0018559499
0.0018466213
0.0018176718
0.0017672972
0.0016971483
0.001612786
0.0015248472
0.0014470076
0.0013872046
0.0013433895
0.0013124305
0.0012941543
0.0012900388
0.001301928
0.0013315979
0.0013811263
0.0014554716
0.0015632476
0.0017369065
0.001940253
0.0021116784
0.0022626388
0.0023920346
0.0024972056
0.0025725345
0.0026128851
0.0026136589
0.002572354
0.0024909737
0.0023781456
0.002252458
0.0021640456
0.0023838474
0.0026008153
0.0027940048
0.0029561472
0.0030855611
0.003182153
0.0032464505
0.0032788306
0.0032827639
0.003264223
0.003230214
0.0031889542
0.0031492806
0.0031191137
0.0031030337
0.0031009279
0.0031084583
0.0031185538
0.0031227404
0.0031119633
0.0030776075
0.0030117337
0.0029072978
0.0027591114