/*--------------------------------*- C++ -*----------------------------------*\
| =========                 |                                                 |
| \\      /  F ield         | OpenFOAM: The Open Source CFD Toolbox           |
|  \\    /   O peration     | Version:  2.4.0                                 |
|   \\  /    A nd           | Web:      www.OpenFOAM.org                      |
|    \\/     M anipulation  |                                                 |
\*---------------------------------------------------------------------------*/
FoamFile
{
    version     2.0;
    format      ascii;
    class       volScalarField;
    location    "350";
    object      nut;
}
// * * * * * * * * * * * * * * * * * * * * * * * * * * * * * * * * * * * * * //

dimensions      [0 2 -1 0 0 0 0];

internalField   nonuniform List<scalar> 
32000
(
1.2658391e-08
5.00309e-09
9.0522627e-09
3.7129108e-09
2.3263039e-09
2.5299535e-10
4.6619415e-10
2.8189727e-10
2.4085011e-10
1.6438201e-10
1.3732308e-10
1.1802601e-10
1.0544152e-10
9.3742277e-11
8.4012713e-11
7.6487352e-11
6.9986208e-11
6.4372857e-11
5.9271087e-11
5.4350551e-11
4.9308093e-11
4.4075765e-11
3.8224585e-11
3.1823828e-11
3.5993953e-11
4.4606949e-11
5.2900102e-11
6.0637408e-11
6.7193938e-11
7.2184539e-11
7.5147196e-11
7.5802718e-11
7.4223813e-11
7.094645e-11
6.7075223e-11
6.3968036e-11
6.2292705e-11
6.1940483e-11
6.2887927e-11
6.5155976e-11
6.8643099e-11
7.3242438e-11
7.8843004e-11
8.5338567e-11
9.2798685e-11
1.0132192e-10
1.1340201e-10
1.2862555e-10
1.4254395e-10
1.5548461e-10
1.6635298e-10
1.7420537e-10
1.7785175e-10
1.762351e-10
1.6835636e-10
1.5341498e-10
1.3134657e-10
1.031888e-10
7.1199507e-11
4.0923302e-11
6.9867879e-11
9.6287649e-11
1.2162517e-10
1.4506114e-10
1.6589806e-10
1.8347667e-10
1.9726038e-10
2.066049e-10
2.11457e-10
2.1233006e-10
2.1003399e-10
2.0560453e-10
2.0023549e-10
1.9512189e-10
1.911305e-10
1.8854476e-10
1.8706708e-10
1.8598678e-10
1.843479e-10
1.8105377e-10
1.7501228e-10
1.6514738e-10
1.503813e-10
1.2970715e-10
1.0214672e-10
6.7054784e-11
5.1908342e-11
1.026321e-10
1.6070119e-10
2.2374592e-10
2.8776578e-10
3.464534e-10
3.9145293e-10
4.1349553e-10
4.0526864e-10
3.6369621e-10
2.9186221e-10
2.0053056e-10
1.0352062e-10
7.0042304e-11
1.4126721e-10
1.8697106e-10
2.0693917e-10
2.0148311e-10
1.6334183e-10
8.5775714e-11
1.0102704e-10
2.2220727e-10
3.5573467e-10
5.0592e-10
6.7680161e-10
8.6723995e-10
1.0685715e-09
1.2644744e-09
1.4318796e-09
1.5438144e-09
1.5752008e-09
1.5135599e-09
1.3556056e-09
1.1221201e-09
8.5239865e-10
5.9325413e-10
3.8472656e-10
2.4554476e-10
1.7276225e-10
1.5384251e-10
1.3793694e-10
1.0479516e-10
1.1195936e-10
1.9513914e-10
3.155186e-10
4.2103195e-10
4.9077945e-10
5.2872694e-10
5.4787632e-10
5.599583e-10
5.7354578e-10
5.94662e-10
6.2282084e-10
6.4773686e-10
6.5146142e-10
6.1108355e-10
5.0592517e-10
3.3558316e-10
1.2684635e-10
1.8308201e-10
4.081561e-10
6.2718735e-10
8.3466395e-10
1.0260056e-09
1.1998405e-09
1.3344594e-09
1.4171264e-09
1.2296842e-09
9.4724265e-10
8.3080213e-10
7.428468e-10
6.8664065e-10
6.5048888e-10
6.2751355e-10
6.1410877e-10
6.0999792e-10
6.1179332e-10
6.1772165e-10
6.2913284e-10
6.5297544e-10
6.8708755e-10
7.237592e-10
7.6027173e-10
7.9475116e-10
8.2578796e-10
8.5247659e-10
8.7413467e-10
8.866015e-10
8.8270399e-10
8.5995144e-10
8.2273337e-10
7.7739841e-10
7.2385159e-10
6.6423388e-10
6.0014975e-10
5.3257681e-10
4.6238803e-10
3.9187325e-10
3.2027079e-10
2.4247113e-10
1.4104656e-10
4.476677e-11
2.1250415e-10
4.3512141e-10
7.5501959e-10
1.1335732e-09
1.8043495e-09
1.7419904e-09
3.1325087e-09
2.0391827e-09
4.7630246e-09
4.8766791e-09
9.7603367e-09
5.0927547e-09
6.8756665e-09
4.3152171e-09
5.5804606e-09
3.0574295e-09
2.1240718e-09
2.9577518e-10
5.5412226e-10
4.9025954e-10
3.3273858e-10
2.5211953e-10
2.0406958e-10
1.766573e-10
1.5589425e-10
1.3700223e-10
1.2060207e-10
1.0741283e-10
9.5761676e-11
8.5630426e-11
7.65498e-11
6.8005233e-11
5.9517541e-11
5.0959367e-11
4.1730379e-11
3.1875732e-11
3.6442307e-11
4.6943676e-11
5.6866152e-11
6.5816253e-11
7.2970466e-11
7.7848546e-11
7.9892168e-11
7.8817013e-11
7.4824351e-11
6.8707621e-11
6.194861e-11
5.6298998e-11
5.2611414e-11
5.070018e-11
5.0431821e-11
5.1767226e-11
5.4563983e-11
5.8697706e-11
6.4066741e-11
7.0602884e-11
7.8452237e-11
8.784474e-11
1.0141989e-10
1.1766691e-10
1.3200677e-10
1.4502723e-10
1.5583599e-10
1.6357933e-10
1.6717942e-10
1.6567674e-10
1.5817202e-10
1.4395656e-10
1.2302585e-10
9.6410888e-11
6.6318586e-11
3.893873e-11
6.6762356e-11
9.2213159e-11
1.1645096e-10
1.3872608e-10
1.5840901e-10
1.7490951e-10
1.8775313e-10
1.9635901e-10
2.0069919e-10
2.0127196e-10
1.9885108e-10
1.944243e-10
1.8912707e-10
1.8409368e-10
1.8014567e-10
1.7755129e-10
1.7602993e-10
1.7490803e-10
1.7328161e-10
1.7012268e-10
1.644059e-10
1.5512019e-10
1.412578e-10
1.2188278e-10
9.6104934e-11
6.3507094e-11
5.1995154e-11
9.9108816e-11
1.5325507e-10
2.1212504e-10
2.719164e-10
3.2673529e-10
3.6876873e-10
3.8937995e-10
3.8180106e-10
3.432764e-10
2.7674387e-10
1.9225667e-10
1.0280168e-10
6.896997e-11
1.348702e-10
1.7761648e-10
1.9618532e-10
1.9076973e-10
1.5474434e-10
8.2365478e-11
9.9884777e-11
2.1290329e-10
3.3818747e-10
4.7940859e-10
6.4023979e-10
8.1947853e-10
1.0087701e-09
1.1924619e-09
1.3485427e-09
1.4514948e-09
1.4780443e-09
1.4171572e-09
1.2666626e-09
1.046888e-09
7.9504603e-10
5.5464059e-10
3.6220499e-10
2.3420481e-10
1.6746806e-10
1.5010587e-10
1.3461592e-10
1.033197e-10
1.1084133e-10
1.8993497e-10
3.033517e-10
4.0221605e-10
4.6736637e-10
5.0294166e-10
5.2123218e-10
5.3321834e-10
5.4692412e-10
5.6772779e-10
5.9476237e-10
6.1800084e-10
6.2031099e-10
5.8021329e-10
4.7869361e-10
3.15534e-10
1.1697951e-10
1.8077569e-10
3.9808228e-10
6.1267538e-10
8.1892807e-10
1.0125932e-09
1.1924886e-09
1.3374664e-09
1.4330857e-09
1.2545804e-09
9.6809854e-10
8.4914788e-10
7.6229564e-10
7.0971181e-10
6.7936857e-10
6.6402936e-10
6.6006162e-10
6.6733112e-10
6.8236871e-10
7.0315543e-10
7.3127091e-10
7.7486142e-10
8.3129983e-10
8.9135004e-10
9.5146646e-10
1.0089898e-09
1.0617963e-09
1.1083805e-09
1.1475385e-09
1.1735549e-09
1.177405e-09
1.1561445e-09
1.1155958e-09
1.0632621e-09
9.9883772e-10
9.2484341e-10
8.4313945e-10
7.5477204e-10
6.6058107e-10
5.6349853e-10
4.615398e-10
3.480691e-10
1.9900327e-10
6.721412e-11
3.1154097e-10
6.2730578e-10
1.0420137e-09
1.5694074e-09
2.1762311e-09
2.4935531e-09
2.8311998e-09
1.541519e-09
3.3980385e-09
3.5988645e-09
5.7541253e-09
4.6360422e-09
5.907846e-10
8.7240269e-10
7.6058768e-10
9.8272046e-10
7.9557364e-10
1.2061221e-10
3.0523605e-10
4.2998175e-10
2.3715382e-10
2.0573389e-10
1.6338667e-10
1.4516745e-10
1.2832156e-10
1.1324065e-10
9.9450341e-11
8.7985281e-11
7.7588112e-11
6.8416299e-11
6.0277436e-11
5.2800295e-11
4.5605755e-11
3.8579936e-11
3.1291008e-11
2.3743324e-11
2.6322819e-11
3.2969044e-11
3.9138991e-11
4.4517101e-11
4.852616e-11
5.0861554e-11
5.1205496e-11
4.94562e-11
4.5848613e-11
4.098583e-11
3.5852553e-11
3.1520693e-11
2.8466858e-11
2.6539262e-11
2.5591291e-11
2.5538537e-11
2.6258649e-11
2.7656617e-11
2.9665387e-11
3.2256565e-11
3.5501506e-11
3.9546789e-11
4.5356168e-11
5.2041406e-11
5.7931753e-11
6.3183439e-11
6.7478538e-11
7.0465427e-11
7.1724839e-11
7.088744e-11
6.7611851e-11
6.1638513e-11
5.2998279e-11
4.2139005e-11
2.9983195e-11
1.9174702e-11
3.0440195e-11
4.0746078e-11
5.049635e-11
5.9399426e-11
6.7217346e-11
7.3729086e-11
7.8759007e-11
8.2087946e-11
8.3714297e-11
8.3841482e-11
8.2780345e-11
8.0927413e-11
7.8737368e-11
7.6663193e-11
7.5032151e-11
7.3950223e-11
7.3304536e-11
7.2825879e-11
7.2154032e-11
7.0881251e-11
6.8600678e-11
6.4911712e-11
5.9416111e-11
5.1745378e-11
4.1555788e-11
2.87391e-11
2.4497333e-11
4.3002884e-11
6.4349203e-11
8.7607124e-11
1.1121377e-10
1.3283085e-10
1.4935292e-10
1.5737184e-10
1.5427085e-10
1.3904805e-10
1.1292674e-10
7.9910809e-11
4.5159144e-11
3.1855659e-11
5.7541838e-11
7.4369865e-11
8.1705563e-11
7.9567865e-11
6.5345315e-11
3.6884474e-11
4.4071629e-11
8.8679364e-11
1.3847353e-10
1.9479891e-10
2.5909243e-10
3.3081979e-10
4.0652568e-10
4.7976474e-10
5.4152433e-10
5.8148229e-10
5.9049507e-10
5.6474486e-10
5.0375255e-10
4.1604546e-10
3.1659134e-10
2.2242402e-10
1.4748544e-10
9.7788454e-11
7.1863195e-11
6.5017178e-11
5.8737094e-11
4.6287868e-11
4.9366317e-11
8.10583e-11
1.264414e-10
1.6591913e-10
1.9191495e-10
2.061964e-10
2.1371132e-10
2.1883665e-10
2.2473947e-10
2.334632e-10
2.4451119e-10
2.5376454e-10
2.5440245e-10
2.3804225e-10
1.9720428e-10
1.3147896e-10
5.1214101e-11
7.8639258e-11
1.6908624e-10
2.6036572e-10
3.5010086e-10
4.3670319e-10
5.1989268e-10
5.9084314e-10
6.4242704e-10
5.7086966e-10
4.4325943e-10
3.9051332e-10
3.5425746e-10
3.3475001e-10
3.2657719e-10
3.264189e-10
3.3278584e-10
3.4583226e-10
3.6411338e-10
3.8665575e-10
4.1442844e-10
4.5203953e-10
4.9798543e-10
5.4697951e-10
5.9672489e-10
6.452827e-10
6.9097628e-10
7.3247606e-10
7.6865776e-10
7.954487e-10
8.0718016e-10
8.0212955e-10
7.8419056e-10
7.5746943e-10
7.2153684e-10
6.7772492e-10
6.2695515e-10
5.6959667e-10
5.057606e-10
4.3724626e-10
3.6141078e-10
2.7389804e-10
1.573794e-10
5.9125284e-11
2.4679996e-10
4.8221617e-10
7.6031682e-10
1.1373739e-09
1.3597067e-09
1.7685451e-09
1.2673896e-09
5.0110219e-10
1.1237953e-09
1.1217191e-09
7.4053349e-10
9.7660213e-10
5.6945213e-12
3.4336343e-11
1.6215639e-11
1.5803047e-10
1.6967119e-10
2.6376454e-11
1.0468788e-10
2.4681896e-10
1.1179778e-10
1.1394391e-10
8.9462862e-11
8.2455663e-11
7.3406681e-11
6.531917e-11
5.7337909e-11
5.0388931e-11
4.3854421e-11
3.7975573e-11
3.2829464e-11
2.8246206e-11
2.4014867e-11
2.006037e-11
1.6170468e-11
1.2329914e-11
1.3065918e-11
1.5568566e-11
1.7816388e-11
1.9645911e-11
2.0796849e-11
2.1162168e-11
2.0657946e-11
1.930994e-11
1.7285504e-11
1.4879239e-11
1.2487599e-11
1.0483605e-11
9.0020712e-12
7.9651365e-12
7.2857287e-12
6.9022716e-12
6.7534059e-12
6.7959492e-12
7.0026948e-12
7.3645061e-12
7.8968031e-12
8.6432396e-12
9.7320434e-12
1.0923572e-11
1.1986615e-11
1.2914931e-11
1.3659697e-11
1.4152809e-11
1.4320862e-11
1.4101188e-11
1.3436003e-11
1.2284334e-11
1.0659844e-11
8.652301e-12
6.4363862e-12
4.4842702e-12
6.5273343e-12
8.3980111e-12
1.015642e-11
1.1751336e-11
1.3143043e-11
1.4295126e-11
1.517892e-11
1.5757841e-11
1.6033327e-11
1.6042309e-11
1.5840168e-11
1.5497944e-11
1.5097162e-11
1.471889e-11
1.4421614e-11
1.4224131e-11
1.4106001e-11
1.4018986e-11
1.389865e-11
1.367212e-11
1.3266664e-11
1.2610846e-11
1.1633682e-11
1.0269631e-11
8.4588805e-12
6.1903628e-12
5.3824514e-12
8.6521135e-12
1.244231e-11
1.6589149e-11
2.0790627e-11
2.4626599e-11
2.75361e-11
2.8911865e-11
2.8308954e-11
2.5575501e-11
2.0949726e-11
1.5158079e-11
9.1271245e-12
6.9463492e-12
1.143131e-11
1.4404898e-11
1.5720277e-11
1.5366095e-11
1.286848e-11
7.8502946e-12
9.0173408e-12
1.6958699e-11
2.5914749e-11
3.6105583e-11
4.7787921e-11
6.0850426e-11
7.4628942e-11
8.789096e-11
9.8927795e-11
1.0582231e-10
1.0696239e-10
1.0188896e-10
9.0587082e-11
7.4717001e-11
5.7017529e-11
4.0473685e-11
2.7426487e-11
1.8814132e-11
1.43089e-11
1.307917e-11
1.1941473e-11
9.7239648e-12
1.0257969e-11
1.595515e-11
2.4152153e-11
3.1273323e-11
3.595211e-11
3.8531753e-11
3.9919491e-11
4.0904531e-11
4.204339e-11
4.3677587e-11
4.5680553e-11
4.7288408e-11
4.7313025e-11
4.43398e-11
3.7066319e-11
2.5295664e-11
1.0729581e-11
1.5561853e-11
3.2692748e-11
5.0528138e-11
6.8625006e-11
8.6752143e-11
1.049501e-10
1.2156262e-10
1.3493819e-10
1.2205357e-10
9.501913e-11
8.4109708e-11
7.7572047e-11
7.5179894e-11
7.5820186e-11
7.8836401e-11
8.4060414e-11
9.1714113e-11
1.0166809e-10
1.1380999e-10
1.2858934e-10
1.4753094e-10
1.7019774e-10
1.9491885e-10
2.2080809e-10
2.4696796e-10
2.7252509e-10
2.9668466e-10
3.1871982e-10
3.3671029e-10
3.4847286e-10
3.5342247e-10
3.5320493e-10
3.4888207e-10
3.4008045e-10
3.2706685e-10
3.0993159e-10
2.8850031e-10
2.6235068e-10
2.3202695e-10
1.9505425e-10
1.4958683e-10
8.734486e-11
3.5904689e-11
1.3436365e-10
2.5312504e-10
3.7486899e-10
5.5037976e-10
5.5617559e-10
7.9284812e-10
3.6188589e-10
9.2224001e-11
2.2848656e-10
1.9193409e-10
1.5267935e-11
4.0069079e-11
4.6724948e-15
1.7102784e-13
2.1517743e-14
1.2429308e-11
2.3055583e-11
4.1060083e-12
2.5291365e-11
9.2250275e-11
3.6198547e-11
4.3391945e-11
3.4037042e-11
3.2716617e-11
2.9415859e-11
2.6401036e-11
2.3110824e-11
2.0074269e-11
1.7105854e-11
1.4395932e-11
1.2080162e-11
1.0102886e-11
8.3723096e-12
6.8452918e-12
5.4444327e-12
4.1523684e-12
4.1550584e-12
4.6291946e-12
5.0235786e-12
5.2849959e-12
5.3442041e-12
5.1891648e-12
4.8235736e-12
4.2822532e-12
3.6303254e-12
2.9501474e-12
2.3277794e-12
1.826515e-12
1.4577247e-12
1.1960624e-12
1.0136495e-12
8.9037526e-13
8.1027646e-13
7.6284824e-13
7.4168657e-13
7.4398668e-13
7.7049098e-13
8.263447e-13
9.1830829e-13
1.015251e-12
1.1023086e-12
1.1771403e-12
1.2367814e-12
1.2754827e-12
1.2875476e-12
1.2683327e-12
1.2134364e-12
1.1200084e-12
9.8970968e-13
8.303185e-13
6.5631102e-13
5.0371625e-13
6.6662479e-13
8.1718586e-13
9.5803167e-13
1.0850592e-12
1.1953422e-12
1.2862617e-12
1.3557696e-12
1.4011887e-12
1.4227421e-12
1.4233423e-12
1.4072822e-12
1.3801844e-12
1.3485376e-12
1.3187998e-12
1.2956362e-12
1.2805424e-12
1.271867e-12
1.2657444e-12
1.2570071e-12
1.2397972e-12
1.2082595e-12
1.1566559e-12
1.0792872e-12
9.7092085e-13
8.2696337e-13
6.4758886e-13
5.756929e-13
8.3388707e-13
1.1357883e-12
1.4686458e-12
1.8049984e-12
2.1109432e-12
2.3406777e-12
2.4455465e-12
2.3921845e-12
2.1713616e-12
1.8043285e-12
1.3507327e-12
8.8608387e-13
7.3536203e-13
1.085642e-12
1.3224758e-12
1.4292402e-12
1.4034858e-12
1.2069058e-12
8.1144432e-13
8.8883427e-13
1.5221649e-12
2.247765e-12
3.0803431e-12
4.0402313e-12
5.1164798e-12
6.250315e-12
7.3335782e-12
8.2181379e-12
8.7424016e-12
8.7796769e-12
8.3190059e-12
7.3676019e-12
6.0734719e-12
4.6624351e-12
3.3668726e-12
2.3584363e-12
1.6981227e-12
1.3519442e-12
1.2517476e-12
1.1577266e-12
9.8142355e-13
1.0209685e-12
1.4739174e-12
2.1299702e-12
2.6980792e-12
3.0685936e-12
3.271751e-12
3.3820777e-12
3.4628365e-12
3.5566951e-12
3.6874812e-12
3.8403918e-12
3.9520263e-12
3.9335401e-12
3.6851663e-12
3.1132813e-12
2.1945645e-12
1.049474e-12
1.3916419e-12
2.7904753e-12
4.2946975e-12
5.8655377e-12
7.4899808e-12
9.1801143e-12
1.0800425e-11
1.2181533e-11
1.1100074e-11
8.5464494e-12
7.5581831e-12
7.0976008e-12
7.1056689e-12
7.4972893e-12
8.2406733e-12
9.3722518e-12
1.098179e-11
1.3143338e-11
1.5933314e-11
1.9521759e-11
2.4239919e-11
3.0089385e-11
3.684934e-11
4.436815e-11
5.2432552e-11
6.0788453e-11
6.9158346e-11
7.7253006e-11
8.4485535e-11
9.0343798e-11
9.4728532e-11
9.808537e-11
1.0041883e-10
1.0154314e-10
1.0138424e-10
9.9798715e-11
9.653521e-11
9.1167315e-11
8.3646203e-11
7.2360882e-11
5.6725463e-11
3.4068243e-11
1.5250457e-11
5.0846566e-11
9.1767348e-11
1.2672986e-10
1.7957138e-10
1.54098e-10
2.2210647e-10
7.4848073e-11
1.2834172e-11
3.1889561e-11
1.915078e-11
2.3079446e-14
2.0230815e-13
1.2464355e-17
8.7412716e-17
1.3477815e-17
3.600254e-13
1.9989029e-12
5.316271e-13
4.8028881e-12
2.2059384e-11
8.5297555e-12
1.1442103e-11
9.0956597e-12
9.0414487e-12
8.1925295e-12
7.3753287e-12
6.3970563e-12
5.4461068e-12
4.4965072e-12
3.6351841e-12
2.9283648e-12
2.3565565e-12
1.8862451e-12
1.4974117e-12
1.1670683e-12
8.8535017e-13
8.2958399e-13
8.5262275e-13
8.6477027e-13
8.5519597e-13
8.1391915e-13
7.4338368e-13
6.4923901e-13
5.4093936e-13
4.3010027e-13
3.276898e-13
2.4215883e-13
1.7741455e-13
1.3178696e-13
1.0058972e-13
7.9291349e-14
6.4830535e-14
5.5091217e-14
4.8729265e-14
4.4921932e-14
4.3237261e-14
4.3566277e-14
4.6228043e-14
5.1727548e-14
5.7608016e-14
6.2684977e-14
6.7037377e-14
7.057307e-14
7.3014972e-14
7.4077701e-14
7.3532454e-14
7.1158102e-14
6.6817899e-14
6.0608231e-14
5.293909e-14
4.4567577e-14
3.7292468e-14
4.5646143e-14
5.3536041e-14
6.0902013e-14
6.7520652e-14
7.3249034e-14
7.7965115e-14
8.1574303e-14
8.3950693e-14
8.5110085e-14
8.5196979e-14
8.4426649e-14
8.3089605e-14
8.152245e-14
8.0061072e-14
7.8948647e-14
7.826291e-14
7.7915998e-14
7.7703343e-14
7.7351036e-14
7.6547464e-14
7.4980512e-14
7.2344733e-14
6.833805e-14
6.2687094e-14
5.5167842e-14
4.5883168e-14
4.18709e-14
5.5234246e-14
7.1059682e-14
8.8695045e-14
1.0646661e-13
1.2258989e-13
1.3460793e-13
1.3995491e-13
1.369442e-13
1.2525322e-13
1.0613002e-13
8.2799474e-14
5.9363959e-14
5.2652495e-14
7.076462e-14
8.3362099e-14
8.9123337e-14
8.7817797e-14
7.7494452e-14
5.701577e-14
6.0303435e-14
9.3329238e-14
1.3192951e-13
1.766145e-13
2.283966e-13
2.865693e-13
3.4775015e-13
4.0578579e-13
4.5235153e-13
4.7859163e-13
4.7794278e-13
4.5065683e-13
3.9811465e-13
3.2889605e-13
2.5512893e-13
1.8861374e-13
1.375652e-13
1.0450369e-13
8.721054e-14
8.1803762e-14
7.6527853e-14
6.7320388e-14
6.920049e-14
9.2361607e-14
1.2606313e-13
1.5512862e-13
1.7389832e-13
1.8405407e-13
1.8953075e-13
1.9360077e-13
1.983616e-13
2.0481755e-13
2.1190594e-13
2.1621225e-13
2.1341425e-13
1.9916228e-13
1.6953084e-13
1.2349284e-13
6.7067706e-14
8.1378774e-14
1.5053796e-13
2.2631964e-13
3.0605691e-13
3.8886704e-13
4.7508163e-13
5.57199e-13
6.2462245e-13
5.5896978e-13
4.1936735e-13
3.6700169e-13
3.4788684e-13
3.5671493e-13
3.9053231e-13
4.5039363e-13
5.4300355e-13
6.8030221e-13
8.7711256e-13
1.152428e-12
1.5378806e-12
2.082868e-12
2.8110563e-12
3.7258537e-12
4.830764e-12
6.114172e-12
7.5498459e-12
9.0973475e-12
1.070308e-11
1.2262945e-11
1.3702646e-11
1.5019754e-11
1.6300427e-11
1.7503949e-11
1.8588843e-11
1.9517813e-11
2.0229277e-11
2.0624412e-11
2.0526891e-11
1.9849257e-11
1.7931062e-11
1.4569418e-11
9.1507716e-12
4.5126232e-12
1.3299462e-11
2.2941226e-11
2.978462e-11
4.0011082e-11
3.0916277e-11
3.9553357e-11
1.2801743e-11
1.7296195e-12
3.04578e-12
1.0392333e-12
1.3141176e-17
9.4376596e-17
4.6319405e-22
3.132308e-19
4.5354619e-23
1.9731604e-15
9.8506951e-14
5.5709062e-14
7.4795305e-13
3.7021947e-12
1.619527e-12
2.2669534e-12
1.8513575e-12
1.8633389e-12
1.6898151e-12
1.5101408e-12
1.287785e-12
1.0670508e-12
8.4883075e-13
6.569517e-13
5.0726988e-13
3.9270978e-13
3.0377732e-13
2.3435293e-13
1.7903196e-13
1.3482809e-13
1.190989e-13
1.1359446e-13
1.0797099e-13
1.005385e-13
9.0291318e-14
7.7933501e-14
6.4431857e-14
5.0931655e-14
3.8529e-14
2.801443e-14
1.9793709e-14
1.3854268e-14
9.8142879e-15
7.1396159e-15
5.3596349e-15
4.172357e-15
3.3814652e-15
2.8636842e-15
2.5432613e-15
2.3778051e-15
2.3499362e-15
2.475316e-15
2.7894245e-15
3.1296814e-15
3.4125994e-15
3.6548212e-15
3.8537937e-15
3.9966338e-15
4.0692583e-15
4.0604679e-15
3.9596133e-15
3.7602932e-15
3.467978e-15
3.1039077e-15
2.7069672e-15
2.3696187e-15
2.7890756e-15
3.1926738e-15
3.5689267e-15
3.9061591e-15
4.1974887e-15
4.4372994e-15
4.6213009e-15
4.7435878e-15
4.8050227e-15
4.812295e-15
4.7759714e-15
4.7106873e-15
4.6334833e-15
4.5614853e-15
4.5072302e-15
4.4748723e-15
4.460068e-15
4.4524186e-15
4.4378864e-15
4.400438e-15
4.3239402e-15
4.1925778e-15
3.9907478e-15
3.704493e-15
3.3230985e-15
2.8562065e-15
2.6555898e-15
3.331858e-15
4.1405097e-15
5.0512564e-15
5.9658648e-15
6.792977e-15
7.404034e-15
7.6669841e-15
7.497835e-15
6.889333e-15
5.9128299e-15
4.7382045e-15
3.580743e-15
3.2708249e-15
4.1821518e-15
4.8367654e-15
5.1457534e-15
5.0915249e-15
4.5754502e-15
3.5505323e-15
3.7111049e-15
5.3989875e-15
7.4065887e-15
9.7494278e-15
1.2476764e-14
1.5545284e-14
1.8765556e-14
2.1796547e-14
2.4182142e-14
2.5448556e-14
2.5264389e-14
2.3672806e-14
2.0817842e-14
1.7184275e-14
1.3407771e-14
1.0071559e-14
7.5559353e-15
5.9557849e-15
5.1345369e-15
4.86938e-15
4.5937496e-15
4.1412612e-15
4.2522593e-15
5.4264179e-15
7.1197997e-15
8.5643202e-15
9.4822038e-15
9.9689905e-15
1.0228373e-14
1.0424992e-14
1.0658565e-14
1.0966671e-14
1.1279607e-14
1.1418969e-14
1.1178194e-14
1.0382132e-14
8.8777964e-15
6.6202028e-15
3.9002217e-15
4.5499125e-15
7.9100256e-15
1.1648855e-14
1.5599661e-14
1.9698906e-14
2.3932975e-14
2.7874758e-14
3.0878277e-14
2.7012899e-14
1.9816131e-14
1.7162371e-14
1.6329048e-14
1.6970796e-14
1.8992049e-14
2.2550319e-14
2.8175401e-14
3.6785124e-14
4.9669079e-14
6.8685973e-14
9.6965054e-14
1.3937632e-13
1.996862e-13
2.8073333e-13
3.8552952e-13
5.1579548e-13
6.7156886e-13
8.5074654e-13
1.0486261e-12
1.2538749e-12
1.4591917e-12
1.6665102e-12
1.8894261e-12
2.1224609e-12
2.3623391e-12
2.605375e-12
2.8431333e-12
3.059417e-12
3.218923e-12
3.3002833e-12
3.1405763e-12
2.6745564e-12
1.7845153e-12
9.8717538e-13
2.5804841e-12
4.2801715e-12
5.362566e-12
6.7665368e-12
5.0922216e-12
5.2876926e-12
1.8996572e-12
2.2307552e-13
1.7631185e-13
2.4684486e-14
4.7560481e-22
2.2395637e-19
1.0899845e-27
3.6917034e-24
9.6727436e-30
2.7356843e-17
2.2374586e-15
4.4628534e-15
9.3319232e-14
5.0977766e-13
2.6206092e-13
3.7648382e-13
3.1866661e-13
3.2182945e-13
2.9153375e-13
2.5749614e-13
2.1547497e-13
1.7377737e-13
1.335161e-13
9.938821e-14
7.3948574e-14
5.5341354e-14
4.1527634e-14
3.1197435e-14
2.3335556e-14
1.7331768e-14
1.4634646e-14
1.3210281e-14
1.1954018e-14
1.0624389e-14
9.1144088e-15
7.5187864e-15
5.944754e-15
4.4970636e-15
3.2579098e-15
2.2691064e-15
1.5340677e-15
1.0243526e-15
9.5958834e-16
9.9210673e-16
1.0214116e-15
1.046909e-15
1.067117e-15
1.0804371e-15
1.085048e-15
1.0791829e-15
1.059816e-15
1.0243884e-15
9.563813e-16
8.8928181e-16
8.4877979e-16
8.1835677e-16
7.9423559e-16
7.739618e-16
7.5649073e-16
7.4115431e-16
7.2747475e-16
7.1507997e-16
7.0377649e-16
6.9351042e-16
6.8426229e-16
6.7606642e-16
6.6942942e-16
6.6389132e-16
6.5923288e-16
6.5534312e-16
6.5208905e-16
6.493606e-16
6.470798e-16
6.4515328e-16
6.434725e-16
6.4185105e-16
6.401729e-16
6.383553e-16
6.3633729e-16
6.3411226e-16
6.3175342e-16
6.2938389e-16
6.2713151e-16
6.2509906e-16
6.2335089e-16
6.2192622e-16
6.2083391e-16
6.2007312e-16
6.1962887e-16
6.1947015e-16
6.1956294e-16
6.1985915e-16
6.2031159e-16
6.2084368e-16
6.2135664e-16
6.2165259e-16
6.2152457e-16
6.2070425e-16
6.1895333e-16
6.1614956e-16
6.1245119e-16
6.0838823e-16
6.0419552e-16
6.0033412e-16
5.9728359e-16
5.9555232e-16
5.9565792e-16
5.980002e-16
6.0243652e-16
6.0868021e-16
6.1619994e-16
6.2331229e-16
6.2861627e-16
6.3252727e-16
6.3591312e-16
6.3924802e-16
6.4247673e-16
7.5422233e-16
9.074441e-16
1.0502046e-15
1.1596318e-15
1.2126436e-15
1.1943609e-15
1.1092754e-15
9.6784381e-16
7.9493319e-16
6.2058761e-16
5.9775649e-16
5.9871119e-16
6.0478803e-16
6.1425163e-16
6.2156666e-16
6.2794672e-16
6.3919442e-16
6.5171032e-16
6.5873169e-16
6.597501e-16
6.5790863e-16
6.559706e-16
6.5525403e-16
6.5598382e-16
6.5784712e-16
6.6018849e-16
6.6205794e-16
6.6261668e-16
6.6195161e-16
6.6156532e-16
6.6444158e-16
6.7305509e-16
6.8714615e-16
7.0381713e-16
7.2255562e-16
7.4367124e-16
7.6749741e-16
7.9463153e-16
9.3106617e-16
1.1343546e-15
1.323606e-15
1.4616973e-15
1.2624226e-15
1.0423086e-15
1.0500112e-15
1.0495448e-15
1.0410295e-15
1.0263698e-15
1.1198732e-15
1.4561716e-15
1.988304e-15
2.8187113e-15
4.1054938e-15
6.1211771e-15
9.2978225e-15
1.4046789e-14
2.077028e-14
2.9923587e-14
4.1889607e-14
5.6918589e-14
7.5045728e-14
9.5989807e-14
1.1870879e-13
1.426219e-13
1.6819799e-13
1.9731073e-13
2.2956429e-13
2.6502534e-13
3.0375772e-13
3.4525236e-13
3.8797087e-13
4.2724297e-13
4.6061154e-13
4.5961209e-13
4.0969249e-13
2.9027422e-13
1.7926042e-13
4.2537826e-13
6.8319729e-13
8.3781408e-13
9.9185042e-13
7.3614545e-13
6.2942336e-13
2.3579155e-13
2.5651441e-14
4.9658031e-15
1.8900851e-16
3.854418e-27
1.4654936e-24
2.8094775e-31
1.3902569e-29
5.4805424e-27
4.0271797e-22
3.6113713e-17
2.5556589e-16
8.9493244e-15
5.9802948e-14
3.5573791e-14
5.3722551e-14
4.7440391e-14
4.8551899e-14
4.4209834e-14
3.8778754e-14
3.1952841e-14
2.5152232e-14
1.8693693e-14
1.3385321e-14
9.5849662e-15
6.9182434e-15
5.0186729e-15
3.654311e-15
2.6589702e-15
1.9294265e-15
1.5643991e-15
1.3485516e-15
1.1698082e-15
9.9741925e-16
8.1974668e-16
7.3043951e-16
7.6329152e-16
7.9793118e-16
8.3451527e-16
8.7308402e-16
9.1339112e-16
9.5389768e-16
9.9178034e-16
1.026023e-15
1.0570549e-15
1.0842301e-15
1.105957e-15
1.1205456e-15
1.1261246e-15
1.1208726e-15
1.101724e-15
1.0660792e-15
9.9765585e-16
9.2973964e-16
8.8815827e-16
8.5693889e-16
8.3210691e-16
8.1114417e-16
7.9296566e-16
7.7690025e-16
7.6246855e-16
7.4928259e-16
7.3716442e-16
7.2610496e-16
7.1612658e-16
7.0733252e-16
7.0041473e-16
6.9480356e-16
6.9022074e-16
6.8653443e-16
6.8358021e-16
6.8122286e-16
6.7936808e-16
6.7789822e-16
6.7667245e-16
6.7543986e-16
6.7405887e-16
6.724222e-16
6.7045131e-16
6.681412e-16
6.6559513e-16
6.6298444e-16
6.6048723e-16
6.5824658e-16
6.5635398e-16
6.5486517e-16
6.5379597e-16
6.5314618e-16
6.5289614e-16
6.5300725e-16
6.5343494e-16
6.5411594e-16
6.5498806e-16
6.5595084e-16
6.5686676e-16
6.5748214e-16
6.5750896e-16
6.5658751e-16
6.5439486e-16
6.5076245e-16
6.4586644e-16
6.404276e-16
6.3478592e-16
6.2956332e-16
6.2540253e-16
6.2298458e-16
6.2300661e-16
6.2604893e-16
6.3198356e-16
6.4038841e-16
6.5056844e-16
6.6020756e-16
6.6741407e-16
6.7273411e-16
6.7731199e-16
6.8178947e-16
6.8610281e-16
6.8970293e-16
6.9180527e-16
6.9158708e-16
6.8835198e-16
6.8172991e-16
6.7191371e-16
6.6049066e-16
6.4835994e-16
6.3686332e-16
6.2761804e-16
6.2235336e-16
6.2271086e-16
6.2984109e-16
6.4174342e-16
6.5116633e-16
6.5936121e-16
6.7398735e-16
6.9023549e-16
6.9904141e-16
6.9965817e-16
6.9629074e-16
6.9265886e-16
6.9054464e-16
6.9025957e-16
6.9138232e-16
6.9302542e-16
6.9391307e-16
6.9294e-16
6.9020554e-16
6.877675e-16
6.8962428e-16
6.9899673e-16
7.1513403e-16
7.3413543e-16
7.5555509e-16
7.7961009e-16
8.0660938e-16
8.3714699e-16
8.7209467e-16
9.1256902e-16
9.5950918e-16
1.0125892e-15
1.0616597e-15
1.0835998e-15
1.0852709e-15
1.0802509e-15
1.0681751e-15
1.0507206e-15
1.0289531e-15
1.0036263e-15
9.7555305e-16
9.4548906e-16
9.1363174e-16
8.8026864e-16
8.4635205e-16
8.8590473e-16
1.3864782e-15
2.1078647e-15
3.1035046e-15
4.419945e-15
6.0861645e-15
8.0988408e-15
1.0377625e-14
1.2891526e-14
1.5723031e-14
1.9113908e-14
2.3059134e-14
2.7632954e-14
3.2919113e-14
3.8947734e-14
4.563803e-14
5.2465313e-14
5.9248807e-14
6.1672486e-14
5.7177061e-14
4.2495329e-14
2.8531207e-14
6.2920928e-14
9.770028e-14
1.1610576e-13
1.2830562e-13
9.0891899e-14
6.624898e-14
2.319701e-14
2.526686e-15
4.9293736e-17
2.2622229e-17
3.0962555e-31
2.2502674e-30
4.0840183e-31
6.858059e-31
4.500735e-31
7.9327717e-29
2.6343082e-18
8.3011581e-17
6.2740829e-16
5.7183609e-15
3.9206952e-15
6.3766347e-15
5.9246441e-15
6.2162261e-15
5.7304437e-15
5.019312e-15
4.0844805e-15
3.1417723e-15
2.2559882e-15
1.5490277e-15
1.063514e-15
7.3742828e-16
5.4318787e-16
5.625693e-16
5.8211919e-16
6.0211149e-16
6.2326279e-16
6.4533334e-16
6.6930226e-16
6.9627965e-16
7.2591995e-16
7.5759478e-16
7.910551e-16
8.26304e-16
8.6358584e-16
9.0302346e-16
9.4448454e-16
9.8650673e-16
1.0261852e-15
6.6912477e-16
4.4596489e-16
3.1016253e-16
2.2620016e-16
1.7356892e-16
1.4046289e-16
1.2012083e-16
1.0856924e-16
1.0439934e-16
1.0611747e-16
1.0745878e-16
1.0791369e-16
1.0815054e-16
1.0831156e-16
1.0832683e-16
1.0818731e-16
1.0791506e-16
1.0751524e-16
1.0697961e-16
1.0634292e-16
1.0568105e-16
1.0506512e-16
1.0460035e-16
1.045677e-16
1.0480046e-16
1.0521572e-16
1.0579884e-16
1.0650939e-16
1.0731408e-16
1.081904e-16
1.091024e-16
1.1000183e-16
1.1080015e-16
1.1144569e-16
1.1190053e-16
1.1213794e-16
1.12162e-16
1.1202141e-16
1.1179294e-16
1.1155579e-16
1.1137357e-16
1.1128911e-16
1.113288e-16
1.1150328e-16
1.1181417e-16
1.1225457e-16
1.1281315e-16
1.1347451e-16
1.1421163e-16
1.1499781e-16
1.1588439e-16
1.1611293e-16
1.1709513e-16
1.1736241e-16
1.1716532e-16
1.1636343e-16
1.1489209e-16
1.1284014e-16
1.10539e-16
1.0816354e-16
1.0598724e-16
1.0427326e-16
1.0306805e-16
1.0310835e-16
1.0456339e-16
1.0704019e-16
1.1058392e-16
1.1498147e-16
1.1922214e-16
1.2234104e-16
1.246115e-16
1.2656633e-16
1.2849148e-16
1.3035086e-16
1.3188209e-16
1.3270649e-16
1.324231e-16
1.3069739e-16
1.2736464e-16
1.2255631e-16
1.1690672e-16
1.1104067e-16
1.0551475e-16
1.0093559e-16
9.7885738e-17
9.6906151e-17
9.845112e-17
1.021167e-16
1.0537902e-16
1.0798193e-16
1.1281519e-16
1.1875885e-16
1.2194038e-16
1.2142503e-16
1.1882123e-16
1.158047e-16
1.1323664e-16
1.1131441e-16
1.0988753e-16
1.0861601e-16
1.07012e-16
1.046264e-16
1.0142952e-16
9.8060417e-17
9.5843461e-17
9.5933674e-17
9.8215604e-17
1.0121971e-16
1.045884e-16
1.0827172e-16
1.1221482e-16
1.1638886e-16
1.2074183e-16
1.2514072e-16
1.2892745e-16
1.3050741e-16
1.2215278e-16
1.0782384e-16
1.0392779e-16
1.0903809e-16
1.2279508e-16
1.4773904e-16
1.8880613e-16
2.558959e-16
3.6561703e-16
5.472543e-16
8.5099517e-16
8.9781603e-16
8.6412024e-16
8.3164582e-16
8.0096716e-16
7.7207438e-16
7.4499078e-16
7.1976268e-16
6.9648487e-16
6.753155e-16
7.7916154e-16
1.0021868e-15
1.2664181e-15
1.59924e-15
2.0058928e-15
2.5026876e-15
3.1091822e-15
3.8426307e-15
4.7122648e-15
5.6738016e-15
6.7302178e-15
7.3118584e-15
7.03818e-15
5.446778e-15
3.8962486e-15
8.070175e-15
1.2050691e-14
1.3694477e-14
1.3993367e-14
9.1825258e-15
5.8239029e-15
1.7051814e-15
2.0816363e-16
7.4759071e-18
1.2055875e-20
2.1398671e-27
6.7434842e-31
5.8741661e-31
2.0552245e-24
3.7755039e-22
3.5844801e-25
1.512562e-21
2.2444877e-17
1.0844422e-16
4.2988705e-16
3.4139447e-16
6.1145616e-16
6.0390684e-16
6.5629239e-16
6.1668737e-16
5.4205713e-16
4.3690971e-16
4.4905775e-16
4.7665154e-16
5.0176506e-16
5.2424592e-16
5.4523973e-16
5.6568142e-16
5.8589666e-16
6.0629227e-16
6.2714481e-16
6.4921944e-16
6.7216151e-16
6.9685178e-16
7.2448718e-16
7.5476373e-16
7.8705612e-16
8.2109983e-16
5.5513437e-16
3.6324369e-16
2.3449453e-16
1.5075875e-16
9.7962985e-17
6.5870996e-17
4.6815815e-17
3.5284705e-17
2.8141757e-17
2.3597305e-17
2.0617865e-17
1.859591e-17
1.716878e-17
1.6085705e-17
1.5246127e-17
1.4327268e-17
1.3401286e-17
1.2799281e-17
1.2349722e-17
1.1991865e-17
1.1682118e-17
1.1402307e-17
1.1143698e-17
1.0900112e-17
1.0665236e-17
1.0439448e-17
1.022878e-17
1.0038935e-17
9.8805246e-18
9.7833165e-18
9.7265265e-18
9.6983743e-18
9.6958032e-18
9.7131301e-18
9.7457884e-18
9.7905886e-18
9.8428961e-18
9.8968184e-18
9.9418712e-18
9.9725927e-18
9.9846115e-18
9.9748761e-18
9.9438019e-18
9.8967656e-18
9.8422166e-18
9.7887861e-18
9.743303e-18
9.710248e-18
9.6923154e-18
9.6905098e-18
9.704948e-18
9.7348771e-18
9.7789926e-18
9.8355224e-18
9.9014263e-18
9.9739124e-18
1.0053233e-17
1.0095036e-17
1.0171243e-17
1.0193447e-17
1.0167303e-17
1.0077677e-17
9.9175668e-18
9.6949337e-18
9.4454313e-18
9.1888621e-18
8.9540412e-18
8.7680882e-18