/*--------------------------------*- C++ -*----------------------------------*\
| =========                 |                                                 |
| \\      /  F ield         | OpenFOAM: The Open Source CFD Toolbox           |
|  \\    /   O peration     | Version:  2.4.0                                 |
|   \\  /    A nd           | Web:      www.OpenFOAM.org                      |
|    \\/     M anipulation  |                                                 |
\*---------------------------------------------------------------------------*/
FoamFile
{
    version     2.0;
    format      ascii;
    class       volVectorField;
    location    "350";
    object      U;
}
// * * * * * * * * * * * * * * * * * * * * * * * * * * * * * * * * * * * * * //

dimensions      [0 1 -1 0 0 0 0];

internalField   nonuniform List<vector> 
32000
(
(0.0071416401 3.5890554e-05 -1.6355425e-21)
(0.00576717 1.5569584e-06 -2.1759005e-22)
(0.0072252252 -0.00019783512 -5.2085058e-22)
(0.005621626 -0.00043632128 -1.6298446e-20)
(0.0034026431 -0.00051462134 4.0661739e-20)
(0.00041237949 -0.0001083635 1.2489976e-19)
(-0.0017413836 0.00061242518 -3.3142483e-20)
(-0.0022021609 0.0010398243 -1.4316653e-20)
(-0.0017409512 0.00099823894 -9.3934971e-20)
(-0.001353432 0.00088712225 4.1758671e-20)
(-0.0011484209 0.00082715777 3.7491038e-20)
(-0.001027964 0.00079119457 7.1572303e-20)
(-0.00093076621 0.00075094786 5.9847005e-20)
(-0.00082222557 0.00068472317 2.9379966e-20)
(-0.00071877501 0.00060975196 -1.8839969e-22)
(-0.00063048391 0.00053818336 1.0255152e-20)
(-0.00054642184 0.00046386185 1.1787533e-21)
(-0.0004682973 0.00039175853 -5.5413957e-21)
(-0.0003959107 0.00032616466 -5.134089e-21)
(-0.00032652197 0.00026529993 -6.359337e-21)
(-0.0002566936 0.00020596763 -3.422923e-21)
(-0.00018580149 0.00014749979 2.8618823e-21)
(-0.00010843887 8.5421147e-05 1.0274252e-20)
(-2.4238185e-05 1.9272084e-05 -3.0893457e-21)
(6.6988151e-05 -5.1309915e-05 -4.5702829e-21)
(0.00016138935 -0.00012362563 1.397724e-20)
(0.00025026597 -0.0001913124 -9.2668352e-21)
(0.00033104496 -0.00025185072 -1.2282307e-20)
(0.00039646177 -0.00029848429 1.1808734e-20)
(0.00044212737 -0.00032744278 -3.2665696e-20)
(0.00046255836 -0.0003348504 4.5400422e-21)
(0.00045441019 -0.00031929408 -2.7696754e-20)
(0.00041858496 -0.00028323365 -3.9651007e-20)
(0.0003616155 -0.00023343622 2.4428635e-20)
(0.00029705162 -0.00018079972 4.8469748e-20)
(0.00024207058 -0.00013694244 -2.2163985e-20)
(0.00020603594 -0.00010682149 7.7357421e-21)
(0.00018793284 -8.8272627e-05 1.8788043e-20)
(0.00018702965 -7.85757e-05 -2.9501582e-20)
(0.00020345719 -7.5297187e-05 1.063828e-20)
(0.00023607698 -7.545225e-05 9.5996959e-21)
(0.00028368312 -7.6146203e-05 3.4859594e-20)
(0.00034501254 -7.4638072e-05 1.1417827e-20)
(0.00041846728 -6.835982e-05 -3.0993483e-21)
(0.00050429792 -5.5270304e-05 2.154086e-20)
(0.00060116967 -3.3206456e-05 8.1950023e-22)
(0.00073118651 -5.7324795e-06 -3.7013799e-22)
(0.00087537107 -1.1670355e-06 2.5641172e-25)
(0.00099867881 -1.1729385e-06 -3.9050167e-24)
(0.0011089826 -1.1503482e-06 3.988552e-24)
(0.0011974246 -1.0791587e-06 -2.9574895e-24)
(0.0012565062 -9.4882225e-07 5.1553989e-25)
(0.0012766291 -7.5978272e-07 5.6914524e-24)
(0.0012494934 -5.1735877e-07 -3.577177e-24)
(0.0011673534 -2.2002336e-07 4.5588095e-26)
(0.00102422 1.0725523e-07 -1.6308854e-24)
(0.00082059101 4.224081e-07 1.6172534e-24)
(0.00056649268 6.7575158e-07 -6.2420612e-24)
(0.00028197573 8.2653616e-07 -5.3858231e-26)
(-9.2554662e-06 8.0174297e-07 5.8976903e-24)
(-0.00025892071 7.0822512e-07 -1.7871194e-24)
(-0.00048245597 6.8416827e-07 9.998343e-25)
(-0.000695786 6.7860595e-07 2.1138408e-24)
(-0.0008922925 6.6202436e-07 6.935402e-26)
(-0.0010663148 6.3451176e-07 2.0966002e-24)
(-0.0012124865 5.9514426e-07 2.087478e-24)
(-0.0013264948 5.3907876e-07 -2.9331037e-24)
(-0.0014031241 4.7078244e-07 1.578686e-24)
(-0.0014421433 4.0497061e-07 -4.9414084e-24)
(-0.0014480378 3.5852708e-07 1.2095192e-25)
(-0.0014276978 3.3517488e-07 -6.1960211e-25)
(-0.0013897828 3.3958396e-07 8.715847e-25)
(-0.0013441691 3.7490919e-07 -5.0444749e-25)
(-0.0013006797 4.3589982e-07 1.9493324e-25)
(-0.0012664083 5.0816562e-07 1.2928263e-24)
(-0.0012436548 5.7302573e-07 9.3347967e-25)
(-0.001229968 6.1465653e-07 -8.3922705e-25)
(-0.0012195718 6.2419747e-07 2.0661642e-25)
(-0.0012047224 5.9492214e-07 -3.9992617e-25)
(-0.0011765243 5.2246432e-07 4.364342e-26)
(-0.0011261546 4.0680258e-07 2.8279677e-26)
(-0.0010449572 2.4790247e-07 7.6948882e-25)
(-0.0009242335 4.6897853e-08 -4.9203422e-25)
(-0.0007558079 -1.9406435e-07 -2.1253688e-25)
(-0.00053155939 -4.720291e-07 -2.2269784e-25)
(-0.00024480998 -7.7604282e-07 1.1603755e-24)
(0.00010672247 -1.0892924e-06 -6.9873908e-25)
(0.0005221493 -1.3904167e-06 -8.1536996e-25)
(0.00099429963 -1.6448092e-06 4.3091081e-25)
(0.0015056513 -1.8000552e-06 -1.4021352e-25)
(0.0020240639 -1.7863754e-06 -1.1956644e-25)
(0.0024983946 -1.5292551e-06 8.0257051e-25)
(0.0028609284 -9.8039204e-07 -6.0443555e-25)
(0.0030365351 -1.5799372e-07 1.1915204e-24)
(0.0029660362 8.2909704e-07 -1.65692e-25)
(0.0026244892 1.8006109e-06 -1.029691e-25)
(0.0020369511 2.5249627e-06 2.2505666e-26)
(0.00129078 2.8500221e-06 -1.0347513e-25)
(0.00049618748 2.746507e-06 -2.3033947e-25)
(-0.00023671208 2.2713076e-06 2.0168412e-26)
(-0.00081545934 1.5538813e-06 7.1419747e-26)
(-0.0011839228 8.017597e-07 1.8801816e-25)
(-0.0013475182 9.7287598e-08 -7.6149536e-25)
(-0.001309274 -7.2381019e-07 -2.1665702e-25)
(-0.0010078226 -1.79435e-06 -5.4143222e-25)
(-0.00038069843 -2.8343346e-06 -1.6884726e-25)
(0.00048895667 -3.4598106e-06 -6.7858104e-26)
(0.0014771791 -3.7625075e-06 1.5729414e-24)
(0.0025599369 -4.0704599e-06 1.9819162e-24)
(0.0037766744 -4.4769162e-06 -2.1274252e-25)
(0.0051617193 -4.8758459e-06 -4.4748802e-24)
(0.0067071506 -5.0525005e-06 3.3803337e-25)
(0.0083439941 -4.7787368e-06 2.0331728e-25)
(0.0099410338 -3.8607338e-06 2.4985057e-24)
(0.011311707 -2.1948823e-06 -2.5504109e-25)
(0.012236494 1.6328325e-07 -1.6505045e-25)
(0.01250916 2.8823619e-06 1.133345e-24)
(0.012025385 5.5866273e-06 -1.0741329e-24)
(0.010752559 7.743221e-06 -2.5294439e-24)
(0.0088552775 8.8005437e-06 2.9812964e-24)
(0.006651397 8.5078882e-06 1.5856534e-25)
(0.0045240746 7.0579323e-06 -3.244537e-24)
(0.0028053806 5.0116668e-06 1.2735352e-25)
(0.0016553692 3.0067817e-06 1.7390438e-25)
(0.0010540356 1.3853314e-06 4.1184341e-24)
(0.00090184336 5.6488727e-07 -1.3514832e-25)
(0.00077959509 8.0497335e-07 4.3518675e-25)
(0.00051151403 5.1655866e-07 1.6597315e-25)
(0.00057111535 -1.4173244e-06 6.8278781e-26)
(0.0012635385 -3.3588866e-06 6.2897861e-26)
(0.0022727112 -3.5446673e-06 -6.4358591e-24)
(0.0031640284 -2.319368e-06 7.0973685e-24)
(0.0037596218 -8.414396e-07 -7.1934292e-24)
(0.0040896173 2.2571443e-07 4.0533747e-24)
(0.0042619019 7.6205983e-07 -4.2469958e-24)
(0.004374844 9.4192171e-07 3.2332043e-17)
(0.0045009715 9.1984315e-07 3.442876e-17)
(0.0046939364 8.8601871e-07 5.2263019e-24)
(0.0049535174 1.1756261e-06 -3.9271263e-17)
(0.0051949773 2.1237099e-06 -4.2735949e-17)
(0.0052651554 3.9523119e-06 -2.4608315e-23)
(0.004961291 6.7128874e-06 7.1725632e-24)
(0.0040893207 9.9110624e-06 -1.6111826e-23)
(0.002625993 1.2533316e-05 8.2219557e-24)
(0.00077778404 1.3849125e-05 2.2872685e-23)
(-0.0012313693 1.3926984e-05 -4.6253194e-23)
(-0.0032923059 1.3196113e-05 3.7908813e-23)
(-0.0053326442 1.1903439e-05 -5.3865269e-23)
(-0.0073167188 1.0184182e-05 9.9032514e-23)
(-0.0092122391 8.0459126e-06 -5.6156747e-23)
(-0.011019584 5.294234e-06 -1.3004487e-23)
(-0.012550787 1.2873715e-06 1.0253995e-24)
(-0.013713361 -5.0785178e-06 1.3778531e-24)
(-0.012337173 -9.2392044e-05 5.1634474e-21)
(-0.0097282956 -0.00053678422 3.4811056e-19)
(-0.0086386589 -0.00095070999 5.1957526e-20)
(-0.007775296 -0.0012788226 -1.0314252e-19)
(-0.0072242808 -0.0015786562 8.4149263e-20)
(-0.0068770058 -0.0018681045 -4.9945946e-19)
(-0.0066683319 -0.0021576726 -3.6995277e-19)
(-0.0065635977 -0.0024604329 7.4536421e-19)
(-0.0065622841 -0.0027882673 -1.6127696e-19)
(-0.0066286304 -0.0031399649 -3.0918138e-19)
(-0.0067418481 -0.0035133971 -2.9369276e-19)
(-0.0069160847 -0.0039218709 1.002016e-18)
(-0.0072294936 -0.0044067346 4.5007157e-19)
(-0.0076546698 -0.0049451055 9.972157e-20)
(-0.0081055688 -0.0054860539 1.0925604e-18)
(-0.0085515958 -0.0060078142 1.0090384e-18)
(-0.0089708662 -0.0064894694 -5.4661237e-19)
(-0.0093474435 -0.006913805 9.1606771e-19)
(-0.0096707184 -0.0072667343 1.3952567e-20)
(-0.0099345748 -0.0075382906 -9.649459e-19)
(-0.01009536 -0.0076936577 4.0585424e-19)
(-0.01008205 -0.0077011386 -1.0593619e-19)
(-0.0098675069 -0.0075640665 -1.9836658e-19)
(-0.0094966317 -0.0073301042 2.4658662e-19)
(-0.0090286031 -0.0070240474 1.2304593e-21)
(-0.0084621468 -0.0066456264 -1.552267e-19)
(-0.0078162515 -0.0062065111 -3.9217754e-20)
(-0.0071049626 -0.0057127975 -1.3102136e-20)
(-0.0063361896 -0.0051652946 3.1306889e-19)
(-0.0055156355 -0.0045645723 5.7091864e-19)
(-0.004662168 -0.0039136173 1.609167e-19)
(-0.0037613219 -0.0031722096 -9.5870056e-19)
(-0.0027661891 -0.0023152576 -2.8644719e-19)
(-0.0014826144 -0.0012126708 6.5231328e-19)
(0.00024146841 0.00020511006 -7.1945784e-19)
(0.0022185426 0.0017002542 1.9031584e-19)
(0.0046622225 0.0033291713 2.6087137e-19)
(0.0077669043 0.0050443694 6.2151973e-19)
(0.011569616 0.0065815322 -3.7938808e-19)
(0.015817677 0.0074405146 1.1218162e-19)
(0.018961502 0.0067256161 -1.0042323e-20)
(0.01919298 0.0046775421 -1.651505e-21)
(0.016930945 0.0025523189 4.4633095e-20)
(0.013621172 0.0010713512 2.3531882e-20)
(0.0099667405 0.00028085259 -2.5637055e-21)
(0.0078546561 1.7346044e-06 1.376087e-22)
(0.0048818746 -2.4694688e-05 3.773134e-22)
(0.021693354 0.00010195013 3.8854233e-21)
(0.017845115 3.6936259e-06 4.4371778e-22)
(0.021878777 -0.00059783841 1.239797e-20)
(0.01723543 -0.0013011182 4.4498875e-20)
(0.010680204 -0.0015516496 -1.1486903e-20)
(0.0017562849 -0.00036423641 -2.2895369e-19)
(-0.0049095923 0.001799557 -2.1503934e-20)
(-0.006525839 0.0031176958 5.2392516e-20)
(-0.0052384463 0.0030161025 5.8670005e-20)
(-0.0040933141 0.0026908503 -2.2730954e-20)
(-0.0034750756 0.0025119016 -6.2323157e-20)
(-0.0031087586 0.0024030492 -9.0716686e-20)
(-0.0028138975 0.0022806556 -1.2323006e-19)
(-0.0024872365 0.0020803588 -7.1891826e-21)
(-0.0021752865 0.0018532902 1.5965187e-20)
(-0.0019085636 0.0016360808 -3.0534919e-20)
(-0.0016551988 0.0014105641 -3.8087706e-20)
(-0.0014198169 0.0011917131 -3.0619976e-21)
(-0.0012013846 0.0009924211 -1.340918e-20)
(-0.0009921368 0.00080753961 -6.8470805e-21)
(-0.00078178812 0.00062749015 -1.6401453e-20)
(-0.00056823857 0.00045002528 8.5667777e-21)
(-0.00033568363 0.00026185173 -1.3298502e-20)
(-8.2630697e-05 6.1417376e-05 -3.5451048e-21)
(0.00019189015 -0.0001525418 -6.4918268e-21)
(0.00047663889 -0.00037193735 -5.0214471e-21)
(0.00074518048 -0.00057739781 3.5467265e-20)
(0.00098988706 -0.00076134136 4.5841293e-20)
(0.0011892369 -0.00090345359 -2.2842983e-20)
(0.0013299857 -0.00099225477 4.5858968e-20)
(0.0013955792 -0.0010159496 8.8313073e-21)
(0.001375521 -0.00097008597 9.8487049e-21)
(0.0012717591 -0.00086186802 2.2037036e-20)
(0.0011028286 -0.00071148374 -2.631004e-20)
(0.00090841835 -0.0005517352 -1.1482263e-20)
(0.00073992679 -0.00041779177 5.7484992e-20)
(0.00062644311 -0.00032496669 -3.2377472e-20)
(0.00056602278 -0.0002671486 -1.8028347e-20)
(0.00055701715 -0.00023636148 -2.423315e-21)
(0.0006003016 -0.00022539786 7.4546139e-21)
(0.00069272268 -0.0002252873 -1.6692348e-20)
(0.00083060175 -0.00022723555 -4.4537909e-20)
(0.0010099167 -0.00022287897 -4.3048632e-21)
(0.0012258161 -0.0002044624 5.2128994e-21)
(0.0014787312 -0.00016577018 -1.1449228e-20)
(0.0017646499 -0.00010057827 -8.4810163e-22)
(0.0021466411 -1.9186244e-05 -8.5574198e-23)
(0.0025702906 -5.2733646e-06 1.7816284e-24)
(0.0029348601 -4.66474e-06 -6.1353148e-24)
(0.0032617419 -3.989608e-06 7.8531105e-24)
(0.0035250155 -3.0039552e-06 -1.9620308e-24)
(0.0037023953 -1.6757349e-06 -7.2110229e-24)
(0.0037655999 -1.8709507e-09 5.7168309e-24)
(0.0036898842 1.9780098e-06 -4.2990204e-25)
(0.003451876 4.2307649e-06 -4.935059e-25)
(0.0030329069 6.588833e-06 -1.772936e-24)
(0.0024329752 8.7386077e-06 6.5123613e-25)
(0.0016797001 1.0304144e-05 -1.9010388e-24)
(0.00083085806 1.1030031e-05 1.1198968e-23)
(-4.6691398e-05 1.033571e-05 -1.2419415e-23)
(-0.00080619499 9.058573e-06 -1.9567079e-24)
(-0.0014866206 8.4114997e-06 1.1474128e-23)
(-0.0021323712 7.8954423e-06 -3.8158096e-24)
(-0.0027236618 7.1458006e-06 2.676061e-24)
(-0.003243437 6.1822112e-06 -6.6094947e-24)
(-0.0036758869 5.0336821e-06 2.2240873e-24)
(-0.0040085228 3.6989818e-06 3.972153e-24)
(-0.0042263046 2.2591379e-06 -6.272051e-25)
(-0.0043291485 9.0143634e-07 -6.0559037e-24)
(-0.0043309372 -2.2981515e-07 -3.3151802e-25)
(-0.0042525796 -1.0612631e-06 8.4391033e-24)
(-0.0041203133 -1.5373332e-06 -8.8339738e-24)
(-0.0039640626 -1.6341749e-06 8.2838804e-24)
(-0.0038137238 -1.4055035e-06 -5.3425274e-24)
(-0.0036911561 -9.9670722e-07 3.0894245e-24)
(-0.0036039224 -5.9235413e-07 -5.6218883e-25)
(-0.0035453204 -3.4837761e-07 -9.5235718e-25)
(-0.0034984496 -3.6361098e-07 9.5544837e-26)
(-0.0034403923 -6.9941823e-07 -7.0922407e-26)
(-0.0033448132 -1.379296e-06 -2.349125e-25)
(-0.0031854188 -2.3984442e-06 -2.5325879e-25)
(-0.002936318 -3.7558216e-06 5.4119215e-25)
(-0.0025715921 -5.4421571e-06 -1.0431166e-24)
(-0.0020669475 -7.4444686e-06 -6.3435208e-26)
(-0.0013983308 -9.7338407e-06 -4.6669252e-25)
(-0.00054614462 -1.2198985e-05 1.0166904e-24)
(0.00049597263 -1.4691505e-05 1.344321e-24)
(0.0017254597 -1.7028582e-05 -5.0096658e-25)
(0.0031216328 -1.88932e-05 -1.6950337e-24)
(0.0046336525 -1.9803497e-05 4.2426533e-24)
(0.006168345 -1.9111826e-05 -3.3379141e-24)
(0.0075775467 -1.612751e-05 1.5583343e-24)
(0.0086647736 -1.0386985e-05 -5.9175051e-25)
(0.0092108913 -2.0480096e-06 4.3284295e-25)
(0.0090408583 7.9197864e-06 -1.7595173e-26)
(0.0080758356 1.7888515e-05 -2.596667e-26)
(0.0063775971 2.5682627e-05 7.9792607e-26)
(0.0041909085 2.9680872e-05 3.8016808e-25)
(0.0018333584 2.9432467e-05 -3.8017318e-25)
(-0.00036951767 2.526997e-05 4.617222e-26)
(-0.0021345713 1.8226313e-05 -2.5019747e-25)
(-0.0032746347 1.0238568e-05 -3.0628127e-25)
(-0.0037871989 2.4367102e-06 9.0738227e-25)
(-0.0036782446 -6.502717e-06 -3.9915516e-26)
(-0.0027762487 -1.7869898e-05 -3.5573578e-26)
(-0.00090865118 -2.8859357e-05 -2.861724e-24)
(0.0016698079 -3.579237e-05 4.0707604e-24)
(0.0045945771 -3.9799011e-05 -1.6990102e-24)
(0.0077957557 -4.4124816e-05 4.2248352e-24)
(0.011383545 -4.9870969e-05 -8.8283948e-24)
(0.015452622 -5.6129629e-05 1.0704896e-23)
(0.019976922 -6.0901245e-05 -7.8580816e-24)
(0.024757174 -6.1833997e-05 -7.4406584e-25)
(0.029417979 -5.6679863e-05 1.3823186e-24)
(0.033427648 -4.3750428e-05 2.5010485e-24)
(0.036159616 -2.2662731e-05 -1.1838174e-24)
(0.037020303 4.3642818e-06 -1.028515e-24)
(0.035703024 3.409457e-05 -2.8984307e-24)
(0.032083054 6.1334287e-05 -8.3939491e-25)
(0.026596837 7.9349983e-05 -3.9860088e-24)
(0.020135536 8.3795415e-05 9.1437888e-24)
(0.013809779 7.4386616e-05 -8.7174981e-24)
(0.0086211952 5.547855e-05 1.7617301e-23)
(0.0050953233 3.3931354e-05 -3.5124378e-24)
(0.0032267741 1.4842536e-05 -1.0215954e-24)
(0.0027254587 5.2841544e-06 -1.0074543e-24)
(0.0023379212 7.3414166e-06 -3.5551036e-24)
(0.0015841345 4.1857573e-06 1.454953e-24)
(0.0018539454 -1.4261773e-05 -3.5314119e-24)
(0.0039595552 -3.2935152e-05 -9.6057861e-25)
(0.0069314719 -3.6856874e-05 1.3815877e-24)
(0.0095268092 -2.8672294e-05 -3.5626502e-24)
(0.011257615 -1.7632748e-05 -1.3830709e-24)
(0.012222038 -9.3393222e-06 -1.5885531e-24)
(0.012730481 -5.1392115e-06 2.061965e-23)
(0.013064096 -4.2081749e-06 -2.8538302e-23)
(0.013429541 -5.6515505e-06 2.7379568e-23)
(0.013971319 -8.1031395e-06 -1.5478898e-23)
(0.014672131 -8.8864826e-06 -1.9542861e-24)
(0.015267376 -5.0108331e-06 -6.606368e-24)
(0.015290917 5.7052799e-06 -3.4459179e-24)
(0.01414115 2.4017904e-05 1.7671665e-23)
(0.011279111 4.6535282e-05 2.6773075e-23)
(0.006698335 6.5528505e-05 -3.2136492e-23)
(0.00106019 7.6130831e-05 -1.1396598e-23)
(-0.0049672094 8.003364e-05 3.4432187e-24)
(-0.011084567 8.0312711e-05 2.9531034e-23)
(-0.017089709 7.8405877e-05 -3.0778075e-24)
(-0.022880314 7.5148832e-05 -3.6686912e-24)
(-0.028359959 7.0976399e-05 2.6974219e-23)
(-0.03350532 6.3599813e-05 -4.5692878e-24)
(-0.037765672 4.9614931e-05 4.225965e-24)
(-0.040799064 5.4959223e-07 -1.0238984e-22)
(-0.036820254 -0.00031692028 -2.3936404e-22)
(-0.029431509 -0.0016730207 1.2719077e-20)
(-0.026225075 -0.0029166906 6.5974021e-19)
(-0.023708009 -0.0039223835 -2.8667368e-19)
(-0.022096977 -0.0048423584 4.3364087e-19)
(-0.021080181 -0.0057323495 7.5283551e-19)
(-0.020470335 -0.0066232021 1.3763362e-18)
(-0.020166217 -0.0075535265 -1.1647007e-18)
(-0.020162682 -0.0085573007 -1.2362357e-19)
(-0.020358033 -0.0096322046 1.437196e-18)
(-0.020693582 -0.010772269 2.6519045e-19)
(-0.021211953 -0.012016806 8.2155908e-19)
(-0.022126271 -0.013481525 -1.7648714e-18)
(-0.023350896 -0.015096345 4.1600754e-19)
(-0.024640789 -0.016712683 -1.0426788e-18)
(-0.025907355 -0.018265164 -9.3298806e-19)
(-0.027087301 -0.019691758 1.147914e-18)
(-0.028135125 -0.020941645 -1.4656511e-18)
(-0.029020456 -0.021973204 4.2843566e-19)
(-0.029722764 -0.022755725 1.312983e-18)
(-0.030117618 -0.023188337 -1.6742091e-20)
(-0.030006275 -0.023182332 2.7103961e-19)
(-0.029317117 -0.022751481 8.1422305e-20)
(-0.028177434 -0.022034803 5.1109558e-20)
(-0.026754526 -0.021102897 -2.5981697e-21)
(-0.025046769 -0.019956669 -1.1819423e-19)
(-0.023108953 -0.018629996 3.7383098e-20)
(-0.020981066 -0.017140436 2.3155943e-19)
(-0.01868585 -0.015490039 -8.186871e-19)
(-0.016239697 -0.01368002 -3.808852e-19)
(-0.013694377 -0.011716676 -5.5517288e-19)
(-0.011006997 -0.009480039 1.5227429e-19)
(-0.008037253 -0.0068956429 9.8878564e-19)
(-0.0041962712 -0.0035676198 -6.5252127e-19)
(0.00094152436 0.00069988202 -5.2303398e-19)
(0.0067816341 0.0051736026 1.4910146e-18)
(0.013981918 0.010032459 -1.6719542e-18)
(0.023099822 0.015124821 -1.2322937e-18)
(0.034226704 0.019658987 1.0289966e-19)
(0.04660956 0.022158527 -2.0062916e-19)
(0.055857715 0.02003603 -3.6896361e-20)
(0.056861156 0.014020473 2.0270077e-19)
(0.050672827 0.0077428056 4.3940659e-20)
(0.041245488 0.0033177226 -9.4108023e-20)
(0.03063244 0.00091518636 -4.1855222e-21)
(0.024276728 5.1562461e-05 -1.2342767e-21)
(0.015582834 -6.9230033e-05 3.9457295e-21)
(0.036966034 0.00016295989 6.0054032e-22)
(0.030855669 4.7396041e-06 2.4141715e-22)
(0.0371327 -0.0010084718 1.1838811e-21)
(0.029588976 -0.0021719308 -7.5047894e-20)
(0.018692453 -0.0026271847 -5.6746454e-20)
(0.0037327311 -0.00070479554 2.1698838e-19)
(-0.0078110457 0.0029265019 8.9322545e-20)
(-0.010889682 0.0052119641 2.3824245e-20)
(-0.0088608306 0.0050893892 3.1540279e-20)
(-0.0069545641 0.0045616246 1.484094e-20)
(-0.005907043 0.0042641898 -1.1714604e-20)
(-0.0052825637 0.0040798973 5.7422847e-20)
(-0.0047808615 0.0038712791 9.3314019e-20)
(-0.0042282689 0.0035324856 -5.8846359e-21)
(-0.0036995782 0.0031481267 -5.46485e-20)
(-0.0032466951 0.0027796032 -2.7539553e-21)
(-0.0028170767 0.002397126 1.9937298e-20)
(-0.0024179785 0.0020259548 3.338096e-20)
(-0.0020472577 0.0016876273 1.0409978e-20)
(-0.0016923528 0.0013737915 5.9306162e-22)
(-0.0013360043 0.0010684664 1.4375491e-20)
(-0.00097430258 0.00076739277 -9.7490532e-21)
(-0.00058112065 0.00044859424 -1.4676625e-20)
(-0.00015343214 0.0001091674 7.7788299e-21)
(0.00031097667 -0.00025335289 3.1093534e-21)
(0.00079362239 -0.00062540273 3.1506476e-21)
(0.0012494422 -0.0009739713 -2.8026553e-20)
(0.0016656168 -0.0012863038 -1.9296954e-20)
(0.0020061949 -0.0015283124 2.1160555e-20)
(0.0022487057 -0.0016804824 5.5633377e-21)
(0.0023651095 -0.0017227675 2.5407942e-20)
(0.0023371111 -0.0016473444 -5.8004384e-21)
(0.0021670357 -0.0014659785 3.8518506e-20)
(0.0018847749 -0.0012122762 2.7567993e-20)
(0.0015559986 -0.00094135883 -2.7299824e-20)
(0.0012671012 -0.00071264982 4.6933077e-21)
(0.0010683523 -0.00055256592 -1.9852606e-20)
(0.00095793941 -0.00045160334 -3.2312087e-20)
(0.00093376828 -0.0003967914 1.8956248e-20)
(0.00099794839 -0.00037627772 -6.7642903e-20)
(0.0011455797 -0.00037503437 3.5406565e-20)
(0.0013704186 -0.00037815125 3.0550078e-20)
(0.001665372 -0.00037138272 8.9845407e-21)
(0.0020222454 -0.00034167251 1.3674532e-20)
(0.0024413216 -0.00027847504 -8.3354044e-21)
(0.0029161146 -0.00017186226 9.3999015e-21)
(0.0035483082 -3.8344063e-05 -5.9402505e-22)
(0.0042494363 -1.5167856e-05 6.3843457e-24)
(0.0048560081 -1.3339274e-05 -1.8147496e-24)
(0.0054008347 -1.1346113e-05 -4.0687338e-24)
(0.0058413916 -8.4376577e-06 -7.069347e-25)
(0.0061403939 -4.540749e-06 7.7270212e-25)
(0.0062509795 3.7601703e-07 6.454874e-24)
(0.0061316999 6.220763e-06 -1.3437535e-23)
(0.0057430842 1.2869561e-05 9.8118107e-24)
(0.0050527803 1.9864087e-05 4.8198836e-24)
(0.0040586948 2.6303788e-05 -6.7685985e-24)
(0.0028037989 3.1071515e-05 -4.1146024e-24)
(0.0013819531 3.3431759e-05 5.1306311e-24)
(-0.00010074491 3.1591934e-05 -5.7046816e-25)
(-0.0013946187 2.7780849e-05 8.4649886e-24)
(-0.0025541342 2.566666e-05 -1.0531501e-23)
(-0.0036494131 2.3947649e-05 2.6082596e-24)
(-0.0046472357 2.1519657e-05 -1.4775354e-24)
(-0.0055188335 1.8447394e-05 -5.4480808e-25)
(-0.0062380189 1.4826409e-05 1.2004623e-23)
(-0.0067844078 1.0665517e-05 -1.6494353e-23)
(-0.0071336866 6.2101134e-06 1.7141372e-23)
(-0.0072867114 2.0246746e-06 -6.5918941e-24)
(-0.007267482 -1.4832593e-06 -6.4752995e-24)
(-0.0071115156 -4.0771768e-06 4.1780284e-24)
(-0.0068633339 -5.5838009e-06 -4.5574876e-25)
(-0.0065736664 -5.9325159e-06 -7.001749e-25)
(-0.006293361 -5.2806582e-06 -2.5174756e-24)
(-0.0060599543 -4.0613611e-06 3.5313706e-24)
(-0.0058870613 -2.8278839e-06 2.3380696e-24)
(-0.0057642863 -2.0537201e-06 -2.0401417e-24)
(-0.0056637841 -2.0478526e-06 3.6052499e-25)
(-0.0055474398 -2.9962421e-06 -9.317223e-25)
(-0.0053713906 -4.9649075e-06 1.1033923e-25)
(-0.0050915932 -7.9411307e-06 3.6115337e-25)
(-0.0046645831 -1.1920537e-05 -5.2366572e-25)
(-0.0040469937 -1.6873525e-05 1.6149329e-25)
(-0.0031982722 -2.2761111e-05 -2.2875404e-24)
(-0.0020783824 -2.949428e-05 1.7554077e-24)
(-0.00065493691 -3.6734258e-05 -1.4356526e-24)
(0.001081725 -4.4046097e-05 1.7406775e-25)
(0.0031276083 -5.0903621e-05 6.5247209e-25)
(0.0054488993 -5.6378075e-05 9.0675291e-25)
(0.0079623909 -5.9060975e-05 -1.7224051e-24)
(0.010515818 -5.7063586e-05 -1.7556597e-24)
(0.01286736 -4.836915e-05 8.4660166e-25)
(0.014695986 -3.160075e-05 1.3110302e-24)
(0.015642132 -7.1687961e-06 -9.2629359e-25)
(0.015414848 2.2183081e-05 -4.0898657e-25)
(0.013876759 5.1831027e-05 7.3801654e-25)
(0.011112797 7.5458409e-05 -4.6697479e-25)
(0.0075088378 8.8150094e-05 3.9192413e-26)
(0.0035798358 8.8347645e-05 1.814083e-25)
(-0.00013324498 7.6749348e-05 2.3761134e-25)
(-0.0031469957 5.6070919e-05 2.981531e-25)
(-0.0051183457 3.1877136e-05 2.3690314e-25)
(-0.0060149694 7.8521273e-06 4.1633521e-25)
(-0.0058415383 -1.943366e-05 -9.5996374e-25)
(-0.004327378 -5.354095e-05 2.0167984e-24)
(-0.0012041232 -8.615851e-05 -1.0851141e-24)
(0.0030896265 -0.00010666169 -2.6704102e-24)
(0.0079526671 -0.00011860389 3.7408547e-24)
(0.013270541 -0.00013141881 2.2040097e-24)
(0.019216649 -0.00014826677 -4.7076159e-24)
(0.025938644 -0.00016651475 -4.233666e-24)
(0.033389985 -0.00018041823 2.3280148e-24)
(0.041247435 -0.00018320419 1.9173619e-24)
(0.048906844 -0.00016839921 3.4037265e-24)
(0.055515064 -0.00013108727 -2.5315459e-24)
(0.060064504 -7.0016854e-05 -4.8581887e-25)
(0.061590903 8.6395483e-06 3.3124044e-25)
(0.0595834 9.5794147e-05 5.905521e-24)
(0.053797346 0.00017687413 5.7633425e-25)
(0.044880024 0.00023214868 -1.4975143e-23)
(0.034234203 0.00024831892 3.2986297e-24)
(0.023668374 0.00022332525 -3.6172957e-24)
(0.014875913 0.00016876252 1.1347581e-23)
(0.0088123216 0.00010440394 3.9370335e-24)
(0.0055548833 4.6159396e-05 -2.0163875e-25)
(0.0046305547 1.6925224e-05 -1.521787e-23)
(0.0039409335 2.1830029e-05 5.6409201e-24)
(0.002743991 1.0182548e-05 -7.7971966e-24)
(0.0033225171 -4.5104028e-05 9.9391853e-24)
(0.0068943122 -9.8522904e-05 9.4380335e-24)
(0.011810195 -0.00010854173 -1.2999679e-23)
(0.016070672 -8.4340326e-05 -1.3582375e-23)
(0.01891335 -5.2447828e-05 3.9793217e-23)
(0.020508019 -2.8560764e-05 -3.9721233e-23)
(0.021356253 -1.6340533e-05 1.2444721e-23)
(0.021911881 -1.3544085e-05 1.203426e-23)
(0.022507583 -1.7551945e-05 -9.9728314e-24)
(0.023363895 -2.4136485e-05 5.4801671e-24)
(0.024429211 -2.5372463e-05 2.4413869e-23)
(0.025244584 -1.2461532e-05 -1.0602856e-23)
(0.025016016 2.0936764e-05 -3.4935857e-23)
(0.022739638 7.6337955e-05 -1.9103104e-23)
(0.0175683 0.00014271372 1.866412e-23)
(0.0095803317 0.0001968833 7.7757909e-23)
(-4.6855129e-05 0.00022544922 -1.7136093e-23)
(-0.010190251 0.00023493948 3.7096314e-23)
(-0.020394607 0.00023465078 -1.2825496e-22)
(-0.030337232 0.0002284045 -3.2156634e-23)
(-0.039851552 0.0002183918 3.5953448e-23)
(-0.048775926 0.00020575253 4.5172745e-23)
(-0.057034476 0.00018304157 3.8642812e-23)
(-0.063726415 0.00014127971 -3.0679323e-23)
(-0.068164149 -5.9303777e-06 3.41506e-23)
(-0.061684659 -0.00062361801 -1.2361274e-20)
(-0.049904721 -0.0029207089 -8.9778132e-20)
(-0.044593416 -0.0050064689 -7.6247763e-19)
(-0.040471018 -0.0067291731 4.3196803e-19)
(-0.037822597 -0.0083090617 -1.882179e-19)
(-0.036149161 -0.0098415958 -1.3322484e-18)
(-0.035147114 -0.011376732 -2.1000014e-19)
(-0.034650589 -0.012977811 1.7008346e-18)
(-0.034645852 -0.014698235 2.0458558e-19)
(-0.034970448 -0.016536559 -9.3327651e-19)
(-0.035531104 -0.018483601 -3.8826382e-19)
(-0.036400151 -0.020603715 -5.2591725e-19)
(-0.037907189 -0.023074066 -1.7129202e-18)
(-0.039905381 -0.025774947 -1.3683623e-18)
(-0.042000132 -0.028466085 1.1344822e-19)
(-0.044045666 -0.031037816 1.560048e-18)
(-0.045938248 -0.033387843 4.5858102e-19)
(-0.047603677 -0.035432754 -1.1141277e-18)
(-0.048992023 -0.037104119 -1.1667463e-19)
(-0.05006511 -0.038349164 2.2298633e-19)
(-0.050620584 -0.039006183 -2.9009749e-19)
(-0.050341808 -0.038939211 5.7943873e-20)
(-0.049121625 -0.038178459 5.4990101e-20)
(-0.047165689 -0.036948931 -3.1856242e-19)
(-0.044742538 -0.035361645 -1.328708e-21)
(-0.041852338 -0.033421556 8.1790134e-21)
(-0.038584327 -0.031183052 5.5737806e-19)
(-0.035003065 -0.028674144 -3.4234484e-19)
(-0.031145403 -0.025897632 5.5929407e-20)
(-0.027037873 -0.022854591 -2.3249511e-19)
(-0.022760826 -0.019550776 7.4841381e-19)
(-0.018241144 -0.015787172 1.6359899e-18)
(-0.01324077 -0.011440933 -9.971046e-19)
(-0.006758878 -0.005839489 -1.5173477e-18)
(0.0018789021 0.0013217198 -2.8400143e-19)
(0.011625211 0.0087746261 -2.5243712e-18)
(0.023610077 0.016838442 1.4496622e-18)
(0.038725756 0.025243377 2.1876072e-18)
(0.057086508 0.032672446 5.207021e-19)
(0.077412779 0.036707701 -2.0790584e-19)
(0.092676197 0.033214406 2.5260976e-20)
(0.094760623 0.023414019 -4.7553608e-20)
(0.085177538 0.013109501 -2.8060368e-19)
(0.070027483 0.0057440783 7.1666627e-20)
(0.052687462 0.001667662 -2.2214683e-20)
(0.04192751 0.00017041008 -1.4825529e-22)
(0.027630248 -0.00010487923 -7.3892453e-21)
(0.053008741 0.00022090547 -1.0130576e-20)
(0.044863419 5.9910003e-06 -6.0893392e-22)
(0.052986545 -0.0014287417 -1.2573697e-20)
(0.042726203 -0.003045807 5.9684602e-20)
(0.027509093 -0.0037403364 -1.7144619e-21)
(0.00644419 -0.0011385188 -7.4691782e-20)
(-0.010367399 0.0039790614 4.9380295e-20)
(-0.015266694 0.0073145428 -6.2807781e-20)
(-0.012603333 0.0072146894 3.0979381e-20)
(-0.0099383802 0.0064988916 2.5747194e-20)
(-0.0084458857 0.0060843884 1.0663918e-19)
(-0.0075505334 0.0058222468 -1.0763256e-19)
(-0.006832355 0.0055232536 3.545205e-20)
(-0.0060461094 0.0050416155 -1.1669994e-20)
(-0.0052926171 0.0044948771 7.9892555e-21)
(-0.004645839 0.0039693707 6.1571591e-20)
(-0.0040330388 0.003424182 4.5581044e-21)
(-0.0034638032 0.0028951214 -6.8552577e-21)
(-0.0029345664 0.0024124009 6.4132932e-22)
(-0.0024282072 0.0019646447 2.2379374e-20)
(-0.0019204768 0.0015294763 -9.6015197e-21)
(-0.0014052153 0.001100173 -2.4352887e-21)
(-0.00084615797 0.00064624376 1.4940761e-20)
(-0.00023831454 0.00016317314 -7.2581989e-21)
(0.00042232006 -0.0003530414 1.2987771e-20)
(0.001110272 -0.0008833054 1.9903967e-20)
(0.001760918 -0.0013802967 5.9794193e-21)
(0.0023560958 -0.0018260027 -1.0639248e-20)
(0.00284536 -0.0021723925 -1.1480439e-20)
(0.0031966501 -0.0023915925 -3.3094819e-20)
(0.0033700541 -0.0024549823 -4.9712022e-21)
(0.003338794 -0.0023510067 -1.8685923e-20)
(0.0031048167 -0.0020957596 -4.5415901e-20)
(0.002708559 -0.001736205 -9.7657227e-20)
(0.0022413259 -0.0013501358 -3.4098232e-20)
(0.0018250969 -0.0010218913 -1.5812808e-20)
(0.0015327823 -0.0007897744 3.1434909e-20)
(0.0013639588 -0.00064152952 4.4215699e-20)
(0.001316659 -0.00055951629 8.8681278e-21)
(0.0013947864 -0.00052741187 4.1241646e-20)
(0.001592059 -0.00052407936 -2.928634e-20)
(0.0018996079 -0.00052827489 -3.6713243e-20)
(0.0023069285 -0.00051960844 -3.8179445e-21)
(0.0028023991 -0.00047960865 -1.4289296e-20)
(0.0033857681 -0.00039324418 1.5104019e-20)
(0.0040483835 -0.0002472893 -1.4145326e-20)
(0.0049276492 -6.3822763e-05 9.0598254e-23)
(0.005902768 -3.1514176e-05 8.5645746e-25)
(0.0067510874 -2.779343e-05 -8.4181119e-25)
(0.0075143894 -2.3725987e-05 1.062696e-24)
(0.0081341933 -1.7753677e-05 1.2895826e-24)
(0.0085580385 -9.732965e-06 -2.0717597e-24)
(0.0087207035 4.1243907e-07 -8.6339291e-24)
(0.0085638279 1.2511474e-05 1.1692086e-23)
(0.008031475 2.6321547e-05 -9.7326962e-24)
(0.0070766315 4.0925683e-05 1.3483949e-23)
(0.0056933971 5.4487151e-05 -2.9067502e-24)
(0.0039375537 6.4682921e-05 -1.7363469e-24)
(0.0019369692 7.0014277e-05 -7.6106366e-24)
(-0.00016780943 6.6633429e-05 1.1305694e-23)
(-0.002019983 5.8791766e-05 -1.1472371e-23)
(-0.0036799898 5.4177723e-05 3.3531653e-25)
(-0.0052408037 5.035826e-05 -1.9413262e-24)
(-0.0066554493 4.5056211e-05 1.005688e-23)
(-0.0078831813 3.8416389e-05 7.0111328e-24)
(-0.0088876007 3.0648363e-05 -1.1514955e-23)
(-0.009640804 2.1784493e-05 -3.2414979e-24)