0.00102579 	3.38464e-10 	1.39186e-12 	-4.63459e-35 	3.38474e-10 	-1.06695e-32 	3.38469e-10
0.0032282 	3.63802e-09 	4.19827e-11 	-7.97616e-32 	3.63854e-09 	9.15934e-31 	3.63828e-09
0.00581417 	1.99484e-08 	4.71579e-10 	3.02679e-30 	1.99577e-08 	-1.04201e-30 	1.9953e-08
0.00874241 	7.34645e-08 	2.92893e-09 	-8.04243e-30 	7.35512e-08 	-7.06122e-29 	7.35081e-08
0.0119765 	2.06186e-07 	1.18579e-08 	-2.56812e-29 	2.06711e-07 	1.01443e-27 	2.06449e-07
0.0154877 	4.71469e-07 	3.34207e-08 	1.53459e-27 	4.73774e-07 	-1.09608e-28 	4.72621e-07
0.0192552 	9.08071e-07 	6.6865e-08 	-7.76705e-28 	9.15781e-07 	-1.15242e-26 	9.11912e-07
0.0232652 	1.50449e-06 	9.50685e-08 	-5.87018e-27 	1.5248e-06 	4.62045e-27 	1.51461e-06
0.0275097 	2.19514e-06 	9.32606e-08 	1.55445e-26 	2.23885e-06 	1.33169e-26 	2.21696e-06
0.0319852 	2.90244e-06 	5.02567e-08 	-2.01156e-26 	2.9825e-06 	-5.65823e-26 	2.94248e-06
0.0366918 	3.57699e-06 	-2.703e-08 	-9.58553e-26 	3.70674e-06 	-2.98768e-26 	3.64191e-06
0.0416323 	4.2016e-06 	-1.26422e-07 	-5.79759e-26 	4.39367e-06 	1.0055e-25 	4.29769e-06
0.0468113 	4.77665e-06 	-2.39474e-07 	6.15828e-26 	5.04252e-06 	9.93928e-26 	4.90964e-06
0.0522354 	5.30849e-06 	-3.6195e-07 	1.29859e-25 	5.65855e-06 	-4.11004e-26 	5.48356e-06
0.057912 	5.80434e-06 	-4.91988e-07 	-1.1028e-25 	6.24805e-06 	-1.02372e-25 	6.02622e-06
0.0638497 	6.27068e-06 	-6.28844e-07 	-1.54263e-25 	6.81674e-06 	5.70768e-26 	6.54373e-06
0.0700579 	6.71291e-06 	-7.72283e-07 	2.18731e-25 	7.36937e-06 	1.48526e-25 	7.04116e-06
0.0765467 	7.13554e-06 	-9.22305e-07 	4.14423e-25 	7.90983e-06 	-2.72863e-26 	7.52269e-06
0.0833266 	7.54225e-06 	-1.07907e-06 	-2.75752e-26 	8.44124e-06 	-2.06129e-25 	7.99175e-06
0.0904088 	7.93616e-06 	-1.24279e-06 	-4.82477e-25 	8.96615e-06 	-3.26936e-26 	8.45116e-06
0.0978048 	8.31991e-06 	-1.41368e-06 	7.00014e-26 	9.48663e-06 	1.71674e-25 	8.90328e-06
0.105526 	8.69579e-06 	-1.59197e-06 	2.52123e-25 	1.00044e-05 	9.96954e-26 	9.35011e-06
0.113586 	9.06584e-06 	-1.77795e-06 	5.36201e-25 	1.05209e-05 	8.5679e-26 	9.79338e-06
0.121997 	9.4319e-06 	-1.97197e-06 	4.99641e-25 	1.10372e-05 	-3.69161e-26 	1.02346e-05
0.130771 	9.79566e-06 	-2.17432e-06 	-9.15522e-26 	1.15544e-05 	-6.76152e-26 	1.06751e-05
0.139923 	1.01587e-05 	-2.38519e-06 	-1.04917e-26 	1.20733e-05 	-8.41749e-26 	1.1116e-05
0.149465 	1.05225e-05 	-2.60488e-06 	-5.85277e-25 	1.25945e-05 	-1.13346e-25 	1.15585e-05
0.159412 	1.08884e-05 	-2.83369e-06 	-7.39519e-26 	1.31187e-05 	2.33426e-25 	1.20035e-05
0.169777 	1.12578e-05 	-3.07184e-06 	4.74832e-25 	1.36461e-05 	-2.39183e-27 	1.2452e-05
0.180576 	1.1632e-05 	-3.31957e-06 	-6.17869e-25 	1.41773e-05 	-2.44073e-25 	1.29047e-05
0.191822 	1.20123e-05 	-3.5771e-06 	-1.93452e-25 	1.47126e-05 	3.65655e-25 	1.33624e-05
0.20353 	1.23998e-05 	-3.84466e-06 	8.17446e-25 	1.5252e-05 	3.77385e-25 	1.38259e-05
0.215716 	1.27958e-05 	-4.12243e-06 	2.65587e-25 	1.57957e-05 	-4.02139e-25 	1.42957e-05
0.228393 	1.32014e-05 	-4.41051e-06 	-8.02508e-25 	1.63438e-05 	-9.2897e-25 	1.47726e-05
0.241577 	1.36176e-05 	-4.70896e-06 	-1.22982e-24 	1.68963e-05 	-6.85694e-26 	1.52569e-05
0.255283 	1.40455e-05 	-5.01788e-06 	4.17823e-25 	1.74532e-05 	1.2868e-24 	1.57493e-05
0.269526 	1.44859e-05 	-5.33722e-06 	6.09634e-25 	1.80141e-05 	-3.39114e-25 	1.625e-05
0.28432 	1.49396e-05 	-5.66686e-06 	-4.49674e-25 	1.8579e-05 	-1.11447e-24 	1.67593e-05
0.29968 	1.54074e-05 	-6.00665e-06 	-1.21993e-25 	1.91473e-05 	5.99254e-25 	1.72773e-05
0.315621 	1.58897e-05 	-6.35631e-06 	1.5449e-25 	1.97187e-05 	2.30888e-25 	1.78042e-05
0.332156 	1.6387e-05 	-6.71545e-06 	4.64147e-25 	2.02925e-05 	-1.00195e-24 	1.83397e-05
0.3493 	1.68994e-05 	-7.08356e-06 	9.89462e-25 	2.08679e-05 	-9.69465e-25 	1.88836e-05
0.367066 	1.74267e-05 	-7.46e-06 	8.45086e-25 	2.14441e-05 	-1.35382e-26 	1.94354e-05
0.385466 	1.79687e-05 	-7.84395e-06 	-1.17561e-25 	2.20198e-05 	1.14853e-24 	1.99942e-05
0.404513 	1.85245e-05 	-8.23438e-06 	-2.42761e-24 	2.25935e-05 	1.70426e-24 	2.0559e-05
0.424218 	1.90931e-05 	-8.63013e-06 	-1.94986e-24 	2.31635e-05 	3.48998e-25 	2.11283e-05
0.444592 	1.9673e-05 	-9.02976e-06 	1.07757e-24 	2.37276e-05 	-1.19693e-24 	2.17003e-05
0.465645 	2.02623e-05 	-9.43157e-06 	2.71188e-24 	2.42834e-05 	-7.27465e-25 	2.22729e-05
0.487386 	2.08582e-05 	-9.83359e-06 	-1.98053e-24 	2.48277e-05 	1.16993e-24 	2.2843e-05
0.509822 	2.14576e-05 	-1.02336e-05 	-2.48194e-24 	2.53578e-05 	5.75929e-26 	2.34072e-05
0.532961 	2.20569e-05 	-1.06294e-05 	7.47083e-24 	2.58689e-05 	-2.44202e-24 	2.39618e-05
0.556808 	2.26544e-05 	-1.10411e-05 	-3.79787e-26 	2.63525e-05 	8.80511e-25 	2.45037e-05
0.581366 	2.32639e-05 	-1.14451e-05 	-3.54116e-24 	2.67873e-05 	1.04462e-24 	2.5028e-05
0.606639 	2.39036e-05 	-1.17566e-05 	6.30939e-26 	2.7153e-05 	3.65869e-25 	2.55296e-05
0.632627 	2.45469e-05 	-1.20031e-05 	-1.08237e-23 	2.74625e-05 	2.52655e-24 	2.60037e-05
0.65933 	2.51453e-05 	-1.22245e-05 	-7.85605e-24 	2.77294e-05 	-7.30759e-25 	2.64361e-05
0.686745 	2.56632e-05 	-1.2411e-05 	2.70166e-23 	2.79448e-05 	-5.93933e-24 	2.68036e-05
0.714868 	2.608e-05 	-1.25535e-05 	1.22359e-23 	2.80874e-05 	1.98604e-25 	2.70838e-05
0.743693 	2.63853e-05 	-1.26456e-05 	-1.33822e-23 	2.81349e-05 	3.21235e-24 	2.72603e-05
0.773211 	2.65734e-05 	-1.26827e-05 	-4.85356e-24 	2.80706e-05 	-5.38304e-25 	2.73222e-05
0.803413 	2.664e-05 	-1.26618e-05 	1.51007e-23 	2.78846e-05 	-2.84631e-24 	2.72624e-05
0.834286 	2.65818e-05 	-1.25818e-05 	1.75715e-23 	2.75729e-05 	-1.13327e-24 	2.70774e-05
0.865815 	2.63968e-05 	-1.24424e-05 	-1.04519e-23 	2.71362e-05 	2.35907e-24 	2.67664e-05
0.897985 	2.60859e-05 	-1.22448e-05 	-5.70081e-24 	2.65792e-05 	5.88207e-25 	2.63325e-05
0.930775 	2.56545e-05 	-1.19928e-05 	-6.14604e-24 	2.5911e-05 	-1.34922e-25 	2.57827e-05
0.964166 	2.51126e-05 	-1.16916e-05 	1.90395e-23 	2.51445e-05 	-3.64085e-24 	2.51286e-05
0.998133 	2.44755e-05 	-1.13485e-05 	6.32979e-23 	2.42969e-05 	-4.56738e-24 	2.43862e-05
1.03265 	2.37624e-05 	-1.09728e-05 	-1.54269e-23 	2.33888e-05 	6.06926e-24 	2.35755e-05
1.0677 	2.2995e-05 	-1.0575e-05 	-1.02545e-22 	2.24431e-05 	8.21351e-24 	2.27189e-05
1.10323 	2.2196e-05 	-1.01654e-05 	-5.8113e-24 	2.14831e-05 	-3.04467e-24 	2.18395e-05
1.13924 	2.13873e-05 	-9.75396e-06 	2.95392e-23 	2.05307e-05 	-2.62618e-24 	2.0959e-05
1.17567 	2.05887e-05 	-9.35023e-06 	1.02629e-23 	1.96052e-05 	-2.54284e-25 	2.00969e-05
1.2125 	1.98173e-05 	-8.9621e-06 	1.23665e-23 	1.87227e-05 	-9.48623e-25 	1.927e-05
1.24968 	1.90853e-05 	-8.5948e-06 	2.43317e-23 	1.7894e-05 	-9.87234e-25 	1.84896e-05
1.28719 	1.83985e-05 	-8.25104e-06 	-1.39011e-23 	1.7123e-05 	2.09126e-24 	1.77607e-05
1.32498 	1.77581e-05 	-7.93122e-06 	-5.20061e-23 	1.64087e-05 	2.94989e-24 	1.70835e-05
1.363 	1.71628e-05 	-7.63425e-06 	-1.23921e-23 	1.57479e-05 	-6.3867e-25 	1.64554e-05
1.40123 	1.66098e-05 	-7.35829e-06 	2.84228e-23 	1.51359e-05 	-1.54194e-24 	1.58728e-05
1.43962 	1.60954e-05 	-7.10121e-06 	-1.68871e-23 	1.4567e-05 	2.53585e-24 	1.53312e-05
1.47811 	1.56166e-05 	-6.86078e-06 	-1.01135e-22 	1.40352e-05 	4.37641e-24 	1.48259e-05
1.51668 	1.51703e-05 	-6.63211e-06 	1.23183e-24 	1.35333e-05 	-3.63931e-24 	1.4352e-05
1.55528 	1.47502e-05 	-6.40299e-06 	1.58655e-22 	1.30538e-05 	-8.17294e-24 	1.39024e-05
1.59385 	1.43481e-05 	-6.16432e-06 	9.10453e-23 	1.25926e-05 	-1.28525e-24 	1.34703e-05
1.63237 	1.39574e-05 	-5.92153e-06 	-3.88314e-23 	1.21496e-05 	2.68366e-24 	1.30531e-05
1.67078 	1.35743e-05 	-5.6806e-06 	2.6704e-23 	1.17255e-05 	-2.54776e-25 	1.26499e-05
1.70905 	1.31986e-05 	-5.44307e-06 	-1.02652e-22 	1.13193e-05 	5.23916e-24 	1.22591e-05
1.74713 	1.28309e-05 	-5.20978e-06 	-1.03032e-22 	1.09295e-05 	2.00301e-24 	1.18802e-05
1.78497 	1.24714e-05 	-4.98024e-06 	4.51964e-23 	1.05551e-05 	-2.82238e-24 	1.15132e-05
1.82255 	1.21197e-05 	-4.75366e-06 	-3.97609e-24 	1.01949e-05 	7.47594e-25 	1.11572e-05
1.85982 	1.17748e-05 	-4.52939e-06 	-2.23685e-23 	9.84705e-06 	6.65726e-25 	1.08109e-05
1.89674 	1.14358e-05 	-4.30709e-06 	8.1224e-27 	9.51015e-06 	-4.13292e-25 	1.04731e-05
1.93328 	1.11024e-05 	-4.08616e-06 	9.53515e-24 	9.18314e-06 	-9.63262e-25 	1.01428e-05
1.96941 	1.07738e-05 	-3.86558e-06 	5.89562e-23 	8.86553e-06 	-1.89119e-24 	9.81965e-06
2.00508 	1.04498e-05 	-3.64524e-06 	2.51461e-23 	8.55714e-06 	-3.75282e-25 	9.50337e-06
2.04028 	1.01301e-05 	-3.42546e-06 	2.4743e-23 	8.258e-06 	-7.0161e-25 	9.19399e-06
2.07497 	9.81502e-06 	-3.20606e-06 	3.66882e-23 	7.9682e-06 	-3.10944e-25 	8.89158e-06
2.10912 	9.50477e-06 	-2.98709e-06 	-3.52526e-23 	7.68784e-06 	1.20112e-24 	8.59623e-06
2.14271 	9.19944e-06 	-2.76874e-06 	-2.59752e-25 	7.41725e-06 	-1.07861e-24 	8.30832e-06
2.17571 	8.89942e-06 	-2.55176e-06 	8.62365e-23 	7.15661e-06 	-2.05282e-24 	8.02806e-06
2.20812 	8.60518e-06 	-2.33693e-06 	2.66683e-23 	6.90604e-06 	8.53495e-25 	7.75566e-06
2.23989 	8.31702e-06 	-2.12423e-06 	-6.03274e-23 	6.6657e-06 	1.33503e-24 	7.49139e-06
2.27103 	8.03527e-06 	-1.91386e-06 	2.02425e-23 	6.43569e-06 	-9.41546e-25 	7.23549e-06
2.30152 	7.76027e-06 	-1.70607e-06 	8.77476e-24 	6.21604e-06 	8.11992e-25 	6.98816e-06
2.33133 	7.49241e-06 	-1.50163e-06 	-8.14433e-23 	6.00675e-06 	1.42034e-24 	6.74959e-06
2.36047 	7.23212e-06 	-1.3017e-06 	1.8814e-23 	5.80771e-06 	-1.08352e-24 	6.51993e-06
2.38893 	6.97976e-06 	-1.10606e-06 	1.17096e-23 	5.61887e-06 	3.23681e-25 	6.29932e-06
2.41668 	6.73572e-06 	-9.14243e-07 	-3.01389e-23 	5.44011e-06 	6.22323e-25 	6.08792e-06
2.44374 	6.5004e-06 	-7.27345e-07 	-4.98421e-25 	5.27134e-06 	-1.69212e-25 	5.88589e-06
2.4701 	6.27428e-06 	-5.45941e-07 	-1.16491e-23 	5.11242e-06 	2.75486e-25 	5.69337e-06
2.49576 	6.05784e-06 	-3.69919e-07 	-1.09585e-23 	4.96327e-06 	8.13769e-26 	5.51055e-06
2.52071 	5.85155e-06 	-1.99218e-07 	-2.62182e-24 	4.82386e-06 	-6.12827e-27 	5.33768e-06
2.54496 	5.65588e-06 	-3.38993e-08 	-6.5192e-24 	4.69424e-06 	2.13177e-25 	5.17507e-06
2.56852 	5.47147e-06 	1.25615e-07 	-1.34629e-23 	4.57446e-06 	-4.01658e-26 	5.023e-06
2.59138 	5.29904e-06 	2.79193e-07 	8.88975e-24 	4.46463e-06 	-1.37007e-25 	4.88185e-06
2.61355 	5.13922e-06 	4.26868e-07 	-7.22391e-24 	4.36503e-06 	4.23353e-25 	4.75208e-06
2.63503 	4.99257e-06 	5.68831e-07 	-1.75299e-23 	4.27608e-06 	-3.0727e-25 	4.63431e-06
2.65585 	4.85997e-06 	7.05087e-07 	2.38965e-23 	4.19814e-06 	-8.10756e-25 	4.52906e-06
2.676 	4.74225e-06 	8.35662e-07 	2.31217e-23 	4.13172e-06 	9.62185e-26 	4.43697e-06
2.69549 	4.64008e-06 	9.60965e-07 	-2.53826e-26 	4.0775e-06 	2.95808e-25 	4.35878e-06
2.71434 	4.55425e-06 	1.08106e-06 	7.0698e-25 	4.03612e-06 	1.57636e-25 	4.29521e-06
2.73255 	4.48559e-06 	1.19613e-06 	-6.85453e-24 	4.00824e-06 	8.116e-26 	4.24693e-06
2.75015 	4.43468e-06 	1.30672e-06 	-1.10348e-24 	3.99456e-06 	-2.34586e-25 	4.21461e-06
2.76713 	4.40197e-06 	1.41322e-06 	5.70258e-24 	3.99573e-06 	1.50794e-25 	4.19885e-06
2.78351 	4.38783e-06 	1.51576e-06 	-7.61095e-24 	4.01222e-06 	3.37523e-25 	4.20003e-06
2.79932 	4.39232e-06 	1.61467e-06 	-7.45688e-24 	4.04436e-06 	-2.40626e-25 	4.21834e-06
2.81455 	4.41521e-06 	1.7104e-06 	4.11677e-24 	4.09221e-06 	-1.85217e-25 	4.2537e-06
2.82922 	4.45585e-06 	1.80302e-06 	6.57806e-25 	4.15551e-06 	2.8791e-25 	4.30567e-06
2.84336 	4.51325e-06 	1.89245e-06 	-6.03392e-24 	4.23359e-06 	-1.29154e-26 	4.37343e-06
2.85696 	4.58591e-06 	1.9786e-06 	1.26204e-24 	4.32539e-06 	-2.86578e-25 	4.45567e-06
2.87006 	4.67189e-06 	2.06321e-06 	3.50832e-24 	4.42935e-06 	1.9275e-26 	4.5506e-06
2.88265 	4.76843e-06 	2.14384e-06 	7.90855e-26 	4.54354e-06 	1.33173e-25 	4.65597e-06
2.89475 	4.87202e-06 	2.21207e-06 	-6.00103e-25 	4.66537e-06 	6.33466e-26 	4.76871e-06
2.90639 	4.97849e-06 	2.26927e-06 	-1.19408e-24 	4.7901e-06 	-4.68259e-26 	4.88431e-06
2.91756 	5.08108e-06 	2.3214e-06 	3.45775e-25 	4.91028e-06 	-7.45895e-26 	4.99569e-06
2.92829 	5.16987e-06 	2.36701e-06 	6.23442e-25 	5.0163e-06 	6.16297e-26 	5.09309e-06
2.93858 	5.23343e-06 	2.40093e-06 	-6.99142e-25 	5.09725e-06 	-1.3937e-26 	5.16533e-06
2.94846 	5.25983e-06 	2.41762e-06 	4.31085e-25 	5.14152e-06 	-6.09307e-26 	5.20066e-06
2.95792 	5.23646e-06 	2.41121e-06 	4.55021e-25 	5.13657e-06 	4.10029e-26 	5.18651e-06
2.96697 	5.14911e-06 	2.37511e-06 	-2.10394e-25 	5.06792e-06 	-3.19413e-27 	5.10851e-06
2.97563 	4.98022e-06 	2.30106e-06 	2.3469e-25 	4.91742e-06 	-4.25746e-27 	4.94881e-06
2.98389 	4.70626e-06 	2.17796e-06 	6.45291e-27 	4.66072e-06 	3.76745e-26 	4.68348e-06
2.99176 	4.29453e-06 	1.99019e-06 	-1.44725e-25 	4.26421e-06 	-6.2068e-27 	4.27936e-06
2.99923 	3.70207e-06 	1.71581e-06 	1.01153e-26 	3.68403e-06 	-1.69038e-26 	3.69306e-06
3.00628 	2.88462e-06 	1.31555e-06 	1.98595e-26 	2.87547e-06 	2.0228e-27 	2.88006e-06
3.01289 	1.87775e-06 	7.99426e-07 	-1.30937e-27 	1.87412e-06 	2.54722e-27 	1.87594e-06
3.01902 	9.19916e-07 	3.3159e-07 	-2.21733e-28 	9.18948e-07 	-6.00091e-29 	9.19433e-07
3.02463 	3.03914e-07 	7.89149e-08 	-9.15448e-29 	3.03773e-07 	-1.22292e-28 	3.03843e-07
