0.00102579 	-0.00019505 	-1.16974e-07 	4.79362e-26
0.0032282 	-0.000596284 	-5.82301e-07 	1.80434e-24
0.00581417 	-0.00101872 	-1.62901e-06 	-2.20517e-24
0.00874241 	-0.00144939 	-3.46914e-06 	-5.47637e-24
0.0119765 	-0.00186371 	-6.26834e-06 	2.63902e-24
0.0154877 	-0.00223439 	-1.01639e-05 	-1.95241e-23
0.0192552 	-0.00253302 	-1.52512e-05 	-2.73442e-23
0.0232652 	-0.00274087 	-2.15138e-05 	1.58405e-23
0.0275097 	-0.00286074 	-2.88128e-05 	3.4014e-24
0.0319852 	-0.00291352 	-3.69852e-05 	-7.9532e-24
0.0366918 	-0.00292306 	-4.59254e-05 	3.14345e-23
0.0416323 	-0.00290658 	-5.5577e-05 	2.41773e-23
0.0468113 	-0.0028742 	-6.59044e-05 	-5.41905e-24
0.0522354 	-0.0028315 	-7.68845e-05 	-1.243e-23
0.057912 	-0.00278153 	-8.8506e-05 	2.31402e-24
0.0638497 	-0.00272598 	-0.000100767 	9.52029e-24
0.0700579 	-0.00266581 	-0.000113671 	-6.42654e-24
0.0765467 	-0.00260157 	-0.000127229 	-1.3943e-23
0.0833266 	-0.00253352 	-0.000141454 	-1.30033e-24
0.0904088 	-0.00246178 	-0.000156359 	1.23921e-23
0.0978048 	-0.00238634 	-0.000171962 	1.87327e-25
0.105526 	-0.00230713 	-0.000188281 	-5.80608e-24
0.113586 	-0.00222403 	-0.000205335 	-8.37776e-24
0.121997 	-0.00213683 	-0.000223143 	-8.47578e-24
0.130771 	-0.00204533 	-0.000241726 	-4.68561e-25
0.139923 	-0.00194925 	-0.000261104 	-1.56177e-24
0.149465 	-0.0018483 	-0.000281296 	8.14847e-24
0.159412 	-0.00174215 	-0.000302324 	6.481e-25
0.169777 	-0.00163043 	-0.000324205 	-7.9523e-24
0.180576 	-0.00151274 	-0.000346958 	8.60807e-24
0.191822 	-0.00138864 	-0.000370602 	1.81429e-25
0.20353 	-0.00125765 	-0.000395153 	-1.58684e-23
0.215716 	-0.00111924 	-0.000420625 	-3.90867e-24
0.228393 	-0.00097284 	-0.000447031 	2.05129e-23
0.241577 	-0.000817836 	-0.000474383 	2.80399e-23
0.255283 	-0.000653557 	-0.000502686 	-2.23142e-23
0.269526 	-0.000479275 	-0.000531947 	-1.68111e-23
0.28432 	-0.000294207 	-0.000562167 	2.73869e-23
0.29968 	-9.75105e-05 	-0.00059334 	1.00253e-24
0.315621 	0.000111725 	-0.00062546 	-1.19594e-23
0.332156 	0.000334473 	-0.000658511 	1.22486e-23
0.3493 	0.000571778 	-0.000692472 	2.45449e-23
0.367066 	0.000824751 	-0.000727314 	1.23579e-23
0.385466 	0.00109458 	-0.000763001 	-1.29269e-23
0.404513 	0.0013825 	-0.000799484 	-3.87526e-23
0.424218 	0.00168984 	-0.000836706 	-2.54254e-23
0.444592 	0.00201796 	-0.000874594 	1.30283e-23
0.465645 	0.00236831 	-0.000913063 	2.60508e-23
0.487386 	0.00274234 	-0.000952009 	-1.51546e-23
0.509822 	0.00314156 	-0.000991317 	-2.26699e-23
0.532961 	0.00356746 	-0.00103088 	5.37048e-23
0.556808 	0.00402159 	-0.00107052 	1.68677e-24
0.581366 	0.0045075 	-0.00110984 	-2.5104e-23
0.606639 	0.00503399 	-0.00114849 	4.95448e-25
0.632627 	0.00561129 	-0.00118608 	-6.89944e-23
0.65933 	0.00624352 	-0.00122198 	-4.11135e-23
0.686745 	0.00692804 	-0.00125576 	1.87196e-22
0.714868 	0.00765913 	-0.00128716 	7.39108e-23
0.743693 	0.00843079 	-0.00131598 	-9.75109e-23
0.773211 	0.00923799 	-0.00134193 	-3.53659e-23
0.803413 	0.0100766 	-0.00136469 	8.43352e-23
0.834286 	0.0109427 	-0.00138394 	9.73275e-23
0.865815 	0.0118317 	-0.00139935 	-7.0684e-23
0.897985 	0.012738 	-0.00141067 	-4.17468e-23
0.930775 	0.0136546 	-0.00141773 	-3.5124e-23
0.964166 	0.0145734 	-0.00142045 	8.68764e-23
0.998133 	0.0154859 	-0.00141888 	3.01454e-22
1.03265 	0.0163832 	-0.00141316 	-7.69885e-23
1.0677 	0.0172571 	-0.00140356 	-4.67972e-22
1.10323 	0.0181002 	-0.00139044 	-2.78633e-23
1.13924 	0.0189067 	-0.00137423 	1.20063e-22
1.17567 	0.0196724 	-0.00135541 	3.94549e-23
1.2125 	0.0203951 	-0.00133447 	3.65063e-23
1.24968 	0.0210741 	-0.00131189 	6.88018e-23
1.28719 	0.0217103 	-0.00128807 	-3.09564e-23
1.32498 	0.0223059 	-0.00126333 	-1.29505e-22
1.363 	0.0228636 	-0.00123794 	-3.3444e-23
1.40123 	0.0233865 	-0.00121209 	6.20811e-23
1.43962 	0.0238773 	-0.00118591 	-3.02144e-23
1.47811 	0.0243384 	-0.00115949 	-1.91176e-22
1.51668 	0.0247723 	-0.00113285 	-3.77427e-24
1.55528 	0.0251812 	-0.0011059 	2.66382e-22
1.59385 	0.0255673 	-0.00107851 	1.55229e-22
1.63237 	0.0259318 	-0.00105071 	-6.231e-23
1.67078 	0.0262752 	-0.00102267 	3.73303e-23
1.70905 	0.0265979 	-0.000994598 	-1.38509e-22
1.74713 	0.0269009 	-0.000966659 	-1.40443e-22
1.78497 	0.0271853 	-0.000938942 	5.91859e-23
1.82255 	0.0274523 	-0.000911496 	1.67006e-24
1.85982 	0.027703 	-0.000884352 	-2.44936e-23
1.89674 	0.0279384 	-0.000857528 	-1.8208e-25
1.93328 	0.0281594 	-0.000831041 	8.2602e-24
1.96941 	0.0283666 	-0.000804905 	6.2987e-23
2.00508 	0.0285607 	-0.000779136 	2.74578e-23
2.04028 	0.0287421 	-0.000753749 	2.52798e-23
2.07497 	0.0289114 	-0.000728761 	3.73973e-23
2.10912 	0.0290689 	-0.000704189 	-3.67744e-23
2.14271 	0.0292151 	-0.000680048 	-5.8857e-25
2.17571 	0.0293502 	-0.000656354 	8.63343e-23
2.20812 	0.0294745 	-0.000633121 	2.38013e-23
2.23989 	0.0295885 	-0.000610361 	-6.40909e-23
2.27103 	0.0296922 	-0.000588085 	2.08315e-23
2.30152 	0.0297859 	-0.000566301 	8.00835e-24
2.33133 	0.0298697 	-0.000545017 	-8.55634e-23
2.36047 	0.0299437 	-0.000524237 	2.42481e-23
2.38893 	0.0300081 	-0.000503963 	1.01071e-23
2.41668 	0.0300628 	-0.000484197 	-3.86719e-23
2.44374 	0.0301077 	-0.000464936 	-2.93258e-24
2.4701 	0.0301427 	-0.000446176 	-1.61115e-23
2.49576 	0.0301678 	-0.000427912 	-1.50989e-23
2.52071 	0.0301824 	-0.000410135 	-4.78857e-24
2.54496 	0.0301864 	-0.000392834 	-1.12597e-23
2.56852 	0.0301791 	-0.000375998 	-2.2666e-23
2.59138 	0.03016 	-0.000359613 	1.97197e-23
2.61355 	0.0301284 	-0.000343661 	-1.96797e-23
2.63503 	0.0300834 	-0.000328125 	-3.77547e-23
2.65585 	0.0300242 	-0.000312983 	6.84744e-23
2.676 	0.0299495 	-0.000298212 	6.03936e-23
2.69549 	0.0298581 	-0.000283789 	1.74006e-24
2.71434 	0.0297486 	-0.000269685 	4.11896e-24
2.73255 	0.0296194 	-0.000255872 	-3.27037e-23
2.75015 	0.0294687 	-0.000242321 	1.21149e-24
2.76713 	0.0292948 	-0.000228998 	2.82822e-23
2.78351 	0.0290955 	-0.000215875 	-5.31918e-23
2.79932 	0.0288688 	-0.000202919 	-4.71897e-23
2.81455 	0.0286123 	-0.000190105 	3.77538e-23
2.82922 	0.0283236 	-0.000177409 	-2.15096e-24
2.84336 	0.0280002 	-0.000164812 	-6.19134e-23
2.85696 	0.0276396 	-0.000152304 	2.01626e-23
2.87006 	0.0272388 	-0.000139892 	4.27128e-23
2.88265 	0.0267941 	-0.000127592 	1.96787e-24
2.89475 	0.0262987 	-0.000115373 	-1.4471e-23
2.90639 	0.0257438 	-0.000103199 	-2.68264e-23
2.91756 	0.0251227 	-9.10989e-05 	1.59105e-23
2.92829 	0.0244319 	-7.91919e-05 	1.1524e-23
2.93858 	0.0236696 	-6.76454e-05 	-2.52709e-23
2.94846 	0.022833 	-5.6634e-05 	2.70227e-23
2.95792 	0.0219168 	-4.63286e-05 	1.38019e-23
2.96697 	0.0209115 	-3.68876e-05 	-6.81843e-24
2.97563 	0.0198017 	-2.84487e-05 	2.15022e-23
2.98389 	0.0185631 	-2.11229e-05 	-1.0404e-23
2.99176 	0.017159 	-1.49866e-05 	-1.96519e-23
2.99923 	0.0155353 	-1.00583e-05 	6.79604e-24
3.00628 	0.0136141 	-6.27657e-06 	5.58459e-24
3.01289 	0.0113148 	-3.52275e-06 	-2.79686e-24
3.01902 	0.00866768 	-1.68127e-06 	-1.65113e-24
3.02463 	0.00590483 	-6.32729e-07 	2.363e-24
