0.0010258 	-5.4215e-05 	-4.14289e-07 	-2.20623e-22
0.00334978 	-0.000164766 	-1.05272e-06 	-2.37002e-22
0.00630145 	-0.000275361 	-1.31323e-06 	-7.59485e-22
0.00983054 	-0.000371806 	-1.27784e-06 	-5.14216e-22
0.0138765 	-0.000433959 	-9.77522e-07 	2.7629e-22
0.0183825 	-0.000444259 	-3.01191e-07 	-1.98224e-21
0.0233014 	-0.000396516 	7.93689e-07 	-9.55849e-22
0.0285978 	-0.000303211 	2.17703e-06 	-6.40863e-22
0.0342466 	-0.000187951 	3.62121e-06 	-4.01173e-22
0.0402317 	-6.92495e-05 	4.94012e-06 	1.37604e-21
0.046544 	4.52581e-05 	6.03004e-06 	2.88952e-21
0.0531797 	0.000154434 	6.84135e-06 	1.82022e-21
0.0601391 	0.00025925 	7.35244e-06 	-2.10658e-21
0.0674258 	0.000361009 	7.5542e-06 	9.49063e-23
0.0750453 	0.000460879 	7.44166e-06 	8.37514e-22
0.0830049 	0.000559821 	7.01027e-06 	8.32644e-25
0.0913134 	0.000658624 	6.25482e-06 	-4.61068e-22
0.0999802 	0.000757947 	5.16945e-06 	-5.03854e-22
0.109016 	0.000858353 	3.74784e-06 	3.12838e-23
0.11843 	0.000960341 	1.98358e-06 	1.16011e-21
0.128235 	0.00106436 	-1.29374e-07 	-1.18493e-21
0.138442 	0.00117084 	-2.5965e-06 	-4.32906e-23
0.149063 	0.00128017 	-5.42223e-06 	-5.82833e-22
0.160109 	0.00139276 	-8.60961e-06 	-5.49389e-22
0.171593 	0.00150898 	-1.21598e-05 	4.70572e-22
0.183525 	0.00162923 	-1.60717e-05 	-8.5548e-22
0.195919 	0.00175391 	-2.03416e-05 	-4.38842e-21
0.208786 	0.00188342 	-2.49624e-05 	3.04628e-21
0.222137 	0.00201819 	-2.9923e-05 	8.07533e-22
0.235985 	0.00215865 	-3.52083e-05 	3.34154e-22
0.25034 	0.00230527 	-4.07976e-05 	1.33809e-21
0.265214 	0.00245852 	-4.66646e-05 	4.02786e-21
0.280617 	0.00261892 	-5.27765e-05 	-3.77995e-21
0.29656 	0.00278699 	-5.90929e-05 	-6.2259e-22
0.313054 	0.00296329 	-6.55654e-05 	5.16112e-22
0.330107 	0.00314842 	-7.21363e-05 	1.47154e-21
0.347729 	0.00334299 	-7.87382e-05 	4.16228e-21
0.365928 	0.00354765 	-8.52925e-05 	-5.22346e-21
0.384713 	0.00376309 	-9.17091e-05 	-9.28273e-22
0.404089 	0.00399 	-9.78855e-05 	1.35762e-22
0.424065 	0.00422912 	-0.000103706 	4.24976e-21
0.444646 	0.00448121 	-0.00010904 	-4.72658e-21
0.465836 	0.00474705 	-0.000113743 	-3.92301e-22
0.48764 	0.00502742 	-0.000117658 	4.32282e-22
0.51006 	0.0053231 	-0.000120611 	7.14783e-23
0.533099 	0.00563488 	-0.000122415 	-6.32357e-22
0.556758 	0.00596352 	-0.000122866 	-5.40653e-21
0.581036 	0.00630975 	-0.000121725 	6.05854e-21
0.605933 	0.00667424 	-0.000118719 	5.30824e-22
0.631446 	0.00705775 	-0.000113787 	3.23336e-22
0.657571 	0.0074646 	-0.000107033 	-5.87799e-22
0.684304 	0.0079036 	-9.85554e-05 	-6.4781e-22
0.711638 	0.00838205 	-8.83558e-05 	-3.01558e-22
0.739566 	0.00890213 	-7.61116e-05 	-7.60414e-21
0.768079 	0.00946175 	-6.13901e-05 	8.35237e-21
0.797167 	0.0100564 	-4.3938e-05 	7.10505e-22
0.826818 	0.0106807 	-2.37375e-05 	8.91294e-21
0.85702 	0.01133 	-9.32568e-07 	-9.16324e-21
0.887757 	0.0120001 	2.42604e-05 	9.04877e-21
0.919015 	0.0126878 	5.16089e-05 	-1.84713e-20
0.950776 	0.0133901 	8.08776e-05 	8.96518e-21
0.983022 	0.014104 	0.000111812 	-9.68265e-21
1.01573 	0.0148257 	0.000144112 	9.82237e-21
1.04889 	0.0155512 	0.000177414 	1.35614e-22
1.08246 	0.0162761 	0.000211287 	-2.5257e-23
1.11644 	0.0169955 	0.000245251 	9.68627e-21
1.15078 	0.0177049 	0.000278793 	-9.61966e-21
1.18548 	0.0183999 	0.000311405 	-6.78824e-23
1.22049 	0.0190768 	0.000342609 	-9.28688e-21
1.25579 	0.0197324 	0.000371976 	9.17697e-21
1.29136 	0.020364 	0.000399128 	-8.83399e-21
1.32715 	0.0209696 	0.000423753 	8.78322e-21
1.36315 	0.0215474 	0.000445625 	1.78451e-22
1.39931 	0.0220969 	0.000464624 	1.28598e-22
1.43561 	0.022618 	0.000480731 	-1.40187e-22
1.47202 	0.0231115 	0.000494003 	-7.54386e-21
1.50849 	0.0235781 	0.000504551 	1.48523e-20
1.54499 	0.0240191 	0.000512518 	-3.34732e-23
1.5815 	0.0244357 	0.000518087 	-6.93341e-21
1.61797 	0.024829 	0.000521446 	-9.21191e-23
1.65438 	0.0251999 	0.000522785 	-1.39618e-24
1.69068 	0.0255493 	0.000522271 	-9.19721e-23
1.72684 	0.0258781 	0.000520059 	1.12019e-23
1.76284 	0.0261867 	0.000516295 	5.40884e-21
1.79863 	0.0264758 	0.000511111 	-7.14648e-23
1.83418 	0.0267457 	0.000504626 	-5.12232e-21
1.86946 	0.0269968 	0.000496952 	-2.17538e-22
1.90445 	0.0272294 	0.000488237 	7.97593e-23
1.9391 	0.0274449 	0.0004788 	-9.67912e-25
1.97339 	0.0276459 	0.00046907 	-1.88138e-21
2.00729 	0.0278356 	0.000459355 	2.02292e-21
2.04077 	0.0280154 	0.000449831 	5.58516e-23
2.07381 	0.0281851 	0.000440501 	-1.35801e-22
2.10639 	0.0283446 	0.000431283 	1.54181e-22
2.13848 	0.0284941 	0.000422141 	2.63759e-22
2.17005 	0.0286334 	0.000413056 	4.47987e-23
2.2011 	0.0287627 	0.000404022 	-1.63786e-21
2.23159 	0.0288823 	0.000395037 	2.96066e-21
2.26152 	0.028992 	0.000386107 	-1.57324e-21
2.29087 	0.0290923 	0.000377239 	-9.22144e-23
2.31963 	0.0291831 	0.000368442 	1.61672e-21
2.34778 	0.0292646 	0.000359726 	-1.07888e-21
2.37531 	0.0293368 	0.000351102 	1.23377e-21
2.40222 	0.0293997 	0.000342578 	-1.18929e-21
2.42849 	0.0294533 	0.000334162 	1.26508e-21
2.45413 	0.0294976 	0.000325861 	-1.27682e-21
2.47913 	0.0295323 	0.000317682 	-9.84006e-22
2.50348 	0.0295572 	0.000309627 	-2.10326e-22
2.52719 	0.0295721 	0.0003017 	7.44674e-22
2.55026 	0.0295765 	0.000293901 	8.44678e-23
2.57268 	0.0295699 	0.00028623 	1.06425e-22
2.59446 	0.0295518 	0.000278688 	8.57351e-22
2.61561 	0.0295213 	0.000271271 	-7.00553e-22
2.63613 	0.0294778 	0.000263977 	-6.32621e-22
2.65602 	0.0294201 	0.000256802 	-1.1993e-22
2.67529 	0.0293472 	0.00024974 	1.54089e-22
2.69396 	0.0292579 	0.000242789 	-5.01081e-22
2.71202 	0.0291509 	0.00023594 	9.10537e-22
2.72949 	0.0290248 	0.000229188 	7.93136e-23
2.74638 	0.028878 	0.000222524 	-1.05886e-21
2.7627 	0.028709 	0.000215937 	5.25289e-22
2.77846 	0.0285164 	0.000209418 	3.84266e-22
2.79367 	0.0282986 	0.00020295 	2.62054e-22
2.80835 	0.0280544 	0.000196517 	-3.37976e-22
2.8225 	0.0277826 	0.0001901 	-6.896e-22
2.83614 	0.0274821 	0.000183674 	5.77975e-22
2.84927 	0.027152 	0.000177213 	1.30567e-22
2.86193 	0.0267916 	0.000170684 	-6.23222e-22
2.87411 	0.0263998 	0.000164054 	3.16557e-22
2.88582 	0.0259736 	0.000157275 	6.693e-22
2.89709 	0.0255091 	0.000150277 	8.16457e-23
2.90793 	0.0250044 	0.000142996 	-4.57995e-22
2.91834 	0.0244605 	0.000135382 	5.97274e-23
2.92834 	0.0238795 	0.000127388 	7.19425e-23
2.93795 	0.0232622 	0.000118987 	3.64546e-22
2.94717 	0.0226073 	0.000110166 	-1.91503e-22
2.95601 	0.0219102 	0.000100927 	-1.87734e-22
2.96448 	0.0211621 	9.12916e-05 	1.39637e-22
2.9726 	0.0203487 	8.13011e-05 	-2.49098e-22
2.98037 	0.0194483 	7.10268e-05 	-1.34347e-22
2.9878 	0.0184282 	6.05743e-05 	2.03775e-22
2.99488 	0.0172414 	5.00976e-05 	2.3425e-22
3.00163 	0.0158199 	3.98081e-05 	1.96897e-23
3.00802 	0.0140714 	2.99538e-05 	-4.40976e-23
3.01405 	0.0119084 	2.08272e-05 	8.33329e-23
3.01971 	0.00934648 	1.28773e-05 	7.03337e-23
3.02495 	0.00657091 	6.68814e-06 	1.48135e-24
3.02973 	0.00383052 	2.63149e-06 	2.65986e-24
3.036 	0 	0 	0
