0.0010258 	1.8387e-10 	2.01274e-13 	8.68729e-32 	1.83873e-10 	4.81484e-32 	1.83872e-10
0.00334978 	2.22792e-09 	6.55565e-12 	-4.18605e-30 	2.22796e-09 	5.37317e-29 	2.22795e-09
0.00630145 	1.37797e-08 	7.02002e-11 	1.38802e-28 	1.37797e-08 	-8.77658e-28 	1.37799e-08
0.00983054 	5.65903e-08 	3.09725e-10 	-6.95609e-27 	5.65838e-08 	-1.23826e-27 	5.65877e-08
0.0138765 	1.74369e-07 	8.272e-11 	-2.59098e-27 	1.7429e-07 	6.44071e-26 	1.74333e-07
0.0183825 	4.28623e-07 	-5.61705e-09 	1.69965e-25 	4.28148e-07 	-1.22141e-25 	4.28395e-07
0.0233014 	8.64231e-07 	-2.97596e-08 	3.29517e-25 	8.62482e-07 	-1.56604e-25 	8.63376e-07
0.0285978 	1.46126e-06 	-8.58154e-08 	9.71128e-26 	1.45691e-06 	-1.66452e-26 	1.45911e-06
0.0342466 	2.13932e-06 	-1.7328e-07 	-3.58172e-25 	2.13141e-06 	-1.97359e-24 	2.13536e-06
0.0402317 	2.81968e-06 	-2.79347e-07 	-6.11852e-25 	2.80851e-06 	-3.91037e-24 	2.81407e-06
0.046544 	3.46407e-06 	-3.93295e-07 	3.4601e-25 	3.45127e-06 	1.09544e-24 	3.45763e-06
0.0531797 	4.06501e-06 	-5.11484e-07 	-6.07702e-25 	4.05314e-06 	1.21781e-23 	4.05904e-06
0.0601391 	4.62688e-06 	-6.33826e-07 	-2.19622e-24 	4.61902e-06 	3.08959e-24 	4.62292e-06
0.0674258 	5.15649e-06 	-7.61038e-07 	1.34877e-24 	5.15603e-06 	-1.09191e-23 	5.15622e-06
0.0750453 	5.6602e-06 	-8.93844e-07 	-6.69295e-25 	5.67073e-06 	1.24158e-24 	5.66543e-06
0.0830049 	6.14335e-06 	-1.03286e-06 	3.77429e-24 	6.16856e-06 	6.61922e-24 	6.15592e-06
0.0913134 	6.61024e-06 	-1.17861e-06 	2.71765e-24 	6.65388e-06 	3.10032e-24 	6.63202e-06
0.0999802 	7.0643e-06 	-1.33155e-06 	-8.10861e-25 	7.13014e-06 	-3.5121e-24 	7.09718e-06
0.109016 	7.50839e-06 	-1.49207e-06 	-1.98992e-24 	7.60015e-06 	-1.0816e-23 	7.55422e-06
0.11843 	7.94484e-06 	-1.66055e-06 	8.52486e-24 	8.06612e-06 	8.64835e-24 	8.00543e-06
0.128235 	8.37565e-06 	-1.8373e-06 	-1.03404e-23 	8.52991e-06 	1.13304e-23 	8.45274e-06
0.138442 	8.8026e-06 	-2.0226e-06 	-4.49586e-24 	8.99302e-06 	-6.75761e-24 	8.89776e-06
0.149063 	9.22723e-06 	-2.2168e-06 	-1.08199e-23 	9.45671e-06 	4.86775e-24 	9.34193e-06
0.160109 	9.65093e-06 	-2.42014e-06 	-8.67226e-24 	9.92198e-06 	-1.08718e-23 	9.78641e-06
0.171593 	1.0075e-05 	-2.63273e-06 	1.04578e-23 	1.03896e-05 	4.06672e-24 	1.02322e-05
0.183525 	1.05005e-05 	-2.85481e-06 	-3.20142e-23 	1.08603e-05 	5.17599e-23 	1.06804e-05
0.195919 	1.09288e-05 	-3.08659e-06 	-1.13669e-22 	1.13346e-05 	-4.08234e-23 	1.11316e-05
0.208786 	1.13607e-05 	-3.32809e-06 	9.49271e-23 	1.18127e-05 	-6.46291e-23 	1.15866e-05
0.222137 	1.17975e-05 	-3.57931e-06 	1.21018e-23 	1.2295e-05 	3.55181e-23 	1.20462e-05
0.235985 	1.224e-05 	-3.84033e-06 	6.53615e-24 	1.27815e-05 	-8.22082e-24 	1.25107e-05
0.25034 	1.26893e-05 	-4.11111e-06 	7.52182e-23 	1.32723e-05 	-4.56549e-23 	1.29808e-05
0.265214 	1.31463e-05 	-4.39151e-06 	1.78791e-22 	1.37673e-05 	5.91361e-23 	1.34567e-05
0.280617 	1.36117e-05 	-4.68141e-06 	-1.95264e-22 	1.4266e-05 	6.86235e-23 	1.39389e-05
0.29656 	1.40866e-05 	-4.98058e-06 	-1.92064e-23 	1.47683e-05 	-5.98216e-23 	1.44274e-05
0.313054 	1.45715e-05 	-5.28868e-06 	4.0277e-23 	1.52735e-05 	-3.03649e-23 	1.49225e-05
0.330107 	1.50671e-05 	-5.60519e-06 	1.23762e-22 	1.57811e-05 	-5.06724e-23 	1.54241e-05
0.347729 	1.5574e-05 	-5.92986e-06 	3.01617e-22 	1.62903e-05 	8.08481e-23 	1.59321e-05
0.365928 	1.60925e-05 	-6.26212e-06 	-4.36193e-22 	1.68001e-05 	8.27663e-23 	1.64463e-05
0.384713 	1.66229e-05 	-6.60115e-06 	-4.33628e-23 	1.73097e-05 	-7.29489e-23 	1.69663e-05
0.404089 	1.71651e-05 	-6.94616e-06 	2.57968e-23 	1.78177e-05 	-6.69048e-23 	1.74914e-05
0.424065 	1.7719e-05 	-7.29631e-06 	3.925e-22 	1.83227e-05 	5.35902e-23 	1.80209e-05
0.444646 	1.8284e-05 	-7.65058e-06 	-4.64547e-22 	1.88234e-05 	7.81563e-23 	1.85537e-05
0.465836 	1.88594e-05 	-8.00763e-06 	-4.29306e-23 	1.93179e-05 	-7.19164e-23 	1.90887e-05
0.48764 	1.9444e-05 	-8.36595e-06 	6.22092e-23 	1.98045e-05 	-7.22338e-24 	1.96243e-05
0.51006 	2.00361e-05 	-8.7239e-06 	-4.49212e-25 	2.02811e-05 	1.42569e-23 	2.01585e-05
0.533099 	2.06339e-05 	-9.07978e-06 	-1.2953e-22 	2.07454e-05 	6.93302e-23 	2.06896e-05
0.556758 	2.12352e-05 	-9.43161e-06 	-6.41252e-22 	2.11944e-05 	-6.82396e-23 	2.12151e-05
0.581036 	2.18376e-05 	-9.77623e-06 	7.71399e-22 	2.16249e-05 	-9.40355e-23 	2.17327e-05
0.605933 	2.24362e-05 	-1.01127e-05 	5.36717e-23 	2.20374e-05 	7.16314e-23 	2.22375e-05
0.631446 	2.30178e-05 	-1.04767e-05 	6.53299e-23 	2.24387e-05 	1.2868e-23 	2.27262e-05
0.657571 	2.3564e-05 	-1.07717e-05 	-1.03402e-22 	2.2842e-05 	1.34692e-23 	2.32015e-05
0.684304 	2.40765e-05 	-1.09938e-05 	-1.38162e-22 	2.32477e-05 	-1.43211e-24 	2.3663e-05
0.711638 	2.45686e-05 	-1.11977e-05 	-5.78131e-23 	2.36348e-05 	7.01297e-23 	2.41028e-05
0.739566 	2.50376e-05 	-1.13839e-05 	-8.68331e-22 	2.39787e-05 	-7.38894e-23 	2.45086e-05
0.768079 	2.54649e-05 	-1.1546e-05 	9.573e-22 	2.4263e-05 	-8.74154e-23 	2.48639e-05
0.797167 	2.58265e-05 	-1.1676e-05 	8.01291e-23 	2.44782e-05 	-2.48882e-24 	2.51524e-05
0.826818 	2.61038e-05 	-1.17692e-05 	1.08569e-21 	2.46169e-05 	8.11171e-23 	2.53601e-05
0.85702 	2.62827e-05 	-1.18204e-05 	-1.13883e-21 	2.46739e-05 	3.03711e-24 	2.54782e-05
0.887757 	2.63562e-05 	-1.18267e-05 	1.17852e-21 	2.46451e-05 	7.45974e-23 	2.55009e-05
0.919015 	2.63225e-05 	-1.17888e-05 	-2.2821e-21 	2.45278e-05 	-4.11537e-24 	2.54252e-05
0.950776 	2.61803e-05 	-1.17053e-05 	1.12835e-21 	2.43211e-05 	-6.63624e-23 	2.52507e-05
0.983022 	2.59311e-05 	-1.15768e-05 	-1.36145e-21 	2.40273e-05 	-1.51297e-23 	2.49792e-05
1.01573 	2.5578e-05 	-1.14058e-05 	1.32804e-21 	2.36499e-05 	-6.22648e-23 	2.4614e-05
1.04889 	2.5127e-05 	-1.11948e-05 	-2.38562e-23 	2.31953e-05 	7.1519e-23 	2.4161e-05
1.08246 	2.4585e-05 	-1.09477e-05 	-1.64279e-23 	2.26722e-05 	-6.6992e-23 	2.36285e-05
1.11644 	2.39626e-05 	-1.06692e-05 	1.56386e-21 	2.20911e-05 	8.79869e-23 	2.30268e-05
1.15078 	2.32722e-05 	-1.03647e-05 	-1.53389e-21 	2.14638e-05 	4.56006e-23 	2.23682e-05
1.18548 	2.25285e-05 	-1.00413e-05 	4.10601e-23 	2.08025e-05 	-3.09487e-24 	2.16655e-05
1.22049 	2.17451e-05 	-9.70383e-06 	-1.6292e-21 	2.01194e-05 	-9.06571e-23 	2.09321e-05
1.25579 	2.09355e-05 	-9.35761e-06 	1.59865e-21 	1.94261e-05 	2.5235e-23 	2.01807e-05
1.29136 	2.01179e-05 	-9.01153e-06 	-1.66628e-21 	1.87373e-05 	-3.01418e-23 	1.94275e-05
1.32715 	1.93097e-05 	-8.67227e-06 	1.68604e-21 	1.80669e-05 	-2.69941e-23 	1.86882e-05
1.36315 	1.85202e-05 	-8.3422e-06 	2.64258e-23 	1.74215e-05 	5.88261e-23 	1.79707e-05
1.39931 	1.77555e-05 	-8.02491e-06 	5.04735e-23 	1.68044e-05 	2.54924e-24 	1.72801e-05
1.43561 	1.70211e-05 	-7.72071e-06 	-8.69884e-23 	1.62169e-05 	5.27494e-23 	1.66193e-05
1.47202 	1.63201e-05 	-7.43105e-06 	-1.88649e-21 	1.56596e-05 	-1.45732e-22 	1.599e-05
1.50849 	1.56532e-05 	-7.15581e-06 	3.93487e-21 	1.51325e-05 	3.21199e-23 	1.53928e-05
1.54499 	1.50206e-05 	-6.89524e-06 	5.18925e-23 	1.46346e-05 	1.56094e-22 	1.48278e-05
1.5815 	1.442e-05 	-6.64603e-06 	-2.02457e-21 	1.41612e-05 	-4.38693e-23 	1.42906e-05
1.61797 	1.38467e-05 	-6.4067e-06 	-3.91807e-23 	1.37084e-05 	-5.09774e-23 	1.37775e-05
1.65438 	1.3299e-05 	-6.1781e-06 	-1.0423e-24 	1.3275e-05 	-6.49517e-26 	1.32871e-05
1.69068 	1.27756e-05 	-5.96056e-06 	-1.44759e-23 	1.28597e-05 	-9.81807e-25 	1.28174e-05
1.72684 	1.22734e-05 	-5.75026e-06 	-4.01365e-24 	1.2462e-05 	-4.33465e-23 	1.23676e-05
1.76284 	1.17917e-05 	-5.54799e-06 	2.30143e-21 	1.20805e-05 	4.61383e-23 	1.1936e-05
1.79863 	1.1329e-05 	-5.35411e-06 	-2.02703e-23 	1.17156e-05 	8.75772e-23 	1.15221e-05
1.83418 	1.08856e-05 	-5.16868e-06 	-2.44254e-21 	1.13689e-05 	-4.66449e-23 	1.1127e-05
1.86946 	1.04627e-05 	-4.99104e-06 	-1.05094e-22 	1.10412e-05 	-4.68647e-23 	1.07515e-05
1.90445 	1.00631e-05 	-4.82211e-06 	8.50539e-23 	1.07286e-05 	-2.28287e-24 	1.03958e-05
1.9391 	9.69287e-06 	-4.66068e-06 	-4.10177e-23 	1.0422e-05 	1.9691e-23 	1.00582e-05
1.97339 	9.35628e-06 	-4.471e-06 	-1.2242e-21 	1.01099e-05 	-4.16491e-23 	9.73358e-06
2.00729 	9.0448e-06 	-4.25045e-06 	1.34698e-21 	9.79147e-06 	4.07339e-24 	9.41771e-06
2.04077 	8.74364e-06 	-4.03075e-06 	1.79579e-23 	9.47648e-06 	2.16466e-23 	9.10965e-06
2.07381 	8.44849e-06 	-3.80265e-06 	-9.63066e-23 	9.16994e-06 	-1.92166e-24 	8.80908e-06
2.10639 	8.15978e-06 	-3.56938e-06 	1.16241e-22 	8.87247e-06 	-2.82069e-24 	8.5159e-06
2.13848 	7.87828e-06 	-3.33231e-06 	1.79041e-22 	8.58342e-06 	3.40778e-24 	8.23065e-06
2.17005 	7.60492e-06 	-3.09346e-06 	3.35805e-23 	8.3023e-06 	1.90824e-23 	7.95346e-06
2.2011 	7.34036e-06 	-2.85595e-06 	-1.14519e-21 	8.029e-06 	-4.54645e-23 	7.68453e-06
2.23159 	7.08487e-06 	-2.61963e-06 	2.03815e-21 	7.7634e-06 	2.99982e-23 	7.42398e-06
2.26152 	6.83847e-06 	-2.38615e-06 	-1.05738e-21 	7.50557e-06 	1.2687e-23 	7.17204e-06
2.29087 	6.60184e-06 	-2.15643e-06 	-6.43495e-23 	7.25532e-06 	-3.02429e-23 	6.92862e-06
2.31963 	6.37502e-06 	-1.93021e-06 	1.05779e-21 	7.01267e-06 	2.33579e-23 	6.69372e-06
2.34778 	6.1575e-06 	-1.70947e-06 	-6.76162e-22 	6.77804e-06 	-6.81019e-24 	6.46776e-06
2.37531 	5.94977e-06 	-1.49351e-06 	7.67618e-22 	6.55128e-06 	1.15635e-23 	6.25052e-06
2.40222 	5.75179e-06 	-1.28248e-06 	-7.01137e-22 	6.33264e-06 	-1.00614e-23 	6.04214e-06
2.42849 	5.56323e-06 	-1.07803e-06 	7.16372e-22 	6.12245e-06 	1.02122e-23 	5.84288e-06
2.45413 	5.38449e-06 	-8.78831e-07 	-6.71027e-22 	5.92082e-06 	9.47525e-24 	5.65272e-06
2.47913 	5.21555e-06 	-6.85537e-07 	-5.01952e-22 	5.7281e-06 	-1.35805e-23 	5.4719e-06
2.50348 	5.05657e-06 	-4.98751e-07 	-1.08903e-22 	5.54462e-06 	-1.41764e-23 	5.30062e-06
2.52719 	4.90754e-06 	-3.17702e-07 	3.30368e-22 	5.3709e-06 	1.53142e-24 	5.13927e-06
2.55026 	4.76896e-06 	-1.42674e-07 	3.6123e-23 	5.20731e-06 	4.86139e-24 	4.98809e-06
2.57268 	4.64098e-06 	2.61543e-08 	3.67133e-23 	5.05445e-06 	-5.0276e-24 	4.84761e-06
2.59446 	4.52385e-06 	1.89382e-07 	3.05514e-22 	4.91304e-06 	8.34759e-24 	4.71841e-06
2.61561 	4.41828e-06 	3.46916e-07 	-2.11759e-22 	4.78369e-06 	6.77416e-24 	4.60099e-06
2.63613 	4.32486e-06 	4.98699e-07 	-1.87275e-22 	4.66713e-06 	-4.59152e-24 	4.49602e-06
2.65602 	4.2442e-06 	6.44944e-07 	-4.49676e-23 	4.56424e-06 	-4.86152e-24 	4.40427e-06
2.67529 	4.17716e-06 	7.85655e-07 	4.20927e-23 	4.47578e-06 	2.36298e-24 	4.32645e-06
2.69396 	4.12425e-06 	9.21213e-07 	-1.09766e-22 	4.40277e-06 	-4.86645e-24 	4.26351e-06
2.71202 	4.08635e-06 	1.05212e-06 	1.68361e-22 	4.346e-06 	-1.26832e-24 	4.21618e-06
2.72949 	4.06413e-06 	1.17816e-06 	2.90912e-23 	4.30622e-06 	9.03922e-24 	4.18517e-06
2.74638 	4.05813e-06 	1.29928e-06 	-1.66856e-22 	4.28403e-06 	-3.2008e-24 	4.17105e-06
2.7627 	4.06861e-06 	1.41622e-06 	6.62851e-23 	4.27984e-06 	-5.0698e-24 	4.1742e-06
2.77846 	4.09563e-06 	1.52871e-06 	4.93517e-23 	4.29365e-06 	1.19866e-24 	4.19463e-06
2.79367 	4.13881e-06 	1.63652e-06 	2.92116e-23 	4.32511e-06 	2.72113e-24 	4.23195e-06
2.80835 	4.1973e-06 	1.73975e-06 	-2.71117e-23 	4.37333e-06 	3.20713e-24 	4.28532e-06
2.8225 	4.26975e-06 	1.83801e-06 	-6.58578e-23 	4.43689e-06 	-3.42013e-24 	4.35333e-06
2.83614 	4.35424e-06 	1.93106e-06 	4.43587e-23 	4.5138e-06 	-2.26607e-24 	4.43402e-06
2.84927 	4.44831e-06 	2.01857e-06 	1.36099e-23 	4.60155e-06 	3.60912e-24 	4.52492e-06
2.86193 	4.54899e-06 	2.10118e-06 	-4.00454e-23 	4.69711e-06 	-7.76409e-25 	4.62305e-06
2.87411 	4.65305e-06 	2.17776e-06 	1.56685e-23 	4.79681e-06 	-3.28267e-24 	4.72496e-06
2.88582 	4.75697e-06 	2.2401e-06 	3.4242e-23 	4.89638e-06 	6.42996e-25 	4.8267e-06
2.89709 	4.85588e-06 	2.28844e-06 	6.99873e-24 	4.99132e-06 	2.74714e-24 	4.92358e-06
2.90793 	4.94332e-06 	2.3285e-06 	-1.8262e-23 	5.07607e-06 	-5.25344e-26 	5.00967e-06
2.91834 	5.01241e-06 	2.36035e-06 	1.72135e-24 	5.1438e-06 	-1.02745e-24 	5.0781e-06
2.92834 	5.05715e-06 	2.38104e-06 	1.68084e-24 	5.18777e-06 	-6.62043e-25 	5.12246e-06
2.93795 	5.07269e-06 	2.38804e-06 	9.53188e-24 	5.20227e-06 	5.51348e-25 	5.13748e-06
2.94717 	5.05512e-06 	2.3794e-06 	-3.15255e-24 	5.18248e-06 	9.81884e-25 	5.11879e-06
2.95601 	5.00061e-06 	2.35316e-06 	-4.83605e-24 	5.12379e-06 	-5.56139e-25 	5.0622e-06
2.96448 	4.90433e-06 	2.30687e-06 	2.60061e-24 	5.02066e-06 	5.39045e-26 	4.9625e-06
2.9726 	4.75882e-06 	2.23697e-06 	-2.29871e-24 	4.86517e-06 	4.0331e-25 	4.81201e-06
2.98037 	4.55192e-06 	2.13779e-06 	-1.90441e-24 	4.64504e-06 	-4.6549e-25 	4.5985e-06
2.9878 	4.26376e-06 	2.00019e-06 	1.18609e-24 	4.34086e-06 	-4.03528e-25 	4.30233e-06
2.99488 	3.86377e-06 	1.81019e-06 	1.09099e-24 	3.92304e-06 	9.75751e-26 	3.89343e-06
3.00163 	3.30951e-06 	1.54246e-06 	2.38308e-25 	3.35064e-06 	1.67576e-25 	3.3301e-06
3.00802 	2.56204e-06 	1.16373e-06 	-7.9676e-26 	2.58649e-06 	1.31109e-26 	2.57427e-06
3.01405 	1.66276e-06 	6.99163e-07 	-3.57211e-27 	1.67418e-06 	-3.50179e-26 	1.66846e-06
3.01971 	8.21045e-07 	2.91634e-07 	2.33782e-26 	8.24748e-07 	-1.76128e-27 	8.2289e-07
3.02495 	2.78234e-07 	7.17376e-08 	-9.16853e-29 	2.78934e-07 	2.76646e-27 	2.78583e-07
3.02973 	5.7577e-08 	8.28768e-09 	1.25291e-29 	5.76358e-08 	-6.68703e-30 	5.76066e-08
3.036 	6.66667e-16 	0 	0 	6.66667e-16 	0 	6.66667e-16
