y,U_0,U_1,U_2
0,0,0,0
0.00086769924,2.0828926e-18,1.2283959e-22,2.6063673e-35
0.0017874829,4.257016e-18,4.7481462e-22,-1.9650343e-36
0.0027624773,6.5562073e-18,1.1206776e-21,-2.2641691e-35
0.0037959966,8.9850614e-18,2.1104944e-21,2.1428891e-35
0.0048915537,1.154829e-17,3.4971707e-21,1.8515168e-35
0.0060528726,1.4250717e-17,5.3439751e-21,-2.7185966e-35
0.0072839007,1.7097282e-17,7.7231015e-21,-1.9224677e-35
0.0085888223,2.0093037e-17,1.0715719e-20,1.7429999e-35
0.0099720729,2.3243149e-17,1.4413047e-20,-1.4611512e-41
0.011438354,2.6552899e-17,1.8917595e-20,-2.1739925e-41
0.01299265,3.0027683e-17,2.4344439e-20,-5.0111993e-42
0.014640245,3.3673011e-17,3.0822614e-20,3.6274407e-42
0.016386737,3.7494507e-17,3.8496651e-20,-2.1804114e-35
0.018238064,4.1497911e-17,4.7528284e-20,-1.7329158e-36
0.020200518,4.5689073e-17,5.8098324e-20,3.6842886e-35
0.022280771,5.0073958e-17,7.0408729e-20,2.5513173e-36
0.024485892,5.4658642e-17,8.4684882e-20,-1.4426274e-35
0.026823378,5.9449308e-17,1.011781e-19,8.3536578e-42
0.029301173,6.4452253e-17,1.2016842e-19,2.0736666e-35
0.0319277,6.9673874e-17,1.4196757e-19,-2.7386784e-35
0.034711887,7.5120679e-17,1.669224e-19,-2.048745e-35
0.037663197,8.0799273e-17,1.9541846e-19,2.7818939e-35
0.040791661,8.6716364e-17,2.2788409e-19,1.110741e-42
0.044107915,9.2878752e-17,2.6479479e-19,7.1215421e-41
0.047623229,9.9293335e-17,3.0667806e-19,-1.4084424e-34
0.051349553,1.0596709e-16,3.541187e-19,8.87348e-35
0.055299553,1.1290709e-16,4.0776457e-19,2.106135e-34
0.059486654,1.2012047e-16,4.6833295e-19,-1.2888685e-34
0.06392509,1.2761446e-16,5.3661737e-19,-6.7605701e-35
0.068629948,1.3539634e-16,6.134951e-19,7.9993722e-35
0.073617218,1.4347344e-16,6.9993537e-19,-2.0775193e-36
0.078903853,1.5185318e-16,7.9700812e-19,4.8718631e-35
0.084507823,1.6054297e-16,9.0589357e-19,-4.8101486e-36
0.090448176,1.695503e-16,1.0278926e-18,-9.4136225e-35
0.096745104,1.7888264e-16,1.1644377e-18,6.5401039e-40
0.10342001,1.8854752e-16,1.317105e-18,4.0021082e-40
0.11049558,1.9855241e-16,1.487627e-18,-7.9244623e-42
0.11799587,2.0890481e-16,1.6779057e-18,6.3638001e-35
0.12594638,2.1961214e-16,1.8900273e-18,-4.3509418e-35
0.13437411,2.3068181e-16,2.1262766e-18,-6.5561305e-35
0.14330773,2.4212112e-16,2.3891526e-18,-2.5812947e-35
0.1527776,2.5393728e-16,2.6813847e-18,-1.9629705e-34
0.1628159,2.6613737e-16,3.005948e-18,8.2450051e-35
0.17345677,2.7872833e-16,3.3660795e-18,2.1253799e-34
0.18473635,2.9171688e-16,3.7652934e-18,4.035834e-35
0.19669301,3.0510952e-16,4.2073953e-18,-1.3650369e-35
0.20936737,3.1891246e-16,4.6964941e-18,-4.2630674e-35
0.22280253,3.3313158e-16,5.2370124e-18,1.1188304e-35
0.23704414,3.4777235e-16,5.8336917e-18,3.0330729e-39
0.25214061,3.6283977e-16,6.491594e-18,3.7896985e-39
0.26814327,3.7833829e-16,7.2160947e-18,1.4302296e-38
0.28510649,3.9427165e-16,8.0128686e-18,2.1314298e-34
0.30308795,4.1064283e-16,8.887863e-18,-1.0584338e-35
0.32214876,4.2745386e-16,9.8472573e-18,-2.2075381e-34
0.34235371,4.4470561e-16,1.0897405e-17,-1.5837691e-39
0.36377149,4.6239764e-16,1.2044752e-17,1.8182693e-38
0.38647488,4.8052786e-16,1.3295733e-17,-2.4676111e-40
0.41054106,4.9909226e-16,1.4656627e-17,-1.4778075e-39
0.43605183,5.1808446e-16,1.6133387e-17,-5.6260132e-34
0.46309391,5.3749528e-16,1.7731415e-17,2.2579678e-35
0.49175922,5.5731208e-16,1.9455289e-17,5.7307886e-34
0.52214518,5.775181e-16,2.1308436e-17,6.3243901e-38
0.55435509,5.980915e-16,2.3292728e-17,2.9391222e-38
0.58849842,6.1900433e-16,2.5408015e-17,4.1230031e-34
0.62469124,6.4022115e-16,2.7651579e-17,6.074993e-36
0.66305656,6.616975e-16,3.0017496e-17,-4.2791e-34
0.70372479,6.8337787e-16,3.2495924e-17,6.2908983e-38
0.74683417,7.0519344e-16,3.5072306e-17,6.1988786e-39
0.79253123,7.2705923e-16,3.7726499e-17,-2.2225708e-38
0.84097128,7.4887081e-16,4.0431851e-17,8.848369e-38
0.892319,7.7050037e-16,4.3154241e-17,6.4755619e-38
0.9467489,7.9179214e-16,4.5851134e-17,-2.1393675e-38
1.004446,8.1255706e-16,4.8470694e-17,1.2379628e-37
1.0656064,8.3256671e-16,5.0951034e-17,9.2412113e-35
1.1304381,8.5154646e-16,5.3219705e-17,-5.9424842e-36
1.1668609,8.6088213e-16,5.4264848e-17,-1.1901728e-34
1.1991613,8.6916666e-16,5.5197486e-17,-2.1562167e-34
1.2720096,8.8503795e-16,5.6791762e-17,-2.2660295e-35
1.3492308,8.98701e-16,5.7895118e-17,6.6873463e-35
1.4310872,9.0961497e-16,5.8397157e-17,1.8456976e-34
1.5178571,9.170759e-16,5.8193557e-17,-2.5287007e-36
1.6046271,9.2039295e-16,5.7260819e-17,-2.9633402e-35
1.6864835,9.1952898e-16,5.571725e-17,-1.6665131e-35
1.7637046,9.1492e-16,5.3714551e-17,-1.1395308e-34
1.836553,9.0703814e-16,5.1376133e-17,-2.0067194e-38
1.9052762,8.963268e-16,4.8806936e-17,-5.479606e-38
1.9701079,8.8319636e-16,4.6094427e-17,5.8244326e-34
2.0312683,8.6802216e-16,4.3310174e-17,-7.2673469e-36
2.0889654,8.5114402e-16,4.0511646e-17,-5.9338352e-34
2.1433953,8.3286689e-16,3.7744066e-17,1.0308376e-34
2.194743,8.1346232e-16,3.5042205e-17,-1.5164248e-35
2.2431831,7.9317044e-16,3.243204e-17,-9.7214433e-35
2.2888801,7.7220228e-16,2.9932249e-17,3.0657375e-38
2.3319895,7.5074215e-16,2.7555528e-17,3.2639235e-39
2.3726577,7.2895021e-16,2.5309733e-17,-2.2443003e-39
2.411023,7.069648e-16,2.3198855e-17,-3.3025206e-38
2.4472159,6.8490483e-16,2.1223848e-17,-3.1422153e-34
2.4813592,6.628719e-16,1.9383318e-17,-2.5225706e-37
2.5135691,6.4095238e-16,1.7674092e-17,3.0622652e-34
2.5439551,6.1921918e-16,1.6091691e-17,5.1858079e-39
2.5726204,5.9773348e-16,1.4630711e-17,5.4857138e-39
2.5826602,5.898676e-16,1.4131494e-17,-6.5921468e-35
2.5996625,5.7654779e-16,1.3285523e-17,-1.7721666e-34
2.6251732,5.5570321e-16,1.204944e-17,-1.1264148e-34
2.6492394,5.3523306e-16,1.0915646e-17,1.6418092e-34
2.6719428,5.1516495e-16,9.8775452e-18,2.0074364e-35
2.6933606,4.9552076e-16,8.9286184e-18,-7.4253343e-37
2.7135655,4.7631741e-16,8.06251e-18,7.5956531e-35
2.7326263,4.5756762e-16,7.2730884e-18,7.1968916e-35
2.7506078,4.3928047e-16,6.5544904e-18,-2.9659034e-35
2.767571,4.2146199e-16,5.9011486e-18,-6.9876957e-35
2.7835737,4.0411557e-16,5.3078086e-18,5.3368073e-36
2.7986701,3.8724238e-16,4.7695364e-18,-1.3215989e-36
2.8129118,3.7084176e-16,4.2817187e-18,4.2154155e-35
2.8263469,3.5491145e-16,3.8400583e-18,2.1056829e-36
2.8390213,3.3944786e-16,3.4405648e-18,-1.5503505e-35
2.8509779,3.2444632e-16,3.079544e-18,-7.1867919e-36
2.8622575,3.0990125e-16,2.7535835e-18,-1.3894318e-37
2.8728984,2.9580632e-16,2.4595387e-18,1.0812893e-35
2.8829367,2.8215457e-16,2.1945169e-18,-1.1285776e-36
2.8924066,2.6893857e-16,1.9558623e-18,-1.2712097e-35
2.9013402,2.5615045e-16,1.74114e-18,9.233614e-37
2.9097679,2.4378206e-16,1.5481208e-18,6.9796514e-36
2.9177184,2.3182501e-16,1.3747666e-18,5.3592061e-42
2.9252187,2.2027071e-16,1.2192163e-18,-7.4122445e-42
2.9322943,2.0911044e-16,1.0797718e-18,0
2.9389692,1.9833543e-16,9.548859e-19,4.3616171e-36
2.9452661,1.8793682e-16,8.4314963e-19,2.8633748e-37
2.9512065,1.7790575e-16,7.4328147e-19,-4.2161548e-36
2.9568104,1.6823338e-16,6.5411655e-19,1.4944059e-35
2.9620971,1.5891088e-16,5.7459693e-19,8.9188714e-37
2.9670843,1.4992948e-16,5.0376254e-19,-1.0158261e-35
2.9717892,1.4128049e-16,4.4074272e-19,2.0801482e-37
2.9762276,1.3295529e-16,3.8474847e-19,-3.7596203e-36
2.9804147,1.2494534e-16,3.3506531e-19,-3.4519511e-41
2.9843647,1.1724222e-16,2.9104664e-19,-2.412525e-41
2.9880911,1.0983761e-16,2.5210775e-19,1.3191961e-35
2.9916064,1.027233e-16,2.1772018e-19,7.2612762e-37
2.9949226,9.5891197e-17,1.8740669e-19,-8.6669344e-36
2.9980511,8.9333351e-17,1.6073654e-19,3.4194768e-37
3.0010024,8.3041924e-17,1.3732127e-19,-3.5673177e-36
3.0037866,7.7009213e-17,1.1681075e-19,-9.8372522e-38
3.0064131,7.1227651e-17,9.8889662e-20,-7.8081764e-39
3.0088909,6.5689802e-17,8.3274213e-20,-3.6549975e-39
3.0112284,6.0388368e-17,6.9709184e-20,-1.0086503e-35
3.0134335,5.5316191e-17,5.7965225e-20,-5.6236125e-37
3.0155138,5.0466248e-17,4.7836398e-20,9.5099927e-36
3.0174762,4.5831656e-17,3.9137934e-20,5.7956619e-42
3.0193275,4.1405671e-17,3.1704199e-20,1.6670489e-35
3.021074,3.7181686e-17,2.538684e-20,9.6277715e-37
3.0227216,3.3153235e-17,2.0053115e-20,-1.8022106e-35
3.0242759,2.9313989e-17,1.5584345e-20,-1.3454302e-37
3.0257422,2.5657755e-17,1.1874539e-20,-4.7572385e-36
3.0271255,2.217848e-17,8.8291393e-21,-3.97932e-37
3.0284304,1.8870244e-17,6.3638898e-21,1.2949814e-35
3.0296614,1.5727263e-17,4.4037923e-21,2.2984507e-36
3.0308227,1.2743887e-17,2.8820975e-21,-4.3691434e-36
3.0319183,9.9145955e-18,1.7394272e-21,-1.7287339e-36
3.0329518,7.2339979e-18,9.2372982e-22,-1.4991411e-36
3.0339268,4.6968329e-18,3.9138091e-22,-4.8717224e-36
3.0348466,2.2979665e-18,1.0084344e-22,-1.7803037e-36
3.0357143,0,0,0
