/*--------------------------------*- C++ -*----------------------------------*\
| =========                 |                                                 |
| \\      /  F ield         | OpenFOAM: The Open Source CFD Toolbox           |
|  \\    /   O peration     | Version:  2006                                  |
|   \\  /    A nd           | Website:  www.openfoam.com                      |
|    \\/     M anipulation  |                                                 |
\*---------------------------------------------------------------------------*/
FoamFile
{
    version     2.0;
    format      ascii;
    class       volScalarField;
    location    "20000";
    object      epsilon;
}
// * * * * * * * * * * * * * * * * * * * * * * * * * * * * * * * * * * * * * //

dimensions      [0 2 -3 0 0 0 0];


internalField   nonuniform List<scalar> 
14751
(
3.48771e-06
3.48748e-06
3.48554e-06
3.47843e-06
3.46781e-06
3.45425e-06
3.43697e-06
3.41725e-06
3.39517e-06
3.37122e-06
3.34577e-06
3.3195e-06
3.29251e-06
3.26483e-06
3.23685e-06
3.20876e-06
3.18106e-06
3.1539e-06
3.12788e-06
3.10332e-06
3.08078e-06
3.06026e-06
3.04085e-06
3.02225e-06
3.00472e-06
2.98821e-06
2.97276e-06
2.95834e-06
2.94497e-06
2.93264e-06
2.92131e-06
2.91096e-06
2.90154e-06
2.89302e-06
2.88537e-06
2.87842e-06
2.87221e-06
2.86675e-06
2.86198e-06
2.85771e-06
2.8539e-06
2.85078e-06
2.84829e-06
2.84655e-06
2.84543e-06
2.84485e-06
2.84478e-06
2.84528e-06
2.84632e-06
2.84797e-06
2.85022e-06
2.85307e-06
2.85649e-06
2.86043e-06
2.86491e-06
2.86994e-06
2.87552e-06
2.88165e-06
2.88833e-06
2.89574e-06
2.90383e-06
2.91262e-06
2.92208e-06
2.93197e-06
2.94237e-06
2.95346e-06
2.96532e-06
2.97794e-06
2.99155e-06
3.0064e-06
3.02248e-06
3.03933e-06
3.05656e-06
3.07411e-06
3.09193e-06
3.10988e-06
3.12797e-06
3.14608e-06
3.16432e-06
3.18279e-06
3.20162e-06
3.2204e-06
3.23931e-06
3.25837e-06
3.27759e-06
3.29688e-06
3.3161e-06
3.33527e-06
3.35425e-06
3.37283e-06
3.39094e-06
3.4077e-06
3.423e-06
3.43716e-06
3.44921e-06
3.46028e-06
3.46895e-06
3.47614e-06
3.48143e-06
1.71287e-06
1.71201e-06
1.70943e-06
1.70413e-06
1.69673e-06
1.68775e-06
1.67701e-06
1.66506e-06
1.65206e-06
1.63828e-06
1.62394e-06
1.60934e-06
1.59457e-06
1.57963e-06
1.5647e-06
1.54987e-06
1.53535e-06
1.52123e-06
1.50775e-06
1.49504e-06
1.48331e-06
1.47252e-06
1.46233e-06
1.45263e-06
1.44352e-06
1.43496e-06
1.42698e-06
1.41954e-06
1.41266e-06
1.40632e-06
1.40051e-06
1.39519e-06
1.39036e-06
1.38599e-06
1.38206e-06
1.3785e-06
1.37531e-06
1.3725e-06
1.37004e-06
1.36784e-06
1.36589e-06
1.36427e-06
1.36299e-06
1.36208e-06
1.36149e-06
1.36117e-06
1.36111e-06
1.36133e-06
1.36183e-06
1.36262e-06
1.36369e-06
1.36506e-06
1.36672e-06
1.36865e-06
1.37085e-06
1.37332e-06
1.37607e-06
1.37911e-06
1.38243e-06
1.38612e-06
1.39016e-06
1.39456e-06
1.3993e-06
1.40429e-06
1.40954e-06
1.41516e-06
1.42118e-06
1.4276e-06
1.43451e-06
1.44202e-06
1.45012e-06
1.45863e-06
1.4674e-06
1.47642e-06
1.48567e-06
1.49508e-06
1.50466e-06
1.51437e-06
1.52427e-06
1.53442e-06
1.54484e-06
1.55538e-06
1.5661e-06
1.57701e-06
1.5881e-06
1.5993e-06
1.61056e-06
1.62186e-06
1.63312e-06
1.64425e-06
1.65515e-06
1.66545e-06
1.67503e-06
1.68392e-06
1.69175e-06
1.69869e-06
1.70419e-06
1.70839e-06
1.71114e-06
9.67036e-07
9.65468e-07
9.62133e-07
9.56924e-07
9.50081e-07
9.4205e-07
9.33106e-07
9.23374e-07
9.1303e-07
9.02306e-07
8.91355e-07
8.80348e-07
8.69368e-07
8.58452e-07
8.47687e-07
8.37151e-07
8.26936e-07
8.17116e-07
8.07783e-07
7.99012e-07
7.90875e-07
7.83345e-07
7.76255e-07
7.69576e-07
7.63323e-07
7.57488e-07
7.52067e-07
7.47047e-07
7.4242e-07
7.38173e-07
7.34291e-07
7.30759e-07
7.2756e-07
7.24681e-07
7.221e-07
7.19788e-07
7.17735e-07
7.15939e-07
7.14383e-07
7.13027e-07
7.11865e-07
7.10928e-07
7.1021e-07
7.0972e-07
7.09439e-07
7.09344e-07
7.09432e-07
7.09704e-07
7.10159e-07
7.10799e-07
7.11625e-07
7.1266e-07
7.13883e-07
7.15287e-07
7.16873e-07
7.18645e-07
7.20604e-07
7.22754e-07
7.25102e-07
7.27676e-07
7.30482e-07
7.33514e-07
7.3677e-07
7.4022e-07
7.43877e-07
7.47784e-07
7.51961e-07
7.56422e-07
7.61204e-07
7.66361e-07
7.71885e-07
7.77697e-07
7.83733e-07
7.8999e-07
7.96461e-07
8.03122e-07
8.09972e-07
8.17019e-07
8.24268e-07
8.31756e-07
8.39469e-07
8.47372e-07
8.55458e-07
8.63736e-07
8.72187e-07
8.80761e-07
8.89422e-07
8.98135e-07
9.06845e-07
9.15477e-07
9.23933e-07
9.32046e-07
9.39681e-07
9.46738e-07
9.53049e-07
9.58453e-07
9.62719e-07
9.65717e-07
9.67254e-07
6.45247e-07
6.42992e-07
6.39245e-07
6.34144e-07
6.27783e-07
6.20515e-07
6.12628e-07
6.04233e-07
5.95561e-07
5.86665e-07
5.77682e-07
5.68735e-07
5.599e-07
5.51225e-07
5.4277e-07
5.34591e-07
5.26738e-07
5.19262e-07
5.12208e-07
5.05622e-07
4.9954e-07
4.93952e-07
4.8873e-07
4.83858e-07
4.79332e-07
4.75147e-07
4.71295e-07
4.67764e-07
4.64544e-07
4.61623e-07
4.58989e-07
4.56629e-07
4.54529e-07
4.52678e-07
4.51061e-07
4.49661e-07
4.48469e-07
4.47479e-07
4.46678e-07
4.46048e-07
4.45586e-07
4.45296e-07
4.45174e-07
4.45218e-07
4.4542e-07
4.45768e-07
4.4626e-07
4.46895e-07
4.4767e-07
4.48587e-07
4.49665e-07
4.5089e-07
4.52255e-07
4.53758e-07
4.55397e-07
4.57175e-07
4.59091e-07
4.61147e-07
4.63347e-07
4.65698e-07
4.68206e-07
4.70866e-07
4.73679e-07
4.76638e-07
4.79751e-07
4.83037e-07
4.86508e-07
4.90179e-07
4.94074e-07
4.98223e-07
5.02628e-07
5.07237e-07
5.12002e-07
5.16918e-07
5.21982e-07
5.27185e-07
5.32525e-07
5.3801e-07
5.43636e-07
5.49416e-07
5.55338e-07
5.61389e-07
5.67558e-07
5.7384e-07
5.80218e-07
5.86656e-07
5.93125e-07
5.99586e-07
6.05992e-07
6.12282e-07
6.18372e-07
6.24172e-07
6.29566e-07
6.34449e-07
6.38719e-07
6.42191e-07
6.44776e-07
6.46306e-07
6.46562e-07
5.02715e-07
4.99594e-07
4.95346e-07
4.90139e-07
4.84017e-07
4.77274e-07
4.70123e-07
4.62659e-07
4.5507e-07
4.47473e-07
4.39936e-07
4.32508e-07
4.25271e-07
4.18268e-07
4.11543e-07
4.05131e-07
3.99064e-07
3.93369e-07
3.88067e-07
3.83188e-07
3.78763e-07
3.74811e-07
3.71185e-07
3.67863e-07
3.64838e-07
3.62103e-07
3.59648e-07
3.57463e-07
3.55536e-07
3.53857e-07
3.52414e-07
3.51197e-07
3.50196e-07
3.49398e-07
3.48794e-07
3.48372e-07
3.48123e-07
3.48042e-07
3.48118e-07
3.48342e-07
3.48708e-07
3.49215e-07
3.49857e-07
3.5063e-07
3.51527e-07
3.52543e-07
3.53673e-07
3.54913e-07
3.56265e-07
3.57734e-07
3.59314e-07
3.60998e-07
3.62783e-07
3.64665e-07
3.66643e-07
3.68714e-07
3.70876e-07
3.73129e-07
3.75472e-07
3.77905e-07
3.80429e-07
3.83039e-07
3.85737e-07
3.8852e-07
3.91391e-07
3.9436e-07
3.97434e-07
4.00625e-07
4.03953e-07
4.07446e-07
4.1113e-07
4.14953e-07
4.18849e-07
4.22814e-07
4.26842e-07
4.30927e-07
4.35068e-07
4.39261e-07
4.43504e-07
4.47794e-07
4.52125e-07
4.56484e-07
4.60861e-07
4.65247e-07
4.69622e-07
4.7396e-07
4.78237e-07
4.82417e-07
4.86463e-07
4.90324e-07
4.93939e-07
4.97251e-07
5.0018e-07
5.02647e-07
5.04594e-07
5.05889e-07
5.06516e-07
5.06302e-07
5.05072e-07
4.295e-07
4.25439e-07
4.20551e-07
4.14987e-07
4.08791e-07
4.02222e-07
3.95452e-07
3.88565e-07
3.81717e-07
3.74996e-07
3.68476e-07
3.62222e-07
3.56238e-07
3.50561e-07
3.45221e-07
3.40239e-07
3.35629e-07
3.31402e-07
3.27564e-07
3.24134e-07
3.2116e-07
3.18833e-07
3.16807e-07
3.15044e-07
3.13535e-07
3.1227e-07
3.1124e-07
3.10434e-07
3.09842e-07
3.09453e-07
3.09259e-07
3.09249e-07
3.09414e-07
3.09746e-07
3.10234e-07
3.10871e-07
3.11649e-07
3.12561e-07
3.13598e-07
3.14755e-07
3.16024e-07
3.17402e-07
3.18882e-07
3.20458e-07
3.22124e-07
3.23874e-07
3.25701e-07
3.27602e-07
3.29571e-07
3.31607e-07
3.33704e-07
3.35858e-07
3.38063e-07
3.40313e-07
3.42605e-07
3.44934e-07
3.47296e-07
3.49687e-07
3.52103e-07
3.54542e-07
3.57e-07
3.59473e-07
3.61962e-07
3.64463e-07
3.6698e-07
3.69515e-07
3.72076e-07
3.74672e-07
3.77326e-07
3.80081e-07
3.83053e-07
3.86174e-07
3.89301e-07
3.92425e-07
3.95539e-07
3.98638e-07
4.01718e-07
4.04771e-07
4.07793e-07
4.10774e-07
4.13707e-07
4.1658e-07
4.19382e-07
4.221e-07
4.24717e-07
4.27214e-07
4.29569e-07
4.31753e-07
4.33737e-07
4.35485e-07
4.3696e-07
4.38118e-07
4.38906e-07
4.39283e-07
4.39194e-07
4.3858e-07
4.37413e-07
4.35593e-07
4.32948e-07
3.78425e-07
3.73787e-07
3.68572e-07
3.6291e-07
3.56862e-07
3.50654e-07
3.44443e-07
3.38292e-07
3.32333e-07
3.26627e-07
3.21226e-07
3.1617e-07
3.11487e-07
3.07169e-07
3.03215e-07
2.99638e-07
2.96438e-07
2.93619e-07
2.91175e-07
2.89112e-07
2.87443e-07
2.8619e-07
2.85209e-07
2.84479e-07
2.83986e-07
2.8372e-07
2.83669e-07
2.83822e-07
2.84168e-07
2.84697e-07
2.854e-07
2.86267e-07
2.87289e-07
2.88457e-07
2.89763e-07
2.91199e-07
2.92757e-07
2.9443e-07
2.96211e-07
2.98091e-07
3.00065e-07
3.02125e-07
3.04266e-07
3.06479e-07
3.08757e-07
3.11093e-07
3.13479e-07
3.15909e-07
3.18376e-07
3.20874e-07
3.23397e-07
3.25939e-07
3.28491e-07
3.31048e-07
3.33603e-07
3.36149e-07
3.38681e-07
3.41194e-07
3.43683e-07
3.46144e-07
3.48574e-07
3.50969e-07
3.53329e-07
3.55652e-07
3.57941e-07
3.60198e-07
3.62429e-07
3.64643e-07
3.66854e-07
3.69083e-07
3.71351e-07
3.73616e-07
3.75828e-07
3.7798e-07
3.80065e-07
3.82079e-07
3.84017e-07
3.85868e-07
3.87629e-07
3.89294e-07
3.90853e-07
3.92298e-07
3.93616e-07
3.94796e-07
3.95822e-07
3.96678e-07
3.9735e-07
3.97818e-07
3.98066e-07
3.98072e-07
3.97815e-07
3.97277e-07
3.96419e-07
3.95216e-07
3.93642e-07
3.91641e-07
3.89204e-07
3.8622e-07
3.8264e-07
3.33962e-07
3.29126e-07
3.23808e-07
3.18174e-07
3.12298e-07
3.06399e-07
3.00663e-07
2.95118e-07
2.89884e-07
2.85004e-07
2.80507e-07
2.76409e-07
2.72721e-07
2.69439e-07
2.66555e-07
2.64039e-07
2.61886e-07
2.60094e-07
2.58649e-07
2.57549e-07
2.56787e-07
2.56347e-07
2.56147e-07
2.56178e-07
2.56421e-07
2.56867e-07
2.57503e-07
2.58318e-07
2.59302e-07
2.60445e-07
2.61736e-07
2.63168e-07
2.6473e-07
2.66415e-07
2.68215e-07
2.7012e-07
2.72124e-07
2.74218e-07
2.76394e-07
2.78645e-07
2.80963e-07
2.83339e-07
2.85767e-07
2.88242e-07
2.90754e-07
2.93291e-07
2.95846e-07
2.98409e-07
3.00975e-07
3.03536e-07
3.06083e-07
3.0861e-07
3.11109e-07
3.13571e-07
3.15991e-07
3.18361e-07
3.20676e-07
3.22932e-07
3.25124e-07
3.27251e-07
3.2931e-07
3.31299e-07
3.3322e-07
3.35074e-07
3.36865e-07
3.38597e-07
3.40278e-07
3.41917e-07
3.43523e-07
3.45109e-07
3.46675e-07
3.48195e-07
3.49646e-07
3.51023e-07
3.52322e-07
3.53533e-07
3.54662e-07
3.5572e-07
3.56685e-07
3.57559e-07
3.58321e-07
3.58975e-07
3.59499e-07
3.59889e-07
3.60126e-07
3.60194e-07
3.60083e-07
3.5978e-07
3.59271e-07
3.58548e-07
3.57593e-07
3.56405e-07
3.54953e-07
3.53197e-07
3.5114e-07
3.48681e-07
3.45847e-07
3.42493e-07
3.38578e-07
2.90324e-07
2.85921e-07
2.81051e-07
2.75941e-07
2.70676e-07
2.6546e-07
2.60496e-07
2.55787e-07
2.5144e-07
2.47481e-07
2.43922e-07
2.40767e-07
2.38013e-07
2.35647e-07
2.33653e-07
2.32022e-07
2.30727e-07
2.29746e-07
2.29069e-07
2.28686e-07
2.28579e-07
2.28724e-07
2.29076e-07
2.29627e-07
2.30359e-07
2.31263e-07
2.32327e-07
2.33541e-07
2.34895e-07
2.36378e-07
2.37982e-07
2.39697e-07
2.41516e-07
2.4343e-07
2.45429e-07
2.47506e-07
2.49653e-07
2.51861e-07
2.5412e-07
2.56424e-07
2.58767e-07
2.61143e-07
2.63538e-07
2.65946e-07
2.68355e-07
2.70755e-07
2.73138e-07
2.75496e-07
2.77821e-07
2.80105e-07
2.8234e-07
2.84519e-07
2.86634e-07
2.88679e-07
2.90648e-07
2.92535e-07
2.94338e-07
2.96051e-07
2.97675e-07
2.99209e-07
3.00654e-07
3.02011e-07
3.03284e-07
3.04477e-07
3.05596e-07
3.06649e-07
3.07644e-07
3.0859e-07
3.09493e-07
3.10361e-07
3.11188e-07
3.11962e-07
3.12674e-07
3.1332e-07
3.13898e-07
3.14433e-07
3.14917e-07
3.15351e-07
3.1572e-07
3.1603e-07
3.16259e-07
3.16416e-07
3.16477e-07
3.16443e-07
3.16296e-07
3.16019e-07
3.15608e-07
3.15051e-07
3.14338e-07
3.13467e-07
3.12419e-07
3.11207e-07
3.09796e-07
3.08135e-07
3.06238e-07
3.03974e-07
3.01391e-07
2.98318e-07
2.94707e-07
2.50092e-07
2.46496e-07
2.42396e-07
2.381e-07
2.3369e-07
2.29351e-07
2.25289e-07
2.21489e-07
2.18047e-07
2.14979e-07
2.12287e-07
2.09965e-07
2.08007e-07
2.06395e-07
2.05112e-07
2.04143e-07
2.03466e-07
2.03077e-07
2.02943e-07
2.03049e-07
2.03373e-07
2.03896e-07
2.0459e-07
2.0545e-07
2.06458e-07
2.07606e-07
2.08882e-07
2.10278e-07
2.11783e-07
2.13388e-07
2.15085e-07
2.16865e-07
2.18719e-07
2.20638e-07
2.22615e-07
2.24637e-07
2.26701e-07
2.28798e-07
2.30924e-07
2.33066e-07
2.35215e-07
2.37363e-07
2.39499e-07
2.41615e-07
2.437e-07
2.45747e-07
2.47746e-07
2.4969e-07
2.51571e-07
2.53383e-07
2.55119e-07
2.56771e-07
2.58336e-07
2.59806e-07
2.6118e-07
2.62453e-07
2.63624e-07
2.64693e-07
2.65662e-07
2.66531e-07
2.67307e-07
2.67991e-07
2.68592e-07
2.69115e-07
2.69569e-07
2.69963e-07
2.70305e-07
2.70604e-07
2.70864e-07
2.71092e-07
2.71284e-07
2.71436e-07
2.71546e-07
2.71612e-07
2.71683e-07
2.71733e-07
2.7176e-07
2.71773e-07
2.71759e-07
2.7173e-07
2.71661e-07
2.71566e-07
2.71423e-07
2.71234e-07
2.70982e-07
2.70652e-07
2.70244e-07
2.69745e-07
2.69148e-07
2.68453e-07
2.67642e-07
2.66729e-07
2.6568e-07
2.64438e-07
2.63016e-07
2.61275e-07
2.59266e-07
2.5681e-07
2.53844e-07
2.1503e-07
2.123e-07
2.09045e-07
2.05615e-07
2.02084e-07
1.98619e-07
1.95416e-07
1.92451e-07
1.89809e-07
1.87503e-07
1.85528e-07
1.83876e-07
1.82539e-07
1.81498e-07
1.80736e-07
1.80239e-07
1.79988e-07
1.79974e-07
1.8017e-07
1.80564e-07
1.81137e-07
1.81867e-07
1.82736e-07
1.83737e-07
1.84855e-07
1.86082e-07
1.87407e-07
1.88823e-07
1.9032e-07
1.91888e-07
1.9352e-07
1.95207e-07
1.96942e-07
1.98716e-07
2.00522e-07
2.02353e-07
2.04199e-07
2.06051e-07
2.07902e-07
2.09741e-07
2.11561e-07
2.13351e-07
2.15103e-07
2.16809e-07
2.18461e-07
2.20051e-07
2.21571e-07
2.23016e-07
2.24378e-07
2.25652e-07
2.26834e-07
2.27918e-07
2.28902e-07
2.29782e-07
2.30558e-07
2.31228e-07
2.31795e-07
2.3226e-07
2.32627e-07
2.329e-07
2.33087e-07
2.33194e-07
2.33228e-07
2.33198e-07
2.33114e-07
2.32984e-07
2.32818e-07
2.32623e-07
2.32405e-07
2.32167e-07
2.31912e-07
2.31639e-07
2.31349e-07
2.31091e-07
2.30851e-07
2.30617e-07
2.30394e-07
2.30192e-07
2.3e-07
2.2983e-07
2.29661e-07
2.29506e-07
2.29346e-07
2.29184e-07
2.29005e-07
2.28795e-07
2.28555e-07
2.28272e-07
2.27942e-07
2.27564e-07
2.27119e-07
2.26622e-07
2.2604e-07
2.25312e-07
2.24452e-07
2.23323e-07
2.21969e-07
2.20215e-07
2.17979e-07
1.854e-07
1.83451e-07
1.80972e-07
1.78324e-07
1.75578e-07
1.72878e-07
1.70405e-07
1.68134e-07
1.66143e-07
1.64439e-07
1.63016e-07
1.61867e-07
1.60982e-07
1.60345e-07
1.59939e-07
1.59753e-07
1.59768e-07
1.59975e-07
1.60353e-07
1.60888e-07
1.61562e-07
1.6236e-07
1.63268e-07
1.64282e-07
1.65385e-07
1.66572e-07
1.67833e-07
1.69158e-07
1.7054e-07
1.7197e-07
1.73441e-07
1.74943e-07
1.76469e-07
1.78012e-07
1.79564e-07
1.81117e-07
1.82661e-07
1.8419e-07
1.85694e-07
1.87165e-07
1.88596e-07
1.89978e-07
1.91304e-07
1.92567e-07
1.9376e-07
1.94877e-07
1.95913e-07
1.96862e-07
1.9772e-07
1.98483e-07
1.99148e-07
1.99713e-07
2.00177e-07
2.00541e-07
2.00805e-07
2.0097e-07
2.0104e-07
2.0102e-07
2.00915e-07
2.00732e-07
2.00478e-07
2.00162e-07
1.99792e-07
1.99377e-07
1.98927e-07
1.98451e-07
1.97957e-07
1.97452e-07
1.96943e-07
1.96434e-07
1.95928e-07
1.95427e-07
1.94971e-07
1.9456e-07
1.94184e-07
1.93842e-07
1.93537e-07
1.9328e-07
1.93061e-07
1.92893e-07
1.92755e-07
1.92662e-07
1.92595e-07
1.92558e-07
1.92538e-07
1.92523e-07
1.92512e-07
1.92496e-07
1.92467e-07
1.92427e-07
1.92357e-07
1.92269e-07
1.92132e-07
1.91891e-07
1.91551e-07
1.90989e-07
1.90239e-07
1.89135e-07
1.87587e-07
1.60691e-07
1.59386e-07
1.57555e-07
1.55556e-07
1.53456e-07
1.5138e-07
1.49489e-07
1.47764e-07
1.46272e-07
1.45018e-07
1.43999e-07
1.43207e-07
1.42633e-07
1.42263e-07
1.42082e-07
1.4208e-07
1.42239e-07
1.42554e-07
1.43003e-07
1.43575e-07
1.44256e-07
1.45033e-07
1.45894e-07
1.46837e-07
1.47846e-07
1.48916e-07
1.50038e-07
1.51204e-07
1.52405e-07
1.53634e-07
1.54883e-07
1.56144e-07
1.57411e-07
1.58676e-07
1.59931e-07
1.61169e-07
1.62382e-07
1.63563e-07
1.64704e-07
1.65798e-07
1.66839e-07
1.67819e-07
1.68734e-07
1.69577e-07
1.70344e-07
1.7103e-07
1.71632e-07
1.72145e-07
1.72569e-07
1.729e-07
1.73138e-07
1.73283e-07
1.73336e-07
1.733e-07
1.73176e-07
1.72969e-07
1.72683e-07
1.72324e-07
1.71898e-07
1.71414e-07
1.70879e-07
1.70302e-07
1.69692e-07
1.69056e-07
1.68406e-07
1.67747e-07
1.67089e-07
1.66439e-07
1.65802e-07
1.65183e-07
1.64586e-07
1.64032e-07
1.63544e-07
1.63108e-07
1.62724e-07
1.62391e-07
1.62113e-07
1.619e-07
1.61744e-07
1.61656e-07
1.61617e-07
1.6164e-07
1.61711e-07
1.61832e-07
1.61991e-07
1.62178e-07
1.62392e-07
1.62625e-07
1.6287e-07
1.63126e-07
1.63379e-07
1.63636e-07
1.63869e-07
1.64028e-07
1.64116e-07
1.64021e-07
1.63767e-07
1.63203e-07
1.62238e-07
1.40143e-07
1.39337e-07
1.38019e-07
1.36531e-07
1.34938e-07
1.33348e-07
1.31904e-07
1.30589e-07
1.29465e-07
1.28536e-07
1.27799e-07
1.27248e-07
1.26874e-07
1.26665e-07
1.2661e-07
1.26698e-07
1.26915e-07
1.27255e-07
1.277e-07
1.2824e-07
1.28863e-07
1.2956e-07
1.30319e-07
1.31139e-07
1.32007e-07
1.32915e-07
1.33858e-07
1.34827e-07
1.35814e-07
1.36813e-07
1.37816e-07
1.38818e-07
1.3981e-07
1.40787e-07
1.41741e-07
1.42666e-07
1.43556e-07
1.44403e-07
1.45202e-07
1.45948e-07
1.46634e-07
1.47257e-07
1.47811e-07
1.48293e-07
1.487e-07
1.49029e-07
1.49278e-07
1.49444e-07
1.49529e-07
1.49531e-07
1.49451e-07
1.49291e-07
1.49054e-07
1.48743e-07
1.48362e-07
1.47915e-07
1.47409e-07
1.46848e-07
1.46241e-07
1.45595e-07
1.44918e-07
1.44217e-07
1.43502e-07
1.42779e-07
1.42057e-07
1.41344e-07
1.40646e-07
1.3997e-07
1.39321e-07
1.38705e-07
1.38127e-07
1.37624e-07
1.37182e-07
1.36799e-07
1.36478e-07
1.36218e-07
1.36023e-07
1.359e-07
1.35844e-07
1.35863e-07
1.35942e-07
1.36092e-07
1.36301e-07
1.36569e-07
1.36889e-07
1.37251e-07
1.37653e-07
1.38088e-07
1.38551e-07
1.39039e-07
1.3954e-07
1.4006e-07
1.40574e-07
1.41036e-07
1.41447e-07
1.41708e-07
1.41833e-07
1.41689e-07
1.41181e-07
1.22998e-07
1.22563e-07
1.21635e-07
1.20537e-07
1.1933e-07
1.18107e-07
1.16994e-07
1.1598e-07
1.15118e-07
1.14414e-07
1.13865e-07
1.13465e-07
1.13209e-07
1.13086e-07
1.13085e-07
1.13198e-07
1.13412e-07
1.13723e-07
1.14115e-07
1.1458e-07
1.15107e-07
1.15688e-07
1.16315e-07
1.16986e-07
1.17688e-07
1.18416e-07
1.19164e-07
1.19925e-07
1.20691e-07
1.21458e-07
1.22218e-07
1.22965e-07
1.23694e-07
1.244e-07
1.25075e-07
1.25715e-07
1.26314e-07
1.26867e-07
1.2737e-07
1.27818e-07
1.28208e-07
1.28536e-07
1.28799e-07
1.28994e-07
1.29122e-07
1.29179e-07
1.29165e-07
1.2908e-07
1.28926e-07
1.28701e-07
1.2841e-07
1.28055e-07
1.27639e-07
1.27166e-07
1.26641e-07
1.26068e-07
1.25453e-07
1.24803e-07
1.24124e-07
1.23422e-07
1.22707e-07
1.21983e-07
1.21259e-07
1.20541e-07
1.19837e-07
1.19153e-07
1.18495e-07
1.17868e-07
1.17277e-07
1.16727e-07
1.16239e-07
1.15822e-07
1.15466e-07
1.15173e-07
1.14944e-07
1.1478e-07
1.14683e-07
1.14661e-07
1.14708e-07
1.14831e-07
1.15019e-07
1.1528e-07
1.15605e-07
1.15993e-07
1.16438e-07
1.16932e-07
1.17474e-07
1.18057e-07
1.18677e-07
1.1933e-07
1.20007e-07
1.20711e-07
1.21421e-07
1.22097e-07
1.22735e-07
1.23251e-07
1.2365e-07
1.23813e-07
1.23648e-07
1.086e-07
1.08429e-07
1.07792e-07
1.06982e-07
1.06062e-07
1.05111e-07
1.04238e-07
1.03436e-07
1.02756e-07
1.02201e-07
1.01769e-07
1.01457e-07
1.0126e-07
1.01168e-07
1.01173e-07
1.01268e-07
1.01442e-07
1.01691e-07
1.02002e-07
1.02368e-07
1.0278e-07
1.03231e-07
1.03714e-07
1.04227e-07
1.0476e-07
1.05308e-07
1.05864e-07
1.06425e-07
1.06982e-07
1.07532e-07
1.08068e-07
1.08586e-07
1.09081e-07
1.09548e-07
1.09982e-07
1.10379e-07
1.10736e-07
1.11047e-07
1.1131e-07
1.11522e-07
1.11681e-07
1.11783e-07
1.11829e-07
1.11815e-07
1.11743e-07
1.11611e-07
1.11421e-07
1.11172e-07
1.10867e-07
1.10508e-07
1.10096e-07
1.09636e-07
1.09131e-07
1.08585e-07
1.08003e-07
1.07389e-07
1.0675e-07
1.06089e-07
1.05414e-07
1.0473e-07
1.04044e-07
1.03361e-07
1.02689e-07
1.02031e-07
1.01396e-07
1.00787e-07
1.0021e-07
9.96698e-08
9.91707e-08
9.87189e-08
9.8339e-08
9.80203e-08
9.77609e-08
9.75633e-08
9.74295e-08
9.73597e-08
9.73561e-08
9.74242e-08
9.75606e-08
9.77704e-08
9.80448e-08
9.83906e-08
9.88e-08
9.92739e-08
9.98061e-08
1.0039e-07
1.01025e-07
1.01705e-07
1.02426e-07
1.03185e-07
1.03975e-07
1.04797e-07
1.05632e-07
1.06447e-07
1.07234e-07
1.07921e-07
1.08506e-07
1.08883e-07
1.08964e-07
9.64169e-08
9.64257e-08
9.59984e-08
9.53981e-08
9.46865e-08
9.39315e-08
9.32283e-08
9.25746e-08
9.20145e-08
9.15531e-08
9.11892e-08
9.09204e-08
9.07415e-08
9.06467e-08
9.06279e-08
9.06794e-08
9.0792e-08
9.09626e-08
9.118e-08
9.14384e-08
9.17302e-08
9.20502e-08
9.2392e-08
9.27539e-08
9.31268e-08
9.35072e-08
9.38895e-08
9.42695e-08
9.46416e-08
9.50015e-08
9.53451e-08
9.56682e-08
9.59669e-08
9.62374e-08
9.64762e-08
9.66801e-08
9.68459e-08
9.6971e-08
9.70533e-08
9.70906e-08
9.70818e-08
9.70254e-08
9.69209e-08
9.6768e-08
9.65672e-08
9.63188e-08
9.60239e-08
9.56836e-08
9.53004e-08
9.48761e-08
9.44139e-08
9.39169e-08
9.3389e-08
9.28338e-08
9.22553e-08
9.16578e-08
9.10464e-08
9.04254e-08
8.98002e-08
8.91758e-08
8.85576e-08
8.79504e-08
8.73593e-08
8.67889e-08
8.62443e-08
8.57299e-08
8.525e-08
8.48085e-08
8.44083e-08
8.40658e-08
8.37855e-08
8.35607e-08
8.33919e-08
8.32815e-08
8.32315e-08
8.32421e-08
8.33152e-08
8.34552e-08
8.36599e-08
8.39332e-08
8.42688e-08
8.46718e-08
8.51365e-08
8.56635e-08
8.6248e-08
8.68846e-08
8.75723e-08
8.83064e-08
8.90836e-08
8.99018e-08
9.07535e-08
9.16401e-08
9.25454e-08
9.34391e-08
9.43135e-08
9.51052e-08
9.58081e-08
9.63264e-08
9.65754e-08
8.60257e-08
8.61504e-08
8.58714e-08
8.54196e-08
8.48567e-08
8.42408e-08
8.3655e-08
8.31007e-08
8.26177e-08
8.22111e-08
8.18808e-08
8.16252e-08
8.14403e-08
8.13215e-08
8.12623e-08
8.12579e-08
8.13008e-08
8.13884e-08
8.15115e-08
8.16652e-08
8.18433e-08
8.20413e-08
8.2254e-08
8.24799e-08
8.27115e-08
8.29458e-08
8.31782e-08
8.34051e-08
8.36221e-08
8.38256e-08
8.40125e-08
8.41794e-08
8.43232e-08
8.44413e-08
8.45309e-08
8.45899e-08
8.46158e-08
8.46072e-08
8.45624e-08
8.44803e-08
8.43605e-08
8.4202e-08
8.40052e-08
8.37703e-08
8.34981e-08
8.31894e-08
8.28456e-08
8.2468e-08
8.20592e-08
8.16211e-08
8.11565e-08
8.06686e-08
8.01606e-08
7.96359e-08
7.90979e-08
7.85502e-08
7.79972e-08
7.74425e-08
7.68904e-08
7.63452e-08
7.58112e-08
7.52923e-08
7.47927e-08
7.43162e-08
7.3867e-08
7.34485e-08
7.30646e-08
7.27186e-08
7.24137e-08
7.2168e-08
7.19739e-08
7.18301e-08
7.17379e-08
7.16996e-08
7.17167e-08
7.17897e-08
7.19202e-08
7.21121e-08
7.23636e-08
7.26784e-08
7.30516e-08
7.34874e-08
7.39815e-08
7.45346e-08
7.51429e-08
7.58021e-08
7.65111e-08
7.72663e-08
7.80649e-08
7.8905e-08
7.97803e-08
8.06916e-08
8.16246e-08
8.2553e-08
8.34678e-08
8.43141e-08
8.50815e-08
8.56847e-08
8.60423e-08
7.70973e-08
7.72908e-08
7.71131e-08
7.67642e-08
7.63051e-08
7.57861e-08
7.52798e-08
7.47907e-08
7.43545e-08
7.39769e-08
7.36583e-08
7.33982e-08
7.31935e-08
7.30408e-08
7.29348e-08
7.28717e-08
7.28454e-08
7.2854e-08
7.28898e-08
7.29488e-08
7.30259e-08
7.31174e-08
7.32191e-08
7.33298e-08
7.34432e-08
7.35569e-08
7.36671e-08
7.37711e-08
7.38653e-08
7.39468e-08
7.40131e-08
7.40619e-08
7.40907e-08
7.40976e-08
7.40807e-08
7.40384e-08
7.3969e-08
7.38716e-08
7.37454e-08
7.35896e-08
7.34043e-08
7.3189e-08
7.29444e-08
7.2671e-08
7.23697e-08
7.20416e-08
7.1688e-08
7.13104e-08
7.0911e-08
7.04917e-08
7.00549e-08
6.96034e-08
6.914e-08
6.86675e-08
6.81887e-08
6.77068e-08
6.72251e-08
6.67466e-08
6.6275e-08
6.58136e-08
6.5366e-08
6.49352e-08
6.45248e-08
6.41377e-08
6.37775e-08
6.34469e-08
6.31493e-08
6.28877e-08
6.2668e-08
6.24999e-08
6.23763e-08
6.22978e-08
6.22661e-08
6.2283e-08
6.23501e-08
6.24678e-08
6.26377e-08
6.28631e-08
6.31429e-08
6.34802e-08
6.38715e-08
6.43202e-08
6.48234e-08
6.53816e-08
6.59919e-08
6.66509e-08
6.73578e-08
6.81094e-08
6.89035e-08
6.97386e-08
7.06094e-08
7.15159e-08
7.24459e-08
7.33762e-08
7.4297e-08
7.51605e-08
7.59533e-08
7.65992e-08
7.70204e-08
6.93757e-08
6.96042e-08
6.94932e-08
6.92136e-08
6.88254e-08
6.83727e-08
6.79192e-08
6.74718e-08
6.70626e-08
6.66978e-08
6.63785e-08
6.61048e-08
6.58746e-08
6.56856e-08
6.55335e-08
6.54155e-08
6.53265e-08
6.52653e-08
6.52256e-08
6.52042e-08
6.51967e-08
6.52004e-08
6.52118e-08
6.523e-08
6.52497e-08
6.52691e-08
6.52852e-08
6.52958e-08
6.5298e-08
6.52896e-08
6.52688e-08
6.52338e-08
6.51827e-08
6.51141e-08
6.50267e-08
6.49194e-08
6.47912e-08
6.46413e-08
6.44693e-08
6.4275e-08
6.40584e-08
6.38196e-08
6.35591e-08
6.32777e-08
6.29763e-08
6.26558e-08
6.23175e-08
6.19629e-08
6.15937e-08
6.12116e-08
6.08187e-08
6.04173e-08
6.00097e-08
5.95982e-08
5.91851e-08
5.87729e-08
5.83644e-08
5.7962e-08
5.75686e-08
5.71869e-08
5.68197e-08
5.64696e-08
5.61394e-08
5.58316e-08
5.55491e-08
5.52943e-08
5.50697e-08
5.48774e-08
5.47288e-08
5.46213e-08
5.45528e-08
5.45244e-08
5.45378e-08
5.45946e-08
5.46963e-08
5.48434e-08
5.50375e-08
5.52813e-08
5.55744e-08
5.59193e-08
5.63136e-08
5.67603e-08
5.72573e-08
5.78052e-08
5.84017e-08
5.90441e-08
5.97319e-08
6.04624e-08
6.1234e-08
6.2045e-08
6.28913e-08
6.37724e-08
6.46774e-08
6.55863e-08
6.64884e-08
6.73422e-08
6.81322e-08
6.87898e-08
6.92414e-08
6.26611e-08
6.29011e-08
6.28313e-08
6.2597e-08
6.22563e-08
6.18486e-08
6.14298e-08
6.10088e-08
6.06147e-08
6.02536e-08
5.99277e-08
5.96375e-08
5.93818e-08
5.91591e-08
5.89661e-08
5.88008e-08
5.86591e-08
5.85403e-08
5.84392e-08
5.83533e-08
5.82792e-08
5.82144e-08
5.81563e-08
5.81042e-08
5.80538e-08
5.80037e-08
5.79514e-08
5.78952e-08
5.78329e-08
5.77627e-08
5.76832e-08
5.75931e-08
5.7491e-08
5.73759e-08
5.72468e-08
5.71029e-08
5.69435e-08
5.67682e-08
5.65768e-08
5.6369e-08
5.61452e-08
5.59055e-08
5.56503e-08
5.53805e-08
5.50967e-08
5.48e-08
5.44913e-08
5.41719e-08
5.38433e-08
5.35068e-08
5.31642e-08
5.28173e-08
5.2468e-08
5.2118e-08
5.17695e-08
5.14241e-08
5.10843e-08
5.0752e-08
5.04294e-08
5.01188e-08
4.98224e-08
4.95424e-08
4.92811e-08
4.90404e-08
4.8823e-08
4.86307e-08
4.84661e-08
4.83314e-08
4.82358e-08
4.81745e-08
4.81472e-08
4.81555e-08
4.82008e-08
4.82846e-08
4.84083e-08
4.85726e-08
4.87788e-08
4.90293e-08
4.93242e-08
4.96656e-08
5.0052e-08
5.04859e-08
5.09659e-08
5.14926e-08
5.20645e-08
5.26793e-08
5.33365e-08
5.40341e-08
5.47707e-08
5.55448e-08
5.63531e-08
5.71947e-08
5.80601e-08
5.89314e-08
5.97979e-08
6.06232e-08
6.13903e-08
6.20376e-08
6.24957e-08
5.67961e-08
5.70322e-08
5.69857e-08
5.67797e-08
5.64703e-08
5.60932e-08
5.56975e-08
5.52937e-08
5.49081e-08
5.4547e-08
5.4213e-08
5.39075e-08
5.36297e-08
5.3379e-08
5.31529e-08
5.29499e-08
5.2767e-08
5.26036e-08
5.24558e-08
5.23214e-08
5.21977e-08
5.20829e-08
5.19747e-08
5.18726e-08
5.17731e-08
5.1675e-08
5.15765e-08
5.14761e-08
5.1372e-08
5.12629e-08
5.11477e-08
5.10253e-08
5.08947e-08
5.0755e-08
5.06057e-08
5.0446e-08
5.02754e-08
5.00937e-08
4.99007e-08
4.96964e-08
4.94809e-08
4.92543e-08
4.90173e-08
4.87702e-08
4.85139e-08
4.82491e-08
4.79766e-08
4.76973e-08
4.74126e-08
4.71235e-08
4.68314e-08
4.65377e-08
4.62439e-08
4.59516e-08
4.56621e-08
4.53772e-08
4.50985e-08
4.48276e-08
4.45665e-08
4.43169e-08
4.40806e-08
4.38594e-08
4.36553e-08
4.34699e-08
4.33053e-08
4.31633e-08
4.30459e-08
4.29568e-08
4.29004e-08
4.28733e-08
4.2876e-08
4.29099e-08
4.29765e-08
4.30771e-08
4.32129e-08
4.33848e-08
4.35941e-08
4.38427e-08
4.41312e-08
4.44612e-08
4.48321e-08
4.52458e-08
4.57017e-08
4.62002e-08
4.67403e-08
4.73203e-08
4.79397e-08
4.85968e-08
4.92906e-08
5.00198e-08
5.07815e-08
5.15746e-08
5.23907e-08
5.3214e-08
5.40338e-08
5.48179e-08
5.55486e-08
5.61706e-08
5.66184e-08
5.16558e-08
5.18782e-08
5.18425e-08
5.16535e-08
5.13647e-08
5.10089e-08
5.06294e-08
5.02379e-08
4.9858e-08
4.94963e-08
4.9156e-08
4.88386e-08
4.85442e-08
4.82725e-08
4.80219e-08
4.77915e-08
4.75788e-08
4.73836e-08
4.72028e-08
4.70347e-08
4.6877e-08
4.67282e-08
4.65867e-08
4.64519e-08
4.63209e-08
4.61928e-08
4.6066e-08
4.59395e-08
4.58116e-08
4.56814e-08
4.55479e-08
4.54102e-08
4.52676e-08
4.51194e-08
4.49649e-08
4.48038e-08
4.46355e-08
4.44598e-08
4.42767e-08
4.40859e-08
4.38878e-08
4.36824e-08
4.34701e-08
4.32512e-08
4.30265e-08
4.27963e-08
4.25615e-08
4.23227e-08
4.20809e-08
4.18371e-08
4.15922e-08
4.13473e-08
4.11038e-08
4.08628e-08
4.06254e-08
4.03929e-08
4.01669e-08
3.99484e-08
3.97391e-08
3.95404e-08
3.93539e-08
3.9181e-08
3.90233e-08
3.88824e-08
3.87599e-08
3.86572e-08
3.8576e-08
3.85221e-08
3.84944e-08
3.84918e-08
3.85153e-08
3.85663e-08
3.86458e-08
3.87553e-08
3.8896e-08
3.90686e-08
3.92743e-08
3.9515e-08
3.97913e-08
4.01048e-08
4.0455e-08
4.0844e-08
4.12712e-08
4.17374e-08
4.22415e-08
4.27825e-08
4.33599e-08
4.39723e-08
4.46189e-08
4.52985e-08
4.60087e-08
4.67481e-08
4.75094e-08
4.82785e-08
4.90447e-08
4.97798e-08
5.04656e-08
5.10523e-08
5.14786e-08
4.71392e-08
4.73425e-08
4.73093e-08
4.713e-08
4.68549e-08
4.65149e-08
4.6148e-08
4.57668e-08
4.53924e-08
4.50317e-08
4.4688e-08
4.43635e-08
4.40586e-08
4.37735e-08
4.35071e-08
4.32588e-08
4.3027e-08
4.28114e-08
4.26097e-08
4.24206e-08
4.22421e-08
4.2073e-08
4.19119e-08
4.17583e-08
4.16099e-08
4.14659e-08
4.13248e-08
4.11858e-08
4.10476e-08
4.09094e-08
4.07702e-08
4.06294e-08
4.04862e-08
4.03401e-08
4.01906e-08
4.00372e-08
3.98796e-08
3.97175e-08
3.95507e-08
3.93792e-08
3.9203e-08
3.90222e-08
3.88372e-08
3.86481e-08
3.84553e-08
3.82594e-08
3.80608e-08
3.78601e-08
3.7658e-08
3.74553e-08
3.72527e-08
3.70511e-08
3.68515e-08
3.66549e-08
3.64621e-08
3.62742e-08
3.60924e-08
3.59176e-08
3.57512e-08
3.55944e-08
3.54484e-08
3.53146e-08
3.51941e-08
3.50884e-08
3.49989e-08
3.49269e-08
3.48739e-08
3.48451e-08
3.48379e-08
3.48524e-08
3.48896e-08
3.49509e-08
3.50372e-08
3.51499e-08
3.529e-08
3.54583e-08
3.5656e-08
3.58847e-08
3.6145e-08
3.64386e-08
3.67654e-08
3.71269e-08
3.75231e-08
3.79546e-08
3.84208e-08
3.89208e-08
3.94542e-08
4.002e-08
4.06173e-08
4.12452e-08
4.19016e-08
4.25851e-08
4.32889e-08
4.40006e-08
4.47098e-08
4.53916e-08
4.60276e-08
4.65732e-08
4.69709e-08
4.31638e-08
4.33451e-08
4.33093e-08
4.31354e-08
4.28703e-08
4.25429e-08
4.21873e-08
4.1816e-08
4.14484e-08
4.10912e-08
4.07481e-08
4.04215e-08
4.01122e-08
3.98206e-08
3.95462e-08
3.92887e-08
3.90469e-08
3.88207e-08
3.86084e-08
3.84086e-08
3.82199e-08
3.80413e-08
3.78715e-08
3.771e-08
3.75548e-08
3.74053e-08
3.72603e-08
3.71189e-08
3.69799e-08
3.68427e-08
3.67065e-08
3.65706e-08
3.64344e-08
3.62973e-08
3.61589e-08
3.60187e-08
3.58764e-08
3.57317e-08
3.55844e-08
3.54345e-08
3.52818e-08
3.51265e-08
3.49686e-08
3.48084e-08
3.46462e-08
3.44822e-08
3.43169e-08
3.41506e-08
3.39839e-08
3.38174e-08
3.36517e-08
3.34874e-08
3.33255e-08
3.31665e-08
3.30112e-08
3.28606e-08
3.27155e-08
3.25768e-08
3.24455e-08
3.23227e-08
3.22094e-08
3.21067e-08
3.20158e-08
3.19377e-08
3.18738e-08
3.18253e-08
3.17937e-08
3.17825e-08
3.17896e-08
3.18155e-08
3.18611e-08
3.19277e-08
3.20163e-08
3.21279e-08