/*--------------------------------*- C++ -*----------------------------------*\
| =========                 |                                                 |
| \\      /  F ield         | OpenFOAM: The Open Source CFD Toolbox           |
|  \\    /   O peration     | Version:  2006                                  |
|   \\  /    A nd           | Website:  www.openfoam.com                      |
|    \\/     M anipulation  |                                                 |
\*---------------------------------------------------------------------------*/
FoamFile
{
    version     2.0;
    format      ascii;
    class       volScalarField;
    location    "20000";
    object      phit;
}
// * * * * * * * * * * * * * * * * * * * * * * * * * * * * * * * * * * * * * //

dimensions      [0 0 0 0 0 0 0];


internalField   nonuniform List<scalar> 
14751
(
0.00605484
0.00607129
0.0060916
0.00611331
0.00613733
0.00616409
0.00619197
0.00622198
0.00625383
0.00628717
0.0063218
0.00635745
0.00639328
0.00642938
0.00646576
0.00650204
0.00653843
0.00657438
0.00661015
0.00664567
0.00668109
0.00671612
0.0067504
0.00678328
0.00681503
0.00684545
0.00687452
0.00690212
0.00692823
0.00695281
0.00697577
0.00699707
0.00701667
0.00703453
0.0070506
0.00706487
0.00707746
0.00708819
0.00709701
0.00710403
0.0071094
0.00711283
0.00711414
0.00711342
0.00711047
0.00710561
0.00709888
0.00709037
0.00708009
0.00706817
0.0070547
0.00703961
0.00702278
0.00700433
0.00698436
0.00696296
0.00694021
0.00691623
0.00689111
0.00686486
0.00683753
0.00680934
0.00678046
0.00675133
0.00672209
0.00669271
0.00666334
0.00663421
0.00660551
0.00657715
0.00654911
0.00652124
0.00649345
0.00646574
0.00643808
0.00641063
0.0063835
0.00635655
0.00632987
0.00630315
0.00627662
0.0062503
0.00622446
0.0061991
0.00617438
0.00615074
0.00612831
0.00610726
0.00608784
0.00607019
0.00605477
0.00604167
0.00603113
0.00602368
0.00601868
0.00601791
0.00602042
0.00602685
0.00603719
0.0173711
0.0174301
0.017506
0.0175927
0.0176914
0.017801
0.0179176
0.0180426
0.0181749
0.0183128
0.0184554
0.0186018
0.0187493
0.0188977
0.0190466
0.0191948
0.0193425
0.0194881
0.0196321
0.0197742
0.0199146
0.0200524
0.0201864
0.0203148
0.0204383
0.0205562
0.0206684
0.0207747
0.0208748
0.0209688
0.0210563
0.0211373
0.0212117
0.0212793
0.0213401
0.021394
0.0214415
0.0214819
0.0215154
0.0215421
0.0215623
0.0215757
0.0215818
0.0215809
0.0215725
0.0215574
0.0215357
0.0215078
0.0214737
0.0214337
0.0213883
0.021337
0.0212795
0.0212164
0.0211479
0.0210743
0.0209959
0.0209129
0.0208258
0.0207347
0.0206397
0.0205415
0.0204406
0.0203377
0.0202335
0.020128
0.0200217
0.0199151
0.0198087
0.0197023
0.0195959
0.0194891
0.0193815
0.0192733
0.0191644
0.0190551
0.0189457
0.0188359
0.018726
0.0186155
0.0185051
0.0183948
0.0182854
0.0181772
0.0180709
0.0179677
0.0178682
0.0177732
0.0176834
0.0175996
0.0175232
0.0174544
0.0173944
0.0173456
0.0173068
0.017284
0.0172753
0.0172845
0.0173134
0.0275749
0.0277062
0.0278735
0.0280649
0.0282836
0.028523
0.0287725
0.0290362
0.0293113
0.029595
0.0298854
0.0301806
0.0304765
0.0307719
0.0310658
0.0313563
0.0316434
0.0319246
0.032201
0.0324716
0.0327365
0.0329944
0.0332433
0.0334806
0.0337072
0.0339224
0.0341257
0.0343168
0.0344956
0.0346619
0.0348154
0.034956
0.0350835
0.0351979
0.0352991
0.0353871
0.0354623
0.0355245
0.0355734
0.0356094
0.035633
0.0356438
0.0356418
0.0356272
0.0355995
0.0355598
0.0355083
0.0354457
0.0353721
0.0352882
0.0351941
0.035089
0.0349735
0.0348481
0.0347135
0.0345701
0.0344183
0.0342589
0.0340924
0.0339193
0.0337398
0.033555
0.0333655
0.0331724
0.0329765
0.0327782
0.0325782
0.0323773
0.0321762
0.0319747
0.0317724
0.0315687
0.0313636
0.0311569
0.0309488
0.0307397
0.03053
0.0303192
0.030108
0.0298962
0.0296848
0.0294737
0.0292648
0.0290584
0.0288562
0.0286602
0.0284715
0.0282917
0.0281222
0.0279644
0.0278206
0.0276905
0.0275775
0.0274853
0.0274134
0.0273719
0.027358
0.0273817
0.0274514
0.0373326
0.0375797
0.0378838
0.0382255
0.0386104
0.0390241
0.0394496
0.0398886
0.0403313
0.04078
0.0412313
0.0416831
0.0421294
0.0425685
0.0429989
0.0434181
0.0438261
0.0442201
0.0446018
0.0449704
0.045326
0.045667
0.0459915
0.0462962
0.0465832
0.0468512
0.0471004
0.0473302
0.047541
0.0477327
0.0479051
0.0480582
0.0481922
0.0483071
0.048403
0.0484799
0.0485388
0.0485792
0.0486013
0.0486056
0.0485927
0.0485627
0.0485156
0.048452
0.0483715
0.0482755
0.0481645
0.0480395
0.0479007
0.0477489
0.0475829
0.047404
0.0472127
0.0470099
0.0467964
0.0465729
0.0463402
0.0460992
0.0458506
0.0455952
0.0453334
0.0450665
0.0447951
0.0445205
0.0442436
0.0439652
0.043686
0.043407
0.0431289
0.0428511
0.0425728
0.0422932
0.0420123
0.0417302
0.0414468
0.0411628
0.0408785
0.0405934
0.0403085
0.0400238
0.0397411
0.0394596
0.0391825
0.0389102
0.0386453
0.038391
0.0381484
0.03792
0.0377077
0.0375133
0.0373396
0.0371856
0.0370561
0.0369569
0.0368863
0.0368607
0.0368737
0.0369476
0.0370997
0.0480257
0.0484362
0.0489288
0.049476
0.0500845
0.050729
0.0513817
0.0520448
0.0527012
0.0533426
0.05397
0.0545867
0.0551851
0.0557628
0.0563182
0.0568482
0.0573535
0.0578307
0.0582831
0.0587099
0.0591119
0.0594888
0.0598392
0.0601597
0.0604536
0.0607199
0.0609595
0.0611722
0.0613589
0.06152
0.0616557
0.0617664
0.0618526
0.0619148
0.0619534
0.0619688
0.0619624
0.0619339
0.0618839
0.0618133
0.0617228
0.0616131
0.0614844
0.0613378
0.0611729
0.0609918
0.0607952
0.0605845
0.0603592
0.0601189
0.0598657
0.0596004
0.0593239
0.0590374
0.0587418
0.0584381
0.0581271
0.0578101
0.0574878
0.057161
0.0568302
0.0564967
0.0561613
0.0558249
0.0554887
0.0551531
0.0548189
0.0544868
0.0541575
0.0538296
0.0535019
0.0531733
0.0528438
0.0525135
0.0521824
0.0518513
0.0515203
0.0511888
0.050858
0.0505279
0.0502021
0.0498781
0.0495608
0.0492506
0.048951
0.0486667
0.048399
0.0481508
0.0479245
0.0477215
0.0475462
0.0473947
0.0472729
0.0471912
0.0471422
0.0471552
0.0472144
0.047364
0.0476343
0.0607871
0.0613912
0.0621106
0.0629078
0.0637872
0.0647112
0.0656341
0.0665599
0.067462
0.06833
0.0691574
0.0699384
0.0706833
0.0713889
0.0720545
0.0726763
0.0732558
0.0737893
0.0742814
0.0747308
0.0751354
0.0754741
0.075775
0.0760372
0.0762658
0.0764603
0.0766224
0.0767525
0.0768524
0.0769229
0.0769648
0.0769791
0.0769668
0.0769287
0.0768657
0.0767787
0.0766693
0.0765378
0.0763851
0.0762122
0.0760205
0.075811
0.075584
0.0753411
0.0750823
0.0748099
0.0745249
0.0742259
0.0739147
0.0735934
0.0732632
0.0729253
0.0725803
0.0722298
0.0718748
0.0715165
0.0711556
0.0707935
0.0704308
0.0700683
0.0697061
0.0693457
0.0689873
0.0686318
0.0682799
0.0679316
0.0675872
0.0672465
0.0669092
0.0665715
0.0662237
0.0658671
0.0655099
0.0651518
0.0647927
0.0644336
0.0640746
0.0637146
0.0633547
0.0629945
0.0626413
0.0622885
0.0619441
0.0616075
0.061283
0.0609759
0.0606881
0.060424
0.060186
0.0599752
0.0597963
0.059644
0.0595261
0.0594562
0.0594268
0.0594751
0.0595841
0.0598054
0.0602033
0.0760915
0.0768581
0.0777734
0.0787851
0.0798926
0.0810456
0.0821786
0.0832985
0.0843698
0.0853806
0.0863245
0.0871965
0.0879916
0.0887212
0.0893936
0.0900054
0.0905591
0.0910519
0.091489
0.0918697
0.0921935
0.0924517
0.0926668
0.0928371
0.0929695
0.0930642
0.0931237
0.0931491
0.0931427
0.093106
0.0930402
0.0929468
0.0928271
0.0926825
0.0925144
0.0923237
0.0921125
0.0918814
0.0916319
0.0913651
0.0910824
0.0907857
0.0904748
0.0901525
0.0898184
0.0894723
0.0891154
0.0887509
0.0883803
0.0880052
0.0876267
0.0872459
0.0868638
0.0864819
0.0861011
0.0857229
0.0853478
0.0849769
0.0846108
0.0842501
0.0838945
0.0835451
0.0832018
0.082865
0.0825347
0.0822104
0.0818914
0.0815768
0.0812654
0.0809533
0.0806359
0.0803145
0.0799929
0.0796703
0.0793466
0.0790229
0.0786981
0.078372
0.078044
0.0777072
0.0773723
0.077036
0.076707
0.0763848
0.0760744
0.0757822
0.0755092
0.0752595
0.0750356
0.0748373
0.0746699
0.0745261
0.0744152
0.0743556
0.0743381
0.0744121
0.0745582
0.0748475
0.0753346
0.0933358
0.0941958
0.0952486
0.0964154
0.0976883
0.099004
0.100277
0.101517
0.102681
0.103758
0.104741
0.10563
0.106421
0.107119
0.10773
0.10827
0.10874
0.109141
0.109478
0.109752
0.109965
0.110118
0.110226
0.110289
0.110313
0.1103
0.110253
0.110172
0.110062
0.109924
0.109759
0.109569
0.109356
0.109121
0.108867
0.108594
0.108305
0.108001
0.107684
0.107354
0.107013
0.106665
0.106308
0.10594
0.105566
0.105186
0.104805
0.104423
0.104042
0.103663
0.103287
0.102917
0.102551
0.102193
0.101843
0.101502
0.10117
0.100849
0.100538
0.100237
0.0999471
0.0996672
0.0993971
0.0991364
0.098884
0.098639
0.0983995
0.0981636
0.0979297
0.0976938
0.0974538
0.0972106
0.0969656
0.0967175
0.0964657
0.0962119
0.0959501
0.0956678
0.0953775
0.0950735
0.0947674
0.0944525
0.0941391
0.0938257
0.0935183
0.0932239
0.0929427
0.0926789
0.0924348
0.092209
0.092008
0.0918221
0.0916629
0.0915552
0.0914882
0.0915263
0.0916466
0.0919383
0.0924603
0.112173
0.113016
0.114114
0.115343
0.116688
0.118073
0.119394
0.120666
0.12184
0.122904
0.123856
0.124695
0.125423
0.126047
0.126574
0.127008
0.127362
0.127646
0.127864
0.128018
0.128115
0.128159
0.128161
0.128119
0.128042
0.127931
0.12779
0.127619
0.127423
0.127204
0.126962
0.126701
0.126421
0.126126
0.125817
0.125495
0.125164
0.124822
0.124476
0.124124
0.123767
0.123403
0.123038
0.122672
0.122308
0.121949
0.121595
0.12125
0.120913
0.120587
0.120272
0.11997
0.119682
0.119408
0.119149
0.118907
0.118681
0.118471
0.118278
0.118101
0.117938
0.117788
0.117652
0.117526
0.11741
0.117301
0.117196
0.117093
0.116989
0.116881
0.116767
0.116648
0.116522
0.116389
0.116245
0.116076
0.115885
0.115666
0.115429
0.115166
0.114889
0.114589
0.114279
0.113954
0.113623
0.113292
0.112961
0.112635
0.112316
0.112001
0.111699
0.111397
0.111112
0.110874
0.110673
0.110588
0.110594
0.110798
0.111269
0.132153
0.132863
0.133915
0.135117
0.136447
0.137818
0.139111
0.140346
0.141467
0.142464
0.143338
0.14409
0.144723
0.145247
0.145672
0.146003
0.146252
0.146418
0.14652
0.146564
0.146559
0.146507
0.146419
0.146292
0.146135
0.145949
0.145739
0.145505
0.145253
0.144983
0.144697
0.144398
0.144088
0.143768
0.143443
0.143114
0.142781
0.142446
0.142109
0.141772
0.14144
0.141112
0.140792
0.140482
0.140183
0.139898
0.139628
0.139375
0.139141
0.138926
0.138731
0.138558
0.138406
0.138277
0.138171
0.138089
0.138029
0.137992
0.137976
0.13798
0.138001
0.138039
0.13809
0.138153
0.138223
0.138297
0.138373
0.138446
0.138514
0.138572
0.13862
0.138655
0.138675
0.138677
0.138632
0.138553
0.138439
0.13828
0.138085
0.137845
0.137573
0.137257
0.136911
0.136531
0.136124
0.135699
0.135255
0.134796
0.134327
0.133843
0.133356
0.132852
0.13235
0.131891
0.131463
0.131161
0.130958
0.130983
0.131313
0.152876
0.153378
0.154311
0.155417
0.156666
0.157965
0.15918
0.160335
0.161368
0.162273
0.163049
0.163702
0.164235
0.164659
0.164986
0.165222
0.165379
0.16546
0.16548
0.165445
0.165363
0.165242
0.16509
0.164908
0.164701
0.164474
0.164228
0.163968
0.163695
0.163412
0.163122
0.162826
0.162528
0.162227
0.161927
0.161627
0.161333
0.161045
0.160766
0.160498
0.160243
0.160005
0.159785
0.159585
0.159406
0.159251
0.159121
0.159019
0.158943
0.158897
0.15888
0.158893
0.158936
0.159009
0.159113
0.159246
0.159407
0.159595
0.159807
0.160042
0.160295
0.160564
0.160845
0.161134
0.161426
0.161717
0.162003
0.162277
0.162538
0.162781
0.163002
0.163198
0.163366
0.163471
0.163518
0.163511
0.163449
0.163318
0.163128
0.162866
0.162548
0.16216
0.161717
0.161214
0.160661
0.160066
0.159428
0.158755
0.158049
0.15731
0.156548
0.155752
0.154946
0.154175
0.153432
0.152825
0.15233
0.15209
0.152203
0.174083
0.17432
0.175083
0.176049
0.177179
0.178373
0.179486
0.180544
0.181481
0.18229
0.182973
0.183535
0.183981
0.184324
0.184574
0.18474
0.184833
0.184857
0.184828
0.18475
0.184635
0.184489
0.184318
0.18412
0.183907
0.183679
0.183439
0.183191
0.182939
0.182684
0.182429
0.182177
0.18193
0.18169
0.181459
0.181239
0.181035
0.180847
0.180679
0.180533
0.180411
0.180315
0.180249
0.180213
0.180208
0.180238
0.180302
0.180403
0.180541
0.180716
0.180929
0.18118
0.181468
0.181792
0.182151
0.182545
0.182969
0.183422
0.1839
0.184399
0.184914
0.185441
0.185974
0.186509
0.187038
0.187556
0.188056
0.188534
0.188984
0.189401
0.189781
0.19012
0.190382
0.190563
0.190664
0.190686
0.190624
0.190466
0.19022
0.189872
0.18944
0.188908
0.188293
0.187591
0.186811
0.185964
0.185052
0.184081
0.183056
0.181978
0.180861
0.179695
0.178506
0.177349
0.17622
0.175237
0.17438
0.173809
0.173639
0.195599
0.19554
0.196107
0.196912
0.197907
0.198986
0.199996
0.200961
0.201812
0.202542
0.203152
0.203648
0.204037
0.204329
0.204537
0.204668
0.204735
0.204741
0.204702
0.204623
0.204516
0.204385
0.204237
0.204068
0.203892
0.203707
0.203519
0.203331
0.203146
0.202966
0.202796
0.202637
0.202491
0.202362
0.202252
0.202164
0.202101
0.202066
0.20206
0.202087
0.202149
0.202248
0.202385
0.202563
0.202782
0.203044
0.20335
0.203701
0.204096
0.204537
0.205021
0.205549
0.206118
0.206727
0.207374
0.208055
0.208766
0.209504
0.210264
0.21104
0.211824
0.212613
0.213397
0.21417
0.214925
0.215653
0.216348
0.217003
0.217612
0.218167
0.218665
0.219081
0.219388
0.21959
0.219684
0.219671
0.219543
0.219289
0.218915
0.218408
0.217787
0.217038
0.216176
0.215199
0.214118
0.212947
0.211687
0.210348
0.208937
0.207455
0.205921
0.204324
0.202697
0.2011
0.199535
0.198127
0.196863
0.195917
0.195419
0.217318
0.216953
0.217317
0.217961
0.218824
0.219797
0.220719
0.221612
0.222403
0.223082
0.223653
0.224119
0.224488
0.22477
0.224978
0.225117
0.225203
0.225236
0.225233
0.2252
0.225147
0.225077
0.224998
0.224906
0.224813
0.224721
0.224633
0.224552
0.224483
0.224429
0.224392
0.224375
0.224381
0.224413
0.224474
0.224566
0.224694
0.224858
0.225062
0.225309
0.225599
0.225936
0.22632
0.226753
0.227235
0.227767
0.22835
0.228984
0.229667
0.2304
0.231181
0.232006
0.232874
0.233781
0.234723
0.235697
0.236696
0.237715
0.238747
0.239785
0.240821
0.241846
0.242853
0.243832
0.244774
0.245671
0.246514
0.247296
0.248008
0.248644
0.249194
0.24961
0.249897
0.250052
0.25007
0.24995
0.249685
0.249263
0.248691
0.247957
0.247081
0.246049
0.244877
0.243565
0.242127
0.240576
0.238917
0.237162
0.235319
0.233392
0.231401
0.22934
0.227244
0.22518
0.223152
0.221296
0.219604
0.218262
0.217416
0.23917
0.238513
0.238684
0.239182
0.239931
0.24082
0.241682
0.242534
0.243299
0.243967
0.244539
0.245019
0.245414
0.245733
0.245987
0.246184
0.246336
0.246445
0.246528
0.246588
0.246637
0.246677
0.246715
0.246748
0.246788
0.246836
0.246896
0.246971
0.247066
0.247184
0.247327
0.247499
0.247702
0.24794
0.248216
0.248531
0.24889
0.249295
0.249747
0.250249
0.250802
0.251409
0.252069
0.252784
0.253552
0.254376
0.255253
0.256184
0.257166
0.258198
0.259276
0.260397
0.261556
0.262749
0.263971
0.265216
0.266476
0.267745
0.269014
0.270274
0.271515
0.272729
0.273904
0.275033
0.276103
0.277106
0.278032
0.278872
0.279618
0.280265
0.280774
0.281125
0.281323
0.281362
0.281235
0.280941
0.280476
0.279826
0.279
0.277986
0.276806
0.275445
0.273922
0.272238
0.270408
0.268449
0.266365
0.264171
0.261877
0.259491
0.257032
0.254497
0.251927
0.24939
0.246899
0.244593
0.242473
0.240736
0.239544
0.261111
0.26019
0.26019
0.260568
0.261232
0.262068
0.262905
0.263756
0.264537
0.265238
0.265858
0.266399
0.266868
0.267272
0.267623
0.267926
0.268195
0.26843
0.268647
0.26885
0.269048
0.269246
0.269449
0.269653
0.269871
0.270105
0.270357
0.270632
0.270934
0.271265
0.271629
0.272029
0.272467
0.272947
0.273471
0.274041
0.274661
0.275332
0.276056
0.276835
0.27767
0.278561
0.279509
0.280513
0.281572
0.282687
0.283854
0.285073
0.28634
0.287652
0.289005
0.290393
0.291812
0.293254
0.294713
0.296182
0.297652
0.299115
0.300562
0.301981
0.303362
0.304696
0.30597
0.307176
0.3083
0.309335
0.310268
0.311092
0.311799
0.312376
0.312772
0.312994
0.31304
0.312902
0.312575
0.312057
0.311345
0.310426
0.30931
0.307986
0.306475
0.304766
0.302876
0.300809
0.298581
0.296209
0.293701
0.291073
0.288336
0.285499
0.282585
0.279593
0.276565
0.273575
0.27064
0.267903
0.265376
0.263264
0.261744
0.283101
0.281957
0.281817
0.282109
0.282723
0.283544
0.284398
0.285289
0.286131
0.286911
0.287626
0.288277
0.288868
0.289407
0.289903
0.290361
0.290795
0.291202
0.291599
0.29199
0.292383
0.292781
0.29319
0.293607
0.294044
0.294501
0.294983
0.295492
0.296034
0.296611
0.297226
0.297881
0.298579
0.299322
0.300114
0.300955
0.301849
0.302797
0.303799
0.304857
0.305971
0.307141
0.308366
0.309645
0.310977
0.312359
0.313788
0.315262
0.316776
0.318326
0.319907
0.321511
0.323132
0.324763
0.326396
0.328022
0.329632
0.331217
0.332766
0.334268
0.335712
0.337088
0.338383
0.339588
0.34069
0.341681
0.34255
0.343289
0.343891
0.344318
0.34455
0.344592
0.344439
0.344083
0.34352
0.342749
0.341766
0.340562
0.339144
0.337504
0.335662
0.333608
0.331361
0.328925
0.326316
0.323554
0.320647
0.317612
0.314462
0.311208
0.307873
0.30446
0.301012
0.297604
0.294263
0.291132
0.288233
0.285779
0.283964
0.305098
0.30378
0.303536
0.303779
0.304382
0.305229
0.306141
0.307117
0.308065
0.308968
0.309824
0.31063
0.31139
0.312108
0.312794
0.313451
0.314091
0.314713
0.31533
0.315947
0.316571
0.317205
0.317854
0.318515
0.3192
0.319908
0.320645
0.321413
0.322215
0.323055
0.323935
0.324857
0.325823
0.326836
0.327896
0.329007
0.330168
0.331382
0.332648
0.333967
0.335337
0.336758
0.338229
0.339747
0.341309
0.342912
0.344553
0.346228
0.347931
0.349657
0.351399
0.35315
0.354902
0.356646
0.358376
0.360081
0.361751
0.363377
0.364948
0.366453
0.367881
0.369221
0.370462
0.371594
0.372606
0.373488
0.374231
0.374826
0.375265
0.375497
0.375528
0.375358
0.37498
0.374386
0.373574
0.372542
0.371288
0.369803
0.368094
0.366155
0.364005
0.361634
0.359061
0.356291
0.353341
0.35023
0.346968
0.343574
0.34006
0.336439
0.332735
0.328952
0.325136
0.321365
0.317668
0.314193
0.310971
0.30822
0.306151
0.327045
0.325606
0.325298
0.325534
0.326166
0.327077
0.328089
0.329189
0.330284
0.331353
0.332391
0.333393
0.334361
0.335297
0.33621
0.337102
0.337984
0.338852
0.33972
0.340591
0.341472
0.342366
0.343276
0.3442
0.345149
0.346123
0.347125
0.348157
0.349225
0.350329
0.351471
0.352653
0.353878
0.355145
0.356457
0.357814
0.359218
0.360667
0.362162
0.363703
0.365286
0.366912
0.368576
0.370277
0.372011
0.373774
0.37556
0.377367
0.379186
0.381013
0.382839
0.384658
0.38646
0.388238
0.389983
0.391686
0.393337
0.394926
0.396443
0.397878
0.399219
0.400456
0.40158
0.40258
0.403446
0.40417
0.404742
0.405155
0.405388
0.405406
0.40522
0.404826
0.404216
0.403386
0.402332
0.401053
0.399547
0.397806
0.395837
0.393635
0.391215
0.388572
0.385721
0.382669
0.379432
0.37603
0.372473
0.368779
0.364964
0.361039
0.357029
0.352942
0.348822
0.344749
0.34076
0.336999
0.333511
0.330518
0.328246
0.348874
0.347366
0.347034
0.347301
0.348001
0.349013
0.350161
0.351422
0.352699
0.353969
0.355223
0.356453
0.35766
0.358844
0.360012
0.361165
0.362311
0.363446
0.364583
0.365724
0.366875
0.368037
0.369216
0.370407
0.37162
0.372855
0.374116
0.375404
0.376723
0.378074
0.379458
0.380876
0.38233
0.383821
0.385348
0.386911
0.388513
0.39015
0.391823
0.39353
0.395268
0.397036
0.39883
0.400646
0.402481
0.404329
0.406187
0.408048
0.409906
0.411755
0.413587
0.415395
0.417171
0.418905
0.420591
0.422219
0.423779
0.425264
0.426663
0.427966
0.429164
0.430248
0.431207
0.432034
0.432719
0.433253
0.433629
0.433842
0.433849
0.43365
0.433248
0.432636
0.431809
0.43076
0.429488
0.427991
0.426268
0.424311
0.422126
0.419708
0.417071
0.414211
0.411143
0.40787
0.404411
0.400784
0.397
0.393077
0.389031
0.384874
0.38063
0.376309
0.371958
0.367654
0.36344
0.35946
0.35577
0.352594
0.350173
0.370494
0.36897
0.368654
0.368988
0.369789
0.370936
0.372249
0.3737
0.375186
0.376683
0.378177
0.379658
0.381124
0.382574
0.384012
0.385438
0.386858
0.388268
0.389678
0.391089
0.392507
0.393934
0.395371
0.396816
0.398277
0.399755
0.401252
0.402769
0.404309
0.405873
0.407461
0.409075
0.410714
0.412379
0.41407
0.415787
0.417528
0.419294
0.421081
0.422889
0.424715
0.426555
0.428407
0.430265
0.432127
0.433987
0.43584
0.437681
0.439504
0.441301
0.443067
0.444794
0.446474
0.448099
0.449662
0.451155
0.45257
0.453898
0.455132
0.456261
0.457278
0.458173
0.45894
0.45957
0.460055
0.460386
0.460557
0.46056
0.460354
0.459951
0.459348
0.458539
0.457519
0.456283
0.454828
0.453154
0.451257
0.449132
0.446783
0.444206
0.441412
0.438397
0.435175
0.43175
0.428138
0.424357
0.420419
0.416341
0.412138
0.407824
0.403422
0.398943
0.394435
0.389973
0.385608
0.381479
0.377654
0.374357
0.371844
0.391802
0.390309
0.390045
0.390478
0.39141
0.392714
0.394217
0.395876
0.39759
0.399329
0.401076
0.402818
0.404552
0.406273
0.407984
0.409682
0.411373
0.41305
0.414722
0.416389
0.418057
0.419726
0.421397
0.423068
0.424747
0.426432
0.428127
0.429832
0.431549
0.433279
0.435022
0.436777
0.438546
0.440328
0.442123
0.443929
0.445747
0.447574
0.449409
0.451249
0.453092
0.454935
0.456774
0.458605
0.460423
0.462226
0.464006
0.465761
0.467483
0.469167
0.470806
0.472394
0.473924
0.47539
0.476784
0.4781
0.47933
0.480468
0.481505
0.482435
0.483249
0.483941
0.484503
0.484929
0.485211
0.485342
0.485315
0.485115
0.484717
0.484132
0.483355
0.48238
0.481202
0.479817
0.478222
0.476415
0.474394
0.472154
0.469696
0.467017
0.464126
0.461021
0.45771
0.4542
0.450506
0.446642
0.442622
0.438463
0.434178
0.429783
0.425298
0.420737
0.416147
0.411604
0.40716
0.402953
0.39906
0.395706
0.393157
0.412681
0.41126
0.41108
0.411638
0.412721
0.414202
0.415905
0.417783
0.419731
0.421717
0.423718
0.425721
0.427718
0.429702
0.431674
0.433631
0.435574
0.437497
0.439407
0.441303
0.44319
0.445066
0.446934
0.44879
0.450643
0.45249
0.454334
0.456175
0.458015
0.459855
0.461694
0.463532
0.465369
0.467205
0.46904
0.470871
0.472699
0.474523
0.476339
0.478146
0.479941
0.481722
0.483484
0.485226
0.486941
0.488628
0.49028
0.491894
0.493465
0.494987
0.496455
0.497864
0.499207
0.500479
0.501674
0.502786
0.50381
0.504738
0.505566
0.506286
0.506893
0.507379
0.507739
0.507967
0.508055
0.508
0.507794
0.50741
0.506848
0.506109
0.50519
0.504085
0.502788
0.501295
0.499604
0.497712
0.495617
0.493312
0.4908
0.488077
0.485149
0.482012
0.478677
0.475148
0.471437
0.467559
0.463527
0.459357
0.455062
0.450657
0.446162
0.441592
0.436994
0.432441
0.427989
0.423774
0.419879
0.416529
0.413998
0.433006
0.431691
0.431623
0.432323
0.433573
0.435236
0.437145
0.43924
0.441419
0.443644
0.445889
0.448139
0.450382
0.45261
0.454821
0.457009
0.459175
0.461312
0.463423
0.465509
0.467572
0.469612
0.471629
0.473622
0.475596
0.477551
0.479489
0.481409
0.483314
0.485204
0.487078
0.488938
0.490782
0.49261
0.494423
0.496218
0.497996
0.499756
0.501495
0.503211
0.504903
0.506567
0.508202
0.509804
0.511369
0.512895
0.514377
0.515812
0.517195
0.518524
0.519792
0.520996
0.52213
0.52319
0.524171
0.525069
0.525878
0.526594
0.527211
0.527724
0.528129
0.528418
0.528588
0.528633
0.528546
0.528323
0.527959
0.527424
0.526728
0.525869
0.524843
0.523644
0.522267
0.520708
0.518963
0.517031
0.514909
0.51259
0.510074
0.507358
0.504447
0.501337
0.498035
0.494545
0.490879
0.48705
0.483069
0.478953
0.474714
0.470366
0.465928
0.461419
0.45688
0.452385
0.447993
0.443834
0.439999
0.43671
0.434246
0.452649
0.451469
0.451533
0.452386
0.453806
0.455652
0.457759
0.460062
0.462457
0.464904
0.467373
0.469845
0.472308
0.474749
0.477165
0.479549
0.481899
0.484208
0.486477
0.488705
0.490896
0.493048
0.495162
0.497236
0.499277
0.501284
0.503258
0.5052
0.507111
0.508993
0.510846
0.512669
0.514463
0.516228
0.517963
0.51967
0.521346
0.522991
0.524604
0.526184
0.527728
0.529235
0.530703
0.532129
0.53351
0.534845
0.536129
0.537361
0.538537
0.539653
0.540707
0.541694
0.542611
0.543454
0.544219
0.544903
0.545501
0.546011
0.546427
0.546745
0.546961
0.54707
0.547069
0.546951
0.546712
0.546347
0.545848
0.545195
0.544396
0.54345
0.542351
0.541094
0.539674
0.538087
0.53633
0.534399
0.532291
0.530001
0.527528
0.524866
0.52202
0.518985
0.515768
0.51237
0.508802
0.505077
0.501204
0.4972
0.493075
0.488844
0.484525
0.480136
0.475719
0.471344
0.467072
0.463028
0.45931
0.456133
0.453781
0.471485
0.470462
0.470671
0.471682
0.473268
0.475287
0.477577
0.480068
0.482657
0.4853
0.487964
0.490626
0.493272
0.495889
0.49847
0.501007
0.503496
0.505928
0.508305
0.510626
0.512893
0.515104
0.517261
0.519363
0.521415
0.523418
0.525374
0.527283
0.529148
0.53097
0.532748
0.534485
0.53618
0.537834
0.539448
0.541021
0.542555
0.544047
0.545498
0.546907
0.548273
0.549594
0.550869
0.552096
0.553274
0.5544
0.555473
0.55649
0.557449
0.558348
0.559184
0.559954
0.560655
0.561286
0.561842
0.562322
0.562721
0.563038
0.563268
0.563408
0.563455
0.563405
0.563254
0.562997
0.562631
0.562149
0.561544
0.560803
0.559932
0.558929
0.557789
0.556507
0.555077
0.553497
0.551761
0.549868
0.547812
0.545589
0.543196
0.540628
0.537888
0.534971
0.531881
0.52862
0.525196
0.521622
0.517906
0.514063
0.510103
0.50604
0.501892
0.497677
0.493435
0.489234
0.485136
0.48126
0.477707
0.474687
0.472484
0.489398
0.488549
0.488909
0.490073
0.491816
0.49399
0.496442
0.499094
0.501847
0.504652
0.507475
0.510289
0.513079
0.515828
0.518529
0.521172
0.523751
0.526258
0.528694
0.531056
0.533346
0.535565
0.537713
0.539791
0.541805
0.543755
0.545643
0.547472
0.549244
0.55096
0.552622
0.554231
0.555789
0.557296
0.558754
0.560162
0.561523
0.562836
0.5641
0.565317
0.566485
0.567603
0.568672
0.569689
0.570654
0.571565
0.572423
0.573224
0.573968
0.574652
0.575276
0.575838
0.576334
0.576764
0.577125
0.577415
0.577632
0.577774
0.577837
0.57782
0.57772
0.577532
0.577254
0.576883
0.576414
0.575843
0.575156
0.574355
0.57344
0.572408
0.571255
0.569976
0.568566
0.567021
0.565337
0.56351
0.561537
0.559412
0.557132
0.554691
0.55209
0.549325
0.546398
0.54331
0.540069
0.536684
0.533165
0.529523
0.52577
0.521919
0.517986
0.513989
0.509968
0.505986
0.502107
0.498442
0.495096
0.492271
0.490246
0.506287
0.505621
0.506132
0.507439
0.509321
0.511627
0.514213
0.516995
0.519877
0.522808
0.525749
0.528673
0.531562
0.534399
0.537174
0.539875
0.542497
0.545031
0.547476
0.549831
0.552097
0.554276
0.556369
0.558378
0.560309
0.562163
0.563943
0.565653
0.567295
0.568871
0.570383
0.571834
0.573226
0.574559
0.575837
0.57706
0.578229
0.579346
0.580411
0.581423
0.582384
0.583294
0.584152
0.584957
0.58571
0.58641
0.587056
0.587648
0.588185
0.588666
0.58909
0.589455
0.589761
0.590006
0.590189
0.590308
0.590362
0.590349
0.590267
0.590114
0.589887
0.589584
0.589203
0.588739
0.58819
0.587552
0.586812
0.585974
0.585039
0.584002
0.58286
0.581607
0.580241
0.578756
0.577147
0.575412
0.573546
0.571544
0.569402
0.567113
0.564678
0.562092
0.559356
0.55647
0.553441
0.550276
0.546985
0.543578
0.540065
0.536459
0.532776
0.529034
0.52527
0.521545
0.517921
0.514503
0.511397
0.508796
0.506972
0.522065
0.521586
0.522243
0.523677
0.525676
0.528088
0.530775
0.533652
0.536626
0.539642
0.54266
0.545652
0.548597
0.551477
0.55428
0.556995
0.559614
0.562129
0.564539
0.566843
0.569043
0.571141
0.57314
0.575042
0.576854
0.578578
0.580219
0.581779
0.583262
0.584673
0.586012
0.587284
0.588492
0.589636
0.59072
0.591746
0.592715
0.593628
0.594488
0.595295
0.596049
0.596751
0.597401
0.598
0.598548
0.599044
0.59949
0.599885
0.600228
0.600519
0.600759
0.600945
0.601078
0.601157
0.60118
0.601148
0.601059
0.600911
0.600704
0.600436
0.600104
0.599708
0.599243
0.598709
0.5981
0.597415
0.596644
0.59579
0.594855
0.593833
0.592722
0.591516
0.590212
0.588805
0.587292
0.585667
0.583927
0.582067
0.580081
0.577965
0.575715
0.573329
0.570804
0.568142
0.565346
0.562425
0.559385
0.556237
0.55299
0.549656
0.54625
0.542789
0.539311
0.53587
0.532529
0.529385
0.526544
0.524188
0.522581
0.536665
0.536373
0.537163
0.538706
0.540796
0.543284
0.546039
0.548976
0.552002
0.555064
0.558118
0.561136
0.564095
0.566975
0.569765
0.572452
0.575028
0.577484
0.579821
0.582037
0.584135
0.586119
0.587992
0.589757
0.591422
0.592991
0.594468
0.595858
0.597165
0.598393
0.599546
0.600627
0.60164
0.602587
0.603472
0.604297
0.605065
0.605776
0.606433
0.607038
0.607591
0.608093
0.608545
0.608948
0.609302
0.609609
0.609868
0.61008
0.610246
0.610365
0.610437
0.610463
0.610441
0.610373
0.610256
0.610092
0.609879
0.609617
0.609304
0.60894
0.608523
0.608051
0.607523
0.606935
0.606286
0.605572
0.604787
0.603936
0.603017
0.602026
0.600961
0.599817
0.59859
0.597276
0.595871
0.594371
0.592771
0.591065
0.58925
0.587319
0.58527
0.583096
0.580798
0.578374
0.575829
0.573167
0.570396
0.567524
0.564561
0.561517
0.558406
0.555247
0.552074
0.548938
0.545899
0.543049
0.54049
0.538394
0.537011
0.550038
0.549927
0.550838
0.552467
0.554621
0.557154
0.559944
0.562904
0.565946
0.569015
0.572067
0.575072
0.578005
0.580848
0.583587
0.586209
0.588706
0.59107
0.593301
0.595399
0.597368
0.599211
0.600934
0.602541
0.60404
0.605436
0.606735
0.607942
0.609061
0.610099
0.611059
0.611945
0.612761
0.613511
0.614198
0.614826
0.615396
0.615911
0.616374
0.616785
0.617147
0.617461
0.617727
0.617948
0.618124
0.618256
0.618345
0.618391
0.618396
0.61836
0.618284
0.618167
0.61801
0.617812
0.617575
0.617297
0.616978
0.616619
0.616219
0.615777
0.615291
0.614761
0.614185
0.613561
0.612886
0.612159
0.611376
0.61054
0.60965
0.608703
0.607695
0.606624
0.605485
0.604274
0.602987
0.601621
0.600169
0.598628
0.596992
0.595256
0.593414
0.591463
0.589401
0.587225
0.584939
0.582547
0.580055
0.577471
0.574803
0.572061
0.569259
0.566414
0.563558
0.560739
0.558015
0.555471
0.553204
0.551374
0.550219
0.562156
0.562217
0.56323
0.564924
0.567115
0.569663
0.572455
0.575403
0.578426
0.581467
0.584481
0.587437
0.590311
0.593083
0.595738
0.598265
0.600654
0.602899
0.604999
0.606956
0.608774
0.610458
0.612014
0.613449
0.61477
0.615983
0.617096
0.618113
0.619042
0.619887
0.620654
0.621346
0.62197
0.622527
0.623023
0.62346
0.623843
0.624172
0.624451
0.624682
0.624866
0.625006
0.625102
0.625156
0.625169
0.625143
0.625078
0.624977
0.624839
0.624666
0.624458
0.624216
0.623941
0.623632
0.62329
0.622916
0.622509
0.622069
0.621597
0.621092
0.620552
0.619978
0.619368
0.61872
0.618034
0.617305
0.616534
0.615724
0.614873
0.613979
0.613038
0.612047
0.611003
0.609902
0.60874
0.607512
0.606215
0.604843
0.603391
0.601853
0.600225
0.598501
0.596678
0.594756
0.592734
0.590618
0.58841
0.586119
0.583753
0.581319
0.578832
0.576307
0.573775
0.57128
0.568877
0.566643
0.564672
0.563111
0.562181
0.573009
0.573229
0.574327
0.576062
0.578263
0.580797
0.583559
0.586466
0.589437
0.592417
0.595361
0.598238
0.601023