y,k
0,1e-10
0.00048240845,2.1876944e-07
0.00098049384,3.3779026e-07
0.0014947656,1.2955688e-06
0.0020257498,3.7318904e-06
0.0025739895,8.6454867e-06
0.0031400454,1.7310513e-05
0.0037244966,3.1294628e-05
0.0043279408,5.2487391e-05
0.0049509953,8.3126606e-05
0.0055942973,0.00012581361
0.0062585048,0.00018350534
0.0069442972,0.00025946588
0.007652376,0.00035715596
0.0083834654,0.00048003744
0.0091383131,0.00063127853
0.0099176913,0.00081336883
0.010722397,0.0010276944
0.011553254,0.0012741699
0.012411111,0.0015510514
0.013296846,0.0018550248
0.014211364,0.0021815817
0.015155603,0.0025255861
0.016130526,0.0028818754
0.017137132,0.0032457483
0.018176449,0.0036132647
0.019249542,0.0039813553
0.020357507,0.0043477896
0.021501477,0.0047110629
0.022682624,0.0050702523
0.023902154,0.0054248767
0.025161316,0.0057747734
0.026461397,0.0061200002
0.027803728,0.0064607614
0.02918968,0.0067973532
0.030620672,0.0071301265
0.032098167,0.0074594598
0.033623676,0.0077857422
0.03519876,0.0081093622
0.03682503,0.0084306996
0.03850415,0.0087501226
0.040237836,0.0090679844
0.042027862,0.0093846233
0.043876059,0.0097003619
0.045784317,0.010015508
0.047754588,0.010330355
0.049788888,0.010645181
0.051889297,0.010960255
0.054057963,0.011275832
0.056297104,0.011592158
0.058609012,0.011909471
0.06099605,0.012227999
0.06346066,0.012547963
0.066005363,0.012869581
0.068632762,0.013193064
0.071345544,0.013518618
0.074146484,0.013846446
0.077038447,0.01417675
0.08002439,0.014509728
0.083107369,0.014845579
0.086290535,0.015184497
0.089577146,0.015526681
0.092970562,0.015872327
0.096474255,0.016221634
0.10009181,0.0165748
0.10382692,0.016932027
0.10768342,0.017293519
0.11166524,0.017659482
0.11577645,0.018030127
0.12002127,0.018405665
0.12440404,0.018786316
0.12892923,0.019172299
0.13360148,0.019563841
0.13842557,0.019961172
0.14340642,0.020364529
0.14854914,0.020774152
0.15385898,0.021190287
0.15934138,0.021613186
0.16500194,0.022043106
0.17084645,0.022480308
0.17688089,0.022925061
0.18311143,0.023377635
0.18954445,0.023838309
0.19618653,0.024307361
0.20304445,0.024785076
0.21012524,0.025271739
0.21743614,0.025767638
0.22498461,0.026273059
0.23277839,0.026788287
0.24082545,0.027313603
0.24913402,0.027849283
0.25771259,0.02839559
0.26656994,0.028952779
0.27571513,0.029521088
0.28515751,0.030100731
0.29490674,0.030691901
0.3049728,0.031294755
0.31536597,0.031909412
0.3260969,0.032535942
0.33717655,0.033174361
0.34861625,0.033824619
0.36042772,0.034486584
0.37262303,0.035160033
0.38521464,0.035844633
0.39821546,0.036539926
0.41163876,0.037245305
0.42549828,0.037959992
0.4398082,0.038683011
0.45458315,0.039413168
0.46983824,0.04014904
0.48558908,0.040889258
0.50185179,0.041634127
0.51864298,0.042385508
0.53597984,0.043142787
0.5538801,0.043901359
0.57236207,0.044653768
0.59144465,0.045389602
0.61114736,0.046095088
0.63149036,0.046752935
0.65249445,0.047343129
0.67418111,0.047844647
0.69657252,0.048237362
0.7196916,0.048501973
0.74356198,0.04862304
0.76820808,0.048590945
0.79365511,0.048395675
0.8199291,0.048029187
0.84705692,0.047490564
0.87506632,0.046785637
0.90398595,0.045928397
0.93384539,0.04494121
0.96467517,0.04385349
0.99650683,0.042698927
1.0293729,0.04151191
1.0633071,0.040324044
1.098344,0.039161532
1.1345196,0.038043736
1.1718707,0.036982642
1.2104356,0.035983016
1.2502538,0.035043148
1.291366,0.034155979
1.3338142,0.033310536
1.3776419,0.032493445
1.4228938,0.031690246
1.4696163,0.030886145
1.5178571,0.030070198
1.566098,0.029243367
1.6128205,0.028413456
1.6580724,0.027585528
1.7019001,0.026763677
1.7443483,0.025951931
1.7854605,0.02515314
1.8252786,0.024369407
1.8638436,0.023602508
1.9011947,0.022854071
1.9373703,0.022125653
1.9724072,0.021418743
2.0063413,0.020734599
2.0392075,0.020073869
2.0710391,0.019435615
2.1018689,0.018816552
2.1317283,0.018213392
2.160648,0.017625447
2.1886574,0.017053387
2.2157852,0.016497734
2.2420592,0.01595881
2.2675062,0.015436742
2.2921523,0.014931495
2.3160227,0.014442914
2.3391418,0.01397075
2.3615332,0.013514678
2.3832198,0.013074916
2.4042239,0.012652503
2.4245669,0.012248579
2.4442696,0.011863931
2.4633522,0.011498949
2.4818342,0.011153639
2.4997344,0.010827642
2.5170713,0.010520311
2.5338625,0.010230774
2.5501252,0.009957927
2.565876,0.0097005209
2.5811311,0.0094573009
2.5959061,0.0092270812
2.610216,0.009008764
2.6240755,0.0088013585
2.6374988,0.0086039957
2.6504996,0.0084159371
2.6630913,0.0082365778
2.6752866,0.0080654428
2.687098,0.0079021792
2.6985377,0.0077465444
2.7096174,0.0075983912
2.7203483,0.0074576519
2.7307415,0.0073243214
2.7408075,0.0071984419
2.7505568,0.0070800871
2.7599992,0.00696935
2.7691443,0.0068663312
2.7780017,0.0067711298
2.7865803,0.0066838376
2.7948888,0.0066045337
2.8029359,0.006533282
2.8107297,0.0064701307
2.8182781,0.0064151115
2.825589,0.0063682397
2.8326698,0.0063295115
2.8395278,0.0062988968
2.8461698,0.0062763257
2.8526028,0.0062616889
2.8588334,0.0062547861
2.8648678,0.0062553195
2.8707123,0.0062630536
2.8763729,0.0062776089
2.8818553,0.0062977338
2.8871651,0.0063223281
2.8923079,0.0063511101
2.8972887,0.0063837682
2.9021128,0.0064198145
2.9067851,0.006458909
2.9113102,0.0065014133
2.915693,0.0065474396
2.9199378,0.0065948831
2.924049,0.0066430675
2.9280309,0.0066945297
2.9318874,0.006750786
2.9356225,0.0068097407
2.93924,0.0068705082
2.9427437,0.0069345622
2.9461371,0.0069989621
2.9494237,0.0070619864
2.9526069,0.0071249458
2.9556899,0.0071876428
2.9586758,0.0072500896
2.9615678,0.0073087788
2.9643687,0.007359977
2.9670815,0.0074031902
2.9697089,0.0074373388
2.9722536,0.0074609656
2.9747182,0.0074742881
2.9771053,0.00747725
2.9794172,0.0074679536
2.9816563,0.0074450364
2.983825,0.0074102165
2.9859254,0.0073653289
2.9879597,0.0073092573
2.98993,0.0072391562
2.9918382,0.0071508528
2.9936864,0.007041909
2.9954764,0.0069133483
2.9972101,0.0067656126
2.9988893,0.0065960723
3.0005155,0.006402817
3.0020906,0.0061849977
3.0036161,0.0059412218
3.0050936,0.0056694774
3.0065246,0.0053670368
3.0079106,0.0050304377
3.0092529,0.0046568657
3.010553,0.0042456234
3.0118121,0.0038020288
3.0130317,0.0033356911
3.0142128,0.0028572397
3.0153568,0.0023813942
3.0164647,0.0019266569
3.0175378,0.0015106541
3.0185772,0.0011461558
3.0195838,0.00084125966
3.0205587,0.00059810483
3.0215029,0.00041255256
3.0224174,0.00027683437
3.0233032,0.00018149583
3.024161,0.00011691969
3.0249919,7.4496892e-05
3.0257966,4.726958e-05
3.026576,3.0056057e-05
3.0273308,1.9248534e-05
3.0280619,1.2455975e-05
3.02877,8.1517361e-06
3.0294558,5.386565e-06
3.03012,3.5794308e-06
3.0307633,2.3762049e-06
3.0313863,1.5589892e-06
3.0319898,9.8840229e-07
3.0325742,5.6015915e-07
3.0331403,2.6124056e-07
3.0336885,1.0631147e-07
3.0342195,4.9690652e-08
3.0347338,8.2074149e-08
3.0352319,5.4642633e-07
3.0357104,4.5245436e-09
