/*--------------------------------*- C++ -*----------------------------------*\
| =========                 |                                                 |
| \\      /  F ield         | OpenFOAM: The Open Source CFD Toolbox           |
|  \\    /   O peration     | Version:  2.4.0                                 |
|   \\  /    A nd           | Web:      www.OpenFOAM.org                      |
|    \\/     M anipulation  |                                                 |
\*---------------------------------------------------------------------------*/
FoamFile
{
    version     2.0;
    format      ascii;
    class       volScalarField;
    location    "200";
    object      k;
}
// * * * * * * * * * * * * * * * * * * * * * * * * * * * * * * * * * * * * * //

dimensions      [0 2 -2 0 0 0 0];

internalField   nonuniform List<scalar> 
78300
(
7.4647498e-07
8.3017069e-07
1.0363239e-06
1.0074873e-06
8.0150104e-07
3.7750091e-07
7.5266815e-08
1.051126e-08
1.1709057e-07
1.6729917e-07
1.4658673e-07
1.1073682e-07
6.8934136e-08
4.473047e-08
3.0352289e-08
2.3386185e-08
1.9486034e-08
1.7635548e-08
1.6589425e-08
1.6078668e-08
1.5485363e-08
1.4422085e-08
1.367164e-08
1.3179558e-08
1.2864771e-08
1.2890319e-08
1.2875049e-08
1.321732e-08
1.3659547e-08
1.4334055e-08
1.5193429e-08
1.6327565e-08
1.7808659e-08
1.959416e-08
2.1718214e-08
2.4057153e-08
2.6340694e-08
2.8525598e-08
3.0665397e-08
3.2341693e-08
3.3902114e-08
3.5917503e-08
3.8026325e-08
3.9218173e-08
4.0138279e-08
4.0434775e-08
4.0241308e-08
3.9490608e-08
3.8748898e-08
3.7991693e-08
3.6994679e-08
3.5735026e-08
3.4362342e-08
3.247942e-08
3.0519238e-08
2.8123052e-08
2.5798408e-08
2.3026725e-08
2.1070976e-08
1.8607337e-08
1.8300009e-08
1.7415817e-08
2.426138e-08
4.2314261e-08
5.76949e-08
7.4649458e-08
9.0703778e-08
1.0691205e-07
1.2276204e-07
1.3876422e-07
1.528103e-07
1.6680615e-07
1.7977745e-07
1.9214896e-07
2.0398472e-07
2.1525365e-07
2.2580115e-07
2.3573727e-07
2.4517016e-07
2.5404178e-07
2.6237181e-07
2.7018364e-07
2.7752519e-07
2.8438733e-07
2.9074617e-07
2.9667706e-07
3.0216304e-07
3.0721869e-07
3.1186045e-07
3.1610273e-07
3.1996471e-07
3.2345121e-07
3.2658434e-07
3.2937158e-07
3.318343e-07
3.3398732e-07
3.3584093e-07
3.3741575e-07
3.3871191e-07
3.3975408e-07
3.4054603e-07
3.4111053e-07
3.4143319e-07
3.4153188e-07
3.4139424e-07
3.4103685e-07
3.4046598e-07
3.3969405e-07
3.3874597e-07
3.3760375e-07
3.3626925e-07
3.3474624e-07
3.3305628e-07
3.3119244e-07
3.291565e-07
3.2694766e-07
3.2457356e-07
3.2202879e-07
3.1929755e-07
3.1640833e-07
3.1337321e-07
3.1017042e-07
3.0679406e-07
3.0328441e-07
2.9964311e-07
2.9584211e-07
2.918697e-07
2.8776897e-07
2.8356546e-07
2.792193e-07
2.7475742e-07
2.7018e-07
2.6549621e-07
2.6070071e-07
2.5580653e-07
2.5082682e-07
2.457682e-07
2.4063239e-07
2.3542809e-07
2.3016983e-07
2.2486176e-07
2.195106e-07
2.1412016e-07
2.087123e-07
2.0328407e-07
1.9784708e-07
1.923786e-07
1.8689785e-07
1.8144663e-07
1.7601276e-07
1.7061328e-07
1.6524923e-07
1.599388e-07
1.5466908e-07
1.4947301e-07
1.4432657e-07
1.392651e-07
1.3421468e-07
1.2931445e-07
1.2436724e-07
1.1947106e-07
1.1422605e-07
1.0938403e-07
1.0484045e-07
1.005974e-07
9.6522076e-08
9.2492707e-08
8.8510102e-08
8.4617785e-08
8.0814723e-08
7.7118871e-08
7.3508896e-08
6.998344e-08
6.659356e-08
6.3311716e-08
6.0132143e-08
5.7064874e-08
5.412391e-08
5.1279688e-08
4.854934e-08
4.5918192e-08
4.3410208e-08
4.0988227e-08
3.8686974e-08
3.6472398e-08
3.4384788e-08
3.2379454e-08
3.0466198e-08
2.8648758e-08
2.6925197e-08
2.5284358e-08
2.3737186e-08
2.2283495e-08
2.0924311e-08
1.9630856e-08
1.8475221e-08
1.7364531e-08
1.6400497e-08
1.5437448e-08
1.4633329e-08
1.3870794e-08
1.3269392e-08
1.2679503e-08
1.2288865e-08
1.1877905e-08
1.1766217e-08
1.1438065e-08
1.1104021e-08
1.1157522e-08
1.1140328e-08
1.1346791e-08
1.1379731e-08
1.0902761e-08
1.0999958e-08
9.5154553e-09
1.0197993e-08
7.7123288e-09
9.9282554e-09
5.7930326e-09
5.4368694e-09
2.3272806e-09
3.0195411e-08
1.0155533e-08
9.8331196e-09
1.2372362e-08
1.0467047e-08
4.8503643e-07
8.8649153e-08
1.9593386e-07
4.7508691e-08
2.4366666e-07
1.2527181e-07
9.7679936e-07
1.4006415e-06
2.4105889e-07
2.2352637e-08
3.7467018e-07
7.6566207e-07
6.1893552e-07
3.3971296e-07
2.6945757e-07
1.5018742e-07
1.3400302e-06
1.1885949e-06
3.4671831e-07
3.1394424e-06
1.2117522e-06
1.9360047e-07
1.1799098e-06
3.212521e-07
6.6346321e-07
4.5514449e-07
8.6964884e-07
4.3916589e-07
4.8462078e-06
7.1591831e-06
5.1671345e-06
3.6546858e-06
3.2898477e-06
4.7701839e-06
7.368045e-06
8.0614353e-06
7.1190339e-06
5.6279193e-06
4.2872765e-06
2.9235471e-06
1.9555916e-06
1.242941e-06
1.0404681e-06
6.9068849e-07
2.8842798e-07
3.0372313e-07
3.2229875e-07
2.9331811e-07
2.2911641e-07
1.3191301e-07
5.7572704e-08
2.6100527e-08
2.8534801e-08
2.9440798e-08
2.3948978e-08
1.8120911e-08
1.1217903e-08
7.3415758e-09
4.9540127e-09
3.8646872e-09
3.2722531e-09
2.9897962e-09
2.8328197e-09
2.7579913e-09
2.672226e-09
2.5166265e-09
2.4077802e-09
2.341695e-09
2.3073229e-09
2.3283203e-09
2.348294e-09
2.4263746e-09
2.525961e-09
2.6670103e-09
2.8436913e-09
3.0700409e-09
3.3586328e-09
3.7049196e-09
4.1149868e-09
4.5709384e-09
5.0313702e-09
5.4882668e-09
5.9512867e-09
6.3589267e-09
6.7648676e-09
7.2573197e-09
7.7811191e-09
8.1888846e-09
8.570393e-09
8.8727954e-09
9.1121521e-09
9.2768132e-09
9.455171e-09
9.6522381e-09
9.8286339e-09
9.9725589e-09
1.0101774e-08
1.0145126e-08
1.0160125e-08
1.0080953e-08
9.9710422e-09
9.7350624e-09
9.5550346e-09
9.2353116e-09
9.2198409e-09
9.1643993e-09
1.0558457e-08
1.4389898e-08
1.8175491e-08
2.212624e-08
2.59248e-08
2.971576e-08
3.3424005e-08
3.7119784e-08
4.0499962e-08
4.3843744e-08
4.7011454e-08
5.0062192e-08
5.3011796e-08
5.5860705e-08
5.8586534e-08
6.1202932e-08
6.3728824e-08
6.6159651e-08
6.8497305e-08
7.0744209e-08
7.2909604e-08
7.4992797e-08
7.6989594e-08
7.8911425e-08
8.0756295e-08
8.2526032e-08
8.4222719e-08
8.5848202e-08
8.7405714e-08
8.8895566e-08
9.032071e-08
9.1682252e-08
9.2983042e-08
9.4225799e-08
9.5411381e-08
9.6543007e-08
9.7620001e-08
9.8645723e-08
9.9620238e-08
1.005475e-07
1.0142546e-07
1.0225556e-07
1.0303541e-07
1.037656e-07
1.0444647e-07
1.0507898e-07
1.0566788e-07
1.0621104e-07
1.0670656e-07
1.0715354e-07
1.0755553e-07
1.079122e-07
1.0822272e-07
1.0848731e-07
1.0870628e-07
1.0887732e-07
1.0899557e-07
1.0906542e-07
1.0909236e-07
1.0907158e-07
1.0899726e-07
1.0887636e-07
1.0871455e-07
1.0850644e-07
1.08244e-07
1.0793306e-07
1.0758423e-07
1.0718971e-07
1.0674966e-07
1.062673e-07
1.0574496e-07
1.0518021e-07
1.045725e-07
1.0392635e-07
1.0324525e-07
1.0252824e-07
1.017747e-07
1.0098922e-07
1.0017417e-07
9.9330334e-08
9.8456167e-08
9.7557705e-08
9.6636666e-08
9.5694223e-08
9.4726761e-08
9.3732778e-08
9.2723733e-08
9.1699538e-08
9.0661108e-08
8.9611808e-08
8.8556898e-08
8.749507e-08
8.6433301e-08
8.5372568e-08
8.4321489e-08
8.3258778e-08
8.2209953e-08
8.1144079e-08
8.0050062e-08
7.8782369e-08
7.7433874e-08
7.6171786e-08
7.5061413e-08
7.4033311e-08
7.302228e-08
7.1999344e-08
7.0967909e-08
6.9933756e-08
6.8903459e-08
6.7878454e-08
6.6848755e-08
6.5828334e-08
6.4820722e-08
6.3819571e-08
6.2823473e-08
6.1838876e-08
6.0861265e-08
5.9892351e-08
5.8928786e-08
5.7972938e-08
5.7019357e-08
5.6077659e-08
5.5136713e-08
5.4200393e-08
5.3272462e-08
5.23454e-08
5.1413622e-08
5.0472041e-08
4.9522919e-08
4.857128e-08
4.7610646e-08
4.6633686e-08
4.5624334e-08
4.4612772e-08
4.3569082e-08
4.2500491e-08
4.1380535e-08
4.0226169e-08
3.9017292e-08
3.777563e-08
3.6462946e-08
3.5126262e-08
3.3696666e-08
3.2285404e-08
3.0730565e-08
2.9058581e-08
2.8298011e-08
2.8307881e-08
2.8766884e-08
2.9447992e-08
3.0036583e-08
3.0888031e-08
3.14872e-08
3.2607295e-08
3.3035663e-08
3.4721673e-08
3.4709337e-08
3.6263854e-08
3.2787253e-08
3.6884125e-08
4.1088495e-08
4.2549529e-08
4.6141033e-08
6.5461673e-08
1.1045452e-07
3.8462514e-08
2.0875471e-07
1.3374163e-07
7.1667632e-08
1.3837985e-07
4.1519347e-07
3.1989726e-07
5.6044319e-08
2.7160795e-08
1.0890875e-07
2.3735606e-07
4.0791086e-07
1.8505754e-07
5.3067794e-08
4.3784961e-07
4.481894e-07
2.6082201e-07
8.8432948e-08
5.3160266e-07
2.2789938e-07
7.1908562e-08
2.3648414e-07
1.0164793e-07
1.7278937e-07
9.3786475e-08
1.8552117e-07
6.4733393e-08
1.6538154e-06
1.442646e-06
9.3303655e-07
7.1353957e-07
7.0085597e-07
9.3183475e-07
1.3456902e-06
1.4397522e-06
1.3016858e-06
1.0983234e-06
8.9636216e-07
6.6773661e-07
4.9686117e-07
3.7272006e-07
3.2690529e-07
2.700336e-07
1.338108e-06
1.3634212e-06
1.2865972e-06
1.104526e-06
8.4756983e-07
5.7456905e-07
3.4324969e-07
1.8023863e-07
8.8071088e-08
4.2633421e-08
2.3559795e-08
1.5164442e-08
9.1451656e-09
6.3771569e-09
4.7700267e-09
4.10084e-09
3.8031171e-09
3.6506205e-09
3.5880417e-09
3.566638e-09
3.5518404e-09
3.5122742e-09
3.4914366e-09
3.5158174e-09
3.5905131e-09
3.7153265e-09
3.8781198e-09
4.097448e-09
4.3692417e-09
4.7044762e-09
5.1094329e-09
5.5944251e-09
6.1762116e-09
6.8655542e-09
7.6714036e-09
8.5900085e-09
9.5981284e-09
1.0684762e-08
1.1861582e-08
1.3110999e-08
1.4471508e-08
1.5989513e-08
1.7637711e-08
1.9390157e-08
2.1230674e-08
2.3136032e-08
2.5086096e-08
2.7065608e-08
2.9136467e-08
3.1359292e-08
3.3677594e-08
3.6029646e-08
3.8392008e-08
4.0656519e-08
4.278962e-08
4.4682547e-08
4.6279687e-08
4.7415555e-08
4.811923e-08
4.8324391e-08
4.8528519e-08
4.9035348e-08
5.2161593e-08
6.1535122e-08
7.3332083e-08
8.4716696e-08
9.5913686e-08
1.0689626e-07
1.1765223e-07
1.2816576e-07
1.3837231e-07
1.4837357e-07
1.5814295e-07
1.6767807e-07
1.7702568e-07
1.8622225e-07
1.952641e-07
2.0413727e-07
2.128678e-07
2.2148285e-07
2.2997575e-07
2.3834017e-07
2.4659403e-07
2.5474174e-07
2.6277758e-07
2.7070698e-07
2.78533e-07
2.8625392e-07
2.9386806e-07
3.0137394e-07
3.0877538e-07
3.1606959e-07
3.2325524e-07
3.3033314e-07
3.3730186e-07
3.4416552e-07
3.5091983e-07
3.5756777e-07
3.6410437e-07
3.7052838e-07
3.7683652e-07
3.8303397e-07
3.8912041e-07
3.950878e-07
4.0093168e-07
4.0663907e-07
4.1220611e-07
4.1762737e-07
4.2291153e-07
4.2806167e-07
4.3306208e-07
4.3790235e-07
4.4258596e-07
4.4711777e-07
4.5149014e-07
4.5570523e-07
4.5975762e-07
4.6363559e-07
4.6732006e-07
4.7081372e-07
4.7414396e-07
4.7729844e-07
4.8024071e-07
4.8298007e-07
4.8555612e-07
4.879585e-07
4.9014073e-07
4.9210073e-07
4.9388979e-07
4.9549213e-07
4.9688116e-07
4.980802e-07
4.9909678e-07
4.9991862e-07
5.0052821e-07
5.0094501e-07
5.0118772e-07
5.0124763e-07
5.011113e-07
5.0079722e-07
5.0031849e-07
4.9967377e-07
4.9884796e-07
4.9786264e-07
4.9673328e-07
4.9545625e-07
4.9402849e-07
4.9241933e-07
4.9066919e-07
4.8879052e-07
4.8677235e-07
4.8463813e-07
4.8240766e-07
4.8008455e-07
4.7768597e-07
4.7524374e-07
4.727843e-07
4.702284e-07
4.6761937e-07
4.6493374e-07
4.6199014e-07
4.5813658e-07
4.5327528e-07
4.4873883e-07
4.4499998e-07
4.4168999e-07
4.3845712e-07
4.3508938e-07
4.3156594e-07
4.2793051e-07
4.242126e-07
4.2044454e-07
4.1655481e-07
4.1259267e-07
4.0861192e-07
4.0457313e-07
4.0045615e-07
3.9629286e-07
3.9208083e-07
3.8781488e-07
3.8348555e-07
3.7908551e-07
3.7461346e-07
3.701036e-07
3.6550984e-07
3.6081877e-07
3.5610417e-07
3.5130091e-07
3.4636426e-07
3.4125895e-07
3.36013e-07
3.3065196e-07
3.2512846e-07
3.1938807e-07
3.1334307e-07
3.0713961e-07
3.006549e-07
2.9383666e-07
2.8664184e-07
2.7903131e-07
2.7097919e-07
2.62521e-07
2.5353174e-07
2.4416128e-07
2.3413261e-07
2.2392902e-07
2.1290385e-07
2.0103754e-07
1.9542737e-07
1.9551902e-07
1.9866378e-07
2.0361335e-07
2.0841016e-07
2.1454142e-07
2.2046302e-07
2.279602e-07
2.3364428e-07
2.4369614e-07
2.4792252e-07
2.5971036e-07
2.3720378e-07
2.3937518e-07
2.9954001e-07
3.0102505e-07
3.2456286e-07
4.6730142e-07
2.6899685e-07
2.0266209e-07
1.3267764e-06
9.2681377e-07
2.7286007e-07
8.7457518e-07
2.0354596e-06
8.1505431e-07
1.6093099e-07
1.7615869e-07
4.1050898e-07
1.0293093e-06
2.6007303e-06
1.0069303e-06
1.1894578e-07
3.0226963e-06
1.8789829e-06
7.1406192e-07
5.1205812e-07
4.4766516e-07
3.1439541e-07
3.6241993e-07
4.0174573e-07
4.3440405e-07
3.6954856e-07
2.1153481e-07
2.8016505e-07
7.5996299e-07
5.5035514e-06
2.9378824e-06
1.3689754e-06
1.0191156e-06
1.244924e-06
1.715497e-06
2.1173713e-06
2.191705e-06
2.1588103e-06
2.2160034e-06
2.1252189e-06
1.8652716e-06
1.6124122e-06
1.441544e-06
1.3154164e-06
1.2609891e-06
4.9127295e-06
4.9955822e-06
4.6777641e-06
3.9989557e-06
3.0645545e-06
2.1018259e-06
1.277911e-06
6.7573809e-07
3.1416407e-07
1.359814e-07
6.7106769e-08
3.9835886e-08
2.3740602e-08
1.7086608e-08
1.3461991e-08
1.1983519e-08
1.1430225e-08
1.1128718e-08
1.1047684e-08
1.1040785e-08
1.1071812e-08
1.1079101e-08
1.1110266e-08
1.1272485e-08
1.1598755e-08
1.2061871e-08
1.2674524e-08
1.3447543e-08
1.4402079e-08
1.5560727e-08
1.6953998e-08
1.8607557e-08
2.0573448e-08
2.2898322e-08
2.5610834e-08
2.8714956e-08
3.2163318e-08
3.5921887e-08
4.0024191e-08
4.4466016e-08
4.9345569e-08
5.4746485e-08
6.0620532e-08
6.7022526e-08
7.3795794e-08
8.0904167e-08
8.825275e-08
9.5793921e-08
1.0367579e-07
1.1212961e-07
1.2097813e-07
1.2999345e-07
1.3906384e-07
1.478431e-07
1.5614154e-07
1.6360196e-07
1.6994304e-07
1.7461739e-07
1.7754952e-07
1.7868285e-07
1.7949707e-07
1.8152991e-07
1.922536e-07
2.2477443e-07
2.6678959e-07
3.0703644e-07
3.4670927e-07
3.855544e-07
4.2360486e-07
4.6072637e-07
4.969734e-07
5.3246156e-07
5.6722813e-07
6.0120372e-07
6.3455325e-07
6.6741895e-07
6.9980937e-07
7.3165592e-07
7.6304057e-07
7.9407378e-07
8.2472744e-07
8.5497454e-07
8.8487523e-07
9.1444736e-07
9.4367311e-07
9.7256164e-07
1.0011271e-06
1.0293607e-06
1.0572539e-06
1.084799e-06
1.1120075e-06
1.1388682e-06
1.165373e-06
1.1915238e-06
1.2173123e-06
1.2427515e-06
1.267824e-06
1.292538e-06
1.3168747e-06
1.3408259e-06
1.3643789e-06
1.3875496e-06
1.4103392e-06
1.4327143e-06
1.4546599e-06
1.4761254e-06
1.4970954e-06
1.5175478e-06
1.5375115e-06
1.5570007e-06
1.575956e-06
1.5943382e-06
1.612157e-06
1.6294316e-06
1.6461332e-06
1.6622698e-06
1.6778202e-06
1.6927409e-06
1.706963e-06
1.7204924e-06
1.7334299e-06
1.7457323e-06
1.757264e-06
1.7680542e-06
1.7782506e-06
1.7878187e-06
1.7965859e-06
1.8045383e-06
1.8118642e-06
1.8185102e-06
1.8243732e-06
1.8295401e-06
1.8340379e-06
1.8378213e-06
1.840823e-06
1.8431139e-06
1.8447629e-06
1.8457373e-06
1.8459855e-06
1.8455748e-06
1.8445535e-06
1.8429156e-06
1.8406041e-06
1.8376968e-06
1.8342518e-06
1.830254e-06
1.8256955e-06
1.8204579e-06
1.8146869e-06
1.8084312e-06
1.8016471e-06
1.7944225e-06
1.7868287e-06
1.7788815e-06
1.7706403e-06
1.7622279e-06
1.7537379e-06
1.7448845e-06
1.7358102e-06
1.7264548e-06
1.7161241e-06
1.7024306e-06
1.6848999e-06
1.6685437e-06
1.655133e-06
1.6433072e-06
1.6317642e-06
1.6197086e-06
1.6070555e-06
1.5939695e-06
1.5805585e-06
1.5669468e-06
1.5528662e-06
1.538494e-06
1.5240359e-06
1.5093452e-06
1.4943449e-06
1.4791523e-06
1.4637628e-06
1.4481543e-06
1.4322935e-06
1.4161494e-06
1.3997227e-06
1.3831363e-06
1.3662225e-06
1.3489251e-06
1.3315275e-06
1.3137837e-06
1.2955256e-06
1.2766208e-06
1.2571764e-06
1.2372865e-06
1.2167733e-06
1.1954328e-06
1.1729395e-06
1.1498317e-06
1.1256623e-06
1.1002204e-06
1.0733651e-06
1.0449272e-06
1.0148263e-06
9.8317883e-07
9.4953687e-07
9.144355e-07
8.768668e-07
8.3859827e-07
7.9731898e-07
7.5296466e-07
7.3198154e-07
7.3233279e-07
7.4411911e-07
7.6270361e-07
7.8079265e-07
8.0381485e-07
8.2627931e-07
8.5433443e-07
8.7605621e-07
9.1348129e-07
9.2999218e-07
9.7412997e-07
8.8963233e-07
8.9500791e-07
1.1250966e-06
1.1291194e-06
1.2172386e-06
1.7500571e-06
9.1531234e-07
7.6111076e-07
4.9735405e-06
3.4627227e-06
9.8904772e-07
3.2832188e-06
7.4849838e-06
2.7799546e-06
5.6216309e-07
6.6029609e-07
1.4929497e-06
3.8265692e-06
9.716726e-06
3.7305395e-06
4.2530224e-07
1.1306399e-05
6.7904789e-06
2.5022858e-06
1.9018865e-06
1.1334766e-06
9.7122988e-07
1.323158e-06
1.2978763e-06
1.5817742e-06
1.2873776e-06
7.3503767e-07
9.4161233e-07
2.7543192e-06
1.908516e-05
9.8138517e-06
4.365255e-06
3.2895219e-06
4.3137745e-06
5.666263e-06
6.8162909e-06
7.0413159e-06
7.0580564e-06
7.4870422e-06
7.3418971e-06
6.5701828e-06
5.7631126e-06
5.227291e-06
4.7842532e-06
4.6317021e-06
1.3097955e-05
1.3316666e-05
1.2461168e-05
1.0649534e-05
8.1605445e-06
5.6045015e-06
3.4145964e-06
1.8078514e-06
8.3668173e-07
3.5772292e-07
1.7385372e-07
1.0143743e-07
6.0349352e-08
4.3635669e-08
3.4770462e-08
3.1097301e-08
2.9765977e-08
2.9033144e-08
2.8857812e-08
2.8859949e-08
2.896803e-08
2.903183e-08
2.9144956e-08
2.9595718e-08
3.047778e-08
3.1711427e-08
3.3346526e-08
3.5395599e-08
3.7925107e-08
4.0990261e-08
4.4674522e-08
4.904267e-08
5.4230524e-08
6.0364673e-08
6.7520644e-08
7.5715061e-08
8.4833368e-08
9.4785977e-08
1.056583e-07
1.1745682e-07
1.3043151e-07
1.4477858e-07
1.6038708e-07
1.7744668e-07
1.9551261e-07
2.1450229e-07
2.3415675e-07
2.5434927e-07
2.754485e-07
2.9807512e-07
3.2176995e-07
3.4592449e-07
3.7023272e-07
3.9378664e-07
4.1606129e-07
4.3611499e-07
4.5317562e-07
4.6579866e-07
4.7372908e-07
4.7687038e-07
4.7907081e-07
4.8454992e-07
5.1290779e-07
5.990145e-07
7.1062632e-07
8.1747498e-07
9.2282613e-07
1.0259575e-06
1.1269816e-06
1.2255189e-06
1.3217945e-06
1.4160475e-06
1.5084129e-06
1.598689e-06
1.6873135e-06
1.774669e-06
1.8607835e-06
1.9454688e-06
2.0289406e-06
2.1114958e-06
2.1930581e-06
2.2735549e-06
2.3531446e-06
2.4318754e-06
2.5097005e-06
2.5866414e-06
2.6627366e-06
2.737962e-06
2.812294e-06
2.8857116e-06
2.9582447e-06
3.0298635e-06
3.1005451e-06
3.1702946e-06
3.2390889e-06
3.3069622e-06
3.3738677e-06
3.439826e-06
3.5047877e-06
3.5687291e-06
3.6316168e-06
3.6934924e-06
3.7543601e-06
3.8141271e-06
3.8727551e-06
3.9301093e-06
3.9861484e-06
4.0408133e-06
4.09418e-06
4.1462864e-06
4.1969747e-06
4.2461399e-06
4.2938072e-06
4.3400279e-06
4.3847252e-06
4.4279205e-06
4.4695561e-06
4.5095161e-06
4.5476183e-06
4.5838777e-06
4.6185615e-06
4.6515551e-06
4.6824974e-06
4.7114657e-06
4.7388532e-06
4.7645681e-06
4.788151e-06
4.8095634e-06
4.8293057e-06
4.8472377e-06
4.8630836e-06
4.8770751e-06
4.889283e-06
4.8995866e-06
4.9078071e-06
4.9141328e-06
4.9187464e-06
4.9215606e-06
4.9224387e-06
4.9215587e-06
4.9190493e-06
4.9148938e-06
4.9089412e-06
4.9013975e-06
4.8924178e-06
4.8819626e-06
4.8700107e-06
4.8562449e-06
4.841052e-06
4.8245637e-06
4.8066632e-06
4.7875841e-06
4.7675165e-06
4.7465023e-06
4.7247e-06
4.7024375e-06
4.6799619e-06
4.6565153e-06
4.6324735e-06
4.6076807e-06
4.5802783e-06
4.5439105e-06
4.4972886e-06
4.4537868e-06
4.418131e-06
4.3867015e-06
4.3560252e-06
4.3239789e-06
4.2903327e-06
4.2555271e-06
4.2198498e-06
4.1836323e-06
4.146159e-06
4.1079006e-06
4.0694079e-06
4.030289e-06
3.9903386e-06
3.9498695e-06
3.9088704e-06
3.8672813e-06
3.8250138e-06
3.7819847e-06
3.7381977e-06
3.6939779e-06
3.6488797e-06
3.6027524e-06
3.5563534e-06
3.5090258e-06
3.4603213e-06
3.4098847e-06
3.3580027e-06
3.3049276e-06
3.250183e-06
3.1932252e-06
3.1331844e-06
3.0714962e-06
3.0069711e-06
2.9390418e-06
2.8673354e-06
2.7913958e-06
2.7110117e-06
2.6264915e-06
2.5366417e-06
2.4428844e-06
2.3425343e-06
2.240302e-06
2.1301535e-06
2.0120344e-06
1.9562029e-06
1.9571544e-06
1.988686e-06
2.0383828e-06
2.0867932e-06
2.1483821e-06
2.2085442e-06
2.2835424e-06
2.341769e-06
2.4417482e-06
2.486159e-06
2.6037155e-06
2.3765897e-06
2.3935161e-06
3.0104749e-06
3.0197164e-06
3.2534909e-06
4.6694687e-06
2.3908243e-06
2.0590608e-06
1.3364234e-05
9.2319867e-06
2.6354385e-06
8.8311845e-06
1.9901082e-05
7.2349705e-06
1.4736372e-06
1.7701361e-06
4.0021855e-06
1.0346185e-05
2.5773462e-05
9.8847475e-06
1.1674352e-06
3.0156073e-05
1.7940826e-05
6.601153e-06
5.0362279e-06
2.8397906e-06
2.5260788e-06
3.5123565e-06
3.3847439e-06
4.2131801e-06
3.3974178e-06
1.96818e-06
2.4922601e-06
7.3863217e-06
4.9870749e-05
2.5611827e-05
1.1487465e-05
8.7090836e-06
1.1410807e-05
1.486095e-05
1.783497e-05
1.8468907e-05
1.8548955e-05
1.9746072e-05
1.9415927e-05
1.7423581e-05
1.5313686e-05
1.3914864e-05
1.2742325e-05
1.2351039e-05
2.8635345e-05
2.9114393e-05
2.7246481e-05
2.3288749e-05
1.78476e-05
1.2262098e-05
7.475123e-06
3.9605532e-06
1.8325505e-06
7.8219005e-07
3.7898568e-07
2.197661e-07
1.3072171e-07
9.4510644e-08
7.5627535e-08
6.7679659e-08
6.4810354e-08
6.3232396e-08
6.2863119e-08
6.2876975e-08
6.312589e-08
6.3285633e-08
6.3544583e-08
6.4533113e-08
6.6461133e-08
6.9153019e-08
7.2723292e-08
7.7192772e-08
8.2710596e-08
8.9395308e-08
9.7430159e-08
1.0695497e-07
1.1826505e-07
1.3163844e-07
1.4724055e-07
1.65112e-07
1.850093e-07
2.0673584e-07
2.304745e-07
2.5624687e-07
2.8459346e-07
3.159326e-07
3.5003302e-07
3.8732718e-07
4.2683391e-07
4.6837835e-07
5.1139181e-07
5.5559278e-07
6.0176909e-07
6.5128225e-07
7.031441e-07
7.560224e-07
8.0924267e-07
8.6082863e-07
9.0962264e-07
9.5356906e-07
9.9096945e-07
1.0186692e-06
1.0360836e-06
1.0430319e-06
1.0478878e-06
1.0599269e-06
1.1218169e-06
1.309703e-06
1.5534662e-06
1.7868475e-06
2.0169677e-06
2.2422252e-06
2.4628789e-06
2.6780911e-06
2.8883862e-06
3.0942621e-06
3.2960247e-06
3.4932263e-06
3.686824e-06
3.8776575e-06
4.0657877e-06
4.2508e-06
4.4331677e-06
4.6135389e-06
4.7917456e-06
4.9676302e-06
5.1415374e-06
5.3135726e-06
5.4836342e-06
5.6517673e-06
5.8180572e-06
5.9824501e-06
6.1448947e-06
6.3053452e-06
6.4638663e-06
6.6203928e-06
6.774875e-06
6.927324e-06
7.0776889e-06
7.2260438e-06
7.3722869e-06
7.5164628e-06
7.6584632e-06
7.7982366e-06
7.9357098e-06
8.0709744e-06
8.2040408e-06
8.3346969e-06
8.4628637e-06
8.5882494e-06
8.7107639e-06
8.8302784e-06
8.9469579e-06
9.0608852e-06
9.1717155e-06
9.2792211e-06
9.3834559e-06
9.4845312e-06
9.5822807e-06
9.6767497e-06
9.7678113e-06
9.8552117e-06
9.9385563e-06
1.0017879e-05
1.0093759e-05
1.0165945e-05
1.0233653e-05
1.0297051e-05
1.0356995e-05
1.0413284e-05
1.0464916e-05
1.051181e-05
1.0555052e-05
1.0594338e-05
1.062907e-05
1.065975e-05
1.0686532e-05
1.0709152e-05
1.0727223e-05
1.0741154e-05
1.0751342e-05
1.0757597e-05
1.0759622e-05
1.0757806e-05
1.0752427e-05
1.0743448e-05
1.0730543e-05
1.071416e-05
1.0694636e-05
1.0671888e-05
1.0645869e-05
1.0615884e-05
1.0582776e-05
1.0546836e-05
1.0507809e-05
1.0466204e-05
1.0422436e-05
1.0376596e-05
1.0329032e-05
1.0280458e-05
1.0231409e-05
1.018024e-05
1.0127767e-05
1.0073648e-05
1.0013815e-05
9.9344005e-06
9.8326025e-06
9.7376034e-06
9.6597209e-06
9.5910711e-06
9.5240662e-06
9.454067e-06
9.3805685e-06
9.304537e-06
9.2265996e-06
9.1474778e-06
9.0656096e-06
8.982021e-06
8.8979162e-06
8.8124392e-06
8.7251427e-06
8.6367092e-06
8.5471156e-06
8.4562288e-06
8.3638559e-06
8.2698161e-06
8.1741185e-06
8.0774698e-06
7.978898e-06
7.8780761e-06
7.7766572e-06
7.6732056e-06
7.5667441e-06
7.4564912e-06
7.3430771e-06
7.2270543e-06
7.1073779e-06
6.9828624e-06
6.8516029e-06
6.7167397e-06
6.5756756e-06
6.4271684e-06
6.2703989e-06
6.1043753e-06
5.9286329e-06
5.7438501e-06
5.5474122e-06
5.342424e-06
5.1230167e-06
4.8994844e-06
4.6589086e-06
4.4014651e-06
4.2799038e-06
4.282009e-06
4.3510694e-06
4.4598307e-06
4.5658408e-06
4.7007025e-06
4.8324815e-06
4.9966183e-06
5.1241886e-06
5.3429334e-06
5.4404159e-06
5.6966781e-06
5.1964515e-06
5.2423498e-06
6.5947899e-06
6.6117247e-06
7.1141093e-06
1.0192922e-05
5.1572101e-06
4.561232e-06
2.9446797e-05
2.0155139e-05
5.7670665e-06
1.9444471e-05
4.3308695e-05
1.5533053e-05
3.1765091e-06
3.8846574e-06
8.8173546e-06
2.2897321e-05
5.58638e-05
2.1314147e-05
2.6353095e-06
6.5704737e-05
3.8920483e-05
1.4332823e-05
1.098347e-05
6.1234341e-06
5.4739968e-06
7.6738667e-06
7.3367077e-06
9.1860977e-06
7.3840994e-06
4.3326599e-06
5.4356735e-06
1.63732e-05
0.00010739588
5.5165183e-05
2.5092265e-05
1.9039757e-05
2.4869712e-05
3.2269204e-05
3.8712255e-05
4.0166221e-05
4.0375238e-05
4.2994685e-05
4.2309736e-05
3.8016765e-05
3.3441721e-05
3.0405505e-05
2.7852968e-05
2.7009223e-05
5.4945396e-05
5.586798e-05
5.229792e-05
4.4715521e-05
3.4275733e-05
2.3556357e-05
1.4365742e-05
7.6166131e-06
3.5257781e-06
1.5047926e-06
7.2833408e-07
4.208909e-07
2.5032817e-07
1.8086055e-07
1.4503279e-07
1.2977241e-07
1.2426176e-07
1.2123922e-07
1.2053443e-07
1.2056757e-07
1.2105636e-07
1.2137836e-07
1.2188114e-07
1.2377251e-07
1.2746309e-07
1.3261789e-07
1.3945797e-07
1.4801989e-07
1.5859145e-07
1.7139874e-07
1.8679377e-07
2.0504321e-07
2.2671217e-07
2.523356e-07
2.8223208e-07
3.1648506e-07
3.5463499e-07
3.9630225e-07
4.4183158e-07
4.912684e-07
5.4564538e-07
6.0576006e-07
6.711806e-07
7.4274749e-07
8.185772e-07
8.9833741e-07
9.8093545e-07
1.0658211e-06
1.1544827e-06
1.2495399e-06
1.3491234e-06
1.4506733e-06
1.5528855e-06
1.651981e-06
1.7457275e-06
1.8301813e-06
1.9020748e-06
1.9553554e-06
1.9888747e-06
2.0023273e-06
2.0117522e-06
2.0349859e-06
2.1537302e-06
2.5138669e-06
2.9813333e-06
3.4289888e-06
3.8703871e-06
4.3024357e-06
4.7256457e-06
5.1384048e-06
5.5417425e-06
5.9366032e-06
6.3235741e-06
6.7017944e-06
7.0731009e-06
7.4391103e-06
7.7999349e-06
8.1547771e-06
8.5045506e-06
8.8504945e-06
9.1922846e-06
9.5296229e-06
9.863167e-06
1.019312e-05
1.0519286e-05
1.0841753e-05
1.1160684e-05
1.1475975e-05
1.1787528e-05
1.2095256e-05
1.2399282e-05
1.2699483e-05
1.2995763e-05
1.3288143e-05
1.3576528e-05
1.3861057e-05
1.4141536e-05
1.4418051e-05
1.4690394e-05
1.4958466e-05
1.5222129e-05
1.5481558e-05
1.5736778e-05
1.5987355e-05
1.6233157e-05
1.6473627e-05
1.6708594e-05
1.6937812e-05
1.7161596e-05
1.7380103e-05
1.7592673e-05
1.7798874e-05
1.7998807e-05
1.8192684e-05
1.8380187e-05
1.8561403e-05
1.8736084e-05
1.8903745e-05
1.9063636e-05
1.9215825e-05
1.9361411e-05
1.9499914e-05
1.9629836e-05
1.9751504e-05
1.9866549e-05
1.9974583e-05
2.0073694e-05
2.0163725e-05
2.0246751e-05
2.0322193e-05
2.038891e-05
2.044786e-05
2.0499332e-05
2.0542821e-05
2.0577596e-05
2.0604435e-05
2.0624093e-05
2.0636204e-05
2.0640212e-05
2.0636853e-05
2.062666e-05
2.0609559e-05
2.0584933e-05
2.0553636e-05
2.051631e-05
2.0472803e-05
2.0423026e-05
2.0365638e-05
2.0302255e-05
2.0233439e-05
2.0158705e-05
2.0079026e-05
1.9995191e-05
1.990738e-05
1.9816261e-05
1.9723194e-05
1.9629196e-05
1.9531135e-05
1.9430575e-05
1.9326844e-05
1.9212129e-05
1.9059898e-05
1.8864836e-05
1.8682765e-05
1.853344e-05
1.8401807e-05
1.8273324e-05
1.8139102e-05
1.7998168e-05
1.785238e-05
1.770294e-05
1.7551221e-05
1.7394235e-05
1.7233943e-05
1.7072654e-05
1.6908726e-05
1.6741308e-05
1.6571705e-05
1.6399875e-05
1.622556e-05
1.6048389e-05
1.5868019e-05
1.568447e-05
1.5499087e-05
1.5310011e-05
1.5116622e-05
1.4922081e-05
1.4723638e-05
1.4519425e-05
1.4307931e-05
1.4090371e-05
1.3867809e-05
1.3638233e-05
1.3399375e-05
1.3147575e-05
1.288886e-05
1.2618255e-05
1.2333374e-05
1.2032633e-05
1.1714148e-05
1.1377017e-05
1.1022552e-05
1.0645724e-05
1.0252481e-05
9.831567e-06
9.402717e-06
8.9416628e-06
8.4493573e-06
8.2171396e-06
8.2212156e-06
8.3539414e-06
8.5627623e-06
8.7664576e-06
9.0255725e-06
9.2788362e-06
9.5940294e-06
9.8392527e-06
1.0259165e-05
1.044681e-05
1.0936913e-05
9.969597e-06
1.0077574e-05
1.2678655e-05
1.2703724e-05
1.3640565e-05
1.9510739e-05
9.7769253e-06
8.860962e-06
5.7008155e-05
3.8616484e-05
1.108259e-05
3.7547292e-05
8.2557849e-05
2.9283688e-05
6.0069942e-06
7.4796033e-06
1.705089e-05
4.4390189e-05
0.00010604553
4.0166308e-05
5.2126529e-06
0.00012528051
7.4060359e-05
2.7341349e-05
2.1203281e-05
1.1730541e-05
1.0440961e-05
1.4737642e-05
1.4019224e-05
1.7535161e-05
1.4081912e-05
8.3425206e-06
1.039157e-05
3.1937124e-05
0.00020295738
0.00010425422
4.8024686e-05
3.6452672e-05
4.7594763e-05
6.1533784e-05
7.3834564e-05
7.6716873e-05
7.7202742e-05
8.2194031e-05
8.0935215e-05
7.2817946e-05
6.4109748e-05
5.8319732e-05
5.3444193e-05
5.184428e-05
9.6192401e-05
9.781245e-05
9.1596011e-05
7.835276e-05
6.0081587e-05
4.1309847e-05
2.5203599e-05
1.3372811e-05
6.1940282e-06
2.6438615e-06
1.278768e-06
7.3718229e-07
4.3836376e-07
3.1652287e-07
2.5409534e-07
2.2728278e-07
2.1758995e-07
2.1229025e-07
2.110537e-07
2.1111905e-07
2.1198973e-07
2.1257213e-07
2.1345703e-07
2.1675508e-07
2.2319875e-07
2.3220682e-07
2.4416503e-07
2.5913511e-07
2.7762164e-07
3.0001909e-07
3.269442e-07
3.5886199e-07
3.9675955e-07
4.4157588e-07
4.9387109e-07
5.537999e-07
6.2056918e-07
6.9350959e-07
7.7321404e-07
8.5976557e-07
9.5496686e-07
1.0602109e-06
1.174759e-06
1.3000923e-06
1.4329176e-06
1.5726564e-06
1.7173942e-06
1.8661482e-06
2.0214902e-06
2.1880171e-06
2.3625009e-06
2.5404544e-06
2.7195717e-06
2.8932639e-06
3.0576041e-06
3.205688e-06
3.3317819e-06
3.4252942e-06
3.4841712e-06
3.5079681e-06
3.5247099e-06
3.5657228e-06
3.7738334e-06
4.4038972e-06
5.2219939e-06
6.0056245e-06
6.7782737e-06
7.5345046e-06
8.275235e-06
8.9976387e-06
9.7035487e-06
1.0394613e-05
1.1071854e-05
1.1733768e-05
1.2383569e-05
1.3024099e-05
1.3655544e-05
1.4276508e-05
1.4888601e-05
1.5493983e-05
1.6092085e-05
1.6682392e-05
1.7266051e-05
1.7843415e-05
1.8414148e-05
1.8978397e-05
1.9536453e-05
2.0088131e-05
2.0633261e-05
2.1171694e-05
2.1703643e-05
2.2228892e-05
2.2747279e-05
2.3258842e-05
2.3763411e-05
2.426123e-05
2.4751963e-05
2.5235757e-05
2.5712252e-05
2.6181273e-05
2.6642581e-05
2.7096487e-05
2.7543039e-05
2.798142e-05
2.8411445e-05
2.8832149e-05
2.924323e-05
2.9644264e-05
3.0035796e-05
3.0418097e-05
3.079002e-05
3.1150813e-05
3.1500652e-05
3.18399e-05
3.2168011e-05
3.2485127e-05
3.2790816e-05
3.3084223e-05
3.3364056e-05
3.363044e-05
3.3885273e-05
3.4127714e-05
3.4355162e-05
3.4568194e-05
3.476964e-05
3.4958818e-05
3.5132404e-05
3.5290126e-05
3.5435586e-05
3.5567782e-05
3.5684733e-05
3.5788107e-05
3.5878393e-05
3.5954714e-05
3.6015808e-05
3.6063029e-05
3.6097678e-05
3.6119122e-05
3.6126402e-05
3.6120798e-05
3.6103231e-05
3.6073571e-05
3.6030754e-05
3.5976266e-05
3.5911218e-05
3.5835363e-05
3.5748539e-05
3.5648396e-05
3.5537747e-05
3.5417592e-05
3.5287086e-05
3.5147923e-05
3.5001477e-05
3.4848064e-05
3.4688857e-05
3.4526222e-05
3.436191e-05
3.4190503e-05
3.4014718e-05
3.383335e-05
3.363271e-05
3.3366529e-05
3.3025631e-05
3.2707347e-05
3.2446176e-05
3.2215918e-05
3.199116e-05
3.175637e-05
3.1509831e-05
3.1254813e-05
3.0993407e-05
3.0727997e-05
3.0453373e-05
3.0172952e-05
2.9890767e-05
2.9603953e-05
2.9311029e-05
2.9014272e-05
2.8713614e-05
2.8408592e-05
2.8098566e-05
2.7782936e-05
2.7461743e-05
2.713732e-05
2.6806425e-05
2.6467988e-05
2.6127518e-05
2.5780212e-05
2.5422815e-05
2.5052658e-05
2.4671881e-05
2.4282355e-05
2.388054e-05
2.346248e-05
2.302176e-05
2.256893e-05
2.2095302e-05
2.1596687e-05
2.1070291e-05
2.051286e-05
1.9922788e-05
1.9302393e-05
1.8642846e-05
1.7954535e-05
1.7217772e-05
1.6467057e-05
1.5660796e-05
1.4801817e-05
1.4397049e-05