/*--------------------------------*- C++ -*----------------------------------*\
| =========                 |                                                 |
| \\      /  F ield         | OpenFOAM: The Open Source CFD Toolbox           |
|  \\    /   O peration     | Version:  2.4.0                                 |
|   \\  /    A nd           | Web:      www.OpenFOAM.org                      |
|    \\/     M anipulation  |                                                 |
\*---------------------------------------------------------------------------*/
FoamFile
{
    version     2.0;
    format      ascii;
    class       volScalarField;
    location    "200";
    object      omega;
}
// * * * * * * * * * * * * * * * * * * * * * * * * * * * * * * * * * * * * * //

dimensions      [0 0 -1 0 0 0 0];

internalField   nonuniform List<scalar> 
78300
(
288636.63
288686.54
288700.32
288833.65
289515.6
291432.02
295479.08
302673.01
314010.37
329813.04
346787.82
362441.63
375829.98
386411.76
393919.79
398343.7
399991.89
399060.36
395721.33
390174.45
382632.29
373308
362413.46
350675.33
339521.98
329123.31
319421.78
310364.21
301901.89
293992.53
286594.56
279672.29
273192.3
267123.9
261439.18
256109.32
250877.53
245350.68
239525.68
233441.11
227134.93
220644.17
214005.21
207254.37
200428.97
193566.99
186709.47
179903.22
173262.16
167044.3
161298.04
156019.07
151204.62
146855.25
142973.85
139564.67
136634.53
134192.24
132247.52
130811.23
129895.27
129511.99
129657.27
129783.85
129783.85
129783.85
129783.85
129783.85
129783.85
129783.85
129783.85
129783.85
129783.85
129783.85
129783.85
129783.85
129783.85
129783.85
129783.85
129783.85
129783.85
129783.85
129783.85
129783.85
129783.85
129783.85
129783.85
129783.85
129783.85
129783.85
129783.85
129783.85
129783.85
129783.85
129783.85
129783.85
129783.85
129783.85
129783.85
129783.85
129783.85
129783.85
129783.85
129783.85
129783.85
129783.85
129783.85
129783.85
129783.85
129783.85
129783.85
129783.85
129783.85
129783.85
129783.85
129783.85
129783.85
129783.85
129783.85
129783.85
129783.85
129783.85
129783.84
129783.85
129783.85
129783.85
129783.85
129783.84
129783.85
129783.85
129783.85
129783.85
129783.85
129783.85
129783.85
129783.85
129783.84
129783.85
129783.85
129783.84
129783.85
129783.85
129783.85
129783.85
129783.85
129783.84
129783.85
129783.85
129783.85
129783.85
129783.85
129783.85
129783.85
129783.85
129783.84
129783.85
129783.85
129783.85
129783.84
129783.85
129783.85
129783.84
129783.85
129783.85
129783.84
129783.85
129783.85
129783.84
129783.85
129783.85
129783.85
129783.85
129783.85
129783.85
129783.85
129783.84
129783.85
129783.85
129783.85
129783.85
129783.85
129783.85
129783.85
129783.85
129783.85
129783.85
129783.85
129783.85
129783.85
129783.85
129783.85
129783.85
129783.85
129783.85
129783.84
129783.85
129783.85
129783.84
129783.85
129783.85
129783.85
129783.85
129783.85
129783.84
129783.85
129783.85
129783.84
129657.28
129512.01
129895.29
130811.3
132247.51
134192.34
136634.64
139564.65
142973.98
146855.32
151204.67
156018.82
161297.58
167043.87
173262.26
179902.7
186708.68
193567.05
200429.57
207253.32
214004.05
220644.49
227134.65
233439.26
239524.1
245352.66
250877.67
256108.08
261440.19
267124.37
273191.43
279670.54
286594.56
293991.4
301901.42
310366.52
319421.34
329122.78
339524.26
350675.48
362412.53
373310.22
382630.09
390168.82
395719.59
399058.71
399989.89
398342.4
393921.49
386411.4
375828.67
362441.01
346789.96
329814.86
314010.09
302672.87
295478.99
291431.81
289515.62
288834.57
288701.21
288686.52
288636.62
48842.377
48850.06
48851.742
48873.994
48989.227
49313.146
49997.106
51212.882
53128.934
55801.076
58557.349
59435.583
61858.689
63528.149
66402.992
67396.976
67679.777
67522.803
66958.524
66020.669
64745.271
63168.352
61325.646
59339.762
57452.46
55692.749
54050.991
52518.243
51086.204
49747.769
48495.875
47324.468
46227.903
45200.978
44238.961
43337.041
42451.893
41516.907
40531.475
39502.123
38435.317
37337.214
36214.046
35071.944
33917.186
32756.234
31596.044
30444.496
29320.781
28268.593
27296.209
26402.878
25588.154
24852.143
24195.303
23618.384
23122.544
22709.256
22380.168
22137.134
21982.161
21917.34
21941.463
21962.059
21961.78
21961.763
21961.747
21961.737
21961.733
21961.716
21961.709
21961.703
21961.697
21961.692
21961.688
21961.684
21961.681
21961.677
21961.675
21961.672
21961.67
21961.667
21961.665
21961.664
21961.662
21961.66
21961.658
21961.657
21961.655
21961.654
21961.652
21961.651
21961.65
21961.648
21961.647
21961.646
21961.645
21961.644
21961.643
21961.642
21961.641
21961.64
21961.639
21961.638
21961.637
21961.637
21961.636
21961.636
21961.635
21961.634
21961.633
21961.633
21961.633
21961.631
21961.631
21961.63
21961.629
21961.629
21961.627
21961.627
21961.626
21961.625
21961.625
21961.624
21961.623
21961.622
21961.621
21961.62
21961.62
21961.618
21961.618
21961.616
21961.616
21961.615
21961.614
21961.613
21961.612
21961.611
21961.61
21961.609
21961.608
21961.608
21961.606
21961.605
21961.604
21961.604
21961.603
21961.602
21961.601
21961.6
21961.6
21961.598
21961.598
21961.597
21961.596
21961.596
21961.595
21961.595
21961.594
21961.593
21961.592
21961.59
21961.591
21961.592
21961.592
21961.591
21961.591
21961.59
21961.59
21961.589
21961.589
21961.589
21961.588
21961.588
21961.588
21961.588
21961.588
21961.588
21961.587
21961.588
21961.587
21961.587
21961.587
21961.587
21961.588
21961.588
21961.588
21961.587
21961.588
21961.588
21961.588
21961.589
21961.589
21961.589
21961.589
21961.591
21961.591
21961.591
21961.592
21961.593
21961.594
21961.595
21961.596
21961.597
21961.599
21961.601
21961.841
21941.265
21917.297
21982.172
22137.161
22380.187
22709.279
23122.571
23618.392
24195.354
24852.164
25588.191
26402.821
27296.055
28270.111
29325.669
30448.274
31600.305
32756.023
33915.396
33697.829
36208.352
37338.296
38433.903
39503.494
40510.385
41512.269
40827.782
43342.532
44234.534
45013.523
46974.909
47496.325
48996.478
49743.846
51048.949
52264.919
54045.626
56111.405
54883.881
57392.93
60892.855
60810.724
65132.272
68039.208
65293.921
69175.693
66354.955
65669.707
64488.546
62237.138
61877.197
61346.019
56054.65
54933.189
53126.907
51215.6
49997.487
49304.263
48991.325
48875.158
48853.089
48850.887
48843.258
16150.671
16152.779
16153.104
16160.606
16199.087
16306.369
16532.154
16933.179
17565.025
18447.141
19371.289
19860.501
20626.774
21255.837
21993.602
22281.988
22377.342
22325.944
22139.901
21830.263
21409.014
20888.047
20279.095
19622.561
18998.453
18416.506
17873.553
17366.659
16893.069
16450.427
16036.413
15649.02
15286.373
14946.751
14628.595
14330.352
14037.727
13728.661
13402.933
13062.678
12710.042
12347.037
11975.736
11598.159
11216.396
10832.571
10448.995
10068.263
9696.687
9348.7165
9027.1266
8731.6831
8462.2318
8218.8087
8001.5673
7810.758
7646.7659
7510.0784
7401.2415
7320.8756
7269.6432
7248.2705
7256.1085
7262.4993
7262.2309
7262.2056
7262.1823
7262.1676
7262.161
7262.1388
7262.1286
7262.1199
7262.1115
7262.1056
7262.1009
7262.0957
7262.091
7262.0874
7262.0842
7262.081
7262.0781
7262.0756
7262.0733
7262.0709
7262.0687
7262.0666
7262.0645
7262.0625
7262.0606
7262.0587
7262.0569
7262.0551
7262.0533
7262.0516
7262.0499
7262.0482
7262.0466
7262.0449
7262.0433
7262.0417
7262.0401
7262.0385
7262.0368
7262.0353
7262.0341
7262.0329
7262.0316
7262.0304
7262.0291
7262.0277
7262.0263
7262.0248
7262.0234
7262.0218
7262.0202
7262.0185
7262.0167
7262.015
7262.0131
7262.0113
7262.0093
7262.0072
7262.0052
7262.0032
7262.0011
7261.9988
7261.9965
7261.9942
7261.9922
7261.9897
7261.9875
7261.985
7261.9827
7261.9802
7261.9778
7261.9755
7261.9729
7261.9706
7261.9682
7261.9657
7261.9634
7261.961
7261.9585
7261.9562
7261.954
7261.9516
7261.9493
7261.9469
7261.9447
7261.9426
7261.9406
7261.9385
7261.9365
7261.9346
7261.9326
7261.9309
7261.9289
7261.9271
7261.9253
7261.9228
7261.9194
7261.9175
7261.9175
7261.9181
7261.9178
7261.9165
7261.915
7261.9134
7261.9123
7261.9112
7261.9101
7261.909
7261.9081
7261.9074
7261.9066
7261.9058
7261.9055
7261.9048
7261.9043
7261.9038
7261.9035
7261.9032
7261.9029
7261.9027
7261.9026
7261.9026
7261.9024
7261.9023
7261.9025
7261.9025
7261.9027
7261.9031
7261.9035
7261.9039
7261.9047
7261.9057
7261.9067
7261.9075
7261.9085
7261.9103
7261.9122
7261.9141
7261.9162
7261.9188
7261.922
7261.924
7262.1313
7255.7806
7248.1851
7269.6517
7320.9046
7401.277
7510.1138
7646.7955
7810.777
8001.5916
8218.8305
8462.25
8731.5989
9026.97
9348.1659
9697.6033
10066.401
10448.623
10832.108
11214.2
11302.827
11978.379
12346.3
12707.301
13065.423
13393.683
13724.254
13689.244
14337.278
14631.813
14834.518
15577.04
15762.263
16495.759
16445.543
16867.952
17168.464
17870.136
18468.471
18132.434
19501.494
19877.286
20409.646
21607.742
22254.525
22071.38
22663.194
22158.88
22068.737
21696.613
21061.052
21091.055
20331.362
18965.324
18262.222
17587.585
16935.567
16533.44
16304.409
16201.768
16162.736
16155.151
16154.376
16152.012
7445.2286
7445.9068
7446.0914
7449.9356
7468.2587
7518.0413
7621.9351
7806.047
8095.8738
8501.1874
8932.1137
9207.0567
9552.0195
9848.4868
10147.946
10270.811
10313.855
10290.492
10205.049
10062.613
9868.7145
9628.8424
9348.364
9045.8138
8758.0872
8489.7947
8239.4768
8005.7767
7787.4348
7583.3586
7392.4832
7213.8816
7046.6883
6890.1111
6743.4277
6605.9364
6471.0812
6328.6792
6178.5963
6021.8236
5859.3286
5692.056
5520.955
5346.9452
5171.0051
4994.1073
4817.32
4641.8348
4470.5471
4310.1121
4161.8321
4025.6078
3901.3645
3789.1193
3688.947
3600.9618
3525.3419
3462.3161
3412.1347
3375.093
3351.494
3341.7171
3345.3568
3348.1108
3347.8752
3347.8474
3347.8211
3347.8058
3347.7988
3347.7765
3347.7659
3347.7578
3347.7499
3347.7451
3347.7418
3347.7377
3347.7339
3347.7314
3347.7294
3347.7272
3347.7253
3347.7237
3347.7223
3347.7206
3347.7191
3347.7176
3347.7161
3347.7145
3347.7129
3347.7113
3347.7097
3347.708
3347.7062
3347.7045
3347.7027
3347.7008
3347.6989
3347.697
3347.695
3347.6929
3347.6909
3347.6887
3347.6864
3347.6842
3347.6822
3347.6802
3347.6781
3347.6759
3347.6737
3347.6712
3347.6687
3347.6661
3347.6634
3347.6606
3347.6576
3347.6545
3347.6513
3347.648
3347.6444
3347.641
3347.6374
3347.6335
3347.6296
3347.6258
3347.6218
3347.6175
3347.6132
3347.609
3347.6048
3347.6003
3347.5959
3347.5913
3347.5867
3347.5821
3347.5774
3347.5728
3347.5681
3347.5634
3347.5588
3347.5541
3347.5494
3347.5448
3347.5402
3347.5356
3347.5311
3347.5265
3347.5218
3347.5174
3347.5131
3347.5089
3347.5047
3347.5006
3347.4967
3347.4928
3347.489
3347.4853
3347.4814
3347.4778
3347.4742
3347.4696
3347.4637
3347.4598
3347.4591
3347.4591
3347.4579
3347.4552
3347.4521
3347.4493
3347.4468
3347.4445
3347.4423
3347.44
3347.4381
3347.4365
3347.4348
3347.4331
3347.4319
3347.4306
3347.4293
3347.4282
3347.4273
3347.4264
3347.4256
3347.4249
3347.4245
3347.4241
3347.4235
3347.4232
3347.4231
3347.423
3347.423
3347.4233
3347.4238
3347.4242
3347.4253
3347.4265
3347.4279
3347.4291
3347.4305
3347.4331
3347.4357
3347.4386
3347.4418
3347.4455
3347.4503
3347.4531
3347.6125
3344.9202
3341.59
3351.4947
3375.1228
3412.1772
3462.3587
3525.3745
3600.9898
3688.9632
3789.1398
3901.3694
4025.4848
4161.5886
4310.032
4470.3969
4640.0239
4816.1887
4993.4219
5168.3746
5252.0164
5528.8819
5690.0736
5855.3641
6025.2434
6179.539
6323.1359
6358.904
6613.2564
6750.9766
6860.8141
7197.4886
7198.3651
7617.0623
7586.1668
7788.3516
7915.327
8234.7928
8280.1649
8374.042
9066.1519
9153.7171
9428.3281
9990.7094
10120.059
10483.702
10375.048
10306.411
10171.367
10068.749
10054.133
9946.0426
9359.2739
8835.8492
8448.7139
8119.4402
7809.4171
7624.9397
7519.8052
7471.3076
7453.1873
7448.9439
7448.1915
7446.9021
4131.0931
4131.24
4131.5058
4134.1319
4144.9396
4172.9041
4230.4059
4331.9142
4491.4683
4715.146
4956.0521
5125.176
5318.5463
5468.3303
5630.7768
5697.3306
5720.9874
5708.2325
5661.0115
5582.1643
5474.7478
5341.8279
5186.3611
5018.5711
4858.9368
4710.0786
4571.1937
4441.528
4320.3838
4207.1556
4101.2519
4002.1594
3909.3967
3822.5244
3741.1395
3664.8579
3590.0621
3511.1023
3427.8741
3340.9376
3250.8267
3158.0666
3063.1725
2966.6554
2869.0689
2770.9449
2672.8803
2575.5356
2480.5082
2391.4843
2309.2003
2233.6057
2164.6571
2102.3649
2046.7724
1997.942
1955.9738
1920.9994
1893.1558
1872.6163
1859.5463
1854.2059
1856.3329
1857.7852
1857.5784
1857.5512
1857.5251
1857.5117
1857.5062
1857.4867
1857.478
1857.4725
1857.4668
1857.4648
1857.4643
1857.4628
1857.4612
1857.4611
1857.4614
1857.4613
1857.4613
1857.4615
1857.4618
1857.4616
1857.4614
1857.4612
1857.4607
1857.46
1857.4592
1857.4583
1857.4571
1857.4558
1857.4543
1857.4527
1857.4509
1857.449
1857.447
1857.4447
1857.4424
1857.4398
1857.4372
1857.4344
1857.4313
1857.4282
1857.4252
1857.4221
1857.4189
1857.4155
1857.4119
1857.408
1857.404
1857.3998
1857.3954
1857.3908
1857.386
1857.381
1857.3758
1857.3703
1857.3646
1857.3589
1857.353
1857.3467
1857.3404
1857.334
1857.3274
1857.3204
1857.3134
1857.3065
1857.2994
1857.2921
1857.2847
1857.2772
1857.2697
1857.262
1857.2543
1857.2467
1857.2389
1857.2312
1857.2234
1857.2157
1857.208
1857.2002
1857.1926
1857.185
1857.1775
1857.1699
1857.1622
1857.1548
1857.1477
1857.1406
1857.1336
1857.1268
1857.1201
1857.1136
1857.1073
1857.101
1857.0946
1857.0886
1857.0825
1857.0752
1857.0662
1857.0598
1857.0578
1857.0566
1857.0541
1857.0495
1857.0446
1857.0398
1857.0357
1857.0318
1857.028
1857.0241
1857.0208
1857.018
1857.015
1857.0122
1857.0099
1857.0076
1857.0053
1857.0033
1857.0015
1856.9999
1856.9984
1856.9971
1856.9961
1856.9952
1856.9941
1856.9934
1856.993
1856.9926
1856.9923
1856.9926
1856.9931
1856.9935
1856.9948
1856.9963
1856.9981
1856.9996
1857.0014
1857.0049
1857.0084
1857.0122
1857.0166
1857.0216
1857.0282
1857.032
1857.1524
1855.7851
1854.0294
1859.5307
1872.6396
1893.1954
1921.0411
1956.001
1997.9653
2046.7746
2102.3765
2164.6418
2233.432
2308.8421
2392.0129
2481.0264
2574.7065
2672.4594
2770.0659
2865.8864
2928.3821
3071.3844
3155.524
3245.8079
3344.916
3427.1413
3503.4271
3545.5103
3673.6577
3748.8323
3829.5762
3984.0698
3972.2721
4160.5492
4213.02
4322.1439
4417.2719
4571.2068
4516.7686
4720.2055
5003.0719
5134.0221
5218.893
5521.6916
5605.5727
5884.4757
5784.9382
5719.2506
5613.5544
5578.7975
5688.2408
5524.3771
5178.2648
4926.7081
4696.6072
4503.5312
4337.665
4235.6504
4177.6139
4149.6428
4138.7001
4135.3208
4134.2522
4133.0787
2571.1005
2570.9735
2571.3498
2573.5038
2580.8484
2598.5477
2634.1419
2696.665
2794.775
2932.8091
3082.697
3194.2891
3314.1395
3404.3454
3502.2126
3543.3552
3558.4169
3550.6101
3521.3472
3472.4039
3405.6674
3323.0695
3226.4413
3122.0997
3022.794
2930.1822
2843.776
2763.109
2687.7412
2617.2995
2551.4149
2489.77
2432.063
2378.0196
2327.3886
2279.9332
2233.4142
2184.3182
2132.563
2078.5006
2022.4689
1964.7889
1905.7708
1845.7377
1785.0398
1724.0036
1663.003
1602.4504
1543.3355
1487.9436
1436.7411
1389.7008
1346.7938
1308.0278
1273.4309
1243.0411
1216.9222
1195.1602
1177.8389
1165.0758
1156.971
1153.7386
1155.2039
1156.0839
1155.8973
1155.8732
1155.8499
1155.8401
1155.8379
1155.8232
1155.8185
1155.8168
1155.8148
1155.8169
1155.8204
1155.8224
1155.8241
1155.8273
1155.8306
1155.8334
1155.836
1155.8386
1155.8411
1155.8428
1155.8444
1155.8458
1155.8467
1155.8472
1155.8475
1155.8473
1155.8469
1155.846
1155.8449
1155.8434
1155.8417
1155.8396
1155.8373
1155.8347
1155.8318
1155.8287
1155.8253
1155.8216
1155.8174
1155.8131
1155.8088
1155.8043
1155.7995
1155.7945
1155.7892
1155.7834
1155.7773
1155.7711
1155.7645
1155.7576
1155.7504
1155.7429
1155.7351
1155.7269
1155.7183
1155.7098
1155.7008
1155.6914
1155.6819
1155.6724
1155.6625
1155.6521
1155.6415
1155.6312
1155.6205
1155.6095
1155.5985
1155.5873
1155.576
1155.5645
1155.5531
1155.5416
1155.53
1155.5184
1155.5068
1155.4952
1155.4837
1155.4721
1155.4607
1155.4494
1155.4381
1155.4267
1155.4153
1155.4043
1155.3936
1155.383
1155.3726
1155.3624
1155.3524
1155.3426
1155.333
1155.3237
1155.3142
1155.3051
1155.2961
1155.2856
1155.2729
1155.2634
1155.2597
1155.257
1155.2527
1155.2459
1155.2386
1155.2316
1155.2254
1155.2195
1155.2139
1155.2081
1155.2032
1155.1988
1155.1943
1155.1901
1155.1865
1155.183
1155.1795
1155.1764
1155.1737
1155.1711
1155.1688
1155.1667
1155.1651
1155.1637
1155.162
1155.1608
1155.16
1155.1593
1155.1588
1155.159
1155.1594
1155.1598
1155.1615
1155.1633
1155.1655
1155.1675
1155.1698
1155.1743
1155.1788
1155.1837
1155.1894
1155.1958
1155.2044
1155.2095
1155.3032
1154.5335
1153.4999
1156.9271
1165.0817
1177.8651
1195.1906
1216.9327
1243.0485
1273.4085
1308.0193
1346.7438
1389.4632
1436.2625
1488.6073
1544.0769
1601.5744
1662.6096
1722.9188
1781.2996
1828.4864
1914.2661
1961.5634
2016.4126
2083.1368
2129.1375
2174.6851
2214.4171
2290.4849
2335.4691
2391.2569
2462.0719
2475.7431
2545.018
2622.9316
2683.0069
2762.6188
2849.7229
2828.5547
2993.31
3092.5705
3231.6551
3255.0003
3402.6622
3488.6303
3633.3501
3617.4408
3552.6556
3473.3304
3464.2757
3532.6019
3391.4894
3220.6071
3068.5066
2928.9667
2801.2269
2705.3673
2641.9513
2605.6789
2587.5867
2579.6277
2576.3026
2574.8074
2573.4107
1728.6934
1728.3718
1728.8391
1730.7969
1736.3045
1748.4332
1772.0863
1813.4072
1878.1719
1969.7897
2069.7845
2147.6277
2226.6871
2290.3339
2351.5146
2379.3092
2389.6979
2384.5428
2364.967
2332.1653
2287.3956
2231.9754
2167.1329
2097.0792
2030.3836
1968.1754
1910.1359
1855.9556
1805.3324
1758.0195
1713.7678
1672.3663
1633.6101
1597.3138
1563.3083
1531.4344
1500.1957
1467.2353
1432.4864
1396.186
1358.5697
1319.846
1280.2137
1239.8949
1199.1302
1158.1349
1117.1626
1076.4929
1036.7879
999.57497
965.17298
933.56705
904.73627
878.6869
855.43846
835.01641
817.46474
802.84527
791.21349
782.65807
777.24317
775.16782
776.31209
776.9085
776.73767
776.71854
776.70017
776.69555
776.69783
776.68967
776.69048
776.69362
776.69639
776.70349
776.71189
776.71827
776.72393
776.73094
776.73797
776.74399
776.74959
776.75505
776.76003
776.76401
776.76755
776.77074
776.77314
776.77494
776.77621
776.77693
776.77708
776.77669
776.77577
776.77435
776.7725
776.77016
776.7674
776.76414
776.76047
776.75636
776.75191
776.74694
776.74133
776.73553
776.72952
776.72312
776.71629
776.70916
776.70164
776.6935
776.68489
776.67597
776.6667
776.65691
776.64671
776.63604
776.62497
776.61339
776.60136
776.58927
776.57668
776.56347
776.55009
776.53667
776.52274
776.50813
776.49335
776.47876
776.46382
776.44845
776.43302
776.4174
776.40157
776.38557
776.36954
776.3535
776.33736
776.32115
776.305
776.2889
776.27281
776.25674
776.24084
776.22508
776.2094
776.19368
776.17783
776.16261
776.14775
776.13297
776.11856
776.10441
776.09053
776.07695
776.06372
776.05072
776.03764
776.02515
776.01266
775.99851
775.98168
775.96879
775.96309
775.95846
775.95203
775.94271
775.93272
775.92322
775.9147
775.90666
775.89886
775.89106
775.88423
775.87817
775.87194
775.86618
775.86112
775.85625
775.85154
775.84724
775.84347
775.83989
775.83667
775.83381
775.8315
775.82955
775.82723
775.82557
775.82435
775.82338
775.82275
775.82287
775.82334
775.82388
775.82591
775.82813
775.83093
775.83346
775.83652
775.8421
775.84783
775.85407
775.86138
775.86942
775.88026
775.8869
775.96239
775.50315
774.85039
777.15651
782.63261
791.21311
802.85164
817.44623
834.99517
855.37827
878.645
904.6352
933.25184
964.56526
1000.2993
1037.463
1075.3305
1116.4889
1156.8258
1194.8133
1232.1076
1289.7537
1315.7593
1351.4586
1401.4961
1427.85
1455.7442
1492.9134
1543.5925
1572.5776
1606.9959
1640.6047
1663.9825
1695.7296
1763.9157
1796.8003
1857.512
1919.331
1934.6801
2032.7262
2075.5744
2185.1581
2201.7584
2271.6469
2333.1846
2403.6903
2425.5271
2390.4162
2323.6222
2327.0094
2346.4276
2248.6663
2167.3326
2061.168
1973.0426
1886.5732
1825.2427
1782.6911
1758.057
1745.2501
1738.7283
1735.121
1733.1348
1731.3549
1228.571
1228.0676
1228.5868
1230.4566
1234.8805
1243.6568
1260.0913
1288.6469
1333.4214
1397.3015
1467.4742
1524.2097
1579.8686
1626.9017
1667.1433
1687.2545
1694.7313
1691.1462
1677.3215
1654.1064
1622.3879
1583.118
1537.1693
1487.504
1440.2031
1396.0783
1354.9106
1316.4839
1280.5784
1247.0224
1215.6385
1186.2783
1158.7946
1133.0552
1108.9392
1086.3329
1064.1802
1040.8126
1016.1746
990.43397
963.76716
936.31489
908.20856
879.61044
850.69697
821.61671
792.55229
763.70499
735.54302
709.1416
684.73137
662.30466
641.84536
623.35883
606.85938
592.36541
579.90917
569.53855
561.29257
555.2438
551.43597
550.0644
551.04669
551.49329
551.33606
551.32357
551.31186
551.31367
551.32153
551.32112
551.32847
551.33721
551.34552
551.35823
551.37203
551.38321
551.39323
551.40445
551.41538
551.42491
551.43367
551.44204
551.44961
551.45584
551.46136
551.46628
551.47011
551.47307
551.47525
551.47665
551.47723
551.47705
551.47611
551.47448
551.4722
551.46924
551.46569
551.46145
551.4566
551.45117
551.44522
551.43858
551.43103
551.42325
551.41502
551.40625
551.3969
551.38712
551.3768
551.3657
551.35398
551.34184
551.3292
551.31591
551.30208
551.28764
551.27267
551.25704
551.24087
551.22455
551.20761
551.1899
551.17196
551.15394
551.13529
551.11581
551.09611
551.0766
551.05667
551.03622
551.0157
550.99494
550.97393
550.95271
550.93147
550.91022
550.88887
550.86744
550.8461
550.82484
550.80362
550.78244
550.7615
550.74073
550.72011
550.69946
550.6787
550.65871
550.63919
550.61983
550.60092
550.58238
550.56418
550.54641
550.52907
550.51207
550.49501
550.47869
550.46241
550.44427
550.42307
550.40651
550.39856
550.39187
550.38309
550.37098
550.35812
550.3459
550.3349
550.32449
550.31443
550.30443
550.29561
550.28774
550.27974
550.27232
550.26579
550.25951
550.25349
550.248
550.24314
550.2386
550.2345
550.23086
550.22792
550.22544
550.22259
550.22054
550.21903
550.21788
550.21719
550.21737
550.21803
550.2188
550.2214
550.22421
550.22777
550.23105
550.23506
550.24198
550.2492
550.257
550.26617
550.27615
550.28959
550.29812
550.36085
550.07967
549.64822
551.28745
555.17006
561.24951
569.50527
579.84681
592.30027
606.74629
623.26808
641.67477
661.89672
683.9831
709.95221
736.16213
762.32192
791.61155
820.07219
845.77106
876.72022
918.88339
931.30316
955.60492
996.39081
1010.8079
1027.3861
1063.0028
1100.0056
1119.576
1139.1204
1155.9381
1175.8951
1203.03
1254.136
1270.467
1313.4634
1365.4456
1391.9607
1444.0123
1479.1181
1552.6865
1572.4443
1613.2715
1645.3312
1683.3326
1710.7487
1702.0655
1644.5356
1651.1665
1651.6509
1588.7234
1541.3349
1465.1333
1404.2065
1346.1139
1303.5791
1273.581
1255.9548
1246.2145
1240.4138
1236.3897
1233.8622
1231.6161
910.6113
909.90693
910.42592
912.24252
915.96576
922.56016
934.27076
954.51665
986.36322
1032.415
1083.6111
1126.3043
1167.7718
1202.4664
1230.8378
1246.0435
1251.6179
1249.0319
1238.8688
1221.7584
1198.3537
1169.3745
1135.4681
1098.8027
1063.8703
1031.2782
1000.8706
972.49123
945.97252
921.19062
898.01408
876.33462
856.04157
837.03628
819.22852
802.53273
786.17328
768.9212
750.7289
731.72006
712.03388
691.76807
671.00985
649.8833
628.52484
607.04021
585.56691
564.25695
543.45545
523.94854
505.91001
489.33658
474.21569
460.55184
448.35588
437.64235
428.43578
420.77578
414.69118
410.24533
407.47002
406.56215
407.46483
407.83057
407.68627
407.68169
407.67791
407.68708
407.70124
407.70931
407.72377
407.73855
407.75279
407.77136
407.79072
407.80681
407.8213
407.83673
407.85153
407.86448
407.87631
407.88742
407.8974
407.90567
407.91294
407.91931
407.92427
407.92809
407.93085
407.93258
407.93322
407.93286
407.9315
407.92923
407.9261
407.92208
407.91726
407.91155
407.90505
407.89777
407.88981
407.88096
407.87091
407.86062
407.84961
407.83789
407.82543
407.81241
407.7987
407.78402
407.76859
407.75258
407.73595
407.71853
407.70042
407.68155
407.66203
407.64171
407.62074
407.59954
407.5776
407.55474
407.53159
407.50831
407.48429
407.4593
407.43405
407.40901
407.38346
407.35733
407.3311
407.3046
407.27783
407.25082
407.22381
407.19681
407.16969
407.14253
407.11549
407.08857
407.06173
407.03497
407.00852
406.98232
406.95633
406.93035
406.90429
406.87917
406.85463
406.83032
406.80659
406.78335
406.76055
406.73829
406.71659
406.69532
406.67403
406.65366
406.63335
406.61102
406.5853
406.56496
406.5547
406.54588
406.53461
406.51958
406.50376
406.48872
406.47516
406.46235
406.44999
406.43775
406.42694
406.41725
406.40748
406.39845
406.39045
406.38282
406.37554
406.36891
406.36306
406.35761
406.35274
406.34843
406.34496
406.34209
406.33881
406.3365
406.33484
406.33369
406.33311
406.33354
406.33455
406.33578
406.33915
406.34276
406.34732
406.3516
406.35682
406.36538
406.37437
406.38404
406.39542
406.40769
406.42406
406.43489
406.48871
406.31753
406.02405
407.23794
410.10372
414.58677
420.6849
428.31257
437.51574
448.1728
460.39468
473.95572
488.82008
505.00991
524.83341
544.03276
562.66835
584.36764
605.25163
622.96828
649.82828
682.69579
685.80924
702.83786
738.29164
744.54053
753.49378
788.36663
817.69029
831.14657
841.52744
850.39378
862.98656
891.71239
929.79241
934.68975
964.84067
1012.2905
1034.983
1063.3561
1100.7197
1146.0632
1166.2748
1198.2759
1212.4119
1235.3621
1258.9425
1261.3918
1215.136
1218.3903
1221.2912
1179.7564
1142.2941
1087.404
1042.0762
1002.4913
972.29357
950.54284
937.52179
929.78486
924.38103
919.91796
916.81931
914.07229
697.85797
696.91703
697.37489
699.13734
702.36614
707.45234
715.87184
730.35694
753.31269
787.22303
825.69596
858.55471
890.5356
916.39507
937.64534
949.42334
953.72317
951.80676
944.10171
931.09024
913.26929
891.20313
865.38986
837.46401
810.84879
786.01206
762.84037
741.21784
721.01187
702.13089
684.47426
667.9611
652.50482
638.02927
624.46488
611.74413
599.27936
586.13837
572.27892
557.79515
542.80151
527.36711
511.54812
495.44339
479.16283
462.78342
446.41243
430.16926
414.3165
399.44526
385.69087
373.05302
361.52136
351.10018
341.79768
333.62639
326.60539
320.76938
316.14066
312.77727
310.70422
310.12256
310.9913
311.31431
311.18295
311.18708
311.19201
311.20903
311.22987
311.24658
311.26823
311.28913
311.30927
311.33357
311.35825
311.37903
311.39772
311.41706
311.43536
311.45136
311.46585
311.47928
311.49122
311.50106
311.5096
311.51693
311.52252
311.52667
311.52949
311.531
311.53116
311.53006
311.52773
311.52424
311.51969
311.51402
311.50735
311.49959
311.49084
311.48112
311.47054
311.45885
311.44572
311.43225
311.41783
311.40254
311.38635
311.36946
311.35173
311.33284
311.31304
311.29256
311.27131
311.24911
311.22609
311.20218
311.17748
311.15184
311.12547
311.0988
311.07124
311.04264
311.01371
310.98461
310.95465
310.92361
310.89227
310.86117
310.82949
310.79717
310.76475
310.73205
310.69905
310.66583
310.63262
310.59945
310.56618
310.5329
310.49981
310.46689
310.43409
310.40144
310.3692
310.33727
310.30564
310.27407
310.24249
310.21202
310.18227
310.15284
310.12412
310.09601
310.06847
310.0416
310.01541
309.98976
309.96416
309.93964
309.91521
309.88862
309.85841
309.83435
309.82184
309.81093
309.79714
309.77919
309.76041
309.7426
309.72653
309.71136
309.69676
309.68237
309.66966
309.65825
309.64681
309.63627
309.62694
309.61808
309.60967
309.60205
309.59534
309.58916
309.58368
309.57887
309.57504
309.57194
309.56845
309.56607
309.56446
309.56351
309.56328
309.56418
309.56578
309.56771
309.57212
309.57679
309.58261
309.58818
309.59493
309.60542
309.61654
309.62843
309.64236
309.65731
309.677
309.69056
309.7383
309.63924
309.43649
310.36428
312.54549
315.95386
320.60077
326.40221
333.41886
341.52585
350.85704
361.15081
372.41131
384.62819
400.37562
414.83438
428.35954
444.93273
460.74215
472.96882
497.20223
524.14924
520.46269
532.60154
564.93924
565.17029
568.70197
603.38743
628.34339
637.56997
642.33871
647.04731
652.59645
681.48989
712.15617
708.50544
730.4178
775.23961
793.55883
808.30106
845.42504
872.53399
890.69625
918.69086
926.01313
940.41799
960.78641
963.212
929.6203
926.17423
938.38611
908.91556
874.83655
834.03919
799.46411
771.53468
750.52009
734.61672
724.84627
718.62039
713.52385
708.67925
705.00875
701.76133
549.82897
548.60809
548.93876
550.62729
553.47756
557.47435
563.48618
573.76485
590.27698
615.50826
645.04364
670.7655
695.8679
715.74534
732.29009
741.56297
744.97663
743.5276
737.54265
727.39984
713.48731
696.26156
676.11752
654.31619
633.53099
614.13054
596.03102
579.14529
563.36485
548.62106
534.83464
521.94402
509.87943
498.5804
487.99164
478.05788
468.32265
458.06227
447.23892
435.92591
424.22034
412.1717
399.81322
387.22681
374.50367
361.70072
348.90423
336.21128
323.82674
312.20441
301.45259
291.57302
282.5568
274.40841
267.13387
260.74492
255.25658
250.70068
247.09531
244.49564
242.92313
242.58404
243.44501
243.74718
243.62892
243.64206
243.65592
243.68079
243.70827
243.73317
243.76162
243.78826
243.81386
243.84332
243.87269
243.89753
243.91982
243.94239
243.96352
243.98187
243.99832
244.01335
244.02651
244.03721
244.0463
244.05386
244.05935
244.06312
244.06526
244.06583
244.0648
244.06225
244.05823
244.05283
244.04614
244.03813
244.02892
244.01841
244.00671
243.99386
243.97997
243.96477
243.94789
243.93057
243.91208
243.89256
243.87199
243.85059
243.82819
243.80446
243.77969
243.75411
243.72763
243.70007
243.67156
243.64203
243.61159
243.5801
243.54779
243.51513
243.48146
243.44663
243.41145
243.37606
243.33973
243.30221
243.2644
243.22685
243.18867
243.14982
243.11089
243.07167
243.03216
242.99244
242.95279
242.91321
242.87358
242.83399
242.79465
242.75557
242.71668
242.67801
242.63986
242.60211
242.56477
242.52755
242.4904
242.45455
242.41957
242.38502
242.35132
242.31837
242.28611
242.25467
242.22404
242.19407
242.16422
242.13564
242.10714
242.07639
242.04189
242.01431
241.99977
241.98692
241.9707
241.94996
241.92835
241.90791
241.88949
241.87214
241.85548
241.83911
241.8247
241.81175
241.79885
241.787
241.77653
241.76664
241.75732
241.74893
241.74157
241.73488
241.72903
241.72394
241.71999
241.71691
241.71343
241.71122
241.70991
241.70943
241.70981
241.71145
241.71389
241.71682
241.72255
241.72856
241.73593
241.74311
241.75172
241.76448
241.77806
241.79254
241.8094
241.82741
241.85081
241.86755
241.91141
241.86201
241.72155
242.44861
244.14914
246.80308
250.43223
254.95249
260.43553
266.75328
274.05816
282.05352
290.78933
300.21741
313.14888
324.26428
334.16579
347.12075
359.39979
367.6797
390.25907
413.2435
404.3689
413.07015
443.58564
439.20666
438.67601
473.50109
496.0366
502.20001
503.1738
505.12918
505.34801
532.82074
559.96225
549.78337