/*--------------------------------*- C++ -*----------------------------------*\
| =========                 |                                                 |
| \\      /  F ield         | OpenFOAM: The Open Source CFD Toolbox           |
|  \\    /   O peration     | Version:  2.4.0                                 |
|   \\  /    A nd           | Web:      www.OpenFOAM.org                      |
|    \\/     M anipulation  |                                                 |
\*---------------------------------------------------------------------------*/
FoamFile
{
    version     2.0;
    format      ascii;
    class       volVectorField;
    location    "200";
    object      U_0;
}
// * * * * * * * * * * * * * * * * * * * * * * * * * * * * * * * * * * * * * //

dimensions      [0 1 -1 0 0 0 0];

internalField   nonuniform List<vector> 
78300
(
(0.0050888163 2.2166788e-05 1.0805174e-21)
(0.0053756532 2.5128112e-05 -4.1464097e-22)
(0.0060041899 -3.8367106e-05 8.4675892e-22)
(0.0059207526 -0.00018185463 -2.710898e-20)
(0.0052700914 -0.00035631932 -6.7161427e-21)
(0.0035946183 -0.00042249864 1.4089779e-20)
(0.0015707041 -0.00028449056 7.4080099e-21)
(-0.00054403393 0.00012952049 -2.696194e-20)
(-0.0019153307 0.00063199004 -8.3970888e-21)
(-0.002226562 0.0009407962 9.3434177e-21)
(-0.0020184687 0.00102264 4.8447733e-21)
(-0.0017034304 0.00098481986 -1.2091316e-20)
(-0.0013077713 0.0008388164 1.4313472e-21)
(-0.0010185129 0.00072380288 -5.164705e-21)
(-0.0008226371 0.00061860129 1.6790108e-21)
(-0.00071777206 0.00055216873 -1.1652882e-21)
(-0.0006453652 0.00051628578 0)
(-0.00061120395 0.00049382992 1.9216147e-22)
(-0.00057983698 0.00049265646 -1.3800316e-21)
(-0.00057048743 0.00048673932 1.2852857e-21)
(-0.00056235365 0.00047378036 1.3479711e-21)
(-0.00053709572 0.00046271246 -3.3798725e-21)
(-0.00052569737 0.00044857157 -1.8617775e-23)
(-0.00052310254 0.00043299417 0)
(-0.00051674556 0.00042673282 1.2232958e-22)
(-0.00051219247 0.00043432621 0)
(-0.00052140338 0.00042178347 0)
(-0.00052848124 0.00042654538 -3.8494758e-21)
(-0.00053922459 0.00043133026 -3.1585924e-21)
(-0.00055420573 0.00043956821 -2.0712248e-21)
(-0.00057209562 0.00045068925 2.0234863e-21)
(-0.00059466747 0.00046520972 3.9249263e-21)
(-0.00062204466 0.00048461304 1.3550381e-21)
(-0.00065356215 0.00050702443 1.6555196e-21)
(-0.00068901754 0.0005326365 -1.5990833e-21)
(-0.00072593119 0.00055964381 9.3508719e-22)
(-0.00076066382 0.00058435756 -1.2550241e-21)
(-0.00079375088 0.00060483136 -3.5839349e-23)
(-0.00082624693 0.00062290152 0)
(-0.00085034019 0.00063725058 0)
(-0.00087841508 0.00064027037 -2.6520458e-23)
(-0.00090732557 0.00065446875 -8.0177893e-22)
(-0.00094155302 0.00066457042 -1.8102345e-21)
(-0.00096463714 0.00066213168 -2.7058725e-21)
(-0.00098559624 0.00065489155 5.2224047e-21)
(-0.0010002846 0.00063989573 6.6434923e-21)
(-0.0010102035 0.00061816538 -2.5874137e-21)
(-0.0010142162 0.00058929625 -7.767665e-21)
(-0.0010188298 0.00055801472 8.018512e-21)
(-0.0010231355 0.00052473108 -6.6444231e-21)
(-0.0010236603 0.0004885006 -1.5077795e-20)
(-0.0010190329 0.00044967932 2.0482827e-21)
(-0.0010121822 0.00041042091 -2.9502812e-21)
(-0.00099595308 0.00036649923 0)
(-0.00097549266 0.00032267122 -3.7664038e-21)
(-0.00094630709 0.00027648123 3.3345794e-21)
(-0.00091443715 0.00023179165 2.5295475e-21)
(-0.00087065645 0.00018618475 5.5357935e-21)
(-0.00083825115 0.00014587951 8.8422099e-23)
(-0.00079140852 0.00010570376 -4.4151944e-21)
(-0.00078824166 7.321291e-05 7.495892e-22)
(-0.00077062596 3.9705073e-05 7.5755417e-23)
(-0.00091352647 1.0718192e-05 3.4005911e-24)
(-0.0012103301 7.3013819e-08 2.3651053e-26)
(-0.0014144347 1.7579735e-07 -8.4366926e-27)
(-0.0016099292 1.8109945e-07 -9.8083697e-26)
(-0.0017752156 1.8704235e-07 1.1382596e-25)
(-0.0019277338 1.9494548e-07 -1.2217378e-25)
(-0.002066277 1.8153734e-06 0)
(-0.0021971691 2.96412e-07 -8.5464237e-26)
(-0.0023057129 2.7573043e-07 5.9931907e-26)
(-0.0024092073 2.8845018e-07 7.8848246e-26)
(-0.0025012806 2.9902379e-07 -7.6258371e-26)
(-0.0025860029 3.0853646e-07 -1.3422245e-19)
(-0.0026645302 3.1997407e-07 6.7296132e-20)
(-0.0027371799 3.2864718e-07 -1.626206e-25)
(-0.0028034545 3.3544903e-07 4.4272187e-26)
(-0.0028644715 3.3992097e-07 1.2552248e-25)
(-0.0029212005 3.4559756e-07 -2.2896463e-25)
(-0.0029735496 3.5055221e-07 1.9594865e-25)
(-0.0030218563 3.5372943e-07 -1.697122e-25)
(-0.0030664489 3.5439689e-07 5.286916e-25)
(-0.0031077531 3.5624683e-07 -2.7993919e-25)
(-0.0031458475 3.5674719e-07 -5.714456e-25)
(-0.0031807212 3.5541783e-07 6.0371198e-25)
(-0.0032128834 3.4934871e-07 -8.424831e-26)
(-0.0032423262 3.4470313e-07 6.1654623e-25)
(-0.0032692009 3.3921667e-07 -8.4172048e-25)
(-0.0032936571 3.3155418e-07 -6.1889656e-25)
(-0.0033158241 3.2060343e-07 9.5319508e-25)
(-0.0033358524 3.1210471e-07 -7.7179868e-25)
(-0.0033538043 3.0363193e-07 6.1360607e-25)
(-0.0033698313 2.9752467e-07 -3.3421502e-25)
(-0.0033840005 2.8625529e-07 -6.3473887e-26)
(-0.0033964398 2.7425579e-07 3.0227291e-26)
(-0.0034072444 2.611487e-07 4.7941921e-25)
(-0.0034164807 2.5255423e-07 -4.1130284e-26)
(-0.0034242692 2.4416062e-07 6.8515371e-25)
(-0.0034306161 2.391954e-07 -1.1994274e-26)
(-0.0034356549 2.3149401e-07 -1.3288139e-24)
(-0.0034394151 2.1942119e-07 6.2675898e-25)
(-0.0034420112 2.166396e-07 -5.9197092e-26)
(-0.0034433853 1.9056064e-07 8.6887993e-25)
(-0.0034436255 1.8710285e-07 -2.9074676e-26)
(-0.0034426714 1.8912698e-07 -1.6775102e-24)
(-0.0034406126 1.8929835e-07 -1.0737021e-25)
(-0.0034374686 1.7787351e-07 6.4339234e-26)
(-0.0034333001 1.767276e-07 8.4541325e-25)
(-0.003428229 1.7161668e-07 -8.2724328e-26)
(-0.0034221617 1.6411189e-07 -1.0428241e-24)
(-0.0034151033 1.5789779e-07 1.924548e-24)
(-0.0034070663 1.5265306e-07 -2.1854331e-24)
(-0.0033981549 1.4685492e-07 2.0512739e-24)
(-0.00338833 1.3900905e-07 -3.9390343e-25)
(-0.0033775825 1.3221609e-07 2.3673272e-25)
(-0.0033658962 1.2389111e-07 -1.003001e-24)
(-0.0033533175 1.16659e-07 5.6731843e-25)
(-0.0033397988 1.0605053e-07 1.5182573e-25)
(-0.0033252595 9.75471e-08 -1.0960114e-25)
(-0.0033098355 9.2741429e-08 -1.0668836e-25)
(-0.0032935706 8.4976331e-08 2.2571325e-17)
(-0.003276341 7.4650882e-08 2.3162119e-17)
(-0.0032580917 6.581254e-08 1.3539953e-24)
(-0.0032390256 5.877703e-08 -1.1038969e-25)
(-0.0032191401 5.0399496e-08 -1.2659541e-25)
(-0.0031982669 4.0260986e-08 -9.1561117e-26)
(-0.003176319 3.1399841e-08 -7.6165669e-27)
(-0.0031535169 2.2964804e-08 -3.0765664e-25)
(-0.0031299817 1.4267448e-08 -1.404946e-25)
(-0.003105473 4.331595e-09 4.9023454e-25)
(-0.0030801165 -4.1356612e-09 2.6639241e-26)
(-0.0030538929 -1.5053911e-08 2.6766308e-25)
(-0.0030268352 -2.522399e-08 -4.4339502e-25)
(-0.0029988903 -3.6435813e-08 6.2005912e-26)
(-0.002970112 -4.6092121e-08 1.4363681e-26)
(-0.0029405541 -5.717335e-08 2.8093363e-26)
(-0.0029102293 -6.714398e-08 2.7296521e-27)
(-0.0028791233 -7.8351176e-08 1.8018904e-25)
(-0.0028472629 -8.8025872e-08 -7.9729036e-26)
(-0.0028147116 -9.9090214e-08 -4.3099892e-25)
(-0.0027814734 -1.0882002e-07 8.2868583e-25)
(-0.0027475669 -1.1946504e-07 -1.2003074e-24)
(-0.0027129879 -1.2914139e-07 1.9877282e-26)
(-0.0026778493 -1.3948258e-07 6.4073298e-25)
(-0.0026421216 -1.4897877e-07 -1.822526e-25)
(-0.0026058545 -1.5740154e-07 4.3655646e-25)
(-0.0025688823 -1.6689592e-07 -1.8412425e-25)
(-0.0025313088 -1.7687154e-07 -1.1733635e-26)
(-0.0024933852 -1.8588685e-07 -2.0967886e-25)
(-0.0024550106 -1.9546009e-07 -2.1605092e-25)
(-0.0024162757 -2.0377111e-07 -2.0543284e-25)
(-0.0023771767 -2.1303553e-07 7.7907628e-25)
(-0.0023378312 -2.2138506e-07 5.0879897e-25)
(-0.0022981246 -2.301783e-07 8.3754127e-25)
(-0.0022583032 -2.3763982e-07 -3.2963996e-25)
(-0.0022181508 -2.4628104e-07 -9.3926371e-25)
(-0.0021779377 -2.5438288e-07 -2.28285e-24)
(-0.0021371138 -2.622351e-07 4.5068277e-17)
(-0.0020966921 -2.7070731e-07 2.1622185e-20)
(-0.0020549829 -2.8413096e-07 -4.6254798e-17)
(-0.0020129676 -2.9154255e-07 -3.5340102e-24)
(-0.0019670451 -2.2653693e-07 5.1062615e-25)
(-0.0019238215 -2.5639205e-07 -6.1872401e-24)
(-0.0018824009 -3.0336137e-07 6.4146993e-24)
(-0.0018427771 -3.0387942e-07 6.010797e-25)
(-0.0018039371 -3.1095069e-07 -5.8678671e-24)
(-0.001764617 -3.1615949e-07 3.2591874e-24)
(-0.0017248615 -3.1761657e-07 -3.5984875e-24)
(-0.0016851742 -3.2472951e-07 5.3137658e-24)
(-0.0016454843 -3.3020857e-07 -1.3592196e-24)
(-0.0016059823 -3.3565692e-07 -2.6785433e-24)
(-0.0015664701 -3.4096847e-07 8.6009266e-25)
(-0.0015269218 -3.4502599e-07 3.4882358e-24)
(-0.0014879334 -3.5031331e-07 -4.0498521e-24)
(-0.0014492005 -3.5358943e-07 3.5500291e-24)
(-0.0014106775 -3.5906004e-07 -3.8818745e-24)
(-0.0013725099 -3.6143707e-07 1.9943501e-24)
(-0.0013349152 -3.6494339e-07 2.2851656e-24)
(-0.0012975438 -3.6680974e-07 3.716313e-24)
(-0.0012606554 -3.7258305e-07 -4.2474839e-24)
(-0.0012240813 -3.7362919e-07 -2.9303005e-24)
(-0.0011882046 -3.7751546e-07 3.7815926e-24)
(-0.001152528 -3.7751009e-07 -8.0623238e-24)
(-0.0011176044 -3.8199751e-07 7.5138452e-24)
(-0.0010829699 -3.8152301e-07 -4.4644802e-24)
(-0.0010493256 -3.8294231e-07 3.8960755e-24)
(-0.0010159952 -3.8209964e-07 -4.5397798e-24)
(-0.00098318737 -3.8552932e-07 -3.1381754e-24)
(-0.00095104159 -3.8557878e-07 2.4764424e-24)
(-0.00091959367 -3.823674e-07 -3.1891774e-24)
(-0.00088870287 -3.8261445e-07 8.2029809e-24)
(-0.00085864031 -3.8597867e-07 -4.9977766e-24)
(-0.00082949662 -3.8671022e-07 4.3823387e-24)
(-0.00080140077 -3.8464831e-07 -7.5273351e-24)
(-0.00077382563 -3.8275785e-07 6.9526785e-25)
(-0.0007484829 -3.8302842e-07 2.6084628e-24)
(-0.00072339896 -3.837301e-07 2.9387076e-24)
(-0.0007011491 -3.7058361e-07 -1.1248939e-23)
(-0.00067828111 -3.6699848e-07 6.5698476e-17)
(-0.00065893434 -3.6389847e-07 6.6213177e-17)
(-0.00064022954 -3.5434684e-07 -3.3601372e-24)
(-0.00062556423 -3.3315245e-07 -5.0232118e-24)
(-0.00061098056 -3.2138412e-07 4.3971719e-24)
(-0.00060190963 -3.0263492e-07 8.0809463e-25)
(-0.00059223865 -2.6643745e-07 -1.45222e-24)
(-0.00059129932 -2.3297799e-07 -6.863392e-17)
(-0.00058413259 -1.5067071e-07 -6.9136131e-17)
(-0.0005767507 -6.6050273e-06 -1.2393086e-20)
(-0.00057908649 -2.9838605e-05 1.2866667e-19)
(-0.00057693553 -5.32568e-05 5.843651e-20)
(-0.00058001896 -7.7111743e-05 -3.7967376e-19)
(-0.00057700253 -0.00010013878 -6.3335804e-20)
(-0.00055829302 -0.0001191842 -4.254952e-19)
(-0.00055549808 -0.00013959915 2.8526882e-20)
(-0.00050450938 -0.00014569617 -4.4824019e-21)
(-0.00052055081 -0.00017017726 1.598316e-19)
(-0.00043346237 -0.00015754406 -1.0436355e-19)
(-0.00049508566 -0.00019301299 1.6206004e-19)
(-0.00034258173 -0.00014631591 -3.5571259e-21)
(-0.00031736178 -0.00014385229 0)
(0.00014105831 7.3810528e-05 -2.9333114e-21)
(-0.00086672504 -0.00045765739 0)
(1.9033953e-05 6.4655038e-06 0)
(-0.00044052375 -0.00027172273 -3.2055617e-21)
(0.0005018347 0.00033277882 -5.1592198e-21)
(0.00037911892 0.00024067082 -1.3204755e-19)
(0.0034255491 0.0023516504 6.1864265e-20)
(-0.0013713797 -0.00089149712 0)
(-0.0020651979 -0.0015092635 -7.2459193e-21)
(0.00098209252 0.00066133959 0)
(0.0023819838 0.001712301 -1.1078368e-18)
(-0.0017517916 -0.0012071384 1.5247658e-19)
(0.0045058692 0.0035032778 7.8269752e-19)
(0.0056170322 0.0042286975 4.982782e-19)
(0.002404345 0.0016998542 -1.5058996e-19)
(-0.00061029279 -0.00073329101 -6.685111e-20)
(-0.0027221409 -0.0022650441 0)
(-0.0037334079 -0.0022913854 3.0585549e-19)
(-0.0033051222 -0.0014480114 1.4266487e-18)
(0.0027237335 0.0023685547 -2.1390612e-18)
(-0.00067583916 0.0024072704 2.8189847e-20)
(0.00022017197 -0.0019044773 2.4626062e-20)
(0.005336216 0.0041808834 0)
(0.002061349 0.0044699035 3.1404149e-19)
(0.0033097536 -0.0033108163 -3.0767592e-20)
(0.011533524 0.0071488967 4.1428008e-19)
(0.0079503274 0.0028454756 5.2094386e-21)
(0.0031588685 9.9922471e-05 1.5209561e-18)
(-0.00084171109 0.0060715108 0)
(0.0024529232 0.001478818 0)
(0.0037691062 0.0010052436 -7.0201501e-20)
(0.0025721321 0.0026679704 -9.5621137e-20)
(0.0039943982 0.0024862397 0)
(0.00043512471 -0.0055406308 1.6713297e-21)
(0.024130933 -0.028422492 0)
(0.011884011 0.0084505641 0)
(0.010442673 0.0070871089 -9.8170178e-19)
(0.01183169 0.00096138347 0)
(0.0091112811 0.0049038156 2.6811517e-19)
(0.012192527 0.004058156 3.6949842e-19)
(0.015175754 0.0061268401 -1.9397783e-19)
(0.015801624 0.0059897813 -6.107131e-20)
(0.015278792 0.0038499897 1.0884235e-19)
(0.013883765 0.0024824404 -8.931197e-20)
(0.012120449 0.0014365963 0)
(0.0099915259 0.0006824475 -1.4220119e-21)
(0.0083034561 0.00025893973 -2.8836848e-20)
(0.0065756696 4.4405879e-05 -1.7023406e-20)
(0.0060557638 -2.9358148e-05 -1.0403139e-20)
(0.0049387259 -1.6005387e-05 -4.9196718e-22)
(0.015665919 6.3082683e-05 1.1195282e-21)
(0.01650207 7.0843624e-05 1.1257099e-21)
(0.018294981 -0.00012051098 -2.9323916e-21)
(0.018023991 -0.00054760355 2.9988527e-20)
(0.016096354 -0.0010688451 3.8080721e-22)
(0.011140645 -0.0012705022 4.8880257e-20)
(0.0051138247 -0.00087671 -1.8377203e-20)
(-0.0012566407 0.00034990465 3.6099835e-20)
(-0.0055042641 0.0018599385 2.4028225e-20)
(-0.0065789778 0.0028025495 -2.0946491e-20)
(-0.006025529 0.0030627659 -5.527418e-21)
(-0.0051072032 0.0029564391 1.7771642e-21)
(-0.003921295 0.0025298106 3.0901592e-20)
(-0.0030670819 0.0021725128 3.7060044e-21)
(-0.0025219376 0.0018113839 -4.5509566e-21)
(-0.002172893 0.0016685047 1.0492719e-21)
(-0.0019528443 0.0015666289 -6.2120816e-22)
(-0.001844244 0.0015088699 -5.1776839e-22)
(-0.0017652964 0.0014913373 -1.7286025e-21)
(-0.001730445 0.0014772163 7.3355308e-22)
(-0.0016938471 0.0014518339 -1.1110573e-21)
(-0.0016333458 0.0014023662 1.5614868e-21)
(-0.0015958196 0.0013598172 9.1729415e-23)
(-0.00158124 0.0013187129 1.5098505e-21)
(-0.0015571019 0.0013081711 -2.130261e-22)
(-0.0015688686 0.001298494 -3.994773e-21)
(-0.0015786314 0.0012823493 -2.000473e-21)
(-0.0016026634 0.0012933636 3.0205399e-21)
(-0.0016343717 0.0013083463 1.3052528e-21)
(-0.0016791585 0.0013335275 6.4594764e-21)
(-0.0017332542 0.001366704 -9.5827578e-21)
(-0.0018010259 0.0014106871 -5.4345532e-21)
(-0.0018837487 0.0014686618 -9.1789797e-22)
(-0.0019785075 0.0015360663 -1.6545788e-21)
(-0.0020848821 0.0016133216 -3.9595859e-23)
(-0.0021956227 0.0016946966 4.1979915e-21)
(-0.0022996116 0.0017696387 2.7954103e-21)
(-0.0023991394 0.0018319158 7.8595599e-23)
(-0.0024977176 0.0018884866 3.7510647e-22)
(-0.0025705227 0.0019315065 7.9053412e-24)
(-0.0026491998 0.0019437016 6.5858517e-24)
(-0.0027409322 0.0019819777 -4.2147584e-21)
(-0.0028431075 0.0020107617 -1.0685684e-21)
(-0.002913373 0.00200336 -1.0044806e-21)
(-0.0029772409 0.0019814463 2.513587e-21)
(-0.0030223899 0.0019360049 -1.5606035e-20)
(-0.0030532422 0.0018706531 5.2791648e-21)
(-0.0030668073 0.0017837944 -4.1307644e-21)
(-0.0030822438 0.0016893952 -4.4870559e-22)
(-0.0030963544 0.0015893522 -3.9213036e-21)
(-0.0030988511 0.0014808892 2.7446167e-21)
(-0.0030881793 0.0013636565 -1.4691095e-20)
(-0.0030692368 0.0012439033 -1.0399642e-21)
(-0.0030228925 0.0011109663 5.3362474e-22)
(-0.0029654755 0.0009788491 -9.1426277e-22)
(-0.002880308 0.00083956927 9.1752487e-21)
(-0.0027880547 0.00070410433 -8.704668e-21)
(-0.0026609044 0.00056677369 6.5476721e-21)
(-0.0025676793 0.00044450982 -1.7041402e-21)
(-0.0024343801 0.0003234462 1.3239099e-22)
(-0.0024294834 0.00022464872 2.431762e-22)
(-0.0023903107 0.00012464498 1.4738622e-21)
(-0.0028225256 3.9239949e-05 -4.7259128e-24)
(-0.0037036709 7.1518261e-06 -4.0200462e-26)
(-0.0043168201 5.9134024e-06 -5.1633649e-27)
(-0.0049006891 5.2642328e-06 -5.1495543e-26)
(-0.0053964311 4.6838605e-06 1.7273062e-25)
(-0.0058536975 4.2528685e-06 -1.0869068e-25)
(-0.0062662335 7.7734944e-06 2.6591586e-27)
(-0.0066533782 3.4621232e-06 2.9060114e-26)
(-0.0069801313 3.146055e-06 1.7990355e-26)
(-0.0072884899 2.8733045e-06 -9.46656e-26)
(-0.0075633985 2.6178495e-06 2.3313142e-26)
(-0.0078158661 2.4125757e-06 -8.3859535e-27)
(-0.0080499575 2.2393899e-06 -3.3618094e-26)
(-0.0082664593 2.0609289e-06 1.0077962e-25)
(-0.0084639177 1.8916123e-06 -1.0846776e-25)
(-0.0086455764 1.7501043e-06 9.3323792e-26)
(-0.008814453 1.6224727e-06 -5.3239054e-26)
(-0.0089702528 1.5007396e-06 2.6692389e-25)
(-0.0091139556 1.386167e-06 -5.0137694e-26)
(-0.0092465598 1.2827898e-06 -8.7521647e-26)
(-0.0093693457 1.1863149e-06 -1.2785816e-25)
(-0.0094825712 1.0920561e-06 -1.7087917e-25)
(-0.0095861705 1.0060231e-06 -2.1635705e-25)
(-0.0096816834 9.2752248e-07 -2.6407774e-25)
(-0.0097690926 8.5256467e-07 6.5161263e-25)
(-0.009848855 7.8076419e-07 1.30909e-25)
(-0.009921395 7.1352851e-07 1.0399696e-24)
(-0.0099871076 6.4705812e-07 -1.6501205e-24)
(-0.010046453 5.8595465e-07 1.1721213e-24)
(-0.010099598 5.264798e-07 -3.1699005e-25)
(-0.010147 4.6881276e-07 -1.1747251e-24)
(-0.010188857 4.1711579e-07 -4.8239154e-25)
(-0.010225553 3.6847616e-07 4.8818303e-25)
(-0.010257369 3.2614137e-07 3.0521395e-25)
(-0.010284508 2.8551349e-07 8.8505325e-25)
(-0.010307323 2.4755446e-07 7.0451439e-25)
(-0.010325837 2.0967774e-07 -2.1008998e-24)
(-0.010340458 1.6687423e-07 7.0435331e-25)
(-0.010351236 1.3099859e-07 4.4819512e-25)
(-0.010358543 8.6575029e-08 1.1861678e-24)
(-0.010362177 5.4093176e-08 -2.5539386e-24)
(-0.010362399 -1.0903672e-08 1.2337746e-24)
(-0.01035903 -2.7000179e-08 5.5302738e-25)
(-0.010352327 -4.6363942e-08 1.009542e-24)
(-0.010342352 -7.544775e-08 -2.5913957e-24)
(-0.010329288 -1.0339263e-07 5.8182344e-25)
(-0.010313503 -1.2909946e-07 1.672754e-25)
(-0.010294695 -1.5884108e-07 2.087395e-24)
(-0.010272913 -1.8530078e-07 -1.783207e-24)
(-0.010248178 -2.1127564e-07 7.1430604e-25)
(-0.010220793 -2.3691916e-07 -1.0634816e-26)
(-0.010190641 -2.6468355e-07 -2.263291e-24)
(-0.0101577 -2.9130882e-07 4.3643393e-25)
(-0.010121962 -3.2034639e-07 5.0574566e-25)
(-0.010083476 -3.4740853e-07 3.1568824e-25)
(-0.010042088 -3.7962352e-07 8.4707981e-25)
(-0.0099976837 -4.0993556e-07 7.6048962e-26)
(-0.009950685 -4.3391323e-07 -4.6864631e-25)
(-0.0099010517 -4.6146457e-07 2.6892524e-25)
(-0.0098484261 -4.9462304e-07 -3.9054757e-25)
(-0.0097927881 -5.2406583e-07 1.6634758e-25)
(-0.0097347203 -5.4894107e-07 -2.5899911e-25)
(-0.0096741365 -5.773842e-07 5.7622669e-25)
(-0.0096105355 -6.1131328e-07 -1.0718593e-24)
(-0.0095437176 -6.4232462e-07 -2.3388329e-25)
(-0.0094743306 -6.6786552e-07 4.2248381e-25)
(-0.0094027264 -6.9533505e-07 8.0264782e-25)
(-0.0093281777 -7.2518256e-07 -1.0706599e-25)
(-0.0092510899 -7.5268447e-07 -2.3427865e-25)
(-0.0091713981 -7.7920699e-07 -4.3924816e-25)
(-0.0090892004 -8.0529456e-07 4.0501529e-25)
(-0.0090043331 -8.3174357e-07 -9.8529116e-26)
(-0.0089169612 -8.5621537e-07 -7.9316191e-27)
(-0.0088272488 -8.7995104e-07 -5.0261049e-26)
(-0.0087352365 -9.0329663e-07 6.7583164e-27)
(-0.0086408893 -9.270814e-07 2.391102e-25)
(-0.0085442908 -9.4875765e-07 -4.3469924e-25)
(-0.0084456313 -9.7001839e-07 -7.1950268e-26)
(-0.0083449266 -9.9077206e-07 -2.9968812e-25)
(-0.008242231 -1.0115109e-06 8.8257909e-25)
(-0.0081375272 -1.0305074e-06 7.4760122e-25)
(-0.0080311894 -1.0490657e-06 -1.3629693e-25)
(-0.007923074 -1.0663111e-06 -1.8782271e-24)
(-0.0078133214 -1.0837973e-06 -1.1211697e-24)
(-0.0077014816 -1.1046939e-06 1.6419583e-24)
(-0.0075878652 -1.1213422e-06 2.547474e-24)
(-0.0074731862 -1.1335874e-06 -4.312643e-24)
(-0.0073571566 -1.1474346e-06 1.0646026e-24)
(-0.007240084 -1.1574375e-06 -9.82465e-26)
(-0.0071219234 -1.1686825e-06 2.1416902e-24)
(-0.0070030472 -1.1779651e-06 -1.5734529e-24)
(-0.0068831387 -1.1861724e-06 7.7526818e-25)
(-0.0067628765 -1.192926e-06 1.09185e-24)
(-0.0066416523 -1.2017912e-06 2.4030702e-24)
(-0.0065202899 -1.2124893e-06 -6.0228392e-24)
(-0.0063971124 -1.2171156e-06 2.418535e-24)
(-0.0062750102 -1.2261299e-06 -9.0575608e-26)
(-0.0061494865 -1.2633888e-06 -3.703754e-24)
(-0.0060226529 -1.3158225e-06 -1.4009152e-25)
(-0.0058832412 -1.2351444e-06 6.6769645e-24)
(-0.0057528028 -1.1911628e-06 2.0222818e-24)
(-0.0056287766 -1.2074205e-06 -4.7855306e-24)
(-0.0055096285 -1.1861275e-06 6.0093541e-24)
(-0.0053924468 -1.1913823e-06 8.1708969e-25)
(-0.0052741267 -1.1983234e-06 -5.3687863e-24)
(-0.0051543002 -1.1945782e-06 9.5386945e-24)
(-0.0050347016 -1.1941052e-06 -7.042557e-24)
(-0.0049151315 -1.1972566e-06 9.3621469e-25)
(-0.0047961466 -1.1957029e-06 1.3121685e-24)
(-0.0046771067 -1.1994344e-06 -6.738178e-24)
(-0.00455795 -1.1865068e-06 7.5194366e-24)
(-0.0044404971 -1.1741365e-06 1.481667e-24)
(-0.0043238159 -1.1590106e-06 -3.8479913e-24)
(-0.004207804 -1.1482556e-06 -3.920062e-24)
(-0.0040928852 -1.1300232e-06 -7.6038403e-24)
(-0.0039797115 -1.1154923e-06 1.382517e-23)
(-0.0038672188 -1.1004742e-06 9.6660005e-24)
(-0.0037561959 -1.0850558e-06 -2.0953148e-23)
(-0.0036461399 -1.065659e-06 2.0919233e-23)
(-0.0035382057 -1.05204e-06 -6.2303969e-24)
(-0.0034308984 -1.0342638e-06 -9.7421599e-24)
(-0.0033258837 -1.0170672e-06 -8.0647211e-24)
(-0.0032217608 -9.9717593e-07 -3.4149343e-25)
(-0.003120648 -9.8061156e-07 1.8278784e-23)
(-0.0030204958 -9.687265e-07 -1.3573861e-23)
(-0.0029219319 -9.5277334e-07 8.5475787e-24)
(-0.0028253884 -9.3912798e-07 -1.3694511e-23)
(-0.0027309067 -9.2633339e-07 1.5248664e-23)
(-0.002638158 -9.1218893e-07 -8.452637e-24)
(-0.0025478704 -8.8428593e-07 5.0438063e-24)
(-0.0024603869 -8.5583686e-07 1.699244e-24)
(-0.0023760258 -8.2990315e-07 -8.6459925e-24)
(-0.0022933167 -7.8903923e-07 8.9949412e-24)
(-0.0022173537 -7.4708062e-07 -1.2571678e-25)
(-0.0021422219 -7.1922463e-07 3.5159139e-24)
(-0.0020755534 -6.8497485e-07 -1.6458355e-23)
(-0.0020071374 -6.5474636e-07 1.1128423e-23)
(-0.00194928 -5.7676027e-07 3.574325e-24)
(-0.001893474 -4.942078e-07 -1.6795579e-23)
(-0.0018497058 -3.9121885e-07 1.6554876e-23)
(-0.0018063861 -2.8241452e-07 1.1513333e-23)
(-0.0017795707 -1.5013904e-07 -1.7044197e-23)
(-0.0017512226 -2.1259034e-09 1.3467411e-23)
(-0.0017489916 1.2358756e-07 -1.913092e-23)
(-0.0017287682 8.0929113e-08 -2.0379072e-23)
(-0.0017083166 -1.9541613e-05 2.8898783e-20)
(-0.001717073 -8.8400501e-05 1.2587156e-20)
(-0.0017099004 -0.00015825749 6.094452e-21)
(-0.0017199803 -0.00022953651 4.0549362e-19)
(-0.0017076325 -0.00029760015 2.0316423e-19)
(-0.0016540519 -0.00035364989 9.3933936e-19)
(-0.001641895 -0.00041620962 8.3378714e-19)
(-0.0014894714 -0.00043653412 -2.1853948e-19)
(-0.0015314554 -0.00050779483 -2.7341467e-19)
(-0.0012817633 -0.00047312495 5.0959884e-20)
(-0.0014613441 -0.00058016166 -7.8922836e-20)
(-0.0010184203 -0.00044127929 2.5289833e-21)
(-0.0009351361 -0.00043965523 -1.267112e-21)
(0.00041616666 0.00022242311 -2.3871879e-21)
(-0.0026201575 -0.0013837659 -2.0821853e-21)
(6.4890571e-05 1.4293476e-05 2.0224345e-21)
(-0.0013184486 -0.0008177685 4.0345356e-21)
(0.001668526 0.0010735906 4.3288338e-22)
(0.0011253695 0.00069560594 -3.9488075e-19)
(0.010245418 0.0070456221 -4.5177821e-19)
(-0.0042327937 -0.002777795 7.2245754e-20)
(-0.0061147646 -0.0045477218 -2.1232894e-19)
(0.0030610842 0.0020302851 7.495661e-21)
(0.0066947068 0.0049874238 -2.0761524e-19)
(-0.0052269539 -0.0039304606 3.1133232e-19)
(0.01379588 0.010394293 -6.7179309e-19)
(0.016694799 0.012764419 -1.6736349e-19)
(0.0068447032 0.005365323 -3.0847776e-19)
(-0.0023789317 -0.0020068855 1.7337562e-19)
(-0.0088536373 -0.0066375088 -1.3640247e-22)
(-0.010376131 -0.0060524972 -4.7430019e-19)
(-0.0076718118 -0.0057112634 -1.1989829e-18)
(0.0085853536 0.008101011 8.0415719e-20)
(0.0019431243 0.0015623787 0)
(-0.0010137142 -0.0033201448 -2.5480454e-19)
(0.016441327 0.01263326 1.0481172e-19)
(0.011622274 0.0090962963 -7.5465917e-19)
(0.024985313 -0.02528389 -1.8829456e-18)
(0.031270619 0.020817295 2.7801917e-19)
(0.017907387 0.010386844 -1.0292279e-20)
(0.0031286412 0.0020670114 -2.4270356e-18)
(0.0034746686 0.011246374 5.9457282e-19)
(0.0072227751 0.0048761635 -3.0788317e-20)
(0.0077629908 0.0071129449 0)
(0.0086228074 0.0075338199 3.4712255e-19)
(0.012201386 0.0075549772 8.8472144e-20)
(-0.010125002 -0.0032206969 0)
(0.025957095 -0.029074615 -1.0945312e-19)
(0.0282979 0.035071371 3.7755548e-20)
(0.030560937 0.023589721 2.4096771e-19)
(0.03341378 0.0071769609 5.3969291e-19)
(0.026691062 0.014553297 -6.6734494e-19)
(0.034041175 0.016800561 -8.737715e-20)
(0.043830233 0.018504243 2.2348598e-19)
(0.047336936 0.01619083 -1.8236021e-19)
(0.045486713 0.01148086 2.160755e-19)
(0.041642166 0.0074477279 -6.581196e-20)
(0.036672953 0.0043880473 -6.0392505e-21)
(0.03039765 0.0021529765 -6.0864674e-21)
(0.025431633 0.00081318213 7.6283851e-21)
(0.020308756 0.00015218989 2.5452424e-20)
(0.018603387 -8.7812435e-05 5.1195355e-21)
(0.01522808 -4.4542709e-05 1.6793587e-21)
(0.026842132 0.00010151887 1.0375295e-21)
(0.028199023 0.00011434213 -3.8253562e-22)
(0.031081501 -0.00021020015 -3.1074194e-22)
(0.030604989 -0.00092151013 -1.4940943e-20)
(0.02740005 -0.0017928209 3.8285779e-20)
(0.019192298 -0.0021459277 -3.2270037e-20)
(0.0091469609 -0.0015135936 1.8056903e-20)
(-0.0015757026 0.00050291304 -7.6010472e-20)
(-0.0088910034 0.0030390168 3.2903304e-20)
(-0.01089512 0.004645996 8.4126571e-22)
(-0.010065682 0.0051093265 7.7298855e-21)
(-0.0085599518 0.0049455773 -9.3704235e-21)
(-0.0065928305 0.0042267568 -3.0501866e-20)
(-0.0051985518 0.0035896329 6.9200404e-21)
(-0.0042017982 0.0031157549 5.2448283e-21)
(-0.0036649592 0.0028158122 -2.8912635e-22)
(-0.0032994073 0.0026460576 2.6009112e-22)
(-0.0031029532 0.0025688877 7.8067602e-22)
(-0.0029904815 0.0025207962 3.9609723e-21)
(-0.0029285774 0.0024985469 -3.0162076e-21)
(-0.0028673738 0.0024563426 -3.6751446e-21)
(-0.0027654268 0.0023739231 -8.805287e-22)
(-0.0027007626 0.0023001633 1.646464e-22)
(-0.0026705691 0.0022356894 -2.3393472e-21)
(-0.0026299217 0.0022178529 1.3355122e-22)
(-0.0026595454 0.0021879664 -4.6081386e-21)
(-0.0026682438 0.0021716777 2.5107541e-21)
(-0.0027104662 0.002188006 2.6640466e-21)
(-0.0027650842 0.0022114822 1.3898227e-22)
(-0.0028395137 0.0022549019 3.0540986e-21)
(-0.0029303749 0.0023109382 -1.0924094e-21)
(-0.0030438276 0.0023856118 -9.0842317e-22)
(-0.0031832723 0.00248279 -3.2292621e-21)
(-0.0033425243 0.0025961507 1.2130977e-22)
(-0.0035211508 0.0027260073 -5.8112639e-21)
(-0.0037071273 0.0028625801 -3.7376154e-21)
(-0.0038819833 0.0029884046 -6.199959e-22)
(-0.0040472518 0.0030960776 1.2470969e-22)
(-0.0042148549 0.0031892994 6.3112321e-23)
(-0.0043381835 0.0032621792 -1.0362997e-22)
(-0.0044682642 0.0032910939 3.7874146e-23)
(-0.0046262848 0.0033476743 6.6306525e-21)
(-0.004795658 0.0033922102 4.6854215e-21)
(-0.0049142358 0.0033800689 2.4079509e-23)
(-0.0050222819 0.0033432481 -1.9906014e-20)
(-0.0050992475 0.0032668718 7.7927162e-21)
(-0.0051523606 0.0031571835 1.0126666e-20)
(-0.0051770868 0.0030113227 8.9759126e-21)
(-0.005204945 0.0028521984 1.4423758e-21)
(-0.0052304181 0.0026842583 -3.8186576e-21)
(-0.0052366371 0.0025017498 1.422567e-20)
(-0.0052215678 0.0023060344 3.8074025e-21)
(-0.0051923217 0.0021025343 1.7863563e-21)
(-0.0051171379 0.0018801063 7.3276455e-21)
(-0.0050259326 0.0016576081 -9.5843271e-21)
(-0.004886553 0.0014231924 -1.0772527e-20)
(-0.0047372078 0.0011947658 3.113308e-21)
(-0.0045300082 0.0009635006 -3.7681878e-21)
(-0.0043794803 0.00075675746 3.4227843e-21)
(-0.0041662514 0.00055267088 6.3828574e-21)
(-0.0041647596 0.00038481149 2.6915162e-22)
(-0.0041181514 0.00021694398 -8.8910104e-23)
(-0.0048484346 7.4857444e-05 6.8532116e-24)
(-0.0063130844 2.0848862e-05 5.9852495e-26)
(-0.0073422927 1.6945316e-05 1.3367489e-26)
(-0.0083178404 1.5125913e-05 -3.276112e-26)
(-0.0091486709 1.3420577e-05 1.1471521e-25)
(-0.0099145368 1.2184536e-05 -4.645001e-26)
(-0.010601923 1.6411889e-05 -5.0911644e-27)
(-0.011244288 9.9165199e-06 9.8494121e-26)
(-0.011793085 8.9892893e-06 -5.9974848e-26)
(-0.012307302 8.1884706e-06 -4.7783675e-26)
(-0.012766356 7.4313736e-06 -2.7012399e-26)
(-0.013187391 6.842521e-06 5.2794864e-27)
(-0.013577802 6.3412375e-06 -1.5000376e-26)
(-0.013938758 5.8253347e-06 -4.5147841e-26)
(-0.01426794 5.3370033e-06 1.7368143e-26)
(-0.014570622 4.9321251e-06 -4.7008641e-26)
(-0.014851949 4.566614e-06 2.1718446e-25)
(-0.015111441 4.2153806e-06 -2.4692281e-25)
(-0.015350701 3.8880773e-06 1.2875833e-25)
(-0.01557142 3.5928982e-06 5.177658e-25)
(-0.015775724 3.3198423e-06 -3.8318933e-25)
(-0.015964081 3.0503169e-06 -1.6900996e-25)
(-0.016136367 2.8013535e-06 7.7686259e-25)
(-0.016295151 2.571049e-06 -5.9324573e-25)
(-0.016440415 2.3499536e-06 3.6238683e-25)
(-0.01657293 2.1399918e-06 -2.5761025e-25)
(-0.016693388 1.9451046e-06 -1.3600641e-25)
(-0.016802466 1.7571387e-06 4.646835e-25)
(-0.016900916 1.5821336e-06 5.4045769e-25)
(-0.016989026 1.4147476e-06 -2.0213789e-24)
(-0.017067555 1.2545762e-06 1.5372705e-24)
(-0.017136814 1.1039448e-06 -4.2857035e-25)
(-0.01719747 9.6081108e-07 -1.4161974e-24)
(-0.017249965 8.2697962e-07 6.1419347e-25)
(-0.017294662 7.0012513e-07 2.0242154e-24)
(-0.017332126 5.7530211e-07 -3.8344577e-25)
(-0.017362402 4.5693351e-07 -5.7652479e-25)
(-0.017386181 3.4384681e-07 -4.9132997e-25)
(-0.017403501 2.427924e-07 -5.4258717e-25)
(-0.017415047 1.3585968e-07 1.118814e-24)
(-0.017420403 4.3042006e-08 -5.6811243e-25)
(-0.017420044 -1.3391543e-07 -8.014645e-25)
(-0.017413645 -1.6787757e-07 1.2698095e-24)
(-0.017401619 -2.4689942e-07 -6.5420669e-25)
(-0.017384109 -3.3311769e-07 -7.0742899e-25)
(-0.017361374 -4.1263407e-07 6.9886294e-25)
(-0.017334077 -4.9115057e-07 1.1926704e-24)
(-0.017301678 -5.7690745e-07 1.4456084e-25)
(-0.01726427 -6.6061375e-07 -1.0038435e-24)
(-0.017221873 -7.3729e-07 -8.3046451e-25)
(-0.017175008 -8.1228711e-07 2.7171793e-24)
(-0.017123462 -8.9070458e-07 -4.2829177e-24)
(-0.017067212 -9.6741224e-07 3.6224878e-24)
(-0.017006278 -1.0468093e-06 -3.0783631e-24)
(-0.016940657 -1.1232431e-06 1.2147717e-24)
(-0.01687019 -1.2088163e-06 5.7102667e-25)
(-0.016794582 -1.2920998e-06 1.454368e-25)
(-0.016714569 -1.3592513e-06 -1.0516061e-24)
(-0.016630141 -1.4351755e-06 6.5167699e-25)
(-0.01654065 -1.5223336e-06 -6.1332449e-25)
(-0.016446081 -1.600785e-06 9.8122228e-25)
(-0.016347393 -1.6673411e-06 4.3215433e-25)
(-0.016244487 -1.743441e-06 -1.1056707e-24)
(-0.016136493 -1.8325437e-06 -6.5520621e-26)
(-0.016023081 -1.9144809e-06 1.3586514e-25)
(-0.015905323 -1.9807389e-06 -6.5945466e-26)