/*--------------------------------*- C++ -*----------------------------------*\
| =========                 |                                                 |
| \\      /  F ield         | OpenFOAM: The Open Source CFD Toolbox           |
|  \\    /   O peration     | Version:  2.4.0                                 |
|   \\  /    A nd           | Web:      www.OpenFOAM.org                      |
|    \\/     M anipulation  |                                                 |
\*---------------------------------------------------------------------------*/
FoamFile
{
    version     2.0;
    format      ascii;
    class       volVectorField;
    location    "200";
    object      UMean;
}
// * * * * * * * * * * * * * * * * * * * * * * * * * * * * * * * * * * * * * //

dimensions      [0 1 -1 0 0 0 0];

internalField   nonuniform List<vector> 
78300
(
(0.0055295438 2.4299309e-05 1.1999126e-21)
(0.0056743937 2.575507e-05 -3.097596e-22)
(0.006459996 -4.1121927e-05 4.8809379e-22)
(0.0061991725 -0.0001914495 -2.4952814e-20)
(0.0056173965 -0.00037842371 -5.8531541e-21)
(0.0038413962 -0.00045249213 1.6711598e-20)
(0.0018254093 -0.00033238805 9.4346825e-21)
(-0.00037900824 8.2879569e-05 -3.6888086e-20)
(-0.0018303971 0.00059675567 -1.3883729e-20)
(-0.0022205489 0.00092650211 1.7527228e-20)
(-0.0020051754 0.0009994651 1.0291878e-20)
(-0.0016539541 0.00094515992 -2.3337023e-20)
(-0.001291392 0.00081791123 2.7938707e-21)
(-0.0010603241 0.00072986286 -1.1591082e-20)
(-0.0009243497 0.00067523325 7.7035865e-21)
(-0.00084750096 0.00064814088 -1.4272683e-20)
(-0.00077479301 0.00061624722 -4.6514369e-21)
(-0.0007292289 0.00059797247 2.4822452e-21)
(-0.00069497525 0.00058240089 -8.9534187e-21)
(-0.00065834914 0.00055972883 7.0058928e-21)
(-0.00062318803 0.00053278556 9.1890631e-21)
(-0.00058815653 0.00050266301 -8.0861002e-21)
(-0.00055588104 0.0004732924 -2.9038577e-21)
(-0.00053310544 0.00044835809 1.4410118e-21)
(-0.00051700429 0.00042996727 3.3831124e-21)
(-0.0005060711 0.00041609244 8.1846677e-22)
(-0.0004993376 0.00040608508 1.0306372e-21)
(-0.00049779409 0.00040211408 -3.1687771e-21)
(-0.0005035143 0.00040283613 -2.5769236e-21)
(-0.00051365507 0.00040795431 -1.6935695e-21)
(-0.00052960722 0.00041766201 1.7051489e-21)
(-0.00055196066 0.0004326248 3.3544145e-21)
(-0.00058054248 0.0004526188 1.2812378e-21)
(-0.00061445436 0.00047685772 1.6463975e-21)
(-0.00065327407 0.00050522745 -1.7055596e-21)
(-0.00069471504 0.00053571845 1.1074569e-21)
(-0.00073506447 0.00056508004 -1.7370284e-21)
(-0.0007737695 0.0005914607 -5.4374314e-23)
(-0.000813316 0.00061577987 -2.2909929e-21)
(-0.00084750887 0.00063308642 3.3891777e-22)
(-0.00087629026 0.00064484706 -2.7859267e-24)
(-0.00091415134 0.00065972477 -2.9986719e-22)
(-0.00094554731 0.00066700926 -8.7024395e-22)
(-0.00097636061 0.00066969472 -1.552178e-21)
(-0.00099986137 0.00066389718 3.3850494e-21)
(-0.0010173168 0.00065023127 4.5584166e-21)
(-0.0010287419 0.0006290986 -1.8557686e-21)
(-0.0010344491 0.00060059295 -5.5746002e-21)
(-0.0010397069 0.00056880198 5.8496284e-21)
(-0.0010444195 0.00053530327 -4.9059391e-21)
(-0.0010450971 0.00049884046 -1.0924672e-20)
(-0.00104217 0.00046008315 1.429162e-21)
(-0.0010342893 0.00041899177 -2.0610608e-21)
(-0.0010172241 0.00037440183 -7.6010529e-21)
(-0.00099601459 0.00032912899 -2.5995614e-21)
(-0.00096379292 0.00028163444 1.8798669e-21)
(-0.00092957888 0.00023549141 1.6542269e-21)
(-0.00088272155 0.00018893983 2.2559645e-21)
(-0.00084570024 0.00014720762 5.1528562e-23)
(-0.00079409104 0.00010621769 -1.4977953e-24)
(-0.00078818785 7.3198979e-05 -4.4910466e-23)
(-0.00076792136 3.959733e-05 -1.3655093e-22)
(-0.00091436615 1.078345e-05 -2.2882626e-22)
(-0.0012132319 7.8692088e-08 4.2436243e-26)
(-0.0014199361 2.1317677e-07 -6.0964399e-26)
(-0.0016170905 1.9502154e-07 -2.1504447e-25)
(-0.0017861825 3.2309179e-07 2.5032792e-25)
(-0.0019435558 2.9208468e-07 -2.2458076e-25)
(-0.0020819907 4.1736006e-07 1.1786245e-25)
(-0.0022099632 3.2416913e-07 -1.4784424e-25)
(-0.0023231712 3.5583562e-07 8.117572e-26)
(-0.0024284174 3.1780858e-07 1.5579647e-25)
(-0.0025231702 3.304199e-07 -1.6759391e-25)
(-0.0026114847 3.2610119e-07 -6.3653371e-19)
(-0.0026924057 3.4560874e-07 -3.2403256e-19)
(-0.0027679697 3.4112121e-07 9.3692123e-26)
(-0.0028378027 3.4818426e-07 -5.5044399e-26)
(-0.0029031414 3.5687551e-07 2.0710219e-26)
(-0.0029641934 3.6959995e-07 -1.2966873e-25)
(-0.0030213364 3.6574222e-07 9.6923227e-26)
(-0.0030747994 3.7156363e-07 -1.1261931e-25)
(-0.0031248997 3.7154015e-07 3.4964798e-25)
(-0.0031719397 3.7910982e-07 -2.0126659e-25)
(-0.0032159408 3.7884449e-07 -4.3669633e-25)
(-0.0032571502 3.7675341e-07 4.5971662e-25)
(-0.0032956115 3.750721e-07 -6.4576656e-26)
(-0.0033315188 3.7787366e-07 5.1136125e-25)
(-0.0033648967 3.7256384e-07 -6.8874874e-25)
(-0.0033958545 3.7240233e-07 -5.3036573e-25)
(-0.0034244367 3.6951145e-07 8.2233693e-25)
(-0.0034507154 3.7015904e-07 -6.8462202e-25)
(-0.0034747217 3.6530697e-07 5.3902669e-25)
(-0.0034965173 3.6486228e-07 -3.0591562e-25)
(-0.0035161392 3.5702276e-07 -6.2087926e-26)
(-0.0035336289 3.5230896e-07 2.369215e-26)
(-0.0035490292 3.4438944e-07 4.4354817e-25)
(-0.0035623595 3.3737089e-07 -3.8041948e-26)
(-0.0035736903 3.2954428e-07 6.5418284e-25)
(-0.0035830321 3.2363112e-07 -4.7495225e-27)
(-0.0035904215 3.1842949e-07 -1.2863074e-24)
(-0.0035958766 3.1225754e-07 6.0979752e-25)
(-0.0035994329 3.0375734e-07 -5.833701e-26)
(-0.0036011042 2.9905534e-07 8.6223172e-25)
(-0.0036009504 2.8980231e-07 -2.2941176e-26)
(-0.0035989838 2.8547094e-07 -1.6960772e-24)
(-0.0035952132 2.7580924e-07 -1.152369e-25)
(-0.0035897029 2.6564592e-07 5.9455676e-26)
(-0.0035824817 2.5433329e-07 8.6256153e-25)
(-0.0035736184 2.4600846e-07 -8.5828219e-26)
(-0.0035631179 2.3630415e-07 -1.0864084e-24)
(-0.0035510087 2.2658944e-07 2.0117534e-24)
(-0.0035373587 2.1626581e-07 -2.2951658e-24)
(-0.0035222135 2.0642357e-07 2.1618856e-24)
(-0.0035056014 1.9697701e-07 -4.155294e-25)
(-0.0034875555 1.8655968e-07 2.5334093e-25)
(-0.0034681158 1.7342334e-07 -1.073866e-24)
(-0.0034473516 1.6352896e-07 6.0751133e-25)
(-0.0034251805 1.5043999e-07 1.6418052e-25)
(-0.0034017066 1.4023253e-07 -1.1831905e-25)
(-0.0033771236 1.2781109e-07 -1.1564119e-25)
(-0.0033514535 1.1613176e-07 2.4529361e-17)
(-0.0033245719 1.0406603e-07 2.5253483e-17)
(-0.003296556 8.8977841e-08 1.4797662e-24)
(-0.003267558 7.8262267e-08 -1.2016471e-25)
(-0.0032375956 6.2961343e-08 -1.3830036e-25)
(-0.0032066462 5.0299435e-08 -1.0049262e-25)
(-0.0031747482 3.4560065e-08 -8.3336575e-27)
(-0.0031420267 2.3139288e-08 -3.3959448e-25)
(-0.0031085038 1.0357913e-08 -1.5568109e-25)
(-0.0030741977 -3.4632861e-09 5.4203983e-25)
(-0.0030391332 -1.5147489e-08 2.9565444e-26)
(-0.0030034076 -2.8443091e-08 2.963093e-25)
(-0.002967054 -3.993942e-08 -4.9098549e-25)
(-0.0029300569 -5.2390849e-08 6.870542e-26)
(-0.0028924867 -6.2786542e-08 1.593041e-26)
(-0.0028543735 -7.3687948e-08 3.113785e-26)
(-0.002815771 -8.3993909e-08 3.0220467e-27)
(-0.0027767261 -9.5166674e-08 1.9966373e-25)
(-0.0027372706 -1.0482896e-07 -8.8367319e-26)
(-0.0026974808 -1.1525388e-07 -4.7752315e-25)
(-0.0026573774 -1.2466731e-07 9.1744762e-25)
(-0.0026169711 -1.3566454e-07 -1.3295845e-24)
(-0.0025762964 -1.4444812e-07 2.2537438e-26)
(-0.0025354226 -1.5430804e-07 7.086088e-25)
(-0.0024943354 -1.6360864e-07 -2.0114878e-25)
(-0.0024529972 -1.7501333e-07 4.815902e-25)
(-0.0024115081 -1.8022677e-07 -2.0300456e-25)
(-0.0023699399 -1.8779742e-07 -1.2975103e-26)
(-0.0023283484 -1.9486324e-07 -2.3052348e-25)
(-0.0022866698 -2.0487411e-07 -2.3703372e-25)
(-0.0022449213 -2.1038508e-07 -2.2467067e-25)
(-0.0022032687 -2.1850973e-07 8.53302e-25)
(-0.0021616517 -2.2445317e-07 5.5566373e-25)
(-0.0021200993 -2.3491492e-07 9.1370644e-25)
(-0.0020785979 -2.3902627e-07 -3.6168736e-25)
(-0.0020373228 -2.4651785e-07 -1.0250118e-24)
(-0.0019961782 -2.5245289e-07 -2.4836139e-24)
(-0.0019552484 -2.6170219e-07 4.8975388e-17)
(-0.001914354 -2.6903798e-07 2.3428533e-20)
(-0.0018733893 -2.8165233e-07 -4.9988993e-17)
(-0.0018316111 -3.0275053e-07 -3.7735482e-24)
(-0.0017875546 -3.4957337e-07 5.4655406e-25)
(-0.0017422796 -3.9066872e-07 -6.5395275e-24)
(-0.0017034242 -3.0334787e-07 6.8086428e-24)
(-0.0016651452 -2.9026105e-07 6.3724659e-25)
(-0.0016282407 -2.9659124e-07 -6.2753327e-24)
(-0.0015901061 -2.981312e-07 3.4848136e-24)
(-0.001552577 -3.1019803e-07 -3.8277314e-24)
(-0.0015145431 -3.0775297e-07 5.6621556e-24)
(-0.0014771415 -3.1068449e-07 -1.4491445e-24)
(-0.0014396755 -3.1365362e-07 -2.8421367e-24)
(-0.0014026962 -3.1631763e-07 9.129912e-25)
(-0.0013658765 -3.170408e-07 3.678722e-24)
(-0.0013295704 -3.1879634e-07 -4.2776712e-24)
(-0.0012935446 -3.1841077e-07 3.7361192e-24)
(-0.0012580837 -3.2008166e-07 -4.0862416e-24)
(-0.0012230136 -3.2047591e-07 2.0957868e-24)
(-0.0011884317 -3.2408953e-07 2.395734e-24)
(-0.0011542342 -3.2458864e-07 3.8773549e-24)
(-0.0011205827 -3.2585191e-07 -4.4476852e-24)
(-0.0010874393 -3.2547575e-07 -3.0557459e-24)
(-0.0010548382 -3.268741e-07 3.9468137e-24)
(-0.0010227132 -3.275398e-07 -8.3809768e-24)
(-0.00099120136 -3.284227e-07 7.8188252e-24)
(-0.00096026064 -3.2698643e-07 -4.6374566e-24)
(-0.00092992082 -3.3024224e-07 4.0336485e-24)
(-0.00090013785 -3.2832487e-07 -4.6923376e-24)
(-0.00087108297 -3.2879416e-07 -3.2338729e-24)
(-0.00084264196 -3.2549228e-07 2.5576531e-24)
(-0.00081491149 -3.3163151e-07 -3.254183e-24)
(-0.0007878344 -3.2891412e-07 8.4085309e-24)
(-0.00076164771 -3.2328629e-07 -5.1292191e-24)
(-0.00073617598 -3.2342089e-07 4.4826617e-24)
(-0.00071184161 -3.20907e-07 -7.6749059e-24)
(-0.00068823243 -3.209165e-07 7.1575637e-25)
(-0.00066609851 -3.1640733e-07 2.6534277e-24)
(-0.00064467339 -3.2069023e-07 2.9792587e-24)
(-0.00062503771 -3.2246963e-07 -1.1237893e-23)
(-0.00060631585 -3.1557852e-07 6.6166114e-17)
(-0.00059019041 -3.0189252e-07 6.6882519e-17)
(-0.00057472136 -3.0067925e-07 -3.3699081e-24)
(-0.00056289022 -2.8116733e-07 -5.054241e-24)
(-0.00055192772 -2.8460391e-07 4.3530231e-24)
(-0.00054595263 -2.3613217e-07 7.9760239e-25)
(-0.00054075705 -2.6116696e-07 -1.438607e-24)
(-0.00054243496 -2.2819878e-07 -6.7114284e-17)
(-0.00054272277 -2.6837927e-07 -6.7094483e-17)
(-0.00054458797 -6.3673079e-06 -1.1864355e-20)
(-0.00054792312 -2.8228969e-05 1.2365318e-19)
(-0.00054924902 -5.0594869e-05 5.587795e-20)
(-0.00055583677 -7.3644532e-05 -3.5986452e-19)
(-0.00054849459 -9.4598209e-05 -6.0507707e-20)
(-0.00054442235 -0.00011535878 -4.0059496e-19)
(-0.00052846865 -0.00013241659 2.6478437e-20)
(-0.00051452507 -0.00014836979 -4.0243804e-21)
(-0.00049154392 -0.00015978412 1.4205902e-19)
(-0.00046478591 -0.00016805228 -1.0795799e-19)
(-0.00043195769 -0.00017096009 3.4297216e-19)
(-0.00040907617 -0.00017514235 -2.229342e-19)
(-0.00038302141 -0.00017669891 -5.7854379e-20)
(-0.00034264305 -0.00017035741 -1.0044721e-19)
(-0.00029536377 -0.00015138861 5.5626576e-19)
(-0.00027112485 -0.00014709906 1.2103652e-19)
(-0.00021589958 -9.4675306e-05 -4.3312353e-19)
(-0.00021133808 -0.00012723307 -5.0480897e-19)
(-0.00017174319 -2.7582079e-05 -7.4542703e-20)
(-0.00022505278 -0.00010671552 3.7393453e-20)
(-9.9694453e-05 -5.8191529e-05 -4.5963897e-19)
(0.00012457206 0.00010435618 -3.3700679e-20)
(-5.8871178e-05 4.5075944e-05 -8.2138189e-20)
(5.2213945e-05 0.00017360314 -6.3064925e-19)
(0.00045288903 0.00025604388 9.2090146e-20)
(0.0009781666 0.00080813089 3.9903758e-19)
(0.001476333 0.00094846313 3.5408823e-19)
(0.0014288817 0.0010340623 -1.2657939e-19)
(0.00083622166 0.00075425731 -6.3215973e-20)
(0.00064979169 0.00061086499 -5.647318e-20)
(0.0015875159 0.0012778576 1.1209611e-19)
(0.0017601507 0.0012267942 4.6030802e-19)
(0.001333433 0.00095000642 -5.2918159e-19)
(0.0015452071 0.0013662894 1.2745059e-19)
(0.0012866419 0.00089229595 1.2949123e-20)
(0.0017248371 0.0015348964 1.0919077e-19)
(0.0020938071 0.0015901148 6.2766743e-20)
(0.0022844727 0.002017894 -3.1733741e-20)
(0.0022968033 0.0020787888 1.7254278e-19)
(0.002516501 0.0021807289 -1.5811349e-20)
(0.0029601441 0.0020114524 -2.4784665e-19)
(0.002586538 0.0023441744 -8.4424409e-21)
(0.0032155959 0.0021861116 -1.5478972e-19)
(0.0039159056 0.0029272601 1.1666292e-19)
(0.0035732268 0.0036369779 8.0915711e-21)
(0.0043657003 0.0035172338 -7.885013e-21)
(0.0053209509 0.0046017883 -1.7834112e-20)
(0.0065942005 0.004568628 -3.0936036e-20)
(0.006765732 0.005498374 2.398031e-20)
(0.0088071204 0.0058388152 -2.3571912e-20)
(0.01043245 0.0063268822 6.4886388e-20)
(0.012546722 0.0072821001 -1.6260692e-20)
(0.014788438 0.007600308 -1.4554145e-19)
(0.017617074 0.007296283 -1.8631264e-19)
(0.018177309 0.0060163267 -4.1738102e-20)
(0.017313891 0.0043417671 7.1520953e-20)
(0.015044149 0.0026952029 -8.810034e-20)
(0.012590284 0.0014879974 -5.9472128e-20)
(0.0099731246 0.00068680343 -1.237456e-20)
(0.0081552219 0.00025587644 -2.2479658e-20)
(0.0062524297 4.4590171e-05 -1.2533055e-20)
(0.005905049 -3.102986e-05 -6.0648712e-21)
(0.0044862175 -1.7963316e-05 -6.5144363e-22)
(0.016946194 6.5527707e-05 1.2553874e-21)
(0.01736917 7.151705e-05 8.4777281e-22)
(0.019619268 -0.00012809619 -1.7153247e-21)
(0.018872329 -0.00057528644 2.8023102e-20)
(0.017129963 -0.001134797 3.3882918e-22)
(0.011903526 -0.0013615957 5.8666629e-20)
(0.0058879504 -0.0010184443 -2.3591503e-20)
(-0.00073912251 0.00021373889 4.9135841e-20)
(-0.0052291129 0.001758186 3.9109399e-20)
(-0.0065423814 0.0027689336 -3.8055482e-20)
(-0.0059723425 0.0030111775 -1.1117849e-20)
(-0.004951437 0.0028528763 3.3324544e-21)
(-0.0038786117 0.002479795 6.0529542e-20)
(-0.003195439 0.0022058948 9.2800742e-21)
(-0.0027833469 0.0020471329 -2.2201878e-20)
(-0.002550586 0.0019659273 1.2987567e-20)
(-0.0023363009 0.001866932 -7.4795079e-21)
(-0.0021972837 0.0018127561 -3.2497686e-21)
(-0.0020948967 0.0017637574 -9.1077427e-21)
(-0.0019863573 0.0016931975 2.8666759e-21)
(-0.0018799952 0.001612893 -4.1060622e-21)
(-0.0017748774 0.0015227662 3.7867414e-21)
(-0.0016800708 0.0014325695 4.473099e-21)
(-0.0016120631 0.0013573824 1.0722603e-20)
(-0.001564456 0.001301824 -2.9593896e-21)
(-0.0015313979 0.0012611778 -4.1769861e-21)
(-0.0015115285 0.0012315799 -5.6445838e-21)
(-0.0015083352 0.0012188516 2.614192e-21)
(-0.0015255461 0.0012216676 1.1082122e-21)
(-0.0015568096 0.001237204 5.4250948e-21)
(-0.0016053105 0.0012667661 -8.2495569e-21)
(-0.0016729758 0.0013122232 -4.8798567e-21)
(-0.0017594378 0.0013725316 -8.8997705e-22)
(-0.0018616373 0.0014458676 -1.7025767e-21)
(-0.0019784218 0.0015314836 -4.6338452e-23)
(-0.0021027237 0.0016236795 5.095861e-21)
(-0.0022239748 0.0017122145 3.941337e-21)
(-0.0023404616 0.001791622 1.5386549e-22)
(-0.0024591599 0.0018653096 2.1283522e-21)
(-0.0025619952 0.0019185222 1.5393876e-22)
(-0.0026497975 0.0019533325 4.4001961e-25)
(-0.0027626244 0.0019978604 -1.5799421e-21)
(-0.0028572298 0.0020192656 -5.2746034e-22)
(-0.002949497 0.0020272026 -5.9026576e-22)
(-0.003020562 0.0020094263 1.6503445e-21)
(-0.0030736915 0.0019682662 -1.0906031e-20)
(-0.0031091719 0.0019044137 3.8501808e-21)
(-0.003127893 0.0018185969 -3.0284063e-21)
(-0.0031450804 0.0017230705 -3.3352442e-22)
(-0.0031608717 0.0016218843 -2.9838977e-21)
(-0.0031646596 0.0015119755 2.0545632e-21)
(-0.0031577062 0.0013949769 -1.066372e-20)
(-0.0031361778 0.0012705926 -7.5513756e-22)
(-0.0030875565 0.0011359382 2.298869e-21)
(-0.0030264754 0.00099895196 -6.5027586e-22)
(-0.0029331462 0.00085543094 5.347456e-21)
(-0.002833764 0.00071584351 -5.8551092e-21)
(-0.0026978997 0.00057510559 2.7644025e-21)
(-0.0025908363 0.00044867738 -1.0232636e-21)
(-0.0024431847 0.00032489741 5.9419616e-25)
(-0.0024301985 0.0002247232 -9.1488699e-24)
(-0.0023822811 0.00012432148 -2.6993023e-21)
(-0.0028262994 3.940015e-05 3.1405845e-22)
(-0.0037140427 7.1423612e-06 -3.4703639e-25)
(-0.0043344013 5.946681e-06 -6.2276962e-27)
(-0.0049238966 5.2605538e-06 -1.0911614e-25)
(-0.0054300089 5.0290846e-06 3.8043057e-25)
(-0.005900181 4.415263e-06 -2.1032179e-25)
(-0.0063140104 4.3005796e-06 6.0655113e-26)
(-0.0066960647 3.6353718e-06 5.8253464e-26)
(-0.0070343574 3.3902797e-06 3.7536244e-26)
(-0.0073484659 2.9808912e-06 -1.8412801e-25)
(-0.0076314426 2.7539506e-06 5.9586766e-26)
(-0.007894972 2.5012839e-06 2.2985759e-26)
(-0.0081364761 2.3618091e-06 -7.4673106e-27)
(-0.0083618653 2.1640149e-06 -8.6517877e-26)
(-0.0085701759 2.0263283e-06 2.3154766e-26)
(-0.0087649862 1.8895159e-06 1.9067821e-26)
(-0.0089469504 1.7998889e-06 -2.2114711e-26)
(-0.0091172015 1.6707809e-06 1.5633456e-25)
(-0.0092764324 1.5769293e-06 -1.4255657e-26)
(-0.0094255792 1.4715196e-06 -4.710697e-26)
(-0.0095655313 1.4057727e-06 -9.3457914e-26)
(-0.0096963804 1.3172637e-06 -1.3276174e-25)
(-0.0098188401 1.2310034e-06 -1.7657582e-25)
(-0.0099330673 1.1471144e-06 -2.2465873e-25)
(-0.010039617 1.0875626e-06 5.3225755e-25)
(-0.010138576 1.0073259e-06 1.1088002e-25)
(-0.010230271 9.4527834e-07 9.0167904e-25)
(-0.010314839 8.7779304e-07 -1.4489947e-24)
(-0.010392484 8.250305e-07 1.0519267e-24)
(-0.010463301 7.5915195e-07 -2.7789496e-25)
(-0.010527486 7.1497145e-07 -1.0873525e-24)
(-0.010585142 6.4671685e-07 -4.5750583e-25)
(-0.010636402 5.9508373e-07 4.4776994e-25)
(-0.010681395 5.3310108e-07 2.8131668e-25)
(-0.010720181 4.7945572e-07 8.4847555e-25)
(-0.010752974 4.2261014e-07 6.8803948e-25)
(-0.010779803 3.6788972e-07 -2.0453009e-24)
(-0.010800782 3.2116839e-07 6.8882548e-25)
(-0.010815966 2.6301778e-07 4.4501105e-25)
(-0.010825459 2.1356529e-07 1.1959289e-24)
(-0.010829306 1.5551863e-07 -2.5693074e-24)
(-0.010827678 1.0732345e-07 1.2494462e-24)
(-0.010820616 6.1828547e-08 5.7083313e-25)
(-0.010808154 4.7106482e-09 1.0497329e-24)
(-0.010790481 -4.0770444e-08 -2.6922169e-24)
(-0.010767691 -9.3877031e-08 6.0196343e-25)
(-0.010739985 -1.4195667e-07 1.7317346e-25)
(-0.010707383 -1.846323e-07 2.2112303e-24)
(-0.010669972 -2.3344628e-07 -1.8939613e-24)
(-0.01062795 -2.7607968e-07 7.6560078e-25)
(-0.010581458 -3.2383607e-07 -7.4341439e-27)
(-0.010530583 -3.5696338e-07 -2.4445974e-24)
(-0.010475424 -4.0842575e-07 4.6666435e-25)
(-0.010416099 -4.4572558e-07 5.4766177e-25)
(-0.010352812 -4.9025796e-07 3.4319736e-25)
(-0.010285332 -5.3713606e-07 9.3181538e-25)
(-0.010213978 -5.7378537e-07 8.6014128e-26)
(-0.010139307 -6.1132461e-07 -5.1577072e-25)
(-0.010061362 -6.5271674e-07 2.9865492e-25)
(-0.0099798073 -6.9386071e-07 -4.3287549e-25)
(-0.0098948838 -7.3879957e-07 1.8562885e-25)
(-0.0098070256 -7.7246429e-07 -2.8858082e-25)
(-0.0097162783 -8.1565428e-07 6.4364395e-25)
(-0.0096225944 -8.5470967e-07 -1.1999527e-24)
(-0.0095260872 -8.9713859e-07 -2.6346475e-25)
(-0.0094271194 -9.2808715e-07 4.7395011e-25)
(-0.0093257618 -9.6141052e-07 9.03223e-25)
(-0.0092220744 -9.9631944e-07 -1.2014088e-25)
(-0.009116133 -1.0216186e-06 -2.639477e-25)
(-0.0090082161 -1.0500297e-06 -4.9505605e-25)
(-0.0088984291 -1.0715801e-06 4.5682067e-25)
(-0.0087867381 -1.0929422e-06 -1.1120201e-25)
(-0.0086733404 -1.1095635e-06 -8.9609857e-27)
(-0.0085583219 -1.1256645e-06 -5.6743868e-26)
(-0.0084418476 -1.1402538e-06 7.6326749e-27)
(-0.0083240648 -1.154196e-06 2.6989516e-25)
(-0.0082050679 -1.1651791e-06 -4.904196e-25)
(-0.0080850753 -1.1763921e-06 -8.1064325e-26)
(-0.0079641553 -1.1854813e-06 -3.3767046e-25)
(-0.0078423437 -1.1979836e-06 9.9601995e-25)
(-0.0077197409 -1.2025139e-06 8.4178554e-25)
(-0.0075965476 -1.2129327e-06 -1.543803e-25)
(-0.0074727235 -1.2184172e-06 -2.1123465e-24)
(-0.0073481653 -1.2304674e-06 -1.2581078e-24)
(-0.0072231692 -1.2241696e-06 1.8440266e-24)
(-0.007097939 -1.2264837e-06 2.8540108e-24)
(-0.0069726319 -1.2281097e-06 -4.8311618e-24)
(-0.0068470807 -1.2338117e-06 1.1936595e-24)
(-0.0067213391 -1.231396e-06 -1.0813443e-25)
(-0.0065958758 -1.2319232e-06 2.3890272e-24)
(-0.0064705309 -1.2286141e-06 -1.7525146e-24)
(-0.0063453916 -1.2368157e-06 8.6336646e-25)
(-0.0062204179 -1.2247753e-06 1.2128094e-24)
(-0.0060961132 -1.2270744e-06 2.6650505e-24)
(-0.0059722007 -1.2178065e-06 -6.6793107e-24)
(-0.0058489198 -1.2269574e-06 2.6792599e-24)
(-0.0057257281 -1.2231369e-06 -9.9861994e-26)
(-0.0056022849 -1.2500606e-06 -4.075194e-24)
(-0.0054763265 -1.3198198e-06 -1.4679578e-25)
(-0.0053433959 -1.4277812e-06 7.2272588e-24)
(-0.0052076841 -1.4503957e-06 2.1817245e-24)
(-0.0050915083 -1.1845015e-06 -5.1686901e-24)
(-0.0049763919 -1.122974e-06 6.5493267e-24)
(-0.0048650998 -1.1303797e-06 8.886866e-25)
(-0.0047502602 -1.1267941e-06 -5.8435303e-24)
(-0.0046371864 -1.1490161e-06 1.0341879e-23)
(-0.0045227013 -1.1256164e-06 -7.6491796e-24)
(-0.0044100857 -1.1168577e-06 1.0165817e-24)
(-0.0042973228 -1.118231e-06 1.4185519e-24)
(-0.0041860113 -1.1067876e-06 -7.2691947e-24)
(-0.0040752063 -1.1054505e-06 8.0862607e-24)
(-0.0039659358 -1.0900032e-06 1.5905524e-24)
(-0.0038575286 -1.0773399e-06 -4.1288082e-24)
(-0.0037508138 -1.060602e-06 -4.1998753e-24)
(-0.003645288 -1.0485132e-06 -8.124889e-24)
(-0.0035412344 -1.036339e-06 1.4791036e-23)
(-0.0034383545 -1.023364e-06 1.028502e-23)
(-0.0033371125 -1.009412e-06 -2.2327162e-23)
(-0.0032374045 -9.9340458e-07 2.2220095e-23)
(-0.0031393383 -9.7885675e-07 -6.6403741e-24)
(-0.0030427193 -9.6214029e-07 -1.0321902e-23)
(-0.0029479464 -9.4771261e-07 -8.5363768e-24)
(-0.0028549013 -9.2437806e-07 -3.4147492e-25)
(-0.0027636787 -9.1043722e-07 1.9295935e-23)
(-0.0026741513 -8.8479595e-07 -1.4299824e-23)
(-0.0025868118 -8.6716376e-07 9.003977e-24)
(-0.0025013381 -8.3388262e-07 -1.437052e-23)
(-0.0024180053 -8.2502951e-07 1.5917943e-23)
(-0.0023366598 -8.0284554e-07 -8.8229798e-24)
(-0.0022579853 -7.6291048e-07 5.2826346e-24)
(-0.0021814853 -7.4669571e-07 1.7726519e-24)
(-0.0021084038 -7.0742415e-07 -8.985471e-24)
(-0.0020375509 -6.7643432e-07 9.3261589e-24)
(-0.0019711181 -6.3625661e-07 -1.3024498e-25)
(-0.0019068922 -6.0970815e-07 3.6277859e-24)
(-0.001848018 -5.8487385e-07 -1.6792337e-23)
(-0.0017919674 -5.2246028e-07 1.1442859e-23)
(-0.0017436662 -4.4371395e-07 3.6823207e-24)
(-0.0016974637 -4.052925e-07 -1.7120966e-23)
(-0.0016620858 -2.8879632e-07 1.6996054e-23)
(-0.0016295015 -2.3492092e-07 1.1624536e-23)
(-0.0016117602 -4.0107648e-08 -1.7348215e-23)
(-0.0015966436 2.5975567e-09 1.3577734e-23)
(-0.0016019571 1.7236361e-07 -1.912952e-23)
(-0.0016036264 5.2382142e-08 -2.022073e-23)
(-0.0016105226 -1.8477137e-05 2.8315676e-20)
(-0.0016213355 -8.3400309e-05 1.2330012e-20)
(-0.0016254155 -0.00015020099 5.9543934e-21)
(-0.0016443194 -0.00021905785 3.9355445e-19)
(-0.0016220105 -0.00028166819 1.9896241e-19)
(-0.00160899 -0.00034365671 9.0758419e-19)
(-0.0015605708 -0.00039475273 7.9607588e-19)
(-0.0015178015 -0.00044254461 -2.0325048e-19)
(-0.0014477248 -0.00047656274 -2.5153887e-19)
(-0.0013671358 -0.00050077014 5.4121402e-20)
(-0.0012673672 -0.00051113608 -1.7224983e-19)
(-0.0011989946 -0.00052492096 1.3291862e-19)
(-0.0011150798 -0.00052180666 -1.4265284e-19)
(-0.00099097614 -0.00051237233 -5.9833217e-20)
(-0.00085733607 -0.00044437424 -4.299679e-19)
(-0.00079286104 -0.00043413305 1.0164949e-18)
(-0.00059106097 -0.0003105836 3.5390481e-19)
(-0.00056896903 -0.00035526251 2.4812688e-20)
(-0.00043180601 -8.1429974e-05 -2.368499e-19)
(-0.00059999742 -0.00030487802 -2.9644514e-19)
(-0.00023879234 -0.00015925546 5.6118597e-19)
(0.00040554964 0.00033398257 -1.1662886e-18)
(-9.4012435e-05 0.000173314 2.2356445e-19)
(0.00024041943 0.00051134562 -1.3085953e-19)
(0.0013448062 0.00091396947 2.1018316e-19)
(0.0029634003 0.0024247937 -4.0525673e-19)
(0.0042585436 0.0029516346 -1.3693114e-19)
(0.0041969488 0.003131576 -2.8020217e-19)
(0.0025660331 0.0023053831 1.8480816e-19)
(0.0021127381 0.0018684517 -3.8511941e-19)
(0.0048020007 0.0037963858 -2.1289104e-19)
(0.0051739975 0.0037850113 -4.4628097e-19)
(0.003904936 0.0030435142 2.3376816e-20)
(0.0048168549 0.003988483 5.115007e-19)
(0.0038718513 0.0030289371 -1.9326957e-19)
(0.0053591427 0.004612527 2.2879227e-19)
(0.0061478117 0.0051855517 -1.2827091e-19)
(0.0070904371 0.0058786567 -7.0459601e-19)
(0.0069502304 0.0062259819 1.3509331e-19)
(0.0074877643 0.0067300506 7.4213868e-20)
(0.0086295705 0.0063154726 5.8322275e-19)
(0.007992397 0.0069194491 -1.3035343e-19)
(0.0091131737 0.007323804 1.2296554e-19)
(0.011263072 0.0092322402 -1.2151192e-20)
(0.01120888 0.010654585 -3.94297e-20)
(0.013447995 0.010366725 2.6483538e-20)
(0.01700709 0.012447765 4.5316617e-21)
(0.019420132 0.014137418 1.2965908e-20)
(0.020360343 0.016909463 6.1214243e-20)
(0.026470359 0.017844059 1.6953827e-20)
(0.030815105 0.019861387 -5.2763431e-20)
(0.037402786 0.021948971 6.7931365e-20)
(0.044170346 0.022436713 4.2695966e-20)
(0.052141383 0.021982447 2.4019699e-19)
(0.054095823 0.018106855 -1.3512839e-19)
(0.051744318 0.013093251 1.4989584e-19)
(0.045281001 0.0081621231 -6.7169216e-20)
(0.038151544 0.0045316568 -2.1451398e-19)
(0.030473812 0.0021219527 -5.2881899e-20)
(0.025031021 0.00081088281 6.0378317e-21)
(0.019390561 0.00015297149 1.8983118e-20)
(0.01819146 -8.3055989e-05 3.0181487e-21)
(0.014021227 -5.2312267e-05 2.2517295e-21)
(0.02895263 9.9204022e-05 1.1653265e-21)
(0.029665856 0.00011718248 -2.8839635e-22)
(0.033255708 -0.00022185154 -1.8234246e-22)
(0.032040754 -0.00096664092 -1.402177e-20)
(0.02912045 -0.0019023552 3.4234162e-20)
(0.020495872 -0.0022997973 -3.880868e-20)
(0.01045194 -0.0017512348 2.3211266e-20)
(-0.00068592089 0.00027400245 -1.0327841e-19)
(-0.0084097422 0.0028669453 5.3469932e-20)
(-0.010817467 0.0045928943 1.5529921e-21)
(-0.0099717283 0.0050338522 1.5441997e-20)
(-0.0083031004 0.0047821799 -1.8138451e-20)
(-0.0065271898 0.0041670311 -6.0739615e-20)
(-0.0053832621 0.0037150337 1.8629287e-20)
(-0.0046908438 0.0034494444 2.4108677e-20)
(-0.0042984338 0.003313504 -3.5479318e-21)
(-0.0039389977 0.0031502875 3.1369568e-21)
(-0.003707578 0.0030549325 7.0987343e-21)
(-0.0035338106 0.0029729118 2.0075897e-20)
(-0.0033501195 0.0028550537 -1.1971079e-20)
(-0.0031717491 0.0027196138 -1.1607388e-20)
(-0.002995901 0.0025684872 -2.1549399e-21)
(-0.0028370999 0.0024172081 5.1666965e-21)
(-0.0027221622 0.0022923923 -1.157723e-20)
(-0.0026424024 0.0021996884 3.2550455e-22)
(-0.0025884552 0.0021306614 -5.0093154e-21)
(-0.0025554525 0.0020816703 4.2958396e-21)
(-0.0025511439 0.0020605494 2.4890592e-21)
(-0.0025803228 0.0020658306 1.2074075e-22)
(-0.0026337631 0.0020924002 2.5770094e-21)
(-0.0027158245 0.0021428716 -9.3981307e-22)
(-0.0028302248 0.0022197803 -8.2235284e-22)
(-0.0029759351 0.0023218416 -3.128557e-21)
(-0.0031480138 0.0024456779 1.2277547e-22)
(-0.0033445013 0.0025897591 -6.4191318e-21)
(-0.0035534099 0.0027447276 -4.5531971e-21)
(-0.0037571987 0.002893549 -8.9171638e-22)
(-0.0039529703 0.003027083 2.2841844e-22)
(-0.0041525437 0.0031508326 2.9805586e-22)
(-0.0043260288 0.0032408017 -6.8140273e-22)
(-0.004474204 0.0033005584 3.838483e-24)
(-0.00466306 0.0033740306 2.5079363e-21)
(-0.0048220509 0.0034094477 2.3377782e-21)
(-0.0049767926 0.0034221019 1.3670908e-23)
(-0.0050965582 0.0033917591 -1.3112907e-20)
(-0.0051867709 0.0033221327 5.4617621e-21)
(-0.0052476093 0.0032146665 7.3965157e-21)
(-0.005280818 0.0030708684 6.6157321e-21)
(-0.0053116152 0.0029101435 1.087919e-21)
(-0.005339886 0.0027400004 -2.9163797e-21)
(-0.0053484977 0.0025550693 1.0721804e-20)
(-0.0053391744 0.0023581564 2.7929585e-21)
(-0.0053056794 0.002148744 1.3062982e-21)
(-0.0052276116 0.0019221605 1.115828e-20)
(-0.0051286651 0.0016913876 -6.8279674e-21)
(-0.0049768422 0.0014498131 -6.293427e-21)
(-0.0048148577 0.0012144856 2.0997262e-21)
(-0.0045937441 0.00097736695 -1.5922804e-21)
(-0.0044200203 0.00076368736 2.0639553e-21)
(-0.0041826959 0.00055497539 5.525646e-23)
(-0.0041677799 0.00038501419 -8.8919596e-24)
(-0.0041056378 0.00021643132 1.6372631e-22)
(-0.004856872 7.5298665e-05 -4.439889e-22)
(-0.0063332747 2.0977398e-05 3.3367446e-25)
(-0.0073739399 1.715172e-05 -5.0051828e-27)
(-0.0083596276 1.5309975e-05 -8.3958228e-26)
(-0.0092066527 1.41092e-05 2.4557726e-25)
(-0.0099922673 1.2570887e-05 -9.5107507e-26)
(-0.010684068 1.1745846e-05 -8.7168869e-26)
(-0.011322036 1.0285406e-05 1.8624759e-25)
(-0.011887394 9.4458168e-06 -8.3820392e-26)
(-0.012411792 8.4764187e-06 -8.3697986e-26)
(-0.012884468 7.7936912e-06 -6.1187262e-26)
(-0.013324353 7.1426698e-06 3.9634821e-26)
(-0.013727532 6.6622595e-06 -4.9553663e-28)
(-0.014103615 6.1445742e-06 -7.5727917e-27)
(-0.014451218 5.7232011e-06 -2.8868303e-26)
(-0.014776167 5.3469506e-06 -2.6110748e-26)
(-0.015079597 5.0355792e-06 1.0790809e-25)
(-0.015363402 4.6877793e-06 -1.3134676e-25)
(-0.015628756 4.40023e-06 7.6983808e-26)
(-0.015877207 4.1141544e-06 3.554235e-25)
(-0.016110222 3.8854636e-06 -2.7505004e-25)
(-0.016327986 3.6256142e-06 -1.2674131e-25)
(-0.016531669 3.3865913e-06 6.1678705e-25)
(-0.016721555 3.1509351e-06 -4.6430285e-25)
(-0.016898547 2.9558252e-06 3.0806618e-25)
(-0.017062812 2.7309505e-06 -2.0799407e-25)
(-0.017214883 2.535047e-06 -1.1316712e-25)
(-0.017354998 2.3381006e-06 4.1622893e-25)
(-0.017483495 2.1618394e-06 4.9765991e-25)
(-0.017600543 1.9660963e-06 -1.8223527e-24)
(-0.017706463 1.8047898e-06 1.4212539e-24)
(-0.017801435 1.6097025e-06 -3.9122972e-25)
(-0.017885683 1.4413988e-06 -1.3405831e-24)
(-0.017959418 1.2533259e-06 5.7205542e-25)
(-0.018022753 1.0872065e-06 1.9513966e-24)
(-0.018076035 9.1774431e-07 -3.5941628e-25)
(-0.018119321 7.4938307e-07 -5.5575482e-25)
(-0.018152798 5.9632301e-07 -4.8371138e-25)
(-0.018176567 4.2876877e-07 -5.4340606e-25)
(-0.018190799 2.8310462e-07 1.1257211e-24)
(-0.01819558 1.2038439e-07 -5.7097992e-25)
(-0.018191188 -2.6736871e-08 -8.1997481e-25)
(-0.018177699 -1.7090708e-07 1.308137e-24)
(-0.018155178 -3.262308e-07 -6.7630447e-25)
(-0.018123936 -4.6264786e-07 -7.4127052e-25)
(-0.018084132 -6.0730516e-07 7.2728794e-25)
(-0.018036095 -7.4345004e-07 1.2565879e-24)
(-0.017979869 -8.7311172e-07 1.5974923e-25)
(-0.017915603 -1.0059703e-06 -1.068652e-24)
(-0.017843625 -1.1305636e-06 -8.9166127e-25)
(-0.017764171 -1.2600952e-06 2.9308652e-24)
(-0.017677385 -1.3703368e-06 -4.6368237e-24)
(-0.017583442 -1.4967186e-06 3.933645e-24)
(-0.017482535 -1.6085272e-06 -3.3661329e-24)
(-0.017374996 -1.7244317e-06 1.3264781e-24)
(-0.01726047 -1.8512603e-06 6.2878082e-25)
(-0.017139487 -1.9460911e-06 1.6131889e-25)
(-0.017012952 -2.0402563e-06 -1.1650575e-24)