/*--------------------------------*- C++ -*----------------------------------*\
| =========                 |                                                 |
| \\      /  F ield         | OpenFOAM: The Open Source CFD Toolbox           |
|  \\    /   O peration     | Version:  2.4.0                                 |
|   \\  /    A nd           | Web:      www.OpenFOAM.org                      |
|    \\/     M anipulation  |                                                 |
\*---------------------------------------------------------------------------*/
FoamFile
{
    version     2.0;
    format      ascii;
    class       volScalarField;
    location    "170";
    object      k;
}
// * * * * * * * * * * * * * * * * * * * * * * * * * * * * * * * * * * * * * //

dimensions      [0 2 -2 0 0 0 0];

internalField   nonuniform List<scalar> 
78300
(
1.0511245e-06
6.1244503e-07
1.5651839e-06
1.0051894e-06
1.1975283e-06
4.2800977e-07
1.8367568e-07
1.2570352e-08
8.902077e-08
1.92283e-07
1.18837e-07
9.8603254e-08
5.3076275e-08
4.294702e-08
2.9894441e-08
2.7817328e-08
2.1970717e-08
2.1032588e-08
1.7609666e-08
1.6357308e-08
1.3860656e-08
1.2554949e-08
1.0821876e-08
1.0002538e-08
9.199652e-09
8.8641024e-09
8.5937208e-09
8.6701924e-09
8.8591362e-09
9.3830227e-09
1.008403e-08
1.1151477e-08
1.2482549e-08
1.4220948e-08
1.6276099e-08
1.8664508e-08
2.1100533e-08
2.357296e-08
2.6084164e-08
2.8550255e-08
3.0937243e-08
3.3129932e-08
3.5099857e-08
3.669688e-08
3.783102e-08
3.8364347e-08
3.8415188e-08
3.7987499e-08
3.7341287e-08
3.6734678e-08
3.6160001e-08
3.48088e-08
3.3531197e-08
3.1548567e-08
2.9638809e-08
2.6921651e-08
2.4708165e-08
2.15714e-08
1.9748515e-08
1.6890904e-08
1.6862683e-08
1.5768544e-08
2.3145594e-08
4.2039769e-08
5.8264121e-08
7.7273047e-08
9.4850235e-08
1.1399583e-07
1.3158684e-07
1.4988233e-07
1.6683785e-07
1.8403101e-07
2.0013763e-07
2.1704444e-07
2.3145189e-07
2.4655261e-07
2.6095993e-07
2.7514577e-07
2.8874623e-07
3.0206454e-07
3.1486304e-07
3.2733008e-07
3.3930675e-07
3.5090543e-07
3.6201977e-07
3.7270433e-07
3.8288457e-07
3.9411387e-07
4.0338828e-07
4.1214166e-07
4.2037782e-07
4.280795e-07
4.3523395e-07
4.4183859e-07
4.4788308e-07
4.5337395e-07
4.5830835e-07
4.6270454e-07
4.6656317e-07
4.6985591e-07
4.7064195e-07
4.7316623e-07
4.7527337e-07
4.7698169e-07
4.7842421e-07
4.7817645e-07
4.7735757e-07
4.7588783e-07
4.7388787e-07
4.7135345e-07
4.6832297e-07
4.6480354e-07
4.6081616e-07
4.5637762e-07
4.5151609e-07
4.4624897e-07
4.4059582e-07
4.3456849e-07
4.2819124e-07
4.2148735e-07
4.1448542e-07
4.0720413e-07
3.9966394e-07
3.9189149e-07
3.8391377e-07
3.7575632e-07
3.6743544e-07
3.5897521e-07
3.5039575e-07
3.4172124e-07
3.3296778e-07
3.2415636e-07
3.1530279e-07
3.064276e-07
2.9754998e-07
2.8868412e-07
2.7984065e-07
2.7102992e-07
2.6227219e-07
2.5358155e-07
2.4496994e-07
2.3644652e-07
2.2802834e-07
2.1972326e-07
2.115442e-07
2.0349739e-07
1.9559043e-07
1.8782921e-07
1.8022347e-07
1.7278473e-07
1.6551695e-07
1.5842178e-07
1.5150021e-07
1.4476223e-07
1.3821119e-07
1.3184835e-07
1.2566657e-07
1.1966945e-07
1.1385713e-07
1.0823203e-07
1.0278275e-07
9.7514325e-08
9.2432039e-08
8.7549561e-08
8.2851249e-08
7.8321452e-08
7.3962746e-08
6.9783876e-08
6.5779034e-08
6.1946243e-08
5.8267885e-08
5.4753428e-08
5.1387e-08
4.8185e-08
4.5126802e-08
4.2235791e-08
3.9483217e-08
3.6889234e-08
3.441361e-08
3.2089416e-08
2.9879392e-08
2.7819952e-08
2.5855774e-08
2.403317e-08
2.2296511e-08
2.0703186e-08
1.9176276e-08
1.7786166e-08
1.6447208e-08
1.5251189e-08
1.408944e-08
1.3074476e-08
1.2077128e-08
1.1236873e-08
1.0392839e-08
9.7139689e-09
9.006451e-09
8.4818043e-09
7.906605e-09
7.5405322e-09
7.096392e-09
6.8937205e-09
6.5839572e-09
6.5653491e-09
6.4163937e-09
6.6288992e-09
6.6575942e-09
7.1592973e-09
7.6465447e-09
7.8317831e-09
8.1437163e-09
7.99708e-09
7.9588971e-09
7.5290455e-09
7.1657231e-09
6.5113954e-09
5.8949693e-09
5.0975454e-09
4.3373224e-09
3.5096747e-09
2.7581814e-09
2.0565792e-09
1.984471e-09
3.1234304e-09
4.9338162e-09
7.7773022e-09
1.1906945e-08
1.7765245e-08
2.5604727e-08
3.5907884e-08
4.8862177e-08
6.490217e-08
8.4032035e-08
1.0642881e-07
1.312228e-07
1.572073e-07
1.850776e-07
2.1515823e-07
2.4808269e-07
2.8415044e-07
3.2438745e-07
3.6912211e-07
4.202055e-07
4.782028e-07
5.4632695e-07
6.2626393e-07
7.2463238e-07
8.5094161e-07
1.0170184e-06
1.2236123e-06
1.4817043e-06
1.8023799e-06
2.2163632e-06
2.7196985e-06
3.4001098e-06
4.2009878e-06
5.3861054e-06
6.7003402e-06
8.5193026e-06
1.0149844e-05
1.1870717e-05
1.1415795e-05
9.9024895e-06
7.1017984e-06
5.1709048e-06
2.8534741e-06
2.0260335e-06
8.3755163e-07
9.2780133e-07
2.7577625e-07
7.0718583e-07
3.2426597e-07
8.5776828e-07
3.8137933e-07
1.9264212e-07
1.8136096e-07
1.0393352e-07
3.8144509e-08
2.5212909e-08
3.2489299e-08
1.934962e-08
1.5801988e-08
8.641025e-09
7.0003955e-09
4.9693476e-09
4.6198417e-09
3.7157127e-09
3.5604962e-09
3.0359704e-09
2.8395812e-09
2.4575876e-09
2.2558291e-09
1.9927323e-09
1.8726203e-09
1.7629127e-09
1.7292873e-09
1.7114926e-09
1.7523393e-09
1.8179198e-09
1.9422881e-09
2.1038049e-09
2.3323391e-09
2.6148604e-09
2.9747044e-09
3.4006803e-09
3.895602e-09
4.4146756e-09
4.9539157e-09
5.5185961e-09
6.0987692e-09
6.6927833e-09
7.277883e-09
7.8398866e-09
8.3541991e-09
8.80571e-09
9.1609192e-09
9.4264355e-09
1.344084e-08
6.4178666e-09
6.5396612e-09
1.4973857e-08
6.8174344e-09
1.0663327e-08
1.074302e-08
1.0819495e-08
1.0732156e-08
1.0663822e-08
1.0376428e-08
1.0205751e-08
9.7879735e-09
9.7689089e-09
9.626482e-09
1.1125985e-08
1.5683818e-08
1.9835572e-08
1.6951663e-08
2.0071703e-08
2.3394123e-08
2.6618338e-08
2.9883707e-08
3.30161e-08
3.6166015e-08
3.9391531e-08
8.2187129e-08
4.4983107e-08
4.7838644e-08
5.0604704e-08
5.3336587e-08
5.5995228e-08
5.8614737e-08
6.1168202e-08
6.3677243e-08
6.612357e-08
6.8520953e-08
7.0860101e-08
7.318427e-08
7.5921355e-08
1.529672e-07
1.5766818e-07
1.6193583e-07
1.6614961e-07
1.7021796e-07
1.7418235e-07
1.7801486e-07
1.8172922e-07
1.8532106e-07
1.8880456e-07
1.9220717e-07
1.956214e-07
1.9677786e-07
9.8690983e-08
1.0021395e-07
1.0197513e-07
1.0598582e-07
1.5097307e-07
1.5200182e-07
1.5321182e-07
1.5414539e-07
1.550083e-07
1.5572261e-07
1.5632828e-07
1.568108e-07
1.5717894e-07
1.5743243e-07
1.5757608e-07
1.5761252e-07
1.5754413e-07
1.5737236e-07
1.5710086e-07
1.5673272e-07
1.5627361e-07
1.5572564e-07
1.5509316e-07
1.5437936e-07
1.5359047e-07
1.5272994e-07
1.5180188e-07
1.5080939e-07
1.4975742e-07
1.4864968e-07
1.4749e-07
1.4628291e-07
1.4503003e-07
1.437347e-07
1.4240407e-07
1.4103926e-07
1.3964074e-07
1.3820965e-07
1.3675358e-07
1.3528478e-07
1.3379889e-07
1.3228407e-07
1.3076085e-07
1.2922437e-07
1.2768001e-07
1.2612879e-07
1.2457342e-07
1.2301449e-07
1.2145532e-07
1.1989811e-07
1.1834565e-07
1.1679804e-07
1.1525613e-07
1.1372213e-07
1.1219824e-07
1.1068605e-07
1.0918425e-07
1.0769374e-07
1.0621517e-07
1.0475019e-07
1.0329638e-07
1.0185371e-07
1.004233e-07
9.9011552e-08
9.7619013e-08
9.6239249e-08
9.487106e-08
9.3518816e-08
9.2182477e-08
9.0863322e-08
8.9556852e-08
8.8263867e-08
8.6981036e-08
8.5711115e-08
8.4450488e-08
8.3204547e-08
8.1969712e-08
8.0750563e-08
7.9538459e-08
7.8336814e-08
7.7140534e-08
7.5957076e-08
7.4776319e-08
7.3603324e-08
7.2427084e-08
7.12612e-08
7.0087115e-08
6.891934e-08
6.7731685e-08
6.6549907e-08
6.5339062e-08
6.4131398e-08
6.2881543e-08
6.1634605e-08
6.0332712e-08
5.9030142e-08
5.765134e-08
5.6264364e-08
5.4777536e-08
5.3277404e-08
5.1652254e-08
5.0002904e-08
4.8196231e-08
4.634531e-08
4.4299925e-08
4.2154204e-08
3.9564224e-08
3.7107832e-08
3.6708422e-08
3.7103282e-08
3.7980516e-08
3.8985668e-08
4.0146652e-08
4.1356106e-08
4.2636296e-08
4.3952768e-08
4.5321398e-08
4.6746095e-08
4.8232025e-08
4.9790072e-08
5.142852e-08
5.3197338e-08
5.5305002e-08
5.7816289e-08
6.0565034e-08
6.3581419e-08
6.6876784e-08
7.0503191e-08
7.4478198e-08
7.88529e-08
8.3622853e-08
8.8823011e-08
9.4424865e-08
1.0039562e-07
1.0609399e-07
1.1150242e-07
1.1701237e-07
1.2278259e-07
1.2896466e-07
1.356809e-07
1.4311233e-07
1.5138859e-07
1.6080111e-07
1.7159995e-07
1.8409455e-07
1.9932315e-07
2.1693431e-07
2.4506943e-07
1.510013e-07
5.3440337e-07
2.1070968e-07
6.7258753e-07
3.0924207e-07
9.077142e-07
4.6837417e-07
5.7637241e-07
1.0390275e-06
1.343747e-06
1.6976305e-06
2.0137337e-06
2.3162136e-06
2.2544813e-06
2.0031622e-06
1.5198064e-06
1.1748192e-06
1.2464043e-06
3.1581056e-07
6.2357669e-07
5.7737342e-07
2.2805165e-07
3.4784111e-06
1.7386311e-06
3.9170685e-06
1.7501307e-06
3.0833113e-07
8.845526e-07
5.7034082e-07
2.6629162e-07
9.3054975e-08
3.2317252e-08
1.4520925e-08
1.0235732e-08
6.412093e-09
5.2972665e-09
4.3739496e-09
4.0564227e-09
3.6766516e-09
3.5503955e-09
3.3591997e-09
3.2608821e-09
3.1261839e-09
3.0443667e-09
2.9671398e-09
2.9631618e-09
3.014453e-09
3.1236753e-09
3.2775806e-09
3.4898737e-09
3.7615633e-09
4.1050013e-09
4.5293422e-09
5.051386e-09
5.6845974e-09
6.4463432e-09
7.3502955e-09
8.3988514e-09
9.5689096e-09
1.0844611e-08
1.2260516e-08
1.3832528e-08
1.5584255e-08
1.7473573e-08
1.9429155e-08
2.1431549e-08
2.3468114e-08
2.5450001e-08
2.731105e-08
4.8162606e-08
1.2408412e-08
1.4150204e-08
6.0373243e-08
1.8001996e-08
4.3409495e-08
4.598023e-08
4.8513486e-08
5.0683393e-08
5.2472487e-08
5.361359e-08
5.4251094e-08
5.4149418e-08
5.4040753e-08
5.412828e-08
5.7466408e-08
7.127782e-08
8.4904878e-08
5.3379928e-08
6.0160124e-08
6.6814565e-08
7.4186731e-08
8.1168719e-08
8.8447318e-08
9.5622958e-08
1.0438251e-07
3.1518875e-07
1.1645371e-07
1.233854e-07
1.3036957e-07
1.3731087e-07
1.4427001e-07
1.5120823e-07
1.5815449e-07
1.6508796e-07
1.7202565e-07
1.7896175e-07
1.8593034e-07
1.932111e-07
2.0404948e-07
5.9661858e-07
6.1799949e-07
6.3703335e-07
6.5626511e-07
6.751064e-07
6.93849e-07
7.1231243e-07
7.306031e-07
7.4868962e-07
7.6667661e-07
7.8473881e-07
8.0353581e-07
8.09171e-07
2.9185078e-07
3.0077364e-07
3.1182137e-07
3.3872042e-07
6.0995742e-07
6.1775899e-07
6.2745241e-07
6.3579621e-07
6.4417083e-07
6.5201064e-07
6.595683e-07
6.667302e-07
6.7353895e-07
6.7997505e-07
6.8604486e-07
6.9174938e-07
6.9708597e-07
7.0205301e-07
7.0665204e-07
7.1088165e-07
7.147538e-07
7.1826466e-07
7.2142483e-07
7.2423026e-07
7.2669845e-07
7.2882848e-07
7.3063339e-07
7.3211107e-07
7.3327695e-07
7.3413313e-07
7.346911e-07
7.3496215e-07
7.3494202e-07
7.346337e-07
7.3406984e-07
7.3324391e-07
7.3214839e-07
7.3078089e-07
7.2917603e-07
7.2740879e-07
7.2543505e-07
7.231587e-07
7.2071221e-07
7.1805204e-07
7.1520422e-07
7.1216965e-07
7.0896026e-07
7.0557448e-07
7.020264e-07
6.9832019e-07
6.9447227e-07
6.9048157e-07
6.8635333e-07
6.8209335e-07
6.7771433e-07
6.732266e-07
6.6862777e-07
6.6392093e-07
6.5911062e-07
6.5420634e-07
6.4920219e-07
6.4409281e-07
6.3888088e-07
6.3359913e-07
6.2826767e-07
6.2285565e-07
6.1735162e-07
6.1177853e-07
6.0614203e-07
6.0045356e-07
5.9469839e-07
5.8887261e-07
5.8296825e-07
5.7698852e-07
5.709283e-07
5.6480282e-07
5.5861563e-07
5.5237941e-07
5.4607248e-07
5.3968572e-07
5.3322026e-07
5.2669313e-07
5.2008736e-07
5.1339222e-07
5.0658461e-07
4.9970474e-07
4.9269631e-07
4.8559281e-07
4.7829115e-07
4.7088491e-07
4.6323071e-07
4.5544829e-07
4.4733917e-07
4.3908922e-07
4.3044132e-07
4.2161804e-07
4.1226689e-07
4.0266728e-07
3.9238972e-07
3.8179909e-07
3.7037489e-07
3.585246e-07
3.4563452e-07
3.3212046e-07
3.1731907e-07
3.0141159e-07
2.8246017e-07
2.6402349e-07
2.6062949e-07
2.6332948e-07
2.6942902e-07
2.7693921e-07
2.8547857e-07
2.9477763e-07
3.0452587e-07
3.1484029e-07
3.254979e-07
3.3675314e-07
3.4841794e-07
3.606805e-07
3.7345357e-07
3.8713032e-07
4.0263006e-07
4.1982435e-07
4.3805949e-07
4.571809e-07
4.7700791e-07
4.9746858e-07
5.1842871e-07
5.3976313e-07
5.6124542e-07
5.8268546e-07
6.0387093e-07
6.243638e-07
6.4039153e-07
6.5309392e-07
6.6460292e-07
6.7573416e-07
6.86937e-07
6.9880305e-07
7.1159636e-07
7.2592098e-07
7.4199762e-07
7.6106078e-07
7.8207163e-07
8.1083602e-07
8.379846e-07
9.1786471e-07
1.6528958e-07
2.1658544e-06
1.7439182e-07
2.4522815e-06
2.1666998e-07
3.0111079e-06
2.9647256e-07
3.3265779e-07
1.8058669e-06
2.6163338e-06
3.2499473e-06
3.8105797e-06
4.1845909e-06
4.2206409e-06
4.0003656e-06
3.4599942e-06
3.0062188e-06
5.091406e-06
4.467546e-07
3.1614829e-06
2.7666566e-06
1.3827741e-06
1.0908879e-05
6.4326543e-06
1.2217416e-05
6.4167385e-06
1.1240372e-06
3.2594669e-06
2.1149613e-06
9.9926422e-07
3.3756175e-07
9.1209469e-08
3.5941604e-08
2.3049395e-08
1.5726874e-08
1.3135427e-08
1.1683072e-08
1.0824898e-08
1.0298078e-08
9.9737873e-09
9.7802092e-09
9.6057866e-09
9.4825348e-09
9.3768255e-09
9.3514654e-09
9.4597197e-09
9.769278e-09
1.0223214e-08
1.08325e-08
1.1605622e-08
1.2581423e-08
1.3772214e-08
1.5235435e-08
1.700483e-08
1.9145577e-08
2.1700347e-08
2.4733311e-08
2.8251167e-08
3.2211949e-08
3.6558419e-08
4.1417262e-08
4.6860112e-08
5.2980336e-08
5.9640781e-08
6.6581717e-08
7.3753184e-08
8.1124011e-08
8.8398587e-08
9.5349367e-08
1.5088551e-07
4.6336701e-08
5.4223326e-08
1.9242194e-07
6.9827564e-08
1.5813921e-07
1.6797041e-07
1.7776622e-07
1.8631583e-07
1.9336285e-07
1.9811159e-07
2.0077662e-07
2.0081556e-07
2.0041357e-07
2.0090453e-07
2.1234703e-07
2.6139924e-07
3.1022843e-07
2.089342e-07
2.3508759e-07
2.6025309e-07
2.8840879e-07
3.1486001e-07
3.4267298e-07
3.7003755e-07
4.0391998e-07
1.0141762e-06
4.4987403e-07
4.7634533e-07
5.0325324e-07
5.3001304e-07
5.5691894e-07
5.8377392e-07
6.107263e-07
6.3766705e-07
6.6468544e-07
6.9174349e-07
7.1899417e-07
7.4759773e-07
7.9075645e-07
1.9209613e-06
1.990605e-06
2.0526339e-06
2.1154386e-06
2.1770562e-06
2.238473e-06
2.2990906e-06
2.3592772e-06
2.4189377e-06
2.4784407e-06
2.5383957e-06
2.6011236e-06
2.6243005e-06
1.1397017e-06
1.1753947e-06
1.2196204e-06
1.3249687e-06
2.219097e-06
2.2483372e-06
2.2848283e-06
2.3163493e-06
2.3480636e-06
2.3778491e-06
2.4066482e-06
2.4340337e-06
2.4601624e-06
2.4849586e-06
2.5084422e-06
2.5306142e-06
2.551462e-06
2.5709778e-06
2.5891638e-06
2.6060114e-06
2.6215611e-06
2.635796e-06
2.6487528e-06
2.6604126e-06
2.6708368e-06
2.6800185e-06
2.6880041e-06
2.6947823e-06
2.700408e-06
2.7048854e-06
2.7082554e-06
2.7105577e-06
2.7117731e-06
2.7119106e-06
2.7110896e-06
2.7092836e-06
2.7064626e-06
2.7026165e-06
2.697872e-06
2.6925084e-06
2.6863586e-06
2.6790605e-06
2.6711085e-06
2.6623384e-06
2.6528458e-06
2.6426331e-06
2.6317442e-06
2.6201721e-06
2.6079683e-06
2.595147e-06
2.5817689e-06
2.56783e-06
2.5533495e-06
2.5383481e-06
2.5228726e-06
2.5069619e-06
2.4906078e-06
2.4738215e-06
2.4566201e-06
2.4390387e-06
2.4210569e-06
2.4026539e-06
2.383839e-06
2.364733e-06
2.3454134e-06
2.3257671e-06
2.3057506e-06
2.2854486e-06
2.2648835e-06
2.2440981e-06
2.2230399e-06
2.2016929e-06
2.1800294e-06
2.1580592e-06
2.1357659e-06
2.1132035e-06
2.0903893e-06
2.0673679e-06
2.0440639e-06
2.0204384e-06
1.9965009e-06
1.97231e-06
1.9478101e-06
1.9229544e-06
1.8976639e-06
1.8720815e-06
1.846007e-06
1.819556e-06
1.7923539e-06
1.7647386e-06
1.7361879e-06
1.7071349e-06
1.6768534e-06
1.6460208e-06
1.6136955e-06
1.5806883e-06
1.5457045e-06
1.5097623e-06
1.4712835e-06
1.4316e-06
1.3888001e-06
1.3443667e-06
1.2960475e-06
1.2453452e-06
1.1898316e-06
1.1301181e-06
1.0590704e-06
9.8999545e-07
9.7731257e-07
9.8743246e-07
1.0103012e-06
1.0385374e-06
1.0706257e-06
1.1056258e-06
1.1423037e-06
1.1811527e-06
1.2212862e-06
1.2636921e-06
1.3076318e-06
1.3538271e-06
1.4019334e-06
1.4534368e-06
1.5116846e-06
1.5760869e-06
1.6442821e-06
1.7156486e-06
1.7894649e-06
1.8653994e-06
1.9429119e-06
2.0214571e-06
2.1001581e-06
2.1782426e-06
2.2549035e-06
2.3284292e-06
2.3848437e-06
2.4286825e-06
2.4678121e-06
2.5052215e-06
2.5425049e-06
2.5818266e-06
2.6240288e-06
2.6713323e-06
2.7243013e-06
2.7874709e-06
2.8565436e-06
2.9529296e-06
3.0406761e-06
3.3333062e-06
5.4417312e-07
6.6145515e-06
5.3653495e-07
7.4119801e-06
6.2561584e-07
9.0130343e-06
8.4316067e-07
8.5041161e-07
5.8603922e-06
8.6757179e-06
1.0742864e-05
1.2566332e-05
1.3687122e-05
1.3888164e-05
1.3301381e-05
1.172638e-05
1.0345387e-05
1.5742906e-05
1.6083801e-06
9.9445391e-06
8.6560632e-06
5.1474428e-06
2.4583278e-05
1.7148569e-05
2.7500967e-05
1.7088221e-05
3.3639219e-06
8.7011399e-06
5.6497687e-06
2.6755108e-06
9.0214992e-07
2.3517774e-07
9.061383e-08
5.7047296e-08
3.9494904e-08
3.3029728e-08
2.9721989e-08
2.7533448e-08
2.6380355e-08
2.5560333e-08
2.5190764e-08
2.4782252e-08
2.4560819e-08
2.43361e-08
2.4340775e-08
2.4659837e-08
2.5511016e-08
2.6725826e-08
2.834955e-08
3.039269e-08
3.2967988e-08
3.6098574e-08
3.9943132e-08
4.4583109e-08
5.0195471e-08
5.6887257e-08
6.4832734e-08
7.4050043e-08
8.4441848e-08
9.5855244e-08
1.0862428e-07
1.2294277e-07
1.390622e-07
1.5662737e-07
1.7495039e-07
1.9390314e-07
2.1341086e-07
2.3272351e-07
2.5118284e-07
3.5088421e-07
1.3713014e-07
1.6164571e-07
4.5206248e-07
2.068e-07
4.2128296e-07
4.4762392e-07
4.7390632e-07
4.9688929e-07
5.1583641e-07
5.2867661e-07
5.3588975e-07
5.3612087e-07
5.35055e-07
5.3643111e-07
5.6670975e-07
6.9698338e-07
8.2699606e-07
6.1182627e-07
6.9015376e-07
7.6461109e-07
8.4743003e-07
9.2516859e-07
1.0068695e-06
1.087254e-06
1.1860465e-06
2.4251014e-06
1.3218053e-06
1.3994312e-06
1.4784718e-06
1.5570805e-06
1.6361298e-06
1.7150338e-06
1.7942332e-06
1.873403e-06
1.952808e-06
2.0323337e-06
2.1124314e-06
2.1965676e-06
2.3218159e-06
4.5888644e-06
4.7549065e-06
4.9034848e-06
5.0540096e-06
5.2017618e-06
5.3491327e-06
5.4946917e-06
5.6393466e-06
5.7828885e-06
5.9262411e-06
6.0709241e-06
6.2227529e-06
6.2924109e-06
3.3465066e-06
3.4500846e-06
3.5774265e-06
3.870851e-06
5.9102258e-06
5.9877215e-06
6.0852384e-06
6.1695049e-06
6.2543094e-06
6.3339828e-06
6.4110416e-06
6.4843436e-06
6.554307e-06
6.6207294e-06
6.6836621e-06
6.7431078e-06
6.7990315e-06
6.8514121e-06
6.9002545e-06
6.9455347e-06
6.98736e-06
7.0256844e-06
7.0606048e-06
7.09207e-06
7.1202429e-06
7.145104e-06
7.1667762e-06
7.1852288e-06
7.2006072e-06
7.2129223e-06
7.222282e-06
7.2287912e-06
7.2324009e-06
7.2331294e-06
7.2312981e-06
7.2268351e-06
7.2196597e-06
7.2097444e-06
7.1974265e-06
7.1834519e-06
7.1673745e-06
7.1482253e-06
7.1273252e-06
7.1042345e-06
7.0792087e-06
7.0522537e-06
7.0234864e-06
6.9928879e-06
6.9605957e-06
6.9266467e-06
6.8912032e-06
6.8542543e-06
6.8158516e-06
6.7760497e-06
6.7349735e-06
6.6927267e-06
6.6492879e-06
6.6046869e-06
6.5589692e-06
6.5122286e-06
6.4644109e-06
6.4154608e-06
6.3654027e-06
6.3145585e-06
6.2631359e-06
6.2108333e-06
6.157535e-06
6.1034665e-06
6.0486878e-06
5.9933133e-06
5.9372037e-06
5.8803158e-06
5.8225764e-06
5.7640109e-06
5.7045764e-06
5.6444159e-06
5.5835768e-06
5.5221779e-06
5.4600188e-06
5.3969948e-06
5.3331324e-06
5.2685872e-06
5.2032118e-06
5.1368806e-06
5.069384e-06
5.0011021e-06
4.931502e-06
4.860891e-06
4.7882712e-06
4.7145421e-06
4.6383124e-06
4.5607353e-06
4.4798751e-06
4.3975369e-06
4.3112104e-06
4.2230566e-06
4.1296231e-06
4.0336227e-06
3.9308475e-06
3.8248466e-06
3.7105225e-06
3.591827e-06
3.4627534e-06
3.3273044e-06
3.1790067e-06
3.0194833e-06
2.8298503e-06
2.6457694e-06
2.6121929e-06
2.6392603e-06
2.7004153e-06
2.7759516e-06
2.861791e-06
2.9554351e-06
3.0535678e-06
3.1575223e-06
3.2649156e-06
3.3783979e-06
3.4959796e-06
3.6196005e-06
3.7483404e-06
3.8861922e-06
4.0420239e-06
4.2141774e-06
4.3964003e-06
4.5870372e-06
4.784141e-06
4.9868265e-06
5.1936238e-06
5.4030468e-06
5.6127423e-06
5.8206367e-06
6.0245789e-06
6.2198429e-06
6.3692596e-06
6.48525e-06
6.5887073e-06
6.6875201e-06
6.7859265e-06
6.8896966e-06
7.001035e-06
7.1258366e-06
7.2655661e-06
7.4322942e-06
7.6145574e-06
7.8691828e-06
8.100249e-06
8.8888116e-06
1.5829171e-06
1.4626908e-05
1.57262e-06
1.6343658e-05
1.8322193e-06
1.9833221e-05
2.5219106e-06
2.4180681e-06
1.5311236e-05
2.2725736e-05
2.8114679e-05
3.2860203e-05
3.5742532e-05
3.6293943e-05
3.480967e-05
3.0767013e-05
2.7219777e-05
3.5397288e-05
4.8485999e-06
2.2452153e-05
1.9487184e-05
1.373418e-05
4.6072795e-05
3.7435647e-05
5.1511963e-05
3.7304082e-05
8.4717941e-06
1.9051252e-05
1.2370727e-05
5.8670944e-06
1.9807141e-06
5.1200085e-07
1.9601408e-07
1.2274658e-07
8.5176385e-08
7.1211901e-08
6.4211962e-08
5.9477634e-08
5.7059556e-08
5.5289478e-08
5.4541565e-08
5.367544e-08
5.3235871e-08
5.2769389e-08
5.2805939e-08
5.3508008e-08
5.5366273e-08
5.8009289e-08
6.1540826e-08
6.5978605e-08
7.1571717e-08
7.8366451e-08
8.6710255e-08
9.6777089e-08
1.0895353e-07
1.2347016e-07
1.4070907e-07
1.6070932e-07
1.8327077e-07
2.0805761e-07
2.3579097e-07
2.668956e-07
3.0192506e-07
3.4011628e-07
3.7997121e-07
4.212082e-07
4.6367404e-07
5.0579268e-07
5.4576392e-07
6.8448513e-07
3.3576393e-07
3.9602127e-07
8.9021628e-07
5.0291695e-07
9.205247e-07
9.7860987e-07
1.0361885e-06
1.0865602e-06
1.128096e-06
1.1562864e-06
1.1721354e-06
1.1727224e-06
1.1704188e-06
1.1735216e-06
1.2396699e-06
1.524264e-06
1.8088806e-06
1.4620612e-06
1.653988e-06
1.8343781e-06
2.0336261e-06
2.2206018e-06
2.4168615e-06
2.6099527e-06
2.8437291e-06
4.8693228e-06
3.1729009e-06
3.3594694e-06
3.5491941e-06
3.7378769e-06
3.9275999e-06
4.1169662e-06
4.307025e-06
4.497001e-06
4.6875229e-06
4.8783166e-06
5.0704558e-06
5.2722849e-06
5.56415e-06
9.2008281e-06
9.531878e-06
9.8301043e-06
1.0132326e-05
1.0429066e-05
1.0725161e-05
1.1017747e-05
1.130868e-05
1.1597572e-05
1.1886331e-05
1.2178086e-05
1.2484843e-05
1.2655449e-05
8.019776e-06
8.2650718e-06
8.562784e-06
9.2209619e-06
1.2917628e-05
1.3084914e-05
1.3298111e-05
1.3482365e-05
1.3667801e-05
1.3842031e-05
1.4010554e-05
1.4170872e-05
1.4323901e-05
1.4469197e-05
1.4606872e-05
1.4736932e-05
1.48593e-05
1.4973928e-05
1.5080829e-05
1.5179948e-05
1.5271521e-05
1.5355445e-05
1.5431933e-05
1.5500872e-05
1.5562618e-05
1.5617127e-05
1.5664668e-05
1.5705173e-05
1.573896e-05
1.5766052e-05
1.5786683e-05
1.5801082e-05
1.5809152e-05
1.5810916e-05
1.5807083e-05
1.5797499e-05
1.5781984e-05
1.5760478e-05
1.5733717e-05
1.5703332e-05
1.5668351e-05
1.5626651e-05
1.5581121e-05
1.5530799e-05
1.5476244e-05
1.5417468e-05
1.5354727e-05
1.5287979e-05
1.5217525e-05
1.5143446e-05
1.5066095e-05
1.4985449e-05
1.4901621e-05
1.481473e-05
1.4725048e-05
1.4632804e-05
1.4537948e-05
1.4440548e-05
1.4340702e-05
1.4238616e-05
1.4134171e-05
1.4027246e-05
1.3917896e-05
1.3806822e-05
1.3694478e-05
1.3580207e-05
1.3463756e-05
1.3345617e-05
1.3225921e-05
1.3104918e-05
1.2982305e-05
1.2857986e-05
1.2731803e-05
1.260381e-05
1.2473915e-05
1.2342429e-05
1.2209455e-05
1.2075254e-05
1.1939388e-05
1.1801629e-05
1.1662033e-05
1.1520941e-05
1.1378031e-05
1.123303e-05
1.1085478e-05
1.0936206e-05
1.078405e-05
1.0629682e-05
1.047092e-05
1.030973e-05
1.0143073e-05
9.9734668e-06
9.7966821e-06
9.6166636e-06
9.4279242e-06
9.235188e-06
9.0309083e-06
8.8210155e-06
8.5963099e-06
8.3645509e-06
8.1145931e-06
7.8550775e-06
7.5728708e-06
7.2767255e-06
6.9524889e-06
6.6037215e-06
6.1894808e-06
5.7880297e-06
5.7152965e-06
5.7745456e-06
5.9084014e-06
6.0737696e-06
6.2616984e-06
6.4667243e-06
6.6815871e-06
6.9091979e-06
7.1443473e-06
7.3928385e-06
7.650305e-06
7.9209997e-06
8.2029219e-06
8.5048484e-06
8.846033e-06
9.2227359e-06
9.6213615e-06
1.0038331e-05
1.0469375e-05
1.0912556e-05
1.1364639e-05
1.1822355e-05
1.2280567e-05
1.2734714e-05
1.3180085e-05
1.3606031e-05
1.3931633e-05
1.4184645e-05
1.4410515e-05
1.4626301e-05
1.4841208e-05
1.5067883e-05
1.531112e-05
1.5583768e-05
1.5889084e-05
1.6253347e-05
1.6651786e-05
1.7207905e-05
1.7712739e-05
1.9423745e-05
3.9493124e-06
2.6882798e-05
3.973045e-06
2.9977954e-05
4.6443094e-06
3.6349662e-05
6.5011158e-06
6.0685407e-06
3.3304215e-05
4.9348037e-05
6.0996005e-05
7.123759e-05
7.7435988e-05
7.8648685e-05
7.5475064e-05
6.6775266e-05
5.9192542e-05
6.6296714e-05
1.2285755e-05
4.2177115e-05
3.6493486e-05
3.0000569e-05
7.7544481e-05
7.1664293e-05
8.6667952e-05
7.1451036e-05
1.8870074e-05
3.6637437e-05
2.378205e-05
1.1296353e-05
3.8201402e-06
9.8462885e-07
3.7552225e-07
2.3443811e-07
1.626974e-07
1.3594356e-07
1.2262623e-07
1.1357489e-07
1.0898684e-07
1.0560624e-07
1.0420323e-07
1.025608e-07
1.0174242e-07
1.0086256e-07
1.0094208e-07
1.0227998e-07
1.0582626e-07
1.1087194e-07
1.1761606e-07
1.2608922e-07
1.3676952e-07
1.4974294e-07
1.6567439e-07
1.8489469e-07
2.0814365e-07
2.3586295e-07
2.6878229e-07
3.0697879e-07
3.5008249e-07
3.9745447e-07
4.5045254e-07
5.0989564e-07
5.7685509e-07
6.4988795e-07
7.2612505e-07
8.0501776e-07
8.8628886e-07
9.6701596e-07
1.0427421e-06
1.2018499e-06
7.1774035e-07
8.4342686e-07
1.5764782e-06
1.0637348e-06
1.7651116e-06
1.8780465e-06
1.9886897e-06
2.0855048e-06
2.1653565e-06
2.2196047e-06
2.2501315e-06
2.2513774e-06
2.2470386e-06
2.2532194e-06
2.3802694e-06
2.9263867e-06
3.4737081e-06
3.0300874e-06
3.4370379e-06
3.8156754e-06
4.2311935e-06
4.6210389e-06
5.0297265e-06
5.4316729e-06
5.9086056e-06
8.7834946e-06
6.6025388e-06
6.9917221e-06
7.3864578e-06
7.7790057e-06
8.1736684e-06
8.5675644e-06
8.9628548e-06
9.3579408e-06
9.7541126e-06
1.0150804e-05
1.055022e-05
1.09695e-05
1.1551399e-05
1.6570472e-05
1.7162334e-05
1.769962e-05
1.8244174e-05
1.8778951e-05
1.9312697e-05
1.9840266e-05
2.0365043e-05
2.0886361e-05
2.1407724e-05
2.1934838e-05
2.2489573e-05
2.2851872e-05
1.6658119e-05
1.7162629e-05
1.7765348e-05
1.903686e-05
2.4781602e-05
2.5097265e-05
2.5506114e-05
2.5859528e-05
2.6215201e-05
2.6549402e-05
2.6872663e-05
2.7180203e-05
2.7473772e-05
2.7752521e-05
2.8016664e-05
2.8266211e-05
2.8501014e-05
2.8720985e-05
2.8926143e-05
2.9116387e-05
2.9292164e-05
2.9453282e-05
2.9600143e-05
2.9732535e-05
2.9851136e-05
2.9955864e-05
3.0047232e-05
3.0125111e-05
3.0190108e-05
3.0242268e-05
3.0282041e-05
3.0309851e-05
3.032555e-05
3.0329138e-05
3.0321991e-05
3.0303815e-05
3.0274265e-05
3.0233221e-05
3.0182096e-05
3.0124017e-05
3.0057127e-05
2.9977346e-05
2.9890213e-05
2.9793887e-05
2.9689437e-05
2.9576888e-05
2.9456729e-05
2.9328882e-05
2.919392e-05
2.9052001e-05
2.8903799e-05
2.8749274e-05
2.8588638e-05
2.8422123e-05
2.825025e-05
2.8073453e-05
2.7891643e-05
2.7704945e-05
2.7513551e-05
2.7317852e-05
2.7117624e-05
2.6912635e-05
2.6702988e-05
2.6490029e-05
2.6274625e-05
2.6055519e-05
2.5832228e-05
2.5605692e-05
2.5376165e-05
2.5144124e-05
2.4908988e-05
2.4670578e-05
2.4428586e-05
2.4183119e-05
2.3933997e-05
2.368182e-05
2.3426784e-05
2.3169389e-05
2.2908794e-05
2.2644567e-05
2.237681e-05
2.2106181e-05
2.1832058e-05
2.1553922e-05
2.1270888e-05
2.0984553e-05
2.0692678e-05
2.0396559e-05
2.009201e-05
1.9782801e-05
1.94631e-05
1.9137742e-05
1.8798613e-05
1.8453277e-05
1.809121e-05
1.7721476e-05
1.7329597e-05
1.6926951e-05
1.649589e-05
1.6051298e-05
1.5571793e-05
1.5073956e-05
1.4532588e-05
1.3964487e-05
1.3342495e-05
1.2673476e-05
1.1879538e-05
1.111138e-05
1.0973094e-05
1.108685e-05
1.1343892e-05
1.166152e-05
1.2022506e-05
1.2416351e-05
1.2829107e-05
1.3266365e-05
1.3718122e-05
1.4195515e-05
1.4690156e-05
1.5210214e-05
1.5751877e-05
1.6332075e-05
1.698749e-05
1.7710732e-05
1.8475867e-05
1.92761e-05
2.0103255e-05
2.0953566e-05
2.1820816e-05
2.269875e-05
2.3577463e-05
2.4448208e-05
2.5301925e-05
2.6117589e-05
2.6740626e-05
2.7225422e-05
2.7658701e-05
2.8072748e-05
2.8485239e-05
2.8920423e-05
2.9387472e-05
2.9911002e-05
3.0497392e-05
3.1196807e-05
3.1962385e-05
3.3029595e-05
3.3999273e-05
3.720092e-05
8.8534499e-06
4.4362728e-05
9.0008046e-06
4.9378496e-05
1.0541709e-05
5.9859996e-05
1.4900802e-05
1.3759232e-05
6.3908918e-05
9.4280347e-05
0.00011639654
0.00013581223
0.00014753495
0.00014987836
0.00014391523
0.00012745174
0.00011323623
0.00011155549
2.7433683e-05
7.1205222e-05
6.1389331e-05
5.7489532e-05
0.0001221903
0.00012509796
0.0001365238
0.00012472684
3.8339086e-05
6.4361171e-05
4.1742385e-05
1.9861571e-05
6.7290733e-06
1.7322431e-06
6.5837505e-07
4.0994801e-07
2.8437121e-07
2.3745454e-07
2.1419031e-07
1.9836377e-07
1.9035773e-07
1.8445131e-07
1.8201624e-07
1.7915993e-07
1.7774593e-07
1.762182e-07
1.7635769e-07
1.7867847e-07
1.8485209e-07
1.9364705e-07
2.054083e-07
2.2018598e-07
2.3881625e-07
2.6144673e-07
2.8923833e-07
3.2276739e-07
3.6332911e-07
4.1169092e-07
4.6912656e-07
5.3578295e-07
6.1101387e-07
6.9374145e-07
7.8627332e-07
8.9005845e-07
1.0069908e-06
1.1345786e-06
1.2678016e-06
1.40568e-06
1.5477559e-06
1.6890653e-06
1.8198771e-06
1.9726697e-06
1.3843474e-06
1.6164141e-06
2.606305e-06
2.0257856e-06
3.0887463e-06
3.2891874e-06
3.483182e-06
3.6529671e-06
3.7930388e-06
3.8882956e-06
3.9419578e-06
3.944384e-06
3.9369983e-06
3.9483705e-06
4.1712775e-06
5.1280823e-06
6.0889451e-06
5.6526918e-06
6.4265297e-06
7.1404183e-06
7.9194975e-06
8.6502852e-06
9.4155293e-06
1.0167531e-05
1.1039533e-05
1.4751326e-05
1.2357548e-05
1.3087577e-05
1.3826035e-05
1.4560348e-05
1.5298518e-05
1.60352e-05
1.6774398e-05
1.7513148e-05
1.8253831e-05
1.8995397e-05
1.9741899e-05
2.0524382e-05
2.15585e-05
2.7783824e-05
2.8768129e-05
2.966882e-05
3.05817e-05
3.1478283e-05
3.2373257e-05
3.3258014e-05
3.4138262e-05
3.501292e-05
3.588791e-05
3.6772811e-05
3.7704e-05
3.8395574e-05
3.1118841e-05
3.2053151e-05
3.315057e-05
3.5354382e-05
4.3376181e-05
4.3917882e-05
4.4632978e-05
4.525133e-05
4.5873594e-05
4.6458349e-05
4.702398e-05
4.7562138e-05
4.8075877e-05
4.8563717e-05
4.9026029e-05
4.9462831e-05
4.9873863e-05
5.0258971e-05
5.0618187e-05
5.0951338e-05
5.1259196e-05
5.154143e-05
5.1798742e-05
5.203076e-05
5.2238665e-05
5.2422316e-05
5.2582606e-05
5.271931e-05
5.2833487e-05
5.2925216e-05
5.2995277e-05
5.3044392e-05
5.307239e-05
5.3079152e-05
5.3067132e-05
5.3035826e-05
5.2984624e-05
5.2913306e-05
5.2824337e-05
5.2723198e-05
5.2606656e-05
5.2467544e-05
5.2315558e-05
5.2147484e-05
5.1965184e-05
5.1768704e-05
5.1558896e-05
5.1335627e-05
5.1099897e-05
5.0851983e-05
5.0593061e-05
5.0323061e-05
5.0042356e-05
4.9751352e-05
4.9450954e-05
4.9141926e-05
4.8824109e-05
4.8497727e-05
4.8163112e-05
4.7820947e-05
4.7470843e-05
4.7112394e-05
4.6745786e-05
4.6373363e-05
4.599664e-05
4.5613427e-05
4.5222881e-05
4.482664e-05
4.4425152e-05
4.4019246e-05
4.3607913e-05
4.3190837e-05
4.2767482e-05
4.2338036e-05
4.1902182e-05
4.1460973e-05
4.1014744e-05
4.0564375e-05
4.0108392e-05
3.9646049e-05
3.9177514e-05
3.8703946e-05
3.8224244e-05
3.773752e-05
3.724221e-05
3.6741114e-05
3.6230311e-05
3.5712075e-05
3.517908e-05
3.4637922e-05
3.4078397e-05
3.3508966e-05
3.2915431e-05
3.2311025e-05
3.1677335e-05
3.1030217e-05
3.0344346e-05
2.9639626e-05
2.8885176e-05
2.8107041e-05
2.72678e-05
2.6396471e-05
2.544895e-05
2.4454644e-05
2.3366008e-05
2.219511e-05
2.0806751e-05
1.9465653e-05
1.9225601e-05
1.9424786e-05