/*--------------------------------*- C++ -*----------------------------------*\
| =========                 |                                                 |
| \\      /  F ield         | OpenFOAM: The Open Source CFD Toolbox           |
|  \\    /   O peration     | Version:  2.4.0                                 |
|   \\  /    A nd           | Web:      www.OpenFOAM.org                      |
|    \\/     M anipulation  |                                                 |
\*---------------------------------------------------------------------------*/
FoamFile
{
    version     2.0;
    format      ascii;
    class       volScalarField;
    location    "170";
    object      omega;
}
// * * * * * * * * * * * * * * * * * * * * * * * * * * * * * * * * * * * * * //

dimensions      [0 0 -1 0 0 0 0];

internalField   nonuniform List<scalar> 
78300
(
288636.63
288686.54
288700.32
288833.65
289515.6
291432.02
295479.08
302673.01
314010.37
329813.04
346787.82
362441.63
375829.98
386411.76
393919.79
398343.7
399991.89
399060.36
395721.33
390174.45
382632.29
373308
362413.46
350675.33
339521.98
329123.31
319421.78
310364.21
301901.89
293992.53
286594.56
279672.29
273192.3
267123.9
261439.18
256109.32
250877.53
245350.68
239525.68
233441.11
227134.93
220644.17
214005.21
207254.37
200428.97
193566.99
186709.47
179903.22
173262.16
167044.3
161298.04
156019.07
151204.62
146855.25
142973.85
139564.67
136634.53
134192.24
132247.52
130811.23
129895.27
129511.99
129657.27
129783.85
129783.85
129783.85
129783.85
129783.85
129783.85
129783.85
129783.85
129783.85
129783.85
129783.85
129783.85
129783.85
129783.85
129783.85
129783.85
129783.85
129783.85
129783.85
129783.85
129783.85
129783.85
129783.85
129783.85
129783.85
129783.85
129783.85
129783.85
129783.85
129783.85
129783.85
129783.85
129783.85
129783.85
129783.85
129783.85
129783.85
129783.85
129783.85
129783.85
129783.85
129783.85
129783.85
129783.85
129783.85
129783.85
129783.85
129783.85
129783.85
129783.85
129783.85
129783.85
129783.85
129783.85
129783.85
129783.85
129783.85
129783.85
129783.85
129783.84
129783.85
129783.85
129783.85
129783.85
129783.84
129783.85
129783.85
129783.85
129783.85
129783.85
129783.85
129783.85
129783.85
129783.84
129783.85
129783.85
129783.84
129783.85
129783.85
129783.85
129783.85
129783.85
129783.84
129783.85
129783.85
129783.85
129783.85
129783.85
129783.85
129783.85
129783.85
129783.84
129783.85
129783.85
129783.85
129783.84
129783.85
129783.85
129783.84
129783.85
129783.85
129783.84
129783.85
129783.85
129783.84
129783.85
129783.85
129783.85
129783.85
129783.85
129783.85
129783.85
129783.84
129783.85
129783.85
129783.85
129783.85
129783.85
129783.85
129783.85
129783.85
129783.85
129783.85
129783.85
129783.85
129783.85
129783.85
129783.85
129783.85
129783.85
129783.85
129783.84
129783.85
129783.85
129783.84
129783.85
129783.85
129783.85
129783.85
129783.85
129783.84
129783.85
129783.85
129783.84
129657.28
129512.01
129895.29
130811.3
132247.51
134192.34
136634.64
139564.65
142973.98
146855.32
151204.67
156018.82
161297.58
167043.87
173262.26
179902.7
186708.68
193567.05
200429.57
207253.32
214004.05
220644.49
227134.65
233439.26
239524.1
245352.66
250877.67
256108.08
261440.19
267124.37
273191.43
279670.54
286594.56
293991.4
301901.42
310366.52
319421.34
329122.77
339524.25
350675.48
362412.53
373310.22
382630.09
390168.82
395719.59
399058.71
399989.89
398342.36
393921.49
386411.41
375828.68
362441.02
346789.97
329814.86
314010.09
302672.88
295478.99
291431.81
289515.62
288834.57
288701.21
288686.52
288636.62
40610.178
48836.453
40610.981
48855.127
56433.911
49320.609
49992.578
51206.697
53120.489
53539.079
56294.752
58837.503
61013.108
62733.498
63954.995
64675.636
64945.515
64796.432
64256.407
63357.791
62135.114
60622.962
58855.486
56949.959
55138.593
53449.697
51874.052
50403.003
49028.681
47744.136
46542.664
45418.358
44365.868
43380.165
42456.764
41591.128
40741.865
39844.945
38899.661
37912.32
36889.102
35836.093
34759.334
33665.045
32560.053
31452.669
30321.101
25596.776
33364.138
32129.12
23023.204
29939.858
25591.6
24854.866
24197.835
23620.725
23124.717
22711.284
22382.079
22138.962
21983.942
21919.106
21942.625
21962.351
21964.14
24610.635
24704.68
24741.354
24751.791
24759.616
24762.863
24765.463
24756.168
18655.144
24767.406
24769.473
24769.623
24769.711
24769.589
24769.402
24769.065
24768.655
24768.114
24767.48
24766.695
24765.557
24750.465
18650.649
18650.945
18652.361
18654.072
18655.97
18658.181
18660.707
18663.654
18667.1
18671.213
18676.252
18683.283
18712.515
24715.726
24702.186
24676.315
24546.82
21962.243
21961.618
21961.617
21961.615
21961.614
21961.612
21961.611
21961.61
21961.608
21961.607
21961.605
21961.604
21961.602
21961.601
21961.599
21961.598
21961.596
21961.594
21961.593
21961.591
21961.59
21961.588
21961.587
21961.585
21961.584
21961.582
21961.581
21961.58
21961.578
21961.577
21961.575
21961.574
21961.573
21961.572
21961.571
21961.569
21961.568
21961.567
21961.566
21961.565
21961.564
21961.563
21961.562
21961.561
21961.56
21961.56
21961.559
21961.558
21961.558
21961.557
21961.556
21961.556
21961.555
21961.555
21961.554
21961.554
21961.553
21961.553
21961.553
21961.553
21961.552
21961.552
21961.552
21961.551
21961.552
21961.552
21961.551
21961.551
21961.551
21961.551
21961.551
21961.551
21961.551
21961.551
21961.552
21961.552
21961.551
21961.552
21961.552
21961.552
21961.553
21961.553
21961.553
21961.553
21961.554
21961.554
21961.554
21961.555
21961.556
21961.556
21961.557
21961.558
21961.558
21961.559
21961.561
21961.562
21961.563
21961.565
21961.567
21961.57
21961.574
21961.581
21962.087
21942.399
21919.056
21983.959
22138.989
22382.098
22711.307
23124.741
23620.733
24197.882
24854.898
25591.13
26406.052
27299.587
28272.247
29324.769
30448.54
31600.082
32760.333
33921.292
35075.777
36217.749
37341.015
38438.825
39505.248
40534.388
41519.971
42454.401
43339.365
44241.766
45203.79
46230.696
47327.566
48499.553
49751.43
51090.17
52522.865
54055.442
55697.5
57458.103
59345.26
61329.47
73183.369
53526.317
76520.023
55319.268
78288.859
55906.49
78120.164
77326.665
62766.377
61014.526
58838.754
56296.807
53541.248
50978.937
49143.229
47982.345
47363.631
40722.84
56273.358
40648.613
40601.739
48831.286
11038.915
16128.274
11036.345
16132.244
22839.305
16321.252
16530.482
16930.961
17562.832
17956.45
18879.572
19732.865
20463.196
21041.022
21451.492
21693.935
21785.111
21735.725
21555.17
21254.278
20844.64
20337.873
19745.34
19106.217
18498.46
17931.763
17403.053
16909.445
16448.291
16017.26
15614.112
15236.867
14883.717
14552.98
14243.147
13952.739
13667.898
13367.114
13050.11
12718.979
12375.788
12022.558
11661.308
11294.09
10923.097
10550.783
10146.281
7233.8276
13010.597
12444.815
6562.8057
11555.864
8457.6487
8219.818
8002.4992
7811.5988
7647.5254
7510.7702
7401.8772
7321.475
7270.2208
7248.8352
7256.4441
7262.5552
7265.1439
9285.7891
9361.8201
9391.0015
9399.3088
9405.5292
9408.1066
9410.141
9396.2828
5426.7508
9409.1274
9413.3369
9413.4541
9413.5201
9413.4197
9413.2676
9412.9958
9412.6661
9412.2325
9411.7247
9411.0959
9410.1386
9388.827
5419.3556
5417.9858
5418.716
5419.5982
5420.5764
5421.7154
5423.0165
5424.5347
5426.3099
5428.4285
5431.025
5434.6857
5457.1329
9368.5709
9359.6402
9338.921
9231.1264
7263.2164
7262.0644
7262.0609
7262.0578
7262.0547
7262.0515
7262.0483
7262.0449
7262.0414
7262.0379
7262.0343
7262.0305
7262.0268
7262.023
7262.0191
7262.0153
7262.0113
7262.0073
7262.0033
7261.9995
7261.9955
7261.9916
7261.9876
7261.9837
7261.9799
7261.976
7261.9723
7261.9686
7261.9648
7261.9613
7261.9576
7261.9542
7261.9506
7261.9473
7261.944
7261.9407
7261.9376
7261.9345
7261.9315
7261.9286
7261.9259
7261.9231
7261.9206
7261.9179
7261.9155
7261.9132
7261.911
7261.9089
7261.9068
7261.9049
7261.9029
7261.9013
7261.8995
7261.898
7261.8964
7261.8951
7261.8936
7261.8923
7261.8913
7261.8902
7261.8891
7261.8882
7261.8874
7261.8865
7261.886
7261.8853
7261.8846
7261.8841
7261.8837
7261.8833
7261.8831
7261.8828
7261.8829
7261.8827
7261.8827
7261.8827
7261.8829
7261.8832
7261.8832
7261.8837
7261.8839
7261.8844
7261.8848
7261.8853
7261.8859
7261.8865
7261.8873
7261.8883
7261.8893
7261.8905
7261.8916
7261.8931
7261.8946
7261.8965
7261.8987
7261.9011
7261.9038
7261.907
7261.9105
7261.9153
7261.921
7261.9282
7262.2289
7256.1683
7248.7618
7270.2333
7321.5035
7401.9147
7510.8043
7647.5532
7811.6129
8002.5192
8219.8417
8463.3647
8732.9091
9028.4565
9350.1673
9698.2842
10069.912
10450.667
10834.277
11218.098
11599.788
11977.332
12348.672
12711.587
13064.113
13404.287
13730.066
14038.96
14331.542
14629.978
14948.178
15287.815
15650.603
16038.239
16452.302
16895.081
17368.938
17875.847
18418.914
19001.22
19625.093
20248.423
30196.273
14269.159
31571.382
14714.75
32340.207
14865.19
32161.243
32077.468
21124.309
20465.507
19734.562
18882.096
17958.907
17101.131
16486.599
16097.121
15905.131
11066.37
22722.073
11071.823
11022.95
16129.945
4110.5368
7413.7316
4108.7199
7414.2573
12856.121
7538.4603
7621.4059
7805.3061
8095.2863
8338.9076
8766.8725
9163.2464
9502.6128
9771.3193
9962.2596
10075.154
10117.756
10095.075
10011.45
9871.9365
9681.9016
9446.7433
9171.7237
8874.9422
8592.6287
8329.3746
8083.7628
7854.4597
7640.2303
7439.9964
7252.7143
7077.4687
6913.4158
6759.7765
6615.8461
6480.9484
6348.6724
6209.0178
6061.8307
5908.0766
5748.7102
5584.6701
5416.8921
5246.3165
5073.939
4900.7252
4695.9664
2886.0699
6923.9436
6550.1913
2653.9624
6058.9627
3893.9242
3789.4692
3689.2729
3601.2513
3525.5976
3462.5451
3412.3401
3375.288
3351.683
3341.9009
3345.4448
3348.1091
3351.1481
4737.8603
4792.4349
4813.0537
4818.9189
4823.3052
4825.1169
4826.5113
4810.4127
2265.3329
4824.0329
4828.7776
4828.858
4828.901
4828.8265
4828.7158
4828.5206
4828.2846
4827.975
4827.6128
4827.1642
4826.4233
4802.5136
2257.2124
2255.5156
2255.9189
2256.4055
2256.9446
2257.5717
2258.2876
2259.1224
2260.0983
2261.2626
2262.69
2264.7373
2282.9818
4795.6877
4790.6556
4775.8529
4694.9285
3348.9867
3347.7613
3347.7555
3347.7502
3347.7449
3347.7392
3347.7335
3347.7274
3347.7211
3347.7147
3347.7081
3347.7012
3347.6943
3347.6872
3347.6799
3347.6727
3347.6652
3347.6578
3347.6502
3347.6427
3347.6352
3347.6277
3347.62
3347.6125
3347.605
3347.5976
3347.5902
3347.5829
3347.5756
3347.5685
3347.5614
3347.5545
3347.5476
3347.5408
3347.5343
3347.5278
3347.5215
3347.5153
3347.5093
3347.5034
3347.4978
3347.4922
3347.4869
3347.4817
3347.4767
3347.4719
3347.4673
3347.4628
3347.4585
3347.4545
3347.4505
3347.4468
3347.4432
3347.4398
3347.4365
3347.4334
3347.4304
3347.4276
3347.4252
3347.4228
3347.4205
3347.4183
3347.4163
3347.4145
3347.4129
3347.4113
3347.4098
3347.4085
3347.4074
3347.4064
3347.4056
3347.4049
3347.4043
3347.4039
3347.4035
3347.4033
3347.4032
3347.4033
3347.4033
3347.4036
3347.4039
3347.4044
3347.4048
3347.4054
3347.4063
3347.4072
3347.4083
3347.4095
3347.4111
3347.4128
3347.4146
3347.4167
3347.4192
3347.4219
3347.4252
3347.4289
3347.433
3347.4379
3347.4433
3347.4501
3347.458
3347.4673
3347.6676
3345.0744
3341.7898
3351.6874
3375.3164
3412.3856
3462.5844
3525.6288
3601.2672
3689.2797
3789.4711
3901.7412
4026.0089
4162.2635
4310.5761
4471.0569
4642.3457
4817.8216
4994.6037
5171.475
5347.368
5521.342
5692.452
5859.6819
6022.129
6178.8751
6328.9799
6471.3079
6606.1565
6743.7482
6890.4691
7047.0762
7214.3428
7393.0601
7583.9609
7788.1052
8006.5808
8240.2886
8490.6588
8759.1086
9046.5353
9299.249
17527.586
5123.7766
18304.086
5263.943
18776.287
5317.9732
18554.587
18790.647
9889.9453
9507.053
9166.7185
8771.6288
8344.5026
7947.8505
7663.3618
7482.1326
7406.706
4120.7387
12728.953
4142.0422
4094.4441
7417.4693
1931.8718
4094.6352
1931.5422
4093.8913
8353.4839
4197.5449
4230.363
4331.723
4491.3049
4646.3214
4884.0673
5104.9343
5294.1146
5444.0892
5550.6712
5613.7586
5637.6403
5625.1527
5578.6819
5501.0745
5395.3045
5264.384
5111.2467
4945.9155
4788.5857
4641.8706
4504.9863
4377.1925
4257.7988
4146.2069
4041.8327
3944.1675
3852.7401
3767.1175
3686.9036
3611.7262
3538.0289
3460.237
3378.246
3292.5914
3203.8075
3112.4135
3018.9306
2923.8777
2827.8031
2731.1034
2606.2908
1474.4188
4227.9955
3949.5457
1375.2962
3641.4676
2156.8885
2102.5087
2046.9036
1998.0571
1956.0724
1921.0868
1893.2313
1872.6927
1859.6246
1854.2835
1856.3584
1857.7753
1860.9129
2775.5725
2812.8531
2826.7137
2830.6498
2833.5904
2834.7992
2835.6919
2819.6109
1212.5335
2832.8729
2837.2339
2837.2876
2837.3148
2837.2629
2837.1873
2837.0545
2836.8945
2836.6848
2836.4396
2836.1351
2835.5666
2812.2035
1204.704
1203.1503
1203.3796
1203.6557
1203.9607
1204.3146
1204.7179
1205.1874
1205.7356
1206.3892
1207.1904
1208.3716
1223.3865
2813.9942
2811.4525
2801.3401
2742.8522
1858.6536
1857.5604
1857.5517
1857.5436
1857.5352
1857.5264
1857.5172
1857.5076
1857.4976
1857.4873
1857.4766
1857.4657
1857.4544
1857.443
1857.4312
1857.4194
1857.4073
1857.3951
1857.3828
1857.3705
1857.3581
1857.3457
1857.3332
1857.3208
1857.3085
1857.2962
1857.2839
1857.2718
1857.2598
1857.2479
1857.2362
1857.2246
1857.2131
1857.2019
1857.1909
1857.18
1857.1695
1857.1591
1857.149
1857.1392
1857.1296
1857.1203
1857.1112
1857.1025
1857.094
1857.0859
1857.078
1857.0704
1857.0631
1857.0561
1857.0494
1857.0429
1857.0367
1857.0308
1857.0252
1857.0198
1857.0147
1857.0099
1857.0055
1857.0013
1856.9973
1856.9934
1856.9899
1856.9867
1856.9837
1856.9809
1856.9783
1856.9759
1856.9737
1856.9718
1856.9702
1856.9689
1856.9677
1856.9667
1856.9657
1856.9652
1856.9647
1856.9645
1856.9643
1856.9645
1856.9647
1856.9652
1856.9657
1856.9665
1856.9675
1856.9687
1856.9702
1856.9719
1856.974
1856.9762
1856.9789
1856.9817
1856.9851
1856.9889
1856.9935
1856.9985
1857.0044
1857.0109
1857.0185
1857.0276
1857.038
1857.0497
1857.1989
1855.8768
1854.1224
1859.6107
1872.7122
1893.2736
1921.1212
1956.0968
1998.0597
2046.8886
2102.4745
2164.76
2233.7023
2309.2931
2391.572
2480.599
2575.6063
2672.9223
2770.9578
2869.04
2966.581
3063.0542
3157.939
3250.6737
3340.7573
3427.6824
3510.9231
3589.8605
3664.6752
3741.034
3822.4669
3909.3803
4002.2083
4101.3846
4207.3177
4320.6049
4441.8467
4571.5343
4710.4664
4859.4295
5018.8455
5131.276
11795.565
2295.5956
12290.904
2347.1934
12623.563
2373.6049
12371.396
12787.176
5584.8979
5301.2547
5110.9133
4891.9171
4655.8489
4436.6453
4278.9169
4177.3638
4146.1128
1938.5292
8211.611
1963.6541
1917.5941
4099.3143
1111.7736
2533.7795
1112.3638
2531.2134
5778.5752
2626.7612
2634.4302
2696.7755
2794.7638
2898.6033
3046.1823
3183.9315
3301.9833
3395.7521
3462.3789
3501.8674
3516.8599
3509.1735
3480.2614
3431.9331
3366.0236
3284.4203
3188.9629
3085.8556
2987.6982
2896.1593
2810.7532
2731.0203
2656.5283
2586.9052
2521.7856
2460.8531
2403.8121
2350.393
2300.3467
2253.4437
2207.4745
2158.9616
2107.8286
2054.4077
1999.0323
1942.0242
1883.7103
1824.4109
1764.4643
1704.0031
1619.796
910.95001
2755.9826
2543.3353
858.32158
2339.5698
1339.822
1308.1002
1273.4887
1243.0903
1216.9606
1195.1934
1177.8642
1165.1074
1157.0091
1153.7791
1155.2138
1156.079
1159.0542
1747.0807
1771.7567
1780.7851
1783.3428
1785.2529
1786.0339
1786.574
1772.0628
773.22225
1784.0234
1787.6105
1787.6481
1787.6671
1787.6345
1787.5867
1787.5014
1787.3984
1787.2626
1787.1034
1786.9043
1786.4643
1765.7026
766.20771
764.94144
765.07468
765.23413
765.40926
765.61133
765.84055
766.10646
766.41607
766.78442
767.2356
767.93021
780.2202
1771.8379
1770.7121
1763.9782
1722.6343
1156.8959
1156.0076
1155.9955
1155.9837
1155.9715
1155.9587
1155.9452
1155.9311
1155.9164
1155.9013
1155.8856
1155.8694
1155.8529
1155.8359
1155.8186
1155.801
1155.7832
1155.7652
1155.7469
1155.7286
1155.7102
1155.6918
1155.6733
1155.6549
1155.6365
1155.6182
1155.6
1155.5819
1155.564
1155.5462
1155.5287
1155.5114
1155.4944
1155.4776
1155.4612
1155.445
1155.4291
1155.4136
1155.3985
1155.3838
1155.3695
1155.3555
1155.3419
1155.3288
1155.3161
1155.3038
1155.2919
1155.2805
1155.2695
1155.2589
1155.2488
1155.2391
1155.2297
1155.2208
1155.2123
1155.2042
1155.1964
1155.1891
1155.1824
1155.176
1155.1698
1155.164
1155.1587
1155.1537
1155.1491
1155.1448
1155.1407
1155.137
1155.1337
1155.1308
1155.1282
1155.126
1155.124
1155.1224
1155.1209
1155.1198
1155.119
1155.1185
1155.1181
1155.1181
1155.1183
1155.1188
1155.1194
1155.1204
1155.1217
1155.1232
1155.1251
1155.1273
1155.1301
1155.133
1155.1366
1155.1403
1155.1449
1155.1498
1155.1559
1155.1624
1155.1701
1155.1786
1155.1886
1155.2001
1155.2133
1155.2278
1155.3484
1154.6044
1153.5521
1156.9622
1165.1047
1177.8901
1195.2096
1216.964
1243.0659
1273.4395
1308.0166
1346.7606
1389.6457
1436.6656
1487.8449
1543.2201
1602.3041
1662.8152
1723.7719
1784.7565
1845.4052
1905.3902
1964.389
2022.0527
2078.0695
2132.1252
2183.8935
2232.9961
2279.5605
2327.0999
2377.7941
2431.897
2489.6819
2551.413
2617.3487
2687.8623
2763.3228
2844.0391
2930.512
3023.2264
3122.4586
3172.8583
8447.6861
1261.8549
8776.2679
1284.5993
9021.5044
1302.3526
8759.6902
9265.3357
3549.1043
3311.9897
3192.9133
3057.6616
2912.5034
2777.6726
2680.0583
2616.0611
2604.4461
1118.6733
5630.9922
1143.5318
1099.8281
2538.4765
757.73284
1693.3435
758.77258
1688.3979
4112.1303
1780.2682
1772.6663
1813.7463
1878.2515
1950.8727
2049.4328
2142.0683
2221.5173
2284.8024
2329.7471
2356.4271
2366.5834
2361.4879
2342.0822
2309.6202
2265.316
2210.4473
2146.2661
2076.9067
2010.8482
1949.2418
1891.7617
1838.1012
1787.9683
1741.1135
1697.2898
1656.2854
1617.8999
1581.9522
1548.2729
1516.7077
1485.7767
1453.1423
1418.7439
1382.8039
1345.5469
1307.1876
1267.9477
1228.0402
1187.6906
1146.8997
1086.9404
644.98612
1861.6678
1700.2942
609.94983
1562.0639
898.96936
878.73028
855.46372
835.03645
817.47612
802.8543
791.21607
782.6701
777.26539
775.19438
776.32258
776.91397
779.56865
1150.4849
1166.4693
1172.2278
1173.8556
1175.0727
1175.5684
1175.8782
1163.7072
553.00723
1173.8371
1176.5868
1176.6169
1176.6341
1176.6179
1176.5923
1176.5423
1176.4808
1176.3979
1176.2997
1176.1743
1175.8298
1158.6159
547.08814
546.128
546.20695
546.30013
546.4012
546.51637
546.64582
546.79478
546.96718
547.17134
547.42081
547.83141
557.68813
1166.1607
1165.7626
1161.3394
1132.519
777.67652
776.99645
776.9801
776.96388
776.94699
776.92918
776.91053
776.89101
776.87071
776.84968
776.82799
776.80564
776.7827
776.75924
776.7353
776.71101
776.68634
776.66141
776.63621
776.61091
776.58546
776.55997
776.53441
776.50891
776.48346
776.45814
776.43295
776.40796
776.38319
776.35868
776.33449
776.31056
776.28698
776.26377
776.24104
776.21869
776.1968
776.17539
776.15448
776.13411
776.11426
776.09495
776.07618
776.058
776.04039
776.02343
776.00699
775.99115
775.97589
775.96129
775.94723
775.93376
775.9208
775.90844
775.89666
775.88539
775.87467
775.86453
775.85517
775.8463
775.83776
775.82971
775.82231
775.81541
775.80903
775.803
775.79743
775.79233
775.78772
775.78362
775.78001
775.77692
775.77417
775.77182
775.76972
775.76823
775.76703
775.76627
775.76565
775.7656
775.76583
775.76644
775.76726
775.76844
775.77014
775.7721
775.77463
775.77744
775.78103
775.78481
775.78942
775.79419
775.80012
775.80637
775.81414
775.82227
775.83214
775.84266
775.85532
775.86944
775.88582
775.90359
776.00734
775.56542
774.88213
777.16755
782.628
791.20876
802.83602
817.44218
834.96929
855.36491
878.58443
904.60184
933.40035
964.97475
999.34242
1036.5266
1076.1927
1116.8112
1157.7282
1198.6643
1239.3753
1279.6433
1319.2516
1357.9645
1395.5762
1431.8761
1466.6452
1499.6336
1530.9405
1562.9144
1597.0058
1633.3874
1672.2416
1713.7466
1758.0775
1805.4855
1856.2192
1910.4845
1968.6216
2030.9539
2097.7351
2119.1541
6206.3512
835.39484
6425.3299
848.34215
6607.843
863.18493
6354.6075
6884.4838
2443.8658
2234.7327
2154.3491
2064.8169
1969.3033
1880.5716
1815.7484
1772.1202
1769.6995
766.03816
3970.0861
789.72189
748.18105
1697.7969
584.02612
1196.9661
585.20679
1188.5684
2969.8089
1277.2685
1260.9512
1289.196
1333.5836
1386.0333
1455.2617
1520.9714
1577.3876
1622.5035
1654.5169
1673.5565
1680.8204
1677.2624
1663.5131
1640.5013
1609.0681
1570.1284
1524.5884
1475.3487
1428.4298
1384.6722
1343.8444
1305.7312
1270.124
1236.847
1205.7231
1176.6029
1149.3429
1123.8147
1099.8964
1077.4771
1055.5113
1032.3423
1007.9195
982.39981
955.94364
928.70135
900.83169
872.48441
843.81796
814.77076
770.84086
498.35728
1287.95
1167.2933
470.27398
1071.9741
637.32758
623.38834
606.86833
592.37085
579.90684
569.53556
561.28364
555.24663
551.4515
550.08675
551.06513
551.51231
553.7778
784.40078
794.60755
798.23396
799.25889
800.02884
800.34332
800.51262
790.85629
423.76582
799.01213
801.02193
801.05076
801.07058
801.06886
801.0611
801.03739
801.00611
800.96057
800.90474
800.82994
800.5582
787.02517
419.0561
418.37055
418.41837
418.47324
418.53121
418.59563
418.66664
418.74698
418.83876
418.94639
419.07707
419.3158
426.9776
794.28627
794.21688
791.32263
771.39599
552.25083
551.75013
551.7286
551.707
551.68446
551.66074
551.6359
551.60997
551.58303
551.55516
551.52643
551.49688
551.46657
551.43561
551.40405
551.37204
551.33956
551.30675
551.27363
551.24037
551.20694
551.17347
551.13993
551.10649
551.07312
551.03993
551.00693
550.9742
550.94178
550.90971
550.87806
550.84678
550.81596
550.78564
550.75594
550.72676
550.69817
550.67023
550.64297
550.61638
550.59049
550.56532
550.54085
550.51715
550.49421
550.4721
550.45069
550.43008
550.41021
550.3912
550.37292
550.35538
550.33856
550.3225
550.30721
550.29259
550.2787
550.26556
550.25342
550.2419
550.23088
550.2205
550.21093
550.20203
550.19381
550.18607
550.17893
550.17241
550.16652
550.16129
550.15669
550.15275
550.14928
550.14631
550.14374
550.14188
550.14042
550.13952
550.13886
550.13887
550.13929
550.14016
550.14136
550.14299
550.14529
550.1479
550.15125
550.15491
550.15957
550.16442
550.17035
550.17642
550.18396
550.1918
550.20154
550.21162
550.2239
550.23682
550.25242
550.26955
550.28954
550.31101
550.40479
550.13709
549.66629
551.28136
555.14524
561.22384
569.46397
579.81701
592.24275
606.70224
623.16493
641.61118
662.02997
684.41625
708.78376
735.14718
763.26317
792.0506
821.04984
850.06417
878.92038
907.46452
935.54366
962.991
989.66296
1015.4109
1040.0798
1063.4946
1085.7399
1108.4703
1132.6985
1158.5507
1186.1579
1215.6469
1247.1431
1280.8248
1316.8688
1355.423
1396.7275
1441.0108
1488.5463
1496.7261
4604.4935
639.51979
4749.1086
649.34153
4884.3855
663.04926
4652.5184
5159.5008
1783.4646
1593.8595
1536.5928
1474.5283
1408.8466
1347.9116
1302.884
1271.5518
1273.2568
594.29035
2839.9269
616.38487
576.92684
1201.1833
486.35976
883.66848
487.46642
873.52385
2164.1022
955.71056
935.40658
955.27849
986.61712
1025.3495
1075.7389
1124.2177
1165.9046
1199.418
1223.1681
1237.3246
1242.7345
1240.1543
1230.011
1213.0302
1189.8126
1161.0423
1127.4086
1091.0225
1056.333
1023.9802
993.79304
965.615
939.29013
914.68978
891.68196
870.15694
850.00746
831.13879
813.45932
796.88356
780.64482
763.52288
745.47227
726.60894
707.05196
686.91089
666.30424
645.34121
624.13787
602.60994
569.91801
405.02499
908.93053
820.10713
379.90262
753.37305
470.82031
460.5734
448.35619
437.64002
428.42606
420.7666
414.67625
410.2442
407.4835
406.58547
407.49569
407.86595
409.73897
551.63867
558.10255
560.37551
561.02142
561.51232
561.71698
561.807
554.47699
337.67696
560.78102
562.2035
562.23518
562.26034
562.27127
562.27811
562.27413
562.26479
562.24561
562.21908
562.17849
561.96407
551.76807
334.15743
333.69616
333.72585
333.75819
333.79063
333.82485
333.86104
333.9004
333.94406
333.99406
334.05375
334.1846
339.9163
557.94765
557.99688
556.08999
542.36032
408.60862
408.24807
408.22032
408.19233
408.16313
408.13248
408.10049
408.06715
408.0326
407.99692
407.96021
407.92252
407.88393
407.84457
407.80451
407.76392
407.72279
407.68129
407.63944
407.59744
407.55528
407.51309
407.47086
407.42877
407.38682
407.34511
407.30368
407.26261
407.22195
407.18177
407.14211
407.10297
407.06442
407.02653
406.98942
406.95297
406.91728
406.88243
406.84843
406.8153
406.78305
406.7517
406.72126
406.69179
406.66327
406.63579
406.6092
406.58361
406.55897
406.53539
406.51274
406.49103
406.47023
406.45039
406.43151
406.4135
406.3964
406.38022
406.36531
406.35113
406.33764
406.32496
406.31328
406.30244
406.29242
406.28306
406.27445
406.26662
406.25957
406.25334
406.24789
406.24325
406.23921
406.23581
406.23292
406.23087
406.22938
406.22853
406.22805
406.22835
406.22918
406.23055
406.23238
406.23472
406.23786
406.2414
406.24585
406.25066
406.25667
406.2629
406.27045
406.27815
406.28761
406.29739
406.30946
406.32185
406.33691
406.3526
406.37157
406.39212
406.41618
406.44189
406.5302
406.37064
406.0304
407.21665
410.06084
414.5421
420.62058
428.25961
437.43034
448.10248
460.25448
473.87053
488.94348
505.4686
523.45737
542.91793
563.66656
584.90841
606.30774
627.71968
649.01735
670.08683
690.8165
711.08435
730.78491
749.80955
768.04523
785.36288
801.84169
818.69036
836.63753
855.78632
876.23326
898.07226
921.39795
946.34066
973.03292
1001.585
1032.1737
1064.9679
1100.2639
1103.0859
3427.0893
538.13485
3521.4148
547.28296
3620.8574
560.35646
3417.6899
3873.5671
1357.7168
1185.4409
1143.0017
1098.6025
1052.1181
1009.2139
977.11929
953.92826
957.15137
498.98868
2052.0928
519.01256
481.85028
887.7988
422.92598
675.83279
423.78761
665.55664
1588.7901
738.54544
717.27981
731.34407
753.67462
782.64871
820.25807
857.10644
888.86361
914.56932
932.75467
943.62267
947.7801
945.85523
938.13404
925.20955
907.51838
885.59006
859.97116
832.23996
805.78614
781.11451
758.09378
736.6072
716.53437
697.7784
680.23754
663.82903
648.46968
634.08757
620.61175
607.97098
595.58789
582.53827
568.77795
554.39601
539.48385
524.12349
508.40633
492.41426
476.23518
459.78488
435.22843
338.12287
653.94507
589.43366
314.61262
541.89216
359.05864
351.11652
341.79345
333.62
326.59181
320.75734
316.12301
312.77548
310.71866
310.15031
311.03808
311.36892
312.88584
399.62161
403.70452
405.13603
405.54873
405.87159
406.01307
406.06243
400.69885
274.98206
405.41384
406.40128
406.43787
406.46956
406.49139
406.51001
406.52083
406.52739
406.52665
406.52013
406.50229
406.33402
398.91884
272.53476
272.24394
272.26264
272.28126
272.29803
272.3137
272.32853
272.3428
272.35711
272.3721
272.38862
272.44903
276.55571
403.77243
403.83978
402.5575
393.09035
312.12853
311.86969
311.83466
311.79929
311.76244
311.7239
311.6838
311.64215
311.5991
311.55476
311.50925
311.46262
311.41499
311.3665
311.31723
311.26738
311.21697
311.16616
311.11501
311.06372
311.01229
310.96089
310.90951
310.85834
310.80738
310.75678
310.70655
310.65681
310.6076
310.559
310.51109
310.46383
310.41733
310.37166
310.32695
310.28309
310.24016
310.19827
310.15742
310.11765
310.07896
310.04139
310.00493
309.96965
309.93554
309.90268
309.87094
309.84039
309.81102
309.78292
309.75597
309.73015
309.70545
309.68192
309.65955
309.63824
309.61806
309.59897
309.58143
309.56475
309.54894
309.53413
309.5205
309.50789
309.49629
309.48549
309.47561
309.46667
309.45868
309.45167
309.44561
309.4405
309.43614
309.43254
309.42959
309.42763
309.42634
309.42583
309.4258
309.42666
309.4282
309.43036
309.43311
309.43645
309.44076
309.44553
309.45139
309.45767
309.46537
309.47332
309.48284
309.49251
309.50427
309.51635
309.53112
309.54621
309.56446
309.58335
309.60612
309.63055
309.65919
309.68968
309.7757
309.68736
309.43116
310.32774
312.48467
315.89027
320.51367
326.32602
333.30626
341.42993
350.68166
361.04799
372.52446
385.10664
398.8046
413.62141
429.41456
445.58167
461.87045
478.17062
494.3864
510.43134
526.22142
541.66471
556.68179
571.19071
585.10674
598.33073
610.94284
623.85008
637.58293
652.23437
667.8779
684.58513
702.42902
721.50927
741.92859
763.77059
787.17135
812.25855
839.34417
840.70213
2553.0908
477.10205
2614.0756
486.44779
2686.5885
498.9458
2514.9213
2906.8175
1065.0636
911.06657
878.67785
846.20247
812.69473
782.14898
759.06776
741.73704
745.17618
438.21671
1497.7417
455.65737
421.18169
680.09863
375.8628
532.49608
376.32496
523.10006
1176.2286
585.40189
565.1589
574.99426
590.76677
612.50881
641.05829
669.71812
694.49853
714.72974
729.01096
737.57152
740.84729
739.38008
733.35382
723.27186
709.4541
692.3221
672.32543
650.66716
629.99297
610.71223
592.7213
575.93138
560.24701
545.59371
531.89079
519.07435
507.07819
495.84644
485.32296
475.44306
465.76468
455.5735
444.82339
433.58552
421.93203
409.92549
397.63821
385.13316
372.47861
359.60271
341.03163
285.9977
480.00259
433.64217
263.82459
399.06015
280.83233
274.42119
267.12765
260.73681
255.24148
250.68807
247.07733
244.49569
242.94087
242.61907
243.51094
243.82413
245.03914
297.93702
300.5236
301.44061
301.71428
301.93718
302.04438
302.0769
298.27449
226.75097
301.70983
302.39063
302.43247
302.47062
302.50136
302.52913
302.55073
302.56846
302.58025
302.58688
302.58356
302.45255
297.22027
225.19805
225.02841
225.03961
225.04911
225.05541
225.05884
225.05971
225.05776
225.05332
225.0462
225.0355
225.04784
227.85306
300.79852
300.8414
299.94497
293.38792
244.59202
244.40224
244.35898
244.31529
244.26987
244.22259
244.17356
244.12283
244.07056
244.01688
243.96192
243.90578
243.84855
243.79043
243.7315
243.67198
243.6119
243.55144
243.49068
243.42984
243.36894
243.30813
243.24743
243.18704
243.12699
243.06742
243.00835
242.94991
242.89216
242.83518
242.77904
242.72374
242.66938
242.61604
242.56385
242.5127
242.46268
242.41392
242.36641
242.32019
242.27526
242.23167
242.1894
242.14855
242.10908
242.07109
242.03442
241.99918
241.96533
241.93296
241.90197
241.87231
241.84399
241.81703
241.79146
241.76714
241.74415
241.72245
241.70256
241.68366
241.66582
241.64916
241.63388
241.61981
241.6069
241.59497
241.58412
241.57437
241.56574
241.55826
241.55188
241.54661
241.54224
241.53874
241.53605
241.53447
241.53371
241.53383
241.53457
241.53631
241.53888
241.54214
241.54613
241.5508
241.55661
241.56294
241.57055
241.57863
241.58836
241.59838
241.61021
241.62221
241.63663
241.65138
241.66924
241.68742
241.70927
241.73176
241.75877
241.78753
241.82124
241.85704
241.94316
241.90415
241.70387
242.39611
244.06978
246.71985
250.32174
254.85204
260.29528
266.63095
273.84816
281.93497
290.88887
300.70572
311.39448
322.95439
335.27262
347.8817
360.58775
373.3048
385.95882
398.48295
410.81256
422.8765
434.61409
445.96214
456.85584
467.21419
477.12587
487.28424
498.0707
509.57882
521.86536
534.9864
548.99967