/*--------------------------------*- C++ -*----------------------------------*\
| =========                 |                                                 |
| \\      /  F ield         | OpenFOAM: The Open Source CFD Toolbox           |
|  \\    /   O peration     | Version:  2.4.0                                 |
|   \\  /    A nd           | Web:      www.OpenFOAM.org                      |
|    \\/     M anipulation  |                                                 |
\*---------------------------------------------------------------------------*/
FoamFile
{
    version     2.0;
    format      ascii;
    class       volVectorField;
    location    "170";
    object      U;
}
// * * * * * * * * * * * * * * * * * * * * * * * * * * * * * * * * * * * * * //

dimensions      [0 1 -1 0 0 0 0];

internalField   nonuniform List<vector> 
78300
(
(0.0060008428 2.5877674e-05 1.3371907e-21)
(0.0045791907 2.3283697e-05 -1.2946317e-21)
(0.0073430239 -4.6452225e-05 1.1187922e-21)
(0.0058914617 -0.00018139987 -3.068101e-20)
(0.0064377613 -0.00043662216 -8.7185241e-21)
(0.0038135814 -0.00044701626 1.6687404e-20)
(0.0024646107 -0.00044647474 9.7193855e-21)
(-0.0005875258 0.00014052028 -3.3224289e-20)
(-0.0016714231 0.00054739494 -1.1570919e-20)
(-0.0023908605 0.0010074199 1.1793946e-20)
(-0.0018217442 0.00091827352 7.1674759e-21)
(-0.0016091022 0.00092985433 -1.7441412e-20)
(-0.0011488896 0.00073405509 2.7396035e-21)
(-0.0010082142 0.00069807445 -1.2270803e-20)
(-0.00082403793 0.00060611818 9.2789238e-21)
(-0.00078108579 0.00060296994 -1.2522179e-20)
(-0.00068450427 0.0005479341 -3.8513186e-21)
(-0.00066212426 0.00054543614 1.6543719e-21)
(-0.00060089827 0.00050486358 -5.7755967e-21)
(-0.00057585697 0.00049037935 3.6637674e-21)
(-0.00052861272 0.0004529453 4.2767025e-21)
(-0.00050298361 0.00043109181 -2.9181618e-21)
(-0.00046818424 0.00039861483 -8.9927856e-22)
(-0.00045214533 0.00038068709 2.9949443e-22)
(-0.00043559 0.0003625603 5.7494442e-22)
(-0.00042940329 0.00035355268 9.3407169e-23)
(-0.00042445843 0.000345964 9.8905996e-23)
(-0.00042786806 0.00034553943 -3.4681868e-22)
(-0.00043395835 0.00034739939 -3.6123045e-22)
(-0.00044792766 0.00035584461 -3.3940649e-22)
(-0.00046563488 0.00036727668 4.6200984e-22)
(-0.00049080173 0.00038481396 1.2289175e-21)
(-0.00052035067 0.00040579816 5.577506e-22)
(-0.00055636834 0.00043197357 8.6062233e-22)
(-0.00059607555 0.00046109994 -1.0333338e-21)
(-0.00063901265 0.00049294671 7.2377755e-22)
(-0.00068020854 0.00052316272 -1.1842359e-21)
(-0.00072047699 0.00055098872 -3.9524621e-23)
(-0.00076039656 0.00057626616 -1.8946561e-21)
(-0.00079915911 0.00059801319 3.1446234e-22)
(-0.00083672537 0.00061589073 -3.1663659e-24)
(-0.00087153309 0.00062940276 -3.1964467e-22)
(-0.00090379189 0.00063824317 -7.8881162e-22)
(-0.00093249608 0.00064034974 -1.3730994e-21)
(-0.0009562289 0.00063590096 2.8834399e-21)
(-0.00097375583 0.00062341722 3.6599616e-21)
(-0.00098665814 0.00060387611 -1.5111353e-21)
(-0.0009931195 0.00057714772 -4.6572493e-21)
(-0.0010005889 0.00054772738 5.0061007e-21)
(-0.0010064223 0.0005160942 -4.2864195e-21)
(-0.0010097989 0.00048223393 -9.8382275e-21)
(-0.0010061559 0.0004443975 1.3312201e-21)
(-0.00099934244 0.00040494476 -1.8829291e-21)
(-0.00098081641 0.00036102608 -7.1903161e-21)
(-0.00096112982 0.0003175664 -2.2583067e-21)
(-0.00092503328 0.00027019165 1.8756105e-21)
(-0.00089401917 0.00022642687 1.2664548e-21)
(-0.00084133038 0.00017990347 2.3009338e-21)
(-0.00081007978 0.00014093187 2.3257196e-23)
(-0.00075221193 0.0001004547 -1.9601709e-22)
(-0.00075501508 7.0051886e-05 -3.5800104e-22)
(-0.00073152877 3.7776014e-05 -1.1115596e-22)
(-0.00089114968 1.0674177e-05 -2.254e-22)
(-0.0012053042 3.5551933e-07 7.1066706e-26)
(-0.0014204319 3.5545268e-07 -9.2173069e-26)
(-0.0016381985 3.2035759e-07 -4.0963427e-25)
(-0.0018155596 3.4213143e-07 4.5368731e-25)
(-0.0019910336 3.2672983e-07 -4.62142e-25)
(-0.0021394936 3.4373997e-07 2.9829016e-25)
(-0.0022837634 3.3811841e-07 -3.8447824e-25)
(-0.0024096872 3.5177286e-07 2.4659212e-25)
(-0.002531008 3.5094939e-07 4.8398758e-25)
(-0.0026395722 3.6180356e-07 -6.2633194e-25)
(-0.002743711 3.6497075e-07 -2.3342785e-18)
(-0.0028388151 3.7410437e-07 -2.1428513e-18)
(-0.0029299982 3.78091e-07 9.1001877e-25)
(-0.0030144199 3.8623611e-07 -3.6323374e-25)
(-0.0030952861 3.9123267e-07 -2.3763887e-25)
(-0.003170855 3.9742158e-07 1.738732e-25)
(-0.0032431411 4.0163532e-07 -1.277106e-25)
(-0.003311098 4.0686206e-07 7.7052249e-27)
(-0.003375968 4.1066415e-07 5.1250625e-26)
(-0.0034371134 4.1422573e-07 -3.1141946e-26)
(-0.0034952943 4.157914e-07 -2.3253278e-25)
(-0.0035501278 4.1734415e-07 2.6781932e-25)
(-0.0036020105 4.1751114e-07 -4.1286286e-26)
(-0.0036507753 4.1687558e-07 4.1767036e-25)
(-0.003696456 4.1643609e-07 -5.7870444e-25)
(-0.003739459 4.1558159e-07 -4.9775725e-25)
(-0.0037796158 4.1386116e-07 7.5759466e-25)
(-0.003816979 4.1117996e-07 -6.7150011e-25)
(-0.003851562 4.0794095e-07 5.3808245e-25)
(-0.0038833715 4.0434399e-07 -3.1887057e-25)
(-0.0039124697 3.993955e-07 -7.4068339e-26)
(-0.0039388668 3.9433485e-07 1.8051041e-26)
(-0.0039626473 3.8721433e-07 4.8979309e-25)
(-0.0039838421 3.8054018e-07 -4.1489789e-26)
(-0.0040025681 3.7178238e-07 7.5262988e-25)
(-0.0040188521 3.6390539e-07 4.1460638e-27)
(-0.0040329184 3.5582099e-07 -1.5020548e-24)
(-0.004044922 3.467008e-07 7.1673344e-25)
(-0.0040553294 3.3774021e-07 -6.956957e-26)
(-0.0040638753 3.2734249e-07 1.0448883e-24)
(-0.0040703453 3.1539576e-07 -2.0278973e-26)
(-0.0040738866 2.9875352e-07 -2.0642118e-24)
(-0.0040725456 2.8449276e-07 -1.4919147e-25)
(-0.0040686572 2.697515e-07 6.6305208e-26)
(-0.0040620131 2.5766164e-07 1.0736579e-24)
(-0.0040530643 2.4308715e-07 -1.0859512e-25)
(-0.0040417974 2.3146624e-07 -1.3728805e-24)
(-0.0040283509 2.1698843e-07 2.5394262e-24)
(-0.004012738 2.0501564e-07 -2.9197314e-24)
(-0.0039950238 1.9030242e-07 2.756244e-24)
(-0.0039752549 1.7714926e-07 -5.3032269e-25)
(-0.0039535252 1.6219353e-07 3.2752255e-25)
(-0.0039298803 1.4942885e-07 -1.3842036e-24)
(-0.0039043729 1.3537575e-07 7.8551657e-25)
(-0.00387702 1.2039534e-07 2.1308219e-25)
(-0.0038478927 1.0557148e-07 -1.5341076e-25)
(-0.0038170578 8.9742334e-08 -1.5111061e-25)
(-0.0037846054 7.4970565e-08 3.2135292e-17)
(-0.0037505809 5.9423984e-08 3.3144862e-17)
(-0.0037150371 4.4645883e-08 1.9445157e-24)
(-0.0036780572 2.9353364e-08 -1.5751154e-25)
(-0.0036397267 1.423025e-08 -1.8244913e-25)
(-0.0036001272 4.8315344e-10 -1.3279047e-25)
(-0.0035592961 -1.4658964e-08 -1.0960246e-26)
(-0.0035173104 -2.7836979e-08 -4.5094923e-25)
(-0.0034742293 -4.2265772e-08 -2.0756763e-25)
(-0.0034301349 -5.4643031e-08 7.2086753e-25)
(-0.0033850706 -6.8661673e-08 3.9546955e-26)
(-0.0033391069 -8.1092393e-08 3.9613543e-25)
(-0.0032922904 -9.4060474e-08 -6.5595456e-25)
(-0.0032446949 -1.0632345e-07 9.182139e-26)
(-0.0031963894 -1.1802931e-07 2.1305256e-26)
(-0.0031474209 -1.3080231e-07 4.1756974e-26)
(-0.0030978182 -1.4197819e-07 4.0931765e-27)
(-0.0030476098 -1.5528198e-07 2.6822628e-25)
(-0.0029968824 -1.6508185e-07 -1.1858807e-25)
(-0.0029456893 -1.7765256e-07 -6.4189669e-25)
(-0.0028940804 -1.8717693e-07 1.2343382e-24)
(-0.0028420946 -1.9871002e-07 -1.7878358e-24)
(-0.002789811 -2.0745065e-07 2.9849255e-26)
(-0.0027372653 -2.1775601e-07 9.5409038e-25)
(-0.0026845251 -2.2621164e-07 -2.7110862e-25)
(-0.0026316202 -2.3608002e-07 6.491467e-25)
(-0.0025785913 -2.4332664e-07 -2.7377301e-25)
(-0.0025254714 -2.5104171e-07 -1.7492106e-26)
(-0.0024723232 -2.5828773e-07 -3.1088437e-25)
(-0.0024192281 -2.6316643e-07 -3.1964542e-25)
(-0.0023662183 -2.7199532e-07 -3.0318426e-25)
(-0.002313312 -2.7602225e-07 1.1518945e-24)
(-0.0022605237 -2.835473e-07 7.5024268e-25)
(-0.0022079408 -2.8608782e-07 1.232488e-24)
(-0.002155605 -2.9448482e-07 -4.8815797e-25)
(-0.0021035444 -2.9930711e-07 -1.3824001e-24)
(-0.0020517195 -3.0650726e-07 -3.3493943e-24)
(-0.0020001793 -3.1249329e-07 6.6064084e-17)
(-0.0019489479 -3.1720361e-07 3.1645345e-20)
(-0.0018980719 -3.254999e-07 -6.7589641e-17)
(-0.0018474726 -3.2889704e-07 -5.1523476e-24)
(-0.0017972243 -3.3339174e-07 7.5238721e-25)
(-0.0017474089 -3.3300224e-07 -8.9868096e-24)
(-0.0016982026 -3.3714286e-07 9.3007526e-24)
(-0.0016494928 -3.4435355e-07 8.6254389e-25)
(-0.0016011554 -3.4910607e-07 -8.4791288e-24)
(-0.0015532569 -3.5036883e-07 4.7033725e-24)
(-0.0015059381 -3.542387e-07 -5.1796217e-24)
(-0.0014591848 -3.5489727e-07 7.639571e-24)
(-0.0014130283 -3.6178219e-07 -1.9551228e-24)
(-0.0013673049 -3.6177899e-07 -3.8370486e-24)
(-0.0013221854 -3.6223332e-07 1.2328984e-24)
(-0.0012775172 -3.6024373e-07 4.9777434e-24)
(-0.0012335822 -3.5521154e-07 -5.7739837e-24)
(-0.0011901591 -3.5227815e-07 5.0490328e-24)
(-0.0011476609 -3.460018e-07 -5.5131754e-24)
(-0.0011057384 -3.4752882e-07 2.8281649e-24)
(-0.00106479 -3.4524257e-07 3.2283612e-24)
(-0.0010242492 -3.4677448e-07 5.2343654e-24)
(-0.00098475522 -3.4071522e-07 -5.9970408e-24)
(-0.00094575057 -3.4332389e-07 -4.1228782e-24)
(-0.00090799586 -3.4333575e-07 5.3046466e-24)
(-0.00087054958 -3.4840282e-07 -1.1291434e-23)
(-0.00083442179 -3.4553789e-07 1.0509085e-23)
(-0.00079858334 -3.501886e-07 -6.2309093e-24)
(-0.00076437197 -3.5359108e-07 5.4271017e-24)
(-0.00073019965 -3.5980284e-07 -6.3112714e-24)
(-0.00069781418 -3.5925058e-07 -4.345225e-24)
(-0.00066527 -3.5939762e-07 3.4422203e-24)
(-0.00063502194 -3.5792187e-07 -4.3984638e-24)
(-0.00060434783 -3.5707452e-07 1.133025e-23)
(-0.00057651516 -3.5164404e-07 -6.8850287e-24)
(-0.00054796183 -3.495652e-07 6.0306998e-24)
(-0.00052309851 -3.4670739e-07 -1.0328657e-23)
(-0.0004970312 -3.4812039e-07 9.6794717e-25)
(-0.00047556951 -3.4240475e-07 3.5795411e-24)
(-0.00045222665 -3.3819489e-07 4.0172232e-24)
(-0.00043489164 -3.2404842e-07 -1.5316828e-23)
(-0.00041503462 -3.2040808e-07 8.9371555e-17)
(-0.00040309568 -3.0823177e-07 8.9892466e-17)
(-0.00038771077 -3.1152811e-07 -4.5692503e-24)
(-0.00038250783 -2.9808895e-07 -6.7988186e-24)
(-0.00037279541 -3.0228126e-07 5.9315e-24)
(-0.00037616395 -2.8378276e-07 1.0785493e-24)
(-0.00037414625 -2.879162e-07 -1.9624586e-24)
(-0.0003884785 -2.6257071e-07 -9.2170399e-17)
(-0.00039558102 -2.700755e-07 -9.2711963e-17)
(-0.00042206351 -5.0512812e-06 -1.6603077e-20)
(-0.00044183115 -2.2746807e-05 1.7230611e-19)
(-0.0004468969 -4.1098975e-05 7.8188089e-20)
(-0.00045491563 -6.0154794e-05 -5.0709862e-19)
(-0.00044471235 -7.6484948e-05 -8.4436292e-20)
(-0.00043771013 -9.2523059e-05 -5.653757e-19)
(-0.00041515763 -0.00010382669 3.7818849e-20)
(-0.0003942854 -0.00011367758 -5.9041009e-21)
(-0.00036059355 -0.00011743602 2.0983223e-19)
(-0.00032674253 -0.00011840289 -1.6504075e-19)
(-0.00028211125 -0.00011225267 5.3815378e-19)
(-0.00023529831 -0.00010172655 -3.6683002e-19)
(-0.00017870989 -8.2985247e-05 -9.9740582e-20)
(-0.00011792223 -5.8002074e-05 -1.8332278e-19)
(-4.7537763e-05 -2.3437739e-05 1.0420042e-18)
(2.962557e-05 1.9831569e-05 2.281666e-19)
(0.00011941469 7.5702213e-05 -8.9028324e-19)
(0.00021668957 0.000141164 -9.7722358e-19)
(0.00032494645 0.00021834116 -1.5618103e-19)
(0.0004408665 0.00030478343 7.5247466e-20)
(0.00056717074 0.00040206474 -1.0497645e-18)
(0.00070131004 0.00050797039 -7.0078148e-20)
(0.00084538294 0.00062345104 -1.9058654e-19)
(0.00099683965 0.00074602838 -1.2483847e-18)
(0.001156934 0.00087587164 1.8937003e-19)
(0.0013228801 0.0010097917 1.0241297e-18)
(0.0014945989 0.0011466503 7.4202039e-19)
(0.0016652534 0.0012806178 -2.7766147e-19)
(0.0018269731 0.0014080003 -1.3739594e-19)
(0.0019847497 0.0015345582 -1.2730494e-19)
(0.0021407326 0.0016621818 2.5957324e-19)
(0.0022978683 0.0017934872 9.1139587e-19)
(0.0024568372 0.0019292625 -9.8958977e-19)
(0.0026210639 0.0020725216 2.651288e-19)
(0.0027902875 0.0022235657 2.748242e-20)
(0.0029696332 0.0023870253 2.4989768e-19)
(0.0031585887 0.002562893 1.4779844e-19)
(0.0033647198 0.0027580152 -6.9247348e-20)
(0.0035888131 0.0029738152 3.4874352e-19)
(0.0038446388 0.0032225375 -4.1670808e-20)
(0.0041484986 0.0035163979 -7.2596918e-19)
(0.0045266773 0.0038613602 -1.7333954e-20)
(0.0049534445 0.0042236951 -4.692008e-19)
(0.0054867815 0.0046475549 4.3467198e-19)
(0.006070445 0.0050733588 3.5541123e-20)
(0.0068074509 0.0055756932 5.2244966e-20)
(0.0076088327 0.0060589172 -1.1997584e-19)
(0.0086482596 0.0066386553 7.1451933e-20)
(0.009780461 0.0071587026 4.5544819e-20)
(0.011300482 0.0077842228 -6.9134627e-21)
(0.012907148 0.0082188056 1.4835061e-19)
(0.014952331 0.0086106981 -1.0469697e-19)
(0.016815591 0.0084817902 -3.7880487e-19)
(0.018764531 0.0079247647 -4.5088567e-19)
(0.018949802 0.0063117854 -8.8167076e-20)
(0.018039966 0.0045274126 1.3275225e-19)
(0.015499545 0.0027698983 -1.6647056e-19)
(0.013337818 0.0015706208 -1.0202715e-19)
(0.009914348 0.00067915717 -2.1625118e-20)
(0.0083984903 0.0002635259 -3.2014159e-20)
(0.0053477462 3.78411e-05 -1.9371262e-20)
(0.005644603 -3.1082409e-05 -1.1063784e-20)
(0.0030443026 -1.3780304e-05 -1.8912756e-21)
(0.018163553 6.8692195e-05 1.4671889e-21)
(0.014412878 6.1843121e-05 3.7158588e-21)
(0.022207177 -0.00014758896 -4.1028962e-21)
(0.018022687 -0.00054812801 3.5940029e-20)
(0.019553495 -0.0013078859 5.2310409e-22)
(0.011873117 -0.0013537627 6.1278451e-20)
(0.0077998988 -0.0013575613 -2.5501189e-20)
(-0.001316433 0.00037489405 4.7002671e-20)
(-0.0047475567 0.0016047732 3.4908628e-20)
(-0.007048474 0.0030000887 -2.7834205e-20)
(-0.0054386676 0.0027546394 -8.5899407e-21)
(-0.004821302 0.0027939062 2.6411451e-21)
(-0.003459187 0.0022138593 6.1863889e-20)
(-0.0030353202 0.0021054969 9.2069809e-21)
(-0.0024852748 0.0018313732 -2.5215692e-20)
(-0.0023539556 0.0018208311 1.1125691e-20)
(-0.0020654722 0.001656559 -6.229054e-21)
(-0.0019968496 0.001648142 -2.2545555e-21)
(-0.0018139608 0.0015267984 -6.0134257e-21)
(-0.0017382339 0.0014827488 1.5227825e-21)
(-0.0015972226 0.001370553 -1.9710256e-21)
(-0.0015203059 0.0013045699 1.4101484e-21)
(-0.0014165738 0.0012071467 1.4484325e-21)
(-0.0013685718 0.0011530727 2.3955475e-21)
(-0.0013194693 0.0010986964 -5.1943665e-22)
(-0.0013012103 0.0010716349 -4.8826366e-22)
(-0.0012870121 0.001049117 -5.5825144e-22)
(-0.0012978339 0.0010479871 2.9126829e-22)
(-0.0013167434 0.001054005 1.5844455e-22)
(-0.0013593713 0.0010796758 1.1187896e-21)
(-0.0014131852 0.0011145528 -2.3155507e-21)
(-0.0014894703 0.0011676692 -1.8025739e-21)
(-0.0015788031 0.0012312459 -4.0324225e-22)
(-0.0016874269 0.0013103723 -9.1632171e-22)
(-0.0018069177 0.0013983624 -3.0177362e-23)
(-0.0019359248 0.0014944548 3.4449565e-21)
(-0.0020599669 0.0015856581 2.7948691e-21)
(-0.002181299 0.0016696094 1.195819e-22)
(-0.0023012932 0.001745828 1.8591909e-21)
(-0.0024174565 0.001811493 1.5679496e-22)
(-0.0025295303 0.0018653537 5.0035598e-25)
(-0.002634735 0.0019062455 -1.7895913e-21)
(-0.0027330159 0.0019323797 -5.0100911e-22)
(-0.0028193117 0.0019385462 -5.4951321e-22)
(-0.0028918838 0.0019252446 1.4948855e-21)
(-0.002945484 0.0018872977 -9.3069997e-21)
(-0.0029845582 0.001828616 3.3460189e-21)
(-0.003005317 0.0017480724 -2.6920508e-21)
(-0.0030288478 0.0016595255 -3.0282309e-22)
(-0.0030479927 0.0015641322 -2.7682834e-21)
(-0.0030598311 0.001461918 1.9613437e-21)
(-0.0030510297 0.0013477832 -1.047889e-20)
(-0.0030328542 0.001228627 -7.3064824e-22)
(-0.0029800381 0.0010961179 2.3097767e-21)
(-0.0029236872 0.00096472164 -6.0569872e-22)
(-0.0028191254 0.00082175799 5.7130455e-21)
(-0.0027294996 0.0006892583 -4.8305243e-21)
(-0.0025765654 0.00054882089 3.0222117e-21)
(-0.0024870871 0.00043055292 -5.0117142e-22)
(-0.0023209529 0.00030837886 5.8356243e-24)
(-0.0023351036 0.00021586953 -1.2902988e-22)
(-0.0022774932 0.00011905426 -2.3985184e-21)
(-0.0027613439 3.8741814e-05 3.414449e-22)
(-0.0036975075 7.3299695e-06 -7.1745108e-25)
(-0.004342979 6.1720491e-06 -1.0158711e-26)
(-0.004994146 5.5288758e-06 -2.2499963e-25)
(-0.0055257308 5.0292093e-06 7.5400716e-25)
(-0.0060500661 4.5561236e-06 -4.6433598e-25)
(-0.0064944514 4.1772036e-06 1.6468686e-25)
(-0.0069253814 3.8222154e-06 1.6471855e-25)
(-0.0073020029 3.5375124e-06 1.5629454e-25)
(-0.0076643242 3.270541e-06 -5.6624707e-25)
(-0.007988829 3.0535012e-06 2.3031434e-25)
(-0.0082997097 2.8514546e-06 1.2717392e-25)
(-0.0085838233 2.684535e-06 9.9291359e-26)
(-0.0088559655 2.5274973e-06 -7.051931e-25)
(-0.0091079766 2.3935228e-06 4.2478445e-25)
(-0.0093491898 2.2659718e-06 -1.6779915e-25)
(-0.0095746143 2.152727e-06 7.4101934e-26)
(-0.0097900959 2.0441893e-06 -8.658975e-26)
(-0.0099926282 1.9454651e-06 7.9616335e-26)
(-0.010185822 1.8501748e-06 3.170899e-26)
(-0.01036787 1.7597746e-06 -2.166001e-26)
(-0.010540984 1.6708949e-06 -8.0236921e-26)
(-0.010704058 1.5845389e-06 -1.4382904e-25)
(-0.010858252 1.4990225e-06 -2.1226749e-25)
(-0.011003063 1.4139057e-06 4.3811784e-25)
(-0.011138509 1.3327934e-06 1.0722758e-25)
(-0.011265993 1.2552452e-06 9.1936088e-25)
(-0.011384917 1.1762506e-06 -1.4711158e-24)
(-0.01149543 1.0983399e-06 1.1221769e-24)
(-0.011597585 1.0204492e-06 -2.931712e-25)
(-0.011691407 9.4355176e-07 -1.2295598e-24)
(-0.011777083 8.6784468e-07 -5.578566e-25)
(-0.011854657 7.928352e-07 5.0824676e-25)
(-0.011924392 7.1917656e-07 3.2955801e-25)
(-0.011986386 6.4650278e-07 1.0403349e-24)
(-0.012040989 5.7570809e-07 8.7057423e-25)
(-0.01208829 5.0809809e-07 -2.5888618e-24)
(-0.012128964 4.4515974e-07 8.704861e-25)
(-0.012163494 3.9037888e-07 5.7344267e-25)
(-0.012193204 3.4010456e-07 1.5659663e-24)
(-0.012217378 2.822058e-07 -3.3899506e-24)
(-0.012235509 2.0899982e-07 1.6519975e-24)
(-0.012244864 9.6691165e-08 7.6259239e-25)
(-0.012239356 -1.1363917e-08 1.4204462e-24)
(-0.012226195 -8.911513e-08 -3.636626e-24)
(-0.012204807 -1.6332032e-07 8.1563736e-25)
(-0.012176527 -2.3131742e-07 2.352512e-25)
(-0.012141311 -2.973485e-07 3.0484737e-24)
(-0.01209955 -3.5934647e-07 -2.6068763e-24)
(-0.012051303 -4.2171162e-07 1.0656059e-24)
(-0.011996794 -4.8241675e-07 -5.8502559e-27)
(-0.011936161 -5.4227421e-07 -3.4234945e-24)
(-0.011869647 -5.9860678e-07 6.4909735e-25)
(-0.01179737 -6.5382292e-07 7.666895e-25)
(-0.011719524 -7.0797178e-07 4.8349487e-25)
(-0.011636197 -7.6067223e-07 1.3197718e-24)
(-0.011547619 -8.1345543e-07 1.2503726e-25)
(-0.011453961 -8.625003e-07 -7.3419547e-25)
(-0.011355467 -9.1114647e-07 4.2871515e-25)
(-0.011252287 -9.5693899e-07 -6.1953784e-25)
(-0.011144613 -1.0034326e-06 2.6719994e-25)
(-0.011032683 -1.0458579e-06 -4.1523022e-25)
(-0.010916711 -1.0866108e-06 9.3092887e-25)
(-0.010796928 -1.1245423e-06 -1.7346566e-24)
(-0.010673478 -1.1619324e-06 -3.8297781e-25)
(-0.010546597 -1.1964941e-06 6.8563337e-25)
(-0.010416438 -1.2293569e-06 1.3111864e-24)
(-0.010283249 -1.2605094e-06 -1.736721e-25)
(-0.010147162 -1.2895124e-06 -3.8351764e-25)
(-0.010008399 -1.3171779e-06 -7.2228964e-25)
(-0.0098670967 -1.3428159e-06 6.6665676e-25)
(-0.0097234792 -1.3671092e-06 -1.6234915e-25)
(-0.0095777174 -1.3887045e-06 -1.3087942e-26)
(-0.0094299616 -1.4099186e-06 -8.3108686e-26)
(-0.009280332 -1.4300396e-06 1.1118788e-26)
(-0.0091289454 -1.4487944e-06 3.9588611e-25)
(-0.0089760468 -1.4651834e-06 -7.1996513e-25)
(-0.0088217824 -1.4799944e-06 -1.193193e-25)
(-0.0086663079 -1.493693e-06 -4.9665693e-25)
(-0.0085097212 -1.5050726e-06 1.462495e-24)
(-0.0083522686 -1.5156203e-06 1.2383303e-24)
(-0.0081940452 -1.5234171e-06 -2.263791e-25)
(-0.0080352489 -1.5306751e-06 -3.1091976e-24)
(-0.0078759694 -1.5355473e-06 -1.8528474e-24)
(-0.0077163542 -1.5408807e-06 2.7160013e-24)
(-0.0075565093 -1.5430039e-06 4.2059906e-24)
(-0.0073966119 -1.5437571e-06 -7.1154364e-24)
(-0.0072368406 -1.5421468e-06 1.7577644e-24)
(-0.0070772916 -1.5406743e-06 -1.594103e-25)
(-0.006918067 -1.5391849e-06 3.5221956e-24)
(-0.0067592282 -1.535613e-06 -2.5843075e-24)
(-0.0066009892 -1.5307249e-06 1.2722675e-24)
(-0.0064434192 -1.5247555e-06 1.7868918e-24)
(-0.0062866435 -1.5213283e-06 3.9248419e-24)
(-0.0061306002 -1.5169399e-06 -9.8378442e-24)
(-0.0059754531 -1.5106685e-06 3.9471863e-24)
(-0.005821213 -1.5039291e-06 -1.4726675e-25)
(-0.0056680378 -1.4970427e-06 -6.0160519e-24)
(-0.0055157809 -1.4902954e-06 -2.1654608e-25)
(-0.0053647036 -1.4779813e-06 1.0818077e-23)
(-0.0052149068 -1.4625822e-06 3.2748111e-24)
(-0.005066728 -1.4502851e-06 -7.7091923e-24)
(-0.0049199964 -1.44492e-06 9.6818763e-24)
(-0.0047745619 -1.4350951e-06 1.3109669e-24)
(-0.0046305365 -1.4187578e-06 -8.6125953e-24)
(-0.0044882016 -1.4019963e-06 1.5280522e-23)
(-0.0043474904 -1.3893087e-06 -1.126957e-23)
(-0.0042085782 -1.3761203e-06 1.4976844e-24)
(-0.0040710866 -1.3619338e-06 2.0913286e-24)
(-0.0039354858 -1.3419002e-06 -1.0714815e-23)
(-0.0038013156 -1.3204773e-06 1.1950691e-23)
(-0.0036693775 -1.2951025e-06 2.3429973e-24)
(-0.0035389935 -1.2687372e-06 -6.0936561e-24)
(-0.0034112912 -1.2422423e-06 -6.1846435e-24)
(-0.0032852293 -1.2208415e-06 -1.196428e-23)
(-0.003162039 -1.2006561e-06 2.1774938e-23)
(-0.0030401855 -1.1807405e-06 1.516401e-23)
(-0.0029214735 -1.1528833e-06 -3.2850522e-23)
(-0.0028041499 -1.1325542e-06 3.2728859e-23)
(-0.0026904599 -1.1120506e-06 -9.7533674e-24)
(-0.0025777865 -1.0982327e-06 -1.5183648e-23)
(-0.002469105 -1.0716389e-06 -1.2518687e-23)
(-0.0023612413 -1.0547843e-06 -4.919146e-25)
(-0.0022581594 -1.0346556e-06 2.8339313e-23)
(-0.0021552912 -1.0230862e-06 -2.0993051e-23)
(-0.0020578868 -9.9536933e-07 1.3210949e-23)
(-0.0019600923 -9.7182956e-07 -2.1090579e-23)
(-0.0018691371 -9.3942863e-07 2.348006e-23)
(-0.0017770273 -9.1314588e-07 -1.2975096e-23)
(-0.0016934355 -8.7143286e-07 7.7451892e-24)
(-0.0016077541 -8.3778502e-07 2.6033876e-24)
(-0.0015329926 -7.9346121e-07 -1.3195256e-23)
(-0.0014547531 -7.6119085e-07 1.3727973e-23)
(-0.0013902956 -7.0611554e-07 -1.9159629e-25)
(-0.0013204687 -6.5890597e-07 5.3367791e-24)
(-0.0012685498 -5.8112058e-07 -2.4944382e-23)
(-0.0012092306 -5.2285725e-07 1.6864641e-23)
(-0.0011733841 -4.3288961e-07 5.3990213e-24)
(-0.0011274409 -3.7153674e-07 -2.5301551e-23)
(-0.0011118018 -2.5857647e-07 2.492947e-23)
(-0.0010829881 -1.7984138e-07 1.7271597e-23)
(-0.0010931174 -2.6270593e-08 -2.5564418e-23)
(-0.0010875324 7.7248276e-08 2.0148522e-23)
(-0.001130657 2.6796685e-07 -2.8585253e-23)
(-0.001152821 3.7768685e-07 -3.0368352e-23)
(-0.0012327965 -1.358848e-05 4.3077527e-20)
(-0.0012921097 -6.6187396e-05 1.8756914e-20)
(-0.0013070138 -0.00012062373 9.0716756e-21)
(-0.0013301488 -0.00017714842 6.0219696e-19)
(-0.0012989556 -0.00022549199 3.0092005e-19)
(-0.0012769178 -0.0002728305 1.3851964e-18)
(-0.001208535 -0.00030598822 1.2248377e-18)
(-0.0011448894 -0.000334643 -3.1858087e-19)
(-0.0010430109 -0.0003450366 -3.9654816e-19)
(-0.00094047907 -0.00034691497 8.7607972e-20)
(-0.00080577802 -0.00032744659 -2.8372315e-19)
(-0.00066445439 -0.0002947215 2.2768556e-19)
(-0.00049395569 -0.00023734178 -2.5360998e-19)
(-0.00031085102 -0.00016111873 -1.1272034e-19)
(-9.9089186e-05 -5.6135128e-05 -8.250525e-19)
(0.00013293699 7.506814e-05 1.9331288e-18)
(0.0004025329 0.00024397929 7.3396986e-19)
(0.00069443097 0.00044174289 4.7672289e-20)
(0.0010189414 0.00067454946 -5.0425598e-19)
(0.0013661951 0.00093519493 -5.9230849e-19)
(0.0017442874 0.0012282628 1.2584559e-18)
(0.0021457519 0.0015472228 -2.2773681e-18)
(0.0025767323 0.0018947996 5.0748118e-19)
(0.0030298429 0.0022636531 -2.5146474e-19)
(0.0035087413 0.0026542315 4.1163458e-19)
(0.00400491 0.0030570206 -9.372699e-19)
(0.0045178726 0.0034685388 -2.6629216e-19)
(0.0050277314 0.00387145 -6.0291353e-19)
(0.0055117767 0.0042550253 3.8317377e-19)
(0.0059845569 0.0046362576 -8.2988554e-19)
(0.0064521355 0.0050207952 -4.5362322e-19)
(0.0069230841 0.0054163827 -8.1241806e-19)
(0.0073993843 0.0058255139 4.049892e-20)
(0.007891035 0.0062570891 9.7551607e-19)
(0.0083975005 0.0067121487 -3.7627584e-19)
(0.0089338452 0.0072043607 4.3896147e-19)
(0.0094987574 0.0077339335 -2.7967e-19)
(0.010114305 0.0083211433 -1.3632406e-18)
(0.010783226 0.0089705112 2.534217e-19)
(0.011545839 0.0097183771 1.5329982e-19)
(0.012450302 0.010601213 1.2874664e-18)
(0.013568958 0.011632953 -2.2407743e-19)
(0.014834337 0.012718418 2.2950221e-19)
(0.016416221 0.013986859 -3.8431419e-20)
(0.018149986 0.015262172 -1.3574936e-19)
(0.020337028 0.016762891 -3.6417335e-19)
(0.022718749 0.018207911 5.0379562e-20)
(0.02579991 0.019935061 -6.4451361e-20)
(0.02916116 0.021486692 7.0785307e-20)
(0.033658977 0.02334021 2.5017787e-21)
(0.038423485 0.024630861 -1.8019116e-19)
(0.044460093 0.025772953 2.6748901e-19)
(0.049985067 0.025377185 1.0152472e-19)
(0.055742247 0.023691683 5.4307652e-19)
(0.056442332 0.018917292 -2.7782291e-19)
(0.053949209 0.013618759 2.7811119e-19)
(0.046682015 0.0083925398 -1.2982039e-19)
(0.040373466 0.0047908185 -3.7607319e-19)
(0.030358794 0.0021074252 -9.5430576e-20)
(0.02577173 0.00083499305 8.9661263e-21)
(0.016770507 0.00013651384 3.0670918e-20)
(0.017456086 -8.1011045e-05 5.7656126e-21)
(0.01002144 -4.4531653e-05 6.8462625e-21)
(0.030774488 9.9719795e-05 1.37305e-21)
(0.025018932 8.984116e-05 -1.2721507e-21)
(0.037444911 -0.00026018436 -4.3903496e-22)
(0.030749945 -0.00092655003 -1.8080839e-20)
(0.03309728 -0.0021856614 5.3123696e-20)
(0.020543636 -0.0022971776 -4.0847033e-20)
(0.013635845 -0.0023136865 2.5294814e-20)
(-0.0015662625 0.00052380426 -9.9894152e-20)
(-0.0075978756 0.00260368 4.8218153e-20)
(-0.011652753 0.0049672438 1.1276521e-21)
(-0.0090956347 0.0046020229 1.2069264e-20)
(-0.0080830377 0.0046755693 -1.4238407e-20)
(-0.005825012 0.0037214608 -6.148287e-20)
(-0.0051091433 0.0035394493 1.7989988e-20)
(-0.0041900619 0.0030852233 2.7056225e-20)
(-0.0039655139 0.0030653092 -2.9721444e-21)
(-0.003483454 0.0027925758 2.5858644e-21)
(-0.0033657788 0.0027767243 4.7947645e-21)
(-0.003060124 0.0025746893 1.2851288e-20)
(-0.0029319376 0.0024998537 -6.2429961e-21)
(-0.0026962403 0.0023125811 -5.5923426e-21)
(-0.002566809 0.0022015017 -8.0826788e-22)
(-0.0023934795 0.0020387841 1.6854833e-21)
(-0.0023128039 0.0019479505 -2.6526116e-21)
(-0.0022309935 0.001857203 5.6614016e-23)
(-0.0022006045 0.0018120331 -5.846975e-22)
(-0.0021775529 0.0017748368 4.2376782e-22)
(-0.0021962734 0.0017734381 2.7529665e-22)
(-0.0022288684 0.0017842664 1.7615991e-23)
(-0.0023011451 0.0018280166 5.2783415e-22)
(-0.002392387 0.0018873733 -2.6048231e-22)
(-0.0025212494 0.0019772572 -3.00455e-22)
(-0.0026720322 0.0020847712 -1.4178269e-21)
(-0.0028550134 0.0022182149 6.5178512e-23)
(-0.0030560968 0.0023664687 -4.0091682e-21)
(-0.0032729656 0.0025280838 -3.0979781e-21)
(-0.0034817432 0.0026815107 -6.3746772e-22)
(-0.0036859686 0.0028226975 1.7769847e-22)
(-0.0038877181 0.00295078 2.6010563e-22)
(-0.0040828953 0.0030610302 -6.9765827e-22)
(-0.0042707968 0.0031514127 5.494497e-24)
(-0.0044482365 0.0032197979 2.8420236e-21)
(-0.0046140449 0.0032635324 2.2253025e-21)
(-0.0047592114 0.0032736073 1.3585886e-23)
(-0.0048823686 0.003250813 -1.2015012e-20)
(-0.0049733237 0.0031870163 4.709492e-21)
(-0.005039942 0.0030882066 6.4974631e-21)
(-0.0050765228 0.0029530664 5.9353579e-21)
(-0.0051176786 0.002804259 9.9679259e-22)
(-0.0051518705 0.0026438845 -2.7299169e-21)
(-0.0051739333 0.0024718715 1.0297723e-20)
(-0.0051620234 0.0022799624 2.7588432e-21)
(-0.0051344964 0.0020793208 1.2738015e-21)
(-0.0050497799 0.0018564561 1.133663e-20)
(-0.0049588779 0.0016349329 -6.4524704e-21)
(-0.0047889272 0.0013944161 -6.8198866e-21)
(-0.0046432084 0.0011706592 1.7573659e-21)
(-0.0043944017 0.00093423749 -1.7689151e-21)
(-0.0042500124 0.0007338993 1.0236512e-21)
(-0.0039827611 0.00052806394 3.240278e-22)
(-0.0040137695 0.00037071853 -1.4514226e-22)
(-0.0039367756 0.00020830351 1.4779664e-22)
(-0.0047552912 7.5151915e-05 -4.9169677e-22)
(-0.0063146904 2.2025493e-05 6.8655277e-25)
(-0.0073983489 1.8342329e-05 -9.4807643e-27)
(-0.008486623 1.6539048e-05 -1.8160373e-25)
(-0.0093776553 1.4909608e-05 4.9390975e-25)
(-0.010253583 1.3557566e-05 -2.0999995e-25)
(-0.010997552 1.2337184e-05 -2.3135998e-25)
(-0.011717285 1.1308051e-05 5.1738335e-25)
(-0.012347315 1.0399516e-05 -2.4613405e-25)
(-0.012952405 9.6183148e-06 -2.4103648e-25)
(-0.013494933 8.9294176e-06 -2.239563e-25)
(-0.014013945 8.3319281e-06 1.5878471e-25)
(-0.014488711 7.8065289e-06 5.9672261e-26)
(-0.014942993 7.3370493e-06 1.0961186e-25)
(-0.015363825 6.9148194e-06 -1.7801482e-25)
(-0.015766304 6.5300287e-06 1.9934844e-26)
(-0.016142497 6.1754061e-06 -2.1905698e-25)
(-0.016501845 5.846457e-06 1.3594749e-25)
(-0.016839572 5.538108e-06 -3.9807441e-26)
(-0.017161512 5.2466126e-06 9.4287775e-26)
(-0.017464813 4.96684e-06 -4.3566934e-26)
(-0.017753052 4.6967648e-06 -6.1717507e-26)
(-0.01802447 4.4322124e-06 4.5672479e-25)
(-0.018280953 4.1728275e-06 -3.3599836e-25)
(-0.018521672 3.9107905e-06 2.8901422e-25)
(-0.018746465 3.665906e-06 -1.7830817e-25)
(-0.018958062 3.4331607e-06 -1.0530344e-25)
(-0.019155276 3.1952719e-06 4.4623901e-25)
(-0.019338357 2.9598319e-06 5.6582608e-25)
(-0.019507397 2.7257869e-06 -2.0479121e-24)
(-0.019662455 2.4952429e-06 1.6215395e-24)
(-0.019803837 2.2677849e-06 -4.5379929e-25)
(-0.019931638 2.0447588e-06 -1.6209349e-24)
(-0.020046294 1.8257599e-06 6.8751359e-25)
(-0.020147988 1.6133198e-06 2.4370153e-24)
(-0.0202373 1.4059176e-06 -4.3476456e-25)
(-0.020314398 1.2097552e-06 -7.0254721e-25)
(-0.020380407 1.0291034e-06 -6.2322004e-25)
(-0.020436227 8.728981e-07 -7.1503183e-25)
(-0.020483876 7.2776626e-07 1.4869694e-24)
(-0.02052232 5.6328478e-07 -7.6143548e-25)
(-0.020550904 3.5431594e-07 -1.1081741e-24)
(-0.020564752 2.2646307e-08 1.7649294e-24)
(-0.020553367 -2.922037e-07 -9.2085347e-25)
(-0.020529154 -5.172786e-07 -1.0212479e-24)
(-0.020491209 -7.2805809e-07 1.0022651e-24)
(-0.020441736 -9.2331199e-07 1.7528839e-24)
(-0.020380667 -1.1110836e-06 2.3060922e-25)
(-0.020308635 -1.2932501e-06 -1.4915728e-24)
(-0.02022576 -1.4701921e-06 -1.2578305e-24)
(-0.020132428 -1.6436828e-06 4.1493822e-24)
(-0.020028874 -1.8111822e-06 -6.5841915e-24)
(-0.019915478 -1.9733112e-06 5.6075942e-24)
(-0.019792433 -2.1293895e-06 -4.8085946e-24)
(-0.019660082 -2.2829496e-06 1.8983473e-24)
(-0.019518597 -2.4317335e-06 9.0192901e-25)
(-0.019368375 -2.5771287e-06 2.331089e-25)
(-0.019209686 -2.7149261e-06 -1.6881114e-24)
(-0.019042921 -2.8483681e-06 1.0458029e-24)
(-0.018868338 -2.9756816e-06 -9.9725271e-25)