/*--------------------------------*- C++ -*----------------------------------*\
| =========                 |                                                 |
| \\      /  F ield         | OpenFOAM: The Open Source CFD Toolbox           |
|  \\    /   O peration     | Version:  2.4.0                                 |
|   \\  /    A nd           | Web:      www.OpenFOAM.org                      |
|    \\/     M anipulation  |                                                 |
\*---------------------------------------------------------------------------*/
FoamFile
{
    version     2.0;
    format      ascii;
    class       volScalarField;
    location    "30000";
    object      p;
}
// * * * * * * * * * * * * * * * * * * * * * * * * * * * * * * * * * * * * * //

dimensions      [0 2 -2 0 0 0 0];

internalField   nonuniform List<scalar> 
15600
(
4.7344219e-10
-0.11279305
-5.163786e-05
-0.11277908
-9.9623383e-05
-0.11276425
-0.00014669148
-0.11274159
-0.00018085079
-0.11270114
-0.00018172006
-0.11262081
-0.00013407188
-0.11248006
-4.568486e-05
-0.11227981
6.0888089e-05
-0.11203951
0.00016891686
-0.11177703
0.00027233423
-0.11149913
0.00037080918
-0.11120444
0.00046785816
-0.11088722
0.00056965148
-0.11053997
0.00068322919
-0.11015493
0.00081507602
-0.10972519
0.00097047512
-0.10924559
0.0011528221
-0.10871266
0.001364378
-0.10812236
0.0016014894
-0.10745941
0.081950258
0.080350856
0.082722433
0.082267065
0.082312
0.081129734
0.079881304
0.078367681
0.076942452
0.07559488
0.074198219
0.073051419
0.071607327
0.070624437
0.068841466
0.06815419
0.065383898
0.06456039
0.059167299
0.057996109
0.047090659
0.044241744
0.023013358
0.026430274
-0.020428431
-0.04555762
-0.083495412
0.081951966
0.080351748
0.082723706
0.082265837
0.08231078
0.081127709
0.079879657
0.078366448
0.076941535
0.075594039
0.074197477
0.073050771
0.071606655
0.070623691
0.068840653
0.068152863
0.065381893
0.064557472
0.059163173
0.057986089
0.047076907
0.044214
0.023000744
0.026393804
-0.020415183
-0.045503856
-0.083466776
0.081953458
0.080352361
0.082724778
0.082264534
0.082309503
0.081125664
0.079877968
0.078365145
0.076940547
0.075593163
0.074196721
0.073050147
0.071606029
0.070623045
0.06883993
0.068151719
0.065380065
0.064554912
0.059159398
0.057977141
0.047064725
0.044189745
0.022991515
0.026365457
-0.020395116
-0.045438653
-0.083429149
0.081954478
0.080352625
0.082725505
0.082262893
0.082307817
0.081123154
0.079875805
0.078363407
0.076939178
0.075591972
0.074195722
0.073049352
0.071605305
0.070622349
0.06883922
0.068150587
0.065378292
0.064552371
0.059155704
0.05796803
0.047052538
0.044165103
0.022984956
0.026340688
-0.020366029
-0.045344445
-0.083371438
0.081954717
0.080352374
0.082725563
0.082260633
0.082305407
0.081119884
0.079872902
0.078361004
0.076937233
0.075590308
0.074194362
0.073048303
0.071604437
0.070621587
0.068838529
0.06814946
0.065376557
0.064549804
0.059152024
0.057958666
0.04704013
0.04414026
0.022981619
0.026320669
-0.020322514
-0.045200989
-0.083278282
0.081953822
0.080351367
0.082724585
0.082257407
0.082301916
0.081115518
0.079868957
0.078357679
0.076934493
0.075587995
0.074192511
0.073046914
0.071603383
0.070620752
0.068837877
0.068148357
0.065374873
0.064547214
0.059148352
0.057949018
0.047027459
0.044115472
0.022982418
0.026305461
-0.020256523
-0.044981704
-0.083123151
0.081951434
0.080349362
0.082722141
0.082252804
0.082296933
0.08110968
0.079863643
0.078353155
0.076930728
0.075584853
0.074190041
0.073045109
0.071602114
0.07061986
0.068837312
0.068147327
0.065373295
0.064544656
0.059144739
0.057939139
0.047014578
0.044091179
0.022988367
0.026294206
-0.020156256
-0.044655787
-0.082881004
0.081947315
0.080346197
0.082717795
0.082246379
0.082290013
0.081101971
0.079856634
0.07834717
0.07692573
0.075580732
0.074186858
0.073042848
0.071600648
0.070618979
0.068836939
0.068146478
0.06537194
0.064542254
0.059141316
0.057929125
0.047001501
0.044067735
0.023000414
0.026284539
-0.020006532
-0.044198862
-0.082543549
0.081941443
0.080341878
0.082711183
0.082237699
0.082280721
0.081092013
0.079847639
0.078339518
0.076919359
0.075575551
0.074182946
0.073040175
0.07159909
0.070618268
0.068836958
0.068146015
0.065371036
0.064540239
0.05913827
0.057919
0.046987894
0.044045021
0.023019355
0.026272418
-0.019792848
-0.043602519
-0.082120003
0.081933955
0.080336567
0.082702019
0.082226351
0.082268619
0.081079425
0.079836395
0.078330034
0.076911535
0.075569304
0.074178373
0.073037227
0.071597647
0.070617996
0.068837683
0.068146261
0.065370909
0.064538882
0.059135657
0.057908345
0.046972552
0.044022039
0.023046519
0.026254573
-0.019506477
-0.04287223
-0.081624054
0.081924787
0.080330326
0.082689921
0.082211782
0.082253115
0.081063672
0.079822504
0.07831846
0.076902118
0.07556196
0.074173208
0.073034163
0.071596565
0.070618484
0.068839482
0.068147578
0.06537186
0.064538267
0.059133035
0.057895916
0.046953338
0.043997335
0.023085848
0.026239041
-0.019145555
-0.042017781
-0.081064833
0.081913236
0.080322718
0.082674077
0.082193025
0.082233197
0.081043814
0.079805189
0.078304195
0.076890674
0.075553233
0.074167311
0.073030972
0.071595948
0.070619922
0.06884259
0.068150171
0.065373896
0.064537982
0.059129258
0.057879864
0.046928216
0.043970714
0.02314492
0.026239778
-0.018713223
-0.041048641
-0.080447089
0.081897923
0.080312639
0.082653101
0.082168584
0.082207344
0.081018407
0.079783167
0.078286142
0.076876296
0.075542399
0.07416013
0.07302726
0.071595534
0.070622148
0.068846885
0.068153855
0.065376517
0.064537076
0.059122884
0.057858773
0.046896748
0.043944703
0.023235419
0.026263899
-0.018217315
-0.039971719
-0.079773428
0.081877356
0.080298685
0.082625343
0.082136753
0.082173839
0.080985793
0.079754893
0.07826289
0.076857718
0.075528342
0.074150705
0.073022217
0.071594639
0.070624569
0.068851813
0.068158011
0.065378847
0.064534539
0.059113088
0.057832681
0.046860542
0.043924273
0.023368067
0.026316301
-0.017666933
-0.038792331
-0.079045274
0.081850668
0.080279799
0.082589518
0.082096209
0.082131351
0.080944673
0.079719094
0.078233206
0.076833758
0.075509937
0.074137984
0.073014884
0.071592382
0.07062638
0.068856618
0.068161893
0.065380165
0.064530019
0.059100253
0.057803008
0.046822306
0.043915665
0.023545671
0.02640183
-0.017070325
-0.037515164
-0.078263103
0.081817919
0.080255694
0.08254514
0.082046438
0.082079355
0.080894524
0.079675208
0.078196487
0.076803772
0.075486508
0.074121279
0.07300458
0.071588117
0.070626988
0.068860786
0.068165123
0.065380428
0.064524101
0.059085677
0.057771625
0.04678482
0.043926089
0.023761845
0.02652587
-0.016434273
-0.036145189
-0.077426585
0.081779837
0.080226793
0.082492514
0.081987756
0.082018162
0.080835658
0.079623489
0.078152921
0.076767874
0.075458084
0.074100548
0.072991214
0.07158174
0.070626322
0.068864351
0.068167932
0.065380303
0.064517875
0.059070767
0.057740011
0.046750635
0.04396444
0.024002706
0.026692997
-0.015764641
-0.034688777
-0.076534676
0.081737356
0.08019383
0.082432366
0.081920857
0.081948456
0.080768762
0.079564594
0.078103141
0.076726672
0.075425237
0.074076328
0.072975301
0.071573769
0.070624957
0.068867992
0.068171215
0.065380941
0.064512712
0.059056944
0.057709852
0.04672304
0.044042677
0.024254137
0.026907053
-0.015063794
-0.033151504
-0.075585915
0.081691244
0.080157528
0.082365692
0.081847007
0.081871774
0.080695605
0.079500344
0.078048967
0.076681896
0.075389562
0.074050043
0.07295813
0.071565346
0.07062401
0.068872816
0.068176339
0.065383827
0.064510486
0.05904612
0.057683906
0.046707412
0.044178443
0.024504748
0.027186009
-0.01432303
-0.031532838
-0.074575168
0.081641369
0.080118049
0.082289993
0.081762024
0.081781562
0.080609176
0.079423684
0.077983925
0.07662801
0.075347044
0.07401928
0.07293907
0.071557548
0.070626208
0.068882285
0.068187317
0.065392896
0.064515974
0.059043443
0.057669623
0.046713184
0.044364568
0.024683002
0.027487992
-0.013575029
-0.029918903
-0.073557739
0.20495992
0.2021966
0.19880434
0.19569241
0.19207662
0.18859399
0.18472487
0.1808755
0.17672676
0.17252445
0.16808313
0.16355012
0.1588224
0.15399325
0.14900799
0.14394021
0.13875669
0.13353443
0.12824082
0.12298146
0.11769915
0.11256134
0.10744389
0.10263742
0.097865972
0.093676339
0.08945768
0.086316418
0.082862414
0.08158455
0.078906884
0.20495914
0.20219579
0.19880359
0.19569168
0.19207594
0.18859336
0.18472431
0.18087501
0.17672636
0.17252414
0.16808292
0.16355003
0.15882244
0.15399342
0.14900831
0.14394068
0.13875733
0.13353525
0.12824181
0.12298264
0.11770051
0.11256289
0.10744561
0.10263933
0.097868021
0.093678588
0.089460027
0.086319057
0.082865039
0.081588085
0.078909377
0.20495838
0.20219503
0.19880285
0.19569098
0.19207527
0.18859274
0.18472374
0.18087451
0.17672593
0.1725238
0.16808267
0.16354988
0.15882239
0.1539935
0.14900852
0.14394104
0.13875783
0.13353591
0.12824263
0.12298362
0.11770165
0.11256421
0.10744708
0.10264097
0.097869793
0.093680553
0.089462079
0.086321399
0.082867362
0.081591274
0.078911533
0.20495762
0.20219426
0.19880212
0.19569028
0.19207462
0.18859214
0.18472319
0.18087403
0.17672552
0.17252348
0.16808245
0.16354976
0.15882239
0.15399361
0.14900877
0.14394143
0.13875837
0.1335366
0.12824348
0.12298465
0.11770284
0.11256556
0.10744858
0.10264264
0.097871586
0.093682523
0.089464125
0.0863237
0.082869639
0.08159431
0.078913466
0.20495684
0.20219348
0.19880136
0.19568957
0.19207394
0.18859152
0.18472264
0.18087355
0.17672512
0.17252317
0.16808224
0.16354966
0.15882241
0.15399377
0.14900907
0.14394188
0.13875898
0.13353738
0.12824442
0.12298575
0.11770411
0.112567
0.10745017
0.10264439
0.09787345
0.093684547
0.089466214
0.086326007
0.082871908
0.081597222
0.078915226
0.20495597
0.20219261
0.19880053
0.19568878
0.19207321
0.18859085
0.18472204
0.18087304
0.17672471
0.17252287
0.16808206
0.16354962
0.15882252
0.15399404
0.14900951
0.1439425
0.13875977
0.13353836
0.12824559
0.12298711
0.11770564
0.11256871
0.10745203
0.10264641
0.097875573
0.093686802
0.089468503
0.086328452
0.082874274
0.081600068
0.078916833
0.20495489
0.20219154
0.19879949
0.19568779
0.19207227
0.18859001
0.1847213
0.18087241
0.17672422
0.17252254
0.16808191
0.16354967
0.15882278
0.15399453
0.14901025
0.14394349
0.13876102
0.13353988
0.12824736
0.12298913
0.11770789
0.11257117
0.10745466
0.1026492
0.097878445
0.093689758
0.089471432
0.086331425
0.082877067
0.081603091
0.078918426
0.20495331
0.20218992
0.19879789
0.19568624
0.19207078
0.18858862
0.18472004
0.18087133
0.17672334
0.1725219
0.16808155
0.16354961
0.15882307
0.15399519
0.1490113
0.14394495
0.13876291
0.13354219
0.12825009
0.12299226
0.11771138
0.11257499
0.10745874
0.10265349
0.097882853
0.093694219
0.089475799
0.086335688
0.082880977
0.081606873
0.078920398
0.20495075
0.20218722
0.19879513
0.19568348
0.19206804
0.18858598
0.18471752
0.18086901
0.17672127
0.17252014
0.16808015
0.16354864
0.15882258
0.15399524
0.14901194
0.14394622
0.13876484
0.1335448
0.12825338
0.12299622
0.11771598
0.11258018
0.10746444
0.10265962
0.09788927
0.093700804
0.089482347
0.086342072
0.082886888
0.08161228
0.078923448
0.20494656
0.2021827
0.19879041
0.19567865
0.19206311
0.18858105
0.18471262
0.18086425
0.1767167
0.17251585
0.16807623
0.16354517
0.15881965
0.15399293
0.14901035
0.14394543
0.13876491
0.1335458
0.12825536
0.12299922
0.11771998
0.11258519
0.10747038
0.10266644
0.097896821
0.093708944
0.08949082
0.086350661
0.082895208
0.08161997
0.07892838
0.20494004
0.20217562
0.19878296
0.1956709
0.19205505
0.18857284
0.18470425
0.18085586
0.17670832
0.17250762
0.16806821
0.16353749
0.1588124
0.15398624
0.14900433
0.14394022
0.13876063
0.13354257
0.12825328
0.12299841
0.11772051
0.11258713
0.10747373
0.10267124
0.097903002
0.093716436
0.089499377
0.086360085
0.0829051
0.081629664
0.078935584
0.20493059
0.20216536
0.19877214
0.19565962
0.19204326
0.18856071
0.18469175
0.18084314
0.1766954
0.17249463
0.16805523
0.16352464
0.15879978
0.15397401
0.14899262
0.14392918
0.13875043
0.13353337
0.12824524
0.1229917
0.11771528
0.11258356
0.10747191
0.10267134
0.097905031
0.093720528
0.089505366
0.086367956
0.082914563
0.081639895
0.078944568
0.20491771
0.20215148
0.19875757
0.19564446
0.19202742
0.18854439
0.1846749
0.18082592
0.17667781
0.17247681
0.16803724
0.16350661
0.15878182
0.15395627
0.14897524
0.14391235
0.1387343
0.13351815
0.1282311
0.12297887
0.11770392
0.11257393
0.10746415
0.10266572
0.097901647
0.093719696
0.089507026
0.086372351
0.082921586
0.081648748
0.07895408
0.20490114
0.20213373
0.19873903
0.19562524
0.19200741
0.18852382
0.18465367
0.18080424
0.17665565
0.17245435
0.16801451
0.16348377
0.15875897
0.15393358
0.14895286
0.14389047
0.13871309
0.13349782
0.12821184
0.12296091
0.11768746
0.11255922
0.10745137
0.10265517
0.097893453
0.093714278
0.089504375
0.08637291
0.082925372
0.081655017
0.078962848
0.20488076
0.202112
0.19871644
0.19560189
0.19198317
0.18849897
0.18462809
0.18077815
0.17662904
0.17242739
0.16798726
0.1634564
0.15873159
0.15390637
0.148926
0.14386416
0.13868751
0.1334732
0.12818839
0.12293888
0.11766704
0.1125407
0.10743489
0.10264107
0.097881833
0.093705595
0.089498601
0.086370571
0.082926475
0.081658717
0.078970316
0.20485655
0.20208627
0.19868977
0.19557439
0.19195471
0.18846983
0.18459816
0.18074768
0.17659801
0.172396
0.16795558
0.16342461
0.15869984
0.15387485
0.1488949
0.14383372
0.13865794
0.13344475
0.12816127
0.12291338
0.11764337
0.11251915
0.10741563
0.10262445
0.097867925
0.093694867
0.089490984
0.086366591
0.082926044
0.081660673
0.078976802
0.20482849
0.20205653
0.19865901
0.19554271
0.19192199
0.18843639
0.18456387
0.18071282
0.17656257
0.17236019
0.16791948
0.16338845
0.15866375
0.15383908
0.14885965
0.14379926
0.1386245
0.13341262
0.12813069
0.12288467
0.11761675
0.11249496
0.10739404
0.10260582
0.097852353
0.093682817
0.089482362
0.086361888
0.082925078
0.081661816
0.078983084
0.20479661
0.20202277
0.19862415
0.19550686
0.19188501
0.18839863
0.18452521
0.18067356
0.17652269
0.17231995
0.16787896
0.16334789
0.15862332
0.15379905
0.14882026
0.14376079
0.13858722
0.13337684
0.1280967
0.1228528
0.11758727
0.11246824
0.10737027
0.10258539
0.097835366
0.093669753
0.089473128
0.086356936
0.082924166
0.08166279
0.078989912
0.20476093
0.20198505
0.19858523
0.19546688
0.19184382
0.18835661
0.18448224
0.18062994
0.17647844
0.17227533
0.16783408
0.163303
0.15857863
0.15375483
0.14877678
0.14371838
0.13854617
0.13333749
0.12805937
0.12281786
0.11755501
0.11243905
0.10734438
0.10256323
0.097817048
0.093655773
0.089463407
0.086351877
0.082923527
0.081663851
0.078997694
0.20472123
0.20194302
0.19854193
0.19542236
0.19179804
0.18830986
0.18443449
0.18058147
0.1764293
0.17222578
0.16778427
0.1632532
0.15852906
0.15370581
0.14872862
0.14367142
0.13850074
0.13329399
0.12801814
0.12277931
0.1175195
0.11240699
0.10731607
0.10253907
0.097797275
0.093640793
0.089453319
0.086346807
0.082923652
0.081665256
0.079007566
0.10709019
0.19366167
0.13706905
0.15913612
0.14198624
0.1445838
0.13807349
0.13636017
0.13278048
0.13050392
0.12801903
0.12605214
0.12424741
0.12275655
0.12149524
0.12048314
0.11970444
0.11913187
0.11877937
0.11861218
0.1186453
0.11883967
0.11921353
0.11973619
0.12040778
0.12120185
0.12214917
0.12316875
0.12439801
0.12563304
0.12707593
0.12855566
0.13014493
0.13179717
0.13352425
0.13531117
0.13715597
0.13905099
0.14099122
0.14297032
0.14498288
0.14702276
0.14908488
0.15116305
0.15325277
0.15534773
0.15744368
0.15953388
0.16161577
0.16368083
0.1657303
0.16774977
0.16975176
0.17170182
0.17365092
0.17549425
0.17741372
0.17906471
0.1810647
0.18233235
0.10709067
0.19366279
0.13706741
0.15913782
0.14198583
0.14458451
0.13807362
0.1363606
0.13278081
0.13050435
0.12801946
0.12605261
0.1242479
0.12275706
0.12149576
0.12048368
0.11970499
0.11913242
0.11877993
0.11861275
0.11864587
0.11884024
0.11921411
0.11973675
0.12040835
0.12120242
0.12214974
0.12316933
0.12439857
0.12563362
0.12707649
0.1285562
0.13014546
0.13179769
0.13352477
0.13531168
0.13715646
0.13905147
0.1409917
0.14297078
0.14498334
0.14702321
0.14908531
0.15116347
0.15325317
0.15534812
0.15744406
0.15953424
0.16161612
0.16368116
0.16573062
0.16775007
0.16975205
0.17170208
0.17365118
0.17549448
0.17741395
0.17906491
0.1810649
0.18233266
0.10709057
0.19366468
0.13706531
0.15913931
0.14198538
0.14458505
0.13807367
0.13636091
0.13278103
0.13050466
0.12801978
0.12605297
0.12424828
0.12275746
0.12149618
0.12048411
0.11970543
0.11913288
0.11878039
0.11861322
0.11864634
0.11884072
0.11921459
0.11973723
0.12040883
0.1212029
0.12215022
0.12316982
0.12439906
0.12563411
0.12707697
0.12855667
0.13014593
0.13179814
0.13352522
0.13531212
0.1371569
0.13905191
0.14099212
0.1429712
0.14498375
0.14702361
0.1490857
0.15116384
0.15325354
0.15534848
0.15744441
0.15953457
0.16161644
0.16368146
0.16573091
0.16775035
0.16975231
0.17170233
0.17365141
0.17549469
0.17741416
0.17906508
0.18106509
0.18233291
0.10709017
0.19366573
0.13706477
0.15913982
0.14198566
0.14458541
0.13807402
0.1363613
0.13278144
0.13050511
0.12802026
0.12605348
0.12424881
0.12275802
0.12149675
0.12048469
0.11970603
0.11913348
0.118781
0.11861383
0.11864696
0.11884134
0.11921521
0.11973785
0.12040945
0.12120351
0.12215084
0.12317043
0.12439966
0.12563472
0.12707757
0.12855726
0.1301465
0.1317987
0.13352577
0.13531266
0.13715743
0.13905243
0.14099264
0.1429717
0.14498424
0.14702409
0.14908617
0.1511643
0.15325398
0.1553489
0.15744482
0.15953497
0.16161682
0.16368183
0.16573127
0.16775068
0.16975263
0.17170263
0.1736517
0.17549496
0.17741442
0.17906532
0.18106533
0.18233318
0.10709101
0.19366781
0.13706765
0.15914105
0.14198862
0.14458744
0.13807661
0.13636367
0.13278398
0.13050763
0.12802285
0.1260561
0.12425146
0.12276068
0.12149942
0.12048737
0.1197087
0.11913614
0.11878364
0.11861645
0.11864956
0.1188439
0.11921774
0.11974035
0.12041191
0.12120593
0.12215322
0.12317277
0.12440197
0.12563697
0.12707978
0.12855942
0.13014861
0.13180077
0.13352779
0.13531463
0.13715935
0.1390543
0.14099447
0.14297348
0.14498597
0.14702578
0.14908781
0.1511659
0.15325553
0.15535041
0.15744628
0.15953639
0.1616182
0.16368317
0.16573256
0.16775194
0.16975385
0.17170381
0.17365284
0.17549606
0.17741549
0.17906635
0.18106635
0.18233418
0.10709719
0.19367623
0.13707879
0.1591479
0.14199938
0.14459624
0.13808666
0.1363733
0.13279399
0.13051761
0.12803298
0.12606626
0.12426168
0.12277091
0.12150965
0.12049757
0.11971887
0.11914625
0.11879369
0.11862642
0.11865944
0.11885368
0.1192274
0.11974989
0.12042131
0.1212152
0.12216235
0.12318175
0.1244108
0.12564564
0.1270883
0.12856777
0.13015679
0.13180879
0.13353564
0.13532232
0.13716688
0.13906166
0.14100166
0.14298052
0.14499284
0.14703248
0.14909436
0.15117229
0.15326177
0.1553565
0.15745223
0.15954218
0.16162386
0.16368868
0.16573794
0.16775718
0.16975897
0.1717088
0.17365772
0.17550082
0.17742013
0.1790709
0.1810708
0.18233852
0.10711416
0.19369804
0.13710461
0.15916689
0.14202475
0.14461859
0.13811113
0.13639716
0.13281855
0.13054218
0.12805784
0.12609122
0.12428678
0.12279605
0.12153484
0.12052274
0.119744
0.1191713
0.11881863
0.11865123
0.11868409
0.11887815
0.11925167
0.11977393
0.1204451
0.12123873
0.12218559
0.12320471
0.12443347
0.12566798
0.12711034
0.12858948
0.13017816
0.13182982
0.13355632
0.13534266
0.13718687
0.1390813
0.14102094
0.14299944
0.14501142
0.1470507
0.14911223
0.1511898
0.15327895
0.15537333
0.15746872
0.15955835
0.1616397
0.1637042
0.16575316
0.16777209
0.16977359
0.17172312
0.17367177
0.17551459
0.17743365
0.17908417
0.18108383
0.18235125
0.10714408
0.19373614
0.13714804
0.15920053
0.14206774
0.14465729
0.13815297
0.13643817
0.13286062
0.13058432
0.12810045
0.12613404
0.12432986
0.12283928
0.12157819
0.12056614
0.11978741
0.11921467
0.11886193
0.11869442
0.11872713
0.118921
0.11929431
0.11981631
0.1204872
0.12128051
0.12222703
0.12324578
0.12447419
0.12570827
0.12715025
0.12862896
0.13021718
0.13186838
0.13359442
0.13538028
0.137224
0.13911793
0.14105707
0.14303505
0.14504652
0.14708528
0.1491463
0.15122335
0.15331198
0.15540585
0.15750074
0.15958985
0.16167071
0.16373471
0.1657832
0.16780163
0.16980268
0.17175174
0.17369996
0.17554233
0.17746096
0.17911108
0.18111033
0.18237724
0.10718295
0.19378331
0.13720539
0.15924271
0.14212352
0.14470661
0.13820673
0.13649064
0.13291459
0.13063837
0.12815523
0.1261892
0.12438551
0.12289528
0.12163454
0.12062278
0.11984431
0.11927175
0.11891915
0.11875162
0.11878428
0.11897805
0.11935122
0.11987305
0.12054371
0.12133678
0.12228301
0.12330145
0.12452957
0.12576326
0.12720491
0.12868323
0.13027102
0.13192178
0.13364736
0.13543273
0.13727596
0.13916939
0.14110801
0.14308547
0.14509639
0.1471346
0.14919507
0.15127158
0.15335966
0.15545297
0.15754731
0.15963585
0.16171618
0.1637796
0.16582756
0.16784543
0.16984596
0.17179446
0.17374218
0.17558402
0.17750216
0.17915178
0.18115054
0.18241681
0.10722125
0.1938257
0.13726543
0.15928024
0.14217973
0.14475351
0.13825947
0.13654138
0.13296721
0.13069099
0.12820876
0.12624322
0.12444021
0.12295052
0.12169036
0.12067911
0.11990116
0.11932906
0.11897687
0.11880961
0.1188425
0.11903645
0.11940979
0.11993176
0.12060249
0.12139563
0.12234188
0.12336034
0.1245885
0.12582212
0.12726378
0.12874202
0.13032969
0.13198033
0.13370576
0.13549097
0.13733401
0.13922723
0.14116563
0.14314283
0.1451535
0.14719143
0.14925153
0.15132758
0.15341521
0.15550804
0.15760191
0.15968996
0.16176981
0.16383273
0.16588021
0.16789756
0.16989763
0.17184561
0.17379286
0.1756342
0.17755185
0.17920104
0.18119927
0.18246491
0.10724932
0.19385675
0.13731813
0.15930455
0.14222716
0.14478911
0.1383021
0.13658123
0.13300916
0.13073268
0.12825136
0.12628618
0.12448379
0.12299455
0.1217349
0.1207241
0.1199466
0.1193749
0.11902318
0.11885644
0.11888985
0.11908426
0.11945809
0.11998051
0.12065166
0.1214452
0.12239181
0.12341065
0.12463922
0.12587312
0.12731518
0.12879373
0.13038164
0.13203254
0.13375819
0.1355436
0.13738683
0.13928021
0.14121875
0.14319608
0.14520685
0.14724486
0.14930495
0.15138085
0.15346833
0.15556097
0.15765466
0.1597425
0.16182214
0.16388482
0.16593208
0.16794916
0.16994899
0.17189668
0.17384368
0.17568473
0.17760208
0.17925101
0.18124887
0.18251402
0.10726505
0.19387876
0.13736544
0.15931758
0.14226824
0.14481567
0.13833706
0.13661262
0.13304294
0.13076595
0.12828554
0.12632062
0.1245188
0.12302994
0.12177071
0.12076029
0.11998315
0.11941175
0.11906038
0.11889406
0.11892789
0.11912268
0.1194969
0.12001967
0.12069113
0.12148499
0.12243185
0.12345098
0.12467989
0.12591397
0.12735639
0.12883516
0.13042324
0.13207431
0.13380011
0.13558566
0.13742901
0.1393225
0.14126114
0.14323853
0.14524936
0.14728743
0.14934764
0.15142373
0.15351137
0.15560415
0.15769796
0.15978589
0.16186562
0.16392835
0.16597566
0.16799275
0.1699926
0.17194026
0.17388724
0.17572822
0.17764549
0.17929438
0.18129203
0.18255687
0.10727142
0.19389286
0.1374115
0.15932155
0.14230633
0.14483592
0.13836743
0.13663855
0.13307171
0.13079402
0.12831464
0.12634999
0.12454881
0.12306037
0.12180165
0.12079165
0.12001496
0.11944393
0.11909293
0.11892693
0.11896106
0.11915611
0.11953061
0.12005362
0.12072526
0.12151931
0.12246629
0.12348559
0.12471472
0.12594884
0.12739152
0.1288704
0.13045849
0.13210963
0.13383544
0.13562101
0.13746436
0.13935784
0.14129646
0.14327382
0.14528461
0.14732261
0.14938283
0.151459
0.15354671
0.15563954
0.15773339
0.15982134
0.16190107
0.16396379
0.16601108
0.16802813
0.17002792
0.17197551
0.1739224
0.17576332
0.17768041
0.17932929
0.18132658
0.18259105
0.10726961
0.19389852
0.13745643
0.15931574
0.1423411
0.14484929
0.13839278
0.13665853
0.133095
0.13081638
0.12833817
0.12637376
0.12457329
0.12308528
0.1218271
0.12081759
0.12004138
0.11947076
0.11912019
0.11895458
0.1189891
0.11918448
0.11955934
0.12008267
0.12075458
0.12154889
0.12249606
0.1235156
0.12474508
0.12597929
0.12742234
0.12890142
0.13048962
0.13214089
0.1338668
0.13565246
0.1374959
0.13938944
0.14132812
0.14330553
0.14531635
0.14735437
0.14941458
0.1514907
0.15357835
0.15567111
0.15776488
0.15985273
0.16193236
0.16399496
0.16604211
0.16805903
0.17005866
0.17200611
0.17395281
0.1757936
0.17771039
0.17935925
0.18135602
0.18261998
0.10725962
0.19389589
0.13750108
0.15930031
0.1423732
0.14485615
0.13841363
0.13667299
0.13311328
0.1308335
0.12835657
0.12639238
0.12459267
0.12310513
0.12184753
0.12083853
0.12006285
0.11949267
0.11914258
0.1189774
0.11901234
0.11920809
0.11958337
0.12010708
0.12077929
0.1215739
0.12252131
0.12354113
0.12477101
0.12600534
0.12744885
0.12892818
0.13051652
0.13216798
0.13389403
0.13567983
0.13752339
0.13941706
0.14135584
0.14333334
0.14534423
0.14738231
0.14944256
0.15151871
0.15360637
0.15569913
0.15779288
0.1598807
0.16196028
0.16402283
0.1660699
0.16808674
0.17008626
0.17203363
0.17398016
0.1758209
0.17773739
0.17938631
0.1813825
0.18264589
0.10724179
0.19388525
0.13754651
0.15927551
0.1424034
0.14485697
0.13843063
0.1366825
0.13312715
0.13084596
0.12837044
0.12640643
0.12460755
0.12312049
0.12186352
0.12085506
0.12007995
0.11951024
0.11916065
0.11899594
0.11903136
0.11922751
0.11960325
0.12012737
0.12079992
0.12159488
0.12254253
0.12356266
0.12479301
0.12602745
0.12747151
0.12895113
0.13053964
0.13219134
0.13391756
0.13570354
0.13754726
0.13944108
0.14138
0.14335763
0.14536864
0.14740682
0.14946715
0.15154336
0.15363107
0.15572387
0.15781763
0.15990547
0.16198502
0.16404755
0.16609458
0.16811138
0.1701108
0.17205812
0.17400449
0.17584522
0.17776139
0.17941045
0.18140599
0.1826687
0.10721634
0.19386673
0.13759381
0.15924152
0.14243249
0.14485218
0.1384444
0.1366876
0.13313719
0.1308543
0.12838034
0.12641649
0.12461849
0.12313192
0.12187562
0.12086773
0.12009324
0.11952401
0.11917497
0.11901075
0.11904668
0.11924326
0.1196195
0.12014408
0.12081699
0.12161232
0.12256023
0.12358069
0.12481158
0.12604613
0.1274908
0.12897077
0.13055948
0.13221143
0.13393786
0.13572405
0.13756797
0.13946198
0.14140108
0.14337887
0.14539002
0.14742833
0.14948877
0.15156509
0.15365288
0.15574575
0.15783955
0.15992743
0.16200699
0.16406954
0.16611654
0.16813333
0.17013267
0.17207999
0.1740262
0.17586698
0.17778279
0.17943206
0.18142685
0.18268876
0.10718335
0.19384048
0.13764385
0.15919847
0.14246112
0.14484216
0.13845547
0.13668873
0.13314388
0.130859
0.12838675
0.12642302
0.12462597
0.12313992
0.12188432
0.12087704
0.1201032
0.11953447
0.11918601
0.11902231
0.11905878
0.11925581
0.11963259
0.12015767
0.12083095
0.12162669
0.12257486
0.12359567
0.12482714
0.12606179
0.12750716
0.1289875
0.13057643
0.13222868
0.13395534
0.13574178
0.13758592
0.13948015
0.14141946
0.14339745
0.14540877
0.14744726
0.14950784
0.15158429
0.15367219
0.15576517
0.15785904
0.15994699
0.16202659
0.16408918
0.16613617
0.16815299
0.17015227
0.17209962
0.17404568
0.17588654
0.17780197
0.17945153
0.18144547
0.18270643
0.10714441
0.19380697
0.13769711
0.15914642
0.14249002
0.14482725
0.1384644
0.13668634
0.13314771
0.13086051
0.12839012
0.12642646
0.12463044
0.12314491
0.12189004
0.1208834
0.12011024
0.11954205
0.11919419
0.11903105
0.11906809
0.11926561
0.11964296
0.12016858
0.12084226
0.12163843
0.12258687
0.12360806
0.12484017
0.1260749
0.12752105
0.12900181
0.13059098
0.13224356
0.13397047
0.13575717
0.13760158
0.13949606
0.1414356
0.14341382
0.14542535
0.14746403
0.14952478
0.1516014
0.15368944
0.15578254
0.15787651
0.15996457
0.16204422
0.16410689
0.16615389
0.16817077
0.17017
0.1721174
0.1740633
0.17590432
0.17781931
0.17946925
0.18146221
0.18272208
0.10711136
0.19376578
0.13775677
0.15908296
0.1425215
0.14480745
0.13847259
0.13668116
0.13314961
0.1308595
0.12839107
0.12642732
0.12463232
0.12314728
0.12189316
0.12088718
0.12011472
0.11954708
0.11919987
0.11903733
0.11907501
0.11927306
0.11965109
0.12017734
0.12085149
0.1216482
0.12259699
0.12361868
0.12485155
0.12608641
0.12753345
0.12901469
0.13060413
0.13225706
0.13398425
0.13577125
0.13761594
0.13951069
0.14145049
0.14342895
0.14544071
0.1474796
0.14954053
0.15161732
0.1537055
0.15579874
0.15789281
0.15998097
0.16206067
0.16412342
0.16617043
0.16818736
0.17018652
0.172134
0.1740797
0.17592091
0.17783537
0.17948579
0.18147754
0.1827362
0.18275067
0.18276447
0.18277536
0.18278433
0.18279202
0.18279912
0.18280639
0.18281459
0.18282477
0.18283855
0.18285585
0.18287238
0.18288689
0.1829046
0.18292981
0.18296461
0.18301139
0.18307233
0.18314914
0.18324332
0.18335599
0.18348795
0.18363975
0.18381188
0.18400482
0.18421912
0.18445548
0.18471473
0.18499793
0.18530634
0.18564148
0.18600516
0.18639945
0.18682681
0.18729013
0.18779278
0.18833917
0.18893441
0.18958396
0.1902947
0.19107523
0.19193637
0.19288281
0.19394976
0.19507163
0.19616194
0.19712378
0.19791232
0.19853423
0.19900761
0.19935782
0.19960942
0.19978479
0.19990362
0.19998341
0.20003699
0.20007796
0.20011765
0.20016662
0.20018555
0.20015609
0.20012628
0.20013759
0.2001903
0.20028181
0.20040907
0.20056827
0.20075426
0.20096171
0.20118536
0.2014202
0.20166159
0.20190537
0.20214792
0.20238618
0.20261763
0.20284028
0.20305262
0.20325354
0.20344233
0.20361857
0.2037821
0.203933
0.20407146
0.20419784
0.20431257
0.20441615
0.20450911
0.20459185
0.20466491
0.18149396
0.1815114
0.18152652
0.18154003
0.18155227
0.18156365
0.18157467
0.18158587
0.18159783
0.18161173
0.1816273
0.18163951
0.18164558
0.18165037
0.18165837
0.18167154
0.18169226
0.18172312
0.18176646
0.1818242
0.18189809
0.18198958
0.18209993
0.18223027
0.18238169
0.18255522
0.18275194
0.18297297
0.18321948
0.1834927
0.18379397
0.1841248
0.18448689
0.18488226
0.18531335
0.18578304
0.18629542
0.18685496
0.18746656
0.18813703
0.18887467
0.18968896
0.1905874
0.19160063
0.19267034
0.19373332
0.19466902
0.19545234
0.19608079
0.19656963
0.19693942
0.19721042
0.19740136
0.19753045
0.19761448
0.19766554
0.19769684
0.19771978
0.19774417
0.19775096
0.19770469
0.1976376
0.19760742
0.19761989
0.19767321
0.19776466
0.197891
0.1980475
0.19822896
0.19843021
0.19864618
0.1988721
0.19910359
0.19933677
0.19956827
0.19979528
0.20001548
0.20022706
0.20042864
0.20061923
0.20079817
0.20096511
0.2011199
0.20126269
0.20139373
0.20151329
0.20162167
0.20171922
0.20180619
0.20188325
0.17950402
0.17952359
0.17954114
0.17955748
0.179573
0.17958803
0.17960298
0.1796184
0.17963502
0.17965408
0.17967462
0.17969098
0.17970196
0.17971328
0.17972872
0.17975037
0.17978056
0.17982163