/*--------------------------------*- C++ -*----------------------------------*\
  =========                 |
  \\      /  F ield         | OpenFOAM: The Open Source CFD Toolbox
   \\    /   O peration     | Website:  https://openfoam.org
    \\  /    A nd           | Version:  7
     \\/     M anipulation  |
\*---------------------------------------------------------------------------*/
FoamFile
{
    version     2.0;
    format      ascii;
    class       volScalarField;
    location    "240";
    object      ddt0(omega);
}
// * * * * * * * * * * * * * * * * * * * * * * * * * * * * * * * * * * * * * //

dimensions      [0 0 -2 0 0 0 0];

internalField   nonuniform List<scalar> 
78300
(
0
0
0
0
0
0
0
0
0
-2.7790828e-08
-7.1012785e-10
3.5172953e-08
-2.4604265e-15
-9.7157925e-09
2.4767573e-08
6.5442363e-13
8.8710926e-09
6.697992e-10
-3.8196938e-13
3.5266882e-08
5.874424e-09
-3.0112158e-08
2.2249795e-09
1.6866796e-11
8.7692423e-09
-1.2875696e-08
0
0
0
0
0
0
0
0
1.8203674e-08
1.1430894e-08
-1.1751083e-08
-8.8854364e-09
2.6056327e-08
8.0939338e-09
-3.7482434e-09
8.4039328e-09
-7.5953448e-09
-1.6333632e-08
3.0124839e-187
0
0
0
0
0
0
0
0
0
0
0
0
0
0
3.8300115e-09
1.1407741e-08
1.1226915e-08
-1.03695e-08
-1.2736229e-09
-1.0438175e-08
5.0623888e-09
-6.8134444e-09
-1.0450548e-08
4.0396729e-09
1.9500407e-09
2.231173e-09
8.0889985e-09
9.0965844e-10
-1.277127e-08
-2.9304822e-09
4.0179576e-09
5.4870196e-09
-1.2041889e-08
1.7169212e-08
8.938737e-09
-2.3953177e-09
2.7992207e-09
-1.0456956e-09
7.0789549e-09
-3.0637475e-09
-4.8786891e-09
8.4311531e-09
1.1499757e-08
-1.0930257e-08
4.2999976e-09
-9.2049887e-09
9.5078689e-10
-2.6975022e-09
-5.9749056e-09
1.037385e-08
-6.2180347e-09
-1.6295488e-08
-1.2452309e-08
1.120765e-08
1.7173835e-09
8.1830524e-09
1.0909801e-08
1.0210538e-08
-3.5504856e-09
4.2824e-09
4.737651e-10
2.4212161e-09
-2.6829831e-09
-2.7284973e-09
-6.2801475e-09
2.0117832e-09
-1.4709981e-08
3.3864551e-09
-4.1573966e-10
-1.456552e-08
-1.5898822e-08
1.5945267e-08
-3.3510113e-09
3.0864368e-09
-2.45483e-09
-7.6686488e-09
2.0190816e-08
9.8210364e-09
4.3322382e-11
-2.6423263e-09
1.0395829e-08
1.2493008e-08
-1.0201791e-08
-1.2238224e-08
-4.0158272e-09
9.6342524e-09
5.7643462e-10
1.012495e-08
3.9411064e-09
-1.0416539e-10
6.4038373e-09
-1.4282857e-08
-3.0559478e-09
-2.0239752e-09
1.470241e-08
-3.3444528e-10
-7.8953965e-09
6.5084988e-09
1.2524405e-10
-5.4531956e-09
7.0074199e-09
-1.4231145e-08
1.9133885e-08
-1.1144684e-08
8.4191618e-09
-9.9610874e-09
2.6108491e-09
-7.29503e-09
6.7883393e-09
-2.2325361e-08
1.2344139e-08
-7.2601744e-09
-6.2807031e-10
-3.2814577e-09
-5.0411577e-09
5.8917421e-09
-4.0349973e-09
2.7091314e-09
-3.4938754e-09
1.1409906e-08
-9.8580165e-09
1.2513754e-08
1.2978646e-08
1.1259988e-08
-7.2521931e-09
-7.9332994e-09
9.5444751e-09
5.380657e-09
-6.8481698e-09
-8.9077981e-09
1.8269724e-09
-8.8150374e-09
1.195137e-09
1.1783527e-09
1.376542e-08
-1.0716672e-09
1.933826e-09
-1.2229823e-08
-4.4143314e-09
-9.9157668e-09
-8.6099737e-09
-1.3655937e-09
-1.523498e-08
-7.9214032e-09
1.8517361e-09
1.042945e-08
9.3743292e-09
8.1667686e-09
-1.9646983e-08
-2.8538001e-09
-4.4744942e-10
-5.6011528e-09
8.481068e-09
1.0643866e-08
-1.295471e-08
5.1824746e-10
-4.0276412e-09
-7.7546224e-09
2.2675153e-09
-1.1493334e-08
-1.1810781e-09
1.0585697e-08
-1.8296286e-09
-2.9554197e-09
-5.6493427e-09
-1.1092316e-08
0
0
0
0
0
0
0
0
0
0
0
0
0
0
0
8.18028e-09
1.3967689e-08
1.3005717e-09
1.1442913e-08
-5.3649671e-10
2.1742485e-09
-1.3830732e-09
1.727625e-08
1.6977997e-08
-5.5636337e-09
0
0
0
0
0
0
0
0
-2.6791769e-09
-3.2322224e-08
-3.4465352e-09
3.2389047e-09
5.750444e-11
4.4058277e-09
-9.1201737e-09
2.0197463e-11
1.657898e-11
-3.8159321e-13
-1.884593e-08
2.182654e-09
-1.1016642e-08
-6.5286951e-10
-1.7474959e-09
-1.7654936e-08
2.7611514e-08
0
0
0
0
0
0
0
0
0
-19.04326
-0.87391853
66.025973
-65.048754
33.607506
19.954024
-23.892361
1.8809063
36.471181
-11.381287
-17.032401
-10.845206
4.5257266
-1.4965581
-13.184255
12.000957
-3.9134099
-0.17203611
0.78432727
-2.2077666
2.6192506
-1.4926687
2.1229899
-3.9186049
3.4638527
-2.4870689
2.5920175
2.014789
-23.409824
-0.98972472
10.207765
-10.536009
1.2810478
3.93975
1.721847
-1.0460112
1.8847552
-3.4521775
0.14896986
4.5659943
-3.2665295
5.927181
-9.402392
3.6494683
-2.0250493
0.45711227
-1.6197013
1.5376871
0.42372864
0.00064733828
1.0928535
-1.8061945
-1.35504
0.41600499
-0.34345787
-0.37269906
0.77039335
0.33750751
-0.40508958
2.5302579
-1.0906641
-1.036687
-0.1110077
-0.80919854
-0.25333652
0.012722511
-0.019194674
0.18922592
-0.0090764508
-0.042084694
-0.092614792
-0.065041022
-0.046785298
-0.017662619
-0.010929421
-0.043512699
-0.029559969
-0.022010184
-0.067729041
0.034949148
-0.055391972
-0.011734901
-0.019542414
-0.021945407
-0.012651676
-0.025693295
-0.015800765
-0.036130248
-0.0099287037
-0.018150236
-0.021296533
0.001741559
-0.034143959
-0.048510157
-0.0007496689
-0.027584958
-0.033746879
-0.010915718
-0.041243728
-0.014099086
-0.046937894
0.010853238
-0.051055617
-0.023833321
-0.044758169
-0.010265524
-0.033460362
-0.027541061
-0.034257472
-0.024637479
-0.036169963
-0.023575173
-0.040361805
-0.01946634
-0.035412743
-0.025753936
-0.034873965
-0.02598806
-0.031990101
-0.027567078
-0.035331918
-0.028412764
-0.032743953
-0.025758214
-0.030018156
-0.030850842
-0.032122403
-0.027274486
-0.031284484
-0.029073283
-0.030796627
-0.029184687
-0.03086362
-0.029735256
-0.031033552
-0.02988728
-0.031644496
-0.030209576
-0.032167668
-0.031243837
-0.032404642
-0.032594457
-0.033277789
-0.033720716
-0.035477951
-0.035974498
-0.034112652
-0.036438706
-0.037218435
-0.039239679
-0.038971902
-0.040948994
-0.042371087
-0.042279448
-0.044728878
-0.048038134
-0.042984016
-0.052870307
-0.05704173
-0.044198294
-0.098237468
-0.023562468
-0.046853822
-0.052145274
-0.0804219
-0.060436544
-0.074851107
-0.070348458
-0.07892954
-0.077714512
-0.089271193
-0.079630556
-0.098170477
-0.087914952
-0.10694345
-0.099997331
-0.11445706
-0.10499765
-0.12908139
-0.11958265
-0.13582001
-0.13540989
-0.14349993
-0.15579875
-0.15254169
-0.17337102
-0.17236843
-0.19090232
-0.19791409
-0.20684645
-0.21867032
-0.23601423
-0.24927763
-0.26987296
-0.29137897
-0.35961648
-0.41373207
-1.3671271
-1.2700821
-1.2749394
-0.79587473
-1.2524417
-1.0945978
-0.81176939
-0.49492906
-0.64838613
-0.38520243
-0.17186906
-0.92778738
-1.5583585
0.13137379
-0.69718174
-0.2481504
-0.7778766
-0.43665487
0.73912974
-1.583513
0.33575659
3.8134548
-8.6904179
12.215837
-14.203085
229.54155
84.71861
-347.94438
-584.60023
2893.8851
-1673.784
199.08117
-186.24422
-1374.5552
582.03146
-5332.4149
6187.2234
-1435.9582
1749.7183
560.71996
-3811.1495
412.60284
-0.21478403
-1323.1633
49.190349
562.92015
12031.154
8002.8901
-74193.429
50742.066
112084.23
-31563.177
-15737.914
24397.261
-10164.461
-2337.1763
-11703.766
-12730
27873.347
-3405.4907
344.52935
-289.5216
810.47525
-3434.6547
-3601.8947
6805.3984
-515.019
-9.4832779
-357.59245
-447.89023
-429.03169
-5.4060344
-40.69166
-4.4884169
3.6046101
44.512656
-27.509454
-3.542333
25.71591
4.3715588
16.843937
37.560535
-3.9170981
-12.812323
-13.599761
1.8982541
3.899962
-10.071133
14.84885
-2.5494859
1.0162308
0.69194082
-1.1919007
1.7327374
-0.29591614
1.0832833
-3.5287363
2.6496102
-1.8314487
3.0152934
2.150748
-22.067028
3.5755046
7.2063973
-7.6275887
-0.29882557
3.1075334
1.5326389
-0.29546195
1.4768239
-3.94687
1.3171139
1.4704296
-1.0929909
5.1638894
-5.7692535
1.5700367
-0.9685198
0.33942797
-0.53321789
0.97880798
-0.38940668
1.2409358
0.34291495
-1.9087956
-0.59833753
0.19177288
0.15468433
0.40943278
0.69641113
0.19707977
0.20694061
0.24277795
-0.41753659
-0.43258451
-0.073633351
-0.64911726
-0.16072146
-0.19958883
-0.057752111
0.21665456
-0.034592319
0.0253246
-0.020349731
-0.00059861173
0.0080179539
0.033981691
0.0066585284
-0.0017147482
0.013562354
0.018323755
-0.025546656
0.037914844
-0.011496541
0.0178449
-0.0054421215
0.011019969
-0.00017599478
0.009708882
-0.0072355469
-0.0018956025
-0.0023200513
0.0063177491
-0.016994304
0.015722043
-0.022704883
-0.015282065
-0.0095264291
-0.0049754487
-0.02607434
-0.0070352896
-0.024493124
-0.00566594
-0.040905683
0.02101876
-0.054940405
-0.021404541
-0.028985615
-0.0079305219
-0.032551965
-0.02594352
-0.029908007
-0.020124691
-0.034189668
-0.022035207
-0.036690501
-0.017168184
-0.033267329
-0.024499797
-0.033392259
-0.02246866
-0.029412883
-0.02487376
-0.030851507
-0.026456434
-0.026348988
-0.022382702
-0.023926007
-0.026819882
-0.024678821
-0.022501887
-0.023348432
-0.023024165
-0.021550961
-0.021630366
-0.021089469
-0.021133735
-0.019622934
-0.019808577
-0.019160415
-0.01925577
-0.018466382
-0.018763208
-0.0179803
-0.019020283
-0.017624358
-0.018838159
-0.018769388
-0.01920352
-0.016841662
-0.018371121
-0.017764898
-0.02012404
-0.018374564
-0.020971542
-0.020106807
-0.021766423
-0.022326987
-0.023799048
-0.021815451
-0.02833643
-0.029021646
-0.028504588
-0.058525017
-0.005462837
-0.010291686
-0.037544792
-0.041177314
-0.038102748
-0.040874526
-0.038672964
-0.046506586
-0.045895499
-0.051151758
-0.048086859
-0.056354318
-0.053244851
-0.064463214
-0.058846948
-0.071684346
-0.062806079
-0.079230306
-0.077675105
-0.078953806
-0.091710667
-0.084920532
-0.10496417
-0.09109355
-0.11888607
-0.10517881
-0.12685565
-0.12487827
-0.13220531
-0.14582652
-0.15882083
-0.15901249
-0.17881134
-0.19778499
-0.25028817
-0.32492341
-0.92078904
-0.92958718
-0.90771508
-0.46666737
-0.90655621
-0.66121772
-0.48187832
-0.16692113
-0.22548605
-0.27151621
-0.35023061
-0.67480409
-1.3505908
-0.34771124
-0.45946596
-0.48601203
-0.52489367
-0.62310796
-0.27436083
-1.6762443
-0.20932959
3.0204332
-10.088647
-5.734538
4.5472105
281.82271
-57.418265
-124.24396
666.97237
-279.77003
711.01972
-732.00982
562.64287
-1631.6781
525.81947
-61.541082
-1500.1581
1375.418
1044.3148
-3901.2099
4272.0996
-35.044542
-1033.2441
-1061.1801
203.31164
372.71525
14453.868
-4279.624
-97761.155
97340.641
24828.72
-14767.028
23299.522
9257.8645
-17236.905
8171.3203
-10475.877
-8016.5372
21106.004
-3687.0046
-588.89442
621.80526
588.22697
-4099.5471
540.77311
3437.3969
-860.78803
-215.21833
-18.367954
-329.54124
-163.56186
-17.347208
-70.131557
-1.5034189
5.7725614
10.358718
-4.7060309
-18.1659
18.593405
13.990289
27.194208
29.263176
-0.36603214
-4.3602476
-10.855582
0.033481072
4.3720083
-5.1029094
9.9393471
0.74243427
1.2412734
0.50552872
0.017649583
1.0665389
0.9654298
0.099051594
-3.2825567
1.8382168
-0.87272573
2.3250044
2.0597828
-15.321483
6.6649202
3.6178519
-4.3785616
-1.0899936
1.3132215
0.96279356
-0.1757963
1.1000195
-2.8449001
1.1335543
-0.29745166
0.4209561
3.4439052
-2.4358604
-0.30638844
-0.17257431
0.13084322
-0.12355634
0.51541157
-0.5490145
1.0515473
-0.0047768624
-1.356566
-0.25117195
0.16567874
0.32458403
0.34709086
0.59077254
0.059174271
0.55280569
-0.73645026
-0.025417397
0.14997217
-0.092751646
-0.47244086
-0.014344083
-0.016489133
-0.050013878
0.19231864
-0.014185031
0.057917136
0.035622504
0.040109363
0.042722907
0.055318994
0.030272072
0.036510169
0.049929866
0.047922267
0.020909292
0.053524716
0.019784483
0.043635363
0.018970389
0.03461666
0.019857708
0.033081991
0.01168068
0.022365234
0.011907241
0.017362174
0.00075412806
0.019393202
-0.0064289871
0.002698178
-0.007135727
0.0024985957
-0.015354244
-0.0086417972
-0.013325738
-0.0074533352
-0.031424334
0.007342076
-0.046301709
-0.023324464
-0.023386376
-0.019660367
-0.032290587
-0.030523824
-0.032048242
-0.02686371
-0.03615866
-0.0299083
-0.037605616
-0.02615961
-0.036163723
-0.031011889
-0.036965833
-0.026978171
-0.033954036
-0.030063674
-0.032790197
-0.029523796
-0.028624256
-0.025640704
-0.025927007
-0.026970197
-0.024069571
-0.022899895
-0.021679645
-0.021073307
-0.018314791
-0.017973557
-0.016074482
-0.015671909
-0.012973921
-0.012636489
-0.010487018
-0.010193237
-0.0079571332
-0.007718287
-0.0057410944
-0.0058320011
-0.0035991352
-0.0037836526
-0.002397003
-0.0019319932
-5.9159384e-05
-6.8447622e-05
0.0014884923
0.00062955216
0.0024508005
0.001254212
0.003016497
0.0019466516
0.0025597524
0.0027687911
0.003018953
0.000965979
0.0017169612
-0.0029555373
-0.011289623
0.013155814
0.023663997
-0.011543687
-0.0019276596
-0.0051354986
-0.0022410593
-0.00024314959
-0.0059137067
-0.0057714384
-0.0056209341
-0.007072388
-0.0070663943
-0.007902609
-0.012658299
-0.0082961461
-0.016067273
-0.0097272973
-0.017962221
-0.018173435
-0.014942274
-0.024924756
-0.016845034
-0.029726747
-0.017482066
-0.035778679
-0.024335811
-0.03718689
-0.031935101
-0.034427377
-0.043987476
-0.049061643
-0.041475288
-0.053901985
-0.065235612
-0.096436476
-0.14878481
-0.36147954
-0.40050305
-0.35488427
-0.075014587
-0.35565808
-0.21711374
-0.042008815
0.1713162
0.16576736
-0.028357658
-0.17313534
-0.21276616
-0.6008471
-0.094029051
-0.072325976
-0.17440032
0.026429951
-0.21492974
-0.064756494
-0.48458035
1.2211981
1.9300619
-2.2009852
-6.4917494
11.658898
175.69905
-50.321431
-9.4225493
794.22589
-1178.3459
1518.7561
-990.00064
577.7579
-1131.3194
236.80603
1738.8741
-4138.6571
2386.5295
308.94933
-4833.9036
6811.9688
-188.01998
-1255.0775
-398.43999
57.414686
180.15504
10999.748
-6063.9196
-79875.684
98068.323
-23409.754
-5271.8024
40628.63
-1960.1204
-15870.84
10208.56
-4594.701
-1498.3081
9570.218
-3304.3072
-818.82844
841.08024
361.74242
-2711.6227
1919.9611
927.58781
-578.774
-245.29248
237.61703
-200.05293
-37.954792
-26.349026
-66.162497
-6.5352672
6.7217574
-8.8987154
4.8139119
-14.99256
6.334317
11.224238
29.303955
19.102404
-0.80261005
2.5777276
-6.211554
-0.46378239
1.7938045
-2.2531629
4.8199611
2.4427235
0.88375198
0.3852924
0.92139438
0.65440647
1.6323803
-0.17646562
-2.9981778
1.1545871
-0.25480785
1.7325108
2.1359376
-9.6916495
4.5478708
2.0186983
-2.5039345
-1.1375076
0.087129757
0.48123058
-0.15149202
0.73363833
-1.6414465
0.49493591
-0.43281381
0.65205425
1.7812612
-0.68330221
-0.98295069
0.072118144
0.027706365
0.0058699521
0.38341167
-0.42869013
0.45340878
-0.087217669
-0.81433152
-0.12346133
0.17988767
0.28253377
0.082992348
0.45998384
-0.028845237
0.71769658
-0.70431447
0.12254284
0.26035135
-0.12524789
-0.42163514
0.078363357
0.11202442
-0.039820623
0.1401531
0.020827764
0.078623401
0.068936128
0.071521479
0.073548112
0.079985953
0.065648261
0.073365493
0.083372078
0.079158009
0.065871877
0.0806109
0.058781676
0.072683665
0.053106022
0.063272474
0.049288303
0.059022701
0.039502137
0.04741823
0.034779798
0.034293964
0.025103506
0.031473149
0.011338527
0.018187436
0.0047317357
0.010177144
-0.0028762058
-0.0046540699
-0.0058181473
-0.0065804202
-0.02315457
-0.0049207961
-0.035218033
-0.023638704
-0.026147016
-0.028923716
-0.033899251
-0.035743109
-0.037058249
-0.036013131
-0.041164453
-0.039320345
-0.042868961
-0.037473513
-0.043355521
-0.040070617
-0.044302624
-0.036153027
-0.042038461
-0.038784132
-0.039199843
-0.0368616
-0.035556213
-0.032848376
-0.032392829
-0.031602262
-0.028483709
-0.027238994
-0.025013116
-0.023454356
-0.020314095
-0.01887589
-0.016366032
-0.014875683
-0.011825614
-0.010333051
-0.0075551499
-0.0061810915
-0.003463419
-0.0021483922
0.00031210697
0.0014039771
0.0038511841
0.0048540144
0.006837753
0.0079646396
0.0094884272
0.010707652
0.01253785
0.012857228
0.014286776
0.014226867
0.015919536
0.01574148
0.016497296
0.017229614
0.017157576
0.016813419
0.017674391
0.014265521
0.01395467
0.019964487
0.030988351
0.0092201151
0.014949676
0.012736747
0.01496584
0.017002212
0.01197243
0.012603188
0.012834059
0.011062256
0.012505692
0.011434694
0.007584446
0.011104584
0.0062679278
0.0095826384
0.005195668
0.0049593634
0.0067805869
0.0017431888
0.005489992
-3.866769e-07
0.0062593128
-0.0026452563
0.0018545486
-0.0027048271
0.0006656242
0.0010199022
-0.0072356658
-0.0067321019
-0.00052361401
-0.0072485793
-0.013843966
-0.034531731
-0.068217562
-0.13586483
-0.16273724
-0.1215072
0.031122146
-0.11103759
-0.062930026
0.098352312
0.23197735
0.17893034
0.014013554
-0.0038214795
0.00091374727
-0.21400102
0.079219141
0.067803355
0.053610223
0.19133072
0.13880174
0.11548427
0.35578968
1.8559036
1.3082212
2.1180703
-0.97967196
9.0434287
70.70978
-18.781964
18.797032
479.83168
-949.93628
1282.8972
-784.13287
365.28611
-650.53722
-7.2319643
1507.388
-3525.1196
2037.5012
-21.139178
-3494.5791
5517.8304
-83.419082
-942.38048
3.7128956
-98.127059
176.96357
5964.8184
-5152.8205
-52020.135
74520.028
-28354.904
-1550.8382
36507.869
-5577.0658
-10881.262
7575.0076
-771.7182
1711.1057
1968.009
-2702.5749
-733.62159
584.07931
246.62129
-1042.037
1667.9935
-47.770031
-208.48627
-150.9771
319.85511
-109.75225
-28.162165
-26.485652
-51.756853
-12.419582
6.9493154
-13.167728
10.002052
-7.354897
-4.5662967
6.8432466
25.656498
10.205211
-1.9902201
6.5522903
-2.1274715
-0.49708746
-0.97277114
-1.3357479
2.0534051
2.3762499
0.6350408
0.46529888
1.5394186
0.55526574
1.7796758
-0.044243021
-2.5101907
0.5241585
0.076261166
1.4315275
2.1760478
-6.0355661
1.5819925
1.5758992
-1.4162931
-1.0171523
-0.37433651
0.18632796
-0.092279017
0.43877336
-0.82017024
0.027358536
-0.096337143
0.28091352
0.68910682
0.07316057
-1.0078792
0.092693
-0.016261907
0.049571791
0.3561513
-0.27951402
0.031503304
-0.10017818
-0.45784921
-0.056993226
0.1382191
0.21819732
-0.041569699
0.27807382
-0.015837971
0.71215403
-0.43316436
0.13430735
0.20760992
-0.11262069
-0.37330979
0.12356448
0.16341629
-0.027309852
0.11311287
0.063950719
0.10668
0.10144846
0.10770739
0.11193698
0.11729894
0.11059199
0.11563307
0.12260398
0.11923536
0.11305718
0.11806282
0.1052942
0.10972139
0.094734489
0.099747717
0.086645491
0.09146918
0.073951122
0.077269242
0.064099268
0.059489209
0.052233757
0.051423444
0.032480361
0.035431636
0.02181069
0.021827415
0.010866172
0.0044113199
0.0016150958
-0.0020088331
-0.016064831
-0.010188711
-0.026519537
-0.02327836
-0.030113467
-0.034461428
-0.036584381
-0.040515819
-0.042710285
-0.044435512
-0.047533585
-0.048105371
-0.050282592
-0.047827447
-0.052251057
-0.049406828
-0.052622546
-0.046531464
-0.050759092
-0.047938218
-0.046912602
-0.045339533
-0.043057289
-0.040622457
-0.039189205
-0.03731081
-0.033749706
-0.031970272
-0.028969297
-0.026491243
-0.022938663
-0.020400892
-0.017309901
-0.014705666
-0.011242551
-0.0086248228
-0.0053216397
-0.002892854
0.00023302624
0.0025489591
0.0054153334
0.0074629452
0.010162411
0.01208043
0.014431414
0.016097951
0.017604782
0.019616628
0.021572489
0.022529871
0.023691656
0.024248137
0.025711668
0.026039664
0.026609132
0.027357457
0.027262861
0.027187453
0.027703459
0.026479065
0.027796092
0.02435654
0.032939067
0.023434791
0.023210297
0.022582449
0.022811213
0.024412637
0.019350545
0.020231018
0.01916649
0.017678369
0.01818699
0.017463993
0.013024788
0.01568881
0.011825454
0.012579408
0.0098127574
0.0090011948
0.0093349438
0.0063245434
0.0068738599
0.0049497402
0.0070114727
0.0022783028
0.0029308809
0.0018760974
0.0039993451
0.0041047408
-0.0035949826
-0.00054610137
0.0023106659
-0.0013434594
-0.0056745609
-0.020926917
-0.043619439
-0.076489851
-0.091164257
-0.062823524
0.015575962
-0.043897427
-0.030276134
0.10333704
0.18894635
0.073950391
-0.025693683
0.084455282
0.079340382
-0.078652826
0.15472559
0.077795095
0.13866139
0.17765685
0.25319247
0.11885075
0.6295106
1.7824263
1.0520808
2.8618157
2.7696657
4.6063563
8.2948322
-1.9436109
25.201344
211.67682
-621.68411
846.80698
-461.87776
211.89486
-388.56414
-145.90673
916.86185
-2266.2416
1389.8212
-106.48628
-2124.5808
3637.7838
71.924287
-574.8091
146.53491
-130.76768
116.64995
2048.5105
-5018.9466
-29518.378
50607.517
-20254.366
-320.93021
25364.281
-5721.2297
-6405.3412
4640.7423
708.05466
1495.2632
-1372.8349
-2051.3699
-560.72966
294.09352
105.61917
-112.52679
1104.9179
-254.50596
64.81458
-41.104159
294.14592
-51.990574
-47.021142
-20.212285
-40.662876
-16.024984
6.4430448
-10.612381
13.708763
-1.9319618
-11.131439
4.5643334
19.863354
3.7425808
-2.5871927
7.9631591
0.52241854
-0.62546015
-2.988353
-1.363514
1.102845
1.6002544
0.7424832
0.74401116
1.9703433
0.73291396
1.66422
0.19873237
-1.9571447
0.01624261
0.21938435
1.2698325
2.0509952
-3.9366552
-0.66271868
1.3798625
-0.69609976
-0.92561176
-0.3971395
0.037061888
-0.050085086
0.2143599
-0.37573903
-0.15579913
0.12226098
-0.13296459
0.16045817
0.36473583
-0.85574127
0.069761597
-0.051087528
0.052667152
0.30082045
-0.17943908
-0.14343403
-0.098597305
-0.26662611
-0.019147458
0.070279396
0.17951687
-0.052479706
0.16509747
0.02640325
0.60264717
-0.23070854
0.090587404
0.15911518
-0.064227835
-0.30104316
0.15027778
0.19120472
-0.0026097355
0.11787199
0.11028683
0.1427122
0.139278
0.14890078
0.15527825
0.16078601
0.15833181
0.16098117
0.16574143
0.16317983
0.15971619
0.15945284
0.15137869
0.14906174
0.13680285
0.13698569
0.12455803
0.12382264
0.10792908
0.10597035
0.092427339
0.084527952
0.076067937
0.070198575
0.051850076
0.0495469
0.036349045
0.031236324
0.020495378
0.01098043
0.0052479262
-0.00043727416
-0.014142048
-0.01516429
-0.025523793
-0.027658247
-0.037372952
-0.042479073
-0.044273121
-0.049571071
-0.052764688
-0.056144708
-0.058584666
-0.060389804
-0.062430061
-0.0612693
-0.065047929
-0.062395969
-0.064687262
-0.06026528
-0.062771611
-0.060075049
-0.05804302
-0.056659471
-0.053289308
-0.050801201
-0.048168584
-0.045533127
-0.041256768
-0.038626021
-0.034748948
-0.031361752
-0.027096732
-0.023487694
-0.019562216
-0.015869069
-0.011692181
-0.008009875
-0.0039870835
-0.00058235362
0.003173664
0.0063953362
0.0098323941
0.012694519
0.015853307
0.018511329
0.021258218
0.023483304
0.025258163
0.027766278
0.02991106
0.03124134
0.03236466
0.033257513
0.034592493
0.035110792
0.035515107
0.036148735
0.035979332
0.035739541
0.035833637
0.035753557
0.036631771
0.029865238
0.036889288
0.03236869
0.029212546
0.029078005
0.027765944
0.028579535
0.023400284
0.023922531
0.022035494
0.020170729
0.01945937
0.018657962
0.014048749
0.015568948
0.011779444
0.010832642
0.0085221527
0.0069921424
0.0063851059
0.0036362102
0.0026255594
0.0016874367
0.0019286989
-0.0023451146
-0.0022517877
-0.0031199429
-0.00075302409
-0.0024684804
-0.0091029322
-0.0060496043
-0.0049635462
-0.0081659899
-0.011419833
-0.022470392
-0.039777746
-0.065592555
-0.075403575
-0.055096639
-0.014568529
-0.032353206
-0.023121143
0.084536701
0.14270333
-0.0060228847
-0.06105956
0.11803957
0.11006486
-0.033225327
0.17816296
0.065243396
0.15233113
0.15644476
0.24013605
0.083733267
0.62351673
1.5197075
0.96038724
2.4637708
3.7700444
1.6207963
-18.308502
4.4828558
28.88057
68.262819
-431.76454
509.89099
-203.92256
129.50109
-260.58563
-212.52818
477.33884
-1305.0025
884.79262
-121.90992
-1308.325
2293.5461
171.89993
-313.00772
160.81117
-83.910499
90.572296
-117.15488
-4965.184
-13996.204
33761.687
-12702.506
879.5854
16451.662
-5182.4717
-3700.5951
2819.5172
1109.7399
-197.76121
-2178.174
-1469.0237
-396.86933
136.03648
-71.846924
163.47046
718.10046
-214.04343
229.86926
27.586199
233.00223
-19.709502
-59.60064
-12.246469
-33.981246
-16.866236
5.2262544
-6.488333
16.01063
0.25219915
-13.349795
4.0743113
14.281804
-0.28723496
-2.6439502
7.7521458
1.8034647
-0.99062028
-4.3380144
-1.6732081
0.927458
0.92444995
1.1306221
1.1579602
2.3050049
1.0562197
1.4999483
0.42009601
-1.4952825
-0.32666547
0.22960396
1.1276287
1.7884764
-2.8954175
-1.9097008
1.113158
-0.21300119
-0.86076083
-0.28713984
-0.037672075
-0.05440424
0.0432772
-0.17407768
-0.1640356
0.14151129
-0.39100911
-0.0065188799
0.44372474
-0.70905086
0.041493772
-0.084363349
0.032922588
0.21356957
-0.12737636
-0.16675313
-0.087412624
-0.17544571
9.7719719e-05
0.013852509
0.15885425
-0.021403923
0.115278
0.064399646
0.46008953
-0.12818702
0.040621989
0.13036276
-0.0016008158
-0.21588207
0.17412348
0.2174147
0.03555799
0.14294785
0.15457565
0.18142212
0.1793259
0.19075793
0.19809515
0.20356674
0.20306491
0.20422413
0.20713551
0.20428427
0.20109164
0.1976743
0.19083189
0.18378856
0.17246116
0.16817072
0.15577139
0.14966456
0.13440175
0.12735941
0.11295662
0.10199436
0.091102635
0.080895631
0.063114568
0.055421184
0.041983457
0.032596604
0.020845961
0.0090824471
0.0004581547
-0.0073938148
-0.021339012
-0.026496407
-0.035446811
-0.040809172
-0.052045054
-0.057867812
-0.060530441
-0.066782986
-0.070700672
-0.074892816
-0.077378054
-0.079705773
-0.081884509
-0.08128224
-0.08423457
-0.081946833
-0.083193274
-0.079643059
-0.080592162
-0.077608111
-0.074695375
-0.072856205
-0.068533044
-0.065384834
-0.061498097
-0.058035626
-0.052817691
-0.049049161
-0.044111987
-0.039705753
-0.034441217
-0.029685158
-0.024646596
-0.019800489
-0.014650635
-0.0098603266
-0.0049075622
-0.00050605946
0.004092788
0.0082285623
0.012410887
0.016078056
0.019873821
0.023230002
0.026477046
0.029302059
0.031547876
0.034418102
0.036823277
0.038461376
0.03973038
0.040860815
0.042171622
0.042745174
0.04307764
0.043577687
0.043297393
0.042820029
0.042548202
0.042672834
0.04272056
0.035617342
0.041451393
0.037747953
0.033977073
0.033553308
0.031222589
0.031102857
0.025869033
0.025603267
0.023408525
0.020790982
0.018967392
0.017723522
0.013355417
0.013698865
0.0096572157
0.0077515156
0.005218017
0.0032470598
0.0018162528
-0.0010423275
-0.0029112675
-0.0038401507
-0.0041749097
-0.009273999
-0.0083538417
-0.010037437
-0.0069670792
-0.010507662
-0.015885409
-0.014097926
-0.01329275
-0.017659189
-0.020459801
-0.02774281
-0.04270496
-0.065627815
-0.073599752
-0.054832966
-0.032142918
-0.030484057
-0.018521672
0.069449315
0.11198337
-0.041920245
-0.075649304
0.12269768
0.11699768
-0.013997306
0.16856757
0.058839425
0.13915656
0.15865527
0.20817782
0.095533746
0.55414069
1.2623538
0.88239248
2.0295634
3.2622134
0.15363024
-24.319207
7.1531456
30.184325
6.6168872
-340.66446
306.47575
-48.89518
85.184669
-188.92411
-238.75542
216.79456
-736.80063
571.7511
-131.22387
-886.41891
1480.4289
205.6494
-159.53632
134.5483
-24.440566
97.081939
-975.35127
-4929.979
-4471.8502
23069.112
-7485.5314
1997.335
11053.455
-4213.9101
-2417.7142
1899.8606
948.77462
857.06816
-1909.6934
-1011.7074
-272.75957
89.879864
-240.46354
71.420172
477.95655
-122.0962
314.84317
55.08511
173.75529
-5.6375225
-62.209693
-5.9391617
-29.245831
-15.532915
3.6707203
-3.0601335
16.812071
0.38789818
-12.568944
4.3084732
9.8452275
-2.4523942
-2.3851946
6.7568815
2.1025055
-1.5476018
-5.2716126
-1.9869145
0.93581149
0.61443774
1.6465701
1.6386607
2.6027797
1.4088009
1.3950879
0.5827405
-1.1825455
-0.53175671
0.14684829
0.96928331
1.4692083
-2.3277426
-2.3913908
0.78066896
0.076717216
-0.79722945
-0.19830003
-0.086710831
-0.094898309
-0.086682046
-0.10074487
-0.1147971
0.050965575
-0.50266645
-0.0056006815
0.42143495
-0.59529853
0.0038421671
-0.1092546
0.0030672532
0.12534076
-0.10414349
-0.12998952
-0.068670792
-0.13354986
0.0098827705
-0.018941907
0.14514516
0.012377536
0.098562733
0.091963538
0.326603
-0.086421335
0.0072041662
0.10555962
0.062155056
-0.12457723
0.19879408
0.24413781
0.082674552
0.17744314
0.19428575
0.21884568
0.21811699
0.2299986
0.23713425
0.24209578
0.24194781
0.24189962
0.2428575
0.23876198
0.2344571
0.22863359
0.22102934
0.21025843
0.19843178
0.19011491
0.17675384
0.16604799
0.15013549
0.13869107
0.1227572
0.10889069
0.095150498
0.081190527
0.06339899
0.05114484
0.036589805
0.023830781
0.010424634
-0.0030824818
-0.014261403
-0.024240953
-0.038561053
-0.046457489
-0.055973705
-0.063229529
-0.075198723
-0.081593511
-0.085551698
-0.092363332
-0.096583281
-0.10110657
-0.1037555
-0.10613698
-0.10831237
-0.10782928
-0.10961688
-0.1076235
-0.10770537
-0.10427262
-0.10381468
-0.10008851
-0.096262543
-0.093493742
-0.088235803
-0.083882557
-0.078769579
-0.074229848
-0.067898922
-0.062767722
-0.056601142
-0.051018086
-0.044554916
-0.038522029
-0.032172702
-0.026079838
-0.019793649
-0.013817274
-0.0077983125
-0.0023448551
0.0032209536
0.0083133894
0.013346193
0.017847289
0.022378874
0.02643536
0.030262403
0.033694029
0.036522773
0.039693112
0.042379306
0.044326192
0.045846505
0.047180691
0.048509575
0.049097505
0.0494163
0.049776398
0.049378789
0.048688512
0.04810449
0.047920396
0.047465297
0.040525383
0.044979051
0.041177156
0.037787192
0.036651829
0.033606985
0.032504016
0.02728827
0.026001981
0.023710247
0.020366571
0.017541841
0.01567339
0.011626137
0.010996566
0.0066321478
0.0041986234
0.0011538249
-0.0010092105
-0.0032093499
-0.0061197424
-0.0086325609
-0.0097300079
-0.010238132
-0.016106299
-0.014207404
-0.016502514
-0.012920737
-0.017649467
-0.021950333
-0.021643891
-0.020456348
-0.026340891
-0.028996824
-0.033173929
-0.046609113
-0.066974921
-0.072910316
-0.052282272
-0.037274949
-0.026976974
-0.013768265
0.058744568
0.092305765
-0.050668183
-0.076183352
0.11141902
0.10701416
-0.0033139886
0.14377812
0.057057509
0.1222183
0.17254044
0.19759258
0.16301096
0.4976448
1.0241851
0.72150014
1.735743
2.3645298
-0.56549174
-20.570047
8.5929923
28.124569
-17.901353
-290.22767
196.73277
27.210883
58.292157
-142.78227
-238.8898
75.802763
-430.10332
386.1775
-137.06434
-655.06474
985.77916
198.42142
-81.432387
103.34867
15.183774
105.48048
-1089.1711
-5293.4375
-1022.5541
16029.064
-3862.9342
2568.105
7940.7207
-3261.8259
-1895.0869
1437.7585
736.93935
33.181514
-1392.3664
-682.20024
-188.56826
93.186867
-373.22823
-159.71258
367.59148
-44.542165
345.76736
62.540853
126.97193
-1.6821945
-59.127989
-2.3916168
-24.85506
-12.875107
2.3548358
-0.72873937
16.441619
-0.23324966
-10.27716
4.5679889
6.6406728
-3.4234759
-2.3270286
5.5157659
1.8006824
-2.2107748
-5.9327988
-2.2401837
0.95032494
0.62630759
2.1811195
2.1364891
2.8886899
1.7307498
1.3718337
0.6853333
-1.0004478
-0.65426582
0.0079786557
0.7973475
1.1539297
-1.9760151
-2.4329637
0.45841835
0.20823682
-0.72769302
-0.1705614
-0.13086396
-0.15026376
-0.18365407
-0.087752611
-0.070935274
-0.063826326
-0.53273218
0.044085791
0.35782648
-0.50505673
-0.042307097
-0.12389908
-0.027723478
0.053490853
-0.094102437
-0.083082411
-0.047993495
-0.11335837
0.016345724
-0.031033921
0.13358905
0.036883874
0.093379801
0.11198876
0.22041722
-0.069679518
-0.0030005645
0.081015177
0.11950537
-0.0319569
0.22365973
0.26966949
0.13354257
0.21483566
0.22978497
0.25376767
0.25441885
0.2656984
0.27179831
0.27569459
0.27478505
0.27325517
0.27194895
0.26601554
0.25976563
0.25160974
0.24218852
0.22818585