/*--------------------------------*- C++ -*----------------------------------*\
  =========                 |
  \\      /  F ield         | OpenFOAM: The Open Source CFD Toolbox
   \\    /   O peration     | Website:  https://openfoam.org
    \\  /    A nd           | Version:  7
     \\/     M anipulation  |
\*---------------------------------------------------------------------------*/
FoamFile
{
    version     2.0;
    format      ascii;
    class       surfaceScalarField;
    location    "240";
    object      ddtCorrDdt0(phi);
}
// * * * * * * * * * * * * * * * * * * * * * * * * * * * * * * * * * * * * * //

dimensions      [0 3 -2 0 0 0 0];

internalField   nonuniform List<scalar> 
156040
(
2.112125e-06
-1.1930916e-06
1.7739677e-06
3.3817105e-07
1.540607e-06
2.3336025e-07
2.2636505e-06
-7.2305094e-07
2.1186412e-06
1.4500394e-07
8.8610578e-07
1.2325382e-06
1.0367953e-06
-1.5069439e-07
3.8546847e-07
6.5132829e-07
-7.0143488e-07
1.0869045e-06
-2.6205203e-07
-4.3939131e-07
-7.5251213e-08
-1.8680387e-07
4.1182256e-07
-4.8705871e-07
2.3038476e-07
1.8141065e-07
1.0471231e-07
1.2568555e-07
3.8985598e-07
-2.8515328e-07
1.8529656e-07
2.045785e-07
1.3633787e-07
4.8942542e-08
5.402699e-08
8.2310625e-08
-1.1891978e-08
6.5919577e-08
1.0974715e-08
-2.2866527e-08
-8.5135399e-08
9.6109848e-08
-7.1823701e-08
-1.3311362e-08
-1.2517917e-07
5.3355307e-08
1.6133015e-07
-2.8651194e-07
-1.5928123e-07
3.2061118e-07
8.070185e-08
-2.3997077e-07
-5.1549567e-08
1.3223084e-07
-2.6431598e-07
2.1277484e-07
8.0978995e-07
-1.0741135e-06
1.4553836e-07
6.6426066e-07
-1.0555394e-07
2.5108412e-07
2.4111121e-07
-3.4666282e-07
1.898721e-07
5.1238932e-08
6.6729426e-08
1.2313951e-07
2.666113e-08
4.0061866e-08
7.2555868e-08
-4.590371e-08
1.6429781e-08
5.611561e-08
1.7840179e-07
-1.6198491e-07
1.4080733e-07
3.7648589e-08
6.690605e-08
7.378097e-08
1.2824188e-07
-6.2140908e-08
-1.2074521e-07
2.4958017e-07
1.6678976e-07
-2.8753238e-07
1.0796696e-07
5.8832604e-08
1.6388645e-07
-5.5930626e-08
1.4216853e-07
2.1730702e-08
2.0652388e-07
-6.4361303e-08
1.2087755e-07
8.5656025e-08
1.3110962e-07
-1.0231105e-08
8.7881157e-08
4.3222329e-08
3.3621257e-08
5.4261071e-08
1.4785994e-07
-1.142423e-07
2.2222063e-07
-7.4362315e-08
1.9604856e-07
2.6174312e-08
1.8823585e-07
7.8097962e-09
1.4698103e-07
4.1251684e-08
8.3400765e-08
6.3575289e-08
7.6459585e-08
6.9373403e-09
7.9334205e-08
-2.8823625e-09
1.4471138e-08
6.4854893e-08
6.1095607e-08
-4.6630174e-08
8.1953723e-08
-2.0866553e-08
8.5633306e-08
-3.6782344e-09
1.139889e-07
-2.8356439e-08
1.3885441e-07
-2.4868329e-08
1.4130147e-07
-2.4500094e-09
1.4098898e-07
3.0884119e-10
1.1724656e-07
2.3739146e-08
1.1472435e-07
2.5169137e-09
1.1478761e-07
-6.9384148e-11
1.1691818e-07
-2.1302245e-09
1.1934826e-07
-2.4303684e-09
1.1993477e-07
-5.8869693e-10
1.1861199e-07
1.3221576e-09
1.1879702e-07
-1.8883046e-10
1.1912602e-07
-3.2997131e-10
1.1884693e-07
2.7521184e-10
1.1799125e-07
8.558448e-10
1.2122053e-07
-3.2347287e-09
1.1710444e-07
4.1162855e-09
1.215904e-07
-4.4894265e-09
1.1798538e-07
3.6089854e-09
1.2066829e-07
-2.6857169e-09
1.2199658e-07
-1.3229942e-09
1.2270077e-07
-7.0307743e-10
1.2235976e-07
3.496142e-10
1.2479259e-07
-2.4316268e-09
1.2632542e-07
-1.5262601e-09
1.2647958e-07
-1.517045e-10
1.2738487e-07
-8.9975542e-10
1.2852536e-07
-1.1419357e-09
1.2562244e-07
2.9015884e-09
1.289632e-07
-3.3376468e-09
1.3478535e-07
-5.8176515e-09
1.3249204e-07
2.2916726e-09
1.3368105e-07
-1.1859484e-09
1.3775615e-07
-4.074832e-09
1.3681668e-07
9.4565522e-10
1.4029523e-07
-3.4760028e-09
1.4017622e-07
1.2621457e-10
1.4548291e-07
-5.3006845e-09
1.3962223e-07
5.8672293e-09
1.4688189e-07
-7.2607535e-09
1.4832761e-07
-1.4510715e-09
1.5206352e-07
-3.7280768e-09
1.508236e-07
1.2433611e-09
1.5345938e-07
-2.6355455e-09
1.5557328e-07
-2.115167e-09
1.5801284e-07
-2.4399725e-09
1.589813e-07
-9.7029805e-10
1.6189217e-07
-2.9112492e-09
1.6266757e-07
-7.7698059e-10
1.6681736e-07
-4.1509633e-09
1.6646754e-07
3.4851214e-10
1.6922401e-07
-2.7580009e-09
1.7035961e-07
-1.1373045e-09
1.7315427e-07
-2.796404e-09
1.7378161e-07
-6.354708e-10
1.7613058e-07
-2.3422671e-09
1.7748916e-07
-1.3583663e-09
1.8000742e-07
-2.5184527e-09
1.8136803e-07
-1.3645346e-09
1.8382411e-07
-2.4513536e-09
1.8467454e-07
-8.4923936e-10
1.8648597e-07
-1.8106695e-09
1.8825333e-07
-1.7683257e-09
1.9029175e-07
-2.0360287e-09
1.9156165e-07
-1.2686355e-09
1.9341444e-07
-1.8523684e-09
1.9507466e-07
-1.6586359e-09
1.9680613e-07
-1.7329141e-09
1.9842744e-07
-1.620931e-09
2.0024609e-07
-1.81958e-09
2.019771e-07
-1.7300277e-09
2.0380028e-07
-1.8254783e-09
2.0553484e-07
-1.7344062e-09
2.0750119e-07
-1.9680388e-09
2.0930886e-07
-1.8058402e-09
2.113397e-07
-2.0323417e-09
2.1332328e-07
-1.9817024e-09
2.1539518e-07
-2.0716901e-09
2.1759302e-07
-2.1950334e-09
2.1984213e-07
-2.2481577e-09
2.2212881e-07
-2.2844218e-09
2.2478238e-07
-2.6517216e-09
2.2749787e-07
-2.7177417e-09
2.2981076e-07
-2.3070817e-09
2.3251316e-07
-2.7018051e-09
2.3536484e-07
-2.850723e-09
2.3853132e-07
-3.1662901e-09
2.4155344e-07
-3.0222655e-09
2.4492495e-07
-3.3727577e-09
2.48541e-07
-3.6164686e-09
2.5196488e-07
-3.4257948e-09
2.5584912e-07
-3.8849733e-09
2.6029036e-07
-4.4437551e-09
2.6358577e-07
-3.2966864e-09
2.6859332e-07
-5.010137e-09
2.7448257e-07
-5.888107e-09
2.780761e-07
-3.5932425e-09
2.902253e-07
-1.2150653e-08
2.9172149e-07
-1.5524573e-09
2.9193465e-07
-1.5636752e-10
2.9850864e-07
-6.5756579e-09
3.0740994e-07
-8.8986505e-09
3.1330999e-07
-5.9022519e-09
3.2106916e-07
-7.7616855e-09
3.2805504e-07
-6.9931126e-09
3.3611064e-07
-8.0549295e-09
3.4428345e-07
-8.1763981e-09
3.5373673e-07
-9.459665e-09
3.6176675e-07
-8.0395248e-09
3.7268306e-07
-1.0927062e-08
3.8176252e-07
-9.0882319e-09
3.9361968e-07
-1.187095e-08
4.0395134e-07
-1.0336498e-08
4.165151e-07
-1.2574485e-08
4.2758567e-07
-1.1069035e-08
4.4173802e-07
-1.4163449e-08
4.5499765e-07
-1.3255514e-08
4.6924048e-07
-1.4247755e-08
4.8451349e-07
-1.5261261e-08
4.9979591e-07
-1.5283704e-08
5.1715231e-07
-1.734223e-08
5.3314981e-07
-1.5991147e-08
5.5283286e-07
-1.9664921e-08
5.7083239e-07
-1.7991759e-08
5.9214038e-07
-2.1293059e-08
6.1315432e-07
-2.1002763e-08
6.357422e-07
-2.2574702e-08
6.5951743e-07
-2.3767015e-08
6.8463146e-07
-2.5106407e-08
7.1095855e-07
-2.6317977e-08
7.3938986e-07
-2.8422219e-08
7.7360625e-07
-3.4210337e-08
8.1747976e-07
-4.3867779e-08
8.725802e-07
-5.5095461e-08
9.3846496e-07
-6.5881469e-08
1.003955e-06
-6.5484018e-08
1.0621308e-06
-5.8171462e-08
1.0876556e-06
-2.5518609e-08
1.150117e-06
-6.2454948e-08
1.2042721e-06
-5.4151236e-08
1.2362506e-06
-3.1973792e-08
1.2427849e-06
-6.5304541e-09
1.2598775e-06
-1.7087217e-08
1.2800585e-06
-2.0176615e-08
1.2797249e-06
3.3932716e-10
1.3169597e-06
-3.7230135e-08
1.4107656e-06
-9.3801372e-08
1.3719419e-06
3.8827799e-08
1.4516912e-06
-7.9745373e-08
1.4242646e-06
2.7429401e-08
1.4257503e-06
-1.4825101e-09
1.4337637e-06
-8.0109362e-09
1.1889693e-06
2.4479776e-07
1.1784891e-06
1.048208e-08
1.2525424e-06
-7.4050994e-08
3.3943312e-07
9.131101e-07
1.4797102e-08
3.2463825e-07
-9.82206e-07
9.9700321e-07
1.8254393e-06
-2.8076406e-06
-1.2719264e-05
1.4545053e-05
-1.7846443e-05
5.1268032e-06
1.61336e-05
-3.3980872e-05
-1.3636075e-05
2.9770487e-05
-7.0092688e-06
-6.6275198e-06
3.8047214e-06
-1.0813165e-05
2.6131862e-05
-2.2324146e-05
-1.3794534e-05
3.9923237e-05
9.3470037e-05
-0.00010726771
8.9878192e-05
3.5946636e-06
4.5028452e-05
4.4849817e-05
7.8577744e-05
-3.3549136e-05
4.222578e-05
3.6352002e-05
-3.3346981e-05
7.5572871e-05
0.00022891524
-0.0002622622
-4.7504948e-05
0.00027642028
-5.0218818e-05
2.7137606e-06
-1.0217097e-05
-4.0001697e-05
1.8179861e-05
-2.8397872e-05
2.4850142e-05
-6.6692019e-06
1.1122918e-05
1.3714353e-05
-0.00048942782
0.00050056515
-0.00023115011
-0.00025826951
0.0052026757
-0.0054338313
-0.0016369116
0.0068396417
-0.00040223646
-0.0012347314
0.0019406463
-0.002342884
-0.00010178819
0.0020424341
-0.00058832089
0.00048653235
0.00010014997
-0.00068847108
4.6521809e-06
9.5497484e-05
0.00010479999
-0.00010014797
0.00021869193
-0.0001138922
-0.00016033621
0.00037902902
-4.4942085e-05
-0.00011539579
5.0858268e-06
-5.0035859e-05
-2.6871324e-05
3.1965245e-05
-4.2235528e-05
1.5364363e-05
9.2878188e-05
-0.00013511354
5.3515699e-05
3.9362643e-05
-3.9024003e-05
9.253985e-05
-2.9222523e-05
-9.801385e-06
-2.5282879e-05
-3.9395604e-06
-2.2009064e-05
-3.2737572e-06
-7.8087002e-06
-1.4200301e-05
-2.937537e-06
-4.8711791e-06
-2.0836979e-06
-8.5381567e-07
-3.0026759e-06
3.8840707e-06
-3.1875672e-06
3.1775752e-06
1.0446305e-06
4.0232289e-06
-6.122332e-07
4.5743503e-06
-1.2741559e-06
5.0169408e-06
-2.9757534e-07
4.4063114e-06
1.8431785e-06
3.7242833e-06
5.3133971e-07
1.3979482e-06
2.977671e-06
-9.8724901e-07
3.4721109e-06
-1.0733148e-06
-3.5332824e-07
-3.8214627e-07
-8.7796858e-07
9.7537164e-07
-1.8445447e-06
7.5897909e-07
3.9776446e-07
7.1604975e-07
1.6864504e-07
9.5430637e-07
-5.2342177e-07
4.5964548e-07
6.9925783e-07
3.1754093e-07
1.9103437e-07
8.9594324e-08
3.1025873e-07
8.6808464e-08
6.8707732e-08
1.3105746e-07
-6.7113167e-08
-1.7513979e-08
2.4468304e-07
-2.4251166e-07
2.116888e-07
-3.0929047e-07
1.2013747e-07
3.4456985e-07
-9.4037151e-07
3.5251082e-08
6.2993413e-07
2.3399191e-07
-4.3869458e-07
-2.0415021e-07
5.7036376e-07
-6.4584878e-07
6.5449518e-07
1.0603819e-06
-2.7803579e-06
4.4627633e-07
1.2783968e-06
-1.5210713e-07
8.4944889e-07
2.8946413e-07
-7.8822284e-07
5.0671345e-07
-1.660006e-07
3.9721727e-07
2.3263885e-07
2.2358021e-07
2.1370039e-07
2.1108666e-07
-3.3415249e-08
1.313165e-07
1.3588412e-07
4.0353579e-07
-4.3421311e-07
3.0723257e-07
1.3407811e-07
2.2088136e-07
1.5989206e-07
2.950698e-07
-1.351504e-07
-1.4039603e-07
6.8592953e-07
1.8935513e-07
-6.1727672e-07
2.3244695e-07
1.574637e-08
2.5144323e-07
-7.494489e-08
2.3900047e-07
3.4184249e-08
3.152079e-07
-1.4057681e-07
2.0124551e-07
1.9962783e-07
2.2703139e-07
-3.6019484e-08
1.6435959e-07
1.0588257e-07
1.6087576e-07
5.7751278e-08
3.7326981e-07
-3.2663936e-07
4.5130363e-07
-1.5240114e-07
4.0308571e-07
7.4384186e-08
3.8046771e-07
3.0422039e-08
3.1216081e-07
1.0955181e-07
1.5815297e-07
2.1757748e-07
9.771193e-08
6.737124e-08
4.212491e-08
5.2700594e-08
1.2613957e-08
9.4361643e-08
8.0482342e-08
-1.1450244e-07
7.8447469e-08
-1.88386e-08
9.7374146e-08
-2.2612441e-08
1.8468747e-07
-1.1567921e-07
2.0614283e-07
-4.6331749e-08
2.0537307e-07
-1.68785e-09
2.1336014e-07
-7.684988e-09
1.8530986e-07
5.1783699e-08
1.9227251e-07
-4.4506813e-09
1.8677983e-07
5.4174932e-09
1.8814929e-07
-3.5092987e-09
1.8720036e-07
-1.4915352e-09
1.8568573e-07
9.151426e-10
1.8100974e-07
5.9895207e-09
1.8019209e-07
6.1642638e-10
1.7937541e-07
4.7798213e-10
1.7653035e-07
3.1091283e-09
1.7422163e-07
3.1584398e-09
1.7750709e-07
-6.5326854e-09
1.7118479e-07
1.0433015e-08
1.7577253e-07
-9.0868309e-09
1.71005e-07
8.3757752e-09
1.7348614e-07
-5.1759465e-09
1.7453839e-07
-2.3745933e-09
1.7688261e-07
-3.0506462e-09
1.7673938e-07
4.9845479e-10
1.8036176e-07
-6.054332e-09
1.8410678e-07
-5.2650434e-09
1.8508908e-07
-1.129484e-09
1.8663701e-07
-2.4398532e-09
1.9131499e-07
-5.813247e-09
1.8797418e-07
6.2478912e-09
1.941566e-07
-9.5217817e-09
2.0225741e-07
-1.3919586e-08
2.0253304e-07
2.0160084e-09
2.0532802e-07
-3.9758364e-09
2.1264192e-07
-1.1388035e-08
2.1402429e-07
-4.291751e-10
2.2023121e-07
-9.6778193e-09
2.2196448e-07
-1.596634e-09
2.3128113e-07
-1.4609977e-08
2.2505529e-07
1.210006e-08
2.375151e-07
-1.9704375e-08
2.4158114e-07
-5.507922e-09
2.4772222e-07
-9.8629798e-09
2.4865407e-07
3.1083257e-10
2.5427459e-07
-8.2483435e-09
2.5905487e-07
-6.8901668e-09
2.641407e-07
-7.5205421e-09
2.6719784e-07
-4.0245504e-09
2.7325252e-07
-8.9593213e-09
2.7597517e-07
-3.495135e-09
2.8238527e-07
-1.0556809e-08
2.8406625e-07
-1.3286585e-09
2.8888051e-07
-7.5668996e-09
2.9207529e-07
-4.3270839e-09
2.9716433e-07
-7.8805538e-09
2.9887709e-07
-2.3536666e-09
3.0329802e-07
-6.7515189e-09
3.0609749e-07
-4.156546e-09
3.1077076e-07
-7.1903891e-09
3.1332244e-07
-3.920864e-09
3.1694733e-07
-6.0709348e-09
3.1878301e-07
-2.6854148e-09
3.2165672e-07
-4.6849782e-09
3.2451932e-07
-4.6344608e-09
3.2756701e-07
-5.0832357e-09
3.2959517e-07
-3.2985594e-09
3.321805e-07
-4.4401271e-09
3.3451292e-07
-3.9922986e-09
3.3674391e-07
-3.9651267e-09
3.3884957e-07
-3.7258774e-09
3.41066e-07
-4.0366025e-09
3.4317205e-07
-3.834655e-09
3.4525578e-07
-3.9096894e-09
3.4724854e-07
-3.725013e-09
3.4934639e-07
-4.0657556e-09
3.5134846e-07
-3.8036965e-09
3.534812e-07
-4.1638557e-09
3.5557097e-07
-4.0663245e-09
3.5775523e-07
-4.2528683e-09
3.6008796e-07
-4.5217187e-09
3.6236751e-07
-4.5226591e-09
3.6492147e-07
-4.8318617e-09
3.676124e-07
-5.3366603e-09
3.7036253e-07
-5.4686544e-09
3.7295475e-07
-4.887921e-09
3.7595276e-07
-5.6965022e-09
3.7893818e-07
-5.8322454e-09
3.8241305e-07
-6.6379872e-09
3.8579457e-07
-6.3998919e-09
3.8970936e-07
-7.2848103e-09
3.9362434e-07
-7.5277457e-09
3.9790353e-07
-7.7029961e-09
4.0252238e-07
-8.4999153e-09
4.0744456e-07
-9.3640453e-09
4.1222296e-07
-8.0720396e-09
4.1822334e-07
-1.1008784e-08
4.249027e-07
-1.2567512e-08
4.3155091e-07
-1.0241423e-08
4.4560541e-07
-2.6204979e-08
4.4496516e-07
-1.0019353e-09
4.4643734e-07
-1.5342278e-09
4.5675699e-07
-1.6900114e-08
4.6759353e-07
-1.9737945e-08
4.7677841e-07
-1.5095514e-08
4.8708363e-07
-1.8072958e-08
4.9605334e-07
-1.5974716e-08
5.0781618e-07
-1.9824267e-08
5.1916296e-07
-1.953523e-08
5.3216796e-07
-2.2474566e-08
5.4391824e-07
-1.9803934e-08
5.5862482e-07
-2.5653453e-08
5.7165253e-07
-2.2133809e-08
5.8836991e-07
-2.8609252e-08
6.0310367e-07
-2.5080724e-08
6.2126927e-07
-3.0757603e-08
6.3738734e-07
-2.7190314e-08
6.5779039e-07
-3.4583777e-08
6.7748335e-07
-3.294796e-08
6.9843589e-07
-3.5210522e-08
7.2144785e-07
-3.826389e-08
7.4409886e-07
-3.7938975e-08
7.7046265e-07
-4.3692148e-08
7.9499615e-07
-4.0520052e-08
8.2494328e-07
-4.9593786e-08
8.5322975e-07
-4.6268786e-08
8.8639805e-07
-5.4443692e-08
9.1908517e-07
-5.3676654e-08
9.541162e-07
-5.7590815e-08
9.9283849e-07
-6.2480364e-08
1.0338523e-06
-6.6112736e-08
1.0767983e-06
-6.9256986e-08
1.1243519e-06
-7.5969353e-08
1.1770405e-06
-8.6889942e-08
1.2451242e-06
-1.1194317e-07
1.3302616e-06
-1.4022526e-07
1.4307606e-06
-1.6637563e-07
1.5334653e-06
-1.6818178e-07
1.6350798e-06
-1.5978206e-07
1.6888162e-06
-7.9251972e-08
1.7822976e-06
-1.5593361e-07
1.863073e-06
-1.3492122e-07
1.8959765e-06
-6.4871337e-08
1.894028e-06
-4.5771127e-09
1.9044839e-06
-2.7536649e-08
1.9351818e-06
-5.0869114e-08
1.969141e-06
-3.3612959e-08
2.0174876e-06
-8.5571098e-08
2.1657058e-06
-2.4201491e-07
2.1548211e-06
4.9719092e-08
2.235222e-06
-1.6014047e-07
2.2510406e-06
1.1615582e-08
2.3124157e-06
-6.2852951e-08
2.3606479e-06
-5.6238686e-08
2.2350241e-06
3.7042647e-07
2.3396741e-06
-9.4164402e-08
1.8878553e-06
3.7777098e-07
1.185703e-06
1.6152654e-06
2.5591346e-06
-1.0487895e-06
8.4276605e-07
2.7133732e-06
-4.064909e-07
-1.5583769e-06
-1.7622831e-05
3.176176e-05
-7.517607e-06
-4.9788162e-06
1.9744466e-05
-6.124381e-05
-3.137169e-05
8.0887487e-05
5.8792141e-05
-9.6792078e-05
6.9916652e-06
4.0988172e-05
7.4473252e-05
-8.9802603e-05
4.1986934e-05
7.240623e-05
0.000178994
-0.00024427809
8.8973964e-05
9.3617613e-05
0.00014372621
-9.9023298e-06
0.00026751482
-0.00015733756
8.3844083e-05
0.00022002279
1.4348951e-05
0.00014506814
0.00036518568
-0.00061309889
-8.0191332e-05
0.0007217974
-9.6440041e-05
1.8962335e-05
-1.96263e-05
-0.00011681541
2.7114238e-05
-7.513936e-05
2.3679059e-05
-3.2329043e-06
-4.2544829e-05
7.9924775e-05
-0.00078959734
0.001247633
0.00012859673
-0.0011764544
0.0082815376
-0.013586778
0.00024912599
0.01487211
0.0023732993
-0.0033589636
0.0019282264
-0.0018978126
-0.0014196365
0.0053902964
-0.00063625745
-0.00029684715
0.00042774695
-0.0017524758
-0.00022099677
0.00074424082
6.7524349e-05
-0.0003886693
0.00025522497
-0.00030159316
-0.00028557857
0.00091983342
-6.6583353e-05
-0.00033439284
2.314428e-05
-0.00013977181
-2.2906866e-05
7.8024887e-05
-6.1034672e-05
5.3492367e-05
0.00019009807
-0.00038624608
6.1577107e-05
0.0001678838
-9.648572e-05
0.00025060286
-2.4492275e-05
-8.1794711e-05
-1.3553462e-05
-1.487828e-05
-2.9117818e-05
1.2290663e-05
-1.3692389e-05
-2.9625693e-05
-3.8798816e-06
-1.4683736e-05
-3.2839616e-06
-1.4496307e-06
-8.1762297e-06
4.5966782e-06
-5.7596132e-06
3.860762e-06
1.7805854e-06
5.5705074e-06
-2.322004e-06
5.9995072e-06
-1.7031775e-06
6.7887277e-06
-1.086811e-06
7.3084065e-06
1.3234995e-06
5.9626771e-06
1.8770575e-06
2.3034594e-06
6.6368877e-06
-8.3928688e-07
6.6148546e-06
-1.3978889e-06
2.0526019e-07
-4.8080693e-07
-1.7950576e-06
1.2042482e-06
-3.5295921e-06
1.0228481e-06
5.7913811e-07
1.0833436e-06
1.0815866e-07
1.2489762e-06
-6.8906282e-07
5.4675966e-07
1.4014939e-06
4.168155e-07
3.2096097e-07
2.0337175e-07
5.2370128e-07
2.0306064e-07
6.9018837e-08
1.7988283e-07
-4.3936197e-08
-2.7325918e-08
4.5189043e-07
-2.2655277e-07
4.1091502e-07
-3.2209171e-07
2.1567449e-07
4.3475565e-07
-1.6972239e-06
2.4011585e-07
8.2457156e-07
2.1308971e-07
-4.1165864e-07
-3.3967073e-07
1.1230981e-06
-8.6575863e-07
1.1805862e-06
1.1003876e-06
-4.7465091e-06
6.0690867e-07
1.7718761e-06
-2.180016e-07
1.6743556e-06
1.3063451e-07
-1.1368605e-06
6.18751e-07
-6.5412224e-07
6.4868365e-07
2.0269915e-07
4.4333975e-07
4.1903231e-07
4.1818378e-07
-8.2724968e-09
1.9611222e-07
3.5793818e-07
5.0139763e-07
-7.3951681e-07
4.2851354e-07
2.0698441e-07
3.3752618e-07
2.5078684e-07
3.6953295e-07
-1.6760312e-07
-1.7321401e-07
1.2291586e-06
1.2194532e-07
-9.1243304e-07
2.8174556e-07
-1.4404168e-07
2.7591601e-07
-6.9123263e-08
2.7451303e-07
3.5600796e-08
3.4732013e-07
-2.133886e-07
2.3380434e-07
3.131536e-07
2.7164072e-07
-7.3852858e-08
2.2095035e-07
1.5656656e-07
2.5666047e-07
2.2041483e-08
5.0507675e-07
-5.7506042e-07
5.6627771e-07
-2.1360241e-07
5.0912483e-07
1.3154465e-07
4.755084e-07
6.4036122e-08
3.9500059e-07
1.900576e-07
2.1315534e-07
3.9941703e-07
1.2325955e-07
1.5726395e-07
2.1314477e-08
1.5463454e-07
-1.0861067e-08
1.2652542e-07
7.9069798e-08
-2.0444086e-07
5.8526531e-08
1.6935393e-09
8.7141444e-08
-5.1221247e-08
2.2746603e-07
-2.5600084e-07
2.3502744e-07
-5.3893992e-08
2.1295989e-07
2.0378281e-08
2.2910838e-07
-2.383628e-08
1.9970526e-07
8.1184e-08
2.1315194e-07
-1.7903784e-08
2.0305091e-07
1.5510712e-08
2.0311621e-07
-3.5690811e-09
1.9905115e-07
2.5777699e-09
1.9529756e-07
4.6702905e-09
1.8827011e-07
1.3019922e-08
1.8561155e-07
3.2746504e-09
1.8346664e-07
2.6253521e-09
1.7838519e-07
8.1894705e-09
1.7465836e-07
6.8883283e-09
1.7694023e-07
-8.817585e-09
1.7119587e-07
1.6180268e-08
1.7214746e-07
-1.0039518e-08
1.702462e-07
1.0283968e-08
1.7115482e-07
-6.0847929e-09
1.7218887e-07
-3.4000873e-09
1.7346711e-07
-4.3252876e-09
1.7685382e-07
-2.8765358e-09
1.783461e-07
-7.5443386e-09
1.8484697e-07
-1.17579e-08
1.8812988e-07
-4.4104109e-09
1.8978208e-07
-4.0868096e-09
1.9651686e-07
-1.2553335e-08
1.9562197e-07
7.1375289e-09
2.0344475e-07
-1.7338143e-08
2.1343555e-07
-2.3902499e-08
2.1639443e-07
-9.4541664e-10
2.2199775e-07
-9.5765109e-09
2.3122945e-07
-2.0619556e-08
2.3507581e-07
-4.2687819e-09
2.4402566e-07
-1.8625788e-08
2.4833509e-07
-5.8990159e-09
2.6053028e-07
-2.6798529e-08
2.5635626e-07
1.6281288e-08
2.7169594e-07
-3.5053182e-08
2.7833265e-07
-1.21586e-08
2.8719652e-07
-1.8716093e-08
2.9043601e-07
-2.9229243e-09
2.9874387e-07
-1.6559196e-08
3.058799e-07
-1.4030896e-08
3.1348806e-07
-1.5131888e-08
3.1877786e-07
-9.3191725e-09
3.2729028e-07
-1.7475212e-08
3.3206281e-07
-8.2725333e-09
3.4020818e-07
-1.8706192e-08
3.4392699e-07
-5.051615e-09
3.5040235e-07
-1.4047363e-08
3.551214e-07
-9.0514265e-09
3.6192948e-07
-1.4693973e-08
3.6495131e-07
-5.3882012e-09
3.7028049e-07
-1.2073439e-08
3.7475751e-07
-8.6337937e-09
3.8030319e-07
-1.273706e-08
3.8389143e-07
-7.5144177e-09
3.8803052e-07
-1.0203675e-08
3.9066555e-07
-5.3181932e-09
3.9392153e-07
-7.9393979e-09
3.9725841e-07
-7.9717853e-09
4.005832e-07
-8.4037338e-09
4.0279815e-07
-5.5105477e-09
4.054258e-07
-7.0659248e-09
4.0765688e-07
-6.2202309e-09
4.096742e-07
-5.98419e-09
4.1146532e-07
-5.5167295e-09
4.1323347e-07
-5.8060413e-09
4.1480215e-07
-5.4025128e-09
4.1629369e-07
-5.4047313e-09
4.1760429e-07
-5.0364134e-09
4.1887747e-07
-5.3418417e-09
4.2000743e-07
-4.9326606e-09
4.2119539e-07
-5.3549159e-09
4.2227119e-07
-5.1414675e-09
4.2339227e-07
-5.375103e-09
4.2458258e-07
-5.7102805e-09
4.2567923e-07
-5.6201011e-09
4.2708363e-07
-6.2356136e-09
4.283984e-07
-6.6511992e-09
4.297489e-07
-6.8236697e-09
4.3123657e-07
-6.370201e-09
4.3311331e-07
-7.5738431e-09
4.3475708e-07
-7.4762841e-09
4.3692304e-07
-8.8050503e-09
4.390849e-07
-8.5640011e-09
4.4174926e-07
-9.9526045e-09
4.4432242e-07
-1.010342e-08
4.4749e-07
-1.0874727e-08
4.5087473e-07
-1.1887868e-08
4.5447229e-07
-1.296678e-08
4.584175e-07
-1.2020897e-08
4.6323215e-07
-1.5828455e-08
4.6857304e-07
-1.7906801e-08
4.7483438e-07
-1.65022e-08
4.8703387e-07
-3.8407094e-08
4.8308909e-07
2.8773316e-09
4.8446435e-07
-2.8440533e-09
4.9558929e-07
-2.8026551e-08
5.0562948e-07
-2.9772271e-08
5.1451814e-07
-2.3983784e-08
5.2432201e-07
-2.7878095e-08
5.3240139e-07
-2.4060599e-08
5.4410753e-07
-3.1526029e-08
5.5506241e-07
-3.0490469e-08
5.6779047e-07
-3.5208452e-08
5.7952679e-07
-3.1549559e-08
5.9391086e-07
-4.0045915e-08
6.067708e-07
-3.4999941e-08
6.2365645e-07
-4.5507973e-08
6.3841969e-07
-3.9847089e-08
6.5691189e-07
-4.9259367e-08
6.7328372e-07
-4.3558089e-08
6.9422155e-07
-5.5531833e-08
7.1457237e-07
-5.329213e-08
7.3622426e-07
-5.6865676e-08
7.60266e-07
-6.2290368e-08
7.8383577e-07
-6.1508744e-08
8.116773e-07
-7.1516528e-08
8.3749376e-07
-6.6327954e-08
8.691149e-07
-8.119328e-08
8.9938858e-07
-7.6533759e-08
9.3461491e-07
-8.9653384e-08
9.695138e-07
-8.8563021e-08
1.0066183e-06
-9.4680577e-08
1.0487501e-06
-1.0460234e-07
1.0937728e-06
-1.1112624e-07
1.1408072e-06
-1.1627926e-07
1.1929215e-06
-1.2807168e-07
1.248769e-06
-1.4273129e-07
1.3225943e-06
-1.8576284e-07
1.4144411e-06
-2.3206727e-07
1.5218115e-06
-2.7374325e-07
1.6346039e-06
-2.8096684e-07
1.7505278e-06
-2.7570067e-07
1.8156517e-06
-1.4436674e-07
1.9134746e-06
-2.5374719e-07
1.9961697e-06
-2.1761226e-07
2.0193783e-06
-8.8074925e-08
2.0057742e-06
9.0312645e-09
2.0008823e-06
-2.2638766e-08
2.0245675e-06
-7.4549521e-08
2.0769398e-06
-8.5979034e-08
2.1266178e-06
-1.3524383e-07
2.2771675e-06
-3.9255958e-07
2.2648214e-06
6.2069176e-08
2.3314419e-06
-2.267571e-07
2.3374321e-06
5.6278759e-09
2.3863661e-06
-1.1178404e-07
2.4226187e-06
-9.2488986e-08
2.3243022e-06
4.6874618e-07
2.4072926e-06
-1.7715333e-07
1.6987653e-06
1.0863003e-06
1.1011313e-06
2.2128998e-06
2.777984e-06
-2.7256402e-06
8.4472156e-07
4.6466351e-06
-2.7310481e-06
2.0173974e-06
-1.9310362e-05
4.8341413e-05
-6.051188e-06
-1.8238358e-05
2.1281754e-05
-8.8577566e-05
-2.7147692e-05
0.00012931773
8.7679516e-05
-0.00021161999
-8.0883617e-06
0.00013675687
9.219373e-05
-0.00019008175
7.4792796e-05
8.9804046e-05
0.00021239625
-0.00038188466
9.3272573e-05
0.00021274406
0.00019185351
-0.00010848318
0.00036296635
-0.00032845023
0.00011920928
0.0004637799
7.7391906e-05
0.00018688564
0.00047781809
-0.001013525
-8.5848818e-05
0.0012854644
-0.00010861994
4.1733333e-05
-2.3534195e-05
-0.00020190113
3.0632721e-05
-0.00012930718
1.5230216e-05
1.2170691e-05
-4.0243659e-05
0.00013538585
-0.00097624692
0.0021836507
0.00058500588
-0.002737699
0.0092054686
-0.022207246
0.00200914
0.022068493
0.0043760932
-0.0057259736
0.0014181198
0.0010601594
-0.0023179648
0.0091263806
-0.00053872647
-0.0020760859
0.00064057938
-0.0029317819
-0.000368606
0.0017534259
0.00018270565
-0.00093998113
0.00035179786
-0.00047068567
-0.00034445857
0.0016160907
-7.0296335e-05
-0.0006085568
3.2623333e-05
-0.00024269945
-1.7673151e-05
0.00012832953
-9.9088878e-05
0.00013490828
0.00024041094
-0.00072574568
0.00011757717
0.00029071776
-0.00010941143
0.00047759163
-1.2049173e-05
-0.00017915686
1.5044938e-06
-2.8431846e-05
-3.3541038e-05
4.7336269e-05
-2.0177825e-05
-4.2988815e-05
-4.619779e-06
-3.0241795e-05
-3.9419685e-06
-2.1274414e-06
-1.4142734e-05
5.2488113e-06
-9.0361529e-06
4.7839534e-06
2.2453873e-06
6.7838748e-06
-4.3218447e-06
6.9651432e-06
-1.8844217e-06
7.9284013e-06
-2.0500533e-06
9.0173408e-06
2.3457389e-07
7.3155744e-06
3.5788329e-06
2.8192295e-06
1.1133242e-05
-5.1805651e-07
9.9521519e-06
-1.1662252e-06
8.534278e-07
-3.5805979e-07
-2.6032166e-06
1.3430178e-06
-5.230639e-06
1.2026689e-06
7.1944993e-07
1.366053e-06
-5.5192927e-08
1.4575517e-06
-7.8057036e-07
5.7244044e-07
2.2866199e-06
4.5029194e-07
4.4310058e-07
3.6321803e-07
6.1077717e-07
3.0716467e-07
1.2507498e-07
1.3400863e-07
1.2922278e-07
-1.2643667e-07
7.1233808e-07
-2.8250336e-07
5.6698478e-07
-4.1106824e-07
3.4424368e-07
4.0473531e-07
-2.5130256e-06
3.1783791e-07
9.1147462e-07
1.5944623e-07
-2.5325123e-07
-4.8529434e-07
1.767835e-06
-1.0696551e-06
1.7649687e-06
1.0241933e-06
-6.8403694e-06
4.5735926e-07
2.3387412e-06
-3.1262607e-07
2.4443242e-06
6.1898043e-08
-1.5113711e-06
6.4451426e-07
-1.236726e-06
7.6408131e-07
8.3137043e-08
5.5262455e-07
6.304927e-07
5.267391e-07
1.7609176e-08
2.4526772e-07
6.3941029e-07
5.7821621e-07
-1.0724727e-06
5.1540983e-07
2.6990751e-07
4.0491991e-07
3.6102935e-07
4.1726334e-07
-1.7925637e-07
-1.6029543e-07
1.8075074e-06
8.3583323e-08
-1.1563033e-06
3.1195878e-07
-3.7241358e-07
3.2781111e-07
-8.4992376e-08
3.3288331e-07
3.0536192e-08
3.9134064e-07
-2.7185301e-07
2.6605887e-07
4.3844293e-07
3.2791369e-07
-1.3571104e-07
2.7713971e-07
2.0732652e-07
3.1569407e-07
-1.6504033e-08
5.8272808e-07
-8.4209731e-07
6.3385029e-07
-2.6473043e-07
5.7349514e-07
1.9188914e-07
5.3075175e-07
1.0677321e-07
4.452001e-07
2.7560164e-07
2.5581201e-07
5.8879944e-07
1.5987565e-07
2.5319243e-07
2.632216e-08
2.8818515e-07
-1.3007286e-08
1.6585173e-07
8.881794e-08
-3.0626932e-07
6.0383544e-08
3.0121006e-08
9.0008155e-08
-8.0855032e-08
2.5992747e-07
-4.2593171e-07
2.580826e-07
-5.2058375e-08
2.1856036e-07
5.9891553e-08
2.3964801e-07
-4.4931106e-08
2.0644679e-07
1.1437891e-07
2.1933456e-07
-3.0796301e-08
2.0557183e-07
2.9267305e-08
2.0316414e-07
-1.1729575e-09
1.9674653e-07
8.9828056e-09
1.9052794e-07
1.0876067e-08
1.8125807e-07
2.227891e-08
1.7644866e-07
8.0699325e-09
1.7266745e-07
6.3958639e-09
1.6600117e-07
1.484299e-08
1.6077454e-07
1.2106985e-08
1.6207591e-07
-1.0132765e-08
1.564512e-07
2.1797899e-08
1.5572151e-07
-9.320849e-09
1.5443268e-07
1.1570557e-08
1.5652409e-07
-8.1865459e-09
1.5739572e-07
-4.2724535e-09
1.5828475e-07
-5.2187226e-09
1.6261252e-07
-7.1999123e-09
1.6500268e-07
-9.9349871e-09
1.720661e-07
-1.8815415e-08
1.7773661e-07
-1.0075852e-08
1.8066233e-07
-7.0045357e-09
1.8977031e-07
-2.1652376e-08
1.9012776e-07
6.7869123e-09
2.0120722e-07
-2.8420173e-08
2.1297483e-07
-3.5672861e-08
2.1883886e-07
-6.8088696e-09
2.2693021e-07
-1.7662423e-08
2.3904683e-07
-3.2735289e-08
2.4491481e-07
-1.0129113e-08
2.5693123e-07
-3.0636492e-08
2.6387339e-07
-1.2830229e-08
2.7888495e-07
-4.1802484e-08
2.7820364e-07
1.6969159e-08
2.9606848e-07
-5.28972e-08
3.0482988e-07
-2.09076e-08
3.1680301e-07
-3.0683124e-08
3.2257205e-07
-8.6939671e-09
3.3404499e-07
-2.8022297e-08
3.4321255e-07
-2.3191539e-08
3.536807e-07
-2.5593328e-08
3.6121172e-07
-1.6846359e-08
3.720507e-07
-2.8305562e-08
3.7933504e-07
-1.5550832e-08
3.8924098e-07
-2.860646e-08
3.9451409e-07
-1.0319698e-08
4.03308e-07
-2.2834032e-08
4.0936481e-07
-1.5101499e-08
4.1755427e-07
-2.2876823e-08
4.2216693e-07
-1.0006711e-08
4.283967e-07
-1.8289153e-08
4.3425084e-07
-1.4486354e-08
4.4093405e-07
-1.9418569e-08
4.4512921e-07
-1.1715069e-08
4.4978763e-07
-1.4856009e-08
4.531106e-07
-8.6420869e-09
4.5657459e-07
-1.1404368e-08
4.6026211e-07
-1.166388e-08
4.6361793e-07
-1.1759164e-08
4.6580569e-07
-7.7008498e-09
4.6828193e-07
-9.5452937e-09
4.7022713e-07
-8.1674887e-09
4.7180911e-07
-7.5672041e-09
4.7305047e-07
-6.7573044e-09
4.7415468e-07
-6.9107093e-09
4.7496081e-07
-6.2072593e-09
4.7556907e-07
-6.0128288e-09
4.7589982e-07
-5.3645151e-09
4.7608651e-07
-5.5278765e-09
4.7604757e-07
-4.888983e-09
4.7598007e-07
-5.2854209e-09
4.7573643e-07
-4.8919362e-09
4.7545629e-07
-5.0911224e-09
4.752029e-07
-5.4501682e-09
4.747879e-07
-5.1989868e-09
4.7463809e-07
-6.0782707e-09
4.7436e-07
-6.3661334e-09
4.7410049e-07
-6.5653909e-09
4.7394711e-07
-6.2033268e-09
4.741623e-07
-7.7850276e-09
4.7407713e-07
-7.3865402e-09
4.7454298e-07
-9.2668824e-09
4.7499616e-07
-9.0123643e-09
4.7596655e-07
-1.0919211e-08
4.7683548e-07
-1.0967593e-08
4.7830317e-07
-1.2339349e-08
4.799998e-07
-1.3579431e-08
4.8195387e-07
-1.4917763e-08
4.8420452e-07
-1.4267383e-08
4.8746185e-07
-1.9082705e-08
4.9126287e-07
-2.170828e-08
4.9579353e-07
-2.1032612e-08
5.0676266e-07
-4.9375804e-08
5.0114043e-07
8.391584e-09
5.003646e-07
-1.9538441e-09
5.102011e-07
-3.7869631e-08
5.1916534e-07
-3.8740739e-08
5.2671147e-07
-3.1539768e-08
5.3534194e-07
-3.6515449e-08
5.4211357e-07
-3.0845149e-08
5.5279417e-07
-4.2214869e-08
5.6260072e-07
-4.0311195e-08
5.7426118e-07
-4.6879427e-08
5.8503797e-07
-4.2341499e-08
5.9837322e-07
-5.3402774e-08
6.1017872e-07
-4.6825347e-08
6.2627411e-07
-6.1625588e-08
6.4010428e-07
-5.3689052e-08
6.578597e-07
-6.7033605e-08
6.7340864e-07
-5.9111608e-08
6.9377126e-07
-7.5912804e-08
7.1349145e-07
-7.3012919e-08
7.3459444e-07
-7.797996e-08
7.5816812e-07
-8.5855765e-08
7.8132689e-07
-8.4672362e-08
8.08912e-07
-9.9088336e-08
8.3410519e-07
-9.1517087e-08
8.6552839e-07
-1.1259883e-07
8.9552794e-07
-1.0652358e-07
9.304194e-07
-1.2452699e-07
9.6507507e-07
-1.2320527e-07
1.0014736e-06
-1.3106441e-07
1.0439486e-06
-1.4706814e-07
1.0890456e-06
-1.5621611e-07
1.1361278e-06
-1.633552e-07
1.1882104e-06
-1.8014886e-07
1.244568e-06
-1.9907915e-07
1.3200978e-06
-2.6128387e-07
1.4149148e-06
-3.268761e-07
1.5248157e-06
-3.8363956e-07
1.6427119e-06
-3.9885549e-07
1.7627887e-06
-3.9577396e-07
1.8295106e-06
-2.1108635e-07
1.9276682e-06
-3.5190335e-07
2.0074146e-06
-2.973528e-07
2.0252523e-06
-1.0590649e-07
2.001057e-06
3.3231548e-08
1.993749e-06
-1.5324201e-08
2.0160732e-06
-9.6868076e-08
2.0636418e-06
-1.3354064e-07
2.1101526e-06
-1.8174893e-07
2.2603196e-06
-5.4272228e-07
2.2384471e-06
8.3949027e-08
2.2947654e-06
-2.8306922e-07
2.2866627e-06
1.3735765e-08
2.3071276e-06
-1.3224418e-07
2.3309639e-06
-1.1632018e-07
2.2237967e-06
5.7591862e-07
2.2759403e-06
-2.2929305e-07
1.4328072e-06