/*--------------------------------*- C++ -*----------------------------------*\
  =========                 |
  \\      /  F ield         | OpenFOAM: The Open Source CFD Toolbox
   \\    /   O peration     | Website:  https://openfoam.org
    \\  /    A nd           | Version:  7
     \\/     M anipulation  |
\*---------------------------------------------------------------------------*/
FoamFile
{
    version     2.0;
    format      ascii;
    class       volScalarField;
    location    "240";
    object      k;
}
// * * * * * * * * * * * * * * * * * * * * * * * * * * * * * * * * * * * * * //

dimensions      [0 2 -2 0 0 0 0];

internalField   nonuniform List<scalar> 
78300
(
6.4921471e-09
7.3990583e-09
7.8618751e-09
7.4264985e-09
6.1929022e-09
4.6552875e-09
2.9937671e-09
1.6429889e-09
7.9395619e-10
3.7200996e-10
2.3144224e-10
1.3649619e-10
8.6974809e-11
7.1923038e-11
6.8979775e-11
6.9457265e-11
6.9629459e-11
6.6823946e-11
6.0357681e-11
5.403754e-11
4.8625541e-11
4.4701923e-11
4.1883165e-11
4.0186654e-11
3.9540468e-11
3.9469147e-11
4.0109587e-11
4.1273925e-11
4.3001686e-11
4.5521849e-11
4.8851512e-11
5.3059561e-11
5.8370818e-11
6.4938129e-11
7.2891704e-11
8.2312516e-11
9.3156856e-11
1.0539457e-10
1.1917595e-10
1.3461194e-10
1.5166393e-10
1.7031871e-10
1.9032605e-10
2.1181938e-10
2.3472847e-10
2.5887961e-10
2.842208e-10
3.1047815e-10
3.3794724e-10
3.675734e-10
3.9919932e-10
4.3196708e-10
4.6552243e-10
4.9854719e-10
5.3012302e-10
5.5921799e-10
5.8528808e-10
6.0859019e-10
6.2821599e-10
6.4746555e-10
6.6682954e-10
6.8668754e-10
7.2802065e-10
8.2585275e-10
9.5478509e-10
1.0770317e-09
1.1936413e-09
1.304655e-09
1.4111148e-09
1.511814e-09
1.6082293e-09
1.6998876e-09
1.787761e-09
1.8716431e-09
1.9521569e-09
2.0290193e-09
2.1027763e-09
2.1732901e-09
2.2410227e-09
2.3059215e-09
2.3684545e-09
2.4285619e-09
2.4864453e-09
2.5420837e-09
2.5957148e-09
2.6473588e-09
2.6972034e-09
2.7452905e-09
2.7917851e-09
2.8367231e-09
2.8802323e-09
2.9223527e-09
2.9632044e-09
3.0028285e-09
3.0413159e-09
3.078703e-09
3.11506e-09
3.1504224e-09
3.1848677e-09
3.218417e-09
3.2511136e-09
3.2829822e-09
3.3140582e-09
3.3443786e-09
3.3739358e-09
3.4027195e-09
3.4307365e-09
3.4579729e-09
3.4844289e-09
3.5100911e-09
3.5349475e-09
3.5589847e-09
3.582182e-09
3.6045288e-09
3.6260072e-09
3.646599e-09
3.6662717e-09
3.6849969e-09
3.7027511e-09
3.7195005e-09
3.7352182e-09
3.7498614e-09
3.763391e-09
3.7757713e-09
3.7869734e-09
3.7969832e-09
3.8058191e-09
3.813542e-09
3.8202431e-09
3.8260316e-09
3.8309477e-09
3.8349852e-09
3.8380954e-09
3.8401485e-09
3.840832e-09
3.8395173e-09
3.8367706e-09
3.8326745e-09
3.8271947e-09
3.8204067e-09
3.8123203e-09
3.8029523e-09
3.7923205e-09
3.7804331e-09
3.7672969e-09
3.7529321e-09
3.7373365e-09
3.7205412e-09
3.7025452e-09
3.6833759e-09
3.6630499e-09
3.6416064e-09
3.6190493e-09
3.5954233e-09
3.5707302e-09
3.5450256e-09
3.5182947e-09
3.4906182e-09
3.4619845e-09
3.4324866e-09
3.4020124e-09
3.3707901e-09
3.3386582e-09
3.3056788e-09
3.272015e-09
3.2378383e-09
3.2028369e-09
3.1673769e-09
3.1312045e-09
3.09476e-09
3.0576709e-09
3.0202632e-09
2.9822882e-09
2.9438936e-09
2.9050608e-09
2.8659351e-09
2.8261648e-09
2.7862073e-09
2.7455788e-09
2.704712e-09
2.6631081e-09
2.6212728e-09
2.5785762e-09
2.5358691e-09
2.4922305e-09
2.4481815e-09
2.4034129e-09
2.3585257e-09
2.3126403e-09
2.2663982e-09
2.2188326e-09
2.1710352e-09
2.1222262e-09
2.0733085e-09
2.022049e-09
1.9703606e-09
1.9149809e-09
1.8587461e-09
1.7998772e-09
1.7402504e-09
1.6789067e-09
1.6165496e-09
1.5484682e-09
1.4765856e-09
1.3973228e-09
1.3119759e-09
1.2129571e-09
1.1468081e-09
1.1825245e-09
1.2607452e-09
1.3539476e-09
1.4567033e-09
1.5608398e-09
1.6658866e-09
1.7761066e-09
1.8905266e-09
2.0036164e-09
2.1160387e-09
2.2296247e-09
2.3714598e-09
2.4980579e-09
2.7048759e-09
2.8032321e-09
3.0500782e-09
3.3857834e-09
3.6090679e-09
3.8208124e-09
3.8237511e-09
3.7494665e-09
3.1738964e-09
2.4644158e-09
2.5373069e-09
2.5743891e-09
2.5772326e-09
2.7387615e-09
3.2284999e-09
3.7863961e-09
3.9388205e-09
3.487647e-09
2.2004153e-09
1.0566108e-09
8.7074243e-10
3.4617297e-09
1.1048423e-08
2.7052153e-08
8.6197932e-08
3.4832192e-08
8.1232877e-08
1.1330125e-07
7.6408785e-08
5.3619617e-08
2.4111292e-08
1.3284014e-08
9.3367988e-09
6.1174467e-09
5.0906666e-09
4.9521156e-09
5.0360549e-09
6.4371803e-09
7.755104e-09
8.630241e-09
1.0303619e-08
9.7488214e-09
8.594074e-09
8.2268648e-09
7.54475e-09
6.5486555e-09
5.772202e-09
5.295887e-09
5.5239627e-09
2.0947688e-07
2.3876916e-07
2.5372194e-07
2.3966768e-07
1.9983354e-07
1.5017939e-07
9.6519565e-08
5.2889658e-08
2.5459684e-08
1.1822624e-08
7.2774623e-09
4.209044e-09
2.6078167e-09
2.1205928e-09
2.0251617e-09
2.0405331e-09
2.046214e-09
1.9557935e-09
1.7470101e-09
1.5428104e-09
1.3679037e-09
1.2410694e-09
1.1499375e-09
1.0950609e-09
1.0741334e-09
1.0717869e-09
1.0924375e-09
1.1300177e-09
1.1857913e-09
1.2671571e-09
1.3746701e-09
1.5105514e-09
1.6820607e-09
1.8941386e-09
2.1509936e-09
2.4552467e-09
2.8054868e-09
3.2007363e-09
3.645845e-09
4.1443992e-09
4.6951582e-09
5.2977001e-09
5.9439338e-09
6.6381658e-09
7.3781388e-09
8.158235e-09
8.9767734e-09
9.8248993e-09
1.071214e-08
1.1669035e-08
1.2690547e-08
1.3748979e-08
1.4832878e-08
1.5899665e-08
1.6919682e-08
1.7859563e-08
1.8701724e-08
1.9454475e-08
2.0088461e-08
2.0710274e-08
2.1335796e-08
2.1977319e-08
2.3312738e-08
2.6473159e-08
3.0637847e-08
3.4586464e-08
3.8353016e-08
4.1938813e-08
4.537752e-08
4.8630158e-08
5.1744427e-08
5.470504e-08
5.7543399e-08
6.0252841e-08
6.2853482e-08
6.5336179e-08
6.7718567e-08
6.9996199e-08
7.2183998e-08
7.4280256e-08
7.6300101e-08
7.8241586e-08
8.0111218e-08
8.1908337e-08
8.3640616e-08
8.5308708e-08
8.6918678e-08
8.8471883e-08
8.9973647e-08
9.1425134e-08
9.2830466e-08
9.4190941e-08
9.5510435e-08
9.679028e-08
9.8033404e-08
9.9240989e-08
1.0041531e-07
1.0155749e-07
1.0267005e-07
1.0375368e-07
1.0480976e-07
1.058391e-07
1.0684283e-07
1.0782216e-07
1.0877684e-07
1.0970654e-07
1.1061147e-07
1.1149118e-07
1.1234569e-07
1.1317457e-07
1.1397742e-07
1.147538e-07
1.1550306e-07
1.1622484e-07
1.1691859e-07
1.1758368e-07
1.182191e-07
1.1882393e-07
1.1939737e-07
1.1993838e-07
1.2044604e-07
1.2091901e-07
1.2135601e-07
1.217559e-07
1.2211772e-07
1.2244104e-07
1.2272643e-07
1.2297588e-07
1.2319234e-07
1.2337929e-07
1.2353809e-07
1.2366851e-07
1.2376896e-07
1.238353e-07
1.2385736e-07
1.2381492e-07
1.2372619e-07
1.235939e-07
1.2341693e-07
1.2319767e-07
1.2293649e-07
1.2263392e-07
1.2229052e-07
1.2190657e-07
1.2148229e-07
1.2101831e-07
1.205146e-07
1.1997211e-07
1.1939085e-07
1.1877169e-07
1.1811519e-07
1.1742257e-07
1.1669399e-07
1.1593089e-07
1.1513329e-07
1.1430307e-07
1.1343966e-07
1.1254572e-07
1.1162085e-07
1.106681e-07
1.0968377e-07
1.086753e-07
1.0763746e-07
1.0657222e-07
1.0548488e-07
1.04381e-07
1.0325045e-07
1.0210508e-07
1.0093673e-07
9.9759575e-08
9.8561586e-08
9.7353319e-08
9.6126736e-08
9.4886576e-08
9.3632283e-08
9.2368504e-08
9.1083933e-08
8.9793294e-08
8.8480995e-08
8.7160981e-08
8.581717e-08
8.4465891e-08
8.3086774e-08
8.170733e-08
8.0297786e-08
7.8875001e-08
7.7428956e-08
7.5979086e-08
7.4496981e-08
7.3003341e-08
7.1466959e-08
6.9923092e-08
6.8346536e-08
6.6766487e-08
6.5110781e-08
6.3441243e-08
6.1652466e-08
5.9836052e-08
5.7934559e-08
5.6008569e-08
5.4027126e-08
5.2012963e-08
4.9813922e-08
4.7492093e-08
4.4931891e-08
4.2175182e-08
3.8976737e-08
3.6839611e-08
3.7993217e-08
4.0520234e-08
4.3531361e-08
4.685109e-08
5.021546e-08
5.3609345e-08
5.7170417e-08
6.0867144e-08
6.4520868e-08
6.8153251e-08
7.1823739e-08
7.6406457e-08
8.0498664e-08
8.7179151e-08
9.0358975e-08
9.8341057e-08
1.0917764e-07
1.1638079e-07
1.232249e-07
1.233116e-07
1.2089603e-07
1.0228502e-07
7.9391351e-08
8.1760244e-08
8.294731e-08
8.3055153e-08
8.8294282e-08
1.0412361e-07
1.2212988e-07
1.269925e-07
1.1241038e-07
7.0809538e-08
3.3891613e-08
2.7993661e-08
1.119246e-07
3.5726634e-07
8.7562166e-07
2.7849206e-06
1.1225711e-06
2.6285626e-06
3.6573787e-06
2.4634279e-06
1.7303166e-06
7.7786386e-07
4.2859872e-07
3.0125208e-07
1.9731727e-07
1.6422138e-07
1.5977522e-07
1.6252666e-07
2.0778538e-07
2.5031442e-07
2.7854993e-07
3.3257197e-07
3.1463635e-07
2.7733275e-07
2.6549016e-07
2.4347682e-07
2.1131747e-07
1.8624439e-07
1.708533e-07
1.7821301e-07
1.5243636e-06
1.7375415e-06
1.846516e-06
1.7444462e-06
1.4547331e-06
1.0934717e-06
7.0296381e-07
3.8535773e-07
1.8558312e-07
8.6192869e-08
5.3040045e-08
3.0679945e-08
1.900083e-08
1.5439722e-08
1.4739839e-08
1.485093e-08
1.4894005e-08
1.4238724e-08
1.272011e-08
1.1232934e-08
9.9584073e-09
9.0337467e-09
8.3692101e-09
7.9686696e-09
7.8155437e-09
7.7978641e-09
7.947685e-09
8.2208544e-09
8.6264018e-09
9.2182109e-09
1.0000351e-08
1.0988947e-08
1.2236828e-08
1.3780002e-08
1.5649128e-08
1.7863357e-08
2.0412469e-08
2.3289301e-08
2.6529074e-08
3.0157961e-08
3.4166996e-08
3.8553189e-08
4.3257569e-08
4.831143e-08
5.3698469e-08
5.9377726e-08
6.5336955e-08
7.1511601e-08
7.7970687e-08
8.4936619e-08
9.2373348e-08
1.0007939e-07
1.079712e-07
1.1573882e-07
1.2316638e-07
1.3001063e-07
1.3614322e-07
1.4162492e-07
1.4624197e-07
1.5077017e-07
1.553254e-07
1.5999794e-07
1.6972527e-07
1.9273915e-07
2.2306057e-07
2.5180741e-07
2.7922909e-07
3.0533477e-07
3.3036964e-07
3.5404986e-07
3.7672279e-07
3.9827706e-07
4.189413e-07
4.3866692e-07
4.5760041e-07
4.7567518e-07
4.9301965e-07
5.0960136e-07
5.2552907e-07
5.4079028e-07
5.5549512e-07
5.6962913e-07
5.8323966e-07
5.9632224e-07
6.0893274e-07
6.210759e-07
6.327959e-07
6.4410258e-07
6.5503473e-07
6.6560083e-07
6.7583087e-07
6.8573435e-07
6.9533943e-07
7.0465586e-07
7.1370493e-07
7.2249528e-07
7.3104336e-07
7.3935758e-07
7.4745612e-07
7.5534398e-07
7.6303133e-07
7.7052394e-07
7.7783027e-07
7.8495887e-07
7.9190803e-07
7.9867535e-07
8.0526236e-07
8.1166587e-07
8.1788588e-07
8.2391918e-07
8.297632e-07
8.3541453e-07
8.4086852e-07
8.4612233e-07
8.5117227e-07
8.5601353e-07
8.6063878e-07
8.6504151e-07
8.6921564e-07
8.7315387e-07
8.7684932e-07
8.802922e-07
8.8347345e-07
8.8638437e-07
8.8901828e-07
8.9137197e-07
8.9344958e-07
8.9526542e-07
8.9684131e-07
8.9820234e-07
8.9935842e-07
9.0030796e-07
9.0103948e-07
9.0152252e-07
9.0168348e-07
9.0137461e-07
9.0072915e-07
8.9976652e-07
8.9847848e-07
8.9688282e-07
8.9498196e-07
8.9277979e-07
8.9028029e-07
8.8748572e-07
8.8439753e-07
8.8102036e-07
8.7735391e-07
8.7340536e-07
8.6917429e-07
8.6466754e-07
8.5988887e-07
8.5484714e-07
8.4954386e-07
8.4398904e-07
8.3818324e-07
8.3213988e-07
8.2585484e-07
8.1934774e-07
8.1261529e-07
8.0567979e-07
7.9851457e-07
7.9117343e-07
7.8361868e-07
7.758642e-07
7.679489e-07
7.5991307e-07
7.5168317e-07
7.4334544e-07
7.3484018e-07
7.2627088e-07
7.1754997e-07
7.0875415e-07
6.9982492e-07
6.907969e-07
6.8166592e-07
6.7246586e-07
6.6311439e-07
6.5371881e-07
6.4416539e-07
6.34556e-07
6.2477308e-07
6.1493591e-07
6.0489606e-07
5.9485378e-07
5.8459243e-07
5.7423455e-07
5.6370736e-07
5.5315223e-07
5.4236251e-07
5.3148877e-07
5.2030375e-07
5.0906434e-07
4.9758681e-07
4.8608389e-07
4.7403026e-07
4.6187605e-07
4.4885376e-07
4.3562989e-07
4.217863e-07
4.0776443e-07
3.9333874e-07
3.7867504e-07
3.6266567e-07
3.4576254e-07
3.2712374e-07
3.0705472e-07
2.8376818e-07
2.6820259e-07
2.7660043e-07
2.9500298e-07
3.1693242e-07
3.4110812e-07
3.6560921e-07
3.903265e-07
4.1626138e-07
4.4318277e-07
4.6979141e-07
4.962479e-07
5.2298838e-07
5.5635975e-07
5.8619353e-07
6.3481949e-07
6.5800653e-07
7.1625196e-07
7.9495359e-07
8.4723506e-07
8.9723442e-07
8.9757797e-07
8.798851e-07
7.4416936e-07
5.7787243e-07
5.9530309e-07
6.0373222e-07
6.0485436e-07
6.4322364e-07
7.5858452e-07
8.8950627e-07
9.2386542e-07
8.1772178e-07
5.1462653e-07
2.462354e-07
2.0462514e-07
8.185173e-07
2.6051568e-06
6.3979805e-06
2.0279376e-05
8.1377242e-06
1.926569e-05
2.657403e-05
1.7849287e-05
1.2584519e-05
5.6555101e-06
3.1167322e-06
2.1916755e-06
1.4355624e-06
1.1955155e-06
1.1637142e-06
1.1841703e-06
1.5132088e-06
1.8216781e-06
2.0267044e-06
2.4198795e-06
2.2891601e-06
2.0174335e-06
1.9316555e-06
1.7720338e-06
1.5383277e-06
1.3559616e-06
1.2436968e-06
1.2970454e-06
5.7137321e-06
6.5128609e-06
6.9225245e-06
6.5414847e-06
5.4566081e-06
4.1027369e-06
2.6385201e-06
1.4471615e-06
6.9729408e-07
3.2390773e-07
1.9926089e-07
1.1527923e-07
7.1372791e-08
5.79547e-08
5.5306867e-08
5.5720302e-08
5.5890139e-08
5.3445948e-08
4.7755334e-08
4.2173879e-08
3.7387384e-08
3.391282e-08
3.1415076e-08
2.990796e-08
2.9330039e-08
2.9261089e-08
2.9820854e-08
3.0843838e-08
3.2363247e-08
3.4581226e-08
3.7513175e-08
4.1219369e-08
4.5898015e-08
5.1684276e-08
5.8693225e-08
6.6997092e-08
7.655782e-08
8.7348218e-08
9.9500085e-08
1.1311199e-07
1.2815049e-07
1.4460453e-07
1.6225284e-07
1.8121264e-07
2.0142298e-07
2.2273001e-07
2.4508813e-07
2.6825455e-07
2.9248642e-07
3.1861878e-07
3.4651927e-07
3.75432e-07
4.0504297e-07
4.3418958e-07
4.6206175e-07
4.8774639e-07
5.1076037e-07
5.3133298e-07
5.4866307e-07
5.656593e-07
5.8275711e-07
6.0030119e-07
6.3682394e-07
7.2318773e-07
8.3695058e-07
9.4480049e-07
1.0476809e-06
1.1456231e-06
1.2395484e-06
1.3283912e-06
1.4134553e-06
1.4943224e-06
1.5718504e-06
1.6458565e-06
1.7168905e-06
1.7847023e-06
1.8497741e-06
1.9119838e-06
1.9717394e-06
2.0289942e-06
2.0841614e-06
2.1371843e-06
2.188241e-06
2.2373167e-06
2.2846211e-06
2.3301718e-06
2.3741348e-06
2.4165468e-06
2.4575536e-06
2.4971868e-06
2.5355589e-06
2.5727058e-06
2.6087331e-06
2.6436772e-06
2.6776181e-06
2.7105884e-06
2.7426498e-06
2.7738337e-06
2.8042084e-06
2.8337929e-06
2.862625e-06
2.8907266e-06
2.9181295e-06
2.9448657e-06
2.9709288e-06
2.9963098e-06
3.0210144e-06
3.045031e-06
3.0683592e-06
3.0909875e-06
3.1129055e-06
3.1341012e-06
3.1545566e-06
3.174262e-06
3.1932023e-06
3.2113602e-06
3.228708e-06
3.2452214e-06
3.2608782e-06
3.2756498e-06
3.2895111e-06
3.3024254e-06
3.3143585e-06
3.3252783e-06
3.3351588e-06
3.3439884e-06
3.3517827e-06
3.358595e-06
3.3645074e-06
3.3696137e-06
3.3739523e-06
3.3775155e-06
3.3802618e-06
3.382076e-06
3.3826825e-06
3.3815264e-06
3.3791078e-06
3.3755009e-06
3.3706729e-06
3.364691e-06
3.3575644e-06
3.3493076e-06
3.3399355e-06
3.3294567e-06
3.3178765e-06
3.3052122e-06
3.2914631e-06
3.2766552e-06
3.260788e-06
3.2438865e-06
3.225965e-06
3.2070568e-06
3.1871667e-06
3.1663337e-06
3.1445589e-06
3.1218928e-06
3.0983201e-06
3.0739138e-06
3.0486626e-06
3.0226492e-06
2.9957738e-06
2.968239e-06
2.9399022e-06
2.9108157e-06
2.8811257e-06
2.8509837e-06
2.8201135e-06
2.7888379e-06
2.7569344e-06
2.7247901e-06
2.6920767e-06
2.6590823e-06
2.6255873e-06
2.5917212e-06
2.5574685e-06
2.5229569e-06
2.4878772e-06
2.4526313e-06
2.4167933e-06
2.3807451e-06
2.3440461e-06
2.307143e-06
2.2694796e-06
2.2318068e-06
2.1933119e-06
2.1544545e-06
2.1149622e-06
2.0753645e-06
2.0348866e-06
1.9940931e-06
1.9521321e-06
1.9099666e-06
1.8669072e-06
1.8237529e-06
1.7785331e-06
1.7329359e-06
1.6840829e-06
1.6344706e-06
1.5825314e-06
1.5299233e-06
1.4757997e-06
1.420784e-06
1.3607217e-06
1.297307e-06
1.2273788e-06
1.1520863e-06
1.0647176e-06
1.0062901e-06
1.037791e-06
1.1068495e-06
1.1891524e-06
1.2798774e-06
1.3718262e-06
1.464592e-06
1.5619243e-06
1.6629535e-06
1.7628127e-06
1.862119e-06
1.9625152e-06
2.0877101e-06
2.19983e-06
2.3821763e-06
2.4693794e-06
2.6885118e-06
2.9824188e-06
3.177918e-06
3.3664843e-06
3.366069e-06
3.299628e-06
2.7899631e-06
2.1677392e-06
2.2338004e-06
2.2643709e-06
2.270252e-06
2.4153437e-06
2.8484479e-06
3.3385667e-06
3.4627434e-06
3.0648418e-06
1.9270408e-06
9.2165854e-07
7.7044543e-07
3.0832252e-06
9.772e-06
2.4053716e-05
7.5963948e-05
3.0374606e-05
7.3235983e-05
9.9269136e-05
6.6502403e-05
4.7207565e-05
2.1199057e-05
1.1681786e-05
8.2162982e-06
5.3821867e-06
4.4861235e-06
4.3696401e-06
4.4473647e-06
5.6769738e-06
6.8252397e-06
7.5904991e-06
9.0682992e-06
8.5764807e-06
7.5574527e-06
7.2387791e-06
6.6445716e-06
5.7706741e-06
5.0875911e-06
4.6647396e-06
4.8631692e-06
1.5243273e-05
1.7375591e-05
1.8473186e-05
1.7463088e-05
1.4573045e-05
1.0961826e-05
7.0530428e-06
3.8708618e-06
1.8661494e-06
8.669332e-07
5.3312981e-07
3.0847753e-07
1.9092687e-07
1.5491848e-07
1.4778085e-07
1.4887658e-07
1.4935609e-07
1.4287012e-07
1.2768803e-07
1.1277093e-07
9.9969048e-08
9.0670015e-08
8.3983514e-08
7.994426e-08
7.8390041e-08
7.8198184e-08
7.9686917e-08
8.2414675e-08
8.6468381e-08
9.2387716e-08
1.002144e-07
1.1010893e-07
1.2260081e-07
1.3805133e-07
1.5676802e-07
1.7894524e-07
2.0448176e-07
2.3330388e-07
2.6576354e-07
3.0212468e-07
3.4229843e-07
3.8625537e-07
4.3340446e-07
4.8405833e-07
5.3805514e-07
5.9498273e-07
6.5472042e-07
7.1661801e-07
7.8135775e-07
8.5117132e-07
9.2571284e-07
1.0029649e-06
1.0820845e-06
1.1599667e-06
1.2344475e-06
1.3030884e-06
1.3645923e-06
1.4195777e-06
1.4659089e-06
1.5113478e-06
1.5570596e-06
1.6039924e-06
1.7016816e-06
1.9324805e-06
2.2364248e-06
2.524559e-06
2.7994235e-06
3.0610907e-06
3.3120264e-06
3.5493831e-06
3.7766462e-06
3.9926953e-06
4.1998239e-06
4.3975412e-06
4.5873177e-06
4.7684842e-06
4.9423295e-06
5.1085269e-06
5.2681676e-06
5.4211252e-06
5.5685048e-06
5.7101446e-06
5.846524e-06
5.9776105e-06
6.1039637e-06
6.2256309e-06
6.3430558e-06
6.4563362e-06
6.5658615e-06
6.671717e-06
6.7742022e-06
6.8734144e-06
6.9696344e-06
7.0629606e-06
7.1536064e-06
7.2416587e-06
7.3272827e-06
7.4105627e-06
7.4916805e-06
7.5706876e-06
7.647685e-06
7.7227311e-06
7.7959112e-06
7.8673099e-06
7.9369112e-06
8.0046913e-06
8.0706647e-06
8.134801e-06
8.1970987e-06
8.2575283e-06
8.3160615e-06
8.3726658e-06
8.4272934e-06
8.4799199e-06
8.530503e-06
8.5789978e-06
8.6253302e-06
8.669435e-06
8.7112525e-06
8.7507073e-06
8.7877329e-06
8.8222296e-06
8.8541062e-06
8.8832785e-06
8.9096763e-06
8.9332674e-06
8.954093e-06
8.9722969e-06
8.9880962e-06
9.0017448e-06
9.0133428e-06
9.0228717e-06
9.0302187e-06
9.035079e-06
9.0367134e-06
9.0336386e-06
9.027196e-06
9.0175806e-06
9.004704e-06
8.9887448e-06
8.9697281e-06
8.9476934e-06
8.9226802e-06
8.8947102e-06
8.8637993e-06
8.8299923e-06
8.7932873e-06
8.7537541e-06
8.7113919e-06
8.6662668e-06
8.6184161e-06
8.5679297e-06
8.514821e-06
8.4591926e-06
8.4010472e-06
8.3405214e-06
8.2775732e-06
8.2123978e-06
8.1449646e-06
8.0754949e-06
8.0037202e-06
7.9301853e-06
7.854508e-06
7.7768245e-06
7.6975278e-06
7.6170248e-06
7.5345734e-06
7.4510401e-06
7.3658275e-06
7.2799703e-06
7.1925923e-06
7.104463e-06
7.0149948e-06
6.924535e-06
6.8330408e-06
6.7408543e-06
6.6471489e-06
6.5529997e-06
6.4572672e-06
6.3609721e-06
6.2629383e-06
6.1643589e-06
6.0637471e-06
5.9631087e-06
5.8602742e-06
5.7564698e-06
5.6509682e-06
5.5451836e-06
5.4370478e-06
5.3280684e-06
5.2159678e-06
5.1033209e-06
4.9882836e-06
4.8729933e-06
4.7521875e-06
4.6303728e-06
4.4998638e-06
4.3673145e-06
4.2285407e-06
4.0879798e-06
3.9433672e-06
3.7963741e-06
3.6359059e-06
3.4664828e-06
3.2796515e-06
3.0784922e-06
2.845061e-06
2.6888744e-06
2.7730016e-06
2.9575353e-06
3.1774985e-06
3.4199402e-06
3.6656648e-06
3.9135855e-06
4.1737007e-06
4.44367e-06
4.7105358e-06
4.9759847e-06
5.2443972e-06
5.5787703e-06
5.8788972e-06
6.3656908e-06
6.5995399e-06
7.1866799e-06
7.9664772e-06
8.4872111e-06
8.9939706e-06
8.9878767e-06
8.8105882e-06
7.448976e-06
5.7913773e-06
5.9691914e-06
6.0480677e-06
6.0682717e-06
6.4605906e-06
7.617794e-06
8.9224838e-06
9.2421547e-06
8.1788045e-06
5.1379732e-06
2.4563043e-06
2.0627471e-06
8.2629717e-06
2.6054867e-05
6.4244142e-05
0.00020215275
8.0755396e-05
0.00019949532
0.00026337055
0.00017612491
0.00012621462
5.6597278e-05
3.1187659e-05
2.1929255e-05
1.437013e-05
1.1990092e-05
1.1688436e-05
1.1895729e-05
1.5157835e-05
1.8184454e-05
2.0210948e-05
2.4179511e-05
2.2856922e-05
2.0145691e-05
1.930743e-05
1.7738306e-05
1.5414724e-05
1.3593759e-05
1.2457223e-05
1.2980596e-05
3.3263543e-05
3.791783e-05
4.0326152e-05
3.8141811e-05
3.184848e-05
2.3970503e-05
1.5432658e-05
8.4764098e-06
4.0889937e-06
1.8994716e-06
1.1675851e-06
6.7564146e-07
4.1804357e-07
3.3894451e-07
3.2318757e-07
3.25564e-07
3.2667625e-07
3.1260275e-07
2.7945784e-07
2.4682737e-07
2.188009e-07
1.9842812e-07
1.8377537e-07
1.7491287e-07
1.7148971e-07
1.7105213e-07
1.7429145e-07
1.8024388e-07
1.8909545e-07
2.0202481e-07
2.1912489e-07
2.4074544e-07
2.680442e-07
3.0181164e-07
3.427203e-07
3.9119787e-07
4.4702467e-07
5.100373e-07
5.8100445e-07
6.6050451e-07
7.4834379e-07
8.4445882e-07
9.4755777e-07
1.0583215e-06
1.1763995e-06
1.3008878e-06
1.4315249e-06
1.5668858e-06
1.7084517e-06
1.8611022e-06
2.0240992e-06
2.1930377e-06
2.3660608e-06
2.5363851e-06
2.6992793e-06
2.8494198e-06
2.9839511e-06
3.1042448e-06
3.2056448e-06
3.3050969e-06
3.4051539e-06
3.5079782e-06
3.7219375e-06
4.22674e-06
4.8913166e-06
5.5213017e-06
6.1222888e-06
6.6944017e-06
7.2430497e-06
7.7620053e-06
8.2588953e-06
8.7312632e-06
9.1841284e-06
9.6164109e-06
1.0031331e-05
1.0427422e-05
1.0807506e-05
1.1170864e-05
1.1519887e-05
1.1854295e-05
1.2176506e-05
1.2486133e-05
1.2784242e-05
1.3070778e-05
1.3346964e-05
1.3612903e-05
1.3869567e-05
1.4117168e-05
1.4356558e-05
1.4587923e-05
1.4811919e-05
1.5028759e-05
1.5239056e-05
1.5443025e-05
1.5641134e-05
1.5833574e-05
1.6020703e-05
1.620271e-05
1.6379989e-05
1.6552655e-05
1.6720927e-05
1.6884934e-05
1.7044865e-05
1.7200901e-05
1.7353008e-05
1.7501137e-05
1.7645318e-05
1.7785485e-05
1.7921635e-05
1.8053703e-05
1.818163e-05
1.8305343e-05
1.8424739e-05
1.8539762e-05
1.8650324e-05
1.8756325e-05
1.8857602e-05
1.8954014e-05
1.9045431e-05
1.9131687e-05
1.9212639e-05
1.9288065e-05
1.935777e-05
1.9421567e-05
1.9479303e-05
1.9530907e-05
1.9576467e-05
1.9616296e-05
1.9650872e-05
1.9680747e-05
1.9706142e-05
1.9727022e-05
1.9743134e-05
1.9753816e-05
1.9757449e-05
1.9750783e-05
1.9736769e-05
1.9715823e-05
1.9687747e-05
1.9652936e-05
1.961144e-05
1.956335e-05
1.9508748e-05
1.9447682e-05
1.9380189e-05
1.9306365e-05
1.9226205e-05
1.9139863e-05
1.9047336e-05
1.8948768e-05
1.8844242e-05
1.8733952e-05
1.8617928e-05
1.8496395e-05
1.8369358e-05
1.8237114e-05
1.8099573e-05
1.7957161e-05
1.780981e-05
1.7658004e-05
1.7501156e-05
1.734046e-05
1.7175079e-05
1.7005302e-05
1.6831996e-05
1.6656053e-05
1.6475846e-05
1.6293269e-05
1.6107017e-05
1.5919355e-05
1.5728362e-05
1.5535725e-05
1.5340159e-05
1.5142417e-05
1.4942414e-05
1.4740894e-05
1.4536051e-05
1.4330231e-05
1.4120951e-05
1.3910437e-05
1.3696119e-05
1.3480607e-05
1.3260647e-05
1.3040626e-05
1.2815802e-05
1.2588852e-05
1.2358191e-05
1.2126904e-05
1.1890479e-05
1.1652202e-05
1.1407102e-05
1.1160803e-05
1.0909273e-05
1.0657188e-05
1.0393053e-05
1.0126709e-05
9.8413685e-06
9.5515305e-06
9.2480593e-06
8.940682e-06
8.6244332e-06
8.3029868e-06
7.9520992e-06
7.581633e-06
7.1730843e-06
6.7332148e-06
6.2227747e-06
5.8810531e-06
6.064865e-06
6.4683926e-06
6.9495182e-06
7.4797252e-06
8.0171538e-06
8.5594214e-06
9.1283285e-06
9.7187042e-06
1.0302352e-05
1.0883056e-05
1.147034e-05
1.2201034e-05
1.2858666e-05
1.3921847e-05
1.4436102e-05
1.5723325e-05
1.7412233e-05
1.8547927e-05
1.9663772e-05
1.9638499e-05
1.9252557e-05
1.6278174e-05
1.2664954e-05
1.3054995e-05
1.3222055e-05
1.3275986e-05
1.4147223e-05
1.667686e-05
1.9514547e-05
2.0188637e-05
1.7859531e-05
1.121046e-05
5.3571358e-06
4.5124204e-06
1.8105391e-05
5.6751445e-05
0.00013997319
0.00043882867
0.00017564557
0.00044777914
0.00057039665
0.00038089874
0.00027633335
0.00012363172
6.8148666e-05
4.7874699e-05
3.1396181e-05
2.6228848e-05
2.5596144e-05
2.6039298e-05
3.3095221e-05
3.9574585e-05
4.3947016e-05
5.2692866e-05
4.9778203e-05
4.3911884e-05
4.2121116e-05
3.8744595e-05
3.3696782e-05
2.9726396e-05
2.7221175e-05
2.8346663e-05
6.3643936e-05
7.2551865e-05
7.7189739e-05
7.306099e-05
6.1055399e-05
4.5990398e-05
2.9633823e-05
1.629241e-05
7.8650303e-06
3.6527291e-06
2.2440102e-06
1.298548e-06
8.0320855e-07
6.5072573e-07
6.2018426e-07
6.2470446e-07
6.2697284e-07
6.002028e-07
5.3672207e-07
4.7408955e-07
4.2024529e-07
3.8107344e-07
3.5289361e-07
3.3582753e-07
3.2920794e-07
3.2833126e-07
3.345136e-07
3.4591012e-07
3.6286977e-07
3.8764952e-07
4.2043255e-07
4.6188739e-07
5.1423477e-07
5.789924e-07
6.5745053e-07
7.504347e-07
8.5752731e-07
9.7841044e-07
1.1145561e-06
1.267076e-06
1.4356006e-06
1.6200104e-06
1.8178266e-06
2.0303479e-06
2.256912e-06
2.4957782e-06
2.7464479e-06
3.0061846e-06
3.2778074e-06
3.5706727e-06
3.8834014e-06
4.2075605e-06
4.5395518e-06
4.8663809e-06
5.1789647e-06
5.467127e-06
5.7253372e-06
5.9562803e-06
6.1510552e-06
6.3421077e-06
6.5343479e-06
6.7321678e-06
7.1435743e-06
8.1122714e-06
9.3870529e-06
1.0595442e-05
1.1748229e-05
1.2845567e-05
1.3897884e-05
1.4893237e-05
1.5846269e-05
1.6752255e-05
1.7620837e-05
1.8449925e-05
1.9245714e-05
2.0005378e-05
2.0734346e-05
2.1431227e-05
2.2100617e-05
2.274197e-05
2.3359932e-05
2.3953666e-05
2.4525283e-05
2.5074704e-05
2.5604276e-05
2.6114196e-05
2.6606326e-05
2.7081075e-05
2.7540077e-05
2.798369e-05
2.8413167e-05
2.8828923e-05
2.923213e-05
2.9623204e-05
3.0003038e-05
3.0372001e-05
3.073078e-05
3.1079741e-05
3.1419631e-05
3.1750681e-05
3.2073305e-05
3.2387756e-05
3.2694392e-05
3.299356e-05
3.3285199e-05
3.3569215e-05
3.3845662e-05
3.411442e-05
3.4375481e-05
3.4628718e-05
3.4874025e-05
3.5111258e-05
3.5340221e-05
3.5560809e-05
3.5772854e-05
3.597616e-05
3.6170416e-05
3.6355353e-05
3.6530725e-05
3.6696211e-05
3.6851536e-05
3.6996275e-05
3.7130059e-05
3.725252e-05
3.7363367e-05
3.7462465e-05
3.7549975e-05
3.7626498e-05
3.7692946e-05
3.7750391e-05
3.7799252e-05
3.7839462e-05
3.7870539e-05
3.7891215e-05
3.7898388e-05
3.7885793e-05
3.7859134e-05
3.7819204e-05
3.7765593e-05
3.7699065e-05
3.7619725e-05
3.7527736e-05
3.7423263e-05
3.7306394e-05
3.7177198e-05
3.7035857e-05
3.6882369e-05
3.6717023e-05
3.6539807e-05
3.6351009e-05
3.6150779e-05
3.593949e-05
3.5717199e-05
3.548434e-05
3.5240918e-05
3.4987501e-05
3.472392e-05
3.4450988e-05
3.4168579e-05
3.3877617e-05
3.3576972e-05
3.3268944e-05
3.2951927e-05
3.2626455e-05
3.2294209e-05
3.1956898e-05
3.1611395e-05
3.1261339e-05
3.0904225e-05
3.0544398e-05
3.0178167e-05
2.9808777e-05
2.9433761e-05
2.9054561e-05
2.8671013e-05
2.8284546e-05
2.7891704e-05
2.7496972e-05
2.7095598e-05
2.669185e-05
2.6280807e-05
2.5867454e-05
2.5445567e-05
2.502355e-05
2.4592316e-05
2.4156995e-05
2.3714551e-05
2.3270889e-05
2.281737e-05
2.2360291e-05
2.1890119e-05
2.1417635e-05
2.0935105e-05
2.04515e-05
1.9944811e-05
1.9433869e-05
1.8886527e-05
1.8330461e-05
1.7748187e-05
1.715842e-05
1.6551603e-05
1.5934827e-05
1.5261623e-05
1.4550862e-05
1.3767001e-05
1.2923061e-05
1.1943755e-05
1.1287751e-05
1.1639942e-05
1.2414052e-05
1.3337351e-05
1.4354622e-05
1.5385883e-05
1.6426499e-05
1.7518138e-05
1.8650786e-05
1.9770642e-05
2.0885151e-05
2.2012438e-05
2.3412945e-05
2.4677348e-05
2.6713678e-05
2.7708656e-05
3.018355e-05
3.3383072e-05
3.555807e-05
3.771718e-05
3.7642391e-05
3.6908898e-05
3.1213603e-05
2.4305075e-05
2.5051539e-05
2.5364083e-05
2.5486456e-05
2.718786e-05
3.2040007e-05
3.7445908e-05
3.8690908e-05
3.4209032e-05
2.1458297e-05
1.0250648e-05
8.6474253e-06
3.4767029e-05
0.00010825548
0.00026665845
0.00083175756
0.00033470424
0.00088881105
0.0010810461
0.00072066683
0.00053071709
0.00023674188
0.00013061132
9.1610887e-05
6.0156231e-05
5.0338723e-05
4.9186396e-05
4.9994155e-05
6.3319854e-05
7.5368972e-05
8.3611715e-05
0.00010054652
9.4916336e-05
8.3875388e-05
8.0556013e-05
7.4216512e-05
6.4616216e-05
5.7028309e-05
5.217428e-05
5.4290779e-05
0.00011101127
0.00012655328
0.00013470153
0.00012761294
0.00010675793
8.0506291e-05
5.1930981e-05
2.8586687e-05
1.3812233e-05
6.411838e-06
3.9360808e-06
2.2775159e-06
1.4083294e-06
1.1400681e-06
1.0860136e-06
1.0938529e-06
1.098077e-06
1.0516535e-06
9.4073026e-07
8.3102385e-07
7.3661608e-07
6.6787315e-07
6.1841159e-07
5.8841727e-07
5.7673002e-07
5.7512639e-07
5.8588964e-07
6.0579952e-07
6.354525e-07
6.7878836e-07
7.3614029e-07
8.0867431e-07
9.002756e-07
1.0136035e-06
1.1509163e-06
1.3136673e-06
1.5011334e-06
1.7127498e-06
1.951087e-06
2.2180945e-06
2.5131264e-06
2.8359798e-06
3.1823168e-06
3.5543909e-06
3.9510635e-06
4.3692777e-06
4.8081633e-06
5.2629283e-06
5.7384706e-06
6.2511514e-06
6.7986131e-06
7.3661425e-06
7.9473624e-06
8.5195797e-06
9.0668696e-06
9.5715299e-06
1.0023751e-05
1.0428366e-05
1.0769848e-05
1.1104861e-05
1.1442029e-05
1.1789613e-05
1.2511858e-05
1.4207727e-05
1.6438295e-05
1.8552612e-05
2.0569635e-05
2.2489449e-05
2.4330441e-05
2.6071724e-05
2.7738958e-05
2.932385e-05
3.0843306e-05
3.2293634e-05
3.3685713e-05
3.5014581e-05
3.6289762e-05
3.7508805e-05
3.8679772e-05
3.9801686e-05
4.0882699e-05
4.1921113e-05
4.2920813e-05
4.3881694e-05
4.4807866e-05
4.5699667e-05
4.6560364e-05
4.7390663e-05
4.8193427e-05
4.8969277e-05
4.9720406e-05
5.0447546e-05
5.1152741e-05
5.1836717e-05
5.250104e-05
5.3146354e-05
5.3773864e-05
5.4384208e-05
5.497869e-05
5.555772e-05
5.6122019e-05
5.667203e-05
5.7208387e-05
5.7731686e-05
5.8241825e-05
5.8738643e-05
5.9222234e-05
5.9692391e-05
6.0149098e-05
6.059214e-05
6.1021324e-05
6.1436408e-05
6.1837054e-05
6.2223058e-05
6.2594153e-05
6.2949976e-05
6.3289993e-05
6.3613741e-05
6.3920775e-05
6.421055e-05
6.448257e-05
6.4736106e-05
6.4970502e-05
6.5185113e-05
6.5379435e-05
6.5553217e-05
6.5706744e-05
6.5841047e-05
6.5957736e-05
6.6058693e-05
6.614465e-05
6.6215493e-05
6.6270386e-05
6.6307103e-05
6.632024e-05
6.6298749e-05
6.6252728e-05
6.6183526e-05
6.6090376e-05
6.5974638e-05
6.5836491e-05
6.5676216e-05
6.5494098e-05
6.52903e-05
6.506493e-05
6.4818312e-05
6.4550435e-05
6.4261812e-05
6.3952409e-05
6.3622736e-05
6.3273057e-05
6.2904009e-05
6.251571e-05
6.2108893e-05
6.1683586e-05
6.1240777e-05
6.0780163e-05
6.0303174e-05
5.9809574e-05
5.9300993e-05
5.8775446e-05
5.8236961e-05
5.7682742e-05
5.7113679e-05
5.6532737e-05
5.5942915e-05
5.5338736e-05
5.4726559e-05
5.4102008e-05
5.3472688e-05
5.2832137e-05
5.2186034e-05
5.1530065e-05
5.0866749e-05
5.0195796e-05
4.9519722e-05
4.8832471e-05
4.8141885e-05
4.7439658e-05
4.6733274e-05
4.6014104e-05
4.5290854e-05
4.4552663e-05
4.3814215e-05
4.305963e-05
4.2297865e-05
4.1523628e-05
4.074721e-05
3.9953553e-05
3.9153631e-05
3.8330799e-05
3.7503888e-05
3.6659365e-05
3.5812938e-05
3.4926175e-05
3.4031937e-05
3.3074087e-05
3.2100756e-05
3.1081435e-05
3.0049001e-05
2.8986644e-05
2.7906876e-05
2.6728456e-05
2.548429e-05
2.4112095e-05
2.2634755e-05
2.0920574e-05
1.9771555e-05
2.0386827e-05
2.174149e-05
2.3357999e-05
2.5138545e-05
2.6943923e-05
2.8765788e-05
3.0676771e-05
3.2659101e-05
3.4619308e-05
3.6570643e-05
3.8544527e-05