/*--------------------------------*- C++ -*----------------------------------*\
  =========                 |
  \\      /  F ield         | OpenFOAM: The Open Source CFD Toolbox
   \\    /   O peration     | Website:  https://openfoam.org
    \\  /    A nd           | Version:  7
     \\/     M anipulation  |
\*---------------------------------------------------------------------------*/
FoamFile
{
    version     2.0;
    format      ascii;
    class       volScalarField;
    location    "240";
    object      nutMean;
}
// * * * * * * * * * * * * * * * * * * * * * * * * * * * * * * * * * * * * * //

dimensions      [0 2 -1 0 0 0 0];

internalField   nonuniform List<scalar> 
78300
(
1.2968429e-11
8.8771239e-12
5.1589954e-12
3.3148946e-12
2.2770201e-12
1.4998913e-12
9.278767e-13
5.6033972e-13
3.2980103e-13
1.7448149e-13
8.4941862e-14
4.3266388e-14
2.3984142e-14
1.4152192e-14
8.7677721e-15
5.7887518e-15
4.0062331e-15
2.9554663e-15
2.3035627e-15
1.8668918e-15
1.5586884e-15
1.3413258e-15
1.1956562e-15
1.0954017e-15
1.0210971e-15
9.6400675e-16
9.2349308e-16
8.9834578e-16
8.8402852e-16
8.8048629e-16
8.8618166e-16
9.0064099e-16
9.2447446e-16
9.5744007e-16
9.9902283e-16
1.0502031e-15
1.1133515e-15
1.1899189e-15
1.2795741e-15
1.3866881e-15
1.5101228e-15
1.6502014e-15
1.8100611e-15
1.9918322e-15
2.1959928e-15
2.4212509e-15
2.6669136e-15
2.9332061e-15
3.2235078e-15
3.543851e-15
3.8937975e-15
4.2688197e-15
4.666105e-15
5.0801779e-15
5.5079652e-15
5.9443e-15
6.3816793e-15
6.8120391e-15
7.2159813e-15
7.5594194e-15
7.8096079e-15
7.9867496e-15
8.3014944e-15
9.2144998e-15
1.0466976e-14
1.160759e-14
1.2654236e-14
1.3632251e-14
1.4552261e-14
1.5411671e-14
1.6223611e-14
1.6985699e-14
1.7707597e-14
1.8387983e-14
1.9034047e-14
1.9644476e-14
2.0224137e-14
2.0772475e-14
2.1293591e-14
2.1785977e-14
2.2252626e-14
2.2694478e-14
2.31119e-14
2.3503643e-14
2.3871469e-14
2.4215662e-14
2.4541412e-14
2.4845302e-14
2.5126757e-14
2.5388399e-14
2.5639481e-14
2.5885488e-14
2.6140757e-14
2.6404853e-14
2.6530066e-14
2.6577808e-14
2.6748732e-14
2.682992e-14
2.6846251e-14
2.6901118e-14
2.6997337e-14
2.7199057e-14
2.7386768e-14
2.7548727e-14
2.7953881e-14
2.8798905e-14
2.7841919e-14
2.6910791e-14
2.687579e-14
2.6511932e-14
2.6454058e-14
2.6682733e-14
2.6882795e-14
2.6763048e-14
2.6266294e-14
2.6147104e-14
2.6086636e-14
2.5856544e-14
2.5695894e-14
2.5691459e-14
2.5838803e-14
2.6142822e-14
2.5519884e-14
2.5075961e-14
2.5131134e-14
2.5063441e-14
2.4854228e-14
2.4676794e-14
2.4655913e-14
2.4884123e-14
2.4828962e-14
2.4995107e-14
2.5368045e-14
2.5358801e-14
2.3946233e-14
2.3809938e-14
2.4745346e-14
2.5905426e-14
2.4226616e-14
2.3173712e-14
2.3509066e-14
2.3178365e-14
2.2262607e-14
2.1917201e-14
2.1645246e-14
2.1661701e-14
2.1710639e-14
2.1707894e-14
2.1861725e-14
2.1881173e-14
2.1850069e-14
2.2120545e-14
2.2321597e-14
2.1769069e-14
2.0841696e-14
2.0430919e-14
2.0023667e-14
1.9967435e-14
1.9763272e-14
1.9211838e-14
1.8858829e-14
1.8565653e-14
1.8395096e-14
1.8379397e-14
1.8328331e-14
1.807076e-14
1.780469e-14
1.7629783e-14
1.7432163e-14
1.7153407e-14
1.6908362e-14
1.6706478e-14
1.6498019e-14
1.6294123e-14
1.6111468e-14
1.5948438e-14
1.5792221e-14
1.5633956e-14
1.5453936e-14
1.5243446e-14
1.5011711e-14
1.4770263e-14
1.4527528e-14
1.429857e-14
1.4090304e-14
1.3915234e-14
1.3773866e-14
1.3675429e-14
1.3624907e-14
1.3648279e-14
1.3780231e-14
1.4090346e-14
1.4653605e-14
1.5578141e-14
1.6961236e-14
1.8935079e-14
2.1610325e-14
2.5124948e-14
2.9603653e-14
3.5207375e-14
4.2104042e-14
5.0625212e-14
6.1183411e-14
7.4244505e-14
9.03825e-14
1.105917e-13
1.3586142e-13
1.6116176e-13
1.7819671e-13
1.9825217e-13
2.2609035e-13
2.59554e-13
3.0366284e-13
3.5556143e-13
4.2505611e-13
5.1986136e-13
6.1378122e-13
7.0413498e-13
8.4748398e-13
9.8563582e-13
1.1447446e-12
1.4087644e-12
1.9684357e-12
2.6197065e-12
3.2509984e-12
3.6904288e-12
5.3328846e-12
5.4512047e-12
4.6805866e-12
4.6510021e-12
5.5543827e-12
7.3511574e-12
8.8040919e-12
1.1808366e-11
1.5621903e-11
2.2418389e-11
3.0026233e-11
4.0311147e-11
5.682401e-11
8.3609141e-11
1.2393721e-10
1.8695307e-10
2.9815705e-10
4.962985e-10
8.2799652e-10
2.0037517e-09
5.1605259e-09
1.0395385e-08
1.4115569e-08
1.4669931e-08
1.5966416e-08
1.8493872e-08
2.038343e-08
2.4128569e-08
2.3059533e-08
2.245045e-08
1.9480595e-08
2.0685026e-08
2.643514e-08
4.2120788e-08
4.2335842e-08
2.5432044e-08
1.5926982e-08
1.0390565e-08
8.4523359e-10
2.2280729e-10
9.525733e-11
4.1392777e-11
2.4253603e-11
1.9196385e-11
2.2979159e-09
1.6086764e-09
9.503422e-10
6.1697268e-10
4.2490541e-10
2.8068687e-10
1.7448172e-10
1.0592528e-10
6.2589313e-11
3.3215134e-11
1.6201152e-11
8.2571991e-12
4.5772428e-12
2.7001528e-12
1.6718117e-12
1.1027691e-12
7.6226126e-13
5.6150448e-13
4.369378e-13
3.5347677e-13
2.9454118e-13
2.5293724e-13
2.250083e-13
2.057424e-13
1.914335e-13
1.804136e-13
1.7256e-13
1.6764179e-13
1.6479326e-13
1.6400314e-13
1.6497816e-13
1.6762769e-13
1.7206812e-13
1.7825352e-13
1.8608553e-13
1.9575098e-13
2.0769818e-13
2.2219705e-13
2.3918209e-13
2.5948754e-13
2.8289538e-13
3.0946692e-13
3.3979894e-13
3.7429817e-13
4.1305864e-13
4.5582977e-13
5.0248081e-13
5.5305303e-13
6.0819291e-13
6.6906273e-13
7.3558562e-13
8.0690104e-13
8.8247387e-13
9.6126388e-13
1.0426878e-12
1.1259489e-12
1.2092564e-12
1.291253e-12
1.3682371e-12
1.4337052e-12
1.4814015e-12
1.5151907e-12
1.5752553e-12
1.7492214e-12
1.9881939e-12
2.2058018e-12
2.4054754e-12
2.5920493e-12
2.7675565e-12
2.931497e-12
3.0863832e-12
3.2317552e-12
3.3694608e-12
3.4992451e-12
3.6224817e-12
3.7389175e-12
3.8494836e-12
3.9540727e-12
4.0534677e-12
4.1473798e-12
4.2363813e-12
4.3206507e-12
4.4002587e-12
4.4749667e-12
4.5451105e-12
4.6107445e-12
4.6728595e-12
4.7308035e-12
4.7844661e-12
4.8343492e-12
4.8822166e-12
4.9291184e-12
4.9777893e-12
5.0281405e-12
5.051987e-12
5.061038e-12
5.0935743e-12
5.1090497e-12
5.1121517e-12
5.1225785e-12
5.140911e-12
5.1793783e-12
5.2151546e-12
5.2460366e-12
5.3233351e-12
5.4845277e-12
5.3018683e-12
5.1241152e-12
5.1174167e-12
5.0479742e-12
5.036906e-12
5.080524e-12
5.118718e-12
5.0958453e-12
5.000984e-12
4.9782388e-12
4.966736e-12
4.9228203e-12
4.8921586e-12
4.8913171e-12
4.9194214e-12
4.9774087e-12
4.8585604e-12
4.7738455e-12
4.7843857e-12
4.7714782e-12
4.7337487e-12
4.6999065e-12
4.695936e-12
4.7395077e-12
4.728945e-12
4.7606586e-12
4.8318131e-12
4.8300377e-12
4.5605902e-12
4.5345908e-12
4.7130553e-12
4.9342115e-12
4.6139814e-12
4.413245e-12
4.4772882e-12
4.414201e-12
4.2394328e-12
4.1735314e-12
4.1216493e-12
4.124816e-12
4.1341838e-12
4.1336818e-12
4.163066e-12
4.1667945e-12
4.1608316e-12
4.2123808e-12
4.2505057e-12
4.1452813e-12
3.9684931e-12
3.8901084e-12
3.8123983e-12
3.8016875e-12
3.7627254e-12
3.6574994e-12
3.5901434e-12
3.5342006e-12
3.5016628e-12
3.4986854e-12
3.4889524e-12
3.4398069e-12
3.3890328e-12
3.3556621e-12
3.317959e-12
3.2647662e-12
3.2180059e-12
3.1794835e-12
3.1397063e-12
3.1007979e-12
3.0659444e-12
3.0348353e-12
3.0050274e-12
2.9748276e-12
2.9404761e-12
2.9003071e-12
2.8560832e-12
2.8100049e-12
2.7636797e-12
2.7199839e-12
2.6802365e-12
2.6468256e-12
2.6198466e-12
2.6010619e-12
2.5914225e-12
2.5958855e-12
2.6210725e-12
2.680263e-12
2.787766e-12
2.9642192e-12
3.228185e-12
3.6048905e-12
4.1154468e-12
4.7861777e-12
5.6408695e-12
6.7102074e-12
8.0261799e-12
9.651971e-12
1.166621e-11
1.4157652e-11
1.7235551e-11
2.1089474e-11
2.5909769e-11
3.0737194e-11
3.3986811e-11
3.7807785e-11
4.3114651e-11
4.9493582e-11
5.7901493e-11
6.7786148e-11
8.101325e-11
9.8974974e-11
1.1670838e-10
1.3381755e-10
1.6093902e-10
1.869406e-10
2.1659757e-10
2.6483267e-10
3.6645645e-10
4.9035011e-10
6.0789728e-10
6.8292959e-10
9.6420339e-10
1.0098279e-09
8.6618755e-10
8.5990031e-10
1.026985e-09
1.3505791e-09
1.5956863e-09
2.0901304e-09
2.7432445e-09
3.8375118e-09
5.0112454e-09
6.4459949e-09
8.536083e-09
1.1592133e-08
1.5326719e-08
2.005181e-08
2.6306304e-08
3.4688029e-08
4.0454093e-08
4.8620515e-08
5.943571e-08
6.9736062e-08
8.1968477e-08
9.6180838e-08
1.0776913e-07
1.1038753e-07
1.1967478e-07
1.2859586e-07
1.3218632e-07
1.3316959e-07
1.4330869e-07
1.666189e-07
2.3585729e-07
3.2235014e-07
2.3758782e-07
1.6708565e-07
1.1020272e-07
7.8493782e-08
4.7339849e-08
2.5530904e-08
1.4076196e-08
7.0025716e-09
4.3355276e-09
3.3906514e-09
3.9842069e-08
2.9317077e-08
1.7859079e-08
1.1944026e-08
8.3848322e-09
5.649738e-09
3.5884883e-09
2.2338134e-09
1.3417063e-09
7.2063896e-10
3.543238e-10
1.8138362e-10
1.0074171e-10
5.948116e-11
3.6841578e-11
2.4304163e-11
1.6799855e-11
1.2374484e-11
9.6286019e-12
7.7889623e-12
6.4899253e-12
5.5727546e-12
4.9569601e-12
4.5321921e-12
4.2167294e-12
3.9737607e-12
3.8005481e-12
3.6920136e-12
3.629094e-12
3.6115173e-12
3.6328271e-12
3.6910126e-12
3.7886399e-12
3.9247031e-12
4.0970257e-12
4.3097017e-12
4.572618e-12
4.8917396e-12
5.265575e-12
5.7125027e-12
6.2277539e-12
6.8126627e-12
7.4803477e-12
8.239783e-12
9.0930693e-12
1.0034696e-11
1.1061747e-11
1.2175107e-11
1.3388958e-11
1.472891e-11
1.6193353e-11
1.7763368e-11
1.9427165e-11
2.1161835e-11
2.295455e-11
2.4787751e-11
2.6621994e-11
2.8427472e-11
3.0122713e-11
3.156436e-11
3.2614716e-11
3.3358623e-11
3.4680372e-11
3.8510601e-11
4.3772216e-11
4.8563014e-11
5.2958926e-11
5.7066455e-11
6.093035e-11
6.4539579e-11
6.79495e-11
7.1149945e-11
7.4181636e-11
7.703892e-11
7.9752076e-11
8.2315509e-11
8.474973e-11
8.7052354e-11
8.9240648e-11
9.130823e-11
9.3267704e-11
9.5123002e-11
9.6875685e-11
9.852049e-11
1.0006481e-10
1.0150985e-10
1.0287742e-10
1.0415315e-10
1.0533463e-10
1.0643293e-10
1.0748678e-10
1.0851941e-10
1.0959094e-10
1.1069922e-10
1.1122429e-10
1.1142303e-10
1.1213786e-10
1.1247958e-10
1.1254904e-10
1.1277846e-10
1.1318225e-10
1.140291e-10
1.1481604e-10
1.1549599e-10
1.1719687e-10
1.2074099e-10
1.1672306e-10
1.1280998e-10
1.1266348e-10
1.1113561e-10
1.1089179e-10
1.118516e-10
1.1269289e-10
1.1218944e-10
1.1010013e-10
1.0959995e-10
1.0934838e-10
1.0838183e-10
1.0770699e-10
1.0768846e-10
1.0830602e-10
1.0958032e-10
1.0696644e-10
1.0510182e-10
1.0533395e-10
1.0504985e-10
1.0421935e-10
1.0347457e-10
1.0338679e-10
1.0434587e-10
1.04111e-10
1.0480819e-10
1.0637242e-10
1.0633187e-10
1.0040646e-10
9.9833319e-11
1.0375729e-10
1.0861316e-10
1.0157334e-10
9.7162589e-11
9.857222e-11
9.7183902e-11
9.3337096e-11
9.1886696e-11
9.0744554e-11
9.0814437e-11
9.1020774e-11
9.1009539e-11
9.1656146e-11
9.1738089e-11
9.1604483e-11
9.2735048e-11
9.3562485e-11
9.1256295e-11
8.7372525e-11
8.5646934e-11
8.3936357e-11
8.3700602e-11
8.2842332e-11
8.0526139e-11
7.9043507e-11
7.7811754e-11
7.709526e-11
7.7029866e-11
7.6815439e-11
7.5733639e-11
7.461564e-11
7.3881072e-11
7.3051062e-11
7.1880005e-11
7.0850529e-11
7.000237e-11
6.9126594e-11
6.8269919e-11
6.7502507e-11
6.6817518e-11
6.6161171e-11
6.5496223e-11
6.4739883e-11
6.3855509e-11
6.2881825e-11
6.1867344e-11
6.0847418e-11
5.988536e-11
5.9010231e-11
5.8274591e-11
5.7680552e-11
5.7266894e-11
5.7054561e-11
5.7152643e-11
5.7706873e-11
5.900954e-11
6.1375427e-11
6.5258589e-11
7.1067262e-11
7.9356174e-11
9.0589025e-11
1.0534374e-10
1.2414146e-10
1.4765359e-10
1.76576e-10
2.1228677e-10
2.5649867e-10
3.1113899e-10
3.7857074e-10
4.6292833e-10
5.6848883e-10
6.7431493e-10
7.4547077e-10
8.2873403e-10
9.4451867e-10
1.0833625e-09
1.2662833e-09
1.4806549e-09
1.7665444e-09
2.1518411e-09
2.5267478e-09
2.8858215e-09
3.4556147e-09
3.9979041e-09
4.5954389e-09
5.5194283e-09
7.4642179e-09
1.0020502e-08
1.2345557e-08
1.3652422e-08
1.8473014e-08
1.9965662e-08
1.703828e-08
1.6548853e-08
1.9322016e-08
2.4393146e-08
2.7667541e-08
3.3604237e-08
4.1036797e-08
5.3101542e-08
6.4047714e-08
7.2735331e-08
8.368713e-08
9.9249694e-08
1.1098595e-07
1.2404115e-07
1.3852501e-07
1.583057e-07
1.6717777e-07
1.877022e-07
2.0795429e-07
2.3314485e-07
2.5741408e-07
2.9237868e-07
3.3087128e-07
3.2984436e-07
3.5085598e-07
3.7317257e-07
3.6871948e-07
3.614981e-07
3.8980674e-07
4.6744445e-07
6.7675564e-07
8.7047303e-07
7.2242949e-07
5.2176962e-07
4.0169233e-07
3.5959885e-07
2.7099694e-07
1.8449379e-07
1.3003269e-07
8.6717115e-08
6.736683e-08
5.6140496e-08
2.0805758e-07
1.6112282e-07
1.0264026e-07
7.1453039e-08
5.2207565e-08
3.6713989e-08
2.4394964e-08
1.6050426e-08
1.0047363e-08
5.5757884e-09
2.8078251e-09
1.4592123e-09
8.1617406e-10
4.8343376e-10
2.9984942e-10
1.9792383e-10
1.3684362e-10
1.0080284e-10
7.8435039e-11
6.3448338e-11
5.2864788e-11
4.5390724e-11
4.0371638e-11
3.6909721e-11
3.4338815e-11
3.235857e-11
3.0946367e-11
3.0060938e-11
2.954718e-11
2.9402617e-11
2.9574764e-11
3.0047073e-11
3.0840482e-11
3.1946826e-11
3.3348309e-11
3.5078154e-11
3.7216917e-11
3.9813271e-11
4.2854702e-11
4.6490949e-11
5.068346e-11
5.5442849e-11
6.0875758e-11
6.7055481e-11
7.399924e-11
8.1662304e-11
9.0020749e-11
9.9081457e-11
1.0895913e-10
1.1986272e-10
1.3177994e-10
1.4455674e-10
1.580973e-10
1.7221511e-10
1.8680552e-10
2.0172575e-10
2.1665478e-10
2.3135052e-10
2.4515023e-10
2.5688552e-10
2.6543592e-10
2.7148788e-10
2.8222882e-10
3.1339217e-10
3.5621259e-10
3.9519709e-10
4.3096751e-10
4.64391e-10
4.9583236e-10
5.2520103e-10
5.5294842e-10
5.7899102e-10
6.0366092e-10
6.2691154e-10
6.4898988e-10
6.6984982e-10
6.8965883e-10
7.0839703e-10
7.2620524e-10
7.4303126e-10
7.5897782e-10
7.7407689e-10
7.8834117e-10
8.0172773e-10
8.1429688e-10
8.2605814e-10
8.3718919e-10
8.4757274e-10
8.571898e-10
8.6613032e-10
8.7470813e-10
8.831135e-10
8.9183458e-10
9.0085317e-10
9.0513109e-10
9.0674471e-10
9.1255011e-10
9.153454e-10
9.159227e-10
9.1779042e-10
9.2107919e-10
9.2797132e-10
9.3437009e-10
9.3990593e-10
9.5373442e-10
9.8251814e-10
9.4987312e-10
9.180362e-10
9.168665e-10
9.0444006e-10
9.024539e-10
9.1026209e-10
9.1711053e-10
9.1302249e-10
8.9601647e-10
8.9195299e-10
8.8992291e-10
8.8206173e-10
8.7657241e-10
8.7642083e-10
8.8143165e-10
8.9177991e-10
8.7054192e-10
8.5537242e-10
8.5726403e-10
8.5495535e-10
8.481968e-10
8.4213881e-10
8.4141801e-10
8.4922418e-10
8.4729054e-10
8.5294999e-10
8.6565739e-10
8.6531617e-10
8.1716139e-10
8.1248094e-10
8.4435438e-10
8.8374706e-10
8.265733e-10
7.9076807e-10
8.0223205e-10
7.9094003e-10
7.5964768e-10
7.4785332e-10
7.3855876e-10
7.3912936e-10
7.4081013e-10
7.4071391e-10
7.459717e-10
7.4663934e-10
7.4552504e-10
7.5468112e-10
7.6129439e-10
7.4263967e-10
7.1111525e-10
6.9707482e-10
6.8315741e-10
6.8123881e-10
6.7424879e-10
6.5540384e-10
6.4334049e-10
6.3331498e-10
6.2748182e-10
6.2695184e-10
6.252042e-10
6.1640246e-10
6.073022e-10
6.0132529e-10
5.9457098e-10
5.8504049e-10
5.7666198e-10
5.6975861e-10
5.6263062e-10
5.5565756e-10
5.4941089e-10
5.4383497e-10
5.3849209e-10
5.3307908e-10
5.2692272e-10
5.1972459e-10
5.1179972e-10
5.0354283e-10
4.9524169e-10
4.8741136e-10
4.8028841e-10
4.7430068e-10
4.6946539e-10
4.6609786e-10
4.6436834e-10
4.6516447e-10
4.6967203e-10
4.802681e-10
4.995111e-10
5.3109066e-10
5.7831973e-10
6.4569627e-10
7.3696588e-10
8.567854e-10
1.0093207e-09
1.1999108e-09
1.4339902e-09
1.722408e-09
2.0785527e-09
2.5173199e-09
3.056834e-09
3.7296331e-09
4.5713575e-09
5.4162044e-09
5.9811196e-09
6.6347108e-09
7.5439296e-09
8.6255601e-09
1.0045479e-08
1.1692525e-08
1.3867055e-08
1.676631e-08
1.9486046e-08
2.1966027e-08
2.5960604e-08
2.9769337e-08
3.3683441e-08
3.9284e-08
5.1358385e-08
6.7627135e-08
8.2282414e-08
8.9855122e-08
1.1436934e-07
1.2387995e-07
1.0566385e-07
9.8071511e-08
1.0847879e-07
1.263567e-07
1.356152e-07
1.5175969e-07
1.6790512e-07
2.0428049e-07
2.3850679e-07
2.5143803e-07
2.6988894e-07
3.0919778e-07
3.3281151e-07
3.590986e-07
3.8289261e-07
4.13256e-07
4.2654033e-07
4.6700602e-07
4.9518736e-07
5.344305e-07
5.6554706e-07
6.2455147e-07
6.8664488e-07
6.7583896e-07
7.0341371e-07
7.4064696e-07
7.0876094e-07
6.7985219e-07
7.4296835e-07
9.2162532e-07
1.3033107e-06
1.6291413e-06
1.4789957e-06
1.1089e-06
9.232788e-07
9.0737664e-07
7.6481287e-07
5.7057542e-07
4.2382007e-07
3.2136798e-07
2.9305679e-07
2.6870583e-07
5.8918678e-07
4.6267701e-07
3.1361113e-07
2.2516787e-07
1.7080635e-07
1.2542801e-07
8.7521021e-08
6.1311429e-08
4.0730719e-08
2.3952738e-08
1.2652622e-08
6.8013168e-09
3.8717616e-09
2.3130333e-09
1.440351e-09
9.5245849e-10
6.5906198e-10
4.856729e-10
3.779749e-10
3.0578252e-10
2.5478379e-10
2.1875596e-10
1.9455491e-10
1.7786209e-10
1.6546585e-10
1.5591651e-10
1.4910402e-10
1.4482985e-10
1.4234758e-10
1.416437e-10
1.4246608e-10
1.4473411e-10
1.485488e-10
1.5387089e-10
1.6061438e-10
1.6893913e-10
1.7923314e-10
1.9173116e-10
2.0637185e-10
2.2387684e-10
2.4406128e-10
2.669752e-10
2.9313149e-10
3.2288471e-10
3.5631823e-10
3.9321729e-10
4.3346556e-10
4.770942e-10
5.2465168e-10
5.771469e-10
6.345247e-10
6.960436e-10
7.612422e-10
8.2922194e-10
8.9947792e-10
9.7132392e-10
1.0432127e-09
1.1139831e-09
1.1804454e-09
1.2369651e-09
1.2781441e-09
1.3072544e-09
1.3588216e-09
1.5087527e-09
1.7148891e-09
1.9025343e-09
2.0747024e-09
2.23557e-09
2.3869011e-09
2.528252e-09
2.661805e-09
2.7871507e-09
2.9058949e-09
3.0178075e-09
3.1240829e-09
3.2244952e-09
3.3198538e-09
3.4100595e-09
3.4957938e-09
3.5768019e-09
3.6535807e-09
3.7262827e-09
3.79497e-09
3.8594348e-09
3.9199678e-09
3.9766136e-09
4.0302281e-09
4.0802453e-09
4.1265757e-09
4.1696536e-09
4.2109782e-09
4.2514738e-09
4.2934831e-09
4.3369252e-09
4.3575866e-09
4.3653536e-09
4.393264e-09
4.4068441e-09
4.409703e-09
4.4187232e-09
4.4345889e-09
4.4677877e-09
4.4985907e-09
4.5252744e-09
4.5917846e-09
4.7300148e-09
4.5732337e-09
4.4200229e-09
4.4145999e-09
4.354807e-09
4.3452324e-09
4.3828229e-09
4.4158215e-09
4.3962478e-09
4.3143887e-09
4.2948704e-09
4.285205e-09
4.2473997e-09
4.220986e-09
4.220255e-09
4.2442883e-09
4.2940244e-09
4.1919945e-09
4.1189872e-09
4.1281229e-09
4.117045e-09
4.0845026e-09
4.0553554e-09
4.0518293e-09
4.0894463e-09
4.0800332e-09
4.1071693e-09
4.1682377e-09
4.1665737e-09
3.9350825e-09
3.9123938e-09
4.0654785e-09
4.2545359e-09
3.9798024e-09
3.8080756e-09
3.8632232e-09
3.808887e-09
3.6583007e-09
3.6015931e-09
3.5568411e-09
3.559602e-09
3.5677077e-09
3.5672026e-09
3.5924912e-09
3.5957241e-09
3.5901947e-09
3.6340359e-09
3.6652583e-09
3.5760535e-09
3.4247087e-09
3.3571325e-09
3.2901398e-09
3.2809013e-09
3.2472092e-09
3.1564941e-09
3.0984219e-09
3.0501392e-09
3.0220374e-09
3.0195004e-09
3.011066e-09
2.9686977e-09
2.9248654e-09
2.8960938e-09
2.8635704e-09
2.8176739e-09
2.7773262e-09
2.7440781e-09
2.7097483e-09
2.6761622e-09
2.6460735e-09
2.6192141e-09
2.5934753e-09
2.5673996e-09
2.5377456e-09
2.5030758e-09
2.4649064e-09
2.4251392e-09
2.3851592e-09
2.3474457e-09
2.313139e-09
2.2842993e-09
2.2610088e-09
2.2447854e-09
2.2364472e-09
2.2402685e-09
2.2619561e-09
2.3129465e-09
2.4055308e-09
2.5574199e-09
2.7844616e-09
3.1081176e-09
3.5460737e-09
4.1201685e-09
4.8494984e-09
5.7581981e-09
6.8697289e-09
8.2320857e-09
9.9034065e-09
1.1946831e-08
1.4438757e-08
1.7524937e-08
2.137747e-08
2.523545e-08
2.7769701e-08
3.0648164e-08
3.4640423e-08
3.9317044e-08
4.5391808e-08
5.2284571e-08
6.1222504e-08
7.2964946e-08
8.3329919e-08
9.1911864e-08
1.0632161e-07
1.2029632e-07
1.3338543e-07
1.5099815e-07
1.9004924e-07
2.3924843e-07
2.8582965e-07
3.108603e-07
3.6418589e-07
3.8933968e-07
3.3534906e-07
3.0444361e-07
3.2145924e-07
3.4909086e-07
3.6383469e-07
3.9325233e-07
4.1235235e-07
4.9043112e-07
5.73404e-07
5.8905628e-07
6.0899099e-07
6.8455378e-07
7.2490461e-07
7.6217166e-07
7.968054e-07
8.3432647e-07
8.4327635e-07
9.0056239e-07
9.3689663e-07
9.7703547e-07
1.0031007e-06
1.0815e-06
1.1720027e-06
1.1260986e-06
1.1535835e-06
1.2175187e-06
1.1356071e-06
1.0793149e-06
1.2157599e-06
1.5391294e-06
2.0921875e-06
2.5962784e-06
2.469091e-06
1.9219489e-06
1.6484537e-06
1.7012754e-06
1.5232459e-06
1.2179519e-06
9.3551032e-07
7.542241e-07
7.3623713e-07
7.1331253e-07
1.1939605e-06
9.5974029e-07
6.8644163e-07
5.0584156e-07
3.9194474e-07
2.9860757e-07
2.1624802e-07
1.5833604e-07
1.1077899e-07
6.9701688e-08
3.9382081e-08
2.2337413e-08
1.3140903e-08
7.9927601e-09
5.0221198e-09
3.3354657e-09
2.3128391e-09
1.7062487e-09
1.3286668e-09
1.0752392e-09
8.9606191e-10
7.6939769e-10
6.8427225e-10
6.2554584e-10
5.8193205e-10
5.483276e-10
5.2434563e-10
5.092883e-10
5.0053536e-10
4.9803378e-10
5.0089939e-10
5.0884561e-10
5.2222876e-10
5.4091102e-10
5.6458888e-10
5.9382346e-10
6.299805e-10
6.7388613e-10
7.2531938e-10
7.8681897e-10
8.5773785e-10
9.3824839e-10
1.0301499e-09
1.1346944e-09
1.2521771e-09
1.3818451e-09
1.5232851e-09
1.6765974e-09
1.8436898e-09
2.0281208e-09
2.2297145e-09
2.4458643e-09
2.6749471e-09
2.9138068e-09
3.1606622e-09
3.413111e-09
3.6657058e-09
3.914391e-09
4.1479653e-09
4.3466009e-09
4.4912949e-09
4.593355e-09
4.7736542e-09
5.2996005e-09
6.0234296e-09
6.6822188e-09
7.2866319e-09
7.8513419e-09
8.3825961e-09
8.8787924e-09
9.3476475e-09
9.7876831e-09
1.0204577e-08
1.0597492e-08
1.0970652e-08
1.132324e-08
1.1658119e-08
1.1974921e-08
1.2276056e-08
1.2560615e-08
1.2830351e-08
1.3085795e-08
1.332717e-08
1.3553737e-08
1.376652e-08
1.3965669e-08
1.4154191e-08
1.4330094e-08
1.4493069e-08
1.4644646e-08
1.4790031e-08
1.4932511e-08
1.5080284e-08
1.523313e-08
1.5306184e-08
1.5333597e-08
1.5431652e-08
1.5480064e-08
1.5490535e-08
1.5522482e-08
1.5578464e-08
1.5695261e-08
1.580359e-08
1.5897568e-08
1.6131055e-08
1.6615243e-08
1.6066555e-08
1.5528706e-08
1.55108e-08
1.5300987e-08
1.52673e-08
1.5399417e-08
1.5515577e-08
1.5447519e-08
1.5160207e-08
1.5091885e-08
1.5058456e-08
1.4925922e-08
1.4833212e-08
1.4830678e-08
1.4914742e-08
1.5089357e-08
1.473193e-08
1.4475587e-08
1.450786e-08
1.4469196e-08
1.4354887e-08
1.4252573e-08
1.4239892e-08
1.4372298e-08
1.4338954e-08
1.4433684e-08
1.464784e-08
1.4642122e-08
1.3830276e-08
1.3749675e-08
1.4285887e-08
1.494797e-08
1.3983262e-08
1.3384535e-08
1.3578135e-08
1.3387345e-08
1.2858568e-08
1.2659774e-08
1.2502527e-08
1.2512301e-08
1.2540862e-08
1.2538865e-08
1.2627617e-08
1.2639079e-08
1.2618994e-08
1.2772106e-08
1.287969e-08
1.2568485e-08
1.2038402e-08
1.1801128e-08
1.15658e-08
1.1533334e-08
1.1414776e-08
1.1096094e-08
1.0892087e-08
1.0722379e-08
1.0623558e-08
1.0614714e-08
1.0584981e-08
1.0436153e-08
1.0282059e-08
1.0180979e-08
1.0066672e-08
9.9053456e-09
9.7635319e-09
9.6466538e-09
9.5259726e-09
9.4078914e-09
9.302105e-09
9.2076639e-09
9.1171542e-09
9.0254577e-09
8.921192e-09
8.7992994e-09
8.6651018e-09
8.5252934e-09
8.3847401e-09
8.2521524e-09
8.1315415e-09
8.0301484e-09
7.9482594e-09
7.8912046e-09
7.8618541e-09
7.8752261e-09
7.9513736e-09
8.1304244e-09
8.4554029e-09
8.9881632e-09
9.783627e-09
1.0915724e-08
1.2443964e-08
1.4440714e-08
1.6965994e-08
2.0093377e-08
2.3887178e-08
2.8489033e-08
3.4065063e-08
4.0789546e-08
4.8876827e-08
5.8784082e-08
7.1080877e-08
8.3250116e-08
9.0937353e-08
9.947829e-08
1.1124748e-07
1.2474774e-07
1.4195512e-07
1.6088392e-07
1.8496741e-07
2.1618732e-07
2.4199131e-07
2.6114268e-07
2.9561767e-07
3.2911833e-07
3.5791176e-07
3.97017e-07
4.8164299e-07
5.804878e-07
6.7805615e-07
7.3517463e-07
7.9406428e-07
8.4901834e-07
7.3872288e-07
6.7899495e-07
6.9752683e-07
7.2198737e-07
7.4662771e-07
7.9348311e-07
8.1398407e-07
9.5423e-07
1.1097189e-06
1.1255002e-06
1.1365402e-06
1.2482822e-06
1.3014003e-06
1.3382347e-06
1.3892223e-06
1.4349083e-06
1.4196256e-06
1.4942476e-06
1.5387857e-06
1.5599647e-06
1.5695935e-06
1.6569044e-06
1.7948999e-06
1.6823901e-06
1.7119493e-06
1.8070148e-06
1.6599992e-06
1.5865158e-06
1.8517019e-06
2.3522447e-06
3.0703014e-06
3.7446294e-06
3.7483831e-06
2.9617469e-06
2.5845651e-06
2.7220919e-06
2.5278168e-06
2.1199429e-06
1.6741691e-06
1.3950031e-06
1.4102076e-06
1.3842678e-06
1.973894e-06
1.6388933e-06
1.23865e-06
9.3838154e-07
7.3674206e-07
5.7583755e-07
4.2803493e-07
3.2232217e-07
2.3304617e-07
1.5529026e-07
9.4183993e-08
5.6999071e-08
3.5163273e-08
2.2042748e-08
1.4085866e-08
9.437948e-09
6.5737829e-09
4.8615992e-09
3.790881e-09
3.0701591e-09
2.5596915e-09
2.1983682e-09
1.9553364e-09
1.7875926e-09
1.662982e-09
1.5669405e-09
1.498374e-09
1.4552905e-09
1.4302234e-09
1.4230054e-09
1.4311192e-09
1.4537365e-09
1.4918804e-09
1.5451578e-09
1.6126984e-09
1.6961045e-09
1.7992863e-09
1.9246032e-09
2.0714059e-09
2.2469534e-09
2.4494054e-09
2.679243e-09
2.9415916e-09
3.2400459e-09
3.5754571e-09
3.9456782e-09
4.3495129e-09
4.7872154e-09
5.2641569e-09
5.790544e-09
6.3659318e-09
6.9828762e-09
7.6367339e-09
8.3185034e-09
9.0230689e-09
9.7436089e-09
1.0464533e-08
1.117436e-08
1.1841137e-08
1.2408185e-08
1.2821048e-08
1.3111192e-08
1.3621926e-08
1.5119009e-08
1.7182348e-08
1.9059892e-08
2.0782289e-08
2.2391404e-08
2.390527e-08
2.5319161e-08
2.6655281e-08
2.7909272e-08
2.909747e-08
3.0217376e-08
3.1281147e-08
3.2286367e-08
3.3241276e-08
3.4144756e-08
3.500374e-08
3.581558e-08
3.6585303e-08
3.7314402e-08
3.8003534e-08
3.8650559e-08
3.9258405e-08
3.9827462e-08
4.0366315e-08
4.0869266e-08
4.1335442e-08
4.1769223e-08
4.2185242e-08
4.2592992e-08
4.3015783e-08
4.345332e-08
4.3664129e-08
4.3743397e-08
4.4023939e-08
4.4165202e-08
4.4197042e-08
4.4289638e-08
4.445075e-08
4.4785071e-08
4.5095078e-08
4.5364452e-08
4.6030643e-08
4.7407574e-08
4.5851242e-08
4.4318175e-08
4.4271516e-08
4.367449e-08
4.3578239e-08
4.3955734e-08
4.4288477e-08
4.4097464e-08
4.3279345e-08
4.3085523e-08
4.2992244e-08
4.2615368e-08
4.2351252e-08
4.2344327e-08
4.2583203e-08
4.3081969e-08
4.2065759e-08
4.1334871e-08
4.1427793e-08
4.1318699e-08
4.0992773e-08
4.0701063e-08
4.0663768e-08
4.1042866e-08
4.0947382e-08
4.1215257e-08
4.1825329e-08
4.1810177e-08
3.9498199e-08
3.926444e-08
4.0789428e-08
4.2671772e-08
3.9911425e-08
3.8228381e-08
3.8780689e-08
3.8236472e-08
3.6728047e-08
3.6162499e-08
3.5713611e-08
3.574183e-08
3.5823751e-08
3.58172e-08
3.6070271e-08
3.6103315e-08
3.6044068e-08
3.6478271e-08
3.6779673e-08
3.5897641e-08
3.4389786e-08
3.3713213e-08
3.3041574e-08
3.2948864e-08
3.2609754e-08
3.1700133e-08
3.1117877e-08
3.0633185e-08
3.0350759e-08
3.0325774e-08
3.0240524e-08
2.9815789e-08
2.9375557e-08
2.9087008e-08
2.8760517e-08
2.8299673e-08
2.7894628e-08
2.7560731e-08
2.7215963e-08
2.6878577e-08
2.6576315e-08
2.6306435e-08
2.6047761e-08
2.5785682e-08
2.5487719e-08
2.5139404e-08
2.4755921e-08
2.4356427e-08
2.3954821e-08
2.3575972e-08
2.3231345e-08
2.2941628e-08
2.2707623e-08
2.2544533e-08
2.2460534e-08
2.2498524e-08
2.2715727e-08
2.3226445e-08
2.4152663e-08
2.5668944e-08
2.7927878e-08
3.1132472e-08
3.5438676e-08
4.1030591e-08
4.8044531e-08
5.6637632e-08
6.6915211e-08
7.9173579e-08
9.3747669e-08
1.1098345e-07
1.3133648e-07
1.5593548e-07
1.861509e-07
2.1526941e-07
2.3249141e-07
2.5129217e-07
2.7705526e-07
3.0601743e-07
3.4212791e-07
3.8072758e-07
4.2937382e-07
4.9182392e-07
5.4083327e-07
5.748519e-07
6.4012274e-07
7.0081544e-07
7.4997987e-07
8.2348983e-07
9.7238396e-07
1.132017e-06
1.2928282e-06
1.3875449e-06
1.4309842e-06
1.5243583e-06
1.3445231e-06
1.2557133e-06
1.2749912e-06
1.2832022e-06
1.3267021e-06
1.3937916e-06
1.4130457e-06
1.628528e-06
1.8691818e-06
1.8837807e-06
1.8644049e-06
2.0038042e-06
2.0447265e-06
2.0788028e-06
2.1641171e-06
2.2236738e-06
2.1603415e-06
2.2696792e-06
2.3159311e-06
2.3034032e-06
2.2753567e-06
2.3567354e-06
2.5693288e-06
2.4079892e-06
2.4116181e-06
2.5363774e-06
2.3194624e-06
2.2649642e-06
2.7239832e-06
3.4247105e-06
4.2645895e-06
5.1608585e-06
5.3204178e-06
4.289621e-06
3.7969365e-06
3.9926934e-06
3.7925717e-06
3.2759387e-06
2.6333242e-06
2.2391459e-06
2.3058427e-06
2.2420539e-06
2.9041179e-06
2.4897325e-06
1.9717702e-06
1.5396693e-06
1.2286685e-06
9.7688877e-07
7.3767285e-07
5.6448784e-07
4.1893688e-07
2.8946234e-07
1.8645619e-07
1.2019547e-07
7.8332189e-08
5.1176502e-08
3.3584434e-08
2.2848913e-08
1.6048597e-08
1.1924904e-08
9.323495e-09
7.5626666e-09
6.3112454e-09
5.4233682e-09
4.8252891e-09
4.4120814e-09
4.1049455e-09
3.8681076e-09
3.6989513e-09
3.5925822e-09
3.5306534e-09
3.5127146e-09
3.5325877e-09
3.5882074e-09
3.682116e-09
3.813346e-09
3.9797421e-09
4.1852634e-09
4.4395928e-09
4.7485455e-09
5.1104681e-09
5.5432975e-09
6.0424966e-09
6.6092271e-09
7.2561039e-09
7.9920395e-09
8.819153e-09
9.7321528e-09
1.0728036e-08
1.1807316e-08
1.2983009e-08
1.4280435e-08
1.5698629e-08
1.721923e-08
1.8830769e-08
2.0511072e-08
2.2247434e-08
2.4023142e-08
2.5799633e-08
2.754891e-08
2.9192268e-08
3.0589786e-08
3.160633e-08
3.2316632e-08
3.3561737e-08
3.7236327e-08
4.2310542e-08
4.6926628e-08
5.1160643e-08
5.5115708e-08
5.8836918e-08
6.2312201e-08
6.5596798e-08
6.867958e-08
7.1601184e-08
7.4355151e-08
7.697172e-08
7.9444704e-08
8.1794595e-08
8.4018449e-08
8.613349e-08
8.8133049e-08
9.0029567e-08
9.1826658e-08
9.3525991e-08
9.51222e-08
9.6622495e-08
9.8027718e-08
9.9359019e-08
1.0060232e-07
1.0175545e-07
1.0282926e-07
1.0385909e-07
1.0486861e-07
1.0591515e-07
1.069991e-07
1.0752759e-07
1.0772814e-07
1.084238e-07
1.0878315e-07
1.0886927e-07
1.0910336e-07
1.0950614e-07
1.1033449e-07
1.1110221e-07
1.1177045e-07
1.1341279e-07
1.1678988e-07
1.1299262e-07
1.0922231e-07
1.0912092e-07
1.0765881e-07
1.0742155e-07
1.0835414e-07
1.0917907e-07
1.0871942e-07
1.0671194e-07
1.062389e-07
1.0601647e-07
1.0509296e-07
1.044441e-07
1.0442869e-07
1.0501548e-07
1.0624794e-07
1.0375611e-07
1.0195776e-07
1.0218983e-07
1.0192583e-07
1.0112446e-07
1.0040627e-07
1.0031124e-07
1.0125012e-07
1.0101542e-07
1.0166735e-07
1.0316795e-07
1.0313577e-07
9.7453866e-08
9.686532e-08
1.0060885e-07
1.0521991e-07
9.8307081e-08
9.4333477e-08
9.5694716e-08
9.4354151e-08
9.0638119e-08
8.9250341e-08
8.8143649e-08
8.8214452e-08
8.841792e-08
8.839922e-08
8.9022628e-08
8.9104598e-08
8.8954297e-08
9.0016961e-08
9.0746251e-08
8.8587055e-08
8.4884885e-08
8.3219503e-08
8.1563719e-08
8.1335014e-08
8.0496693e-08
7.8253958e-08
7.6818617e-08
7.562276e-08
7.4925325e-08
7.4864542e-08
7.4653111e-08
7.3606184e-08
7.2519532e-08
7.1807886e-08
7.1002088e-08
6.9864617e-08
6.8865113e-08
6.8040936e-08
6.7189877e-08
6.6356935e-08
6.5610672e-08
6.4944278e-08
6.430542e-08
6.3658124e-08
6.2922284e-08
6.2062141e-08
6.1115127e-08
6.0128625e-08
5.9136968e-08
5.820152e-08
5.7350577e-08
5.663522e-08
5.6057362e-08
5.5654463e-08
5.5446628e-08
5.5539697e-08
5.6074628e-08
5.7332202e-08
5.9609407e-08
6.3327908e-08
6.884562e-08
7.6629314e-08
8.7007396e-08
1.0034757e-07
1.1685987e-07
1.3675598e-07
1.6006333e-07
1.872282e-07
2.1875669e-07
2.552172e-07
2.9745551e-07
3.4782079e-07
4.0874853e-07
4.6502159e-07
4.9536703e-07
5.2841806e-07
5.7383476e-07
6.2429001e-07
6.8608346e-07
7.5099598e-07
8.3290848e-07
9.3671269e-07
1.0148977e-06
1.0708718e-06
1.17872e-06
1.270399e-06
1.3411101e-06
1.4676586e-06