/*--------------------------------*- C++ -*----------------------------------*\
  =========                 |
  \\      /  F ield         | OpenFOAM: The Open Source CFD Toolbox
   \\    /   O peration     | Website:  https://openfoam.org
    \\  /    A nd           | Version:  7
     \\/     M anipulation  |
\*---------------------------------------------------------------------------*/
FoamFile
{
    version     2.0;
    format      ascii;
    class       volScalarField;
    location    "240";
    object      omega;
}
// * * * * * * * * * * * * * * * * * * * * * * * * * * * * * * * * * * * * * //

dimensions      [0 0 -1 0 0 0 0];

internalField   nonuniform List<scalar> 
78300
(
288636.63
288686.54
288700.32
288833.64
289515.6
291432.02
295479.08
302673.01
314010.37
329813.04
346787.82
362441.63
375829.98
386411.76
393919.79
398343.7
399991.89
399060.36
395721.33
390174.45
382632.29
373308
362413.46
350675.33
339521.98
329123.31
319421.78
310364.21
301901.89
293992.53
286594.56
279672.29
273192.3
267123.9
261439.18
256109.32
250877.53
245350.68
239525.68
233441.11
227134.93
220644.17
214005.21
207254.37
200428.97
193566.99
186709.47
179903.22
173262.16
167044.3
161298.04
156019.07
151204.62
146855.25
142973.85
139564.67
136634.53
134192.24
132247.52
130811.23
129895.27
129511.99
129657.27
129783.85
129783.85
129783.85
129783.85
129783.85
129783.85
129783.85
129783.85
129783.85
129783.85
129783.85
129783.85
129783.85
129783.85
129783.85
129783.85
129783.85
129783.85
129783.85
129783.85
129783.85
129783.85
129783.85
129783.85
129783.85
129783.85
129783.85
129783.85
129783.85
129783.85
129783.85
129783.85
129783.85
129783.85
129783.85
129783.85
129783.85
129783.85
129783.85
129783.85
129783.85
129783.85
129783.85
129783.85
129783.85
129783.85
129783.85
129783.85
129783.85
129783.85
129783.85
129783.85
129783.85
129783.85
129783.85
129783.85
129783.85
129783.85
129783.85
129783.84
129783.85
129783.85
129783.85
129783.85
129783.84
129783.85
129783.85
129783.85
129783.85
129783.85
129783.85
129783.85
129783.85
129783.84
129783.85
129783.85
129783.84
129783.85
129783.85
129783.85
129783.85
129783.85
129783.84
129783.85
129783.85
129783.85
129783.85
129783.85
129783.85
129783.85
129783.85
129783.84
129783.85
129783.85
129783.85
129783.84
129783.85
129783.85
129783.84
129783.85
129783.85
129783.84
129783.85
129783.85
129783.84
129783.85
129783.85
129783.85
129783.85
129783.85
129783.85
129783.85
129783.84
129783.85
129783.85
129783.85
129783.85
129783.85
129783.85
129783.85
129783.85
129783.85
129783.85
129783.85
129783.85
129783.85
129783.85
129783.85
129783.85
129783.85
129783.85
129783.84
129783.85
129783.85
129783.84
129783.85
129783.85
129783.85
129783.85
129783.85
129783.84
129783.85
129783.85
129783.84
129657.28
129512.01
129895.29
130811.3
132247.51
134192.34
136634.64
139564.65
142973.98
146855.32
151204.67
156018.82
161297.58
167043.87
173262.26
179902.7
186708.68
193567.05
200429.57
207253.32
214004.05
220644.49
227134.65
233439.26
239524.1
245352.66
250877.67
256108.08
261440.19
267124.37
273191.43
279670.54
286594.56
293991.4
301901.42
310366.51
319421.34
329122.77
339524.25
350675.48
362412.53
373310.22
382630.09
390168.82
395719.59
399058.71
399989.89
398342.36
393921.48
386411.4
375828.67
362441.01
346789.95
329814.85
314010.08
302672.86
295478.98
291431.8
289515.61
288834.57
288701.21
288686.52
288636.62
48842.174
48850.718
48853.137
48875.876
48991.956
49316.35
50001.722
51218.615
53135.799
55808.542
58679.921
61328.27
63593.738
65384.34
66654.737
67403.083
67681.626
67523.608
66958.466
66019.849
64743.711
63166.129
61322.935
59336.936
57449.788
55690.302
54048.746
52516.157
51084.285
49745.996
48494.269
47322.986
46226.567
45199.76
44237.86
43335.995
42450.773
41515.626
40530.034
39500.548
38433.553
37335.328
36212.047
35069.83
33914.979
32753.93
31593.662
30442.059
29318.368
28266.284
27293.999
26400.758
25586.117
24850.187
24193.418
23616.562
23120.786
22707.541
22378.49
22135.477
21980.513
21915.712
21940.47
21961.923
21961.874
21961.848
21961.824
21961.806
21961.787
21961.774
21961.762
21961.751
21961.742
21961.734
21961.726
21961.719
21961.713
21961.707
21961.702
21961.698
21961.693
21961.689
21961.687
21961.685
21961.683
21961.681
21961.679
21961.677
21961.675
21961.673
21961.671
21961.67
21961.668
21961.667
21961.665
21961.664
21961.662
21961.661
21961.66
21961.659
21961.658
21961.656
21961.655
21961.654
21961.653
21961.652
21961.651
21961.65
21961.649
21961.647
21961.647
21961.646
21961.646
21961.644
21961.644
21961.642
21961.641
21961.641
21961.639
21961.639
21961.638
21961.636
21961.637
21961.635
21961.634
21961.633
21961.632
21961.631
21961.631
21961.63
21961.629
21961.628
21961.627
21961.626
21961.625
21961.624
21961.624
21961.623
21961.622
21961.621
21961.621
21961.62
21961.618
21961.618
21961.617
21961.617
21961.616
21961.616
21961.615
21961.615
21961.615
21961.613
21961.614
21961.612
21961.612
21961.612
21961.611
21961.612
21961.611
21961.611
21961.611
21961.61
21961.611
21961.611
21961.611
21961.611
21961.61
21961.611
21961.611
21961.611
21961.612
21961.612
21961.612
21961.613
21961.613
21961.613
21961.614
21961.615
21961.615
21961.616
21961.616
21961.617
21961.617
21961.618
21961.619
21961.62
21961.621
21961.621
21961.623
21961.623
21961.624
21961.626
21961.626
21961.627
21961.628
21961.63
21961.632
21961.635
21961.638
21961.644
21961.647
21961.652
21961.656
21961.663
21961.671
21961.682
21961.699
21940.299
21915.678
21980.51
22135.477
22378.476
22707.533
23120.777
23616.543
24193.443
24850.165
25586.088
26400.658
27293.866
28266.144
29318.246
30441.759
31594.383
32753.087
33911.852
35076.74
36209.511
37339.563
38431.083
39501.449
40527.92
41507.299
42466.594
43334.533
44242.433
45213.188
46211.009
47327.117
48496.073
49747.206
51083.44
52516.442
54044.909
55709.175
57547.496
59138.862
61418.555
63273.703
64663.828
65998.439
66965.552
67511.6
67683.757
67397.782
66664.479
65382.534
63593.103
61327.564
58680.089
55810.752
53132.132
51226.752
50009.104
49319.065
48993.748
48877.127
48853.564
48850.84
48842.389
16150.545
16153.585
16154.448
16162.279
16201.382
16308.928
16536.141
16938.267
17571.091
18453.786
19402.306
20277.628
21026.966
21619.276
22039.533
22287.076
22379.079
22326.678
22139.83
21829.495
21407.579
20886.027
20276.661
19620.032
18996.093
18414.338
17871.571
17364.833
16891.38
16448.884
16035.033
15647.755
15285.248
14945.736
14627.689
14329.496
14036.811
13727.61
13401.747
13061.361
12708.572
12345.457
11974.048
11596.369
11214.522
10830.613
10446.968
10066.187
9694.633
9346.7541
9025.2493
8729.8805
8460.4984
8217.1459
7999.9629
7809.2089
7645.2772
7508.629
7399.8302
7319.4812
7268.2608
7246.9062
7255.3113
7262.4611
7262.3884
7262.3504
7262.3156
7262.2915
7262.2647
7262.247
7262.2292
7262.2152
7262.2019
7262.1905
7262.1794
7262.1694
7262.16
7262.1515
7262.1431
7262.1355
7262.1281
7262.122
7262.1174
7262.113
7262.1086
7262.1042
7262.0999
7262.0955
7262.0914
7262.0873
7262.0831
7262.0792
7262.0753
7262.0714
7262.0676
7262.0639
7262.0604
7262.0568
7262.0533
7262.05
7262.0467
7262.0435
7262.0403
7262.0371
7262.0341
7262.031
7262.028
7262.0251
7262.0222
7262.0195
7262.0165
7262.0137
7262.0108
7262.0084
7262.0056
7262.0028
7261.9999
7261.9973
7261.9949
7261.9922
7261.9895
7261.9867
7261.9841
7261.9817
7261.979
7261.9763
7261.9737
7261.971
7261.9687
7261.9659
7261.9639
7261.9611
7261.9589
7261.9563
7261.9539
7261.9516
7261.9489
7261.9468
7261.9445
7261.9423
7261.9402
7261.9382
7261.9359
7261.934
7261.9321
7261.9303
7261.9287
7261.9267
7261.9251
7261.9236
7261.9223
7261.921
7261.9194
7261.9183
7261.9172
7261.9163
7261.9153
7261.9143
7261.9138
7261.913
7261.9125
7261.9121
7261.9113
7261.9115
7261.9114
7261.9112
7261.9114
7261.9111
7261.9118
7261.9118
7261.9122
7261.9128
7261.9132
7261.9139
7261.9146
7261.9154
7261.9166
7261.9173
7261.9182
7261.9193
7261.9207
7261.9218
7261.9232
7261.9244
7261.9259
7261.9274
7261.9293
7261.9309
7261.9326
7261.9342
7261.9366
7261.9385
7261.9406
7261.9423
7261.9447
7261.9471
7261.9506
7261.9556
7261.9617
7261.9695
7261.9766
7261.9835
7261.9914
7262.0024
7262.017
7262.0328
7262.0633
7255.0086
7246.8129
7268.2214
7319.4452
7399.7879
7508.5891
7645.2291
7809.1577
7999.924
8217.0622
8460.3958
8729.708
9025.072
9346.5234
9694.3521
10066.084
10447.31
10829.518
11211.995
11601.54
11973
12349.203
12706.746
13061.487
13399.266
13719.724
14050.003
14329.786
14633.043
14955.805
15273.151
15651.802
16036.348
16450.62
16891.676
17365.875
17883.89
18420.764
19027.366
19489.328
20381.773
20972.603
21339.542
21812.198
22140.6
22316.894
22378.787
22282.956
22056.208
21615.946
21026.276
20277.993
19402.695
18458.119
17572.135
16950.308
16547.467
16314.278
16204.4
16164.07
16154.967
16154.084
16151.008
7445.2361
7446.8412
7447.3077
7451.3265
7469.9767
7519.8367
7625.0218
7810.1287
8100.7138
8506.5423
8942.7964
9345.895
9691.6388
9964.9637
10158.908
10273.128
10315.437
10291.119
10204.979
10061.947
9867.5011
9627.1565
9346.3619
9043.7432
8756.1851
8488.0536
8237.8914
8004.3342
7786.0967
7582.1502
7391.4201
7212.9234
7045.8508
6889.3671
6742.7781
6605.3307
6470.4331
6327.9298
6177.7485
6020.8626
5858.2533
5690.8904
5519.7039
5345.6104
5169.6026
4992.6397
4815.7964
4640.2719
4469.0025
4308.6418
4160.4271
4024.2586
3900.0675
3787.8778
3687.7493
3599.8077
3524.2406
3461.2477
3411.1041
3374.0737
3350.489
3340.7284
3344.8303
3348.1977
3348.1134
3348.0731
3348.0361
3348.0123
3347.9839
3347.9669
3347.9483
3347.9344
3347.9203
3347.9085
3347.8959
3347.8851
3347.8738
3347.8636
3347.8532
3347.8435
3347.8335
3347.8251
3347.8177
3347.8106
3347.8031
3347.7957
3347.7882
3347.7807
3347.773
3347.7656
3347.758
3347.7507
3347.7432
3347.736
3347.7287
3347.7215
3347.7145
3347.7076
3347.7007
3347.694
3347.6873
3347.6808
3347.6744
3347.668
3347.6616
3347.6555
3347.6493
3347.6432
3347.6372
3347.6313
3347.6255
3347.6197
3347.6138
3347.6082
3347.6025
3347.5969
3347.5913
3347.5858
3347.5802
3347.5747
3347.5693
3347.5639
3347.5583
3347.553
3347.5477
3347.5424
3347.537
3347.5318
3347.5266
3347.5216
3347.5166
3347.5117
3347.5067
3347.502
3347.4969
3347.4921
3347.4874
3347.4827
3347.4783
3347.4739
3347.4695
3347.4654
3347.4614
3347.4574
3347.4537
3347.45
3347.4464
3347.4429
3347.4398
3347.4367
3347.4338
3347.431
3347.4284
3347.426
3347.4237
3347.4217
3347.4198
3347.4181
3347.4166
3347.4152
3347.4141
3347.4129
3347.4118
3347.4116
3347.4112
3347.4108
3347.4106
3347.4107
3347.4111
3347.4112
3347.4119
3347.4127
3347.4133
3347.4145
3347.4157
3347.4169
3347.4183
3347.4199
3347.4215
3347.4232
3347.4252
3347.4272
3347.4295
3347.4314
3347.434
3347.4365
3347.4391
3347.4417
3347.4445
3347.4474
3347.4507
3347.4536
3347.4571
3347.4598
3347.4637
3347.467
3347.4725
3347.4794
3347.4879
3347.4978
3347.5068
3347.5159
3347.5269
3347.5403
3347.5598
3347.5802
3347.6208
3344.3901
3340.5549
3350.3925
3373.9847
3411.0082
3461.1557
3524.1392
3599.7044
3687.6442
3787.7223
3899.8744
4023.9864
4160.1615
4308.2879
4468.5746
4640.253
4815.7484
4991.4611
5167.8925
5348.0407
5520.5297
5693.4627
5857.2488
6020.3415
6174.8892
6322.4391
6477.9893
6607.185
6747.3295
6894.4112
7040.4724
7216.0725
7392.1647
7584.6543
7787.4335
8005.9368
8262.7183
8484.7752
8731.2982
8999.1163
9427.6622
9689.2169
9833.6299
10046.624
10202.388
10289.093
10316.367
10275.334
10176.409
9961.6679
9691.4195
9348.1067
8944.57
8515.0448
8109.3097
7825.7026
7640.7268
7527.9473
7474.4606
7453.9347
7448.1392
7447.7638
7445.9202
4131.2589
4132.3204
4132.6424
4135.3177
4146.22
4174.1032
4232.7676
4335.1736
4495.3075
4719.459
4960.5068
5183.7346
5375.9117
5527.8544
5635.6642
5699.1258
5722.4762
5708.7912
5660.9522
5581.5788
5473.7075
5340.4056
5184.6987
5016.8698
4857.3897
4708.678
4569.9299
4440.3928
4319.3359
4206.2168
4100.448
4001.4548
3908.7963
3822.0059
3740.7045
3664.4637
3589.6419
3510.6092
3427.3122
3340.2872
3250.0839
3157.2487
3062.293
2965.7074
2868.067
2769.8937
2671.7843
2574.4081
2479.397
2390.4334
2308.1992
2232.646
2163.7364
2101.4871
2045.927
1997.1319
1955.2103
1920.2646
1892.4588
1871.928
1858.8744
1853.5505
1856.0583
1858.0105
1857.9218
1857.8846
1857.8505
1857.8307
1857.8047
1857.7909
1857.7741
1857.7623
1857.7489
1857.7379
1857.725
1857.7137
1857.7012
1857.6897
1857.6771
1857.6653
1857.6526
1857.6412
1857.6306
1857.6199
1857.6086
1857.5973
1857.5857
1857.5739
1857.5619
1857.5501
1857.5379
1857.526
1857.514
1857.5021
1857.4901
1857.4784
1857.4667
1857.4552
1857.4436
1857.4324
1857.4211
1857.41
1857.3992
1857.3883
1857.3775
1857.3669
1857.3564
1857.346
1857.3357
1857.3255
1857.3155
1857.3055
1857.2956
1857.2858
1857.2761
1857.2665
1857.2569
1857.2473
1857.2379
1857.2285
1857.2192
1857.2098
1857.2006
1857.1914
1857.1823
1857.1733
1857.1643
1857.1554
1857.1467
1857.1381
1857.1296
1857.1213
1857.113
1857.1048
1857.0965
1857.0885
1857.0806
1857.0728
1857.0653
1857.058
1857.0508
1857.0439
1857.0372
1857.0306
1857.0243
1857.0182
1857.0124
1857.0068
1857.0014
1856.9964
1856.9916
1856.987
1856.9828
1856.9788
1856.9751
1856.9717
1856.9686
1856.9658
1856.9633
1856.961
1856.9593
1856.9573
1856.9555
1856.955
1856.9545
1856.9538
1856.9535
1856.9536
1856.954
1856.9545
1856.9553
1856.9565
1856.9576
1856.9592
1856.9611
1856.963
1856.9653
1856.9675
1856.9701
1856.9728
1856.9757
1856.9787
1856.9821
1856.9852
1856.9889
1856.9926
1856.9966
1857.0004
1857.0045
1857.0086
1857.0135
1857.0177
1857.0228
1857.0265
1857.0321
1857.0368
1857.0444
1857.0533
1857.0641
1857.076
1857.0871
1857.0982
1857.112
1857.1276
1857.1514
1857.1764
1857.2263
1855.454
1853.2679
1858.6931
1871.7591
1892.2823
1920.0933
1955.0291
1996.9444
2045.7314
2101.235
2163.4286
2232.2466
2307.8103
2389.9283
2478.7928
2574.366
2671.4589
2768.6335
2866.6992
2966.4196
3064.0014
3159.0865
3249.5954
3339.5773
3424.0791
3506.7959
3593.6742
3666.5907
3744.1001
3824.3052
3907.6961
4003.8414
4101.1443
4209.6657
4321.5332
4442.4523
4601.2799
4699.0556
4809.9204
5021.8202
5240.5565
5385.1527
5464.4009
5569.1277
5660.7914
5713.9425
5727.3469
5708.911
5651.2496
5526.5071
5377.2258
5188.3572
4964.795
4733.0083
4511.5933
4355.1099
4253.7594
4185.5749
4152.5205
4139.1474
4134.0329
4133.7606
4132.1841
2571.4356
2572.2192
2572.4809
2574.5799
2581.8618
2599.358
2636.0245
2699.3737
2797.9426
2936.4379
3085.4261
3223.8895
3343.8241
3438.6642
3505.9389
3545.4946
3559.8823
3551.1488
3521.3029
3471.8681
3404.7302
3321.8095
3224.9927
3120.6371
3021.4725
2929.004
2842.726
2762.1789
2686.8936
2616.5452
2550.7913
2489.2462
2431.6338
2377.6667
2327.1138
2279.6997
2233.1674
2184.0215
2132.2178
2078.0888
2021.9772
1964.2326
1905.1714
1845.0816
1784.3394
1723.2652
1662.2279
1601.649
1542.5503
1487.2097
1436.0468
1389.0387
1346.162
1307.4303
1272.8583
1242.4995
1216.4237
1194.6888
1177.4065
1164.6524
1156.5669
1153.354
1155.15
1156.4578
1156.3701
1156.3396
1156.3119
1156.2983
1156.2768
1156.2679
1156.2541
1156.2453
1156.2335
1156.2237
1156.2107
1156.199
1156.1852
1156.172
1156.157
1156.1424
1156.1264
1156.1115
1156.0967
1156.0817
1156.0657
1156.0495
1156.0327
1156.0157
1155.9983
1155.9809
1155.9632
1155.9456
1155.9278
1155.9101
1155.8924
1155.8748
1155.8573
1155.84
1155.8227
1155.8057
1155.7887
1155.772
1155.7555
1155.739
1155.7226
1155.7065
1155.6905
1155.6747
1155.6591
1155.6435
1155.6282
1155.6129
1155.5978
1155.5828
1155.568
1155.5533
1155.5386
1155.524
1155.5096
1155.4953
1155.4811
1155.4669
1155.4529
1155.439
1155.4251
1155.4114
1155.3979
1155.3845
1155.3713
1155.3583
1155.3455
1155.3329
1155.3204
1155.308
1155.2958
1155.2837
1155.2719
1155.2604
1155.2492
1155.2383
1155.2277
1155.2174
1155.2074
1155.1977
1155.1884
1155.1794
1155.1709
1155.1627
1155.1548
1155.1474
1155.1404
1155.1338
1155.1276
1155.1219
1155.1166
1155.1117
1155.1072
1155.1032
1155.0997
1155.0964
1155.094
1155.0914
1155.089
1155.0883
1155.0876
1155.0867
1155.0865
1155.0867
1155.0875
1155.0883
1155.0897
1155.0915
1155.0933
1155.0958
1155.0986
1155.1015
1155.1049
1155.1082
1155.1121
1155.116
1155.1203
1155.1246
1155.1296
1155.1341
1155.1393
1155.1447
1155.1504
1155.1557
1155.1615
1155.1673
1155.174
1155.1798
1155.1867
1155.1919
1155.1994
1155.2058
1155.2158
1155.2267
1155.2402
1155.254
1155.2674
1155.2805
1155.2971
1155.3149
1155.3431
1155.3727
1155.4317
1154.3478
1152.9281
1156.2689
1164.3731
1177.1209
1194.4091
1216.1321
1242.1978
1272.5445
1307.0512
1345.7105
1388.4838
1435.5022
1486.5257
1541.7464
1601.5399
1661.6755
1721.8848
1783.0648
1844.912
1907.0306
1965.6959
2021.802
2077.4073
2128.7558
2181.1879
2235.5894
2281.1919
2329.5495
2378.9711
2432.4579
2491.1062
2551.8237
2620.9067
2689.8834
2764.763
2877.6912
2915.9144
2972.4524
3142.9937
3263.9832
3355.4048
3404.9893
3464.483
3526.6824
3562.0468
3569.2969
3562.0946
3520.5266
3440.7548
3347.6542
3231.5056
3093.1492
2954.632
2821.5632
2724.5007
2662.8528
2614.893
2590.4243
2580.0533
2574.7417
2574.3004
2572.6357
1729.198
1729.7889
1730.0128
1731.8227
1737.1619
1749.002
1773.6632
1815.7551
1880.8947
1972.969
2072.0742
2164.6719
2245.6215
2309.6493
2355.0413
2381.6792
2391.1963
2385.0951
2364.941
2331.6588
2286.5158
2230.8102
2165.8159
2095.7683
2029.2067
1967.143
1909.228
1855.1644
1804.6253
1757.3966
1713.2741
1671.9764
1633.3109
1597.0892
1563.1605
1531.3307
1500.0897
1467.0983
1432.3165
1395.9669
1358.2806
1319.5003
1279.838
1239.4727
1198.6705
1157.6457
1116.6426
1075.9505
1036.2626
999.09566
964.72663
933.14683
904.34023
878.3198
855.09132
834.6985
817.18852
802.59661
791.00612
782.46178
777.07097
775.01991
776.46499
777.44342
777.36043
777.33881
777.31984
777.3135
777.29771
777.29397
777.28392
777.27803
777.26784
777.25885
777.24561
777.23301
777.21734
777.20173
777.18367
777.1655
777.14532
777.12592
777.10612
777.08572
777.06408
777.04197
777.01901
776.99573
776.97185
776.94785
776.92343
776.89905
776.87446
776.84991
776.82531
776.80084
776.77647
776.75232
776.72822
776.70437
776.68067
776.6572
776.634
776.61087
776.58791
776.56525
776.54275
776.52049
776.49841
776.47653
776.45487
776.43337
776.41211
776.39097
776.37004
776.34923
776.32857
776.30814
776.28778
776.26766
776.24765
776.22777
776.20808
776.18854
776.16919
776.15
776.13105
776.11231
776.09389
776.07577
776.05791
776.04033
776.02299
776.00582
775.98883
775.97215
775.95593
775.9401
775.92467
775.90968
775.89511
775.88101
775.86734
775.85417
775.84148
775.82932
775.81768
775.80659
775.79601
775.78604
775.77668
775.76786
775.75967
775.75204
775.74504
775.73866
775.73286
775.72775
775.72315
775.7191
775.7161
775.71289
775.71011
775.70938
775.70875
775.70796
775.70811
775.70877
775.71014
775.71167
775.71396
775.7167
775.71957
775.72335
775.72745
775.73177
775.73659
775.74153
775.747
775.75261
775.75879
775.76494
775.77185
775.77823
775.7855
775.79291
775.80066
775.80795
775.81588
775.82373
775.83271
775.84056
775.84953
775.85666
775.86639
775.87483
775.88755
775.90086
775.91708
775.9332
775.94902
775.96428
775.98395
776.00409
776.03667
776.07134
776.13933
775.42838
774.41353
776.62205
782.03932
790.58036
802.17727
816.75555
834.25201
854.6289
877.78238
903.71581
932.40798
963.99404
998.20336
1035.2362
1075.7468
1115.8583
1156.1024
1197.4275
1238.8705
1281.5568
1320.6704
1358.3199
1395.3785
1428.8026
1464.9734
1501.7693
1531.8887
1564.963
1598.2406
1634.947
1673.4889
1714.7884
1762.5915
1808.3829
1858.4406
1947.1191
1954.1638
1987.7769
2117.9938
2197.5902
2256.8579
2286.7423
2329.724
2376.1381
2400.8626
2404.7407
2404.1224
2370.7157
2316.113
2252.697
2175.8514
2083.8828
1995.0699
1911.288
1846.459
1806.483
1769.2122
1748.5332
1739.362
1733.51
1732.6461
1730.716
1229.2284
1229.6469
1229.8244
1231.4637
1235.649
1244.0866
1261.481
1290.7684
1335.8532
1400.1736
1469.5037
1534.7836
1592.6003
1638.3499
1670.7519
1689.7091
1696.3069
1691.7335
1677.3149
1653.615
1621.5361
1582.0048
1535.9318
1486.2902
1439.1214
1395.1439
1354.0999
1315.7905
1279.9739
1246.4997
1215.2443
1185.9936
1158.6011
1132.9373
1108.8999
1086.3423
1064.1976
1040.8151
1016.1576
990.38194
963.654
936.15147
908.02447
879.38937
850.44355
821.34061
792.24976
763.3835
735.24006
708.88145
684.49973
662.09529
641.65576
623.19485
606.71211
592.24715
579.83286
569.49157
561.29029
555.25608
551.47787
550.13825
551.4032
552.20069
552.12521
552.11333
552.10386
552.10477
552.09483
552.09586
552.08916
552.0855
552.0763
552.06728
552.05296
552.03845
552.02003
552.001
551.97886
551.95605
551.93064
551.9057
551.87982
551.85299
551.82462
551.79554
551.7654
551.73476
551.70337
551.67174
551.63962
551.60747
551.57508
551.54269
551.51023
551.47792
551.44572
551.41377
551.38189
551.35029
551.31891
551.2878
551.257
551.22632
551.19588
551.16577
551.13589
551.10629
551.07696
551.04788
551.01906
550.99049
550.96218
550.9341
550.90626
550.87862
550.85118
550.82401
550.79703
550.77031
550.7438
550.71747
550.6914
550.66557
550.64002
550.61471
550.5897
550.56505
550.54079
550.51693
550.49348
550.47039
550.44763
550.42519
550.40298
550.38129
550.36017
550.3396
550.31959
550.30019
550.28134
550.26315
550.24559
550.22865
550.2124
550.19685
550.18204
550.16792
550.15455
550.14198
550.13018
550.11918
550.10895
550.09953
550.09093
550.08314
550.07616
550.07002
550.06465
550.05996
550.05659
550.05313
550.05023
550.04975
550.0495
550.04917
550.04999
550.05147
550.0539
550.05653
550.0601
550.06428
550.06868
550.07414
550.08005
550.0862
550.09306
550.10002
550.10768
550.11548
550.12396
550.13245
550.14184
550.15058
550.16039
550.17033
550.18068
550.19048
550.20097
550.21137
550.22307
550.23337
550.24498
550.25443
550.26682
550.27766
550.29342
550.30951
550.32886
550.34754
550.36614
550.38375
550.40665
550.42945
550.46666
550.50664
550.58358
550.09509
549.3125
550.84171
554.65641
560.69166
568.90039
579.22661
591.62466
606.06926
622.46753
640.82847
661.14353
683.54766
707.75236
733.9672
763.04361
791.21211
819.5954
849.2188
878.58414
909.54386
936.95554
963.85836
989.90465
1012.7249
1039.3457
1065.3771
1086.0179
1110.3961
1134.3265
1160.771
1187.3161
1217.2597
1252.4878
1284.4902
1319.9174
1394.8348
1387.2997
1405.7146
1501.947
1568.6137
1602.4892
1617.8214
1656.6226
1693.1459
1711.8182
1713.201
1717.5872
1689.2895
1649.7044
1603.4173
1549.9526
1485.7602
1425.7349
1372.4193
1326.9542
1300.1279
1269.3997
1250.4006
1241.4762
1234.9459
1233.4205
1231.1188
911.38525
911.62195
911.72456
913.23982
916.68283
922.92019
935.55473
956.51242
988.61526
1035.0943
1085.3161
1133.1439
1176.2533
1210.3877
1234.5264
1248.585
1253.299
1249.6664
1238.8805
1221.2709
1197.5095
1168.2849
1134.2763
1097.6508
1062.8522
1030.4117
1000.1289
971.87006
945.44681
920.74919
897.70138
876.13809
855.93957
837.01311
819.28795
802.64673
786.30577
769.05275
750.85315
731.82163
712.08265
691.77143
670.99988
649.84499
628.45856
606.95685
585.46067
564.13479
543.35328
523.88743
505.87441
489.3209
474.21643
460.5763
448.39506
437.71141
428.54824
420.9205
414.88508
410.45832
407.71899
406.85294
408.02646
408.71936
408.65273
408.6501
408.64968
408.65666
408.65174
408.65616
408.65166
408.64877
408.63931
408.6288
408.6121
408.59428
408.57183
408.54804
408.52057
408.49185
408.45996
408.42832
408.39521
408.36081
408.32464
408.28752
408.24917
408.21016
408.17031
408.13011
408.08937
408.04855
408.00748
407.96638
407.92524
407.88426
407.84342
407.80287
407.76245
407.72234
407.68253
407.64303
407.60389
407.56495
407.52631
407.48806
407.4501
407.4125
407.37522
407.33827
407.30168
407.26535
407.22941
407.19374
407.15838
407.1233
407.0885
407.05404
407.01985
406.986
406.95243
406.91915
406.88621
406.85361
406.82138
406.78948
406.75803
406.72702
406.69653
406.66659
406.63717
406.60824
406.57975
406.5517
406.52403
406.49706
406.47086
406.44534
406.4206
406.39662
406.3734
406.35102
406.32945
406.30873
406.28889
406.26997
406.25198
406.23491
406.2188
406.20372
406.18964
406.17658
406.16451
406.15347
406.14349
406.13452
406.12661
406.11976
406.11387
406.10891
406.10547
406.10213
406.09952
406.09967
406.10018
406.10075
406.10271
406.10547
406.10938
406.11362
406.11897
406.12505
406.1315
406.13916
406.14738
406.15592
406.16531
406.17486
406.18523
406.19576
406.20712
406.21847
406.23089
406.24255
406.25541
406.26846
406.2819
406.29473
406.30831
406.32177
406.33667
406.34996
406.36464
406.3769
406.39241
406.40607
406.4253
406.44458
406.46741
406.48905
406.51076
406.53102
406.55745
406.5833
406.62536
406.67097
406.75695
406.41071
405.76865
406.85881
409.64699
414.08025
420.12516
427.73698
436.88113
447.53956
459.62786
473.15704
488.12781
504.67212
522.49483
541.80846
563.597
584.14292
604.97602
627.2212
648.94932
672.31634
692.11303
712.41638
731.46323
747.56593
768.23404
787.02956
801.60564
820.75091
838.83904
858.72447
877.43634
900.20538
927.53548
950.72969
976.94151
1043.3574
1032.0285
1032.9115
1106.3049
1173.3951
1184.7424
1189.699
1227.933
1257.7224
1273.522
1272.6806
1280.9107
1257.0704
1226.8578
1191.1198
1152.5158
1106.0876
1064.0124
1030.692
997.66147
979.59975
953.52296
935.32011
926.10231
918.84485
916.45435
913.71115
698.69227
698.7203
698.70818
700.11185
703.04459
707.78391
717.10457
732.30628
755.47115
789.79866
827.04993
863.12021
896.37847
922.73792
941.33688
952.09877
955.52474
952.4942
944.12835
930.59637
912.4172
890.11772
864.22075
836.3507
809.87374
785.19395
762.14974
740.65279
720.55
701.75925
684.23295
667.84292
652.4868
638.09495
624.61875
611.95963
599.52391
586.39454
572.53912
558.04385
543.00527
527.5292
511.70309
495.57769
479.27312
462.88118
446.49025
430.23397
414.40255
399.57137
385.84049
373.22103
361.70334
351.30495
342.01614
333.87646
326.90116
321.10129
316.52715
313.18829
311.15838
310.62988
311.76012
312.38911
312.33113
312.33591
312.34268
312.3535
312.3517
312.35724
312.35297
312.34873
312.33708
312.32312
312.30228
312.27936
312.25128
312.22112
312.18686
312.15078
312.11101
312.07146
312.02993
311.98683
311.94178
311.8956
311.84809
311.7998
311.75062
311.70103
311.65089
311.60065
311.55018
311.49971
311.44923
311.39896
311.34889
311.29915
311.24963
311.20046
311.15168
311.10328
311.05532
311.00762
310.96031
310.91345
310.86697
310.82093
310.77528
310.73006
310.68525
310.64081
310.59683
310.55321
310.50999
310.4671
310.42462
310.38255
310.34084
310.29958
310.25869
310.21818
310.17813
310.13853
310.0994
310.06075
310.02266
309.98515
309.94831
309.91215
309.87664
309.84178
309.80749
309.77378
309.74061
309.70836
309.67708
309.64667
309.61722
309.58874
309.56124
309.53478
309.50934
309.48498
309.46172
309.4396
309.41867
309.39886
309.38026
309.36293
309.34684
309.332
309.3184
309.30608
309.29505
309.28526
309.27678
309.26958
309.2636
309.25874
309.25569
309.25291
309.25105
309.25226
309.254
309.25594
309.25952
309.26406
309.26996
309.27631
309.28396
309.29247
309.30149
309.31189
309.32296
309.33442
309.34689
309.35955
309.37317
309.387
309.40176
309.41653
309.4325
309.44763
309.4641
309.48077
309.49785
309.51423
309.53142
309.54847
309.56706
309.58385
309.60207
309.61765
309.63672
309.65369
309.67677
309.69971
309.72643
309.75143
309.77664
309.79989
309.83018
309.85956
309.90674
309.95834
310.05345
309.8032
309.24898
310.03792
312.1313
315.48343
320.07036
325.85402
332.80728
340.91664
350.10532
360.38377
371.75947
384.35824
397.88952
412.55895
429.43011
444.86382
460.63444
477.96502
494.62691
512.79225
527.33636
543.42547
557.80727
569.40465
586.1863
599.83775
610.37564
626.25359
640.47592
656.06291
669.28773
687.22033
709.37541
726.63619
746.69323
807.12334
799.65204
777.69141
840.43746
913.8315
904.53007
901.65982
939.2224
964.41057
979.45112
976.49704
987.98155
968.381
944.35216
915.44914
886.68954
852.1263
822.13364
802.2328
777.56411
765.87594
743.57993
725.9229
716.13916
708.16073
704.75339
701.52013
550.64966
550.42864
550.25543
551.54186
554.10552
557.79259
564.69995
575.72833
592.41505
618.04767
646.08797
673.90192
700.28802
721.22787
735.95745
744.40309
746.90442
744.2683
737.57841
726.88968
712.61494
695.166
674.95526
653.22565
632.5853
613.34828
595.38027
578.62643
562.95839
548.3124
534.65949
521.89929
509.94199
498.73296
488.23918
478.37502
468.67944
458.44235
447.63348
436.31921
424.57605
412.48873
400.12855
387.52801
374.78447
361.97261
349.15861
336.45514
324.09306
312.51009
301.7804
291.91822
282.91408
274.78817
267.52708
261.17213
255.73236
251.21733
247.67258
245.1036
243.582
243.30807
244.42087
245.00701
244.95576
244.96468
244.97544
244.98677
244.98517
244.9887
244.9819
244.97354
244.95723
244.93738
244.91023
244.88013
244.84454
244.80622
244.76356
244.71857
244.66951
244.62078
244.56965
244.51675
244.46185
244.40569
244.34819
244.28986
244.23066
244.17104
244.11093
244.05075
243.9904
243.93011
243.86989
243.80995
243.75031
243.69108
243.63215
243.57367
243.51568
243.45816
243.40116
243.34451
243.28836
243.23273
243.17759
243.12296
243.06884
243.01521
242.96211
242.90948
242.85739
242.80576
242.75462
242.70392
242.65372
242.60404
242.55483
242.50617
242.45799
242.41032
242.36322
242.3167
242.27078
242.22549
242.18088
242.13702
242.09398
242.05178
242.01037
241.96975
241.92988
241.89074
241.8523
241.81502
241.77895
241.74392
241.71006
241.67739
241.64593
241.61572
241.58676
241.55911
241.5328
241.50785
241.48434
241.46219
241.44151
241.42233
241.40464
241.38845
241.37375
241.36057
241.34893
241.33879
241.33018
241.3231
241.31748
241.3132
241.31097
241.30923
241.30864
241.31136
241.3148
241.31862
241.32431
241.33112
241.3395
241.34846
241.3589
241.37033
241.38243
241.39606
241.41046
241.42535
241.44138
241.45768
241.47504
241.49265
241.51132
241.53002
241.55003
241.56913
241.58968
241.61049
241.63167
241.65211
241.67338
241.69451
241.71723
241.73802
241.76023
241.77962
241.80266
241.82342
241.85072
241.87781
241.90879
241.93763
241.96669
241.99337
242.02786
242.06129
242.11388
242.17184
242.27619
242.09357
241.59482
242.16688
243.76889
246.35938
249.92137
254.4203
259.83531
266.15453
273.30963
281.30842
290.16327
299.99064
310.515
321.92442
335.31401
347.19536
359.43009
373.32689
386.49785
400.92759
411.71675
425.02285
436.19994
444.61878
458.75341
468.6765
476.39974
490.18294
501.73831
514.45276
523.64236
538.13376
556.80241
569.91561
585.61786
641.04578
642.80343
598.09293
656.0952
736.86528
710.46787
700.68178
735.96242
757.88971
773.51532
768.61464
783.08331
767.50233
747.85
723.57822
701.46461
675.01611
653.79315
642.77659
623.99242