/*--------------------------------*- C++ -*----------------------------------*\
  =========                 |
  \\      /  F ield         | OpenFOAM: The Open Source CFD Toolbox
   \\    /   O peration     | Website:  https://openfoam.org
    \\  /    A nd           | Version:  7
     \\/     M anipulation  |
\*---------------------------------------------------------------------------*/
FoamFile
{
    version     2.0;
    format      ascii;
    class       volScalarField;
    location    "240";
    object      pPrime2Mean;
}
// * * * * * * * * * * * * * * * * * * * * * * * * * * * * * * * * * * * * * //

dimensions      [0 4 -4 0 0 0 0];

internalField   nonuniform List<scalar> 
78300
(
8168770.4
6298793.2
4882002
3812613.3
3002818.8
2391265.2
1935417.9
1580109
1316976.6
1134613.8
994758.02
833376.94
710539.96
628328.4
553023.85
485137.23
425124.18
384147.94
324380.68
267052.2
217984.53
177163.05
146493.28
128165.59
110410.14
95563.903
82069.203
70741.313
59188.245
49183.128
40200.067
33057.601
26112.717
21947.533
18834.604
15767.074
11966.033
7148.5125
3302.6308
553.05872
1.1120712e-07
686.14245
2316.237
3944.9252
5399.9782
7869.6883
10163.229
13293.485
15720.365
19714.574
24192.637
29142.103
34327.896
39384.473
44588.113
50348.495
56727.784
63461.849
70545.934
77856.927
85306.543
92935.042
100529.61
108337.02
116283.24
124524.69
132860.4
141550.06
150399.13
159508.9
168646.85
178168.4
187863.65
197880.21
207966.86
218423.37
229029.43
239952.11
250924.85
262293.26
273823.67
285710.71
297536.89
309818.45
322133.27
334798.56
347222.81
360103.02
372936.79
385989.19
398796.79
412007.47
425136.18
438767.91
452372.86
466511.56
480531.81
494999.54
509275.41
523624.62
538523.26
553603.11
569103.41
584767.18
600750.32
616896.54
633056.27
649595.63
666122.47
683015.09
699886.45
717198.18
734504.76
752022.87
769895.07
787866.04
806168.33
824654.67
843497.44
862488.35
881643.5
901055.91
920566.68
940411.94
960404.07
980705.57
1001163.3
1021917.9
1042911.5
1064178.8
1085642.7
1107394.2
1129380.3
1151632.3
1174155.3
1196950.7
1220017.9
1243370.5
1267003.7
1290927.1
1315145.7
1339667.6
1364495.5
1389635.2
1415093.9
1440877
1466974.2
1493425.3
1520218.3
1547376.1
1574873.3
1602763
1631007.8
1659661.5
1688680.5
1718120.7
1747928.2
1778147.9
1808746.2
1839678.4
1871311.1
1903662.8
1936510.7
1969691.7
2003698.5
2038451.9
2073503.7
2109269.7
2145231.3
2181987.3
2219385.8
2257268.8
2295822.7
2335017.8
2374872.4
2415290
2456495
2498282.2
2540774.3
2584155.8
2628093.1
2674210.2
2720506.1
2768899.3
2817613.1
2867861.9
2918538.1
2970851.6
3023903.1
3078306.9
3133040.8
3189854.5
3247656.2
3307382.9
3368027.1
3430822.5
3494711.8
3560369.4
3627155.5
3696004.5
3766622.4
3839472
3913890.9
3990923.6
4069332.3
4150487.3
4232681.3
4318413.1
4406166.2
4498198.7
4592621.2
4690590.3
4792148.2
4896906.3
5007582
5118689.7
5239779.6
5362687.3
5496576.1
5631351.5
5777686.6
5937204.5
6085788.9
6256550.8
6425156.3
6616564.8
6814253.5
7026646
7254728.8
7490090.6
7689816.6
7938969.7
8196342.3
8502826.5
8854050
9237790.8
9704665.2
10223177
10759561
11326525
11859607
12584295
13381908
14361159
15346000
16574634
17664730
19266783
21392615
23965963
27437979
32540353
39284627
48042542
60977686
76347724
1.2151255e+08
2.3751622e+08
4.4959135e+08
6.7792971e+10
2.8819464e+10
1.5135818e+09
3.3246326e+08
1.3824979e+08
73035409
44249880
29014661
20025166
14431459
10729593
8168673
6298803.5
4881945.1
3812320.4
3002364
2390831.5
1934895.2
1579461.2
1316806
1134440.7
994010.7
833228.94
710510.86
628255.46
552985.88
485095.07
425116.04
383727.47
323892.2
266620.59
217607.2
176873.52
146403.13
128090.11
110295.63
95553.332
82067.757
70733.469
59184.269
49174.342
40195.21
33001.3
26091.635
21935.986
18817.761
15735.283
11924.837
7126.5694
3278.2236
542.94406
0.080323412
700.46604
2314.5025
3944.2021
5401.7902
7869.6403
10165.383
13293.089
15743.164
19739.254
24218.561
29170.475
34351.346
39402.573
44601.963
50357.885
56734.535
63468.299
70550.79
77860.485
85308.657
92934.991
100528.55
108335.35
116282.64
124523.83
132860.1
141549.46
150398.5
159508.06
168646.36
178167.53
187863.47
197879.68
207966.87
218423.02
229029.26
239951.49
250924.81
262292.89
273823.54
285710.01
297536.71
309817.88
322132.92
334797.59
347222.37
360102.1
372935.91
385987.99
398795.67
412006.4
425135.68
438767
452372.67
466510.81
480531.53
494998.5
509274.76
523623.2
538521.87
553601.28
569101.43
584765.36
600748.92
616895.16
633055.6
649594.78
666122.04
683014.23
699886.22
717197.37
734504.4
752021.83
769894.49
787864.93
806166.94
824653.09
843496.17
862487.24
881642.44
901054.82
920566.16
940411.51
960403.9
980705.05
1001163.7
1021917.9
1042911.9
1064178.6
1085643
1107393.8
1129380.5
1151632.5
1174155.3
1196950.7
1220018.1
1243370.3
1267003.6
1290926.8
1315145.2
1339666.9
1364494.8
1389634.2
1415093.6
1440877.1
1466975.2
1493426.2
1520218.6
1547376
1574873.3
1602762.6
1631007.8
1659661.2
1688680.8
1718120.8
1747929.5
1778149.1
1808750.4
1839682.7
1871315.3
1903663.1
1936510.9
1969697.7
2003703.3
2038461.2
2073509.5
2109280.8
2145238
2182000.5
2219393
2257278.3
2295828
2335021.5
2374876.2
2415292.3
2456498.4
2498284.3
2540778.2
2584157.7
2628096.2
2674211.9
2720509
2768900.3
2817615.1
2867862.2
2918540.2
2970851.7
3023905.6
3078307.8
3133044
3189858
3247660.3
3307386.4
3368030.4
3430825.7
3494718
3560374.4
3627162.2
3696013.5
3766628.2
3839478.3
3913896.2
3990927.1
4069337.2
4150489.8
4232685
4318413.8
4406165.3
4498185.3
4592573.1
4690517.1
4792042.4
4896766.8
5007401.6
5118475.7
5239509.7
5362315.1
5496132.4
5630897
5777082.6
5936404.4
6085648.9
6256334.1
6424996.1
6616324.8
6813943.1
7026313.6
7254332
7489761.8
7689789.3
7938752.5
8195565.8
8501440.3
8852285.8
9235692.8
9701449.3
10219423
10756556
11323552
11859367
12583657
13381472
14360381
15345494
16573898
17664743
19264869
21378870
23949326
27410683
32497868
39232262
47957477
60894611
76237379
1.2133662e+08
2.3785373e+08
4.5779576e+08
6.7819806e+10
2.8920836e+10
1.5204269e+09
3.3353218e+08
1.3844509e+08
73085744
44264900
29018443
20025523
14431347
10729508
8168513.1
6298738.5
4881877.8
3812065.6
3001878
2390358.4
1934335.3
1578780.1
1316585
1134230.3
992992.17
833030.05
710493.14
628167.96
552945.56
485032.72
425115.29
383251.48
323364.02
266161.48
217204.11
176565.67
146303.54
128012.32
110170.33
95539.235
82067.777
70722.647
59180.876
49164.175
40189.583
32931.995
26069.953
21923.631
18800.391
15697.273
11874.631
7101.1759
3256.5997
531.54364
0.44641511
719.80867
2313.64
3942.6154
5404.5042
7868.7831
10168.435
13291.475
15769.018
19765.324
24246.649
29200.925
34376.158
39421.87
44616.156
50368.176
56742.38
63475.658
70556.284
77864.218
85310.067
92935
100527.76
108333.6
116282.29
124522.93
132860.07
141548.87
150397.97
159507.36
168646.13
178166.87
187863.61
197879.31
207967.34
218422.76
229029.44
239950.81
250925.35
262292.54
273823.64
285709.08
297536.84
309817.14
322132.6
334796.08
347221.98
360100.79
372934.68
385986
398794.22
412004.46
425135.35
438765.83
452372.64
466509.67
480531.25
494996.81
509273.81
523620.77
538519.87
553598.41
569098.87
584762.55
600747.57
616893.32
633054.88
649593.4
666121.64
683012.86
699886.07
717195.99
734503.97
752020.03
769893.64
787862.92
806164.97
824650.62
843494.76
862485.54
881641.24
901053.43
920565.69
940410.77
960403.89
980704.4
1001164.6
1021918
1042912.6
1064178.2
1085643.5
1107393.1
1129380.7
1151632.6
1174155.4
1196950.6
1220018.2
1243370
1267003.3
1290926.3
1315144.6
1339666
1364493.7
1389632.8
1415092.3
1440876.2
1466975.9
1493426.7
1520218.5
1547375.3
1574872.9
1602761.4
1631007.3
1659660.1
1688680.7
1718120.1
1747930.4
1778150.2
1808753.7
1839687
1871318.9
1903663.8
1936511.5
1969709.8
2003711.3
2038472.2
2073517.3
2109294.4
2145252.1
2182016
2219404.5
2257290
2295835.5
2335028.5
2374882.6
2415296.1
2456504.1
2498287.3
2540784.3
2584160.2
2628100.9
2674213.2
2720513.2
2768900.1
2817617.6
2867860.7
2918542
2970849.9
3023907.7
3078306.8
3133046.3
3189860.7
3247664.6
3307389.2
3368033.3
3430827.9
3494724
3560379.5
3627167.6
3696023.8
3766636.4
3839485.1
3913901.3
3990928.7
4069342.4
4150490.3
4232687.8
4318412.5
4406161.8
4498164
4592519.8
4690436.9
4791929.6
4896607.3
5007215.4
5118243.5
5239207.9
5361911.5
5495658.8
5630400.7
5776447
5935543.2
6085492.9
6256118.6
6424813.4
6616063.9
6813599.7
7025964
7253869.1
7489397.1
7689840.9
7938461.3
8194729.5
8499866.7
8850371.8
9233435.1
9698056.9
10215328
10753244
11320350
11859169
12582817
13381036
14359275
15345007
16572674
17665177
19262336
21364383
23930830
27381368
32451868
39172752
47858190
60768138
76086732
1.2112418e+08
2.3824444e+08
4.6806796e+08
6.7879605e+10
2.9040086e+10
1.5276203e+09
3.3471763e+08
1.386509e+08
73141007
44281464
29022245
20025359
14431168
10729365
8168307.5
6298607.1
4881782.1
3811865.2
3001381.5
2389865
1933762.8
1578076.8
1316347.9
1134003.1
991923.35
832805.21
710489.91
628056.31
552912.89
484943.36
425128.06
382759.48
322819.64
265687.79
216789.47
176252.4
146201.49
127932.15
110041.53
95520.971
82070.036
70709.025
59178.76
49151.643
40183.778
32859.511
26049.055
21911.157
18781.26
15657.654
11821.992
7075.7859
3249.2622
519.2485
1.1995711
741.09843
2313.5467
3940.2451
5408.1123
7867.0574
10172.202
13288.764
15795.859
19792.29
24275.716
29232.534
34402.2
39442.088
44631.769
50378.499
56750.431
63483.428
70562.144
77868.244
85312.164
92935.113
100527.15
108332.12
116282.2
124522.21
132860.36
141548.39
150397.63
159506.76
168646.26
178166.59
187864.11
197879.03
207968.33
218422.6
229029.93
239950.19
250926.42
262292.26
273824.21
285708.05
297537.39
309816.29
322132.52
334794.16
347221.62
360099.23
372933.2
385983.49
398792.68
412002.14
425135.15
438764.52
452372.84
466508.08
480531.14
494994.6
509272.67
523617.48
538517.4
553594.74
569095.95
584759.13
600746.5
616891.45
633054.2
649591.84
666121.17
683011.05
699885.95
717194.21
734503.48
752017.58
769892.54
787860.13
806162.49
824647.23
843493.32
862483.47
881639.96
901051.79
920565.5
940410.01
960404.11
980703.7
1001165.9
1021918.4
1042913.3
1064177.7
1085644
1107392.1
1129380.9
1151632.8
1174155.4
1196950.5
1220018.3
1243369.7
1267002.8
1290925.8
1315143.8
1339665
1364492.3
1389631
1415090.3
1440874.2
1466976.2
1493426.6
1520218
1547373.9
1574872.1
1602759.6
1631006.4
1659658.1
1688679.9
1718118.8
1747930.8
1778150.8
1808756.6
1839690.7
1871322
1903664.6
1936511.5
1969724
2003719.9
2038484.6
2073527.2
2109309
2145268
2182033.2
2219417.7
2257303.9
2295844.9
2335036.8
2374891.6
2415301.1
2456511.7
2498290.9
2540792.4
2584162.8
2628107
2674214
2720517.9
2768898.5
2817620.3
2867857.3
2918543.4
2970846
3023908.7
3078303.7
3133050.5
3189862.7
3247670
3307391.6
3368035.8
3430829.1
3494729.1
3560383
3627177.9
3696033.6
3766647.2
3839492.4
3913907.2
3990928.5
4069347.6
4150488.6
4232690.6
4318408.5
4406156.3
4498139.3
4592464
4690351.4
4791807.6
4896442
5007023.5
5118003.3
5238889.8
5361486.3
5495166
5629893
5775797.4
5934644.4
6085353.1
6255825.8
6424634.4
6615734.7
6813250.9
7025616.8
7253419.1
7489072.4
7689901.4
7938076.4
8193856.2
8498236.7
8848415
9231085.2
9694554.8
10211090
10749814
11317010
11859011
12581785
13380669
14357801
15344585
16571231
17666003
19259286
21349464
23911699
27351037
32404134
39110577
47753557
60615290
75926451
1.2096579e+08
2.385729e+08
4.8046763e+08
6.7977003e+10
2.9129179e+10
1.5338058e+09
3.3590517e+08
1.3886113e+08
73196510
44298468
29025216
20024253
14430952
10729200
8168055.7
6298440.4
4881671.8
3811707.8
3000900.8
2389352
1933172.1
1577344.7
1316098
1133765.5
990844.98
832578.16
710501.3
627902.79
552893.24
484838.57
425152.21
382250.06
322258.19
265199.86
216362.6
175938.77
146095.87
127847.54
109911.17
95499.511
82074.954
70691.759
59179.974
49133.675
40177.643
32784.894
26026.144
21897.819
18760.78
15616.59
11767.635
7051.2646
3239.4135
505.89603
2.383427
763.38013
2314.7161
3937.3138
5412.5168
7864.5667
10176.503
13285.274
15823.409
19820.227
24305.687
29265.147
34429.133
39462.881
44647.24
50389.101
56758.81
63491.618
70568.324
77872.541
85314.856
92935.364
100526.77
108330.93
116282.57
124521.75
132861.01
141547.98
150397.47
159505.69
168646.89
178166.46
187864.97
197878.84
207969.82
218422.65
229030.9
239949.62
250928.01
262292.15
273825.07
285706.92
297538.35
309815.41
322132.47
334791.92
347221.51
360097.28
372931.53
385980.38
398791.11
411999.38
425135.23
438763.12
452373.29
466506.19
480531.1
494991.85
509271.19
523613.22
538514.39
553590.15
569092.52
584755.02
600744.8
616889.02
633053.56
649589.68
666120.74
683008.86
699885.95
717191.98
734502.84
752014.39
769891.09
787856.98
806159.46
824643.15
843491.91
862481.15
881638.6
901049.91
920565.65
940409.26
960404.54
980702.95
1001167.5
1021919
1042914.1
1064177.1
1085644.5
1107391.1
1129381.1
1151632.9
1174155.5
1196950.4
1220018.3
1243369.3
1267002.4
1290925.2
1315143
1339663.8
1364490.8
1389629
1415087.9
1440871.3
1466975.7
1493425.9
1520216.9
1547371.7
1574870.8
1602756.8
1631004.7
1659655.1
1688678.4
1718116.5
1747930.3
1778150.5
1808758.6
1839693.8
1871324.7
1903665.2
1936511.2
1969738.4
2003728.7
2038498.4
2073540.8
2109323.1
2145285
2182051.6
2219432.1
2257319.9
2295857.4
2335046.9
2374903.3
2415307.5
2456521.7
2498295
2540802.8
2584165.6
2628114.3
2674214.3
2720523.1
2768895.3
2817622.9
2867851.5
2918544.1
2970839.3
3023908.6
3078298.5
3133054.9
3189863
3247674.8
3307392.4
3368038.1
3430828.7
3494731.8
3560385
3627187.8
3696042.9
3766658.6
3839498.5
3913913.7
3990927.6
4069352.4
4150482.9
4232692.1
4318400.5
4406148.8
4498107.9
4592404
4690275.3
4791681.9
4896272.4
5006821
5117755.6
5238561.5
5361047.6
5494655
5629389.9
5775126.6
5933719.5
6085212.2
6255439.1
6424458
6615296.8
6812900.4
7025106.5
7252938.5
7488642.1
7690021
7937613
8192949.4
8496578.1
8846419.2
9228721.4
9690967
10206776
10746188
11313578
11858930
12580498
13380387
14356179
15344324
16569589
17667122
19255785
21334217
23892164
27319728
32354937
39046608
47645556
60442527
75759785
1.2084779e+08
2.3892896e+08
4.9484529e+08
6.810913e+10
2.9065112e+10
1.5393616e+09
3.3713973e+08
1.3907663e+08
73253337
44315446
29024884
20022782
14430688
10729017
8167752.7
6298241.8
4881544.4
3811519.3
3000373
2388814.6
1932564.5
1576588.5
1315844.4
1133506.9
989739.33
832306.68
710523.77
627719.96
552876.52
484717.83
425185.37
381724.08
321678.95
264696.96
215923.02
175615.24
145986.28
127758.8
109778.62
95477.027
82082.386
70670.986
59177.798
49113.015
40169.31
32709.813
26002.649
21884.009
18739.284
15574.127
11712.038
7026.801
3226.2736
491.4242
4.025574
786.34897
2316.7615
3933.8055
5417.6347
7861.5027
10181.378
13281.013
15851.636
19849.075
24336.838
29298.986
34456.911
39484.4
44663.109
50400.322
56767.15
63500.094
70574.448
77876.996
85318.05
92935.788
100526.59
108329.96
116283.06
124521.43
132861.87
141547.8
150397.55
159504.58
168647.93
178166.68
187866.27
197878.74
207971.9
218422.88
229032.28
239949.16
250930.2
262292.23
273826.3
285705.69
297539.75
309814.52
322132.49
334789.35
347221.54
360094.91
372929.7
385976.72
398789.5
411996.27
425135.6
438761.69
452373.93
466504.01
480531.08
494988.56
509269.49
523608.01
538510.92
553584.63
569088.57
584750.28
600742.92
616886.1
633053.03
649587.21
666120.32
683006.34
699886.02
717189.37
734502.14
752010.57
769889.38
787853.59
806155.69
824639.1
843490.19
862478.64
881637.19
901047.84
920566.1
940408.53
960405.24
980702.17
1001169.1
1021919.8
1042915
1064176.5
1085645
1107390.4
1129381.4
1151633.1
1174155.5
1196950.2
1220018.2
1243368.9
1267001.9
1290924.5
1315142.2
1339662.5
1364489.2
1389626.9
1415085.2
1440868.1
1466974.4
1493424.6
1520215.3
1547368.6
1574869
1602753.1
1631002.5
1659650.9
1688676.2
1718113.7
1747928.9
1778149.9
1808760.2
1839696.4
1871327.7
1903665.7
1936510.6
1969752.7
2003737.8
2038513.4
2073555.6
2109333.2
2145303.2
2182070.8
2219447.1
2257337.5
2295872.4
2335058.9
2374917.3
2415314.6
2456534
2498299.9
2540815.6
2584169.4
2628123.2
2674214
2720529
2768891.2
2817625.3
2867843.8
2918544.4
2970830.4
3023907.7
3078290.9
3133058.6
3189862.5
3247679
3307391.7
3368041.4
3430827.1
3494731.9
3560385.6
3627190.6
3696051.4
3766670.4
3839503.4
3913920.6
3990925.8
4069356.7
4150474.5
4232689.4
4318389.8
4406140.2
4498072.2
4592340
4690199.2
4791550.3
4896096.9
5006608.1
5117499.2
5238222.2
5360593.8
5494131.1
5628842.7
5774425
5932760.7
6085060
6255024.7
6424265.3
6614782.5
6812524.5
7024456.1
7252410.6
7488080.2
7690180.1
7937084.4
8192011
8494876.9
8844350.5
9226288.9
9687283
10202290
10742427
11309990
11858862
12579048
13380117
14354427
15344167
16567728
17668452
19251864
21318652
23872007
27287447
32304045
38981676
47534195
60255124
75588702
1.2069718e+08
2.3925857e+08
5.105397e+08
6.8244159e+10
2.8626808e+10
1.5441261e+09
3.3831501e+08
1.3930048e+08
73312042
44331347
29019895
20021035
14430289
10728797
8167395.6
6298006.5
4881402
3811355.9
2999821.9
2388300.7
1931935.4
1575813
1315622.6
1133228
988615.68
831987.6
710552.71
627523.85
552857.86
484580.23
425217.31
381177.4
321081.22
264178.83
215470.55
175284.71
145872.58
127668.13
109643.3
95450.616
82092.03
70646.824
59174.073
49089.259
40159.187
32631.913
25979.597
21869.696
18716.741
15530.217
11654.484
7002.8156
3211.3563
475.7851
6.1512657
809.92165
2319.5463
3929.8528
5423.4366
7858.0705
10186.733
13275.995
15880.553
19878.955
24369.354
29333.819
34485.667
39505.471
44677.313
50411.897
56775.465
63509.004
70580.96
77881.7
85321.432
92936.355
100526.81
108329.35
116283.8
124521.53
132863.16
141547.79
150397.98
159503.49
168649.5
178167.29
187868
197878.76
207974.63
218423.42
229034.04
239948.93
250933.01
262292.6
273827.98
285704.45
297541.58
309813.59
322132.74
334786.38
347221.68
360092.21
372927.68
385972.43
398787.87
411992.75
425136.22
438760.29
452374.78
466501.55
480531.14
494984.71
509267.5
523601.65
538506.81
553578.16
569084.01
584744.72
600740.96
616882.87
633052.56
649584.44
666119.97
683003.35
699886.15
717186.26
734501.4
752006.61
769887.38
787850.76
806151.29
824636.09
843488.19
862475.88
881635.67
901045.52
920566.82
940407.88
960406.29
980701.38
1001170.8
1021920.7
1042915.9
1064175.8
1085645.6
1107390
1129381.6
1151633.3
1174155.6
1196950
1220018.1
1243368.5
1267001.4
1290923.8
1315141.3
1339661.2
1364487.4
1389624.7
1415082.4
1440864.7
1466972.5
1493422.6
1520213.1
1547364.7
1574866.7
1602748.5
1630999.5
1659645.7
1688673.2
1718109.6
1747926.8
1778148.6
1808760.9
1839698.4
1871331.1
1903666
1936510.3
1969766.8
2003747.4
2038529.3
2073571.7
2109341.4
2145322.9
2182089.3
2219462.6
2257357.4
2295889.6
2335072.5
2374934.1
2415323.1
2456548.6
2498305.5
2540830.9
2584173.9
2628134
2674213.3
2720535.5
2768886
2817627.1
2867834
2918543.8
2970819.1
3023905
3078280.4
3133061.8
3189860.5
3247682.9
3307389.6
3368044.8
3430824.1
3494730.7
3560385
3627195.4
3696059.1
3766683.7
3839507.3
3913927.9
3990922.6
4069360.4
4150463.3
4232684.8
4318375
4406130.4
4498032.7
4592272.3
4690123.1
4791415.9
4895952.5
5006383.4
5117236.8
5237871.6
5360128.4
5493636
5628263.6
5773694.9
5931769.5
6084886.9
6254593.7
6424064.2
6614258.4
6812113.3
7023684.6
7251830.6
7487414.5
7690353.6
7936500.7
8191039.6
8493108.4
8842185
9223731.6
9683487.4
10197690
10738573
11306280
11858791
12577452
13379854
14352489
15344042
16565668
17669997
19247561
21302726
23851323
27254147
32251224
38914371
47420256
60062040
75416751
1.2050659e+08
2.3953613e+08
5.2763602e+08
6.8178351e+10
2.7584672e+10
1.5485033e+09
3.3922086e+08
1.3951645e+08
73372851
44342952
29012916
20018996
14429747
10728510
8166977.7
6297733.2
4881253.7
3811096.7
2999257.7
2387792.3
1931284.7
1575015.3
1315418.9
1132931.6
987479.82
831626.88
710584.77
627363.68
552833.98
484428.41
425241.04
380609.56
320464.19
263645.14
215004.96
174941.61
145756.48
127575.76
109508.24
95421.186
82103.175
70618.752
59168.852
49061.932
40146.692
32551.827
25956.726
21854.743
18693.191
15484.625
11595.019
6978.3544
3196.84
459.98233
8.7863279
834.08606
2323.8056
3925.4744
5429.8035
7854.2955
10192.457
13270.125
15910.17
19909.886
24403.086
29369.499
34515.408
39523.539
44684.304
50421.783
56784.357
63518.266
70587.948
77886.575
85325.205
92937.08
100527.34
108328.94
116284.89
124521.75
132864.84
141547.96
150398.7
159502.43
168651.61
178168.13
187870.17
197878.94
207977.86
218424.17
229036.24
239948.81
250936.26
262293.19
273830
285703.15
297543.75
309812.59
322133.09
334783.06
347221.9
360089.24
372925.48
385967.67
398786.19
411988.94
425137.05
438758.72
452375.79
466498.82
480531.29
494980.3
509265.23
523594.31
538502.1
553570.92
569079
584738.69
600738.9
616879.66
633052.13
649581.47
666119.6
682999.89
699886.29
717182.76
734500.55
752001.61
769885.1
787849.08
806146.31
824633.32
843486.11
862472.87
881634.04
901042.98
920567.7
940407.33
960407.63
980700.59
1001172.5
1021921.7
1042916.9
1064175
1085646.2
1107390
1129381.9
1151633.5
1174155.6
1196949.8
1220018
1243368
1267000.8
1290923
1315140.4
1339659.7
1364485.5
1389622.4
1415079.5
1440861.1
1466969.9
1493419.7
1520210.3
1547360.3
1574864
1602743.4
1630996
1659640
1688669.5
1718104.4
1747924
1778146.5
1808760.9
1839700.1
1871334.5
1903666.1
1936509.6
1969780.9
2003757.5
2038546.1
2073589.1
2109349.2
2145342.6
2182107.5
2219475.7
2257378.9
2295908.9
2335088.9
2374953.4
2415333.1
2456565.3
2498311.6
2540848.1
2584178.6
2628146.2
2674212.2
2720542.4
2768879.8
2817628.9
2867822.8
2918542
2970805.9
3023900.3
3078267.3
3133064.6
3189857.3
3247686.7
3307386
3368048.2
3430819.7
3494729
3560383.3
3627200.8
3696065.4
3766697.5
3839510.1
3913934.9
3990918.3
4069363.3
4150450.3
4232679
4318357.7
4406119.4
4497989.5
4592200
4690039.7
4791281.4
4895843.8
5006147.2
5116969
5237511.8
5359648.9
5493080.2
5627677.5
5772929.8
5930741.8
6084680.3
6254160.7
6423873.5
6613742.5
6811656.1
7022813.2
7251185.1
7486706.2
7690526.5
7935873.6
8190038.1
8491268.9
8839919.3
9221073.4
9679583.9
10192909
10734570
11302451
11858713
12575721
13379558
14350293
15343891
16563449
17671676
19242941
21286423
23830079
27219786
32196330
38845257
47304032
59863764
75260844
1.2030719e+08
2.3973089e+08
5.4256977e+08
6.7117824e+10
2.5794436e+10
1.5527548e+09
3.3991801e+08
1.3969004e+08
73435267
44350193
29005182
20016641
14429042
10728133
8166494.3
6297417.1
4881086.6
3810845.2
2998691.1
2387318.3
1930616
1574196.9
1315226.3
1132618.6
986293.9
831225.89
710620.34
627134.69
552810.33
484254.46
425256.03
380019.88
319828
263095.32
214526
174592.13
145641.69
127480.27
109377.58
95389.57
82115.002
70586.651
59161.853
49030.593
40132.005
32470.015
25932.387
21839.052
18668.598
15437.173
11533.688
6953.9527
3180.9809
445.14362
11.956739
858.85707
2328.3558
3920.7478
5436.7745
7850.2842
10198.53
13263.927
15940.503
19941.943
24438.1
29405.796
34546.308
39536.266
44691.96
50428.218
56794.125
63527.939
70595.514
77891.698
85329.356
92937.998
100528.18
108328.85
116286.37
124522.2
132866.98
141548.33
150399.72
159501.51
168654.28
178169.37
187872.87
197879.32
207981.52
218425.31
229039.01
239948.88
250939.8
262294.02
273832.3
285701.71
297546.18
309811.53
322133.57
334779.32
347222.11
360085.83
372923.05
385962.35
398784.43
411984.83
425138.03
438757.25
452377.06
466495.8
480531.49
494975.27
509262.55
523585.95
538496.88
553562.48
569073.25
584731.4
600736.81
616876.32
633051.72
649578.21
666119.23
682995.9
699886.46
717178.74
734499.56
751995.3
769882.43
787846.52
806140.58
824630.84
843483.87
862469.54
881632.34
901040.17
920568.97
940406.89
960409.16
980699.9
1001174.3
1021922.9
1042917.9
1064174.2
1085646.8
1107390.2
1129382.1
1151633.6
1174155.6
1196949.6
1220017.9
1243367.5
1267000.2
1290922.1
1315139.3
1339658.2
1364483.5
1389620
1415076.4
1440857.4
1466966.7
1493416.1
1520207
1547355.5
1574860.6
1602738
1630991.7
1659633.7
1688665
1718098.2
1747920.5
1778143.5
1808759.9
1839701.5
1871338.1
1903666
1936509
1969794.8
2003768.1
2038563
2073607.5
2109357
2145363.5
2182126.2
2219485.2
2257401.3
2295930.6
2335107.3
2374975.5
2415344.7
2456584.2
2498318.6
2540867.8
2584183.9
2628160
2674210.6
2720550.1
2768872.8
2817630.2
2867810.7
2918539.1
2970791.4
3023893.8
3078251.6
3133066.9
3189852.4
3247689.5
3307381
3368051.1
3430814.4
3494727.9
3560380.1
3627203.5
3696070.4
3766711.4
3839512.2
3913941.6
3990912.6
4069365.5
4150434.2
4232671.5
4318337.4
4406107.1
4497940.9
4592121.5
4689954.6
4791136.5
4895722.1
5005899.3
5116681.1
5237137.3
5359152
5492534.7
5627058.8
5772140.3
5929678.7
6084480.4
6253662
6423764.7
6613208.5
6811135.4
7021857.8
7250483.5
7485929
7690697.3
7935193.9
8189005.2
8489391.5
8837535.3
9218390.3
9675566.1
10187967
10730400
11298463
11858620
12573828
13379229
14347832
15343793
16561069
17673484
19238013
21269720
23808251
27184365
32139422
38774207
47186379
59657930
75105848
1.200943e+08
2.3983351e+08
5.5136539e+08
6.3060878e+10
2.3277217e+10
1.5566494e+09
3.4018866e+08
1.398344e+08
73495678
44351195
28996665
20013942
14428167
10727653
8165939.1
6297055.2
4880904.5
3810513.7
2998164.2
2386848.7
1929923.1
1573353
1315043.7
1132288.2
985060.03
830796.01
710651.18
626884
552780.24
484046.24
425259.44
379409.13
319173.2
262528.92
214033.4
174233.84
145527.54
127380.81
109254.34
95355.644
82125.547
70550.95
59152.537
48995.012
40115.854
32386.304
25906.776
21822.608
18642.865
15387.561
11470.595
6929.0629
3161.286
440.52862
15.702072
884.25135
2332.9998
3915.8358
5444.2968
7846.1013
10204.787
13257.283
15971.555
19975.151
24474.36
29443.373
34578.078
39542.56
44698.985
50437.424
56804.84
63537.75
70602.961
77897.062
85333.829
92939.099
100529.24
108329.03
116288.15
124522.81
132869.51
141548.91
150401
159500.76
168657.32
178170.88
187876.02
197880.05
207985.63
218426.77
229042.2
239948.98
250943.52
262295.06
273834.78
285700.33
297548.79
309810.28
322134.1
334775.26
347222.31
360082.07
372920.32
385956.44
398782.5
411980.59
425139.22
438755.6
452378.52
466492.56
480531.66
494969.81
509259.53
523576.6
538491.17
553552.96
569066.95
584723.36
600734.61
616872.54
633051.24
649574.7
666118.77
682991.59
699886.56
717174.44
734498.47
751988.38
769879.44
787842.62
806134.2
824630.05
843481.41
862465.93
881630.57
901037.15
920570.43
940406.52
960410.79
980699.29
1001176.2
1021924.1
1042918.9
1064173.4
1085647.4
1107390.7
1129382.4
1151633.8
1174155.6
1196949.3
1220017.6
1243366.9
1266999.5
1290921.2
1315138.2
1339656.6
1364481.3
1389617.4
1415073.2
1440853.5
1466963
1493412
1520203.1
1547350.4
1574856.6
1602732.1
1630986.3
1659626.9
1688659.3
1718091.1
1747916.1
1778139.6
1808758.2
1839702.8
1871341.4
1903665.8
1936508.2
1969808.6
2003779.2
2038579.4
2073626.5
2109363.7
2145385.1
2182147.5
2219493
2257423
2295954.7
2335127.7
2375000.2
2415357.8
2456605.9
2498326.3
2540889.4
2584189.3
2628175.2
2674208.7
2720558.5
2768865.1
2817631.4
2867797.7
2918535.2
2970775.4
3023885.5
3078233.5
3133067.9
3189846
3247692
3307375
3368053.4
3430807.6
3494726.3
3560375.1
3627207.4
3696075.2
3766725.9
3839514.3
3913948.2
3990905.9
4069367
4150415.1
4232662.5
4318314.7
4406093.6
4497888
4592038.9
4689861.9
4790984.4
4895606
5005640.4
5116378.2
5236748.9
5358639.6
5491939.6
5626409.4
5771323.5
5928580.9
6084339.6
6253246.4
6423666.6
6612611.9
6810546.5
7020861.3
7249728.1
7485085.4
7690854
7934480.5
8187948.4
8487478.8
8835039.9
9215622.4
9671431.3
10182894
10726050
11294288
11858390
12571755
13378810
14345107
15343724
16558571
17675379
19232851
21252609
23785891
27147883
32080688
38701595
47068483
59444092
74967229
1.1987526e+08
2.3983433e+08
5.4769496e+08
5.3482662e+10
2.029509e+10
1.5574985e+09
3.3998823e+08
1.399502e+08
73554794
44339509
28987333
20010872
14427099
10727062
8165305.2
6296642.5
4880712.2
3810192.1
2997686.4
2386489.3
1929208.5
1572481.7
1314912.5
1131939.4
983783.52
830329.59
710669.33
626600.06
552740.83
483835.9
425251.4
378776.1
318498.35
261945.49
213527.09
173874.75
145411.74
127277.28
109142.48
95318.304
82134.729
70515.203
59141.723
48955.574
40097.489
32300.708
25880.163
21805.312
18615.9
15336.02
11405.769
6904.1977
3150.613
443.78277
20.070142
910.27417
2337.7895
3910.8188
5452.0154
7841.8154
10211.201
13250.398
16003.34
20009.434
24511.549
29481.872
34609.876
39552.369
44705.456
50449.824
56815.331
63547.848
70611.074
77902.751
85338.633
92940.341
100530.57
108329.56
116290.33
124523.96
132872.48
141549.74
150402.58
159500.55
168660.68
178172.7
187879.59
197881.16
207990.23
218428.53
229045.83
239949.19
250947.45
262296.3
273837.46
285699.02
297551.61
309808.97
322134.66
334770.8
347222.61
360077.97
372917.32
385949.73
398780.38
411975.99
425140.65
438753.99
452380.16
466489
480531.74
494963.55
509256.11
523566.87
538484.76
553542.1
569059.95
584714.59
600732.28
616868.32
633050.77
649570.89
666118.25
682986.81
699886.69
717169.6
734497.24
751981.77
769875.97
787839
806127.46
824631.6
843478.67
862462
881628.64
901033.83
920572.07
940406.26
960412.53
980698.73
1001178.1
1021925.3
1042919.9
1064172.5
1085648
1107391.1
1129382.7
1151634
1174155.6
1196949
1220017.3
1243366.2
1266998.7
1290920.1
1315136.9
1339654.8
1364479.1
1389614.7
1415069.8
1440849.5
1466958.8
1493407.5
1520198.8
1547344.9
1574851.8
1602725.9
1630980.1
1659619.7
1688652.5
1718083.3
1747910.5
1778134.7
1808755.8
1839704.4
1871345.5
1903665.7
1936507.7
1969823.3
2003790.5
2038596.3
2073645.7
2109370.8
2145408
2182170.6
2219500.1
2257440.8
2295981.9
2335150.5
2375028.2
2415372.9
2456630.3
2498335.2
2540913.5
2584195.4
2628192
2674206.8
2720567.6
2768856.8
2817632
2867783.9
2918530.2
2970758.3
3023875.3
3078213.4
3133067.9
3189838.1
3247693.7
3307366.9
3368054.7
3430798.7
3494723.1
3560368.4
3627211.4
3696079.3
3766740.8
3839515.8
3913954.4
3990897.8
4069367.8
4150394.1
4232651.6
4318289.4
4406078.5
4497831.3
4591950.8
4689760.8
4790823.3
4895468.9
5005378.3
5116076.8
5236362.1
5358102.2
5491314.4
5625738.7
5770478.9
5927455
6084139.5
6252612.6
6423531.4
6611903.8
6809867.1
7019795.8
7248900.3
7484181
7690992.1
7933720.4
8186863.6
8485529.7
8832445.8
9212752.4
9667175.9
10177675
10721500
11289934
11858136
12569474
13378175
14342049
15343602
16555892
17677361
19227442
21235036
23762991
27110351
32020176
38627192
46952022
59223848
74854775
1.1963467e+08
2.3962745e+08
5.3256647e+08
3.8326314e+10
1.7024842e+10
1.5468559e+09
3.3948749e+08
1.3998665e+08
73608431
44316044
28977111
20007398
14425828
10726348
8164587.3