/*--------------------------------*- C++ -*----------------------------------*\
  =========                 |
  \\      /  F ield         | OpenFOAM: The Open Source CFD Toolbox
   \\    /   O peration     | Website:  https://openfoam.org
    \\  /    A nd           | Version:  7
     \\/     M anipulation  |
\*---------------------------------------------------------------------------*/
FoamFile
{
    version     2.0;
    format      ascii;
    class       volVectorField;
    location    "240";
    object      U;
}
// * * * * * * * * * * * * * * * * * * * * * * * * * * * * * * * * * * * * * //

dimensions      [0 1 -1 0 0 0 0];

internalField   nonuniform List<vector> 
78300
(
(0.0060240762 2.9481545e-05 6.1589053e-21)
(0.005698295 2.7883306e-05 -4.7069155e-26)
(0.0060531354 -3.8819235e-05 2.3797831e-25)
(0.0057925855 -0.00018225504 -4.9393499e-20)
(0.0052630944 -0.00035896551 0)
(0.0038472163 -0.00045958967 0)
(0.0023247437 -0.00041162253 0)
(-0.00020436765 3.120928e-05 -1.2883477e-19)
(-0.0016460251 0.00054399943 -1.0431153e-19)
(-0.0022223457 0.000928839 7.9367275e-20)
(-0.0022428672 0.0011315335 -1.1779539e-25)
(-0.0013606286 0.00077869093 -1.1256291e-19)
(-0.0010090226 0.00064403454 7.9207142e-20)
(-0.0009862183 0.00068605985 -8.9772553e-21)
(-0.0011556186 0.00085369666 9.7648726e-20)
(-0.0013955364 0.0010837174 0)
(-0.0016351042 0.0013066251 4.262887e-23)
(-0.0016503603 0.0013516005 -8.1231519e-20)
(-0.0015858801 0.001324501 -1.3692788e-19)
(-0.0014619524 0.0012383309 5.8164829e-20)
(-0.0013070178 0.0011157013 4.9305319e-20)
(-0.0011248725 0.0009613832 -4.144398e-20)
(-0.0009485949 0.00080220389 -1.4560504e-25)
(-0.0008010292 0.00066937842 2.4852061e-20)
(-0.00066349518 0.00055841046 4.6630506e-20)
(-0.00058554068 0.00047011953 0)
(-0.00052680044 0.00042215701 0)
(-0.00049241837 0.0003921805 0)
(-0.00047508475 0.00037502318 -2.3896725e-21)
(-0.00046341036 0.00036605151 2.9263175e-24)
(-0.00047730878 0.00037810278 2.4886455e-22)
(-0.00051603919 0.00039612207 -5.8034597e-21)
(-0.00057630612 0.00044216923 -3.2507829e-27)
(-0.00064574911 0.00049355815 0)
(-0.00072605268 0.00055917252 1.6014266e-23)
(-0.00081825642 0.00062886036 -1.4951793e-23)
(-0.00090905302 0.00069787867 3.7379701e-21)
(-0.0010022627 0.0007681535 -2.6997063e-21)
(-0.0010952472 0.00083150412 1.5448392e-21)
(-0.0011872305 0.00089080348 -1.7591724e-21)
(-0.0012687276 0.00093886497 0)
(-0.0013433611 0.00097226258 0)
(-0.0014161842 0.0010020188 2.0532008e-21)
(-0.0014870385 0.0010172927 0)
(-0.0015339488 0.0010274704 0)
(-0.0015892863 0.0010164332 4.5144294e-21)
(-0.0016336255 0.0009989627 6.3338739e-21)
(-0.0016665063 0.00096848717 -8.2089886e-21)
(-0.0017024413 0.00093312609 0)
(-0.0017367061 0.00089229972 4.9933482e-24)
(-0.0017756631 0.00084759819 -1.1204592e-20)
(-0.0017976634 0.00079392444 -8.1599601e-25)
(-0.0018231732 0.0007388801 -6.2697626e-21)
(-0.001825277 0.00067230922 -1.4046775e-20)
(-0.0018424951 0.0006083407 -7.3052259e-21)
(-0.00182904 0.00053334785 0)
(-0.0018394617 0.00046511963 -1.0173509e-27)
(-0.0018272895 0.00038994371 0)
(-0.0018409625 0.00031965996 -1.7994033e-21)
(-0.001837115 0.00024502147 -6.8397784e-21)
(-0.0018616363 0.00017250736 1.4644989e-21)
(-0.0018772393 9.6871002e-05 1.1597477e-21)
(-0.002040927 2.4191744e-05 -1.1542164e-25)
(-0.0024259823 6.5518186e-07 0)
(-0.0026737115 2.3739876e-06 0)
(-0.0029285903 4.7074975e-07 5.0227133e-26)
(-0.0031090786 5.5117953e-07 -5.0226973e-26)
(-0.0032931072 5.3573382e-07 1.6054561e-25)
(-0.003425804 5.7837154e-07 7.3660771e-26)
(-0.0035559297 6.0599379e-07 8.4710546e-26)
(-0.003653278 6.3332886e-07 9.407243e-26)
(-0.0037462023 6.2854184e-07 -4.1298741e-25)
(-0.0038158295 6.4444819e-07 0)
(-0.0038812397 6.5731019e-07 3.7335126e-18)
(-0.0039290963 6.6658302e-07 4.3813089e-18)
(-0.0039726483 6.4171996e-07 -9.9463295e-25)
(-0.0040028192 6.4162981e-07 -1.3295303e-25)
(-0.0040291672 6.297524e-07 2.3921681e-24)
(-0.0040451142 6.0404159e-07 -1.2645827e-24)
(-0.0040577048 5.9074184e-07 0)
(-0.0040622007 5.3688796e-07 -1.6939974e-24)
(-0.0040636853 6.5186724e-07 1.6939974e-24)
(-0.0040587969 5.1304622e-07 1.9905346e-24)
(-0.004051137 5.0310042e-07 -1.9905348e-24)
(-0.004038409 5.296575e-07 0)
(-0.0040232885 6.0275526e-07 0)
(-0.0040041582 5.2792454e-07 0)
(-0.0039830115 7.1737146e-07 -2.7480933e-24)
(-0.0039586075 7.0560732e-07 -1.5176414e-25)
(-0.0039326277 5.2997883e-07 2.8998598e-24)
(-0.003904132 5.4014431e-07 -3.2026751e-24)
(-0.0038742657 5.6546756e-07 1.5261478e-24)
(-0.0038425447 4.6740716e-07 1.6765299e-24)
(-0.0038097223 4.5187321e-07 0)
(-0.0037754234 6.8322672e-07 0)
(-0.0037402799 6.188792e-07 0)
(-0.0037040305 4.1500949e-07 0)
(-0.00366729 4.17604e-07 0)
(-0.0036296769 5.7521653e-07 0)
(-0.0035916872 4.4147034e-07 0)
(-0.0035531551 4.8752566e-07 0)
(-0.0035142441 4.5711223e-07 0)
(-0.0034750303 3.4083924e-07 0)
(-0.0034357103 3.4361198e-07 0)
(-0.003395989 3.8024193e-07 0)
(-0.0033561198 3.6755222e-07 0)
(-0.0033160758 4.7178946e-07 0)
(-0.003276 3.2407476e-07 0)
(-0.0032357958 4.5657494e-07 0)
(-0.0031955115 3.5744056e-07 0)
(-0.0031551655 4.0729151e-07 0)
(-0.0031148018 3.8710023e-07 0)
(-0.0030743538 3.255385e-07 0)
(-0.003033875 3.1933584e-07 0)
(-0.0029933526 2.9344806e-07 0)
(-0.0029527613 3.0166176e-07 0)
(-0.0029120791 2.0757838e-07 0)
(-0.0028713142 2.3105357e-07 1.7152769e-24)
(-0.0028304076 2.3547303e-07 -1.7152779e-24)
(-0.0027893878 1.3731687e-07 -1.7753268e-24)
(-0.0027482236 2.2611643e-07 3.9097953e-17)
(-0.0027069008 1.443477e-07 3.9734616e-17)
(-0.0026653584 2.1062497e-07 1.8641244e-24)
(-0.002623609 1.7207841e-07 -1.8641254e-24)
(-0.0025816306 1.3614747e-07 0)
(-0.0025394041 8.8190649e-08 9.7578912e-25)
(-0.0024968911 4.7527967e-08 1.4447903e-26)
(-0.0024541099 2.0380115e-08 -9.9023884e-25)
(-0.0024110452 4.0210635e-09 0)
(-0.0023677533 -6.1620571e-09 0)
(-0.0023242057 -1.5754542e-08 0)
(-0.0022804368 -2.5405838e-08 5.308012e-25)
(-0.0022364059 -3.4672426e-08 -5.3080179e-25)
(-0.0021921068 -4.3894858e-08 0)
(-0.0021474616 -5.3842955e-08 0)
(-0.0021024003 -6.3404084e-08 0)
(-0.0020569285 -7.2963399e-08 2.8294722e-25)
(-0.0020111429 -8.2097271e-08 -2.8294733e-25)
(-0.0019650182 -9.15444e-08 0)
(-0.0019186081 -1.0048857e-07 0)
(-0.00187188 -1.0959927e-07 0)
(-0.0018249016 -1.1864902e-07 0)
(-0.0017776309 -1.2782119e-07 -1.2146032e-24)
(-0.0017301401 -1.3652022e-07 1.2146048e-24)
(-0.0016823855 -1.4576915e-07 0)
(-0.0016344574 -1.5735009e-07 2.5108732e-24)
(-0.0015862974 -1.6618171e-07 -2.5108744e-24)
(-0.0015380406 -1.7138937e-07 2.5648539e-24)
(-0.0014895481 -1.7888391e-07 -2.5648563e-24)
(-0.0014410301 -1.8641157e-07 -2.6183795e-24)
(-0.001392363 -1.9384609e-07 2.618382e-24)
(-0.0013437459 -2.0084889e-07 2.6714522e-24)
(-0.0012950235 -2.0812494e-07 2.6360024e-26)
(-0.0012464173 -2.1517776e-07 -2.6978171e-24)
(-0.0011977652 -2.2245972e-07 0)
(-0.0011493248 -2.2858978e-07 0)
(-0.0011008846 -2.3561443e-07 0)
(-0.0010527543 -2.422012e-07 6.1454095e-17)
(-0.0010047016 -2.4996296e-07 2.9372545e-20)
(-0.00095702714 -2.5554729e-07 -6.26022e-17)
(-0.00090942082 -2.6223758e-07 0)
(-0.00086268647 -3.2438641e-07 0)
(-0.00081539153 -3.2878358e-07 0)
(-0.0007689396 -2.8168551e-07 0)
(-0.00072307889 -2.8618466e-07 0)
(-0.00067783559 -2.9062412e-07 0)
(-0.00063277808 -2.9592905e-07 0)
(-0.0005887023 -3.0368198e-07 0)
(-0.00054479194 -3.0718227e-07 0)
(-0.00050221483 -3.0993099e-07 6.2547338e-24)
(-0.00045953542 -3.1739641e-07 -1.2557664e-23)
(-0.00041854959 -3.1364016e-07 6.3029344e-24)
(-0.00037748469 -3.2198386e-07 0)
(-0.00033800625 -3.235485e-07 0)
(-0.00029882993 -3.4088928e-07 0)
(-0.00026139829 -3.3846593e-07 0)
(-0.00022407293 -3.5001648e-07 6.5873369e-24)
(-0.00018884806 -3.4229116e-07 -6.5873361e-24)
(-0.00015347656 -3.5884849e-07 0)
(-0.00012061411 -3.5560224e-07 0)
(-8.742407e-05 -3.6398095e-07 0)
(-5.7191385e-05 -3.4853023e-07 0)
(-2.636619e-05 -3.5003838e-07 0)
(8.3781073e-07 -3.7319301e-07 0)
(2.9287376e-05 -4.0139618e-07 0)
(5.3306837e-05 -3.5592792e-07 0)
(7.8713971e-05 -3.3989498e-07 0)
(9.9125979e-05 -3.5688913e-07 0)
(0.00012159655 -3.4315574e-07 0)
(0.00013818111 -3.5259077e-07 0)
(0.00015730868 -3.4951986e-07 1.4477316e-23)
(0.00016908799 -3.3534484e-07 -1.4477312e-23)
(0.00018478245 -3.6377931e-07 1.4667686e-23)
(0.000191471 -3.8222039e-07 -1.4667695e-23)
(0.00020424713 -4.3635784e-07 0)
(0.00020505346 -4.3322065e-07 0)
(0.00021391886 -4.5282003e-07 -1.5059014e-23)
(0.00020606254 -5.0718638e-07 1.5059029e-23)
(0.00020829467 -4.635724e-07 8.2982458e-17)
(0.00019048682 -5.0686867e-07 8.3644158e-17)
(0.00018263749 -6.2740294e-07 0)
(0.00015397806 -5.5346339e-07 0)
(0.00013741617 -7.8920714e-07 0)
(9.5750431e-05 -8.3637834e-07 0)
(6.529083e-05 -7.8018893e-07 0)
(8.0809327e-07 -7.3233873e-07 -8.7164986e-17)
(-4.9584505e-05 -9.1683341e-07 -8.796984e-17)
(-0.00016143823 -2.7441977e-06 -1.6638458e-20)
(-0.00024547398 -1.2568487e-05 1.6306715e-23)
(-0.0002608859 -2.3346171e-05 1.3520974e-19)
(-0.00028993347 -3.671514e-05 1.6709126e-23)
(-0.00026864555 -4.4983425e-05 1.6360705e-25)
(-0.0002622605 -5.3723622e-05 -5.5211402e-19)
(-0.00022021253 -5.1800477e-05 5.5533376e-19)
(-0.00019344381 -5.0914535e-05 -3.4128212e-23)
(-0.00014913809 -3.9370938e-05 5.6259166e-19)
(-0.00011433266 -2.4761255e-05 -5.6912708e-19)
(-2.1893389e-05 1.245783e-05 5.7644457e-19)
(5.3264049e-05 4.4510197e-05 -5.8407809e-19)
(0.00022553641 0.00013196635 5.9639836e-23)
(0.00025147742 0.00017806819 -6.0740945e-25)
(0.00058561941 0.00036062798 -4.7185677e-25)
(0.00073091167 0.0004350017 -1.4419172e-25)
(0.0005895523 0.0003960812 0)
(0.0017258335 0.0011436108 0)
(0.0015335025 0.00082863263 0)
(0.0023991852 0.0016799108 5.9665597e-22)
(0.0015288012 0.0015917532 -9.4211369e-19)
(3.7802763e-05 0.00080513312 9.1315285e-22)
(-0.00052185578 0.00060181308 -1.0895125e-22)
(0.00069837432 0.001179851 3.595891e-23)
(0.0012368602 0.00061470936 0)
(0.0062014679 0.0024923463 2.6322777e-18)
(0.0048224967 0.00383589 -8.5432204e-22)
(0.0034506098 0.0024919379 0)
(0.002537797 0.0020181035 3.8735383e-19)
(-0.0013066235 0.0072203731 0)
(0.0023688747 0.0014711609 0)
(0.0029328609 0.0011558042 9.5861058e-19)
(0.0020400187 0.0013818739 -2.3880191e-19)
(0.0013502159 0.00076305341 -1.1270765e-19)
(-8.3884562e-05 -0.00090258728 1.583486e-20)
(0.00084079575 -0.00077449608 4.8070708e-19)
(0.0018181495 -0.0019003022 1.8414467e-23)
(-0.037956212 0.0047857468 0)
(0.028309037 0.092371548 2.82304e-18)
(0.0048572251 0.0051915638 -1.6366521e-25)
(-0.0042471145 -0.043938215 4.0495469e-23)
(0.00029944273 0.00051321043 0)
(-0.016471865 -0.0067639509 0)
(-0.005029813 -0.0048682119 3.0065843e-20)
(0.0013553873 -0.00058785109 4.0474273e-26)
(0.010007161 0.0066363102 0)
(0.0093041831 0.0096944792 4.5587416e-19)
(0.013585478 -0.0037483921 0)
(0.0046281405 0.0038301497 0)
(0.0051804361 0.0039435401 1.504295e-27)
(0.0108791 0.0069390687 8.2870596e-20)
(0.013420737 0.007826152 0)
(0.016951884 0.0086941908 3.9595876e-23)
(0.027496582 0.011778998 3.836833e-19)
(0.020361051 0.0087611839 -1.9109209e-26)
(0.026194508 0.0059403132 5.6189668e-19)
(0.018034996 0.0033318113 0)
(0.011488413 0.0014092552 -1.4841723e-21)
(0.0084163609 0.00081051611 0)
(0.0065288197 0.00021190929 -1.0005231e-19)
(0.0054071636 3.7762713e-05 -2.2937668e-20)
(0.0061718519 -3.4018831e-05 0)
(0.0044856757 -2.1036983e-05 -8.7803604e-21)
(0.018318012 8.1123736e-05 0)
(0.017412849 8.4926065e-05 1.1602275e-21)
(0.01846785 -0.00011697363 8.1957031e-25)
(0.017699309 -0.00053722544 3.5456072e-20)
(0.016117847 -0.0010753094 0)
(0.011865664 -0.0013716484 4.5698029e-25)
(0.007291117 -0.001260451 -1.0453373e-19)
(-0.00019407413 5.4570352e-05 6.1601511e-24)
(-0.0046508575 0.0015712395 1.4990441e-19)
(-0.0065047487 0.0027515805 -1.1441695e-19)
(-0.0066600233 0.0033550197 0)
(-0.0040747153 0.0023546478 1.6334855e-19)
(-0.003060575 0.0019581158 0)
(-0.0030039704 0.0020961537 8.454199e-27)
(-0.0035182788 0.0026059813 -1.4211931e-19)
(-0.0042249131 0.0032882365 3.0275782e-21)
(-0.0049099956 0.0039496783 -2.7217322e-19)
(-0.0049373788 0.0040775319 1.1830186e-19)
(-0.0047391849 0.0039899455 -1.9678165e-22)
(-0.0043796796 0.0037140255 0)
(-0.0039087091 0.0033452977 -2.5055419e-25)
(-0.0033624758 0.0028809828 2.5270186e-25)
(-0.0028318569 0.0024041935 0)
(-0.0023932501 0.0020113091 3.7426333e-20)
(-0.0019993842 0.0016613904 -3.3641689e-20)
(-0.0017464249 0.0014208153 -2.1793535e-20)
(-0.0015789723 0.0012777979 -1.478746e-25)
(-0.0014711387 0.0011858672 1.2614003e-20)
(-0.0014283688 0.0011387701 -2.0006631e-26)
(-0.001401822 0.0011148717 1.2294731e-21)
(-0.0014496589 0.0011487759 -7.203678e-22)
(-0.00155978 0.0012162209 4.2365276e-21)
(-0.0017506603 0.0013539231 -5.6151822e-27)
(-0.0019582537 0.0015136325 3.4195464e-21)
(-0.0022052139 0.0017087159 6.8008545e-21)
(-0.0024841098 0.0019191043 -1.2781642e-20)
(-0.0027607031 0.0021254663 -6.9240483e-26)
(-0.0030444016 0.0023335805 6.9676291e-26)
(-0.0033251466 0.0025232191 -2.6290771e-26)
(-0.0036004596 0.0027008472 1.2403472e-21)
(-0.0038470454 0.0028406944 -8.5019668e-24)
(-0.0040671569 0.0029442922 -3.2293485e-26)
(-0.0042883115 0.0030302794 -2.8768863e-21)
(-0.0044940747 0.0030893932 0)
(-0.0046469941 0.0031066182 2.0184511e-22)
(-0.0048022388 0.0030764163 -6.2422243e-21)
(-0.0049379262 0.003023724 -1.5258175e-25)
(-0.0050394288 0.0029302338 3.5382036e-24)
(-0.0051503263 0.0028230397 -1.820701e-25)
(-0.0052560591 0.0026985952 1.8408637e-23)
(-0.0053699784 0.0025650571 2.471569e-25)
(-0.0054377834 0.0024022799 -8.5871133e-21)
(-0.0055177172 0.0022362165 -1.6791855e-24)
(-0.0055300359 0.0020356055 9.5365165e-21)
(-0.0055813333 0.001843264 3.0696414e-25)
(-0.0055461181 0.0016172122 2.8335417e-22)
(-0.0055790646 0.0014105968 2.0561041e-27)
(-0.0055432729 0.001182781 6.2380792e-22)
(-0.0055868648 0.00096982041 -1.33138e-25)
(-0.0055846491 0.00074423512 -8.480433e-25)
(-0.0056666559 0.00052487573 1.9661237e-21)
(-0.0057334159 0.00029748431 1.5570327e-21)
(-0.0062297971 8.0039456e-05 -5.7176858e-23)
(-0.0073553885 1.2157096e-05 7.7541035e-28)
(-0.0081022463 1.2610337e-05 0)
(-0.0088515708 6.3157918e-06 6.7563236e-26)
(-0.009389092 5.3549842e-06 -2.0004637e-25)
(-0.0099314336 4.6283323e-06 1.3248257e-25)
(-0.010325327 3.8916665e-06 -3.1442183e-25)
(-0.010708883 3.3721912e-06 -1.1367131e-25)
(-0.010997043 2.8625467e-06 -1.2623417e-25)
(-0.011270592 2.406143e-06 5.5431919e-25)
(-0.011476038 2.0155888e-06 -8.4033713e-25)
(-0.011668083 1.6811533e-06 -1.5713639e-25)
(-0.011808605 1.3692178e-06 -1.6502502e-25)
(-0.011935857 1.082033e-06 2.4972961e-24)
(-0.012023825 9.0627514e-07 -2.8480119e-24)
(-0.012100156 8.4011362e-07 1.5132061e-24)
(-0.012145918 6.934374e-07 0)
(-0.012181533 6.6835818e-07 2.0778099e-24)
(-0.012193406 1.7578238e-07 1.9543912e-25)
(-0.012196204 7.9540301e-07 -2.273249e-24)
(-0.012180289 -8.1187138e-08 0)
(-0.01215602 -1.904876e-07 0)
(-0.01211688 -8.6656195e-08 0)
(-0.012070575 2.9304312e-07 -3.2792466e-24)
(-0.012012453 8.2080608e-09 3.2792505e-24)
(-0.011948346 1.617659e-07 0)
(-0.011874762 8.1070452e-08 3.8913235e-24)
(-0.011796307 4.5452978e-08 -7.98618e-24)
(-0.011710504 -3.8085821e-08 4.0948575e-24)
(-0.011620661 -1.2078565e-07 0)
(-0.011525253 -1.6685863e-07 0)
(-0.011426629 -2.2049772e-07 0)
(-0.011323673 -1.8239923e-07 -2.5494663e-24)
(-0.011218256 -2.5836756e-07 2.5494726e-24)
(-0.011109553 -2.6875898e-07 2.745383e-24)
(-0.010999245 -4.0676415e-07 9.684151e-26)
(-0.010886493 -3.6217859e-07 -5.7803364e-24)
(-0.010772555 -4.1040235e-07 2.9381051e-24)
(-0.010656886 -4.0923922e-07 0)
(-0.010540279 -3.9871007e-07 3.2206244e-24)
(-0.010422651 -5.4716841e-07 -3.2206334e-24)
(-0.010304532 -5.5528866e-07 3.4046456e-24)
(-0.010185346 -5.1604604e-07 -3.4046552e-24)
(-0.01006573 -5.1107198e-07 3.585392e-24)
(-0.0099455747 -4.787633e-07 -3.5854024e-24)
(-0.0098251925 -5.9251126e-07 0)
(-0.0097043729 -4.0472432e-07 0)
(-0.0095833742 -5.3835235e-07 3.9363114e-24)
(-0.0094621035 -5.2485698e-07 -3.9363201e-24)
(-0.0093407285 -5.1135448e-07 4.1070601e-24)
(-0.009219054 -6.0461345e-07 8.4300039e-26)
(-0.0090972417 -6.3051369e-07 -4.1913822e-24)
(-0.0089752466 -7.0324467e-07 -2.1789909e-24)
(-0.0088529835 -6.273153e-07 2.178999e-24)
(-0.0087303999 -7.8140216e-07 0)
(-0.0086074992 -8.6768784e-07 2.3018239e-24)
(-0.0084841539 -8.0146157e-07 4.0437346e-26)
(-0.0083604525 -9.2347704e-07 -2.3422746e-24)
(-0.0082362443 -8.5789926e-07 0)
(-0.0081114865 -9.1847001e-07 0)
(-0.0079860432 -8.313892e-07 0)
(-0.0078599657 -8.7873861e-07 0)
(-0.0077331387 -1.0624046e-06 1.290011e-24)
(-0.0076055185 -1.1280803e-06 -2.5995026e-24)
(-0.0074770152 -1.1935954e-06 -1.9388744e-26)
(-0.0073476774 -1.2350182e-06 -1.9299297e-26)
(-0.0072174496 -1.2581367e-06 2.7155978e-24)
(-0.0070865042 -1.2664387e-06 -1.3674148e-24)
(-0.006954762 -1.2752322e-06 7.0282494e-25)
(-0.0068223255 -1.2838417e-06 -7.0282694e-25)
(-0.0066890693 -1.2929221e-06 3.6090606e-25)
(-0.0065549806 -1.3025208e-06 -3.6090735e-25)
(-0.0064198264 -1.3146258e-06 0)
(-0.0062834153 -1.3272509e-06 -1.8751872e-25)
(-0.0061457636 -1.3384844e-06 -1.9219934e-25)
(-0.006007147 -1.3486273e-06 3.7971984e-25)
(-0.005867504 -1.3583532e-06 -7.780775e-25)
(-0.0057269942 -1.36735e-06 7.7808039e-25)
(-0.0055855238 -1.3764322e-06 -1.5932088e-24)
(-0.0054432943 -1.3853773e-06 1.5932132e-24)
(-0.0053001869 -1.3940124e-06 1.6300368e-24)
(-0.0051564151 -1.4015208e-06 1.8320634e-26)
(-0.0050118522 -1.4095059e-06 -1.6483683e-24)
(-0.0048667657 -1.4236419e-06 -3.3696993e-24)
(-0.0047209977 -1.4303461e-06 3.3697099e-24)
(-0.0045749527 -1.4273021e-06 3.4421616e-24)
(-0.0044282176 -1.4302751e-06 -6.9203347e-24)
(-0.0042814064 -1.4322683e-06 -3.5841324e-26)
(-0.0041341591 -1.4332372e-06 -3.5686856e-26)
(-0.0039870684 -1.4332929e-06 3.5497262e-24)
(-0.0038396836 -1.4330763e-06 0)
(-0.0036926497 -1.4317446e-06 0)
(-0.0035455001 -1.4296733e-06 0)
(-0.003399001 -1.4257696e-06 0)
(-0.0032525238 -1.4218625e-06 0)
(-0.0031069809 -1.4142501e-06 0)
(-0.0029617066 -1.4092109e-06 0)
(-0.0028175809 -1.401045e-06 -7.7274377e-24)
(-0.002673667 -1.3868588e-06 -6.8079038e-26)
(-0.0025323363 -1.5900421e-06 1.5659315e-23)
(-0.0023892609 -1.592257e-06 7.8637485e-24)
(-0.0022489005 -1.3578585e-06 -7.9992182e-24)
(-0.0021104778 -1.3471592e-06 7.9992443e-24)
(-0.0019737781 -1.3335613e-06 8.1324617e-24)
(-0.0018376699 -1.3170184e-06 -1.6331018e-23)
(-0.0017045198 -1.3011423e-06 1.6462793e-23)
(-0.0015719048 -1.2811999e-06 -8.2642642e-24)
(-0.0014432916 -1.2590032e-06 0)
(-0.0013144247 -1.2345068e-06 0)
(-0.0011906334 -1.2036283e-06 -8.5237247e-24)
(-0.0010666557 -1.1781569e-06 8.5237404e-24)
(-0.00094743434 -1.1458599e-06 0)
(-0.00082918265 -1.1156748e-06 -8.7149925e-24)
(-0.00071613206 -1.0795053e-06 -8.8413934e-24)
(-0.00060348439 -1.0514233e-06 1.7556465e-23)
(-0.00049708114 -1.0172703e-06 1.7807855e-23)
(-0.00039033703 -9.8826742e-07 1.2510081e-25)
(-0.00029106095 -9.4568506e-07 -1.7933082e-23)
(-0.00019090849 -9.1174153e-07 1.8182397e-23)
(-9.9546986e-05 -9.106089e-07 1.2434456e-25)
(-6.5408812e-06 -8.7332578e-07 -3.6737822e-23)
(7.5710491e-05 -8.4235975e-07 -1.2418673e-25)
(0.00016155994 -7.9920235e-07 -1.2420436e-25)
(0.00023423138 -7.6693502e-07 1.867934e-23)
(0.0003108795 -7.2384827e-07 -1.8928199e-23)
(0.00037273564 -6.6424615e-07 1.8928164e-23)
(0.00044050953 -6.2633454e-07 -1.917835e-23)
(0.00049090351 -5.6616952e-07 1.9178349e-23)
(0.00054857061 -5.0849541e-07 -1.9430709e-23)
(0.0005845498 -4.2936308e-07 1.9430692e-23)
(0.00063183561 -3.4947473e-07 0)
(0.00065258163 -2.757349e-07 0)
(0.00069095657 -1.91694e-07 0)
(0.00069391074 -2.8503035e-07 0)
(0.00072003384 -3.010377e-07 2.0211394e-23)
(0.00069675472 -4.6533204e-07 -2.0211413e-23)
(0.00070252259 -1.1014788e-07 0)
(0.0006493028 -2.3476757e-07 0)
(0.00062577924 -3.9626726e-07 -2.0763452e-23)
(0.00054068974 4.0913119e-08 2.0763477e-23)
(0.00049033344 2.6081439e-08 2.1057531e-23)
(0.00036567554 -4.3004902e-08 -2.1057572e-23)
(0.00027495066 2.5329945e-07 0)
(8.2478942e-05 1.0160461e-06 -2.1529046e-23)
(-6.9429263e-05 9.9174944e-07 -2.1863849e-23)
(-0.0004026919 -3.6212812e-06 4.4680101e-20)
(-0.00065187263 -3.209016e-05 1.7999499e-19)
(-0.00069600326 -6.3310561e-05 -1.8150938e-19)
(-0.00078059558 -0.00010176289 -2.0955839e-25)
(-0.00071448514 -0.00012464324 3.6882032e-19)
(-0.00069089816 -0.0001485863 7.4343501e-19)
(-0.0005587569 -0.00014199348 0)
(-0.00047309899 -0.0001383445 0)
(-0.00031638099 -9.6542522e-05 -7.6204331e-19)
(-0.00020202065 -4.4831149e-05 7.7278114e-19)
(8.9922979e-05 5.8235291e-05 6.8469085e-23)
(0.00032723688 0.00017319489 -2.4075237e-23)
(0.00086754384 0.00041332223 -1.6161323e-18)
(0.0010056124 0.00055918557 0)
(0.0019298139 0.0011138448 0)
(0.0022733587 0.0013516844 2.7691169e-20)
(0.0018250085 0.0011946127 3.3501152e-21)
(0.0047774357 0.0029542153 -1.1682298e-26)
(0.0043432531 0.0025467266 -2.3331195e-19)
(0.0069866321 0.0047842626 -4.6983355e-26)
(0.0058913699 0.0045486079 3.6833421e-23)
(0.0016396512 0.0019014334 -1.203586e-18)
(0.00082548031 0.0019313919 2.6307237e-18)
(0.0038010168 0.0028680435 0)
(0.0034694618 0.0018861671 2.9883131e-19)
(0.013770592 0.0073237507 -1.8560802e-18)
(0.013615566 0.010318677 -4.518169e-25)
(0.0098130297 0.0072776387 8.3450123e-21)
(0.0073540832 0.0059917425 -9.3888752e-20)
(-0.00070077604 0.016619803 5.5288215e-20)
(0.0070585226 0.0044140269 2.9803853e-26)
(0.0069086186 0.0036471631 -6.865494e-19)
(0.0057965425 0.0043297645 -2.4797704e-23)
(0.0036310097 0.0027668319 1.6138798e-19)
(-0.0011439023 -0.0021421076 0)
(-0.00019489969 -0.0021763462 -6.9130633e-19)
(-0.0014207148 -0.0043863933 0)
(-0.09533652 -0.0089977701 1.3314805e-18)
(0.17805693 0.15334437 -4.0722335e-18)
(0.015007736 0.01586909 0)
(-0.034310889 -0.065310391 -7.4211568e-23)
(0.00045768037 0.001469305 -3.1516652e-27)
(-0.027395338 -0.014079726 8.6717482e-19)
(-0.0092319028 -0.0073325739 8.9304962e-24)
(0.01119956 0.0077030891 1.6325621e-19)
(0.030098597 0.020219497 -2.1404346e-25)
(0.031682098 0.026726122 0)
(0.027170862 0.007223332 0)
(0.015930475 0.013833761 -3.4085793e-24)
(0.017338196 0.013053323 -5.5140816e-27)
(0.032863208 0.020963438 -1.1967493e-19)
(0.040487956 0.023523397 4.3954444e-20)
(0.05171933 0.026114954 1.4880533e-22)
(0.081684855 0.034255046 -5.8950342e-19)
(0.062069191 0.025056137 2.0090653e-20)
(0.074502553 0.018296011 8.01977e-19)
(0.053165019 0.009749281 -4.3884944e-21)
(0.035006647 0.0043206633 6.0067947e-25)
(0.025929311 0.0021908153 0)
(0.020605441 0.0006582666 -1.4304848e-19)
(0.017183133 0.00011439513 3.28015e-20)
(0.019412396 -0.0001022507 -4.0430816e-25)
(0.014593927 -6.5194328e-05 1.2556579e-20)
(0.031032472 0.00012884851 2.2200864e-25)
(0.029605915 0.00014446892 -1.1840331e-21)
(0.031331901 -0.00020011823 -9.7024963e-21)
(0.030066313 -0.00090576091 -3.6351029e-20)
(0.027440916 -0.0018018395 7.2204224e-20)
(0.020330723 -0.0023138601 0)
(0.012659935 -0.0021379072 1.072292e-19)
(0.00026849305 1.5255457e-05 3.4212505e-23)
(-0.0073852331 0.0025404423 -1.5294811e-19)
(-0.01069021 0.0045514401 0)
(-0.011053725 0.0055790389 0)
(-0.0068626736 0.0039493683 -1.6689376e-19)
(-0.0051978456 0.0033254386 -1.1229148e-19)
(-0.0051158139 0.0035666593 2.2900162e-20)
(-0.0059821646 0.004431338 1.453113e-19)
(-0.0071412677 0.0055587659 2.0727062e-27)
(-0.0082589692 0.006645241 1.3923732e-19)
(-0.0082871541 0.0068432833 -2.1289097e-25)
(-0.0079425806 0.0066865163 1.0215845e-19)
(-0.0073292798 0.0062214074 -8.6515133e-20)
(-0.006528961 0.0056006159 -7.3114902e-20)
(-0.0056222226 0.0048125876 0)
(-0.004735812 0.0040166336 5.1042377e-20)
(-0.00400543 0.0033637031 -7.6835697e-20)
(-0.0033537194 0.0027902416 -4.9269338e-25)
(-0.0029309111 0.0023938671 2.7104309e-24)
(-0.0026557479 0.0021544679 -1.5091275e-25)
(-0.0024770233 0.0019956436 -1.287044e-20)
(-0.002412815 0.0019245506 7.9908206e-26)
(-0.0023759105 0.0018904184 1.1589043e-21)
(-0.0024638882 0.0019522664 7.0638211e-24)
(-0.0026545734 0.0020722169 4.2877003e-21)
(-0.0029772891 0.0023070634 1.1193753e-21)
(-0.0033272568 0.0025797371 -5.1500634e-21)
(-0.0037482897 0.0029038696 6.7965379e-21)
(-0.0042166829 0.0032579185 6.4796818e-21)
(-0.0046810612 0.0036057953 -5.3044571e-21)
(-0.0051567247 0.0039539839 1.1755188e-25)
(-0.0056267941 0.0042738808 -7.4262739e-26)
(-0.0060878058 0.0045687201 2.7179924e-26)
(-0.0065015863 0.0048014738 -7.4609595e-23)
(-0.0068703099 0.0049774661 -3.3006419e-26)
(-0.0072407225 0.0051193122 3.3257595e-26)
(-0.0075849841 0.0052181043 5.0395604e-26)
(-0.0078467 0.0052438406 -2.8704896e-22)
(-0.0081031628 0.0051930692 6.3351534e-21)
(-0.0083320158 0.0051040647 8.8985649e-21)
(-0.0085039859 0.0049465947 1.1499604e-20)
(-0.008691551 0.0047652909 -2.0823535e-25)
(-0.0088714448 0.0045566272 -1.403181e-20)
(-0.0090617613 0.0043318056 1.5542872e-20)
(-0.0091797054 0.0040565006 -2.9856349e-25)
(-0.0093158063 0.0037765542 -2.5580243e-24)
(-0.0093442863 0.0034397467 1.1805777e-24)
(-0.009431474 0.0031144812 -9.98761e-21)
(-0.0093790512 0.0027348402 -4.2645647e-22)
(-0.0094367306 0.0023856767 0)
(-0.0093803145 0.0020013962 -9.9705731e-22)
(-0.0094563833 0.0016413329 4.7964912e-21)
(-0.0094618182 0.0012614761 9.2748561e-21)
(-0.0096093348 0.00089096459 -1.9843951e-21)
(-0.0097421329 0.00050872658 9.6950995e-25)
(-0.010583314 0.00014555509 1.1587376e-22)
(-0.012440895 3.0574159e-05 -1.6036002e-28)
(-0.013695137 2.766299e-05 2.9948033e-27)
(-0.014930619 1.7943283e-05 0)
(-0.015828552 1.5183104e-05 -1.3387654e-25)
(-0.016722918 1.3004947e-05 -8.3846436e-26)
(-0.017378459 1.0863221e-05 2.1771767e-25)
(-0.018011271 9.3129867e-06 -4.3217179e-25)
(-0.01848935 7.8307136e-06 -1.2738972e-25)
(-0.018940198 6.5764803e-06 5.5955238e-25)
(-0.019280112 5.4617449e-06 0)
(-0.019595887 4.5115831e-06 0)
(-0.019827463 3.6285769e-06 0)
(-0.020035866 2.8485355e-06 0)
(-0.020180009 2.235136e-06 0)
(-0.020304036 1.7743509e-06 0)
(-0.020378053 1.2440255e-06 0)
(-0.020434644 9.6147308e-07 -2.0969506e-24)
(-0.020452398 1.3019804e-07 2.096951e-24)
(-0.020454689 4.776702e-07 2.493901e-24)
(-0.02042635 -4.5215093e-07 -2.4939007e-24)
(-0.020383837 -5.5294428e-07 0)
(-0.020316955 -7.3833742e-07 0)
(-0.020238006 -7.0787914e-07 0)
(-0.02013966 -8.983534e-07 3.5153474e-24)
(-0.020031262 -1.0951337e-06 -3.5153557e-24)
(-0.019907341 -1.2811119e-06 0)
(-0.01977519 -1.3644521e-06 4.1323926e-24)
(-0.019630994 -1.4689385e-06 2.0468012e-25)
(-0.019480034 -1.8942019e-06 -8.8778616e-24)
(-0.019319879 -1.7137647e-06 4.5407774e-24)
(-0.019154393 -1.8042846e-06 0)
(-0.018981761 -2.1106327e-06 0)
(-0.018805009 -2.0375719e-06 0)
(-0.018622853 -1.8567357e-06 5.541174e-24)
(-0.018437947 -2.2989461e-06 -2.6728646e-24)
(-0.018249031 -2.3764165e-06 -2.8683478e-24)
(-0.018058074 -2.6209345e-06 0)
(-0.017864206 -2.3718659e-06 -3.1561472e-24)
(-0.01766882 -2.2564163e-06 6.406389e-24)
(-0.017471665 -2.6883894e-06 -3.2502425e-24)
(-0.017273585 -2.7033249e-06 -3.4359526e-24)
(-0.017073767 -2.5227519e-06 3.4359697e-24)
(-0.016873196 -2.6381371e-06 0)
(-0.016671674 -2.7961507e-06 -3.7080775e-24)
(-0.016469675 -2.8469804e-06 3.7080962e-24)
(-0.016266893 -2.7861638e-06 0)
(-0.016063787 -2.5855218e-06 0)
(-0.015860144 -3.0531076e-06 0)
(-0.01565624 -2.8175779e-06 0)
(-0.015451781 -2.804362e-06 4.2299913e-24)
(-0.01524702 -2.7481454e-06 -8.5444123e-24)
(-0.01504187 -2.9687332e-06 4.3144263e-24)
(-0.014836191 -2.8610833e-06 -4.4813322e-24)
(-0.014629909 -3.1215481e-06 4.4813521e-24)
(-0.01442301 -3.2413255e-06 0)
(-0.014215307 -3.1064553e-06 0)
(-0.014006938 -3.2428862e-06 0)
(-0.013797643 -3.1859645e-06 0)
(-0.013587351 -3.1377965e-06 0)
(-0.013375849 -3.1479063e-06 0)
(-0.013163223 -3.189975e-06 2.5643811e-24)
(-0.012949272 -3.3805868e-06 -2.5643957e-24)
(-0.01273393 -3.5401152e-06 -1.3215928e-24)
(-0.012517065 -3.5850755e-06 -1.9567533e-26)
(-0.01229874 -3.6630872e-06 1.3411751e-24)
(-0.012078878 -3.6816151e-06 -1.3800588e-24)
(-0.011857761 -3.6995441e-06 -1.9327104e-26)
(-0.011635262 -3.7186673e-06 1.399402e-24)
(-0.01141155 -3.7377595e-06 0)
(-0.011186421 -3.7586191e-06 -3.6424785e-25)
(-0.010959852 -3.7823156e-06 3.6425001e-25)
(-0.010731439 -3.8130658e-06 0)
(-0.010500917 -3.8455532e-06 -1.8925634e-25)
(-0.010268325 -3.8742463e-06 1.8925748e-25)
(-0.010034063 -3.899377e-06 0)
(-0.0097980675 -3.9239181e-06 -7.8529308e-25)
(-0.0095606033 -3.9466655e-06 7.8529806e-25)
(-0.0093215215 -3.9687325e-06 1.6079916e-24)
(-0.0090811567 -3.9895739e-06 -1.6080002e-24)
(-0.0088393198 -4.0097144e-06 0)
(-0.0085963623 -4.0275693e-06 0)
(-0.0083520861 -4.0448911e-06 0)
(-0.0081069329 -4.0674447e-06 -3.4010086e-24)
(-0.007860651 -4.0806033e-06 3.4010285e-24)
(-0.007613904 -4.0831433e-06 0)
(-0.0073660303 -4.0903914e-06 0)
(-0.0071180357 -4.094121e-06 0)
(-0.0068693304 -4.0952411e-06 0)
(-0.0066208959 -4.0939448e-06 0)
(-0.0063720055 -4.0910031e-06 0)
(-0.006123705 -4.0845616e-06 0)
(-0.0058752573 -4.0749764e-06 0)
(-0.0056279068 -4.062672e-06 7.5211219e-24)
(-0.0053806373 -4.0475202e-06 -7.5211647e-24)
(-0.005134946 -4.0253422e-06 0)
(-0.004889753 -4.0051528e-06 -7.730458e-24)
(-0.0046464987 -3.9805944e-06 7.7305002e-24)
(-0.0044036466 -3.9386224e-06 0)
(-0.0041651485 -4.1465515e-06 -7.9371373e-24)
(-0.0039237377 -4.1381414e-06 -8.0058766e-24)
(-0.0036868914 -3.843967e-06 8.0059251e-24)
(-0.0034534689 -3.7996805e-06 0)
(-0.0032228765 -3.7630327e-06 -8.2084549e-24)
(-0.0029933473 -3.7135093e-06 -6.6658014e-26)
(-0.0027687767 -3.6607951e-06 1.6616713e-23)
(-0.0025452008 -3.5980341e-06 -8.3415528e-24)
(-0.0023283067 -3.5396735e-06 0)
(-0.0021110986 -3.4686975e-06 8.5384907e-24)
(-0.0019023641 -3.3914612e-06 6.4954853e-26)
(-0.0016934289 -3.3295838e-06 -2.5939862e-23)
(-0.0014924412 -3.2406321e-06 1.7336416e-23)
(-0.0012932045 -3.1531505e-06 0)
(-0.0011026055 -3.0641617e-06 0)
(-0.00091285747 -2.9807254e-06 -1.7848037e-23)
(-0.00073345698 -2.8853396e-06 1.7848109e-23)
(-0.0005537032 -2.7966656e-06 1.8101129e-23)
(-0.0003863111 -2.6877389e-06 -3.6328429e-23)
(-0.00021770235 -2.5836203e-06 3.6580176e-23)
(-6.3661953e-05 -2.5318296e-06 -3.6831506e-23)
(9.2889906e-05 -2.4244975e-06 3.7082386e-23)
(0.00023164413 -2.3563218e-06 -1.8603825e-23)
(0.0003760772 -2.2164332e-06 0)