/*--------------------------------*- C++ -*----------------------------------*\
| =========                 |                                                 |
| \\      /  F ield         | OpenFOAM: The Open Source CFD Toolbox           |
|  \\    /   O peration     | Version:  2.4.0                                 |
|   \\  /    A nd           | Web:      www.OpenFOAM.org                      |
|    \\/     M anipulation  |                                                 |
\*---------------------------------------------------------------------------*/
FoamFile
{
    version     2.0;
    format      ascii;
    class       volScalarField;
    location    "380";
    object      k;
}
// * * * * * * * * * * * * * * * * * * * * * * * * * * * * * * * * * * * * * //

dimensions      [0 2 -2 0 0 0 0];

internalField   nonuniform List<scalar> 
19477
(
0.030533555
0.03049539
0.030458628
0.03043746
0.030443197
0.030486053
0.030573036
0.030708747
0.030894041
0.031124603
0.031388048
0.031669504
0.031955681
0.032234957
0.032497345
0.032733936
0.032936862
0.033099146
0.033214671
0.033278285
0.033285965
0.033234993
0.033124121
0.032953686
0.032725463
0.032442329
0.032108132
0.031727759
0.031307312
0.030854605
0.030379834
0.029895835
0.02941705
0.028958054
0.028532626
0.02815337
0.041328263
0.041055635
0.040763692
0.040451298
0.040117344
0.0397608
0.039380785
0.038976634
0.038548003
0.038095033
0.037618744
0.037122372
0.036610534
0.036088278
0.035560853
0.035033595
0.03451174
0.033999867
0.033501972
0.033023118
0.032565095
0.032138413
0.031754136
0.031424365
0.031158821
0.030957286
0.030813359
0.030717517
0.030659319
0.030625537
0.030606549
0.030589555
0.030570945
0.029830041
0.029800981
0.029774624
0.029763291
0.029778606
0.029830668
0.029926759
0.030071787
0.030267112
0.030509035
0.030785845
0.031083304
0.031388681
0.031690843
0.031980238
0.032248327
0.032487547
0.032691141
0.032853101
0.032968246
0.033032361
0.033042357
0.032996419
0.03289417
0.032736626
0.032525797
0.032264509
0.031956413
0.031606064
0.03121915
0.030802963
0.030366967
0.02992278
0.029483247
0.029061309
0.02866933
0.02831889
0.02802083
0.027783923
0.027614495
0.027515916
0.027488289
0.027528351
0.040485519
0.040188136
0.039873454
0.03954048
0.039188271
0.038815977
0.038422906
0.038008587
0.037572857
0.037116012
0.036639171
0.036145561
0.035639664
0.035126271
0.034610247
0.034096443
0.033589578
0.033093882
0.032613169
0.032150524
0.031709555
0.03129993
0.03093212
0.030617636
0.030365765
0.030176269
0.030042973
0.02995675
0.029907554
0.029882657
0.029872575
0.029864936
0.029856358
0.029110537
0.02909042
0.029073372
0.029070759
0.029094489
0.029154499
0.02925826
0.029410935
0.029614333
0.029865338
0.030152917
0.030463484
0.030784892
0.031106514
0.031419245
0.031714936
0.031986343
0.032226957
0.032430914
0.032593054
0.032709039
0.032775487
0.03279012
0.032751962
0.032661395
0.032519718
0.032328933
0.032091725
0.031811488
0.031492419
0.031139764
0.030760246
0.030362487
0.029956865
0.029554742
0.029167626
0.028806793
0.028483151
0.028206462
0.027984926
0.02782464
0.027729256
0.027699729
0.039564915
0.039247527
0.038914917
0.03856622
0.038200638
0.037817471
0.037416189
0.036996474
0.036558298
0.03610206
0.035628919
0.035142023
0.034645652
0.034144287
0.033642389
0.033144339
0.032654371
0.032176486
0.031714717
0.031269188
0.030846064
0.03045408
0.030103063
0.029803938
0.02956556
0.029387694
0.029264419
0.029187027
0.029145893
0.029128827
0.029126528
0.02912712
0.029127516
0.028377616
0.028365669
0.028356961
0.028362015
0.028393004
0.028459692
0.02856967
0.028728307
0.028937805
0.029195596
0.029491323
0.029812071
0.030146296
0.030483888
0.030816209
0.031135512
0.031434893
0.031708112
0.031949486
0.032153923
0.032317021
0.032435187
0.032505767
0.032527288
0.032499598
0.032423406
0.032300036
0.032131394
0.031919971
0.031668872
0.031381918
0.031063877
0.030720857
0.030360589
0.02999226
0.029625909
0.029271919
0.028940696
0.02864207
0.028384926
0.02817683
0.028023585
0.027929044
0.038571796
0.038239427
0.037893915
0.037534507
0.037160522
0.036771391
0.036366708
0.035946271
0.035510145
0.035058781
0.034593326
0.03411679
0.033633199
0.033146696
0.032661342
0.032181096
0.031709719
0.031250884
0.030808727
0.030381673
0.029977187
0.029603332
0.029269326
0.028985533
0.028760401
0.028593715
0.028479833
0.028410483
0.028376484
0.028366213
0.028370597
0.028378302
0.028386549
0.027633713
0.02762898
0.027627633
0.027639325
0.027676434
0.02774854
0.027863289
0.02802621
0.028239847
0.028502138
0.028803397
0.029131397
0.029475205
0.02982525
0.030173368
0.030512227
0.030835284
0.031136589
0.031410671
0.031652554
0.031857831
0.032022766
0.032144416
0.032220901
0.032251627
0.032236806
0.032177194
0.032074057
0.031929158
0.031744764
0.031523673
0.031269314
0.03098597
0.030679104
0.030355558
0.030023415
0.029691641
0.029369672
0.029066806
0.028791853
0.028552847
0.028356708
0.02820897
0.037513018
0.037170839
0.036817539
0.036452455
0.036075008
0.035684727
0.035281302
0.034864609
0.034434766
0.033992233
0.033538102
0.033075199
0.032607265
0.032138092
0.031671366
0.031210665
0.0307593
0.030320484
0.029898194
0.029490841
0.029105646
0.028750237
0.028433312
0.028164717
0.027952507
0.027796508
0.027691377
0.027629286
0.027601517
0.027597036
0.027607029
0.027620747
0.027635731
0.026881242
0.026882724
0.026887746
0.026905061
0.026947172
0.027023457
0.027141559
0.027307119
0.027522967
0.027787511
0.028091726
0.028424077
0.028774257
0.02913324
0.029493349
0.02984768
0.030190062
0.030514858
0.030816841
0.031091191
0.031333548
0.031540103
0.031707706
0.031834155
0.031918495
0.031960523
0.031960518
0.031919208
0.031837758
0.031717759
0.031561235
0.031370665
0.031149092
0.030900312
0.030629144
0.030341585
0.03004479
0.029746822
0.029455985
0.029180522
0.028928269
0.028706469
0.028521427
0.036396915
0.036050097
0.035694064
0.035328229
0.034952091
0.034565254
0.034167471
0.033758666
0.033338974
0.032908831
0.032469236
0.032022807
0.031572981
0.031123206
0.030676809
0.030237031
0.029806782
0.029388839
0.028986924
0.028599839
0.028234236
0.027897354
0.027597411
0.027343759
0.027144073
0.026998232
0.0269012
0.026845602
0.026823187
0.026823525
0.026838097
0.026856765
0.026877403
0.026122606
0.026129319
0.026139725
0.026161665
0.026207687
0.026286948
0.026407031
0.026573639
0.026789835
0.027054452
0.027359116
0.027692987
0.028046385
0.028410838
0.028779162
0.02914489
0.029502235
0.029845894
0.030170907
0.030472647
0.030746854
0.03098971
0.03119793
0.031369077
0.03150191
0.031595887
0.031650888
0.031667189
0.031645452
0.031586714
0.031492375
0.031364206
0.031204376
0.031015544
0.030801031
0.03056504
0.030312832
0.030050765
0.029785876
0.029525436
0.029276691
0.0290466
0.028841612
0.035233184
0.034886738
0.034532817
0.034170895
0.033800528
0.033421373
0.033033222
0.032636016
0.032229882
0.031815203
0.031392869
0.030965269
0.030535537
0.030106786
0.029682014
0.02926415
0.028855846
0.028459665
0.028078361
0.027711655
0.02736563
0.027047131
0.026763916
0.026524846
0.026337224
0.026200981
0.026111398
0.026061547
0.02604365
0.026047888
0.02606606
0.026088661
0.026113918
0.025360179
0.025371172
0.025386006
0.025411604
0.025460487
0.025541572
0.025662326
0.025828465
0.026043234
0.026305847
0.026608558
0.026941221
0.027294784
0.02766133
0.028034169
0.028407277
0.028775262
0.029133166
0.029476321
0.029800325
0.030101064
0.030374768
0.030618091
0.030828435
0.03100435
0.031145027
0.031250021
0.031319231
0.031352896
0.031351586
0.031316193
0.031247917
0.031148279
0.031019141
0.030862802
0.03068214
0.030480814
0.030263426
0.030035474
0.029803019
0.029572394
0.029349924
0.029141735
0.03403267
0.033691277
0.033343945
0.03299019
0.032629611
0.032261898
0.031886858
0.031504432
0.031114715
0.030718022
0.030315125
0.029908181
0.029500028
0.029093471
0.028691211
0.028295872
0.027910052
0.0275367
0.027175521
0.026828941
0.026502247
0.026201827
0.025934963
0.025710029
0.025533959
0.025406739
0.025323965
0.025279149
0.025264984
0.025272261
0.025293118
0.025318699
0.025347595
0.024596262
0.024610637
0.024628985
0.024657321
0.02470807
0.024789892
0.024910087
0.025074338
0.02528602
0.025544679
0.025843177
0.026172049
0.026522866
0.026888263
0.027262043
0.027638625
0.028013017
0.028380617
0.028737066
0.029078216
0.029400136
0.029699156
0.029971936
0.030215791
0.030429131
0.03061095
0.030760551
0.030877526
0.030961763
0.031013442
0.031033025
0.031021249
0.030979116
0.030907904
0.03080919
0.030684937
0.030537606
0.030370346
0.030187111
0.029992577
0.029791947
0.029590666
0.029394204
0.032807044
0.032474898
0.032138108
0.031796228
0.031448881
0.031095774
0.030736718
0.030371635
0.030000578
0.02962379
0.02924192
0.028856903
0.028471299
0.028087637
0.027708362
0.027335792
0.026972422
0.026621591
0.026280627
0.025953917
0.025646222
0.025363469
0.025112486
0.024901176
0.024736112
0.024617336
0.024540751
0.024500301
0.024489143
0.024498667
0.02452137
0.024549049
0.024580675
0.023833041
0.02384996
0.023870968
0.023901185
0.023952873
0.024034427
0.02415293
0.024313991
0.024521062
0.024773977
0.025066172
0.025388854
0.025734201
0.026095392
0.026466715
0.026843032
0.027219748
0.027592623
0.027957622
0.02831087
0.028648653
0.028967447
0.029263974
0.029535531
0.029780453
0.029997606
0.030186106
0.03034531
0.030474825
0.030574508
0.030644464
0.030685042
0.030696824
0.030680621
0.03063748
0.030568719
0.030475957
0.03036124
0.030227236
0.030077283
0.029915357
0.029745883
0.029573487
0.034618832
0.034331255
0.034037344
0.033738243
0.033435015
0.033128647
0.032820042
0.032509914
0.032198272
0.031884618
0.031568384
0.031249038
0.030926092
0.030599122
0.03026777
0.029931751
0.029590866
0.029245013
0.0288942
0.028538597
0.028178741
0.027816358
0.027453752
0.027093212
0.026736959
0.026387085
0.026045907
0.025716284
0.025395723
0.025088607
0.024799466
0.024533856
0.024298199
0.024099947
0.02394532
0.023834413
0.023763427
0.023726727
0.023717916
0.023728976
0.023752768
0.023781747
0.023815272
0.023072534
0.023091236
0.023114121
0.023145433
0.023197217
0.023277591
0.023393385
0.02355009
0.023751186
0.023996749
0.02428076
0.024595069
0.024932448
0.025286606
0.025652305
0.026024837
0.026400005
0.026773931
0.027142907
0.02750335
0.027851787
0.028184878
0.028499458
0.028792864
0.029063417
0.029309915
0.029531356
0.029726929
0.029896025
0.030038248
0.030153413
0.030241546
0.03030288
0.030337847
0.030347077
0.030331411
0.03029186
0.030229679
0.030146565
0.030044756
0.02992708
0.029796841
0.02965773
0.033263994
0.032984303
0.032699174
0.032409725
0.032116982
0.031821887
0.031525294
0.031227873
0.030929622
0.030630064
0.030328661
0.030024907
0.029718341
0.029408556
0.029095207
0.028778009
0.028456754
0.028131313
0.027801651
0.027467874
0.02713042
0.026790827
0.026451169
0.026113527
0.025779912
0.025452381
0.025133491
0.024823852
0.024523019
0.024234859
0.023963629
0.023714519
0.023493557
0.023307754
0.023162982
0.023059384
0.022993448
0.022959938
0.02295289
0.022964858
0.022989075
0.023018647
0.023053325
0.022316551
0.022336356
0.022360413
0.022392119
0.02244325
0.022521642
0.022633839
0.022785173
0.022979111
0.023215922
0.023490096
0.023794103
0.024121283
0.024465856
0.024823039
0.025188546
0.025558566
0.025929576
0.026298201
0.026661155
0.027015229
0.027357292
0.027684336
0.027993788
0.028284007
0.028553778
0.028802042
0.029027882
0.029230545
0.029409443
0.029564167
0.029694486
0.029800347
0.029881873
0.029939357
0.029973258
0.029984135
0.029972657
0.0299398
0.029886979
0.029816073
0.029729391
0.029629676
0.031887025
0.031619399
0.031347061
0.031071081
0.03079243
0.030511992
0.030230563
0.029948759
0.029666568
0.029383536
0.029099153
0.02881294
0.028524457
0.028233318
0.027939186
0.027641777
0.027340874
0.027036326
0.026728065
0.026416144
0.026100921
0.025783764
0.025466555
0.025151196
0.024839511
0.024533636
0.024236483
0.023945956
0.023664011
0.023394045
0.023139985
0.022906664
0.02269972
0.022525734
0.022390239
0.022293415
0.022232024
0.022201207
0.022195416
0.022207753
0.022231824
0.022261379
0.022296557
0.021566642
0.021586957
0.021611572
0.021643062
0.021692896
0.021768623
0.021876473
0.022021589
0.022207381
0.022434268
0.022697211
0.022989266
0.023304314
0.023637062
0.023983164
0.024338734
0.024700333
0.025064788
0.025429048
0.025790131
0.026145097
0.026491052
0.026825172
0.027145019
0.02744903
0.027736026
0.028004944
0.028254823
0.028484822
0.028694231
0.028882478
0.029049138
0.029193936
0.029316746
0.029417585
0.029496607
0.029554018
0.029590037
0.029605106
0.029600011
0.02957589
0.029534259
0.029477005
0.030507745
0.030255326
0.029998758
0.02973904
0.029477075
0.029213677
0.028949576
0.028685332
0.028420923
0.028155919
0.027889841
0.027622238
0.027352694
0.027080842
0.026806357
0.026528962
0.026248436
0.025964616
0.025677409
0.025386831
0.025093175
0.024797667
0.024502031
0.024208024
0.023917437
0.023632575
0.023355354
0.023083464
0.022819659
0.022567105
0.022329441
0.022111163
0.021917541
0.021754739
0.021627955
0.021537403
0.021480098
0.021451541
0.021446577
0.021458833
0.021482284
0.021511307
0.021546429
0.020824057
0.020844383
0.020869032
0.020899796
0.020947799
0.021020306
0.021123211
0.021261437
0.021438307
0.021654341
0.021904934
0.022183692
0.022485004
0.022804038
0.023136855
0.023479952
0.023830243
0.024184887
0.024541152
0.024896354
0.025247829
0.025592928
0.025929041
0.026253891
0.026566029
0.026864349
0.027147828
0.027415513
0.027666534
0.027900115
0.028115584
0.028312383
0.028490076
0.028648346
0.028786998
0.02890595
0.029005114
0.029084351
0.029143686
0.029183423
0.029204156
0.029206769
0.029192464
0.029144534
0.028909355
0.028670426
0.028428665
0.028184897
0.027939864
0.027694226
0.027448485
0.027202612
0.026956208
0.026708828
0.026460051
0.02620949
0.025956802
0.025701682
0.025443863
0.02518313
0.024919317
0.024652318
0.024382125
0.024108985
0.023834014
0.02355881
0.023285048
0.023014754
0.022750555
0.022491271
0.022237149
0.021990629
0.021754651
0.021532575
0.021328579
0.021147577
0.020995329
0.020876711
0.020791958
0.020738328
0.020711658
0.020707165
0.020718973
0.020741421
0.020769496
0.020804099
0.020089706
0.020109637
0.020133895
0.020163527
0.020209282
0.020278146
0.020375665
0.02050652
0.020673908
0.020878419
0.021115836
0.021380276
0.021666601
0.021970408
0.022288138
0.022616643
0.022953169
0.02329519
0.023640276
0.023986032
0.02433007
0.024669993
0.025003414
0.025328244
0.02564317
0.025947186
0.026239347
0.026518748
0.026784536
0.027035925
0.027272197
0.027492722
0.027696959
0.027884462
0.028054879
0.028207945
0.028343349
0.028460665
0.028559598
0.028640082
0.02870226
0.028746529
0.028773563
0.028784371
0.028779886
0.028761463
0.028730657
0.028689195
0.028638752
0.028581183
0.02851828
0.02845168
0.028382821
0.028312928
0.027813206
0.027596138
0.027375582
0.027152364
0.026927228
0.026700841
0.026473795
0.02624654
0.026019049
0.025790955
0.025561852
0.025331359
0.025099124
0.024864831
0.024628201
0.024388988
0.024146987
0.023902039
0.023654034
0.023402954
0.023149021
0.022893285
0.022637268
0.022382746
0.022132162
0.021886847
0.021644591
0.021407303
0.021177193
0.020956945
0.020749646
0.020559171
0.020390089
0.020247776
0.020136794
0.020057398
0.020007068
0.019981963
0.019977648
0.019988718
0.020009865
0.020036667
0.020070383
0.019364115
0.019383347
0.019406894
0.019435092
0.019478303
0.019543245
0.019635103
0.019758299
0.019915882
0.020108471
0.020332194
0.020581639
0.020852102
0.021139572
0.021440842
0.021753091
0.022073869
0.022400944
0.022732171
0.02306543
0.023398598
0.023729531
0.024056074
0.024376336
0.024689153
0.024993642
0.025288957
0.025574274
0.025848797
0.026111771
0.026362484
0.026600281
0.026824574
0.027034841
0.027230631
0.027411549
0.027577131
0.027726735
0.027859806
0.027975969
0.028075043
0.028157044
0.028222199
0.028270958
0.028303899
0.028321804
0.028325697
0.028316691
0.028296116
0.028265396
0.028226049
0.02817953
0.028127179
0.028070202
0.028009664
0.026525819
0.026326652
0.026124137
0.025919016
0.025711952
0.025503545
0.025294326
0.025084706
0.024874663
0.024663873
0.024451975
0.024238631
0.024023528
0.023806385
0.023586954
0.023365012
0.023140372
0.022912884
0.022682446
0.022449045
0.022212918
0.02197511
0.021737204
0.021501284
0.021269795
0.02104101
0.020815086
0.020593829
0.020379296
0.020173945
0.019980619
0.019802905
0.019645048
0.019512054
0.019408188
0.01933372
0.019286341
0.01926251
0.019258129
0.019268235
0.019287866
0.019313167
0.019345718
0.018647408
0.018665739
0.018688374
0.01871494
0.018755441
0.018816331
0.018902435
0.019017902
0.019165608
0.019346167
0.019556012
0.019790152
0.020044277
0.020314736
0.020598635
0.020893451
0.021197014
0.021507359
0.021822603
0.022140886
0.022460338
0.022779056
0.023095119
0.023406839
0.023713209
0.024013476
0.024306911
0.02459279
0.024870403
0.025139059
0.025398089
0.02564686
0.025884783
0.026111309
0.026325938
0.026528208
0.026717542
0.026893158
0.027054312
0.027200402
0.027330979
0.027445757
0.027544618
0.027627629
0.027694966
0.027746957
0.027784206
0.027807271
0.027817118
0.027814739
0.027801352
0.027778158
0.027746313
0.027706897
0.027660907
0.027609245
0.025289893
0.025107423
0.024921695
0.024733357
0.024543
0.024351159
0.024158321
0.023964866
0.023770787
0.023575806
0.023379613
0.023181913
0.022982436
0.022780938
0.0225772
0.022371024
0.022162244
0.021950724
0.021736384
0.021519257
0.021299662
0.021078762
0.020858501
0.020641239
0.020426418
0.020213062
0.020002526
0.019796432
0.019596624
0.019405335
0.019225175
0.019059458
0.018912122
0.018787822
0.01869054
0.018620562
0.018575781
0.018552945
0.018548282
0.018557262
0.018575249
0.018598929
0.018630138
0.017939306
0.017956626
0.017978287
0.018003127
0.018040897
0.018097792
0.018178264
0.018286185
0.018424241
0.018593005
0.018789163
0.019008102
0.01924586
0.019499106
0.019765229
0.020041972
0.020327414
0.020619835
0.020917588
0.021219053
0.021522593
0.02182654
0.022129195
0.022429074
0.022725325
0.023017328
0.023304477
0.023586163
0.023861775
0.024130712
0.024392376
0.024646188
0.024891595
0.025128066
0.025355099
0.025572201
0.025778744
0.025973864
0.026156701
0.026326486
0.02648258
0.026624466
0.026751761
0.02686422
0.026961692
0.027044171
0.027111814
0.027164845
0.027203665
0.02722905
0.02724188
0.027243075
0.027233555
0.027214212
0.027185905
0.027149436
0.02710555
0.024107121
0.023939546
0.023768751
0.023595328
0.023419807
0.023242675
0.023064399
0.022885333
0.022705488
0.022524631
0.022342501
0.022158846
0.021973434
0.021786054
0.021596512
0.021404635
0.021210279
0.021013346
0.020813818
0.020611853
0.020407977
0.020203712
0.02000127
0.019800794
0.019600766
0.019402157
0.01920626
0.019014521
0.018828599
0.01865053
0.01848271
0.018328201
0.018190647
0.018074372
0.01798309
0.017917111
0.017874529
0.017852377
0.01784724
0.017855032
0.017871378
0.01789347
0.017923263
0.01725037
0.017266647
0.017287391
0.017310598
0.017345881
0.017399148
0.017474492
0.017575512
0.017704689
0.017862522
0.018045883
0.018250468
0.018472619
0.01870928
0.018958088
0.019217019
0.019484373
0.019758641
0.020038388
0.020322204
0.020608664
0.02089631
0.021183653
0.021469398
0.021752847
0.022033508
0.022310894
0.022584513
0.022853863
0.023118442
0.023377737
0.023631252
0.02387849
0.024118977
0.024352235
0.024577791
0.024795008
0.025002985
0.025200799
0.025387598
0.025562611
0.025725159
0.02587466
0.026010643
0.026132679
0.026240541
0.026333998
0.026412943
0.026477388
0.026527919
0.026565039
0.026589415
0.02660173
0.026602666
0.026592908
0.026573121
0.026543934
0.022984045
0.022829065
0.022670969
0.022510286
0.022347503
0.022183088
0.02201746
0.021850951
0.021683608
0.02151523
0.021345583
0.021174459
0.021001648
0.020826969
0.020650249
0.020471349
0.020290172
0.020106713
0.019921117
0.019733792
0.019545697
0.019358585
0.019172525
0.01898634
0.01880038
0.018615744
0.018433625
0.018255334
0.018082387
0.017916656
0.017760355
0.017616321
0.017487941
0.017379239
0.017293685
0.017231599
0.017191243
0.017169904
0.017164505
0.017171389
0.017186393
0.0172071
0.01723552
0.016598862
0.016614162
0.016634052
0.016655791
0.016688846
0.016738825
0.016809506
0.016904243
0.01702533
0.017173193
0.017344853
0.017536266
0.01774402
0.017965287
0.018197906
0.018440044
0.018690183
0.018946987
0.0192092
0.019475589
0.019744909
0.020015883
0.020287212
0.020557767
0.020826987
0.021094494
0.021359909
0.021622854
0.021882921
0.022139717
0.02239281
0.022641802
0.022886257
0.023125785
0.023359943
0.023588329
0.023810308
0.024025003
0.024231484
0.024428903
0.02461638
0.024793149
0.024958487
0.025111755
0.025252355
0.02537978
0.025493575
0.025593415
0.025679074
0.025750713
0.025808635
0.025853354
0.025885321
0.025905005
0.025912902
0.025909517
0.025895346
0.021940892
0.02179619
0.021648513
0.021498367
0.02134619
0.021192488
0.021037626
0.020881917
0.020725378
0.020567868
0.020409162
0.020249084
0.020087436
0.019924071
0.019758851
0.019591706
0.019422666
0.019251935
0.019079954
0.018907464
0.01873569
0.018563961
0.018391344
0.018217987
0.018044833
0.017872901
0.017703279
0.017537172
0.017375981
0.017221445
0.017075627
0.016941175
0.01682126
0.016719652
0.016639604
0.016581426
0.016543506
0.016523327
0.016518056
0.016524371
0.01653836
0.016557864
0.016585024
0.01598999
0.016004434
0.016023514
0.016043911
0.016074889
0.016121762
0.01618804
0.016276865
0.016390371
0.016528936
0.01668974
0.016868972
0.017063427
0.017270465
0.01748808
0.01771459
0.017948619
0.018188971
0.01843453
0.018684211
0.018936923
0.019191543
0.019446921
0.019702081
0.019956565
0.020210097
0.020462398
0.020713175
0.020962124
0.021208926
0.021453255
0.021694775
0.021933151
0.022168037
0.022399089
0.022625933
0.022848018
0.023064509
0.023274494
0.023477093
0.023671455
0.023856767
0.024032259
0.024197219
0.024350959
0.024492768
0.024622041
0.024738124
0.024840555
0.024929214
0.025004316
0.025066085
0.025114779
0.025150685
0.025174127
0.02518545
0.025185002
0.020985056
0.020848586
0.020709405
0.020567977
0.020424734
0.020280069
0.020134352
0.019987888
0.019840692
0.019692613
0.019543474
0.019393094
0.019241332
0.019088077
0.018933301
0.018777082
0.018619691
0.018461677
0.018303743
0.018146375
0.01798827
0.017828442
0.017667078
0.017505022
0.017343159
0.01718242
0.017023805
0.016868431
0.016717604
0.01657295
0.016436402
0.016310449
0.01619807
0.016102814
0.016027744
0.015973161
0.015937559
0.015918579
0.015913561
0.015919429
0.015932559
0.015950958
0.015976972
0.015419285
0.01543298
0.015451325
0.015470517
0.015499613
0.015543638
0.015605861
0.015689227
0.01579573
0.015925707
0.016076491
0.016244491
0.016426688
0.016620605
0.016824366
0.01703641
0.017255472
0.017480468
0.017710395
0.017944286
0.018181174
0.018420068
0.018659944
0.018899956
0.019139736
0.019379093
0.019617838
0.019855755
0.020092632
0.020328219
0.020562282
0.020794541
0.021024751
0.021252608
0.02147785
0.021700131
0.021918987
0.022133624
0.022343165
0.022546714
0.022743475
0.02293262
0.023113383
0.023284994
0.02344668
0.023597676
0.0237373
0.023864743
0.023979344
0.024080877
0.024169265
0.024244442
0.024306508
0.024355579
0.024391819
0.024415422
0.0244266
0.020103629
0.01997447
0.019842817
0.019709106
0.019573764
0.0194371
0.019299473
0.019161179
0.019022276
0.018882606
0.018742041
0.018600444
0.018457763
0.018314012
0.01816936
0.018024139
0.01787882
0.017734214
0.017589731
0.017444241
0.017296247
0.017146115
0.016994572
0.016842405
0.016690423
0.016539483
0.016390515
0.016244561
0.016102844
0.015966891
0.015838521
0.015720079
0.015614376
0.015524763
0.015454132
0.015402773
0.015369275
0.015351416
0.015346678
0.015352187
0.015364582
0.015381991
0.015406958
0.014882915
0.01489596
0.014913648
0.014931766
0.014959176
0.015000624
0.015059157
0.015137541
0.015237635
0.01535974
0.01550133
0.015659015
0.015829951
0.016011803
0.016202811
0.016401517
0.016606746
0.016817503
0.017032875
0.017251988
0.017473975
0.017697951
0.017923008
0.018148399
0.018373838
0.018599198
0.018824357
0.019049178
0.019273513
0.019497198
0.019720054
0.019941888
0.020162499
0.020381668
0.020599163
0.020814716
0.021027888
0.021237951
0.021444086
0.021645459
0.021841251
0.022030648
0.022212844
0.022387057
0.02255246
0.022708239
0.022853627
0.022987867
0.023110223
0.023220298
0.02331786
0.023402752
0.023474876
0.02353416
0.023580593
0.023614235
0.023635168
0.019284214
0.01916212
0.019037666
0.018911275
0.018783336
0.018654203
0.018524207
0.018393629
0.018262535
0.018130843
0.017998481
0.017865443
0.017731824
0.017597859
0.017463903
0.017330493
0.017197654
0.017064376
0.016929726
0.016792542
0.016652888
0.016511237
0.016368286
0.016224768
0.016081436
0.015939088
0.015798595
0.015660933
0.015527252
0.015398991
0.015277866
0.015166092
0.015066328
0.014981744
0.014915076
0.014866601
0.014834994
0.014818152
0.014813685
0.014818892
0.014830648
0.014847171
0.014871185
0.014377574
0.014390053
0.014407162
0.014424327
0.014450235
0.014489365
0.014544562
0.014618422
0.014712682
0.014827608
0.014960797
0.015109045
0.015269665
0.015440454
0.015619756
0.0158062
0.015998691
0.016196304
0.016398202
0.016603587
0.016811673
0.01702166
0.017232735
0.017444233
0.017655927
0.017867741
0.018079601
0.018291426
0.018503124
0.018714593
0.018925714
0.019136359
0.019346388
0.019555648
0.019763964
0.019971128
0.020176757
0.020380188
0.020580665
0.020777407
0.020969629
0.021156533
0.02133732
0.021511199
0.021677327
0.021834855
0.021982958
0.022120773
0.022247512
0.022362727
0.022466136
0.022557493
0.022636577
0.0227032
0.022757241
0.022798626
0.022827313
0.018521112
0.018405618
0.018287958
0.018168525
0.018047683
0.017925773
0.017803125
0.01768003
0.017556603
0.01743286
0.017308865
0.017184789
0.017060857
0.016937438
0.016814735
0.016691962
0.016568392
0.016442841
0.016315048
0.016184924
0.016052526
0.015918292
0.015782873
0.015646954
0.015511241
0.015376481
0.015243489
0.015113186
0.014986655
0.014865254
0.014750605
0.014644807
0.014550375
0.014470315
0.014407219
0.01436135
0.014331455
0.014315541
0.014311334
0.014316283
0.014327481
0.014343215
0.01436636
0.013900398
0.013912391
0.013928991
0.013945316
0.01396989
0.01400694
0.014059126
0.014128889
0.014217852
0.014326243
0.014451775
0.014591408
0.0147426
0.014903266
0.015071844
0.015247041
0.015427832
0.015613353
0.015802827
0.015995521
0.016190714
0.016387681
0.016585683
0.016784126
0.016982828
0.017181751
0.01738086
0.017580113
0.017779463
0.017978851
0.018178208
0.018377454
0.018576503
0.018775254
0.018973586
0.019171348
0.019368216
0.019563598
0.019756806
0.019947121
0.020133804
0.020316098
0.020493227
0.020664415
0.020828817
0.020985577
0.021133842
0.021272707
0.021401337
0.021519219
0.021625968
0.021721265
0.021804825
0.021876401
0.021935798
0.021982846
0.022017411
0.017811662
0.017702316
0.017591002
0.017478096
0.017363953
0.017248927
0.017133378
0.017017651
0.016901955
0.016786467
0.016671293
0.016556755
0.016442891
0.016329068
0.016214688
0.016098975
0.015981295
0.015861598
0.015739811
0.015615886
0.015489876
0.015362193
0.015233448
0.015104282
0.014975357
0.014847375
0.014721103
0.014597408
0.014477313
0.014362104
0.014253314
0.014152933
0.014063349
0.01398741
0.013927577
0.013884096
0.01385578
0.013840732
0.013836784
0.013841521
0.013852237
0.013867272
0.01388963
0.013448911
0.013460489
0.013476649
0.013492237
0.013515628
0.013550812
0.01360028
0.013666333
0.013750485
0.013852932
0.013971487
0.014103263
0.014245845
0.014397259
0.014556025
0.014720923
0.014890986
0.015065405
0.015243455
0.015424456
0.015607745
0.015792654
0.01597851
0.016164777
0.016351309
0.016538095
0.016725131
0.016912406
0.017099904
0.017287604
0.017475471
0.017663465
0.017851541
0.018039637
0.018227681
0.018415563
0.018603016
0.018789514
0.018974437
0.019157129
0.01933691
0.019513072
0.019684877
0.019851581
0.02001236
0.020166367
0.020312749
0.020450586
0.020579018
0.020697488
0.020805553
0.020902834
0.020988984
0.021063678
0.021126647
0.021177663
0.021216535
0.017152084
0.017048466
0.016943116
0.016836424
0.016728772
0.016620549
0.016512198
0.016404087
0.016296424
0.01618963
0.016083356
0.015977108
0.015870464
0.015762832
0.015653546
0.015542624
0.015429941
0.015315412
0.015198972
0.015080582
0.014960292
0.014838491
0.014715752
0.014592679
0.014469892
0.014348052
0.014227884
0.014110206
0.013995985
0.013886437
0.013783018
0.013687614
0.013602492
0.013530359
0.01347355
0.013432293
0.013405459
0.013391239
0.013387566
0.013392143
0.013402452
0.013416873
0.013438521
0.013020973
0.013032205
0.013047986
0.01306293
0.013085275
0.013118784
0.013165797
0.013228483
0.013308259
0.013405292
0.013517485
0.013642088
0.013776807
0.013919765
0.014069557
0.014225027
0.014385263
0.014549501
0.014717063
0.014887315
0.015059641
0.015233424
0.015408045
0.015583016
0.01575822
0.015933667
0.016109373
0.016285353
0.016461615
0.016638164
0.016814995
0.016992098
0.017169457
0.017347048
0.017524829
0.017702731
0.017880532
0.018057765
0.018233871
0.018408257
0.0185803
0.018749344
0.0189147
0.019075662
0.019231443
0.019381221
0.019524161
0.019659349
0.019785923
0.019903304
0.020011012
0.020108629
0.020195758
0.020272026
0.020337109
0.020390725
0.020432629
0.01653847
0.016440405
0.016340924
0.016240482
0.016139446
0.016038178
0.015937254
0.015836908
0.015736928
0.015636928
0.015536664
0.015435558
0.015333172
0.015229513
0.015124437
0.015017858
0.014909686
0.014799843
0.014688267
0.014574921
0.014459855
0.014343432
0.014226193
0.014108708
0.01399156
0.013875375
0.013760834
0.013648711
0.013539923
0.013435622
0.013337188
0.013246412
0.01316545
0.013096875
0.013042905
0.013003751
0.012978332
0.012964923
0.012961547
0.01296602
0.012975996
0.012989886
0.013010898
0.012614743
0.012625692
0.01264115
0.012655536
0.012676955
0.012708957
0.012753746
0.012813369
0.012889155
0.012981243
0.013087622
0.013205667
0.013333192
0.013468412
0.01360999
0.013756829
0.013908061
0.014062967
0.014220908
0.014381289
0.014543535
0.014707074
0.014871332
0.015035862
0.015200569
0.015365478
0.015530622
0.015696031
0.015861733
0.016027753
0.016194107
0.01636081
0.01652787
0.016695287
0.01686305
0.017031119
0.017199309
0.017367208
0.017534311
0.017700082
0.017863952
0.018025317
0.018183539
0.018337955
0.018487819
0.018632347
0.01877073