/*--------------------------------*- C++ -*----------------------------------*\
| =========                 |                                                 |
| \\      /  F ield         | OpenFOAM: The Open Source CFD Toolbox           |
|  \\    /   O peration     | Version:  2.4.0                                 |
|   \\  /    A nd           | Web:      www.OpenFOAM.org                      |
|    \\/     M anipulation  |                                                 |
\*---------------------------------------------------------------------------*/
FoamFile
{
    version     2.0;
    format      ascii;
    class       volScalarField;
    location    "330";
    object      k;
}
// * * * * * * * * * * * * * * * * * * * * * * * * * * * * * * * * * * * * * //

dimensions      [0 2 -2 0 0 0 0];

internalField   nonuniform List<scalar> 
19477
(
0.032328792
0.032271144
0.032214973
0.032172465
0.032154407
0.032170102
0.032225676
0.032325043
0.0324686
0.032652055
0.03286384
0.033090147
0.033318658
0.033538649
0.033740895
0.033917182
0.034060242
0.034163623
0.034221653
0.034229544
0.034183558
0.034081173
0.033921254
0.033704154
0.033431548
0.033106162
0.032731699
0.03231291
0.031855769
0.031367941
0.030859535
0.030343546
0.029834871
0.029348632
0.02889908
0.0284992
0.042636588
0.04239115
0.04212776
0.04184518
0.041542185
0.041217605
0.040870396
0.040499706
0.040104977
0.039686106
0.039243818
0.038780923
0.038301581
0.037810442
0.037312454
0.03681277
0.036316573
0.035828499
0.035352819
0.034895134
0.034454945
0.034042583
0.033668749
0.033345109
0.033081034
0.032876482
0.032725415
0.032618749
0.032546545
0.032496234
0.032458983
0.032422614
0.032385027
0.031671554
0.031624242
0.031579551
0.031547976
0.031540652
0.031566809
0.031632857
0.031743004
0.031898111
0.032094435
0.032320989
0.032564511
0.032813174
0.033056695
0.033286257
0.033494004
0.033672976
0.033816955
0.033920406
0.033978555
0.033987521
0.033944469
0.03384776
0.033697091
0.033493427
0.033238664
0.032935497
0.03258745
0.032198949
0.031775543
0.03132437
0.03085482
0.030378684
0.029909216
0.029459833
0.029043307
0.028671562
0.02835576
0.028104919
0.027925507
0.027820927
0.027791161
0.027832666
0.041856011
0.041587131
0.041302016
0.040999561
0.040678692
0.040338412
0.039977862
0.039596381
0.039193597
0.038769577
0.038325172
0.037863234
0.03738786
0.036903527
0.036414881
0.03592666
0.035443564
0.034969759
0.034509049
0.034065773
0.033640852
0.033243968
0.032885361
0.032576185
0.032325433
0.03213303
0.031993114
0.031896921
0.03183482
0.031794648
0.031767632
0.031741955
0.031715659
0.030996362
0.030959249
0.030925077
0.030903476
0.030905894
0.030941447
0.031016752
0.031136263
0.03130126
0.031508511
0.031747614
0.03200586
0.03227193
0.032535986
0.032789624
0.033025354
0.033236532
0.033417191
0.03356196
0.033666119
0.033725704
0.033737641
0.033699886
0.033611597
0.033473157
0.033285799
0.033051426
0.032772612
0.032452634
0.032095567
0.031706511
0.031292032
0.030860692
0.030423034
0.029990779
0.029575843
0.029189865
0.028844081
0.028548516
0.028311577
0.028139491
0.028035942
0.028001808
0.041001751
0.040713637
0.040411058
0.040093029
0.039758616
0.039406971
0.039037396
0.038649389
0.03824273
0.037817607
0.037374952
0.036917593
0.036449497
0.035974907
0.035498129
0.035023473
0.034555164
0.034097159
0.033653462
0.033225027
0.032816005
0.032435117
0.03209204
0.031797403
0.03155982
0.031379199
0.031249879
0.031163443
0.031110589
0.031079602
0.03106181
0.03104582
0.03102987
0.030305214
0.030277619
0.03025311
0.030240569
0.030251732
0.030295595
0.030378918
0.03050636
0.030679567
0.03089579
0.031145203
0.031415663
0.031696365
0.031977928
0.032252364
0.032512553
0.032752176
0.032965533
0.033147443
0.033293275
0.033399037
0.033461485
0.033478253
0.033448059
0.033370808
0.033247192
0.033078481
0.032866498
0.032613641
0.032322909
0.031998004
0.031643542
0.031265478
0.03087149
0.030470909
0.030074084
0.029691757
0.029334668
0.029012924
0.02873563
0.028510523
0.02834351
0.028238479
0.040078299
0.039775373
0.039459757
0.039130575
0.038787015
0.038428359
0.038054043
0.037663694
0.037257204
0.036834847
0.036397579
0.035948152
0.035490347
0.035028132
0.034565459
0.034106237
0.033654222
0.033213141
0.032787321
0.032374808
0.031982368
0.031617942
0.031290621
0.031010526
0.030785903
0.030616664
0.03049737
0.030419968
0.030375514
0.030352767
0.030343198
0.030335887
0.030329272
0.029599985
0.029581059
0.029565343
0.029560957
0.029579873
0.029630955
0.029721052
0.029854988
0.030034726
0.030257967
0.030515453
0.030795617
0.031088174
0.031384202
0.031676136
0.031957233
0.032221503
0.032463526
0.032678335
0.032861425
0.033008822
0.033117175
0.033183874
0.033207281
0.033186912
0.033123015
0.033016338
0.032868107
0.032680022
0.032454269
0.032193551
0.031901179
0.031581288
0.031239191
0.03088168
0.030516956
0.030154257
0.02980334
0.029473789
0.029174643
0.028914115
0.028699257
0.028535689
0.039091315
0.038778112
0.038453954
0.038118061
0.037769723
0.037408335
0.037033438
0.036644759
0.036242269
0.035826285
0.035397748
0.034959283
0.034514447
0.034066907
0.033620274
0.033178095
0.03274368
0.032320346
0.031912295
0.03151717
0.031142036
0.030794444
0.030483002
0.030217366
0.030005434
0.029847138
0.029737284
0.029668195
0.029631305
0.02961587
0.02961354
0.029613906
0.029615611
0.028882549
0.028871395
0.028863577
0.028866442
0.028892124
0.02894934
0.029044976
0.02918398
0.029368588
0.029596916
0.029860263
0.030147641
0.030449291
0.030756757
0.031062895
0.031361341
0.031646444
0.031913076
0.0321565
0.03237237
0.032556773
0.032706311
0.0328182
0.032890526
0.03292249
0.032913975
0.032865304
0.032777209
0.032650831
0.032487715
0.032289815
0.032059528
0.03179978
0.031514226
0.031207544
0.030885678
0.030555887
0.030226477
0.029906017
0.029602985
0.029325401
0.029080655
0.02887515
0.038047604
0.037728662
0.037400412
0.037062159
0.036713282
0.036353264
0.035981729
0.035598475
0.035203518
0.034797183
0.034380364
0.033955522
0.033525962
0.033095046
0.032666059
0.032242225
0.031826462
0.031421676
0.031031721
0.030654695
0.030297274
0.029966687
0.029671107
0.029419751
0.029220178
0.029072354
0.028971343
0.028909851
0.028879704
0.028870675
0.028874623
0.028881683
0.02889071
0.0281548
0.028150513
0.028149694
0.028158907
0.028190375
0.028252655
0.028352616
0.028495291
0.028683144
0.028914668
0.029181708
0.029473858
0.029781885
0.030097799
0.030414879
0.030727141
0.031029277
0.031316458
0.031584197
0.03182833
0.032045049
0.032230958
0.032383168
0.03249956
0.032579091
0.032621351
0.03262631
0.032594298
0.032525993
0.032422425
0.032284961
0.032115317
0.031915588
0.031688326
0.03143672
0.031164843
0.030877914
0.030582388
0.030285492
0.029994712
0.029717485
0.029460918
0.029231571
0.03695504
0.036634771
0.03630672
0.035970259
0.035624841
0.035270019
0.034905476
0.034531055
0.03414679
0.033752987
0.033350461
0.032941491
0.032529117
0.032116401
0.031706324
0.031301807
0.030905538
0.030520308
0.030148614
0.029789905
0.029450305
0.029136699
0.028856833
0.028619486
0.028431885
0.028294033
0.028201258
0.028146658
0.028122458
0.028118958
0.028128258
0.028141055
0.028156431
0.027418641
0.027420332
0.027425619
0.027440287
0.02747658
0.027542875
0.02764598
0.027790972
0.027980496
0.028213388
0.028482024
0.028776576
0.029088334
0.029409776
0.029734599
0.0300572
0.030372613
0.030676316
0.030964084
0.03123196
0.031476273
0.031693678
0.031881239
0.032036702
0.032158846
0.032247031
0.032300945
0.032320585
0.032306251
0.032258546
0.032178366
0.032066895
0.031925612
0.031756318
0.031561216
0.031343063
0.031105418
0.030852857
0.030590955
0.030325913
0.030064229
0.029812375
0.029576595
0.035822417
0.035504989
0.035181143
0.034850313
0.034512009
0.034165833
0.033811513
0.033448908
0.033078051
0.032699205
0.032313095
0.031921802
0.031528105
0.031134784
0.030744544
0.030360004
0.029983824
0.029619259
0.029265522
0.028925044
0.028603187
0.0283064
0.028041997
0.027818316
0.027642253
0.027513851
0.02742871
0.027380313
0.027361293
0.027362483
0.027376245
0.027393861
0.027414648
0.026675962
0.026682768
0.026693289
0.026712539
0.026752721
0.026822019
0.026927133
0.027073143
0.027262836
0.02749535
0.027763576
0.028058256
0.028371201
0.028695349
0.029024813
0.029354365
0.029679382
0.02999565
0.030299217
0.03058635
0.030853542
0.031097544
0.031315425
0.03150486
0.031664508
0.031793563
0.031891495
0.031958031
0.031993162
0.031997142
0.031970478
0.031913926
0.031828485
0.031715406
0.031576217
0.031412801
0.031227533
0.031023499
0.030804635
0.03057566
0.030341877
0.030108844
0.029882142
0.034659249
0.034348455
0.034032426
0.033710644
0.033382663
0.033048122
0.032706769
0.03235847
0.032003235
0.031641276
0.031273216
0.030900942
0.03052698
0.030153861
0.029784049
0.029419866
0.029063894
0.028719772
0.028384348
0.028062065
0.027757804
0.027477588
0.027228313
0.027017895
0.026852901
0.026733417
0.026655312
0.026612455
0.026597885
0.02660297
0.026620354
0.026641913
0.026667215
0.02592861
0.025939701
0.025954615
0.025977609
0.026020782
0.026092116
0.02619816
0.026343962
0.026532406
0.026762898
0.027028822
0.027321481
0.027633197
0.027957362
0.028288494
0.028621737
0.028952804
0.029277792
0.029593023
0.029895005
0.030180419
0.030446142
0.030689299
0.030907549
0.031099487
0.031264198
0.031400992
0.031509391
0.031589139
0.031640205
0.031662775
0.031657257
0.031624264
0.03156462
0.03147936
0.031369767
0.031237417
0.031084318
0.030913098
0.030727071
0.03053023
0.030327061
0.030122275
0.036319645
0.036052972
0.035780252
0.035502481
0.03522058
0.034935405
0.034647733
0.034358169
0.034066652
0.033772631
0.033475489
0.033174637
0.032869532
0.032559695
0.032244714
0.031924251
0.031598063
0.031266009
0.030928069
0.030584397
0.030235519
0.029883133
0.02952953
0.029177024
0.028827871
0.028484216
0.028148543
0.027823754
0.027507022
0.027202853
0.026915932
0.026651935
0.02641738
0.026219767
0.026065344
0.025954238
0.025882587
0.025844638
0.025833832
0.025842066
0.025862286
0.025886968
0.025915936
0.025178354
0.025192944
0.025211451
0.02523739
0.025282705
0.025355162
0.025461128
0.025605581
0.025791464
0.026018411
0.026280277
0.026568914
0.026877142
0.027198795
0.027528787
0.027862624
0.02819635
0.028526365
0.028849272
0.029161823
0.029460906
0.029743555
0.030006989
0.030248896
0.030467861
0.03066291
0.03083325
0.030978256
0.031097485
0.03119068
0.031257771
0.031298878
0.0313143
0.031304518
0.031270186
0.031212147
0.031131419
0.031029261
0.030907358
0.030767927
0.030613759
0.030448171
0.03027489
0.035036105
0.034775279
0.034509125
0.034238631
0.033964705
0.03368818
0.033409808
0.033130171
0.032849211
0.032566411
0.03228119
0.031992999
0.03170133
0.031405736
0.031105828
0.030801283
0.030491862
0.030177409
0.029857872
0.029533349
0.029204278
0.02887218
0.028539143
0.028207287
0.027878675
0.02755556
0.027240918
0.026934216
0.026635683
0.026349211
0.026079199
0.025830962
0.025610641
0.025425331
0.025280962
0.025177698
0.02511194
0.025078301
0.025070621
0.025081317
0.025103646
0.025130687
0.025162532
0.024426845
0.0244442
0.024465548
0.024493686
0.024540351
0.024613089
0.02471805
0.024860112
0.025042238
0.025264256
0.025520467
0.025803252
0.026105915
0.026422721
0.026748963
0.027080499
0.027413692
0.027745242
0.028072025
0.028391046
0.02869941
0.028994327
0.029273142
0.029533617
0.029774366
0.029994402
0.03019288
0.030369083
0.030522436
0.030652515
0.030759051
0.030841934
0.030901211
0.030937082
0.030949899
0.030940163
0.030908474
0.030855551
0.030782407
0.030690462
0.030581579
0.030458055
0.030322633
0.033720931
0.033469769
0.03321387
0.032954199
0.032691631
0.032426966
0.032160921
0.031894045
0.031626284
0.031357151
0.031086102
0.030812621
0.030536233
0.030256518
0.029973106
0.029685686
0.029394016
0.029097928
0.02879734
0.028492306
0.028183181
0.027871337
0.027558689
0.027247195
0.026938789
0.0266359
0.026341645
0.026052697
0.025771849
0.025502591
0.02524898
0.025015979
0.024809363
0.024635824
0.024500979
0.024405028
0.024344625
0.024314741
0.0243096
0.024322128
0.024345906
0.024374606
0.024408598
0.023675581
0.023695022
0.023718518
0.023748167
0.023795457
0.023867711
0.023970835
0.024109575
0.024286884
0.024502745
0.024751879
0.025027178
0.025322411
0.025632252
0.025952365
0.02627894
0.02660865
0.026938482
0.027265583
0.027587206
0.02790068
0.028203408
0.028492885
0.028766979
0.029024364
0.029264082
0.02948528
0.029687196
0.029869177
0.030030688
0.030171312
0.030290768
0.030388902
0.030465694
0.030521248
0.030555794
0.030569609
0.030563
0.030536488
0.030490911
0.030427433
0.030347576
0.030253226
0.032390804
0.03215233
0.031909586
0.031663495
0.031414888
0.031164518
0.030913056
0.030661014
0.030408339
0.030154576
0.029899214
0.029641773
0.029381807
0.029118921
0.028852765
0.028583039
0.028309501
0.028031975
0.027750358
0.027464664
0.027175189
0.026883179
0.026590417
0.02629874
0.026010202
0.025727644
0.025451573
0.025180318
0.024916754
0.024664199
0.024426431
0.024208095
0.024014614
0.023852292
0.023726437
0.023637282
0.023581724
0.023555077
0.023551942
0.023565737
0.023590367
0.023620096
0.023655571
0.022925857
0.02294677
0.022971783
0.023002322
0.02304959
0.023120683
0.023221242
0.023355856
0.023527434
0.023736084
0.023976917
0.024243311
0.024529478
0.024830489
0.025142352
0.025461577
0.025785133
0.026110278
0.026434423
0.026755064
0.027069756
0.0273761
0.027671762
0.027954738
0.028223792
0.028478021
0.0287166
0.028938768
0.02914384
0.029331215
0.029500386
0.029650949
0.029782605
0.029895162
0.029988535
0.030062736
0.030117785
0.030153661
0.030170503
0.030168706
0.030148932
0.030112112
0.030059478
0.031061806
0.030838168
0.030610607
0.030379985
0.030147079
0.029912586
0.029677128
0.029441174
0.029204673
0.028967202
0.028728288
0.028487484
0.02824438
0.027998604
0.027749831
0.027497772
0.027242196
0.026982921
0.026719833
0.026452921
0.026182439
0.025909549
0.025635951
0.025363479
0.025094469
0.02483175
0.024572683
0.024318421
0.024071518
0.023835042
0.023612492
0.023408203
0.023227257
0.023075578
0.022958177
0.022875311
0.022824113
0.022800227
0.022798614
0.02281317
0.022838124
0.02286832
0.022904681
0.02217872
0.022200561
0.022226535
0.02225742
0.022304104
0.022373456
0.022470839
0.022600661
0.022765759
0.022966332
0.023197853
0.023454162
0.023729888
0.024020474
0.024322258
0.024632048
0.02494709
0.025264904
0.025583149
0.025899557
0.026211905
0.026517998
0.02681568
0.027103092
0.027379107
0.0276429
0.027893703
0.028130787
0.028353475
0.028561147
0.028753249
0.028929306
0.02908892
0.02923178
0.029357659
0.029466404
0.029557831
0.029631661
0.029687735
0.029726103
0.029747024
0.029750983
0.029738717
0.029711244
0.029669606
0.029615198
0.029549612
0.029474588
0.029391845
0.029303248
0.029210591
0.029115511
0.029019446
0.028923629
0.029748569
0.02954098
0.029329698
0.029115518
0.028899149
0.028681233
0.028462336
0.028242892
0.028022853
0.027801831
0.027579397
0.027355143
0.027128693
0.02689971
0.026667891
0.026432969
0.026194724
0.025952979
0.025707618
0.02545862
0.025206234
0.024951592
0.024696411
0.02444285
0.0241936
0.023948318
0.023705727
0.023467808
0.023236913
0.023015851
0.022807854
0.02261696
0.02244792
0.022306296
0.022196805
0.022119729
0.022072426
0.022050856
0.022050329
0.022065195
0.022090011
0.022120184
0.022156909
0.021434924
0.02145723
0.021483692
0.021514458
0.02156009
0.021627236
0.021720963
0.021845481
0.022003531
0.022195374
0.022416812
0.022662115
0.022926305
0.023205176
0.02349537
0.023793975
0.024098497
0.024406699
0.024716473
0.025025778
0.025332606
0.025634963
0.025930877
0.026218646
0.02649726
0.026765986
0.027024134
0.027271033
0.027506044
0.027728566
0.027938038
0.028133954
0.028315866
0.02848339
0.0286362
0.02877403
0.028896543
0.029003265
0.029093797
0.029167911
0.02922556
0.029266881
0.029292209
0.029302072
0.029297139
0.029278271
0.029246554
0.029203165
0.029149453
0.02908688
0.029016975
0.028941203
0.028860916
0.028777342
0.02869156
0.02846333
0.028272054
0.028077209
0.027879518
0.027679627
0.027478121
0.027275522
0.027072229
0.026868208
0.026663115
0.026456563
0.026248191
0.026037664
0.025824677
0.025608959
0.025390265
0.02516839
0.024943171
0.024714503
0.024482393
0.024247139
0.024009939
0.023772745
0.023538141
0.023307299
0.023077926
0.02285121
0.022629002
0.022413441
0.022207095
0.022012952
0.021834767
0.021676978
0.021544795
0.021442659
0.021370872
0.021327008
0.021307331
0.021307488
0.021322269
0.021346552
0.021376293
0.021412932
0.020694883
0.020717279
0.020743861
0.020774133
0.020818354
0.020882955
0.020972699
0.021091584
0.021242232
0.021424933
0.021635785
0.021869457
0.022121336
0.022387537
0.022664984
0.022951028
0.023243411
0.023540123
0.023839275
0.024139038
0.024437608
0.024733189
0.025023992
0.025308475
0.02558575
0.025855186
0.026116181
0.02636814
0.026610486
0.02684266
0.02706413
0.027274396
0.027472997
0.027659517
0.027833579
0.027994841
0.028142866
0.028277039
0.028396782
0.028501655
0.028591363
0.028665765
0.028724879
0.028768888
0.028798091
0.028812934
0.028814091
0.028802245
0.028778391
0.028743581
0.02869906
0.028646052
0.028585739
0.028519233
0.02844756
0.028371656
0.027215023
0.027039405
0.026860269
0.026678268
0.026493995
0.026307987
0.02612073
0.025932601
0.025743584
0.025553382
0.02536166
0.025168102
0.024972412
0.024774323
0.024573593
0.02437
0.02416336
0.023953537
0.023740472
0.023524266
0.023305375
0.023085247
0.022866219
0.022649985
0.022434937
0.022220927
0.022009477
0.021802303
0.021601351
0.021408977
0.021227942
0.021061738
0.020914503
0.020791115
0.020695747
0.020628725
0.020587833
0.020569629
0.020570097
0.020584454
0.020607892
0.020636895
0.02067309
0.019958658
0.019980855
0.020007318
0.02003681
0.020079396
0.020141283
0.020226915
0.020340067
0.020483222
0.020656669
0.020856762
0.021078527
0.021317685
0.021570648
0.021834599
0.022107126
0.022386191
0.022669992
0.022956841
0.023245107
0.02353318
0.02381945
0.024102308
0.024380374
0.02465288
0.024919299
0.025179123
0.025431843
0.025676958
0.025913975
0.026142408
0.026361794
0.026571692
0.026771687
0.026961386
0.027140415
0.027308277
0.027464268
0.027607689
0.027737943
0.027854551
0.027957154
0.028045524
0.028119561
0.02817926
0.028224755
0.028256324
0.028274328
0.028279273
0.028271981
0.028253388
0.02822446
0.028186156
0.028139416
0.028085142
0.028024183
0.027957331
0.026007762
0.025846434
0.025681609
0.025513889
0.025343821
0.025171908
0.024998609
0.024824289
0.024648954
0.024472355
0.024294204
0.024114226
0.023932165
0.023747784
0.023560868
0.023371224
0.023178704
0.022983238
0.022784898
0.022584002
0.022381338
0.022178704
0.021977795
0.021777433
0.021576974
0.02137759
0.021180673
0.02098776
0.020800613
0.020621396
0.020452659
0.020297645
0.02016021
0.020044909
0.01995566
0.019892822
0.019854387
0.01983721
0.019837636
0.019851336
0.019873751
0.019901861
0.01993735
0.019237689
0.019259463
0.019285674
0.019314272
0.019355241
0.01941453
0.019496267
0.019604003
0.019740065
0.019904705
0.020094469
0.020304692
0.020531388
0.020771234
0.021021645
0.021280425
0.021545733
0.021815955
0.022089584
0.022365169
0.022641276
0.022916466
0.0231893
0.02345855
0.023723571
0.023983933
0.024239224
0.024489026
0.024732918
0.024970481
0.025201295
0.025424951
0.025641048
0.025849201
0.026049032
0.026240163
0.026422079
0.02659403
0.026755243
0.02690502
0.027042753
0.027167925
0.027280116
0.027379019
0.027464379
0.027536098
0.027594121
0.0276385
0.027669399
0.027687445
0.027693244
0.027687527
0.027671039
0.027644527
0.027608732
0.027564377
0.027512157
0.024851197
0.024702293
0.024549962
0.024394761
0.024237204
0.024077766
0.023916885
0.02375491
0.023591868
0.023427547
0.023261695
0.023094072
0.02292445
0.022752623
0.02257841
0.022401673
0.022222355
0.02204055
0.021856597
0.02167122
0.021485545
0.021300521
0.021115151
0.020928666
0.020742064
0.020556504
0.020373243
0.020193674
0.020019416
0.019852467
0.019695197
0.019550624
0.01942235
0.019314637
0.019231165
0.019172312
0.019136247
0.019120087
0.019120522
0.019133668
0.019155167
0.019182393
0.019217026
0.018551921
0.018573149
0.018598981
0.018626651
0.018666037
0.018722812
0.018800825
0.018903426
0.019032794
0.019189143
0.019369183
0.01956851
0.019783385
0.02001071
0.020248096
0.020493527
0.02074533
0.021002052
0.021262341
0.021524899
0.021788447
0.022051699
0.022313365
0.022572357
0.022828135
0.023080364
0.023328719
0.023572866
0.023812466
0.024047174
0.024276642
0.024500519
0.024718462
0.024930129
0.025135175
0.025333249
0.02552384
0.025706191
0.025879497
0.026043013
0.026196047
0.026337976
0.026468254
0.02658642
0.02669205
0.026784802
0.026864404
0.026930692
0.026983611
0.027023436
0.027050575
0.027065608
0.027069072
0.02706152
0.027043528
0.027015672
0.026978525
0.023769628
0.023631078
0.023489256
0.023344687
0.023197848
0.023049201
0.022899149
0.022748018
0.022595838
0.022442423
0.022287548
0.022130999
0.021972581
0.021812132
0.021649548
0.021484822
0.021318102
0.021149768
0.02098057
0.020811502
0.0206422
0.020471598
0.020298921
0.0201251
0.019951157
0.019778165
0.019607279
0.019439789
0.019277198
0.01912137
0.018974522
0.018839485
0.018719642
0.018619004
0.018541039
0.018486118
0.018452541
0.018437632
0.018438333
0.01845111
0.018471853
0.018498192
0.018531903
0.017907804
0.017928452
0.017953788
0.017980486
0.018018246
0.018072468
0.018146765
0.018244305
0.018367146
0.018515484
0.018686203
0.018875141
0.019078771
0.019294184
0.019519149
0.019751797
0.01999059
0.020234203
0.020481414
0.020731055
0.020981974
0.021233019
0.021483029
0.021731034
0.021976588
0.022219433
0.02245932
0.022695991
0.02292918
0.023158615
0.023384011
0.023605086
0.02382155
0.024033114
0.024239482
0.024440335
0.024635195
0.024823324
0.025003924
0.025176228
0.025339511
0.025493094
0.025636351
0.025768721
0.025889671
0.025998684
0.026095349
0.026179277
0.026250193
0.026308112
0.026353339
0.0263862
0.026407049
0.026416271
0.026414279
0.026401504
0.02637838
0.022774083
0.022643998
0.022510919
0.022375319
0.022237636
0.022098271
0.021957598
0.021815918
0.021673258
0.021529448
0.021384293
0.021237617
0.021089288
0.020939251
0.020787569
0.020634481
0.020480453
0.020326054
0.020172179
0.020017502
0.019860751
0.019701164
0.019539572
0.019376904
0.019214106
0.019052169
0.01889217
0.018735309
0.018582995
0.018436977
0.018299339
0.018172749
0.0180604
0.017966079
0.017893067
0.017841722
0.017810459
0.017796766
0.017797769
0.017810191
0.017830207
0.017855618
0.01788838
0.017301363
0.01732142
0.017346209
0.017371936
0.01740811
0.017459858
0.017530575
0.017623262
0.017739866
0.017880572
0.018042434
0.018221517
0.018414493
0.01861862
0.018831802
0.019052291
0.019278663
0.019509695
0.019744274
0.019981335
0.020219838
0.020458738
0.020696989
0.020933724
0.02116857
0.021401334
0.021631833
0.021859872
0.022085251
0.02230776
0.022527178
0.02274328
0.022955835
0.023164606
0.023369346
0.02356978
0.023765473
0.023955725
0.024139762
0.024316822
0.024486178
0.024647125
0.024799
0.024941162
0.025072982
0.025193866
0.025303297
0.02540069
0.02548559
0.025557922
0.025617779
0.025665247
0.025700525
0.025723837
0.025735448
0.025735649
0.025724746
0.021854992
0.021732359
0.021606973
0.021479271
0.021349658
0.021218492
0.02108612
0.020952828
0.020818654
0.020683463
0.020547117
0.020409533
0.02027072
0.02013082
0.019990156
0.019849163
0.019708602
0.019568034
0.019426215
0.019281856
0.019134366
0.018984234
0.018832262
0.018679298
0.018526216
0.018373936
0.018223463
0.018075922
0.017932634
0.017795247
0.017665727
0.017546595
0.017440873
0.017352147
0.017283525
0.017235356
0.017206153
0.017193546
0.017194815
0.01720689
0.017226213
0.017250703
0.017282513
0.016729128
0.016748599
0.016772825
0.016797604
0.016832266
0.016881667
0.016949001
0.017037112
0.017147839
0.017281357
0.017434874
0.017604672
0.017787607
0.01798109
0.018183146
0.018392134
0.018606724
0.018825783
0.01904828
0.019273244
0.019499722
0.019726765
0.01995342
0.020178908
0.020402918
0.02062531
0.020845953
0.021064706
0.021281423
0.021495949
0.021708117
0.021917756
0.022124688
0.022328725
0.022529669
0.02272729
0.022921198
0.023110737
0.023295174
0.023473775
0.023645816
0.023810587
0.023967394
0.024115571
0.024254428
0.024383296
0.024501549
0.024608534
0.024703698
0.024786821
0.024857829
0.024916718
0.024963529
0.024998341
0.025021278
0.025032506
0.02503221
0.021003344
0.020887677
0.020769411
0.020648962
0.020526718
0.020403033
0.020278245
0.020152647
0.020026318
0.019899211
0.019771312
0.019642708
0.019513627
0.019384365
0.019255447
0.019126852
0.018997629
0.018866944
0.018733255
0.018596643
0.018457132
0.0183152
0.018171586
0.018027074
0.017882475
0.01773865
0.017596537
0.017457193
0.017321862
0.017192101
0.017069767
0.016957248
0.016857409
0.016773651
0.016708925
0.016663567
0.016636178
0.016624512
0.016625987
0.016637712
0.01665637
0.016679969
0.016710839
0.016188052
0.016206953
0.016230619
0.01625449
0.016287726
0.016334927
0.016399099
0.016482934
0.016588171
0.01671497
0.016860681
0.017021783
0.017195303
0.017378794
0.017570391
0.017768551
0.017972024
0.018179753
0.018390783
0.018604214
0.018819172
0.019034785
0.019250183
0.01946466
0.019677954
0.019889969
0.020100614
0.020309793
0.020517405
0.02072334
0.020927478
0.021129693
0.021329854
0.021527819
0.021723432
0.021916507
0.0221067
0.022293405
0.022475932
0.022653585
0.022825661
0.022991463
0.023150293
0.023301471
0.023444277
0.023577997
0.023701945
0.023815401
0.023917734
0.024008628
0.0240879
0.024155441
0.024211182
0.024255085
0.024287164
0.024307473
0.024316097
0.020213424
0.020104067
0.019992289
0.019878485
0.019763033
0.019646295
0.019528628
0.019410372
0.019291702
0.019172707
0.019053569
0.018934448
0.018815758
0.018697469
0.018578816
0.01845912
0.018337273
0.01821286
0.018085736
0.017955877
0.017823337
0.017688574
0.01755228
0.01741519
0.017278061
0.017141699
0.017006985
0.016874913
0.01674666
0.016623695
0.016507778
0.016401174
0.016306603
0.016227297
0.016166058
0.01612321
0.016097428
0.016086583
0.016088214
0.016099588
0.016117607
0.016140354
0.016170309
0.015675458
0.015693812
0.015716933
0.015739943
0.015771848
0.015817
0.015878231
0.015958093
0.016058227
0.016178776
0.016317218
0.016470212
0.016634942
0.016809088
0.016990893
0.017178896
0.017371924
0.017568985
0.017769188
0.017971697
0.018175703
0.018380402
0.018584992
0.01878883
0.018991697
0.019193527
0.019394263
0.019593844
0.019792206
0.019989275
0.02018497
0.020379205
0.020571886
0.020762912
0.020952167
0.021139504
0.02132462
0.021506962
0.02168589
0.021860745
0.02203086
0.022195561
0.022354161
0.022505984
0.0226503
0.022786373
0.022913485
0.02303087
0.023137843
0.023234015
0.023319126
0.023392981
0.023455424
0.023506326
0.023545608
0.023573238
0.023589211
0.019480204
0.019376557
0.019270712
0.019163064
0.019054009
0.01894395
0.018833298
0.01872249
0.018611795
0.01850132
0.018391497
0.018281994
0.018172207
0.018061636
0.017949474
0.017835119
0.017718519
0.017599551
0.01747812
0.01735418
0.017227784
0.017099361
0.016969561
0.016839071
0.016708601
0.016578908
0.016450822
0.016325281
0.016203396
0.016086558
0.015976438
0.015875186
0.015785387
0.015710117
0.01565204
0.015611464
0.015587133
0.015577019
0.015578774
0.015589807
0.015607224
0.015629162
0.015658238
0.01518899
0.01520683
0.015229428
0.015251631
0.015282299
0.015325549
0.015384053
0.015460232
0.015555634
0.015670385
0.015802076
0.015947531
0.016104076
0.016269512
0.016442174
0.016620682
0.016803927
0.01699098
0.017181004
0.017373219
0.017566873
0.01776122
0.017955519
0.018149178
0.018342013
0.018533982
0.018725055
0.018915199
0.019104376
0.019292545
0.019479655
0.019665652
0.019850476
0.020034058
0.020216315
0.020397138
0.020576262
0.020753184
0.02092731
0.021098029
0.02126471
0.02142671
0.021583366
0.021734017
0.021877938
0.022014392
0.022142644
0.022261907
0.022371458
0.022470864
0.022559801
0.022638013
0.022705274
0.022761383
0.02280619
0.022839586
0.022861499
0.018798707
0.018700427
0.018600264
0.018498631
0.018395983
0.018292768
0.018189374
0.018086331
0.01798392
0.017881712
0.017779228
0.017676159
0.017571793
0.017465658
0.017357726
0.01724784
0.017135895
0.017021788
0.016905439
0.016786799
0.016665919
0.016543201
0.016419254
0.016294726
0.016170283
0.016046637
0.015924572
0.015804973
0.015688892
0.01557765
0.01547283
0.01537648
0.015291059
0.015219495
0.015164326
0.015125842
0.015102845
0.015093403
0.015095272
0.015105987
0.015122845
0.015144026
0.015172264
0.014726584
0.014743945
0.014766049
0.014787501
0.014817025
0.014858513
0.014914493
0.014987259
0.015078276
0.015187651
0.015313079
0.015451533
0.01560047
0.0157578
0.015921943
0.016091592
0.016265699
0.016443387
0.016623871
0.01680642
0.016990331
0.017174909
0.017359465
0.017543454
0.017726718
0.017909234
0.018090994
0.018271984
0.018452191
0.018631595
0.018810171
0.018987892
0.019164723
0.019340624
0.019515542
0.019689394
0.019861956
0.020032766
0.020201281
0.020366932
0.020529129
0.020687263
0.020840704
0.020988811
0.021130878
0.021266178
0.021393976
0.021513479
0.021623949
0.021724918
0.021816024
0.021896961
0.021967452
0.022027242
0.022076122
0.022113926
0.022140521
0.01816496
0.018072053
0.017977645
0.017882122
0.01778603
0.017689807
0.017593497
0.017497105
0.017400509
0.017303481
0.01720527
0.017105767
0.017004888
0.016902471
0.016798407
0.016692576
0.016584876
0.016475214
0.016363512
0.016249725
0.016133897
0.016016407
0.01589783
0.015778775
0.015659871
0.015541789
0.015425269
0.01531115
0.015200428
0.015094359
0.014994446
0.014902639
0.01482128
0.014753162
0.014700702
0.014664171
0.014642427
0.014633621
0.014635609
0.014646041
0.01466239
0.01468287
0.014710317
0.014286433
0.014303352
0.014324995
0.014345752
0.01437422
0.014414078
0.014467718
0.014537323
0.014624273
0.014728661
0.014848276
0.014980229
0.015122096
0.015271888
0.015428102
0.015589496
0.01575508
0.015924023
0.016095586
0.016269081
0.016443849
0.016619241
0.016794614
0.016969463
0.017143651
0.017317172
0.01749003
0.017662231
0.017833776
0.018004666
0.018174896
0.018344457
0.018513337
0.01868152
0.018848974
0.019015643
0.019181334
0.019345627
0.019508023
0.019667996
0.019824996
0.019978452
0.020127766
0.020272326
0.020411452
0.020544433
0.020670549
0.020789013
0.020899083
0.021000276
0.0210922
0.021174519
0.021246918
0.021309099