/*--------------------------------*- C++ -*----------------------------------*\
| =========                 |                                                 |
| \\      /  F ield         | OpenFOAM: The Open Source CFD Toolbox           |
|  \\    /   O peration     | Version:  2.4.0                                 |
|   \\  /    A nd           | Web:      www.OpenFOAM.org                      |
|    \\/     M anipulation  |                                                 |
\*---------------------------------------------------------------------------*/
FoamFile
{
    version     2.0;
    format      ascii;
    class       volScalarField;
    location    "330";
    object      nut;
}
// * * * * * * * * * * * * * * * * * * * * * * * * * * * * * * * * * * * * * //

dimensions      [0 2 -1 0 0 0 0];

internalField   nonuniform List<scalar> 
19477
(
0.022946688
0.022926664
0.022903692
0.022876478
0.022843291
0.022801739
0.022748554
0.022679937
0.022591505
0.022478872
0.02233903
0.022168948
0.021964914
0.021722746
0.021437575
0.021104177
0.02071703
0.020270709
0.019760464
0.019182967
0.018537222
0.017825474
0.017053866
0.01623197
0.015371094
0.014484445
0.013586475
0.012691822
0.011814581
0.010969049
0.010170704
0.0094349573
0.0087719231
0.0081840886
0.0076686265
0.0072207743
0.01481674
0.014828093
0.014862246
0.014922395
0.01501218
0.015135759
0.015297905
0.015504022
0.01576004
0.016070908
0.016443399
0.016885446
0.017406133
0.018011065
0.018702815
0.019484263
0.020356488
0.021335879
0.022418673
0.02287967
0.022921006
0.022956588
0.022986319
0.02300976
0.023026534
0.023036932
0.023041181
0.023039471
0.023032003
0.023019495
0.023003416
0.02298476
0.022966376
0.023008543
0.022993112
0.022975046
0.022952993
0.022925626
0.022890871
0.022845873
0.02278729
0.022711271
0.022613979
0.022492837
0.022345214
0.022167855
0.021957087
0.0217086
0.021417728
0.021079454
0.020688704
0.020240773
0.019731895
0.019159961
0.018525308
0.017831377
0.017084494
0.016292627
0.015465798
0.014615753
0.013755156
0.012896744
0.012053194
0.011237969
0.010466132
0.0097519395
0.0091044732
0.0085261396
0.0080148372
0.0075668745
0.0071798053
0.0068503869
0.0065754849
0.0063520739
0.0061770071
0.0060469922
0.014902092
0.014929089
0.014979496
0.015056498
0.015163718
0.015305257
0.015485795
0.01571058
0.01598526
0.016314374
0.016704088
0.01716123
0.017693396
0.018304209
0.018994407
0.019765155
0.020613814
0.021573676
0.022656801
0.02290984
0.022949899
0.022984638
0.023014024
0.023037697
0.023055369
0.023067358
0.023073883
0.023075108
0.023071178
0.023062721
0.023051063
0.023037106
0.023023538
0.023063288
0.023052109
0.023038539
0.023021254
0.022999273
0.022970805
0.022933366
0.022884026
0.022819409
0.022736166
0.022632104
0.022504947
0.022351864
0.022169652
0.021954534
0.021702393
0.02140874
0.021068937
0.020678507
0.020233554
0.019731323
0.019170851
0.01855356
0.017883175
0.017164804
0.016405504
0.015614213
0.014801232
0.013977529
0.013154256
0.012342988
0.011556471
0.010809004
0.010113757
0.0094791149
0.0089077142
0.0083986054
0.0079500548
0.0075595366
0.0072245493
0.0069423792
0.0067102595
0.0065253471
0.014993153
0.01503609
0.015102987
0.015197013
0.015321745
0.015481209
0.015679942
0.015922976
0.016215585
0.016561786
0.016966996
0.017436841
0.017977398
0.018590523
0.019276205
0.020035455
0.020863126
0.02180038
0.022885351
0.022936507
0.022975208
0.023009008
0.02303792
0.023061663
0.023080034
0.023093382
0.023101918
0.023105782
0.023105067
0.023100311
0.023092708
0.02308308
0.023073975
0.023110843
0.023103604
0.023094166
0.023081265
0.023064254
0.023041593
0.023011132
0.022970309
0.022916169
0.022845794
0.022757321
0.022648791
0.022517749
0.022361424
0.022176536
0.021959491
0.021706331
0.021412896
0.02107505
0.020688989
0.020251666
0.019761304
0.019217904
0.018623222
0.017980063
0.01729292
0.016568093
0.015813406
0.015037746
0.014250584
0.013461724
0.012681611
0.011922304
0.011197249
0.010518739
0.00989483
0.0093289598
0.0088217441
0.00837195
0.0079776533
0.0076367308
0.0073466332
0.0071049905
0.015091488
0.015150594
0.015234145
0.015345275
0.015487492
0.015664705
0.015881263
0.016141906
0.016451448
0.01681328
0.017231983
0.01771198
0.018257986
0.018870508
0.019549696
0.020297839
0.02111277
0.022024425
0.022917701
0.022959584
0.022996835
0.023029576
0.023057862
0.023081494
0.023100356
0.023114826
0.02312511
0.023131324
0.02313351
0.023132121
0.023128225
0.023122575
0.023117585
0.023151053
0.023147447
0.023141809
0.023132934
0.023120497
0.023103194
0.023079173
0.023046203
0.0230017
0.02294312
0.022868883
0.022777298
0.022666242
0.022533332
0.022375741
0.022190366
0.021973758
0.02172225
0.021432111
0.021099776
0.020722156
0.020297038
0.019823496
0.019301878
0.018733248
0.018120031
0.017466229
0.016777328
0.016060035
0.015321933
0.014571138
0.013816184
0.013066577
0.012333571
0.011629763
0.010966732
0.010352801
0.0097925657
0.0092872331
0.0088361731
0.0084379745
0.0080906871
0.0077923386
0.01519892
0.015274349
0.015374629
0.015502835
0.015662374
0.015856999
0.016090808
0.016368182
0.016693396
0.017069151
0.017499176
0.017986813
0.018535687
0.019145478
0.019816823
0.020552705
0.021358168
0.022252875
0.02293893
0.02297894
0.023014628
0.02304616
0.023073645
0.02309697
0.023116103
0.023131453
0.02314322
0.0231515
0.023156282
0.023157938
0.023157413
0.023155404
0.023154192
0.023183678
0.023183396
0.023181244
0.023176061
0.023167827
0.023155463
0.023137386
0.023111662
0.023076035
0.023028285
0.022967063
0.022890902
0.022797964
0.022686208
0.022553212
0.022396321
0.022212566
0.021998759
0.021751605
0.021467862
0.021144572
0.020779362
0.020370762
0.019918187
0.019421469
0.018881472
0.018300337
0.017681514
0.017029652
0.016350401
0.015650141
0.014935756
0.014214674
0.013495462
0.012788531
0.012105584
0.011458005
0.010854955
0.010301003
0.0097980372
0.0093459552
0.0089440131
0.0085907348
0.015317558
0.015409369
0.015526339
0.015671458
0.015847995
0.016059495
0.016309755
0.016602735
0.016942122
0.017329913
0.017769046
0.018261965
0.018811495
0.019417049
0.020079618
0.020800876
0.021597609
0.02248705
0.022956314
0.022994361
0.023028343
0.023058496
0.02308499
0.023107797
0.023126973
0.023142956
0.023155941
0.023166001
0.023173082
0.023177467
0.023179992
0.023181299
0.023183539
0.023208376
0.023211115
0.023212145
0.023210334
0.023205954
0.023198137
0.023185548
0.023166519
0.023139082
0.023101295
0.023051996
0.022989898
0.022913401
0.022820754
0.022709894
0.022578567
0.022424241
0.022244185
0.022035536
0.02179542
0.021521116
0.02121028
0.020861187
0.02047269
0.020043824
0.019574351
0.019065014
0.018517618
0.017935025
0.017321078
0.016680443
0.016018385
0.015340655
0.014653668
0.01396512
0.013284534
0.012623165
0.011992561
0.011401389
0.010854893
0.010355464
0.0099037464
0.0094994391
0.015449794
0.015557924
0.015691406
0.015853105
0.016046118
0.016273734
0.016539399
0.016846619
0.01719848
0.017596309
0.018042374
0.018538418
0.019086735
0.01968715
0.020340855
0.021046518
0.021835929
0.022736129
0.022969662
0.02300557
0.023037671
0.023066253
0.023091548
0.023113614
0.023132593
0.023148953
0.023162885
0.023174443
0.023183524
0.023190332
0.023195591
0.023199896
0.023205274
0.023224696
0.023230156
0.02323407
0.023235322
0.023234464
0.023230829
0.023223306
0.023210469
0.023190605
0.023162009
0.023123664
0.023074421
0.023012871
0.022937507
0.022846574
0.022738169
0.022610153
0.02246021
0.022285894
0.022084709
0.021854229
0.021592261
0.021297026
0.020967093
0.020601044
0.020197934
0.019757529
0.019280398
0.018767974
0.01822255
0.017647212
0.017045701
0.016422275
0.015781716
0.015129504
0.014472493
0.013819685
0.013181844
0.012570135
0.011992996
0.011455978
0.010962036
0.01051245
0.015598286
0.015722518
0.015872145
0.016049881
0.016258606
0.01650132
0.016781092
0.017100955
0.017463424
0.017869246
0.018320182
0.018817464
0.019363145
0.019958126
0.020603681
0.021297003
0.022075837
0.022941153
0.022978659
0.023012217
0.023042232
0.023069028
0.023092893
0.023113974
0.023132501
0.023148971
0.023163575
0.023176343
0.023187129
0.023196056
0.023203738
0.023210731
0.023218938
0.02323206
0.023239943
0.023246446
0.023250461
0.023252806
0.023253006
0.023250158
0.023243056
0.023230213
0.023210123
0.023181878
0.023144425
0.023096505
0.023036811
0.022963843
0.022876001
0.022771488
0.022648362
0.022504559
0.022337951
0.022146429
0.021928022
0.021681027
0.02140393
0.02109511
0.020753231
0.020377437
0.019967446
0.01952363
0.01904705
0.018539464
0.018003251
0.017441324
0.016857048
0.016254279
0.015637701
0.015013723
0.014391027
0.013779779
0.013189905
0.012629871
0.012105082
0.011618986
0.015765883
0.015905783
0.016070949
0.016263907
0.016487295
0.016743801
0.017036108
0.017366804
0.017737894
0.018149666
0.018603553
0.019100449
0.019642501
0.020231571
0.020868362
0.021558184
0.022327404
0.022948233
0.022982886
0.02301387
0.023041565
0.023066325
0.0230885
0.023108327
0.023126127
0.023142428
0.023157419
0.023171107
0.023183302
0.023194043
0.023203842
0.023213217
0.02322395
0.023229738
0.023239747
0.023248547
0.02325503
0.023260268
0.023263975
0.023265439
0.023263656
0.023257338
0.023245148
0.023226253
0.023199661
0.023164223
0.023118786
0.023062061
0.0229927
0.022909201
0.022809946
0.022693214
0.022557219
0.022400166
0.022220338
0.022016186
0.021786244
0.021528866
0.021242556
0.020926119
0.020578744
0.020200078
0.01979029
0.019350099
0.018880759
0.018384018
0.017862056
0.017317447
0.016753291
0.016173897
0.015585475
0.014995916
0.014414192
0.013849437
0.013309451
0.012800135
0.0153772
0.015377689
0.015387521
0.015407771
0.015439576
0.015484222
0.015543432
0.015618781
0.015711677
0.015823321
0.015955459
0.016110302
0.016290081
0.016497113
0.016733778
0.017002451
0.017305453
0.017644975
0.018022607
0.018438318
0.018893342
0.019388406
0.019926215
0.020508665
0.021133977
0.021825747
0.022609547
0.022950162
0.022981812
0.023009972
0.023035073
0.023057513
0.023077705
0.023095985
0.023112762
0.023128598
0.023143681
0.023157993
0.023171299
0.023183553
0.023195165
0.023206619
0.023219577
0.023216812
0.023228653
0.023239459
0.023248119
0.02325595
0.023262852
0.02326829
0.023271446
0.023271211
0.02326639
0.023256191
0.023239654
0.023215704
0.023183302
0.023141326
0.023088633
0.023023967
0.022945986
0.02285327
0.022744339
0.022617691
0.022471869
0.022305518
0.022117299
0.021905653
0.021669087
0.021406274
0.021116124
0.020797848
0.020451018
0.020075616
0.019672038
0.019241099
0.018784003
0.018302298
0.01779792
0.01727367
0.016733747
0.016183673
0.015630371
0.015081349
0.014545183
0.014029246
0.015449389
0.015463192
0.015486683
0.015520895
0.01556692
0.015625992
0.015699762
0.015789718
0.015897189
0.016023276
0.016169616
0.016338288
0.016531351
0.016750911
0.016999094
0.017277989
0.017589597
0.017935789
0.018317847
0.018735555
0.019190039
0.019682104
0.020215549
0.020791215
0.021405878
0.022097921
0.022906503
0.022946404
0.022974748
0.022999788
0.023021986
0.023041785
0.023059669
0.023076074
0.023091509
0.023106568
0.023121436
0.023136072
0.023150188
0.023163655
0.02317678
0.023190013
0.023204899
0.02319213
0.02320551
0.023218035
0.023228588
0.023238722
0.023248522
0.023257621
0.023265372
0.023270828
0.023272912
0.023270848
0.023263677
0.023250364
0.023229951
0.023201442
0.023163856
0.023116137
0.023057175
0.022985803
0.022900806
0.02280095
0.022685022
0.022551872
0.022400329
0.022228991
0.022036464
0.021821433
0.021582714
0.0213193
0.021030417
0.020715569
0.020374562
0.020007522
0.019614888
0.019197405
0.018756132
0.018292784
0.017810114
0.017311777
0.016802526
0.016288173
0.015775618
0.015272188
0.015554838
0.015581747
0.015618647
0.015666506
0.01572634
0.015799306
0.015886961
0.015990687
0.016111722
0.016251055
0.016410202
0.016591111
0.016795674
0.017025796
0.017283382
0.017570278
0.017888233
0.01823888
0.018623307
0.019041223
0.019493751
0.019982138
0.020510894
0.021079681
0.0216984
0.022397394
0.022907984
0.022936154
0.022960835
0.0229824
0.02300133
0.023018115
0.023033319
0.023047486
0.02306123
0.02307518
0.023089516
0.023104168
0.023118796
0.023133177
0.023147519
0.023162237
0.023178761
0.02315424
0.023168873
0.023182836
0.023195006
0.023207166
0.023219587
0.023232061
0.023244102
0.023254908
0.023263501
0.023269096
0.023270708
0.023267317
0.02325801
0.023241883
0.023218079
0.0231857
0.023143823
0.023091491
0.023027714
0.022951489
0.022861824
0.022757769
0.022638331
0.022502298
0.022348432
0.022175519
0.021982402
0.021768015
0.021531426
0.021271877
0.020988809
0.02068189
0.020351019
0.01999634
0.019618263
0.019217716
0.018796426
0.018356764
0.017901764
0.017435494
0.016962948
0.016490004
0.015698803
0.015738361
0.015788103
0.015848904
0.015921682
0.016007498
0.016107813
0.016223895
0.016356899
0.016507704
0.016677716
0.016868768
0.017082606
0.017320973
0.017585597
0.017878139
0.018200162
0.018553143
0.01893808
0.019354682
0.019804302
0.020289007
0.020812637
0.021375455
0.022005904
0.022734322
0.022894344
0.022918327
0.022938946
0.022956612
0.022971838
0.022985176
0.022997276
0.023008799
0.02302047
0.023032957
0.023046432
0.023060789
0.023075632
0.023090636
0.023105906
0.023121825
0.023139702
0.023101316
0.023116927
0.023132061
0.023145588
0.023159515
0.023174303
0.023189897
0.023205964
0.023221834
0.023236609
0.023249473
0.023259392
0.023265333
0.023266403
0.023261759
0.023250631
0.023232242
0.023205819
0.023170571
0.023125695
0.023070381
0.02300383
0.022925273
0.022833892
0.022728668
0.022608547
0.022472464
0.022319362
0.02214822
0.02195808
0.021748082
0.021517483
0.021265684
0.020992245
0.020696901
0.020379592
0.020040691
0.019681211
0.019302619
0.018906872
0.018496588
0.018075117
0.017646638
0.015886225
0.015937458
0.015998872
0.016071237
0.016155378
0.01625227
0.016363292
0.016489625
0.016632362
0.016792298
0.016970754
0.017169479
0.017390112
0.017634273
0.017903562
0.018199511
0.018523557
0.018877095
0.019261091
0.019675427
0.020122196
0.020604019
0.021124278
0.021697463
0.022351
0.02284929
0.022872192
0.022891496
0.022907561
0.022920826
0.022931844
0.022941237
0.022949751
0.022958178
0.022967364
0.022978011
0.022990285
0.023004037
0.023018802
0.02303415
0.023050075
0.023066924
0.023085886
0.02303107
0.023047405
0.023063461
0.023078105
0.023093565
0.023110497
0.023128997
0.023148876
0.023169584
0.02319029
0.023210121
0.023227976
0.023242785
0.023253651
0.023259761
0.023260408
0.023254901
0.023242579
0.023222785
0.023194862
0.023158159
0.023112038
0.023055886
0.022989046
0.022910685
0.022819932
0.022715893
0.022597649
0.022464284
0.022314899
0.02214864
0.02196471
0.021762391
0.021541066
0.02130023
0.021039526
0.020758939
0.020458991
0.020140524
0.019804711
0.019453243
0.019088254
0.018712422
0.01832835
0.01794146
0.017556728
0.017179617
0.016814652
0.016466063
0.016137282
0.015830982
0.015549154
0.015293249
0.015064284
0.016120307
0.016181299
0.016252247
0.016333844
0.016426857
0.016532215
0.016651256
0.01678512
0.016934873
0.017101259
0.017285542
0.017489417
0.017714448
0.017962168
0.018234086
0.018531644
0.018856211
0.019209156
0.019591544
0.02000397
0.02044999
0.020931902
0.021456303
0.022057401
0.022742263
0.022822205
0.022839727
0.022853763
0.022864682
0.022872953
0.022879174
0.022884051
0.02288844
0.022893272
0.022899525
0.02290794
0.022918666
0.022931504
0.022945912
0.02296134
0.022977668
0.022995202
0.023015003
0.022940654
0.022957485
0.022974244
0.022989791
0.023006583
0.023025478
0.023046717
0.023070252
0.023095645
0.023122112
0.023148709
0.02317424
0.023197579
0.023217802
0.023234106
0.023245817
0.023252306
0.023252992
0.02324732
0.023234747
0.023214745
0.023186808
0.023150453
0.023105161
0.023050267
0.022985077
0.022908863
0.022820861
0.022720289
0.022606353
0.02247827
0.022335277
0.022176643
0.02200169
0.021809804
0.02160047
0.021373432
0.021128856
0.020867177
0.020589094
0.020295627
0.01998814
0.019668362
0.019338464
0.019001609
0.018661572
0.018322764
0.017990106
0.017666842
0.017356883
0.017063361
0.016788909
0.016535686
0.016305345
0.016098652
0.016399682
0.016467283
0.016544506
0.016632041
0.016730653
0.016841282
0.016965271
0.017103751
0.01725779
0.017428091
0.017615875
0.017822795
0.01805035
0.018299992
0.018573164
0.018871262
0.019195663
0.01954785
0.019929422
0.020342617
0.020792407
0.021283525
0.021837982
0.022468993
0.022767837
0.022783011
0.022794492
0.022802574
0.022807655
0.022810242
0.022810997
0.022810719
0.022810385
0.022811083
0.022813931
0.022819707
0.022828537
0.022840161
0.022853953
0.022869228
0.022885745
0.022903755
0.022924179
0.022826557
0.022843689
0.022860964
0.022877232
0.022895193
0.022915917
0.022939787
0.022966893
0.022996898
0.023029053
0.023062316
0.023095379
0.023127039
0.023156324
0.023182422
0.023204669
0.023222475
0.023235315
0.023242706
0.023244191
0.023239337
0.023227738
0.023209019
0.023182773
0.023148484
0.023105615
0.023053593
0.022991809
0.022919618
0.022836356
0.022741346
0.022633906
0.022513359
0.022379046
0.022230338
0.022066661
0.02188764
0.021693217
0.021483548
0.021258999
0.021020168
0.020767911
0.02050338
0.020228088
0.01994411
0.01965415
0.019361113
0.01906947
0.01878202
0.018502144
0.018232943
0.017977223
0.017737509
0.017515975
0.017314248
0.01713339
0.016717147
0.016787737
0.016867796
0.016958058
0.017059332
0.017172594
0.017299208
0.017440306
0.017596951
0.017769793
0.017959985
0.018169119
0.018398611
0.018649831
0.018924187
0.019223142
0.01954832
0.019901757
0.020286558
0.020707366
0.021171631
0.021694078
0.022290251
0.022708122
0.022720292
0.02272858
0.02273322
0.022734546
0.022732992
0.022729121
0.022723669
0.02271754
0.022711844
0.022707839
0.022706795
0.022709522
0.022716118
0.022726253
0.022739204
0.02275414
0.022770678
0.022789005
0.022809873
0.022684472
0.022701732
0.022719378
0.022736212
0.022755228
0.022777705
0.022804164
0.022834829
0.022869457
0.022907318
0.022947252
0.022987813
0.023027703
0.023065885
0.023101519
0.023133936
0.023162562
0.023186908
0.023206541
0.023221063
0.023230114
0.023233362
0.023230512
0.023221251
0.023205187
0.023181921
0.02315102
0.023112012
0.023064391
0.023007622
0.022941146
0.022864388
0.022776758
0.022677665
0.022566523
0.022442774
0.022306001
0.022156026
0.02199282
0.021816535
0.021627496
0.021426224
0.021213454
0.020990217
0.020757907
0.020518336
0.020273764
0.020027129
0.019781522
0.019539164
0.019302758
0.019074891
0.018858051
0.018654558
0.018466411
0.018295239
0.018142289
0.017023967
0.017095654
0.01717711
0.017269103
0.01737246
0.017488153
0.01761753
0.01776169
0.017921659
0.018097988
0.018291723
0.018504367
0.018737254
0.018991731
0.019269333
0.019571976
0.019902301
0.020263931
0.020662602
0.021105992
0.021608503
0.022179865
0.022641658
0.022649946
0.022654252
0.022654708
0.022651588
0.022645258
0.022636197
0.022625035
0.022612589
0.02259988
0.022588164
0.022578879
0.022573457
0.022572744
0.022576803
0.022585223
0.022597171
0.022611639
0.022628082
0.022646606
0.022667757
0.022511982
0.022529217
0.022547117
0.022564401
0.022584392
0.022608561
0.022637566
0.02267176
0.022710988
0.022754524
0.02280107
0.022849024
0.022896978
0.022943815
0.022988655
0.023030806
0.023069697
0.023104856
0.02313588
0.023162412
0.023184138
0.023200781
0.023212102
0.023217863
0.023217772
0.023211546
0.023198868
0.023179388
0.023152721
0.02311845
0.023076134
0.023025305
0.022965474
0.022896139
0.022816787
0.022726914
0.022626111
0.022514151
0.022390918
0.022256417
0.022110798
0.021954364
0.021787592
0.021611183
0.021426148
0.021233584
0.021035242
0.020833238
0.020630162
0.020427468
0.020227484
0.020032336
0.019844179
0.019665141
0.019497193
0.01934212
0.019201521
0.017278407
0.017352421
0.017436875
0.017532489
0.017640033
0.017760419
0.01789491
0.018044522
0.018210199
0.01839238
0.018592033
0.018810646
0.019049631
0.019310616
0.019595799
0.019908576
0.020254351
0.020639378
0.021071398
0.021562829
0.022115891
0.022568383
0.022571975
0.022571452
0.022566917
0.022558593
0.02254679
0.022531918
0.02251451
0.02249527
0.022475105
0.022455158
0.022436836
0.022421761
0.022411534
0.022407028
0.022408259
0.022414726
0.022425481
0.022439328
0.022455543
0.022474122
0.022495386
0.022311502
0.022328621
0.022346703
0.0223644
0.022385345
0.022411189
0.022442727
0.022480434
0.022524227
0.022573374
0.02262642
0.022681597
0.022737372
0.022792542
0.022846174
0.022897546
0.022946075
0.022991296
0.023032818
0.023070311
0.023103489
0.023132112
0.023155979
0.023174903
0.023188676
0.023197105
0.023199971
0.023197021
0.023187973
0.023172513
0.0231503
0.023120967
0.023084124
0.023039355
0.022986233
0.022924321
0.022853253
0.022772789
0.022682774
0.022583122
0.022473887
0.02235523
0.022227447
0.022090995
0.021946553
0.021795044
0.021637707
0.021475962
0.021311645
0.021146357
0.020981719
0.020819206
0.020660563
0.020507569
0.020361944
0.020225331
0.020099288
0.017534396
0.017612964
0.017702548
0.017803803
0.017917414
0.018044222
0.018185397
0.018341865
0.018514505
0.018703755
0.01891069
0.019137098
0.019385008
0.019657102
0.019957532
0.020293078
0.020672194
0.021101462
0.021590492
0.02212446
0.022487627
0.022485942
0.022479999
0.022469901
0.022455847
0.022438104
0.022417027
0.022393074
0.022366839
0.0223391
0.022310859
0.022283381
0.022258224
0.022237201
0.022222067
0.022213707
0.022212068
0.022216545
0.022226064
0.022239259
0.022255223
0.022273785
0.02229508
0.022085164
0.022102176
0.022120436
0.02213857
0.022160495
0.022188034
0.022222123
0.022263356
0.022311718
0.022366456
0.022425951
0.022488253
0.022551696
0.022614977
0.022677103
0.022737312
0.022795002
0.022849703
0.02290103
0.022948662
0.022992334
0.023031824
0.023066957
0.023097583
0.023123559
0.023144765
0.023161059
0.023172271
0.023178202
0.023178622
0.023173279
0.023161891
0.023144153
0.023119738
0.023088293
0.023049457
0.02300291
0.022948419
0.022885806
0.022814962
0.022735851
0.022648535
0.022553176
0.022450071
0.022339623
0.022222535
0.022099629
0.021972073
0.021841222
0.02170852
0.021575024
0.021442116
0.021311151
0.021183573
0.021060822
0.020944319
0.020835452
0.017839264
0.017922938
0.018018035
0.018125147
0.018244893
0.018378045
0.018525765
0.018688977
0.018868666
0.01906555
0.01928131
0.019518697
0.019781475
0.020075133
0.020406852
0.02078416
0.02121753
0.021700966
0.022211362
0.022396692
0.022389337
0.022377656
0.02236172
0.022341705
0.022317847
0.022290454
0.022259921
0.022226754
0.022191607
0.022155333
0.022119024
0.022084071
0.022052181
0.022025351
0.02200549
0.021993478
0.02198918
0.021991863
0.02200032
0.022013014
0.022028856
0.022047475
0.022068855
0.021832453
0.021849441
0.021867935
0.021886568
0.021909523
0.021938792
0.021975456
0.02202023
0.022073165
0.022133491
0.022199416
0.022268799
0.022339831
0.0224111
0.022481541
0.022550343
0.022616878
0.022680662
0.022741305
0.02279849
0.022851959
0.022901502
0.022946958
0.022988203
0.023025144
0.023057723
0.023085861
0.023109454
0.023128369
0.023142452
0.023151518
0.023155363
0.023153754
0.023146438
0.023133134
0.023113549
0.02308741
0.023054505
0.023014653
0.022967737
0.022913676
0.02285247
0.022784177
0.022709014
0.022627286
0.022539438
0.022445995
0.022347926
0.022246341
0.022142175
0.02203635
0.021930193
0.02182485
0.021721538
0.021621488
0.021525936
0.021436109
0.018183162
0.018271982
0.01837251
0.018485342
0.018611093
0.018750599
0.018905194
0.019076111
0.019264882
0.01947297
0.019703723
0.019962367
0.020255315
0.020589567
0.020973008
0.021399749
0.021865408
0.022302777
0.022293259
0.022279862
0.02226222
0.022240302
0.022214231
0.022184212
0.022150508
0.022113461
0.022073507
0.022031198
0.021987241
0.021942564
0.021898348
0.021856102
0.021817683
0.021785265
0.021760909
0.021745485
0.021738764
0.021739882
0.021747487
0.021759871
0.02177576
0.021794567
0.021816141
0.021553311
0.02157038
0.021589191
0.021608402
0.021632453
0.021663494
0.021702757
0.021751076
0.021808574
0.021874464
0.021946784
0.0220232
0.022101756
0.022180921
0.022259553
0.022336783
0.022411946
0.022484536
0.022554152
0.022620471
0.022683235
0.022742238
0.022797324
0.022848385
0.022895372
0.022938275
0.022977068
0.0230117
0.023042097
0.023068161
0.023089771
0.023106783
0.023119027
0.023126315
0.023128431
0.023125142
0.023116225
0.023101492
0.023080774
0.023053942
0.023020915
0.022981669
0.022936241
0.022884753
0.022827435
0.022764623
0.022696759
0.022624498
0.022548629
0.022469914
0.022389175
0.022307343
0.0222254
0.022144379
0.022065327
0.021989303
0.021917364
0.018559148
0.018653549
0.018760038
0.018879337
0.019012221
0.019159939
0.01932432
0.019507427
0.019712422
0.019942453
0.020203103
0.020500798
0.020842861
0.021225234
0.02164054
0.02207007
0.022191176
0.022175529
0.022155873
0.022132156
0.022104257
0.022072185
0.022036089
0.0219962
0.021952813
0.021906299
0.021857131
0.021805904
0.021753379
0.021700553
0.02164869
0.021599418
0.021554732
0.021516985
0.021488378
0.02146977
0.021460842
0.021460594
0.02146753
0.021479773
0.021495863
0.021514989
0.021536872
0.021248146
0.021265393
0.021284602
0.021304466
0.021329671
0.021362518
0.021404387
0.021456233
0.021518251
0.021589643
0.021668283
0.021751649
0.021837636
0.021924595
0.022011299
0.022096813
0.022180432
0.022261617
0.022339948
0.022415091
0.02248678
0.022554803
0.022619003
0.022679284
0.02273563
0.02278807
0.022836623
0.022881283
0.022922024
0.022958795
0.022991527
0.023020127
0.023044483
0.023064458
0.023079894
0.023090613
0.023096435
0.023097198
0.023092745
0.023082954
0.02306774
0.023047065
0.023020944
0.022989453
0.022952759
0.022911113
0.022864861
0.022814493
0.022760598
0.022703763
0.022644656
0.022584001
0.022522589
0.022461262
0.022400884
0.022342335
0.022286499
0.018967731
0.019068575
0.019182559
0.019310661
0.019454069
0.01961529
0.019797363
0.020003498
0.020238585
0.02050626
0.020813678
0.021153644
0.021519348
0.021900618
0.022082756
0.022064066
0.022041919
0.022016051
0.02198629
0.021952524
0.021914656
0.02187272
0.021826899
0.021777449
0.021724695
0.021669041
0.021610992
0.021551186
0.021490433
0.021429797
0.021370622
0.021314645
0.021263999
0.021221203
0.021188593
0.021167018
0.021156068
0.021154614
0.021161019
0.021173245
0.021189648
0.021209195
0.021231478
0.020917773
0.020935271
0.020954939
0.02097551
0.021001904
0.021036567
0.021081021
0.021136341
0.021202795
0.021279581
0.021364414
0.021454594
0.021547871
0.021642479
0.021737106
0.021830748
0.02192265
0.022012238
0.022099067
0.022182781
0.022263099
0.022339802
0.022412723
0.022481767
0.022546948
0.022608329
0.022665962
0.022719881
0.022770096
0.022816601
0.022859366
0.022898345
0.022933469
0.02296465
0.022991776
0.023014717
0.023033331
0.023047476
0.023057009
0.023061813
0.023061801
0.023056928
0.023047187
0.023032624
0.023013354
0.022989562
0.02296151
0.022929571
0.022894193
0.022855834
0.022815023
0.022772337
0.022728408
0.022683912
0.022639548
0.022596032
0.022554087
0.019414769
0.019524648
0.01965043
0.019793522
0.019955531
0.020140547
0.020352605
0.020595517
0.020871583
0.021170548
0.021488417
0.02181918
0.021967394
0.021945241
0.021920058
0.021891499
0.021859459
0.021823781
0.021784313
0.021740923
0.021693513
0.021642142
0.021587021
0.021528436
0.021466739
0.021402365
0.021335855
0.021267884
0.021199311
0.021131262
0.021065158
0.02100284
0.020946568
0.02089902
0.020862661
0.020838325
0.020825518
0.020822988
0.020828962
0.020841251
0.020858036
0.020878064
0.020900804
0.020563321
0.020581114
0.020601275
0.02062258
0.020650171
0.020686628
0.020733611
0.020792312
0.020863073
0.020945091
0.021035934
0.021132733
0.021233102
0.021335161
0.021437512
0.021539085
0.021639071
0.021736856
0.021831963
0.021924012
0.022012702
0.022097795
0.02217911
0.022256553
0.022330155
0.022400007
0.022466192
0.022528771
0.022587791
0.022643277
0.022695236
0.022743658
0.022788512
0.02282975
0.022867302
0.022901076
0.022930963
0.022956835
0.022978562
0.022996031
0.023009156
0.023017879
0.023022179
0.023022075
0.023017642
0.023009006
0.022996359
0.022979982
0.022960214
0.022937411
0.022911994
0.022884425
0.022855205
0.022824877
0.022794001
0.022763151
0.022732911
0.019913184
0.020038122
0.02018327
0.020350572
0.020542009
0.020759803
0.021000093
0.021255695
0.021528347
0.021806634
0.021844301
0.02181843
0.021789823
0.021758198
0.021723476
0.021685493
0.021644105
0.02159916
0.021550507
0.021498009
0.02144157
0.021381269
0.021317346
0.021250118
0.021179964
0.021107351
0.021032851
0.020957178
0.020881236
0.020806211
0.020733593
0.020665324
0.020603781
0.020551791
0.02051194
0.020485046
0.020470535
0.020467038
0.020472654
0.020485054
0.020502256
0.020522789
0.020546007
0.020186144
0.020204251
0.020224914
0.020246956
0.020275724
0.020313921
0.020363341
0.020425289
0.020500181
0.020587217
0.020683831
0.020786996
0.020894197
0.021003447
0.02111327
0.021222524
0.021330349
0.021436089
0.021539232
0.021639368
0.021736171
0.02182938
0.021918799
0.022004321
0.022085994
0.022163931
0.022238236
0.022308999
0.022376289
0.022440162
0.022500653
0.022557783
0.022611555
0.022661953
0.02270894
0.02275246
0.022792428
0.022828732
0.022861246
0.022889862
0.02291449
0.022935068
0.022951557
0.022963955
0.022972299
0.022976668
0.022977196
0.022974083
0.022967579
0.022957961
0.022945563
0.022930752
0.022913928
0.022895522
0.02287598
0.022855762
0.022835332
0.020479797
0.020627887
0.020795754
0.020982027
0.021180924
0.021391998
0.021615448
0.021740308
0.021712709
0.021682971
0.021650669
0.021615724
0.02157803
0.021537434
0.021493805
0.021446992
0.021396848
0.021343217
0.021285949
0.021224901
0.021159982
0.021091294
0.021019107
0.020943764
0.020865675
0.020785335
0.020703349
0.020620465
0.020537632
0.02045609
0.020377397
0.020303583
0.020237138
0.020181027
0.020137946
0.020108696
0.020092627
0.020088261
0.020093575
0.020106113
0.020123738
0.020144775
0.020168469
0.019787749
0.019806172
0.019827326
0.019850084
0.019879983
0.019919839
0.019971573
0.020036598
0.020115403
0.020207197
0.020309291
0.020418512
0.020532228
0.020648352
0.020765332
0.020881962
0.020997329
0.021110737
0.021221633
0.021329577
0.021434214
0.021535259
0.021632489
0.021725788
0.021815213
0.021900892
0.021982948
0.022061488
0.022136606
0.022208378
0.022276866
0.022342114
0.022404152
0.022462993
0.02251863
0.022571033
0.02262014
0.022665848
0.022708035
0.022746595
0.022781436
0.022812487
0.022839697
0.022863042