/*--------------------------------*- C++ -*----------------------------------*\
| =========                 |                                                 |
| \\      /  F ield         | OpenFOAM: The Open Source CFD Toolbox           |
|  \\    /   O peration     | Version:  2.4.0                                 |
|   \\  /    A nd           | Web:      www.OpenFOAM.org                      |
|    \\/     M anipulation  |                                                 |
\*---------------------------------------------------------------------------*/
FoamFile
{
    version     2.0;
    format      ascii;
    class       volScalarField;
    location    "330";
    object      p;
}
// * * * * * * * * * * * * * * * * * * * * * * * * * * * * * * * * * * * * * //

dimensions      [0 2 -2 0 0 0 0];

internalField   nonuniform List<scalar> 
19477
(
-0.024685473
0.016260492
0.011605873
0.010461647
0.0095490006
0.0087062888
0.0079098703
0.0071443682
0.006399012
0.0056608906
0.0050325811
0.0045302431
0.0041425154
0.0038709769
0.0037073573
0.0036461335
0.0036755106
0.0037861923
0.0039681767
0.0042107259
0.0045027321
0.0048334828
0.0051942979
0.0055745364
0.0059433892
0.0062949802
0.0066224316
0.0069184909
0.0071774034
0.007393854
0.0075625437
0.0076780307
0.0077359682
0.0077338074
0.0076706435
0.0075443746
0.098645543
0.093846146
0.088775958
0.083444589
0.077867428
0.072066025
0.066068374
0.059910116
0.053633996
0.047290027
0.040937621
0.034613242
0.028376384
0.022283841
0.01638074
0.010702011
0.0052657724
9.3667493e-05
-0.0048838915
-0.0098602087
-0.014848418
-0.019664141
-0.024294476
-0.028801999
-0.033223569
-0.037472914
-0.041564167
-0.045382823
-0.049076401
-0.052150166
-0.055652255
-0.057117991
-0.063031735
-0.022740013
0.018000301
0.013561183
0.012171122
0.011238819
0.01030354
0.0094334004
0.0085888939
0.007766565
0.0069528359
0.0062464911
0.0056639795
0.0051943619
0.0048394205
0.004591578
0.0044459133
0.0043915695
0.0044200583
0.004522325
0.0046886221
0.0049089248
0.0051735076
0.0054746726
0.005802279
0.0061265255
0.0064414128
0.0067398816
0.0070142375
0.0072583206
0.0074667724
0.0076345696
0.0077561154
0.0078258749
0.007839405
0.0077941371
0.0076872276
0.0075230265
0.0073168029
0.0070709544
0.0067881484
0.0064714917
0.0061236075
0.005747561
0.096545418
0.09177319
0.086748802
0.081483561
0.075994324
0.070303746
0.064440435
0.05843995
0.052344106
0.046201084
0.040066907
0.033974739
0.027978218
0.022127472
0.016460702
0.011004678
0.0057730166
0.00078123127
-0.0040698753
-0.0089218255
-0.013763033
-0.018424107
-0.022917395
-0.027299011
-0.03160233
-0.035747226
-0.039740607
-0.043486105
-0.047099031
-0.050159134
-0.053566407
-0.055172136
-0.06086088
-0.020804227
0.019734808
0.015511652
0.013888659
0.012934848
0.011915584
0.010974887
0.010056543
0.0091615292
0.0082765814
0.007496385
0.0068376721
0.0062899313
0.0058551024
0.005526254
0.0052990098
0.0051633819
0.0051116086
0.0051354698
0.0052260817
0.0053743486
0.0055714136
0.0058104607
0.0060819076
0.0063570658
0.006629977
0.0068936513
0.00714021
0.0073631656
0.0075569607
0.0077167262
0.007837199
0.0079126826
0.0079375831
0.0079075671
0.0078183928
0.0076733002
0.0074860156
0.0072588305
0.0069945306
0.0066966143
0.006368082
0.0060122204
0.094440343
0.089705965
0.084738185
0.079549745
0.074158653
0.068588324
0.062867588
0.057031526
0.051120617
0.045180807
0.039264394
0.033400978
0.027638243
0.022019869
0.016577558
0.011331022
0.0062935194
0.00147376
-0.0032594903
-0.0079932449
-0.012684087
-0.017195504
-0.02155617
-0.025815044
-0.030002877
-0.034044778
-0.037942086
-0.041613423
-0.045147436
-0.04818851
-0.051504643
-0.05323994
-0.058705139
-0.018879811
0.0214627
0.017455282
0.015612213
0.014635419
0.013540399
0.012532625
0.011545522
0.01058225
0.0096305269
0.0087807632
0.0080499259
0.0074279499
0.0069168889
0.006510414
0.0062046435
0.0059903982
0.0058605782
0.005807711
0.0058236772
0.0059001884
0.006029151
0.0062045243
0.0064172882
0.0066399126
0.0068665596
0.0070904622
0.0073037683
0.0074998276
0.0076728701
0.0078179728
0.0079302162
0.0080043563
0.0080346679
0.0080157314
0.00794181
0.0078144218
0.0076452198
0.0074360687
0.0071896369
0.0069095291
0.006599002
0.0062615748
0.092336949
0.087651009
0.082750356
0.077648894
0.072365466
0.066923894
0.061352863
0.055686586
0.049963838
0.044227973
0.038527307
0.032887717
0.027351027
0.021954974
0.016725487
0.011676967
0.0068250028
0.0021675302
-0.0024444313
-0.0070687973
-0.011610385
-0.015979452
-0.020211918
-0.024351136
-0.028426074
-0.032366447
-0.036169338
-0.03976575
-0.043222382
-0.046239545
-0.049467981
-0.051322708
-0.056566406
-0.016968501
0.023182531
0.01939011
0.017339678
0.016338785
0.015175871
0.014104776
0.013053909
0.01202691
0.011012898
0.010097931
0.009299136
0.0086069175
0.0080234042
0.0075428294
0.0071617603
0.0068717732
0.0066663764
0.0065387758
0.006481541
0.0064870968
0.0065480261
0.006658965
0.0068114324
0.0069790672
0.0071561747
0.0073362867
0.0075117188
0.0076758233
0.0078227145
0.0079473393
0.008044926
0.0081107409
0.0081395865
0.008125938
0.0080631648
0.0079509914
0.0077986373
0.0076069122
0.0073779714
0.0071152233
0.0068220249
0.0065020776
0.090241819
0.085614651
0.080791196
0.075786236
0.070619134
0.065313776
0.059898351
0.054405849
0.048873018
0.043340326
0.037851956
0.032430055
0.027110908
0.021927076
0.016899584
0.012039133
0.0073628954
0.002853446
-0.0016373954
-0.0061485246
-0.010544931
-0.014778032
-0.018885884
-0.022908324
-0.026872787
-0.030713099
-0.034423108
-0.037944054
-0.041324652
-0.044313479
-0.04745745
-0.049421801
-0.054446474
-0.01507198
0.024892752
0.021314173
0.019068892
0.018043121
0.016819809
0.015689372
0.014579654
0.013493531
0.012421748
0.011446002
0.010583491
0.0098251124
0.0091730377
0.0086220226
0.0081690422
0.0078063799
0.0075281061
0.0073280492
0.0071994093
0.007135253
0.0071287726
0.0071751962
0.0072665511
0.007377639
0.0075028999
0.0076361858
0.0077700556
0.0078979849
0.0080141039
0.0081132896
0.0081907807
0.0082421374
0.0082627824
0.0082477399
0.0081904107
0.0080893893
0.0079515055
0.007775986
0.0075639979
0.0073184138
0.0070424405
0.0067397528
0.088161357
0.08360288
0.078866083
0.073966343
0.068923235
0.063760386
0.05850516
0.053189018
0.047846409
0.042514725
0.037233993
0.032022778
0.026912343
0.021930883
0.017095182
0.012413804
0.0079034474
0.0035254059
-0.00085095224
-0.0052382421
-0.0094912692
-0.013592783
-0.017579136
-0.021487567
-0.025343854
-0.02908558
-0.032704155
-0.036149286
-0.039455051
-0.042411554
-0.045474092
-0.047538606
-0.052347065
-0.013191936
0.026591759
0.023225499
0.020797644
0.019746536
0.018469948
0.017284325
0.016120584
0.014979984
0.013854965
0.012822907
0.011900979
0.011080599
0.010363951
0.009746275
0.0092249168
0.0087928206
0.0084445796
0.0081745957
0.0079766546
0.0078444091
0.007771612
0.0077540139
0.0077841215
0.0078378912
0.007909878
0.0079942413
0.0080838134
0.0081722582
0.0082538238
0.0083234164
0.008376281
0.0084080939
0.0084146909
0.0083917536
0.0083333362
0.0082378561
0.0081104292
0.0079487231
0.0077525366
0.0075237922
0.0072651515
0.0069799349
0.086101647
0.081621208
0.07697977
0.072193029
0.06728048
0.062265193
0.057173419
0.052034837
0.046881412
0.04174737
0.036668687
0.031660623
0.026750044
0.021961385
0.017307666
0.012797787
0.0084451094
0.0041810763
-8.4217742e-05
-0.0043395003
-0.0084510092
-0.012424704
-0.01629263
-0.020089762
-0.023840086
-0.027484714
-0.031013238
-0.034382385
-0.037614396
-0.040535001
-0.04351895
-0.045674516
-0.050269864
-0.011330057
0.02827791
0.025122109
0.022523673
0.02144707
0.020123958
0.018887433
0.017674412
0.016483992
0.015310275
0.014226392
0.013249393
0.012371231
0.011594079
0.010913627
0.010327555
0.0098294252
0.0094143169
0.0090771626
0.0088122963
0.0086139141
0.0084762918
0.0083956489
0.0083649486
0.0083612984
0.0083793498
0.0084135436
0.0084569878
0.0085035588
0.008547677
0.0085843561
0.0086089061
0.008617076
0.0086049197
0.0085685795
0.0085028477
0.0084065538
0.0082841263
0.0081323272
0.0079495941
0.0077365785
0.0074949952
0.0072274632
0.084068329
0.079674557
0.075136291
0.070469286
0.065692688
0.060828746
0.055902364
0.050941249
0.04597479
0.041034065
0.036151199
0.031338524
0.026619194
0.022014256
0.017533776
0.013190138
0.0089891919
0.0048290123
0.00066631297
-0.0034514947
-0.0074248504
-0.011274673
-0.015027275
-0.018715754
-0.022362267
-0.025911298
-0.029351115
-0.032644273
-0.035803518
-0.038685044
-0.041593071
-0.043830932
-0.048216532
-0.0094880351
0.029949538
0.027002018
0.024244679
0.023142705
0.021779451
0.020496393
0.019238741
0.018003143
0.016785247
0.015654031
0.014626332
0.013694651
0.012861131
0.012121877
0.01147487
0.010914248
0.010435544
0.010034181
0.0097050068
0.0094427285
0.0092421147
0.0090998112
0.0090092235
0.0089486121
0.0089127154
0.0088962298
0.0088925274
0.0088956994
0.0089003567
0.0089016647
0.0088950533
0.0088763673
0.0088417952
0.0087877424
0.008709552
0.0086065738
0.0084832148
0.0083361186
0.0081629442
0.0079631518
0.0077372936
0.0074871056
0.082066497
0.077767183
0.073338918
0.06879728
0.064160827
0.059450772
0.054690492
0.049905615
0.045122941
0.040370516
0.035676898
0.031051953
0.026515789
0.022086339
0.017772151
0.013588965
0.0095261861
0.0054710496
0.0014076962
-0.0025720894
-0.006413539
-0.010143607
-0.013783946
-0.017366342
-0.02091115
-0.024366104
-0.027718536
-0.030935852
-0.034023254
-0.036862894
-0.0396975
-0.042009256
-0.046188712
-0.0076675594
0.031604956
0.028863248
0.025958333
0.02483137
0.023433991
0.022108812
0.020811076
0.019534897
0.018277307
0.017103231
0.016029211
0.015048299
0.014162596
0.013368584
0.012664517
0.012045069
0.011506191
0.011043764
0.010653117
0.010329436
0.01006796
0.009865728
0.0097165763
0.0095999286
0.0095106101
0.0094435525
0.0093923822
0.009351395
0.0093153929
0.0092797065
0.0092399144
0.0091919869
0.0091322375
0.0090572395
0.0089626952
0.0088483414
0.0087186904
0.0085707315
0.0084020843
0.0082115595
0.0079987471
0.0077644463
0.11377345
0.11116735
0.10838598
0.1054297
0.10229981
0.098998427
0.09552823
0.091892492
0.088103856
0.084171167
0.080100647
0.075902657
0.071590183
0.067178419
0.062685139
0.058130351
0.053535792
0.048924976
0.044322181
0.039752609
0.035241578
0.030796976
0.026436306
0.022174581
0.018020787
0.013989316
0.010041603
0.0060927239
0.00213978
-0.0017039894
-0.0054189293
-0.009032528
-0.012563489
-0.016042279
-0.019487451
-0.022849872
-0.026116237
-0.029258004
-0.032274442
-0.035069744
-0.037833276
-0.040210891
-0.044188022
-0.0058703175
0.033242468
0.030703832
0.027662281
0.026510948
0.025085106
0.023722217
0.022388831
0.021076601
0.019783742
0.018571241
0.017455265
0.016429418
0.015495744
0.014651073
0.013893899
0.013219395
0.012623899
0.012103712
0.011654617
0.011272252
0.010952303
0.010692172
0.010486121
0.010314749
0.010172979
0.010055965
0.0099575835
0.0098723256
0.0097951762
0.0097216292
0.0096474195
0.0095686608
0.0094818034
0.0093835568
0.0092698681
0.0091406833
0.0090005312
0.0088468414
0.0086775486
0.0084914743
0.0082878269
0.0080666244
0.11147443
0.10885612
0.1060716
0.10312203
0.10000953
0.096736999
0.09330781
0.089725963
0.086004167
0.08215155
0.078174678
0.074083908
0.069891969
0.065613494
0.061265321
0.056866141
0.052435998
0.047996318
0.043568991
0.039176585
0.034841545
0.030570228
0.026377625
0.022276465
0.018279174
0.014392497
0.010541229
0.0066857916
0.0028587383
-0.00084922065
-0.0044418067
-0.0079420736
-0.011366575
-0.014744223
-0.018091832
-0.021363301
-0.024544932
-0.027611578
-0.030557914
-0.033306767
-0.036001432
-0.038437233
-0.042216056
-0.0040979895
0.034860385
0.03252183
0.029354162
0.028179295
0.026730297
0.025334076
0.02396935
0.0226255
0.021301719
0.020055166
0.018901564
0.017835065
0.01685764
0.01596644
0.01516017
0.014434463
0.013786015
0.013211513
0.012707163
0.012269029
0.011893222
0.011577481
0.011316488
0.011092029
0.010899142
0.010733202
0.010588336
0.010459227
0.010341036
0.01022941
0.010120238
0.010009778
0.0098946223
0.0097716104
0.0096368856
0.0094904882
0.0093368529
0.0091737664
0.0089995156
0.0088132418
0.0086142581
0.0084022837
0.10913857
0.10651641
0.10373734
0.10080324
0.097716927
0.094481937
0.091102226
0.087582356
0.083934942
0.08016923
0.076291964
0.072313337
0.068245664
0.064102873
0.059900755
0.055656625
0.051388837
0.047116807
0.042860198
0.038639187
0.034473742
0.030368997
0.02633747
0.022391634
0.018546492
0.014785974
0.011028449
0.0072636477
0.0035700934
-7.5144676e-06
-0.0034825474
-0.0068728184
-0.010193818
-0.013472779
-0.016724905
-0.019907045
-0.023005304
-0.025997391
-0.028874486
-0.031575101
-0.034202987
-0.036689667
-0.04027438
-0.002352237
0.036457044
0.034315334
0.031031616
0.029834246
0.028367054
0.026941807
0.025549914
0.024178759
0.022828299
0.021551982
0.020365026
0.019262119
0.01824515
0.017311561
0.016460241
0.015687248
0.014989602
0.014364347
0.013808079
0.013317263
0.01288841
0.012519574
0.012205849
0.011930215
0.011687852
0.011474354
0.011284107
0.011111993
0.010953342
0.010803952
0.010659854
0.010517442
0.010373447
0.010224834
0.01006792
0.0099027841
0.0097336964
0.0095586993
0.0093763656
0.0091861423
0.008987615
0.00878063
0.10677358
0.10415597
0.10139085
0.098480766
0.095429107
0.092239918
0.088917607
0.085467142
0.0819009
0.078228089
0.074455488
0.070592987
0.066652353
0.062646702
0.058590715
0.054500315
0.050392208
0.046283917
0.042193055
0.038137676
0.034135651
0.03019093
0.026314033
0.022519687
0.018817704
0.015157434
0.011490557
0.0078332669
0.0042728512
0.00081920723
-0.0025420505
-0.005825449
-0.0090457965
-0.01222849
-0.015387231
-0.01848171
-0.021497996
-0.024416212
-0.027224948
-0.029875846
-0.032438944
-0.034969561
-0.038364522
-0.00063469678
0.03803086
0.036082489
0.032692291
0.031473643
0.029992875
0.028542807
0.027127771
0.025733483
0.02436046
0.023058556
0.021842436
0.020707302
0.019654958
0.018683105
0.017790792
0.016974465
0.016231441
0.015559087
0.014954359
0.014414093
0.01393518
0.013515959
0.013151933
0.012827275
0.012537331
0.012277923
0.012043708
0.011829771
0.01163162
0.0114452
0.011266678
0.011092577
0.010919751
0.010745282
0.010565651
0.010380944
0.010195236
0.01000676
0.0098142749
0.0096174282
0.0094160472
0.0092102035
0.10438763
0.10178279
0.099039928
0.096162099
0.093153149
0.090017517
0.086759926
0.083385606
0.079906558
0.076331812
0.072668055
0.068924757
0.065113033
0.06124512
0.05733456
0.053395902
0.049444283
0.045495462
0.041565194
0.037669695
0.033824966
0.030033756
0.026306334
0.022658658
0.019080018
0.015507179
0.011925581
0.0083942708
0.0049650397
0.0016302988
-0.0016206143
-0.0048003618
-0.0079229301
-0.011011806
-0.014079298
-0.017087842
-0.020023603
-0.022868755
-0.025610047
-0.028210046
-0.030710284
-0.033278262
-0.036487989
0.0010530509
0.039580399
0.037821494
0.034333836
0.033095363
0.031605285
0.030134475
0.028700154
0.027286737
0.025895117
0.024571671
0.023330462
0.022167196
0.021083577
0.020077544
0.01914828
0.018292584
0.017508041
0.016792307
0.016142669
0.015556305
0.015030459
0.014563733
0.014152022
0.013780695
0.013445284
0.013141848
0.012865323
0.012611019
0.012374623
0.012152233
0.011940153
0.011735024
0.011533813
0.011333707
0.011131338
0.010926782
0.010723898
0.010521083
0.010317219
0.010112064
0.0099055911
0.0096980303
0.0094894582
0.0092815775
0.0090757461
0.0088732385
0.008678311
0.0084944203
0.0083176769
0.0081508006
0.0079975292
0.0078615602
0.0077473219
0.10198912
0.099405144
0.096692568
0.093854882
0.09089627
0.087821429
0.084635268
0.081343134
0.077956529
0.074484187
0.070932588
0.067310691
0.06362889
0.059898506
0.056131943
0.052342428
0.048543628
0.044749682
0.040974705
0.037233327
0.033539711
0.029896234
0.026315308
0.022804467
0.019320781
0.015827681
0.012348729
0.0089505543
0.0056464252
0.0024257602
-0.00071844251
-0.0037978793
-0.0068255617
-0.0098231037
-0.01280153
-0.015725924
-0.01858266
-0.021355663
-0.02403047
-0.026578668
-0.029017962
-0.031617115
-0.034646284
0.0027095731
0.04110444
0.039530649
0.03595384
0.034697376
0.03320187
0.031714242
0.030264309
0.02883558
0.027429148
0.026088036
0.024825672
0.023638244
0.022527356
0.021491157
0.020528941
0.019637827
0.018815637
0.018060286
0.017369356
0.016740342
0.016170812
0.015659602
0.015202992
0.014787529
0.014408958
0.014063575
0.013746615
0.01345362
0.013180474
0.012923432
0.012678938
0.012443753
0.012214947
0.011989801
0.011765085
0.011540843
0.011320704
0.011103217
0.010887366
0.010672979
0.010460125
0.01024915
0.010040337
0.009835507
0.0096360734
0.0094432359
0.0092608683
0.0090920083
0.0089329486
0.0087861287
0.0086548822
0.008542506
0.0084529829
0.0083899653
0.099586815
0.097031532
0.094356977
0.091566933
0.088665796
0.085658389
0.082549677
0.079344988
0.076055222
0.072688716
0.069251655
0.065752424
0.062200658
0.058606755
0.054982017
0.051338427
0.047688303
0.044044343
0.04041927
0.036826236
0.03327799
0.029778929
0.026339119
0.02293883
0.019532002
0.016124521
0.0127706
0.0095019635
0.0063159736
0.0032051488
0.00016400126
-0.002818436
-0.005754099
-0.0086627927
-0.011554351
-0.014396407
-0.017175645
-0.019877491
-0.022486804
-0.024982567
-0.027362861
-0.029987608
-0.032840907
0.0043340658
0.042603316
0.041207291
0.037549879
0.036277934
0.034780277
0.033279602
0.031817542
0.030377108
0.028959462
0.027604378
0.026324624
0.025116854
0.02398257
0.022920111
0.021928859
0.02100622
0.020150227
0.019359017
0.018630438
0.017962268
0.017352372
0.016799793
0.016301181
0.01584425
0.015424971
0.015039883
0.014684527
0.014354691
0.014046468
0.013756283
0.013480728
0.013216683
0.012961322
0.012712007
0.012465642
0.012222211
0.011985093
0.011752987
0.011524967
0.01130092
0.011080984
0.010865586
0.010655066
0.01045126
0.010255667
0.010069568
0.0098965969
0.0097395073
0.0095948495
0.0094648403
0.0093524532
0.0092606024
0.0091928004
0.0091523472
0.009142764
0.097191631
0.094672551
0.092043297
0.089307818
0.086470589
0.083536439
0.080510267
0.077397268
0.074207668
0.070949324
0.067628069
0.064251681
0.060829034
0.057369628
0.053883722
0.050382163
0.046876073
0.043376934
0.039896241
0.036445818
0.033038602
0.029679413
0.026358741
0.023039289
0.01971186
0.016415933
0.013192488
0.010046173
0.00697303
0.0039680619
0.0010262705
-0.0018624581
-0.0047089714
-0.0075313279
-0.010338242
-0.013099795
-0.015803065
-0.018434757
-0.020979524
-0.023422423
-0.025745782
-0.028390981
-0.031074687
0.0059270938
0.044092412
0.042838752
0.039120003
0.037836581
0.036338241
0.034828189
0.033357304
0.031908525
0.030483011
0.029117424
0.027823852
0.026599398
0.02544547
0.024360564
0.023344134
0.022393836
0.021507883
0.020684601
0.019922071
0.019218315
0.018571463
0.017980737
0.01744315
0.016947555
0.016490172
0.01606778
0.015676229
0.015311568
0.014970111
0.014648465
0.014343377
0.014051859
0.013771187
0.013498806
0.013231739
0.012969891
0.012716362
0.012469985
0.012229924
0.011996104
0.011768708
0.011548194
0.011334922
0.011130709
0.010937065
0.010755336
0.010589047
0.010440787
0.010307345
0.010190791
0.010093825
0.010019058
0.0099696028
0.0099482999
0.0099583101
0.010002959
0.094836962
0.092361468
0.089784403
0.087109766
0.084342011
0.081485875
0.078546121
0.075527751
0.072440302
0.069291122
0.066085647
0.062831049
0.059535461
0.056207533
0.05285656
0.049492385
0.046125117
0.042765212
0.039423088
0.036110132
0.032839253
0.029601909
0.026365339
0.023117093
0.019891278
0.016724555
0.013625981
0.010594475
0.0076285918
0.0047242591
0.0018768572
-0.00092280263
-0.0036845072
-0.0064245738
-0.0091505369
-0.011834625
-0.01446438
-0.01702748
-0.019508929
-0.021898465
-0.024168393
-0.026820895
-0.029364439
0.0074641735
0.045596798
0.044368543
0.040638254
0.03935128
0.037849853
0.036333987
0.034857256
0.03340281
0.031971818
0.030598171
0.029293339
0.028054898
0.02688423
0.02577996
0.024741608
0.02376704
0.022854623
0.022002842
0.02120997
0.020474247
0.019794023
0.019168676
0.018595569
0.018064586
0.017572212
0.017115445
0.016690438
0.016293501
0.015921174
0.015570254
0.015237655
0.014920522
0.014616244
0.014322351
0.014035977
0.013756933
0.013488055
0.013228288
0.012976887
0.012733803
0.012499239
0.012273661
0.012057425
0.01185229
0.01165974
0.011481124
0.011319889
0.011178508
0.01105397
0.010948246
0.010863802
0.010802993
0.010768614
0.010763135
0.010789286
0.010850059
0.092588439
0.090162783
0.087643271
0.085033884
0.082338994
0.079563204
0.076711114
0.073787511
0.070801299
0.067759326
0.064666635
0.061529822
0.058356332
0.055154045
0.051931419
0.048697471
0.045461449
0.042233087
0.039022583
0.03584013
0.032686717
0.029530517
0.026359964
0.023207172
0.020104642
0.01706033
0.014074995
0.011149378
0.0082827912
0.005471487
0.0027113042
-6.0749614e-06
-0.0026894064
-0.0053533235
-0.0080042464
-0.010616109
-0.013177003
-0.015675131
-0.018096681
-0.020433182
-0.022658091
-0.025276566
-0.027782462
0.0089026658
0.047073128
0.04575366
0.042059889
0.040777079
0.03926922
0.037750267
0.036269906
0.034811655
0.033376807
0.031996867
0.030682721
0.029432395
0.028247325
0.027126258
0.026068803
0.025073009
0.024137386
0.023260565
0.02244099
0.02167709
0.020967406
0.020311433
0.019706839
0.019144364
0.018620752
0.0181332
0.017678136
0.017252123
0.016851921
0.016474509
0.01611697
0.015776588
0.015450863
0.015137424
0.014833521
0.014538898
0.014256176
0.013984398
0.013722896
0.013471651
0.013230874
0.01300103
0.012782466
0.012576874
0.012385686
0.012210202
0.012053751
0.011918708
0.011802218
0.011706111
0.011632611
0.011583856
0.011562373
0.011570335
0.011610126
0.011684346
0.090488706
0.088115497
0.085655183
0.083111687
0.080489274
0.077792386
0.07502544
0.072192986
0.069303335
0.066362856
0.063376225
0.060349527
0.057289608
0.054203723
0.051099709
0.047985787
0.044870415
0.041764883
0.038676069
0.035600882
0.032521054
0.029429096
0.026351449
0.023315826
0.020329337
0.017393398
0.01451013
0.011680652
0.0089042842
0.0061776247
0.0034969906
0.00085484448
-0.0017566191
-0.0043505496
-0.0069325414
-0.0094780247
-0.011975763
-0.014414169
-0.016781265
-0.019067043
-0.021256305
-0.023801338
-0.026371245
0.010229239
0.048457993
0.047012393
0.043370778
0.042095628
0.040580886
0.039060904
0.037578852
0.036118824
0.034682335
0.033298682
0.031978094
0.030718937
0.029522689
0.028388214
0.027315209
0.026301893
0.025346912
0.024449026
0.023606835
0.022818932
0.022084017
0.021401669
0.020769803
0.020179905
0.019628968
0.01911438
0.018632828
0.01818111
0.017756193
0.017355241
0.016975494
0.016614377
0.016269506
0.015938616
0.015619084
0.015310615
0.015015635
0.014733257
0.014462883
0.014204508
0.013958346
0.013724851
0.013504358
0.013298502
0.013108653
0.012936038
0.012783839
0.012654352
0.012544845
0.01245698
0.012392762
0.012354134
0.012343397
0.012362477
0.012413489
0.012498743
0.088537258
0.086216467
0.08381453
0.081335275
0.078782827
0.076161439
0.073475324
0.070728781
0.067929539
0.065083515
0.062195049
0.059269802
0.056314181
0.053334944
0.050339309
0.047335591
0.04433162
0.041337828
0.038342974
0.035333595
0.032320779
0.029323165
0.026357022
0.023430295
0.020545966
0.017706983
0.014915641
0.012172869
0.009478072
0.006828207
0.0042200142
0.0016466429
-0.00089889092
-0.0034284668
-0.0059470718
-0.0084316042
-0.01087155
-0.013255431
-0.015573303
-0.017811816
-0.019971099
-0.022433589
-0.025095767
0.011452927
0.049745424
0.048166929
0.044581496
0.043315714
0.041795069
0.040275899
0.038794032
0.037334329
0.035898547
0.034513871
0.033189836
0.031925054
0.030721
0.029576631
0.028491713
0.027464613
0.026494096
0.025579035
0.024718158
0.023910198
0.023153985
0.022449157
0.021793843
0.021180219
0.020605515
0.020067303
0.019562511
0.019088164
0.018641427
0.018219636
0.017820194
0.017440662
0.017078775
0.016732376
0.016398972
0.016078231
0.015772384
0.015480605
0.015202342
0.014937596
0.014686575
0.014449718
0.014227341
0.014021009
0.013832025
0.013661555
0.013512644
0.013387483
0.013283471
0.013202164
0.013145381
0.013114874
0.013112734
0.013140673
0.01320058
0.013294526
0.086723092
0.084453968
0.08210897
0.079691801
0.077206407
0.074656832
0.072047078
0.069381187
0.06666633
0.063908047
0.061110455
0.058278881
0.055419267
0.052538567
0.049643743
0.046743845
0.043840997
0.040922934
0.037989034
0.035053087
0.032137774
0.029244822
0.02637972
0.023548684
0.020755835
0.018004183
0.015295711
0.012631262
0.010010355
0.0074302545
0.0048880662
0.0023775441
-0.00010758984
-0.0025781085
-0.0050385164
-0.0074671215
-0.0098541379
-0.012188072
-0.014461177
-0.016655677
-0.01878929
-0.021168709
-0.023928494
0.012583127
0.050943438
0.049228223
0.045701965
0.044446245
0.042920805
0.041403945
0.039923732
0.038465966
0.037032619
0.035648886
0.034323634
0.033055663
0.031846415
0.030694921
0.029600996
0.028563135
0.027580206
0.026651173
0.025774879
0.02495017
0.024175988
0.023452008
0.022776545
0.022142408
0.021547044
0.0209882
0.020463033
0.019968775
0.019502781
0.019062555
0.018645653
0.018249773
0.017872767
0.017512587
0.017166868
0.016835251
0.016519779
0.016219674
0.015934426
0.015664034
0.015408696
0.015168836
0.014944748
0.014737921
0.014549586
0.014380846
0.014234594
0.014112913
0.014013342
0.013937353
0.013886604
0.013862674
0.013867465
0.013902499
0.013969461
0.014070203
0.085037471
0.082818635
0.080528574
0.078170856
0.075749227
0.073267487
0.070729454
0.068138977
0.065502746
0.062826009
0.060112528
0.057368273
0.05459869
0.051811454
0.049012268
0.046195006
0.043358599
0.040504661
0.037650485
0.034811926
0.031992028
0.029190887
0.026414663
0.023669515
0.020959218
0.018286406
0.015652857
0.013059374
0.010505564
0.0079889643
0.0055069995
0.0030539614
0.00062418543
-0.0017921203
-0.0041990618
-0.0065762679
-0.0089146966
-0.011202672
-0.013434909
-0.015588127
-0.017700116
-0.019995841
-0.02285718
0.013628678
0.052060321
0.050205018
0.046740899
0.045495292
0.043966064
0.042452728
0.040975313
0.039520719
0.038091096
0.036709771
0.035384984
0.034115693
0.032903293
0.031746871
0.030646275
0.029600112
0.028607334
0.027666987
0.026778006
0.025939337
0.025150011
0.024409732
0.023716973
0.02306512
0.02245182
0.021874981
0.021331971
0.020820218
0.020337255
0.019880744
0.019448389
0.019038019
0.018647601
0.018275194
0.017918562
0.017577319
0.017253335
0.016945872
0.016654455
0.01637908
0.016119932
0.015877412
0.015651793
0.015444489
0.015256659
0.015089335
0.014945249
0.014826379
0.014730408
0.014658717
0.014612806
0.014594117
0.014604384
0.014644962
0.014717357
0.014823224
0.0834708
0.081300486
0.079062998
0.076761819
0.07440051
0.071982624
0.069511849
0.066991758
0.064428831
0.061829156
0.059195118
0.056534379
0.053852447
0.051145466
0.048413602
0.045659629
0.042893222
0.040127324
0.037364275
0.034611566
0.031874525
0.029155325
0.026459384
0.023791946
0.021156322
0.018554887
0.015989274
0.013460245
0.010967488
0.0085087866
0.0060818454
0.0036814394
0.0013024421
-0.0010640553
-0.0034218224
-0.0057517084
-0.0080454418
-0.010290973
-0.012485834
-0.014600082
-0.016694286
-0.018905412
-0.021872239
0.014597497
0.053103504
0.051105071
0.047705929
0.046470077
0.044937935
0.043429093
0.041955354
0.040504877
0.039079936
0.037702113
0.036379066
0.035109896
0.033895938
0.032736329
0.031630939
0.030578469
0.029577944
0.028628478
0.027729086
0.026878797
0.026076718
0.025322569
0.024614964
0.023947812
0.023318943
0.022726413
0.022167782
0.021640663
0.021142751
0.020671861
0.020225834
0.019802628
0.019400318
0.019017068
0.018650765
0.018301006
0.017969494
0.017655528
0.017358662
0.017078885
0.016816366
0.01657148
0.016344479
0.016136699
0.01594923
0.015783033
0.015640682
0.01552405
0.015430957
0.015362695
0.015320625
0.015306062
0.01532059
0.015365417
0.01544189
0.015551493
0.082013197
0.079889431
0.077702043
0.075454495
0.073150075
0.070792176
0.06838518
0.065932267
0.063439082
0.060914846
0.058360528
0.055772575
0.05315548
0.050511644
0.047846202
0.045170419
0.042488058
0.039802228
0.037117505
0.03444118
0.031779771
0.029135233
0.026512142
0.023915149
0.021347252
0.018810618
0.016306758
0.013836402
0.011399312
0.0089934916
0.0066168989
0.0042647451
0.0019323807
-0.00038829796
-0.0027007743
-0.0049870116
-0.00723955
-0.009445754
-0.011606402
-0.013683638
-0.015763717
-0.017889254
-0.020965284
0.015496617
0.054079648
0.051935254
0.048603798
0.047377041
0.045842744
0.044339159
0.042869756
0.041424108
0.040004552
0.038631037
0.03731069
0.036042739
0.034828462
0.033667038
0.032558353
0.031501189
0.030494633
0.029537855
0.028629942
0.027769991
0.026957174
0.026191222
0.025470866
0.024790499
0.024148111
0.023541894
0.022969587
0.022428969
0.02191789
0.021434305
0.020976187
0.020541611
0.02012876
0.019735898
0.019361029
0.019003736
0.018665565
0.018345852
0.018044172
0.017760504
0.017494999
0.017248007
0.017019754
0.0168115
0.016624265
0.016458944
0.016317957
0.016203072
0.016112239
0.016046668
0.016007593
0.015996211
0.016013973
0.016061956
0.016141366
0.016253536
0.080655754
0.078576333
0.076436629
0.07424068
0.071991268
0.069690874
0.067346219
0.064962249
0.062539672
0.060078776
0.057585098
0.055059111
0.052505559
0.049933386
0.04734555
0.044743667
0.042132452
0.039516949
0.036903054
0.034297045
0.031704869
0.029128275
0.026571389
0.024038433
0.021532133
0.019054483
0.016606888
0.014190055
0.011803815
0.0094463766
0.0071159225
0.0048080647
0.0025185804
0.00024010806
-0.0020305933
-0.0042764936
-0.0064910019
-0.0086606588
-0.010789991
-0.012831874
-0.014901349
-0.016940251
-0.020128962
0.016332278
0.054994693
0.052701678
0.049440496
0.048221934
0.046686149
0.045188405
0.043723825
0.042283531
0.040869861
0.03950124
0.038184305
0.036918406
0.035704764
0.034542601
0.033431811
0.03237125
0.031360057
0.030397453
0.029482582
0.028614603
0.027792744
0.027016738
0.026285422
0.025593625
0.024939488
0.024321324
0.023737034
0.023184552
0.02266187
0.022167073
0.021698257
0.02125361
0.020831414
0.020430029
0.020047572
0.019683612
0.019339554
0.019014759
0.018708825
0.018421718
0.01815357
0.017904702
0.017675315
0.017466593
0.017279488
0.017114832
0.016974895
0.016861341
0.016772246
0.016708742
0.016671947
0.016662952
0.016683083
0.016733305
0.016814696
0.016928456
0.079392469
0.077356117
0.075262426
0.073118015
0.0709264
0.068686495
0.066400333
0.064072656
0.061708098
0.05930566
0.056871198
0.054412599
0.051929534
0.049423974
0.046900422