1.001 	0.00149635 	-9.11574e-08 	-5.90211e-25
1.00305 	0.00405771 	1.08476e-06 	2.93241e-24
1.00519 	0.00598196 	5.61444e-06 	-2.39056e-24
1.00743 	0.00758683 	1.48046e-05 	-9.68323e-24
1.00978 	0.00901353 	2.9819e-05 	2.09269e-24
1.01224 	0.0103347 	5.13936e-05 	5.79584e-24
1.01481 	0.0115839 	7.97303e-05 	-1.25047e-25
1.0175 	0.012771 	0.00011448 	-1.71583e-25
1.02032 	0.0138922 	0.000154841 	-1.66411e-25
1.02326 	0.0149372 	0.000199769 	-3.07407e-26
1.02634 	0.0158949 	0.000248098 	3.30237e-24
1.02956 	0.0167596 	0.000298696 	3.53064e-24
1.03293 	0.0175359 	0.00035075 	-2.67441e-24
1.03645 	0.0182349 	0.000403707 	-5.48855e-24
1.04013 	0.0188674 	0.000457006 	-2.88152e-24
1.04398 	0.0194403 	0.000510056 	2.06324e-24
1.048 	0.0199578 	0.000562358 	6.49329e-24
1.0522 	0.0204247 	0.000613552 	4.40115e-24
1.05659 	0.0208458 	0.000663391 	-3.41815e-24
1.06118 	0.0212262 	0.000711705 	-3.69818e-24
1.06596 	0.0215709 	0.000758404 	-3.74086e-26
1.07096 	0.0218847 	0.000803459 	-2.81792e-24
1.07618 	0.0221718 	0.000846885 	-2.93844e-24
1.08162 	0.0224362 	0.000888729 	3.04482e-24
1.0873 	0.0226812 	0.000929064 	3.16981e-24
1.09322 	0.0229097 	0.00096797 	-6.29212e-25
1.09939 	0.0231244 	0.00100554 	-5.30514e-25
1.10583 	0.0233275 	0.00104185 	2.98691e-25
1.11254 	0.0235209 	0.00107699 	2.58746e-25
1.11953 	0.0237062 	0.00111103 	-2.17652e-25
1.12681 	0.0238847 	0.00114404 	-2.22328e-25
1.13439 	0.0240576 	0.00117606 	-4.21373e-26
1.14228 	0.0242259 	0.00120712 	-1.17029e-25
1.15048 	0.0243905 	0.00123727 	3.44744e-26
1.15902 	0.0245521 	0.00126648 	1.46789e-25
1.1679 	0.0247112 	0.00129477 	2.44432e-26
1.17712 	0.0248685 	0.00132211 	-2.19045e-26
1.18671 	0.0250243 	0.00134846 	-3.07479e-26
1.19666 	0.025179 	0.00137378 	-3.67133e-26
1.20699 	0.0253331 	0.00139801 	2.82524e-26
1.2177 	0.0254869 	0.00142108 	3.72551e-26
1.22882 	0.0256405 	0.00144293 	-1.00815e-26
1.24034 	0.0257944 	0.00146346 	-2.10354e-26
1.25227 	0.0259487 	0.00148261 	-2.89243e-26
1.26462 	0.0261037 	0.0015003 	-9.29822e-27
1.27741 	0.0262596 	0.00151644 	3.33655e-26
1.29064 	0.0264166 	0.00153098 	4.60997e-27
1.3043 	0.026575 	0.00154385 	-9.9455e-27
1.31843 	0.0267348 	0.00155501 	4.55615e-27
1.33301 	0.0268963 	0.00156442 	-4.25282e-27
1.34805 	0.0270597 	0.00157209 	-4.36725e-27
1.36356 	0.027225 	0.001578 	-2.84558e-28
1.37953 	0.0273923 	0.00158219 	-4.36477e-27
1.39599 	0.0275616 	0.00158469 	4.54519e-27
1.41291 	0.0277328 	0.00158554 	1.6884e-26
1.43032 	0.0279059 	0.0015848 	-8.34836e-27
1.44819 	0.0280806 	0.00158254 	-2.06841e-26
1.46654 	0.0282566 	0.00157882 	7.42612e-27
1.48537 	0.0284337 	0.00157371 	1.0561e-26
1.50465 	0.0286114 	0.00156729 	-5.36418e-27
1.5244 	0.0287891 	0.00155962 	-2.54203e-27
1.54461 	0.0289663 	0.00155076 	1.79827e-27
1.56526 	0.0291425 	0.00154076 	-3.62455e-27
1.58635 	0.0293168 	0.00152968 	2.34438e-26
1.60787 	0.0294886 	0.00151754 	2.7643e-26
1.6298 	0.0296571 	0.00150436 	-2.83936e-26
1.65213 	0.0298218 	0.00149017 	-3.20929e-26
1.67485 	0.0299817 	0.00147497 	4.40869e-26
1.69794 	0.0301365 	0.00145876 	4.75498e-26
1.72138 	0.0302853 	0.00144154 	-9.36405e-26
1.74515 	0.0304277 	0.00142332 	-9.35063e-26
1.76923 	0.0305633 	0.00140411 	4.54832e-26
1.7936 	0.0306917 	0.00138392 	4.56316e-27
1.81824 	0.0308127 	0.00136277 	-4.00347e-26
1.84312 	0.0309259 	0.00134071 	4.09336e-26
1.86822 	0.0310312 	0.00131778 	1.11493e-25
1.89351 	0.0311286 	0.00129404 	1.96643e-27
1.91896 	0.0312179 	0.00126956 	-1.40067e-25
1.94455 	0.0312993 	0.0012444 	-2.13006e-27
1.97025 	0.0313726 	0.00121866 	6.8976e-26
1.99603 	0.031438 	0.00119242 	-3.57074e-29
2.02185 	0.0314953 	0.00116576 	-1.80032e-28
2.0477 	0.0315446 	0.00113877 	-1.73577e-28
2.07354 	0.0315859 	0.00111153 	4.9861e-26
2.09934 	0.0316192 	0.00108412 	4.94034e-26
2.12507 	0.0316444 	0.00105661 	-5.09455e-26
2.1507 	0.0316613 	0.00102908 	-7.12991e-27
2.17621 	0.0316698 	0.00100158 	4.28306e-26
2.20157 	0.0316698 	0.000974157 	-4.43324e-26
2.22674 	0.031661 	0.000946868 	-4.39577e-26
2.25171 	0.0316431 	0.000919749 	-1.79498e-26
2.27644 	0.031616 	0.000892834 	-1.75399e-26
2.30092 	0.0315794 	0.000866151 	1.82389e-26
2.32512 	0.0315328 	0.000839723 	3.28765e-26
2.34901 	0.031476 	0.000813568 	2.18158e-26
2.37258 	0.0314087 	0.000787698 	-1.7995e-27
2.39581 	0.0313305 	0.000762125 	-1.61121e-26
2.41867 	0.0312412 	0.000736855 	-1.76262e-26
2.44115 	0.0311404 	0.00071189 	-9.93456e-27
2.46324 	0.031028 	0.000687233 	3.29261e-27
2.48492 	0.0309038 	0.000662881 	3.02005e-27
2.50617 	0.0307677 	0.000638831 	-3.69657e-29
2.52699 	0.0306197 	0.000615079 	-8.4797e-28
2.54737 	0.0304598 	0.000591618 	-8.27401e-28
2.5673 	0.0302882 	0.000568444 	1.64552e-27
2.58677 	0.0301051 	0.000545551 	1.63801e-27
2.60577 	0.0299109 	0.00052294 	-9.63631e-28
2.6243 	0.0297057 	0.00050061 	-1.80187e-27
2.64236 	0.0294902 	0.000478572 	-1.65607e-27
2.65995 	0.0292646 	0.000456846 	4.68933e-29
2.67706 	0.0290289 	0.000435439 	1.66766e-27
2.69369 	0.0287822 	0.000414325 	7.9739e-28
2.70985 	0.0285239 	0.000393493 	-7.89942e-31
2.72554 	0.0282546 	0.000372985 	-3.56473e-28
2.74076 	0.0279757 	0.000352842 	-3.50577e-28
2.75552 	0.027689 	0.000333064 	4.8493e-28
2.76982 	0.0273964 	0.000313623 	3.29127e-28
2.78366 	0.0270989 	0.000294509 	-2.6621e-28
2.79706 	0.0267969 	0.000275739 	1.76624e-28
2.81001 	0.0264893 	0.000257344 	8.08731e-28
2.82253 	0.0261751 	0.000239371 	3.63391e-28
2.83463 	0.0258538 	0.000221867 	-6.77309e-28
2.8463 	0.0255248 	0.000204854 	-4.54423e-27
2.85757 	0.0251877 	0.000188353 	-1.12618e-26
2.86844 	0.0248416 	0.00017239 	-3.00062e-27
2.87892 	0.0244856 	0.000156992 	1.17073e-26
2.88901 	0.0241186 	0.000142189 	7.46116e-27
2.89874 	0.0237393 	0.000128013 	-1.40544e-29
2.9081 	0.0233461 	0.000114493 	-8.92504e-30
2.91711 	0.0229371 	0.000101658 	4.70976e-29
2.92578 	0.0225103 	8.95377e-05 	4.43531e-29
2.93411 	0.0220633 	7.81561e-05 	-3.82051e-29
2.94212 	0.0215934 	6.75349e-05 	-3.79841e-29
2.94982 	0.0210976 	5.76908e-05 	-1.78724e-26
2.95721 	0.0205723 	4.86348e-05 	-1.70362e-26
2.96431 	0.0200137 	4.03684e-05 	1.95387e-26
2.97113 	0.0194173 	3.28904e-05 	1.85359e-26
2.97767 	0.0187775 	2.62148e-05 	1.98095e-28
2.98394 	0.0180865 	2.03733e-05 	5.21458e-28
2.98996 	0.017334 	1.54003e-05 	2.00732e-27
2.99573 	0.0165086 	1.13105e-05 	1.66556e-27
3.00126 	0.0155974 	8.06792e-06 	-1.67049e-27
3.00657 	0.0145841 	5.58739e-06 	-1.5821e-27
3.01165 	0.0134456 	3.75896e-06 	-2.29758e-27
3.01651 	0.0121458 	2.46072e-06 	-4.73394e-27
3.02117 	0.0106225 	1.56534e-06 	-5.80241e-28
3.02564 	0.00875738 	9.46679e-07 	7.47229e-27
3.02991 	0.00629381 	4.85078e-07 	5.08034e-27
3.034 	0.00243409 	1.3951e-07 	-4.34965e-28
