0.448113 	3.64046e-09 	2.8715e-10 	1.96656e-28 	1.37862e-09 	-1.99998e-28 	2.50886e-09
0.449383 	4.33476e-07 	3.4168e-08 	2.60217e-26 	1.64146e-07 	-2.57232e-26 	2.98729e-07
0.452176 	1.23135e-06 	9.66952e-08 	-2.43557e-25 	4.66137e-07 	9.459e-26 	8.48593e-07
0.455479 	1.90243e-06 	1.48025e-07 	-5.36179e-24 	7.19648e-07 	-6.11388e-24 	1.31109e-06
0.459224 	2.41367e-06 	1.84425e-07 	6.95817e-24 	9.11862e-07 	-2.31584e-23 	1.66307e-06
0.463359 	2.76664e-06 	2.03433e-07 	5.02755e-23 	1.04263e-06 	2.41143e-23 	1.9051e-06
0.467844 	2.99794e-06 	2.04164e-07 	-6.09909e-23 	1.12492e-06 	1.50658e-22 	2.06178e-06
0.472646 	3.14717e-06 	1.88485e-07 	-1.83397e-22 	1.17856e-06 	5.86236e-24 	2.16227e-06
0.477744 	3.21825e-06 	1.60913e-07 	3.83562e-23 	1.25126e-06 	-2.07597e-22 	2.23355e-06
0.483125 	3.21315e-06 	1.29657e-07 	2.35898e-22 	1.37896e-06 	-1.36732e-22 	2.2958e-06
0.488779 	3.22086e-06 	1.0775e-07 	9.55465e-27 	1.49327e-06 	1.00111e-22 	2.35747e-06
0.494703 	3.24271e-06 	8.96212e-08 	-8.95486e-23 	1.59735e-06 	-6.04429e-24 	2.42013e-06
0.500897 	3.26382e-06 	7.01486e-08 	1.9547e-22 	1.70581e-06 	-1.32623e-22 	2.48467e-06
0.507363 	3.28427e-06 	4.89784e-08 	-7.67386e-23 	1.819e-06 	1.79703e-22 	2.5515e-06
0.514105 	3.30435e-06 	2.62041e-08 	-1.85246e-22 	1.9375e-06 	1.05005e-22 	2.62078e-06
0.521128 	3.32445e-06 	1.6148e-09 	-7.32491e-23 	2.06175e-06 	-1.0245e-22 	2.69293e-06
0.52844 	3.34483e-06 	-2.51023e-08 	3.15448e-22 	2.19242e-06 	-2.29323e-22 	2.76845e-06
0.536045 	3.36599e-06 	-5.42361e-08 	-4.52678e-23 	2.33021e-06 	1.4919e-22 	2.8479e-06
0.543953 	3.38854e-06 	-8.61527e-08 	-4.29457e-23 	2.47581e-06 	-4.57473e-23 	2.93195e-06
0.552171 	3.41311e-06 	-1.2133e-07 	1.58214e-22 	2.63012e-06 	-4.98468e-23 	3.02137e-06
0.560708 	3.4404e-06 	-1.6034e-07 	-1.447e-22 	2.79422e-06 	2.64442e-22 	3.11708e-06
0.56957 	3.47141e-06 	-2.03782e-07 	-2.89019e-22 	2.9693e-06 	1.96806e-22 	3.2201e-06
0.578767 	3.50734e-06 	-2.52391e-07 	-1.98751e-22 	3.15669e-06 	-6.89551e-23 	3.33169e-06
0.588306 	3.54967e-06 	-3.07096e-07 	2.59858e-22 	3.35791e-06 	-4.14659e-22 	3.4534e-06
0.598196 	3.60013e-06 	-3.6902e-07 	4.38203e-22 	3.57479e-06 	-2.44442e-22 	3.58708e-06
0.608446 	3.66082e-06 	-4.39365e-07 	7.61188e-23 	3.80977e-06 	1.07509e-22 	3.73491e-06
0.619062 	3.7345e-06 	-5.19535e-07 	7.85604e-24 	4.06556e-06 	9.20484e-23 	3.89958e-06
0.630053 	3.82448e-06 	-6.11305e-07 	-2.09519e-22 	4.34557e-06 	1.94342e-22 	4.08452e-06
0.641426 	3.9349e-06 	-7.16657e-07 	-8.64119e-23 	4.65413e-06 	2.69758e-23 	4.29397e-06
0.653189 	4.07091e-06 	-8.37805e-07 	-4.26175e-23 	4.99686e-06 	1.36675e-22 	4.53325e-06
0.665349 	4.23904e-06 	-9.77323e-07 	-2.47737e-22 	5.38092e-06 	8.83395e-23 	4.80925e-06
0.677913 	4.44765e-06 	-1.13777e-06 	1.03198e-22 	5.81508e-06 	-2.7606e-22 	5.13055e-06
0.690887 	4.70623e-06 	-1.32208e-06 	8.92714e-23 	6.3088e-06 	2.21081e-23 	5.50665e-06
0.704278 	5.02304e-06 	-1.53567e-06 	-2.45318e-23 	6.87051e-06 	-7.24786e-23 	5.94592e-06
0.718091 	5.40675e-06 	-1.78602e-06 	1.15501e-22 	7.50874e-06 	-4.45708e-23 	6.4568e-06
0.732332 	5.8696e-06 	-2.08027e-06 	3.7431e-23 	8.23303e-06 	2.69057e-22 	7.05026e-06
0.747006 	6.42576e-06 	-2.42661e-06 	-1.03378e-22 	9.05384e-06 	-2.86141e-23 	7.73886e-06
0.762118 	7.08648e-06 	-2.8341e-06 	-3.26145e-23 	9.97565e-06 	-1.51567e-22 	8.53035e-06
0.777673 	7.86081e-06 	-3.31108e-06 	3.21327e-23 	1.09956e-05 	6.6844e-23 	9.42726e-06
0.793673 	8.75416e-06 	-3.87004e-06 	4.4836e-23 	1.21055e-05 	4.65355e-23 	1.04315e-05
0.810125 	9.77041e-06 	-4.52643e-06 	1.705e-22 	1.3294e-05 	-2.18003e-23 	1.1538e-05
0.827029 	1.09035e-05 	-5.28772e-06 	-2.45659e-22 	1.45514e-05 	-1.14741e-22 	1.27274e-05
0.84439 	1.2128e-05 	-6.11375e-06 	6.65984e-23 	1.58651e-05 	9.1854e-23 	1.39884e-05
0.862209 	1.34494e-05 	-6.80957e-06 	1.16131e-22 	1.71902e-05 	7.13587e-23 	1.5318e-05
0.88049 	1.47997e-05 	-7.50399e-06 	5.38505e-22 	1.85357e-05 	-3.14284e-23 	1.66707e-05
0.899233 	1.6142e-05 	-8.16685e-06 	-8.83232e-23 	1.98111e-05 	-2.26958e-22 	1.79764e-05
0.918439 	1.74202e-05 	-8.77355e-06 	-1.36606e-21 	2.09395e-05 	1.2388e-22 	1.91795e-05
0.938111 	1.85739e-05 	-9.30592e-06 	7.97795e-22 	2.18595e-05 	5.13728e-23 	2.02166e-05
0.958248 	1.95555e-05 	-9.73955e-06 	-1.12041e-21 	2.25249e-05 	3.74221e-23 	2.10394e-05
0.97885 	2.03376e-05 	-1.0053e-05 	1.1377e-21 	2.29157e-05 	2.35248e-23 	2.16257e-05
0.999917 	2.09155e-05 	-1.02451e-05 	3.31942e-23 	2.30417e-05 	-7.64203e-23 	2.19785e-05
1.02145 	2.13077e-05 	-1.03284e-05 	-2.39639e-22 	2.29358e-05 	-6.06934e-23 	2.21217e-05
1.04344 	2.15483e-05 	-1.03229e-05 	-2.30688e-21 	2.26445e-05 	1.754e-22 	2.20999e-05
1.06589 	2.16786e-05 	-1.02538e-05 	2.60733e-21 	2.22296e-05 	-1.76312e-23 	2.19574e-05
1.08881 	2.17217e-05 	-1.01344e-05 	5.74512e-22 	2.17699e-05 	-1.01979e-22 	2.17378e-05
1.11217 	2.16654e-05 	-9.74321e-06 	2.25001e-22 	2.1335e-05 	-2.83567e-23 	2.14946e-05
1.13599 	2.15265e-05 	-9.18073e-06 	6.78163e-23 	2.09651e-05 	5.54029e-23 	2.1251e-05
1.16025 	2.13629e-05 	-8.69238e-06 	3.85466e-21 	2.06524e-05 	-2.00783e-22 	2.10102e-05
1.18495 	2.11983e-05 	-8.26512e-06 	-4.55406e-21 	2.03793e-05 	8.35431e-23 	2.07874e-05
1.21008 	2.10333e-05 	-7.90591e-06 	4.66082e-23 	2.01411e-05 	1.15272e-22 	2.05864e-05
1.23564 	2.08648e-05 	-7.61286e-06 	2.54491e-21 	1.99358e-05 	-1.48762e-22 	2.03998e-05
1.26161 	2.06914e-05 	-7.38295e-06 	-5.9334e-21 	1.97509e-05 	1.25207e-22 	2.0221e-05
1.288 	2.05131e-05 	-7.20994e-06 	-4.77578e-22 	1.95707e-05 	9.26043e-23 	2.00418e-05
1.31477 	2.03281e-05 	-7.08337e-06 	-1.97407e-22 	1.93811e-05 	9.23361e-24 	1.98545e-05
1.34193 	2.01335e-05 	-6.99222e-06 	1.33875e-22 	1.91701e-05 	3.52336e-23 	1.96516e-05
1.36946 	1.99248e-05 	-6.92202e-06 	3.8699e-21 	1.89296e-05 	-9.75751e-23 	1.94273e-05
1.39735 	1.96989e-05 	-6.8599e-06 	-4.13467e-24 	1.8654e-05 	-4.35357e-23 	1.91765e-05
1.42558 	1.94509e-05 	-6.79368e-06 	4.39853e-24 	1.83408e-05 	4.62603e-24 	1.88958e-05
1.45413 	1.91777e-05 	-6.71298e-06 	6.26362e-22 	1.79897e-05 	-1.05386e-23 	1.85833e-05
1.48298 	1.88747e-05 	-6.61251e-06 	4.0636e-22 	1.76033e-05 	1.84256e-23 	1.82388e-05
1.51211 	1.85411e-05 	-6.48598e-06 	3.78397e-21 	1.71843e-05 	-1.16865e-22 	1.78627e-05
1.54151 	1.81766e-05 	-6.32909e-06 	-4.92474e-21 	1.67366e-05 	6.39242e-23 	1.74564e-05
1.57115 	1.77804e-05 	-6.1429e-06 	2.5047e-22 	1.62658e-05 	4.15893e-23 	1.70231e-05
1.60101 	1.73546e-05 	-5.92678e-06 	5.03949e-22 	1.57768e-05 	-1.13746e-23 	1.65659e-05
1.63106 	1.69024e-05 	-5.6819e-06 	-1.6686e-23 	1.52746e-05 	-3.84093e-24 	1.60882e-05
1.66127 	1.64257e-05 	-5.41316e-06 	4.86928e-23 	1.47649e-05 	-3.99601e-23 	1.55951e-05
1.69162 	1.59293e-05 	-5.12449e-06 	-5.36699e-21 	1.42525e-05 	6.92561e-23 	1.50909e-05
1.72209 	1.5418e-05 	-4.81815e-06 	-9.69371e-22 	1.37418e-05 	1.21911e-22 	1.45799e-05
1.75264 	1.4897e-05 	-4.49772e-06 	9.74887e-21 	1.32369e-05 	-1.39811e-22 	1.40669e-05
1.78325 	1.43711e-05 	-4.16915e-06 	-2.96e-21 	1.27424e-05 	-3.42638e-23 	1.35566e-05
1.81388 	1.38453e-05 	-3.83648e-06 	1.35437e-22 	1.22619e-05 	2.90135e-23 	1.30537e-05
1.84451 	1.33251e-05 	-3.50086e-06 	1.57991e-21 	1.17983e-05 	-3.18196e-23 	1.25618e-05
1.8751 	1.28145e-05 	-3.16663e-06 	-2.59315e-21 	1.13538e-05 	1.51006e-23 	1.20841e-05
1.90563 	1.23166e-05 	-2.83739e-06 	-4.22612e-22 	1.09293e-05 	7.12088e-24 	1.1623e-05
1.93607 	1.18338e-05 	-2.51343e-06 	-2.1839e-21 	1.05241e-05 	3.59158e-23 	1.11788e-05
1.96638 	1.13685e-05 	-2.19765e-06 	2.36131e-21 	1.01396e-05 	7.57274e-24 	1.0754e-05
1.99654 	1.09243e-05 	-1.89126e-06 	2.3638e-21 	9.77757e-06 	-4.56752e-23 	1.0351e-05
2.02651 	1.05038e-05 	-1.59349e-06 	-2.27181e-21 	9.43859e-06 	-3.34559e-25 	9.97107e-06
2.05627 	1.01074e-05 	-1.30511e-06 	-6.88539e-22 	9.12329e-06 	1.89064e-23 	9.61533e-06
2.08579 	9.73701e-06 	-1.02635e-06 	6.26053e-24 	8.83136e-06 	4.96969e-24 	9.284e-06
2.11504 	9.39247e-06 	-7.57248e-07 	2.26348e-22 	8.56305e-06 	-1.3583e-23 	8.97776e-06
2.144 	9.07474e-06 	-4.97571e-07 	-1.93761e-21 	8.31806e-06 	1.85393e-23 	8.69657e-06
2.17264 	8.78451e-06 	-2.45679e-07 	1.61363e-21 	8.09593e-06 	1.24204e-23 	8.44023e-06
2.20093 	8.52131e-06 	-1.12864e-09 	1.84535e-21 	7.89692e-06 	-2.58547e-23 	8.20914e-06
2.22885 	8.28528e-06 	2.35018e-07 	-1.4975e-21 	7.72072e-06 	-1.61633e-24 	8.00302e-06
2.25639 	8.0764e-06 	4.63782e-07 	2.3635e-22 	7.56731e-06 	8.19034e-24 	7.82187e-06
2.28351 	7.89449e-06 	6.86815e-07 	5.40217e-22 	7.43653e-06 	-3.45061e-24 	7.66551e-06
2.3102 	7.73937e-06 	9.0411e-07 	2.52403e-22 	7.32839e-06 	-6.31372e-24 	7.53383e-06
2.33644 	7.61056e-06 	1.11513e-06 	-3.97003e-22 	7.24285e-06 	-4.33889e-24 	7.42671e-06
2.36222 	7.5078e-06 	1.32081e-06 	-9.98599e-22 	7.17968e-06 	1.10915e-23 	7.34383e-06
2.38752 	7.43078e-06 	1.52125e-06 	8.43292e-22 	7.13871e-06 	2.74582e-24 	7.28483e-06
2.41232 	7.37903e-06 	1.71595e-06 	2.6846e-22 	7.11961e-06 	-6.17256e-24 	7.24929e-06
2.43662 	7.35147e-06 	1.90502e-06 	-1.36496e-22 	7.12214e-06 	1.66294e-24 	7.23682e-06
2.4604 	7.34745e-06 	2.08886e-06 	3.65004e-22 	7.14563e-06 	-3.38754e-24 	7.24666e-06
2.48366 	7.36636e-06 	2.26748e-06 	-5.8222e-22 	7.18913e-06 	-3.0364e-24 	7.2777e-06
2.50638 	7.40634e-06 	2.43999e-06 	-5.64242e-22 	7.25202e-06 	6.97247e-24 	7.32921e-06
2.52857 	7.4666e-06 	2.60625e-06 	4.02693e-22 	7.33288e-06 	2.31787e-24 	7.39968e-06
2.55021 	7.5452e-06 	2.76652e-06 	1.23786e-22 	7.43057e-06 	1.91188e-24 	7.48789e-06
2.5713 	7.64066e-06 	2.92064e-06 	7.49824e-22 	7.5434e-06 	-4.15036e-24 	7.59202e-06
2.59184 	7.75103e-06 	3.06784e-06 	-1.25982e-22 	7.66974e-06 	-1.01627e-23 	7.71039e-06
2.61184 	7.87446e-06 	3.20845e-06 	-1.16152e-21 	7.80779e-06 	7.40138e-24 	7.84113e-06
2.63128 	8.00889e-06 	3.34243e-06 	4.27979e-22 	7.95566e-06 	6.33695e-24 	7.9823e-06
2.65017 	8.15244e-06 	3.4694e-06 	3.20497e-22 	8.11138e-06 	-3.34809e-24 	8.13192e-06
2.66852 	8.30325e-06 	3.5896e-06 	5.52501e-23 	8.27306e-06 	-2.06478e-24 	8.28812e-06
2.68633 	8.45945e-06 	3.70305e-06 	-1.51845e-24 	8.43891e-06 	1.26675e-24 	8.44915e-06
2.7036 	8.61955e-06 	3.81002e-06 	2.42206e-22 	8.60719e-06 	-8.48204e-25 	8.61335e-06
2.72034 	8.78227e-06 	3.91092e-06 	3.03864e-24 	8.77642e-06 	-4.32376e-24 	8.77935e-06
2.73655 	8.94661e-06 	4.00604e-06 	-4.50352e-22 	8.94531e-06 	1.93387e-24 	8.94598e-06
2.75225 	9.11189e-06 	4.09623e-06 	2.88213e-23 	9.11292e-06 	2.57807e-24 	9.11241e-06
2.76743 	9.27768e-06 	4.18256e-06 	3.15047e-24 	9.2786e-06 	-5.25597e-25 	9.27811e-06
2.78211 	9.44373e-06 	4.26574e-06 	-6.43977e-23 	9.44208e-06 	1.08686e-24 	9.44289e-06
2.79629 	9.61021e-06 	4.34672e-06 	1.13875e-22 	9.60338e-06 	8.28386e-25 	9.6068e-06
2.80999 	9.77747e-06 	4.42656e-06 	1.31888e-22 	9.76287e-06 	-3.4521e-24 	9.77018e-06
2.82322 	9.94601e-06 	4.50645e-06 	-2.86354e-22 	9.92114e-06 	4.06145e-25 	9.93358e-06
2.83598 	1.01164e-05 	4.58728e-06 	-3.76168e-24 	1.00791e-05 	3.23853e-24 	1.00977e-05
2.84828 	1.02894e-05 	4.67003e-06 	1.64996e-22 	1.02377e-05 	3.3755e-25 	1.02635e-05
2.86014 	1.04656e-05 	4.75575e-06 	1.31983e-22 	1.03981e-05 	-2.19606e-24 	1.04319e-05
2.87157 	1.06458e-05 	4.84464e-06 	-4.55351e-23 	1.05616e-05 	-1.19709e-24 	1.06037e-05
2.88258 	1.08307e-05 	4.93673e-06 	-5.04101e-23 	1.07292e-05 	3.38412e-25 	1.07799e-05
2.89317 	1.10208e-05 	5.03252e-06 	-2.59161e-23 	1.0902e-05 	9.61976e-25 	1.09614e-05
2.90336 	1.12164e-05 	5.13221e-06 	4.24008e-23 	1.10811e-05 	-2.31422e-25 	1.11488e-05
2.91317 	1.14179e-05 	5.23516e-06 	-1.84742e-23 	1.12673e-05 	-1.35311e-24 	1.13425e-05
2.9226 	1.16251e-05 	5.34121e-06 	-9.63919e-23 	1.14609e-05 	9.87429e-25 	1.15429e-05
2.93166 	1.18381e-05 	5.45044e-06 	2.64191e-23 	1.16617e-05 	1.26928e-24 	1.17499e-05
2.94037 	1.2057e-05 	5.55915e-06 	4.0756e-23 	1.18691e-05 	-5.74912e-25 	1.19631e-05
2.94873 	1.22807e-05 	5.66348e-06 	-7.67781e-24 	1.20822e-05 	-4.9805e-25 	1.21814e-05
2.95675 	1.25063e-05 	5.76642e-06 	-8.1507e-24 	1.22993e-05 	3.69975e-25 	1.24027e-05
2.96446 	1.27287e-05 	5.86878e-06 	1.38184e-23 	1.25172e-05 	3.17352e-25 	1.2623e-05
2.97185 	1.29415e-05 	5.96775e-06 	1.61743e-23 	1.27303e-05 	-4.05332e-25 	1.28359e-05
2.97893 	1.31368e-05 	6.05987e-06 	-6.83278e-24 	1.29311e-05 	-3.16776e-25 	1.3034e-05
2.98571 	1.33056e-05 	6.14091e-06 	-6.14618e-24 	1.31104e-05 	1.0461e-25 	1.3208e-05
2.99221 	1.34373e-05 	6.20588e-06 	-1.01844e-24 	1.32574e-05 	7.21576e-26 	1.33474e-05
2.99843 	1.35196e-05 	6.2488e-06 	-1.09602e-24 	1.33591e-05 	5.77286e-26 	1.34394e-05
3.00436 	1.35357e-05 	6.26172e-06 	8.5947e-25 	1.33981e-05 	3.64316e-26 	1.34669e-05
3.01002 	1.34602e-05 	6.23262e-06 	6.51127e-25 	1.33479e-05 	-3.81363e-26 	1.3404e-05
3.01541 	1.32463e-05 	6.13954e-06 	-2.87836e-25 	1.31608e-05 	6.06414e-28 	1.32035e-05
3.02051 	1.27943e-05 	5.93562e-06 	1.80356e-25 	1.27355e-05 	2.20178e-26 	1.27648e-05
3.02532 	1.18596e-05 	5.50665e-06 	1.98912e-25 	1.18252e-05 	-3.70205e-27 	1.18423e-05
3.02915 	1.0212e-05 	4.74438e-06 	-1.45273e-27 	1.01941e-05 	-4.47144e-27 	1.0203e-05
3.03133 	8.74243e-06 	4.06288e-06 	2.81418e-26 	8.73235e-06 	6.74766e-29 	8.73738e-06
