0.00102579 	6.54619e-07 	3.02784e-07 	2.18122e-26 	6.47774e-07 	-8.78313e-27 	6.51204e-07
0.00227828 	1.41136e-06 	6.52208e-07 	3.03325e-26 	1.39416e-06 	-2.97169e-26 	1.40277e-06
0.0035979 	1.94515e-06 	8.96014e-07 	-3.91021e-26 	1.90965e-06 	-9.32635e-26 	1.92737e-06
0.00628381 	2.77224e-06 	1.26699e-06 	4.41001e-25 	2.68152e-06 	-1.53567e-25 	2.727e-06
0.0097908 	3.43681e-06 	1.54617e-06 	1.99845e-25 	3.23092e-06 	3.92235e-25 	3.33445e-06
0.0138067 	3.90288e-06 	1.70919e-06 	-1.22745e-24 	3.50571e-06 	7.80571e-25 	3.70437e-06
0.0182759 	4.25806e-06 	1.78756e-06 	-3.42339e-24 	3.60619e-06 	-1.63305e-25 	3.92973e-06
0.0231526 	4.53133e-06 	1.7685e-06 	-2.59501e-24 	3.64709e-06 	-1.40501e-24 	4.0858e-06
0.0284024 	4.73103e-06 	1.66969e-06 	7.69609e-24 	3.70874e-06 	-1.23757e-24 	4.21934e-06
0.0340013 	4.9002e-06 	1.58381e-06 	7.95062e-24 	3.79244e-06 	1.00264e-24 	4.34798e-06
0.0399337 	5.06655e-06 	1.5243e-06 	-4.81655e-24 	3.88143e-06 	2.38955e-24 	4.47507e-06
0.0461911 	5.23171e-06 	1.46192e-06 	-1.52651e-23 	3.97233e-06 	1.65702e-24 	4.60235e-06
0.0527704 	5.39574e-06 	1.39504e-06 	-1.50615e-23 	4.06444e-06 	-3.14412e-24 	4.73036e-06
0.0596722 	5.55805e-06 	1.32371e-06 	2.69098e-23 	4.15891e-06 	-5.00999e-24 	4.85884e-06
0.0669001 	5.7184e-06 	1.24796e-06 	2.12668e-23 	4.25646e-06 	4.46953e-24 	4.98785e-06
0.0744602 	5.87681e-06 	1.16777e-06 	-3.13544e-23 	4.35759e-06 	1.04611e-23 	5.11764e-06
0.0823599 	6.03331e-06 	1.08308e-06 	-7.10131e-23 	4.46279e-06 	5.92504e-25 	5.24852e-06
0.0906081 	6.188e-06 	9.93847e-07 	1.89114e-23 	4.57258e-06 	-1.80588e-23 	5.38079e-06
0.0992145 	6.34096e-06 	8.99968e-07 	1.08191e-22 	4.68753e-06 	-7.06597e-24 	5.51477e-06
0.108189 	6.4923e-06 	8.01359e-07 	-5.91693e-24 	4.80817e-06 	8.78307e-24 	5.65079e-06
0.117544 	6.64213e-06 	6.97857e-07 	3.19196e-23 	4.93508e-06 	1.63609e-24 	5.78919e-06
0.127289 	6.79057e-06 	5.89298e-07 	-7.26874e-23 	5.06883e-06 	1.53105e-23 	5.93031e-06
0.137436 	6.93773e-06 	4.75566e-07 	-6.18729e-23 	5.20999e-06 	2.70465e-24 	6.0745e-06
0.147997 	7.08371e-06 	3.56468e-07 	-3.89736e-23 	5.35917e-06 	-7.84148e-24 	6.22211e-06
0.158985 	7.22865e-06 	2.31829e-07 	1.02541e-22 	5.517e-06 	-1.50566e-23 	6.37352e-06
0.17041 	7.37264e-06 	1.01423e-07 	-1.76788e-25 	5.68411e-06 	1.82521e-23 	6.5291e-06
0.182286 	7.5158e-06 	-3.49622e-08 	-1.07615e-22 	5.86119e-06 	1.24448e-23 	6.68924e-06
0.194623 	7.65826e-06 	-1.77544e-07 	1.71994e-23 	6.04898e-06 	-1.14934e-24 	6.85439e-06
0.207435 	7.80013e-06 	-3.26571e-07 	-1.24335e-22 	6.24824e-06 	9.65184e-24 	7.02497e-06
0.220732 	7.94153e-06 	-4.82257e-07 	1.47266e-22 	6.45979e-06 	-2.33872e-23 	7.20146e-06
0.234527 	8.08264e-06 	-6.44852e-07 	-1.08708e-22 	6.68455e-06 	3.92856e-23 	7.38439e-06
0.248831 	8.22363e-06 	-8.14714e-07 	-3.08043e-23 	6.92343e-06 	-2.13473e-23 	7.57433e-06
0.263656 	8.36471e-06 	-9.92055e-07 	1.49516e-22 	7.17749e-06 	-3.77023e-23 	7.77191e-06
0.279011 	8.50628e-06 	-1.17715e-06 	5.35902e-23 	7.44787e-06 	-1.01733e-23 	7.97788e-06
0.294908 	8.64864e-06 	-1.37032e-06 	1.5507e-22 	7.73573e-06 	-1.17262e-23 	8.19299e-06
0.311357 	8.79238e-06 	-1.57188e-06 	-1.42628e-22 	8.04239e-06 	4.81445e-23 	8.41817e-06
0.328368 	8.9382e-06 	-1.78223e-06 	4.10075e-24 	8.36924e-06 	-1.90823e-23 	8.65448e-06
0.34595 	9.08717e-06 	-2.00184e-06 	1.65178e-23 	8.71787e-06 	-2.90878e-24 	8.90325e-06
0.364111 	9.24054e-06 	-2.23127e-06 	1.10034e-24 	9.08982e-06 	3.64145e-24 	9.16588e-06
0.38286 	9.40013e-06 	-2.471e-06 	-2.12415e-23 	9.48679e-06 	4.93337e-24 	9.4441e-06
0.402204 	9.56842e-06 	-2.72198e-06 	-9.25621e-24 	9.91061e-06 	1.30881e-24 	9.7401e-06
0.422149 	9.74869e-06 	-2.98518e-06 	-7.7201e-24 	1.03631e-05 	6.29483e-26 	1.00565e-05
0.442701 	9.94536e-06 	-3.26168e-06 	9.69541e-24 	1.08462e-05 	8.22705e-25 	1.03963e-05
0.463865 	1.01643e-05 	-3.55299e-06 	-5.19501e-24 	1.13616e-05 	-1.12457e-24 	1.07634e-05
0.485646 	1.04135e-05 	-3.86071e-06 	3.55248e-24 	1.1911e-05 	-5.6714e-25 	1.11627e-05
0.508046 	1.07031e-05 	-4.18658e-06 	-3.99665e-24 	1.2496e-05 	-2.28851e-24 	1.16001e-05
0.531067 	1.10447e-05 	-4.53189e-06 	-7.70984e-24 	1.31191e-05 	-1.53231e-25 	1.20826e-05
0.554711 	1.1449e-05 	-4.89815e-06 	2.16585e-23 	1.37842e-05 	2.96946e-23 	1.26171e-05
0.578978 	1.19223e-05 	-5.29088e-06 	3.60454e-23 	1.44972e-05 	-8.5351e-25 	1.32099e-05
0.603865 	1.24681e-05 	-5.71574e-06 	-9.1276e-24 	1.52637e-05 	-2.24781e-23 	1.3866e-05
0.629372 	1.30927e-05 	-6.17599e-06 	8.34596e-23 	1.60898e-05 	-1.96237e-23 	1.45921e-05
0.655494 	1.38016e-05 	-6.67597e-06 	-2.55528e-22 	1.69837e-05 	4.19463e-24 	1.53935e-05
0.682226 	1.45842e-05 	-7.25087e-06 	2.927e-22 	1.7968e-05 	3.63172e-23 	1.62744e-05
0.709562 	1.54555e-05 	-7.82393e-06 	-1.87613e-22 	1.90456e-05 	-4.82707e-23 	1.72479e-05
0.737495 	1.64474e-05 	-8.3486e-06 	-4.77767e-24 	2.0222e-05 	2.34581e-23 	1.83346e-05
0.766016 	1.75578e-05 	-8.94805e-06 	4.11683e-24 	2.15062e-05 	5.6425e-25 	1.95326e-05
0.795114 	1.87681e-05 	-9.62797e-06 	-1.25293e-23 	2.2835e-05 	-2.11986e-23 	2.08011e-05
0.824778 	2.00044e-05 	-1.03555e-05 	-3.46462e-22 	2.40966e-05 	6.54183e-23 	2.20494e-05
0.854995 	2.11701e-05 	-1.10713e-05 	7.94012e-22 	2.51613e-05 	-6.85227e-23 	2.31656e-05
0.88575 	2.21785e-05 	-1.17129e-05 	-9.2427e-22 	2.59231e-05 	1.50442e-23 	2.40511e-05
0.917028 	2.29456e-05 	-1.22124e-05 	-7.31025e-23 	2.63001e-05 	6.74675e-23 	2.46234e-05
0.948812 	2.3406e-05 	-1.25115e-05 	5.93432e-22 	2.62542e-05 	-3.91634e-23 	2.48317e-05
0.981083 	2.35367e-05 	-1.25798e-05 	-1.53361e-23 	2.58083e-05 	-3.76332e-23 	2.46737e-05
1.01382 	2.33645e-05 	-1.2431e-05 	-8.76573e-22 	2.50552e-05 	8.73717e-23 	2.42094e-05
1.047 	2.29621e-05 	-1.21214e-05 	1.96173e-21 	2.41326e-05 	-9.66262e-23 	2.35471e-05
1.08061 	2.2429e-05 	-1.17188e-05 	8.07768e-23 	2.3156e-05 	-5.82787e-23 	2.27979e-05
1.11462 	2.18429e-05 	-1.09113e-05 	-1.18756e-21 	2.21801e-05 	6.58724e-23 	2.20136e-05
1.149 	2.12196e-05 	-1.01563e-05 	-1.50354e-23 	2.12659e-05 	1.85282e-23 	2.12402e-05
1.18372 	2.05837e-05 	-9.44492e-06 	1.67818e-23 	2.04386e-05 	1.51381e-23 	2.05116e-05
1.21877 	1.99667e-05 	-8.77733e-06 	1.55128e-21 	1.97058e-05 	-7.20421e-23 	1.98367e-05
1.25411 	1.93873e-05 	-8.16925e-06 	6.43407e-23 	1.9057e-05 	-3.09604e-23 	1.92224e-05
1.28971 	1.8852e-05 	-7.63079e-06 	-1.71277e-21 	1.84804e-05 	7.56326e-23 	1.86663e-05
1.32555 	1.83584e-05 	-7.16615e-06 	1.27252e-23 	1.79618e-05 	1.60743e-23 	1.81601e-05
1.36158 	1.78995e-05 	-6.77169e-06 	2.8979e-24 	1.74856e-05 	-1.33661e-23 	1.76929e-05
1.39779 	1.74695e-05 	-6.43757e-06 	-2.03424e-21 	1.70347e-05 	1.06471e-22 	1.7252e-05
1.43413 	1.70581e-05 	-6.15287e-06 	4.25012e-21 	1.65965e-05 	-1.63334e-22 	1.68273e-05
1.47057 	1.6659e-05 	-5.90646e-06 	-2.20866e-21 	1.61591e-05 	5.53273e-23 	1.64089e-05
1.50709 	1.62652e-05 	-5.68564e-06 	-5.39211e-23 	1.57158e-05 	1.64686e-23 	1.59903e-05
1.54363 	1.58733e-05 	-5.47752e-06 	5.30218e-23 	1.52658e-05 	1.11401e-23 	1.55694e-05
1.58018 	1.54788e-05 	-5.27394e-06 	2.46516e-21 	1.48071e-05 	-9.83782e-23 	1.51432e-05
1.61669 	1.5079e-05 	-5.06865e-06 	-2.50638e-21 	1.43364e-05 	7.39151e-23 	1.47078e-05
1.65314 	1.46724e-05 	-4.8576e-06 	-3.25303e-23 	1.38542e-05 	1.37357e-23 	1.42631e-05
1.68948 	1.42581e-05 	-4.63562e-06 	-3.88523e-23 	1.33636e-05 	1.54082e-24 	1.3811e-05
1.72569 	1.38379e-05 	-4.40026e-06 	1.71178e-24 	1.28672e-05 	1.5918e-25 	1.33526e-05
1.76172 	1.34126e-05 	-4.15178e-06 	2.05804e-23 	1.23695e-05 	9.68239e-24 	1.2891e-05
1.79755 	1.29844e-05 	-3.88878e-06 	2.62748e-21 	1.18744e-05 	-8.87247e-23 	1.24294e-05
1.83314 	1.2556e-05 	-3.6139e-06 	-2.68286e-21 	1.13865e-05 	6.97391e-23 	1.19713e-05
1.86846 	1.2131e-05 	-3.32854e-06 	-3.40753e-23 	1.09099e-05 	1.18275e-23 	1.15204e-05
1.90347 	1.17131e-05 	-3.03431e-06 	1.3505e-22 	1.045e-05 	1.09498e-24 	1.10816e-05
1.93816 	1.13067e-05 	-2.73511e-06 	1.39218e-21 	1.00111e-05 	-4.24464e-23 	1.06588e-05
1.97249 	1.09142e-05 	-2.43192e-06 	-1.34307e-21 	9.59697e-06 	3.07565e-23 	1.02557e-05
2.00642 	1.05392e-05 	-2.12668e-06 	-1.58329e-22 	9.20909e-06 	4.59569e-24 	9.87423e-06
2.03994 	1.01833e-05 	-1.82323e-06 	-1.2274e-21 	8.84898e-06 	3.43916e-23 	9.51622e-06
2.07301 	9.84875e-06 	-1.52181e-06 	1.13886e-21 	8.51747e-06 	-2.46019e-23 	9.18301e-06
2.10562 	9.53653e-06 	-1.2238e-06 	-1.43071e-22 	8.21546e-06 	-3.31509e-24 	8.87599e-06
2.13774 	9.24835e-06 	-9.3167e-07 	-1.05505e-21 	7.9431e-06 	3.0768e-23 	8.59577e-06
2.16934 	8.98526e-06 	-6.44831e-07 	2.1584e-21 	7.70031e-06 	-5.13744e-23 	8.34271e-06
2.20042 	8.74762e-06 	-3.64375e-07 	-2.08121e-21 	7.48719e-06 	4.18326e-23 	8.11732e-06
2.23094 	8.53592e-06 	-9.16884e-08 	9.96786e-22 	7.30354e-06 	-1.51084e-23 	7.91982e-06
2.2609 	8.35073e-06 	1.73652e-07 	9.37918e-23 	7.14864e-06 	-5.05156e-24 	7.74984e-06
2.29028 	8.19232e-06 	4.32048e-07 	-1.21328e-22 	7.0221e-06 	1.93755e-24 	7.60725e-06
2.31906 	8.06019e-06 	6.82413e-07 	-9.45216e-23 	6.92336e-06 	2.15916e-24 	7.49181e-06
2.34723 	7.95434e-06 	9.24833e-07 	-2.57037e-24 	6.85179e-06 	1.67632e-25 	7.40313e-06
2.37479 	7.87447e-06 	1.15901e-06 	-4.69299e-24 	6.80638e-06 	2.93723e-25 	7.3404e-06
2.40172 	7.81987e-06 	1.38447e-06 	9.42609e-23 	6.78641e-06 	-1.35174e-24 	7.30307e-06
2.42802 	7.78983e-06 	1.60223e-06 	1.43782e-22 	6.79079e-06 	-8.46944e-25 	7.29024e-06
2.45368 	7.78333e-06 	1.81236e-06 	6.53628e-22 	6.81839e-06 	-1.33646e-23 	7.30088e-06
2.47869 	7.79953e-06 	2.01342e-06 	-6.47973e-22 	6.86764e-06 	8.76217e-24 	7.33358e-06
2.50307 	7.837e-06 	2.20615e-06 	-8.3911e-23 	6.93727e-06 	2.07745e-24 	7.38714e-06
2.5268 	7.89438e-06 	2.39128e-06 	-3.17005e-22 	7.02563e-06 	6.06448e-24 	7.45998e-06
2.54988 	7.96989e-06 	2.5678e-06 	2.6596e-22 	7.13101e-06 	-2.29564e-24 	7.5505e-06
2.57232 	8.06228e-06 	2.73633e-06 	2.73195e-22 	7.25156e-06 	-5.52746e-24 	7.65689e-06
2.59412 	8.16964e-06 	2.89766e-06 	-1.94557e-22 	7.3856e-06 	2.06745e-24 	7.77757e-06
2.61529 	8.2903e-06 	3.05167e-06 	1.8064e-23 	7.53143e-06 	3.33239e-25 	7.91087e-06
2.63582 	8.42293e-06 	3.19893e-06 	3.36783e-24 	7.68724e-06 	-7.33818e-26 	8.05503e-06
2.65573 	8.56591e-06 	3.34028e-06 	3.57196e-24 	7.85172e-06 	-9.56599e-26 	8.2088e-06
2.67502 	8.71818e-06 	3.47622e-06 	-9.92373e-24 	8.02346e-06 	2.23773e-25 	8.3708e-06
2.6937 	8.87868e-06 	3.60771e-06 	3.64106e-23 	8.20143e-06 	-2.96649e-25 	8.54004e-06
2.71178 	9.04668e-06 	3.73549e-06 	4.23798e-23 	8.38484e-06 	-2.99762e-25 	8.71571e-06
2.72926 	9.22147e-06 	3.8602e-06 	6.53817e-23 	8.57323e-06 	-1.55237e-24 	8.89733e-06
2.74617 	9.40279e-06 	3.98326e-06 	-1.73433e-22 	8.76629e-06 	1.93026e-24 	9.08457e-06
2.7625 	9.59057e-06 	4.10546e-06 	2.40143e-23 	8.96399e-06 	5.06241e-25 	9.27732e-06
2.77827 	9.78473e-06 	4.22729e-06 	4.64722e-23 	9.16655e-06 	-1.08788e-24 	9.47568e-06
2.79349 	9.98542e-06 	4.34959e-06 	-1.12725e-22 	9.3744e-06 	1.58747e-24 	9.67991e-06
2.80818 	1.01927e-05 	4.47284e-06 	1.05545e-22 	9.58812e-06 	-7.66633e-25 	9.89045e-06
2.82234 	1.04068e-05 	4.59753e-06 	-1.14613e-23 	9.80822e-06 	-1.35596e-25 	1.01076e-05
2.83599 	1.06279e-05 	4.724e-06 	2.93171e-23 	1.00352e-05 	-4.02755e-25 	1.03316e-05
2.84914 	1.08558e-05 	4.8517e-06 	-2.88259e-23 	1.02697e-05 	1.54923e-25 	1.05628e-05
2.8618 	1.10904e-05 	4.98047e-06 	-1.15656e-24 	1.05121e-05 	-8.77109e-27 	1.08013e-05
2.87399 	1.13319e-05 	5.11158e-06 	-3.16581e-23 	1.07621e-05 	7.494e-26 	1.10471e-05
2.88571 	1.15804e-05 	5.24305e-06 	-4.41176e-23 	1.10196e-05 	7.06401e-25 	1.13001e-05
2.89699 	1.18355e-05 	5.3683e-06 	2.4115e-23 	1.12843e-05 	2.32862e-25 	1.15599e-05
2.90784 	1.2096e-05 	5.49237e-06 	3.34994e-23 	1.15553e-05 	-3.486e-25 	1.18257e-05
2.91826 	1.23586e-05 	5.61788e-06 	7.7237e-24 	1.18304e-05 	-3.55076e-25 	1.20945e-05
2.92827 	1.26181e-05 	5.74264e-06 	-1.32972e-23 	1.21056e-05 	-5.55439e-26 	1.23618e-05
2.93788 	1.28681e-05 	5.86389e-06 	-1.55196e-23 	1.23753e-05 	1.50289e-25 	1.26217e-05
2.94711 	1.31016e-05 	5.97864e-06 	-7.7428e-24 	1.26329e-05 	1.58023e-25 	1.28673e-05
2.95595 	1.33112e-05 	6.08338e-06 	4.22862e-27 	1.2871e-05 	7.751e-26 	1.30911e-05
2.96444 	1.34895e-05 	6.17448e-06 	2.70729e-24 	1.30819e-05 	7.94609e-26 	1.32857e-05
2.97256 	1.36295e-05 	6.24855e-06 	7.76495e-24 	1.32582e-05 	2.00096e-27 	1.34438e-05
2.98034 	1.37241e-05 	6.30227e-06 	4.36739e-24 	1.33923e-05 	-1.73095e-25 	1.35582e-05
2.98777 	1.37664e-05 	6.33228e-06 	-6.04215e-24 	1.34765e-05 	-9.18484e-26 	1.36214e-05
2.99486 	1.37484e-05 	6.33457e-06 	-5.00997e-24 	1.3502e-05 	8.24775e-26 	1.36252e-05
3.00161 	1.36587e-05 	6.30351e-06 	-2.06847e-25 	1.34565e-05 	4.6088e-26 	1.35576e-05
3.00801 	1.34775e-05 	6.22965e-06 	-6.35447e-25 	1.3319e-05 	-1.06906e-26 	1.33983e-05
3.01404 	1.31635e-05 	6.09367e-06 	-7.37395e-25 	1.30472e-05 	9.07966e-27 	1.31054e-05
3.0197 	1.26218e-05 	5.85097e-06 	-3.93668e-26 	1.25443e-05 	1.41982e-26 	1.2583e-05
3.02494 	1.16113e-05 	5.38888e-06 	3.80874e-26 	1.1567e-05 	4.03347e-27 	1.15891e-05
3.0292 	9.81111e-06 	4.55704e-06 	4.48477e-26 	9.78921e-06 	-6.95586e-28 	9.80011e-06
3.03147 	8.3336e-06 	3.87232e-06 	8.51271e-27 	8.32159e-06 	-2.05761e-27 	8.32758e-06
3.034 	3.99556e-06 	1.8568e-06 	3.6142e-29 	3.9907e-06 	-1.18797e-27 	3.99313e-06
