0.0010258 	0.000415554 	1.51696e-06 	8.322e-23
0.00334978 	0.000980832 	4.05933e-06 	2.96884e-23
0.00630145 	0.00119196 	5.96668e-06 	-5.59489e-23
0.00983054 	0.00128137 	7.64141e-06 	-1.43795e-23
0.0138765 	0.00132544 	9.2024e-06 	-5.65093e-24
0.0183825 	0.00135385 	1.07858e-05 	-1.76931e-23
0.0233014 	0.00137827 	1.25367e-05 	-7.95079e-24
0.0285978 	0.00140341 	1.4553e-05 	-1.31677e-23
0.0342466 	0.00143062 	1.6866e-05 	1.65275e-24
0.0402317 	0.00146008 	1.94931e-05 	5.04525e-23
0.046544 	0.00149185 	2.24617e-05 	1.47286e-22
0.0531797 	0.00152605 	2.57934e-05 	7.32751e-23
0.0601391 	0.0015628 	2.94953e-05 	-1.69997e-22
0.0674258 	0.00160231 	3.35577e-05 	3.57857e-23
0.0750453 	0.00164491 	3.79672e-05 	7.82026e-23
0.0830049 	0.00169109 	4.27088e-05 	2.18826e-24
0.0913134 	0.00174122 	4.77491e-05 	-8.95575e-23
0.0999802 	0.00179549 	5.30413e-05 	-8.16921e-23
0.109016 	0.00185402 	5.85365e-05 	3.4402e-23
0.11843 	0.00191695 	6.419e-05 	3.4625e-22
0.128235 	0.00198448 	6.99617e-05 	-3.96374e-22
0.138442 	0.00205697 	7.58207e-05 	-4.10743e-23
0.149063 	0.00213502 	8.17548e-05 	-2.18708e-22
0.160109 	0.00221934 	8.7763e-05 	-1.85629e-22
0.171593 	0.00231063 	9.38541e-05 	2.15469e-22
0.183525 	0.00240949 	0.000100044 	-5.06861e-22
0.195919 	0.0025165 	0.000106353 	-2.31085e-21
0.208786 	0.00263217 	0.00011281 	1.85708e-21
0.222137 	0.00275695 	0.000119447 	4.72516e-22
0.235985 	0.00289121 	0.000126293 	2.22624e-22
0.25034 	0.00303529 	0.000133369 	9.46596e-22
0.265214 	0.00318951 	0.000140692 	2.9625e-21
0.280617 	0.00335424 	0.000148269 	-2.99182e-21
0.29656 	0.0035299 	0.000156109 	-4.89043e-22
0.313054 	0.00371702 	0.000164216 	4.40774e-22
0.330107 	0.00391621 	0.000172603 	1.28959e-21
0.347729 	0.00412816 	0.000181286 	3.79049e-21
0.365928 	0.00435362 	0.000190289 	-4.97179e-21
0.384713 	0.00459339 	0.000199645 	-8.70802e-22
0.404089 	0.00484828 	0.000209393 	1.50394e-22
0.424065 	0.00511913 	0.000219579 	4.44375e-21
0.444646 	0.00540676 	0.000230256 	-5.06536e-21
0.465836 	0.00571199 	0.000241486 	-4.19502e-22
0.48764 	0.00603564 	0.000253334 	4.84986e-22
0.51006 	0.00637851 	0.000265871 	6.66524e-23
0.533099 	0.00674139 	0.00027918 	-7.26103e-22
0.556758 	0.00712502 	0.000293344 	-6.35595e-21
0.581036 	0.0075301 	0.000308453 	7.23066e-21
0.605933 	0.00795729 	0.000324602 	6.3795e-22
0.631446 	0.00840712 	0.000341888 	3.90207e-22
0.657571 	0.00888003 	0.000360407 	-7.11306e-22
0.684304 	0.00937633 	0.000380251 	-7.8118e-22
0.711638 	0.00989615 	0.000401508 	-3.51631e-22
0.739566 	0.0104394 	0.000424253 	-8.48577e-21
0.768079 	0.0110057 	0.000448547 	9.17127e-21
0.797167 	0.0115945 	0.000474426 	7.72887e-22
0.826818 	0.0122049 	0.000501902 	9.63819e-21
0.85702 	0.0128355 	0.000530947 	-9.90577e-21
0.887757 	0.0134845 	0.000561493 	9.77822e-21
0.919015 	0.0141501 	0.000593424 	-1.99911e-20
0.950776 	0.0148295 	0.000626561 	9.71665e-21
0.983022 	0.0155197 	0.00066067 	-1.0495e-20
1.01573 	0.0162174 	0.000695449 	1.06648e-20
1.04889 	0.0169186 	0.000730538 	1.46858e-22
1.08246 	0.0176194 	0.000765526 	-2.68538e-23
1.11644 	0.0183156 	0.000799963 	1.05433e-20
1.15078 	0.019003 	0.000833381 	-1.05022e-20
1.18548 	0.0196779 	0.000865315 	-7.4234e-23
1.22049 	0.0203366 	0.000895326 	-1.01806e-20
1.25579 	0.0209759 	0.000922998 	1.00973e-20
1.29136 	0.0215927 	0.000947944 	-9.73307e-21
1.32715 	0.0221837 	0.000969813 	9.70167e-21
1.36315 	0.0227467 	0.000988333 	1.97233e-22
1.39931 	0.0232796 	0.00100334 	1.4206e-22
1.43561 	0.0237818 	0.0010148 	-1.55797e-22
1.47202 	0.0242532 	0.00102275 	-8.29148e-21
1.50849 	0.0246943 	0.00102731 	1.62732e-20
1.54499 	0.0251058 	0.00102863 	-4.4226e-23
1.5815 	0.0254887 	0.00102696 	-7.52032e-21
1.61797 	0.025844 	0.00102249 	-9.99192e-23
1.65438 	0.0261723 	0.00101549 	-1.51696e-24
1.69068 	0.0264746 	0.00100639 	-9.77381e-23
1.72684 	0.0267536 	0.000995934 	1.27927e-23
1.76284 	0.0270133 	0.000984658 	5.80228e-21
1.79863 	0.0272557 	0.000972908 	-8.50167e-23
1.83418 	0.02748 	0.000960715 	-5.71597e-21
1.86946 	0.027686 	0.000947951 	-2.43066e-22
1.90445 	0.0278736 	0.000934582 	9.6873e-23
1.9391 	0.028043 	0.000920625 	-5.94665e-24
1.97339 	0.0281946 	0.000906116 	-2.30162e-21
2.00729 	0.0283284 	0.000891104 	2.50071e-21
2.04077 	0.028445 	0.000875645 	6.63435e-23
2.07381 	0.0285444 	0.000859797 	-1.69385e-22
2.10639 	0.0286269 	0.000843619 	1.95507e-22
2.13848 	0.0286925 	0.000827166 	3.35032e-22
2.17005 	0.0287412 	0.000810489 	5.6481e-23
2.2011 	0.0287731 	0.000793636 	-2.08873e-21
2.23159 	0.028788 	0.000776648 	3.79254e-21
2.26152 	0.0287857 	0.000759562 	-2.0262e-21
2.29087 	0.0287662 	0.00074241 	-1.18687e-22
2.31963 	0.028729 	0.00072522 	2.08916e-21
2.34778 	0.0286739 	0.000708015 	-1.39312e-21
2.37531 	0.0286006 	0.000690816 	1.59124e-21
2.40222 	0.0285087 	0.000673641 	-1.52927e-21
2.42849 	0.0283981 	0.000656503 	1.61727e-21
2.45413 	0.0282684 	0.000639414 	-1.61373e-21
2.47913 	0.0281194 	0.000622383 	-1.23441e-21
2.50348 	0.0279512 	0.000605416 	-2.67378e-22
2.52719 	0.0277635 	0.000588517 	9.03213e-22
2.55026 	0.0275565 	0.000571686 	1.03499e-22
2.57268 	0.0273304 	0.000554923 	1.20404e-22
2.59446 	0.0270855 	0.000538222 	9.7999e-22
2.61561 	0.0268221 	0.000521578 	-7.62689e-22
2.63613 	0.0265407 	0.000504981 	-6.88602e-22
2.65602 	0.026242 	0.00048842 	-1.44548e-22
2.67529 	0.0259264 	0.000471884 	1.66845e-22
2.69396 	0.0255949 	0.000455361 	-4.84461e-22
2.71202 	0.0252481 	0.000438836 	8.38687e-22
2.72949 	0.0248868 	0.000422299 	1.00184e-22
2.74638 	0.024512 	0.000405734 	-9.23416e-22
2.7627 	0.0241242 	0.000389133 	4.17008e-22
2.77846 	0.023724 	0.000372503 	3.12866e-22
2.79367 	0.0233104 	0.000355796 	2.06108e-22
2.80835 	0.0228832 	0.000338946 	-2.40941e-22
2.8225 	0.0224439 	0.000321904 	-5.16711e-22
2.83614 	0.0219954 	0.000304635 	3.97335e-22
2.84927 	0.0215407 	0.00028716 	1.02683e-22
2.86193 	0.0210803 	0.000269564 	-4.07534e-22
2.87411 	0.0206134 	0.000251932 	1.87936e-22
2.88582 	0.0201384 	0.000234366 	4.10791e-22
2.89709 	0.0196543 	0.000216939 	6.12683e-23
2.90793 	0.0191599 	0.000199701 	-2.64688e-22
2.91834 	0.0186538 	0.000182697 	2.98268e-23
2.92834 	0.0181338 	0.000165979 	3.7917e-23
2.93795 	0.0175975 	0.000149602 	1.96556e-22
2.94717 	0.0170419 	0.000133622 	-9.71961e-23
2.95601 	0.0164632 	0.000118099 	-1.01397e-22
2.96448 	0.0158569 	0.000103099 	7.25884e-23
2.9726 	0.0152177 	8.86917e-05 	-1.17838e-22
2.98037 	0.0145392 	7.49559e-05 	-6.87717e-23
2.9878 	0.0138135 	6.19739e-05 	8.61611e-23
2.99488 	0.0130316 	4.98417e-05 	9.61588e-23
3.00163 	0.0121802 	3.86897e-05 	1.16e-23
3.00802 	0.0112348 	2.86614e-05 	-1.62684e-23
3.01405 	0.0101535 	1.99049e-05 	2.45697e-23
3.01971 	0.00887089 	1.26012e-05 	2.18338e-23
3.02495 	0.00728026 	6.92818e-06 	6.76787e-25
3.02973 	0.00518045 	3.01433e-06 	1.27808e-24
3.036 	0 	0 	0
