0.4481146 	0 	0 	0 	0 	0 	0
0.44853879 	8.2878695e-16 	-1.043237e-16 	-2.5475035e-32 	6.6666667e-16 	0 	6.6666667e-16
0.44897681 	6.6666667e-16 	-4.829276e-31 	-5.8529041e-33 	6.6666667e-16 	0 	6.6666667e-16
0.44942906 	6.6666667e-16 	-7.4297504e-31 	1.9665218e-32 	6.6666667e-16 	0 	6.6666667e-16
0.44989599 	6.6666667e-16 	-1.6883001e-31 	2.0137659e-34 	6.6666667e-16 	0 	6.6666667e-16
0.4503781 	6.6666667e-16 	1.2989874e-30 	4.5687487e-33 	6.6666667e-16 	0 	6.6666667e-16
0.45087586 	6.6666667e-16 	-1.1255105e-31 	-2.6252385e-32 	6.6666667e-16 	0 	6.6666667e-16
0.4513898 	6.6666667e-16 	-1.3472645e-30 	-9.4840823e-34 	6.6666667e-16 	0 	6.6666667e-16
0.45192042 	6.6666667e-16 	-6.6691631e-31 	3.3613785e-32 	6.6666667e-16 	0 	6.6666667e-16
0.45246829 	6.6666667e-16 	1.2460663e-30 	-2.7579437e-32 	6.6666667e-16 	0 	6.6666667e-16
0.45303395 	6.6666667e-16 	-7.3591544e-32 	-2.7792153e-32 	6.6666667e-16 	0 	6.6666667e-16
0.45361798 	6.6666667e-16 	-1.4349824e-30 	2.6066539e-32 	6.6666667e-16 	0 	6.6666667e-16
0.45422098 	6.6666667e-16 	-1.0842248e-31 	2.2292299e-32 	6.6666667e-16 	0 	6.6666667e-16
0.45484357 	6.6666667e-16 	5.5891098e-33 	2.092032e-32 	6.6666667e-16 	0 	6.6666667e-16
0.45548638 	6.6666667e-16 	0 	-1.6500229e-32 	6.6666667e-16 	0 	6.6666667e-16
0.45615006 	6.6666667e-16 	1.132758e-30 	1.5442525e-32 	6.6666667e-16 	0 	6.6666667e-16
0.45683531 	6.6666667e-16 	-4.6363307e-31 	3.0900992e-32 	6.6666667e-16 	0 	6.6666667e-16
0.4575428 	6.6666667e-16 	-5.3444711e-31 	-3.4715813e-32 	6.6666667e-16 	0 	6.6666667e-16
0.45827328 	6.6666667e-16 	5.9069284e-31 	-1.5573841e-32 	6.6666667e-16 	0 	6.6666667e-16
0.45902747 	6.6666667e-16 	-4.7464426e-31 	-1.4781412e-32 	6.6666667e-16 	0 	6.6666667e-16
0.45980616 	6.6666667e-16 	0 	1.6445205e-32 	6.6666667e-16 	0 	6.6666667e-16
0.46061014 	6.6666667e-16 	-3.6707014e-33 	-1.5265511e-32 	6.6666667e-16 	0 	6.6666667e-16
0.46144023 	6.6666667e-16 	4.8928076e-31 	-1.2407684e-32 	6.6666667e-16 	0 	6.6666667e-16
0.46229727 	6.6666667e-16 	1.5922039e-32 	3.9879363e-32 	6.6666667e-16 	0 	6.6666667e-16
0.46318214 	6.6666667e-16 	-5.4420757e-31 	1.4996892e-32 	6.6666667e-16 	0 	6.6666667e-16
0.46409575 	6.6666667e-16 	4.4720197e-31 	-2.4179514e-32 	6.6666667e-16 	0 	6.6666667e-16
0.46503902 	6.6666667e-16 	4.4686913e-31 	-2.8636664e-32 	6.6666667e-16 	0 	6.6666667e-16
0.46601292 	6.6666667e-16 	-6.300561e-32 	1.3397643e-32 	6.6666667e-16 	0 	6.6666667e-16
0.46701845 	6.6666667e-16 	-4.0444729e-31 	1.3415111e-32 	6.6666667e-16 	0 	6.6666667e-16
0.46805662 	6.6666667e-16 	-3.4790024e-31 	1.0793903e-32 	6.6666667e-16 	0 	6.6666667e-16
0.46912849 	6.6666667e-16 	3.299327e-31 	-1.3675303e-32 	6.6666667e-16 	0 	6.6666667e-16
0.47023517 	6.6666667e-16 	6.9507553e-31 	-1.9363785e-32 	6.6666667e-16 	0 	6.6666667e-16
0.47137778 	6.6666667e-16 	-2.4684251e-31 	1.1567694e-32 	6.6666667e-16 	0 	6.6666667e-16
0.47255748 	6.6666667e-16 	-3.6566283e-31 	1.9388994e-32 	6.6666667e-16 	0 	6.6666667e-16
0.47377548 	6.6666667e-16 	3.4366021e-31 	3.3651245e-34 	6.6666667e-16 	0 	6.6666667e-16
0.47503301 	6.6666667e-16 	4.1404399e-32 	-1.066643e-32 	6.6666667e-16 	0 	6.6666667e-16
0.47633137 	6.6666667e-16 	3.1302966e-31 	2.5729792e-33 	6.6666667e-16 	0 	6.6666667e-16
0.47767188 	6.6666667e-16 	8.6180944e-32 	8.5626991e-33 	6.6666667e-16 	0 	6.6666667e-16
0.47905589 	6.6666667e-16 	-2.6366932e-31 	-4.4440226e-33 	6.6666667e-16 	0 	6.6666667e-16
0.48048483 	6.6666667e-16 	1.7848987e-31 	-1.0565681e-32 	6.6666667e-16 	0 	6.6666667e-16
0.48196014 	6.6666667e-16 	2.4768685e-31 	-5.6569225e-33 	6.6666667e-16 	0 	6.6666667e-16
0.48348334 	6.6666667e-16 	-2.3315669e-31 	1.1373038e-32 	6.6666667e-16 	0 	6.6666667e-16
0.48505597 	6.6666667e-16 	-8.0313532e-33 	7.874248e-33 	6.6666667e-16 	0 	6.6666667e-16
0.48667964 	6.6666667e-16 	2.2849417e-31 	-9.223794e-33 	6.6666667e-16 	0 	6.6666667e-16
0.48835599 	6.6666667e-16 	1.8730177e-31 	-1.2251762e-37 	6.6666667e-16 	0 	6.6666667e-16
0.49008674 	6.6666667e-16 	-4.397391e-32 	-8.4694568e-34 	6.6666667e-16 	0 	6.6666667e-16
0.49187366 	6.6666667e-16 	-3.2852236e-32 	-6.4926361e-33 	6.6666667e-16 	0 	6.6666667e-16
0.49371855 	6.6666667e-16 	2.268219e-31 	5.8786728e-34 	6.6666667e-16 	0 	6.6666667e-16
0.4956233 	6.6666667e-16 	0 	1.3157864e-32 	6.6666667e-16 	0 	6.6666667e-16
0.49758984 	6.6666667e-16 	1.867093e-31 	6.2045974e-33 	6.6666667e-16 	0 	6.6666667e-16
0.49962018 	6.6666667e-16 	1.8775275e-31 	5.7393899e-33 	6.6666667e-16 	0 	6.6666667e-16
0.50171638 	6.6666667e-16 	1.7347001e-32 	-5.4486141e-33 	6.6666667e-16 	0 	6.6666667e-16
0.50388058 	6.6666667e-16 	-3.3973998e-34 	-1.7850932e-32 	6.6666667e-16 	0 	6.6666667e-16
0.50611498 	6.6666667e-16 	-3.1244166e-32 	5.6327503e-33 	6.6666667e-16 	0 	6.6666667e-16
0.50842185 	6.6666667e-16 	1.3675269e-32 	1.1591485e-32 	6.6666667e-16 	0 	6.6666667e-16
0.51080353 	6.6666667e-16 	1.3101048e-32 	-6.3267082e-33 	6.6666667e-16 	0 	6.6666667e-16
0.51326245 	6.6666667e-16 	1.523366e-31 	-5.4310972e-33 	6.6666667e-16 	0 	6.6666667e-16
0.51580111 	6.6666667e-16 	1.7769066e-31 	1.0211902e-32 	6.6666667e-16 	0 	6.6666667e-16
0.51842208 	6.6666667e-16 	-1.2320779e-31 	2.980697e-34 	6.6666667e-16 	0 	6.6666667e-16
0.52112804 	6.6666667e-16 	-1.4508136e-31 	-4.45098e-33 	6.6666667e-16 	0 	6.6666667e-16
0.52392172 	6.6666667e-16 	-9.8495964e-33 	-4.5351681e-33 	6.6666667e-16 	0 	6.6666667e-16
0.52680597 	6.6666667e-16 	1.4045263e-31 	-4.5166649e-33 	6.6666667e-16 	0 	6.6666667e-16
0.52978371 	6.6666667e-16 	-3.8690155e-33 	4.5429028e-33 	6.6666667e-16 	0 	6.6666667e-16
0.53285797 	6.6666667e-16 	-1.3578723e-31 	-4.2500914e-33 	6.6666667e-16 	0 	6.6666667e-16
0.53603187 	6.6666667e-16 	1.3402575e-31 	6.0038863e-35 	6.6666667e-16 	0 	6.6666667e-16
0.53930862 	6.6666667e-16 	1.2712042e-31 	4.1015205e-33 	6.6666667e-16 	0 	6.6666667e-16
0.54269156 	6.6666667e-16 	-2.3526273e-31 	-3.8819576e-33 	6.6666667e-16 	0 	6.6666667e-16
0.54618412 	6.6666667e-16 	-7.4915077e-33 	-3.4385185e-34 	6.6666667e-16 	0 	6.6666667e-16
0.54978982 	6.6666667e-16 	2.2292973e-31 	7.136576e-33 	6.6666667e-16 	0 	6.6666667e-16
0.55351233 	6.6666667e-16 	-1.0783802e-31 	2.204053e-34 	6.6666667e-16 	0 	6.6666667e-16
0.55735543 	6.6666667e-16 	-1.0486284e-31 	-3.4424203e-33 	6.6666667e-16 	0 	6.6666667e-16
0.561323 	6.6666667e-16 	1.0268904e-31 	-3.2309845e-33 	6.6666667e-16 	0 	6.6666667e-16
0.56541906 	6.6666667e-16 	3.4651934e-33 	-3.2761045e-33 	6.6666667e-16 	0 	6.6666667e-16
0.56964776 	6.6666667e-16 	-9.7914253e-32 	3.1079053e-33 	6.6666667e-16 	0 	6.6666667e-16
0.57177618 	6.6666667e-16 	-9.5431271e-32 	1.6240003e-33 	6.6666667e-16 	0 	6.6666667e-16
0.57401366 	6.6666667e-16 	-9.2545044e-32 	5.4377205e-35 	6.6666667e-16 	0 	6.6666667e-16
0.57852116 	6.6666667e-16 	-3.2818507e-33 	-1.4124873e-34 	6.6666667e-16 	0 	6.6666667e-16
0.58317458 	6.6666667e-16 	8.6257371e-32 	1.0415299e-34 	6.6666667e-16 	0 	6.6666667e-16
0.5879786 	6.6666667e-16 	8.4492465e-32 	-1.1143489e-34 	6.6666667e-16 	0 	6.6666667e-16
0.5929381 	6.6666667e-16 	3.5500515e-33 	2.6198126e-33 	6.6666667e-16 	0 	6.6666667e-16
0.59805807 	6.6666667e-16 	-7.7669173e-32 	-2.5695109e-33 	6.6666667e-16 	0 	6.6666667e-16
0.60334368 	6.6666667e-16 	8.1715846e-33 	2.5120752e-33 	6.6666667e-16 	0 	6.6666667e-16
0.60880029 	6.6666667e-16 	4.0123432e-33 	2.5547941e-33 	6.6666667e-16 	0 	6.6666667e-16
0.61443337 	6.6666667e-16 	4.5906771e-33 	-1.0298129e-34 	6.6666667e-16 	0 	6.6666667e-16
0.62024863 	6.6666667e-16 	1.0259945e-33 	5.5703936e-35 	6.6666667e-16 	0 	6.6666667e-16
0.62625192 	6.6666667e-16 	-1.2584478e-33 	-2.2107945e-33 	6.6666667e-16 	0 	6.6666667e-16
0.63244929 	6.6666667e-16 	1.2493051e-31 	-3.6077787e-37 	6.6666667e-16 	0 	6.6666667e-16
0.63884698 	6.6666667e-16 	6.0704895e-32 	-3.7102073e-37 	6.6666667e-16 	0 	6.6666667e-16
0.64545143 	6.6666667e-16 	-1.1163391e-31 	3.016628e-36 	6.6666667e-16 	0 	6.6666667e-16
0.65226929 	6.6666667e-16 	-6.035564e-32 	-3.1366826e-36 	6.6666667e-16 	0 	6.6666667e-16
0.65930742 	6.6666667e-16 	-5.0449709e-32 	7.3822356e-37 	6.6666667e-16 	0 	6.6666667e-16
0.66657289 	6.6666667e-16 	-9.8199781e-34 	-2.3862528e-34 	6.6666667e-16 	0 	6.6666667e-16
0.67407299 	6.6666667e-16 	3.8287606e-32 	-1.7641686e-33 	6.6666667e-16 	0 	6.6666667e-16
0.68181526 	6.6666667e-16 	-5.9912917e-32 	1.6192404e-33 	6.6666667e-16 	0 	6.6666667e-16
0.68980747 	6.6666667e-16 	-9.3953434e-32 	3.7194447e-34 	6.6666667e-16 	0 	6.6666667e-16
0.69805763 	6.6666667e-16 	4.8151247e-32 	-2.661366e-33 	6.6666667e-16 	0 	6.6666667e-16
0.70657401 	6.6666667e-16 	7.8938187e-32 	-1.1112971e-35 	6.6666667e-16 	0 	6.6666667e-16
0.71536515 	6.6666667e-16 	-3.6502696e-32 	1.1504529e-33 	6.6666667e-16 	0 	6.6666667e-16
0.72443983 	6.6666667e-16 	-3.560528e-32 	1.1617097e-33 	6.6666667e-16 	0 	6.6666667e-16
0.73380715 	6.6666667e-16 	3.2629554e-32 	-3.1062235e-34 	6.6666667e-16 	0 	6.6666667e-16
0.74347646 	6.6666667e-16 	7.367e-32 	1.2962825e-33 	6.6666667e-16 	0 	6.6666667e-16
0.75345743 	6.6666667e-16 	-2.8432396e-32 	-8.951547e-34 	6.6666667e-16 	0 	6.6666667e-16
0.76376001 	6.6666667e-16 	-5.128967e-32 	2.3698533e-34 	6.6666667e-16 	0 	6.6666667e-16
0.77439449 	6.6666667e-16 	6.4721775e-32 	1.3021165e-33 	6.6666667e-16 	0 	6.6666667e-16
0.78537146 	6.6666667e-16 	2.3399356e-32 	-1.5745675e-33 	6.6666667e-16 	0 	6.6666667e-16
0.79670186 	6.6666667e-16 	-4.6690128e-32 	-3.4775286e-34 	6.6666667e-16 	0 	6.6666667e-16
0.80839697 	6.6666667e-16 	2.2268229e-32 	7.2128887e-34 	6.6666667e-16 	0 	6.6666667e-16
0.8204684 	6.6666667e-16 	5.5833349e-32 	2.151825e-33 	6.6666667e-16 	0 	6.6666667e-16
0.83292817 	6.6666667e-16 	-1.9914238e-32 	-1.6304772e-33 	6.6666667e-16 	0 	6.6666667e-16
0.84578863 	6.6666667e-16 	-9.3047502e-34 	-2.9229613e-33 	6.6666667e-16 	0 	6.6666667e-16
0.85906255 	6.6666667e-16 	3.0845128e-32 	1.3304083e-33 	6.6666667e-16 	0 	6.6666667e-16
0.87276307 	6.6666667e-16 	1.7120604e-32 	5.8417128e-34 	6.6666667e-16 	0 	6.6666667e-16
0.88690376 	6.6666667e-16 	1.6218849e-32 	-4.2392328e-34 	6.6666667e-16 	0 	6.6666667e-16
0.9014986 	6.6666667e-16 	0 	9.1879141e-35 	6.6666667e-16 	0 	6.6666667e-16
0.91656202 	6.6666667e-16 	1.3861496e-32 	3.976773e-34 	6.6666667e-16 	0 	6.6666667e-16
0.93210888 	6.6666667e-16 	-1.2304009e-32 	4.0890727e-34 	6.6666667e-16 	0 	6.6666667e-16
0.94815452 	6.6666667e-16 	-3.80998e-32 	-7.7083151e-34 	6.6666667e-16 	0 	6.6666667e-16
0.96471474 	6.6666667e-16 	-5.9214541e-34 	-2.2716008e-35 	6.6666667e-16 	0 	6.6666667e-16
0.98180582 	6.6666667e-16 	1.6269696e-32 	-9.6006602e-35 	6.6666667e-16 	0 	6.6666667e-16
0.99944458 	6.6666667e-16 	1.3393623e-32 	-1.0236687e-35 	6.6666667e-16 	0 	6.6666667e-16
1.0176483 	6.6666667e-16 	4.0536609e-33 	4.4498812e-34 	6.6666667e-16 	0 	6.6666667e-16
1.0364349 	6.6666667e-16 	2.0350422e-32 	-6.8501701e-36 	6.6666667e-16 	0 	6.6666667e-16
1.0558227 	6.6666667e-16 	-5.8226388e-33 	-1.7876028e-34 	6.6666667e-16 	0 	6.6666667e-16
1.0758308 	6.6666667e-16 	-4.7307908e-32 	3.2439282e-34 	6.6666667e-16 	0 	6.6666667e-16
1.0964785 	6.6666667e-16 	4.7700608e-33 	-1.1574229e-34 	6.6666667e-16 	0 	6.6666667e-16
1.1177862 	6.6666667e-16 	1.9092537e-32 	-1.0789502e-34 	6.6666667e-16 	0 	6.6666667e-16
1.1397745 	6.6666667e-16 	-4.1394546e-33 	6.5029766e-34 	6.6666667e-16 	0 	6.6666667e-16
1.1624649 	6.6666667e-16 	-3.5471099e-33 	-1.2635034e-35 	6.6666667e-16 	0 	6.6666667e-16
1.1858794 	6.6666667e-16 	-1.9534592e-32 	-5.2631761e-34 	6.6666667e-16 	0 	6.6666667e-16
1.2100408 	6.6666667e-16 	1.5778225e-32 	-1.3130106e-35 	6.6666667e-16 	0 	6.6666667e-16
1.2349723 	6.6666667e-16 	1.6177647e-32 	6.5280888e-35 	6.6666667e-16 	0 	6.6666667e-16
1.2606983 	6.6666667e-16 	-1.651826e-32 	3.1446936e-35 	6.6666667e-16 	0 	6.6666667e-16
1.2872435 	6.6666667e-16 	-1.4726795e-34 	4.6438234e-34 	6.6666667e-16 	0 	6.6666667e-16
1.3146335 	6.6666667e-16 	-1.3409631e-32 	-2.3220079e-34 	6.6666667e-16 	0 	6.6666667e-16
1.3209788 	6.6666667e-16 	-1.3694233e-32 	-2.3028808e-34 	6.6666667e-16 	0 	6.6666667e-16
1.3428965 	6.6666667e-16 	-1.4685885e-32 	-2.2877917e-34 	6.6666667e-16 	0 	6.6666667e-16
1.3720585 	6.6666667e-16 	-7.753375e-34 	-4.2927593e-34 	6.6666667e-16 	0 	6.6666667e-16
1.4021469 	6.6666667e-16 	1.2324007e-32 	-3.7015083e-35 	6.6666667e-16 	0 	6.6666667e-16
1.4331904 	6.6666667e-16 	6.4181957e-34 	5.515119e-34 	6.6666667e-16 	0 	6.6666667e-16
1.4652188 	6.6666667e-16 	-1.0273938e-32 	1.6225103e-34 	6.6666667e-16 	0 	6.6666667e-16
1.4982627 	6.6666667e-16 	1.555668e-34 	-5.0250027e-36 	6.6666667e-16 	0 	6.6666667e-16
1.5323536 	6.6666667e-16 	1.9112521e-32 	-3.3757041e-34 	6.6666667e-16 	0 	6.6666667e-16
1.567524 	6.6666667e-16 	4.1305365e-33 	-3.3986891e-34 	6.6666667e-16 	0 	6.6666667e-16
1.6038071 	6.6666667e-16 	-2.4359501e-32 	2.1134823e-34 	6.6666667e-16 	0 	6.6666667e-16
1.6412376 	6.6666667e-16 	3.985171e-33 	4.8647022e-34 	6.6666667e-16 	0 	6.6666667e-16
1.6798508 	6.6666667e-16 	1.5433955e-32 	-1.4516752e-34 	6.6666667e-16 	0 	6.6666667e-16
1.7196831 	6.6666667e-16 	9.4933478e-33 	-2.3193888e-34 	6.6666667e-16 	0 	6.6666667e-16
1.7607723 	6.6666667e-16 	4.1492375e-33 	1.398631e-34 	6.6666667e-16 	0 	6.6666667e-16
1.8018234 	6.6666667e-16 	1.9279721e-33 	8.6118501e-35 	6.6666667e-16 	0 	6.6666667e-16
1.8415466 	6.6666667e-16 	-1.695835e-32 	-2.3841684e-34 	6.6666667e-16 	0 	6.6666667e-16
1.8799862 	6.6666667e-16 	-1.2680979e-32 	-3.47415e-35 	6.6666667e-16 	0 	6.6666667e-16
1.9171847 	6.6666667e-16 	1.8196821e-32 	3.8954319e-34 	6.6666667e-16 	0 	6.6666667e-16
1.9531836 	6.6666667e-16 	1.5488661e-32 	-8.1434018e-35 	6.6666667e-16 	0 	6.6666667e-16
1.9880224 	6.6666667e-16 	-2.3018109e-32 	-7.4715321e-35 	6.6666667e-16 	0 	6.6666667e-16
2.0217396 	6.6666667e-16 	-3.4681877e-33 	3.0063693e-35 	6.6666667e-16 	0 	6.6666667e-16
2.0543721 	6.6666667e-16 	3.1793867e-32 	2.0810746e-35 	6.6666667e-16 	0 	6.6666667e-16
2.0859558 	6.6666667e-16 	-1.2561602e-32 	2.1255383e-34 	6.6666667e-16 	0 	6.6666667e-16
2.116525 	6.6666667e-16 	-2.4127701e-32 	-2.0251465e-35 	6.6666667e-16 	0 	6.6666667e-16
2.13776 	6.6666667e-16 	-6.9934527e-33 	-2.5466404e-34 	6.6666667e-16 	0 	6.6666667e-16
2.1461135 	6.6666667e-16 	1.1797907e-34 	-3.418022e-34 	6.6666667e-16 	0 	6.6666667e-16
2.1747538 	6.6666667e-16 	1.379696e-32 	8.7654065e-35 	6.6666667e-16 	0 	6.6666667e-16
2.2024761 	6.6666667e-16 	1.0494054e-32 	1.9030216e-34 	6.6666667e-16 	0 	6.6666667e-16
2.2293103 	6.6666667e-16 	-1.6947037e-33 	1.2053671e-35 	6.6666667e-16 	0 	6.6666667e-16
2.2552856 	6.6666667e-16 	2.0056862e-33 	-1.0646537e-34 	6.6666667e-16 	0 	6.6666667e-16
2.2804299 	6.6666667e-16 	0 	-1.4487714e-34 	6.6666667e-16 	0 	6.6666667e-16
2.3047701 	6.6666667e-16 	1.8927562e-32 	-2.0952045e-35 	6.6666667e-16 	0 	6.6666667e-16
2.3283326 	6.6666667e-16 	3.1064283e-33 	3.7804168e-36 	6.6666667e-16 	0 	6.6666667e-16
2.3511425 	6.6666667e-16 	-1.6412286e-32 	-1.0984794e-34 	6.6666667e-16 	0 	6.6666667e-16
2.3732242 	6.6666667e-16 	-4.8834357e-33 	1.3200753e-34 	6.6666667e-16 	0 	6.6666667e-16
2.3946014 	6.6666667e-16 	7.3223489e-33 	2.2693908e-34 	6.6666667e-16 	0 	6.6666667e-16
2.4152968 	6.6666667e-16 	1.2053823e-32 	-3.0764555e-34 	6.6666667e-16 	0 	6.6666667e-16
2.4353325 	6.6666667e-16 	3.8118755e-32 	-1.441297e-34 	6.6666667e-16 	0 	6.6666667e-16
2.4547298 	6.6666667e-16 	1.3274105e-32 	8.8491602e-35 	6.6666667e-16 	0 	6.6666667e-16
2.4735093 	6.6666667e-16 	8.7983896e-33 	-1.6074168e-34 	6.6666667e-16 	0 	6.6666667e-16
2.4916909 	6.6666667e-16 	1.1336158e-32 	-8.3218651e-35 	6.6666667e-16 	0 	6.6666667e-16
2.509294 	6.6666667e-16 	6.3717753e-34 	1.7872493e-34 	6.6666667e-16 	0 	6.6666667e-16
2.526337 	6.6666667e-16 	2.3850662e-32 	6.8386832e-35 	6.6666667e-16 	0 	6.6666667e-16
2.542838 	6.6666667e-16 	-1.1436277e-34 	-1.9804958e-34 	6.6666667e-16 	0 	6.6666667e-16
2.5588145 	6.6666667e-16 	-1.2115086e-32 	9.4837031e-35 	6.6666667e-16 	0 	6.6666667e-16
2.5742833 	6.6666667e-16 	2.182326e-34 	2.8169016e-34 	6.6666667e-16 	0 	6.6666667e-16
2.5892607 	6.6666667e-16 	1.270109e-32 	-1.0960999e-34 	6.6666667e-16 	0 	6.6666667e-16
2.6037624 	6.6666667e-16 	1.8412405e-33 	-8.7529431e-35 	6.6666667e-16 	0 	6.6666667e-16
2.6178038 	6.6666667e-16 	1.1098376e-35 	1.0826853e-34 	6.6666667e-16 	0 	6.6666667e-16
2.6313994 	6.6666667e-16 	-2.7759154e-32 	-1.2348088e-34 	6.6666667e-16 	0 	6.6666667e-16
2.6445637 	6.6666667e-16 	-1.5700245e-32 	-3.9013821e-35 	6.6666667e-16 	0 	6.6666667e-16
2.6573104 	6.6666667e-16 	-3.8890517e-34 	5.9486688e-37 	6.6666667e-16 	0 	6.6666667e-16
2.6696528 	6.6666667e-16 	3.3354957e-34 	1.7046317e-34 	6.6666667e-16 	0 	6.6666667e-16
2.6816039 	6.6666667e-16 	8.1925933e-32 	-4.8221698e-36 	6.6666667e-16 	0 	6.6666667e-16
2.6931762 	6.6666667e-16 	6.2569113e-32 	-7.9629626e-35 	6.6666667e-16 	0 	6.6666667e-16
2.7043818 	6.6666667e-16 	-4.3005478e-32 	1.2537723e-34 	6.6666667e-16 	0 	6.6666667e-16
2.7152323 	6.6666667e-16 	1.080999e-33 	-4.2992805e-35 	6.6666667e-16 	0 	6.6666667e-16
2.7257392 	6.6666667e-16 	1.0675667e-32 	-7.3262334e-36 	6.6666667e-16 	0 	6.6666667e-16
2.7359133 	6.6666667e-16 	8.8943049e-34 	-4.9843109e-35 	6.6666667e-16 	0 	6.6666667e-16
2.7457652 	6.6666667e-16 	-1.2527186e-32 	2.8781035e-36 	6.6666667e-16 	0 	6.6666667e-16
2.7553053 	6.6666667e-16 	-2.6363415e-32 	1.5703007e-34 	6.6666667e-16 	0 	6.6666667e-16
2.7645435 	6.6666667e-16 	1.1154287e-32 	-4.2473834e-36 	6.6666667e-16 	0 	6.6666667e-16
2.7734893 	6.6666667e-16 	-3.0215421e-32 	-1.118109e-34 	6.6666667e-16 	0 	6.6666667e-16
2.782152 	6.6666667e-16 	-4.185941e-32 	1.8505865e-34 	6.6666667e-16 	0 	6.6666667e-16
2.7905408 	6.6666667e-16 	2.1794319e-32 	-4.0239952e-35 	6.6666667e-16 	0 	6.6666667e-16
2.7986642 	6.6666667e-16 	-1.2621942e-32 	-1.2285439e-34 	6.6666667e-16 	0 	6.6666667e-16
2.8065307 	6.6666667e-16 	-3.4279329e-32 	-1.4717743e-34 	6.6666667e-16 	0 	6.6666667e-16
2.8141485 	6.6666667e-16 	-4.9157451e-32 	-3.7928955e-35 	6.6666667e-16 	0 	6.6666667e-16
2.8215254 	6.6666667e-16 	2.9623593e-32 	1.9754782e-34 	6.6666667e-16 	0 	6.6666667e-16
2.8286692 	6.6666667e-16 	1.3071151e-31 	2.5343322e-36 	6.6666667e-16 	0 	6.6666667e-16
2.8355872 	6.6666667e-16 	-8.6089515e-32 	3.2703152e-36 	6.6666667e-16 	0 	6.6666667e-16
2.8422866 	6.6666667e-16 	-9.5549559e-32 	-1.1281763e-34 	6.6666667e-16 	0 	6.6666667e-16
2.8487743 	6.6666667e-16 	7.9845776e-32 	2.6395301e-35 	6.6666667e-16 	0 	6.6666667e-16
2.8550571 	6.6666667e-16 	-4.9173446e-32 	2.124797e-34 	6.6666667e-16 	0 	6.6666667e-16
2.8611414 	6.6666667e-16 	-3.5593109e-32 	-2.4896296e-35 	6.6666667e-16 	0 	6.6666667e-16
2.8670335 	6.6666667e-16 	6.0873826e-32 	-1.0073549e-34 	6.6666667e-16 	0 	6.6666667e-16
2.8727395 	6.6666667e-16 	3.1650654e-32 	2.2371978e-35 	6.6666667e-16 	0 	6.6666667e-16
2.8782654 	6.6666667e-16 	-6.8402696e-32 	2.4281232e-36 	6.6666667e-16 	0 	6.6666667e-16
2.8836168 	6.6666667e-16 	-3.3279382e-32 	1.2302293e-34 	6.6666667e-16 	0 	6.6666667e-16
2.8887992 	6.6666667e-16 	-7.3555853e-32 	-1.1323224e-36 	6.6666667e-16 	0 	6.6666667e-16
2.893818 	6.6666667e-16 	-6.8555707e-32 	-1.7508407e-35 	6.6666667e-16 	0 	6.6666667e-16
2.8986784 	6.6666667e-16 	1.5009709e-31 	-2.4768059e-35 	6.6666667e-16 	0 	6.6666667e-16
2.9033854 	6.6666667e-16 	-2.4506785e-33 	2.8188292e-35 	6.6666667e-16 	0 	6.6666667e-16
2.9079439 	6.6666667e-16 	-8.8846892e-32 	3.6939083e-35 	6.6666667e-16 	0 	6.6666667e-16
2.9123585 	6.6666667e-16 	6.3233936e-32 	-3.1021734e-34 	6.6666667e-16 	0 	6.6666667e-16
2.9166338 	6.6666667e-16 	7.3634244e-32 	-1.6283253e-35 	6.6666667e-16 	0 	6.6666667e-16
2.9207742 	6.6666667e-16 	-6.1456597e-34 	1.5100283e-34 	6.6666667e-16 	0 	6.6666667e-16
2.924784 	6.6666667e-16 	8.1192084e-32 	3.2446109e-34 	6.6666667e-16 	0 	6.6666667e-16
2.9286673 	6.6666667e-16 	-7.6774869e-32 	-9.3772022e-35 	6.6666667e-16 	0 	6.6666667e-16
2.9324281 	6.6666667e-16 	-8.2804404e-32 	-4.4414335e-34 	6.6666667e-16 	0 	6.6666667e-16
2.9360703 	6.6666667e-16 	7.8057586e-32 	1.8274822e-34 	6.6666667e-16 	0 	6.6666667e-16
2.9395976 	6.6666667e-16 	9.456843e-32 	2.0268411e-34 	6.6666667e-16 	0 	6.6666667e-16
2.9430137 	6.6666667e-16 	-1.3618186e-32 	-1.8366186e-34 	6.6666667e-16 	0 	6.6666667e-16
2.946322 	6.6666667e-16 	-1.0856465e-31 	-2.0528008e-34 	6.6666667e-16 	0 	6.6666667e-16
2.949526 	6.6666667e-16 	1.0526533e-31 	1.0557349e-34 	6.6666667e-16 	0 	6.6666667e-16
2.952629 	6.6666667e-16 	2.2420577e-31 	1.1253401e-34 	6.6666667e-16 	0 	6.6666667e-16
2.9556341 	6.6666667e-16 	1.1857243e-31 	-1.2318218e-35 	6.6666667e-16 	0 	6.6666667e-16
2.9585445 	6.6666667e-16 	0 	1.1324277e-34 	6.6666667e-16 	0 	6.6666667e-16
2.9613632 	6.6666667e-16 	-1.0225169e-32 	-7.4657761e-36 	6.6666667e-16 	0 	6.6666667e-16
2.964093 	6.6666667e-16 	-2.0016091e-32 	3.9641113e-36 	6.6666667e-16 	0 	6.6666667e-16
2.9667367 	6.6666667e-16 	3.1577732e-34 	1.2504902e-34 	6.6666667e-16 	0 	6.6666667e-16
2.9692971 	6.6666667e-16 	1.4432262e-31 	-2.6816422e-34 	6.6666667e-16 	0 	6.6666667e-16
2.9717768 	6.6666667e-16 	1.3496215e-31 	9.6804402e-36 	6.6666667e-16 	0 	6.6666667e-16
2.9741784 	6.6666667e-16 	-1.3432962e-31 	-1.0227822e-35 	6.6666667e-16 	0 	6.6666667e-16
2.9765042 	6.6666667e-16 	-1.4492359e-31 	1.9239181e-35 	6.6666667e-16 	0 	6.6666667e-16
2.9787568 	6.6666667e-16 	-9.9660454e-34 	3.0024703e-34 	6.6666667e-16 	0 	6.6666667e-16
2.9809383 	6.6666667e-16 	8.1221148e-33 	-1.6826916e-34 	6.6666667e-16 	0 	6.6666667e-16
2.9830511 	6.6666667e-16 	-1.833779e-31 	-1.5554794e-34 	6.6666667e-16 	0 	6.6666667e-16
2.9850974 	6.6666667e-16 	5.9116228e-33 	-8.5780373e-35 	6.6666667e-16 	0 	6.6666667e-16
2.9870791 	6.6666667e-16 	1.7111063e-31 	-5.0381565e-36 	6.6666667e-16 	0 	6.6666667e-16
2.9889984 	6.6666667e-16 	5.10528e-34 	8.6382873e-35 	6.6666667e-16 	0 	6.6666667e-16
2.9908573 	6.6666667e-16 	8.8165768e-33 	4.4905956e-36 	6.6666667e-16 	0 	6.6666667e-16
2.9926575 	6.6666667e-16 	2.0611474e-34 	2.8661529e-36 	6.6666667e-16 	0 	6.6666667e-16
2.9944011 	6.6666667e-16 	-2.1230399e-31 	3.5178343e-38 	6.6666667e-16 	0 	6.6666667e-16
2.9960897 	6.6666667e-16 	-2.1915408e-31 	8.2206269e-37 	6.6666667e-16 	0 	6.6666667e-16
2.9977251 	6.6666667e-16 	2.1712203e-31 	-1.1298568e-34 	6.6666667e-16 	0 	6.6666667e-16
2.999309 	6.6666667e-16 	4.489723e-31 	2.3076817e-34 	6.6666667e-16 	0 	6.6666667e-16
3.000843 	6.6666667e-16 	2.2950294e-31 	1.0307198e-34 	6.6666667e-16 	0 	6.6666667e-16
3.0023287 	6.6666667e-16 	-2.4870896e-31 	-4.8435952e-34 	6.6666667e-16 	0 	6.6666667e-16
3.0037676 	6.6666667e-16 	2.5630041e-31 	1.363469e-34 	6.6666667e-16 	0 	6.6666667e-16
3.0051611 	6.6666667e-16 	2.4667242e-31 	1.1916239e-34 	6.6666667e-16 	0 	6.6666667e-16
3.0065108 	6.6666667e-16 	-5.3468563e-31 	-2.5231328e-34 	6.6666667e-16 	0 	6.6666667e-16
3.0078179 	6.6666667e-16 	-2.5494438e-31 	1.3752375e-34 	6.6666667e-16 	0 	6.6666667e-16
3.0090839 	6.6666667e-16 	-2.7631469e-31 	6.1817612e-35 	6.6666667e-16 	0 	6.6666667e-16
3.01031 	6.6666667e-16 	1.6341435e-33 	8.1853669e-36 	6.6666667e-16 	0 	6.6666667e-16
3.0114975 	6.6666667e-16 	6.0209334e-31 	7.3487563e-35 	6.6666667e-16 	0 	6.6666667e-16
3.0126476 	6.6666667e-16 	-3.3608883e-31 	7.5916721e-35 	6.6666667e-16 	0 	6.6666667e-16
3.0137614 	6.6666667e-16 	-6.3496329e-31 	8.0926373e-35 	6.6666667e-16 	0 	6.6666667e-16
3.0148402 	6.6666667e-16 	4.4270462e-33 	-8.2496125e-35 	6.6666667e-16 	0 	6.6666667e-16
3.015885 	6.6666667e-16 	0 	-8.4131452e-35 	6.6666667e-16 	0 	6.6666667e-16
3.0168969 	6.6666667e-16 	-7.1582952e-33 	-3.6395395e-38 	6.6666667e-16 	0 	6.6666667e-16
3.017877 	6.6666667e-16 	-6.7855587e-33 	-5.0617323e-38 	6.6666667e-16 	0 	6.6666667e-16
3.0188261 	6.6666667e-16 	3.8574023e-31 	9.7730182e-35 	6.6666667e-16 	0 	6.6666667e-16
3.0197454 	6.6666667e-16 	-1.5952665e-32 	9.3683626e-35 	6.6666667e-16 	0 	6.6666667e-16
3.0206357 	6.6666667e-16 	-8.0636293e-31 	-1.0512585e-34 	6.6666667e-16 	0 	6.6666667e-16
3.021498 	6.6666667e-16 	1.9463617e-32 	2.9116739e-36 	6.6666667e-16 	0 	6.6666667e-16
3.0223332 	6.6666667e-16 	-1.141537e-32 	5.0229337e-35 	6.6666667e-16 	0 	6.6666667e-16
3.023142 	6.6666667e-16 	-8.9481689e-31 	-1.1201934e-34 	6.6666667e-16 	0 	6.6666667e-16
3.0239254 	6.6666667e-16 	9.0571773e-33 	-5.5874061e-35 	6.6666667e-16 	0 	6.6666667e-16
3.0246841 	6.6666667e-16 	-1.3776807e-32 	6.1723487e-35 	6.6666667e-16 	0 	6.6666667e-16
3.0254189 	6.6666667e-16 	-4.8136465e-31 	-1.3624306e-36 	6.6666667e-16 	0 	6.6666667e-16
3.0261306 	6.6666667e-16 	5.1419322e-31 	-6.2168316e-35 	6.6666667e-16 	0 	6.6666667e-16
3.0268199 	6.6666667e-16 	1.0351775e-30 	-6.5744791e-35 	6.6666667e-16 	0 	6.6666667e-16
3.0274874 	6.6666667e-16 	5.2646675e-31 	-6.6380578e-35 	6.6666667e-16 	0 	6.6666667e-16
3.028134 	6.6666667e-16 	5.7027458e-31 	-5.0182698e-37 	6.6666667e-16 	0 	6.6666667e-16
3.0287602 	6.6666667e-16 	1.1459446e-30 	7.2800396e-35 	6.6666667e-16 	0 	6.6666667e-16
3.0293667 	6.6666667e-16 	-6.220666e-31 	7.2573799e-35 	6.6666667e-16 	0 	6.6666667e-16
3.029954 	6.6666667e-16 	-1.2028954e-30 	-1.0310384e-37 	6.6666667e-16 	0 	6.6666667e-16
3.0305229 	6.6666667e-16 	-5.6944811e-33 	8.388257e-38 	6.6666667e-16 	0 	6.6666667e-16
3.0310739 	6.6666667e-16 	-3.0047767e-33 	2.0386271e-37 	6.6666667e-16 	0 	6.6666667e-16
3.0316075 	6.6666667e-16 	2.8110954e-33 	-8.5552454e-35 	6.6666667e-16 	0 	6.6666667e-16
3.0321244 	6.6666667e-16 	-8.6885513e-34 	-1.9272098e-35 	6.6666667e-16 	0 	6.6666667e-16
3.0326249 	6.6666667e-16 	-2.3715003e-33 	8.9363656e-35 	6.6666667e-16 	0 	6.6666667e-16
3.0331097 	6.6666667e-16 	-4.0637269e-33 	-7.4572632e-37 	6.6666667e-16 	0 	6.6666667e-16
3.0335792 	6.6666667e-16 	-3.4393442e-33 	6.3202376e-37 	6.6666667e-16 	0 	6.6666667e-16
3.034034 	6.6666667e-16 	1.6142802e-30 	2.43017e-35 	6.6666667e-16 	0 	6.6666667e-16
3.0344744 	6.6666667e-16 	-5.1383838e-32 	6.9438593e-36 	6.6666667e-16 	0 	6.6666667e-16
3.034901 	6.6666667e-16 	-7.9699917e-31 	-5.3591828e-39 	6.6666667e-16 	0 	6.6666667e-16
3.0353141 	6.6666667e-16 	1.5499994e-16 	-6.9683585e-36 	6.6666667e-16 	0 	6.6666667e-16
3.0357143 	0 	0 	0 	0 	0 	0
