/*--------------------------------*- C++ -*----------------------------------*\
| =========                 |                                                 |
| \\      /  F ield         | OpenFOAM: The Open Source CFD Toolbox           |
|  \\    /   O peration     | Version:  2.4.0                                 |
|   \\  /    A nd           | Web:      www.OpenFOAM.org                      |
|    \\/     M anipulation  |                                                 |
\*---------------------------------------------------------------------------*/
FoamFile
{
    version     2.0;
    format      ascii;
    class       surfaceScalarField;
    location    "300";
    object      phi;
}
// * * * * * * * * * * * * * * * * * * * * * * * * * * * * * * * * * * * * * //

dimensions      [0 3 -1 0 0 0 0];

internalField   nonuniform List<scalar> 
38538
(
-4.3965029e-07
2.1271194e-07
-3.6334197e-07
-7.6308297e-08
-3.5995941e-07
-3.3825497e-09
-3.7347529e-07
1.3515878e-08
-3.7138679e-07
-2.088551e-09
-3.8513406e-07
1.3747285e-08
-2.9642409e-07
-8.8710043e-08
-2.7705432e-07
-1.9369784e-08
-2.1297292e-07
-6.4081497e-08
-1.4288568e-07
-7.0087367e-08
-6.9273709e-08
-7.3612036e-08
-3.1082764e-07
2.4155362e-07
1.5478775e-07
-4.6561496e-07
5.3871613e-07
-3.839287e-07
-8.1866963e-07
1.3573859e-06
-5.9705955e-07
-2.2160941e-07
3.2763562e-07
-9.2469572e-07
2.3420782e-09
3.2529358e-07
-5.9841954e-08
6.218409e-08
-3.6521161e-08
-2.3320771e-08
-2.4242235e-08
-1.2278906e-08
-1.9701699e-08
-4.5405076e-09
-1.9446074e-08
-2.5558254e-10
-1.150514e-08
-7.9408697e-09
-1.2644258e-08
1.1391196e-09
-1.9246442e-08
6.6019885e-09
-1.4125927e-08
-5.1202848e-09
-4.4964091e-08
3.0838117e-08
-2.6441761e-08
-1.8522224e-08
-6.5825318e-08
3.9383468e-08
-5.720194e-08
-8.6232769e-09
-8.2704525e-08
2.5502586e-08
-9.5202479e-08
1.2497954e-08
-1.1194458e-07
1.6742107e-08
-1.214609e-07
9.5163219e-09
-1.1505948e-07
-6.4014113e-09
-1.2636161e-07
1.1302137e-08
-1.5375776e-07
2.7396157e-08
-3.3020579e-07
1.7644808e-07
1.4429358e-07
-6.8432609e-08
-1.2689931e-08
-3.8601263e-08
-2.9831476e-08
-2.199913e-08
-1.6602106e-08
-2.5015288e-08
3.0164588e-09
-2.3092112e-08
-1.9229155e-09
-3.4089631e-08
1.0998093e-08
-2.5056296e-08
-9.033095e-09
-3.3078957e-08
8.0231388e-09
-5.5309387e-08
2.223097e-08
-9.9879649e-08
4.4570917e-08
-1.5737564e-07
5.7496945e-08
-2.1849037e-07
6.1115454e-08
-2.8171029e-07
6.322095e-08
-3.2450765e-07
4.2797688e-08
-3.9753728e-07
7.3030407e-08
-4.6333126e-07
6.579376e-08
-5.204149e-07
5.7084368e-08
-4.5207241e-07
-6.8343006e-08
-3.8979676e-07
-6.2275545e-08
-3.1776818e-07
-7.2029437e-08
-3.2561201e-07
7.8435643e-09
-3.1281546e-07
-1.279747e-08
-3.1628359e-07
3.4675321e-09
-2.2522852e-07
-9.1056093e-08
-1.7415976e-07
-5.1069477e-08
-9.6229292e-08
-7.7931237e-08
-2.4922036e-08
-7.1308022e-08
3.4826868e-08
-5.9749451e-08
3.4099962e-08
7.2637881e-10
1.5599607e-08
1.8500154e-08
2.0511017e-08
-4.9119204e-09
3.1916919e-08
-1.1406091e-08
3.5769379e-08
-3.8528473e-09
1.993861e-08
1.5830711e-08
8.4553095e-09
1.148312e-08
1.2906606e-09
7.1646857e-09
8.2712999e-09
-6.9809692e-09
3.9402463e-08
-3.1131333e-08
1.1144914e-07
-7.2047202e-08
1.6092274e-07
-4.9473811e-08
1.942831e-07
-3.33609e-08
1.4402103e-07
5.0262073e-08
8.6613288e-08
5.7407453e-08
2.1197694e-08
6.5415796e-08
-4.074869e-09
2.5272488e-08
-3.8890977e-08
3.4816435e-08
-6.6309244e-08
2.7418375e-08
-8.2130228e-08
1.5821394e-08
-1.0135777e-07
1.9227556e-08
-1.0129927e-07
-5.8260738e-11
-1.3707735e-07
3.5778206e-08
-1.3687671e-07
-2.0030552e-10
-1.1810018e-07
-1.8776507e-08
-5.8615684e-08
-5.9484251e-08
-4.1362478e-08
-1.7253087e-08
4.106781e-08
-8.2429947e-08
1.8483912e-07
-1.4377127e-07
1.1063343e-07
7.4205983e-08
-6.3422642e-08
1.7405621e-07
-5.9868699e-07
5.3526483e-07
-3.4652653e-06
2.8665473e-06
-5.5089371e-06
2.0437101e-06
-8.5038942e-06
2.995252e-06
-8.8535626e-06
3.4935641e-07
1.1621179e-06
-1.0015913e-05
-8.9626372e-07
2.0585949e-06
6.1934933e-06
-7.0897566e-06
2.7749283e-06
3.4185654e-06
7.9792196e-06
-5.2042944e-06
5.8716834e-06
2.1075391e-06
6.0297032e-06
-1.5801972e-07
5.3012863e-06
7.2841687e-07
4.4609572e-06
8.4032915e-07
3.9473966e-06
5.1356065e-07
4.8782548e-06
-9.3085818e-07
3.1896009e-06
1.688654e-06
-2.0075563e-06
5.1971573e-06
-5.4261818e-07
-1.464938e-06
-2.0078625e-06
1.4652446e-06
-8.034996e-07
-1.204363e-06
-4.5405629e-06
3.7370635e-06
-2.8637561e-06
-1.6768068e-06
-1.0463762e-05
7.6000091e-06
-8.4255907e-06
-2.0381742e-06
-6.0707244e-06
-2.354864e-06
-4.3360811e-06
-1.7346455e-06
-1.9496278e-06
-2.3864534e-06
2.3704741e-06
-4.320102e-06
4.8114802e-06
-2.4410062e-06
4.1112944e-06
7.0018563e-07
-2.164169e-06
6.2754634e-06
-5.2398181e-06
3.0756485e-06
-6.1975504e-06
9.5773186e-07
-2.1132354e-06
-4.0843172e-06
2.3226011e-06
-4.4358373e-06
9.1590201e-06
-6.8364376e-06
8.3890151e-06
7.7002292e-07
6.5398708e-06
1.8491445e-06
4.0821129e-06
2.4577582e-06
2.877928e-06
1.2041854e-06
2.3969207e-06
4.8100776e-07
1.6428053e-06
7.5411567e-07
8.4595705e-07
7.9684847e-07
4.1206607e-07
4.3389116e-07
1.8785504e-07
2.242112e-07
1.3507149e-07
5.2783499e-08
-5.9632721e-08
1.9470429e-07
1.6730573e-07
-7.7988699e-07
7.4236964e-07
-8.0424458e-07
-5.1950695e-08
-7.4229273e-07
-6.5334228e-08
-7.0486566e-07
-2.3911099e-08
-6.5105339e-07
-5.5900724e-08
-6.9936628e-07
6.2060251e-08
-5.4284327e-07
-2.4523303e-07
-5.1729819e-07
-4.4914819e-08
-4.2926953e-07
-1.5211011e-07
-3.4250601e-07
-1.5685092e-07
-1.7980317e-07
-2.3631473e-07
-6.4307118e-07
7.0482173e-07
6.5561157e-09
-1.1152433e-06
8.8249708e-07
-1.2598688e-06
-1.1533808e-06
3.3932641e-06
-1.0549269e-06
-3.2006405e-07
3.6477674e-07
-2.344399e-06
-5.9095164e-08
7.4916547e-07
-1.3595808e-07
1.3904698e-07
-8.9056109e-08
-7.0222737e-08
-6.0686504e-08
-4.0648511e-08
-4.4908516e-08
-2.0318506e-08
-3.7055151e-08
-8.1089632e-09
-2.3369785e-08
-2.1626268e-08
-2.5931845e-08
3.7011874e-09
-3.9769116e-08
2.0439402e-08
-3.4865458e-08
-1.0024077e-08
-9.09695e-08
8.6942204e-08
-6.5349862e-08
-4.4141926e-08
-1.3362042e-07
1.076541e-07
-1.2528389e-07
-1.6959864e-08
-1.701489e-07
7.0367608e-08
-1.9639097e-07
3.874003e-08
-2.2713373e-07
4.7484871e-08
-2.4759638e-07
2.9978968e-08
-2.5160571e-07
-2.3920808e-09
-2.7937321e-07
3.9069628e-08
-3.0508501e-07
5.310795e-08
-6.1505183e-07
4.8641484e-07
6.4157768e-07
-3.4045772e-07
-3.7233924e-08
-2.9494145e-07
-7.5347913e-08
-2.704919e-07
-4.1051611e-08
-2.7042627e-07
2.9512071e-09
-2.5669864e-07
-1.5650211e-08
-2.6450849e-07
1.8808678e-08
-2.4486161e-07
-2.8679666e-08
-2.5428243e-07
1.7444577e-08
-2.8157485e-07
4.9524081e-08
-3.4050484e-07
1.0350175e-07
-4.1746994e-07
1.3446327e-07
-4.9887763e-07
1.4252407e-07
-5.8524489e-07
1.4958952e-07
-6.4177456e-07
9.9327783e-08
-7.4889809e-07
1.8015492e-07
-8.393599e-07
1.562553e-07
-9.1561405e-07
1.3333944e-07
-7.9989516e-07
-1.8406254e-07
-7.045079e-07
-1.5766269e-07
-5.924627e-07
-1.8407573e-07
-6.0309699e-07
1.8477513e-08
-5.7867156e-07
-3.7224087e-08
-5.8540477e-07
1.0199966e-08
-4.4406746e-07
-2.3239471e-07
-3.6861277e-07
-1.2652508e-07
-2.5095366e-07
-1.9559133e-07
-1.4896216e-07
-1.7330051e-07
-6.1952128e-08
-1.4676019e-07
-6.129494e-08
6.8512315e-11
-8.4921049e-08
4.2125996e-08
-7.4879879e-08
-1.4953745e-08
-5.7400386e-08
-2.8885835e-08
-5.0108722e-08
-1.1145006e-08
-7.3646149e-08
3.9368057e-08
-9.0995492e-08
2.8832231e-08
-1.0001956e-07
1.6188792e-08
-8.1732246e-08
-2.5268704e-08
-2.4548417e-08
-8.8315384e-08
9.4654526e-08
-1.9125082e-07
1.7521363e-07
-1.3003319e-07
2.2910214e-07
-8.7250093e-08
1.4568949e-07
1.3367471e-07
5.1967837e-08
1.5112874e-07
-5.3353562e-08
1.7073745e-07
-9.5673334e-08
6.7592167e-08
-1.5688472e-07
9.6028241e-08
-2.0854776e-07
7.9081552e-08
-2.4287721e-07
5.0151365e-08
-2.8205356e-07
5.8403927e-08
-2.9094947e-07
8.8379641e-09
-3.5306234e-07
9.7891235e-08
-3.5786071e-07
4.5984887e-09
-3.4681413e-07
-2.9823054e-08
-2.7979299e-07
-1.2650507e-07
-2.4595028e-07
-5.1095632e-08
-1.2772178e-07
-2.0065801e-07
3.3351234e-08
-3.0484423e-07
-1.3862355e-07
2.4618114e-07
-4.1993225e-07
4.5536511e-07
-1.2540726e-06
1.3694058e-06
-5.7324369e-06
7.3448787e-06
-9.0323056e-06
5.3436216e-06
-1.3897143e-05
7.8604089e-06
-1.4376486e-05
8.2835922e-07
1.9387566e-06
-2.6331408e-05
-1.3609523e-06
5.35853e-06
9.9162935e-06
-1.8367002e-05
4.185732e-06
9.1491279e-06
1.2507622e-05
-1.3526188e-05
8.8244888e-06
5.7906756e-06
9.2813942e-06
-6.1492511e-07
8.1864866e-06
1.8233246e-06
6.9852113e-06
2.0416045e-06
6.2625519e-06
1.2362201e-06
7.8202402e-06
-2.4885465e-06
5.083438e-06
4.4254564e-06
-3.2762062e-06
1.3556802e-05
-8.0598234e-07
-3.9351617e-06
-3.1370246e-06
3.7962873e-06
-1.144411e-06
-3.1969767e-06
-6.4590015e-06
9.0516543e-06
-3.2761413e-06
-4.8596669e-06
-1.5062937e-05
1.9386808e-05
-1.1364242e-05
-5.7368715e-06
-8.3932297e-06
-5.3258743e-06
-6.3652192e-06
-3.7626583e-06
-3.1525003e-06
-5.5991724e-06
3.5453742e-06
-1.1017977e-05
7.6736072e-06
-6.5692395e-06
7.2195233e-06
1.1542694e-06
-1.9258533e-06
1.542084e-05
-6.0741749e-06
7.2239694e-06
-7.6067541e-06
2.4903104e-06
-1.7467147e-06
-9.9443595e-06
4.3092688e-06
-1.0491822e-05
1.3902598e-05
-1.6429787e-05
1.2742105e-05
1.930536e-06
1.1550102e-05
3.0411472e-06
8.4500116e-06
5.5578492e-06
6.2074954e-06
3.4467021e-06
4.9542297e-06
1.7342739e-06
3.6775187e-06
2.0308271e-06
2.2390985e-06
2.2352689e-06
1.2227938e-06
1.4501962e-06
5.49302e-07
8.9770317e-07
3.2710829e-07
2.749771e-07
5.1611722e-09
5.166516e-07
4.226963e-07
-9.3255067e-07
1.5584304e-06
-1.1503053e-06
1.6580393e-07
-1.008167e-06
-2.0747258e-07
-8.9133457e-07
-1.4074355e-07
-7.6831627e-07
-1.7891915e-07
-8.5747184e-07
1.512158e-07
-6.7370919e-07
-4.2899583e-07
-6.5555797e-07
-6.3066079e-08
-5.8114274e-07
-2.2652554e-07
-5.2165959e-07
-2.1633428e-07
-2.8725136e-07
-4.7072314e-07
-8.8311576e-07
1.3006856e-06
-3.2298313e-07
-1.675375e-06
9.5972887e-07
-2.5425815e-06
-1.0184655e-06
5.3714586e-06
-1.2579894e-06
-8.0538855e-08
1.6947472e-07
-3.7718641e-06
-1.503767e-07
1.069017e-06
-2.008303e-07
1.895007e-07
-1.3732347e-07
-1.3372953e-07
-9.5074409e-08
-8.2897533e-08
-6.6722784e-08
-4.8670073e-08
-4.8300604e-08
-2.653106e-08
-3.2475116e-08
-3.7451623e-08
-3.6377705e-08
7.6037755e-09
-5.5775767e-08
3.9837125e-08
-5.5274779e-08
-1.0524668e-08
-1.2437979e-07
1.5604714e-07
-1.0294395e-07
-6.5577574e-08
-1.8292029e-07
1.8763027e-07
-1.8177724e-07
-1.8102735e-08
-2.3531653e-07
1.2390689e-07
-2.7203151e-07
7.5455012e-08
-3.1036567e-07
8.5819042e-08
-3.3956447e-07
5.9177771e-08
-3.6352247e-07
2.1565944e-08
-4.0630191e-07
8.1849076e-08
-4.0950786e-07
5.6313906e-08
-7.775226e-07
8.5442969e-07
1.5203175e-06
-6.7832028e-07
-6.9152228e-08
-6.3249578e-07
-1.2117258e-07
-6.0861916e-07
-6.4928196e-08
-6.015476e-07
-4.1199924e-09
-5.7277018e-07
-4.4427315e-08
-5.6819594e-07
1.4235123e-08
-5.403024e-07
-5.6572919e-08
-5.4553717e-07
2.2679928e-08
-5.6358915e-07
6.7576705e-08
-6.1015895e-07
1.5007234e-07
-6.726686e-07
1.9697407e-07
-7.3818768e-07
2.0804402e-07
-8.109248e-07
2.2232787e-07
-8.5566953e-07
1.4407291e-07
-9.5730509e-07
2.8179143e-07
-1.0345163e-06
2.3346626e-07
-1.0959272e-06
1.947512e-07
-9.6364981e-07
-3.1634055e-07
-8.6661875e-07
-2.5469363e-07
-7.505974e-07
-3.0009811e-07
-7.5893421e-07
2.6814023e-08
-7.2771838e-07
-6.8441027e-08
-7.3614008e-07
1.8620939e-08
-5.9057259e-07
-3.7796342e-07
-5.1774229e-07
-1.9935625e-07
-4.0094373e-07
-3.1239081e-07
-3.0732886e-07
-2.669163e-07
-2.2516188e-07
-2.2892782e-07
-2.220686e-07
-3.0254049e-09
-2.3954057e-07
5.9597729e-08
-2.2602585e-07
-2.8469083e-08
-2.0816448e-07
-4.6747424e-08
-1.9894783e-07
-2.0362121e-08
-2.2158427e-07
6.2004422e-08
-2.3852101e-07
4.5768754e-08
-2.4464441e-07
2.2312244e-08
-2.1587449e-07
-5.4039023e-08
-1.4508235e-07
-1.5910773e-07
-1.2343594e-08
-3.239902e-07
7.5721629e-08
-2.1809866e-07
1.3377339e-07
-1.453025e-07
4.1090989e-08
2.2635711e-07
-6.1867397e-08
2.5408678e-07
-1.7543189e-07
2.8430219e-07
-2.2364052e-07
1.158007e-07
-2.9665316e-07
1.6904128e-07
-3.6255509e-07
1.4498361e-07
-4.115082e-07
9.910497e-08
-4.6497962e-07
1.1187536e-07
-4.8690987e-07
3.0768509e-08
-5.5988656e-07
1.7086806e-07
-5.7260314e-07
1.7315474e-08
-5.8699945e-07
-1.5426729e-08
-5.5286487e-07
-1.6063935e-07
-5.0738582e-07
-9.6574534e-08
-3.987034e-07
-3.0934002e-07
-3.1993486e-07
-3.8361272e-07
-5.7617965e-07
5.0242627e-07
-8.7895631e-07
7.5814194e-07
-1.7390359e-06
2.2294859e-06
-6.3648695e-06
1.197068e-05
-9.9318434e-06
8.910636e-06
-1.521883e-05
1.3147706e-05
-1.5625757e-05
1.2349567e-06
2.1450202e-06
-4.410243e-05
-1.3912658e-06
8.8950375e-06
1.0531534e-05
-3.0289801e-05
4.0993147e-06
1.5581347e-05
1.2966685e-05
-2.2393561e-05
8.6483874e-06
1.0108976e-05
9.407733e-06
-1.3742707e-06
8.3353321e-06
2.8957256e-06
7.2446692e-06
3.1322674e-06
6.6145643e-06
1.8663251e-06
8.3831077e-06
-4.2570899e-06
5.4295867e-06
7.3789774e-06
-3.5509676e-06
2.2537356e-05
-7.5193964e-07
-6.7341895e-06
-3.2167848e-06
6.2611327e-06
-1.0167756e-06
-5.396986e-06
-5.7710364e-06
1.3805915e-05
-1.7207489e-06
-8.9099543e-06
-1.376324e-05
3.1429302e-05
-9.2581764e-06
-1.0241937e-05
-7.1353609e-06
-7.4486875e-06
-5.9791355e-06
-4.9188859e-06
-3.3782202e-06
-8.2000879e-06
3.4600486e-06
-1.7856246e-05
8.1512621e-06
-1.1260453e-05
8.551258e-06
7.5427321e-07
2.2616907e-08
2.3949481e-05
-3.329246e-06
1.0575832e-05
-4.9420964e-06
4.1031603e-06
4.338565e-07
-1.5320315e-05
5.5258795e-06
-1.5583846e-05
1.3914094e-05
-2.4818021e-05
1.2697923e-05
3.1467249e-06
1.3692015e-05
2.0470555e-06
1.1529075e-05
7.7207898e-06
8.7822284e-06
6.1935496e-06
6.8252523e-06
3.6912505e-06
5.3526688e-06
3.5034109e-06
3.5978546e-06
3.9900835e-06
2.0851616e-06
2.9628893e-06
9.3777049e-07
2.0450945e-06
5.0839854e-07
7.04349e-07
1.4337772e-07
8.8167248e-07
6.8256412e-07
-1.093152e-06
2.6682923e-06
-1.5015519e-06
5.7420379e-07
-1.2758319e-06
-4.3319232e-07
-1.0805115e-06
-3.3606385e-07
-8.8934872e-07
-3.7008179e-07
-1.0249027e-06
2.8676984e-07
-8.1686002e-07
-6.370384e-07
-8.0927336e-07
-7.0652673e-08
-7.4867346e-07
-2.8712535e-07
-7.1527156e-07
-2.4973619e-07
-4.0615712e-07
-7.7983734e-07
-1.1380793e-06
2.032608e-06
-6.7154321e-07
-2.1419125e-06
1.0304279e-06
-4.2445514e-06
-8.8155459e-07
7.2834414e-06
-1.4734018e-06
5.1130733e-07
-4.1938177e-08
-5.2033273e-06
-2.4948996e-07
1.2765687e-06
-2.7120324e-07
2.1121393e-07
-1.8961916e-07
-2.1531362e-07
-1.3250686e-07
-1.4000984e-07
-9.1115789e-08
-9.0061163e-08
-6.1875226e-08
-5.5771654e-08
-4.4008654e-08
-5.5318256e-08
-4.9736493e-08
1.3331625e-08
-7.5480211e-08
6.5581049e-08
-8.0084695e-08
-5.9203914e-09
-1.6320746e-07
2.3916995e-07
-1.4690362e-07
-8.1881508e-08
-2.3937215e-07
2.8009891e-07
-2.4638871e-07
-1.1086273e-08
-3.0945327e-07
1.8697147e-07
-3.5770515e-07
1.2370691e-07
-4.0449875e-07
1.3261264e-07
-4.4338444e-07
9.8063458e-08
-4.8864647e-07
6.6827971e-08
-5.4738342e-07
1.4058601e-07
-5.2853613e-07
3.7466611e-08
-9.5847831e-07
1.2843718e-06
2.7617641e-06
-1.0387006e-06
-1.0886336e-07
-9.9188302e-07
-1.6799036e-07
-9.6751875e-07
-8.9292425e-08
-9.5261079e-07
-1.9027543e-08
-9.0843866e-07
-8.8599082e-08
-8.913342e-07
-2.8685694e-09
-8.5484277e-07
-9.3064019e-08
-8.5531805e-07
2.3155864e-08
-8.6392617e-07
7.6185565e-08
-8.9836886e-07
1.8451592e-07
-9.4698626e-07
2.4559276e-07
-9.9736025e-07
2.5841898e-07
-1.0569151e-06
2.8188411e-07
-1.0904088e-06
1.7756708e-07
-1.1872088e-06
3.7859243e-07
-1.2523903e-06
2.9864746e-07
-1.2987742e-06
2.4113612e-07
-1.1486272e-06
-4.6648823e-07
-1.0476955e-06
-3.5562528e-07
-9.2602734e-07
-4.2176738e-07
-9.3123948e-07
3.2025789e-08
-8.9318107e-07
-1.0650068e-07
-9.0294923e-07
2.8388267e-08
-7.5152591e-07
-5.2938813e-07
-6.7964751e-07
-2.7123562e-07
-5.6227883e-07
-4.2976055e-07
-4.7535349e-07
-3.5384268e-07
-3.9661694e-07
-3.0766512e-07
-3.9101898e-07
-8.6240834e-09
-4.0267533e-07
7.125379e-08
-3.8562316e-07
-4.5521944e-08
-3.6693652e-07
-6.543434e-08
-3.5570381e-07
-3.159535e-08
-3.7750376e-07
8.3804281e-08
-3.9387887e-07
6.2143618e-08
-3.9683646e-07
2.5269876e-08
-3.5738584e-07
-9.3490091e-08
-2.7221378e-07
-2.4428003e-07
-1.2454045e-07
-4.7166424e-07
-2.7349822e-08
-3.1528958e-07
3.5299953e-08
-2.0795299e-07
-6.7066e-08
3.2872305e-07
-1.8076246e-07
3.6778286e-07
-3.0399875e-07
4.0753875e-07
-3.5950929e-07
1.7131114e-07
-4.4578935e-07
2.5532177e-07
-5.2737232e-07
2.2656674e-07
-5.9231452e-07
1.6404772e-07
-6.6132002e-07
1.8088089e-07
-6.9751279e-07
6.6961601e-08
-7.8246193e-07
2.5581737e-07
-8.047992e-07
3.9653206e-08
-8.4624326e-07
2.6017367e-08
-8.4497537e-07
-1.619069e-07
-7.8672149e-07
-1.5482824e-07
-6.8572682e-07
-4.1033423e-07
-6.9010195e-07
-3.7923752e-07
-1.0351894e-06
8.4751415e-07
-1.3622599e-06
1.0852126e-06
-2.2606575e-06
3.1278843e-06
-7.0556265e-06
1.6765622e-05
-1.0928668e-05
1.2783714e-05
-1.6649327e-05
1.8868639e-05
-1.7000608e-05
1.5859442e-06
2.3310365e-06
-6.3434291e-05
-1.4700455e-06
1.2696308e-05
1.1155562e-05
-4.2915408e-05
4.0283224e-06
2.2708588e-05
1.3482163e-05
-3.1847405e-05
8.5340344e-06
1.5057107e-05
9.5995292e-06
-2.4397653e-06
8.5469926e-06
3.9482623e-06
7.5549566e-06
4.1243034e-06
7.0185655e-06
2.4027163e-06
9.0214235e-06
-6.2599479e-06
5.8420638e-06
1.0558337e-05
-3.8244985e-06
3.2203918e-05
-6.695797e-07
-9.8891082e-06
-3.2640073e-06
8.8555607e-06
-8.9065887e-07
-7.7703345e-06
-5.0794975e-06
1.7994754e-05
-1.8333817e-07
-1.3806114e-05
-1.2469718e-05
4.3715685e-05
-7.1454934e-06
-1.5566165e-05
-5.7860773e-06
-8.8081015e-06
-5.4820546e-06
-5.2229105e-06
-3.4806311e-06
-1.0201512e-05
3.5164995e-06
-2.4853376e-05
8.7563792e-06
-1.6500333e-05
9.9464191e-06
-4.3576689e-07
1.9639168e-06
3.1931983e-05
-5.7012572e-07
1.3109873e-05
-2.2235538e-06
5.7565876e-06
2.8033764e-06
-2.0347248e-05
7.0516931e-06
-1.9832164e-05
1.4192276e-05
-3.1958621e-05
1.2813554e-05
4.5254634e-06
1.5850942e-05
-9.9033247e-07
1.4657369e-05
8.9143636e-06
1.1492547e-05
9.3583718e-06
8.848797e-06
6.3350013e-06
7.1427541e-06
5.2094542e-06
5.0496243e-06
6.0832135e-06
3.0241226e-06
4.9883913e-06
1.372465e-06
3.6967523e-06
7.1503936e-07
1.3617745e-06
2.9121268e-07
1.3054994e-06
9.5706698e-07
-1.2613594e-06
4.0782667e-06
-1.8549296e-06
1.1677741e-06
-1.5424662e-06
-7.4565582e-07
-1.2704391e-06
-6.080911e-07
-1.0131659e-06
-6.2735518e-07
-1.2013668e-06
4.7497076e-07
-9.7284413e-07
-8.6556131e-07
-9.7956127e-07
-6.3935617e-08
-9.3312945e-07
-3.3355742e-07
-9.244485e-07
-2.5841739e-07
-5.3866795e-07
-1.1656182e-06
-1.4088532e-06
2.9027928e-06
-1.0374728e-06
-2.5132918e-06
1.0923448e-06
-6.3743699e-06
-7.4591002e-07
9.1216963e-06
-1.7003661e-06
1.4657648e-06
-2.6954526e-07
-6.634149e-06
-3.5734087e-07
1.3643644e-06
-3.4742637e-07
2.0129959e-07
-2.4625284e-07
-3.164871e-07
-1.7326785e-07
-2.1299478e-07
-1.1838982e-07
-1.4493913e-07
-7.8131076e-08
-9.6030293e-08
-5.8362444e-08
-7.5086721e-08
-6.6477349e-08
2.1446529e-08
-9.9420388e-08
9.8523742e-08
-1.0993823e-07
4.5978726e-09
-2.0810753e-07
3.3733919e-07
-1.9800293e-07
-9.1985901e-08
-3.0376034e-07
3.8585615e-07
-3.1994962e-07
5.1031939e-09
-3.934631e-07
2.6048493e-07
-4.5436852e-07
1.8461233e-07
-5.1056317e-07
1.888073e-07
-5.6012943e-07
1.4762973e-07
-6.2801256e-07
1.3471112e-07
-7.0372634e-07
2.162998e-07
-6.6397148e-07
-2.2882346e-09
-1.1596532e-06
1.7800536e-06
4.3472541e-06
-1.4223059e-06
-1.5679371e-07
-1.3736774e-06
-2.1661901e-07
-1.3476599e-06
-1.1530994e-07
-1.3240872e-06
-4.2599874e-08
-1.2642269e-06
-1.4845909e-07
-1.234519e-06
-3.2575764e-08
-1.1890893e-06
-1.3849339e-07
-1.1841436e-06
1.8210751e-08
-1.1830898e-06
7.5132421e-08
-1.2056602e-06
2.0708719e-07
-1.2409782e-06
2.8091192e-07
-1.2770288e-06
2.9447042e-07
-1.3238948e-06
3.2875139e-07
-1.3467042e-06
2.0037692e-07
-1.4392414e-06
4.7113059e-07
-1.4937912e-06
3.5319703e-07
-1.5252478e-06
2.7259362e-07
-1.3557951e-06
-6.3594161e-07
-1.2484347e-06
-4.6298554e-07
-1.1193715e-06
-5.5083165e-07
-1.1205498e-06
3.3203762e-08
-1.075617e-06
-1.5143459e-07
-1.0863096e-06
3.9080117e-08
-9.2734867e-07
-6.8835032e-07
-8.546479e-07
-3.4393728e-07
-7.3516011e-07
-5.4924928e-07
-6.5306223e-07
-4.359415e-07
-5.7620163e-07
-3.845264e-07
-5.6801682e-07
-1.6809542e-08
-5.7421878e-07
7.7455496e-08
-5.5355206e-07
-6.6189291e-08
-5.3353643e-07
-8.5450195e-08
-5.2018222e-07
-4.4950044e-08
-5.4122965e-07
1.0485165e-07
-5.5694498e-07
7.7858717e-08
-5.5650253e-07
2.482748e-08
-5.0617312e-07
-1.4381991e-07
-4.0577717e-07
-3.4467619e-07
-2.4159696e-07
-6.358451e-07
-1.3353534e-07
-4.2335145e-07
-6.5549203e-08
-2.7593979e-07
-1.7813882e-07
4.4131265e-07
-3.044328e-07
4.940765e-07
-4.3881465e-07
5.4192084e-07
-5.0321704e-07
2.3571344e-07
-6.0438087e-07
3.5648601e-07
-7.0325604e-07
3.2544203e-07
-7.8574609e-07
2.4653828e-07
-8.716027e-07
2.6673752e-07
-9.2337121e-07
1.1873041e-07
-1.0215285e-06
3.5397481e-07
-1.0554186e-06
7.3543769e-08
-1.1253092e-06
9.5907952e-08
-1.1565075e-06
-1.307083e-07
-1.0847167e-06
-2.2661893e-07
-9.8993703e-07
-5.0511345e-07
-1.077638e-06
-2.9153648e-07
-1.5155059e-06
1.2853824e-06
-1.8708772e-06
1.440584e-06
-2.8207188e-06
4.0777265e-06
-7.7972853e-06
2.1742165e-05
-1.1993988e-05
1.6980448e-05
-1.8107937e-05
2.4982825e-05
-1.8446405e-05
1.9241623e-06
2.4955191e-06
-8.4376405e-05
-1.5958157e-06
1.6787809e-05
1.1785057e-05
-5.629628e-05
3.9836317e-06
3.0510013e-05
1.4057418e-05
-4.1921193e-05
8.4894759e-06
2.0625051e-05
9.860662e-06
-3.8109515e-06
8.8300134e-06
4.978911e-06
7.9212692e-06
5.0330476e-06
7.476358e-06
2.8476276e-06
9.7265888e-06
-8.5101787e-06
6.3095673e-06
1.3975359e-05
-4.1081287e-06
4.2621615e-05
-5.556972e-07
-1.3441539e-05
-3.2787043e-06
1.1578568e-05
-7.67481e-07
-1.0281558e-05
-4.3960371e-06
2.1623311e-05
1.3164763e-06
-1.9518627e-05
-1.1194861e-05
5.6227025e-05
-5.0511454e-06
-2.1709883e-05
-4.334048e-06
-9.5251972e-06
-4.8477711e-06
-4.709189e-06
-3.4237549e-06
-1.1625528e-05
3.7533268e-06
-3.2030458e-05
9.515102e-06
-2.2262109e-05
1.1409086e-05
-2.3297508e-06
3.8731867e-06
3.9467882e-05
2.1611297e-06
1.482193e-05
5.1039111e-07
7.4073257e-06
5.3429348e-06
-2.5179793e-05
8.8786377e-06
-2.3367868e-05
1.4767376e-05
-3.7847373e-05
1.3142745e-05
6.1501082e-06
1.8033933e-05
-5.88152e-06
1.782254e-05
9.125757e-06
1.4333615e-05
1.2847297e-05
1.1031343e-05
9.6372742e-06
9.0524696e-06
7.1883275e-06
6.5991757e-06
8.5365078e-06
4.0456752e-06
7.5418922e-06
1.8590968e-06
5.883331e-06
9.5086028e-07
2.270011e-06
4.5028011e-07
1.8060796e-06
1.2587322e-06
-1.4346851e-06
5.7931559e-06
-2.2065458e-06
1.9396348e-06
-1.8044305e-06
-1.1477709e-06
-1.4586312e-06
-9.5389019e-07
-1.1385365e-06
-9.4744969e-07
-1.3864205e-06
7.228549e-07
-1.1421772e-06
-1.1098045e-06
-1.1675952e-06
-3.8517553e-08
-1.1358338e-06
-3.6531864e-07
-1.1503028e-06
-2.4394841e-07
-6.8698658e-07
-1.628934e-06
-1.6962005e-06
3.9120069e-06
-1.4182869e-06
-2.7912073e-06
1.1437695e-06
-8.9364247e-06
-6.1546397e-07
1.088093e-05
-1.9389402e-06
2.7892396e-06
-5.1327196e-07
-8.0598167e-06
-4.7461845e-07
1.3257109e-06
-4.2989295e-07
1.5657399e-07
-3.0757931e-07
-4.3880074e-07
-2.1768505e-07
-3.0288906e-07
-1.4889737e-07
-2.1372685e-07
-9.746834e-08
-1.4745937e-07
-7.5966614e-08
-9.6588544e-08
-8.7087498e-08
3.2567424e-08
-1.2815621e-07
1.3959272e-07
-1.4551404e-07
2.1955431e-08
-2.5978041e-07
4.5160562e-07
-2.5707561e-07
-9.4690837e-08
-3.7695282e-07
5.057335e-07
-4.0341093e-07
3.156118e-08
-4.8839328e-07
3.4546731e-07
-5.631458e-07
2.5936486e-07
-6.2977283e-07
2.5543434e-07
-6.9108272e-07
2.0893961e-07
-7.8288978e-07
2.2651816e-07
-8.766282e-07
3.1003822e-07
-8.177654e-07
-6.1151046e-08
-1.3828267e-06
2.3451148e-06
6.2585559e-06
-1.8297709e-06
-2.1338434e-07
-1.77837e-06
-2.6802012e-07
-1.7494268e-06
-1.4425307e-07
-1.7163672e-06
-7.5659101e-08
-1.6405872e-06
-2.242387e-07
-1.598284e-06
-7.4878076e-08
-1.5435919e-06
-1.9318511e-07
-1.5324723e-06
7.0918282e-09
-1.5215126e-06
6.4173443e-08
-1.5324642e-06
2.1803975e-07
-1.5550762e-06
3.0352534e-07
-1.5776711e-06
3.1706631e-07
-1.6123591e-06
3.6344086e-07
-1.6250344e-06
2.1305275e-07
-1.7136685e-06
5.5976583e-07
-1.7593339e-06
3.9886212e-07
-1.7764157e-06
2.8967642e-07
-1.5860812e-06
-8.2627685e-07
-1.4693716e-06
-5.7969499e-07
-1.3310523e-06
-6.8915218e-07
-1.3271812e-06
2.9332244e-08
-1.2753179e-06
-2.032992e-07
-1.2865862e-06
5.0347531e-08
-1.1184707e-06
-8.5646727e-07
-1.0430142e-06
-4.193949e-07
-9.1972476e-07
-6.7253979e-07
-8.4040189e-07
-5.1526549e-07
-7.6371504e-07
-4.6121404e-07
-7.5284267e-07
-2.7682686e-08
-7.5397105e-07
7.8583569e-08
-7.2959657e-07
-9.0564505e-08
-7.0768513e-07
-1.0736193e-07
-6.9208955e-07
-6.0546178e-08
-7.1248753e-07
1.2524953e-07
-7.2750068e-07
9.2871604e-08
-7.2345918e-07
2.0786009e-08
-6.6205713e-07
-2.0522243e-07
-5.4552665e-07
-4.6120693e-07
-3.6316089e-07
-8.1821161e-07
-2.4232063e-07
-5.4419202e-07
-1.6855766e-07
-3.4970353e-07
-2.9152961e-07
5.6428458e-07
-4.323935e-07
6.3493998e-07
-5.7955135e-07
6.8907897e-07
-6.5464352e-07
3.108055e-07
-7.7246207e-07
4.7430503e-07
-8.9042242e-07
4.4340255e-07
-9.9222454e-07
3.4834099e-07
-1.096328e-06
3.7084105e-07
-1.165073e-06
1.8747574e-07
-1.2778297e-06
4.6673167e-07
-1.3254561e-06
1.2117064e-07
-1.4249902e-06
1.9544212e-07
-1.4878853e-06
-6.7812853e-08
-1.4022051e-06
-3.1229888e-07
-1.3126068e-06
-5.9471127e-07
-1.4830047e-06
-1.2113849e-07
-2.0164628e-06
1.8188409e-06
-2.4042949e-06
1.8284163e-06
-3.4185702e-06
5.0920025e-06
-8.5554586e-06
2.6879033e-05
-1.3023406e-05
2.1448426e-05
-1.9353905e-05
3.131354e-05
-1.9794315e-05
2.3643434e-06
2.6290111e-06
-0.00010679991
-1.7679925e-06
2.118496e-05
1.2396e-05
-7.0460273e-05
3.9714899e-06
3.8934525e-05
1.4686005e-05
-5.2635711e-05
8.5151177e-06
2.6795941e-05
1.0189694e-05
-5.485528e-06
9.1959344e-06
5.972671e-06
8.3531607e-06
5.8758212e-06
7.994456e-06
3.2063324e-06
1.0485362e-05
-1.1001085e-05
6.8204122e-06
1.7640309e-05
-4.4117579e-06
5.3853785e-05
-4.1200243e-07
-1.7441295e-05
-3.2629067e-06
1.4429473e-05
-6.4961802e-07
-1.2894847e-05
-3.7357368e-06
2.470943e-05
2.7542133e-06
-2.6008577e-05
-9.9640453e-06
6.8945286e-05
-3.0107289e-06
-2.8663201e-05
-2.7790401e-06
-9.7568844e-06
-4.0620376e-06
-3.426193e-06
-3.1809154e-06
-1.250665e-05
4.2044514e-06
-3.9415825e-05
1.0456629e-05
-2.8514287e-05
1.2943141e-05
-4.8162633e-06
5.7262462e-06
4.6684777e-05
4.8314419e-06
1.5716733e-05
3.2313822e-06
9.0073846e-06
8.0466462e-06
-2.999506e-05
1.1012572e-05
-2.6333795e-05
1.5673618e-05
-4.2508433e-05
1.3732081e-05
8.0916584e-06
2.0244355e-05
-1.2393793e-05
2.100967e-05
8.3604425e-06
1.7298204e-05
1.6558763e-05
1.337729e-05
1.3558189e-05
1.1087282e-05
9.4783362e-06
8.2514352e-06
1.1372355e-05
5.1559225e-06
1.0637405e-05
2.4040624e-06
8.6351912e-06
1.2203112e-06
3.453762e-06
6.2251476e-07
2.4038764e-06
1.601043e-06
-1.6095271e-06
7.8157083e-06
-2.5513647e-06
2.8814724e-06
-2.0570315e-06
-1.6421043e-06
-1.6419298e-06
-1.368992e-06
-1.2639321e-06
-1.3254476e-06
-1.5794208e-06
1.0383435e-06
-1.3253018e-06
-1.3639238e-06
-1.3745584e-06
1.0738967e-08
-1.3581412e-06
-3.8173617e-07
-1.3939557e-06
-2.081342e-07
-8.5324655e-07
-2.1696436e-06
-2.0006253e-06
5.0593853e-06
-1.8112923e-06
-2.9805392e-06
1.1827976e-06
-1.1930516e-05
-4.94476e-07
1.2558204e-05
-2.1893161e-06
4.4840811e-06
-7.7291668e-07
-9.4762168e-06
-6.0196104e-07
1.1547554e-06
-5.1906085e-07
7.3674018e-08
-3.7400226e-07
-5.8385928e-07
-2.6612315e-07
-4.1076811e-07
-1.8302065e-07
-2.9682926e-07
-1.2031166e-07
-2.1016823e-07
-9.7278322e-08
-1.1962166e-07
-1.1207471e-07
4.7363804e-08
-1.6226838e-07
1.8978606e-07
-1.875174e-07
4.7204882e-08
-3.1895495e-07
5.8304311e-07
-3.2498662e-07
-8.8658951e-08
-4.59858e-07
6.4060471e-07
-4.9777789e-07
6.948126e-08
-5.9535476e-07
4.4304416e-07
-6.8522925e-07
3.4923934e-07
-7.6341093e-07
3.3361604e-07
-8.3759778e-07
2.8312648e-07
-9.5463075e-07
3.4355116e-07
-1.067478e-06
4.2288547e-07
-9.918964e-07
-1.3673261e-07
-1.629553e-06
2.9827715e-06
8.4749534e-06
-2.2616384e-06
-2.7909942e-07
-2.20635e-06
-3.2330877e-07
-2.1731026e-06
-1.7750039e-07
-2.1297471e-06
-1.1901422e-07
-2.0378772e-06
-3.161083e-07
-1.9830495e-06
-1.297051e-07
-1.9187632e-06
-2.5747102e-07
-1.9006181e-06
-1.105273e-08
-1.879473e-06
4.3029068e-08
-1.8790356e-06
2.1760315e-07
-1.8895005e-06
3.1399147e-07
-1.8995246e-06
3.2709125e-07
-1.9225251e-06
3.8644273e-07
-1.925529e-06
2.1605699e-07
-2.0102285e-06
6.444664e-07
-2.0492475e-06
4.378808e-07
-2.0532941e-06
2.9372397e-07
-1.8403089e-06
-1.0392627e-06
-1.7108162e-06
-7.0918763e-07
-1.5612389e-06
-8.3873059e-07
-1.5511692e-06
1.9262206e-08
-1.4922016e-06
-2.6226794e-07
-1.5038941e-06
6.2039285e-08
-1.3252617e-06
-1.0351009e-06
-1.2449479e-06
-4.9970965e-07
-1.1160294e-06
-8.0145924e-07
-1.0372308e-06
-5.9406503e-07
-9.5885487e-07
-5.3959069e-07
-9.4517129e-07
-4.1366923e-08
-9.4162237e-07
7.5034397e-08
-9.134284e-07
-1.1875912e-07
-8.8898956e-07
-1.31801e-07
-8.7101782e-07
-7.8518405e-08
-8.9088757e-07
1.451192e-07
-9.052144e-07
1.0719821e-07
-8.9741386e-07
1.2985518e-08
-8.2475689e-07
-2.7787982e-07
-6.9112904e-07
-5.9483499e-07
-4.8881698e-07
-1.0205243e-06
-3.5313388e-07
-6.7987538e-07
-2.730694e-07
-4.2976868e-07
-4.0654912e-07
6.9776429e-07
-5.6411838e-07
7.9250889e-07
-7.258092e-07
8.5077006e-07
-8.1360261e-07
3.9859881e-07
-9.5000615e-07
6.1070898e-07
-1.0890377e-06
5.8243425e-07
-1.2121288e-06
4.7143256e-07
-1.3359451e-06
4.9465737e-07
-1.4231572e-06
2.7468813e-07
-1.5520586e-06
5.9563323e-07
-1.6158717e-06
1.8498414e-07
-1.7460649e-06
3.2563541e-07
-1.8395449e-06
2.5667416e-08
-1.7401052e-06
-4.1173844e-07
-1.6550982e-06
-6.797178e-07
-1.9067841e-06
1.305475e-07
-2.5374185e-06
2.4494756e-06
-2.9617917e-06
2.2527897e-06
-4.0522326e-06
6.1824441e-06
-9.28895e-06
3.2115733e-05
-1.3873496e-05
2.6032994e-05
-2.0088808e-05
3.7529018e-05
-2.0835361e-05
3.1107261e-06
2.7162881e-06
-0.0001303517
-1.9847235e-06
2.5886093e-05
1.2924401e-05
-8.5369396e-05
3.9818781e-06
4.7877048e-05
1.5327148e-05
-6.3980982e-05
8.5864258e-06
3.3536665e-05
1.0565762e-05
-7.4648646e-06
9.6530386e-06
6.885395e-06
8.8595968e-06
6.669263e-06
8.5800696e-06
3.4858598e-06
1.1258367e-05
-1.3679382e-05
7.348958e-06
2.1549718e-05
-4.743545e-06
6.5946288e-05
-2.4088477e-07
-2.1943955e-05
-3.2208069e-06
1.7409395e-05
-5.4068831e-07
-1.5574965e-05
-3.1115142e-06
2.7280256e-05
4.1062407e-06
-3.3226332e-05
-8.8065361e-06
8.1858065e-05