/*--------------------------------*- C++ -*----------------------------------*\
| =========                 |                                                 |
| \\      /  F ield         | OpenFOAM: The Open Source CFD Toolbox           |
|  \\    /   O peration     | Version:  2.4.0                                 |
|   \\  /    A nd           | Web:      www.OpenFOAM.org                      |
|    \\/     M anipulation  |                                                 |
\*---------------------------------------------------------------------------*/
FoamFile
{
    version     2.0;
    format      ascii;
    class       volVectorField;
    location    "300";
    object      U;
}
// * * * * * * * * * * * * * * * * * * * * * * * * * * * * * * * * * * * * * //

dimensions      [0 1 -1 0 0 0 0];

internalField   nonuniform List<vector> 
19475
(
(-0.0032704305 9.2277807e-05 7.0177073e-20)
(-0.0095964273 -6.096679e-05 -1.1254215e-19)
(-0.0050943432 4.4889668e-06 7.6185086e-20)
(-0.007547743 7.159656e-05 -2.3391158e-18)
(-0.0051920951 -7.3535912e-05 -5.3565262e-19)
(-0.0073185547 0.0001090788 1.0808983e-18)
(-0.0052663496 -0.0001072291 5.8163098e-19)
(-0.005323106 0.00017347041 -2.5105026e-18)
(-0.0035916413 -5.3021158e-05 -1.0558761e-18)
(-0.0033208474 0.00049321204 1.6216926e-18)
(-0.0017363901 0.00043187793 1.1967259e-18)
(-0.0027916887 0.00058296028 -4.3499495e-18)
(-0.001137943 0.00098483864 6.3670501e-19)
(0.0041043711 0.0020737903 -5.2950829e-18)
(-0.0027542339 0.001159275 6.344101e-18)
(-0.010925957 -0.00091209955 -5.3048965e-18)
(-0.001842579 -0.0003227618 -6.5669921e-19)
(0.0028583794 0.0009098042 9.2586672e-19)
(-0.0004252352 0.00050082256 -4.0980635e-18)
(-0.00076006603 0.00031414787 3.5115478e-18)
(-0.0004393938 0.00020171867 5.2167794e-18)
(-0.00034897779 0.00016065342 -5.3865781e-18)
(-0.00025863744 4.005383e-05 -2.2936193e-18)
(-0.00021336581 1.370606e-05 1.2485527e-18)
(-0.00017701022 3.2333552e-05 3.4483265e-18)
(-0.0002222114 4.1421209e-05 9.4223851e-19)
(-0.00025024209 7.6794516e-05 1.3127226e-18)
(-0.00041393875 0.00011812236 -4.6416826e-18)
(-0.00050449108 0.00012128648 -3.7198095e-18)
(-0.00062239357 0.00017081326 -2.4391631e-18)
(-0.00082645152 0.00015913166 2.3304853e-18)
(-0.00091647796 0.00019193435 4.5316566e-18)
(-0.0011567549 0.00020433009 1.5447913e-18)
(-0.0013433874 0.00022998601 1.8888276e-18)
(-0.0014497168 0.0001952479 -1.8536728e-18)
(-0.0014347484 0.00022375748 1.1472593e-18)
(-0.0015290652 0.00037546727 -1.8236878e-18)
(-0.0017919205 0.0003630823 -6.1252545e-20)
(-0.0027412659 0.0001540705 -3.0263238e-18)
(-0.0037559673 1.5117918e-05 3.9155674e-19)
(-0.00085381193 2.1505627e-05 1.1872507e-22)
(-0.00060714425 2.3104056e-05 -1.250136e-22)
(-0.00036892481 3.6514282e-05 -1.3794797e-23)
(-0.00029061647 4.6353165e-05 1.20603e-22)
(-0.00028910573 4.5225478e-05 -6.8545966e-23)
(-0.00032409034 4.8431754e-05 7.853699e-23)
(-0.00033359247 4.0358537e-05 -1.1757756e-22)
(-0.00034543382 4.5786889e-05 2.9924507e-23)
(-0.00053234685 4.2411031e-05 6.1407155e-23)
(-0.00090678562 3.5133855e-05 -1.9790747e-23)
(-0.0015049051 1.8193534e-05 -7.9702017e-23)
(-0.0021799784 -8.2266598e-06 9.1417135e-23)
(-0.0028996193 -3.2851495e-05 -7.5879611e-23)
(-0.0035080989 -6.7364607e-05 7.9206027e-23)
(-0.0041931046 -8.7011668e-05 -3.8267324e-23)
(-0.0050107773 -0.00013198304 -3.4780478e-23)
(-0.0056835477 -0.00015274408 -4.1815741e-23)
(-0.005607048 -0.0001855268 6.0985464e-23)
(-0.0048657371 -0.00015315853 2.9452062e-23)
(-0.0041210878 -0.0001445344 -2.7055527e-23)
(-0.0037407563 -0.00011701712 4.7469299e-23)
(-0.0036953038 -0.00013621519 -3.6476167e-23)
(-0.0036273321 -0.00012676617 1.4500023e-23)
(-0.0031262361 -0.00012794141 -7.4198739e-24)
(-0.0023187157 -8.38257e-05 3.9997984e-24)
(-0.0015532984 -6.0227286e-05 -4.1813622e-25)
(-0.000690616 -1.7173783e-05 -3.3706213e-25)
(3.1745452e-05 2.1990482e-05 3.3465703e-24)
(0.0003727299 4.7870808e-05 -6.1286426e-24)
(0.00029333653 4.6910898e-05 7.55366e-24)
(0.00022264669 3.8905967e-05 -7.8392155e-24)
(0.00030295665 4.6125051e-05 1.8926011e-23)
(0.00038218804 5.0909014e-05 1.0574016e-24)
(0.00032453578 5.2597711e-05 -6.6053687e-24)
(0.00016444749 4.2992549e-05 -1.032501e-23)
(4.9268503e-05 3.784203e-05 4.7831438e-23)
(4.3877713e-05 3.5354678e-05 -2.8895153e-16)
(0.00028932855 4.2738946e-05 -3.1175232e-16)
(0.00088043973 6.541813e-05 1.3870364e-23)
(0.0015763261 0.00011440434 2.8081398e-23)
(0.0020517999 0.0001355847 -3.2030197e-23)
(0.0019587361 0.00015600824 -1.0635569e-23)
(0.0013174959 0.0001142677 9.7544694e-24)
(0.00062797618 9.1944915e-05 6.4628832e-16)
(9.516467e-05 5.2458926e-05 6.7199865e-16)
(-0.00023898855 3.0216726e-05 1.2292779e-19)
(-0.00061215308 -2.1874971e-05 -1.2838317e-18)
(-0.00084901042 -7.008436e-05 -5.8052703e-19)
(-0.0010683518 -0.00011079427 3.7333134e-18)
(-0.0011540075 -0.00016598155 6.125966e-19)
(-0.0014069144 -0.00021607566 4.0507304e-18)
(-0.0015374469 -0.00025694909 -2.6355621e-19)
(-0.0014253791 -0.00029116718 3.9955386e-20)
(-0.00097141448 -0.00039056568 -1.4034446e-18)
(-0.00071809725 -0.00052481674 1.135244e-18)
(0.00030970697 -0.00039407285 -3.831305e-18)
(0.0013292055 -0.00074875681 2.8244745e-18)
(0.0015487752 -0.0012345634 8.9531874e-19)
(-0.00020835958 -0.0018189392 1.865272e-18)
(-0.0044166066 -0.0019378402 -1.1149649e-17)
(-0.024885394 -0.0011067928 -2.0666897e-18)
(-0.053715303 -0.0017715415 -4.1023835e-18)
(-0.08640143 -0.0030384695 -2.6425384e-17)
(-0.10685997 -0.0043582689 -9.7748984e-18)
(-0.047344389 -0.0033334234 7.5819009e-18)
(-0.00011146073 -0.00076241622 -1.0017515e-16)
(0.033336818 -0.0024798849 -7.0011605e-18)
(0.052514405 -0.0030423552 -1.3323197e-17)
(0.067194703 -0.0063823882 -6.9053988e-17)
(0.085378469 -0.0048930888 2.6574778e-18)
(0.075961402 -0.0050183885 -1.9233987e-17)
(0.072282978 -0.0042039009 -3.9129709e-17)
(0.062971616 -0.0031460913 2.3203717e-17)
(0.055662529 -0.0010714245 1.5158048e-17)
(0.059258561 -0.00022538657 1.7160469e-17)
(0.055695855 0.0019686644 -4.3089014e-17)
(0.0093314645 0.0030222367 -1.7149888e-16)
(-0.013693328 0.0045890129 1.7536246e-16)
(-0.015200909 0.0051943245 -4.6515172e-17)
(-0.017405045 0.0033543823 -4.4822661e-18)
(-0.035276798 0.012163647 -3.9681364e-17)
(-0.043747522 0.019286181 -1.7919252e-17)
(-0.088803431 0.031738436 6.4467578e-18)
(-0.12714634 0.02935005 3.5890061e-18)
(-0.10216727 0.023146047 -4.4339239e-18)
(-0.076835487 0.0093583721 -1.32827e-16)
(-0.050346838 -0.0029718961 -4.2637748e-18)
(-0.0042740548 -0.014432517 -1.3470363e-16)
(0.045290992 -0.017919181 1.2012858e-16)
(0.061483262 -0.0094795925 8.2239379e-18)
(0.016588335 0.013638972 1.0321051e-17)
(-0.050870545 0.030038366 -3.9135442e-17)
(-0.083826426 0.032507396 4.9001229e-17)
(-0.062896194 0.022454567 8.1670317e-17)
(-0.0061521135 -0.0031327411 -2.9003194e-16)
(0.075788557 -0.03073374 -2.4104183e-16)
(0.130206 -0.021972314 5.283094e-17)
(0.12432984 -0.0043816299 5.865541e-17)
(0.095445092 0.0088411219 1.8850903e-17)
(0.06225262 0.0074766406 5.4607904e-19)
(0.043498889 0.0027399189 1.242626e-18)
(0.033690118 0.0015971735 -3.4670584e-18)
(0.023295644 0.0015629399 -2.8733849e-18)
(0.010219068 0.00059713583 -6.4066794e-19)
(0.0058358855 0.00016813731 -1.0538095e-18)
(0.0011222313 -1.1450704e-05 -6.465105e-19)
(0.0015270132 6.4292755e-05 -4.3747007e-19)
(-0.0036979012 1.4099819e-05 -7.0780085e-20)
(-0.0015757439 5.6397225e-05 7.7517315e-20)
(-0.02084708 -7.2979896e-05 3.2521786e-19)
(-0.0094710187 -4.7978453e-06 -2.8130233e-19)
(-0.01570694 0.0002208806 2.7587662e-18)
(-0.007621312 -0.00012484473 3.2386756e-20)
(-0.013610381 0.00047512494 3.9960829e-18)
(-0.0085033697 2.7567478e-05 -1.5362947e-18)
(-0.0099427594 0.00078538272 3.5753747e-18)
(-0.0059836316 0.00018020324 3.20142e-18)
(-0.0071536924 0.0017603101 -3.842597e-18)
(-0.0040734219 0.0014227088 -1.442511e-18)
(-0.0057518092 0.0013684888 6.4875952e-19)
(-0.0041958643 0.0037905738 1.4458505e-17)
(0.0024138905 0.0061614721 3.9929014e-18)
(-0.0060965551 -8.6643579e-05 -1.7320919e-17)
(-0.01586795 -0.0026043488 4.7307667e-18)
(-0.0025722285 0.0013535529 -1.0803015e-18)
(0.0030187779 0.0026398186 -1.2477571e-18)
(-0.0015109999 0.0013897373 -4.2728706e-18)
(-0.0017271403 0.00094136958 1.4608556e-18)
(-0.0010296961 0.00060660601 -2.4127483e-18)
(-0.00081939879 0.00048571295 2.6202848e-18)
(-0.00048702724 0.0001316902 3.7061672e-18)
(-0.00037478652 5.8729795e-05 9.9632077e-18)
(-0.00035112702 0.00010486663 -3.1264438e-18)
(-0.00044138109 0.00012833534 -4.9567367e-18)
(-0.0005524286 0.00024016999 -7.4588154e-18)
(-0.00087495329 0.00033485566 3.9254939e-18)
(-0.0010361272 0.00041102999 1.6397356e-18)
(-0.0012958849 0.00049988132 8.0981032e-18)
(-0.0016028211 0.00053976456 -1.1765878e-17)
(-0.0017955452 0.00061188273 -6.6972263e-18)
(-0.0021908106 0.00066735906 -1.1217813e-18)
(-0.0025222992 0.00075772807 -2.0235618e-18)
(-0.0026247004 0.00068714542 -5.2277714e-20)
(-0.0026627681 0.00080543519 5.5074087e-18)
(-0.0030817272 0.0012392518 4.3372148e-18)
(-0.0034491925 0.0011998059 1.8849076e-19)
(-0.0044456899 0.00052387998 2.9912987e-18)
(-0.0057629213 0.00087911485 1.9882305e-19)
(-0.0039226345 2.654159e-05 -4.3199693e-23)
(-0.0035301493 3.3646734e-05 1.0687954e-22)
(-0.0032291964 4.5750623e-05 -1.3415781e-22)
(-0.0030912652 5.1491554e-05 -1.964379e-23)
(-0.0029907999 4.9237952e-05 1.2916246e-22)
(-0.0029058809 4.6570091e-05 -2.3394463e-22)
(-0.0028341594 4.3663025e-05 1.7503431e-22)
(-0.002828653 4.6228119e-05 -2.3358724e-23)
(-0.0030680695 4.1482265e-05 -3.3948544e-23)
(-0.0035142068 2.5382191e-05 1.7560322e-22)
(-0.0042954898 -3.8438783e-06 -1.9548612e-22)
(-0.0051481474 -3.9955727e-05 -3.5743027e-23)
(-0.0060858879 -8.2143611e-05 9.4885281e-23)
(-0.0068698435 -0.00011955271 8.5158009e-23)
(-0.0078283303 -0.00015491772 1.4311519e-22)
(-0.0089762435 -0.00019960697 -2.7398598e-22)
(-0.0097953964 -0.00025853218 -1.3865438e-22)
(-0.0095403832 -0.00028833951 2.8189107e-22)
(-0.0084038869 -0.00025677197 -2.2400029e-22)
(-0.0073381498 -0.00020717478 6.901174e-23)
(-0.006744547 -0.00017412382 6.6771034e-23)
(-0.0066182129 -0.00017284323 2.7286371e-23)
(-0.0064784616 -0.00017465601 -1.9689384e-23)
(-0.0057423851 -0.0001635667 -4.4433885e-23)
(-0.0045725611 -0.00010710993 1.29172e-23)
(-0.0034369844 -6.1509997e-05 -5.5048678e-24)
(-0.0022113392 -1.7850398e-06 3.4905584e-24)
(-0.0012583705 5.6105551e-05 -4.5755829e-24)
(-0.00076960723 9.5325754e-05 1.0397647e-23)
(-0.0008046183 8.9627403e-05 -5.7238376e-24)
(-0.00085755468 7.825873e-05 -3.1246171e-24)
(-0.0007443779 8.2488248e-05 2.5311187e-23)
(-0.00063220761 9.2648581e-05 -2.6308687e-23)
(-0.00068934867 9.1251545e-05 4.2419162e-25)
(-0.00092413719 8.0127746e-05 -1.5566657e-23)
(-0.0010920245 7.0938879e-05 7.7590607e-23)
(-0.0010527047 6.5459633e-05 -5.2727349e-23)
(-0.00055744666 7.245715e-05 -1.911816e-23)
(0.00041413275 0.00010880365 1.0328459e-22)
(0.0015119667 0.00016540823 -1.044605e-22)
(0.002253726 0.00021519411 -9.7906754e-23)
(0.0021022381 0.00022287624 1.4670791e-22)
(0.0010563625 0.00018453892 -1.3525964e-22)
(4.2559147e-06 0.0001192915 2.0178061e-22)
(-0.00084784016 7.0616438e-05 2.286499e-22)
(-0.001386524 1.8830148e-05 -3.2358026e-19)
(-0.0020583555 -0.00010291555 -1.4175224e-19)
(-0.0024971456 -0.00022920011 -6.8328105e-20)
(-0.0029516735 -0.00037758367 -4.4972481e-18)
(-0.0031498516 -0.0005113285 -2.2143263e-18)
(-0.0036677978 -0.00069229899 -1.006329e-17)
(-0.0038146744 -0.00080375814 -8.6481135e-18)
(-0.0037519237 -0.00099487986 2.1861134e-18)
(-0.00335729 -0.0012736905 2.687314e-18)
(-0.0033648837 -0.0016877294 -6.100983e-19)
(-0.001215133 -0.0013586556 2.0451037e-18)
(-0.00068757673 -0.0023222181 -1.7746595e-18)
(-0.0015361362 -0.0034446293 2.3020599e-18)
(-0.0052444205 -0.00460486 1.1654399e-18)
(-0.011403958 -0.0047221711 8.9275228e-18)
(-0.040156262 -0.0030807303 -1.7607219e-17)
(-0.083204501 -0.0016698097 3.4185767e-18)
(-0.13468818 -0.005063213 1.2930993e-18)
(-0.16694113 -0.0053593232 -3.1840781e-17)
(-0.074879607 -0.0061442858 -6.0142902e-17)
(-0.002402084 -0.0012407797 1.2109368e-16)
(0.046323246 -0.0041569961 -2.2857943e-16)
(0.071371292 -0.010726059 3.5791834e-17)
(0.089746377 -0.014413964 -1.3825547e-17)
(0.11817964 -0.017751226 5.8036654e-18)
(0.10505189 -0.01550139 1.7763317e-17)
(0.10109388 -0.013548132 1.4139189e-17)
(0.089156945 -0.01017367 5.0776689e-17)
(0.082011797 -0.0046380307 -4.2606826e-17)
(0.08953429 -0.0029926252 1.1269986e-16)
(0.087778674 0.0018109926 7.5820132e-17)
(0.018678246 0.005368848 1.5391135e-16)
(-0.012073975 0.010235787 -7.2443008e-18)
(-0.013929784 0.010884719 -1.7215477e-16)
(-0.020013545 0.0089547576 6.173468e-17)
(-0.034003438 0.026359433 -6.9978149e-17)
(-0.034500136 0.053484727 3.4075998e-17)
(-0.084824983 0.075911437 1.2555952e-16)
(-0.14755409 0.085259671 2.6896171e-18)
(-0.11901723 0.064801452 1.6326252e-17)
(-0.10221274 0.029699232 2.3678006e-16)
(-0.080716756 -0.0028122705 -5.5389384e-17)
(-0.026867743 -0.032615496 6.6246103e-17)
(0.044074193 -0.041540652 -1.0733216e-17)
(0.081450965 -0.019976616 -3.1553098e-17)
(0.046271153 0.037157563 -7.2346029e-17)
(-0.032025047 0.080569568 1.6530366e-17)
(-0.077429302 0.088457086 -4.4366126e-17)
(-0.058102509 0.062968801 1.2808123e-16)
(-0.010606504 0.0028218521 9.9741611e-17)
(0.069268024 -0.055469275 2.9314279e-16)
(0.16217023 -0.054095708 -1.3541271e-16)
(0.1895903 -0.0051470754 -1.5705255e-17)
(0.17869299 0.026889123 -2.2820686e-17)
(0.12917545 0.022474772 1.7287195e-18)
(0.087277113 0.0098255715 2.6247265e-18)
(0.068452316 0.005821159 -2.7237723e-18)
(0.054711324 0.0046168522 -1.0666116e-17)
(0.027108727 0.0016519626 -2.8473603e-18)
(0.016755359 0.00056843887 2.971008e-19)
(0.0023801056 3.5348349e-05 1.0307223e-18)
(0.0053746145 -2.6147243e-05 2.2953818e-19)
(-0.0053864165 3.756559e-05 2.5794766e-19)
(0.0028770064 0.00024536325 7.2617478e-20)
(-0.029213189 -0.00011943037 -1.1148173e-19)
(-0.011704478 -3.8786962e-06 -3.0140546e-20)
(-0.021346609 0.00036879441 -1.3897385e-18)
(-0.007271921 -0.00022010297 3.2917492e-18)
(-0.016998128 0.00078512763 -2.6674754e-18)
(-0.0093109541 -2.9664379e-05 1.526034e-18)
(-0.012587935 0.0012780758 -7.5984072e-18)
(-0.0069075836 0.00027846479 4.4223061e-18)
(-0.010172618 0.0028724838 1.6031945e-19)
(-0.0061288664 0.0023471502 2.0232935e-18)
(-0.007584615 0.0025624691 -3.56078e-18)
(-0.0081255043 0.0059916485 -1.4389248e-17)
(-0.0027869798 0.0099681925 7.7872763e-18)
(-0.0059407903 0.0012717069 1.8434195e-17)
(-0.015044221 -0.0040864099 -1.2643994e-18)
(-0.004272276 0.0014347727 4.5590394e-19)
(0.0013293056 0.0044323967 2.6896625e-18)
(-0.0025945611 0.0023774313 9.139507e-18)
(-0.0025206629 0.0015761533 -5.9853669e-18)
(-0.0015348189 0.0010143249 -6.8202088e-18)
(-0.0012258877 0.00081424346 -1.4832847e-18)
(-0.00063535394 0.00023292325 4.2887424e-18)
(-0.00046875415 0.00011149225 -1.1018145e-17)
(-0.00047803432 0.00019706887 3.4238673e-19)
(-0.00059617131 0.00024445623 -5.8955196e-18)
(-0.00080679643 0.00043145245 5.644806e-18)
(-0.0012095032 0.00060356947 3.7213392e-18)
(-0.0014659222 0.00070450216 1.8145491e-19)
(-0.0017887693 0.00087583714 3.8508263e-18)
(-0.0021663903 0.00090710315 -1.3424549e-18)
(-0.0024179897 0.0010359294 -1.1251078e-18)
(-0.0028833175 0.0011130323 -3.971324e-18)
(-0.0033017536 0.0012494597 1.4689111e-19)
(-0.0033614649 0.0011161684 -7.2775428e-18)
(-0.0035073056 0.001306751 -4.9601168e-18)
(-0.0042806732 0.00203137 -9.8978396e-19)
(-0.0046248522 0.0019381642 2.7945011e-19)
(-0.0050433263 0.00079806644 4.1776807e-19)
(-0.0066698447 0.0011692734 -8.8734755e-19)
(-0.0074883782 2.6506561e-05 1.8962959e-22)
(-0.0070691803 2.8725813e-05 -8.7905222e-23)
(-0.0068408295 4.9403642e-05 3.8906123e-23)
(-0.0066694628 6.3642927e-05 7.5435787e-23)
(-0.0064373087 5.8226469e-05 -3.8502051e-23)
(-0.0061719423 6.2790507e-05 -1.563086e-22)
(-0.0059877205 5.0721008e-05 1.7912226e-22)
(-0.0059487786 6.1698677e-05 -1.4695431e-22)
(-0.0061288293 5.9314021e-05 -6.8071082e-23)
(-0.0064182596 4.9630607e-05 4.6222322e-23)
(-0.007040602 2.2637758e-05 2.4083454e-22)
(-0.0076781461 -1.7637467e-05 -3.0569e-22)
(-0.0084219039 -6.0189262e-05 3.2126326e-22)
(-0.0090304931 -0.00011276019 -2.4906773e-22)
(-0.0098909517 -0.000138783 2.5432797e-22)
(-0.010928527 -0.00020130467 -2.1538562e-22)
(-0.01149099 -0.00025607177 -1.6000675e-22)
(-0.011049027 -0.00033297784 2.8104207e-22)
(-0.009884763 -0.00028604226 -1.6523332e-22)
(-0.0088850902 -0.00025122581 1.5636947e-22)
(-0.0082597727 -0.00018849585 -1.494377e-22)
(-0.0080558863 -0.00020712842 9.178529e-23)
(-0.0078675496 -0.00019564144 -1.9419196e-23)
(-0.0071555387 -0.00021708695 -3.2413421e-23)
(-0.0060425082 -0.00013837176 1.8266497e-23)
(-0.0049274494 -0.00010106627 -1.4976283e-25)
(-0.003796766 -3.0358211e-05 4.1270429e-24)
(-0.0030150114 3.5719072e-05 -8.5886623e-24)
(-0.0025572935 9.3812844e-05 2.4912858e-23)
(-0.0024828403 9.3679683e-05 -2.9635726e-23)
(-0.0024670037 7.4837721e-05 4.1098832e-23)
(-0.0023628396 8.1193332e-05 -3.4716246e-23)
(-0.0022591834 9.2747384e-05 4.4171581e-23)
(-0.0022775822 9.8779558e-05 -1.3803223e-23)
(-0.0025015907 8.4113898e-05 -5.323892e-23)
(-0.0026577503 7.2968047e-05 8.9171575e-23)
(-0.0025553088 6.20268e-05 -1.2039605e-22)
(-0.0018985975 6.3857081e-05 8.4597188e-23)
(-0.00082143863 9.0882966e-05 -4.5913222e-23)
(0.0003418203 0.00016773391 1.3262488e-23)
(0.001117188 0.00021933062 3.4137856e-23)
(0.00095154023 0.00026454322 1.1585846e-22)
(-0.00019748301 0.00021399602 -1.239422e-22)
(-0.0012678602 0.00015871213 -1.6507109e-22)
(-0.0021881531 8.9070018e-05 2.1438492e-22)
(-0.0027759014 2.472116e-05 3.3142619e-19)
(-0.0035982814 -0.00016622885 2.2294898e-18)
(-0.0041465974 -0.00036946615 2.1199056e-19)
(-0.0047752179 -0.00059697501 1.743781e-18)
(-0.0050676811 -0.00083148214 3.0723613e-18)
(-0.0057783641 -0.0011065166 6.5817529e-18)
(-0.0058673591 -0.0012905246 7.3947826e-19)
(-0.005977941 -0.0015974416 -7.8376919e-18)
(-0.0059600158 -0.0021326068 1.0139312e-18)
(-0.0064547003 -0.0028489022 1.2423264e-18)
(-0.00351832 -0.0023579029 6.8100016e-18)
(-0.0042217833 -0.0040999704 5.0213614e-18)
(-0.0064599142 -0.0061323098 1.0255468e-17)
(-0.011297554 -0.0081318776 5.1386999e-18)
(-0.017220802 -0.0079154059 5.4957113e-18)
(-0.044714448 -0.0030105371 8.0191497e-18)
(-0.086596538 0.00029857096 -6.2630189e-18)
(-0.14233484 -0.002798717 -1.0176683e-18)
(-0.17497947 -0.0036150772 1.1766995e-16)
(-0.078967445 -0.0093499383 5.3905916e-17)
(-0.0049882904 -0.0029517415 -6.3228304e-17)
(0.045279806 -0.01186927 2.3124179e-16)
(0.062281177 -0.021542667 -1.2894534e-17)
(0.081663748 -0.031375282 1.8406691e-18)
(0.1060447 -0.034396665 -1.6586365e-17)
(0.095996658 -0.03086356 -1.9839913e-17)
(0.09338685 -0.026836608 2.6794861e-17)
(0.083818337 -0.020589197 3.7751911e-17)
(0.080807639 -0.010713147 8.7407195e-17)
(0.090565407 -0.0077180825 -1.1871086e-16)
(0.091841255 0.0016140455 -6.076042e-18)
(0.022044416 0.010468758 2.4370748e-16)
(-0.0039086117 0.019349451 -7.7041901e-18)
(-0.0062923846 0.02116527 1.9336116e-16)
(-0.013084359 0.016807697 8.6511835e-17)
(-0.017975327 0.048841229 2.3191969e-16)
(0.00266279 0.091339069 -1.592943e-16)
(-0.038247927 0.13590704 -2.7214782e-17)
(-0.093684827 0.14569138 -1.1208782e-17)
(-0.078245303 0.11293926 9.2109791e-19)
(-0.083696681 0.053106398 -9.5868115e-17)
(-0.082319363 -0.0022966552 -9.8259364e-19)
(-0.044683779 -0.054158836 -1.2608401e-16)
(0.02272956 -0.070999961 -8.9717582e-17)
(0.073892812 -0.035495193 5.6767426e-17)
(0.071490794 0.061370677 8.9091904e-17)
(0.02043733 0.13397367 -1.4624696e-16)
(-0.01809973 0.14743035 1.4949723e-17)
(-0.011018622 0.10450173 2.3326781e-17)
(-0.0025718591 0.0030394628 2.1600816e-16)
(0.033830195 -0.098440462 -2.8948783e-16)
(0.12281594 -0.088821741 4.9638685e-17)
(0.19469343 -0.011165331 6.1761981e-17)
(0.22306785 0.043030691 1.8757929e-17)
(0.17541111 0.037061173 1.4248587e-18)
(0.11697993 0.016455961 -5.4244567e-18)
(0.092491297 0.0097326435 8.0900866e-18)
(0.080885627 0.007864839 3.7505693e-18)
(0.043110495 0.0029687997 6.8701679e-18)
(0.027655593 0.0010392079 -2.8473521e-19)
(0.0035560687 7.9770596e-05 5.0094614e-19)
(0.0095474922 6.0027204e-05 7.2109315e-20)
(-0.0051121261 7.7185267e-05 3.5703714e-19)
(0.0070792362 0.00041952296 5.0333995e-20)
(-0.037291213 -0.00011285076 -1.957924e-19)
(-0.013713742 -2.3967326e-05 -4.3171752e-19)
(-0.026750477 0.00049229891 -8.3713193e-19)
(-0.0068859107 -0.0003161618 -1.3354526e-18)
(-0.020316621 0.0011131401 -7.9110835e-19)
(-0.010171408 -1.3303566e-05 -1.6899223e-18)
(-0.015293061 0.0018337583 4.8338945e-18)
(-0.0079612381 0.00049061143 -1.3810033e-17)
(-0.013214816 0.0040629913 1.4316709e-18)
(-0.0082376745 0.0033112516 -9.5428229e-19)
(-0.0095609889 0.0037286109 5.6581832e-18)
(-0.011904895 0.0084081486 7.2836675e-18)
(-0.0078902978 0.013609812 -4.6727297e-18)
(-0.0065244607 0.0018144632 -1.0495699e-17)
(-0.014378838 -0.0053252037 3.8836542e-18)
(-0.0055890008 0.0021092657 3.33177e-18)
(-0.00039506254 0.0061644895 7.0580873e-18)
(-0.003724709 0.0033491041 -5.5725485e-18)
(-0.0033326369 0.0022217983 -9.3832092e-19)
(-0.0020533942 0.0014298626 8.7879653e-18)
(-0.0016457176 0.0011520747 1.1525928e-18)
(-0.00080537529 0.00035343899 -1.747379e-18)
(-0.00058426361 0.00018724166 -2.0658881e-18)
(-0.00063144064 0.00031221016 -3.018245e-18)
(-0.00078462575 0.0003884347 1.6594691e-17)
(-0.0010977925 0.00065407596 -4.6380022e-18)
(-0.0015909079 0.00090340384 -2.4801005e-18)
(-0.0019357286 0.0010477222 -8.680209e-19)
(-0.0023360938 0.0012916315 -5.5129935e-18)
(-0.0027744642 0.0013373403 7.2313341e-18)
(-0.003093703 0.0015194999 -4.5937085e-18)
(-0.0036294262 0.0016296424 6.1226984e-18)
(-0.0041340905 0.0018189126 -6.4128744e-19)
(-0.0041511575 0.0016382637 7.0046691e-18)
(-0.0044018914 0.0019112908 3.8505886e-18)
(-0.005526291 0.0029142769 -5.1539602e-18)
(-0.0058475553 0.0027671561 4.5152768e-18)
(-0.0057085283 0.0012098778 -1.00336e-18)
(-0.0074912841 0.0018736917 -3.7891889e-19)
(-0.011064499 2.3150186e-05 1.3060115e-22)
(-0.010616853 2.4228928e-05 -1.2035255e-22)
(-0.010448113 4.9284814e-05 -3.0624185e-24)
(-0.010233145 6.6066041e-05 2.3847333e-22)
(-0.0098717699 5.6528335e-05 -2.1604293e-22)
(-0.0094351767 6.4964201e-05 8.9514896e-23)
(-0.0091444282 4.9298583e-05 -1.4459212e-22)
(-0.0090686983 6.5874881e-05 1.379681e-22)
(-0.0091881165 6.4558154e-05 -1.1067829e-22)
(-0.0093305849 5.7829548e-05 3.9749814e-22)
(-0.009807142 3.1101876e-05 -6.2176443e-22)
(-0.010250246 -1.1504585e-05 6.4510731e-22)
(-0.010816786 -5.5601449e-05 -9.0615571e-23)
(-0.01126525 -0.00011531359 -3.111084e-22)
(-0.012039152 -0.0001345602 1.0259985e-22)
(-0.012982564 -0.00020532007 -6.1048476e-23)
(-0.013309161 -0.00026590728 2.4852083e-22)
(-0.01268252 -0.00037438548 -2.0238798e-22)
(-0.011477169 -0.00031798344 -1.336856e-22)
(-0.010517838 -0.00028374892 1.5473703e-22)
(-0.009849884 -0.00019977404 -3.361533e-23)
(-0.0095689308 -0.00022546629 3.9528631e-24)
(-0.0093332911 -0.00020701882 1.1079678e-23)
(-0.0086351692 -0.00025146839 -5.866241e-24)
(-0.0075571771 -0.00015694802 5.9335963e-24)
(-0.0064470837 -0.00012331377 -4.231269e-24)
(-0.0053915161 -4.4162169e-05 3.9543529e-24)
(-0.0047530267 2.7367649e-05 -1.9836669e-25)
(-0.0043174941 9.9312206e-05 6.6394599e-25)
(-0.004142387 0.00010163576 3.4456739e-24)
(-0.0040641739 7.7543381e-05 -3.8819267e-23)
(-0.0039651353 8.4001268e-05 4.5680956e-23)
(-0.0038665765 9.732896e-05 -4.6993998e-23)
(-0.0038494376 0.00010825975 4.2264983e-23)
(-0.0040629051 9.1937465e-05 1.0510808e-24)
(-0.0042042279 7.8294241e-05 -7.5994149e-23)
(-0.004040235 6.1042665e-05 9.210916e-23)
(-0.0032291345 5.6844713e-05 -8.7054427e-23)
(-0.0020411209 7.713082e-05 1.0291462e-22)
(-0.00080134215 0.00016566791 -1.114765e-22)
(1.5540627e-05 0.00022509383 -4.457351e-23)
(-0.00016334771 0.00029540309 5.0300099e-23)
(-0.0014187151 0.00024293058 -4.8491021e-23)
(-0.0025201931 0.00018540666 1.9207283e-22)
(-0.0035204709 0.00010214 3.0776693e-22)
(-0.0041656572 2.3659592e-05 -1.6151347e-19)
(-0.0051473841 -0.00023408974 -5.8967838e-19)
(-0.0058079219 -0.00051376827 -7.7116507e-19)
(-0.006613729 -0.0008301686 -1.1534826e-18)
(-0.0070083625 -0.0011603223 -1.9933705e-18)
(-0.0079076946 -0.0015407255 -3.5433092e-18)
(-0.0079529638 -0.0018018576 5.0535506e-18)
(-0.0082383189 -0.0022419446 4.8291167e-18)
(-0.0086022928 -0.0030167448 -5.8868231e-19)
(-0.0095336314 -0.0040189455 -2.542556e-18)
(-0.0058464197 -0.0033798802 -9.3134223e-19)
(-0.0077307563 -0.0058069521 -1.723973e-18)
(-0.011369866 -0.0086407955 7.1190444e-18)
(-0.017358195 -0.011347158 -9.6882951e-18)
(-0.023020219 -0.01077953 -2.0668649e-17)
(-0.049178098 -0.0033543587 8.6060112e-18)
(-0.090536971 0.0018564408 1.1880056e-17)
(-0.15027518 -0.0014585648 3.1326863e-17)
(-0.18402213 -0.0026271556 -6.5182057e-17)
(-0.084102084 -0.013231945 1.1836011e-16)
(-0.0083783003 -0.0048464136 6.2018631e-17)
(0.042734147 -0.018625986 -1.0200236e-16)
(0.05302955 -0.031663863 3.241253e-17)
(0.072423767 -0.045893924 8.53678e-17)
(0.094456293 -0.04964578 3.2090398e-17)
(0.087238437 -0.044559256 2.3395583e-17)
(0.086085906 -0.038653991 -6.2984699e-17)
(0.078763076 -0.029820569 5.8149829e-20)
(0.079764339 -0.01615157 1.8208195e-17)
(0.092000492 -0.011976632 4.542001e-17)
(0.096693573 0.0014391257 -7.2806892e-17)
(0.026328142 0.01506049 -1.6114279e-16)
(0.0050847221 0.027457541 -2.4981787e-17)
(0.0025619395 0.030275235 -2.3158287e-16)
(-0.0055182672 0.024471869 -8.769758e-17)
(-0.00059926048 0.067903051 1.0159187e-16)
(0.039069559 0.1263629 5.6990529e-17)
(0.010173265 0.18885963 -9.8423722e-17)
(-0.041280459 0.2024328 9.4991509e-18)
(-0.037159467 0.15872338 8.421508e-17)
(-0.064022283 0.077490173 8.0094065e-17)
(-0.08234116 0.0015020013 -3.0726669e-17)
(-0.06097814 -0.070550754 1.3186778e-16)
(0.002218477 -0.09517755 -1.4651664e-16)
(0.066178881 -0.047881013 -8.787122e-17)
(0.095521358 0.083378373 -1.733866e-17)
(0.070873962 0.18250321 2.7765675e-16)
(0.039428806 0.20219876 -1.8742824e-16)
(0.035185505 0.14417497 -1.2086056e-16)
(0.0067448269 0.0079078575 -1.7739406e-16)
(0.000220395 -0.12888369 -1.1078568e-16)
(0.087303016 -0.11869926 4.5005983e-17)
(0.19843726 -0.016423406 -5.7933571e-17)
(0.26388555 0.057408215 -2.1405657e-17)
(0.21993722 0.050999583 -2.2544112e-18)
(0.14722388 0.023578112 -2.4279966e-18)
(0.11696406 0.013914813 -1.1633083e-17)
(0.1068732 0.011086017 -3.9103318e-18)
(0.059521873 0.0043398406 -7.4349847e-18)
(0.03883098 0.0015997855 -1.7651841e-18)
(0.0051342752 0.00017381327 -4.2609632e-19)
(0.013753643 9.9327114e-05 1.7407727e-20)
(-0.0048658303 0.00011626283 -6.500739e-19)
(0.011001772 0.00063910209 -3.5001098e-20)
(-0.045034108 -7.435156e-05 2.7505995e-19)
(-0.015468808 -5.9528974e-05 6.845435e-19)
(-0.031881972 0.00059423909 9.2365482e-21)
(-0.0064508048 -0.00042892123 1.3577347e-18)
(-0.023550622 0.0014347686 4.4902134e-18)
(-0.011093969 4.2587961e-06 1.9658397e-19)
(-0.018066592 0.002400853 -3.1472648e-18)
(-0.0091731676 0.00075006357 -2.6776233e-19)
(-0.016306909 0.0052714443 -1.2939484e-18)
(-0.010419116 0.0042872599 -2.6182903e-18)
(-0.011623596 0.0049696146 -2.7087617e-18)
(-0.01566032 0.010838102 -5.8230809e-18)
(-0.012899413 0.017069511 -5.0811301e-18)
(-0.0072178525 0.0023984338 -2.3992738e-19)
(-0.013881747 -0.0063257562 4.850099e-19)
(-0.0069644871 0.0028294971 -5.8186879e-18)
(-0.0021337346 0.0078603857 -1.7256825e-18)
(-0.0048764941 0.0043343811 1.8172184e-18)
(-0.004163216 0.0028795194 7.6231147e-18)
(-0.0025869778 0.0018538935 5.0522994e-19)
(-0.0020807852 0.0014992438 6.3331495e-18)
(-0.0010007658 0.00049206529 -3.5381406e-18)
(-0.00072655436 0.00028359258 7.7072961e-18)
(-0.00081434023 0.00045067043 3.0095548e-18)
(-0.0010091128 0.00056164707 -1.4513082e-17)
(-0.0014288655 0.00090833326 -2.5495897e-18)
(-0.0020175444 0.0012409415 -4.2516365e-18)
(-0.0024571533 0.0014310866 -7.2340323e-19)
(-0.0029387418 0.0017512852 -2.1121123e-18)
(-0.0034436351 0.0018149836 7.1505472e-18)
(-0.0038349368 0.0020527088 3.0144339e-18)
(-0.0044467198 0.0022004301 -4.7874554e-18)
(-0.0050411647 0.0024438924 9.8343082e-19)
(-0.005023606 0.0022218949 -1.8125605e-18)
(-0.0053810381 0.0025808223 -4.6053371e-18)
(-0.0068478095 0.0038541445 -9.7263914e-20)
(-0.0071518142 0.003647817 -6.1373259e-18)
(-0.0064803522 0.0017172058 -3.5180128e-18)
(-0.0084039537 0.0027599577 2.0846848e-18)
(-0.014646894 1.8691585e-05 1.8539037e-22)
(-0.014168514 1.968972e-05 -1.9037906e-22)
(-0.014045565 4.9191794e-05 6.5917866e-23)
(-0.013777686 6.7388966e-05 7.1438758e-23)
(-0.013289967 5.2630739e-05 -8.7622367e-23)
(-0.01269167 6.541395e-05 7.6234837e-23)
(-0.012301139 4.6707894e-05 -1.3355418e-22)
(-0.012184754 6.943636e-05 -1.0078405e-22)
(-0.012242005 6.847327e-05 4.5534768e-22)
(-0.012246928 6.4196437e-05 -2.9241034e-22)
(-0.012590304 3.7352548e-05 3.260652e-22)
(-0.01285875 -7.9038295e-06 -1.127696e-22)
(-0.013264602 -5.340577e-05 -2.8403423e-22)
(-0.013567715 -0.00012000758 5.0138941e-23)
(-0.014265502 -0.00013175688 2.2906594e-22)
(-0.015129009 -0.00021199464 -9.8586466e-23)
(-0.015243976 -0.00027921077 -1.9141699e-22)
(-0.014435266 -0.00041977265 1.8175367e-22)
(-0.013174415 -0.00035174954 -1.3193002e-22)
(-0.012229912 -0.00031807571 1.6187314e-22)
(-0.011508971 -0.00021232493 -9.6910457e-23)
(-0.011151343 -0.00024549873 -4.7623691e-23)
(-0.010869188 -0.00021887075 1.5482791e-23)
(-0.010176215 -0.00028746933 4.2606379e-23)
(-0.0091117622 -0.00017591239 -1.7097976e-23)
(-0.0079913881 -0.00014595006 -1.3229064e-24)
(-0.0069911009 -5.701665e-05 2.6224226e-24)
(-0.0064684361 1.9676137e-05 -5.5314679e-24)
(-0.006046067 0.00010473746 -2.149629e-24)
(-0.0057788645 0.0001090491 1.1089033e-23)
(-0.0056442943 8.0041866e-05 3.1275488e-23)
(-0.0055464329 8.7013665e-05 1.4631459e-23)
(-0.0054493956 0.00010198017 -3.7786238e-23)
(-0.0053997732 0.00011797346 3.2999761e-23)
(-0.0056033123 0.0001000081 -5.6308602e-23)
(-0.0057275509 8.343145e-05 1.0305968e-23)
(-0.0055037055 5.8691177e-05 -7.2445804e-23)
(-0.0045448321 4.7881331e-05 -2.4407885e-23)
(-0.0032404828 6.1437668e-05 1.4152996e-22)