/*--------------------------------*- C++ -*----------------------------------*\
| =========                 |                                                 |
| \\      /  F ield         | OpenFOAM: The Open Source CFD Toolbox           |
|  \\    /   O peration     | Version:  2.4.0                                 |
|   \\  /    A nd           | Web:      www.OpenFOAM.org                      |
|    \\/     M anipulation  |                                                 |
\*---------------------------------------------------------------------------*/
FoamFile
{
    version     2.0;
    format      ascii;
    class       volScalarField;
    location    "8426";
    object      nut;
}
// * * * * * * * * * * * * * * * * * * * * * * * * * * * * * * * * * * * * * //

dimensions      [0 2 -1 0 0 0 0];

internalField   nonuniform List<scalar> 
32000
(
1.0295845e-12
1.1666892e-12
1.0436486e-12
8.3652425e-13
5.2094134e-13
2.4243778e-13
6.552235e-14
2.0665664e-14
3.4430934e-14
4.3144133e-14
3.7849831e-14
3.1509988e-14
2.6283959e-14
2.2673322e-14
2.0163987e-14
1.8058157e-14
1.6584292e-14
1.568673e-14
1.5366217e-14
1.5312509e-14
1.5608673e-14
1.6275388e-14
1.7220956e-14
1.8690759e-14
2.0729555e-14
2.3370013e-14
2.673715e-14
3.0808039e-14
3.5530551e-14
4.1096118e-14
4.7799136e-14
5.5920932e-14
6.5705136e-14
7.7391468e-14
9.1202398e-14
1.0738909e-13
1.2638027e-13
1.4844666e-13
1.7331263e-13
2.0050146e-13
2.2944375e-13
2.5897814e-13
2.8772805e-13
3.1336098e-13
3.3462116e-13
3.5046475e-13
3.8339958e-13
4.9945995e-13
6.01019e-13
6.8478588e-13
7.6404014e-13
8.3519434e-13
9.0266198e-13
9.6445023e-13
1.0225673e-12
1.0762472e-12
1.1263349e-12
1.1726404e-12
1.2156005e-12
1.2551895e-12
1.2915692e-12
1.3247763e-12
1.3549344e-12
1.3821088e-12
1.4063858e-12
1.4278308e-12
1.4465743e-12
1.4627307e-12
1.4763699e-12
1.4876076e-12
1.4965484e-12
1.5033075e-12
1.508089e-12
1.5107837e-12
1.5112864e-12
1.5100069e-12
1.5075374e-12
1.5039247e-12
1.4983681e-12
1.4916294e-12
1.4836758e-12
1.474623e-12
1.4645659e-12
1.453607e-12
1.4418227e-12
1.4292971e-12
1.4161163e-12
1.4023355e-12
1.3880933e-12
1.3733242e-12
1.3581824e-12
1.3426957e-12
1.3269192e-12
1.3108893e-12
1.294645e-12
1.2782279e-12
1.2616764e-12
1.2450172e-12
1.2282681e-12
1.2114534e-12
1.1945921e-12
1.1776979e-12
1.1607696e-12
1.1438061e-12
1.1268092e-12
1.1097881e-12
1.0927803e-12
1.0758579e-12
1.059064e-12
1.0424366e-12
1.0259955e-12
1.0097334e-12
9.9365538e-13
9.7774648e-13
9.619909e-13
9.463797e-13
9.3090172e-13
9.1554823e-13
9.003162e-13
8.8519467e-13
8.7017522e-13
8.5525301e-13
8.4041583e-13
8.2565314e-13
8.1095755e-13
7.9631544e-13
7.8171349e-13
7.6714117e-13
7.5258135e-13
7.3801897e-13
7.2343637e-13
7.0881635e-13
6.9413337e-13
6.7937265e-13
6.6449782e-13
6.4949611e-13
6.3431562e-13
6.1895206e-13
6.0332569e-13
5.874666e-13
5.7123329e-13
5.5466668e-13
5.3750562e-13
5.1993171e-13
5.0151362e-13
4.826396e-13
4.6251705e-13
4.4201174e-13
4.1954752e-13
3.9667593e-13
3.7039977e-13
3.440696e-13
3.0874599e-13
2.6748577e-13
2.7155749e-13
2.90608e-13
3.0881047e-13
3.2536014e-13
3.3838983e-13
3.4832168e-13
3.5543446e-13
3.6021656e-13
3.6284591e-13
3.6377986e-13
3.6434969e-13
3.6613454e-13
3.679785e-13
3.6928928e-13
3.6998604e-13
3.7001434e-13
3.6934595e-13
3.6808311e-13
3.6748559e-13
3.6394352e-13
3.5694534e-13
3.4668861e-13
3.3809579e-13
3.3008436e-13
3.2238907e-13
3.1542469e-13
3.0936673e-13
3.0548386e-13
3.0254947e-13
3.0970697e-13
3.2924156e-13
3.5350733e-13
3.8706681e-13
4.3792976e-13
5.1479496e-13
6.2830502e-13
7.8781513e-13
9.9491605e-13
1.20355e-12
1.3426823e-12
1.3322115e-12
1.2147097e-12
1.0053205e-12
9.0348803e-13
8.0566616e-13
9.0339759e-13
2.022601e-10
2.2918519e-10
2.0501724e-10
1.6434526e-10
1.0240413e-10
4.7730939e-11
1.2943481e-11
4.0601482e-12
6.7391912e-12
8.4650786e-12
7.4367479e-12
6.1922214e-12
5.1638071e-12
4.4523283e-12
3.9579559e-12
3.5430479e-12
3.2519673e-12
3.0739954e-12
3.0096274e-12
2.9979381e-12
3.05495e-12
3.1848753e-12
3.3695041e-12
3.6569224e-12
4.0561235e-12
4.5734546e-12
5.2335942e-12
6.0322061e-12
6.9587954e-12
8.050658e-12
9.3656086e-12
1.095903e-11
1.2878911e-11
1.5172496e-11
1.7883583e-11
2.1061341e-11
2.4790018e-11
2.9123573e-11
3.4008489e-11
3.9351204e-11
4.5039977e-11
5.0846608e-11
5.650026e-11
6.1541904e-11
6.5723875e-11
6.8837588e-11
7.5307811e-11
9.8110941e-11
1.1806044e-10
1.3451634e-10
1.5008645e-10
1.6406532e-10
1.7732003e-10
1.8945903e-10
2.0087683e-10
2.1142296e-10
2.212634e-10
2.3036084e-10
2.3880106e-10
2.4657833e-10
2.5372513e-10
2.6024866e-10
2.6617325e-10
2.7151171e-10
2.7628098e-10
2.8049393e-10
2.8417618e-10
2.8735021e-10
2.9002973e-10
2.9223749e-10
2.9399401e-10
2.9532196e-10
2.9626139e-10
2.9679086e-10
2.968897e-10
2.9663843e-10
2.9615343e-10
2.9544376e-10
2.9435223e-10
2.9302844e-10
2.9146598e-10
2.8968758e-10
2.8771185e-10
2.8555895e-10
2.8324392e-10
2.8078319e-10
2.7819377e-10
2.7548643e-10
2.7268846e-10
2.6978694e-10
2.6681222e-10
2.6376971e-10
2.6067026e-10
2.5752101e-10
2.5432964e-10
2.5110431e-10
2.4785256e-10
2.4457964e-10
2.4128905e-10
2.3798558e-10
2.3467292e-10
2.3135382e-10
2.2802799e-10
2.2469526e-10
2.2135593e-10
2.1801187e-10
2.1467041e-10
2.1134573e-10
2.0804628e-10
2.0477953e-10
2.015494e-10
1.9835442e-10
1.951956e-10
1.9207e-10
1.8897453e-10
1.8590743e-10
1.8286649e-10
1.7985001e-10
1.768574e-10
1.7388649e-10
1.7093563e-10
1.6800389e-10
1.6508885e-10
1.6218844e-10
1.5930122e-10
1.564245e-10
1.5355568e-10
1.5069268e-10
1.4783213e-10
1.4497109e-10
1.4210608e-10
1.3923371e-10
1.3634898e-10
1.3344899e-10
1.3052657e-10
1.2757924e-10
1.2459678e-10
1.2157837e-10
1.1850833e-10
1.1539252e-10
1.1220315e-10
1.0894831e-10
1.0557669e-10
1.0212397e-10
9.8505408e-11
9.4797288e-11
9.0843884e-11
8.6815315e-11
8.240192e-11
7.7908566e-11
7.2746349e-11
6.7573966e-11
6.0635982e-11
5.2530067e-11
5.3333518e-11
5.7082463e-11
6.0663956e-11
6.3920239e-11
6.6483909e-11
6.8438631e-11
6.9839259e-11
7.0781671e-11
7.1300981e-11
7.1487964e-11
7.1605019e-11
7.196001e-11
7.2324099e-11
7.258225e-11
7.271917e-11
7.2724137e-11
7.2591721e-11
7.234324e-11
7.2222826e-11
7.1520294e-11
7.0139147e-11
6.8123174e-11
6.6437763e-11
6.4865154e-11
6.3354892e-11
6.1988976e-11
6.0802717e-11
6.0044033e-11
5.9479242e-11
6.0906513e-11
6.4759062e-11
6.9536495e-11
7.6149046e-11
8.6171701e-11
1.0131188e-10
1.2365344e-10
1.5501689e-10
1.9567122e-10
2.365337e-10
2.6369508e-10
2.6150063e-10
2.3840951e-10
1.9735359e-10
1.7741476e-10
1.5824303e-10
1.774734e-10
4.7531115e-09
5.3855533e-09
4.8168469e-09
3.8614725e-09
2.40763e-09
1.1241844e-09
3.0613579e-10
9.5666434e-11
1.5797834e-10
1.9887893e-10
1.750176e-10
1.4580845e-10
1.2160827e-10
1.048452e-10
9.3203407e-11
8.3434847e-11
7.6570347e-11
7.2360577e-11
7.0824976e-11
7.0533672e-11
7.1856537e-11
7.4896131e-11
7.9219493e-11
8.5954062e-11
9.5315961e-11
1.0745266e-10
1.2294846e-10
1.4170861e-10
1.6348064e-10
1.8913311e-10
2.2002509e-10
2.5746193e-10
3.0257623e-10
3.5648353e-10
4.2021602e-10
4.9492141e-10
5.8257339e-10
6.8445857e-10
7.9933814e-10
9.2501294e-10
1.0588585e-09
1.195509e-09
1.3285833e-09
1.4472737e-09
1.5457347e-09
1.6188946e-09
1.7706409e-09
2.3065233e-09
2.7751954e-09
3.1619057e-09
3.5278297e-09
3.8563448e-09
4.1678549e-09
4.4531418e-09
4.7214895e-09
4.9693543e-09
5.200642e-09
5.4144732e-09
5.6128625e-09
5.7956515e-09
5.963631e-09
6.1169694e-09
6.2562375e-09
6.3817361e-09
6.4938625e-09
6.5929189e-09
6.6795064e-09
6.7541528e-09
6.8171796e-09
6.8691205e-09
6.9104577e-09
6.9417228e-09
6.9638549e-09
6.976357e-09
6.9787323e-09
6.9728781e-09
6.9615297e-09
6.9448994e-09
6.919291e-09
6.8882217e-09
6.8515399e-09
6.8097801e-09
6.7633794e-09
6.7128117e-09
6.6584302e-09
6.6006214e-09
6.5397848e-09
6.4761739e-09
6.41043e-09
6.3422494e-09
6.2723456e-09
6.2008462e-09
6.1280058e-09
6.0539925e-09
5.9789874e-09
5.9031817e-09
5.8267533e-09
5.7498255e-09
5.6724806e-09
5.5948314e-09
5.516965e-09
5.4389456e-09
5.3607668e-09
5.2824248e-09
5.2039267e-09
5.1253164e-09
5.0467662e-09
4.9686098e-09
4.8910458e-09
4.81425e-09
4.7383145e-09
4.6632048e-09
4.5889446e-09
4.5154653e-09
4.4426937e-09
4.3705888e-09
4.2990987e-09
4.2281836e-09
4.1578292e-09
4.0879851e-09
4.0186123e-09
3.9496888e-09
3.8811579e-09
3.8129712e-09
3.7450944e-09
3.6774646e-09
3.6100207e-09
3.5427138e-09
3.4754646e-09
3.4082041e-09
3.3408504e-09
3.2733241e-09
3.2055073e-09
3.137332e-09
3.0686298e-09
2.9993423e-09
2.9292293e-09
2.8582716e-09
2.7861003e-09
2.7128519e-09
2.6378724e-09
2.5613546e-09
2.4820913e-09
2.4009228e-09
2.315855e-09
2.2286838e-09
2.1357448e-09
2.0410425e-09
1.9372908e-09
1.8316662e-09
1.7103116e-09
1.5887379e-09
1.4257044e-09
1.2353011e-09
1.2544408e-09
1.3427732e-09
1.4271121e-09
1.5037956e-09
1.564164e-09
1.6102079e-09
1.6432152e-09
1.6654355e-09
1.6776983e-09
1.6821604e-09
1.6850006e-09
1.6933831e-09
1.7018984e-09
1.7078927e-09
1.7110234e-09
1.7110371e-09
1.7078087e-09
1.7018707e-09
1.6988808e-09
1.6821384e-09
1.6494906e-09
1.602083e-09
1.562534e-09
1.5255906e-09
1.4901222e-09
1.4580639e-09
1.4302647e-09
1.4125221e-09
1.3995117e-09
1.4334953e-09
1.5242376e-09
1.6365606e-09
1.7921801e-09
2.028103e-09
2.3843117e-09
2.9094012e-09
3.645392e-09
4.597251e-09
5.5509087e-09
6.1831093e-09
6.1293857e-09
5.5904169e-09
4.6308113e-09
4.1664727e-09
3.7176728e-09
4.1719238e-09
4.1620761e-08
4.7162264e-08
4.2154437e-08
3.3805501e-08
2.1099492e-08
9.8765072e-09
2.7028139e-09
8.4093239e-10
1.3810884e-09
1.7431242e-09
1.5369747e-09
1.2812971e-09
1.0688354e-09
9.2146487e-10
8.1917439e-10
7.3334813e-10
6.7294128e-10
6.3576423e-10
6.2207516e-10
6.1935755e-10
6.3079265e-10
6.5731323e-10
6.9507386e-10
7.5393735e-10
8.3584269e-10
9.420642e-10
1.0777716e-09
1.2422064e-09
1.4330943e-09
1.6579688e-09
1.9287481e-09
2.256919e-09
2.6524543e-09
3.1251797e-09
3.6841709e-09
4.3393949e-09
5.1080627e-09
6.0016377e-09
7.0094447e-09
8.1121892e-09
9.2868931e-09
1.048649e-08
1.1654937e-08
1.2697263e-08
1.3561853e-08
1.4202277e-08
1.5525633e-08
2.0223216e-08
2.4324892e-08
2.7711963e-08
3.0917213e-08
3.3794531e-08
3.6523167e-08
3.902213e-08
4.1372972e-08
4.3544552e-08
4.5571176e-08
4.744509e-08
4.91839e-08
5.0786104e-08
5.2258812e-08
5.3603475e-08
5.4825081e-08
5.5926241e-08
5.6910413e-08
5.7780219e-08
5.8540899e-08
5.9197054e-08
5.9751473e-08
6.0208809e-08
6.057326e-08
6.084946e-08
6.1045557e-08
6.1157429e-08
6.1180362e-08
6.1131107e-08
6.1033643e-08
6.0889841e-08
6.0667256e-08
6.0396703e-08
6.0076858e-08
5.9712399e-08
5.9307152e-08
5.8865267e-08
5.8389843e-08
5.7884266e-08
5.7352038e-08
5.6795381e-08
5.621993e-08
5.5623012e-08
5.5010891e-08
5.4384691e-08
5.3746646e-08
5.3098236e-08
5.244105e-08
5.1776771e-08
5.1106963e-08
5.0432711e-08
4.9754741e-08
4.9074047e-08
4.8391394e-08
4.7707354e-08
4.7021869e-08
4.6334914e-08
4.5646551e-08
4.495717e-08
4.4268286e-08
4.358283e-08
4.2902542e-08
4.2228972e-08
4.1562927e-08
4.0904109e-08
4.0252727e-08
3.9608181e-08
3.8969832e-08
3.8337322e-08
3.7710197e-08
3.708811e-08
3.6470938e-08
3.5858237e-08
3.524967e-08
3.4645044e-08
3.4043861e-08
3.34457e-08
3.2850259e-08
3.2256989e-08
3.1665353e-08
3.1074924e-08
3.0485008e-08
2.9894998e-08
2.9304177e-08
2.8711852e-08
2.8116985e-08
2.7518984e-08
2.691637e-08
2.6308633e-08
2.5693664e-08
2.5071298e-08
2.4438295e-08
2.3795845e-08
2.3138198e-08
2.2467078e-08
2.1771879e-08
2.1059993e-08
2.03139e-08
1.9549396e-08
1.8734278e-08
1.7903756e-08
1.6993809e-08
1.6067543e-08
1.50032e-08
1.3937195e-08
1.2508014e-08
1.0839687e-08
1.1010289e-08
1.1787047e-08
1.2528233e-08
1.3202229e-08
1.3732837e-08
1.4137751e-08
1.4428224e-08
1.4623943e-08
1.4732208e-08
1.4772137e-08
1.479799e-08
1.4871844e-08
1.4945994e-08
1.4997688e-08
1.5024038e-08
1.5022833e-08
1.499301e-08
1.4939546e-08
1.4911272e-08
1.4761709e-08
1.4473211e-08
1.405702e-08
1.3710624e-08
1.3386597e-08
1.3075645e-08
1.2794736e-08
1.2551488e-08
1.2396433e-08
1.2284524e-08
1.2585905e-08
1.3381252e-08
1.4363937e-08
1.5726243e-08
1.7791883e-08
2.0907866e-08
2.5492406e-08
3.1899083e-08
4.01503e-08
4.8363195e-08
5.3779271e-08
5.3298684e-08
4.868453e-08
4.0405574e-08
3.6433872e-08
3.2539263e-08
3.6563591e-08
2.1528736e-07
2.440131e-07
2.1781995e-07
1.7488504e-07
1.0938846e-07
5.1421221e-08
1.4160087e-08
4.382613e-09
7.1542525e-09
9.056672e-09
8.0033861e-09
6.6769563e-09
5.5710289e-09
4.8027698e-09
4.2698608e-09
3.8226598e-09
3.5074913e-09
3.3127155e-09
3.2402701e-09
3.2252059e-09
3.2837146e-09
3.4208337e-09
3.616284e-09
3.9212137e-09
4.3459379e-09
4.8969477e-09
5.601408e-09
6.4557774e-09
7.4478596e-09
8.6163227e-09
1.0023111e-08
1.172815e-08
1.3783473e-08
1.6240379e-08
1.9146151e-08
2.2551952e-08
2.6546516e-08
3.1190396e-08
3.6429117e-08
4.2162327e-08
4.8270778e-08
5.4509944e-08
6.0588312e-08
6.6011006e-08
7.050612e-08
7.3822281e-08
8.0627066e-08
1.0502687e-07
1.2623539e-07
1.4377903e-07
1.6038053e-07
1.7528139e-07
1.8941448e-07
2.0235908e-07
2.1453943e-07
2.2579381e-07
2.3630063e-07
2.4601944e-07
2.550414e-07
2.6335888e-07
2.7100861e-07
2.7799786e-07
2.8435223e-07
2.9008493e-07
2.9521357e-07
2.9975135e-07
3.0372507e-07
3.0715823e-07
3.1006491e-07
3.1246888e-07
3.1439156e-07
3.1585661e-07
3.1690531e-07
3.1751903e-07
3.1766897e-07
3.1744336e-07
3.1696673e-07
3.1624892e-07
3.1512102e-07
3.1374266e-07
3.1210705e-07
3.1023835e-07
3.0815639e-07
3.0588266e-07
3.0343326e-07
3.0082573e-07
2.9807828e-07
2.9520243e-07
2.9222765e-07
2.8913984e-07
2.8597175e-07
2.8272921e-07
2.794239e-07
2.7606356e-07
2.726565e-07
2.6921153e-07
2.6573683e-07
2.622381e-07
2.5871918e-07
2.5518528e-07
2.5164045e-07
2.4808771e-07
2.4452681e-07
2.4095767e-07
2.3738067e-07
2.3379787e-07
2.3021721e-07
2.2665396e-07
2.2311722e-07
2.1961509e-07
2.1615179e-07
2.1272583e-07
2.093383e-07
2.0598614e-07
2.0266604e-07
1.9937616e-07
1.9611417e-07
1.928783e-07
1.8966792e-07
1.8648075e-07
1.8331504e-07
1.8016982e-07
1.7704251e-07
1.7393094e-07
1.7083354e-07
1.6774749e-07
1.6466998e-07
1.6159883e-07
1.5853042e-07
1.5546162e-07
1.523887e-07
1.4930806e-07
1.4621431e-07
1.431044e-07
1.3997061e-07
1.3681033e-07
1.3361257e-07
1.303765e-07
1.2708525e-07
1.2374502e-07
1.2032586e-07
1.1683685e-07
1.1322272e-07
1.0952206e-07
1.0564356e-07
1.0166963e-07
9.7432412e-08
9.3115549e-08
8.8385343e-08
8.3571027e-08
7.8037931e-08
7.2497831e-08
6.5072191e-08
5.6406227e-08
5.7308288e-08
6.1357712e-08
6.5220302e-08
6.8733124e-08
7.1498674e-08
7.361015e-08
7.5125868e-08
7.6147847e-08
7.6714219e-08
7.6925481e-08
7.7064065e-08
7.7448238e-08
7.7828417e-08
7.8089369e-08
7.8216617e-08
7.819873e-08
7.8030449e-08
7.7739487e-08
7.7575066e-08
7.6776237e-08
7.5258679e-08
7.3088896e-08
7.1287351e-08
6.9599016e-08
6.7979602e-08
6.6516986e-08
6.5251662e-08
6.4443658e-08
6.3869038e-08
6.5444827e-08
6.9552864e-08
7.4619662e-08
8.1641892e-08
9.2289025e-08
1.083225e-07
1.3182726e-07
1.6448405e-07
2.0620674e-07
2.471945e-07
2.7387873e-07
2.7136588e-07
2.486686e-07
2.0729985e-07
1.8781948e-07
1.6815332e-07
1.8941797e-07
8.0607673e-07
9.1391944e-07
8.1455283e-07
6.5563786e-07
4.1190482e-07
1.9509272e-07
5.4203293e-08
1.6677718e-08
2.7039108e-08
3.4350188e-08
3.043408e-08
2.5411844e-08
2.1208423e-08
1.8283587e-08
1.6256307e-08
1.4554239e-08
1.3353676e-08
1.2607999e-08
1.232761e-08
1.2266454e-08
1.2484555e-08
1.3001795e-08
1.3739947e-08
1.4892644e-08
1.649993e-08
1.8586576e-08
2.1253711e-08
2.4494369e-08
2.8257253e-08
3.2687735e-08
3.8020653e-08
4.4484093e-08
5.2276097e-08
6.1591953e-08
7.2611036e-08
8.552393e-08
1.0066319e-07
1.1826201e-07
1.3811737e-07
1.59848e-07
1.8300192e-07
2.0665285e-07
2.2969404e-07
2.5024406e-07
2.6724868e-07
2.7970955e-07
3.0499408e-07
3.973635e-07
4.7690616e-07
5.4291185e-07
6.0535587e-07
6.6139238e-07
7.1455238e-07
7.6325394e-07
8.0910089e-07
8.5148636e-07
8.9108426e-07
9.2774247e-07
9.6180589e-07
9.9324676e-07
1.0221991e-06
1.0486886e-06
1.0728095e-06
1.0946094e-06
1.1141518e-06
1.1314838e-06
1.1467031e-06
1.1598957e-06
1.1711118e-06
1.1804381e-06
1.1879526e-06
1.1937418e-06
1.1979541e-06
1.2005382e-06
1.2013557e-06
1.2007472e-06
1.1991839e-06
1.1967038e-06
1.1926656e-06
1.1876695e-06
1.1816903e-06
1.1748187e-06
1.167129e-06
1.1587021e-06
1.1495987e-06
1.1398851e-06
1.1296302e-06
1.1188772e-06
1.1077396e-06
1.0961618e-06
1.0842696e-06
1.0720851e-06
1.0596529e-06
1.0470028e-06
1.0341666e-06
1.0211782e-06
1.008069e-06
9.9486113e-07
9.8156949e-07
9.6821439e-07
9.548115e-07
9.4137278e-07
9.2789765e-07
9.1438633e-07
9.008405e-07
8.8726847e-07
8.7370065e-07
8.6019537e-07
8.467874e-07
8.3350783e-07
8.2037296e-07
8.0737745e-07
7.9452575e-07
7.8180643e-07
7.6920715e-07
7.5672126e-07
7.4434008e-07
7.3205713e-07
7.1987012e-07
7.0777067e-07
6.9575227e-07
6.8381136e-07
6.7193829e-07
6.6012497e-07
6.4836558e-07
6.3664946e-07
6.2496616e-07
6.1330742e-07
6.016596e-07
5.9001094e-07
5.7834731e-07
5.6665519e-07
5.5491416e-07
5.4311266e-07
5.3122152e-07
5.1923085e-07
5.0709895e-07
4.948228e-07
4.8233828e-07
4.6966934e-07
4.5670214e-07
4.4347118e-07
4.2976638e-07
4.157347e-07
4.010287e-07
3.8596222e-07
3.6989654e-07
3.5353062e-07
3.3559469e-07
3.1734249e-07
2.963587e-07
2.7535423e-07
2.4720886e-07
2.1435347e-07
2.178423e-07
2.332518e-07
2.4794983e-07
2.6131666e-07
2.7183961e-07
2.7987652e-07
2.8564845e-07
2.8954062e-07
2.9169874e-07
2.9250838e-07
2.930424e-07
2.9448844e-07
2.9589256e-07
2.968302e-07
2.9724844e-07
2.9710416e-07
2.9637892e-07
2.9518634e-07
2.9445135e-07
2.9129405e-07
2.8542309e-07
2.7713843e-07
2.7027655e-07
2.6382954e-07
2.5764852e-07
2.5206402e-07
2.4723238e-07
2.4412357e-07
2.4193636e-07
2.4788339e-07
2.6320256e-07
2.8206698e-07
3.0816122e-07
3.477063e-07
4.0707684e-07
4.9355622e-07
6.1248132e-07
7.6226757e-07
9.0597265e-07
9.9674663e-07
9.8639514e-07
9.0811997e-07
7.6313747e-07
6.9745642e-07
6.2800815e-07
7.1036487e-07
2.409381e-06
2.732062e-06
2.434103e-06
1.9681379e-06
1.2468191e-06
5.9824068e-07
1.6851307e-07
5.157265e-08
8.2960725e-08
1.058324e-07
9.405449e-08
7.8612878e-08
6.5631388e-08
5.6581843e-08
5.0315141e-08
4.5048259e-08
4.1332956e-08
3.9011062e-08
3.8127534e-08
3.792495e-08
3.8583484e-08
4.0166881e-08
4.2429467e-08
4.5966686e-08
5.090469e-08
5.7325418e-08
6.5511346e-08
7.5497147e-08
8.7083416e-08
1.0071861e-07
1.1712493e-07
1.3700663e-07
1.6097451e-07
1.8963052e-07
2.235241e-07
2.6322516e-07
3.0973876e-07
3.6379159e-07
4.2476589e-07
4.914819e-07
5.6254578e-07
6.3510987e-07
7.0575909e-07
7.6869264e-07
8.2056353e-07
8.5809532e-07
9.3307619e-07
1.2160564e-06
1.4557174e-06
1.6556257e-06
1.844601e-06
2.0141368e-06
2.174992e-06
2.3224233e-06
2.4613032e-06
2.5898233e-06
2.7100272e-06
2.8214652e-06
2.9251866e-06
3.0211051e-06
3.1096147e-06
3.1907864e-06
3.2648956e-06
3.3320753e-06
3.3925053e-06
3.4463137e-06
3.4937821e-06
3.535158e-06
3.5705791e-06
3.6002939e-06
3.6245256e-06
3.6435222e-06
3.6576983e-06
3.66699e-06
3.6708381e-06
3.6703023e-06
3.6668255e-06
3.6605274e-06
3.6494411e-06
3.6353763e-06
3.6182609e-06
3.5983651e-06
3.5759129e-06
3.5511489e-06
3.524257e-06
3.4954387e-06
3.4649036e-06
3.4327814e-06
3.3994307e-06
3.3646663e-06
3.3288844e-06
3.2921517e-06
3.2546065e-06
3.216342e-06
3.1774573e-06
3.1380584e-06
3.0982439e-06
3.0580837e-06
3.0176259e-06
2.9769349e-06
2.9360611e-06
2.8950433e-06
2.853882e-06
2.8125801e-06
2.7711447e-06
2.7296034e-06
2.6880516e-06
2.6466699e-06
2.6055668e-06
2.5648394e-06
2.5245395e-06
2.4846526e-06
2.4451937e-06
2.4061291e-06
2.3674222e-06
2.3290542e-06
2.2909996e-06
2.2532399e-06
2.2157688e-06
2.1785617e-06
2.1415996e-06
2.1048725e-06
2.0683514e-06
2.0320124e-06
1.9958381e-06
1.9597966e-06
1.9238564e-06
1.8879926e-06
1.8521638e-06
1.8163344e-06
1.7804615e-06
1.7445038e-06
1.708399e-06
1.6721118e-06
1.6355529e-06
1.5986921e-06
1.5614014e-06
1.5236718e-06
1.4853058e-06
1.4463778e-06
1.4065375e-06
1.3658909e-06
1.3237911e-06
1.2806906e-06
1.2355183e-06
1.1892414e-06
1.13989e-06
1.0896185e-06
1.0345091e-06
9.7843029e-07
9.1392647e-07
8.4936677e-07
7.6288237e-07
6.6179598e-07
6.728154e-07
7.2042606e-07
7.6583409e-07
8.071162e-07
8.3961002e-07
8.6442634e-07
8.8224899e-07
8.942553e-07
9.0089893e-07
9.0337917e-07
9.0500154e-07
9.0934823e-07
9.1345957e-07
9.1607091e-07
9.1702481e-07
9.1618958e-07
9.1351528e-07
9.0938346e-07
9.0656882e-07
8.9625891e-07
8.7760182e-07
8.5179084e-07
8.304594e-07
8.1034815e-07
7.9107112e-07
7.7363061e-07
7.5851245e-07
7.4862159e-07
7.4167993e-07
7.5954443e-07
8.0508542e-07
8.6111781e-07
9.3825222e-07
1.0550297e-06
1.2294956e-06
1.4810475e-06
1.8214234e-06
2.2405911e-06
2.6280478e-06
2.858641e-06
2.8180378e-06
2.6059712e-06
2.2150843e-06
2.0507383e-06
1.866761e-06
2.1239864e-06
6.0301881e-06
6.8359536e-06
6.1092547e-06
4.9787667e-06
3.2004972e-06
1.568571e-06
4.5147473e-07
1.3778119e-07
2.1960427e-07
2.8151896e-07
2.511031e-07
2.1013044e-07
1.7550702e-07
1.5131998e-07
1.3458975e-07
1.2050238e-07
1.1057613e-07
1.0432371e-07
1.0191285e-07
1.0132958e-07
1.0303888e-07
1.0721706e-07
1.1319613e-07
1.2255648e-07
1.3565309e-07
1.5268319e-07
1.7434854e-07
2.008658e-07
2.316469e-07
2.678216e-07
3.1132062e-07
3.6401619e-07
4.2752577e-07
5.0343937e-07
5.9319192e-07
6.9822543e-07
8.2112938e-07
9.6383483e-07
1.1246946e-06
1.3005378e-06
1.487635e-06
1.6784333e-06
1.8638391e-06
2.0284748e-06
2.1631905e-06
2.2586181e-06
2.4472449e-06
3.1872889e-06
3.8008753e-06
4.3155211e-06
4.8012079e-06
5.2367083e-06
5.6498176e-06
6.0286693e-06
6.385779e-06
6.7166858e-06
7.0266258e-06
7.3145276e-06
7.5831015e-06
7.832108e-06
8.0625306e-06
8.2745409e-06
8.4688107e-06
8.6456507e-06
8.8054807e-06
8.9485841e-06
9.0756333e-06
9.1872217e-06
9.283654e-06
9.3655202e-06
9.4333465e-06
9.4877217e-06
9.5295803e-06
9.5590806e-06
9.5743458e-06
9.5780984e-06
9.5741387e-06
9.5627849e-06
9.5389205e-06
9.5071348e-06
9.4672601e-06
9.4199726e-06
9.36584e-06
9.3054833e-06
9.2393737e-06
9.1680271e-06
9.0919824e-06
9.0115658e-06
8.9277486e-06
8.8399934e-06
8.7493692e-06
8.6560452e-06
8.5603862e-06
8.4626422e-06
8.3630734e-06
8.2619664e-06
8.1595859e-06
8.0561198e-06
7.9517027e-06
7.8465109e-06
7.7406829e-06
7.634329e-06
7.5274588e-06
7.420088e-06
7.3122426e-06
7.2040026e-06
7.0956251e-06
6.9875893e-06
6.8801861e-06
6.7736764e-06
6.6682032e-06
6.5637363e-06
6.4603197e-06
6.3578711e-06
6.2563017e-06
6.1555679e-06
6.0556085e-06
5.9563805e-06
5.8578716e-06
5.7600222e-06
5.6627863e-06
5.5661415e-06
5.4700154e-06
5.3743491e-06
5.2790996e-06
5.1841864e-06
5.0895294e-06
4.9950659e-06
4.9006892e-06
4.8063084e-06
4.7118117e-06
4.6170932e-06
4.5219902e-06
4.4264113e-06
4.3301222e-06
4.2330447e-06
4.1348421e-06
4.0354907e-06
3.9344707e-06
3.8319772e-06
3.7270874e-06
3.6200779e-06
3.5092416e-06
3.3957673e-06
3.2768257e-06
3.1549619e-06
3.0249691e-06
2.8925264e-06
2.7472654e-06
2.5994045e-06
2.4291867e-06
2.2587599e-06
2.0304994e-06
1.7628603e-06
1.7930669e-06
1.919758e-06
2.0405621e-06
2.1502933e-06
2.236625e-06
2.3025151e-06
2.3498005e-06
2.3815702e-06
2.3990465e-06
2.4054369e-06
2.4094919e-06
2.4204602e-06
2.4304435e-06
2.4362099e-06
2.4373563e-06
2.4335385e-06
2.424651e-06
2.4118056e-06
2.4021457e-06
2.3726152e-06
2.3206519e-06
2.2509054e-06
2.1933708e-06
2.1388632e-06
2.0866073e-06
2.0392e-06
1.997925e-06
1.9701626e-06
1.9505098e-06
1.9954049e-06
2.1089246e-06
2.2488614e-06
2.4396682e-06
2.7282663e-06
3.1563032e-06
3.7649586e-06
4.5702626e-06
5.5317847e-06
6.3757127e-06
6.8269245e-06
6.6777146e-06
6.1847393e-06
5.3241755e-06
5.0040046e-06
4.6307965e-06
5.3002541e-06
1.2926376e-05
1.4649148e-05
1.3205351e-05
1.0895969e-05
7.1656029e-06
3.6263818e-06
1.0787671e-06
3.302845e-07
5.2069415e-07
6.7126016e-07
6.0134903e-07
5.0395496e-07
4.211552e-07
3.6317386e-07
3.2311887e-07
2.893039e-07
2.6553192e-07
2.5040685e-07
2.4448676e-07
2.4296709e-07
2.4691745e-07
2.5677394e-07
2.7090308e-07
2.9306166e-07
3.2419318e-07
3.6454108e-07
4.1590896e-07
4.7877192e-07
5.5199649e-07
6.3779886e-07
7.40865e-07
8.6563162e-07
1.0158995e-06
1.1953777e-06
1.4073466e-06
1.6549647e-06
1.9440861e-06
2.2791883e-06
2.6562187e-06
3.0674524e-06
3.5038653e-06
3.9475213e-06
4.3767987e-06
4.7555305e-06
5.061828e-06
5.2719274e-06
5.6898637e-06
7.3896204e-06
8.7657065e-06
9.9248531e-06
1.101546e-05
1.1992404e-05
1.2918149e-05
1.376749e-05
1.4568267e-05
1.5311268e-05
1.600811e-05
1.665678e-05
1.7263373e-05
1.7827296e-05
1.8350726e-05
1.8834065e-05
1.9278743e-05
1.9685412e-05
2.0054924e-05
2.0387823e-05
2.0685495e-05
2.0949179e-05
2.1179448e-05
2.1377507e-05
2.1544422e-05
2.168139e-05
2.1790155e-05
2.187186e-05
2.1921529e-05
2.1944685e-05
2.1950318e-05
2.1939139e-05
2.1899636e-05
2.1841788e-05
2.1765291e-05
2.1671588e-05
2.1561914e-05
2.1437623e-05
2.129975e-05
2.1149431e-05
2.0987854e-05
2.0815733e-05
2.0635296e-05
2.0445261e-05
2.0248077e-05
2.0044123e-05
1.9834227e-05
1.9618971e-05
1.9398938e-05
1.9174808e-05
1.8947188e-05
1.871652e-05
1.8483128e-05
1.8247433e-05
1.8009767e-05
1.7770399e-05
1.7529373e-05
1.7286748e-05
1.7042598e-05
1.679713e-05
1.655095e-05
1.6305167e-05
1.6060465e-05
1.581746e-05
1.5576501e-05
1.5337541e-05
1.5100695e-05
1.4865795e-05
1.4632659e-05
1.4401209e-05
1.4171322e-05
1.3942918e-05
1.3715981e-05
1.3490393e-05
1.326606e-05
1.3042945e-05
1.2820894e-05
1.2599783e-05
1.2379524e-05
1.2159943e-05
1.1940865e-05
1.1722154e-05
1.1503572e-05
1.1284917e-05
1.1065938e-05
1.0846395e-05
1.0625918e-05
1.0404298e-05
1.0180999e-05
9.9558382e-06
9.7280389e-06
9.4975424e-06
9.2631437e-06
9.0252854e-06
8.7818315e-06
8.5333992e-06
8.2760227e-06
8.0124255e-06
7.7360237e-06
7.4526797e-06
7.1502607e-06
6.8419088e-06
6.5033985e-06
6.1584671e-06
5.760815e-06
5.3621194e-06
4.8281076e-06
4.1979692e-06
4.2723925e-06
4.5725586e-06
4.8586025e-06
5.117978e-06
5.3218321e-06
5.4771784e-06
5.5884561e-06
5.6628695e-06
5.7033646e-06
5.7175632e-06
5.7260033e-06
5.7497729e-06
5.7701564e-06
5.7798273e-06
5.7778702e-06
5.7634933e-06
5.7365386e-06
5.6999032e-06
5.6699892e-06
5.5934535e-06
5.4619937e-06
5.2925272e-06
5.1532031e-06
5.0202624e-06
4.8926972e-06
4.7764711e-06
4.6745648e-06
4.6033878e-06
4.5520083e-06
4.6487567e-06
4.8917028e-06
5.1942408e-06
5.5997593e-06
6.2135226e-06
7.1160245e-06
8.378494e-06
1.0005299e-05
1.187855e-05
1.3422152e-05
1.4110354e-05
1.3633427e-05
1.2572251e-05
1.0932723e-05
1.0408119e-05
9.8237229e-06
1.1278235e-05
2.4075346e-05
2.7307038e-05
2.4974483e-05
2.095985e-05
1.4212284e-05
7.513535e-06
2.3437803e-06
7.2804804e-07
1.1331765e-06
1.4700806e-06
1.3238458e-06
1.1113857e-06
9.2948086e-07
8.017391e-07
7.1356244e-07
6.3900141e-07
5.8667478e-07
5.5296825e-07
5.3954638e-07
5.3586295e-07
5.4416081e-07
5.65426e-07
5.9597603e-07
6.4404431e-07
7.1186314e-07
7.9930267e-07
9.1102641e-07
1.0470177e-06
1.2067089e-06
1.3928477e-06
1.6160551e-06
1.8858951e-06
2.2104249e-06
2.5973845e-06
3.0533796e-06
3.5843938e-06
4.2021692e-06
4.915785e-06
5.7157027e-06
6.584392e-06
7.5015998e-06
8.4284004e-06
9.3181415e-06
1.0094419e-05
1.07115e-05
1.1117398e-05
1.195468e-05
1.5434597e-05
1.8183549e-05
2.0503499e-05
2.2676279e-05
2.461941e-05
2.6456556e-05
2.8141993e-05
2.9729971e-05
3.1204594e-05
3.2588458e-05
3.3878829e-05
3.5087655e-05
3.6213776e-05
3.7261567e-05
3.8232012e-05
3.9127873e-05
3.9950476e-05
4.0701421e-05
4.1381707e-05
4.1993916e-05
4.2540401e-05
4.3022166e-05
4.3441416e-05
4.3800098e-05
4.4100382e-05
4.4345091e-05
4.4537587e-05
4.466826e-05
4.4744644e-05
4.4786439e-05
4.4794965e-05
4.4747674e-05
4.4663305e-05
4.454149e-05
4.4384891e-05
4.4195842e-05
4.3976899e-05
4.3730033e-05
4.3457402e-05
4.3161276e-05
4.2843073e-05
4.2506902e-05
4.2150581e-05
4.1778649e-05
4.1391904e-05
4.0991974e-05
4.058001e-05
4.015716e-05
3.9724776e-05
3.9284081e-05
3.8835957e-05
3.8381078e-05
3.7920301e-05
3.7454305e-05
3.6983659e-05
3.6508484e-05
3.6028928e-05
3.5545172e-05
3.5057661e-05
3.4567647e-05
3.4077374e-05
3.3588253e-05
3.3101557e-05
3.2618027e-05
3.2137608e-05
3.1660562e-05
3.1186606e-05
3.0715426e-05
3.0246909e-05
2.9780853e-05
2.9317136e-05
2.8855763e-05
2.8396531e-05
2.7939287e-05
2.7483987e-05
2.7030349e-05
2.6578157e-05
2.6127254e-05
2.5677316e-05
2.5228011e-05
2.4779082e-05
2.4330068e-05
2.3880576e-05
2.3430103e-05
2.2978178e-05
2.2524053e-05
2.2067305e-05
2.1606841e-05
2.1142283e-05
2.0672036e-05
2.0195958e-05
1.9711567e-05
1.9219723e-05
1.8716046e-05
1.8201702e-05
1.766849e-05
1.7121876e-05
1.6548225e-05
1.5959425e-05
1.5330294e-05
1.4687732e-05
1.3981214e-05
1.325963e-05
1.2425878e-05
1.1587315e-05
1.0463724e-05
9.1226286e-06
9.2902754e-06
9.9342097e-06
1.0546926e-05
1.1100953e-05
1.153555e-05
1.1865895e-05
1.2101804e-05
1.225852e-05
1.2342481e-05
1.2370051e-05
1.2384583e-05
1.2429172e-05
1.2463851e-05
1.2473623e-05
1.245662e-05
1.2411214e-05
1.2337336e-05
1.2241844e-05
1.2159336e-05
1.1976644e-05
1.1672677e-05
1.1293659e-05
1.0986156e-05
1.0689378e-05
1.0404042e-05
1.0142584e-05
9.911232e-06
9.7426061e-06
9.6174589e-06
9.7987017e-06
1.0248268e-05
1.0825822e-05
1.157768e-05
1.2722108e-05
1.4393304e-05
1.6693701e-05
1.9584307e-05
2.2798113e-05
2.5277573e-05
2.6100426e-05
2.480808e-05
2.2600079e-05
1.9724115e-05
1.8886663e-05
1.8152723e-05
2.0786667e-05
3.9659526e-05
4.5113248e-05
4.2028765e-05
3.5990105e-05
2.527544e-05
1.4079063e-05
4.6760453e-06
1.4993166e-06
2.3009404e-06
3.0054818e-06
2.7234285e-06
2.2913194e-06
1.9182482e-06
1.6553577e-06
1.4738557e-06
1.3204309e-06
1.2128106e-06
1.1423912e-06
1.113789e-06
1.1053184e-06
1.1213247e-06
1.1638726e-06
1.2251799e-06
1.3222756e-06
1.4594416e-06
1.6356229e-06
1.8616761e-06
2.1342769e-06
2.4579146e-06
2.8326752e-06
3.2806853e-06
3.8210414e-06
4.4692307e-06
5.2396896e-06
6.1439958e-06
7.1916855e-06
8.4036381e-06
9.7957331e-06
1.1346259e-05
1.301779e-05
1.4767873e-05
1.6518832e-05
1.817921e-05
1.9604283e-05
2.0711226e-05
2.1408183e-05
2.2959744e-05
2.9367717e-05
3.431939e-05
3.8493368e-05
4.2380207e-05
4.5848273e-05
4.9115642e-05
5.2110887e-05
5.4927651e-05
5.7543091e-05
5.9996286e-05
6.2285357e-05
6.4430673e-05
6.6430859e-05
6.8293992e-05
7.0022457e-05
7.1621247e-05
7.3093063e-05
7.4440833e-05
7.5666441e-05
7.6774386e-05
7.7768893e-05
7.8651724e-05
7.9426647e-05
8.0096997e-05
8.0666423e-05
8.1139304e-05
8.1521681e-05
8.1801073e-05
8.1981638e-05
8.2101843e-05
8.2164545e-05
8.2130731e-05
8.2031205e-05
8.1865874e-05
8.1639056e-05
8.1354656e-05
8.1016924e-05
8.0629161e-05
8.0194974e-05
7.9718154e-05
7.9201275e-05
7.8650502e-05
7.8063299e-05
7.7446544e-05
7.6801797e-05
7.6131831e-05
7.5438604e-05
7.4724113e-05
7.3990612e-05
7.3240261e-05
7.2474579e-05