0 	0 	0 	0
0.00071777728 	-0.0027226166 	-1.6420856e-06 	1.37417e-17
0.0014708259 	-0.0053934257 	-5.1310176e-06 	-1.3579351e-23
0.0022608792 	-0.0080285449 	-1.186202e-05 	-8.3793062e-24
0.0030897555 	-0.010609391 	-2.196513e-05 	-7.9540765e-27
0.0039593625 	-0.013114521 	-3.5755378e-05 	4.6146192e-26
0.0048717018 	-0.01551891 	-5.3637021e-05 	5.9684318e-25
0.0058288732 	-0.017792928 	-7.6057978e-05 	-4.0047766e-25
0.0068330797 	-0.019901156 	-0.00010348386 	1.1393581e-23
0.0078866327 	-0.021801495 	-0.00013639028 	1.1782859e-23
0.0089919569 	-0.023445727 	-0.00017524913 	-4.4268186e-25
0.010151597 	-0.024783496 	-0.00022050362 	1.1124825e-23
0.011368221 	-0.025771585 	-0.00027252833 	1.2929137e-23
0.012644629 	-0.02638744 	-0.0003315801 	1.1538366e-23
0.01398376 	-0.02664033 	-0.00039776886 	1.0174827e-23
0.015388695 	-0.026571454 	-0.00047108115 	-3.2269474e-23
0.016862669 	-0.026241456 	-0.00055144762 	-1.8029482e-23
0.018409073 	-0.025713574 	-0.00063880791 	1.4209332e-23
0.020031468 	-0.025041766 	-0.00073314233 	0
0.021733586 	-0.024266532 	-0.00083447892 	1.6585208e-23
0.023519345 	-0.023415872 	-0.00094289166 	1.6553756e-23
0.025392857 	-0.022508138 	-0.0010584981 	-1.3971691e-23
0.027358432 	-0.021554885 	-0.0011814569 	-2.47462e-23
0.029420596 	-0.020563086 	-0.0013119643 	1.9467135e-24
0.031584093 	-0.019536686 	-0.0014502507 	1.2699004e-23
0.033853904 	-0.018477621 	-0.0015965776 	0
0.036235253 	-0.017386491 	-0.001751235 	-8.1582944e-24
0.038733621 	-0.01626298 	-0.0019145393 	-8.1466766e-24
0.041354758 	-0.01510613 	-0.0020868319 	-2.0978598e-24
0.044104697 	-0.013914518 	-0.0022684782 	1.3581377e-23
0.046989767 	-0.01268636 	-0.0024598666 	1.5696088e-23
0.050016608 	-0.011419586 	-0.0026614083 	2.1978934e-23
0.053192188 	-0.010111874 	-0.0028735369 	3.3409327e-23
0.056523815 	-0.0087606782 	-0.0030967081 	9.3370729e-24
0.060019158 	-0.0073632352 	-0.0033313998 	-1.2166478e-23
0.06368626 	-0.0059165652 	-0.0035781118 	1.1886678e-24
0.067533563 	-0.0044174772 	-0.0038373637 	1.1171832e-23
0.071569921 	-0.0028625596 	-0.004109691 	3.0647542e-24
0.075804625 	-0.0012482082 	-0.0043956416 	3.1036007e-24
0.080247421 	0.00042934656 	-0.0046957752 	1.7131586e-23
0.084908535 	0.002174121 	-0.0050106631 	1.7071687e-23
0.089798694 	0.0039904636 	-0.0053408943 	2.9291714e-24
0.094929155 	0.0058831133 	-0.0056870857 	-1.2638877e-23
0.10031173 	0.0078573195 	-0.0060498853 	2.0664493e-23
0.10595879 	0.0099188452 	-0.0064299717 	6.5602989e-24
0.11188336 	0.012073918 	-0.0068280503 	-6.2954396e-24
0.11809905 	0.014329282 	-0.0072448443 	4.5479666e-23
0.12462019 	0.016692252 	-0.0076810913 	-5.529913e-24
0.13146176 	0.019170778 	-0.0081375409 	-7.4015166e-24
0.13863954 	0.021773513 	-0.008614952 	1.9941881e-23
0.14617002 	0.024509884 	-0.0091140889 	-1.5180965e-23
0.15407056 	0.02739018 	-0.0096357165 	-6.4390534e-23
0.16235932 	0.030425648 	-0.010180595 	-4.9446741e-23
0.17105539 	0.033628592 	-0.010749472 	3.5874964e-23
0.18017878 	0.03701249 	-0.011343075 	-1.4434835e-23
0.1897505 	0.040592124 	-0.011962102 	-9.6690604e-23
0.19979256 	0.044383721 	-0.012607208 	-4.6984515e-23
0.21032809 	0.048405106 	-0.01327899 	-1.1038703e-22
0.22138133 	0.05267588 	-0.013977972 	1.0518382e-23
0.23297773 	0.057217604 	-0.014704586 	9.1221706e-23
0.24514397 	0.062054015 	-0.015459143 	-2.9826608e-23
0.25790806 	0.06721125 	-0.016241807 	0
0.27129937 	0.07271809 	-0.017052565 	-3.6572139e-24
0.28534872 	0.078606232 	-0.017891179 	-4.5740077e-24
0.30008846 	0.084910611 	-0.018757146 	-7.3457425e-23
0.3155525 	0.091669656 	-0.019649651 	2.5180679e-22
0.33177644 	0.098925486 	-0.020567485 	3.2869105e-22
0.34879762 	0.10672432 	-0.021508989 	-1.7447206e-22
0.36665522 	0.11511683 	-0.022471973 	-1.8623672e-22
0.38539034 	0.12415841 	-0.023453607 	-6.1767636e-24
0.40504609 	0.13390941 	-0.024450318 	-1.8651017e-22
0.42566772 	0.14443528 	-0.025457672 	6.9130647e-24
0.4473027 	0.15580676 	-0.026470227 	4.0909431e-22
0.47000081 	0.16809977 	-0.027481358 	1.1276305e-21
0.4938143 	0.18139527 	-0.028483153 	1.0299285e-21
0.51879797 	0.19577889 	-0.029466681 	-5.8889184e-22
0.54500934 	0.21134042 	-0.030423107 	-3.4046363e-22
0.57250873 	0.22818226 	-0.031333689 	1.3725137e-22
0.60135943 	0.24655376 	-0.03216838 	-8.3969238e-22
0.63162785 	0.26689197 	-0.032892492 	-5.9777525e-22
0.66338365 	0.28950899 	-0.033468648 	2.3751944e-23
0.69669992 	0.3144295 	-0.033875109 	-6.9208087e-22
0.73165334 	0.34152083 	-0.034108567 	-6.9348715e-22
0.76832437 	0.37059951 	-0.034166612 	-2.2665584e-21
0.80679739 	0.40148692 	-0.034041757 	-3.1219075e-21
0.84716098 	0.43401112 	-0.033722707 	-1.7015972e-21
0.88950801 	0.46797076 	-0.03319906 	3.6933788e-22
0.93393598 	0.50309318 	-0.032467109 	3.0930452e-21
0.98054711 	0.53901215 	-0.031534067 	5.4359034e-21
1.0294487 	0.57527513 	-0.030419828 	5.5913319e-21
1.0807533 	0.61137991 	-0.029155979 	3.0590832e-21
1.134579 	0.64683204 	-0.027782197 	1.3008201e-21
1.1910497 	0.68120776 	-0.02634075 	6.2472232e-23
1.2502953 	0.71420378 	-0.024870473 	-1.5531491e-21
1.3124523 	0.74565897 	-0.023402049 	-2.0637215e-21
1.3776636 	0.77554669 	-0.021956036 	-2.3820418e-22
1.4460794 	0.80395242 	-0.020544738 	-2.9893863e-23
1.489068 	0.81998779 	-0.019732161 	-8.8403725e-23
1.5178571 	0.83072825 	-0.019187711 	3.3738433e-23
1.5889127 	0.85513834 	-0.017931257 	3.734694e-22
1.6566736 	0.87677488 	-0.016801264 	2.9261051e-21
1.7212926 	0.89582869 	-0.015789699 	3.4083658e-21
1.7829155 	0.9125944 	-0.014882702 	1.203548e-21
1.8416812 	0.92732122 	-0.014066648 	2.8510951e-22
1.8977221 	0.94025781 	-0.013324314 	-8.7437356e-22
1.9511646 	0.95171369 	-0.012630188 	-8.3510749e-22
2.0021291 	0.96200064 	-0.011963824 	-4.671637e-24
2.0507305 	0.97129683 	-0.011320911 	-3.3496359e-22
2.0970785 	0.97968328 	-0.010705037 	-2.5975065e-22
2.1412775 	0.98722941 	-0.010119529 	-3.4971104e-22
2.1834271 	0.9940023 	-0.0095645482 	-6.4376802e-23
2.2236224 	1.000064 	-0.0090394275 	2.8340396e-22
2.261954 	1.0054709 	-0.0085429777 	6.2804867e-22
2.2985082 	1.0102729 	-0.0080737562 	6.2717036e-22
2.3333676 	1.0145141 	-0.0076302341 	-3.5432287e-22
2.3666106 	1.0182325 	-0.007210876 	-3.7082507e-22
2.3983123 	1.0214612 	-0.0068141878 	4.2258361e-22
2.4285441 	1.0242282 	-0.0064387416 	7.5643726e-22
2.4573742 	1.0265568 	-0.0060831826 	1.2313276e-22
2.4848674 	1.0284663 	-0.0057462326 	-2.3119959e-22
2.511086 	1.0299719 	-0.0054266868 	-2.6105442e-22
2.5360888 	1.0310852 	-0.0051234099 	-1.2204064e-22
2.5599324 	1.0318144 	-0.0048353298 	1.2179422e-22
2.5826704 	1.0321646 	-0.0045614322 	-3.3279627e-22
2.6043541 	1.0321376 	-0.0043007547 	-3.2780736e-22
2.6250324 	1.0317332 	-0.0040523829 	-6.0346438e-23
2.644752 	1.0309483 	-0.003815446 	2.0947244e-24
2.6635572 	1.0297777 	-0.0035891143 	2.995749e-22
2.6814905 	1.0282147 	-0.0033725976 	3.0076616e-22
2.6985922 	1.026251 	-0.0031651453 	-9.1011655e-23
2.714901 	1.0238774 	-0.002966048 	-1.5423441e-22
2.7304537 	1.0210841 	-0.0027746409 	-2.8961751e-23
2.7452852 	1.0178616 	-0.0025903083 	-2.5835885e-23
2.759429 	1.0142007 	-0.0024124895 	2.766744e-23
2.772917 	1.0100936 	-0.0022406847 	-2.0409408e-24
2.7857797 	1.0055343 	-0.0020744608 	-2.7091518e-23
2.7980459 	1.0005188 	-0.0019134579 	-2.8420103e-22
2.8097434 	0.99504592 	-0.0017573937 	-2.3488476e-22
2.8208985 	0.98911739 	-0.0016060653 	1.2610271e-22
2.8315364 	0.98273809 	-0.0014593474 	8.9661705e-23
2.841681 	0.97591606 	-0.0013171891 	-1.053453e-24
2.8513553 	0.96866242 	-0.0011796067 	7.2456253e-23
2.860581 	0.96099114 	-0.0010466766 	-2.8526202e-24
2.869379 	0.9529187 	-0.00091852359 	1.1096891e-24
2.877769 	0.94446363 	-0.00079529931 	1.6218982e-22
2.88577 	0.93564596 	-0.00067715579 	1.6335228e-22
2.8934 	0.92648675 	-0.00056427824 	9.105566e-23
2.9006763 	0.91699948 	-0.00045684597 	0
2.9076151 	0.90715897 	-0.0003548369 	4.6863403e-23
2.9142323 	0.8969115 	-0.00025808098 	-6.3534955e-23
2.9205426 	0.88624484 	-0.0001667612 	-5.6811359e-23
2.9265603 	0.8752034 	-8.1328214e-05 	5.0196126e-23
2.932299 	0.86385231 	-2.1426709e-06 	-6.3207463e-23
2.9377716 	0.85225617 	7.0468493e-05 	-5.917508e-23
2.9429905 	0.84047052 	0.00013624607 	2.9282027e-23
2.9479674 	0.82853882 	0.00019503689 	3.1077493e-23
2.9527136 	0.81649217 	0.00024680144 	3.1904005e-24
2.9572396 	0.80435183 	0.00029160937 	1.4608381e-24
2.9615558 	0.792131 	0.00032962266 	3.2196542e-23
2.9656719 	0.7798362 	0.0003610601 	3.2313218e-23
2.9695972 	0.7674683 	0.0003861639 	-3.1100706e-23
2.9733404 	0.75502321 	0.00040517229 	-3.0514792e-23
2.9769101 	0.7424919 	0.00041831192 	1.5985413e-23
2.9803142 	0.72985923 	0.00042585299 	4.7901623e-23
2.9835606 	0.71710053 	0.00042831512 	3.3753977e-23
2.9866564 	0.70417833 	0.0004264302 	1.0804151e-24
2.9896086 	0.69104913 	0.00042096071 	-3.5486027e-23
2.992424 	0.67767322 	0.0004125405 	-3.5559129e-23
2.9951088 	0.66401177 	0.00040156693 	9.0677088e-24
2.9976692 	0.65002081 	0.000388356 	8.8358898e-24
3.0001108 	0.63565027 	0.0003732271 	1.0190429e-23
3.0024392 	0.62084312 	0.00035649602 	2.0646775e-23
3.0046597 	0.60553421 	0.00033843215 	3.2026251e-23
3.0067772 	0.58964356 	0.00031922746 	3.31991e-23
3.0087965 	0.57307358 	0.00029904742 	-7.1830872e-25
3.0107222 	0.55572066 	0.00027809239 	-5.7187918e-24
3.0125586 	0.53748202 	0.00025663861 	6.4195027e-24
3.0143099 	0.51825282 	0.00023500441 	-7.0667778e-24
3.0159799 	0.4979239 	0.00021348697 	4.664052e-25
3.0175726 	0.47637073 	0.00019233443 	1.5848345e-23
3.0190913 	0.45343969 	0.00017173881 	1.7164418e-23
3.0205397 	0.4289689 	0.00015185285 	2.7862793e-23
3.0219209 	0.40283408 	0.00013281401 	1.9039586e-23
3.0232381 	0.37498406 	0.00011474828 	-5.4082832e-24
3.0244942 	0.3454831 	9.7761206e-05 	-1.1163679e-23
3.025692 	0.31456268 	8.1946535e-05 	2.0377851e-25
3.0268343 	0.28264452 	6.7391498e-05 	1.2031469e-23
3.0279237 	0.2502989 	5.4178337e-05 	6.1092903e-24
3.0289625 	0.21813482 	4.2378906e-05 	2.6854486e-26
3.0299532 	0.18667268 	3.2045533e-05 	1.1779889e-26
3.0308979 	0.15626721 	2.3204435e-05 	-3.6238343e-28
3.0317988 	0.12710452 	1.5854718e-05 	7.7382434e-27
3.032658 	0.099246281 	9.9713961e-06 	-2.6032521e-24
3.0334773 	0.072681906 	5.5114571e-06 	-5.0922871e-24
3.0342586 	0.04736746 	2.4224354e-06 	-1.1335076e-25
3.0350037 	0.023247715 	6.2459759e-07 	2.3756761e-24
3.0357109 	0.00010999492 	2.955356e-09 	1.1252344e-26
