/*--------------------------------*- C++ -*----------------------------------*\
| =========                 |                                                 |
| \\      /  F ield         | OpenFOAM: The Open Source CFD Toolbox           |
|  \\    /   O peration     | Version:  2.4.0                                 |
|   \\  /    A nd           | Web:      www.OpenFOAM.org                      |
|    \\/     M anipulation  |                                                 |
\*---------------------------------------------------------------------------*/
FoamFile
{
    version     2.0;
    format      ascii;
    class       volScalarField;
    location    "20000";
    object      k;
}
// * * * * * * * * * * * * * * * * * * * * * * * * * * * * * * * * * * * * * //

dimensions      [0 2 -2 0 0 0 0];

internalField   nonuniform List<scalar> 
9779
(
0.007912678
0.0078727598
0.0078319207
0.0077901605
0.0077474661
0.0077038329
0.0076592326
0.0076136592
0.0084467424
0.0084104384
0.008373173
0.0083349543
0.0082957893
0.0082556776
0.008214625
0.0081726257
0.0081296795
0.0080857734
0.0080409025
0.0079950386
0.0079481751
0.0079002695
0.007851309
0.0078012284
0.0077500117
0.0088971038
0.0088628417
0.0088275533
0.0087912529
0.0087539533
0.0087156661
0.0086764
0.008636162
0.0085949522
0.0085527761
0.0085096283
0.0084655083
0.0084204034
0.0083743083
0.0083271952
0.0082790566
0.0082298503
0.0081795626
0.0081281287
0.0080755308
0.0080216729
0.0095737554
0.0095528848
0.0095306767
0.0095071599
0.0094823633
0.0094563153
0.0094290436
0.0094005751
0.009370935
0.0093401473
0.009308234
0.0092752159
0.0092411114
0.0092059386
0.0091697129
0.0091324493
0.0090941606
0.0090548588
0.0090145529
0.0089732501
0.0089309507
0.0088876603
0.0088433736
0.0087980902
0.0087517974
0.0087044896
0.0086561394
0.0086067386
0.0085562452
0.0085046447
0.0084518726
0.0083979098
0.0083426609
0.0082861042
0.0082281001
0.0099235395
0.009902115
0.0098793203
0.0098551848
0.0098297379
0.009803009
0.0097750261
0.0097458169
0.0097154071
0.0096838213
0.0096510822
0.0096172108
0.0095822261
0.0095461467
0.0095089883
0.0094707664
0.0094314939
0.0093911834
0.0093498439
0.009307483
0.0092641012
0.0092197042
0.0091742868
0.0091278486
0.0090803771
0.0090318663
0.0089822893
0.0089316372
0.0088798684
0.0088269674
0.0087728702
0.0087175564
0.0086609314
0.0086029714
0.0085435384
0.0084826096
0.0084199852
0.010291383
0.010270836
0.010248856
0.010225474
0.01020072
0.010174622
0.010147213
0.010118519
0.01008857
0.010057392
0.01002501
0.009991447
0.0099567249
0.0099208628
0.00988388
0.0098457925
0.009806616
0.0097663642
0.0097250496
0.0096826816
0.009639268
0.0095948098
0.0095493124
0.0095027711
0.0094551853
0.0094065427
0.0093568373
0.0093060422
0.0092541481
0.0092011138
0.0091469228
0.0090915118
0.009034859
0.008976871
0.0089175215
0.0088566747
0.0087943039
0.0087302125
0.010637114
0.010616043
0.010593507
0.010569536
0.010544161
0.010517413
0.010489322
0.010459919
0.01042923
0.010397285
0.010364107
0.010329722
0.010294151
0.010257413
0.010219529
0.010180515
0.010140387
0.010099159
0.010056844
0.010013452
0.0099689902
0.0099234602
0.0098768677
0.0098292079
0.0097804804
0.0097306732
0.0096797799
0.0096277741
0.0095746459
0.0095203545
0.0094648826
0.0094081676
0.0093501863
0.0092908464
0.0092301197
0.0091678721
0.0091040736
0.0090385307
0.0089712134
0.011001199
0.010981132
0.010959535
0.010936441
0.01091188
0.010885884
0.010858484
0.010829712
0.010799598
0.01076817
0.010735457
0.010701485
0.010666278
0.010629858
0.010592247
0.010553463
0.010513525
0.010472448
0.010430246
0.010386933
0.01034252
0.010297013
0.010250415
0.010202731
0.010153958
0.010104093
0.010053127
0.010001051
0.0099478406
0.0098934849
0.0098379435
0.0097811984
0.0097231877
0.0096638869
0.0096032049
0.0095411115
0.0094774748
0.0094122613
0.0093452809
0.0092764993
0.0092056485
0.011344355
0.011323793
0.011301668
0.011278013
0.011252861
0.011226242
0.011198189
0.011168735
0.011137909
0.011105741
0.01107226
0.011037493
0.011001465
0.010964198
0.010925713
0.010886031
0.010845169
0.010803143
0.01075997
0.010715662
0.010670229
0.010623679
0.010576016
0.010527244
0.01047736
0.010426363
0.010374241
0.010320988
0.010266578
0.010211
0.010154214
0.010096203
0.010036903
0.0099762907
0.0099142751
0.0098508244
0.0097858086
0.0097191913
0.0096507859
0.0095805545
0.009508234
0.011705919
0.011686489
0.01166543
0.011642775
0.011618558
0.011592812
0.011565569
0.011536862
0.011506723
0.011475184
0.011442276
0.011408026
0.011372464
0.011335613
0.011297498
0.01125814
0.01121756
0.011175775
0.011132802
0.011088658
0.011043355
0.010996904
0.010949314
0.010900587
0.01085073
0.010799738
0.01074761
0.010694336
0.010639909
0.010584303
0.010527508
0.010469483
0.01041021
0.010349628
0.01028771
0.010224368
0.010159568
0.010093182
0.010025171
0.0099553522
0.0098836838
0.0098099079
0.0097339789
0.012066015
0.012047818
0.012027921
0.012006362
0.011983174
0.011958392
0.01193205
0.011904181
0.011874817
0.011843993
0.01181174
0.011778089
0.01174307
0.011706711
0.011669037
0.011630073
0.011589841
0.011548362
0.011505654
0.011461734
0.011416619
0.011370321
0.011322853
0.011274224
0.011224435
0.011173493
0.011121394
0.011068139
0.011013715
0.010958116
0.010901318
0.010843308
0.010784048
0.010723518
0.010661658
0.010598441
0.010533779
0.010467636
0.010399888
0.010330492
0.01025927
0.010186177
0.010110958
0.010033562
0.0099536275
0.01240795
0.012389318
0.012368951
0.012346889
0.012323166
0.012297817
0.012270876
0.012242378
0.012212356
0.012180843
0.012147874
0.012113479
0.012077689
0.012040531
0.012002033
0.01196222
0.011921112
0.011878733
0.011835101
0.011790233
0.011744147
0.011696855
0.01164837
0.0115987
0.01154785
0.011495824
0.01144262
0.011388237
0.011332665
0.011275896
0.011217908
0.011158686
0.011098194
0.01103641
0.010973276
0.010908764
0.010842787
0.010775308
0.010706205
0.010635432
0.010562817
0.010488309
0.01041166
0.010332809
0.010251406
0.012767041
0.012749778
0.012730707
0.012709867
0.012687299
0.012663037
0.012637118
0.012609576
0.012580446
0.012549763
0.01251756
0.012483872
0.012448731
0.012412167
0.012374209
0.012334885
0.012294219
0.012252235
0.012208955
0.012164397
0.01211858
0.012071521
0.012023234
0.011973731
0.011923021
0.011871108
0.011817999
0.011763689
0.01170818
0.01165146
0.011593523
0.011534345
0.011473913
0.011412191
0.011349156
0.011284751
0.011218947
0.01115166
0.01108285
0.011012397
0.010940255
0.010866255
0.010790342
0.010712272
0.01063198
0.010549121
0.010463618
0.013109442
0.013091772
0.013072259
0.013050943
0.013027865
0.013003062
0.01297657
0.012948424
0.01291866
0.012887312
0.012854416
0.012820006
0.012784116
0.012746775
0.012708015
0.012667862
0.012626342
0.012583479
0.012539295
0.01249381
0.012447042
0.012399009
0.012349725
0.012299202
0.012247451
0.012194475
0.012140281
0.012084865
0.012028229
0.011970361
0.011911255
0.011850888
0.011789248
0.011726296
0.011662012
0.01159634
0.011529247
0.011460652
0.011390515
0.011318718
0.011245213
0.011169836
0.011092526
0.011013047
0.010931324
0.010847023
0.010760055
0.013468435
0.013452277
0.013434196
0.013414237
0.013392442
0.013368852
0.013343504
0.013316435
0.013287681
0.013257279
0.013225264
0.013191672
0.013156537
0.013119894
0.013081774
0.013042208
0.013001223
0.012958847
0.012915102
0.012870011
0.012823596
0.012775875
0.012726865
0.012676582
0.012625038
0.012572243
0.012518203
0.012462922
0.012406399
0.012348635
0.012289618
0.012229344
0.012167788
0.012104938
0.012040759
0.011975227
0.011908286
0.011839907
0.011770008
0.011698547
0.011625411
0.01155055
0.011473802
0.011395103
0.011314222
0.011231079
0.011145347
0.011056929
0.010965366
0.013826866
0.013812336
0.013795799
0.013777304
0.013756896
0.013734618
0.013710511
0.013684614
0.013656965
0.0136276
0.013596556
0.01356387
0.013529578
0.013493715
0.013456316
0.013417413
0.013377038
0.013335218
0.013291981
0.013247351
0.013201351
0.013154003
0.013105325
0.013055336
0.013004051
0.012951483
0.012897643
0.012842535
0.012786166
0.012728534
0.012669639
0.012609473
0.012548028
0.012485283
0.012421223
0.012355815
0.012289035
0.012220828
0.012151164
0.012079962
0.01200718
0.011932709
0.011856496
0.011778383
0.011698304
0.011616029
0.011531476
0.011444323
0.011354468
0.011261463
0.014172047
0.014157172
0.014140253
0.01412134
0.014100479
0.014077714
0.014053087
0.014026637
0.013998404
0.013968424
0.013936735
0.013903374
0.013868377
0.013831782
0.013793623
0.013753934
0.013712745
0.013670086
0.013625985
0.013580466
0.013533554
0.013485268
0.013435631
0.013384659
0.013332368
0.013278773
0.013223884
0.013167706
0.013110245
0.013051502
0.012991475
0.012930157
0.012867539
0.012803603
0.012738333
0.012671695
0.012603666
0.012534193
0.012463244
0.01239074
0.012316641
0.012240838
0.012163278
0.012083805
0.01200235
0.01191869
0.011832734
0.011744172
0.011652892
0.011558458
0.014531498
0.014518405
0.014503181
0.014485876
0.014466541
0.014445224
0.014421968
0.014396816
0.01436981
0.014340988
0.014310389
0.01427805
0.014244009
0.014208305
0.014170973
0.01413205
0.014091569
0.014049563
0.014006061
0.013961091
0.013914679
0.013866849
0.013817623
0.013767021
0.013715062
0.013661763
0.013607136
0.013551195
0.013493943
0.013435388
0.013375529
0.013314367
0.013251894
0.013188102
0.013122972
0.013056489
0.01298862
0.012919342
0.012848602
0.012776367
0.012702563
0.012627148
0.012550016
0.012471112
0.012390284
0.012307459
0.012222419
0.01213507
0.012045108
0.011952414
0.011856565
0.014879579
0.014866172
0.014850595
0.0148329
0.01481314
0.014791361
0.01476761
0.01474193
0.014714363
0.014684948
0.014653724
0.014620731
0.014586006
0.014549589
0.014511516
0.014471823
0.014430546
0.014387718
0.014343368
0.014297525
0.014250215
0.014201463
0.014151291
0.01409972
0.01404677
0.013992457
0.013936795
0.013879796
0.013821467
0.013761813
0.013700835
0.013638535
0.013574903
0.013509933
0.013443606
0.013375908
0.013306806
0.013236276
0.013164268
0.013090748
0.013015643
0.012938913
0.012860455
0.01278021
0.012698031
0.012613841
0.012527427
0.012438692
0.012347339
0.012253241
0.01215599
0.012055423
0.015240761
0.015229298
0.015215572
0.015199639
0.015181551
0.01516136
0.015139116
0.015114865
0.015088652
0.015060519
0.015030506
0.014998654
0.014965002
0.014929588
0.014892452
0.014853632
0.014813166
0.014771088
0.014727431
0.014682228
0.014635506
0.014587293
0.014537614
0.014486491
0.014433947
0.01438
0.014324668
0.014267965
0.014209905
0.014150492
0.014089736
0.014027635
0.013964191
0.013899396
0.013833245
0.013765718
0.013696801
0.013626463
0.013554679
0.013481401
0.013406594
0.013330189
0.013252146
0.013172362
0.013090779
0.013007252
0.0129217
0.012833918
0.012743803
0.012651067
0.012555577
0.012456935
0.012354971
0.015592622
0.015580877
0.015566829
0.015550535
0.015532049
0.015511424
0.01548871
0.015463954
0.015437203
0.015408499
0.015377884
0.015345398
0.015311081
0.015274972
0.015237113
0.015197541
0.015156295
0.015113409
0.01506892
0.015022857
0.014975251
0.014926129
0.014875517
0.014823437
0.014769913
0.014714964
0.014658608
0.014600859
0.014541731
0.014481231
0.014419366
0.014356137
0.014291545
0.014225583
0.014158246
0.014089514
0.014019375
0.013947797
0.013874757
0.013800205
0.01372411
0.013646405
0.013567048
0.01348594
0.01340302
0.013318147
0.013231238
0.013142093
0.013050604
0.012956492
0.01285962
0.012759599
0.012656251
0.012549039
0.015956195
0.015946565
0.015934533
0.015920159
0.015903501
0.015884612
0.015863548
0.015840359
0.015815095
0.015787801
0.015758521
0.015727297
0.015694171
0.015659184
0.015622375
0.015583786
0.015543456
0.015501423
0.015457725
0.015412396
0.015365468
0.015316971
0.015266934
0.015215382
0.01516234
0.01510783
0.015051872
0.014994485
0.014935685
0.014875484
0.01481389
0.01475091
0.014686547
0.014620801
0.014553667
0.014485139
0.014415198
0.014343833
0.014271011
0.01419671
0.014120882
0.014043497
0.013964491
0.01388382
0.013801387
0.013717132
0.013630914
0.013542651
0.013452146
0.01335929
0.01326381
0.013165564
0.013064175
0.012959458
0.01285089
0.012738229
0.012620747
0.016312684
0.016302805
0.016290483
0.016275779
0.016258751
0.016239456
0.016217948
0.01619428
0.0161685
0.016140658
0.016110796
0.016078958
0.016045187
0.016009523
0.015972008
0.015932683
0.015891588
0.015848763
0.015804245
0.01575807
0.01571027
0.015660876
0.015609917
0.015557419
0.015503406
0.015447904
0.015390931
0.015332507
0.015272647
0.015211366
0.015148672
0.015084572
0.015019068
0.014952163
0.014883851
0.014814125
0.014742971
0.014670373
0.014596303
0.014520737
0.01444363
0.014364953
0.014284644
0.014202658
0.014118901
0.01403331
0.013945749
0.013856135
0.013764274
0.013670055
0.013573214
0.013473602
0.013370855
0.013264782
0.013154874
0.01304088
0.012922094
0.016671686
0.016661554
0.016648939
0.016633901
0.016616499
0.016596793
0.016574836
0.016550683
0.016524383
0.016495986
0.016465537
0.016433079
0.016398656
0.016362309
0.016324081
0.016284013
0.016242147
0.016198523
0.016153178
0.01610615
0.01605747
0.016007172
0.015955283
0.015901831
0.015846842
0.015790339
0.015732344
0.015672875
0.01561195
0.015549582
0.01548578
0.015420552
0.015353901
0.01528583
0.015216333
0.015145405
0.015073029
0.014999194
0.01492387
0.014847034
0.014768645
0.014688674
0.014607059
0.014523757
0.014438674
0.014351748
0.014262846
0.014171881
0.014078667
0.01398309
0.013884893
0.013783925
0.013679831
0.013572413
0.01346118
0.013345872
0.013225803
0.013100622
0.017033415
0.017023027
0.017010113
0.016994737
0.016976957
0.016956834
0.016934423
0.016909779
0.016882954
0.016853997
0.016822953
0.016789869
0.016754788
0.016717751
0.016678803
0.016637985
0.016595341
0.01655091
0.016504731
0.016456841
0.016407274
0.016356063
0.016303238
0.016248825
0.016192851
0.01613534
0.016076314
0.016015792
0.015953793
0.01589033
0.015825413
0.01575905
0.015691245
0.015622
0.015551311
0.015479173
0.015405571
0.015330492
0.015253908
0.015175798
0.015096123
0.015014854
0.014931931
0.01484731
0.0147609
0.014672638
0.014582394
0.01449008
0.014395517
0.014298586
0.014199039
0.014096721
0.013991289
0.01388254
0.013769997
0.013653392
0.013532061
0.013405641
0.017398081
0.017387433
0.017374218
0.017358498
0.017340336
0.01731979
0.01729692
0.01727178
0.017244423
0.017214899
0.017183255
0.017149537
0.01711379
0.017076057
0.017036381
0.016994806
0.016951376
0.01690613
0.016859108
0.016810349
0.016759888
0.016707756
0.016653985
0.016598602
0.016541634
0.016483107
0.016423042
0.01636146
0.016298378
0.016233812
0.016167772
0.016100266
0.016031298
0.015960872
0.015888983
0.015815628
0.015740791
0.015664461
0.015586612
0.015507222
0.015426257
0.015343687
0.015259453
0.01517351
0.015085771
0.014996171
0.014904585
0.014810924
0.014715012
0.014616731
0.014515839
0.014412179
0.014305418
0.014195349
0.01408151
0.013963626
0.013841053
0.013713419
0.013579807
0.017765897
0.017754985
0.017741463
0.017725395
0.017706845
0.017685872
0.017662537
0.017636894
0.017608999
0.017578901
0.01754665
0.017512292
0.017475872
0.017437434
0.017397023
0.017354683
0.017310458
0.017264389
0.017216517
0.01716688
0.017115514
0.017062453
0.017007727
0.016951366
0.016893396
0.016833843
0.01677273
0.016710078
0.016645905
0.016580227
0.016513054
0.016444396
0.016374257
0.016302641
0.016229544
0.016154964
0.016078885
0.016001298
0.015922176
0.015841502
0.015759242
0.015675366
0.015589816
0.015502549
0.015413478
0.015322539
0.01522961
0.015134602
0.015037343
0.014937715
0.014835483
0.014730488
0.014622406
0.014511029
0.014395907
0.014276761
0.014152967
0.014024141
0.013889396
0.013748173
0.018137073
0.018125894
0.018112061
0.018095641
0.018076697
0.018055291
0.018031484
0.018005333
0.017976892
0.017946214
0.017913349
0.017878343
0.017841242
0.017802092
0.017760937
0.017717823
0.017672794
0.017625893
0.017577161
0.017526638
0.017474359
0.017420359
0.017364669
0.01730732
0.017248338
0.01718775
0.017125579
0.017061847
0.016996574
0.016929774
0.016861459
0.01679164
0.016720321
0.016647505
0.016573192
0.016497378
0.016420049
0.016341195
0.016260795
0.016178832
0.016095271
0.016010083
0.015923214
0.015834618
0.015744213
0.015651933
0.015557659
0.015461303
0.015362699
0.015261727
0.015158159
0.015051835
0.014942441
0.014829766
0.014713375
0.014592985
0.014467987
0.014337995
0.014202143
0.014059862
0.018511824
0.018500373
0.018486224
0.018469446
0.018450104
0.018428259
0.018403974
0.018377307
0.018348314
0.018317049
0.018283561
0.018247898
0.018210109
0.018170238
0.01812833
0.018084434
0.018038593
0.01799085
0.017941249
0.017889829
0.017836627
0.017781679
0.017725015
0.017666667
0.017606663
0.01754503
0.017481791
0.01741697
0.017350585
0.017282654
0.017213187
0.017142196
0.017069687
0.016995663
0.016920124
0.016843066
0.016764478
0.016684351
0.016602665
0.016519406
0.016434538
0.016348035
0.016259841
0.016169912
0.016078168
0.015984543
0.015888924
0.01579122
0.015691271
0.015588957
0.015484057
0.01537641
0.015265712
0.01515175
0.015034103
0.014912483
0.014786303
0.014655166
0.014518235
0.014374927
0.014223999
0.018890364
0.018878636
0.018864167
0.018847026
0.018827279
0.018804989
0.018780219
0.01875303
0.018723478
0.018691616
0.018657498
0.018621171
0.018582684
0.018542083
0.018499414
0.018454725
0.018408062
0.018359468
0.018308988
0.018256661
0.018202526
0.018146618
0.01808897
0.018029613
0.017968576
0.017905887
0.01784157
0.017775648
0.017708142
0.017639068
0.017568439
0.017496266
0.017422556
0.017347313
0.017270538
0.017192227
0.017112371
0.017030962
0.016947984
0.016863421
0.016777241
0.016689415
0.01659989
0.016508624
0.016415536
0.016320565
0.016223597
0.016124545
0.016023251
0.015919597
0.015813367
0.015704403
0.015592408
0.01547717
0.015358279
0.015235447
0.015108102
0.014975844
0.014837858
0.014693554
0.014541719
0.01927291
0.0192609
0.019246106
0.019228596
0.019208438
0.019185696
0.019160435
0.019132716
0.019102596
0.019070131
0.019035374
0.018998374
0.01895918
0.018917839
0.018874399
0.018828908
0.018781412
0.018731957
0.018680587
0.018627343
0.018572264
0.018515385
0.018456742
0.018396365
0.018334284
0.018270527
0.01820512
0.018138086
0.018069447
0.017999219
0.017927416
0.01785405
0.017779128
0.017702656
0.017624633
0.017545059
0.017463926
0.017381228
0.01729695
0.017211076
0.017123576
0.01703442
0.016943559
0.016850949
0.016756515
0.016660192
0.016561873
0.01646147
0.016358832
0.016253839
0.016146284
0.016036007
0.015922723
0.015806218
0.015686095
0.015562065
0.015433574
0.015300218
0.015161203
0.015015933
0.014863223
0.014702114
0.019659679
0.019647384
0.019632259
0.019614374
0.019593799
0.019570599
0.019544839
0.019516581
0.019485886
0.019452809
0.019417404
0.019379721
0.019339811
0.019297721
0.019253499
0.019207196
0.019158857
0.01910853
0.019056258
0.019002085
0.01894605
0.01888819
0.018828539
0.01876713
0.018703993
0.018639157
0.018572648
0.01850449
0.018434706
0.018363312
0.018290324
0.018215753
0.018139608
0.018061894
0.017982613
0.017901765
0.017819345
0.01773535
0.017649763
0.017562571
0.017473742
0.01738325
0.017291046
0.017197087
0.0171013
0.017003622
0.016903949
0.016802194
0.01669821
0.016591879
0.016483001
0.016371417
0.01625685
0.016139087
0.016017745
0.015892533
0.015762913
0.01562848
0.015488461
0.015342255
0.015188704
0.015026837
0.020050895
0.020038309
0.020022847
0.020004582
0.019983582
0.019959916
0.01993365
0.019904847
0.019873567
0.019839869
0.019803806
0.019765431
0.019724794
0.019681945
0.019636932
0.019589804
0.019540611
0.0194894
0.019436216
0.019381102
0.019324099
0.019265245
0.019204575
0.019142121
0.019077916
0.019011987
0.018944364
0.01887507
0.018804127
0.018731555
0.018657369
0.018581581
0.018504199
0.018425233
0.018344681
0.01826255
0.018178834
0.018093532
0.018006628
0.017918108
0.017827943
0.017736107
0.017642552
0.017547237
0.017450092
0.017351054
0.017250023
0.017146913
0.017041583
0.016933915
0.016823716
0.016710829
0.016594985
0.016475974
0.016353424
0.016227044
0.016096313
0.015960825
0.015819826
0.015672713
0.015518353
0.015355766
0.020446782
0.020433899
0.020418096
0.020399443
0.020378012
0.020353873
0.020327092
0.020297734
0.020265861
0.020231532
0.020194803
0.020155725
0.020114351
0.020070731
0.020024914
0.019976952
0.019926893
0.019874785
0.019820676
0.01976461
0.019706627
0.019646766
0.019585063
0.019521552
0.019456264
0.019389231
0.019320479
0.019250035
0.019177922
0.019104158
0.01902876
0.018951742
0.018873112
0.018792879
0.018711046
0.01862762
0.018542599
0.01845598
0.018367748
0.018277892
0.018186382
0.018093193
0.01799828
0.017901603
0.017803093
0.01770269
0.017600298
0.01749583
0.017389151
0.017280147
0.017168629
0.017054443
0.016937329
0.016817078
0.016693331
0.016565798
0.016433973
0.01629745
0.016155495
0.016007503
0.015852366
0.015689096
0.015515825
0.020857707
0.020847568
0.020834384
0.020818232
0.020799185
0.020777316
0.020752695
0.020725391
0.02069547
0.020662994
0.020628025
0.020590617
0.020550827
0.020508705
0.020464302
0.020417671
0.020368861
0.020317923
0.020264907
0.02020986
0.020152827
0.020093851
0.02003297
0.019970221
0.019905638
0.019839255
0.019771103
0.019701209
0.019629602
0.019556303
0.019481334
0.019404711
0.019326449
0.019246556
0.019165044
0.019081919
0.018997188
0.01891085
0.018822904
0.018733335
0.018642132
0.018549268
0.018454717
0.018358439
0.018260391
0.01816051
0.018058737
0.017954977
0.017849149
0.017741121
0.017630779
0.017517944
0.017402462
0.017284084
0.017162602
0.017037668
0.016908996
0.016776094
0.016638556
0.016495669
0.016346826
0.016190941
0.016027024
0.015853261
0.021263883
0.021253486
0.021239994
0.021223487
0.021204039
0.021181724
0.021156614
0.021128778
0.021098283
0.021065195
0.021029574
0.020991479
0.020950964
0.020908082
0.020862886
0.020815426
0.020765757
0.020713928
0.02065999
0.020603991
0.020545979
0.020485994
0.020424079
0.020360269
0.020294602
0.020227109
0.020157823
0.020086773
0.020013987
0.019939489
0.0198633
0.019785437
0.019705916
0.019624748
0.019541944
0.019457514
0.019371467
0.019283802
0.019194517
0.0191036
0.01901104
0.018916811
0.018820891
0.018723237
0.018623811
0.018522552
0.018419402
0.018314271
0.018207078
0.018097698
0.017986019
0.017871868
0.017755094
0.017635456
0.017512751
0.017386641
0.017256843
0.01712288
0.016984347
0.016840551
0.016690883
0.016534282
0.016369753
0.016195535
0.021682864
0.021675433
0.021664771
0.021650966
0.021634097
0.021614241
0.021591471
0.021565862
0.021537485
0.021506408
0.021472697
0.021436414
0.021397619
0.021356367
0.021312714
0.021266711
0.021218411
0.021167868
0.021115134
0.021060261
0.021003297
0.02094429
0.020883283
0.020820319
0.020755434
0.020688666
0.020620048
0.020549613
0.020477392
0.020403412
0.0203277
0.020250276
0.020171158
0.020090364
0.020007905
0.019923798
0.019838051
0.019750675
0.019661671
0.019571036
0.01947876
0.019384832
0.019289229
0.019191927
0.019092889
0.018992077
0.018889432
0.018784899
0.018678391
0.01856983
0.018459095
0.018346078
0.018230611
0.018112548
0.017991656
0.017867735
0.017740459
0.017609548
0.01747454
0.017335032
0.017190349
0.017039882
0.016882594
0.016717487
0.016542852
0.022104516
0.022100247
0.022092597
0.022081665
0.02206754
0.022050302
0.022030029
0.022006797
0.02198068
0.021951752
0.021920081
0.021885736
0.02184878
0.021809273
0.021767273
0.021722835
0.021676012
0.021626859
0.021575429
0.021521775
0.021465952
0.021408007
0.021347991
0.021285948
0.021221919
0.021155944
0.021088059
0.0210183
0.020946701
0.020873292
0.020798103
0.02072116
0.020642485
0.020562097
0.020480014
0.020396252
0.020310827
0.020223752
0.020135035
0.020044678
0.019952681
0.019859034
0.019763727
0.019666738
0.019568046
0.019467614
0.019365407
0.019261368
0.019155445
0.019047554
0.018937621
0.018825528
0.018711171
0.018594389
0.018475039
0.018352898
0.018227768
0.018099336
0.017967325
0.017831287
0.017690823
0.017545273
0.017394033
0.017236087
0.017070435
0.016895419
0.01670914
0.022527938
0.022523495
0.02251562
0.022504412
0.02248996
0.022472346
0.022451648
0.022427944
0.02240131
0.02237182
0.022339545
0.022304554
0.022266913
0.022226683
0.022183921
0.022138685
0.022091028
0.022041007
0.021988675
0.021934088
0.021877298
0.021818358
0.021757317
0.021694221
0.021629112
0.02156203
0.021493013
0.021422097
0.021349316
0.021274703
0.021198289
0.021120098
0.021040156
0.020958481
0.020875095
0.020790016
0.020703261
0.020614843
0.020524772
0.02043305
0.020339678
0.020244648
0.02014795
0.020049564
0.01994947
0.019847634
0.019744022
0.019638581
0.01953126
0.019421981
0.01931067
0.019197216
0.019081517
0.018963421
0.018842786
0.0187194
0.018593069
0.01846349
0.018330391
0.018193338
0.018051935
0.017905541
0.017753552
0.017594975
0.017428811
0.017253449
0.01706704
0.02295851
0.022957479
0.022952857
0.022944751
0.022933261
0.022918475
0.022900476
0.022879345
0.022855159
0.022827998
0.022797936
0.022765045
0.022729397
0.022691058
0.02265009
0.022606554
0.022560505
0.022512001
0.022461097
0.022407848
0.022352311
0.022294541
0.022234589
0.022172507
0.022108341
0.022042135
0.021973929
0.021903762
0.021831672
0.021757693
0.02168186
0.021604202
0.021524747
0.02144352
0.021360543
0.021275839
0.021189429
0.02110133
0.021011556
0.020920117
0.020827016
0.020732256
0.02063583
0.020537728
0.020437933
0.020336426
0.020233175
0.020128149
0.020021297
0.019912571
0.019801897
0.019689203
0.019574384
0.019457342
0.01933793
0.019216014
0.019091386
0.01896386
0.018833143
0.018698968
0.018560914
0.018418591
0.018271372
0.018118657
0.017959476
0.017792831
0.017617157
0.017430656
0.017230617
0.023392491
0.023394559
0.023393394
0.023388587
0.023380246
0.023368467
0.023353339
0.023334947
0.023313372
0.023288696
0.023260996
0.02323035
0.023196832
0.023160514
0.023121464
0.023079746
0.02303542
0.022988545
0.022939178
0.022887375
0.022833194
0.022776691
0.022717923
0.022656943
0.022593802
0.02252855
0.022461229
0.022391882
0.022320549
0.022247266
0.022172071
0.022094999
0.02201608
0.021935343
0.021852814
0.02176852
0.021682484
0.021594728
0.02150527
0.021414125
0.021321303
0.021226811
0.021130649
0.021032812
0.020933294
0.020832077
0.020729145
0.020624469
0.020518019
0.020409747
0.020299608
0.020187531
0.020073449
0.019957261
0.019838874
0.019718147
0.019594949
0.019469084
0.019340369
0.019208522
0.019073283
0.018934242
0.018791015
0.018642991
0.018489574
0.018329815
0.01816272
0.017986765
0.017800206
0.017600431
0.023829464
0.023835225
0.023837244
0.023835942
0.023830946
0.023822362
0.023810286
0.023794809
0.023776015
0.023753987
0.023728809
0.02370056
0.023669318
0.02363516
0.023598159
0.023558384
0.023515901
0.023470771
0.023423054
0.023372808
0.023320091
0.023264961
0.023207476
0.023147693
0.023085667
0.02302145
0.022955093
0.02288664
0.022816134
0.022743615
0.022669122
0.022592693
0.022514362
0.022434164
0.022352127
0.02226828
0.022182653
0.02209527
0.022006153
0.021915321
0.02182279
0.021728571
0.021632671
0.021535093
0.021435833
0.021334885
0.021232234
0.021127866
0.021021752
0.020913867
0.020804166
0.020692605
0.020579118
0.020463642
0.020346081
0.020226346
0.020104302
0.019979825
0.019852726
0.019722828
0.01958986
0.019453567
0.019313553
0.019169438
0.019020627
0.018866531
0.018706218
0.018538702
0.018362497
0.018175914
0.017976433
0.017777488
0.024269155
0.024279115
0.024284864
0.024286831
0.024285386
0.024280195
0.024271362
0.024258982
0.024243146
0.02422394
0.02420145
0.024175759
0.024146948
0.024115099
0.024080287
0.024042589
0.024002075
0.023958812
0.023912862
0.023864288
0.023813147
0.023759499
0.023703402
0.023644917
0.023584101
0.023521011
0.023455701
0.023388221
0.023318617
0.023246932
0.023173209
0.023097486
0.023019803
0.022940196
0.022858699
0.022775344
0.022690165
0.022603189
0.022514442
0.022423948
0.022331727
0.022237794
0.022142163
0.022044841
0.021945832
0.021845134
0.021742742
0.021638644
0.021532826
0.021425264
0.021315933
0.021204792
0.021091801
0.020976898
0.020860022
0.020741083
0.020619997
0.020496636
0.02037088
0.020242551
0.020111474
0.019977393
0.019840056
0.019699082
0.019554095
0.019404517
0.019249761
0.019088918
0.01892101
0.018744586
0.01855801
0.018358852
0.018160372
0.018011013
0.024693633
0.024711855
0.024725931
0.024735942
0.024741676
0.024743586
0.024741995
0.024736603
0.024727513
0.02471482
0.024698617
0.02467899
0.024656026
0.02462981
0.024600425
0.024567954
0.024532476
0.024494066
0.024452798
0.024408739
0.024361954
0.024312506
0.024260453
0.024205856
0.024148775
0.024089272
0.024027405
0.023963232
0.023896809
0.023828186
0.023757411
0.023684529
0.023609582
0.02353261
0.023453654
0.02337275
0.023289936
0.023205247
0.023118718
0.023030377
0.022940251
0.022848364
0.022754737
0.022659386
0.022562327
0.022463567
0.022363112
0.022260962
0.022157112
0.022051553
0.021944273
0.021835251
0.021724463
0.021611872
0.021497442
0.021381114
0.021262831
0.02114251
0.02102007
0.020895391
0.020768357
0.020638799
0.02050655
0.020371363
0.020232993
0.020091071
0.019945226
0.019794898
0.019639504
0.019478153
0.019309881
0.019133265
0.018946726
0.018747919
0.018549934
0.018400444
0.018325782
0.025157556
0.025175964
0.025190156
0.025200217
0.025205933
0.025207783
0.025206039
0.02520044
0.025191085
0.025178071
0.02516149
0.025141431
0.025117982
0.025091229
0.025061258
0.025028152
0.024991991
0.024952855
0.024910817
0.024865946
0.024818309
0.024767969
0.024714987
0.024659423
0.024601339
0.024540799
0.024477861
0.024412586
0.02434503
0.024275245
0.02420328
0.02412918
0.024052988
0.023974747
0.023894497
0.023812278
0.023728129
0.02364209
0.023554193
0.023464471
0.023372949
0.023279652
0.023184602
0.023087817
0.022989314
0.0228891
0.022787184
0.022683566
0.022578245
0.022471211
0.022362456
0.02225196
0.022139704
0.022025653
0.021909774
0.021792014
0.021672319
0.02155061
0.021426813
0.021300813
0.021172503
0.021041719
0.020908303
0.020772016
0.020632622
0.020489764
0.020343077
0.020192015
0.020036001
0.019874165
0.019705554
0.019528774
0.0193423
0.01914387
0.018946409
0.018796839
0.018721321
0.018716808
0.018775936
0.025606237
0.025629205
0.0256478
0.025662109
0.025672217
0.025677912
0.025679695
0.025677794
0.025671979
0.025662352
0.025649007
0.025632038
0.025611536
0.025587589
0.025560286
0.025529714
0.025495959
0.025459101
0.025419223
0.025376398
0.025330699
0.025282192
0.025230942
0.025177012
0.025120462