/*--------------------------------*- C++ -*----------------------------------*\
| =========                 |                                                 |
| \\      /  F ield         | OpenFOAM: The Open Source CFD Toolbox           |
|  \\    /   O peration     | Version:  2.4.0                                 |
|   \\  /    A nd           | Web:      www.OpenFOAM.org                      |
|    \\/     M anipulation  |                                                 |
\*---------------------------------------------------------------------------*/
FoamFile
{
    version     2.0;
    format      ascii;
    class       volScalarField;
    location    "20000";
    object      p;
}
// * * * * * * * * * * * * * * * * * * * * * * * * * * * * * * * * * * * * * //

dimensions      [0 2 -2 0 0 0 0];

internalField   nonuniform List<scalar> 
9779
(
0.2483146
0.24934241
0.25035533
0.25135311
0.25233647
0.25330493
0.25425949
0.25519934
0.24292762
0.24403366
0.24512373
0.24619813
0.24725685
0.24830026
0.24932828
0.2503414
0.2513394
0.25232297
0.25329165
0.25424643
0.25518652
0.25611333
0.25702554
0.25792521
0.25881027
0.23949611
0.24065081
0.24178924
0.24291145
0.24401768
0.24510794
0.24618254
0.24724146
0.24828508
0.2493133
0.25032665
0.25132486
0.25230866
0.25327758
0.2542326
0.25517294
0.2561
0.25701247
0.25791241
0.25879774
0.25967144
0.22431694
0.22567318
0.22701256
0.22833503
0.22964059
0.2309292
0.2322009
0.23345571
0.23469368
0.23591485
0.23711933
0.23830716
0.23947848
0.24063336
0.24177197
0.24289437
0.24400079
0.24509125
0.24616605
0.24722518
0.24826902
0.24929747
0.25031105
0.2513095
0.25229354
0.2532627
0.25421798
0.25515858
0.25608591
0.25699866
0.25789888
0.2587845
0.2596585
0.26051771
0.26136642
0.22429675
0.22565308
0.22699255
0.22831513
0.22962079
0.23090953
0.23218136
0.2334363
0.23467442
0.23589575
0.23710038
0.23828838
0.23945988
0.24061495
0.24175375
0.24287635
0.24398297
0.24507364
0.24614866
0.24720801
0.24825209
0.24928077
0.25029459
0.25129329
0.25227758
0.25324701
0.25420256
0.25514343
0.25607104
0.25698408
0.2578846
0.25877053
0.25964485
0.26050439
0.26135344
0.26218728
0.26301213
0.2229023
0.22427549
0.2256319
0.22697147
0.22829416
0.22959994
0.23088881
0.23216077
0.23341586
0.23465413
0.23587562
0.23708043
0.23826861
0.2394403
0.24059556
0.24173456
0.24285736
0.2439642
0.24505509
0.24613035
0.24718994
0.24823425
0.24926318
0.25027725
0.25127621
0.25226078
0.25323048
0.25418631
0.25512747
0.25605538
0.25696873
0.25786956
0.25875582
0.25963047
0.26049036
0.26133977
0.26217398
0.26299922
0.22287987
0.22425314
0.22560964
0.22694931
0.22827211
0.22957802
0.23086702
0.23213913
0.23339438
0.23463281
0.23585447
0.23705946
0.23824782
0.23941971
0.24057517
0.24171439
0.24283741
0.24394447
0.2450356
0.24611109
0.24717093
0.24821549
0.24924469
0.25025903
0.25125826
0.25224311
0.2532131
0.25416923
0.25511069
0.25603891
0.25695258
0.25785375
0.25874035
0.25961535
0.2604756
0.26132539
0.26216
0.26298565
0.26379534
0.22146629
0.22285631
0.22422967
0.22558627
0.22692605
0.22824897
0.22955501
0.23084415
0.23211641
0.23337182
0.23461042
0.23583226
0.23703744
0.238226
0.23939809
0.24055377
0.24169321
0.24281646
0.24392376
0.24501513
0.24609087
0.24715097
0.2481958
0.24922527
0.25023989
0.25123941
0.25222456
0.25319485
0.25415129
0.25509307
0.25602162
0.25693563
0.25783714
0.2587241
0.25959947
0.26046011
0.2613103
0.26214531
0.26297141
0.26378156
0.26458476
0.22144151
0.22283162
0.22420506
0.22556177
0.22690166
0.22822471
0.22953089
0.23082017
0.2320926
0.23334817
0.23458695
0.23580898
0.23701436
0.23820313
0.23937543
0.24053133
0.241671
0.24279449
0.24390204
0.24499367
0.24606968
0.24713005
0.24817516
0.24920491
0.25021983
0.25121965
0.2522051
0.25317572
0.25413248
0.2550746
0.25600349
0.25691785
0.25781973
0.25870707
0.25958282
0.26044386
0.26129447
0.26212992
0.26295649
0.26376711
0.26457081
0.22000885
0.22141557
0.22280576
0.2241793
0.22553611
0.22687613
0.22819931
0.22950563
0.23079507
0.23206766
0.23332341
0.23456238
0.23578461
0.23699019
0.23817918
0.23935171
0.24050784
0.24164775
0.2427715
0.24387931
0.2449712
0.24604749
0.24710814
0.24815354
0.2491836
0.25019882
0.25119896
0.25218473
0.25315568
0.25411278
0.25505525
0.25598451
0.25689924
0.25780149
0.25868923
0.25956539
0.26042685
0.26127788
0.26211381
0.26294086
0.26375199
0.26455619
0.26534319
0.21855845
0.21998165
0.22138845
0.22277873
0.22415237
0.22550929
0.22684944
0.22817275
0.22947922
0.23076883
0.23204159
0.23329753
0.23453669
0.23575912
0.23696492
0.23815413
0.2393269
0.24048327
0.24162344
0.24274745
0.24385553
0.2449477
0.24602428
0.24708522
0.24813093
0.2491613
0.25017684
0.25117732
0.25216343
0.25313472
0.25409218
0.25503502
0.25596465
0.25687977
0.25778242
0.25867057
0.25954715
0.26040905
0.26126054
0.26209696
0.26292451
0.26373616
0.2645409
0.26532847
0.26611185
0.21852998
0.21995324
0.22136012
0.22275049
0.22412423
0.22548127
0.22682155
0.22814501
0.22945164
0.23074141
0.23201436
0.23327049
0.23450985
0.2357325
0.23693852
0.23812797
0.23930098
0.24045761
0.24159805
0.24272233
0.24383069
0.24492316
0.24600003
0.24706129
0.24810731
0.24913801
0.25015389
0.25115471
0.25214117
0.25311283
0.25407066
0.25501388
0.2559439
0.25685942
0.25776249
0.25865107
0.25952809
0.26039045
0.26124243
0.26207937
0.26290743
0.26371963
0.26452492
0.26531309
0.26609707
0.21706074
0.21850028
0.21992361
0.22133057
0.22272103
0.22409488
0.22545205
0.22679246
0.22811607
0.22942286
0.23071281
0.23198594
0.23324227
0.23448185
0.23570472
0.23691098
0.23810067
0.23927394
0.24043084
0.24157155
0.24269611
0.24380477
0.24489754
0.24597473
0.24703631
0.24808267
0.2491137
0.25012993
0.25113111
0.25211794
0.25308998
0.2540482
0.25499181
0.25592224
0.25683819
0.25774169
0.25863071
0.2595082
0.26037104
0.26122353
0.26206101
0.26288961
0.26370236
0.26450823
0.26529702
0.26608164
0.26684727
0.21702973
0.21846933
0.21989272
0.22129976
0.22269032
0.22406429
0.22542158
0.22676214
0.22808591
0.22939286
0.230683
0.23195633
0.23321287
0.23445267
0.23567577
0.23688227
0.23807222
0.23924575
0.24040293
0.24154392
0.24266879
0.24377775
0.24487084
0.24594835
0.24701027
0.24805697
0.24908836
0.25010495
0.2511065
0.25209372
0.25306615
0.25402477
0.25496881
0.25589966
0.25681605
0.25772
0.25860949
0.25948745
0.26035081
0.26120384
0.26204186
0.26287101
0.26368436
0.26449083
0.26528027
0.26606554
0.26683189
0.2155418
0.21699745
0.2184371
0.21986057
0.22126769
0.22265835
0.22403244
0.22538986
0.22673057
0.2280545
0.22936163
0.23065196
0.23192549
0.23318225
0.23442228
0.23564562
0.23685238
0.23804259
0.2392164
0.24037386
0.24151516
0.24264033
0.24374961
0.24484303
0.24592088
0.24698315
0.24803021
0.24906197
0.25007894
0.25108088
0.25206849
0.25304133
0.25400037
0.25494484
0.25587613
0.25679298
0.2576974
0.25858738
0.25946584
0.26032974
0.26118332
0.26202192
0.26285164
0.2636656
0.26447269
0.2652628
0.26604875
0.26681585
0.26758254
0.2140367
0.21550818
0.21696388
0.21840358
0.21982712
0.22123433
0.2226251
0.22399931
0.22535687
0.22669773
0.22802183
0.22932915
0.23061967
0.23189342
0.2331504
0.23439067
0.23561426
0.23682128
0.23801177
0.23918587
0.24034363
0.24148523
0.24261072
0.24372033
0.24481409
0.2458923
0.24695492
0.24800236
0.2490345
0.25005186
0.25105421
0.25204224
0.2530155
0.25397498
0.2549199
0.25585165
0.25676897
0.25767387
0.25856436
0.25944335
0.26030783
0.26116198
0.26200115
0.26283147
0.26364607
0.2644538
0.26524462
0.26603127
0.26679915
0.26756662
0.21400175
0.21547326
0.21692899
0.21836875
0.21979236
0.22119967
0.22259054
0.22396488
0.22532259
0.2266636
0.22798788
0.22929539
0.23058612
0.23186008
0.2331173
0.23435781
0.23558167
0.23678896
0.23797973
0.23915412
0.24031219
0.24145412
0.24257994
0.2436899
0.24478401
0.24586258
0.24692558
0.2479734
0.24900594
0.25002371
0.25102648
0.25201494
0.25298864
0.25394857
0.25489396
0.25582619
0.25674401
0.25764941
0.25854043
0.25941998
0.26028505
0.26113977
0.26197956
0.2628105
0.26362576
0.26443415
0.2652257
0.26601307
0.26678176
0.26755003
0.21247843
0.21396547
0.215437
0.21689277
0.21833259
0.21975628
0.22116368
0.22255467
0.22392914
0.22528699
0.22662817
0.22795263
0.22926034
0.23055128
0.23182547
0.23308292
0.23432369
0.23554782
0.23675539
0.23794646
0.23912116
0.24027955
0.2414218
0.24254797
0.24365829
0.24475277
0.24583171
0.24689511
0.24794333
0.24897628
0.24999447
0.25099767
0.25198657
0.25296074
0.25392114
0.25486701
0.25579973
0.25671807
0.257624
0.25851557
0.25939571
0.26026138
0.26111671
0.26195713
0.2627887
0.26360465
0.26441373
0.26520603
0.26599415
0.26676368
0.26753277
0.21244081
0.21392785
0.21539939
0.2168552
0.21829509
0.21971885
0.22112635
0.22251746
0.22389206
0.22525007
0.22659142
0.22791606
0.22922397
0.23051514
0.23178956
0.23304726
0.2342883
0.2355127
0.23672056
0.23791194
0.23908696
0.24024568
0.24138828
0.2425148
0.24362548
0.24472034
0.24579968
0.24686348
0.24791211
0.24894549
0.24996412
0.25096777
0.25195713
0.25293178
0.25389266
0.25483903
0.25577227
0.25669113
0.25759761
0.25848977
0.25937053
0.26023681
0.26109275
0.26193383
0.26276606
0.26358272
0.26439251
0.26518559
0.26597449
0.26674489
0.26751483
0.26826356
0.21089956
0.21240182
0.21388885
0.21536042
0.21681627
0.21825622
0.21968007
0.22108767
0.2224789
0.22385364
0.22521181
0.22655333
0.22787817
0.22918629
0.23047767
0.23175234
0.2330103
0.23425161
0.2354763
0.23668446
0.23787615
0.2390515
0.24021056
0.24135352
0.24248041
0.24359147
0.24468672
0.24576646
0.24683068
0.24787974
0.24891356
0.24993265
0.25093676
0.2519266
0.25290174
0.25386313
0.25481002
0.25574378
0.2566632
0.25757024
0.25846303
0.25934441
0.26021133
0.2610679
0.26190966
0.26274257
0.26355997
0.2643705
0.26516438
0.26595408
0.26672538
0.26749619
0.26824593
0.21085922
0.21236145
0.21384849
0.21532008
0.21677597
0.21821598
0.21963991
0.22104762
0.22243897
0.22381385
0.22517218
0.22651389
0.22783892
0.22914726
0.23043888
0.23171379
0.23297202
0.23421361
0.23543859
0.23664707
0.23783908
0.23901477
0.24017419
0.24131751
0.24244478
0.24355623
0.24465189
0.24573205
0.2467967
0.2478462
0.24888048
0.24990003
0.25090463
0.25189496
0.25287061
0.25383251
0.25477994
0.25571426
0.25663424
0.2575419
0.25843534
0.25931734
0.26018491
0.26104215
0.2618846
0.26271822
0.26353638
0.26434766
0.26514238
0.2659329
0.26670513
0.26747683
0.26822762
0.26898305
0.20930042
0.2108175
0.2123197
0.21380673
0.21527834
0.21673428
0.21817435
0.21959837
0.22100619
0.22239767
0.2237727
0.22513119
0.22647308
0.22779832
0.22910688
0.23039874
0.23167391
0.23293241
0.23417429
0.23539958
0.23660837
0.23780072
0.23897676
0.24013654
0.24128024
0.2424079
0.24351976
0.24461583
0.24569642
0.24676152
0.24781148
0.24884623
0.24986626
0.25087135
0.2518622
0.25283837
0.25380081
0.2547488
0.25568368
0.25660426
0.25751256
0.25840666
0.2592893
0.26015755
0.26101546
0.26185865
0.26269299
0.26351193
0.26432399
0.26511958
0.26591094
0.26668413
0.26745675
0.26820862
0.26896505
0.26969683
0.27044041
0.20925735
0.21077437
0.21227655
0.21376358
0.21523521
0.21669119
0.21813133
0.21955544
0.22096336
0.22235497
0.22373015
0.22508882
0.2264309
0.22775635
0.22906514
0.23035724
0.23163268
0.23289146
0.23413363
0.23535923
0.23656836
0.23776105
0.23893745
0.2400976
0.24124169
0.24236976
0.24348203
0.24457854
0.24565957
0.24672512
0.24777555
0.24881079
0.24983132
0.25083693
0.2518283
0.25280501
0.25376801
0.25471657
0.25565204
0.25657326
0.25748223
0.25837699
0.25926029
0.26012923
0.26098784
0.26183178
0.26266686
0.26348662
0.26429948
0.26509597
0.26588819
0.26666237
0.26743593
0.26818891
0.26894637
0.2696794
0.2704241
0.20921288
0.21072985
0.212232
0.21371903
0.21519068
0.2166467
0.21808691
0.21951111
0.22091914
0.22231088
0.22368622
0.22504506
0.22638734
0.227713
0.22902202
0.23031438
0.23159008
0.23284915
0.23409163
0.23531756
0.23652702
0.23772007
0.23889683
0.24005737
0.24120186
0.24233034
0.24344305
0.24454
0.24562149
0.24668751
0.24773843
0.24877416
0.24979521
0.25080134
0.25179326
0.25277053
0.2537341
0.25468325
0.25561933
0.25654123
0.25745087
0.25834631
0.25923029
0.26009995
0.26095928
0.26180399
0.26263984
0.26346044
0.26427412
0.26507152
0.26586463
0.26663984
0.26741436
0.26816848
0.26892699
0.26966131
0.27040714
0.27112311
0.20916701
0.21068392
0.21218604
0.21367306
0.21514473
0.2166008
0.21804108
0.21946537
0.22087352
0.22226539
0.22364089
0.22499991
0.22634239
0.22766827
0.22897753
0.23027014
0.23154612
0.23280549
0.23404828
0.23527454
0.23648434
0.23767776
0.2388549
0.24001584
0.24116074
0.24228964
0.24340279
0.2445002
0.24558216
0.24664867
0.24770008
0.24873633
0.24975791
0.25076459
0.25175706
0.25273491
0.25369906
0.25464882
0.25558556
0.25650817
0.25741848
0.25831461
0.25919928
0.26006969
0.26092976
0.26177526
0.2626119
0.26343337
0.26424789
0.26504624
0.26584026
0.26661652
0.26739203
0.26814732
0.26890689
0.26964254
0.27038951
0.27110697
0.20911974
0.21063659
0.21213867
0.21362569
0.21509738
0.21655349
0.21799384
0.21941822
0.22082648
0.2222185
0.22359415
0.22495336
0.22629604
0.22762214
0.22893165
0.23022453
0.23150079
0.23276046
0.23400357
0.23523017
0.23644033
0.23763412
0.23881165
0.23997299
0.24111831
0.24224766
0.24336126
0.24445913
0.24554158
0.24660858
0.24766051
0.24869729
0.24971941
0.25072665
0.25171969
0.25269814
0.2536629
0.2546133
0.25555073
0.25647405
0.25738504
0.25828188
0.25916727
0.26003844
0.26089927
0.2617456
0.26258304
0.2634054
0.26422079
0.26502012
0.26581507
0.2665924
0.26736892
0.26812542
0.26888607
0.26962308
0.27037121
0.27109019
0.27183019
0.20907106
0.21058785
0.2120899
0.21357691
0.21504861
0.21650477
0.21794519
0.21936966
0.22077804
0.2221702
0.22354602
0.22490541
0.22624829
0.22757463
0.22888438
0.23017753
0.23145409
0.23271406
0.23395751
0.23518445
0.23639498
0.23758914
0.23876708
0.23992883
0.24107459
0.24220438
0.24331844
0.2444168
0.24549974
0.24656726
0.24761971
0.24865704
0.24967971
0.25068753
0.25168116
0.25266022
0.25362559
0.25457668
0.25551483
0.25643885
0.25735054
0.25824812
0.25913425
0.2600062
0.26086781
0.26171498
0.26255325
0.26337653
0.2641928
0.26499313
0.26578903
0.26656748
0.26734502
0.26810277
0.26886452
0.26960291
0.27035221
0.27107276
0.27181396
0.27251815
0.20902099
0.21053771
0.21203972
0.21352672
0.21499845
0.21645465
0.21789513
0.2193197
0.2207282
0.2221205
0.22349648
0.22485606
0.22619916
0.22752573
0.22883573
0.23012916
0.23140601
0.2326663
0.23391008
0.23513737
0.23634828
0.23754283
0.23872118
0.23988336
0.24102955
0.24215981
0.24327434
0.24437319
0.24545664
0.24652469
0.24757768
0.24861556
0.24963881
0.25064721
0.25164145
0.25262113
0.25358716
0.25453898
0.25547785
0.25640258
0.25731498
0.25821331
0.2591002
0.25997296
0.26083537
0.2616834
0.26252253
0.26334674
0.26416392
0.26496529
0.26576216
0.26654175
0.26732033
0.26807934
0.26884221
0.26958203
0.27033251
0.27105464
0.27179706
0.27250299
0.20896952
0.21048618
0.21198815
0.21347514
0.21494688
0.21640312
0.21784367
0.21926833
0.22067695
0.2220694
0.22344555
0.22480532
0.22614863
0.22747544
0.22878571
0.23007941
0.23135657
0.23261718
0.2338613
0.23508895
0.23630023
0.23749519
0.23867395
0.23983657
0.24098321
0.24211394
0.24322896
0.24432831
0.24541228
0.24648087
0.24753441
0.24857287
0.2495967
0.25060571
0.25160056
0.25258089
0.25354763
0.25450019
0.25543977
0.25636523
0.25727836
0.25817747
0.25906513
0.25993871
0.26080194
0.26165087
0.26249086
0.26331604
0.26413415
0.26493657
0.26573443
0.26651519
0.26729483
0.26805515
0.26881914
0.26956041
0.27031208
0.27103583
0.27177945
0.27248715
0.2732282
0.20891668
0.21043327
0.2119352
0.21342217
0.21489392
0.21635021
0.21779083
0.21921558
0.22062432
0.22201691
0.22339323
0.2247532
0.22609673
0.22742378
0.22873431
0.2300283
0.23130576
0.2325667
0.23381117
0.23503919
0.23625086
0.23744622
0.23862541
0.23978847
0.24093558
0.24206678
0.2431823
0.24428217
0.24536667
0.2464358
0.24748991
0.24852895
0.24955338
0.25056301
0.2515585
0.25253951
0.25350699
0.2544603
0.25540059
0.25632679
0.25724068
0.25814058
0.25902903
0.25990346
0.26076753
0.26161737
0.26245825
0.26328442
0.26410347
0.26490698
0.26570585
0.2664878
0.26726852
0.26803016
0.2687953
0.26953805
0.27029091
0.27101631
0.27176113
0.27247062
0.27321281
0.20886248
0.21037899
0.21188088
0.21336783
0.2148396
0.21629592
0.21773661
0.21916146
0.22057032
0.22196306
0.22333955
0.22469971
0.22604346
0.22737075
0.22868155
0.22997583
0.2312536
0.23251488
0.23375969
0.23498809
0.23620015
0.23739593
0.23857555
0.23973907
0.24088664
0.24201834
0.24313437
0.24423476
0.2453198
0.2463895
0.24744418
0.24848382
0.24950887
0.25051913
0.25151527
0.25249702
0.25346526
0.25441929
0.25536031
0.25628727
0.25720193
0.25810264
0.25899191
0.2598672
0.26073213
0.2615829
0.26242469
0.26325187
0.26407189
0.2648765
0.2656764
0.26645957
0.26724138
0.26800439
0.26877067
0.26951494
0.27026898
0.27099605
0.27174207
0.27245337
0.27319666
0.27389276
0.20880694
0.21032337
0.21182521
0.21331214
0.21478392
0.21624028
0.21768104
0.21910598
0.22051496
0.22190784
0.22328451
0.22464487
0.22598884
0.22731638
0.22862745
0.22992202
0.23120011
0.23246172
0.2337069
0.23493567
0.23614814
0.23734434
0.2385244
0.23968837
0.24083643
0.24196862
0.24308517
0.24418609
0.24527169
0.24634196
0.24739723
0.24843748
0.24946316
0.25047406
0.2514709
0.25245343
0.2534224
0.25437717
0.25531893
0.25624668
0.25716212
0.25806367
0.25895375
0.25982994
0.26069574
0.26154747
0.26239018
0.2632184
0.2640394
0.26484514
0.26564609
0.26643051
0.26721342
0.26797781
0.26874525
0.26949106
0.27024629
0.27097506
0.27172225
0.27243538
0.27317974
0.27387767
0.20875009
0.21026643
0.21176822
0.21325513
0.21472691
0.21618331
0.21762413
0.21904917
0.22045827
0.2218513
0.22322814
0.22458869
0.22593289
0.22726068
0.22857202
0.22986689
0.2311453
0.23240725
0.23365279
0.23488195
0.23609482
0.23729145
0.23847196
0.2396364
0.24078494
0.24191764
0.24303472
0.24413619
0.24522235
0.24629321
0.24734908
0.24838995
0.24941626
0.25042784
0.25142544
0.25240873
0.25337843
0.25433395
0.25527647
0.25620502
0.25712126
0.25802365
0.25891458
0.25979168
0.26065837
0.26151107
0.26235473
0.263184
0.264006
0.2648129
0.26561491
0.2664006
0.26718463
0.26795042
0.26871904
0.2694664
0.27022282
0.2709533
0.27170165
0.27241662
0.27316201
0.27386179
0.20869195
0.21020821
0.21170993
0.21319682
0.21466861
0.21612504
0.21756592
0.21899105
0.22040027
0.22179345
0.22317046
0.22453121
0.22587564
0.22720367
0.22851529
0.22981046
0.23108919
0.23235149
0.2335974
0.23482695
0.23604023
0.23723729
0.23841825
0.23958317
0.24073221
0.24186543
0.24298303
0.24408506
0.24517179
0.24624324
0.24729973
0.24834123
0.24936819
0.2503805
0.25137888
0.25236292
0.25333335
0.25428964
0.25523294
0.25616229
0.25707935
0.25798261
0.2588744
0.25975242
0.26062002
0.26147371
0.26231833
0.26314868
0.2639717
0.26477978
0.26558286
0.26636984
0.267155
0.26792223
0.26869201
0.26944095
0.27019856
0.27093077
0.27168025
0.27239707
0.27314345
0.27384506
0.27459421
0.20710223
0.20863256
0.21014873
0.21165039
0.21313725
0.21460904
0.2160655
0.21750644
0.21893166
0.220341
0.22173432
0.2231115
0.22447246
0.22581711
0.2271454
0.22845729
0.22975276
0.23103181
0.23229446
0.23354074
0.23477069
0.23598439
0.23718189
0.23836331
0.23952871
0.24067825
0.24181199
0.24293014
0.24403272
0.24512004
0.2461921
0.2472492
0.24829135
0.24931899
0.25033209
0.25133123
0.25231601
0.25328718
0.25424425
0.25518833
0.25611852
0.25703641
0.25794055
0.25883321
0.25971217
0.2605807
0.26143541
0.262281
0.26311245
0.2639365
0.26474577
0.26554994
0.26633824
0.26712454
0.26789321
0.26866417
0.2694147
0.27017349
0.27090744
0.27165804
0.2723767
0.27312403
0.27382748
0.27457724
0.20704176
0.20857196
0.21008803
0.21158963
0.21307645
0.21454824
0.21600473
0.21744573
0.21887103
0.22028049
0.22167395
0.22305131
0.22441246
0.22575734
0.22708588
0.22839805
0.22969382
0.23097321
0.2322362
0.23348286
0.23471321
0.23592732
0.23712527
0.23830715
0.23947304
0.24062309
0.24175735
0.24287605
0.24397921
0.24506711
0.24613979
0.24719751
0.24824032
0.24926872
0.25028261
0.25128249
0.252268
0.25323994
0.2541978
0.25514268
0.25607371
0.25699244
0.25789748
0.25879103
0.25967095
0.26054041
0.26139616
0.26224274
0.26307531
0.2639004
0.26471089
0.26551615
0.26630579
0.26709323
0.26786337
0.2686355
0.26938765
0.2701476
0.27088331
0.27163499
0.27235551
0.27310372
0.27380899
0.2745593
0.20543632
0.20698013
0.2085102
0.21002616
0.21152769
0.21301448
0.21448626
0.21594277
0.21738383
0.21880921
0.22021878
0.22161239
0.22298991
0.22435127
0.22569637
0.22702516
0.22833761
0.22963369
0.2309134
0.23217675
0.23342378
0.23465453
0.23586907
0.23706746
0.23824981
0.23941619
0.24056675
0.24170156
0.24282081
0.24392454
0.24501305
0.24608634
0.2471447
0.24818823
0.24921743
0.25023207
0.25123266
0.25221894
0.25319165
0.25415032
0.25509601
0.25602789
0.25694748
0.25785342
0.25874788
0.25962878
0.26049919
0.26135598
0.26220356
0.26303727
0.26386341
0.26467514
0.26548151
0.2662725
0.26706109
0.26783272
0.26860602
0.26935979
0.27012089
0.27085836
0.27161108
0.27233345
0.27308249
0.27378956
0.27454033
0.20381681
0.20537376
0.2069174
0.20844732
0.20996318
0.21146463
0.21295137
0.21442314
0.21587968
0.21732078
0.21874625
0.22015593
0.22154968
0.22292737
0.22428892
0.22563425
0.22696329
0.22827601
0.2295724
0.23085244
0.23211614
0.23336355
0.2345947
0.23580967
0.23700851
0.23819133
0.23935821
0.24050929
0.24164463
0.24276445
0.24386875
0.24495786
0.24603179
0.24709081
0.24813514
0.2491651
0.25018046
0.25118179
0.25216884
0.25314232
0.25410181
0.25504832
0.25598108
0.25690153
0.2578084
0.25870377
0.25958565
0.26045703
0.26131489
0.26216348
0.26299834
0.26382555
0.26463853
0.26544602
0.26623837
0.26702812
0.26780124
0.2685757
0.26933111
0.27009334
0.27083257
0.2715863
0.27231052
0.27306032
0.27376918
0.2745203
0.27520844
0.20375342
0.20531016
0.20685361
0.20838339
0.20989913
0.21140051
0.2128872
0.21435895
0.2158155
0.21725665
0.2186822
0.22009198
0.22148587
0.22286373
0.22422547
0.22557102
0.22690031
0.22821331
0.22951
0.23079037
0.23205443
0.23330222
0.23453377
0.23574916
0.23694845
0.23813175
0.23929913
0.24045073
0.24158661
0.242707
0.24381189
0.24490161
0.24597617
0.24703595
0.24808107
0.24911174
0.25012783
0.25112991
0.25211773
0.253092
0.25405232
0.25499966
0.25593329
0.25685462
0.25776243
0.25865872
0.25954161
0.26041396
0.2612729
0.26212252
0.26295854
0.26378683
0.26460107
0.26540968
0.26620341
0.26699431
0.26776894
0.26854457
0.26930161
0.27006495
0.27080593
0.27156064
0.27228667
0.27303718
0.27374779
0.27449919
0.27518868
0.20211971
0.20368906
0.20524557
0.20678884
0.20831847
0.20983409
0.21133538
0.21282201
0.21429375
0.2157503
0.2171915
0.21861712
0.220027
0.22142103
0.22279904
0.22416098
0.22550675
0.22683629
0.22814956
0.22944655
0.23072725
0.23199166
0.23323983
0.23447178
0.2356876
0.23688735
0.23807112
0.239239
0.24039112
0.24152756
0.24264851
0.24375398
0.24484431
0.2459196
0.24698017
0.248026
0.24905738
0.25007421
0.25107704
0.25206564
0.25304072
0.25400186
0.25495005
0.25588457
0.25680679
0.25771554
0.25861277
0.25949667
0.26037001
0.26123003
0.26208069
0.26291789
0.26374726
0.26456278
0.26537251
0.26616763
0.26695969
0.26773582
0.2685126
0.26927128
0.2700357
0.27077843
0.27153407
0.27226191
0.27301304
0.27372538
0.27447693
0.27516775
0.27592693
0.20047334
0.20205471
0.2036238
0.20518007
0.20672315
0.20825262
0.20976811
0.21126931
0.21275589
0.21422759
0.21568416
0.21712539
0.21855107
0.21996106
0.22135521
0.22273338
0.22409551
0.2254415
0.22677128
0.22808482
0.22938211
0.23066313
0.23192789
0.23317644
0.2344088
0.23562505
0.23682524
0.23800949
0.23917787
0.24033052
0.2414675
0.24258902
0.24369508
0.24478608
0.24586215
0.24692345
0.24796998
0.24900207
0.25001964
0.25102323
0.25201263
0.25298851
0.25395049
0.25489953
0.25583495
0.25675806
0.25766777
0.25856594
0.25945087
0.26032519
0.26118632
0.26203802
0.2628764
0.26370686
0.26452367
0.26533453
0.26613105
0.26692425
0.2677019
0.26847981
0.26924012
0.27000561
0.27075006
0.27150658
0.27223619
0.27298787
0.2737019
0.27445351
0.27514562
0.27590444
0.19881497
0.20040782
0.20198888
0.2035577
0.20511375
0.20665662
0.20818592
0.20970129
0.21120238
0.21268889
0.21416057
0.21561713
0.21705839
0.21848414
0.21989421
0.22128849
0.22266682
0.22402913
0.22537533
0.22670535
0.22801916
0.22931674
0.23059809
0.2318632
0.23311212
0.23434488
0.23556155
0.2367622
0.23794693
0.2391158
0.24026898
0.24140651
0.2425286
0.24363527
0.24472702
0.24580385
0.24686583
0.24791305
0.24894586
0.24996418
0.25096853
0.25195872
0.25293541
0.25389824
0.25484813
0.25578445
0.25670846
0.25761914
0.25851826
0.25940422
0.26027955
0.26114178
0.26199453
0.26283411
0.26366566
0.26448376
0.26529575
0.26609366
0.26688801
0.26766717
0.2684462
0.26920813
0.26997465
0.27072081
0.27147816
0.27220951
0.27296166
0.27367732
0.27442888
0.27512224
0.27588055
0.27649932
0.1971453
0.19874906
0.20034157
0.20192232
0.20349086
0.20504666
0.20658934
0.20811846
0.20963369
0.21113468
0.21262112
0.21409275
0.2155493
0.21699059
0.21841639
0.21982656
0.22122095
0.22259943
0.22396191
0.22530832
0.22663857
0.22795265
0.22925052
0.23053218
0.23179764
0.23304693
0.23428009
0.23549719
0.23669828
0.23788349
0.23905286
0.24020656
0.24134464
0.2424673
0.24357469
0.2446672
0.24574469
0.24680734
0.24785527
0.2488888
0.24990787
0.25091298
0.25190397
0.25288147
0.25384516
0.25479591
0.25573313
0.25665805
0.2575697
0.25846978
0.25935677
0.2602331
0.26109645
0.26195025
0.26279103
0.26362368
0.26444308
0.26525619
0.2660555
0.26685098
0.26763165
0.26841178
0.26917531
0.26994282
0.27069067
0.27144879
0.27218183
0.27293437
0.27365162
0.274403
0.27509757
0.27585522
0.27647294
0.27729259
0.19384109
0.19546515
0.19707915
0.19868252
0.20027467
0.2018551
0.20342337
0.20497892
0.20652138
0.20805033
0.20956541
0.21106628
0.21255264
0.21402423
0.21548076
0.21692207
0.21834792
0.21975816
0.22115267
0.22253129
0.22389395
0.22524056
0.22657104
0.22788537
0.22918353
0.2304655
0.2317313
0.23298096
0.23421451
0.23543203
0.23663357
0.23781924
0.23898911
0.24014332
0.24128195
0.24240528
0.24351343
0.2446066
0.24568474
0.24674807
0.24779669
0.24883094
0.24985076
0.25085664
0.25184843
0.25282675
0.25379129
0.2547429
0.25568104
0.25660686
0.25751948
0.25842052
0.25930856
0.2601859
0.26105037
0.26190522
0.2627472
0.26358095
0.26440164
0.26521587
0.26601658
0.26681318
0.26759534
0.26837655
0.26914167
0.26991014
0.27065963
0.27141846
0.27215315
0.27290598
0.27362475
0.27437585
0.27507156
0.27582839
0.27644499
0.27726688
0.27788602
0.1937753
0.1953989
0.19701247
0.19861544
0.20020723
0.20178734
0.20335532
0.20491061
0.20645285
0.20798161
0.20949654
0.2109973
0.21248356
0.2139551
0.21541161
0.21685293
0.21827882
0.21968913
0.22108375
0.22246249
0.22382532
0.22517212
0.22650282
0.2278174
0.22911585
0.23039813
0.23166426
0.23291428
0.23414822
0.23536615
0.23656813
0.23775427
0.23892463
0.24007935
0.24121861
0.24234266
0.24345149
0.24454527
0.24562406
0.24668806
0.24773738
0.24877235
0.24979292
0.25079957
0.25179216
0.25277129
0.25373669
0.25468916
0.25562821
0.25655495
0.25746855
0.25837054
0.25925963
0.26013798
0.26100356
0.26185947
0.26270266
0.2635375
0.26435948
0.26517483
0.26597692
0.26677463
0.26755826
0.26834053
0.2691072
0.26987659
0.27062768
0.27138717
0.27212344
0.27287647
0.27359669
0.27434738
0.27504419
0.27580002
0.27641545
0.27723945
0.27785813
0.27858976
0.27923679
0.19207661
0.19370909
0.19533221
0.19694534
0.19854792
0.20013934
0.20171912
0.2032868
0.20484184
0.20638385
0.20791242
0.20942718
0.21092781
0.21241399
0.21388546
0.21534194
0.21678326
0.21820918
0.21961956
0.22101427
0.22239314
0.22375612
0.22510311
0.22643403
0.22774885
0.22904756
0.23033015
0.23159661
0.23284698
0.2340813
0.23529964
0.23650205
0.23768865
0.23885949
0.24001479
0.24115475
0.24227947
0.24338889
0.24448329
0.24556272
0.24662739
0.24767741
0.24871309
0.24973441
0.25074182
0.25173522
0.25271516
0.25368141
0.25463475
0.25557471
0.25650236
0.25741693
0.25831989
0.25921002
0.26008938
0.26095608
0.26181304
0.26265743
0.26349335
0.26431662
0.26513307
0.26593654
0.26673534
0.26752043
0.26830372
0.26907192
0.26984217
0.27059483
0.27135489
0.27209268
0.27284581
0.27356741
0.27431755
0.27501541
0.27577006
0.27638426
0.27721024
0.27782847
0.2785583
0.27920381
0.27989994
0.28055432
0.28123462
0.19201059
0.19364255
0.1952652
0.19687789
0.19848006
0.20007111
0.20165056
0.20321794
0.20477271
0.20631449
0.20784285
0.20935745
0.21085795
0.21234401
0.21381542
0.21527185
0.21671317
0.21813911
0.21954954
0.22094435
0.22232333
0.22368646
0.22503363
0.22636475
0.2276798
0.22897878
0.23026166
0.23152844
0.23277915
0.23401384
0.23523258
0.23643542
0.23762246
0.23879384
0.23994982
0.24109043
0.24221571
0.24332572
0.24442073
0.2455008
0.24656613
0.24761685
0.24865324
0.24967531
0.25068348
0.25167767
0.25265842
0.25362553
0.25457972
0.2555206
0.25644915
0.2573647
0.25826862
0.25915979
0.26004015
0.26090797
0.26176598
0.26261156
0.26344856
0.2642731
0.26509065
0.26589547
0.26669534
0.26748186
0.26826614
0.26903583
0.2698069
0.27056105
0.27132163
0.27206086
0.272814
0.27353687
0.27428634
0.27498518
0.27573847
0.27635137
0.27717917
0.27779698
0.27852487
0.27916886
0.27986063
0.28051106
0.28118477
0.28182936
0.28247989
0.28309777
0.19030427
0.19194436
0.19357581
0.19519798
0.19681023
0.19841199
0.20000267
0.20158177
0.20314885
0.20470334
0.20624488
0.20777304
0.20928746
0.21078781
0.21227376
0.21374509
0.21520147
0.21664277
0.21806872
0.2194792
0.22087409
0.22225317
0.22361644
0.22496378
0.22629509
0.22761037
0.2289096
0.23019276
0.23145985
0.2327109
0.23394596
0.23516508
0.23636833
0.23755585
0.23872788
0.2398845
0.24102564
0.24215147
0.24326206
0.24435768
0.24543838
0.24650438
0.24755578
0.24859287
0.24961568
0.25062461
0.25161959
0.25260114
0.2535691
0.25452414
0.25546593
0.25639539
0.25731191
0.25821678
0.25910899
0.25999035
0.26085928
0.26171833
0.26256509
0.26340316
0.26422896
0.26504758
0.26585374
0.26665466
0.26744258
0.26822781
0.26899893
0.26977078
0.27052636
0.27128737
0.27202796
0.272781
0.27350505
0.2742537
0.27495346
0.27570519
0.27631674
0.27714618
0.27776357
0.2784894
0.27913184
0.27981916
0.28046555
0.28113252
0.28177029
0.28241139
0.28301927
0.2836129
0.28416077
0.28467439
0.28511999
0.18859106
0.1902385
0.19187805
0.19350898
0.19513068